FOO
141312
    1MOL0     O    1   4.273   4.281   3.151 -0.2854 -0.1705 -0.7924
    1MOL0     C    2   4.266   4.397   3.146 -0.8732 -0.3508 -0.4491
    1MOL0     O    3   4.319   4.491   3.230  0.4030  0.0378  0.2657
    1MOL0     C    4   4.357   4.451   3.354  0.5347 -0.3929  0.1098
    1MOL0     C    5   4.461   4.515   3.417  0.3093 -0.2581 -0.1261
    1MOL0     C    6   4.498   4.478   3.544 -1.2413  0.0414  0.8841
    1MOL0     C    7   4.429   4.379   3.610  0.4814 -0.3385 -0.7957
    1MOL0     O    8   4.486   4.325   3.724  0.0979  0.9375  0.0604
    1MOL0     C    9   4.495   4.409   3.831 -0.0225 -1.0157 -0.1716
    1MOL0     C   10   4.639   4.474   3.857 -0.0905 -0.5213 -0.4629
    1MOL0     C   11   4.756   4.384   3.837 -0.4862 -0.0493  0.8710
    1MOL0     C   12   4.894   4.448   3.861  0.5138 -0.3450 -0.3604
    1MOL0     C   13   5.006   4.395   3.773 -0.1960 -0.2102  0.6094
    1MOL0     C   14   5.142   4.473   3.770  0.4409  0.3392  0.1041
    1MOL0     C   15   5.229   4.441   3.894 -0.2205  0.7741  0.6233
    1MOL0     C   16   5.349   4.349   3.859  1.0010  0.2210 -0.1185
    1MOL0     N   17   5.475   4.417   3.820  1.1461  0.0702 -0.1990
    1MOL0     C   18   5.510   4.464   3.701 -0.7328  0.6363 -0.0800
    1MOL0     C   19   5.633   4.526   3.719 -0.8042 -0.6164 -0.2272
    1MOL0     C   20   5.707   4.592   3.612  0.8318  0.4303  0.7013
    1MOL0     C   21   5.835   4.498   3.561  0.1231  0.1223 -0.0382
    1MOL0     C   22   5.934   4.469   3.677  0.0860  0.3545  0.4934
    1MOL0     C   23   6.081   4.429   3.625  0.1340  0.1609  0.0508
    1MOL0     O   24   6.134   4.523   3.538  1.0345  0.2836 -0.1756
    1MOL0     C   25   6.217   4.484   3.433 -1.0323  0.5850  0.3616
    1MOL0     C   26   6.220   4.563   3.324  0.3459  0.3944  0.2499
    1MOL0     C   27   6.288   4.522   3.209 -0.0277  0.0126  0.2518
    1MOL0     C   28   6.270   4.610   3.081  0.2411  0.7779 -0.7041
    1MOL0     C   29   6.376   4.408   3.218 -0.2578 -1.1451  0.4424
    1MOL0     C   30   6.476   4.372   3.112  0.0415 -0.4946  1.0148
    1MOL0     O   31   6.566   4.278   3.148  0.1770 -0.1432 -0.3790
    1MOL0     C   32   6.664   4.233   3.059  0.0896 -0.8164  0.0039
    1MOL0     C   33   6.794   4.283   3.048  1.1359  0.5549  0.9904
    1MOL0     C   34   6.883   4.217   2.955 -0.2787  0.2256 -0.5710
    1MOL0     C   35   6.839   4.107   2.876 -0.1392  0.5877 -0.0431
    1MOL0     O   36   6.929   4.039   2.800 -0.0460 -0.2612 -0.8381
    1MOL0     C   37   6.891   3.930   2.714 -0.9843 -0.2274  1.3958
    1MOL0     C   38   7.018   3.854   2.645  0.8189 -0.0889 -0.9974
    1MOL0     C   39   7.106   3.810   2.758  1.2498  0.5536 -0.7311
    1MOL0     C   40   7.201   3.700   2.714 -0.5153 -0.4066  1.6207
    1MOL0     C   41   7.324   3.683   2.805 -0.0858  0.3103  0.2572
    1MOL0     C   42   7.403   3.555   2.773 -0.3083  0.8445  0.6401
    1MOL0     C   43   7.548   3.571   2.815  0.9851  0.2194 -0.6155
    1MOL0     C   44   7.619   3.438   2.811 -0.0488  0.8028  0.4518
    1MOL0    Cl   45   7.555   3.339   2.940 -0.2211  0.1995  0.2667
    1MOL0     C   46   6.703   4.070   2.887  0.2137 -0.1339  0.0859
    1MOL0     C   47   6.614   4.136   2.974  0.2995  0.2374 -0.0099
    1MOL0     O   48   6.476   4.430   3.000  0.1170  0.1723  0.0724
    1MOL0     C   49   6.377   4.326   3.336  0.7091  0.8943  0.0292
    1MOL0     C   50   6.288   4.366   3.434  0.8426 -0.1342 -0.6410
    1MOL0     N   51   5.670   4.510   3.845  0.6143  0.8241  0.4435
    1MOL0     N   52   5.573   4.455   3.908 -0.1136  0.3488  0.8302
    1MOL0     C   53   4.323   4.314   3.550  1.1171 -0.2751 -0.1243
    1MOL0     C   54   4.288   4.354   3.427 -0.4073  0.0354 -0.0290
    1MOL0     C   55   4.202   4.452   3.019  0.0275  1.1357  0.0356
    1MOL0     C   56   4.270   4.563   2.965 -1.1103 -0.1366 -0.2533
    1MOL0     C   57   4.222   4.639   2.862 -0.4270  0.2821 -0.8927
    1MOL0     C   58   4.100   4.599   2.810 -0.0552 -0.1376  0.0059
    1MOL0     O   59   4.029   4.669   2.715 -0.1516 -0.2616 -0.4692
    1MOL0     C   60   4.076   4.799   2.683 -0.6305 -0.1787 -0.1557
    1MOL0     C   61   3.972   4.871   2.581 -0.3201 -0.4710  0.1494
    1MOL0     C   62   3.879   4.969   2.656  0.0158 -0.5659 -0.0501
    1MOL0     C   63   3.791   5.054   2.547  0.7477 -0.6301 -0.6932
    1MOL0     C   64   3.878   5.145   2.461 -0.2124  0.1593 -0.7726
    1MOL0     C   65   3.954   5.219   2.399  0.1375 -0.1683  0.0010
    1MOL0     C   66   4.030   4.485   2.843 -0.5508  0.0956  0.5416
    1MOL0     C   67   4.080   4.412   2.954 -0.5949 -0.4434  1.0817
    1MOL0     C   68   3.998   4.303   3.011  0.0883  0.8376  0.3949
    1MOL0     H   69   4.520   4.587   3.362  2.2152 -2.1301 -0.6804
    1MOL0     H   70   4.591   4.512   3.588  0.3566 -0.9746 -1.5180
    1MOL0     H   71   4.468   4.367   3.929  0.3294  1.9588  1.3054
    1MOL0     H   72   4.428   4.494   3.816  0.5031 -0.0968  2.3120
    1MOL0     H   73   4.649   4.558   3.787 -1.0839  0.0736  0.0923
    1MOL0     H   74   4.640   4.506   3.962 -2.6016  0.5411 -0.6962
    1MOL0     H   75   4.752   4.293   3.898 -2.2453 -1.3150 -0.9794
    1MOL0     H   76   4.766   4.342   3.736  0.0607  0.2109  0.8112
    1MOL0     H   77   4.881   4.556   3.873 -0.1118 -0.6260  2.0981
    1MOL0     H   78   4.929   4.420   3.960 -1.2573 -3.3362 -0.4633
    1MOL0     H   79   4.963   4.390   3.672  1.7000 -0.8139 -0.2217
    1MOL0     H   80   5.017   4.289   3.798 -1.5096 -0.8376 -1.2724
    1MOL0     H   81   5.190   4.441   3.678  3.9922 -2.1650  2.5589
    1MOL0     H   82   5.130   4.582   3.765  1.8724  0.5972  1.4733
    1MOL0     H   83   5.170   4.398   3.975 -1.0900 -1.3659 -1.0327
    1MOL0     H   84   5.272   4.534   3.932  3.0741 -1.1357  1.9877
    1MOL0     H   85   5.371   4.276   3.937  1.7016  0.3716 -0.1609
    1MOL0     H   86   5.319   4.295   3.769 -0.1251 -0.1676  0.4722
    1MOL0     H   87   5.453   4.456   3.609 -2.0410  0.8431  0.6897
    1MOL0     H   88   5.753   4.677   3.663  0.6615  0.8364  0.1927
    1MOL0     H   89   5.641   4.626   3.531  2.2120 -0.4769 -0.8480
    1MOL0     H   90   5.797   4.409   3.510 -3.9312  2.7705 -2.1617
    1MOL0     H   91   5.875   4.564   3.484 -6.4508  0.7518 -3.5961
    1MOL0     H   92   5.928   4.559   3.739 -1.1002  0.5821  0.0748
    1MOL0     H   93   5.901   4.392   3.748  0.0642 -0.2483 -0.1603
    1MOL0     H   94   6.153   4.429   3.706 -0.0326 -1.0540  0.2200
    1MOL0     H   95   6.078   4.325   3.592  1.2235 -0.8681  2.9539
    1MOL0     H   96   6.163   4.654   3.313  0.1349  0.0480 -2.0234
    1MOL0     H   97   6.211   4.550   3.010 -1.5486  1.4558  0.1428
    1MOL0     H   98   6.362   4.643   3.032  0.1486  3.0738  0.5708
    1MOL0     H   99   6.215   4.702   3.102 -0.3832  0.4089 -0.6858
    1MOL0     H  100   6.824   4.374   3.099 -0.5178  2.2347 -0.9001
    1MOL0     H  101   6.984   4.256   2.940 -1.4819  3.6942 -0.6869
    1MOL0     H  102   6.836   3.852   2.767 -2.4641 -0.0573  0.1820
    1MOL0     H  103   6.817   3.951   2.636 -0.0323 -1.2863  0.1523
    1MOL0     H  104   6.997   3.765   2.585  1.5759 -1.0921  0.1731
    1MOL0     H  105   7.076   3.928   2.590  2.6034 -2.0232 -1.8450
    1MOL0     H  106   7.038   3.763   2.829  1.4300  0.0025 -0.9140
    1MOL0     H  107   7.154   3.898   2.801  1.8136  0.7240 -1.6723
    1MOL0     H  108   7.241   3.712   2.613  0.5098 -3.2419  1.5776
    1MOL0     H  109   7.149   3.604   2.713  0.4820 -0.9739  2.3317
    1MOL0     H  110   7.395   3.764   2.783 -1.4769  1.4613 -0.1129
    1MOL0     H  111   7.294   3.678   2.910  1.3782 -1.4430  0.6436
    1MOL0     H  112   7.414   3.540   2.665  1.6997  4.3644  0.1973
    1MOL0     H  113   7.351   3.469   2.814 -0.4110  0.2909 -0.5933
    1MOL0     H  114   7.547   3.600   2.921  0.3170  3.1493 -1.3486
    1MOL0     H  115   7.589   3.655   2.759 -1.2073  0.2479 -2.2792
    1MOL0     H  116   7.726   3.448   2.830 -0.4217  0.8303  2.7621
    1MOL0     H  117   7.609   3.388   2.714  0.9309 -0.1325  0.8163
    1MOL0     H  118   6.655   3.987   2.836  0.4008 -0.3698  0.2911
    1MOL0     H  119   6.513   4.097   2.981 -0.4484  1.8571 -1.1296
    1MOL0     H  120   6.431   4.233   3.350  0.0141  0.4402 -0.2363
    1MOL0     H  121   6.271   4.303   3.520 -1.1196  4.1976  2.5233
    1MOL0     H  122   4.264   4.240   3.605  3.0392 -1.0860  0.9586
    1MOL0     H  123   4.212   4.297   3.374  3.0323 -4.7943 -0.4632
    1MOL0     H  124   4.357   4.615   3.003  1.3588 -2.2806 -2.5401
    1MOL0     H  125   4.278   4.729   2.841 -2.5944  1.7406 -0.7679
    1MOL0     H  126   4.086   4.865   2.770 -1.8883  0.6513 -0.6121
    1MOL0     H  127   4.178   4.783   2.647  0.3226  0.5028  2.0545
    1MOL0     H  128   3.905   4.799   2.533 -0.8175  0.1176 -0.0554
    1MOL0     H  129   4.028   4.920   2.501 -2.8116  1.8996 -0.2856
    1MOL0     H  130   3.814   4.932   2.736  0.0704 -1.0990 -0.2502
    1MOL0     H  131   3.926   5.054   2.706 -2.7908  1.6034 -0.7779
    1MOL0     H  132   3.730   5.118   2.610  0.1208  1.4226 -3.1943
    1MOL0     H  133   3.716   4.995   2.494 -2.1117  2.3416 -0.2603
    1MOL0     H  134   4.028   5.286   2.361  0.3143  1.6922  3.2188
    1MOL0     H  135   3.937   4.456   2.796  0.2775 -0.0457 -1.1071
    1MOL0     H  136   3.893   4.335   3.015  0.4014  1.8289  1.7101
    1MOL0     H  137   4.007   4.214   2.948  1.4354  0.1180  1.5429
    1MOL0     H  138   4.024   4.273   3.113  2.0535  0.5304 -0.1619
    2MOL0     O  139   4.811   7.649   9.576  0.2228  0.3810  0.3936
    2MOL0     C  140   4.737   7.571   9.518 -0.2430 -0.5194 -0.3416
    2MOL0     O  141   4.606   7.559   9.536  0.2829 -0.1625 -0.9198
    2MOL0     C  142   4.556   7.597   9.661  0.0767 -0.1399  0.2583
    2MOL0     C  143   4.547   7.504   9.759 -0.1307 -0.4835  0.8015
    2MOL0     C  144   4.501   7.539   9.889  0.8594 -1.0872 -0.1613
    2MOL0     C  145   4.482   7.672   9.923  0.1172 -0.9025  0.5891
    2MOL0     O  146   4.430   7.717  10.043 -0.4017  0.3707 -0.5614
    2MOL0     C  147   4.434   7.626  10.155 -0.2893 -0.1307  0.6358
    2MOL0     C  148   4.393   7.699  10.280  0.2742 -0.4813  0.0233
    2MOL0     C  149   4.397   7.599  10.396  0.2235  0.1961  0.1579
    2MOL0     C  150   4.362   7.668  10.527 -0.2281 -0.6120  0.1597
    2MOL0     C  151   4.353   7.584  10.653 -0.2558 -0.0134  1.1758
    2MOL0     C  152   4.300   7.694  10.748  0.3368 -0.8485 -0.7911
    2MOL0     C  153   4.285   7.637  10.890 -0.3101 -0.1396 -0.5120
    2MOL0     C  154   4.247   7.742  11.000  0.2133 -0.6911 -0.5856
    2MOL0     N  155   4.262   7.681  11.132  0.2848 -0.0986 -1.0109
    2MOL0     C  156   4.384   7.646  11.185 -0.7880 -1.1546 -0.8600
    2MOL0     C  157   4.350   7.638  11.322 -0.8742  0.2937  0.2598
    2MOL0     C  158   4.455   7.619  11.430 -0.1359 -1.0024  1.2010
    2MOL0     C  159   4.468   7.480  11.490 -0.5105 -0.1114 -1.3865
    2MOL0     C  160   4.605   7.423  11.526 -0.2390 -0.6017  0.2099
    2MOL0     C  161   4.684   7.504  11.632 -0.2928  0.7849 -0.8216
    2MOL0     O  162   4.821   7.456  11.635 -0.8930  0.1828  1.0750
    2MOL0     C  163   4.867   7.354  11.717  0.5746  0.0729 -0.0241
    2MOL0     C  164   5.005   7.337  11.717 -0.5695  0.3780  0.9235
    2MOL0     C  165   5.067   7.232  11.785 -0.3008  0.1267  0.2141
    2MOL0     C  166   5.218   7.250  11.781 -0.6987 -0.3952  0.0639
    2MOL0     C  167   4.995   7.135  11.858  0.6829  0.0619  1.1188
    2MOL0     C  168   5.057   7.024  11.934 -0.1745  0.3886  0.4924
    2MOL0     O  169   5.016   7.011  12.060  0.8012 -0.1678  0.2782
    2MOL0     C  170   5.064   6.903  12.126 -0.3231 -0.0536  0.3540
    2MOL0     C  171   5.158   6.904  12.220  0.4358  0.3989 -0.3978
    2MOL0     C  172   5.196   6.792  12.294 -0.6980  0.1370  1.1835
    2MOL0     C  173   5.128   6.672  12.282 -0.8167 -0.3184 -0.3234
    2MOL0     O  174   5.167   6.576  12.364  0.2225  0.4676  0.1800
    2MOL0     C  175   5.173   6.451  12.302 -0.4798  0.1060 -0.4853
    2MOL0     C  176   5.242   6.337  12.378 -0.7835  0.7071  0.0994
    2MOL0     C  177   5.401   6.337  12.372 -0.0506 -0.4151  1.2021
    2MOL0     C  178   5.474   6.262  12.483  0.4429 -0.2328 -0.3584
    2MOL0     C  179   5.455   6.335  12.622  0.9791  0.3912 -0.3258
    2MOL0     C  180   5.477   6.243  12.750  0.2776  0.1141 -0.2036
    2MOL0     C  181   5.620   6.212  12.779 -0.1751 -0.2743 -0.1585
    2MOL0     C  182   5.628   6.101  12.881 -0.3946  0.1936 -0.2070
    2MOL0    Cl  183   5.783   6.031  12.911  0.0138 -0.1342 -0.3545
    2MOL0     C  184   5.021   6.666  12.190  0.3578 -0.6476 -0.8165
    2MOL0     C  185   5.002   6.780  12.109 -1.0212  0.9233 -0.1584
    2MOL0     O  186   5.137   6.946  11.875  0.0811  0.0188  0.2016
    2MOL0     C  187   4.858   7.145  11.858  0.6150  0.4554 -0.2845
    2MOL0     C  188   4.796   7.256  11.795 -0.1990 -0.6772  0.5000
    2MOL0     N  189   4.223   7.674  11.350 -0.2970 -0.0187  0.7681
    2MOL0     N  190   4.171   7.701  11.234  0.1397 -0.6904  0.8354
    2MOL0     C  191   4.487   7.769   9.822  0.4569  0.7295 -0.1165
    2MOL0     C  192   4.528   7.727   9.690  0.0983  0.9429  0.9804
    2MOL0     C  193   4.800   7.489   9.415 -1.0430  0.5298 -0.3865
    2MOL0     C  194   4.719   7.400   9.333  0.4760 -0.9234  0.2028
    2MOL0     C  195   4.762   7.308   9.240  0.0795  0.6047  0.6449
    2MOL0     C  196   4.899   7.305   9.228 -0.0812 -0.3084 -0.3451
    2MOL0     O  197   4.945   7.206   9.137 -1.6052 -0.6937 -0.0556
    2MOL0     C  198   5.079   7.219   9.075  0.0068 -0.0104  0.1380
    2MOL0     C  199   5.177   7.141   9.160  0.0893  1.5834 -0.1223
    2MOL0     C  200   5.164   6.985   9.139 -0.2311 -0.2861  0.5252
    2MOL0     C  201   5.078   6.924   9.250 -0.2579  0.2622  1.2545
    2MOL0     C  202   5.057   6.779   9.243  0.4018  1.1936  1.0373
    2MOL0     C  203   5.038   6.660   9.230  0.4617 -0.4097  0.3224
    2MOL0     C  204   4.988   7.374   9.306 -0.9099  0.3748 -0.3568
    2MOL0     C  205   4.941   7.478   9.392 -0.9269  0.1989  0.4874
    2MOL0     C  206   5.044   7.564   9.455 -0.0593  0.9198  1.2760
    2MOL0     H  207   4.582   7.403   9.740  0.6797 -0.4190  1.8815
    2MOL0     H  208   4.498   7.455   9.958  1.7492  0.8254  2.3638
    2MOL0     H  209   4.531   7.577  10.166  1.5103  3.2934  1.8722
    2MOL0     H  210   4.369   7.541  10.136 -3.3418  2.0203  0.7385
    2MOL0     H  211   4.458   7.785  10.291 -0.5152  0.5032 -2.2378
    2MOL0     H  212   4.288   7.728  10.266  0.6739 -0.1624 -3.1340
    2MOL0     H  213   4.328   7.515  10.389  0.0828  0.2999  0.2756
    2MOL0     H  214   4.493   7.547  10.399 -1.2412 -2.6583  2.0994
    2MOL0     H  215   4.444   7.741  10.531  0.1627 -0.9325 -1.4093
    2MOL0     H  216   4.269   7.717  10.496 -0.1810  0.5048  1.6842
    2MOL0     H  217   4.455   7.552  10.677 -0.6102 -0.3945  2.2008
    2MOL0     H  218   4.276   7.508  10.638 -0.4394  0.0438  1.8027
    2MOL0     H  219   4.368   7.776  10.770 -1.8096  0.1526  2.9799
    2MOL0     H  220   4.203   7.736  10.720  1.0837  1.5402  0.0394
    2MOL0     H  221   4.373   7.579  10.917 -0.6021  0.0681  0.9649
    2MOL0     H  222   4.212   7.556  10.878  0.6110 -1.1150  0.3099
    2MOL0     H  223   4.311   7.831  11.003  0.6433 -1.0282  2.0550
    2MOL0     H  224   4.145   7.778  10.989  0.5718  0.6101  0.1559
    2MOL0     H  225   4.475   7.626  11.130 -1.3454 -1.0478 -1.8423
    2MOL0     H  226   4.444   7.689  11.513  0.4129 -3.4719  3.5099
    2MOL0     H  227   4.557   7.636  11.395 -0.5687  1.9220  1.1566
    2MOL0     H  228   4.408   7.469  11.581  1.6331 -1.5020 -0.0377
    2MOL0     H  229   4.431   7.409  11.416  4.1401 -1.8992 -2.3382
    2MOL0     H  230   4.581   7.322  11.562 -1.1233 -0.5646 -0.2365
    2MOL0     H  231   4.675   7.415  11.443  1.9182 -0.1441  1.8941
    2MOL0     H  232   4.684   7.612  11.614 -2.8142  1.0537  0.3290
    2MOL0     H  233   4.645   7.500  11.734 -0.7270  6.4401 -0.4538
    2MOL0     H  234   5.066   7.410  11.664 -1.1280  2.7209  3.2700
    2MOL0     H  235   5.248   7.237  11.677  0.9190 -1.6003  0.6439
    2MOL0     H  236   5.282   7.183  11.839  2.2106  2.7217  0.7204
    2MOL0     H  237   5.249   7.352  11.804  0.1878 -0.6121 -0.1334
    2MOL0     H  238   5.202   7.000  12.245  3.8517 -1.3219  0.9149
    2MOL0     H  239   5.275   6.808  12.366  1.8806 -0.7407 -1.2640
    2MOL0     H  240   5.068   6.419  12.299 -0.8056  1.0286  0.4045
    2MOL0     H  241   5.206   6.443  12.198 -2.7282 -3.4015 -1.1222
    2MOL0     H  242   5.205   6.346  12.480  1.4561  0.5873  0.9832
    2MOL0     H  243   5.202   6.240  12.346 -0.3558  0.3550  0.6234
    2MOL0     H  244   5.434   6.441  12.369  1.4768 -0.8943 -0.0640
    2MOL0     H  245   5.433   6.298  12.275 -1.0158  2.5323 -0.4326
    2MOL0     H  246   5.578   6.249  12.451  0.8599 -1.1431  1.2719
    2MOL0     H  247   5.432   6.162  12.483  0.3958 -0.2343  1.5386
    2MOL0     H  248   5.508   6.430  12.628  0.1133  0.8274  0.8059
    2MOL0     H  249   5.348   6.358  12.631  0.0712 -3.0477 -0.9761
    2MOL0     H  250   5.415   6.154  12.737  2.5127 -1.5522 -0.1951
    2MOL0     H  251   5.441   6.288  12.843  1.3488  0.7683 -0.0850
    2MOL0     H  252   5.664   6.300  12.826 -0.3291 -0.6464  0.7069
    2MOL0     H  253   5.679   6.184  12.692  2.2481  4.6271 -0.4366
    2MOL0     H  254   5.558   6.021  12.856  0.0934 -0.8827  1.6494
    2MOL0     H  255   5.600   6.131  12.983  4.4027 -0.7267  1.6122
    2MOL0     H  256   4.970   6.571  12.179 -1.4597  0.2823 -0.6630
    2MOL0     H  257   4.918   6.772  12.040 -0.8128  2.8339 -0.6751
    2MOL0     H  258   4.796   7.073  11.911 -1.0815 -0.2087 -2.9765
    2MOL0     H  259   4.688   7.257  11.796 -0.1967 -0.1840  1.5489
    2MOL0     H  260   4.474   7.874   9.845  2.4272  0.4439  2.8802
    2MOL0     H  261   4.544   7.798   9.610  4.1907 -0.8579 -0.0245
    2MOL0     H  262   4.610   7.404   9.334  0.4688  0.0354  2.9193
    2MOL0     H  263   4.702   7.254   9.168  1.5300 -1.6738  1.0388
    2MOL0     H  264   5.081   7.176   8.975 -0.3615 -5.3856  2.1008
    2MOL0     H  265   5.095   7.326   9.057 -0.1445 -0.3795 -2.6144
    2MOL0     H  266   5.165   7.154   9.268  1.7760 -1.1256  0.4956
    2MOL0     H  267   5.278   7.181   9.144  1.3102 -1.0495  0.3511
    2MOL0     H  268   5.132   6.973   9.035 -0.3678  1.8053  0.2827
    2MOL0     H  269   5.263   6.938   9.151  0.3401  0.7423 -0.0059
    2MOL0     H  270   4.978   6.967   9.258  0.3627  3.4691 -3.7374
    2MOL0     H  271   5.132   6.940   9.344 -1.9829 -1.4175  2.6096
    2MOL0     H  272   5.019   6.557   9.206 -0.1655 -0.9998  3.0114
    2MOL0     H  273   5.095   7.368   9.289 -0.5849 -1.0046  1.7950
    2MOL0     H  274   5.144   7.529   9.429 -1.0453 -0.2773 -1.3201
    2MOL0     H  275   5.036   7.667   9.418  0.9960 -0.1370 -2.3617
    2MOL0     H  276   5.029   7.555   9.563  2.1691 -1.0326  1.4820
    3MOL0     O  277   5.785   3.870   4.854 -0.4066 -0.0910  0.7626
    3MOL0     C  278   5.836   3.975   4.872 -0.0566  0.3777 -0.5196
    3MOL0     O  279   5.872   4.012   4.998  0.1318  0.2503 -0.4000
    3MOL0     C  280   5.845   3.940   5.112  0.4578 -0.6772  0.0870
    3MOL0     C  281   5.716   3.920   5.142 -1.1732  0.4086 -0.9992
    3MOL0     C  282   5.666   3.850   5.250  0.0196 -0.6254  0.2889
    3MOL0     C  283   5.767   3.804   5.343 -0.3082 -0.4858 -0.7669
    3MOL0     O  284   5.719   3.754   5.462  0.6686  0.3942 -0.1454
    3MOL0     C  285   5.783   3.793   5.585  0.0679  1.3878  1.3688
    3MOL0     C  286   5.774   3.942   5.615 -0.7785  0.5694  0.2102
    3MOL0     C  287   5.629   3.992   5.626 -0.2295  0.3045  0.2130
    3MOL0     C  288   5.633   4.138   5.601 -0.9341  0.4526 -0.2533
    3MOL0     C  289   5.499   4.196   5.649  0.1250 -0.4719 -0.1505
    3MOL0     C  290   5.390   4.179   5.536  0.0910 -0.1372 -1.7042
    3MOL0     C  291   5.264   4.274   5.548 -1.0183 -0.3679  0.5794
    3MOL0     C  292   5.174   4.242   5.672 -0.1750 -0.1104  0.4045
    3MOL0     N  293   5.126   4.102   5.666  0.1899 -0.1138 -0.6050
    3MOL0     C  294   5.193   3.993   5.726  0.0343 -0.1652  0.8424
    3MOL0     C  295   5.143   3.880   5.668 -1.3267  0.6267  0.1719
    3MOL0     C  296   5.197   3.736   5.681  0.6117 -0.2398  0.3982
    3MOL0     C  297   5.252   3.695   5.537 -0.3373  0.2670  0.3199
    3MOL0     C  298   5.145   3.671   5.426 -0.1239 -0.1321 -0.4451
    3MOL0     C  299   5.012   3.604   5.474 -0.0554  0.3396 -0.9014
    3MOL0     O  300   4.916   3.589   5.370 -0.4458  0.5084  0.2340
    3MOL0     C  301   4.793   3.564   5.421  0.2256 -0.2547  1.0237
    3MOL0     C  302   4.767   3.479   5.528  0.1016  0.0900 -0.0007
    3MOL0     C  303   4.632   3.472   5.581  0.7990  0.4377 -0.2486
    3MOL0     C  304   4.613   3.380   5.704 -0.7623  0.1003  0.4995
    3MOL0     C  305   4.528   3.555   5.538  0.1626 -0.2976  1.3893
    3MOL0     C  306   4.386   3.566   5.583  0.0318 -0.1660 -0.8660
    3MOL0     O  307   4.314   3.686   5.555  0.3051  0.4868 -0.0317
    3MOL0     C  308   4.205   3.716   5.633 -0.5553 -0.2464 -0.4581
    3MOL0     C  309   4.219   3.778   5.758  1.2679 -0.2165  0.5435
    3MOL0     C  310   4.101   3.823   5.827  0.6986  1.4681 -0.0501
    3MOL0     C  311   3.967   3.799   5.785  0.0352  0.2283 -0.0121
    3MOL0     O  312   3.852   3.832   5.856 -0.4282  0.2744 -0.2826
    3MOL0     C  313   3.727   3.807   5.796 -0.0024  0.4196  0.9419
    3MOL0     C  314   3.690   3.668   5.863 -1.1083  0.3057 -0.5116
    3MOL0     C  315   3.713   3.685   6.022  0.3291  0.7834 -0.0495
    3MOL0     C  316   3.634   3.564   6.079  0.3154 -1.3006  0.4262
    3MOL0     C  317   3.614   3.574   6.230 -0.3712 -0.2122  1.0346
    3MOL0     C  318   3.558   3.442   6.290 -0.0854 -0.3482  0.7055
    3MOL0     C  319   3.487   3.459   6.434  0.6783  0.1079  0.8211
    3MOL0     C  320   3.458   3.320   6.488 -0.6020 -0.4331  0.7797
    3MOL0    Cl  321   3.359   3.222   6.380  0.1367  0.0822 -0.1073
    3MOL0     C  322   3.964   3.717   5.664  0.0352 -0.1243  0.0689
    3MOL0     C  323   4.078   3.680   5.589  0.0272 -0.1944  0.3319
    3MOL0     O  324   4.349   3.475   5.664  0.9463  0.0494  0.7232
    3MOL0     C  325   4.552   3.627   5.418 -0.1485  0.4641  1.1023
    3MOL0     C  326   4.687   3.631   5.359  0.2463  0.0330 -0.6121
    3MOL0     N  327   5.046   3.920   5.584  0.5608  1.1036  0.5975
    3MOL0     N  328   5.034   4.048   5.581 -0.4386 -0.6523  0.1641
    3MOL0     C  329   5.903   3.820   5.313  0.4460  0.7907  0.3573
    3MOL0     C  330   5.939   3.882   5.192 -0.3306 -0.5089 -0.3720
    3MOL0     C  331   5.868   4.061   4.754 -0.1508 -0.2158  0.1010
    3MOL0     C  332   5.838   4.007   4.619 -0.6042  0.2958  1.0401
    3MOL0     C  333   5.858   4.096   4.504 -0.9636  0.0759 -0.1547
    3MOL0     C  334   5.906   4.222   4.520  0.3719  0.0061  0.3359
    3MOL0     O  335   5.918   4.288   4.401 -0.1328 -0.1041  0.5149
    3MOL0     C  336   6.029   4.379   4.401 -0.4701  0.1155  0.3600
    3MOL0     C  337   6.093   4.401   4.262  0.3501 -0.1623  0.5088
    3MOL0     C  338   6.004   4.463   4.155  0.4781  0.2913  0.7237
    3MOL0     C  339   6.080   4.467   4.027 -1.2190 -0.4692 -0.5212
    3MOL0     C  340   6.137   4.332   3.974  0.6786 -0.2295  0.9912
    3MOL0     C  341   6.163   4.218   3.942  0.5517  0.1695 -0.6193
    3MOL0     C  342   5.940   4.273   4.644  0.5525 -0.7587 -1.3963
    3MOL0     C  343   5.914   4.202   4.765 -0.1579 -0.8172 -0.2065
    3MOL0     C  344   5.965   4.263   4.896  0.4812  1.0981 -0.0540
    3MOL0     H  345   5.647   3.959   5.068 -2.2216 -0.5650 -0.5658
    3MOL0     H  346   5.561   3.834   5.274  0.3583  0.2685  2.6026
    3MOL0     H  347   5.886   3.758   5.598 -0.8535 -1.3299  2.0881
    3MOL0     H  348   5.736   3.737   5.667  2.6038 -1.2313  1.1808
    3MOL0     H  349   5.824   3.958   5.711 -2.6143  2.4411  0.9196
    3MOL0     H  350   5.835   4.001   5.547 -0.1510 -2.3108 -1.8959
    3MOL0     H  351   5.556   3.931   5.571 -2.2482  3.1245 -0.4415
    3MOL0     H  352   5.611   3.987   5.734 -0.9550  2.1776  0.2171
    3MOL0     H  353   5.711   4.184   5.662 -0.8816 -0.8541  0.7091
    3MOL0     H  354   5.660   4.164   5.498  4.1718 -0.5176  0.6041
    3MOL0     H  355   5.511   4.303   5.666 -1.8034  0.1640 -2.3511
    3MOL0     H  356   5.469   4.148   5.743  1.4233 -0.6447  0.2055
    3MOL0     H  357   5.435   4.216   5.443  2.6851 -0.7146 -0.7900
    3MOL0     H  358   5.348   4.078   5.532 -5.3430  1.7029  0.4613
    3MOL0     H  359   5.198   4.270   5.461 -0.9797  0.6997  0.4872
    3MOL0     H  360   5.304   4.376   5.557  2.9609 -1.8040  1.5956
    3MOL0     H  361   5.235   4.248   5.763 -0.1421 -1.0907  0.4564
    3MOL0     H  362   5.093   4.316   5.671 -0.9338 -0.8837  1.6485
    3MOL0     H  363   5.272   4.009   5.799  0.8337  0.7679 -0.1842
    3MOL0     H  364   5.119   3.674   5.727  0.3924  0.3456  0.8222
    3MOL0     H  365   5.278   3.734   5.755 -0.9054  0.5538  2.1576
    3MOL0     H  366   5.337   3.755   5.503 -1.2941  2.6114  1.8576
    3MOL0     H  367   5.295   3.594   5.541 -1.5266 -0.2117  1.6425
    3MOL0     H  368   5.114   3.767   5.384  0.8060  1.3807  2.0531
    3MOL0     H  369   5.186   3.606   5.348 -1.7385 -0.1584 -1.3083
    3MOL0     H  370   5.050   3.506   5.505  2.0477  2.0183  2.4537
    3MOL0     H  371   4.981   3.656   5.565  2.4118 -0.8184  0.7311
    3MOL0     H  372   4.847   3.417   5.567  0.0224  0.2824  0.4759
    3MOL0     H  373   4.536   3.303   5.692 -0.2796 -0.1186 -1.3977
    3MOL0     H  374   4.574   3.438   5.789 -1.3115 -1.2279  1.1840
    3MOL0     H  375   4.710   3.335   5.726 -0.3698  0.0673 -1.1914
    3MOL0     H  376   4.315   3.795   5.805  0.6603  1.8854  1.1420
    3MOL0     H  377   4.101   3.866   5.926 -3.6876 -1.3288  1.4397
    3MOL0     H  378   3.647   3.880   5.811  2.1112  2.7312  1.6141
    3MOL0     H  379   3.724   3.794   5.688  0.9104 -2.3828  1.1626
    3MOL0     H  380   3.590   3.633   5.836 -1.1075 -1.5412  1.5656
    3MOL0     H  381   3.759   3.590   5.830 -0.4840  0.7843 -0.3507
    3MOL0     H  382   3.682   3.785   6.053 -1.4021 -0.6624  3.3077
    3MOL0     H  383   3.821   3.677   6.040  0.5523  2.0192 -0.6809
    3MOL0     H  384   3.677   3.467   6.052  2.7538 -0.7453  2.0339
    3MOL0     H  385   3.535   3.554   6.032  1.3789  1.4215 -2.7677
    3MOL0     H  386   3.710   3.595   6.278  0.2888  1.5341 -0.9261
    3MOL0     H  387   3.552   3.659   6.262 -1.1769  0.1242 -1.2696
    3MOL0     H  388   3.648   3.380   6.292  1.7623  1.9740 -2.0416
    3MOL0     H  389   3.484   3.400   6.221 -2.5893  2.2219  1.6086
    3MOL0     H  390   3.393   3.515   6.435 -0.9235 -2.4063  0.1215
    3MOL0     H  391   3.564   3.512   6.491  0.5205  1.8572 -0.5349
    3MOL0     H  392   3.411   3.336   6.585 -0.6284 -1.8588  1.0148
    3MOL0     H  393   3.555   3.272   6.502  0.3715  1.3981  0.6577
    3MOL0     H  394   3.879   3.675   5.611 -0.3577  0.1109  0.5163
    3MOL0     H  395   4.076   3.620   5.499 -3.6845  3.5153 -2.4276
    3MOL0     H  396   4.485   3.699   5.372 -2.9140  0.2937  4.4942
    3MOL0     H  397   4.715   3.689   5.272 -0.8866  2.6977  0.6731
    3MOL0     H  398   5.976   3.771   5.376 -1.7147 -0.0622  2.3542
    3MOL0     H  399   6.044   3.891   5.165 -0.3952 -1.4849 -0.9997
    3MOL0     H  400   5.801   3.908   4.595  1.0026  0.1348 -0.9580
    3MOL0     H  401   5.826   4.061   4.407  0.8267 -1.5339 -0.2193
    3MOL0     H  402   5.996   4.477   4.439  2.4847  0.4772  2.2855
    3MOL0     H  403   6.101   4.350   4.477 -0.4319 -1.9870 -0.4295
    3MOL0     H  404   6.102   4.297   4.231  0.6260 -0.3790  1.3074
    3MOL0     H  405   6.186   4.459   4.268 -0.4007  1.0796  0.4553
    3MOL0     H  406   5.909   4.409   4.149  1.3848 -1.3037  0.2016
    3MOL0     H  407   5.969   4.565   4.175 -0.0193 -0.0647  1.7218
    3MOL0     H  408   6.168   4.531   4.035 -2.3528  1.1055 -0.1526
    3MOL0     H  409   6.025   4.519   3.948  3.1297  2.7901 -1.7987
    3MOL0     H  410   6.182   4.118   3.908  0.4079 -0.8125  1.9642
    3MOL0     H  411   5.976   4.375   4.643 -0.4136 -0.2508  2.1305
    3MOL0     H  412   5.986   4.367   4.870  0.0895  0.6449 -2.4298
    3MOL0     H  413   5.891   4.263   4.977  0.9653 -0.8077  0.4333
    3MOL0     H  414   6.056   4.208   4.922 -1.8396 -2.5976  1.0385
    4MOL0     O  415   5.501   1.677   1.323 -0.7905 -0.3684  0.3803
    4MOL0     C  416   5.592   1.744   1.365 -0.8833  0.0840 -0.7054
    4MOL0     O  417   5.641   1.850   1.296 -0.3844 -0.3222 -1.1933
    4MOL0     C  418   5.589   1.887   1.177  0.9550  0.2731  0.0983
    4MOL0     C  419   5.475   1.967   1.172  0.0672 -0.3657  0.0306
    4MOL0     C  420   5.425   2.014   1.054 -0.1378  0.8421 -0.3300
    4MOL0     C  421   5.474   1.957   0.930 -0.2521 -0.0941  0.3059
    4MOL0     O  422   5.391   1.978   0.826 -1.4121 -0.3093  0.0141
    4MOL0     C  423   5.444   1.948   0.696  0.0899 -0.0389 -0.8944
    4MOL0     C  424   5.336   1.895   0.594 -0.0473  0.2098  0.1037
    4MOL0     C  425   5.218   1.989   0.545  0.4629  0.9566 -0.7057
    4MOL0     C  426   5.256   2.061   0.412 -0.9195  0.0392  0.5500
    4MOL0     C  427   5.193   2.194   0.406  0.4984 -0.3561  0.5338
    4MOL0     C  428   5.043   2.182   0.378  0.2770  0.7851 -0.4377
    4MOL0     C  429   4.964   2.316   0.370  0.0031 -0.6063 -0.8368
    4MOL0     C  430   4.824   2.295   0.316  0.3001  0.4544  0.0848
    4MOL0     N  431   4.745   2.222   0.414  0.3912 -1.0020  0.0823
    4MOL0     C  432   4.724   2.264   0.551 -0.1626 -0.0886 -0.3989
    4MOL0     C  433   4.642   2.165   0.592 -0.2871 -0.8606 -0.6121
    4MOL0     C  434   4.564   2.168   0.723 -0.7870 -0.2636  0.2181
    4MOL0     C  435   4.464   2.287   0.718  0.2487  0.7800 -0.5319
    4MOL0     C  436   4.363   2.286   0.615  0.6718 -0.6779 -0.8255
    4MOL0     C  437   4.279   2.157   0.633  0.8105  0.0041  0.5311
    4MOL0     O  438   4.210   2.153   0.758 -0.7651  0.4811 -0.3374
    4MOL0     C  439   4.138   2.035   0.776  1.4502  0.6733  1.0331
    4MOL0     C  440   4.011   2.062   0.833  0.0650  0.6506 -0.6857
    4MOL0     C  441   3.924   1.958   0.864  0.1362 -0.4580  0.3117
    4MOL0     C  442   3.793   1.979   0.929 -0.4437  0.4384 -0.9737
    4MOL0     C  443   3.962   1.819   0.828  0.3786  0.2884 -0.4186
    4MOL0     C  444   3.885   1.702   0.844 -0.3807  0.4773 -0.3562
    4MOL0     O  445   3.770   1.710   0.922  0.6248  0.1215 -0.6954
    4MOL0     C  446   3.676   1.605   0.936  0.1591 -0.2917 -0.6137
    4MOL0     C  447   3.615   1.578   1.057  0.6386  0.1945 -0.1163
    4MOL0     C  448   3.513   1.481   1.077  0.1086 -0.9432  0.1216
    4MOL0     C  449   3.471   1.402   0.973 -1.7540  0.7760 -1.0254
    4MOL0     O  450   3.380   1.304   0.998 -0.1597  0.3792 -0.4306
    4MOL0     C  451   3.269   1.305   0.901  0.8228  0.0826 -0.6994
    4MOL0     C  452   3.183   1.415   0.965  0.5019  0.4853  0.1922
    4MOL0     C  453   3.036   1.399   0.934  0.0652 -0.5247 -0.1498
    4MOL0     C  454   2.954   1.512   0.988  0.6175  0.6530  0.0696
    4MOL0     C  455   2.814   1.483   0.949  0.2630  0.8886  0.1899
    4MOL0     C  456   2.724   1.418   1.064 -0.6596 -0.2676  1.6774
    4MOL0     C  457   2.585   1.373   1.016  0.0924 -0.1870 -0.3660
    4MOL0     C  458   2.592   1.252   0.919  0.5508 -0.3647  0.4716
    4MOL0    Cl  459   2.422   1.230   0.884  0.1584 -0.1136  0.3494
    4MOL0     C  460   3.537   1.422   0.844  0.4871 -0.4993 -0.2698
    4MOL0     C  461   3.634   1.524   0.830  0.2469 -0.5311  0.1539
    4MOL0     O  462   3.920   1.604   0.779  0.5146  0.2207  0.6144
    4MOL0     C  463   4.091   1.798   0.766 -0.3696  0.6060 -0.0732
    4MOL0     C  464   4.180   1.904   0.739 -0.1735  1.2627 -0.8466
    4MOL0     N  465   4.620   2.068   0.494  0.0068 -0.6239  0.6656
    4MOL0     N  466   4.676   2.111   0.387  0.4238 -0.6227 -0.2714
    4MOL0     C  467   5.600   1.889   0.939  0.4314 -0.1784 -0.2825
    4MOL0     C  468   5.657   1.862   1.059 -0.0039  0.4766  0.0894
    4MOL0     C  469   5.645   1.692   1.495 -0.2605 -0.1817 -0.1983
    4MOL0     C  470   5.550   1.616   1.571 -0.6019  0.2502  0.3187
    4MOL0     C  471   5.590   1.568   1.700  0.8421 -0.8159  0.8109
    4MOL0     C  472   5.701   1.610   1.773 -0.1989 -0.3052  0.2635
    4MOL0     O  473   5.735   1.562   1.900 -0.0300 -0.0645  0.8045
    4MOL0     C  474   5.643   1.473   1.968 -0.2951  0.0304 -0.1753
    4MOL0     C  475   5.696   1.468   2.112  0.4011 -0.0552  0.7392
    4MOL0     C  476   5.684   1.598   2.187 -0.0621 -0.2138 -0.2482
    4MOL0     C  477   5.725   1.612   2.343 -0.0223 -0.8895  0.4796
    4MOL0     C  478   5.869   1.626   2.374  0.3233  0.2995 -0.3251
    4MOL0     C  479   5.983   1.642   2.403 -0.1854  0.2319  0.2168
    4MOL0     C  480   5.785   1.688   1.693 -0.2089 -0.9926  0.3525
    4MOL0     C  481   5.770   1.728   1.556  0.3712 -0.2693  0.9434
    4MOL0     C  482   5.876   1.814   1.497  0.3859 -1.2139 -0.2643
    4MOL0     H  483   5.433   2.014   1.260 -2.0880 -2.9608  0.5126
    4MOL0     H  484   5.347   2.090   1.053  0.2614  1.3611  2.0366
    4MOL0     H  485   5.520   1.871   0.715  1.8482  2.2307  1.9684
    4MOL0     H  486   5.489   2.039   0.655 -0.6277  0.3421 -0.8424
    4MOL0     H  487   5.398   1.877   0.506 -0.9756 -0.7946 -0.3694
    4MOL0     H  488   5.305   1.791   0.611  2.0510 -0.7059 -1.2826
    4MOL0     H  489   5.127   1.934   0.520  0.3126  0.5036  0.7653
    4MOL0     H  490   5.193   2.057   0.627 -2.0862  1.2110 -1.5848
    4MOL0     H  491   5.364   2.061   0.392 -1.1357  1.0144 -0.7230
    4MOL0     H  492   5.221   2.000   0.329 -2.2107  1.4300  0.0313
    4MOL0     H  493   5.233   2.256   0.325 -2.6814  1.4286  0.1751
    4MOL0     H  494   5.202   2.251   0.500 -0.1523  2.4899 -1.0227
    4MOL0     H  495   5.033   2.137   0.279  2.5039  0.0636 -0.4106
    4MOL0     H  496   4.997   2.127   0.460  0.5835 -0.9638 -1.3654
    4MOL0     H  497   5.023   2.385   0.309 -0.5231  1.3583  0.7326
    4MOL0     H  498   4.967   2.344   0.476 -0.2456 -2.9184 -0.1720
    4MOL0     H  499   4.780   2.393   0.293 -2.1112 -1.2886 -3.5994
    4MOL0     H  500   4.826   2.239   0.222  1.3709 -1.6553  1.2995
    4MOL0     H  501   4.744   2.364   0.589  2.4483 -0.0017 -1.7704
    4MOL0     H  502   4.624   2.180   0.813 -1.7742  0.4985  0.7957
    4MOL0     H  503   4.516   2.071   0.735  0.3021 -0.6180  2.0633
    4MOL0     H  504   4.417   2.294   0.816 -1.3835  0.9335 -1.2925
    4MOL0     H  505   4.516   2.384   0.714  2.7117 -0.4748 -1.4406
    4MOL0     H  506   4.297   2.373   0.617 -0.1558 -1.3012  0.4938
    4MOL0     H  507   4.405   2.292   0.514  0.2330  0.9941 -0.9278
    4MOL0     H  508   4.206   2.152   0.552 -0.5870 -3.2332  1.8306
    4MOL0     H  509   4.342   2.068   0.623 -1.7664 -1.8638 -0.1079
    4MOL0     H  510   3.982   2.165   0.851  0.1698  0.8335 -1.5186
    4MOL0     H  511   3.711   1.952   0.861  0.4711  0.6496 -2.1876
    4MOL0     H  512   3.780   2.086   0.949 -0.6780 -0.0432  1.9459
    4MOL0     H  513   3.780   1.930   1.026  0.5098  0.9210 -0.5858
    4MOL0     H  514   3.654   1.622   1.149  2.5722  0.5653 -1.0574
    4MOL0     H  515   3.473   1.467   1.177 -0.8875  3.9106  0.6359
    4MOL0     H  516   3.301   1.323   0.798  3.6467 -2.0209 -0.3112
    4MOL0     H  517   3.213   1.211   0.900 -2.1250  1.5788  2.5581
    4MOL0     H  518   3.191   1.413   1.074  1.0208  2.0539  0.2002
    4MOL0     H  519   3.223   1.511   0.932  0.3093  0.6599  0.4672
    4MOL0     H  520   3.006   1.299   0.964  2.0202 -0.7653  1.1934
    4MOL0     H  521   3.030   1.399   0.825 -0.1085 -3.7128 -0.2265
    4MOL0     H  522   2.998   1.593   0.930  0.1387  0.9149  0.0643
    4MOL0     H  523   2.964   1.521   1.097  1.2450  0.1776  0.0582
    4MOL0     H  524   2.789   1.589   0.937 -1.9359  0.0950 -3.9002
    4MOL0     H  525   2.803   1.433   0.853 -0.0491  1.0840  0.1230
    4MOL0     H  526   2.703   1.496   1.138 -1.5800  0.1736  0.9718
    4MOL0     H  527   2.774   1.338   1.120  1.1439 -0.0483  0.4659
    4MOL0     H  528   2.536   1.462   0.976  1.1794  1.3158  1.4513
    4MOL0     H  529   2.526   1.327   1.096  2.0470 -1.6523  0.3380
    4MOL0     H  530   2.649   1.169   0.961 -1.6999 -1.1781  2.0592
    4MOL0     H  531   2.654   1.278   0.832  1.7153  0.3766  1.4897
    4MOL0     H  532   3.514   1.357   0.760  1.9933  0.1217 -1.2014
    4MOL0     H  533   3.689   1.537   0.737 -0.3743  0.8736 -0.0378
    4MOL0     H  534   4.130   1.698   0.749 -2.3605  0.0710 -1.8425
    4MOL0     H  535   4.266   1.876   0.680 -0.6038 -1.3318 -0.3716
    4MOL0     H  536   5.662   1.853   0.857  0.4450  0.1920 -0.4354
    4MOL0     H  537   5.748   1.804   1.064 -0.4266 -0.3537 -1.2391
    4MOL0     H  538   5.457   1.583   1.525 -1.1205  4.1766 -1.8951
    4MOL0     H  539   5.529   1.491   1.746  1.4645 -2.3544 -0.8380
    4MOL0     H  540   5.543   1.517   1.960 -0.5475  1.1250  5.1978
    4MOL0     H  541   5.634   1.372   1.928  0.1498  0.4938 -1.5222
    4MOL0     H  542   5.803   1.443   2.111  0.3722 -0.1940 -0.7452
    4MOL0     H  543   5.640   1.386   2.158  1.6739 -0.6911  1.2161
    4MOL0     H  544   5.743   1.678   2.140 -0.2186  0.8498  1.2837
    4MOL0     H  545   5.577   1.604   2.166  0.2382 -1.7403 -2.6354
    4MOL0     H  546   5.680   1.520   2.382  0.4130 -0.7258  1.3879
    4MOL0     H  547   5.670   1.695   2.387  3.2963  3.4091 -2.5772
    4MOL0     H  548   6.080   1.681   2.425 -0.1888  0.8047 -0.7284
    4MOL0     H  549   5.877   1.718   1.743 -1.3840  3.4792  0.2656
    4MOL0     H  550   5.940   1.849   1.579  1.0651 -3.7307  0.3918
    4MOL0     H  551   5.933   1.746   1.432 -0.4588 -1.8344 -0.3694
    4MOL0     H  552   5.848   1.906   1.444  1.0514  0.2317  1.7748
    5MOL0     O  553  11.082   4.662   0.068  0.2347 -0.3183 -0.0834
    5MOL0     C  554  11.159   4.602  -0.010 -0.8065  0.2984  0.6839
    5MOL0     O  555  11.115   4.533  -0.117  0.6686 -0.7423 -0.3733
    5MOL0     C  556  10.988   4.545  -0.161  0.2912 -0.0067  0.7323
    5MOL0     C  557  10.932   4.443  -0.234  0.7646  0.5543  0.4974
    5MOL0     C  558  10.802   4.449  -0.294 -0.1367 -0.5451 -0.5593
    5MOL0     C  559  10.734   4.573  -0.281  0.2225  1.0369 -0.4441
    5MOL0     O  560  10.598   4.586  -0.326 -0.5981 -0.0799 -0.7802
    5MOL0     C  561  10.533   4.503  -0.417  0.0332  0.3703  0.3192
    5MOL0     C  562  10.391   4.561  -0.436  0.5868 -0.6863 -0.5850
    5MOL0     C  563  10.315   4.460  -0.527 -0.7057 -0.1585 -0.4528
    5MOL0     C  564  10.211   4.528  -0.604 -0.1036  0.0587 -0.2052
    5MOL0     C  565  10.136   4.443  -0.699  0.3718  0.4125  0.3611
    5MOL0     C  566  10.220   4.412  -0.823 -0.3915  0.0215  0.0037
    5MOL0     C  567  10.134   4.355  -0.940  0.6641  0.0203  0.1197
    5MOL0     C  568  10.211   4.301  -1.056 -0.4842 -0.8572  0.8712
    5MOL0     N  569  10.139   4.246  -1.173  0.1360  0.1240 -0.4750
    5MOL0     C  570  10.009   4.242  -1.195 -0.1322  0.9791 -0.3415
    5MOL0     C  571   9.995   4.173  -1.315  0.3467  0.0950 -0.9100
    5MOL0     C  572   9.872   4.136  -1.394 -1.0505 -0.6152  0.9682
    5MOL0     C  573   9.857   3.984  -1.415  0.3023  0.6163 -0.6144
    5MOL0     C  574   9.808   3.904  -1.292  1.1081  0.5796 -0.0298
    5MOL0     C  575   9.840   3.762  -1.312 -1.0047 -0.1104 -0.4375
    5MOL0     O  576   9.961   3.716  -1.249  0.1862 -0.3777  0.0303
    5MOL0     C  577  10.062   3.675  -1.340  0.4880 -0.4778 -0.3798
    5MOL0     C  578  10.172   3.756  -1.368  0.4483 -0.2181  0.2268
    5MOL0     C  579  10.266   3.727  -1.466  0.5908  1.4577 -0.5072
    5MOL0     C  580  10.369   3.833  -1.501 -0.2688  0.0005  0.0596
    5MOL0     C  581  10.259   3.602  -1.533 -0.3606 -0.3523 -0.2279
    5MOL0     C  582  10.355   3.554  -1.644 -0.1428  0.8754  0.4351
    5MOL0     O  583  10.462   3.626  -1.682 -0.1625  0.5320 -0.6273
    5MOL0     C  584  10.568   3.607  -1.770 -0.0958  0.8189  1.2080
    5MOL0     C  585  10.698   3.654  -1.744 -0.7592 -1.5056  0.0003
    5MOL0     C  586  10.800   3.634  -1.832  0.1088  0.0716 -0.1567
    5MOL0     C  587  10.784   3.549  -1.944 -0.7910  0.3405 -0.0924
    5MOL0     O  588  10.906   3.526  -2.000  0.0959 -0.1680  0.1774
    5MOL0     C  589  10.925   3.418  -2.094 -0.3392  0.7697  1.0678
    5MOL0     C  590  10.904   3.287  -2.014  0.0917 -0.1192 -0.4009
    5MOL0     C  591  10.939   3.160  -2.092 -0.1217 -0.2857 -0.7591
    5MOL0     C  592  10.857   3.119  -2.207 -0.2774  0.2605 -0.0781
    5MOL0     C  593  10.913   2.988  -2.256  0.1400  1.1374 -0.1171
    5MOL0     C  594  10.827   2.917  -2.366 -0.9927 -0.9760 -0.4209
    5MOL0     C  595  10.695   2.864  -2.315  0.3540  0.7973  1.0083
    5MOL0     C  596  10.592   2.964  -2.342  0.5339 -0.0556  0.3941
    5MOL0    Cl  597  10.551   2.956  -2.514  0.0510 -0.0368 -0.1276
    5MOL0     C  598  10.656   3.500  -1.977 -0.0827  0.9203  0.3976
    5MOL0     C  599  10.552   3.533  -1.891 -0.3011  0.6468  0.0960
    5MOL0     O  600  10.333   3.446  -1.703 -0.1511 -0.2126 -0.2491
    5MOL0     C  601  10.150   3.519  -1.505 -0.7453  0.6206  0.1227
    5MOL0     C  602  10.056   3.555  -1.408  0.2383 -0.5627  0.0030
    5MOL0     N  603  10.116   4.131  -1.359 -0.8130  0.0004 -0.1588
    5MOL0     N  604  10.204   4.166  -1.265  0.3384 -0.8749  0.0354
    5MOL0     C  605  10.790   4.674  -0.215 -0.1955 -0.7511 -0.1113
    5MOL0     C  606  10.911   4.663  -0.153  0.1119 -0.7761 -0.2593
    5MOL0     C  607  11.308   4.618   0.017 -0.3457  0.4193  0.6697
    5MOL0     C  608  11.395   4.571  -0.083  0.0851  0.2410 -0.0247
    5MOL0     C  609  11.536   4.593  -0.077 -0.9488  0.8171  1.3663
    5MOL0     C  610  11.586   4.668   0.031  0.2828  0.4527 -0.9072
    5MOL0     O  611  11.718   4.685   0.039 -0.8435 -0.7705  0.2836
    5MOL0     C  612  11.759   4.819  -0.002 -1.1710  0.5667  0.0074
    5MOL0     C  613  11.894   4.812  -0.065 -1.2005 -0.3124  0.0821
    5MOL0     C  614  12.002   4.784   0.041  0.4258 -0.0811  0.8182
    5MOL0     C  615  12.141   4.824  -0.003  0.7001 -0.3234 -0.3060
    5MOL0     C  616  12.145   4.973  -0.018 -0.4945  0.3131  0.5539
    5MOL0     C  617  12.177   5.091  -0.028  0.2763  0.4643 -0.3018
    5MOL0     C  618  11.508   4.711   0.135  0.5890 -0.2385  0.2328
    5MOL0     C  619  11.366   4.683   0.128 -0.7311 -0.1296  0.0051
    5MOL0     C  620  11.293   4.713   0.251  0.4516  0.7379  0.2352
    5MOL0     H  621  10.990   4.353  -0.254 -2.0047 -0.6323 -3.5175
    5MOL0     H  622  10.757   4.362  -0.342  0.1764  0.6596 -3.2585
    5MOL0     H  623  10.523   4.403  -0.374  2.0418 -0.4455 -0.9487
    5MOL0     H  624  10.590   4.501  -0.511 -1.0753  0.5479 -0.3724
    5MOL0     H  625  10.335   4.558  -0.342 -1.1273 -2.4727 -1.5718
    5MOL0     H  626  10.383   4.664  -0.471 -0.1434 -0.4475  0.2700
    5MOL0     H  627  10.385   4.411  -0.595  0.2903  0.2733  0.2540
    5MOL0     H  628  10.263   4.388  -0.463 -0.6088  1.7891  1.9617
    5MOL0     H  629  10.131   4.546  -0.531  2.5645  0.4564  2.8111
    5MOL0     H  630  10.250   4.617  -0.653 -1.4707  1.2847  0.8444
    5MOL0     H  631  10.050   4.499  -0.737  1.2275  1.2705 -0.3603
    5MOL0     H  632  10.107   4.349  -0.651  1.6213  1.0586  2.4886
    5MOL0     H  633  10.281   4.497  -0.856  0.9703 -1.4656 -1.5229
    5MOL0     H  634  10.293   4.331  -0.815  1.8027  1.8562 -0.3390
    5MOL0     H  635  10.058   4.422  -0.979  0.8650  0.1659 -0.0189
    5MOL0     H  636  10.068   4.276  -0.900  0.2118 -0.1651 -0.9746
    5MOL0     H  637  10.263   4.390  -1.092  1.2271 -1.3938  1.8850
    5MOL0     H  638  10.293   4.237  -1.022 -2.0917 -2.6110  1.6454
    5MOL0     H  639   9.936   4.288  -1.129 -1.1138 -0.5748 -0.2911
    5MOL0     H  640   9.880   4.176  -1.496 -1.8576 -0.5336  0.9336
    5MOL0     H  641   9.786   4.192  -1.356  0.1817  4.3891 -2.4614
    5MOL0     H  642   9.785   3.966  -1.495  0.1449 -2.3670  0.0673
    5MOL0     H  643   9.953   3.941  -1.446 -0.3823 -4.4794  3.0420
    5MOL0     H  644   9.853   3.941  -1.199 -0.7988  1.2401  0.6839
    5MOL0     H  645   9.699   3.911  -1.285  0.7320 -2.5116 -1.2976
    5MOL0     H  646   9.766   3.700  -1.260 -1.6142  0.6527 -0.3898
    5MOL0     H  647   9.843   3.733  -1.418 -0.9004 -2.1719  0.0883
    5MOL0     H  648  10.192   3.845  -1.311  1.1306  0.7324 -1.4219
    5MOL0     H  649  10.468   3.796  -1.472  0.2752 -0.0492 -1.7633
    5MOL0     H  650  10.337   3.930  -1.462 -0.4398  0.0840 -0.2859
    5MOL0     H  651  10.377   3.838  -1.610 -0.8722 -3.9460 -0.3273
    5MOL0     H  652  10.711   3.716  -1.656 -3.3009  0.9408 -1.1783
    5MOL0     H  653  10.900   3.668  -1.809  0.5398 -1.5070  0.4352
    5MOL0     H  654  10.857   3.413  -2.180  1.1353 -2.8996 -0.0774
    5MOL0     H  655  11.020   3.427  -2.148 -0.2759 -0.2368  0.9800
    5MOL0     H  656  10.976   3.298  -1.932 -1.8624  2.9484  1.1198
    5MOL0     H  657  10.804   3.267  -1.973 -0.0528 -0.2242 -0.8031
    5MOL0     H  658  10.910   3.082  -2.020 -2.8594 -1.1281 -2.6142
    5MOL0     H  659  11.045   3.165  -2.116  0.1840  1.1737  0.7037
    5MOL0     H  660  10.879   3.184  -2.292 -1.3597 -2.0624 -2.2551
    5MOL0     H  661  10.754   3.110  -2.173 -0.8193  2.4162 -1.0298
    5MOL0     H  662  11.012   3.007  -2.299  2.4073 -1.5647  3.3550
    5MOL0     H  663  10.929   2.928  -2.167  0.2092 -1.2104 -1.6111
    5MOL0     H  664  10.888   2.837  -2.410  2.1972  2.0090 -1.8738
    5MOL0     H  665  10.812   2.987  -2.448 -0.6515  1.5631  1.5667
    5MOL0     H  666  10.702   2.841  -2.208  1.7414 -2.5232  0.3112
    5MOL0     H  667  10.666   2.770  -2.363  3.9644 -0.9237  1.8430
    5MOL0     H  668  10.618   3.069  -2.327  0.6449  0.3992 -2.4502
    5MOL0     H  669  10.505   2.931  -2.284  0.7542  0.4266  1.0073
    5MOL0     H  670  10.636   3.430  -2.057  2.7071 -0.9234  1.1615
    5MOL0     H  671  10.456   3.489  -1.915 -0.3714  1.4054 -1.1162
    5MOL0     H  672  10.151   3.421  -1.551 -1.6091 -1.0627  3.3940
    5MOL0     H  673   9.983   3.489  -1.364  0.9798 -0.7735  0.9624
    5MOL0     H  674  10.737   4.768  -0.208  0.1457 -0.6201  0.9518
    5MOL0     H  675  10.962   4.754  -0.125  0.6000 -0.8030 -1.0537
    5MOL0     H  676  11.348   4.513  -0.162 -3.9407  3.1299 -0.0442
    5MOL0     H  677  11.604   4.545  -0.147 -1.4183  0.2866  1.2727
    5MOL0     H  678  11.687   4.867  -0.069  0.8285  1.8833 -1.3146
    5MOL0     H  679  11.761   4.882   0.087 -1.6241  1.1867 -0.4139
    5MOL0     H  680  11.915   4.914  -0.099 -2.3157 -0.1094 -0.0407
    5MOL0     H  681  11.907   4.745  -0.150 -0.0950  2.3168 -1.9653
    5MOL0     H  682  11.981   4.862   0.114  2.2419 -0.4387  1.7903
    5MOL0     H  683  12.004   4.685   0.088  1.0951  0.1341  1.2470
    5MOL0     H  684  12.165   4.762  -0.089 -3.2607 -1.5248 -0.7409
    5MOL0     H  685  12.214   4.812   0.078 -0.0638 -0.9001  0.3061
    5MOL0     H  686  12.207   5.191  -0.053 -1.1057  1.0838  0.4337
    5MOL0     H  687  11.554   4.757   0.222  1.4849 -0.3698 -0.1650
    5MOL0     H  688  11.234   4.804   0.237  1.2727  1.2214 -0.1577
    5MOL0     H  689  11.225   4.634   0.284  0.9885  1.2632  2.8934
    5MOL0     H  690  11.361   4.735   0.335 -1.4069  1.0008  1.7409
    6MOL0     O  691   8.600  11.383   3.161  0.4732  0.1637  0.4125
    6MOL0     C  692   8.551  11.288   3.219  0.0010 -0.5706  0.9842
    6MOL0     O  693   8.453  11.200   3.164 -1.1776 -0.4808 -0.3758
    6MOL0     C  694   8.398  11.225   3.039  0.6701  0.2129 -0.0944
    6MOL0     C  695   8.331  11.346   3.016 -0.7706  0.2856  0.0411
    6MOL0     C  696   8.289  11.380   2.889 -0.0213 -0.2565  2.2806
    6MOL0     C  697   8.302  11.279   2.782  0.1952 -0.5135 -0.8085
    6MOL0     O  698   8.270  11.288   2.655  0.0362 -0.2958  0.0376
    6MOL0     C  699   8.161  11.370   2.623 -0.7586  0.2503  0.0002
    6MOL0     C  700   8.114  11.349   2.481 -0.7244 -0.4854  1.0785
    6MOL0     C  701   8.031  11.214   2.464 -0.6204  0.8058  0.2300
    6MOL0     C  702   7.951  11.231   2.329  0.9907  0.9554 -0.6961
    6MOL0     C  703   7.843  11.337   2.326 -0.1723 -0.6069  0.7123
    6MOL0     C  704   7.737  11.310   2.219 -0.2991 -0.1209 -0.6256
    6MOL0     C  705   7.645  11.429   2.209  0.9063 -1.0206  0.0017
    6MOL0     C  706   7.536  11.415   2.109 -0.0646  0.4697 -0.1777
    6MOL0     N  707   7.450  11.536   2.101 -0.4839 -0.1874  0.0929
    6MOL0     C  708   7.486  11.659   2.150  0.4208  0.7934  0.2846
    6MOL0     C  709   7.359  11.714   2.153 -0.0318 -0.3184 -0.4258
    6MOL0     C  710   7.327  11.854   2.195  0.2243  0.5167  0.2638
    6MOL0     C  711   7.448  11.909   2.264 -0.4419 -0.1379 -0.1740
    6MOL0     C  712   7.409  12.027   2.350  0.0669  0.4659 -0.2727
    6MOL0     C  713   7.408  11.979   2.498  0.2132  0.3403 -0.2275
    6MOL0     O  714   7.308  11.874   2.507 -0.3715  0.3714 -0.8789
    6MOL0     C  715   7.327  11.792   2.626 -0.9051 -0.3877  0.2176
    6MOL0     C  716   7.314  11.830   2.760  0.4922 -0.5790  0.4091
    6MOL0     C  717   7.335  11.749   2.875 -0.4618 -0.6270 -0.2022
    6MOL0     C  718   7.331  11.811   3.013  0.5003 -0.0293  0.0206
    6MOL0     C  719   7.364  11.616   2.848 -0.0247 -0.2218  0.3064
    6MOL0     C  720   7.390  11.513   2.948 -0.3420  0.0175 -1.2878
    6MOL0     O  721   7.463  11.406   2.906  0.5221  0.4980  0.2083
    6MOL0     C  722   7.506  11.321   3.005 -0.1174  1.2114  0.6510
    6MOL0     C  723   7.461  11.192   2.979  0.3381 -0.0434  0.1248
    6MOL0     C  724   7.497  11.091   3.066 -0.4469 -0.7122  0.2455
    6MOL0     C  725   7.563  11.118   3.190 -0.9299 -0.2002 -1.2282
    6MOL0     O  726   7.589  11.017   3.279  0.2668  0.8966 -0.5052
    6MOL0     C  727   7.680  11.038   3.388  0.4341  0.4241  0.2090
    6MOL0     C  728   7.698  10.900   3.455 -1.6919 -0.5135 -0.0220
    6MOL0     C  729   7.792  10.794   3.385 -0.8310  0.5354 -0.2871
    6MOL0     C  730   7.829  10.673   3.485  0.2569  0.1067  0.9932
    6MOL0     C  731   7.929  10.568   3.427  0.4508  0.6421 -0.9085
    6MOL0     C  732   7.955  10.438   3.524  0.6338 -0.4177 -0.0431
    6MOL0     C  733   8.028  10.318   3.452  0.6371  0.5472  0.6369
    6MOL0     C  734   7.942  10.246   3.347 -0.0452 -0.4793  0.2239
    6MOL0    Cl  735   7.824  10.133   3.420  0.4118 -0.5583 -0.0887
    6MOL0     C  736   7.605  11.249   3.210  0.5273  0.1856  0.1767
    6MOL0     C  737   7.581  11.347   3.110  0.0471  0.2644 -1.1777
    6MOL0     O  738   7.336  11.512   3.053 -0.2743  0.8904  0.0094
    6MOL0     C  739   7.365  11.570   2.716 -0.5509 -1.5821 -0.2132
    6MOL0     C  740   7.356  11.658   2.603  1.1421 -0.2607  0.1866
    6MOL0     N  741   7.256  11.637   2.117  1.2336 -0.5376 -0.0032
    6MOL0     N  742   7.311  11.523   2.091 -0.5518 -0.9232 -0.2771
    6MOL0     C  743   8.367  11.161   2.811 -0.8534  0.0721  0.1711
    6MOL0     C  744   8.415  11.124   2.936  0.0278  0.0771 -0.1339
    6MOL0     C  745   8.582  11.273   3.363  0.3125  0.1725  1.0163
    6MOL0     C  746   8.546  11.153   3.434 -0.0806 -0.6017  0.3526
    6MOL0     C  747   8.575  11.127   3.577  0.8584  0.1994  0.7462
    6MOL0     C  748   8.651  11.220   3.648 -1.0272  0.0416  0.3567
    6MOL0     O  749   8.692  11.186   3.778 -0.4488  0.0442 -0.4547
    6MOL0     C  750   8.814  11.229   3.830 -0.6868 -0.1196 -0.2241
    6MOL0     C  751   8.843  11.153   3.967 -0.8021 -0.7059  0.2598
    6MOL0     C  752   8.826  11.005   3.965  0.6280  0.7771  0.2769
    6MOL0     C  753   8.928  10.946   3.867  0.3663  0.3333 -0.4662
    6MOL0     C  754   8.925  10.800   3.858 -0.7454  0.0997  1.1595
    6MOL0     C  755   8.910  10.679   3.855  0.1857 -0.3602  0.0064
    6MOL0     C  756   8.695  11.333   3.579  0.1002 -0.0212 -1.0029
    6MOL0     C  757   8.661  11.360   3.441 -0.5008 -0.7721 -0.1127
    6MOL0     C  758   8.722  11.489   3.393  0.6992 -0.3788 -0.2549
    6MOL0     H  759   8.323  11.425   3.090 -1.0497  0.4406 -0.1557
    6MOL0     H  760   8.261  11.483   2.867 -1.0598 -1.1371 -1.0780
    6MOL0     H  761   8.184  11.477   2.633 -0.6716  0.4876 -2.3516
    6MOL0     H  762   8.083  11.348   2.696 -0.7026  0.5739  0.1583
    6MOL0     H  763   8.065  11.435   2.435 -0.6650 -0.6839  0.6407
    6MOL0     H  764   8.197  11.324   2.415 -2.5053 -0.2096 -1.4027
    6MOL0     H  765   8.094  11.125   2.463  3.1722  3.1835  1.9309
    6MOL0     H  766   7.965  11.194   2.549 -4.4921 -1.5943 -2.9637
    6MOL0     H  767   8.016  11.252   2.244 -2.1682  3.9694 -2.6262
    6MOL0     H  768   7.901  11.138   2.300  0.5342  1.8970 -3.1254
    6MOL0     H  769   7.892  11.434   2.311 -1.6161  0.0142 -0.2891
    6MOL0     H  770   7.796  11.345   2.424  0.0158 -1.3998  0.8698
    6MOL0     H  771   7.797  11.317   2.127 -1.8943  1.4760 -1.6063
    6MOL0     H  772   7.680  11.218   2.233 -3.6269  1.8572 -0.3055
    6MOL0     H  773   7.712  11.512   2.187 -0.8609  0.4912  0.1355
    6MOL0     H  774   7.596  11.450   2.305  3.1387 -0.7266  1.1560
    6MOL0     H  775   7.562  11.379   2.009  1.9018 -0.1342  0.5071
    6MOL0     H  776   7.467  11.344   2.156  1.0301  0.7613  2.0013
    6MOL0     H  777   7.583  11.703   2.173  0.9815 -0.1721 -0.1354
    6MOL0     H  778   7.245  11.858   2.267 -0.2385  2.2961 -0.3017
    6MOL0     H  779   7.297  11.908   2.105 -3.7621 -0.7869  0.6139
    6MOL0     H  780   7.508  11.835   2.318 -0.2564 -0.6213 -1.0324
    6MOL0     H  781   7.522  11.939   2.190  2.6465 -1.7131  2.0174
    6MOL0     H  782   7.486  12.104   2.335  2.0170 -1.5080 -1.0017
    6MOL0     H  783   7.312  12.069   2.324 -0.1249 -0.2686 -0.7613
    6MOL0     H  784   7.507  11.943   2.528  0.1660  1.3632  1.2729
    6MOL0     H  785   7.384  12.066   2.559  1.0420  2.3318 -2.5664
    6MOL0     H  786   7.294  11.933   2.787 -1.7066 -0.1664 -2.3452
    6MOL0     H  787   7.252  11.769   3.076 -0.8609  2.6466  0.2363
    6MOL0     H  788   7.312  11.918   3.010  0.9714  0.0423 -0.6733
    6MOL0     H  789   7.422  11.784   3.067  0.6738 -1.4157 -0.9086
    6MOL0     H  790   7.402  11.166   2.891 -0.9449 -2.9375  1.7017
    6MOL0     H  791   7.480  10.990   3.031  2.7292 -1.5046  0.6704
    6MOL0     H  792   7.774  11.069   3.341 -0.0149 -0.8402 -1.6269
    6MOL0     H  793   7.628  11.106   3.456  0.2779 -1.0263  1.5894
    6MOL0     H  794   7.730  10.932   3.554  1.2890 -1.4837 -0.5748
    6MOL0     H  795   7.597  10.863   3.476 -1.7104 -1.5913 -1.7806
    6MOL0     H  796   7.888  10.840   3.359 -1.2124  1.0541 -0.8026
    6MOL0     H  797   7.737  10.754   3.299  0.3499  2.0493 -1.8288
    6MOL0     H  798   7.738  10.626   3.522  0.1439  0.0556  0.6481
    6MOL0     H  799   7.887  10.724   3.563 -0.4663 -0.3793  1.8646
    6MOL0     H  800   7.883  10.532   3.335 -1.3072  0.0712  0.1197
    6MOL0     H  801   8.024  10.620   3.417 -0.3552  2.6933  1.2091
    6MOL0     H  802   7.866  10.406   3.579  0.0121  2.8385  1.0499
    6MOL0     H  803   8.028  10.478   3.594 -0.3399  3.5072 -1.0517
    6MOL0     H  804   8.054  10.243   3.527  2.8055  1.0063  0.4073
    6MOL0     H  805   8.119  10.366   3.415  0.4450 -0.0673 -0.6881
    6MOL0     H  806   8.005  10.179   3.288 -0.2943 -2.9353  2.5210
    6MOL0     H  807   7.885  10.322   3.292 -2.1883  1.0379  4.1252
    6MOL0     H  808   7.657  11.272   3.302 -0.0711 -1.2984  0.9218
    6MOL0     H  809   7.621  11.445   3.135  2.6954 -1.1337  0.4530
    6MOL0     H  810   7.378  11.466   2.691  2.3720 -1.4521  0.3105
    6MOL0     H  811   7.348  11.618   2.502  0.6304 -1.8067  0.8216
    6MOL0     H  812   8.370  11.087   2.732 -1.7316 -0.8108  0.9499
    6MOL0     H  813   8.453  11.027   2.965 -0.8512  0.7247  3.6541
    6MOL0     H  814   8.488  11.075   3.383 -0.0297 -0.4485  0.0561
    6MOL0     H  815   8.538  11.039   3.629 -1.0954  0.5622  0.0778
    6MOL0     H  816   8.894  11.209   3.758 -2.9402  0.4426 -3.0702
    6MOL0     H  817   8.811  11.338   3.842 -4.2816  0.1184 -2.0731
    6MOL0     H  818   8.775  11.194   4.042 -0.6614 -2.0641  1.1746
    6MOL0     H  819   8.944  11.169   4.005 -0.6545  1.7968 -0.9876
    6MOL0     H  820   8.836  10.969   4.068 -1.5153 -3.7952 -0.8571
    6MOL0     H  821   8.723  10.987   3.933 -1.9242  0.9496  6.7826
    6MOL0     H  822   9.028  10.974   3.902  1.1015 -4.2656  1.7866
    6MOL0     H  823   8.909  10.991   3.769 -3.7361  3.9426  1.5972
    6MOL0     H  824   8.890  10.574   3.840 -0.3881 -0.8687  3.4399
    6MOL0     H  825   8.763  11.404   3.626  0.3311 -0.6665 -0.3455
    6MOL0     H  826   8.768  11.475   3.295 -3.0398  0.6782 -2.3547
    6MOL0     H  827   8.649  11.568   3.374  1.3326  0.6145  1.1943
    6MOL0     H  828   8.791  11.537   3.463  0.1715  2.6435 -1.6481
    7MOL0     O  829   5.842   9.364  11.264 -0.6960 -0.6081 -0.3060
    7MOL0     C  830   5.838   9.293  11.168 -0.3959  0.6234 -0.2257
    7MOL0     O  831   5.910   9.182  11.144 -0.8324  0.2113 -0.3446
    7MOL0     C  832   6.002   9.145  11.242  0.1971 -0.2212 -0.3138
    7MOL0     C  833   5.989   9.157  11.380 -0.3077 -0.0120 -0.1835
    7MOL0     C  834   6.075   9.116  11.475 -0.3222  0.3530  0.0381
    7MOL0     C  835   6.184   9.033  11.440  0.4137 -0.6793  0.1098
    7MOL0     O  836   6.279   8.974  11.531  0.7470 -0.2075 -0.0533
    7MOL0     C  837   6.224   8.928  11.650 -0.2965  0.4642 -0.6023
    7MOL0     C  838   6.351   8.886  11.735  0.0580 -0.3156 -0.2699
    7MOL0     C  839   6.442   8.780  11.676 -0.1653  0.0642 -0.1651
    7MOL0     C  840   6.356   8.669  11.615  0.2971  0.2155  0.7549
    7MOL0     C  841   6.429   8.533  11.590 -0.0340 -0.7880  0.0902
    7MOL0     C  842   6.391   8.433  11.697 -0.3483  0.3295  0.0790
    7MOL0     C  843   6.446   8.291  11.672  0.3972  0.1643  0.4346
    7MOL0     C  844   6.421   8.212  11.800  0.2465  0.8251  0.4956
    7MOL0     N  845   6.485   8.086  11.777  0.6687  0.3306 -0.3366
    7MOL0     C  846   6.596   8.049  11.835 -0.3965 -0.5162  0.0515
    7MOL0     C  847   6.628   7.933  11.776  1.3654 -0.6731 -0.4138
    7MOL0     C  848   6.759   7.856  11.795 -0.0684 -0.3681 -0.3026
    7MOL0     C  849   6.809   7.824  11.933  0.1075 -0.4201 -0.6552
    7MOL0     C  850   6.931   7.726  11.938 -0.0125 -0.2088 -0.9427
    7MOL0     C  851   6.918   7.600  11.844 -0.7058 -0.1125 -0.9163
    7MOL0     O  852   6.994   7.491  11.889 -0.1733  0.2083 -0.1181
    7MOL0     C  853   6.956   7.359  11.865 -0.1643  0.2376  0.4121
    7MOL0     C  854   7.061   7.271  11.886 -0.0299 -0.4752  0.0457
    7MOL0     C  855   7.046   7.134  11.862  0.1162 -0.1620  0.1713
    7MOL0     C  856   7.166   7.045  11.884 -0.4894 -0.3107 -0.0832
    7MOL0     C  857   6.933   7.085  11.801  0.6146 -0.3122 -0.1670
    7MOL0     C  858   6.898   6.942  11.777 -0.4779  0.0938  0.0089
    7MOL0     O  859   6.821   6.915  11.668 -0.1762 -0.0525 -0.3610
    7MOL0     C  860   6.751   6.801  11.666  0.2103 -0.4260 -0.3676
    7MOL0     C  861   6.748   6.730  11.553 -0.8327  0.2628  0.1692
    7MOL0     C  862   6.670   6.617  11.531  0.0448 -0.5995  0.6837
    7MOL0     C  863   6.605   6.559  11.641  0.4275 -0.0366 -0.2278
    7MOL0     O  864   6.537   6.439  11.640 -0.6771  0.0453 -0.2241
    7MOL0     C  865   6.552   6.350  11.529 -0.3489 -0.5907 -0.0115
    7MOL0     C  866   6.489   6.218  11.553  0.7372 -0.0184  0.1016
    7MOL0     C  867   6.574   6.106  11.482  0.5484 -0.6905 -0.5652
    7MOL0     C  868   6.473   6.004  11.434 -0.3322 -0.6284 -0.1460
    7MOL0     C  869   6.540   5.921  11.328 -1.1330 -0.6771 -0.2454
    7MOL0     C  870   6.473   5.789  11.293  0.3455  0.3306 -0.1931
    7MOL0     C  871   6.533   5.730  11.161  1.1928  0.4909  1.0166
    7MOL0     C  872   6.450   5.617  11.104  0.7177  0.1544 -0.1414
    7MOL0    Cl  873   6.463   5.482  11.213 -0.3106  0.4867 -0.2438
    7MOL0     C  874   6.608   6.626  11.761  0.3760 -0.5365 -0.4855
    7MOL0     C  875   6.677   6.749  11.775 -0.1781  0.4883  0.4494
    7MOL0     O  876   6.948   6.857  11.847  0.2344 -1.1531  0.7115
    7MOL0     C  877   6.836   7.181  11.756  0.7420 -0.1139 -0.4409
    7MOL0     C  878   6.845   7.315  11.797  1.0276 -0.5391 -0.7368
    7MOL0     N  879   6.521   7.897  11.692 -0.3280  0.1309  0.2109
    7MOL0     N  880   6.442   7.999  11.684 -0.4060  0.5236  0.6516
    7MOL0     C  881   6.189   8.997  11.305 -0.2318  0.0722 -0.6158
    7MOL0     C  882   6.108   9.059  11.208  0.1069  0.2941 -1.4600
    7MOL0     C  883   5.749   9.333  11.052 -0.1189  0.4129 -0.1009
    7MOL0     C  884   5.744   9.251  10.935  0.4548  0.4323 -0.2948
    7MOL0     C  885   5.636   9.265  10.836 -0.0505 -0.2434 -0.6979
    7MOL0     C  886   5.547   9.372  10.850  1.1489  0.0264  0.6259
    7MOL0     O  887   5.446   9.388  10.763  0.5616 -0.4606  0.1469
    7MOL0     C  888   5.504   9.423  10.632  0.2780  0.3126  0.0197
    7MOL0     C  889   5.395   9.471  10.526  1.0801  0.6352 -0.3735
    7MOL0     C  890   5.259   9.411  10.559  0.9119 -0.1052  0.0571
    7MOL0     C  891   5.148   9.442  10.456 -0.4478 -0.0927  0.0026
    7MOL0     C  892   5.174   9.405  10.320 -0.1179 -0.3959  0.4109
    7MOL0     C  893   5.198   9.379  10.203 -0.4080 -0.7359  0.2843
    7MOL0     C  894   5.546   9.439  10.977 -0.4663  0.7956 -0.0949
    7MOL0     C  895   5.647   9.428  11.074 -0.0137  0.3212  0.1367
    7MOL0     C  896   5.617   9.510  11.203  0.1848 -0.2753  0.1819
    7MOL0     H  897   5.907   9.213  11.424 -0.0909 -0.6132  1.0581
    7MOL0     H  898   6.060   9.147  11.578  0.6143  1.5125 -0.1510
    7MOL0     H  899   6.168   8.836  11.637 -0.0018 -0.3560  2.8957
    7MOL0     H  900   6.161   8.996  11.709 -0.3313 -0.6422  0.6907
    7MOL0     H  901   6.413   8.976  11.746 -0.1190 -0.1044 -0.9014
    7MOL0     H  902   6.321   8.854  11.835  0.0526 -1.8026 -0.7242
    7MOL0     H  903   6.504   8.816  11.593  2.2373  0.6172  1.7435
    7MOL0     H  904   6.505   8.746  11.759  0.0615 -0.0936 -0.4008
    7MOL0     H  905   6.259   8.651  11.661  1.9384 -1.8166  3.7483
    7MOL0     H  906   6.338   8.699  11.511  0.8869 -0.6008  0.4096
    7MOL0     H  907   6.537   8.548  11.600 -0.5707  2.0169  3.4643
    7MOL0     H  908   6.403   8.491  11.493 -0.6464 -0.9809  0.3320
    7MOL0     H  909   6.436   8.469  11.790 -1.9241  0.3460  0.8781
    7MOL0     H  910   6.287   8.430  11.732 -0.1541  2.9768  1.1121
    7MOL0     H  911   6.554   8.304  11.658  0.3655  1.6846  1.3337
    7MOL0     H  912   6.389   8.247  11.590  0.6182  0.6003  0.0440
    7MOL0     H  913   6.461   8.267  11.885  2.1499  1.3123 -0.6496
    7MOL0     H  914   6.315   8.191  11.817  0.6766 -1.5862  0.5708
    7MOL0     H  915   6.665   8.094  11.906 -0.8839 -0.4917  0.5176
    7MOL0     H  916   6.836   7.908  11.738  0.5122  0.5876  1.2781
    7MOL0     H  917   6.727   7.765  11.743 -0.2441  0.3319 -1.4516
    7MOL0     H  918   6.829   7.913  11.994 -0.5546  0.4740 -1.7188
    7MOL0     H  919   6.723   7.771  11.976  0.6938 -1.6052 -0.8832
    7MOL0     H  920   7.024   7.780  11.920  1.1691  0.6383  5.3104
    7MOL0     H  921   6.946   7.693  12.042 -0.3589 -2.1436 -1.4571
    7MOL0     H  922   6.812   7.574  11.859 -0.0350 -1.2914  3.1376
    7MOL0     H  923   6.943   7.613  11.738 -1.7591  0.7018 -1.0790
    7MOL0     H  924   7.152   7.317  11.923 -0.1593 -2.2612  2.8915
    7MOL0     H  925   7.181   6.970  11.806  1.1911  2.7735 -2.9684
    7MOL0     H  926   7.171   6.988  11.977 -0.7857  1.2971  0.9627
    7MOL0     H  927   7.259   7.102  11.875 -0.8348  0.0350 -1.9249
    7MOL0     H  928   6.815   6.764  11.474 -0.5742  0.3406  0.4193
    7MOL0     H  929   6.680   6.562  11.438 -0.8954 -2.8705  1.8538
    7MOL0     H  930   6.509   6.395  11.439  1.4734 -0.0015 -0.6327
    7MOL0     H  931   6.661   6.348  11.519 -0.2166  1.4741  0.6034
    7MOL0     H  932   6.476   6.198  11.659 -5.6729 -1.6218 -0.5884
    7MOL0     H  933   6.387   6.223  11.512  0.3342 -0.7240  0.9941
    7MOL0     H  934   6.646   6.065  11.554 -1.5496  0.3804  2.3324
    7MOL0     H  935   6.626   6.148  11.396  0.4195 -0.7912 -0.6916
    7MOL0     H  936   6.386   6.048  11.384  0.7772  1.5376 -0.2780
    7MOL0     H  937   6.424   5.944  11.512  1.3979 -2.0761 -0.0937
    7MOL0     H  938   6.530   5.984  11.239  1.5310  0.9316  0.4581
    7MOL0     H  939   6.643   5.905  11.360 -0.1543 -0.8741 -3.1325
    7MOL0     H  940   6.365   5.800  11.281  0.5881  0.1021 -3.8196
    7MOL0     H  941   6.475   5.714  11.373 -2.2449 -0.3445 -0.6615
    7MOL0     H  942   6.630   5.688  11.189  1.8472 -0.6455 -2.5265
    7MOL0     H  943   6.544   5.802  11.080 -2.2130 -1.9539 -1.9511
    7MOL0     H  944   6.485   5.572  11.010  2.1345  3.8846 -1.5667
    7MOL0     H  945   6.350   5.657  11.087  0.6058 -0.5683 -1.2943
    7MOL0     H  946   6.554   6.592  11.849 -1.2592  3.2126  0.1935
    7MOL0     H  947   6.668   6.805  11.868 -2.9585 -0.4528  0.8587
    7MOL0     H  948   6.744   7.153  11.706  1.3735  0.5495 -2.0683
    7MOL0     H  949   6.766   7.380  11.761  0.5707 -3.3352 -5.5883
    7MOL0     H  950   6.269   8.924  11.300  1.0776  1.2675  1.6135
    7MOL0     H  951   6.124   9.026  11.105  3.3338  0.7119 -1.1819
    7MOL0     H  952   5.809   9.166  10.913 -0.3724 -0.2292 -0.2090
    7MOL0     H  953   5.632   9.202  10.748 -0.5013 -2.6313  0.9387
    7MOL0     H  954   5.583   9.499  10.641 -0.1480  1.1692 -2.6400
    7MOL0     H  955   5.562   9.339  10.593 -0.1311  0.3569 -0.7061
    7MOL0     H  956   5.433   9.439  10.429 -0.5183 -4.7451  0.4323
    7MOL0     H  957   5.394   9.580  10.524  0.3499  0.6455  0.0065
    7MOL0     H  958   5.270   9.302  10.564 -0.6198 -0.4349 -2.0253
    7MOL0     H  959   5.218   9.449  10.653  1.1791  0.2804  0.0173
    7MOL0     H  960   5.133   9.550  10.451  1.3542  0.1085 -3.5584
    7MOL0     H  961   5.060   9.387  10.493 -0.2093 -1.9935 -2.0677
    7MOL0     H  962   5.238   9.362  10.105 -1.6110 -0.6212 -0.2538
    7MOL0     H  963   5.456   9.497  10.992 -1.2159 -0.9339  2.9267
    7MOL0     H  964   5.523   9.565  11.195  0.1767 -0.1022  1.2660
    7MOL0     H  965   5.629   9.456  11.298  4.9093 -0.1296 -0.0949
    7MOL0     H  966   5.695   9.587  11.206  1.7364 -1.8263  1.4451
    8MOL0     O  967  11.566   6.990   0.184  1.0481 -0.3630  1.0068
    8MOL0     C  968  11.461   6.935   0.153  0.0417  0.4486 -0.1461
    8MOL0     O  969  11.373   6.977   0.057  0.0426 -0.5518 -0.8673
    8MOL0     C  970  11.390   7.091  -0.023 -0.3425 -0.0735 -0.0839
    8MOL0     C  971  11.327   7.078  -0.148  0.5355 -0.5165 -0.5317
    8MOL0     C  972  11.315   7.188  -0.241  0.0666  0.0896  0.4491
    8MOL0     C  973  11.384   7.312  -0.215  1.0060 -0.6795  0.7068
    8MOL0     O  974  11.398   7.414  -0.310 -0.0493  0.9314  1.2039
    8MOL0     C  975  11.369   7.402  -0.447  0.1589 -0.3232 -0.0579
    8MOL0     C  976  11.372   7.546  -0.507  0.4288 -0.5756  0.5337
    8MOL0     C  977  11.239   7.621  -0.475  0.0702  0.3589 -0.3304
    8MOL0     C  978  11.234   7.674  -0.326  0.3690  0.0205 -0.2402
    8MOL0     C  979  11.120   7.784  -0.317 -0.4678  0.7290  0.4016
    8MOL0     C  980  11.098   7.855  -0.179  0.1293  0.3997 -0.0014
    8MOL0     C  981  11.112   8.008  -0.195  0.5340  0.3570  0.1011
    8MOL0     C  982  11.136   8.088  -0.069 -0.2762 -0.0920 -0.4106
    8MOL0     N  983  11.125   8.236  -0.084  0.2620 -0.6603  0.2816
    8MOL0     C  984  11.235   8.308  -0.063  0.4250  0.3097 -0.9077
    8MOL0     C  985  11.192   8.439  -0.060  0.8514  0.4053 -0.3423
    8MOL0     C  986  11.280   8.561  -0.049  0.3636 -0.2185 -1.1057
    8MOL0     C  987  11.256   8.679  -0.148  0.8388  1.0297 -0.1898
    8MOL0     C  988  11.322   8.644  -0.289 -0.6996 -0.2435 -0.5275
    8MOL0     C  989  11.479   8.631  -0.281  0.0521  0.2390  1.1350
    8MOL0     O  990  11.538   8.625  -0.413 -0.1400 -0.1916  1.2050
    8MOL0     C  991  11.675   8.586  -0.416 -0.2283  1.0947 -0.1338
    8MOL0     C  992  11.723   8.514  -0.520 -0.2067  0.2909  0.3396
    8MOL0     C  993  11.855   8.476  -0.538  0.3014 -0.0106 -0.8288
    8MOL0     C  994  11.886   8.418  -0.679 -0.1043 -0.6922  0.4195
    8MOL0     C  995  11.946   8.478  -0.426 -0.3913  0.1963 -0.8628
    8MOL0     C  996  12.084   8.422  -0.437  0.2741  0.1063 -0.2196
    8MOL0     O  997  12.097   8.301  -0.502 -0.0976  0.1897  0.0974
    8MOL0     C  998  12.227   8.248  -0.519 -0.4605 -0.0308 -0.2742
    8MOL0     C  999  12.253   8.201  -0.646 -0.0996  0.1185 -0.0551
    8MOL0     C 1000  12.361   8.124  -0.678 -0.7202  0.5386  0.7789
    8MOL0     C 1001  12.447   8.088  -0.565  1.8415  0.1918 -1.4422
    8MOL0     O 1002  12.556   8.007  -0.613 -0.8214  0.9508  0.4201
    8MOL0     C 1003  12.615   7.935  -0.514 -0.7111 -0.2041 -0.5659
    8MOL0     C 1004  12.519   7.822  -0.477 -1.2269 -0.2029  0.1498
    8MOL0     C 1005  12.458   7.735  -0.584  0.0216 -0.6280 -0.5547
    8MOL0     C 1006  12.555   7.658  -0.667  0.5365 -0.1801 -0.8160
    8MOL0     C 1007  12.651   7.569  -0.592  0.1349 -0.5470  0.1765
    8MOL0     C 1008  12.738   7.505  -0.702  0.4640 -0.0823  0.3526
    8MOL0     C 1009  12.859   7.433  -0.646 -1.0375 -0.2370 -0.0444
    8MOL0     C 1010  12.930   7.361  -0.764 -0.4006 -0.3689 -0.4700
    8MOL0    Cl 1011  12.881   7.195  -0.807  0.4653  0.6150  0.2423
    8MOL0     C 1012  12.422   8.131  -0.436  0.4017  0.1143 -0.0965
    8MOL0     C 1013  12.308   8.219  -0.418  0.0228  0.4243 -0.6069
    8MOL0     O 1014  12.174   8.488  -0.394 -0.1454 -0.4076 -0.1212
    8MOL0     C 1015  11.898   8.546  -0.316  0.7378 -0.0023 -0.7671
    8MOL0     C 1016  11.763   8.604  -0.310  0.0580  0.1362 -0.2081
    8MOL0     N 1017  11.049   8.436  -0.070  0.6358  0.0691 -0.1749
    8MOL0     N 1018  11.014   8.316  -0.085 -0.9373  0.1292 -0.2572
    8MOL0     C 1019  11.442   7.321  -0.084 -0.4729  0.1675  0.6470
    8MOL0     C 1020  11.452   7.214   0.005  0.2441  0.1223 -0.3538
    8MOL0     C 1021  11.417   6.804   0.219 -0.4024  0.9024  0.3584
    8MOL0     C 1022  11.280   6.783   0.252 -0.8826 -0.1722  0.6220
    8MOL0     C 1023  11.243   6.669   0.317 -0.6428  0.1182 -0.3149
    8MOL0     C 1024  11.333   6.558   0.320 -0.4772 -0.1834  0.0136
    8MOL0     O 1025  11.283   6.448   0.380 -0.9682 -0.7272 -0.2328
    8MOL0     C 1026  11.338   6.323   0.337 -0.4544  0.2948  0.3207
    8MOL0     C 1027  11.256   6.189   0.353  0.5436  0.3317 -0.8888
    8MOL0     C 1028  11.113   6.197   0.299  1.2144  0.3054  0.8223
    8MOL0     C 1029  11.010   6.281   0.376  0.1788 -0.1866  0.6328
    8MOL0     C 1030  11.000   6.227   0.514 -0.5491 -0.4902 -0.4692
    8MOL0     C 1031  10.996   6.180   0.630 -0.1661 -0.1768  1.2202
    8MOL0     C 1032  11.451   6.567   0.261 -0.0063  0.0733  0.2286
    8MOL0     C 1033  11.500   6.690   0.207  0.3212 -0.1687 -0.0553
    8MOL0     C 1034  11.645   6.708   0.153  0.7110 -0.2207  0.0063
    8MOL0     H 1035  11.281   6.984  -0.177  4.5536 -2.3986 -1.5158
    8MOL0     H 1036  11.259   7.171  -0.332  0.3359  0.3809  0.2285
    8MOL0     H 1037  11.265   7.370  -0.447 -0.0220  0.0356  3.0082
    8MOL0     H 1038  11.433   7.330  -0.500 -0.2121 -0.2291 -0.6484
    8MOL0     H 1039  11.457   7.604  -0.470  0.5126 -1.7607  2.3318
    8MOL0     H 1040  11.390   7.537  -0.615  2.4543  2.2650  0.5335
    8MOL0     H 1041  11.228   7.701  -0.548  3.5309 -0.3745 -1.8531
    8MOL0     H 1042  11.153   7.557  -0.497  1.4560 -0.8376 -2.6453
    8MOL0     H 1043  11.214   7.596  -0.252 -1.1265  0.7295  0.1302
    8MOL0     H 1044  11.333   7.718  -0.316 -0.5662  1.7878  1.9517
    8MOL0     H 1045  11.029   7.728  -0.339  1.6326 -2.4023 -0.9172
    8MOL0     H 1046  11.132   7.854  -0.401 -3.4487 -0.3805 -1.0874
    8MOL0     H 1047  10.999   7.840  -0.137  0.3060  0.3605  0.4051
    8MOL0     H 1048  11.171   7.815  -0.108 -2.2647  0.3496  2.5968
    8MOL0     H 1049  11.018   8.049  -0.232  1.2844  0.6006 -1.6055
    8MOL0     H 1050  11.179   8.039  -0.275  0.5748 -1.5821 -0.6797
    8MOL0     H 1051  11.048   8.050  -0.016 -1.1475 -0.5547 -2.1049
    8MOL0     H 1052  11.232   8.051  -0.031 -1.1933 -1.7215  0.4371
    8MOL0     H 1053  11.338   8.274  -0.056  0.4356  0.6631  1.4020
    8MOL0     H 1054  11.379   8.520  -0.067  0.3324 -0.8210  0.0114
    8MOL0     H 1055  11.277   8.606   0.051 -3.3304  1.4935 -1.7945
    8MOL0     H 1056  11.149   8.692  -0.164  0.6396  2.2201  1.7775
    8MOL0     H 1057  11.282   8.780  -0.114 -0.0377  1.1461  0.1614
    8MOL0     H 1058  11.271   8.558  -0.333 -0.8334 -0.2405 -0.3788
    8MOL0     H 1059  11.304   8.717  -0.368  0.1932 -0.7775 -1.2484
    8MOL0     H 1060  11.514   8.716  -0.222 -0.6171  0.9426  0.5343
    8MOL0     H 1061  11.505   8.537  -0.231 -2.8862 -0.7421  1.0165
    8MOL0     H 1062  11.654   8.497  -0.602 -0.4331 -3.0280  1.0867
    8MOL0     H 1063  11.991   8.436  -0.702  0.3348 -1.5172  1.6929
    8MOL0     H 1064  11.821   8.450  -0.761  1.5589 -1.9047 -1.4749
    8MOL0     H 1065  11.888   8.309  -0.666  2.8127 -0.4864  2.6013
    8MOL0     H 1066  12.186   8.232  -0.726 -1.1665 -0.9057  0.4200
    8MOL0     H 1067  12.387   8.107  -0.782 -3.0866  1.1998  0.0033
    8MOL0     H 1068  12.714   7.907  -0.551 -0.3918 -1.6448  1.2594
    8MOL0     H 1069  12.634   7.997  -0.426 -2.0547 -0.9558  0.2833
    8MOL0     H 1070  12.561   7.751  -0.406  0.0323 -0.0604 -0.4288
    8MOL0     H 1071  12.436   7.873  -0.428 -0.2537 -0.1152  1.7898
    8MOL0     H 1072  12.418   7.807  -0.657  1.8255  0.7461 -0.2437
    8MOL0     H 1073  12.374   7.675  -0.549 -0.5850  0.3821 -0.2344
    8MOL0     H 1074  12.613   7.733  -0.722  1.1641  0.3678  0.5367
    8MOL0     H 1075  12.502   7.602  -0.744 -0.4351  1.7467 -1.6177
    8MOL0     H 1076  12.709   7.612  -0.510 -0.5822  1.2362 -0.2108
    8MOL0     H 1077  12.589   7.489  -0.550 -1.2874 -0.5250 -1.7042
    8MOL0     H 1078  12.765   7.575  -0.781 -2.7724 -2.0079 -2.7811
    8MOL0     H 1079  12.675   7.430  -0.751  1.6491  1.6042 -4.2380
    8MOL0     H 1080  12.825   7.364  -0.569 -4.4536  0.4503 -0.7543
    8MOL0     H 1081  12.923   7.508  -0.597 -2.6252  1.8281 -0.9594
    8MOL0     H 1082  13.038   7.354  -0.747 -0.6271  1.4929  2.2104
    8MOL0     H 1083  12.915   7.432  -0.846  0.3384  0.5324  0.1500
    8MOL0     H 1084  12.485   8.107  -0.350 -0.2542  0.7317  0.5658
    8MOL0     H 1085  12.271   8.249  -0.320 -1.5686  2.2007 -1.6787
    8MOL0     H 1086  11.951   8.553  -0.222 -2.7586  0.4953  1.3387
    8MOL0     H 1087  11.730   8.669  -0.229 -0.2887  0.2928 -0.4689
    8MOL0     H 1088  11.487   7.419  -0.084 -0.5123  0.1894  0.1921
    8MOL0     H 1089  11.510   7.218   0.097 -0.9404 -2.2090  0.5720
    8MOL0     H 1090  11.204   6.854   0.220 -0.8845 -1.5768 -2.9945
    8MOL0     H 1091  11.143   6.661   0.358 -0.6061 -0.9336 -0.4068
    8MOL0     H 1092  11.350   6.336   0.229  3.9041 -1.1867  0.4141
    8MOL0     H 1093  11.436   6.295   0.377 -1.5970 -3.0761  1.1511
    8MOL0     H 1094  11.260   6.156   0.457 -2.8073  1.9665 -0.1052
    8MOL0     H 1095  11.297   6.106   0.295  0.2654 -0.4615  0.0417
    8MOL0     H 1096  11.131   6.236   0.198 -2.9824 -1.4533 -0.8241
    8MOL0     H 1097  11.076   6.095   0.290  2.1059 -0.2003  2.4627
    8MOL0     H 1098  10.910   6.283   0.333  0.1083  2.1898  0.8022
    8MOL0     H 1099  11.050   6.383   0.376  0.7099 -0.3306 -1.5312
    8MOL0     H 1100  11.019   6.143   0.728  3.8609 -0.4931  0.3532
    8MOL0     H 1101  11.523   6.486   0.261 -0.9878 -0.8223  0.6287
    8MOL0     H 1102  11.659   6.756   0.056  2.2203 -1.7612 -0.5869
    8MOL0     H 1103  11.704   6.774   0.217 -1.0585  3.8702 -2.1679
    8MOL0     H 1104  11.695   6.611   0.148  3.8589  1.1466  1.7811
    9MOL0     O 1105   9.620   5.551   4.535  0.0919  0.2818  0.7447
    9MOL0     C 1106   9.704   5.638   4.524 -0.2920  0.6063  0.5668
    9MOL0     O 1107   9.810   5.643   4.436 -1.1400 -0.0099  0.6578
    9MOL0     C 1108   9.858   5.525   4.379  0.2424 -0.5976 -0.0021
    9MOL0     C 1109  10.002   5.510   4.374 -0.3620  0.3991 -0.3211
    9MOL0     C 1110  10.061   5.408   4.295  0.9014  0.6205 -0.4737
    9MOL0     C 1111   9.986   5.303   4.232  0.4777  0.1620 -0.1868
    9MOL0     O 1112  10.048   5.194   4.160 -0.4996 -0.3777  0.4938
    9MOL0     C 1113  10.191   5.179   4.150 -0.4930 -0.0252 -0.1933
    9MOL0     C 1114  10.240   5.124   4.278 -0.1458  0.7272 -0.2826
    9MOL0     C 1115  10.368   5.041   4.259  0.5311 -0.1552  0.0292
    9MOL0     C 1116  10.495   5.125   4.248  0.4161  0.6091  1.6692
    9MOL0     C 1117  10.608   5.027   4.217  0.0810 -0.5405 -0.3420
    9MOL0     C 1118  10.730   5.108   4.229 -0.9029 -0.7293 -0.5196
    9MOL0     C 1119  10.860   5.022   4.199 -0.0757  0.8296  0.1041
    9MOL0     C 1120  10.941   4.979   4.325  0.1221  0.4917 -0.2303
    9MOL0     N 1121  10.864   4.885   4.416 -0.1008 -0.0074  0.1778
    9MOL0     C 1122  10.866   4.756   4.396  0.3031  0.5984 -0.8172
    9MOL0     C 1123  10.783   4.708   4.496  0.4295  0.2628  0.5583
    9MOL0     C 1124  10.752   4.563   4.522  0.3851  0.3677  0.2113
    9MOL0     C 1125  10.837   4.553   4.649 -0.4151  0.4027  0.4981
    9MOL0     C 1126  10.822   4.409   4.709  0.1960  0.2490 -0.1946
    9MOL0     C 1127  10.887   4.303   4.622 -0.3048 -0.4915 -0.5671
    9MOL0     O 1128  10.887   4.173   4.691  0.5369  0.1665  0.4115
    9MOL0     C 1129  10.783   4.083   4.666 -0.0677 -0.3051  0.0687
    9MOL0     C 1130  10.800   3.948   4.699  0.3891  0.6964  0.3669
    9MOL0     C 1131  10.719   3.845   4.658  0.7593  0.5503  0.0382
    9MOL0     C 1132  10.756   3.705   4.701  0.5483 -1.1851  0.4250
    9MOL0     C 1133  10.599   3.875   4.592  0.2527  0.2606 -0.3307
    9MOL0     C 1134  10.496   3.770   4.561  0.1311 -0.1974  0.9544
    9MOL0     O 1135  10.526   3.644   4.575  0.7155  0.3050  1.2401
    9MOL0     C 1136  10.437   3.539   4.540 -0.1309  0.1903  0.2217
    9MOL0     C 1137  10.378   3.547   4.411 -0.5131 -0.2385  0.5790
    9MOL0     C 1138  10.278   3.455   4.373  0.6939 -0.0315 -0.7919
    9MOL0     C 1139  10.248   3.337   4.449  0.9996  0.5694  0.4382
    9MOL0     O 1140  10.154   3.253   4.399  0.2707 -0.3062 -0.0680
    9MOL0     C 1141  10.060   3.198   4.495 -0.3207  0.2574  0.4747
    9MOL0     C 1142   9.983   3.070   4.449 -0.6588  0.2415 -0.8592
    9MOL0     C 1143  10.037   2.938   4.500 -0.0184  0.6581  0.1581
    9MOL0     C 1144  10.194   2.926   4.503  0.4206  0.6980 -0.4871
    9MOL0     C 1145  10.242   2.782   4.558 -0.1015 -0.4036 -0.0675
    9MOL0     C 1146  10.229   2.668   4.458 -0.0216  0.2030  0.9412
    9MOL0     C 1147  10.238   2.535   4.532  0.0470 -0.5695  0.2295
    9MOL0     C 1148  10.222   2.414   4.436 -0.5118  0.1879  0.3527
    9MOL0    Cl 1149  10.054   2.419   4.363  0.3050  0.1199  0.0096
    9MOL0     C 1150  10.327   3.323   4.568  1.1304 -0.1943 -0.1611
    9MOL0     C 1151  10.407   3.427   4.616 -0.0749  0.3540 -0.7616
    9MOL0     O 1152  10.386   3.815   4.525  0.5711 -0.3026 -0.6836
    9MOL0     C 1153  10.571   4.011   4.558  0.4384  0.1769  0.2942
    9MOL0     C 1154  10.666   4.112   4.598  0.1070  0.3915 -0.3548
    9MOL0     N 1155  10.729   4.810   4.569  0.0036 -1.3494 -1.7936
    9MOL0     N 1156  10.775   4.922   4.514  0.3367  0.1170 -1.0269
    9MOL0     C 1157   9.845   5.308   4.256 -0.0503 -0.3447  0.4097
    9MOL0     C 1158   9.781   5.420   4.321  0.3954 -0.5290 -0.6631
    9MOL0     C 1159   9.676   5.767   4.607 -0.0051  0.6269  0.9616
    9MOL0     C 1160   9.758   5.779   4.723 -0.0103 -0.6077  0.4749
    9MOL0     C 1161   9.733   5.887   4.806  0.4944 -0.6941 -0.1224
    9MOL0     C 1162   9.637   5.984   4.770 -0.8646 -0.3033  0.0906
    9MOL0     O 1163   9.626   6.093   4.844 -0.0191  0.2599  0.7636
    9MOL0     C 1164   9.588   6.066   4.980  1.2189  0.3032  0.0402
    9MOL0     C 1165   9.653   6.153   5.082  0.0951  0.2300 -0.2365
    9MOL0     C 1166   9.802   6.116   5.089  0.0742 -0.1748  0.1270
    9MOL0     C 1167   9.872   6.236   5.146 -0.2723 -0.1075  0.1383
    9MOL0     C 1168   9.842   6.254   5.286  1.4969 -0.2255 -1.1930
    9MOL0     C 1169   9.813   6.257   5.404  0.3355 -0.4841  0.0412
    9MOL0     C 1170   9.561   5.972   4.652  0.2565  0.4957  0.0621
    9MOL0     C 1171   9.581   5.859   4.568  0.4778 -0.1953  0.5542
    9MOL0     C 1172   9.491   5.851   4.459  0.7623 -0.3844  0.8198
    9MOL0     H 1173  10.071   5.580   4.420 -1.3995  0.6598  0.9136
    9MOL0     H 1174  10.168   5.412   4.275  0.7918 -2.3689 -2.1832
    9MOL0     H 1175  10.237   5.274   4.122  3.7433 -1.8520 -0.1039
    9MOL0     H 1176  10.213   5.110   4.069  1.6875 -0.4445  0.6988
    9MOL0     H 1177  10.251   5.207   4.349 -0.4969 -0.1319  0.8052
    9MOL0     H 1178  10.166   5.064   4.331  2.5894  0.0758  3.1535
    9MOL0     H 1179  10.372   4.966   4.338 -3.2480  1.3059  1.8636
    9MOL0     H 1180  10.363   4.987   4.164 -1.8462  0.0914 -0.0465
    9MOL0     H 1181  10.479   5.203   4.174 -1.0870 -1.0820  0.1041
    9MOL0     H 1182  10.516   5.167   4.347  0.2720 -0.3543  2.1224
    9MOL0     H 1183  10.605   4.987   4.115  0.4063  1.3377 -1.1378
    9MOL0     H 1184  10.617   4.947   4.291  1.0488  0.0336  0.1823
    9MOL0     H 1185  10.724   5.191   4.158 -0.0964 -0.4378 -0.2611
    9MOL0     H 1186  10.736   5.139   4.333 -0.3783  0.8695 -0.9954
    9MOL0     H 1187  10.919   5.096   4.144 -1.7877  2.1309 -0.0792
    9MOL0     H 1188  10.848   4.946   4.122  3.6440 -0.5040  0.6494
    9MOL0     H 1189  11.031   4.927   4.293 -1.5604 -1.6138 -1.8075
    9MOL0     H 1190  10.968   5.071   4.378  3.9781 -2.4417  3.6379
    9MOL0     H 1191  10.906   4.693   4.317 -1.4154  0.6179 -1.7380
    9MOL0     H 1192  10.781   4.491   4.445  1.2382  0.0171  0.8370
    9MOL0     H 1193  10.646   4.543   4.541 -0.0991  2.0748 -0.5741
    9MOL0     H 1194  10.940   4.585   4.633 -1.3143  3.1348 -0.3140
    9MOL0     H 1195  10.799   4.630   4.716  1.5875 -1.2265  3.7463
    9MOL0     H 1196  10.865   4.403   4.810  1.4618 -0.3571 -0.7498
    9MOL0     H 1197  10.715   4.395   4.722  0.0552  0.7296 -0.7932
    9MOL0     H 1198  10.844   4.297   4.521  2.9923 -1.8760 -2.0092
    9MOL0     H 1199  10.992   4.331   4.609 -0.6988  2.0966  1.1047
    9MOL0     H 1200  10.895   3.933   4.750  0.1837  1.8461  1.1143
    9MOL0     H 1201  10.667   3.663   4.750 -1.4005 -0.7985 -2.5695
    9MOL0     H 1202  10.844   3.717   4.766  1.1605  2.2947 -0.8404
    9MOL0     H 1203  10.787   3.646   4.615  1.5020  0.4331 -0.3872
    9MOL0     H 1204  10.400   3.633   4.349 -0.3715 -1.6949 -1.4638
    9MOL0     H 1205  10.219   3.483   4.287  3.4533  4.1140 -1.6149
    9MOL0     H 1206  10.114   3.183   4.589  1.6754 -1.7392 -0.8911
    9MOL0     H 1207   9.977   3.269   4.492  0.4359  1.1208 -1.1786
    9MOL0     H 1208   9.881   3.080   4.488 -2.0527  2.4958 -4.5794
    9MOL0     H 1209   9.974   3.062   4.340 -1.2166 -1.4975 -0.7212
    9MOL0     H 1210   9.989   2.859   4.441  0.2938  0.3678  0.2879
    9MOL0     H 1211   9.990   2.926   4.599  0.9561 -0.7968  0.4757
    9MOL0     H 1212  10.231   3.001   4.573 -1.0016 -0.0811  1.1907
    9MOL0     H 1213  10.236   2.929   4.402  1.5095 -2.3967 -0.2496
    9MOL0     H 1214  10.344   2.778   4.598  0.1974 -0.6925 -0.8418
    9MOL0     H 1215  10.182   2.762   4.648 -1.7514  0.4682 -0.9335
    9MOL0     H 1216  10.295   2.673   4.372 -2.1507 -2.2878 -1.0209
    9MOL0     H 1217  10.132   2.673   4.408  0.3258  1.0333  0.3408
    9MOL0     H 1218  10.168   2.537   4.615  1.1832 -0.7669  1.2210
    9MOL0     H 1219  10.336   2.527   4.581 -0.6199  1.8004  2.1461
    9MOL0     H 1220  10.239   2.322   4.493  0.0017 -1.1632 -1.8861
    9MOL0     H 1221  10.299   2.426   4.360  1.6195  2.0081  2.6075
    9MOL0     H 1222  10.314   3.228   4.618  0.0465  0.7682  1.5307
    9MOL0     H 1223  10.463   3.426   4.709 -2.1404  1.2048  0.5537
    9MOL0     H 1224  10.481   4.031   4.501  0.2056  0.7400  0.8445
    9MOL0     H 1225  10.639   4.211   4.565  0.5473  0.5749 -0.1793
    9MOL0     H 1226   9.778   5.229   4.223 -0.6773 -0.6733  2.3063
    9MOL0     H 1227   9.673   5.425   4.319  0.3885  0.4462  0.9920
    9MOL0     H 1228   9.832   5.705   4.751 -0.2190 -1.0490 -0.1259
    9MOL0     H 1229   9.796   5.904   4.892  1.0184  3.0933 -1.0777
    9MOL0     H 1230   9.482   6.094   4.988  0.6122 -1.9802  0.9112
    9MOL0     H 1231   9.602   5.962   5.011 -1.7670 -0.1299  0.2390
    9MOL0     H 1232   9.607   6.145   5.182 -1.5420 -0.4599 -1.0058
    9MOL0     H 1233   9.636   6.258   5.056 -2.4790  0.2794  1.2863
    9MOL0     H 1234   9.812   6.023   5.146  0.6057 -1.4861 -1.9932
    9MOL0     H 1235   9.836   6.094   4.987 -2.3699  1.4905 -1.1498
    9MOL0     H 1236   9.872   6.331   5.092 -0.8627  0.1316  0.5472
    9MOL0     H 1237   9.978   6.211   5.135 -0.4330 -0.3999 -0.9447
    9MOL0     H 1238   9.785   6.275   5.505 -0.5567  2.1187 -0.5991
    9MOL0     H 1239   9.501   6.055   4.617 -0.6351 -1.6328 -4.0836
    9MOL0     H 1240   9.520   5.772   4.389  1.3127  0.0215  0.5831
    9MOL0     H 1241   9.390   5.832   4.495  0.5164 -0.7049 -0.0257
    9MOL0     H 1242   9.490   5.939   4.394 -1.4038 -0.2192  1.0190
   10MOL0     O 1243   8.456   0.814   9.235 -0.2599 -0.3913 -0.7463
   10MOL0     C 1244   8.391   0.854   9.141  0.3217 -0.1027  0.6519
   10MOL0     O 1245   8.252   0.861   9.132 -0.5725  0.6010 -0.1520
   10MOL0     C 1246   8.176   0.815   9.236 -0.5609  0.5826 -0.7147
   10MOL0     C 1247   8.129   0.907   9.338 -0.2635  0.4831 -0.0917
   10MOL0     C 1248   8.038   0.860   9.432  0.1554  0.2487 -0.1430
   10MOL0     C 1249   7.984   0.731   9.415  0.3474 -0.8017  0.1133
   10MOL0     O 1250   7.891   0.681   9.506  0.6750  0.0430  0.1070
   10MOL0     C 1251   7.763   0.663   9.444 -1.0765 -0.2338  0.5811
   10MOL0     C 1252   7.690   0.573   9.533  0.0678 -0.2025  0.9163
   10MOL0     C 1253   7.541   0.578   9.493  0.5796  0.1166  0.1507
   10MOL0     C 1254   7.457   0.504   9.597  0.4777 -0.1207  0.1629
   10MOL0     C 1255   7.301   0.536   9.583  1.1241 -1.0959  0.2580
   10MOL0     C 1256   7.241   0.522   9.448 -0.5157 -0.0012  0.8948
   10MOL0     C 1257   7.272   0.384   9.380 -1.1759 -0.7096  1.0411
   10MOL0     C 1258   7.177   0.265   9.406  0.6493  0.3838  0.5222
   10MOL0     N 1259   7.037   0.295   9.389 -0.1519 -0.3664 -0.1883
   10MOL0     C 1260   6.972   0.303   9.271 -0.9490  0.1740 -0.1895
   10MOL0     C 1261   6.851   0.367   9.294  0.0431 -0.5229 -0.6322
   10MOL0     C 1262   6.744   0.409   9.197  0.4119 -0.1452  0.0146
   10MOL0     C 1263   6.802   0.504   9.100  0.5948  0.3627  0.2709
   10MOL0     C 1264   6.710   0.623   9.098 -0.0702 -0.5032 -0.5828
   10MOL0     C 1265   6.723   0.717   8.976 -0.5478  0.8178  0.4367
   10MOL0     O 1266   6.691   0.644   8.855 -0.1792 -0.2308 -0.7029
   10MOL0     C 1267   6.710   0.701   8.721  0.1792  0.4067 -0.5539
   10MOL0     C 1268   6.756   0.832   8.699  0.5317  0.3182 -0.8099
   10MOL0     C 1269   6.788   0.887   8.575  0.0449  0.5733  0.3878
   10MOL0     C 1270   6.852   1.017   8.562  0.2113  0.1670 -0.6720
   10MOL0     C 1271   6.759   0.800   8.457  0.0598 -0.6052 -0.3725
   10MOL0     C 1272   6.787   0.836   8.323 -0.3062  0.6614  0.1664
   10MOL0     O 1273   6.724   0.957   8.281 -0.0085 -0.0689 -0.5654
   10MOL0     C 1274   6.739   0.995   8.152 -1.3052  0.4059 -0.7115
   10MOL0     C 1275   6.631   0.978   8.072 -0.7676 -0.4983 -0.1314
   10MOL0     C 1276   6.652   1.007   7.932 -0.5530  0.2139 -0.3696
   10MOL0     C 1277   6.771   1.049   7.880 -0.7200  0.2425  0.4860
   10MOL0     O 1278   6.785   1.063   7.736 -0.4542  0.0127  0.2935
   10MOL0     C 1279   6.902   1.121   7.673  0.0721  0.9231  0.6108
   10MOL0     C 1280   6.897   1.105   7.524 -0.0120 -0.2330 -0.4360
   10MOL0     C 1281   7.011   1.177   7.462  0.5191  1.2472 -0.1539
   10MOL0     C 1282   6.987   1.158   7.312  0.6489 -0.2982 -0.6137
   10MOL0     C 1283   7.100   1.220   7.222 -0.7345 -0.1995  0.5954
   10MOL0     C 1284   7.060   1.211   7.069  0.1341 -1.2185 -0.1104
   10MOL0     C 1285   7.172   1.218   6.965  0.7555  0.3612  0.2124
   10MOL0     C 1286   7.112   1.180   6.825  0.5265  0.1352 -1.5709
   10MOL0    Cl 1287   7.103   0.999   6.832 -0.1056 -0.1701 -0.5673
   10MOL0     C 1288   6.881   1.058   7.966  0.3988 -0.2901  1.1364
   10MOL0     C 1289   6.864   1.031   8.107  0.0217 -0.6002 -0.1777
   10MOL0     O 1290   6.867   0.765   8.254  0.2006 -0.4374 -0.2961
   10MOL0     C 1291   6.689   0.679   8.482  0.4709  1.5095 -0.0514
   10MOL0     C 1292   6.659   0.633   8.609 -0.4115  0.4489 -0.4680
   10MOL0     N 1293   6.857   0.404   9.427 -0.0179  0.2019 -0.1944
   10MOL0     N 1294   6.961   0.354   9.488 -0.1628  0.1938  0.2912
   10MOL0     C 1295   8.036   0.637   9.327  0.1950  0.5246  0.8916
   10MOL0     C 1296   8.142   0.682   9.238 -0.3548 -0.4729  1.0220
   10MOL0     C 1297   8.461   0.921   9.025 -0.7194  0.4418  0.0928
   10MOL0     C 1298   8.552   0.847   8.945  0.4487 -0.1625  0.1099
   10MOL0     C 1299   8.640   0.906   8.846 -1.1570 -0.0083  0.1324
   10MOL0     C 1300   8.617   1.044   8.820 -0.3175  0.0028  0.4165
   10MOL0     O 1301   8.683   1.100   8.705 -0.0143 -0.0627 -0.3846
   10MOL0     C 1302   8.823   1.087   8.688  0.3180 -0.2407  0.2653
   10MOL0     C 1303   8.900   1.142   8.819  0.3401  0.7411 -0.5896
   10MOL0     C 1304   8.867   1.290   8.843  0.8404  0.9407 -0.5215
   10MOL0     C 1305   8.970   1.361   8.937  0.4160  0.6503  0.2141
   10MOL0     C 1306   8.917   1.493   8.957  0.8167 -0.3963  0.1174
   10MOL0     C 1307   8.863   1.601   8.981 -0.5043 -0.0211 -1.0608
   10MOL0     C 1308   8.510   1.109   8.884 -1.2424  0.4294  0.3596
   10MOL0     C 1309   8.444   1.057   8.995 -0.2103 -0.5600 -0.6339
   10MOL0     C 1310   8.338   1.149   9.058 -1.3861 -0.0753 -0.1425
   10MOL0     H 1311   8.149   1.013   9.323 -0.7039  0.3112 -2.3469
   10MOL0     H 1312   8.004   0.933   9.505  3.7057  3.5122 -1.3868
   10MOL0     H 1313   7.771   0.615   9.346 -0.9810 -3.4997  2.0550
   10MOL0     H 1314   7.712   0.759   9.439 -3.1273 -1.2268  1.1777
   10MOL0     H 1315   7.732   0.473   9.524  1.6091  0.4415  0.5069
   10MOL0     H 1316   7.700   0.597   9.639  2.0355  1.2410  0.4724
   10MOL0     H 1317   7.497   0.677   9.483  0.1204 -0.1082 -0.1082
   10MOL0     H 1318   7.535   0.530   9.395  3.1186  0.6318 -0.3130
   10MOL0     H 1319   7.487   0.399   9.592  1.7368  0.2470 -0.1347
   10MOL0     H 1320   7.487   0.520   9.701  2.9009 -1.0969 -0.3180
   10MOL0     H 1321   7.287   0.641   9.611 -2.1138 -1.2901 -0.3053
   10MOL0     H 1322   7.246   0.483   9.661 -0.5687  0.0345 -0.1262
   10MOL0     H 1323   7.133   0.543   9.450 -0.0983  2.5678  0.2265
   10MOL0     H 1324   7.284   0.604   9.391  1.2895  0.7083  3.1174
   10MOL0     H 1325   7.373   0.351   9.406 -1.6056 -0.9928  2.4839
   10MOL0     H 1326   7.273   0.403   9.273 -0.1581 -0.7013  1.0478
   10MOL0     H 1327   7.190   0.192   9.326  1.1960  1.7010 -0.6332
   10MOL0     H 1328   7.207   0.223   9.503 -0.9377  1.6731  1.6302
   10MOL0     H 1329   7.012   0.260   9.180  0.8819 -2.3410  1.6342
   10MOL0     H 1330   6.658   0.450   9.250  1.7458 -0.0825  2.2215
   10MOL0     H 1331   6.699   0.329   9.137 -0.8227 -0.4844  1.3358
   10MOL0     H 1332   6.906   0.527   9.122  0.8733 -1.4512  1.0480
   10MOL0     H 1333   6.791   0.451   9.004 -2.1537 -1.9865  1.7026
   10MOL0     H 1334   6.607   0.587   9.113  0.1021 -0.4333  0.9769
   10MOL0     H 1335   6.734   0.686   9.184 -1.2199  0.4645 -0.9439
   10MOL0     H 1336   6.648   0.797   8.983 -2.9241 -1.2722  0.7450
   10MOL0     H 1337   6.824   0.755   8.992 -0.3641  0.4641  0.1296
   10MOL0     H 1338   6.778   0.884   8.792  1.2225 -1.3192 -0.0227
   10MOL0     H 1339   6.814   1.083   8.483 -1.1479  0.4092  0.1567
   10MOL0     H 1340   6.961   1.014   8.549  0.4448 -0.9413  1.2455
   10MOL0     H 1341   6.837   1.075   8.653  1.5120  2.0583 -1.6135
   10MOL0     H 1342   6.533   0.959   8.116  0.6643  2.2773  4.9898
   10MOL0     H 1343   6.569   0.987   7.864 -0.3163  5.1844 -2.6034
   10MOL0     H 1344   6.916   1.227   7.697 -0.8631  2.0519 -3.2088
   10MOL0     H 1345   6.998   1.083   7.710 -0.2455 -1.2293 -0.5866
   10MOL0     H 1346   6.902   0.998   7.504 -0.9508 -0.4961  0.6465
   10MOL0     H 1347   6.797   1.137   7.492  0.0669 -1.0090 -1.5239
   10MOL0     H 1348   7.096   1.125   7.508 -1.8591 -3.6292 -0.6927
   10MOL0     H 1349   7.016   1.280   7.499  2.5977  1.1868 -0.1307
   10MOL0     H 1350   6.899   1.211   7.276  1.2084  1.5503  0.6185
   10MOL0     H 1351   6.967   1.054   7.283 -2.8004  0.7320 -2.4303
   10MOL0     H 1352   7.127   1.324   7.246  3.0069 -0.7938 -0.4122
   10MOL0     H 1353   7.196   1.170   7.235  0.5988  2.1860  0.5016
   10MOL0     H 1354   7.004   1.302   7.047  1.2774 -0.3282  0.5350
   10MOL0     H 1355   6.999   1.125   7.039  0.3332 -1.3115 -0.2547
   10MOL0     H 1356   7.256   1.150   6.980  0.5826 -0.0921 -0.8101
   10MOL0     H 1357   7.213   1.320   6.963 -0.4458  0.8586 -0.7468
   10MOL0     H 1358   7.181   1.200   6.743  1.2110 -0.6267 -1.1856
   10MOL0     H 1359   7.011   1.220   6.813 -0.0787 -1.3071 -1.5238
   10MOL0     H 1360   6.979   1.083   7.928  1.0180  0.5258  3.1643
   10MOL0     H 1361   6.946   1.033   8.178 -0.0178 -1.6188 -0.0953
   10MOL0     H 1362   6.644   0.628   8.398  0.2170 -1.3434  1.6734
   10MOL0     H 1363   6.602   0.541   8.617  1.1480 -0.4146  1.3180
   10MOL0     H 1364   8.001   0.535   9.310 -1.0626  1.2836 -1.5284
   10MOL0     H 1365   8.182   0.620   9.159  0.0941  1.1572 -0.0826
   10MOL0     H 1366   8.546   0.739   8.950 -0.9613 -0.1353 -0.5300
   10MOL0     H 1367   8.723   0.857   8.798 -0.6632  0.2295  0.7233
   10MOL0     H 1368   8.854   0.989   8.651  1.2765  0.8244 -1.9387
   10MOL0     H 1369   8.845   1.161   8.610 -3.1074 -0.6338 -1.2654
   10MOL0     H 1370   9.008   1.143   8.803  0.7407  1.0754  1.7118
   10MOL0     H 1371   8.877   1.078   8.905 -1.5149  2.3361  0.1792
   10MOL0     H 1372   8.877   1.324   8.740  0.6356 -2.9517 -2.0078
   10MOL0     H 1373   8.766   1.303   8.884 -0.7656 -1.9614 -3.0941
   10MOL0     H 1374   9.062   1.374   8.877  0.8979 -1.0751  0.5409
   10MOL0     H 1375   9.001   1.312   9.029  1.3625  1.8826  0.5825
   10MOL0     H 1376   8.813   1.695   8.997  1.1240  0.4970  1.7124
   10MOL0     H 1377   8.494   1.211   8.851 -1.5770  0.3941  0.4082
   10MOL0     H 1378   8.382   1.188   9.151 -1.1868 -1.7116  0.4861
   10MOL0     H 1379   8.314   1.225   8.984 -0.6204 -2.8017 -3.4172
   10MOL0     H 1380   8.244   1.098   9.080 -0.4790 -1.2260  1.3044
   11MOL0     O 1381   1.014   8.822   8.403 -0.6114 -0.1377  0.9511
   11MOL0     C 1382   0.985   8.771   8.510  0.2580  1.3500  1.6502
   11MOL0     O 1383   0.961   8.836   8.623  0.7636  0.2078  1.0771
   11MOL0     C 1384   0.919   8.968   8.634  0.4969 -0.7080  0.3824
   11MOL0     C 1385   0.940   9.064   8.534  0.5937 -0.3550 -0.0204
   11MOL0     C 1386   0.866   9.186   8.539  0.5505  0.1709  0.6486
   11MOL0     C 1387   0.790   9.218   8.646 -0.2577 -0.2596 -0.1763
   11MOL0     O 1388   0.712   9.326   8.677  0.0131  0.2326  0.7814
   11MOL0     C 1389   0.669   9.396   8.566 -1.1198 -0.3687 -0.4627
   11MOL0     C 1390   0.767   9.510   8.524 -0.6077 -0.6206 -0.8307
   11MOL0     C 1391   0.823   9.587   8.642 -0.4746 -0.0126 -0.8082
   11MOL0     C 1392   0.896   9.710   8.590 -0.5570 -0.2100 -1.1674
   11MOL0     C 1393   0.925   9.811   8.700 -0.0247 -0.4810  1.1346
   11MOL0     C 1394   1.016   9.748   8.798 -0.1325 -0.7375 -0.2206
   11MOL0     C 1395   1.075   9.860   8.877 -1.3048  0.1361  1.0023
   11MOL0     C 1396   0.992   9.885   8.994  0.3987 -0.1492  0.3062
   11MOL0     N 1397   1.052   9.941   9.113 -0.9210 -0.0004 -0.4617
   11MOL0     C 1398   1.059  10.084   9.144  0.3264  0.2883 -0.8333
   11MOL0     C 1399   1.116  10.089   9.265  0.0175 -1.0286 -0.8007
   11MOL0     C 1400   1.126  10.207   9.366 -1.2403  0.5773 -0.8916
   11MOL0     C 1401   1.043  10.179   9.488  0.1860  0.6555  0.3355
   11MOL0     C 1402   1.055  10.302   9.575 -0.3621  0.4296 -0.0254
   11MOL0     C 1403   0.996  10.301   9.719  0.6790 -1.3533 -0.5448
   11MOL0     O 1404   0.997  10.443   9.758 -0.0803  0.1793 -0.5028
   11MOL0     C 1405   0.988  10.451   9.895 -0.1602 -0.3222  0.1739
   11MOL0     C 1406   0.861  10.479   9.948 -0.3800 -0.0040  0.4941
   11MOL0     C 1407   0.838  10.486  10.082 -0.1908 -0.5908 -0.7935
   11MOL0     C 1408   0.696  10.544  10.131  0.5704  0.1838  0.3506
   11MOL0     C 1409   0.950  10.473  10.178  0.0566  0.2507  0.9751
   11MOL0     C 1410   0.937  10.476  10.325 -0.8692 -0.9610 -0.4593
   11MOL0     O 1411   1.044  10.424  10.401  0.6343 -0.2351  0.8663
   11MOL0     C 1412   1.051  10.429  10.540  0.3171 -0.6659  0.3197
   11MOL0     C 1413   0.982  10.340  10.627 -0.0654  0.0636 -0.9717
   11MOL0     C 1414   1.012  10.347  10.766  0.6111  0.1154  0.1892
   11MOL0     C 1415   1.097  10.441  10.818  0.3930  0.4596 -1.0591
   11MOL0     O 1416   1.126  10.462  10.952 -0.0720 -0.0337 -0.4486
   11MOL0     C 1417   1.068  10.382  11.061  0.9918 -0.0885 -0.2804
   11MOL0     C 1418   1.142  10.261  11.099 -0.2694 -0.5818 -1.3445
   11MOL0     C 1419   1.287  10.291  11.099  0.0045  0.0685 -0.1309
   11MOL0     C 1420   1.380  10.178  11.146 -1.3188 -0.0337  0.6649
   11MOL0     C 1421   1.332  10.093  11.247  0.7668  0.0346  0.3217
   11MOL0     C 1422   1.429   9.983  11.298 -0.3261  0.6568  0.6682
   11MOL0     C 1423   1.337   9.872  11.355  0.3932 -0.8682 -0.9400
   11MOL0     C 1424   1.429   9.770  11.410 -0.3625  0.8006  0.1430
   11MOL0    Cl 1425   1.340   9.619  11.474 -0.0461 -0.2447 -0.5551
   11MOL0     C 1426   1.157  10.537  10.734  0.5212 -0.4795 -0.2320
   11MOL0     C 1427   1.145  10.527  10.594 -0.3798 -0.1610 -0.2015
   11MOL0     O 1428   0.849  10.540  10.374 -0.6517 -0.6946 -0.4549
   11MOL0     C 1429   1.075  10.444  10.123 -0.7807  1.0399 -0.2916
   11MOL0     C 1430   1.098  10.427   9.983  0.0549  0.6219  0.0898
   11MOL0     N 1431   1.150   9.962   9.305  0.1417 -0.3902  0.1362
   11MOL0     N 1432   1.111   9.873   9.215 -0.7885 -0.4227 -0.7032
   11MOL0     C 1433   0.786   9.130   8.756 -0.1673 -0.6263  0.0295
   11MOL0     C 1434   0.856   9.014   8.752 -0.4101  0.4662 -0.2657
   11MOL0     C 1435   0.970   8.625   8.521 -1.0172  0.3633  0.0796
   11MOL0     C 1436   0.951   8.573   8.651  0.4148 -0.2618  0.0011
   11MOL0     C 1437   0.955   8.436   8.671  0.3362  1.0799 -0.1950
   11MOL0     C 1438   0.969   8.344   8.563  0.1410 -1.2548 -0.1452
   11MOL0     O 1439   0.969   8.209   8.590 -0.4259  0.0463  0.3856
   11MOL0     C 1440   0.998   8.113   8.480 -0.2978  1.1168 -0.5318
   11MOL0     C 1441   1.136   8.127   8.410  0.3478 -0.6132  0.4634
   11MOL0     C 1442   1.136   8.034   8.286 -0.8420  0.5701  0.3221
   11MOL0     C 1443   1.260   8.048   8.190  0.3731  0.6757  0.4110
   11MOL0     C 1444   1.385   8.042   8.281  0.1424 -0.0828 -0.2583
   11MOL0     C 1445   1.491   8.042   8.345  0.3878 -1.1873  0.7860
   11MOL0     C 1446   0.958   8.398   8.430  0.3626 -0.1343  0.1251
   11MOL0     C 1447   0.966   8.536   8.411  0.5038 -0.4168  0.2014
   11MOL0     C 1448   0.965   8.581   8.263  0.6296  0.2109  0.2401
   11MOL0     H 1449   1.003   9.058   8.446  1.3565  2.9034  0.1830
   11MOL0     H 1450   0.878   9.249   8.451  2.0635  0.2573  0.8999
   11MOL0     H 1451   0.570   9.432   8.594 -0.0895  1.4991  0.9630
   11MOL0     H 1452   0.662   9.328   8.480 -2.1763 -0.3006 -0.4464
   11MOL0     H 1453   0.849   9.480   8.457 -0.3604  1.0301 -1.3018
   11MOL0     H 1454   0.708   9.591   8.481  3.3816  2.4474 -1.1631
   11MOL0     H 1455   0.747   9.616   8.715 -0.9653  2.6992 -2.2342
   11MOL0     H 1456   0.899   9.524   8.688 -0.7932  0.7830  0.8928
   11MOL0     H 1457   0.993   9.682   8.548 -0.8298  0.0120 -1.9609
   11MOL0     H 1458   0.837   9.765   8.516 -2.9063 -1.5041 -0.3605
   11MOL0     H 1459   0.833   9.845   8.749  2.1455  2.5504  3.4630
   11MOL0     H 1460   0.976   9.889   8.642 -1.6125 -1.2269 -1.4697
   11MOL0     H 1461   0.961   9.677   8.862 -1.6256  1.5324  1.1547
   11MOL0     H 1462   1.100   9.691   8.756 -0.6095 -1.8262  0.2520
   11MOL0     H 1463   1.099   9.944   8.810  0.1770 -1.2239 -0.2558
   11MOL0     H 1464   1.171   9.825   8.916 -1.3316 -0.0864  0.8726
   11MOL0     H 1465   0.898   9.939   8.976  1.0008  1.4201  1.6418
   11MOL0     H 1466   0.971   9.784   9.029  0.8960 -0.8297 -1.2623
   11MOL0     H 1467   1.015  10.167   9.090  3.0985  1.5088 -1.3836
   11MOL0     H 1468   1.095  10.300   9.316  1.3963  1.4328 -1.0633
   11MOL0     H 1469   1.233  10.220   9.384 -1.0830 -2.5127  1.0797
   11MOL0     H 1470   0.935  10.165   9.476  0.4909 -0.0248 -1.9354
   11MOL0     H 1471   1.085  10.092   9.540 -0.8061  0.7476  1.3493
   11MOL0     H 1472   1.159  10.320   9.602 -0.6067 -1.9904  3.0035
   11MOL0     H 1473   0.994  10.383   9.533 -1.2282 -0.6762 -0.9865
   11MOL0     H 1474   0.892  10.268   9.716 -0.2971  1.0725 -6.2637
   11MOL0     H 1475   1.059  10.240   9.785 -0.4579  1.3081  3.3068
   11MOL0     H 1476   0.790  10.505   9.870  1.9389  0.1215 -1.6793
   11MOL0     H 1477   0.625  10.549  10.048  0.1295 -0.7919  0.6627
   11MOL0     H 1478   0.707  10.647  10.167 -3.9679  1.8080 -2.0780
   11MOL0     H 1479   0.637  10.478  10.195  1.6146 -2.5762 -1.3450
   11MOL0     H 1480   0.920  10.259  10.588 -2.1861  2.4215 -2.8501
   11MOL0     H 1481   0.954  10.281  10.830 -0.1048  0.1597 -0.3947
   11MOL0     H 1482   1.065  10.452  11.145  2.2786  0.2062 -0.4613
   11MOL0     H 1483   0.966  10.355  11.030  1.1708  0.3962 -1.3347
   11MOL0     H 1484   1.101  10.218  11.191  0.3567 -2.0158 -1.7018
   11MOL0     H 1485   1.120  10.176  11.033  2.3923 -1.0801 -1.6880
   11MOL0     H 1486   1.311  10.368  11.172  0.9792  1.2376 -1.6188
   11MOL0     H 1487   1.324  10.330  11.003  1.6681 -1.9341 -0.3778
   11MOL0     H 1488   1.465  10.224  11.197 -1.2422 -2.3291  2.8235
   11MOL0     H 1489   1.405  10.117  11.059  1.0824  0.7399  0.7424
   11MOL0     H 1490   1.311  10.168  11.324  1.4970  0.5412  0.0293
   11MOL0     H 1491   1.242  10.039  11.215 -0.8070  1.7217  1.6896
   11MOL0     H 1492   1.490  10.018  11.382  0.8205 -0.9051  0.5251
   11MOL0     H 1493   1.492   9.940  11.219 -0.5928  0.2518  0.6768
   11MOL0     H 1494   1.284   9.824  11.273  2.1235 -1.7159 -1.6077
   11MOL0     H 1495   1.278   9.915  11.437 -3.3851 -1.9655 -2.8884
   11MOL0     H 1496   1.473   9.807  11.503  2.7276 -2.1378  0.0670
   11MOL0     H 1497   1.511   9.739  11.345 -0.7512 -1.1128  0.5037
   11MOL0     H 1498   1.213  10.617  10.782 -1.5380  1.6366 -1.1739
   11MOL0     H 1499   1.192  10.592  10.521 -0.0080 -0.1465  0.0450
   11MOL0     H 1500   1.161  10.427  10.186 -1.7558 -1.3717  0.5043
   11MOL0     H 1501   1.188  10.395   9.932 -1.4947 -0.9318 -1.8645
   11MOL0     H 1502   0.717   9.156   8.836 -2.6792 -1.1182 -1.8624
   11MOL0     H 1503   0.854   8.938   8.830  0.6914 -0.4592 -1.0864
   11MOL0     H 1504   0.941   8.635   8.738 -2.7137  1.0747 -1.1861
   11MOL0     H 1505   0.918   8.398   8.766 -1.0406  0.6714 -0.8616
   11MOL0     H 1506   0.994   8.012   8.521 -0.4441  0.0774 -2.9572
   11MOL0     H 1507   0.920   8.118   8.404 -0.7839 -0.8985 -0.2198
   11MOL0     H 1508   1.211   8.106   8.486 -0.8579  0.6435  2.0667
   11MOL0     H 1509   1.150   8.231   8.378  1.6084  0.1090  3.0813
   11MOL0     H 1510   1.132   7.929   8.316  0.8601  0.7614  1.3381
   11MOL0     H 1511   1.048   8.056   8.225  0.9894 -0.2535 -2.8490
   11MOL0     H 1512   1.257   8.141   8.132 -0.6355 -0.9929 -2.4167
   11MOL0     H 1513   1.258   7.973   8.110 -0.8431  0.7701  0.3294
   11MOL0     H 1514   1.580   8.054   8.404  1.5515  0.5507 -1.1854
   11MOL0     H 1515   0.958   8.329   8.346  0.1611 -0.0189  0.0290
   11MOL0     H 1516   0.981   8.490   8.205  1.3240 -0.6128  1.6498
   11MOL0     H 1517   0.870   8.635   8.259  1.5020  2.0020  1.9948
   11MOL0     H 1518   1.044   8.653   8.240  0.2387  0.4865 -0.2567
   12MOL0     O 1519   3.938   9.638   6.325 -0.1852  0.4412 -0.0624
   12MOL0     C 1520   3.936   9.529   6.268  0.5027  0.8067  0.9947
   12MOL0     O 1521   3.950   9.413   6.332 -0.2584 -0.0888 -0.7241
   12MOL0     C 1522   3.969   9.302   6.256  0.3190 -1.2019 -0.1786
   12MOL0     C 1523   3.869   9.236   6.197  0.0502 -0.4999 -0.1195
   12MOL0     C 1524   3.888   9.118   6.122  0.0949  0.4814  0.0985
   12MOL0     C 1525   4.019   9.078   6.099 -0.5698  0.2099  0.3276
   12MOL0     O 1526   4.061   8.979   6.013  0.2304  0.4683  0.0547
   12MOL0     C 1527   3.966   8.874   5.993  0.3483  0.5155 -0.0057
   12MOL0     C 1528   4.029   8.737   5.975 -0.1970  0.8154  0.2986
   12MOL0     C 1529   4.090   8.671   6.109 -0.7248  0.7076  0.9477
   12MOL0     C 1530   4.224   8.728   6.116 -0.8239  0.3863 -0.8780
   12MOL0     C 1531   4.318   8.643   6.205 -0.2746 -0.2499  0.3295
   12MOL0     C 1532   4.432   8.726   6.274  0.5678  0.4282 -0.1812
   12MOL0     C 1533   4.403   8.744   6.417  0.4745  0.2545  0.1355
   12MOL0     C 1534   4.514   8.811   6.489  0.1200  0.0367  0.3720
   12MOL0     N 1535   4.640   8.732   6.481 -0.2026 -0.6547  0.4374
   12MOL0     C 1536   4.759   8.783   6.420  0.3683 -0.4516 -0.2474
   12MOL0     C 1537   4.845   8.684   6.455  0.6593  0.4184 -0.1880
   12MOL0     C 1538   4.994   8.669   6.438  1.1921 -0.5378 -0.0916
   12MOL0     C 1539   5.083   8.633   6.556  0.1217  0.8406  0.1959
   12MOL0     C 1540   5.228   8.594   6.508 -0.1247 -0.6246 -0.9989
   12MOL0     C 1541   5.319   8.544   6.625 -1.3910  0.1608 -0.0568
   12MOL0     O 1542   5.284   8.413   6.677 -0.0288  0.1980 -0.2068
   12MOL0     C 1543   5.304   8.298   6.600  0.2198 -0.1795 -0.0598
   12MOL0     C 1544   5.370   8.283   6.476  0.1099 -0.3548 -0.1526
   12MOL0     C 1545   5.384   8.155   6.416 -0.3959  0.5714  0.0121
   12MOL0     C 1546   5.449   8.151   6.279  0.1335 -0.0247 -0.3643
   12MOL0     C 1547   5.340   8.035   6.486 -0.6943 -0.3316  0.6377
   12MOL0     C 1548   5.364   7.894   6.435 -0.2488  0.2325 -1.0859
   12MOL0     O 1549   5.446   7.868   6.323  1.4968 -0.0575 -0.8695
   12MOL0     C 1550   5.441   7.744   6.265 -0.5257 -0.9123 -0.1105
   12MOL0     C 1551   5.317   7.674   6.237 -0.8074 -0.5131  0.5144
   12MOL0     C 1552   5.322   7.546   6.175 -0.0865  1.1971 -0.1936
   12MOL0     C 1553   5.446   7.485   6.145  0.0756 -0.1864 -0.7437
   12MOL0     O 1554   5.447   7.353   6.098  0.6589 -0.0623 -0.2079
   12MOL0     C 1555   5.393   7.342   5.959  0.1966  0.7364 -0.1572
   12MOL0     C 1556   5.355   7.197   5.940  0.8271 -0.0988  0.3781
   12MOL0     C 1557   5.250   7.161   6.044  0.1410  1.2406 -0.1212
   12MOL0     C 1558   5.236   7.012   6.068  0.3826  0.3805  0.7419
   12MOL0     C 1559   5.102   6.975   6.135  0.3549  0.1443 -0.0713
   12MOL0     C 1560   5.099   6.966   6.290  0.3442 -0.3648  0.5380
   12MOL0     C 1561   4.958   6.942   6.339 -0.5041  0.1545  0.4374
   12MOL0     C 1562   4.938   6.920   6.496 -0.9221 -1.2754  0.0580
   12MOL0    Cl 1563   5.057   6.811   6.557 -0.6346 -0.2775  0.1434
   12MOL0     C 1564   5.565   7.548   6.191  0.1159 -0.7355 -0.0217
   12MOL0     C 1565   5.563   7.681   6.245 -0.5088 -0.2588  0.5839
   12MOL0     O 1566   5.312   7.806   6.504 -0.6313 -0.3085  0.5078
   12MOL0     C 1567   5.290   8.053   6.619  0.7991  0.3258  0.2193
   12MOL0     C 1568   5.269   8.180   6.673  0.5206  0.1099 -0.2371
   12MOL0     N 1569   4.777   8.578   6.515  0.5463  0.4387 -0.4421
   12MOL0     N 1570   4.648   8.603   6.529 -0.4764 -0.6853  0.0335
   12MOL0     C 1571   4.126   9.158   6.138 -0.4750  0.1991  0.4625
   12MOL0     C 1572   4.100   9.269   6.219  0.0348  0.0297 -0.7035
   12MOL0     C 1573   3.895   9.535   6.124 -1.1346  0.1514 -0.4175
   12MOL0     C 1574   3.762   9.514   6.089  0.0578  0.2197 -0.5351
   12MOL0     C 1575   3.707   9.534   5.958 -0.4735 -1.1490  1.1189
   12MOL0     C 1576   3.798   9.581   5.856  0.7566 -1.1505  0.2439
   12MOL0     O 1577   3.734   9.610   5.733  0.0769  0.1342  0.4637
   12MOL0     C 1578   3.811   9.651   5.627  0.3109  0.4691  0.2079
   12MOL0     C 1579   3.721   9.633   5.510  0.6372 -0.2483  0.9722
   12MOL0     C 1580   3.810   9.619   5.384 -0.6297 -0.5588  0.0155
   12MOL0     C 1581   3.744   9.539   5.268 -0.5229  0.0876  0.3297
   12MOL0     C 1582   3.849   9.486   5.182  2.3013 -0.9149  0.7218
   12MOL0     C 1583   3.929   9.433   5.108 -0.7102 -0.4353 -0.3621
   12MOL0     C 1584   3.933   9.597   5.883 -0.7302 -0.3139  0.5105
   12MOL0     C 1585   3.986   9.577   6.015 -0.0242 -0.7146  0.9811
   12MOL0     C 1586   4.124   9.610   6.047  0.2027  0.2186  0.5118
   12MOL0     H 1587   3.772   9.279   6.217  0.8395  2.2632 -1.7634
   12MOL0     H 1588   3.802   9.062   6.085  1.2382 -2.0810  1.0880
   12MOL0     H 1589   3.906   8.902   5.906 -3.2416 -1.2489  1.6899
   12MOL0     H 1590   3.900   8.861   6.080  1.9065  3.7682  1.8498
   12MOL0     H 1591   3.966   8.664   5.923  2.5715  0.3009 -2.6846
   12MOL0     H 1592   4.112   8.761   5.908  2.5084 -2.6950  2.0540
   12MOL0     H 1593   4.031   8.698   6.197  1.9396  0.1839  3.0196
   12MOL0     H 1594   4.078   8.562   6.112  1.9199  0.3298  0.3106
   12MOL0     H 1595   4.279   8.747   6.024 -2.1099  0.9457 -1.5612
   12MOL0     H 1596   4.220   8.827   6.164 -0.0587 -0.7365  1.6914
   12MOL0     H 1597   4.354   8.573   6.129  2.3992  3.2269 -1.9491
   12MOL0     H 1598   4.256   8.593   6.280  1.0734 -0.1728  1.5364
   12MOL0     H 1599   4.518   8.659   6.266  0.5621  0.2979  0.8415
   12MOL0     H 1600   4.441   8.827   6.232 -4.4348  1.6732  1.1063
   12MOL0     H 1601   4.380   8.655   6.478  1.9174  1.6290  2.8673
   12MOL0     H 1602   4.313   8.801   6.439 -0.7321 -1.0557 -1.2448
   12MOL0     H 1603   4.527   8.914   6.455  1.6636 -0.9044 -2.1286
   12MOL0     H 1604   4.489   8.819   6.596 -0.9767 -0.5861  0.1821
   12MOL0     H 1605   4.771   8.881   6.375  0.6596 -1.4087 -2.3670
   12MOL0     H 1606   5.037   8.762   6.398 -2.4719  1.0483 -0.7229
   12MOL0     H 1607   5.001   8.589   6.364 -1.6010  0.9947 -2.2009
   12MOL0     H 1608   5.086   8.713   6.630  0.8304  2.0521 -1.1001
   12MOL0     H 1609   5.033   8.545   6.597 -1.3062  2.2085  1.5400
   12MOL0     H 1610   5.230   8.506   6.443  0.7651 -2.3140  1.1993
   12MOL0     H 1611   5.272   8.678   6.453  1.5826 -1.2597 -0.6672
   12MOL0     H 1612   5.418   8.543   6.579 -2.7307 -1.8630 -3.2393
   12MOL0     H 1613   5.312   8.614   6.709 -1.4717  1.1856 -0.8935
   12MOL0     H 1614   5.403   8.374   6.427  1.3859  0.1906  1.6000
   12MOL0     H 1615   5.527   8.078   6.259  0.3237 -0.0284  0.3762
   12MOL0     H 1616   5.479   8.255   6.260  0.1593 -0.3340 -2.2070
   12MOL0     H 1617   5.375   8.109   6.210 -0.1618 -4.6178  2.3919
   12MOL0     H 1618   5.224   7.723   6.263 -1.6258 -0.1282 -2.7131
   12MOL0     H 1619   5.232   7.491   6.150  0.8630  0.0073 -1.1568
   12MOL0     H 1620   5.305   7.405   5.941  0.0652  1.2517  1.9833
   12MOL0     H 1621   5.475   7.372   5.893 -1.0078 -0.4058 -2.2826
   12MOL0     H 1622   5.315   7.165   5.844  0.2661  0.9455  0.2466
   12MOL0     H 1623   5.448   7.143   5.961  2.7534  3.2194  1.1359
   12MOL0     H 1624   5.154   7.203   6.014  1.0526  1.8802 -2.3774
   12MOL0     H 1625   5.278   7.201   6.142  0.6380 -1.7692  1.0690
   12MOL0     H 1626   5.312   6.979   6.140 -0.8107 -1.0383  1.4020
   12MOL0     H 1627   5.237   6.969   5.967  1.3978  1.9192  0.0642
   12MOL0     H 1628   5.023   7.045   6.105  0.7642  0.2562 -0.9039
   12MOL0     H 1629   5.074   6.879   6.091 -0.8569  0.9114 -1.0292
   12MOL0     H 1630   5.127   7.064   6.329  0.0457 -0.9620  2.3394
   12MOL0     H 1631   5.174   6.891   6.317 -1.4472 -2.2268  0.5656
   12MOL0     H 1632   4.923   6.851   6.289  1.9103 -0.4576 -0.2733
   12MOL0     H 1633   4.890   7.020   6.303 -0.2145  1.2664  2.1924
   12MOL0     H 1634   4.834   6.889   6.513 -0.1475 -2.4210  3.2115
   12MOL0     H 1635   4.957   7.012   6.551  2.7981 -1.9557  0.1274
   12MOL0     H 1636   5.660   7.499   6.175  0.0580 -0.2877 -2.0484
   12MOL0     H 1637   5.655   7.734   6.268  0.2956 -1.4209  0.1863
   12MOL0     H 1638   5.266   7.961   6.671  2.0030 -0.0347  0.1617
   12MOL0     H 1639   5.225   8.190   6.771 -1.9227 -0.1629 -1.2277
   12MOL0     H 1640   4.228   9.124   6.124  0.8981  3.8278  0.5908
   12MOL0     H 1641   4.182   9.317   6.272 -0.9753  0.7075  0.2874
   12MOL0     H 1642   3.689   9.490   6.166  1.7797  2.6443  2.0723
   12MOL0     H 1643   3.601   9.518   5.945 -0.6854  1.7638 -2.5738
   12MOL0     H 1644   3.836   9.757   5.625 -1.1129  0.8201 -1.2625
   12MOL0     H 1645   3.896   9.583   5.616 -0.4360 -0.3285 -1.0258
   12MOL0     H 1646   3.647   9.713   5.504  2.1830  1.1466 -0.9775
   12MOL0     H 1647   3.658   9.547   5.531 -0.3507  0.1640 -0.1977
   12MOL0     H 1648   3.829   9.714   5.333 -3.0507 -1.1970 -2.3039
   12MOL0     H 1649   3.911   9.590   5.415 -1.2140  0.5713  3.4989
   12MOL0     H 1650   3.664   9.586   5.208  0.2970 -0.4151 -1.2040
   12MOL0     H 1651   3.705   9.453   5.323  0.2760  0.5032  1.5817
   12MOL0     H 1652   4.000   9.391   5.039 -0.9298  0.2786 -1.0381
   12MOL0     H 1653   4.003   9.629   5.806  1.1037  1.0879  2.6284
   12MOL0     H 1654   4.165   9.688   5.983 -0.8651 -0.1271 -0.6390
   12MOL0     H 1655   4.139   9.650   6.147  1.1865  1.5577 -0.1414
   12MOL0     H 1656   4.192   9.524   6.050 -0.9193 -0.6777  2.7204
   13MOL0     O 1657   5.296   4.309   3.464  0.0831  0.3604  0.2114
   13MOL0     C 1658   5.251   4.273   3.357 -0.5766  0.0625  0.3065
   13MOL0     O 1659   5.135   4.200   3.337  0.2603  0.7600  0.0826
   13MOL0     C 1660   5.059   4.166   3.442  0.7921 -0.6819  0.1052
   13MOL0     C 1661   4.919   4.200   3.434 -0.1754 -0.2935 -0.1259
   13MOL0     C 1662   4.824   4.157   3.531  0.0426 -0.5636  0.3448
   13MOL0     C 1663   4.870   4.087   3.646 -0.7550 -0.9377  0.0190
   13MOL0     O 1664   4.789   4.048   3.755 -0.6531  0.3614 -0.2223
   13MOL0     C 1665   4.640   4.052   3.746 -0.3439  0.0229  0.4183
   13MOL0     C 1666   4.583   3.914   3.750  0.7134  0.5126  0.1272
   13MOL0     C 1667   4.434   3.907   3.753 -0.1481  1.1139 -0.5428
   13MOL0     C 1668   4.371   3.770   3.799 -0.3738  0.6637 -0.3738
   13MOL0     C 1669   4.230   3.779   3.845 -0.3405 -0.2452 -0.6541
   13MOL0     C 1670   4.115   3.832   3.757 -0.5445 -0.9797 -0.6915
   13MOL0     C 1671   3.982   3.875   3.822 -0.8656 -0.8765  0.1415
   13MOL0     C 1672   3.892   3.759   3.844  0.3043  1.2729 -0.2911
   13MOL0     N 1673   3.766   3.798   3.906 -0.4593 -0.2435 -0.2701
   13MOL0     C 1674   3.715   3.718   4.002  0.4885  0.1432 -0.3863
   13MOL0     C 1675   3.628   3.782   4.081  0.5773 -0.3183  0.0751
   13MOL0     C 1676   3.525   3.728   4.181 -0.6434  0.6215 -0.2192
   13MOL0     C 1677   3.593   3.603   4.270  0.0366 -0.2275  0.6303
   13MOL0     C 1678   3.479   3.533   4.338  0.5014 -0.0279  0.8289
   13MOL0     C 1679   3.519   3.422   4.432 -0.4708  0.5559  0.7659
   13MOL0     O 1680   3.518   3.302   4.360  0.5112  0.2003 -0.0218
   13MOL0     C 1681   3.555   3.191   4.429  0.1560  0.4235  0.7685
   13MOL0     C 1682   3.564   3.066   4.368 -0.2428  0.1760  0.1055
   13MOL0     C 1683   3.583   2.943   4.436  0.1270  0.2393  0.7440
   13MOL0     C 1684   3.593   2.816   4.360 -0.5370  0.2691  0.7681
   13MOL0     C 1685   3.608   2.947   4.572  0.1502  0.2662 -0.4813
   13MOL0     C 1686   3.624   2.833   4.672 -0.5662  0.2399 -0.3051
   13MOL0     O 1687   3.582   2.857   4.794 -0.0808 -0.2718  1.2565
   13MOL0     C 1688   3.561   2.763   4.888  0.5847 -0.0803  0.1963
   13MOL0     C 1689   3.622   2.789   5.010  0.5473  0.0095  0.3012
   13MOL0     C 1690   3.614   2.703   5.114  0.3294 -0.3349 -0.9610
   13MOL0     C 1691   3.570   2.574   5.104 -0.5387 -0.9395 -0.2230
   13MOL0     O 1692   3.588   2.477   5.199  0.3181 -0.9386 -0.5299
   13MOL0     C 1693   3.558   2.531   5.336 -0.2447  0.8004 -0.4210
   13MOL0     C 1694   3.476   2.430   5.428  0.0834  0.2869  0.8031
   13MOL0     C 1695   3.514   2.282   5.422  0.7959 -1.3766  0.3537
   13MOL0     C 1696   3.661   2.269   5.482  0.4617 -0.0962 -0.4207
   13MOL0     C 1697   3.678   2.132   5.562  1.3259 -0.2679 -0.6957
   13MOL0     C 1698   3.672   2.008   5.470  0.3695  0.6815 -0.1798
   13MOL0     C 1699   3.779   1.990   5.372  0.1113  0.1600 -0.3303
   13MOL0     C 1700   3.790   1.859   5.297  0.3986 -0.3637  0.3675
   13MOL0    Cl 1701   3.650   1.849   5.186 -0.1504 -0.4117  0.6016
   13MOL0     C 1702   3.502   2.547   4.984  0.0903  0.6907  1.0455
   13MOL0     C 1703   3.494   2.640   4.878  0.5339  0.0512  0.4560
   13MOL0     O 1704   3.654   2.723   4.630  0.3557  0.5647  0.0919
   13MOL0     C 1705   3.593   3.074   4.634  0.3829  0.7166 -0.4985
   13MOL0     C 1706   3.563   3.190   4.569 -0.3917  0.3114  0.0152
   13MOL0     N 1707   3.639   3.916   4.039  0.5621 -0.2423 -0.2067
   13MOL0     N 1708   3.716   3.927   3.935  0.1206 -0.4431  0.3291
   13MOL0     C 1709   5.010   4.070   3.656 -0.8816 -0.3844  0.2352
   13MOL0     C 1710   5.106   4.095   3.554  0.3086 -0.0334  0.2516
   13MOL0     C 1711   5.331   4.291   3.232  0.2607 -0.3034 -0.0656
   13MOL0     C 1712   5.328   4.192   3.131 -0.2996  0.2088 -0.7104
   13MOL0     C 1713   5.402   4.206   3.014  0.4921  0.5478 -0.5440
   13MOL0     C 1714   5.482   4.317   3.001 -0.5655  0.2641  0.2312
   13MOL0     O 1715   5.531   4.356   2.880  0.0596  0.1761 -0.0797
   13MOL0     C 1716   5.519   4.269   2.772  1.0405 -0.5112  0.4092
   13MOL0     C 1717   5.617   4.154   2.761  0.1604 -0.7410 -1.0244
   13MOL0     C 1718   5.615   4.074   2.630 -0.0709  0.1909 -0.6516
   13MOL0     C 1719   5.724   3.974   2.617 -0.3575  0.7091  0.0359
   13MOL0     C 1720   5.733   3.933   2.475  0.4361  0.6697  0.2880
   13MOL0     C 1721   5.742   3.890   2.360 -0.0710 -0.2352 -0.0359
   13MOL0     C 1722   5.493   4.411   3.106  0.9907 -0.0169  1.1980
   13MOL0     C 1723   5.418   4.403   3.216 -0.1257 -0.4134 -0.4224
   13MOL0     C 1724   5.439   4.514   3.317 -0.4875  0.6433  0.6169
   13MOL0     H 1725   4.892   4.259   3.346 -1.3176  1.8108  1.5266
   13MOL0     H 1726   4.723   4.188   3.507 -0.7558 -2.5419  0.9492
   13MOL0     H 1727   4.608   4.108   3.658  2.1527 -0.3380 -0.8162
   13MOL0     H 1728   4.599   4.098   3.837 -2.0546  1.1891 -0.8773
   13MOL0     H 1729   4.617   3.860   3.661 -1.8338  1.1466 -1.3148
   13MOL0     H 1730   4.612   3.855   3.837 -1.1477 -1.7511 -0.6652
   13MOL0     H 1731   4.408   3.980   3.830 -0.3917  1.7717 -1.2298
   13MOL0     H 1732   4.387   3.934   3.658  1.3235 -2.4323 -2.4682
   13MOL0     H 1733   4.384   3.703   3.714  0.7997  0.6095 -0.1759
   13MOL0     H 1734   4.425   3.725   3.882 -1.0161 -2.1980 -1.4109
   13MOL0     H 1735   4.244   3.825   3.944  4.1528 -3.5124  0.5459
   13MOL0     H 1736   4.202   3.677   3.872 -2.1980  0.1444 -0.9821
   13MOL0     H 1737   4.151   3.922   3.705  1.3530 -2.0075 -1.2731
   13MOL0     H 1738   4.100   3.754   3.682  1.2032 -1.2544 -0.8009
   13MOL0     H 1739   3.942   3.947   3.750  4.5173  3.1696  0.6321
   13MOL0     H 1740   3.998   3.940   3.908 -3.5716  0.0757  0.0357
   13MOL0     H 1741   3.864   3.719   3.746 -1.4612  1.5236  0.0782
   13MOL0     H 1742   3.932   3.672   3.897 -0.7268  0.5584 -0.6463
   13MOL0     H 1743   3.749   3.619   4.029 -2.8635 -1.1491 -0.4311
   13MOL0     H 1744   3.438   3.702   4.120 -1.4703  3.3003 -0.3065
   13MOL0     H 1745   3.502   3.816   4.242  3.1532  1.3019  0.4441
   13MOL0     H 1746   3.646   3.539   4.200 -0.9863 -1.0587  0.5886
   13MOL0     H 1747   3.650   3.641   4.355 -3.4980  0.5456  2.9037
   13MOL0     H 1748   3.423   3.609   4.395 -0.4737  1.4212 -1.8911
   13MOL0     H 1749   3.416   3.488   4.261  0.1604 -1.6552  2.0093
   13MOL0     H 1750   3.611   3.438   4.488 -0.0777 -0.2396  0.3732
   13MOL0     H 1751   3.435   3.427   4.502  0.7602 -1.6322  2.5236
   13MOL0     H 1752   3.564   3.068   4.259 -1.1232  1.4123  0.1017
   13MOL0     H 1753   3.681   2.758   4.388 -0.7009 -1.1516 -1.4140
   13MOL0     H 1754   3.609   2.834   4.254  1.3133 -4.7177 -0.0680
   13MOL0     H 1755   3.500   2.759   4.372 -1.6495  1.1732 -2.5959
   13MOL0     H 1756   3.670   2.886   5.020  1.3624 -0.5567  2.4651
   13MOL0     H 1757   3.660   2.729   5.209  0.4520 -1.0799 -0.8115
   13MOL0     H 1758   3.651   2.564   5.385  0.8382 -2.1519 -0.2961
   13MOL0     H 1759   3.506   2.626   5.319  1.3707  1.7489 -0.3299
   13MOL0     H 1760   3.480   2.466   5.531 -1.5617  1.3974  0.5272
   13MOL0     H 1761   3.373   2.431   5.391  0.0885  2.2428  0.7602
   13MOL0     H 1762   3.502   2.229   5.327 -0.9557  1.5241 -1.1902
   13MOL0     H 1763   3.447   2.239   5.496 -0.0802  1.3388  1.2369
   13MOL0     H 1764   3.685   2.356   5.544  1.9616 -1.5396  1.1640
   13MOL0     H 1765   3.728   2.275   5.396 -3.5551  1.1326 -3.8191
   13MOL0     H 1766   3.770   2.132   5.622  0.0467  0.4755  1.3772
   13MOL0     H 1767   3.603   2.126   5.642  0.3356 -0.7994 -1.6369
   13MOL0     H 1768   3.576   1.997   5.418  0.4400  2.4496 -0.7242
   13MOL0     H 1769   3.681   1.920   5.535  0.7953 -0.4059 -1.6630
   13MOL0     H 1770   3.873   1.985   5.426 -1.1581  1.4404  2.1606
   13MOL0     H 1771   3.779   2.072   5.299 -1.6003  0.8540  0.4007
   13MOL0     H 1772   3.776   1.772   5.361 -2.8152  1.0656  1.8527
   13MOL0     H 1773   3.885   1.844   5.244 -0.7332 -1.2436 -1.5078
   13MOL0     H 1774   3.456   2.449   4.969 -0.2423  1.1663 -1.4735
   13MOL0     H 1775   3.443   2.610   4.787 -0.6429  1.4207  0.6327
   13MOL0     H 1776   3.614   3.089   4.739  3.3540 -1.2345 -0.7080
   13MOL0     H 1777   3.548   3.271   4.640 -0.7756  0.0904  0.1919
   13MOL0     H 1778   5.047   4.013   3.740 -1.0288 -0.3059  0.3537
   13MOL0     H 1779   5.206   4.055   3.562  0.5459  0.6749  0.9975
   13MOL0     H 1780   5.258   4.111   3.150 -1.1937  1.3488  1.1627
   13MOL0     H 1781   5.370   4.126   2.947 -0.3937  1.7916 -1.6765
   13MOL0     H 1782   5.421   4.220   2.770  0.8916 -0.2284  0.6259
   13MOL0     H 1783   5.514   4.328   2.680 -0.3504 -3.3342 -1.4454
   13MOL0     H 1784   5.602   4.098   2.854 -0.3922  0.5039 -0.3430
   13MOL0     H 1785   5.719   4.190   2.776 -0.2194 -0.4294  1.1045
   13MOL0     H 1786   5.526   4.012   2.638 -0.8509  1.2434 -0.9920
   13MOL0     H 1787   5.612   4.129   2.535  0.0945  2.5845  0.6566
   13MOL0     H 1788   5.704   3.880   2.670 -1.5272  1.5696  1.1783
   13MOL0     H 1789   5.818   4.014   2.658 -2.0181  0.5130  4.6499
   13MOL0     H 1790   5.747   3.865   2.256  2.3969 -0.3034  0.0247
   13MOL0     H 1791   5.551   4.503   3.093  0.2470  0.4551  1.1874
   13MOL0     H 1792   5.513   4.481   3.391 -0.0434 -3.1157 -1.2527
   13MOL0     H 1793   5.478   4.599   3.260  5.9497 -2.2168 -0.1246
   13MOL0     H 1794   5.343   4.542   3.362 -0.6165 -2.1739  2.3594
   14MOL0     O 1795   4.836   5.601   8.167  0.8496  0.3206 -0.1594
   14MOL0     C 1796   4.817   5.481   8.132 -0.4038 -0.3453  0.0212
   14MOL0     O 1797   4.907   5.383   8.156 -0.1947  0.8634 -0.4265
   14MOL0     C 1798   5.023   5.418   8.226  0.3186 -0.1708 -1.2632
   14MOL0     C 1799   5.008   5.445   8.363 -0.2342 -0.1815 -0.4634
   14MOL0     C 1800   5.115   5.473   8.453  1.0308  0.7766  0.1041
   14MOL0     C 1801   5.243   5.466   8.401  1.0076  0.0257 -1.0931
   14MOL0     O 1802   5.358   5.482   8.474  0.0839  0.9808 -0.5563
   14MOL0     C 1803   5.362   5.552   8.600  0.6276  0.4062 -0.5723
   14MOL0     C 1804   5.505   5.555   8.659 -0.3868 -0.5060  0.8315
   14MOL0     C 1805   5.590   5.433   8.648 -0.8865 -0.3102  0.3509
   14MOL0     C 1806   5.704   5.457   8.543 -0.6069  0.2991 -0.4307
   14MOL0     C 1807   5.650   5.451   8.399 -0.0850  0.1310  0.1707
   14MOL0     C 1808   5.771   5.455   8.289  0.0325  0.1590  0.1509
   14MOL0     C 1809   5.720   5.472   8.145  0.0064  0.0172  0.9274
   14MOL0     C 1810   5.837   5.487   8.059 -0.2770 -0.7027  0.9017
   14MOL0     N 1811   5.802   5.468   7.921 -0.4164 -0.1729 -0.2908
   14MOL0     C 1812   5.752   5.563   7.838 -0.5227  0.7495  0.4245
   14MOL0     C 1813   5.750   5.507   7.717 -0.4010 -0.3198  0.7288
   14MOL0     C 1814   5.729   5.575   7.585 -0.4091 -0.3271 -0.3540
   14MOL0     C 1815   5.847   5.676   7.550  0.3364  0.3021  0.6083
   14MOL0     C 1816   6.001   5.648   7.582  0.2499  0.5605  0.7122
   14MOL0     C 1817   6.036   5.522   7.503 -0.5206  0.0455  0.1075
   14MOL0     O 1818   6.155   5.467   7.571  0.5339 -0.1157 -0.5497
   14MOL0     C 1819   6.197   5.340   7.532  0.0418  0.7902 -0.0398
   14MOL0     C 1820   6.154   5.266   7.418 -0.3402  0.5548  0.0582
   14MOL0     C 1821   6.197   5.137   7.388 -0.3975  0.2650 -0.4223
   14MOL0     C 1822   6.139   5.068   7.268  0.1746  0.5294  0.9686
   14MOL0     C 1823   6.288   5.074   7.472 -0.1601  0.5675 -0.8786
   14MOL0     C 1824   6.358   4.943   7.448 -0.6387  0.0205 -0.0132
   14MOL0     O 1825   6.470   4.920   7.512  0.6077 -0.6472 -0.9264
   14MOL0     C 1826   6.542   4.803   7.510  0.0225 -0.6534 -1.0040
   14MOL0     C 1827   6.650   4.787   7.429 -0.5666  0.3049 -0.5662
   14MOL0     C 1828   6.719   4.668   7.428 -0.8074  0.3175 -0.9477
   14MOL0     C 1829   6.689   4.561   7.517  0.3550 -0.2410 -0.7425
   14MOL0     O 1830   6.775   4.461   7.550 -0.4776 -0.2714 -0.7908
   14MOL0     C 1831   6.915   4.475   7.529 -0.2547 -0.0872 -0.5471
   14MOL0     C 1832   7.006   4.429   7.640  0.9831 -0.6330 -0.9582
   14MOL0     C 1833   7.014   4.522   7.764  0.0445  0.3926  0.6626
   14MOL0     C 1834   7.122   4.472   7.851 -0.8705 -0.0222 -0.0774
   14MOL0     C 1835   7.174   4.561   7.966 -0.0492  0.4318  0.4304
   14MOL0     C 1836   7.186   4.484   8.098 -1.0635 -0.1158  0.0943
   14MOL0     C 1837   7.255   4.553   8.219 -0.3630  0.8560 -0.2719
   14MOL0     C 1838   7.297   4.443   8.314  0.2801  0.0227  0.2000
   14MOL0    Cl 1839   7.437   4.366   8.241 -0.2399  0.3628 -0.1923
   14MOL0     C 1840   6.582   4.588   7.602 -0.2515  1.0054  0.8405
   14MOL0     C 1841   6.506   4.696   7.597  0.3517  0.8574 -0.7681
   14MOL0     O 1842   6.306   4.855   7.380  0.4649 -0.3083 -0.0908
   14MOL0     C 1843   6.330   5.141   7.586 -0.0966  0.0078 -0.0429
   14MOL0     C 1844   6.291   5.278   7.613  0.2998 -0.1319 -0.0562
   14MOL0     N 1845   5.795   5.377   7.727 -0.3447 -0.1472  0.0102
   14MOL0     N 1846   5.845   5.356   7.849  0.1861  0.7059 -0.4943
   14MOL0     C 1847   5.268   5.423   8.267  0.1618  0.5100 -0.8564
   14MOL0     C 1848   5.161   5.407   8.183 -0.5920 -0.5399 -0.6628
   14MOL0     C 1849   4.694   5.436   8.056 -0.3879  0.3528 -0.4112
   14MOL0     C 1850   4.672   5.296   8.036  1.0022  0.4149  0.6911
   14MOL0     C 1851   4.555   5.252   7.973  0.2193 -0.6433 -0.8532
   14MOL0     C 1852   4.455   5.339   7.927  0.8700  0.0126 -0.2426
   14MOL0     O 1853   4.327   5.291   7.901 -0.6877  0.2463  0.1360
   14MOL0     C 1854   4.219   5.383   7.878 -0.5773 -0.0491  0.7074
   14MOL0     C 1855   4.089   5.302   7.828 -0.6134  0.5543  0.6019
   14MOL0     C 1856   3.962   5.382   7.791  0.2230  0.4555  0.4364
   14MOL0     C 1857   3.913   5.311   7.661 -0.3421  0.1272  0.1898
   14MOL0     C 1858   3.780   5.357   7.617  0.3327 -0.2915 -0.3305
   14MOL0     C 1859   3.620   5.416   7.519  0.5751 -0.7931  1.5360
   14MOL0     C 1860   4.482   5.478   7.939  1.2305  0.5597  0.0776
   14MOL0     C 1861   4.607   5.527   7.988  0.3116 -0.2105 -0.5915
   14MOL0     C 1862   4.632   5.669   7.985 -0.1156 -0.4656  0.6020
   14MOL0     H 1863   4.912   5.456   8.412  1.5350  1.9972  2.8929
   14MOL0     H 1864   5.102   5.467   8.561  2.4374 -2.6141  0.2112
   14MOL0     H 1865   5.292   5.497   8.664  0.3526  0.4195 -0.8608
   14MOL0     H 1866   5.315   5.649   8.586 -0.9557 -0.0037  1.4073
   14MOL0     H 1867   5.562   5.645   8.631  1.7594 -1.6221  1.3771
   14MOL0     H 1868   5.487   5.583   8.763  2.3720  1.3119  0.9356
   14MOL0     H 1869   5.638   5.413   8.744  1.7134  3.9811  0.2351
   14MOL0     H 1870   5.530   5.347   8.616 -0.5787 -0.0732 -0.9581
   14MOL0     H 1871   5.744   5.559   8.550  1.9138 -0.1687 -4.6254
   14MOL0     H 1872   5.787   5.385   8.551 -0.9291 -0.5580 -3.7088
   14MOL0     H 1873   5.581   5.534   8.380  0.8266  0.8451 -0.1009
   14MOL0     H 1874   5.593   5.358   8.385 -0.9781  0.8746 -1.4470
   14MOL0     H 1875   5.845   5.532   8.308  2.0271 -1.3711 -1.0707
   14MOL0     H 1876   5.821   5.358   8.300  4.1296  2.3308  2.6108
   14MOL0     H 1877   5.651   5.556   8.131 -3.8924 -3.1366 -0.8730
   14MOL0     H 1878   5.662   5.388   8.106  1.6596 -0.5262 -0.4673
   14MOL0     H 1879   5.881   5.587   8.061 -1.3861  0.0215 -3.0350
   14MOL0     H 1880   5.912   5.414   8.091 -0.3351 -0.9329  0.5175
   14MOL0     H 1881   5.727   5.667   7.854  0.9965  1.1426  0.4040
   14MOL0     H 1882   5.630   5.621   7.570 -0.0138  0.9379  0.7281
   14MOL0     H 1883   5.740   5.492   7.515  4.8885 -1.6241  1.5959
   14MOL0     H 1884   5.840   5.717   7.448 -0.8966  2.6359  1.5457
   14MOL0     H 1885   5.826   5.764   7.612 -2.7165 -0.2399  0.5063
   14MOL0     H 1886   6.062   5.727   7.539 -0.3790 -0.7473 -2.8895
   14MOL0     H 1887   6.005   5.630   7.690  1.0476 -0.6590  0.4963
   14MOL0     H 1888   5.959   5.444   7.511 -0.3798 -0.3750 -1.9289
   14MOL0     H 1889   6.052   5.549   7.398 -3.4096  3.8545  0.3931
   14MOL0     H 1890   6.092   5.313   7.342 -1.3757  1.3539  1.3556
   14MOL0     H 1891   6.044   5.113   7.239 -0.2289 -1.3348 -0.7985
   14MOL0     H 1892   6.115   4.961   7.263  0.8327  0.4318 -1.5411
   14MOL0     H 1893   6.206   5.075   7.182 -0.0369 -0.2794  0.7323
   14MOL0     H 1894   6.684   4.866   7.362  3.2351  0.2467  1.0655
   14MOL0     H 1895   6.813   4.665   7.374 -0.9442  1.5275 -1.2673
   14MOL0     H 1896   6.918   4.396   7.453  0.8799 -2.6565  1.9608
   14MOL0     H 1897   6.958   4.567   7.490  1.5694 -0.6944 -0.0558
   14MOL0     H 1898   6.986   4.332   7.687 -1.4000  1.0010  1.7108
   14MOL0     H 1899   7.107   4.408   7.602  1.9021 -3.0753  2.3544
   14MOL0     H 1900   6.924   4.537   7.824  0.3379 -0.7480  1.4369
   14MOL0     H 1901   7.034   4.624   7.730 -0.1143 -0.2549 -1.5205
   14MOL0     H 1902   7.211   4.472   7.788 -1.6137  3.4704 -1.3526
   14MOL0     H 1903   7.098   4.374   7.893  0.2465  0.2763  1.3232
   14MOL0     H 1904   7.279   4.589   7.954 -0.0112  0.7764  1.4642
   14MOL0     H 1905   7.125   4.658   7.978 -0.9906 -0.1612  1.6426
   14MOL0     H 1906   7.243   4.393   8.080  0.3175  0.2146  2.3362
   14MOL0     H 1907   7.092   4.451   8.143 -0.8635  2.6065  2.8185
   14MOL0     H 1908   7.197   4.617   8.286 -0.1572 -2.5491  3.5611
   14MOL0     H 1909   7.347   4.599   8.181  0.5400 -0.5440  0.1575
   14MOL0     H 1910   7.218   4.368   8.321 -1.0328  1.5018  1.8274
   14MOL0     H 1911   7.313   4.476   8.417 -1.2109 -0.5509  0.6324
   14MOL0     H 1912   6.577   4.515   7.683  1.1953  0.0660  0.1210
   14MOL0     H 1913   6.444   4.734   7.678 -0.9374  0.8245 -1.7110
   14MOL0     H 1914   6.402   5.092   7.651  2.1115 -0.4221 -2.6383
   14MOL0     H 1915   6.326   5.333   7.700  0.2385  2.3253 -1.4726
   14MOL0     H 1916   5.369   5.419   8.227  0.7228 -1.6450  0.5896
   14MOL0     H 1917   5.178   5.373   8.081  1.6943  0.6548 -0.7473
   14MOL0     H 1918   4.736   5.224   8.087 -0.0240 -2.1507 -1.4054
   14MOL0     H 1919   4.529   5.148   7.983 -2.5651 -0.1548 -2.0470
   14MOL0     H 1920   4.189   5.438   7.968 -3.9443  0.5408 -0.6487
   14MOL0     H 1921   4.253   5.459   7.807 -0.9324  1.1242  1.7610
   14MOL0     H 1922   4.069   5.235   7.913 -1.0337 -0.9634 -0.6406
   14MOL0     H 1923   4.120   5.239   7.744  1.1884  3.1381 -0.7952
   14MOL0     H 1924   3.882   5.380   7.865 -0.8533  2.7735 -0.5628
   14MOL0     H 1925   3.987   5.485   7.765 -0.5593  0.6230  0.3333
   14MOL0     H 1926   3.903   5.202   7.670 -0.7481 -0.2081 -3.1186
   14MOL0     H 1927   3.981   5.321   7.576 -0.6756 -3.0167 -0.5532
   14MOL0     H 1928   3.541   5.430   7.448 -0.0383  1.8549  2.6542
   14MOL0     H 1929   4.406   5.552   7.914  0.6941  0.0802  0.2713
   14MOL0     H 1930   4.611   5.708   8.085  2.6268 -1.9372  1.8458
   14MOL0     H 1931   4.726   5.706   7.942 -0.0416  1.0876  2.0072
   14MOL0     H 1932   4.561   5.714   7.915  2.3418  3.0136  0.0752
   15MOL0     O 1933   0.847   6.987   6.872 -0.0226 -0.6658 -0.0425
   15MOL0     C 1934   0.962   7.015   6.831  0.9773  0.1458  0.1793
   15MOL0     O 1935   0.993   7.094   6.726  0.7391 -0.2298  0.2937
   15MOL0     C 1936   0.893   7.112   6.636 -0.1249  0.5662 -0.4331
   15MOL0     C 1937   0.790   7.197   6.667  0.1864 -0.4081  0.3372
   15MOL0     C 1938   0.689   7.209   6.575  0.8510 -0.0589 -0.8862
   15MOL0     C 1939   0.690   7.143   6.453 -0.1851  0.0276 -0.1185
   15MOL0     O 1940   0.588   7.159   6.360 -0.0116  0.0260 -0.4129
   15MOL0     C 1941   0.562   7.296   6.332  0.4750  0.2891  0.3095
   15MOL0     C 1942   0.459   7.319   6.212 -0.6075  0.4571 -0.9797
   15MOL0     C 1943   0.326   7.256   6.246  0.4693  0.6883  0.2626
   15MOL0     C 1944   0.248   7.208   6.125 -0.0712 -1.2226 -0.1668
   15MOL0     C 1945   0.105   7.168   6.183 -0.1557  0.7364 -0.2663
   15MOL0     C 1946   0.023   7.095   6.070 -0.1492 -0.4833 -0.0440
   15MOL0     C 1947   0.083   6.979   5.995 -0.1874  0.5041  0.7233
   15MOL0     C 1948  -0.010   6.969   5.868 -0.5923  0.5859  0.7474
   15MOL0     N 1949   0.016   6.848   5.793 -0.5132 -0.4967 -0.4613
   15MOL0     C 1950   0.125   6.769   5.803  0.2481  0.9373 -0.4985
   15MOL0     C 1951   0.089   6.651   5.748 -0.4105  0.1027 -0.0552
   15MOL0     C 1952   0.182   6.537   5.750  0.1507 -0.6720 -0.6928
   15MOL0     C 1953   0.166   6.464   5.885 -0.4510 -0.5011 -0.6517
   15MOL0     C 1954   0.259   6.344   5.897  1.4008  0.6592 -0.6031
   15MOL0     C 1955   0.263   6.278   6.040  0.7486 -0.9734  0.8010
   15MOL0     O 1956   0.343   6.346   6.138 -0.4506 -0.6212  0.2076
   15MOL0     C 1957   0.449   6.278   6.187 -0.1685 -0.7432  0.0040
   15MOL0     C 1958   0.582   6.311   6.159  0.9675  0.8622  1.5136
   15MOL0     C 1959   0.687   6.237   6.223  1.3199 -0.3881  1.2136
   15MOL0     C 1960   0.822   6.272   6.173 -0.7137 -0.2323 -0.5747
   15MOL0     C 1961   0.661   6.129   6.316  0.3727  0.2381  0.0348
   15MOL0     C 1962   0.765   6.044   6.382 -0.2029  1.0060 -0.3079
   15MOL0     O 1963   0.720   5.970   6.492  0.0723  0.4306 -0.3207
   15MOL0     C 1964   0.822   5.919   6.568 -0.6117  0.9753 -0.5310
   15MOL0     C 1965   0.830   5.783   6.603  1.2697  0.0216 -0.3591
   15MOL0     C 1966   0.927   5.736   6.705  1.2902 -0.4812 -0.0192
   15MOL0     C 1967   1.012   5.829   6.763  0.0154  0.3880  0.6677
   15MOL0     O 1968   1.105   5.783   6.859  0.0993 -0.6239 -0.3722
   15MOL0     C 1969   1.112   5.644   6.897 -0.0689 -0.1700 -0.1076
   15MOL0     C 1970   1.242   5.632   6.987  0.2616 -0.1163 -0.0120
   15MOL0     C 1971   1.274   5.483   6.996 -0.3053  0.1442 -1.2538
   15MOL0     C 1972   1.417   5.458   7.054  0.4345 -0.0397 -0.1926
   15MOL0     C 1973   1.475   5.309   7.043  0.2478 -0.4294  2.1338
   15MOL0     C 1974   1.425   5.219   7.145  0.1506 -1.0791 -0.1941
   15MOL0     C 1975   1.524   5.107   7.160  0.3992 -0.0558 -1.0451
   15MOL0     C 1976   1.542   5.022   7.036 -0.3820  0.5515 -0.1050
   15MOL0    Cl 1977   1.383   4.941   7.014 -0.0755 -0.3525  0.0873
   15MOL0     C 1978   1.007   5.958   6.731  0.9409 -0.2625  1.0154
   15MOL0     C 1979   0.906   6.007   6.641  0.5056  0.3351  0.2058
   15MOL0     O 1980   0.878   6.030   6.327 -0.5928  0.2450  0.5695
   15MOL0     C 1981   0.520   6.106   6.345 -0.3153  0.3407 -0.3550
   15MOL0     C 1982   0.424   6.175   6.273 -0.8837 -0.2445  0.3096
   15MOL0     N 1983  -0.032   6.664   5.689 -0.3754  0.1839 -0.9690
   15MOL0     N 1984  -0.073   6.781   5.714 -0.6285 -0.2508  0.3478
   15MOL0     C 1985   0.799   7.060   6.419 -0.4606  0.0479 -0.2679
   15MOL0     C 1986   0.902   7.049   6.511 -0.1417 -0.4454  0.0379
   15MOL0     C 1987   1.075   6.966   6.914 -0.4016  0.1318 -0.8671
   15MOL0     C 1988   1.116   7.049   7.017 -0.4885 -0.6944  0.1044
   15MOL0     C 1989   1.208   7.001   7.106  0.4149  0.1121 -0.1943
   15MOL0     C 1990   1.249   6.868   7.090  0.2355  0.5558 -0.1986
   15MOL0     O 1991   1.344   6.807   7.168  0.5254  0.3724  0.1024
   15MOL0     C 1992   1.280   6.739   7.284 -1.0275 -1.4259 -0.5442
   15MOL0     C 1993   1.366   6.630   7.332 -0.6675  0.1910  1.2990
   15MOL0     C 1994   1.297   6.500   7.388 -0.9684 -0.7278 -0.3886
   15MOL0     C 1995   1.214   6.538   7.500 -0.5180  0.0573  0.0502
   15MOL0     C 1996   1.287   6.559   7.627  0.2355 -0.0908  0.0085
   15MOL0     C 1997   1.350   6.589   7.727 -0.4368  0.1974  0.0470
   15MOL0     C 1998   1.216   6.790   6.982 -0.4414 -0.7282 -0.4889
   15MOL0     C 1999   1.126   6.840   6.897 -0.2261 -0.1812 -0.4388
   15MOL0     C 2000   1.073   6.749   6.791 -0.2202  0.0224  0.8960
   15MOL0     H 2001   0.797   7.253   6.760 -1.9711  2.1197 -0.8899
   15MOL0     H 2002   0.631   7.297   6.601  1.6263 -0.0670  1.0726
   15MOL0     H 2003   0.658   7.326   6.290  0.7181 -2.3828 -1.2166
   15MOL0     H 2004   0.524   7.350   6.419 -1.4498 -2.4299  1.2777
   15MOL0     H 2005   0.452   7.427   6.200 -1.3953  0.5283  0.0033
   15MOL0     H 2006   0.487   7.276   6.115 -2.5497 -2.0723 -0.5472
   15MOL0     H 2007   0.326   7.174   6.318 -2.3196  0.9137  0.6079
   15MOL0     H 2008   0.268   7.339   6.287 -2.7557 -0.3172 -1.8918
   15MOL0     H 2009   0.241   7.295   6.060 -0.3228  1.0487  2.6994
   15MOL0     H 2010   0.324   7.135   6.095  1.7157  0.0076  1.1951
   15MOL0     H 2011   0.032   7.239   6.223 -2.1107 -1.1988 -0.1461
   15MOL0     H 2012   0.120   7.098   6.265  1.8965 -0.4048 -1.5351
   15MOL0     H 2013  -0.065   7.060   6.124 -0.7814 -0.7586 -1.2089
   15MOL0     H 2014  -0.007   7.168   5.994 -0.3715 -1.4533 -0.9140
   15MOL0     H 2015   0.076   6.894   6.064 -0.2340  1.1161  1.4814
   15MOL0     H 2016   0.183   6.993   5.954 -0.6234 -1.0928 -1.0450
   15MOL0     H 2017  -0.118   6.959   5.883 -0.8084 -1.9254 -1.6726
   15MOL0     H 2018   0.002   7.060   5.809 -2.5912  0.9884  0.8852
   15MOL0     H 2019   0.221   6.783   5.852 -0.5702  4.3167  0.3457
   15MOL0     H 2020   0.287   6.569   5.750  0.8605 -2.6943  1.3061
   15MOL0     H 2021   0.162   6.474   5.663  0.5072  1.5730 -2.4929
   15MOL0     H 2022   0.190   6.546   5.954  1.1837  0.7909 -2.6510
   15MOL0     H 2023   0.065   6.423   5.890 -0.2233 -1.7119 -3.9360
   15MOL0     H 2024   0.212   6.269   5.832  1.3463 -0.5338  0.7724
   15MOL0     H 2025   0.361   6.380   5.878  1.9541  0.8469  2.2969
   15MOL0     H 2026   0.158   6.256   6.063  0.4234 -2.3578 -1.6342
   15MOL0     H 2027   0.297   6.176   6.021  1.1019 -0.5552 -0.9837
   15MOL0     H 2028   0.613   6.392   6.094 -0.9777 -0.9982 -2.0887
   15MOL0     H 2029   0.883   6.314   6.254 -3.4082 -0.1983  1.5634
   15MOL0     H 2030   0.815   6.348   6.095  3.7848  2.4310  1.2479
   15MOL0     H 2031   0.871   6.180   6.140 -0.6425 -0.8637  1.2026
   15MOL0     H 2032   0.751   5.723   6.560  0.3899  0.3747  0.7128
   15MOL0     H 2033   0.929   5.628   6.720  1.2213 -1.0825 -3.4738
   15MOL0     H 2034   1.026   5.603   6.951 -1.7408  2.0550 -0.9533
   15MOL0     H 2035   1.121   5.578   6.810  0.2663 -3.1767  2.0347
   15MOL0     H 2036   1.326   5.691   6.948  0.3143 -0.4884 -0.4769
   15MOL0     H 2037   1.229   5.657   7.092  1.3203 -1.7157  0.5378
   15MOL0     H 2038   1.247   5.442   6.898 -3.7424  2.3055 -1.3712
   15MOL0     H 2039   1.202   5.454   7.073 -0.5622  3.1588 -0.2065
   15MOL0     H 2040   1.425   5.503   7.153  0.9153  1.9904 -1.1085
   15MOL0     H 2041   1.483   5.507   6.982  1.6956  0.1597  1.0669
   15MOL0     H 2042   1.459   5.277   6.940  2.3113 -1.9046  2.2174
   15MOL0     H 2043   1.582   5.321   7.061  0.2877  1.3889  0.9539
   15MOL0     H 2044   1.321   5.193   7.124  0.5259 -2.4745 -0.3825
   15MOL0     H 2045   1.408   5.276   7.237 -1.7626 -0.8510 -0.6404
   15MOL0     H 2046   1.493   5.049   7.247  0.1566  2.3151  0.5230
   15MOL0     H 2047   1.624   5.137   7.193  0.0211 -0.2696  0.3430
   15MOL0     H 2048   1.621   4.948   7.052 -1.8898 -0.6886  2.2921
   15MOL0     H 2049   1.551   5.088   6.950 -2.2900 -0.8760 -1.4690
   15MOL0     H 2050   1.052   6.034   6.794 -0.3627  0.9893  0.5091
   15MOL0     H 2051   0.887   6.113   6.629 -0.2258 -0.1336 -5.6714
   15MOL0     H 2052   0.478   6.032   6.412 -2.5524  2.3682  0.6375
   15MOL0     H 2053   0.323   6.137   6.269  0.1538 -3.3298 -4.3978
   15MOL0     H 2054   0.796   7.017   6.319 -1.5926  0.2787 -0.3503
   15MOL0     H 2055   0.998   7.005   6.485 -0.0087  0.2469 -0.6636
   15MOL0     H 2056   1.090   7.153   7.032  0.8756 -0.3786  0.4417
   15MOL0     H 2057   1.243   7.066   7.185  3.6375 -0.3354 -1.0956
   15MOL0     H 2058   1.258   6.810   7.364 -0.0195 -2.8494  1.0675
   15MOL0     H 2059   1.183   6.693   7.260 -0.6314 -1.5616 -1.9800
   15MOL0     H 2060   1.440   6.671   7.401 -0.7682  0.0764  1.4767
   15MOL0     H 2061   1.431   6.585   7.256 -0.0774 -2.3100  3.1490
   15MOL0     H 2062   1.234   6.460   7.308 -1.6837 -2.4898  0.9826
   15MOL0     H 2063   1.375   6.427   7.409 -0.6147  0.4207  2.9815
   15MOL0     H 2064   1.151   6.449   7.517 -0.2989  0.3513  2.8201
   15MOL0     H 2065   1.149   6.622   7.476 -2.8150 -0.3822  3.8295
   15MOL0     H 2066   1.417   6.627   7.801  1.9136 -1.5127 -1.0837
   15MOL0     H 2067   1.260   6.691   6.981  0.7645 -0.3843  3.1810
   15MOL0     H 2068   0.982   6.781   6.738 -0.0263 -1.2944 -0.2893
   15MOL0     H 2069   1.156   6.758   6.721  1.3342 -0.9790  2.5333
   15MOL0     H 2070   1.057   6.650   6.835 -0.7216 -0.2559  0.1109
   16MOL0     O 2071   6.232   1.907   7.201  0.2133  0.5218  0.4300
   16MOL0     C 2072   6.129   1.974   7.229 -1.4605 -0.3697  0.6040
   16MOL0     O 2073   6.091   2.095   7.164  0.2266 -0.8042  0.0489
   16MOL0     C 2074   6.154   2.170   7.064  0.1639  0.6303 -1.3130
   16MOL0     C 2075   6.259   2.116   6.994  0.3410 -0.5977  0.7049
   16MOL0     C 2076   6.346   2.189   6.913  1.0897  0.8800  0.4257
   16MOL0     C 2077   6.313   2.326   6.895 -1.7878 -0.4040 -0.0900
   16MOL0     O 2078   6.380   2.408   6.806  0.2009 -1.1258  0.0384
   16MOL0     C 2079   6.474   2.347   6.718  0.1033  0.6083 -0.5511
   16MOL0     C 2080   6.415   2.253   6.608  0.1324  1.3774 -0.1195
   16MOL0     C 2081   6.530   2.190   6.522 -0.0675 -0.8204  0.3667
   16MOL0     C 2082   6.610   2.081   6.585  0.8478  0.8900 -0.5703
   16MOL0     C 2083   6.703   1.998   6.480 -0.4334 -0.3709  0.2260
   16MOL0     C 2084   6.819   2.072   6.409 -0.3227  0.7327  0.3041
   16MOL0     C 2085   6.834   2.043   6.266  0.1569  0.5262  0.3508
   16MOL0     C 2086   6.740   2.132   6.184 -0.2571  0.9364 -0.7528
   16MOL0     N 2087   6.779   2.109   6.048  0.6890 -0.8642  0.5726
   16MOL0     C 2088   6.853   2.197   5.973 -1.0561 -0.4140  0.0877
   16MOL0     C 2089   6.818   2.175   5.845  0.2174  0.1424  0.7302
   16MOL0     C 2090   6.878   2.242   5.728 -0.0893  0.3520 -0.3050
   16MOL0     C 2091   6.785   2.242   5.597  0.3733  0.8050  1.1697
   16MOL0     C 2092   6.854   2.306   5.476  0.2478 -0.1100 -0.8405
   16MOL0     C 2093   6.789   2.283   5.339 -0.1862  0.7657  0.2558
   16MOL0     O 2094   6.797   2.143   5.314  0.3084  0.9333  0.0375
   16MOL0     C 2095   6.781   2.103   5.185 -0.4935  0.2227 -0.5542
   16MOL0     C 2096   6.880   2.032   5.124 -0.0234 -0.2264  0.4837
   16MOL0     C 2097   6.875   2.007   4.987  1.0681 -1.1385 -0.3209
   16MOL0     C 2098   6.995   1.928   4.932  0.3796 -0.4019 -0.4941
   16MOL0     C 2099   6.758   2.055   4.917  0.4396  0.1135  0.2764
   16MOL0     C 2100   6.759   2.048   4.769  0.7291  0.1009  0.9702
   16MOL0     O 2101   6.776   1.923   4.713  0.4440  0.4703 -0.1220
   16MOL0     C 2102   6.774   1.926   4.574 -0.0132 -0.6555  0.5510
   16MOL0     C 2103   6.888   1.908   4.500  0.4192 -0.9134 -0.3637
   16MOL0     C 2104   6.889   1.905   4.365  0.3518 -0.1376  0.6579
   16MOL0     C 2105   6.773   1.921   4.292  0.2426  0.7472 -0.7808
   16MOL0     O 2106   6.773   1.920   4.156 -0.2580  0.7668  0.3406
   16MOL0     C 2107   6.880   1.965   4.081 -1.2728  0.3474 -0.2855
   16MOL0     C 2108   6.888   2.112   4.063 -0.3763  0.3206 -0.6067
   16MOL0     C 2109   6.778   2.188   3.982 -0.0943 -0.9964  0.0959
   16MOL0     C 2110   6.790   2.145   3.838  0.7400  0.5083  0.1550
   16MOL0     C 2111   6.701   2.248   3.766  0.3259  0.3213 -0.3518
   16MOL0     C 2112   6.709   2.233   3.615  0.7040 -0.8169 -0.2847
   16MOL0     C 2113   6.611   2.114   3.569 -0.4622 -0.3645  0.7291
   16MOL0     C 2114   6.590   2.101   3.416  0.0538  0.3871  0.3274
   16MOL0    Cl 2115   6.707   2.025   3.316  0.1313 -0.0095  0.3576
   16MOL0     C 2116   6.651   1.922   4.364 -1.2616  1.4271 -0.4576
   16MOL0     C 2117   6.651   1.916   4.506 -0.0411  0.2930 -0.7867
   16MOL0     O 2118   6.741   2.151   4.709  0.2065  0.3340 -0.4440
   16MOL0     C 2119   6.655   2.119   4.981  0.1930 -0.1785  0.9078
   16MOL0     C 2120   6.667   2.135   5.116  0.5315 -0.2075  0.4104
   16MOL0     N 2121   6.733   2.056   5.838  0.0912 -0.3185  0.0447
   16MOL0     N 2122   6.705   2.026   5.967  0.5389  0.2095  0.0581
   16MOL0     C 2123   6.207   2.379   6.956  0.2960 -0.7766 -0.1489
   16MOL0     C 2124   6.129   2.312   7.045  1.0502 -0.1266  1.0393
   16MOL0     C 2125   6.029   1.926   7.325  0.7002  0.5601  0.5513
   16MOL0     C 2126   5.908   1.997   7.337 -0.2147 -0.3923 -0.6835
   16MOL0     C 2127   5.809   1.960   7.432  0.4765  0.5781  0.1303
   16MOL0     C 2128   5.836   1.848   7.514  0.2798 -0.1177  0.4868
   16MOL0     O 2129   5.751   1.795   7.609  0.2803 -0.1597 -0.2332
   16MOL0     C 2130   5.619   1.853   7.621 -0.0676 -0.0508 -0.0595
   16MOL0     C 2131   5.519   1.735   7.648  0.0473 -1.0112  0.3950
   16MOL0     C 2132   5.549   1.656   7.777  0.3723 -0.4758  0.4564
   16MOL0     C 2133   5.553   1.752   7.904  0.0403 -0.2194  0.4514
   16MOL0     C 2134   5.538   1.674   8.028  0.0138  0.0744  0.6151
   16MOL0     C 2135   5.514   1.620   8.134  0.3308 -0.2833 -0.3122
   16MOL0     C 2136   5.945   1.778   7.495 -0.3845  0.6614 -0.1587
   16MOL0     C 2137   6.048   1.808   7.405 -0.9687  0.5539 -0.1462
   16MOL0     C 2138   6.159   1.705   7.407 -0.1626 -0.8758 -0.0941
   16MOL0     H 2139   6.284   2.011   6.982 -0.4138 -0.6024 -1.2412
   16MOL0     H 2140   6.434   2.148   6.865 -1.5891  0.6642 -5.1142
   16MOL0     H 2141   6.563   2.303   6.764  1.3716  0.0831 -3.2879
   16MOL0     H 2142   6.510   2.437   6.668 -2.5225  2.3676  0.5009
   16MOL0     H 2143   6.371   2.167   6.658  4.6108 -0.3754  1.3666
   16MOL0     H 2144   6.343   2.291   6.535  3.2702  3.2073 -2.5647
   16MOL0     H 2145   6.495   2.151   6.426  2.4418 -0.4370 -0.7956
   16MOL0     H 2146   6.603   2.266   6.493  0.0452  0.0447  2.7286
   16MOL0     H 2147   6.663   2.121   6.672 -0.4928 -0.4243  0.9188
   16MOL0     H 2148   6.537   2.016   6.634  0.5917  2.2047  0.8568
   16MOL0     H 2149   6.635   1.960   6.403 -0.1387 -0.3613 -0.0426
   16MOL0     H 2150   6.742   1.904   6.520  1.3755  0.4125  0.3952
   16MOL0     H 2151   6.804   2.179   6.425  1.7030  0.8940  1.3469
   16MOL0     H 2152   6.913   2.041   6.455 -0.0149  1.5447  0.2330
   16MOL0     H 2153   6.819   1.936   6.253 -1.1257  0.7724 -0.4175
   16MOL0     H 2154   6.934   2.073   6.233 -0.5839  3.1450  0.2115
   16MOL0     H 2155   6.639   2.090   6.183  0.3178 -0.4790 -1.2646
   16MOL0     H 2156   6.731   2.236   6.217 -1.5728  1.3248 -2.1680
   16MOL0     H 2157   6.926   2.271   6.003 -0.6655 -1.4246  1.8204
   16MOL0     H 2158   6.976   2.200   5.704  0.0322  2.1450 -3.4494
   16MOL0     H 2159   6.894   2.346   5.758 -0.0773  1.0999 -2.7276
   16MOL0     H 2160   6.754   2.144   5.561  2.3402  0.8401 -0.7654
   16MOL0     H 2161   6.692   2.294   5.622 -0.8701 -0.9099  0.2960
   16MOL0     H 2162   6.848   2.415   5.489  0.7180 -0.4213  2.9572
   16MOL0     H 2163   6.957   2.269   5.467  0.1379 -0.1657 -2.1290
   16MOL0     H 2164   6.685   2.314   5.348  0.5077  4.0335 -1.3403
   16MOL0     H 2165   6.836   2.346   5.263  3.2656  0.0128  1.5905
   16MOL0     H 2166   6.964   2.012   5.190 -2.0484  0.8394  3.6258
   16MOL0     H 2167   7.065   2.003   4.896 -1.9450  1.5169 -1.3391
   16MOL0     H 2168   6.982   1.862   4.846  1.4216 -0.0839 -0.9136
   16MOL0     H 2169   7.037   1.866   5.012  0.3111  0.9795  0.6537
   16MOL0     H 2170   6.985   1.905   4.546  0.8766 -0.2640 -1.2580
   16MOL0     H 2171   6.980   1.885   4.309  1.8768  0.6910  2.7100
   16MOL0     H 2172   6.977   1.917   4.101 -0.7505  0.5396 -2.1226
   16MOL0     H 2173   6.855   1.928   3.981 -3.4361  2.9294 -0.8079
   16MOL0     H 2174   6.886   2.160   4.161  1.3113  1.4723 -1.0892
   16MOL0     H 2175   6.988   2.139   4.025  0.2355  0.5103  1.0588
   16MOL0     H 2176   6.792   2.294   4.004 -0.9910 -1.2976  2.4414
   16MOL0     H 2177   6.681   2.163   4.027  0.0054 -0.2820  0.7244
   16MOL0     H 2178   6.757   2.042   3.818 -0.3078  1.0231 -0.8967
   16MOL0     H 2179   6.892   2.148   3.800  1.6718  1.3028  2.5623
   16MOL0     H 2180   6.598   2.235   3.798  0.0170 -0.1295 -1.4760
   16MOL0     H 2181   6.750   2.344   3.782  1.0949 -0.3309  1.4765
   16MOL0     H 2182   6.813   2.211   3.587 -0.0374 -1.4076 -2.7365
   16MOL0     H 2183   6.682   2.325   3.562  0.4868 -0.8254 -0.1889
   16MOL0     H 2184   6.512   2.145   3.605 -0.7702  0.0581 -0.4502
   16MOL0     H 2185   6.640   2.021   3.618  0.5827  0.3925  1.6144
   16MOL0     H 2186   6.573   2.197   3.367  1.0615  0.7891  0.7386
   16MOL0     H 2187   6.494   2.048   3.408 -0.4422  0.6302  3.3378
   16MOL0     H 2188   6.558   1.931   4.310 -1.3644 -0.2446 -0.6108
   16MOL0     H 2189   6.561   1.912   4.566 -0.0403 -0.8220 -0.8433
   16MOL0     H 2190   6.566   2.149   4.927  1.9036  1.0156 -1.4021
   16MOL0     H 2191   6.579   2.182   5.159  1.8364  1.4663  1.3579
   16MOL0     H 2192   6.191   2.485   6.939  3.0150 -0.0327  1.2834
   16MOL0     H 2193   6.045   2.361   7.093 -0.1154  1.7524 -2.5344
   16MOL0     H 2194   5.885   2.087   7.280  0.8143  1.0124  1.0022
   16MOL0     H 2195   5.724   2.027   7.439 -1.0411 -0.9602 -2.3392
   16MOL0     H 2196   5.605   1.928   7.700 -2.0561 -1.8815  1.4612
   16MOL0     H 2197   5.588   1.902   7.528  1.1153 -2.8697 -2.0736
   16MOL0     H 2198   5.511   1.665   7.565  0.8730  1.2968 -1.7697
   16MOL0     H 2199   5.429   1.792   7.673  0.4419  0.5576 -1.4246
   16MOL0     H 2200   5.470   1.583   7.798 -0.4576  1.1589  3.5809
   16MOL0     H 2201   5.644   1.602   7.771  1.9205  2.2120 -0.8811
   16MOL0     H 2202   5.465   1.817   7.895  0.6411  0.3255 -2.5465
   16MOL0     H 2203   5.642   1.814   7.905  0.9703 -1.4938 -0.3173
   16MOL0     H 2204   5.495   1.581   8.232  4.7791  1.8889  1.6701
   16MOL0     H 2205   5.950   1.682   7.547 -0.9918 -0.3892 -1.9329
   16MOL0     H 2206   6.151   1.658   7.309  2.1112  1.7804 -1.6840
   16MOL0     H 2207   6.259   1.748   7.408 -1.1867  1.6971  0.0689
   16MOL0     H 2208   6.148   1.627   7.483 -0.4450  0.6006  1.4564
   17MOL0     O 2209   4.595   1.639   0.021  0.3569 -0.3257 -0.3781
   17MOL0     C 2210   4.583   1.721   0.117  0.5465  1.2337 -0.6998
   17MOL0     O 2211   4.601   1.853   0.118 -0.7983  0.4858  0.6678
   17MOL0     C 2212   4.635   1.942   0.014  0.7102  0.3928  0.0802
   17MOL0     C 2213   4.676   1.899  -0.112 -0.7446 -0.0484  0.0814
   17MOL0     C 2214   4.722   1.996  -0.213 -0.0809 -0.1313  1.0384
   17MOL0     C 2215   4.714   2.135  -0.195  0.4808 -0.2434 -0.2810
   17MOL0     O 2216   4.760   2.239  -0.273  0.4692  0.2669 -0.4605
   17MOL0     C 2217   4.763   2.211  -0.415 -0.3377  0.0157  0.5375
   17MOL0     C 2218   4.644   2.280  -0.486 -1.0841 -0.3051 -0.5410
   17MOL0     C 2219   4.638   2.241  -0.634  0.6511  0.1068  0.5024
   17MOL0     C 2220   4.541   2.346  -0.695 -0.6255  0.8469 -0.2268
   17MOL0     C 2221   4.503   2.305  -0.839 -0.1444  0.1685  0.3615
   17MOL0     C 2222   4.596   2.227  -0.939  0.0284  0.1023  0.6115
   17MOL0     C 2223   4.528   2.159  -1.061 -0.2608 -0.4721 -0.5077
   17MOL0     C 2224   4.515   2.267  -1.167 -0.7243 -0.0363  0.6049
   17MOL0     N 2225   4.640   2.314  -1.234  0.4538  0.5780 -0.3087
   17MOL0     C 2226   4.717   2.239  -1.320 -0.9813  0.0323 -0.5603
   17MOL0     C 2227   4.818   2.314  -1.352 -0.6974  0.1489  0.2244
   17MOL0     C 2228   4.936   2.259  -1.434  0.9174  0.4429 -0.3257
   17MOL0     C 2229   4.902   2.246  -1.579  0.0147  0.1560 -0.0188
   17MOL0     C 2230   4.915   2.380  -1.641  1.0483  0.0503 -0.3830
   17MOL0     C 2231   4.889   2.381  -1.794  0.9904  0.9410  0.2354
   17MOL0     O 2232   4.894   2.519  -1.836 -0.4450  0.0642  0.9442
   17MOL0     C 2233   5.002   2.556  -1.907 -0.6783 -0.4429  0.6861
   17MOL0     C 2234   5.126   2.606  -1.860 -0.5307 -0.4684 -0.6738
   17MOL0     C 2235   5.236   2.659  -1.946  0.9292 -0.9337 -0.2742
   17MOL0     C 2236   5.358   2.709  -1.880  0.4936  0.3418 -1.0501
   17MOL0     C 2237   5.218   2.655  -2.093 -0.2196 -0.8787 -0.3900
   17MOL0     C 2238   5.322   2.693  -2.196 -0.1649  0.4577  0.0686
   17MOL0     O 2239   5.427   2.776  -2.159 -0.6111  0.7600 -1.0694
   17MOL0     C 2240   5.514   2.817  -2.259 -0.1845 -0.2795 -0.2797
   17MOL0     C 2241   5.653   2.801  -2.245  0.5464 -0.9534  0.2981
   17MOL0     C 2242   5.739   2.843  -2.341 -0.2639  0.0202  0.0811
   17MOL0     C 2243   5.694   2.899  -2.461 -0.3742  0.0024  0.1260
   17MOL0     O 2244   5.788   2.948  -2.549 -0.5612  1.2507  0.8056
   17MOL0     C 2245   5.733   3.012  -2.665 -0.5742  0.0412  0.1619
   17MOL0     C 2246   5.859   3.062  -2.741 -0.0756 -0.3774  0.0769
   17MOL0     C 2247   5.805   3.144  -2.861 -0.0701 -0.3886 -0.3407
   17MOL0     C 2248   5.927   3.210  -2.924 -0.2773  0.3595  0.5395
   17MOL0     C 2249   5.883   3.338  -3.000  0.5011 -0.2325  0.2220
   17MOL0     C 2250   5.820   3.446  -2.918  0.3857 -0.3645 -0.4114
   17MOL0     C 2251   5.912   3.563  -2.903 -0.8058 -0.6002  0.5545
   17MOL0     C 2252   5.862   3.712  -2.893  0.7317  0.6474  0.2939
   17MOL0    Cl 2253   5.812   3.765  -3.049 -0.2049 -0.4200 -0.0958
   17MOL0     C 2254   5.556   2.911  -2.480  0.9864 -0.5032 -0.1965
   17MOL0     C 2255   5.470   2.872  -2.378 -1.2803  0.0096  0.7154
   17MOL0     O 2256   5.301   2.646  -2.304  0.3480  0.4851  0.8915
   17MOL0     C 2257   5.097   2.602  -2.139  0.1110 -0.0797 -0.6768
   17MOL0     C 2258   4.990   2.568  -2.048 -0.0350  0.6483 -0.5281
   17MOL0     N 2259   4.795   2.438  -1.306  0.7019 -0.1829  0.2498
   17MOL0     N 2260   4.679   2.444  -1.241 -0.1457  0.2892  1.1640
   17MOL0     C 2261   4.661   2.175  -0.071 -0.0279  0.2441 -0.1239
   17MOL0     C 2262   4.621   2.078   0.030  0.8355 -0.7068  0.9916
   17MOL0     C 2263   4.547   1.672   0.251 -0.0664  0.5224  0.0180
   17MOL0     C 2264   4.467   1.759   0.335  0.4164  0.2599  0.3261
   17MOL0     C 2265   4.424   1.726   0.456 -0.5893  0.1707 -0.9198
   17MOL0     C 2266   4.462   1.601   0.509  0.3330 -0.4738 -0.7806
   17MOL0     O 2267   4.425   1.560   0.634  0.2877  0.0959  0.0745
   17MOL0     C 2268   4.489   1.625   0.752  0.1355  0.2450 -0.3082
   17MOL0     C 2269   4.498   1.549   0.884  0.0822  0.4395  0.4372
   17MOL0     C 2270   4.492   1.388   0.867  0.4815 -0.0621  0.1256
   17MOL0     C 2271   4.632   1.350   0.817 -0.8236  0.3619 -0.9998
   17MOL0     C 2272   4.721   1.365   0.937 -0.4433 -0.4600 -0.7198
   17MOL0     C 2273   4.784   1.382   1.042  0.2519 -0.2903  0.1331
   17MOL0     C 2274   4.539   1.521   0.425  0.3310 -0.0439 -0.3683
   17MOL0     C 2275   4.584   1.545   0.301 -0.5987  0.2824  0.5601
   17MOL0     C 2276   4.677   1.435   0.232  0.8149  0.4459  0.9926
   17MOL0     H 2277   4.660   1.794  -0.134 -0.1346 -0.1291  0.0108
   17MOL0     H 2278   4.768   1.953  -0.301  3.1696 -1.3673  3.1411
   17MOL0     H 2279   4.766   2.105  -0.443  1.7901 -0.1473  1.1976
   17MOL0     H 2280   4.856   2.256  -0.452  0.0222 -1.0441  0.1017
   17MOL0     H 2281   4.556   2.255  -0.427  0.6348 -1.7693  1.5768
   17MOL0     H 2282   4.667   2.386  -0.467 -2.3362 -0.0967 -0.1203
   17MOL0     H 2283   4.734   2.254  -0.686 -0.0393 -0.3744 -0.9548
   17MOL0     H 2284   4.598   2.140  -0.627 -0.6044  0.4110 -1.4603
   17MOL0     H 2285   4.454   2.353  -0.630 -1.3196 -1.1888 -0.8574
   17MOL0     H 2286   4.590   2.444  -0.697  3.0766 -0.8253 -1.8047
   17MOL0     H 2287   4.463   2.394  -0.887  0.5220  0.8117  0.9723
   17MOL0     H 2288   4.414   2.244  -0.821 -0.3040  1.0206  2.9184
   17MOL0     H 2289   4.670   2.298  -0.974 -1.4775  1.6394  0.4021
   17MOL0     H 2290   4.650   2.150  -0.882 -0.8252  0.4751  1.9841
   17MOL0     H 2291   4.432   2.117  -1.030 -1.2905 -0.3036 -3.2224
   17MOL0     H 2292   4.595   2.084  -1.105 -0.4199 -0.0726 -1.4503
   17MOL0     H 2293   4.439   2.224  -1.232 -0.3751  0.1431  0.0764
   17MOL0     H 2294   4.480   2.361  -1.124 -0.5059  1.3013 -1.9545
   17MOL0     H 2295   4.700   2.132  -1.333  1.4957 -0.6456  1.0654
   17MOL0     H 2296   4.948   2.155  -1.402  2.7379  1.3319  2.2003
   17MOL0     H 2297   5.035   2.303  -1.416  1.7473 -1.1588 -0.7516
   17MOL0     H 2298   4.970   2.172  -1.623  1.0030  1.5392 -0.9069
   17MOL0     H 2299   4.799   2.210  -1.582 -0.3988  0.7939  3.0454
   17MOL0     H 2300   4.857   2.459  -1.591 -0.2912 -1.7834  1.1185
   17MOL0     H 2301   5.017   2.416  -1.628  1.4110 -1.0971  0.0638
   17MOL0     H 2302   4.969   2.329  -1.847  2.1612  0.6550  2.1935
   17MOL0     H 2303   4.797   2.334  -1.832  0.2676  3.8549 -1.9961
   17MOL0     H 2304   5.119   2.598  -1.752  0.2344  0.7119 -0.5162
   17MOL0     H 2305   5.394   2.803  -1.922  1.1896  0.4618 -0.1997
   17MOL0     H 2306   5.434   2.632  -1.896 -1.2365 -1.1335 -2.7657
   17MOL0     H 2307   5.342   2.721  -1.773 -2.1824 -2.1881 -1.0375
   17MOL0     H 2308   5.688   2.759  -2.152 -3.6502 -3.3212  1.0709
   17MOL0     H 2309   5.845   2.823  -2.332 -0.3203 -0.1911  0.2829
   17MOL0     H 2310   5.684   2.941  -2.732  0.1413  1.0771 -1.5208
   17MOL0     H 2311   5.688   3.109  -2.641  2.4010  0.8252  3.5024
   17MOL0     H 2312   5.922   3.130  -2.684 -4.5805  4.6300 -0.1084
   17MOL0     H 2313   5.916   2.980  -2.784 -0.3141  0.1752 -1.3296
   17MOL0     H 2314   5.723   3.211  -2.837  0.7459  1.8844 -3.2389
   17MOL0     H 2315   5.760   3.076  -2.934 -1.4815 -0.0825  0.2284
   17MOL0     H 2316   5.979   3.152  -3.001  0.1164  0.1664  0.9469
   17MOL0     H 2317   6.001   3.238  -2.848 -2.6828 -1.1851  3.7267
   17MOL0     H 2318   5.968   3.382  -3.053  0.7485  1.1068  1.6636
   17MOL0     H 2319   5.817   3.310  -3.083 -0.7669  1.2663  0.6743
   17MOL0     H 2320   5.795   3.418  -2.815  1.0415 -0.7414 -0.3499
   17MOL0     H 2321   5.730   3.482  -2.968 -0.9154 -1.1089  1.2856
   17MOL0     H 2322   5.998   3.549  -2.969 -0.0036 -0.3115  1.5082
   17MOL0     H 2323   5.958   3.544  -2.805  0.7639  0.4035  0.0449
   17MOL0     H 2324   5.943   3.779  -2.864  1.7339  0.6606 -2.2479
   17MOL0     H 2325   5.789   3.722  -2.812  1.1484 -0.8139  0.8957
   17MOL0     H 2326   5.518   2.942  -2.577  2.3496  2.2369  0.0544
   17MOL0     H 2327   5.361   2.879  -2.384 -1.5441 -2.4195  1.5745
   17MOL0     H 2328   5.084   2.601  -2.247  0.3058 -1.0788 -0.6984
   17MOL0     H 2329   4.894   2.544  -2.092  0.7594  1.5274 -2.9186
   17MOL0     H 2330   4.656   2.282  -0.053  0.4910  0.0140  1.5959
   17MOL0     H 2331   4.579   2.107   0.126  1.9307  0.8068  1.0657
   17MOL0     H 2332   4.427   1.850   0.290  0.1564 -0.4532 -0.9181
   17MOL0     H 2333   4.352   1.784   0.511 -0.4149 -0.1249 -0.3676
   17MOL0     H 2334   4.585   1.662   0.717  0.3496  2.5467  2.3454
   17MOL0     H 2335   4.431   1.718   0.756  0.6189  0.5630 -0.6575
   17MOL0     H 2336   4.413   1.581   0.945  0.2657  0.5017  0.6645
   17MOL0     H 2337   4.592   1.580   0.931 -0.0197 -1.4643  2.0523
   17MOL0     H 2338   4.473   1.342   0.964  1.4019  1.5292  1.1040
   17MOL0     H 2339   4.418   1.359   0.791  2.7576  0.4764 -2.4718
   17MOL0     H 2340   4.669   1.402   0.728  3.6364 -3.0280 -1.4554
   17MOL0     H 2341   4.639   1.242   0.808  1.5790  0.4206 -0.2618
   17MOL0     H 2342   4.837   1.389   1.135  0.2670 -2.9240  0.4032
   17MOL0     H 2343   4.559   1.427   0.474  0.2894  0.3128  0.3388
   17MOL0     H 2344   4.769   1.486   0.203  1.5872 -1.4604 -0.0644
   17MOL0     H 2345   4.708   1.358   0.303 -1.7472 -0.8921  0.7806
   17MOL0     H 2346   4.630   1.408   0.137  3.1115 -0.5144  0.0696
   18MOL0     O 2347  11.267   4.101   9.030  0.9114  0.1657 -0.7359
   18MOL0     C 2348  11.323   4.201   8.990 -0.0313 -0.0470 -0.4833
   18MOL0     O 2349  11.261   4.287   8.905  0.5612 -0.4190 -0.3957
   18MOL0     C 2350  11.174   4.236   8.813 -0.7449 -1.0013  0.6583
   18MOL0     C 2351  11.116   4.339   8.736 -0.7620 -0.8828 -0.0989
   18MOL0     C 2352  11.038   4.308   8.630  0.6950  0.5753  0.5986
   18MOL0     C 2353  11.013   4.181   8.584 -0.8755 -0.1727 -0.1037
   18MOL0     O 2354  10.935   4.166   8.478 -0.4899 -0.1325 -0.5931
   18MOL0     C 2355  10.845   4.056   8.472 -0.3536 -0.5424  0.5386
   18MOL0     C 2356  10.770   4.064   8.332 -0.2412 -1.3210  0.1896
   18MOL0     C 2357  10.872   4.044   8.223 -0.6848  0.1843 -0.7257
   18MOL0     C 2358  10.812   4.016   8.088  0.1295  0.0426  0.9869
   18MOL0     C 2359  10.898   3.923   8.007 -0.5128 -0.5038  0.1411
   18MOL0     C 2360  10.874   3.771   8.027  0.0727  0.6930  0.1922
   18MOL0     C 2361  10.998   3.690   7.975 -0.6674  0.7825 -0.2058
   18MOL0     C 2362  11.133   3.712   8.044  0.7648 -0.1579 -0.2226
   18MOL0     N 2363  11.250   3.648   7.970  0.0914 -0.3568 -1.0951
   18MOL0     C 2364  11.278   3.657   7.831  0.3334 -0.1768 -0.2757
   18MOL0     C 2365  11.388   3.575   7.811  0.4897  0.1382 -1.0210
   18MOL0     C 2366  11.452   3.566   7.680 -0.5315 -0.5353 -0.1609
   18MOL0     C 2367  11.426   3.427   7.608 -0.2784 -0.1300  0.0533
   18MOL0     C 2368  11.509   3.448   7.475  0.2550  0.2888 -0.2215
   18MOL0     C 2369  11.506   3.311   7.408 -0.6302  0.1243 -0.3594
   18MOL0     O 2370  11.612   3.228   7.471  0.0342  0.0135  0.1934
   18MOL0     C 2371  11.644   3.110   7.416 -0.1669  0.0588 -0.5278
   18MOL0     C 2372  11.757   3.040   7.470 -0.2805 -0.9326  0.3153
   18MOL0     C 2373  11.794   2.916   7.425 -0.2598  0.3508  0.0110
   18MOL0     C 2374  11.923   2.864   7.482  0.0337  0.3875 -0.8264
   18MOL0     C 2375  11.720   2.859   7.320 -0.2140 -0.0149 -0.6304
   18MOL0     C 2376  11.750   2.721   7.283  0.4492 -1.2164  0.4668
   18MOL0     O 2377  11.706   2.681   7.159 -0.7674  0.4021  0.3443
   18MOL0     C 2378  11.706   2.549   7.101 -0.6791 -0.5695  0.8816
   18MOL0     C 2379  11.655   2.545   6.971  0.4692  0.0100 -0.2474
   18MOL0     C 2380  11.662   2.428   6.900 -0.3611 -0.0259 -0.0179
   18MOL0     C 2381  11.707   2.310   6.956 -0.0195  0.1111 -0.7870
   18MOL0     O 2382  11.720   2.196   6.877  0.2184 -0.7092 -0.6854
   18MOL0     C 2383  11.745   2.070   6.939 -0.3070 -0.0333 -0.6980
   18MOL0     C 2384  11.761   1.937   6.846  0.0901 -0.7964 -1.6313
   18MOL0     C 2385  11.870   1.946   6.749 -0.7366  0.0257 -0.3903
   18MOL0     C 2386  11.974   1.839   6.777 -0.7605 -0.6847  0.2275
   18MOL0     C 2387  12.070   1.851   6.651 -0.8657  0.8082 -0.3088
   18MOL0     C 2388  12.183   1.743   6.680  0.6326 -0.9780  0.3337
   18MOL0     C 2389  12.211   1.665   6.552  0.9067  0.3328 -0.0161
   18MOL0     C 2390  12.353   1.620   6.527  0.0436  0.3455 -0.2808
   18MOL0    Cl 2391  12.355   1.534   6.374  0.0090 -0.0880  0.2192
   18MOL0     C 2392  11.738   2.311   7.090 -0.3167 -0.4559  0.6999
   18MOL0     C 2393  11.744   2.432   7.163  0.4875  0.0255 -0.2005
   18MOL0     O 2394  11.817   2.657   7.366  0.1663  0.5555  0.0828
   18MOL0     C 2395  11.607   2.922   7.267 -0.0134 -0.5383  0.2560
   18MOL0     C 2396  11.572   3.051   7.305 -0.0983 -0.4785  0.0388
   18MOL0     N 2397  11.431   3.534   7.941 -0.0398 -0.4489 -0.0678
   18MOL0     N 2398  11.348   3.577   8.031  0.2148 -0.0438  0.0397
   18MOL0     C 2399  11.076   4.077   8.655 -0.1311  0.3528 -0.1464
   18MOL0     C 2400  11.155   4.107   8.766 -0.8146  0.3704 -0.2426
   18MOL0     C 2401  11.457   4.225   9.032 -0.2650 -0.8524  0.5232
   18MOL0     C 2402  11.507   4.359   9.015 -0.6552 -0.1101  0.3081
   18MOL0     C 2403  11.638   4.396   9.047  0.0581 -0.0034 -0.3265
   18MOL0     C 2404  11.726   4.301   9.093  0.2275  0.2084 -0.3174
   18MOL0     O 2405  11.857   4.343   9.115 -0.4335  0.0632  0.2389
   18MOL0     C 2406  11.958   4.247   9.149 -0.3825  0.2969  1.2590
   18MOL0     C 2407  12.103   4.300   9.141  0.5263 -0.4550  0.6392
   18MOL0     C 2408  12.134   4.327   8.996 -0.7637 -0.0233  0.0139
   18MOL0     C 2409  12.178   4.478   8.982  0.5116  0.6205  0.2844
   18MOL0     C 2410  12.062   4.568   9.003 -0.0145  0.6233 -0.0533
   18MOL0     C 2411  11.963   4.641   9.017  0.4775  0.6429  0.4277
   18MOL0     C 2412  11.671   4.168   9.116  0.3857 -0.2240 -0.2823
   18MOL0     C 2413  11.549   4.128   9.086  0.3318  0.2250  0.0124
   18MOL0     C 2414  11.525   3.983   9.110 -0.4043 -0.4133 -0.1301
   18MOL0     H 2415  11.142   4.440   8.765 -0.3777 -1.5048  1.8974
   18MOL0     H 2416  11.003   4.396   8.576 -0.2449 -0.9724 -1.4663
   18MOL0     H 2417  10.762   4.074   8.542 -0.6384  1.9332 -0.3258
   18MOL0     H 2418  10.906   3.967   8.486  4.1784  2.2015  0.1111
   18MOL0     H 2419  10.699   3.982   8.325 -2.1369  0.3053 -0.5319
   18MOL0     H 2420  10.726   4.164   8.321 -0.7408 -1.5164  0.4255
   18MOL0     H 2421  10.941   4.129   8.216 -0.0529 -0.0867  1.3856
   18MOL0     H 2422  10.936   3.963   8.261 -2.6247 -0.6655  0.9213
   18MOL0     H 2423  10.723   3.955   8.103  1.4938 -3.1051 -2.2055
   18MOL0     H 2424  10.779   4.110   8.044 -2.5377 -0.6148  1.4344
   18MOL0     H 2425  11.001   3.949   8.033 -0.8764 -1.0465  2.3533
   18MOL0     H 2426  10.874   3.937   7.901  1.9879 -1.1808 -0.5836
   18MOL0     H 2427  10.859   3.746   8.132 -1.5283  1.7920  0.2540
   18MOL0     H 2428  10.781   3.744   7.976  0.5716  0.8812 -0.8371
   18MOL0     H 2429  11.008   3.710   7.868  1.1114  1.7979  0.1242
   18MOL0     H 2430  10.968   3.585   7.982 -1.4949  1.1001  1.5158
   18MOL0     H 2431  11.156   3.813   8.076 -0.7844  0.1183  0.0830
   18MOL0     H 2432  11.126   3.667   8.143  0.3635 -1.6720 -0.9054
   18MOL0     H 2433  11.230   3.718   7.755  2.4271 -0.3342 -1.8090
   18MOL0     H 2434  11.557   3.587   7.704 -0.6081 -1.7632  1.4318
   18MOL0     H 2435  11.416   3.654   7.626 -1.0676  1.1791  2.8072
   18MOL0     H 2436  11.467   3.352   7.676  0.9242 -4.0970 -4.4886
   18MOL0     H 2437  11.320   3.402   7.596  0.5639 -2.6771 -3.9282
   18MOL0     H 2438  11.467   3.537   7.427 -1.6361 -0.3241  0.1938
   18MOL0     H 2439  11.614   3.472   7.494 -0.3153  0.8862  2.5598
   18MOL0     H 2440  11.404   3.272   7.398  0.5995 -3.1670 -1.2984
   18MOL0     H 2441  11.529   3.334   7.304 -1.6315 -2.5226 -1.2483
   18MOL0     H 2442  11.813   3.099   7.542 -1.4614  1.1189 -0.3274
   18MOL0     H 2443  11.978   2.795   7.417  0.5813 -0.1346  0.1652
   18MOL0     H 2444  11.898   2.799   7.567  1.9597  0.6682  0.0011
   18MOL0     H 2445  11.990   2.943   7.516 -0.9617  0.8669  0.0860
   18MOL0     H 2446  11.613   2.640   6.939  0.7667  0.9684  2.0422
   18MOL0     H 2447  11.612   2.422   6.804 -1.6598  0.6168  0.6027
   18MOL0     H 2448  11.837   2.077   6.998  0.2420 -2.0207 -1.2567
   18MOL0     H 2449  11.660   2.047   7.004  2.0850 -3.6019  1.4808
   18MOL0     H 2450  11.769   1.852   6.914 -1.6837  0.0013 -0.3234
   18MOL0     H 2451  11.668   1.927   6.790 -2.2147  2.0021  1.3031
   18MOL0     H 2452  11.923   2.042   6.759 -2.3643  0.8539  0.7354
   18MOL0     H 2453  11.837   1.922   6.647 -3.5866 -1.7786  0.8523
   18MOL0     H 2454  11.932   1.738   6.782 -1.4348 -0.4174  0.1068
   18MOL0     H 2455  12.039   1.867   6.861 -1.6270  0.1236  0.6534
   18MOL0     H 2456  12.020   1.825   6.557 -0.2157 -3.7128  0.3586
   18MOL0     H 2457  12.123   1.946   6.644  0.1048  0.2290 -0.9858
   18MOL0     H 2458  12.174   1.677   6.767  3.9792 -2.1942 -0.1137
   18MOL0     H 2459  12.270   1.805   6.704 -2.0097  2.7104  1.4619
   18MOL0     H 2460  12.173   1.719   6.465 -0.3181 -3.4434 -2.0845
   18MOL0     H 2461  12.138   1.583   6.557 -0.4528  1.5004 -0.1165
   18MOL0     H 2462  12.386   1.554   6.608  0.0188 -1.2156 -1.4893
   18MOL0     H 2463  12.413   1.711   6.522 -0.0265  0.4828  0.9763
   18MOL0     H 2464  11.743   2.214   7.140  0.2186 -1.1382 -0.6149
   18MOL0     H 2465  11.771   2.437   7.268  0.8771 -0.6666 -0.2605
   18MOL0     H 2466  11.550   2.878   7.186  2.1568 -1.1113 -1.0337
   18MOL0     H 2467  11.499   3.101   7.243  1.2059  1.9846  0.4003
   18MOL0     H 2468  11.082   3.973   8.624 -1.2821 -0.0674  0.9518
   18MOL0     H 2469  11.204   4.028   8.822 -3.2107 -0.1293  1.3020
   18MOL0     H 2470  11.442   4.437   8.976 -1.1726 -1.0163 -0.6738
   18MOL0     H 2471  11.681   4.493   9.025 -1.6194  1.1801  1.3440
   18MOL0     H 2472  11.932   4.204   9.246 -0.3379 -1.8623  0.3569
   18MOL0     H 2473  11.952   4.169   9.074 -2.5419  1.0743  0.5494
   18MOL0     H 2474  12.178   4.231   9.182  0.5052  0.1516  1.7331
   18MOL0     H 2475  12.104   4.390   9.203 -2.1018  0.9217 -1.0981
   18MOL0     H 2476  12.210   4.256   8.962 -0.2618  1.0909 -1.2724
   18MOL0     H 2477  12.043   4.314   8.937 -1.5857 -0.2760  1.2863
   18MOL0     H 2478  12.223   4.491   8.883 -1.8943 -0.3731 -1.0387
   18MOL0     H 2479  12.258   4.504   9.051  3.0525 -1.7798 -1.5200
   18MOL0     H 2480  11.877   4.701   9.038  0.9199  2.0800 -1.6026
   18MOL0     H 2481  11.729   4.087   9.158 -3.2016 -3.3041 -0.8403
   18MOL0     H 2482  11.422   3.948   9.115 -0.8503  0.8831  0.2715
   18MOL0     H 2483  11.567   3.934   9.022 -0.8054 -0.0727 -0.5167
   18MOL0     H 2484  11.568   3.955   9.207 -0.4046 -2.1548 -0.6034
   19MOL0     O 2485   8.333   2.434   5.616  0.2006 -0.5332  0.0766
   19MOL0     C 2486   8.253   2.372   5.693 -0.6052  1.1819 -0.4378
   19MOL0     O 2487   8.266   2.247   5.731 -0.2565  0.7862  0.4506
   19MOL0     C 2488   8.330   2.143   5.656 -0.1216  0.0338 -0.6015
   19MOL0     C 2489   8.371   2.023   5.717 -0.5790  0.4763  0.8183
   19MOL0     C 2490   8.419   1.910   5.643 -0.4789 -0.2927  0.7332
   19MOL0     C 2491   8.434   1.920   5.499 -0.3616 -0.0284  0.9431
   19MOL0     O 2492   8.491   1.835   5.411  0.2774  0.3293 -0.2668
   19MOL0     C 2493   8.507   1.699   5.451 -0.2251  0.5477  0.7645
   19MOL0     C 2494   8.501   1.607   5.329  0.1765 -1.2608 -0.3558
   19MOL0     C 2495   8.647   1.603   5.252  0.9426  0.5200 -0.2401
   19MOL0     C 2496   8.635   1.513   5.124  0.5520 -0.2774  1.1308
   19MOL0     C 2497   8.751   1.504   5.037 -0.4930  0.2314  0.1303
   19MOL0     C 2498   8.869   1.460   5.118 -0.6687  0.5478  0.0077
   19MOL0     C 2499   8.961   1.379   5.033 -0.2070  0.3680 -0.2970
   19MOL0     C 2500   9.082   1.338   5.123  0.4256  0.1736  0.4484
   19MOL0     N 2501   9.182   1.254   5.055 -0.4115 -1.0306  0.2924
   19MOL0     C 2502   9.303   1.216   5.105 -0.3872 -0.5954  0.5628
   19MOL0     C 2503   9.358   1.146   5.006 -0.0008  0.8042 -0.4286
   19MOL0     C 2504   9.486   1.074   5.015 -0.4228 -0.5917 -0.4106
   19MOL0     C 2505   9.474   0.934   5.064 -0.0783  1.2315  1.2204
   19MOL0     C 2506   9.385   0.910   5.186 -0.5575 -0.7848 -0.2627
   19MOL0     C 2507   9.391   0.763   5.231  0.3643  0.4843  0.0918
   19MOL0     O 2508   9.298   0.734   5.338 -1.0121 -1.0041 -0.1786
   19MOL0     C 2509   9.209   0.633   5.331 -0.1043  0.0346 -0.8165
   19MOL0     C 2510   9.082   0.646   5.396  0.8782 -0.0941  0.4612
   19MOL0     C 2511   8.998   0.537   5.412  0.5872 -0.0122  0.3360
   19MOL0     C 2512   8.881   0.558   5.508  0.4227 -0.5965 -0.1362
   19MOL0     C 2513   9.040   0.409   5.353 -0.4341  0.7485 -0.0415
   19MOL0     C 2514   8.966   0.286   5.344  0.4197  0.2268 -0.6064
   19MOL0     O 2515   9.029   0.172   5.366 -1.2662  0.5231  0.3636
   19MOL0     C 2516   8.966   0.055   5.394 -0.5081  0.7927  1.3279
   19MOL0     C 2517   8.972   0.002   5.526 -0.4112  0.5200 -0.0221
   19MOL0     C 2518   8.894  -0.108   5.561  1.1590 -0.3122 -0.0592
   19MOL0     C 2519   8.803  -0.165   5.463 -0.7965 -0.0656 -0.0626
   19MOL0     O 2520   8.726  -0.262   5.518 -0.6072  0.1065 -0.9719
   19MOL0     C 2521   8.626  -0.325   5.439 -0.3196 -0.4892  0.1622
   19MOL0     C 2522   8.583  -0.456   5.495 -0.4734  0.5953  0.3304
   19MOL0     C 2523   8.697  -0.539   5.512 -0.2358  0.2483 -0.9117
   19MOL0     C 2524   8.655  -0.684   5.558  0.8888 -0.2267  0.0358
   19MOL0     C 2525   8.773  -0.778   5.565  0.0753  0.3905 -0.6817
   19MOL0     C 2526   8.748  -0.905   5.635  0.1382 -0.2366  0.2687
   19MOL0     C 2527   8.639  -0.972   5.563  0.5937  1.1589 -0.1634
   19MOL0     C 2528   8.612  -1.102   5.637 -0.7273 -0.0371 -0.5871
   19MOL0    Cl 2529   8.745  -1.212   5.622  0.2454  0.1959  0.0311
   19MOL0     C 2530   8.796  -0.112   5.337 -0.3436  0.3517 -0.1907
   19MOL0     C 2531   8.873  -0.005   5.299 -0.3247 -0.1605 -0.2352
   19MOL0     O 2532   8.843   0.301   5.325 -0.1639  0.0462 -0.2934
   19MOL0     C 2533   9.149   0.404   5.267 -0.5603  0.1468 -0.5432
   19MOL0     C 2534   9.238   0.512   5.262  0.5789  0.2673  0.2829
   19MOL0     N 2535   9.272   1.145   4.895  0.4801  0.0561  0.0015
   19MOL0     N 2536   9.181   1.228   4.918  0.4600 -0.5758 -1.0850
   19MOL0     C 2537   8.405   2.040   5.445  0.8211  0.6803  0.6572
   19MOL0     C 2538   8.359   2.149   5.516 -0.6508  0.1725  0.5422
   19MOL0     C 2539   8.148   2.437   5.769 -0.2260  0.0284 -0.0773
   19MOL0     C 2540   8.090   2.385   5.889 -0.6114 -0.7913  0.2371
   19MOL0     C 2541   7.992   2.454   5.959  0.5462  0.5848  0.8293
   19MOL0     C 2542   7.930   2.569   5.909 -0.4569  0.1133 -0.2536
   19MOL0     O 2543   7.832   2.635   5.976  0.3143  0.1173 -0.4032
   19MOL0     C 2544   7.707   2.675   5.918 -0.2923 -0.0767  0.2088
   19MOL0     C 2545   7.650   2.789   6.005 -0.4378 -0.0853 -0.1215
   19MOL0     C 2546   7.519   2.855   5.950  0.3310  0.5189  0.0726
   19MOL0     C 2547   7.406   2.756   5.907  0.9553  0.3570 -0.8321
   19MOL0     C 2548   7.322   2.728   6.027  0.5560 -1.2304  0.0186
   19MOL0     C 2549   7.272   2.731   6.144  0.6792  0.8259  0.5254
   19MOL0     C 2550   7.990   2.625   5.798 -0.6456 -0.1846 -1.0841
   19MOL0     C 2551   8.095   2.559   5.728  0.4067 -1.3835  0.4375
   19MOL0     C 2552   8.149   2.639   5.612 -0.4708 -0.2811 -0.8514
   19MOL0     H 2553   8.355   2.020   5.824 -2.1772  1.5360  0.6543
   19MOL0     H 2554   8.462   1.824   5.691  1.0701  0.9604  1.6816
   19MOL0     H 2555   8.421   1.674   5.515  2.0928  0.1191  3.9347
   19MOL0     H 2556   8.597   1.679   5.509 -0.1664 -2.0655 -0.0817
   19MOL0     H 2557   8.480   1.505   5.362 -0.1100 -0.7032  1.2873
   19MOL0     H 2558   8.423   1.627   5.255  1.0420 -0.0801 -0.9898
   19MOL0     H 2559   8.691   1.701   5.231  0.5796  0.7095 -0.1388
   19MOL0     H 2560   8.719   1.558   5.320 -1.2556  2.6264  3.8275
   19MOL0     H 2561   8.609   1.409   5.148 -2.9077  0.0320 -0.6545
   19MOL0     H 2562   8.554   1.554   5.064  0.6879 -0.3114  0.9253
   19MOL0     H 2563   8.770   1.605   4.999 -1.6716  1.2819  2.2186
   19MOL0     H 2564   8.734   1.436   4.952 -2.7681 -1.6092  1.9319
   19MOL0     H 2565   8.929   1.534   5.172  3.4117 -3.0874  1.0867
   19MOL0     H 2566   8.831   1.405   5.205 -0.5553  2.0826  1.0682
   19MOL0     H 2567   9.008   1.435   4.951  0.6245 -2.2044 -1.7006
   19MOL0     H 2568   8.902   1.302   4.982 -0.4858  0.0475  0.5058
   19MOL0     H 2569   9.130   1.432   5.152 -0.9188  0.8437  0.6214
   19MOL0     H 2570   9.057   1.279   5.211  3.6291 -3.1750 -0.6096
   19MOL0     H 2571   9.343   1.231   5.205 -0.4423 -0.4964  0.5699
   19MOL0     H 2572   9.562   1.125   5.075 -0.7319 -1.2141  0.5326
   19MOL0     H 2573   9.536   1.063   4.918  0.1621  0.1366 -0.2015
   19MOL0     H 2574   9.435   0.884   4.974  0.0867  1.8290  0.8108
   19MOL0     H 2575   9.566   0.883   5.093 -1.1613 -1.1283  0.7713
   19MOL0     H 2576   9.446   0.967   5.256  2.0041  0.1322 -3.0447
   19MOL0     H 2577   9.282   0.946   5.182 -0.5670 -0.8880 -1.7340
   19MOL0     H 2578   9.364   0.704   5.142  1.1809  0.9432 -0.4776
   19MOL0     H 2579   9.493   0.742   5.264 -0.6710 -4.1254  1.1199
   19MOL0     H 2580   9.062   0.748   5.427 -0.9167  0.3615 -1.9572
   19MOL0     H 2581   8.781   0.530   5.474 -0.1560 -0.9773  1.7258
   19MOL0     H 2582   8.880   0.664   5.535  6.5548 -0.6106  1.5276
   19MOL0     H 2583   8.891   0.500   5.601 -0.3588 -1.8432 -0.7918
   19MOL0     H 2584   9.036   0.063   5.588 -0.9741  1.4777 -0.3714
   19MOL0     H 2585   8.897  -0.148   5.662  2.9701  0.4260  0.1997
   19MOL0     H 2586   8.549  -0.248   5.445  0.4695  0.2419  4.9552
   19MOL0     H 2587   8.667  -0.340   5.339  0.8269 -0.4561  0.6067
   19MOL0     H 2588   8.534  -0.434   5.590  1.4681  0.9033  1.3002
   19MOL0     H 2589   8.513  -0.500   5.424  0.4049  1.2578 -0.9882
   19MOL0     H 2590   8.757  -0.507   5.598  1.3291 -0.1868 -1.8059
   19MOL0     H 2591   8.755  -0.565   5.423 -1.3694 -2.5038 -0.9481
   19MOL0     H 2592   8.584  -0.719   5.484  0.5163  0.3770  0.0965
   19MOL0     H 2593   8.607  -0.690   5.656 -2.5657 -0.4149 -1.5179
   19MOL0     H 2594   8.817  -0.801   5.468 -0.4970  1.0886 -1.1099
   19MOL0     H 2595   8.858  -0.733   5.619 -0.0197  1.6446 -1.5456
   19MOL0     H 2596   8.718  -0.886   5.738 -1.8631 -1.7073  0.0169
   19MOL0     H 2597   8.835  -0.971   5.625  1.1494  1.1153 -0.0547
   19MOL0     H 2598   8.670  -0.991   5.460  0.7608 -0.3482  0.1398
   19MOL0     H 2599   8.546  -0.914   5.561 -1.3849 -1.7936 -1.9075
   19MOL0     H 2600   8.521  -1.159   5.618  0.8651 -2.7899 -0.5322
   19MOL0     H 2601   8.614  -1.080   5.745  1.4141 -1.5641 -0.2569
   19MOL0     H 2602   8.727  -0.155   5.265  0.8664 -1.3088 -0.4077
   19MOL0     H 2603   8.870   0.045   5.203  1.4618 -2.2929 -1.5035
   19MOL0     H 2604   9.172   0.308   5.222  0.4311 -2.6551  5.0775
   19MOL0     H 2605   9.327   0.500   5.201 -0.3397 -2.1080 -0.7022
   19MOL0     H 2606   8.413   2.055   5.338 -2.1763 -0.5047  0.1591
   19MOL0     H 2607   8.325   2.231   5.454 -0.2086  0.3865  0.5815
   19MOL0     H 2608   8.118   2.285   5.921 -0.4462 -0.7517  0.2146
   19MOL0     H 2609   7.937   2.408   6.041 -3.3191  0.2803 -1.7024
   19MOL0     H 2610   7.721   2.699   5.813 -0.4358 -2.0038 -0.2826
   19MOL0     H 2611   7.638   2.590   5.918 -0.8301  0.3061  1.9708
   19MOL0     H 2612   7.731   2.863   6.012 -0.9976  0.4991  0.3329
   19MOL0     H 2613   7.625   2.738   6.099  3.1637  0.2741  1.1787
   19MOL0     H 2614   7.501   2.918   6.038 -0.5198  0.1558  0.1741
   19MOL0     H 2615   7.541   2.918   5.864 -0.0337 -1.3531 -1.4525
   19MOL0     H 2616   7.437   2.660   5.864  4.3146  1.3934 -0.9495
   19MOL0     H 2617   7.347   2.809   5.832 -0.5092  0.6737  0.4717
   19MOL0     H 2618   7.220   2.745   6.237  0.5146  0.7614  0.4442
   19MOL0     H 2619   7.958   2.726   5.777 -0.1075  0.1125 -0.5152
   19MOL0     H 2620   8.253   2.672   5.613 -0.6165  0.2003  0.0839
   19MOL0     H 2621   8.152   2.581   5.519 -0.3349 -2.4582  0.4457
   19MOL0     H 2622   8.097   2.734   5.595  0.3098  0.8487  2.4779
   20MOL0     O 2623   9.183   7.930   3.668  0.0321  0.2405  0.0258
   20MOL0     C 2624   9.090   7.863   3.644  0.5807  1.6026  0.1982
   20MOL0     O 2625   8.963   7.896   3.658  0.3824  0.6070  0.7449
   20MOL0     C 2626   8.940   8.023   3.699  0.1774  0.3732  0.4514
   20MOL0     C 2627   8.883   8.112   3.607  0.7875  0.4001 -0.4108
   20MOL0     C 2628   8.848   8.237   3.651  0.8059 -0.7552 -0.2233
   20MOL0     C 2629   8.880   8.287   3.780  0.3627  0.2000  0.6611
   20MOL0     O 2630   8.851   8.410   3.818 -0.7264 -0.5354  0.0210
   20MOL0     C 2631   8.901   8.519   3.737  0.4176  0.1888  0.9299
   20MOL0     C 2632   8.785   8.586   3.668  0.1456  0.2776 -0.6144
   20MOL0     C 2633   8.691   8.665   3.767  0.1026 -0.7183 -0.1928
   20MOL0     C 2634   8.538   8.637   3.728 -0.0944 -1.2817 -0.1918
   20MOL0     C 2635   8.490   8.491   3.743 -0.3337 -0.3059  1.2494
   20MOL0     C 2636   8.453   8.465   3.882 -0.3503  0.2793 -0.2378
   20MOL0     C 2637   8.412   8.326   3.918  0.5312  0.4148  0.2628
   20MOL0     C 2638   8.535   8.235   3.915  0.1625 -0.1428  0.6979
   20MOL0     N 2639   8.524   8.092   3.949  0.2926  0.2369  0.2073
   20MOL0     C 2640   8.578   7.995   3.861  1.0808  0.4941 -0.3153
   20MOL0     C 2641   8.545   7.873   3.917 -0.1381  0.4457  0.2429
   20MOL0     C 2642   8.615   7.739   3.873 -0.0153 -0.1889 -0.7175
   20MOL0     C 2643   8.588   7.626   3.978  0.3407 -0.0298  0.3078
   20MOL0     C 2644   8.639   7.496   3.921  0.4982 -0.4598 -0.9044
   20MOL0     C 2645   8.790   7.494   3.888  0.2391 -0.1879  0.5876
   20MOL0     O 2646   8.869   7.581   3.969 -0.1454  0.0522 -0.1449
   20MOL0     C 2647   9.007   7.584   3.956  0.4815  0.0078  0.0378
   20MOL0     C 2648   9.075   7.511   3.854 -0.0641  0.8835  0.2268
   20MOL0     C 2649   9.219   7.504   3.846 -0.3630 -0.8827 -0.4996
   20MOL0     C 2650   9.274   7.394   3.761  1.3506  0.0016  0.8238
   20MOL0     C 2651   9.295   7.569   3.950  0.0171  0.6664 -0.1020
   20MOL0     C 2652   9.442   7.569   3.954  0.1500  0.5614 -1.6802
   20MOL0     O 2653   9.508   7.671   4.032  0.0561  0.5839  0.3059
   20MOL0     C 2654   9.637   7.700   4.003  0.4739 -0.1045  0.1697
   20MOL0     C 2655   9.667   7.745   3.876 -0.3424 -1.0950  1.0249
   20MOL0     C 2656   9.803   7.776   3.846 -0.3817 -0.4888 -0.0528
   20MOL0     C 2657   9.898   7.787   3.948 -0.1943 -0.7168  0.1227
   20MOL0     O 2658  10.021   7.821   3.909 -1.1520 -1.0559  0.8153
   20MOL0     C 2659  10.135   7.801   3.995 -0.8550 -0.4355  0.5320
   20MOL0     C 2660  10.255   7.794   3.898  0.1478 -0.2134  0.0207
   20MOL0     C 2661  10.279   7.680   3.797  0.8582  0.1942  0.0152
   20MOL0     C 2662  10.361   7.722   3.672 -0.2649  1.1095 -0.5012
   20MOL0     C 2663  10.283   7.815   3.580  0.3478 -0.4317 -1.4292
   20MOL0     C 2664  10.331   7.780   3.440  0.8479  0.8529  0.2761
   20MOL0     C 2665  10.262   7.878   3.352  0.1832 -0.4071  1.0930
   20MOL0     C 2666  10.261   7.833   3.210  0.6789  0.0508  0.2329
   20MOL0    Cl 2667  10.146   7.710   3.168  0.2469 -0.3454 -0.4692
   20MOL0     C 2668   9.858   7.754   4.075 -1.1143 -0.1351  0.3466
   20MOL0     C 2669   9.730   7.712   4.102  0.0459 -0.2726 -0.4224
   20MOL0     O 2670   9.500   7.481   3.892 -0.0334  0.9397 -0.9778
   20MOL0     C 2671   9.229   7.634   4.045  0.1795 -0.4136  0.9140
   20MOL0     C 2672   9.094   7.646   4.051 -0.1006 -1.2047  0.0791
   20MOL0     N 2673   8.461   7.898   4.021  0.4542  0.6614  0.1410
   20MOL0     N 2674   8.463   8.022   4.046 -0.2750 -0.2251  0.4147
   20MOL0     C 2675   8.938   8.201   3.874  0.0457 -0.2034  0.0910
   20MOL0     C 2676   8.969   8.069   3.834  0.0891  0.1255  0.5223
   20MOL0     C 2677   9.103   7.722   3.592  0.2747  0.2799 -0.2718
   20MOL0     C 2678   8.983   7.648   3.581 -0.2168 -0.8097 -0.3643
   20MOL0     C 2679   8.977   7.526   3.515  0.5681 -0.8175  0.4379
   20MOL0     C 2680   9.086   7.474   3.454 -0.5460 -0.5594  0.1497
   20MOL0     O 2681   9.091   7.364   3.375  0.0168 -0.8521 -0.2839
   20MOL0     C 2682   8.977   7.291   3.343  0.6092  0.8322 -0.6667
   20MOL0     C 2683   9.008   7.192   3.232 -0.3457  0.5103  0.2923
   20MOL0     C 2684   8.888   7.102   3.206  0.9652 -0.1439  0.8072
   20MOL0     C 2685   8.920   7.003   3.097  0.1893  0.6141 -0.3198
   20MOL0     C 2686   8.797   6.942   3.043  0.0581 -0.4021 -0.1696
   20MOL0     C 2687   8.699   6.917   2.977  0.6616  0.7712 -1.1785
   20MOL0     C 2688   9.208   7.532   3.484  0.0936 -0.4382 -0.3203
   20MOL0     C 2689   9.216   7.650   3.546  1.0696 -0.2476 -0.7542
   20MOL0     C 2690   9.360   7.705   3.580  0.2314  0.4152  0.0182
   20MOL0     H 2691   8.860   8.067   3.511  1.4034 -1.2725  0.1921
   20MOL0     H 2692   8.788   8.308   3.596  0.5273 -0.3738  0.5572
   20MOL0     H 2693   8.956   8.491   3.647  0.6774  1.8997  0.5238
   20MOL0     H 2694   8.961   8.591   3.795  1.4330 -0.8618  1.2350
   20MOL0     H 2695   8.834   8.658   3.602  0.4590  1.7284  1.1155
   20MOL0     H 2696   8.731   8.516   3.603  1.4535 -1.9146  0.5521
   20MOL0     H 2697   8.716   8.636   3.870 -1.2442  0.9367  0.6474
   20MOL0     H 2698   8.699   8.774   3.762 -1.2160 -0.2189  4.2095
   20MOL0     H 2699   8.476   8.702   3.790 -1.8497 -0.4339 -2.6807
   20MOL0     H 2700   8.519   8.658   3.622 -2.3248 -1.3944  0.1384
   20MOL0     H 2701   8.565   8.422   3.702  2.0003  2.9635 -0.4362
   20MOL0     H 2702   8.406   8.479   3.674  1.8672  0.0524 -1.6352
   20MOL0     H 2703   8.537   8.484   3.950 -1.4589  1.2003  0.9274
   20MOL0     H 2704   8.373   8.527   3.924 -3.5557 -3.6553  0.0239
   20MOL0     H 2705   8.337   8.287   3.848  1.2629  0.2140 -0.4345
   20MOL0     H 2706   8.362   8.322   4.015 -0.2495  1.0626 -0.1039
   20MOL0     H 2707   8.577   8.239   3.814  0.5659  0.2051  0.8758
   20MOL0     H 2708   8.614   8.278   3.977  1.2023  0.4680 -0.9801
   20MOL0     H 2709   8.657   7.998   3.787 -0.4799  0.7673 -2.0394
   20MOL0     H 2710   8.722   7.760   3.872  0.5705 -2.8023 -2.2786
   20MOL0     H 2711   8.581   7.702   3.776 -0.9920 -0.2597 -0.3642
   20MOL0     H 2712   8.631   7.663   4.072 -0.3169  3.6782 -0.6994
   20MOL0     H 2713   8.481   7.613   3.999  1.0614 -2.8702  3.1162
   20MOL0     H 2714   8.633   7.424   4.003  2.4917  0.1980 -0.1300
   20MOL0     H 2715   8.571   7.470   3.839 -0.9474  1.7403 -0.4934
   20MOL0     H 2716   8.824   7.390   3.880  0.4827 -0.0415 -0.5604
   20MOL0     H 2717   8.806   7.535   3.788  2.5273 -3.0307 -0.3606
   20MOL0     H 2718   9.022   7.441   3.790  0.6592 -0.5025  1.0830
   20MOL0     H 2719   9.355   7.429   3.696  1.6728  0.4727  1.4637
   20MOL0     H 2720   9.194   7.349   3.702 -0.5537 -1.8127  4.4178
   20MOL0     H 2721   9.325   7.313   3.814  4.3757  0.4439 -1.1398
   20MOL0     H 2722   9.596   7.747   3.794  0.1248  1.4191  0.5840
   20MOL0     H 2723   9.839   7.802   3.747 -0.6216  0.1252  0.0092
   20MOL0     H 2724  10.140   7.897   4.047 -2.1048  1.9947 -3.4372
   20MOL0     H 2725  10.126   7.707   4.051 -0.7270 -1.6298 -1.3792
   20MOL0     H 2726  10.244   7.889   3.845  2.2146 -0.5275 -1.1101
   20MOL0     H 2727  10.343   7.789   3.964  1.9001  0.6777 -2.0987
   20MOL0     H 2728  10.182   7.643   3.760  0.8389 -0.1022  0.3578
   20MOL0     H 2729  10.334   7.595   3.838  0.7603 -0.4995 -1.2079
   20MOL0     H 2730  10.395   7.629   3.624  0.6489  1.6495 -0.9274
   20MOL0     H 2731  10.455   7.767   3.707  1.1569 -3.1635  1.9949
   20MOL0     H 2732  10.178   7.786   3.574  0.6134 -1.4232 -1.5337
   20MOL0     H 2733  10.304   7.915   3.618 -1.1212 -0.9243  0.8324
   20MOL0     H 2734  10.293   7.681   3.415 -0.5931  2.1219 -3.2748
   20MOL0     H 2735  10.439   7.776   3.422  0.9840  1.9626  0.7188
   20MOL0     H 2736  10.309   7.976   3.342 -1.6398  0.4010  0.0133
   20MOL0     H 2737  10.162   7.914   3.376 -0.6986  3.0778 -5.4800
   20MOL0     H 2738  10.363   7.797   3.190  0.3242 -0.7428 -0.1979
   20MOL0     H 2739  10.241   7.923   3.151  3.6266 -1.2214 -3.0767
   20MOL0     H 2740   9.930   7.763   4.156 -2.1024 -1.1942  1.3850
   20MOL0     H 2741   9.696   7.677   4.199 -0.9177 -1.4802 -1.1845
   20MOL0     H 2742   9.271   7.693   4.125  0.0033 -0.9660  1.4191
   20MOL0     H 2743   9.051   7.713   4.125  0.2162  0.3721 -1.1222
   20MOL0     H 2744   8.946   8.245   3.974 -0.1508  0.8639 -0.3464
   20MOL0     H 2745   9.004   7.990   3.900 -1.9896 -1.3262 -0.0075
   20MOL0     H 2746   8.883   7.681   3.607  0.8973  0.1201  3.3265
   20MOL0     H 2747   8.885   7.470   3.506  0.1279 -0.4587  2.3641
   20MOL0     H 2748   8.941   7.243   3.434 -0.5958 -1.9024 -2.4512
   20MOL0     H 2749   8.896   7.353   3.303 -0.6447 -0.7861 -0.7204
   20MOL0     H 2750   9.094   7.134   3.268  0.4093  3.2869  3.4406
   20MOL0     H 2751   9.037   7.260   3.152 -1.0970  3.1236  2.1228
   20MOL0     H 2752   8.865   7.040   3.293 -1.5510 -2.6923 -1.4862
   20MOL0     H 2753   8.806   7.167   3.174  0.3529  0.9419  4.0906
   20MOL0     H 2754   8.966   6.912   3.134 -1.5583  0.5498  1.9187
   20MOL0     H 2755   8.972   7.047   3.011 -1.6623 -0.6515 -2.1944
   20MOL0     H 2756   8.603   6.895   2.934 -0.5592 -2.2402  2.4860
   20MOL0     H 2757   9.293   7.489   3.432 -1.5522 -0.7495 -2.9229
   20MOL0     H 2758   9.397   7.770   3.501 -1.7188  1.7899  0.1707
   20MOL0     H 2759   9.365   7.761   3.674  3.5034 -0.1716  0.3211
   20MOL0     H 2760   9.426   7.620   3.600  2.1423  1.5109 -1.3184
   21MOL0     O 2761   3.050   6.161   5.351 -0.2559 -0.2979  0.4907
   21MOL0     C 2762   2.926   6.139   5.373 -0.2461  0.2523  0.3164
   21MOL0     O 2763   2.818   6.209   5.311  0.2642 -0.0423 -0.8043
   21MOL0     C 2764   2.842   6.318   5.235  0.0359 -0.7674  0.3990
   21MOL0     C 2765   2.944   6.334   5.133  0.7965 -0.2789  0.1645
   21MOL0     C 2766   2.953   6.459   5.062 -0.0570  0.3517  0.1685
   21MOL0     C 2767   2.881   6.575   5.108 -1.1442 -0.1834  0.4475
   21MOL0     O 2768   2.886   6.695   5.050 -0.4086 -0.4688 -0.0146
   21MOL0     C 2769   3.014   6.749   5.018 -0.4967  1.1938 -0.3287
   21MOL0     C 2770   3.087   6.810   5.141 -0.9196  0.3574 -0.1638
   21MOL0     C 2771   3.039   6.944   5.203 -0.0105  0.1452  0.2531
   21MOL0     C 2772   3.112   6.975   5.325 -0.6652  0.8095  0.2446
   21MOL0     C 2773   3.128   7.126   5.318  0.2501  0.0721 -0.5943
   21MOL0     C 2774   3.198   7.180   5.452 -0.4392 -0.9726  1.0451
   21MOL0     C 2775   3.136   7.144   5.580 -0.7593  0.6807  0.1408
   21MOL0     C 2776   3.208   7.194   5.710  0.0167  0.2596  0.1357
   21MOL0     N 2777   3.135   7.170   5.834 -0.9417 -0.6949 -0.0404
   21MOL0     C 2778   3.028   7.248   5.890  0.3239  0.3551  0.2843
   21MOL0     C 2779   3.003   7.197   6.013 -0.3643  0.4574 -0.6702
   21MOL0     C 2780   2.916   7.265   6.117 -0.1146  0.7857  0.8339
   21MOL0     C 2781   2.779   7.265   6.054  0.4476  0.8260 -0.6502
   21MOL0     C 2782   2.682   7.338   6.151 -0.1883 -0.8058 -0.4598
   21MOL0     C 2783   2.546   7.345   6.102 -0.4775 -1.3239 -0.2252
   21MOL0     O 2784   2.443   7.372   6.204  0.4106  0.4338  0.3052
   21MOL0     C 2785   2.391   7.274   6.284 -0.8852 -0.1705  0.0085
   21MOL0     C 2786   2.428   7.138   6.282 -0.3032  0.3909  0.0752
   21MOL0     C 2787   2.385   7.046   6.382  0.5063 -0.6111 -0.5852
   21MOL0     C 2788   2.422   6.895   6.362  0.3819 -0.5955  0.8402
   21MOL0     C 2789   2.313   7.100   6.491  0.6297  0.8667 -0.5373
   21MOL0     C 2790   2.277   7.011   6.594  0.1110  0.2755  0.2124
   21MOL0     O 2791   2.386   6.947   6.655  0.0334 -0.0406  0.0772
   21MOL0     C 2792   2.370   6.876   6.772 -0.6284  0.3493  0.4593
   21MOL0     C 2793   2.477   6.883   6.868  0.5041 -0.1974  0.0684
   21MOL0     C 2794   2.472   6.819   6.988 -0.2410 -0.5030  1.0021
   21MOL0     C 2795   2.367   6.728   7.024  0.1988 -0.8232  0.2281
   21MOL0     O 2796   2.363   6.646   7.134 -0.2783  0.1308  0.0033
   21MOL0     C 2797   2.477   6.620   7.216 -0.4946 -0.4675 -0.0273
   21MOL0     C 2798   2.452   6.702   7.343  0.3001 -0.2749  0.8592
   21MOL0     C 2799   2.581   6.722   7.426 -0.9306 -0.0238  0.6059
   21MOL0     C 2800   2.661   6.850   7.398  0.8011 -0.1683 -0.5494
   21MOL0     C 2801   2.768   6.883   7.505 -0.2555 -0.7419  0.0298
   21MOL0     C 2802   2.698   6.974   7.615 -0.3765 -0.7767  0.0220
   21MOL0     C 2803   2.797   7.009   7.735 -0.1876  0.2899 -0.9481
   21MOL0     C 2804   2.775   7.129   7.814 -0.5806 -1.4589 -0.0926
   21MOL0    Cl 2805   2.623   7.123   7.899 -0.5435 -0.0790  0.2345
   21MOL0     C 2806   2.255   6.725   6.929  0.2618 -0.4886 -0.3066
   21MOL0     C 2807   2.252   6.797   6.806 -0.1622  0.3628 -0.5699
   21MOL0     O 2808   2.159   7.005   6.623 -0.0055  0.0793 -0.7369
   21MOL0     C 2809   2.284   7.234   6.501 -0.4171 -0.1120  0.1627
   21MOL0     C 2810   2.309   7.316   6.393  0.0152 -0.3800  0.1620
   21MOL0     N 2811   3.097   7.097   6.030 -0.0693 -0.2453  0.2762
   21MOL0     N 2812   3.169   7.075   5.925  0.8668 -0.2437  0.6276
   21MOL0     C 2813   2.800   6.556   5.213  0.0109 -0.3406 -0.3060
   21MOL0     C 2814   2.773   6.437   5.282  0.1903 -0.2706 -0.1568
   21MOL0     C 2815   2.895   6.030   5.474 -0.7513  0.3980  0.9569
   21MOL0     C 2816   2.769   6.040   5.528 -0.5338  0.0097 -0.7291
   21MOL0     C 2817   2.730   5.954   5.632  0.2696  0.0181  0.9048
   21MOL0     C 2818   2.811   5.860   5.693 -0.3838  0.3213 -0.2558
   21MOL0     O 2819   2.765   5.782   5.800  0.1416  0.2708  0.4607
   21MOL0     C 2820   2.858   5.718   5.892  0.8150  0.5324 -0.7969
   21MOL0     C 2821   2.788   5.598   5.970  0.1180  0.1065 -1.2356
   21MOL0     C 2822   2.906   5.510   6.012  0.0394  0.1787 -0.5033
   21MOL0     C 2823   2.877   5.390   6.099 -0.6697  0.7304  0.0648
   21MOL0     C 2824   2.851   5.400   6.239  0.2519  0.2729 -0.3531
   21MOL0     C 2825   2.816   5.385   6.351 -0.5427  0.3236  0.1326
   21MOL0     C 2826   2.941   5.846   5.637  0.1719  0.2399  1.2586
   21MOL0     C 2827   2.979   5.928   5.522 -0.4969 -0.1643 -0.0054
   21MOL0     C 2828   3.112   5.904   5.460  0.3559 -0.8724 -0.6144
   21MOL0     H 2829   2.990   6.240   5.103 -1.4934 -1.0731 -1.1291
   21MOL0     H 2830   3.026   6.450   4.981 -1.6975 -1.2061 -1.2156
   21MOL0     H 2831   3.009   6.824   4.939  0.6584  0.2456 -1.3490
   21MOL0     H 2832   3.073   6.676   4.961  1.0462  0.7184  1.7453
   21MOL0     H 2833   3.078   6.723   5.207  1.5960  0.3993  0.3523
   21MOL0     H 2834   3.194   6.814   5.118 -0.4064 -3.1322  1.0384
   21MOL0     H 2835   3.043   7.015   5.120 -1.3351 -0.4373 -0.3292
   21MOL0     H 2836   2.934   6.932   5.233  0.0503 -1.0605 -0.0003
   21MOL0     H 2837   3.058   6.945   5.415  2.9076 -1.8139  1.7146
   21MOL0     H 2838   3.214   6.935   5.328  0.3899  2.9216 -2.4993
   21MOL0     H 2839   3.029   7.173   5.314  0.8963  1.7270  1.1333
   21MOL0     H 2840   3.185   7.158   5.231  1.8722 -1.3339 -0.1120
   21MOL0     H 2841   3.297   7.136   5.457 -0.4388 -1.8700 -3.0925
   21MOL0     H 2842   3.215   7.288   5.441  0.5104 -0.7881  3.6216
   21MOL0     H 2843   3.126   7.036   5.591  2.4146  0.3689  0.8988
   21MOL0     H 2844   3.036   7.186   5.592 -0.8416  0.5870 -0.2265
   21MOL0     H 2845   3.298   7.132   5.714 -0.7563 -0.8864  0.0148
   21MOL0     H 2846   3.230   7.301   5.716  3.2660 -0.3577  2.9249
   21MOL0     H 2847   2.975   7.329   5.842  0.2706 -1.3169 -2.7249
   21MOL0     H 2848   2.952   7.367   6.137  1.1884  0.4621  0.2357
   21MOL0     H 2849   2.919   7.216   6.214  1.6134 -1.7913 -0.3992
   21MOL0     H 2850   2.780   7.329   5.965  2.2964  2.6748  0.6144
   21MOL0     H 2851   2.761   7.165   6.012 -0.5187  1.9639 -3.1306
   21MOL0     H 2852   2.667   7.293   6.250 -0.1742 -0.0985 -0.1311
   21MOL0     H 2853   2.719   7.441   6.158 -0.2057 -0.8059 -0.3608
   21MOL0     H 2854   2.543   7.437   6.042  0.3349 -1.2140 -0.1065
   21MOL0     H 2855   2.524   7.258   6.039 -1.1344 -1.1802 -0.2023
   21MOL0     H 2856   2.490   7.105   6.199  1.6635 -0.9991  1.9848
   21MOL0     H 2857   2.327   6.843   6.351  1.2502 -2.1995  0.5233
   21MOL0     H 2858   2.471   6.857   6.452  4.1189  0.6304 -0.4912
   21MOL0     H 2859   2.483   6.878   6.273  0.9321 -0.4956  1.1884
   21MOL0     H 2860   2.564   6.945   6.847  1.1739 -0.5430  1.6238
   21MOL0     H 2861   2.563   6.830   7.046  2.6471 -0.1978 -3.1382
   21MOL0     H 2862   2.479   6.512   7.226 -1.4747 -0.7219 -1.9948
   21MOL0     H 2863   2.569   6.655   7.169  1.2527 -3.2156  1.1153
   21MOL0     H 2864   2.413   6.801   7.316  1.9197  0.1786  0.0550
   21MOL0     H 2865   2.386   6.650   7.414  1.0909 -3.4793 -0.5592
   21MOL0     H 2866   2.656   6.647   7.401 -0.2269  0.1837  2.0014
   21MOL0     H 2867   2.555   6.715   7.532 -0.1005 -1.6853  0.7239
   21MOL0     H 2868   2.596   6.938   7.390  0.9027 -0.2522 -3.2387
   21MOL0     H 2869   2.705   6.845   7.298  3.4299  2.3369  0.3421
   21MOL0     H 2870   2.793   6.791   7.561 -0.3712 -0.3141  0.8020
   21MOL0     H 2871   2.856   6.928   7.459  0.4217 -0.5500  1.4426
   21MOL0     H 2872   2.603   6.931   7.649 -2.1251  4.0652  2.0854
   21MOL0     H 2873   2.658   7.063   7.567  1.4143  0.8244  1.3562
   21MOL0     H 2874   2.901   7.015   7.701  1.3179 -2.4856  2.5315
   21MOL0     H 2875   2.789   6.926   7.805 -0.3011  0.7099 -0.4595
   21MOL0     H 2876   2.772   7.207   7.737  0.1411  1.0125  2.2203
   21MOL0     H 2877   2.847   7.157   7.891 -3.5056 -0.7518  2.6075
   21MOL0     H 2878   2.162   6.673   6.951 -2.2136  4.1730  1.6399
   21MOL0     H 2879   2.172   6.789   6.733 -1.7040  0.1646  1.0852
   21MOL0     H 2880   2.240   7.277   6.590 -0.1104 -0.5156  0.5092
   21MOL0     H 2881   2.282   7.419   6.413 -4.7426 -1.1047 -1.1763
   21MOL0     H 2882   2.762   6.652   5.244 -0.0466 -0.2236 -0.7313
   21MOL0     H 2883   2.702   6.412   5.360  0.3693 -2.2557 -0.5685
   21MOL0     H 2884   2.709   6.129   5.511  0.1431  0.3433 -1.4099
   21MOL0     H 2885   2.635   5.983   5.675 -1.6165 -1.3720 -1.9421
   21MOL0     H 2886   2.949   5.681   5.843  1.5831  1.5299 -0.1640
   21MOL0     H 2887   2.881   5.791   5.969  1.9210  0.6667 -1.2371
   21MOL0     H 2888   2.715   5.553   5.902  2.8478 -3.8834 -1.8779
   21MOL0     H 2889   2.748   5.634   6.065  2.0728 -1.0971  0.1116
   21MOL0     H 2890   2.948   5.468   5.920 -1.1436  1.3831 -1.6513
   21MOL0     H 2891   2.982   5.562   6.070 -1.0697  2.8801 -1.3294
   21MOL0     H 2892   2.967   5.328   6.087 -1.5815 -0.1871 -2.8934
   21MOL0     H 2893   2.804   5.323   6.053 -0.3144  0.9326 -0.8048
   21MOL0     H 2894   2.777   5.352   6.446  0.3896  0.9960  0.7612
   21MOL0     H 2895   3.006   5.763   5.661  0.3135 -0.0784 -0.1617
   21MOL0     H 2896   3.159   6.001   5.440 -4.3015  1.4460 -1.5115
   21MOL0     H 2897   3.173   5.837   5.522 -0.7969 -1.6028 -0.2453
   21MOL0     H 2898   3.088   5.856   5.365  0.1566 -1.1298 -0.4349
   22MOL0     O 2899   8.839   4.618   1.955 -0.5272 -0.2200 -0.1668
   22MOL0     C 2900   8.875   4.510   1.909 -0.5846  0.1711  0.1869
   22MOL0     O 2901   8.984   4.493   1.828 -0.0521  0.1014 -0.6544
   22MOL0     C 2902   9.082   4.586   1.815  0.7998  0.1507 -0.3710
   22MOL0     C 2903   9.071   4.727   1.831  0.2162  0.4904  1.0568
   22MOL0     C 2904   9.175   4.808   1.782 -0.1597 -0.6691 -0.0059
   22MOL0     C 2905   9.286   4.760   1.718 -0.1161 -0.3551  0.0536
   22MOL0     O 2906   9.383   4.836   1.680 -0.3749 -0.8016  0.8000
   22MOL0     C 2907   9.444   4.830   1.547  0.2985  0.4660 -0.6073
   22MOL0     C 2908   9.508   4.966   1.508  0.6898 -0.8665 -0.1327
   22MOL0     C 2909   9.412   5.088   1.482 -0.3022 -0.0101 -0.2567
   22MOL0     C 2910   9.365   5.153   1.619 -1.0078  0.6147 -0.8889
   22MOL0     C 2911   9.245   5.236   1.609  0.4164  0.3335  0.6376
   22MOL0     C 2912   9.217   5.286   1.751  0.1096  0.2767  0.3068
   22MOL0     C 2913   9.101   5.381   1.778 -0.1834  0.3162 -0.0948
   22MOL0     C 2914   8.954   5.359   1.710 -0.1001  0.4116  0.0454
   22MOL0     N 2915   8.867   5.462   1.768 -1.0641 -0.4210  0.5816
   22MOL0     C 2916   8.793   5.460   1.889  0.3042  0.9418 -0.3722
   22MOL0     C 2917   8.747   5.583   1.913  0.6912 -0.1235  1.2903
   22MOL0     C 2918   8.645   5.604   2.018 -0.9914 -0.7238 -0.3533
   22MOL0     C 2919   8.713   5.611   2.150 -0.5520  0.1952 -0.0545
   22MOL0     C 2920   8.612   5.619   2.264  0.7989  0.2151 -0.1658
   22MOL0     C 2921   8.539   5.755   2.253 -0.7407  0.3257  0.9026
   22MOL0     O 2922   8.466   5.770   2.374  0.9346  0.0564 -0.9813
   22MOL0     C 2923   8.382   5.873   2.394  0.2269  0.4407  0.0964
   22MOL0     C 2924   8.292   5.861   2.498 -0.0599  0.2761 -0.2172
   22MOL0     C 2925   8.178   5.942   2.516  0.2600 -1.2565  0.0497
   22MOL0     C 2926   8.083   5.890   2.620  0.4322  0.9334 -0.0803
   22MOL0     C 2927   8.165   6.055   2.436  0.1226  0.1885  1.0220
   22MOL0     C 2928   8.053   6.145   2.455  0.5584 -0.1194 -0.6986
   22MOL0     O 2929   8.004   6.176   2.580 -0.0937  0.2138  0.3997
   22MOL0     C 2930   7.885   6.247   2.588  0.0036 -0.0561 -0.6534
   22MOL0     C 2931   7.762   6.200   2.543 -0.4120  0.7243 -0.5956
   22MOL0     C 2932   7.645   6.278   2.563 -0.3210 -0.0881  0.7895
   22MOL0     C 2933   7.652   6.406   2.626 -0.2793  0.5195  0.0251
   22MOL0     O 2934   7.540   6.480   2.650  0.2291  0.3725  0.1223
   22MOL0     C 2935   7.539   6.615   2.694 -0.0374 -1.5680  0.0512
   22MOL0     C 2936   7.386   6.656   2.683 -0.7470 -0.8272 -0.2886
   22MOL0     C 2937   7.342   6.674   2.540  0.5138  1.4275 -0.0442
   22MOL0     C 2938   7.246   6.550   2.511 -0.1531  0.2270  0.5830
   22MOL0     C 2939   7.163   6.567   2.382  0.2175 -0.4376 -0.7155
   22MOL0     C 2940   7.236   6.557   2.257 -0.2867  0.2796 -0.0088
   22MOL0     C 2941   7.140   6.547   2.133  0.1854  0.4104 -0.7522
   22MOL0     C 2942   7.224   6.559   2.013  0.0591  0.4582  0.0742
   22MOL0    Cl 2943   7.112   6.629   1.875  0.0073  0.2990  0.2223
   22MOL0     C 2944   7.782   6.452   2.668  0.4131  0.0015 -0.3252
   22MOL0     C 2945   7.897   6.368   2.648  0.5117  0.3312  1.1344
   22MOL0     O 2946   8.015   6.207   2.352 -0.7274  1.0123 -0.0793
   22MOL0     C 2947   8.262   6.075   2.333 -0.2646  0.7540  1.1914
   22MOL0     C 2948   8.370   5.989   2.317 -1.2582 -1.0915  0.3926
   22MOL0     N 2949   8.782   5.656   1.805  0.1398  0.9349  0.2078
   22MOL0     N 2950   8.859   5.593   1.726  0.4355 -0.3959 -0.3673
   22MOL0     C 2951   9.289   4.626   1.693  0.4242 -0.5429  0.1584
   22MOL0     C 2952   9.198   4.543   1.749 -0.5969 -1.0771 -0.6190
   22MOL0     C 2953   8.789   4.395   1.936 -0.2959 -0.2241 -0.2171
   22MOL0     C 2954   8.804   4.284   1.852 -0.3487 -0.3051  0.2556
   22MOL0     C 2955   8.708   4.175   1.858 -0.5825 -0.5744  0.0757
   22MOL0     C 2956   8.606   4.183   1.952 -0.1751  0.2285  0.0932
   22MOL0     O 2957   8.512   4.078   1.955 -0.6929 -0.3941 -0.3503
   22MOL0     C 2958   8.518   3.956   1.890  1.4069  0.0841 -0.6089
   22MOL0     C 2959   8.404   3.875   1.963  0.2516  0.0546  1.2578
   22MOL0     C 2960   8.448   3.814   2.092  0.1259  0.2596 -0.2667
   22MOL0     C 2961   8.354   3.798   2.211  0.5079 -0.0308  0.5679
   22MOL0     C 2962   8.298   3.925   2.252 -0.0420  0.9938 -0.0221
   22MOL0     C 2963   8.239   4.021   2.293  0.1051  0.3414  1.4848
   22MOL0     C 2964   8.587   4.290   2.033  0.1803 -0.1469 -0.8642
   22MOL0     C 2965   8.675   4.394   2.031 -0.3632 -0.5413 -0.0875
   22MOL0     C 2966   8.658   4.492   2.143 -0.8321  0.0213 -1.8419
   22MOL0     H 2967   8.978   4.771   1.867 -1.1822  1.0822 -2.8372
   22MOL0     H 2968   9.170   4.915   1.797 -0.7747 -0.7516  0.4181
   22MOL0     H 2969   9.369   4.800   1.473  0.1150 -1.1102  0.1890
   22MOL0     H 2970   9.518   4.750   1.556 -3.0255 -2.6661  1.8782
   22MOL0     H 2971   9.583   5.004   1.578 -0.2860 -1.4385  1.2765
   22MOL0     H 2972   9.567   4.961   1.416  2.2944  1.9336  0.6201
   22MOL0     H 2973   9.471   5.168   1.436  2.5392 -1.8949 -0.1913
   22MOL0     H 2974   9.327   5.058   1.420 -1.5196 -1.0774  1.8130
   22MOL0     H 2975   9.342   5.078   1.695  1.8880  0.8053  0.2650
   22MOL0     H 2976   9.449   5.206   1.664  0.3076 -0.9762 -1.3842
   22MOL0     H 2977   9.174   5.170   1.558  0.3866  1.8965 -1.4894
   22MOL0     H 2978   9.265   5.322   1.543 -1.7307  1.8399  1.8134
   22MOL0     H 2979   9.202   5.199   1.815 -1.4928 -0.8411 -1.4981
   22MOL0     H 2980   9.303   5.348   1.777 -0.8313  0.7922  2.4538
   22MOL0     H 2981   9.130   5.476   1.731  2.8645 -1.5910 -2.4841
   22MOL0     H 2982   9.093   5.385   1.887 -0.9368  0.3177 -0.1453
   22MOL0     H 2983   8.955   5.369   1.602  1.6175 -1.7382 -0.2080
   22MOL0     H 2984   8.923   5.260   1.744  3.7559 -0.4658  1.5377
   22MOL0     H 2985   8.766   5.370   1.943  0.5879  0.8180 -0.4381
   22MOL0     H 2986   8.572   5.524   2.014  0.7977 -2.5833  1.5994
   22MOL0     H 2987   8.591   5.694   1.987 -1.2387 -1.3536 -1.8409
   22MOL0     H 2988   8.783   5.528   2.163  3.0502  2.4825 -2.9227
   22MOL0     H 2989   8.785   5.693   2.144  2.6889 -2.4524 -0.0121
   22MOL0     H 2990   8.532   5.546   2.253 -0.8513  1.3173  3.1605
   22MOL0     H 2991   8.664   5.614   2.360  4.0047  1.5288 -1.6827
   22MOL0     H 2992   8.609   5.839   2.237 -0.1643 -0.6047 -2.2819
   22MOL0     H 2993   8.465   5.764   2.173  0.7254 -1.0057 -0.6685
   22MOL0     H 2994   8.308   5.782   2.570  0.8059  1.5145  1.0253
   22MOL0     H 2995   8.137   5.870   2.713 -0.3438 -0.2360  0.1419
   22MOL0     H 2996   8.033   5.796   2.596 -0.8002  1.2611  1.0708
   22MOL0     H 2997   8.004   5.962   2.642 -0.1145 -0.0374  1.2646
   22MOL0     H 2998   7.754   6.099   2.503 -0.7082  0.1199  0.9121
   22MOL0     H 2999   7.550   6.236   2.531 -0.5641  0.5362  0.6915
   22MOL0     H 3000   7.575   6.627   2.797  0.4563 -2.0247 -0.0646
   22MOL0     H 3001   7.602   6.682   2.635  1.9997  1.1316  4.7196
   22MOL0     H 3002   7.322   6.588   2.741 -1.2112  1.1534  1.6694
   22MOL0     H 3003   7.379   6.756   2.727  0.8331 -1.1753  0.8186
   22MOL0     H 3004   7.430   6.673   2.474 -0.6091  2.7691 -1.6329
   22MOL0     H 3005   7.288   6.764   2.511 -1.0367 -0.0157 -1.9347
   22MOL0     H 3006   7.170   6.533   2.588 -0.3871 -2.6862 -0.1991
   22MOL0     H 3007   7.301   6.455   2.508 -0.5674 -0.0431  1.3506
   22MOL0     H 3008   7.088   6.488   2.388 -1.3611  1.0772  0.6845
   22MOL0     H 3009   7.106   6.661   2.382  0.4450 -0.2986 -0.8773
   22MOL0     H 3010   7.288   6.462   2.271 -6.7749 -3.7657  1.4503
   22MOL0     H 3011   7.301   6.644   2.247  0.2206 -0.1144 -0.2012
   22MOL0     H 3012   7.063   6.625   2.141 -1.2087 -1.0486  1.0957
   22MOL0     H 3013   7.091   6.449   2.136  1.4004 -0.1792  0.4088
   22MOL0     H 3014   7.269   6.467   1.975 -0.1333  0.8813 -1.2542
   22MOL0     H 3015   7.309   6.625   2.031  1.4497 -1.9663  3.4038
   22MOL0     H 3016   7.797   6.549   2.716 -1.1616 -0.9330  2.2748
   22MOL0     H 3017   7.995   6.403   2.678  1.1691  0.9665 -1.4903
   22MOL0     H 3018   8.253   6.156   2.261 -0.7148  0.8736  1.3807
   22MOL0     H 3019   8.452   6.008   2.249 -1.2843 -0.9056  0.4149
   22MOL0     H 3020   9.372   4.588   1.634  1.7217 -1.8957  2.6947
   22MOL0     H 3021   9.220   4.439   1.728  3.3278 -0.3192 -1.0292
   22MOL0     H 3022   8.881   4.290   1.775 -2.8364  1.1662 -2.3192
   22MOL0     H 3023   8.721   4.096   1.784  0.7543  2.3570 -3.0669
   22MOL0     H 3024   8.496   3.965   1.784 -0.0033  6.7365 -0.1450
   22MOL0     H 3025   8.620   3.922   1.913  2.8264  3.4618 -1.3574
   22MOL0     H 3026   8.385   3.791   1.895  1.0319 -1.7543  3.1382
   22MOL0     H 3027   8.316   3.939   1.972  1.2235  1.6659 -0.1386
   22MOL0     H 3028   8.488   3.715   2.068 -1.4590 -0.2487 -0.9657
   22MOL0     H 3029   8.533   3.868   2.135 -0.7049 -1.0755  3.4898
   22MOL0     H 3030   8.407   3.759   2.298  0.1990 -1.2222  0.2463
   22MOL0     H 3031   8.270   3.730   2.190  0.5522 -0.9719  3.1364
   22MOL0     H 3032   8.186   4.102   2.340 -2.3982 -0.0165 -0.4785
   22MOL0     H 3033   8.494   4.286   2.089 -0.2867 -2.2038 -1.6665
   22MOL0     H 3034   8.593   4.446   2.218 -0.1976  0.5867 -0.9255
   22MOL0     H 3035   8.752   4.514   2.195 -0.7250 -0.7429 -1.7044
   22MOL0     H 3036   8.613   4.591   2.127 -6.4812 -1.6519  1.0849
   23MOL0     O 3037   3.940   1.565   0.394 -0.1085 -0.1132 -0.2498
   23MOL0     C 3038   3.821   1.588   0.418 -0.2608  0.3335  0.4566
   23MOL0     O 3039   3.723   1.493   0.429 -1.3817  0.6183 -0.1650
   23MOL0     C 3040   3.756   1.354   0.401  0.1812  0.4682  0.2325
   23MOL0     C 3041   3.716   1.285   0.289  0.5259 -0.8162  0.5857
   23MOL0     C 3042   3.724   1.141   0.281 -0.8661 -1.5688  0.1975
   23MOL0     C 3043   3.781   1.071   0.382 -1.4014 -0.4251 -0.5893
   23MOL0     O 3044   3.787   0.937   0.359  0.0595 -0.2368  0.2020
   23MOL0     C 3045   3.917   0.874   0.370  1.7736 -0.3320 -0.4726
   23MOL0     C 3046   3.910   0.770   0.267 -0.2772 -0.1098 -0.1499
   23MOL0     C 3047   3.815   0.658   0.326 -0.3472 -0.4885  0.0564
   23MOL0     C 3048   3.827   0.534   0.234 -1.0170 -0.1603 -0.0617
   23MOL0     C 3049   3.761   0.424   0.319  0.0449 -0.8365 -0.6499
   23MOL0     C 3050   3.692   0.327   0.219  0.3169 -0.4415 -0.0612
   23MOL0     C 3051   3.791   0.234   0.154 -0.0176 -1.8280 -0.3748
   23MOL0     C 3052   3.740   0.172   0.022 -0.2351 -0.8457  0.1528
   23MOL0     N 3053   3.798   0.050  -0.015  0.3187 -0.4519 -0.4648
   23MOL0     C 3054   3.743  -0.070   0.014  0.5816  0.0855  0.0757
   23MOL0     C 3055   3.825  -0.166  -0.031  0.0310  0.8517  0.2731
   23MOL0     C 3056   3.780  -0.307  -0.014  0.5180 -0.7381 -0.6328
   23MOL0     C 3057   3.894  -0.388   0.047 -0.3116  0.1190 -0.1804
   23MOL0     C 3058   3.880  -0.529   0.004 -0.0584  1.1315 -0.5297
   23MOL0     C 3059   4.005  -0.609   0.021  0.9891 -0.3028 -0.3299
   23MOL0     O 3060   4.095  -0.562  -0.075 -0.7536  0.5201  1.4299
   23MOL0     C 3061   4.229  -0.604  -0.074 -0.3491 -0.1269 -0.3662
   23MOL0     C 3062   4.297  -0.673   0.030  0.4967  1.0315  0.6731
   23MOL0     C 3063   4.434  -0.710   0.016 -1.4428  0.3545 -0.8445
   23MOL0     C 3064   4.510  -0.753   0.145  0.9143  0.5319  0.1154
   23MOL0     C 3065   4.506  -0.686  -0.098 -0.1879 -0.4026  0.9324
   23MOL0     C 3066   4.645  -0.741  -0.132  0.0416 -0.6257 -0.1324
   23MOL0     O 3067   4.712  -0.810  -0.041  0.2293  0.1992 -0.1684
   23MOL0     C 3068   4.832  -0.867  -0.087  0.3532 -0.2673 -0.4966
   23MOL0     C 3069   4.836  -1.003  -0.091 -0.3135 -0.1993  0.4222
   23MOL0     C 3070   4.934  -1.074  -0.149 -0.2521 -0.0314 -0.3182
   23MOL0     C 3071   5.044  -1.002  -0.208  0.5855 -0.3840  0.0510
   23MOL0     O 3072   5.146  -1.079  -0.255  0.4335 -1.3725 -1.2023
   23MOL0     C 3073   5.274  -1.024  -0.252  0.0781  0.1216 -0.1230
   23MOL0     C 3074   5.351  -1.057  -0.119  0.3645 -0.9573 -0.5749
   23MOL0     C 3075   5.310  -1.202  -0.064 -0.2689  0.1982 -0.1183
   23MOL0     C 3076   5.395  -1.236   0.068  0.0179  0.0977  0.7510
   23MOL0     C 3077   5.376  -1.365   0.141  0.4613 -0.1168  0.7895
   23MOL0     C 3078   5.473  -1.369   0.260 -0.7210  0.0601  0.0499
   23MOL0     C 3079   5.469  -1.243   0.348 -0.0638  0.2801 -0.2336
   23MOL0     C 3080   5.345  -1.248   0.427 -0.7227  0.0746  0.0694
   23MOL0    Cl 3081   5.349  -1.397   0.530  0.1352  0.0253 -0.3879
   23MOL0     C 3082   5.036  -0.860  -0.191 -0.9496  0.5261 -0.5044
   23MOL0     C 3083   4.937  -0.793  -0.126 -0.4162 -0.9008 -0.5037
   23MOL0     O 3084   4.680  -0.723  -0.243 -0.3504 -0.0022 -0.5061
   23MOL0     C 3085   4.433  -0.619  -0.207  0.0171  0.2245  0.7086
   23MOL0     C 3086   4.296  -0.579  -0.194 -0.1136 -0.2961  0.6988
   23MOL0     N 3087   3.926  -0.102  -0.099 -1.0892  0.1436  0.0173
   23MOL0     N 3088   3.915   0.032  -0.080 -0.6452  0.5821 -0.4480
   23MOL0     C 3089   3.846   1.138   0.487 -0.4423  0.1375  0.1735
   23MOL0     C 3090   3.838   1.279   0.487 -0.0660  0.3502  0.7852
   23MOL0     C 3091   3.791   1.718   0.473  0.0735  0.6498  0.1390
   23MOL0     C 3092   3.675   1.735   0.553 -0.2652  0.3419  0.2192
   23MOL0     C 3093   3.640   1.863   0.602  0.0769 -0.0680  0.0509
   23MOL0     C 3094   3.720   1.975   0.579  0.7456 -0.1853  0.3704
   23MOL0     O 3095   3.680   2.097   0.641  0.3325  0.1243 -0.4481
   23MOL0     C 3096   3.569   2.171   0.589 -0.2112 -0.2690 -0.3833
   23MOL0     C 3097   3.463   2.191   0.695  0.6003 -0.4392 -0.3442
   23MOL0     C 3098   3.524   2.292   0.789  0.2053 -0.1298  1.0891
   23MOL0     C 3099   3.443   2.327   0.912  0.7962  0.2770  0.1707
   23MOL0     C 3100   3.436   2.208   0.998  0.2288 -0.3848  0.2493
   23MOL0     C 3101   3.434   2.134   1.088  0.2029  0.1192 -0.9069
   23MOL0     C 3102   3.843   1.960   0.507  0.2020 -0.8112 -0.2421
   23MOL0     C 3103   3.875   1.835   0.447  0.2296  1.1260  0.4937
   23MOL0     C 3104   3.989   1.833   0.344 -0.3671 -0.2591 -0.3418
   23MOL0     H 3105   3.677   1.347   0.209 -1.6051  0.8162  2.7857
   23MOL0     H 3106   3.688   1.086   0.195 -3.8295  1.0763 -0.4119
   23MOL0     H 3107   3.924   0.830   0.470  3.0907  0.1095 -0.3511
   23MOL0     H 3108   4.000   0.945   0.362 -1.0500  3.7064  2.2435
   23MOL0     H 3109   3.878   0.806   0.169 -0.1679  2.2828  0.6415
   23MOL0     H 3110   4.013   0.734   0.256  0.0568  0.9475 -0.5209
   23MOL0     H 3111   3.843   0.643   0.431 -3.9194 -2.0257  0.9510
   23MOL0     H 3112   3.711   0.694   0.324 -1.0135 -2.1596  1.7560
   23MOL0     H 3113   3.786   0.545   0.134  0.6500  1.4091 -0.6251
   23MOL0     H 3114   3.934   0.511   0.244 -1.6650 -2.6087  2.7916
   23MOL0     H 3115   3.674   0.465   0.371  1.2739  3.5040 -1.5466
   23MOL0     H 3116   3.837   0.372   0.379 -0.6607  0.6588  1.6777
   23MOL0     H 3117   3.634   0.259   0.283  0.9111 -2.0946 -1.1904
   23MOL0     H 3118   3.627   0.384   0.153  0.1322  1.1311  1.4202
   23MOL0     H 3119   3.835   0.152   0.211  4.0625  0.6509  0.4756
   23MOL0     H 3120   3.883   0.288   0.130 -1.9832  3.2141  2.0315
   23MOL0     H 3121   3.632   0.178   0.011 -0.1024  2.3334 -0.4818
   23MOL0     H 3122   3.768   0.248  -0.052 -2.0012  0.3141  0.6294
   23MOL0     H 3123   3.649  -0.092   0.064  0.0128 -1.4893 -1.6005
   23MOL0     H 3124   3.737  -0.338  -0.109 -1.6655  0.2081 -0.0156
   23MOL0     H 3125   3.697  -0.316   0.057  1.2031  2.4545  0.7623
   23MOL0     H 3126   3.988  -0.341   0.017  0.6213 -2.2478 -1.1722
   23MOL0     H 3127   3.891  -0.379   0.156 -2.1786  1.1164 -0.2664
   23MOL0     H 3128   3.795  -0.579   0.051  1.2774 -0.7186 -0.0071
   23MOL0     H 3129   3.852  -0.534  -0.102 -2.3872 -3.1866  0.0656
   23MOL0     H 3130   4.049  -0.610   0.122 -1.0513  1.8197  0.6751
   23MOL0     H 3131   3.978  -0.714   0.006  0.5612 -0.2546  0.0819
   23MOL0     H 3132   4.244  -0.704   0.119 -0.0443  2.5200  0.8995
   23MOL0     H 3133   4.460  -0.720   0.236 -1.2867  0.5319 -1.0192
   23MOL0     H 3134   4.608  -0.707   0.157  1.8627 -0.6956 -2.2380
   23MOL0     H 3135   4.518  -0.862   0.145 -0.3642  0.2997 -3.4475
   23MOL0     H 3136   4.754  -1.065  -0.056 -1.4076  1.3027  0.6149
   23MOL0     H 3137   4.930  -1.180  -0.168 -1.2335 -0.0236 -0.2147
   23MOL0     H 3138   5.332  -1.066  -0.335 -0.2755 -0.3025 -0.1564
   23MOL0     H 3139   5.276  -0.915  -0.261  3.5932  0.4036  2.0107
   23MOL0     H 3140   5.457  -1.047  -0.142  1.4638 -3.4873  2.6644
   23MOL0     H 3141   5.323  -0.981  -0.045 -1.6417 -1.0139 -1.2030
   23MOL0     H 3142   5.313  -1.273  -0.147 -2.3226  1.8710 -1.7281
   23MOL0     H 3143   5.208  -1.188  -0.028  0.2242  4.3978  0.1267
   23MOL0     H 3144   5.350  -1.156   0.129  1.3328  1.3391  0.1571
   23MOL0     H 3145   5.500  -1.232   0.038 -0.1052 -3.9984 -0.8312
   23MOL0     H 3146   5.276  -1.376   0.185 -0.1857  0.1559 -0.5785
   23MOL0     H 3147   5.383  -1.455   0.079 -1.2739  0.6085 -0.5249
   23MOL0     H 3148   5.575  -1.374   0.222 -1.1017 -3.2821 -0.8372
   23MOL0     H 3149   5.454  -1.460   0.317 -0.6695  2.1779  3.8200
   23MOL0     H 3150   5.476  -1.148   0.295  3.4381  0.8590  0.9925
   23MOL0     H 3151   5.541  -1.247   0.431 -0.4675 -2.0657  0.0849
   23MOL0     H 3152   5.262  -1.251   0.357  0.5673  3.4243 -1.7972
   23MOL0     H 3153   5.341  -1.159   0.490 -1.9101  0.9050 -1.1446
   23MOL0     H 3154   5.116  -0.796  -0.226  1.1515 -2.1353 -0.8752
   23MOL0     H 3155   4.928  -0.685  -0.119 -0.6273 -1.0173  2.1364
   23MOL0     H 3156   4.469  -0.613  -0.309  0.5621 -1.7714  0.7441
   23MOL0     H 3157   4.232  -0.525  -0.264 -0.9861  1.3616  2.6542
   23MOL0     H 3158   3.910   1.093   0.563 -0.5004  2.6122  1.7916
   23MOL0     H 3159   3.895   1.322   0.569  4.7883 -0.9354 -1.4959
   23MOL0     H 3160   3.605   1.656   0.579  0.2938  0.3042  1.7598
   23MOL0     H 3161   3.553   1.886   0.662 -1.5005  0.8092 -2.3979
   23MOL0     H 3162   3.593   2.262   0.533 -1.0325 -0.8089 -1.6531
   23MOL0     H 3163   3.522   2.116   0.507 -2.6328  0.6826  0.3007
   23MOL0     H 3164   3.443   2.098   0.749  1.5143 -1.8660 -2.3311
   23MOL0     H 3165   3.378   2.242   0.649 -0.8837 -0.3883  2.3048
   23MOL0     H 3166   3.630   2.273   0.808  0.4063  0.8759  1.0374
   23MOL0     H 3167   3.529   2.378   0.721  3.6627 -1.7913 -1.0774
   23MOL0     H 3168   3.341   2.349   0.880  1.0143 -0.1972 -0.8837
   23MOL0     H 3169   3.494   2.415   0.954 -2.1675  2.7753 -1.0796
   23MOL0     H 3170   3.405   2.078   1.174 -0.6101  1.0116 -0.5755
   23MOL0     H 3171   3.901   2.050   0.489 -1.0873  1.1843  4.1948
   23MOL0     H 3172   4.062   1.757   0.371 -1.2006 -2.8223 -4.4285
   23MOL0     H 3173   3.953   1.796   0.247  2.0133 -0.0089 -1.3803
   23MOL0     H 3174   4.034   1.929   0.315 -1.1650 -0.5486 -2.7858
   24MOL0     O 3175   2.661   3.405  11.347  0.2614  0.0797  0.2511
   24MOL0     C 3176   2.710   3.304  11.402 -0.7693 -0.8652  0.2387
   24MOL0     O 3177   2.659   3.179  11.388  0.7829 -0.2395 -0.1672
   24MOL0     C 3178   2.535   3.165  11.319  0.3875 -0.2314  0.9631
   24MOL0     C 3179   2.409   3.167  11.384 -0.1130  0.8101 -0.6537
   24MOL0     C 3180   2.287   3.150  11.316 -0.0730 -0.0478  1.1758
   24MOL0     C 3181   2.286   3.129  11.178 -0.9385 -0.1496 -0.0865
   24MOL0     O 3182   2.176   3.139  11.101  0.4434  0.9168  1.0285
   24MOL0     C 3183   2.070   3.225  11.148  0.1843  0.8787 -0.2484
   24MOL0     C 3184   1.954   3.225  11.046  0.0144  0.1174 -0.6516
   24MOL0     C 3185   1.822   3.169  11.094 -0.9323 -0.2208 -0.1937
   24MOL0     C 3186   1.735   3.124  10.970 -0.0309  0.9538  0.4863
   24MOL0     C 3187   1.615   3.043  11.017 -0.2713 -0.3607 -0.3408
   24MOL0     C 3188   1.503   3.132  11.053 -0.7417 -0.9254  0.1675
   24MOL0     C 3189   1.398   3.056  11.129 -0.4492  0.0779  0.4432
   24MOL0     C 3190   1.292   3.144  11.177  0.3098  1.1209  0.1040
   24MOL0     N 3191   1.197   3.075  11.261  0.0021  0.3037  0.2846
   24MOL0     C 3192   1.059   3.074  11.251  0.5339 -0.6607 -0.3648
   24MOL0     C 3193   1.018   3.004  11.353 -0.3527  0.3565  0.1418
   24MOL0     C 3194   0.876   2.970  11.380 -0.1623 -0.5667  0.3718
   24MOL0     C 3195   0.787   3.083  11.327  0.2897 -0.0771  0.0779
   24MOL0     C 3196   0.655   3.100  11.412  0.0047  0.4105  0.3289
   24MOL0     C 3197   0.582   3.239  11.404 -1.3124 -0.6751 -0.5456
   24MOL0     O 3198   0.550   3.249  11.261 -0.5603 -0.1390  0.2574
   24MOL0     C 3199   0.463   3.351  11.230  0.7681 -0.6023  0.1354
   24MOL0     C 3200   0.439   3.363  11.099  0.4653  0.8147  0.7888
   24MOL0     C 3201   0.358   3.468  11.045 -0.3224  0.8390 -0.1207
   24MOL0     C 3202   0.351   3.470  10.896 -0.2551 -0.3095  0.4576
   24MOL0     C 3203   0.301   3.560  11.134 -0.0977  0.1827 -0.1123
   24MOL0     C 3204   0.201   3.659  11.101  0.2173  0.2156  0.6350
   24MOL0     O 3205   0.193   3.773  11.181  0.2658  0.4333 -0.1634
   24MOL0     C 3206   0.085   3.855  11.158 -0.6976  0.4914 -0.3742
   24MOL0     C 3207   0.122   3.988  11.147  0.1980  0.1446 -1.1403
   24MOL0     C 3208   0.022   4.082  11.102  0.0526  0.8733  0.6324
   24MOL0     C 3209  -0.114   4.037  11.083 -0.1281 -0.0234 -0.0338
   24MOL0     O 3210  -0.208   4.134  11.048  0.0838  0.9025 -0.2276
   24MOL0     C 3211  -0.239   4.231  11.146 -0.1184 -0.4924 -0.3225
   24MOL0     C 3212  -0.333   4.332  11.076 -0.6455 -0.5736  0.4653
   24MOL0     C 3213  -0.267   4.469  11.033  0.0278  0.2375 -0.1393
   24MOL0     C 3214  -0.356   4.561  10.943  0.7313  0.4477  0.0000
   24MOL0     C 3215  -0.269   4.679  10.887  0.7568  0.1354 -0.6669
   24MOL0     C 3216  -0.357   4.759  10.804  0.3474  1.2833 -0.3418
   24MOL0     C 3217  -0.296   4.886  10.747 -0.3866  0.2406 -0.0527
   24MOL0     C 3218  -0.332   4.994  10.844  0.1992 -0.2775  0.1643
   24MOL0    Cl 3219  -0.254   5.141  10.794 -0.1728 -0.0278  0.2318
   24MOL0     C 3220  -0.147   3.906  11.110  0.7055 -0.5786  0.5800
   24MOL0     C 3221  -0.049   3.812  11.145  0.6189 -0.2750 -0.0191
   24MOL0     O 3222   0.125   3.632  11.006 -0.3626 -0.0869  0.2031
   24MOL0     C 3223   0.327   3.546  11.271  0.0888  1.3969  0.4206
   24MOL0     C 3224   0.407   3.446  11.318  0.1797 -0.2462 -0.3682
   24MOL0     N 3225   1.120   2.995  11.444  0.0829  0.4382  0.1061
   24MOL0     N 3226   1.233   3.037  11.386  0.5415 -0.3680  0.0179
   24MOL0     C 3227   2.405   3.126  11.107 -0.5518  0.1223  0.4855
   24MOL0     C 3228   2.523   3.144  11.181  0.6221 -0.0441  0.1034
   24MOL0     C 3229   2.837   3.308  11.473  0.7127  0.3758  0.3916
   24MOL0     C 3230   2.930   3.207  11.453  1.1746  0.0073 -0.6409
   24MOL0     C 3231   3.046   3.203  11.526  0.0256  0.0997 -0.0491
   24MOL0     C 3232   3.069   3.301  11.620 -1.0390  0.4056  0.1516
   24MOL0     O 3233   3.186   3.302  11.699 -0.1113  0.5955 -0.0590
   24MOL0     C 3234   3.241   3.425  11.741 -0.6287 -0.4384 -0.3140
   24MOL0     C 3235   3.386   3.401  11.787  0.1644  0.7622 -0.2006
   24MOL0     C 3236   3.488   3.519  11.787  0.0471 -0.0243 -0.6149
   24MOL0     C 3237   3.437   3.634  11.872  0.7514  0.0697 -0.2277
   24MOL0     C 3238   3.486   3.756  11.815 -0.5820  0.0962  1.0488
   24MOL0     C 3239   3.531   3.853  11.757  0.8454 -0.1777  0.5076
   24MOL0     C 3240   2.974   3.402  11.645  0.4557 -0.3219  0.6575
   24MOL0     C 3241   2.853   3.405  11.569 -0.9618  1.3566 -0.3807
   24MOL0     C 3242   2.743   3.495  11.623  0.0324  0.8394  0.4731
   24MOL0     H 3243   2.394   3.178  11.491 -1.8971  0.5413 -0.8352
   24MOL0     H 3244   2.189   3.147  11.362 -2.3368  2.6513 -2.8977
   24MOL0     H 3245   2.105   3.327  11.168  1.1915  1.6432 -4.7608
   24MOL0     H 3246   2.035   3.195  11.247  2.0412  1.8813  0.7682
   24MOL0     H 3247   1.947   3.319  10.990  0.5625  0.4908 -0.1091
   24MOL0     H 3248   1.995   3.158  10.970 -1.4957 -2.3646  0.5942
   24MOL0     H 3249   1.838   3.100  11.177 -4.6312  0.0395  0.9229
   24MOL0     H 3250   1.766   3.251  11.140 -2.3215 -0.0515 -2.0753
   24MOL0     H 3251   1.693   3.207  10.913 -1.3931  0.6633  1.0027
   24MOL0     H 3252   1.796   3.060  10.906  1.2585  0.7517  1.8723
   24MOL0     H 3253   1.642   2.973  11.097 -0.0131 -2.7024 -2.3311
   24MOL0     H 3254   1.579   2.975  10.939 -1.9959 -1.4645  1.3020
   24MOL0     H 3255   1.543   3.196  11.132  0.3009  0.1828 -1.1974
   24MOL0     H 3256   1.458   3.188  10.970 -0.9607  0.1396  0.9764
   24MOL0     H 3257   1.448   3.004  11.212  1.0683 -0.7936 -0.9701
   24MOL0     H 3258   1.351   2.981  11.065  0.3643 -0.6941  0.7297
   24MOL0     H 3259   1.340   3.231  11.223  0.3590  1.3763 -0.4250
   24MOL0     H 3260   1.234   3.168  11.087 -0.2019 -2.1695 -0.5878
   24MOL0     H 3261   0.993   3.113  11.174 -3.5579 -1.9708  2.1758
   24MOL0     H 3262   0.883   2.967  11.490  4.1161 -4.1154  0.2927
   24MOL0     H 3263   0.845   2.875  11.336 -0.8225  0.1627 -0.8072
   24MOL0     H 3264   0.838   3.179  11.340  0.6180 -0.0982 -0.9372
   24MOL0     H 3265   0.769   3.077  11.219  2.9649  1.2790 -0.5434
   24MOL0     H 3266   0.587   3.018  11.385  0.9035  0.0402 -0.9137
   24MOL0     H 3267   0.686   3.076  11.514  4.8811  0.4261 -0.9017
   24MOL0     H 3268   0.508   3.223  11.483 -0.5534 -0.9544  0.1201
   24MOL0     H 3269   0.658   3.315  11.429  0.1975 -1.5844 -2.1478
   24MOL0     H 3270   0.475   3.288  11.030  0.4580  0.9107  0.6802
   24MOL0     H 3271   0.250   3.447  10.860 -0.6343  0.6872  0.8539
   24MOL0     H 3272   0.433   3.407  10.859 -0.5096 -0.6441  0.4516
   24MOL0     H 3273   0.371   3.571  10.860  0.1493 -0.7572 -0.6410
   24MOL0     H 3274   0.222   4.024  11.172 -1.0457  2.2559  1.3248
   24MOL0     H 3275   0.042   4.189  11.097 -3.4832  1.7510  1.9854
   24MOL0     H 3276  -0.295   4.188  11.230 -2.6873  2.4025 -0.3565
   24MOL0     H 3277  -0.153   4.286  11.186 -0.7370  0.4351 -0.2359
   24MOL0     H 3278  -0.380   4.279  10.993 -0.3519  1.9027 -1.3913
   24MOL0     H 3279  -0.412   4.349  11.150  0.0483  1.3436  0.8285
   24MOL0     H 3280  -0.176   4.447  10.977 -0.1261 -3.8263  0.9228
   24MOL0     H 3281  -0.247   4.531  11.121  0.1631 -1.4251  1.0520
   24MOL0     H 3282  -0.426   4.592  11.022 -0.9803 -4.8439  0.9983
   24MOL0     H 3283  -0.406   4.509  10.861  2.4982 -1.0628 -0.1701
   24MOL0     H 3284  -0.225   4.730  10.973 -1.9751 -0.7540  1.3836
   24MOL0     H 3285  -0.186   4.643  10.825  1.1810 -1.7522  0.8693
   24MOL0     H 3286  -0.448   4.775  10.862  1.1415  1.8990  0.7584
   24MOL0     H 3287  -0.377   4.693  10.719 -2.0417 -0.5577  1.5288
   24MOL0     H 3288  -0.336   4.918  10.651 -3.0693  2.5822  1.6951
   24MOL0     H 3289  -0.187   4.872  10.744 -0.4812 -1.5419  2.1159
   24MOL0     H 3290  -0.306   4.965  10.946  1.3378 -0.0350 -0.0375
   24MOL0     H 3291  -0.440   5.004  10.829 -0.0169 -1.0285  1.1450
   24MOL0     H 3292  -0.249   3.873  11.099  0.3701 -0.1768  2.1744
   24MOL0     H 3293  -0.084   3.710  11.160  2.2371 -1.0004 -0.8897
   24MOL0     H 3294   0.267   3.598  11.345 -0.7362  3.5663 -1.6690
   24MOL0     H 3295   0.402   3.424  11.424  0.5831  0.8881 -0.0985
   24MOL0     H 3296   2.399   3.106  11.000 -0.1083  0.4821  0.3876
   24MOL0     H 3297   2.613   3.118  11.127 -0.7151 -1.1655 -1.7262
   24MOL0     H 3298   2.927   3.126  11.380 -0.0713  0.6019 -1.2789
   24MOL0     H 3299   3.115   3.120  11.512 -0.3402 -0.4494  1.1864
   24MOL0     H 3300   3.242   3.503  11.665  2.3046  0.0787  0.1608
   24MOL0     H 3301   3.190   3.471  11.826 -0.7908  0.4364 -0.8799
   24MOL0     H 3302   3.425   3.315  11.732 -0.3860  1.0986 -1.1515
   24MOL0     H 3303   3.382   3.375  11.893 -0.8379  0.4651 -0.3061
   24MOL0     H 3304   3.587   3.491  11.826  0.6143  0.4258 -1.6647
   24MOL0     H 3305   3.507   3.542  11.681  2.0259  0.8538 -0.1161
   24MOL0     H 3306   3.477   3.623  11.974 -1.4616  2.8663  1.0785
   24MOL0     H 3307   3.330   3.638  11.893  1.0431  3.1945  1.1533
   24MOL0     H 3308   3.548   3.949  11.712 -0.1819 -0.3638 -0.3020
   24MOL0     H 3309   2.988   3.477  11.722 -1.2861  1.1029 -0.3697
   24MOL0     H 3310   2.763   3.540  11.721  1.1439  0.9895  0.1868
   24MOL0     H 3311   2.725   3.581  11.558  2.8173  0.9284 -0.3169
   24MOL0     H 3312   2.656   3.430  11.635 -0.8537  1.8774 -0.2077
   25MOL0     O 3313   2.286  11.083   4.834  0.3771 -0.2110 -0.0238
   25MOL0     C 3314   2.268  11.070   4.953  0.1153  0.0697 -0.7709
   25MOL0     O 3315   2.154  11.027   5.012 -0.1188  0.3346 -0.5627
   25MOL0     C 3316   2.047  10.983   4.931  0.5132  0.7384  0.2242
   25MOL0     C 3317   1.976  11.062   4.838 -0.2969 -0.1709  1.0445
   25MOL0     C 3318   1.882  11.007   4.749 -0.4316 -0.5904  0.0196
   25MOL0     C 3319   1.859  10.866   4.752  0.2577  0.4615  0.6389
   25MOL0     O 3320   1.767  10.823   4.665  1.2873 -0.5118 -0.2192
   25MOL0     C 3321   1.751  10.679   4.642  0.9909  0.5550  1.2847
   25MOL0     C 3322   1.668  10.682   4.512 -0.3523 -0.1341 -0.2352
   25MOL0     C 3323   1.622  10.547   4.463  0.4499 -0.0287 -0.6059
   25MOL0     C 3324   1.505  10.540   4.367  0.1136 -0.7168 -1.6340
   25MOL0     C 3325   1.482  10.414   4.290  0.6415  0.7979  0.0272
   25MOL0     C 3326   1.396  10.421   4.163  1.0945 -0.1925 -0.3584
   25MOL0     C 3327   1.253  10.447   4.208  0.3459  0.5933  0.1284
   25MOL0     C 3328   1.184  10.358   4.317  0.2768 -0.1482 -1.0731
   25MOL0     N 3329   1.047  10.408   4.342  0.1233 -0.5765  0.0873
   25MOL0     C 3330   1.001  10.533   4.382 -0.6629 -0.3174 -0.0886
   25MOL0     C 3331   0.870  10.529   4.385  0.7024 -0.8582  0.2174
   25MOL0     C 3332   0.760  10.635   4.415 -0.4442 -0.0391 -0.1520
   25MOL0     C 3333   0.796  10.768   4.345  0.2934 -1.2845  0.3386
   25MOL0     C 3334   0.717  10.891   4.401 -0.2942  0.5996  1.0012
   25MOL0     C 3335   0.583  10.900   4.350  0.7685 -0.9066 -0.0129
   25MOL0     O 3336   0.567  10.997   4.248  0.2822  0.4791 -0.1549
   25MOL0     C 3337   0.538  11.127   4.270  0.0543 -0.7957 -1.1819
   25MOL0     C 3338   0.518  11.209   4.160 -0.2766  0.0387  0.4885
   25MOL0     C 3339   0.470  11.343   4.166 -1.1653  0.7367  0.5848
   25MOL0     C 3340   0.462  11.430   4.053 -0.2655 -0.3262  0.3313
   25MOL0     C 3341   0.464  11.399   4.301 -0.4463 -0.0594 -0.8523
   25MOL0     C 3342   0.434  11.540   4.324  0.2065  0.9896  0.5938
   25MOL0     O 3343   0.381  11.551   4.448  0.4005 -0.0162 -0.0310
   25MOL0     C 3344   0.380  11.678   4.497 -0.1081  0.3902  0.6658
   25MOL0     C 3345   0.263  11.758   4.496  0.6283 -0.2963  0.6537
   25MOL0     C 3346   0.252  11.879   4.571  0.5065 -0.4836 -0.5069
   25MOL0     C 3347   0.370  11.928   4.634 -0.6615  1.1875  0.0577
   25MOL0     O 3348   0.360  12.034   4.714 -0.0251  0.4160  0.2913
   25MOL0     C 3349   0.450  12.148   4.684  0.2963 -0.0112 -0.2662
   25MOL0     C 3350   0.425  12.249   4.795 -1.1015  0.8335  0.8473
   25MOL0     C 3351   0.278  12.289   4.808  0.4475  0.1292 -0.1500
   25MOL0     C 3352   0.254  12.430   4.858 -0.3851 -0.5088  0.1266
   25MOL0     C 3353   0.112  12.464   4.848  0.6104 -0.1794 -0.5142
   25MOL0     C 3354   0.076  12.608   4.884 -0.1548 -0.7217  0.2103
   25MOL0     C 3355   0.093  12.720   4.773  0.3899  0.2056 -0.1565
   25MOL0     C 3356  -0.038  12.733   4.687 -0.5020 -0.1635  0.3766
   25MOL0    Cl 3357  -0.181  12.751   4.769 -0.0750 -0.2806  0.1672
   25MOL0     C 3358   0.485  11.847   4.632 -0.0580  0.0026  0.0850
   25MOL0     C 3359   0.487  11.721   4.574  0.4238 -0.2031  0.6171
   25MOL0     O 3360   0.468  11.635   4.252  0.7648  0.6825  0.5561
   25MOL0     C 3361   0.475  11.315   4.410  0.1643 -0.2258 -0.6899
   25MOL0     C 3362   0.515  11.179   4.399 -0.4864 -0.0038  0.8647
   25MOL0     N 3363   0.834  10.411   4.321  0.2937  0.0145 -0.4426
   25MOL0     N 3364   0.938  10.336   4.301  0.2566  0.2455 -0.6456
   25MOL0     C 3365   1.927  10.778   4.845 -0.2223 -0.5995  0.0974
   25MOL0     C 3366   2.023  10.841   4.929  0.1535 -0.5468 -0.0560
   25MOL0     C 3367   2.376  11.111   5.053  0.4327  0.5318  0.4141
   25MOL0     C 3368   2.375  11.043   5.175 -0.0942  0.1641 -0.5200
   25MOL0     C 3369   2.470  11.076   5.271 -0.3137  0.7221 -0.2718
   25MOL0     C 3370   2.558  11.180   5.255 -0.4726  0.0850 -0.4006
   25MOL0     O 3371   2.649  11.219   5.357 -0.0516  0.1569 -0.4050
   25MOL0     C 3372   2.638  11.159   5.489 -0.2159  0.2422  0.3081
   25MOL0     C 3373   2.721  11.226   5.601 -1.7134  0.0424  0.2254
   25MOL0     C 3374   2.875  11.237   5.569  0.0705 -0.6663  0.6191
   25MOL0     C 3375   2.933  11.348   5.655 -0.2588  0.3050  0.2346
   25MOL0     C 3376   2.921  11.313   5.799 -0.4815 -0.6732 -0.9277
   25MOL0     C 3377   2.917  11.292   5.921  0.2484 -1.4018  0.2679
   25MOL0     C 3378   2.557  11.240   5.135  0.8510 -0.7400  0.5153
   25MOL0     C 3379   2.461  11.217   5.032 -0.1474 -0.7338  0.1743
   25MOL0     C 3380   2.478  11.299   4.906  0.0573 -0.2568 -0.0711
   25MOL0     H 3381   2.012  11.164   4.836  1.3373 -0.2382  7.0601
   25MOL0     H 3382   1.832  11.076   4.681  0.1346  1.6935  1.7797
   25MOL0     H 3383   1.696  10.633   4.725 -1.8624  0.6393 -0.4128
   25MOL0     H 3384   1.845  10.625   4.632  1.9661  2.5018 -1.0597
   25MOL0     H 3385   1.579  10.741   4.536 -0.4375 -0.6308  0.7094
   25MOL0     H 3386   1.719  10.747   4.441 -3.6142 -0.1207 -2.8532
   25MOL0     H 3387   1.719  10.518   4.421  1.7936  1.8128  0.9944
   25MOL0     H 3388   1.604  10.483   4.549 -1.3998  0.6112 -0.4703
   25MOL0     H 3389   1.412  10.557   4.421 -0.6490 -4.6050 -1.4601
   25MOL0     H 3390   1.542  10.624   4.307 -0.3804  0.8460  0.1511
   25MOL0     H 3391   1.446  10.332   4.353  0.1826 -0.9947 -2.4307
   25MOL0     H 3392   1.581  10.384   4.255 -0.1904  0.7775 -2.4794
   25MOL0     H 3393   1.429  10.501   4.097  1.2935 -0.0623 -0.0970
   25MOL0     H 3394   1.382  10.325   4.111  0.8234 -1.9584  2.7121
   25MOL0     H 3395   1.181  10.423   4.129  0.5486  0.3314  0.0222
   25MOL0     H 3396   1.246  10.555   4.225 -2.6530  0.5730 -0.3803
   25MOL0     H 3397   1.199  10.258   4.277  0.6011 -0.8457  0.7035
   25MOL0     H 3398   1.225  10.365   4.418 -3.1310 -1.6742  0.5758
   25MOL0     H 3399   1.065  10.620   4.387 -1.9354  0.5893  1.1887
   25MOL0     H 3400   0.753  10.649   4.523  0.1706 -1.2647  0.0557
   25MOL0     H 3401   0.663  10.603   4.377 -0.9990  1.2971  0.0800
   25MOL0     H 3402   0.904  10.782   4.336  0.1399 -1.5102 -3.8203
   25MOL0     H 3403   0.758  10.758   4.243 -0.5709 -1.7721  0.7023
   25MOL0     H 3404   0.713  10.875   4.509  2.0829 -2.1606  0.8145
   25MOL0     H 3405   0.761  10.987   4.372 -1.1496  0.5576 -0.5296
   25MOL0     H 3406   0.546  10.809   4.303  0.0752  0.7659 -2.9695
   25MOL0     H 3407   0.514  10.910   4.435 -0.6798 -2.1212 -0.9919
   25MOL0     H 3408   0.526  11.174   4.058  2.2357 -1.2771  1.0683
   25MOL0     H 3409   0.556  11.479   4.028  1.1818 -3.4678 -0.7763
   25MOL0     H 3410   0.381  11.504   4.057 -1.3001 -1.1968 -2.5171
   25MOL0     H 3411   0.444  11.378   3.959  0.4725  3.3961 -2.0734
   25MOL0     H 3412   0.176  11.716   4.447  0.5944  0.3992  0.0964
   25MOL0     H 3413   0.156  11.927   4.584  1.7422  1.6656  1.4340
   25MOL0     H 3414   0.556  12.121   4.692  0.3334 -0.6502 -2.3801
   25MOL0     H 3415   0.427  12.197   4.590 -1.2585 -2.2766 -1.1620
   25MOL0     H 3416   0.477  12.212   4.884  0.0089 -1.7653 -0.7657
   25MOL0     H 3417   0.479  12.335   4.754  0.6327 -1.4048 -2.0487
   25MOL0     H 3418   0.220  12.231   4.881 -1.8949  1.0277 -1.1883
   25MOL0     H 3419   0.227  12.273   4.713 -0.1847 -0.6252  0.2958
   25MOL0     H 3420   0.312  12.506   4.804  0.7130 -1.3707  0.0680
   25MOL0     H 3421   0.276  12.439   4.964 -2.1902 -0.4670  0.5253
   25MOL0     H 3422   0.082  12.439   4.746  1.0605  2.2055 -1.2985
   25MOL0     H 3423   0.057  12.399   4.917  1.6300  1.1305  1.6631
   25MOL0     H 3424   0.142  12.630   4.968 -0.1420  0.5934 -0.1151
   25MOL0     H 3425  -0.029  12.621   4.915 -0.4050 -2.3639  0.1032
   25MOL0     H 3426   0.186  12.688   4.724 -0.2125  1.1053 -1.9786
   25MOL0     H 3427   0.125  12.813   4.819  3.2236 -0.5673 -0.3672
   25MOL0     H 3428  -0.048  12.645   4.622  1.7528 -1.7771  2.0426
   25MOL0     H 3429  -0.018  12.821   4.625 -0.5164 -1.6691 -1.8791
   25MOL0     H 3430   0.568  11.872   4.696 -0.7183  2.0328  0.2120
   25MOL0     H 3431   0.568  11.648   4.580  0.0996 -1.2680 -4.0676
   25MOL0     H 3432   0.468  11.354   4.511 -0.5449 -1.1770 -0.3615
   25MOL0     H 3433   0.534  11.109   4.479  2.6377 -1.0656 -0.6496
   25MOL0     H 3434   1.905  10.672   4.844  0.8149 -0.8253  0.4306
   25MOL0     H 3435   2.084  10.788   5.001  5.0471 -0.3816 -3.5950
   25MOL0     H 3436   2.293  10.973   5.191  0.6914 -0.5276  0.5983
   25MOL0     H 3437   2.476  11.026   5.367  0.9239  1.7949  0.2347
   25MOL0     H 3438   2.531  11.171   5.513 -1.6011  0.9752 -4.9604
   25MOL0     H 3439   2.655  11.051   5.497 -0.8770  0.2579  3.1643
   25MOL0     H 3440   2.722  11.166   5.693  1.8382 -0.6427 -0.0846
   25MOL0     H 3441   2.675  11.319   5.633 -1.5183  0.1029  0.3352
   25MOL0     H 3442   2.933  11.147   5.590  0.8415  0.5146  4.5082
   25MOL0     H 3443   2.886  11.265   5.464 -1.6828 -2.6928 -0.1748
   25MOL0     H 3444   2.890  11.446   5.633  0.6105  0.7075  0.2511
   25MOL0     H 3445   3.039  11.365   5.634 -0.5356  1.2515 -0.4843
   25MOL0     H 3446   2.908  11.279   6.027 -2.5883  1.5844  0.5714
   25MOL0     H 3447   2.628  11.323   5.134 -0.8614  0.7852  0.7968
   25MOL0     H 3448   2.480  11.230   4.821 -3.5157  0.5234 -0.9529
   25MOL0     H 3449   2.396  11.369   4.889  0.3203 -0.1127 -0.7850
   25MOL0     H 3450   2.574  11.352   4.901  1.2010 -1.5969  4.1130
   26MOL0     O 3451  10.445   4.460   0.089 -0.2234 -0.0164  0.8362
   26MOL0     C 3452  10.379   4.397   0.168 -0.4797  0.4358  0.2563
   26MOL0     O 3453  10.268   4.316   0.141  0.4407  0.3890 -0.4511
   26MOL0     C 3454  10.208   4.343   0.017  0.4371 -0.5420  0.4059
   26MOL0     C 3455  10.200   4.249  -0.089  0.2948 -0.4231  0.0135
   26MOL0     C 3456  10.120   4.256  -0.197  0.8193  0.4950 -0.4467
   26MOL0     C 3457  10.032   4.365  -0.208  0.0161 -0.0491 -1.0866
   26MOL0     O 3458   9.944   4.370  -0.311 -0.7007 -0.3049 -0.3171
   26MOL0     C 3459   9.845   4.471  -0.330 -0.1215 -0.0403  0.4059
   26MOL0     C 3460   9.771   4.443  -0.464 -0.2798  0.0205  0.0463
   26MOL0     C 3461   9.797   4.545  -0.572 -0.7746  0.2958  0.1005
   26MOL0     C 3462   9.697   4.526  -0.694  0.0302  0.5659  0.1976
   26MOL0     C 3463   9.753   4.398  -0.773  0.1465  0.7586  0.3038
   26MOL0     C 3464   9.666   4.377  -0.900 -1.6083  0.1683 -0.3842
   26MOL0     C 3465   9.664   4.490  -0.996  0.0219 -0.8987  0.8809
   26MOL0     C 3466   9.586   4.459  -1.125  0.6174  1.3261 -0.1138
   26MOL0     N 3467   9.444   4.413  -1.097 -0.1894 -0.3917 -0.0403
   26MOL0     C 3468   9.347   4.502  -1.081  0.7060 -0.4839 -0.6369
   26MOL0     C 3469   9.232   4.430  -1.042 -0.0068  0.6422  0.7685
   26MOL0     C 3470   9.089   4.486  -1.027  0.8118  0.4739 -0.4919
   26MOL0     C 3471   9.065   4.594  -0.914 -0.7335  0.6689  0.1362
   26MOL0     C 3472   9.078   4.552  -0.773  0.1755 -0.4602 -0.5949
   26MOL0     C 3473   9.218   4.521  -0.723  0.6085 -0.0949 -0.0987
   26MOL0     O 3474   9.218   4.503  -0.582  0.0591 -0.8146 -0.0525
   26MOL0     C 3475   9.312   4.429  -0.524 -0.6206  0.5966 -0.2528
   26MOL0     C 3476   9.338   4.477  -0.393  0.0762 -0.3301 -0.1064
   26MOL0     C 3477   9.430   4.412  -0.308  0.0791  0.0885 -0.8664
   26MOL0     C 3478   9.435   4.457  -0.170 -0.0748 -0.0682 -0.3246
   26MOL0     C 3479   9.493   4.292  -0.357  0.5527 -0.8571 -1.0841
   26MOL0     C 3480   9.593   4.216  -0.264  0.3319 -0.7678  0.3078
   26MOL0     O 3481   9.650   4.270  -0.161 -0.4631 -0.3497  0.6921
   26MOL0     C 3482   9.727   4.212  -0.062  0.0602  0.7089 -0.3020
   26MOL0     C 3483   9.795   4.301   0.017 -0.0810  0.2276 -0.0126
   26MOL0     C 3484   9.869   4.260   0.123  0.0701 -0.3469  0.4999
   26MOL0     C 3485   9.898   4.127   0.141  0.6586  1.5561 -0.0107
   26MOL0     O 3486   9.978   4.066   0.238 -1.1665  0.0680  0.2204
   26MOL0     C 3487  10.017   4.156   0.342  0.1498  0.5912 -0.2044
   26MOL0     C 3488  10.124   4.097   0.446 -0.6758  0.2595  1.0117
   26MOL0     C 3489  10.065   4.012   0.550 -0.5526 -0.3535 -0.2338
   26MOL0     C 3490  10.184   3.953   0.624  0.1403 -0.6051 -0.7521
   26MOL0     C 3491  10.137   3.859   0.745  0.5833  0.2338  0.0960
   26MOL0     C 3492  10.225   3.748   0.806  0.0693  0.3546  0.6440
   26MOL0     C 3493  10.177   3.707   0.945 -0.5689 -0.1646  0.1769
   26MOL0     C 3494  10.221   3.564   1.000 -0.4445 -0.6151 -0.4869
   26MOL0    Cl 3495  10.397   3.554   1.029  0.1434 -0.9017 -0.2526
   26MOL0     C 3496   9.841   4.032   0.052 -0.1237  0.8049 -0.3084
   26MOL0     C 3497   9.754   4.073  -0.049  0.7978 -0.2197  0.2424
   26MOL0     O 3498   9.631   4.117  -0.322 -0.5286  0.4778  0.2348
   26MOL0     C 3499   9.462   4.249  -0.485  0.4741 -0.7276 -0.0886
   26MOL0     C 3500   9.367   4.311  -0.566  0.0072 -0.5865 -0.3091
   26MOL0     N 3501   9.276   4.294  -1.027  0.1856  0.2416 -0.0750
   26MOL0     N 3502   9.392   4.284  -1.068  0.4842 -0.1387  0.0295
   26MOL0     C 3503  10.059   4.468  -0.123  0.4661 -0.9859 -0.2816
   26MOL0     C 3504  10.133   4.454  -0.006  0.9722 -0.6900 -0.8464
   26MOL0     C 3505  10.443   4.392   0.298 -0.0883 -0.2104 -0.0288
   26MOL0     C 3506  10.495   4.267   0.336  0.4034  0.7342  0.0078
   26MOL0     C 3507  10.566   4.240   0.443 -0.7858 -0.0931  0.7025
   26MOL0     C 3508  10.600   4.340   0.530  1.0500  0.2082 -0.2463
   26MOL0     O 3509  10.678   4.313   0.642 -0.1159  0.3985 -0.2183
   26MOL0     C 3510  10.815   4.267   0.611 -0.1420 -0.5411  0.0053
   26MOL0     C 3511  10.925   4.320   0.710 -1.3549 -0.3489 -0.4673
   26MOL0     C 3512  10.906   4.307   0.867 -0.1731  0.4300  0.2136
   26MOL0     C 3513  10.925   4.169   0.931 -0.0638  0.8892  0.4244
   26MOL0     C 3514  10.855   4.172   1.063 -0.3993  0.0251 -0.4937
   26MOL0     C 3515  10.807   4.171   1.176 -0.3880  0.4162  0.4827
   26MOL0     C 3516  10.546   4.465   0.507  0.1286  0.2537 -0.6367
   26MOL0     C 3517  10.472   4.497   0.393  0.6606  0.9200  0.1742
   26MOL0     C 3518  10.422   4.630   0.395  0.6974 -0.6953 -0.2005
   26MOL0     H 3519  10.267   4.165  -0.075 -2.0939 -2.2126  1.6467
   26MOL0     H 3520  10.122   4.187  -0.281 -1.1387  1.8668 -1.7030
   26MOL0     H 3521   9.896   4.568  -0.333 -0.5391  0.1998  0.8303
   26MOL0     H 3522   9.772   4.481  -0.249  0.4370  3.8141  0.6291
   26MOL0     H 3523   9.783   4.341  -0.500 -0.2049 -0.1853  0.6413
   26MOL0     H 3524   9.664   4.442  -0.442 -0.2067 -3.5020  0.8813
   26MOL0     H 3525   9.764   4.643  -0.535  0.4669  1.6917 -2.2359
   26MOL0     H 3526   9.901   4.550  -0.605 -1.1621 -1.2954 -1.4807
   26MOL0     H 3527   9.595   4.495  -0.669  0.5143  0.5110  2.2877
   26MOL0     H 3528   9.697   4.619  -0.752 -3.5158 -0.2522 -1.3214
   26MOL0     H 3529   9.760   4.305  -0.715  0.5158 -1.2867 -2.7370
   26MOL0     H 3530   9.857   4.424  -0.797  0.4947  0.7226  1.6983
   26MOL0     H 3531   9.712   4.290  -0.947 -0.6388  0.3715  0.1732
   26MOL0     H 3532   9.567   4.345  -0.866 -1.1074 -1.3488 -0.3052
   26MOL0     H 3533   9.772   4.496  -1.015  0.4317  0.9730  3.2461
   26MOL0     H 3534   9.635   4.590  -0.962  1.0424  0.3022 -1.5288
   26MOL0     H 3535   9.576   4.531  -1.207 -3.1159 -0.8305 -1.8178
   26MOL0     H 3536   9.636   4.378  -1.179  0.7466  0.8143  0.7564
   26MOL0     H 3537   9.348   4.610  -1.094 -0.6364 -0.1045  1.7447
   26MOL0     H 3538   9.019   4.403  -1.013  0.8370  0.7020  1.2901
   26MOL0     H 3539   9.076   4.538  -1.122  0.8953 -0.1493 -0.8528
   26MOL0     H 3540   9.148   4.664  -0.927  0.2736 -0.7882 -1.8204
   26MOL0     H 3541   8.971   4.643  -0.939 -0.1598  0.9687 -1.5666
   26MOL0     H 3542   9.059   4.644  -0.716  0.5602 -0.4951 -0.4053
   26MOL0     H 3543   9.014   4.471  -0.738 -0.3526  0.5929  1.0393
   26MOL0     H 3544   9.263   4.430  -0.765  0.0314 -1.5134  2.1777
   26MOL0     H 3545   9.295   4.597  -0.735  2.3061 -1.9338 -1.5636
   26MOL0     H 3546   9.290   4.573  -0.374 -0.9314 -1.2413  2.3873
   26MOL0     H 3547   9.411   4.368  -0.111  0.5250  0.7400  1.1888
   26MOL0     H 3548   9.366   4.540  -0.152 -0.7409 -1.0975  2.3939
   26MOL0     H 3549   9.537   4.491  -0.150 -0.8527  1.3327  1.5692
   26MOL0     H 3550   9.783   4.408   0.004  0.9878  0.3834  0.2317
   26MOL0     H 3551   9.924   4.334   0.181 -1.2940  2.0850 -1.1483
   26MOL0     H 3552  10.073   4.242   0.306  1.2343  0.0921  0.2305
   26MOL0     H 3553   9.934   4.194   0.402  0.7725  1.7542 -0.0487
   26MOL0     H 3554  10.211   4.047   0.402 -0.5950  0.9913  0.2845
   26MOL0     H 3555  10.161   4.188   0.495  0.5716 -0.7442  1.9731
   26MOL0     H 3556   9.988   3.949   0.505 -0.0198 -0.5950 -0.8336
   26MOL0     H 3557  10.015   4.080   0.619 -1.9070  1.1056 -2.4945
   26MOL0     H 3558  10.256   4.033   0.645  0.5736 -1.1321 -0.1950
   26MOL0     H 3559  10.236   3.882   0.559 -2.2425  0.2845 -3.8746
   26MOL0     H 3560  10.108   3.918   0.832  1.0432 -1.3460  1.3756
   26MOL0     H 3561  10.045   3.810   0.710 -0.7469  1.6470  1.4798
   26MOL0     H 3562  10.330   3.780   0.800 -0.1220  0.7733 -1.8211
   26MOL0     H 3563  10.207   3.665   0.736  0.2192  0.0949  0.9100
   26MOL0     H 3564  10.068   3.703   0.933 -0.7356 -2.7219  1.8646
   26MOL0     H 3565  10.215   3.787   1.010  1.1553  0.1715 -1.1806
   26MOL0     H 3566  10.191   3.483   0.933 -0.9734  0.6386 -1.8111
   26MOL0     H 3567  10.171   3.543   1.096  1.6333 -1.0277  0.5598
   26MOL0     H 3568   9.877   3.930   0.058 -0.6481  0.2696 -3.9735
   26MOL0     H 3569   9.720   4.009  -0.130 -1.4039  4.5500 -3.0653
   26MOL0     H 3570   9.514   4.161  -0.522 -1.8843 -1.9587 -0.6326
   26MOL0     H 3571   9.336   4.264  -0.659 -1.0863 -1.3231  0.4029
   26MOL0     H 3572  10.001   4.559  -0.134  1.3604  0.0693  2.7732
   26MOL0     H 3573  10.124   4.533   0.068 -1.5920  0.5702 -2.3474
   26MOL0     H 3574  10.473   4.179   0.276 -0.9338 -1.5849  3.5579
   26MOL0     H 3575  10.580   4.135   0.468 -1.7404  0.3207  3.3062
   26MOL0     H 3576  10.812   4.158   0.598  0.1136 -0.5443 -0.0233
   26MOL0     H 3577  10.840   4.320   0.519  0.2543  2.0288  1.5034
   26MOL0     H 3578  10.939   4.425   0.684  1.7732 -0.3599  0.7291
   26MOL0     H 3579  11.020   4.272   0.682 -0.1981  0.8850  1.1678
   26MOL0     H 3580  10.986   4.373   0.904 -1.0571  0.2990  2.4594
   26MOL0     H 3581  10.810   4.345   0.903 -3.6495 -3.1405 -4.0350
   26MOL0     H 3582  11.027   4.137   0.954 -0.3307  1.6415  3.0316
   26MOL0     H 3583  10.867   4.096   0.874 -0.7693  0.4587  1.6409
   26MOL0     H 3584  10.748   4.152   1.264  0.0622 -2.2560  0.2980
   26MOL0     H 3585  10.579   4.540   0.578  0.5957 -1.9952  1.6882
   26MOL0     H 3586  10.447   4.671   0.297  0.2896  1.7356  0.6229
   26MOL0     H 3587  10.318   4.626   0.428  1.1739  0.3042  1.5872
   26MOL0     H 3588  10.464   4.694   0.474  3.7647 -0.5310 -1.7979
   27MOL0     O 3589   9.202   4.556   8.308 -0.9598 -0.2534  0.0846
   27MOL0     C 3590   9.215   4.432   8.302 -0.2754  0.0338 -0.3818
   27MOL0     O 3591   9.239   4.358   8.409  0.1582  0.1730 -0.0191
   27MOL0     C 3592   9.284   4.422   8.518 -1.0946 -0.4445 -0.6787
   27MOL0     C 3593   9.192   4.510   8.580  0.8286 -0.1624  0.3058
   27MOL0     C 3594   9.225   4.567   8.700  0.5190 -0.3360  1.0634
   27MOL0     C 3595   9.354   4.556   8.747 -0.0176  0.3315 -0.1497
   27MOL0     O 3596   9.408   4.621   8.861  0.1328 -0.0423 -0.3610
   27MOL0     C 3597   9.322   4.710   8.937 -0.2453  0.1180  0.4246
   27MOL0     C 3598   9.396   4.735   9.069 -0.2772  0.6032 -0.5164
   27MOL0     C 3599   9.419   4.594   9.136 -0.1909  0.6723  0.6077
   27MOL0     C 3600   9.437   4.612   9.293  0.5456 -0.2633  0.7382
   27MOL0     C 3601   9.391   4.491   9.373  1.0923 -0.5164 -0.6643
   27MOL0     C 3602   9.234   4.494   9.383 -0.1632  0.4217  0.2838
   27MOL0     C 3603   9.190   4.406   9.494 -0.2204 -1.3851 -0.0851
   27MOL0     C 3604   9.230   4.255   9.493  0.3247 -0.4439 -2.1253
   27MOL0     N 3605   9.215   4.190   9.630 -0.3568 -0.2218  1.2081
   27MOL0     C 3606   9.090   4.151   9.679  0.5913 -0.6552 -0.5050
   27MOL0     C 3607   9.120   4.113   9.803 -0.4508  0.6246  0.3905
   27MOL0     C 3608   9.018   4.054   9.897  0.5545 -0.6821 -0.2012
   27MOL0     C 3609   8.967   3.921   9.855 -0.8827 -1.1231 -0.1488
   27MOL0     C 3610   9.070   3.807   9.858 -0.5686  0.9742  0.8227
   27MOL0     C 3611   9.146   3.781   9.723  0.4890  0.1482  0.5680
   27MOL0     O 3612   9.058   3.786   9.608 -0.0566  0.8435 -0.0612
   27MOL0     C 3613   8.995   3.665   9.581 -0.3889 -0.5241 -0.0047
   27MOL0     C 3614   9.054   3.587   9.483  0.2245  0.4558 -0.1914
   27MOL0     C 3615   8.987   3.476   9.430  0.1715 -0.2581  0.6361
   27MOL0     C 3616   9.056   3.395   9.310  1.3360 -0.4542 -0.7837
   27MOL0     C 3617   8.871   3.420   9.492  0.0364  0.3965 -0.0166
   27MOL0     C 3618   8.800   3.306   9.448  0.6385  0.0681  1.4836
   27MOL0     O 3619   8.794   3.212   9.541  0.0861 -0.4165 -0.0094
   27MOL0     C 3620   8.742   3.086   9.513  0.2225 -0.2547 -0.3419
   27MOL0     C 3621   8.668   3.051   9.404  0.4526  0.0486  0.1175
   27MOL0     C 3622   8.595   2.933   9.399 -0.4388 -0.2824  0.5806
   27MOL0     C 3623   8.618   2.832   9.495 -0.1077  0.8935  0.0048
   27MOL0     O 3624   8.552   2.714   9.488 -1.1512 -0.6348 -0.0376
   27MOL0     C 3625   8.549   2.638   9.372  0.2924  0.5650  0.7009
   27MOL0     C 3626   8.404   2.639   9.320 -0.6640  0.0240 -0.0981
   27MOL0     C 3627   8.397   2.576   9.171 -0.3852 -0.5190  0.0965
   27MOL0     C 3628   8.448   2.431   9.188  0.5087  0.2867 -0.4993
   27MOL0     C 3629   8.432   2.330   9.070 -0.0807 -1.7157  0.0929
   27MOL0     C 3630   8.509   2.209   9.107  0.1317  0.2378 -0.9044
   27MOL0     C 3631   8.534   2.111   8.994 -1.3989  0.8828  0.5800
   27MOL0     C 3632   8.563   1.968   9.031  0.9263 -0.3625 -0.1617
   27MOL0    Cl 3633   8.705   1.955   9.137 -0.5909 -0.0487  0.1892
   27MOL0     C 3634   8.691   2.866   9.607 -0.5371  0.2109 -1.2946
   27MOL0     C 3635   8.750   2.989   9.616  0.0430 -0.0195 -0.4024
   27MOL0     O 3636   8.776   3.298   9.325 -0.2135 -0.1675 -0.6132
   27MOL0     C 3637   8.826   3.481   9.609 -0.8158 -0.5865  0.0191
   27MOL0     C 3638   8.882   3.605   9.646  0.3242 -0.7543  0.7382
   27MOL0     N 3639   9.255   4.130   9.828  0.5273  0.4887 -0.1766
   27MOL0     N 3640   9.315   4.178   9.725 -0.2108 -0.4658  0.0382
   27MOL0     C 3641   9.442   4.475   8.684 -0.0211 -0.4296 -0.0002
   27MOL0     C 3642   9.408   4.405   8.569  0.1864 -0.2428  1.4221
   27MOL0     C 3643   9.201   4.365   8.165 -0.0219  0.5949 -0.9943
   27MOL0     C 3644   9.171   4.226   8.151  0.3287 -0.1720  0.5841
   27MOL0     C 3645   9.156   4.174   8.027  0.2864 -0.9597  1.3334
   27MOL0     C 3646   9.156   4.250   7.911  0.6671 -0.2760  1.4259
   27MOL0     O 3647   9.110   4.185   7.793  0.5562  0.5479 -0.3380
   27MOL0     C 3648   9.127   4.241   7.663 -0.0717 -0.5599 -0.2270
   27MOL0     C 3649   9.278   4.252   7.635  0.2989  0.2428  0.3884
   27MOL0     C 3650   9.335   4.110   7.630  0.3578 -0.4035  0.4280
   27MOL0     C 3651   9.430   4.075   7.513 -0.7759 -0.2503 -0.4747
   27MOL0     C 3652   9.380   4.110   7.379  0.5642 -0.7397  0.1481
   27MOL0     C 3653   9.337   4.149   7.273 -0.7550 -0.2254 -0.4257
   27MOL0     C 3654   9.190   4.386   7.917  0.3155  0.6306 -0.6583
   27MOL0     C 3655   9.211   4.443   8.043 -0.7856 -0.3215 -0.0350
   27MOL0     C 3656   9.272   4.586   8.035  0.0916  0.1024 -0.5955
   27MOL0     H 3657   9.090   4.510   8.543  0.8943 -1.3014  0.0864
   27MOL0     H 3658   9.153   4.632   8.749 -0.9737  0.0203 -1.4347
   27MOL0     H 3659   9.226   4.658   8.943  0.6067 -2.6126 -4.2990
   27MOL0     H 3660   9.302   4.804   8.885 -0.8280 -1.5064 -2.4903
   27MOL0     H 3661   9.493   4.786   9.076  0.7368 -1.2908 -0.2730
   27MOL0     H 3662   9.331   4.787   9.141  1.7303 -0.4972  2.2836
   27MOL0     H 3663   9.338   4.524   9.110  1.4642 -0.8688 -0.6266
   27MOL0     H 3664   9.508   4.558   9.084 -1.5735  0.0177 -1.4085
   27MOL0     H 3665   9.543   4.638   9.302 -0.3462  4.6742 -0.1193
   27MOL0     H 3666   9.374   4.692   9.333  1.0280  0.6832 -0.3514
   27MOL0     H 3667   9.429   4.512   9.473  0.2588 -2.4565  0.1116
   27MOL0     H 3668   9.426   4.392   9.342  1.0184 -1.5679  2.3382
   27MOL0     H 3669   9.192   4.594   9.394  2.8261  1.9175 -0.6730
   27MOL0     H 3670   9.185   4.455   9.293 -2.4298 -2.3607  2.5085
   27MOL0     H 3671   9.081   4.415   9.496 -0.1811  0.7923  4.0699
   27MOL0     H 3672   9.235   4.435   9.589  1.6360 -0.1561 -1.2557
   27MOL0     H 3673   9.169   4.202   9.419 -0.6048 -2.7182  0.1020
   27MOL0     H 3674   9.334   4.249   9.461  0.4590  1.9587 -2.2740
   27MOL0     H 3675   8.988   4.152   9.642 -0.3218 -0.6684  1.8453
   27MOL0     H 3676   8.940   4.128   9.915  0.7809 -0.3796 -0.4506
   27MOL0     H 3677   9.071   4.044   9.993  2.3995 -0.3605 -1.1306
   27MOL0     H 3678   8.887   3.894   9.924  2.1863 -0.6656  4.0279
   27MOL0     H 3679   8.937   3.934   9.751  1.1281 -0.7008 -0.7256
   27MOL0     H 3680   9.138   3.820   9.942 -1.7910 -2.0284  2.4159
   27MOL0     H 3681   9.018   3.713   9.879 -0.5384  0.0274 -2.5892
   27MOL0     H 3682   9.219   3.862   9.729  1.0289 -0.3176  0.3931
   27MOL0     H 3683   9.206   3.690   9.715  0.8116  0.0189  3.4449
   27MOL0     H 3684   9.139   3.628   9.430 -1.2767  2.1109 -1.4196
   27MOL0     H 3685   9.156   3.437   9.294  2.1024 -0.2273  3.3290
   27MOL0     H 3686   8.999   3.405   9.218  2.2379  0.2093 -1.2897
   27MOL0     H 3687   9.076   3.291   9.338  3.2144  0.4833  1.8143
   27MOL0     H 3688   8.649   3.119   9.321 -1.5065  0.4931  0.8568
   27MOL0     H 3689   8.524   2.915   9.318 -0.9906  0.1777  0.9507
   27MOL0     H 3690   8.612   2.677   9.291  0.2764 -1.0608 -0.1289
   27MOL0     H 3691   8.578   2.535   9.392 -0.8908 -0.1757 -1.0793
   27MOL0     H 3692   8.331   2.593   9.388  1.1729  0.9834  2.6924
   27MOL0     H 3693   8.361   2.740   9.318 -2.1053 -0.5729 -1.1216
   27MOL0     H 3694   8.451   2.645   9.106 -2.1110  1.1504  0.3545
   27MOL0     H 3695   8.295   2.570   9.131 -0.6242 -1.7149  0.8230
   27MOL0     H 3696   8.403   2.399   9.282  2.0328  3.6520  1.5442
   27MOL0     H 3697   8.558   2.432   9.186  0.5848 -2.1981 -2.4674
   27MOL0     H 3698   8.327   2.310   9.048 -0.9321  1.4230  0.8595
   27MOL0     H 3699   8.483   2.380   8.987 -1.3939 -1.0806 -0.3626
   27MOL0     H 3700   8.461   2.157   9.191  0.0002 -0.2075 -1.2503
   27MOL0     H 3701   8.610   2.230   9.142 -0.7231 -0.2823  2.2228
   27MOL0     H 3702   8.624   2.145   8.941 -1.1360 -3.9964 -2.7354
   27MOL0     H 3703   8.449   2.114   8.926 -0.2038 -1.1407 -1.1099
   27MOL0     H 3704   8.574   1.904   8.943 -4.2884 -2.7498  0.5363
   27MOL0     H 3705   8.478   1.921   9.081 -0.5176 -0.5230 -2.6270
   27MOL0     H 3706   8.688   2.807   9.698 -0.2934 -0.3051 -1.6202
   27MOL0     H 3707   8.808   3.017   9.703 -2.2418  1.9296  0.5865
   27MOL0     H 3708   8.740   3.444   9.664 -1.1540  0.7745  0.4454
   27MOL0     H 3709   8.831   3.663   9.722 -0.8343 -1.1823  0.3017
   27MOL0     H 3710   9.538   4.455   8.729  0.9362  1.9521 -0.8759
   27MOL0     H 3711   9.476   4.341   8.514 -0.2525  0.0365  0.5282
   27MOL0     H 3712   9.167   4.160   8.237 -2.4254 -0.3621  0.4021
   27MOL0     H 3713   9.134   4.071   8.003  2.6054 -1.7250  2.1994
   27MOL0     H 3714   9.081   4.175   7.589  3.3512 -2.5768 -0.7948
   27MOL0     H 3715   9.077   4.337   7.653 -1.1768 -1.3449 -3.3822
   27MOL0     H 3716   9.328   4.302   7.719  0.1173 -0.0948  0.6966
   27MOL0     H 3717   9.303   4.311   7.545  0.3821  0.7330  0.7270
   27MOL0     H 3718   9.375   4.095   7.731 -2.6166  2.2359  2.1915
   27MOL0     H 3719   9.259   4.032   7.628  0.2141 -0.2548 -1.0291
   27MOL0     H 3720   9.455   3.969   7.503 -1.7196 -0.5431  0.0831
   27MOL0     H 3721   9.517   4.138   7.531  1.7457 -3.1447 -1.7725
   27MOL0     H 3722   9.292   4.175   7.179  2.7002  1.2072 -1.8546
   27MOL0     H 3723   9.200   4.450   7.829 -0.7045 -0.2285 -1.4283
   27MOL0     H 3724   9.306   4.631   7.941  2.2927 -0.0771  0.0415
   27MOL0     H 3725   9.205   4.653   8.090  1.0320  0.7678 -0.2135
   27MOL0     H 3726   9.360   4.573   8.099 -0.8679 -4.3127  0.1223
   28MOL0     O 3727  10.188   3.262   3.686 -0.4335 -0.0421  0.3197
   28MOL0     C 3728  10.102   3.208   3.622  0.3500  1.3667  0.0032
   28MOL0     O 3729   9.979   3.255   3.585  0.3573 -0.5695  0.3124
   28MOL0     C 3730   9.963   3.390   3.569  1.1078 -0.5465 -0.1405
   28MOL0     C 3731   9.832   3.439   3.589  0.6073 -0.0229 -0.6882
   28MOL0     C 3732   9.791   3.568   3.551  0.2153 -0.4991  0.3714
   28MOL0     C 3733   9.884   3.657   3.496  0.1310  0.6154  0.5834
   28MOL0     O 3734   9.866   3.786   3.458  0.9395 -0.5577  0.8451
   28MOL0     C 3735   9.792   3.866   3.561  0.6113  0.8708  0.3679
   28MOL0     C 3736   9.863   3.873   3.700  0.3811  0.2276 -0.1291
   28MOL0     C 3737   9.775   3.947   3.799  0.2288 -0.7148  0.6461
   28MOL0     C 3738   9.871   3.982   3.906  0.4238 -0.1570  0.7937
   28MOL0     C 3739   9.798   4.080   4.002 -0.1499  0.3916  0.1795
   28MOL0     C 3740   9.900   4.152   4.088  0.7689  0.0248 -0.0018
   28MOL0     C 3741   9.973   4.264   4.021 -0.2171 -0.9332 -0.0288
   28MOL0     C 3742  10.027   4.382   4.101  0.0040  0.7522  0.1539
   28MOL0     N 3743   9.941   4.441   4.197 -0.1553 -0.4123 -0.8762
   28MOL0     C 3744   9.975   4.505   4.314 -0.2188  1.3484 -0.8442
   28MOL0     C 3745   9.863   4.552   4.370  0.5731 -0.6195  0.2956
   28MOL0     C 3746   9.841   4.644   4.489  0.0370  0.3380 -0.5563
   28MOL0     C 3747   9.929   4.761   4.493  0.1428 -1.4799  0.1347
   28MOL0     C 3748   9.915   4.862   4.374  0.9797 -0.5708  0.6600
   28MOL0     C 3749   9.992   4.829   4.245  1.0067 -0.5136 -0.3833
   28MOL0     O 3750  10.128   4.804   4.277 -0.0229 -0.2685 -0.7734
   28MOL0     C 3751  10.215   4.755   4.188 -0.9176 -0.6480  0.1047
   28MOL0     C 3752  10.329   4.698   4.237  0.6336  0.5127 -0.3935
   28MOL0     C 3753  10.429   4.644   4.157 -0.8512 -0.3955  1.4164
   28MOL0     C 3754  10.553   4.592   4.234 -0.4601 -0.1657  0.7486
   28MOL0     C 3755  10.410   4.642   4.015 -0.4655  0.0055 -0.4259
   28MOL0     C 3756  10.492   4.561   3.925  0.2361  0.7142  0.1196
   28MOL0     O 3757  10.415   4.481   3.843 -0.4674 -0.0957  0.2473
   28MOL0     C 3758  10.481   4.361   3.812  0.3576  0.0018 -0.8133
   28MOL0     C 3759  10.466   4.245   3.896  0.2859  0.3161 -0.4346
   28MOL0     C 3760  10.537   4.128   3.860  0.2475 -1.3266 -0.4935
   28MOL0     C 3761  10.608   4.112   3.750  0.2509 -0.6982  0.0741
   28MOL0     O 3762  10.670   3.994   3.729 -0.2699 -0.2828  0.3130
   28MOL0     C 3763  10.752   3.970   3.612 -0.6337  0.2556 -0.1924
   28MOL0     C 3764  10.677   3.922   3.497  0.0306 -0.0192 -0.2469
   28MOL0     C 3765  10.760   3.891   3.376 -0.7692  0.3863 -0.8122
   28MOL0     C 3766  10.833   3.754   3.370 -1.0493 -0.4228 -0.7804
   28MOL0     C 3767  10.933   3.752   3.256  0.1942  0.5120 -0.4721
   28MOL0     C 3768  10.995   3.617   3.243  0.1905  0.3456  0.1076
   28MOL0     C 3769  10.891   3.512   3.205  1.0453  0.8484  0.7396
   28MOL0     C 3770  10.957   3.382   3.147  0.1238 -0.1995 -0.4649
   28MOL0    Cl 3771  11.022   3.413   2.992  0.0611  0.2189  0.1900
   28MOL0     C 3772  10.626   4.226   3.676 -0.2529  0.3566  0.1478
   28MOL0     C 3773  10.563   4.344   3.699 -0.4073 -0.6914 -0.4241
   28MOL0     O 3774  10.612   4.563   3.941  0.2486  0.5248  0.4272
   28MOL0     C 3775  10.292   4.696   3.959  0.7603  0.0278  0.2604
   28MOL0     C 3776  10.197   4.758   4.048 -0.8281 -0.8261  0.4128
   28MOL0     N 3777   9.760   4.518   4.276  1.1470  0.1333  1.1571
   28MOL0     N 3778   9.806   4.456   4.174 -0.3005  0.1797  0.2518
   28MOL0     C 3779  10.020   3.613   3.473  0.7372  0.5387 -0.2180
   28MOL0     C 3780  10.054   3.482   3.513 -0.2639 -0.3079  0.3692
   28MOL0     C 3781  10.133   3.067   3.597  0.4589 -1.0244  0.3071
   28MOL0     C 3782  10.030   2.977   3.642 -0.7433  0.6872  0.5990
   28MOL0     C 3783  10.044   2.838   3.629 -0.1025  0.2455  0.5592
   28MOL0     C 3784  10.152   2.789   3.555 -0.6105 -0.1345  0.2106
   28MOL0     O 3785  10.159   2.650   3.535  0.1705 -0.2063 -0.7132
   28MOL0     C 3786  10.283   2.580   3.564  0.7487  0.2845 -1.3979
   28MOL0     C 3787  10.255   2.495   3.690  0.1585  0.0370 -0.6723
   28MOL0     C 3788  10.240   2.567   3.825  0.5064  0.3934 -0.1180
   28MOL0     C 3789  10.242   2.468   3.942 -0.7742  0.1182 -0.5469
   28MOL0     C 3790  10.123   2.391   3.933 -0.0229  0.7261  0.6507
   28MOL0     C 3791  10.028   2.321   3.903  0.0412  0.5683  1.1834
   28MOL0     C 3792  10.247   2.878   3.498 -0.4603 -0.5292  0.2761
   28MOL0     C 3793  10.233   3.015   3.515 -0.4728 -0.0849  0.0121
   28MOL0     C 3794  10.342   3.107   3.451  0.8865 -0.0853 -0.7085
   28MOL0     H 3795   9.760   3.373   3.635  2.1281 -1.0297  0.3551
   28MOL0     H 3796   9.692   3.603   3.579  1.1138 -0.1522  3.4140
   28MOL0     H 3797   9.692   3.825   3.575  1.0750 -0.7410 -0.6931
   28MOL0     H 3798   9.778   3.963   3.514 -5.1358  0.7848  1.1557
   28MOL0     H 3799   9.895   3.776   3.741 -1.2407 -0.4323 -0.3566
   28MOL0     H 3800   9.959   3.922   3.682  1.9209 -3.0481 -1.7818
   28MOL0     H 3801   9.741   4.035   3.743  2.0665 -1.1736 -1.3364
   28MOL0     H 3802   9.686   3.895   3.835  0.1309 -1.7384 -0.9554
   28MOL0     H 3803   9.915   3.892   3.949  0.7643 -2.1968 -3.3458
   28MOL0     H 3804   9.953   4.030   3.853 -0.6277 -1.7396 -2.6048
   28MOL0     H 3805   9.753   4.014   4.077  1.1571 -4.5639 -2.9471
   28MOL0     H 3806   9.731   4.152   3.955  1.0142  1.6935  0.4542
   28MOL0     H 3807   9.842   4.191   4.172 -0.3466 -2.6612  0.5731
   28MOL0     H 3808   9.968   4.072   4.120  1.5829  1.0450  0.8520
   28MOL0     H 3809   9.893   4.305   3.957  0.2893 -1.4408 -1.0160
   28MOL0     H 3810  10.052   4.235   3.950  1.8954  4.5405 -0.4648
   28MOL0     H 3811  10.122   4.350   4.144  1.8845  1.4664 -3.0822
   28MOL0     H 3812  10.063   4.461   4.034  0.0793 -0.3362 -1.1439
   28MOL0     H 3813  10.076   4.519   4.351  0.1370 -1.1011 -0.7412
   28MOL0     H 3814   9.853   4.576   4.574 -0.3414  2.8394  1.6332
   28MOL0     H 3815   9.737   4.677   4.505  1.1556  4.0382  0.1492
   28MOL0     H 3816   9.910   4.812   4.588 -0.6805 -0.1057 -0.7195
   28MOL0     H 3817  10.033   4.725   4.490  1.0291  0.8882 -2.9355
   28MOL0     H 3818   9.810   4.888   4.360  1.0216 -1.7001 -2.4144
   28MOL0     H 3819   9.963   4.957   4.398  2.4724 -1.1042 -0.0935
   28MOL0     H 3820   9.956   4.740   4.193 -2.6027  0.8668 -0.5178
   28MOL0     H 3821   9.992   4.922   4.188  3.2576 -0.2908 -0.1471
   28MOL0     H 3822  10.326   4.703   4.346 -3.3595 -0.5375 -0.2988
   28MOL0     H 3823  10.645   4.646   4.211  0.8014 -1.9176  1.4005
   28MOL0     H 3824  10.585   4.493   4.199  3.0862  1.5139 -1.3603
   28MOL0     H 3825  10.530   4.592   4.341 -2.9824 -1.1142  0.2753
   28MOL0     H 3826  10.399   4.249   3.981  1.6519  4.1409  0.6919
   28MOL0     H 3827  10.531   4.043   3.927  1.5506 -0.1731  1.1735
   28MOL0     H 3828  10.812   4.056   3.580 -0.9780  0.3188 -0.6832
   28MOL0     H 3829  10.830   3.899   3.638 -1.0401 -0.9145 -2.0090
   28MOL0     H 3830  10.622   3.830   3.518  1.3731 -1.1100 -1.3474
   28MOL0     H 3831  10.609   4.004   3.472 -2.6030 -0.7691  3.5254
   28MOL0     H 3832  10.828   3.976   3.365  1.0899 -1.1145 -1.3904
   28MOL0     H 3833  10.705   3.893   3.281  1.7741 -0.3263 -2.3944
   28MOL0     H 3834  10.752   3.681   3.380 -1.0364 -0.4077 -0.5621
   28MOL0     H 3835  10.890   3.750   3.464 -1.6639  0.3487 -0.3587
   28MOL0     H 3836  10.876   3.771   3.165  0.6455 -1.9549 -1.3614
   28MOL0     H 3837  11.012   3.827   3.270 -1.0781  1.6551  0.9422
   28MOL0     H 3838  11.046   3.582   3.334  0.2581 -0.4905 -0.2453
   28MOL0     H 3839  11.057   3.614   3.153 -0.3854 -1.4221 -0.2681
   28MOL0     H 3840  10.817   3.545   3.131 -0.9432 -3.4241  0.5265
   28MOL0     H 3841  10.832   3.486   3.294 -0.6314 -0.0087 -0.5441
   28MOL0     H 3842  10.885   3.301   3.157 -1.2337  0.9786 -0.3858
   28MOL0     H 3843  11.034   3.352   3.218 -1.0969 -0.4764  0.7911
   28MOL0     H 3844  10.696   4.214   3.593  0.0860 -1.2715  0.6270
   28MOL0     H 3845  10.579   4.439   3.649 -2.2781  1.0688  2.0616
   28MOL0     H 3846  10.265   4.689   3.854  0.6484  0.4713  0.2578
   28MOL0     H 3847  10.108   4.801   4.003 -1.0502 -0.5437  1.1068
   28MOL0     H 3848  10.084   3.683   3.420 -2.9447  0.7058 -5.2666
   28MOL0     H 3849  10.156   3.459   3.484 -0.2574  0.6639 -0.4438
   28MOL0     H 3850   9.944   3.018   3.693 -1.1302  0.3930  0.1876
   28MOL0     H 3851   9.967   2.772   3.667 -2.3698  2.7661  0.6790
   28MOL0     H 3852  10.294   2.510   3.480  1.5874 -1.3902  0.0387
   28MOL0     H 3853  10.369   2.646   3.562  0.7884  0.2259 -1.6968
   28MOL0     H 3854  10.351   2.444   3.706 -0.6120 -0.9961  0.8847
   28MOL0     H 3855  10.166   2.432   3.681 -1.4449  1.6277  2.6484
   28MOL0     H 3856  10.334   2.622   3.833 -0.3960  1.9028  0.4574
   28MOL0     H 3857  10.145   2.618   3.810  0.8906  0.9244 -0.7785
   28MOL0     H 3858  10.250   2.518   4.038 -0.9811 -0.9338  0.0287
   28MOL0     H 3859  10.316   2.388   3.945  2.4603  2.8970  1.3065
   28MOL0     H 3860   9.938   2.266   3.883 -0.1682  1.7253 -1.4714
   28MOL0     H 3861  10.336   2.841   3.447  0.3198 -1.6192  2.3144
   28MOL0     H 3862  10.292   3.203   3.434 -1.7388 -1.6856 -2.9268
   28MOL0     H 3863  10.435   3.102   3.509 -1.2219 -3.1366  2.8740
   28MOL0     H 3864  10.349   3.067   3.350 -1.5391  1.2263 -1.4688
   29MOL0     O 3865   1.511   2.184   3.069  0.5027  0.3165  0.5271
   29MOL0     C 3866   1.495   2.293   3.023 -0.3252 -0.1351 -0.0535
   29MOL0     O 3867   1.417   2.392   3.072 -0.3997 -0.2012 -0.6900
   29MOL0     C 3868   1.370   2.400   3.196  0.8704  0.3488 -0.7055
   29MOL0     C 3869   1.261   2.320   3.239  0.7653  0.3247  0.4720
   29MOL0     C 3870   1.194   2.367   3.359  0.3303  0.5469 -0.7847
   29MOL0     C 3871   1.251   2.462   3.448  0.2087 -0.1110  0.0900
   29MOL0     O 3872   1.204   2.519   3.557  0.3923 -0.1105 -0.4731
   29MOL0     C 3873   1.079   2.484   3.619  0.3696  0.3684  0.7026
   29MOL0     C 3874   1.066   2.509   3.772 -0.0998 -0.2575  0.1583
   29MOL0     C 3875   1.142   2.405   3.862  0.5727  0.0103 -0.2432
   29MOL0     C 3876   1.166   2.462   4.001  0.1234 -0.3567 -0.3447
   29MOL0     C 3877   1.213   2.359   4.105  0.8777 -0.2010 -0.0359
   29MOL0     C 3878   1.242   2.432   4.244  0.3329 -0.0333  0.5676
   29MOL0     C 3879   1.292   2.328   4.340  0.2172 -0.2780 -0.4725
   29MOL0     C 3880   1.183   2.304   4.451 -0.0279 -0.1466 -1.5579
   29MOL0     N 3881   1.220   2.192   4.542 -0.8613  0.1609 -0.5998
   29MOL0     C 3882   1.345   2.166   4.592 -0.1927 -0.1808 -0.8197
   29MOL0     C 3883   1.322   2.065   4.680 -0.0643 -1.4574 -0.2580
   29MOL0     C 3884   1.430   2.008   4.759  0.6244 -0.0154 -0.6751
   29MOL0     C 3885   1.375   1.929   4.881 -0.0071 -0.1147 -0.6554
   29MOL0     C 3886   1.481   1.846   4.949  0.0040  0.2783 -0.1194
   29MOL0     C 3887   1.420   1.807   5.084  0.4465 -0.1323  1.1601
   29MOL0     O 3888   1.539   1.759   5.160  0.7610 -0.2331  0.8085
   29MOL0     C 3889   1.526   1.631   5.198 -1.4252  0.1737 -0.8642
   29MOL0     C 3890   1.558   1.517   5.117  0.5402  0.1978  0.0143
   29MOL0     C 3891   1.540   1.381   5.161 -0.9374  0.5319  0.1698
   29MOL0     C 3892   1.573   1.272   5.057  0.5187  0.1095  0.1641
   29MOL0     C 3893   1.506   1.350   5.292 -1.0424 -0.3911 -0.6253
   29MOL0     C 3894   1.483   1.214   5.349 -0.5770  0.4690 -0.7906
   29MOL0     O 3895   1.429   1.213   5.469  0.3215 -0.0281 -0.3396
   29MOL0     C 3896   1.441   1.098   5.548  1.0967  1.0077 -0.7020
   29MOL0     C 3897   1.567   1.052   5.606 -0.4122  1.1014  0.9420
   29MOL0     C 3898   1.585   0.927   5.655 -0.1361 -1.1603  0.4298
   29MOL0     C 3899   1.473   0.848   5.668 -0.0928  0.2059 -0.3244
   29MOL0     O 3900   1.495   0.724   5.726 -0.0057  0.1348 -0.4331
   29MOL0     C 3901   1.416   0.611   5.683 -0.2409 -0.3972  0.4496
   29MOL0     C 3902   1.503   0.477   5.702 -0.1057 -0.0288 -0.5883
   29MOL0     C 3903   1.513   0.431   5.848 -0.0415 -0.4203  0.3898
   29MOL0     C 3904   1.409   0.348   5.894 -0.9113 -0.5850  0.0304
   29MOL0     C 3905   1.423   0.341   6.047 -0.3892 -0.4396 -0.1610
   29MOL0     C 3906   1.310   0.255   6.091  0.3724 -0.1054  0.1135
   29MOL0     C 3907   1.344   0.109   6.088 -0.4851 -0.7028 -0.5767
   29MOL0     C 3908   1.229   0.022   6.058  1.0376  0.1034 -0.6446
   29MOL0    Cl 3909   1.117   0.035   6.194 -0.4227  0.0889  0.4010
   29MOL0     C 3910   1.354   0.894   5.624  0.2333  0.5316 -0.5261
   29MOL0     C 3911   1.338   1.010   5.562 -0.4109 -0.7376 -0.7401
   29MOL0     O 3912   1.530   1.115   5.298  0.5887  0.9840 -0.0326
   29MOL0     C 3913   1.470   1.464   5.369 -0.3219  0.2928  0.2482
   29MOL0     C 3914   1.475   1.599   5.321  0.5479  0.9389  0.2471
   29MOL0     N 3915   1.186   2.027   4.677 -0.7509  0.5359  0.2592
   29MOL0     N 3916   1.132   2.099   4.584  0.2566 -0.8332 -0.8895
   29MOL0     C 3917   1.371   2.514   3.412 -0.2055 -0.0823 -0.2552
   29MOL0     C 3918   1.433   2.487   3.288  0.3212 -0.7386 -0.2017
   29MOL0     C 3919   1.547   2.326   2.886  0.3692  0.3256  0.3291
   29MOL0     C 3920   1.582   2.459   2.874 -0.6862  0.5218  0.0645
   29MOL0     C 3921   1.639   2.510   2.751  0.4897 -0.0863 -0.0959
   29MOL0     C 3922   1.667   2.425   2.648  0.0237 -0.3107  0.2366
   29MOL0     O 3923   1.722   2.471   2.532  0.6315  0.0551  0.4372
   29MOL0     C 3924   1.777   2.603   2.523  0.0496 -0.5717 -0.1196
   29MOL0     C 3925   1.869   2.624   2.409  0.0131 -0.0836  0.3938
   29MOL0     C 3926   1.816   2.615   2.264  0.6273 -0.7296 -0.0997
   29MOL0     C 3927   1.700   2.707   2.226 -0.0440 -0.2064 -0.4497
   29MOL0     C 3928   1.710   2.839   2.271  0.5982 -0.2961  0.9079
   29MOL0     C 3929   1.711   2.953   2.310 -0.3992 -0.2560 -0.7010
   29MOL0     C 3930   1.635   2.292   2.662  0.3459  1.0485 -0.3540
   29MOL0     C 3931   1.572   2.243   2.778  0.1751 -1.3030 -0.7645
   29MOL0     C 3932   1.542   2.098   2.788  0.5915  0.6685  0.2095
   29MOL0     H 3933   1.215   2.243   3.179  5.6363 -0.9865 -2.1341
   29MOL0     H 3934   1.101   2.315   3.376  0.6442 -0.0068 -0.7116
   29MOL0     H 3935   1.062   2.375   3.616  0.5999  0.2151  2.9869
   29MOL0     H 3936   1.003   2.542   3.566  1.6959  0.2410 -1.4543
   29MOL0     H 3937   1.102   2.612   3.789 -1.1096  0.0090  0.7329
   29MOL0     H 3938   0.962   2.506   3.804 -1.1873 -3.2780 -3.0935
   29MOL0     H 3939   1.086   2.313   3.881  2.1800 -0.5307  2.3145
   29MOL0     H 3940   1.235   2.364   3.822  0.0566 -1.4460 -0.0148
   29MOL0     H 3941   1.245   2.537   3.991 -0.5144  0.3855  0.1127
   29MOL0     H 3942   1.070   2.508   4.025  0.8099  1.3044 -0.6188
   29MOL0     H 3943   1.302   2.316   4.058  0.5887  0.1710 -0.9415
   29MOL0     H 3944   1.131   2.289   4.122  0.4648  0.9735  3.9075
   29MOL0     H 3945   1.312   2.515   4.232  1.2439 -0.7852  0.5609
   29MOL0     H 3946   1.148   2.470   4.284  0.6476  2.2710 -0.6782
   29MOL0     H 3947   1.379   2.371   4.389 -1.4341  1.7959  0.8550
   29MOL0     H 3948   1.310   2.240   4.278  1.3757  1.4339 -2.7374
   29MOL0     H 3949   1.158   2.399   4.500  1.6579 -0.2744 -0.3334
   29MOL0     H 3950   1.093   2.273   4.398  1.0598  0.8129 -4.1590
   29MOL0     H 3951   1.441   2.216   4.581 -2.2547  4.1070 -1.4954
   29MOL0     H 3952   1.494   2.086   4.801 -1.9171  1.3512  0.8781
   29MOL0     H 3953   1.494   1.937   4.705  0.3025 -1.9065  1.2897
   29MOL0     H 3954   1.347   2.010   4.948 -1.3178 -1.3254  0.2982
   29MOL0     H 3955   1.284   1.877   4.850 -0.1650  0.2455 -0.8037
   29MOL0     H 3956   1.499   1.765   4.877  2.7867 -0.5969  1.3922
   29MOL0     H 3957   1.576   1.899   4.965  0.5817 -0.7510 -0.0013
   29MOL0     H 3958   1.373   1.891   5.136 -1.4026 -0.2794 -0.1587
   29MOL0     H 3959   1.353   1.723   5.063 -0.3838  0.5835  0.8359
   29MOL0     H 3960   1.612   1.539   5.026 -1.1353  1.1888 -0.7815
   29MOL0     H 3961   1.481   1.220   5.030 -0.4071  2.6202 -2.0226
   29MOL0     H 3962   1.646   1.199   5.093 -1.5088 -1.5873  1.0452
   29MOL0     H 3963   1.611   1.313   4.962  0.5033 -2.7269 -1.1711
   29MOL0     H 3964   1.651   1.120   5.594  0.6297 -0.1625  0.8935
   29MOL0     H 3965   1.685   0.897   5.686  0.7704  0.6764 -0.5519
   29MOL0     H 3966   1.318   0.616   5.732  0.4010  1.5755  1.6496
   29MOL0     H 3967   1.398   0.625   5.576  2.2332  3.4203  0.3376
   29MOL0     H 3968   1.466   0.392   5.643  1.9204 -0.2338 -1.6484
   29MOL0     H 3969   1.603   0.513   5.676  0.0391  0.2769  0.3668
   29MOL0     H 3970   1.530   0.523   5.905  2.1530 -1.3898  1.3980
   29MOL0     H 3971   1.602   0.369   5.855 -1.1544 -1.8367  4.2655
   29MOL0     H 3972   1.431   0.251   5.848 -2.3014  0.1618 -2.3815
   29MOL0     H 3973   1.311   0.380   5.857  0.2765 -0.6890 -3.5647
   29MOL0     H 3974   1.524   0.321   6.084 -0.7021  0.7993  1.4787
   29MOL0     H 3975   1.405   0.446   6.074  1.1382 -0.4334  1.0060
   29MOL0     H 3976   1.232   0.275   6.017  0.7214 -0.0695 -0.2492
   29MOL0     H 3977   1.269   0.272   6.191  2.6823 -2.9486  1.6819
   29MOL0     H 3978   1.377   0.083   6.189  0.1158  0.8127 -0.3618
   29MOL0     H 3979   1.426   0.101   6.016  0.2750 -1.3158  0.3348
   29MOL0     H 3980   1.285  -0.072   6.058  1.0146 -0.0871  3.4957
   29MOL0     H 3981   1.197   0.059   5.960 -2.2248  0.3195  0.3876
   29MOL0     H 3982   1.266   0.830   5.632 -0.8403  1.9578 -0.5558
   29MOL0     H 3983   1.242   1.033   5.518 -0.4956 -0.9899 -0.6838
   29MOL0     H 3984   1.440   1.446   5.472 -0.7124 -0.4999  0.0002
   29MOL0     H 3985   1.452   1.683   5.387  2.3855  1.5179  0.2084
   29MOL0     H 3986   1.412   2.576   3.490 -0.2533 -0.1012 -0.2158
   29MOL0     H 3987   1.523   2.534   3.250 -1.3259  2.4435 -0.5081
   29MOL0     H 3988   1.574   2.528   2.958  0.9382  0.5272  0.2367
   29MOL0     H 3989   1.664   2.616   2.757  0.7321 -0.1871  0.8111
   29MOL0     H 3990   1.698   2.678   2.517 -0.1968 -0.8847 -0.9055
   29MOL0     H 3991   1.839   2.618   2.613  2.2669 -1.0685 -1.4818
   29MOL0     H 3992   1.961   2.568   2.425  0.6912  1.5360  2.6741
   29MOL0     H 3993   1.894   2.730   2.416 -0.9738  0.1188  1.0031
   29MOL0     H 3994   1.888   2.631   2.184  0.1144 -2.0480 -0.8610
   29MOL0     H 3995   1.776   2.514   2.248  1.2140 -1.0608  0.4838
   29MOL0     H 3996   1.608   2.676   2.276 -1.5320  0.7681 -2.4279
   29MOL0     H 3997   1.677   2.702   2.119 -3.4495 -2.3662  0.2278
   29MOL0     H 3998   1.696   3.056   2.336  3.4092  0.2117  0.1580
   29MOL0     H 3999   1.670   2.229   2.580  1.3136  1.3611 -0.1977
   29MOL0     H 4000   1.616   2.036   2.838 -0.8274 -0.5160  0.9314
   29MOL0     H 4001   1.449   2.084   2.844  1.1347  0.2835  1.0319
   29MOL0     H 4002   1.530   2.060   2.686 -0.0693 -1.1352  0.9349
   30MOL0     O 4003   2.655   0.764   8.645 -0.3077 -0.2025  0.4711
   30MOL0     C 4004   2.711   0.759   8.542 -0.2915 -0.8594  0.6642
   30MOL0     O 4005   2.724   0.645   8.464  0.5501  0.3079  0.9351
   30MOL0     C 4006   2.713   0.525   8.526  0.3324  0.1304 -0.5503
   30MOL0     C 4007   2.815   0.487   8.619  0.3213 -0.0851 -0.5307
   30MOL0     C 4008   2.811   0.357   8.685  0.5688 -0.9652  0.4682
   30MOL0     C 4009   2.696   0.284   8.677  0.8216 -0.3445  0.6781
   30MOL0     O 4010   2.684   0.176   8.749 -0.9777 -0.1235 -0.3952
   30MOL0     C 4011   2.577   0.081   8.722  0.1880  0.4407 -0.1214
   30MOL0     C 4012   2.613  -0.049   8.791  0.3593 -0.4852  0.8352
   30MOL0     C 4013   2.499  -0.157   8.781  0.2462  0.7745 -0.3473
   30MOL0     C 4014   2.528  -0.265   8.889 -0.3320 -0.1386 -0.5760
   30MOL0     C 4015   2.425  -0.385   8.889 -0.2274 -0.2855  0.4090
   30MOL0     C 4016   2.285  -0.365   8.962 -0.6872  0.3663  0.6434
   30MOL0     C 4017   2.205  -0.497   8.965 -0.5696  0.0372 -0.8006
   30MOL0     C 4018   2.108  -0.514   8.845 -0.6304  0.2391 -0.6797
   30MOL0     N 4019   2.061  -0.650   8.822 -0.4417  0.1376  0.5714
   30MOL0     C 4020   2.130  -0.758   8.766  0.6173  0.0077  0.3072
   30MOL0     C 4021   2.036  -0.855   8.754 -0.3386  0.6268 -0.3346
   30MOL0     C 4022   2.067  -0.999   8.718  0.3103  0.1637  1.1577
   30MOL0     C 4023   2.139  -1.063   8.833  0.2960  0.0870  0.4038
   30MOL0     C 4024   2.074  -1.051   8.972 -0.3287  0.7689 -0.1855
   30MOL0     C 4025   2.133  -1.150   9.072 -0.3355  0.5674  0.8010
   30MOL0     O 4026   2.022  -1.198   9.156  1.0362 -0.3543  0.3830
   30MOL0     C 4027   2.040  -1.184   9.283 -0.1297 -0.1944  0.0464
   30MOL0     C 4028   2.039  -1.058   9.347  0.0671  1.2817 -0.2512
   30MOL0     C 4029   2.051  -1.056   9.487 -0.4240  0.2592 -0.0645
   30MOL0     C 4030   2.023  -0.920   9.537  0.2343  0.1146 -0.0345
   30MOL0     C 4031   2.062  -1.169   9.570 -0.1078 -0.3128  0.6991
   30MOL0     C 4032   2.060  -1.159   9.716 -0.1962 -0.1225 -0.3078
   30MOL0     O 4033   1.977  -1.068   9.773  0.3568 -0.4516 -0.3274
   30MOL0     C 4034   1.970  -1.050   9.913  0.9419  0.2007  0.2124
   30MOL0     C 4035   1.933  -0.923   9.967 -0.1061 -0.2968  0.5759
   30MOL0     C 4036   1.926  -0.897  10.107  0.2027  0.2008  0.3295
   30MOL0     C 4037   1.949  -1.007  10.193  0.1770 -0.0668  0.1819
   30MOL0     O 4038   1.939  -1.001  10.330 -0.7726  0.0302 -0.5733
   30MOL0     C 4039   2.067  -0.996  10.408 -0.6086 -0.6031 -0.2966
   30MOL0     C 4040   2.029  -1.047  10.554 -0.8241 -1.1389  0.3407
   30MOL0     C 4041   2.045  -1.200  10.559  0.4314  0.2030  0.2187
   30MOL0     C 4042   1.994  -1.265  10.691  0.7219  0.3085  0.1687
   30MOL0     C 4043   2.008  -1.419  10.684 -0.3703 -0.6555  0.4960
   30MOL0     C 4044   2.152  -1.463  10.707  1.6643  0.6022 -0.5945
   30MOL0     C 4045   2.169  -1.611  10.657 -0.3996  0.3009 -0.5949
   30MOL0     C 4046   2.311  -1.672  10.679  0.0459 -0.4211 -0.4689
   30MOL0    Cl 4047   2.439  -1.558  10.626 -0.1464  0.1878  0.4145
   30MOL0     C 4048   1.974  -1.125  10.147 -0.7190  0.2768 -0.0064
   30MOL0     C 4049   1.990  -1.150  10.015 -0.3572  0.7604  0.4318
   30MOL0     O 4050   2.136  -1.228   9.787 -1.1258 -0.0848 -0.2082
   30MOL0     C 4051   2.061  -1.287   9.507 -0.6145  1.4210  0.2391
   30MOL0     C 4052   2.048  -1.303   9.367 -0.8452 -0.4282  0.0688
   30MOL0     N 4053   1.912  -0.809   8.798 -0.1611  0.6201 -0.0101
   30MOL0     N 4054   1.938  -0.690   8.829  0.7687  0.2765 -0.3335
   30MOL0     C 4055   2.587   0.325   8.596  0.5997  0.2819 -0.0736
   30MOL0     C 4056   2.601   0.435   8.515  0.3656 -0.8285  0.0557
   30MOL0     C 4057   2.787   0.870   8.482 -0.2768 -0.9132  0.1331
   30MOL0     C 4058   2.903   0.849   8.402  1.0712  0.1113 -0.0111
   30MOL0     C 4059   2.983   0.944   8.335  0.0189 -0.3572 -0.3832
   30MOL0     C 4060   2.939   1.079   8.351 -0.4660 -0.1965  0.0491
   30MOL0     O 4061   3.013   1.183   8.303  0.0240  0.4769 -0.1791
   30MOL0     C 4062   3.151   1.177   8.259  0.4214  0.3593  0.2831
   30MOL0     C 4063   3.198   1.313   8.197 -0.3183 -1.0029 -0.4644
   30MOL0     C 4064   3.319   1.303   8.095  1.1754  0.1573  0.3101
   30MOL0     C 4065   3.264   1.251   7.964 -0.7775 -1.1477 -0.1651
   30MOL0     C 4066   3.354   1.312   7.858 -0.9370 -0.0535 -0.2680
   30MOL0     C 4067   3.434   1.338   7.760  0.3253 -0.6370 -0.8840
   30MOL0     C 4068   2.838   1.111   8.441 -0.7657  0.1425  0.2727
   30MOL0     C 4069   2.760   1.007   8.493  0.3631 -0.0502  0.3490
   30MOL0     C 4070   2.629   1.060   8.553  0.4442 -0.1410 -0.3408
   30MOL0     H 4071   2.903   0.550   8.628  1.0577 -1.3430  2.6248
   30MOL0     H 4072   2.903   0.328   8.735  0.8379  2.4073  2.2609
   30MOL0     H 4073   2.576   0.062   8.615  4.5159 -2.5974  0.1596
   30MOL0     H 4074   2.483   0.123   8.760 -0.0795 -0.3816  0.1438
   30MOL0     H 4075   2.695  -0.096   8.735 -1.8951 -2.0709 -1.3521
   30MOL0     H 4076   2.631  -0.030   8.898 -0.4998  0.9936  0.7415
   30MOL0     H 4077   2.397  -0.120   8.797  0.4108  1.6312 -1.2420
   30MOL0     H 4078   2.502  -0.195   8.679 -0.6738 -0.0760 -0.0754
   30MOL0     H 4079   2.628  -0.297   8.858  0.2463  0.2298  0.8430
   30MOL0     H 4080   2.535  -0.223   8.989 -1.4208  1.8213 -1.2826
   30MOL0     H 4081   2.485  -0.455   8.948  0.0499 -0.8465 -0.5205
   30MOL0     H 4082   2.398  -0.428   8.793 -2.1247  0.4115  0.5892
   30MOL0     H 4083   2.312  -0.340   9.065  0.6976 -0.3009  0.4703
   30MOL0     H 4084   2.226  -0.285   8.918 -0.0963  0.0684 -0.7231
   30MOL0     H 4085   2.141  -0.486   9.054 -1.3685 -0.3206 -1.3234
   30MOL0     H 4086   2.271  -0.583   8.977 -1.5913 -0.6693 -0.1104
   30MOL0     H 4087   2.023  -0.445   8.853  0.2942  1.5195 -1.5873
   30MOL0     H 4088   2.160  -0.493   8.752 -1.0160  1.5856 -0.6127
   30MOL0     H 4089   2.237  -0.751   8.750  0.6801 -1.5258 -0.1646
   30MOL0     H 4090   2.113  -1.021   8.621 -0.1792  0.1456  0.9211
   30MOL0     H 4091   1.975  -1.057   8.704  1.7702 -2.1421  0.4894
   30MOL0     H 4092   2.152  -1.167   8.802  0.1359  0.2126 -0.1017
   30MOL0     H 4093   2.241  -1.022   8.835 -0.6041  2.6769 -1.2757
   30MOL0     H 4094   2.073  -0.951   9.015 -4.9740  0.0940  1.9310
   30MOL0     H 4095   1.972  -1.087   8.956  0.2853 -0.6768 -1.1156
   30MOL0     H 4096   2.167  -1.238   9.017 -0.8884 -0.8703  2.6470
   30MOL0     H 4097   2.220  -1.102   9.121 -0.8334  4.8443 -1.9661
   30MOL0     H 4098   2.010  -0.970   9.290 -0.4147  0.1914 -1.7603
   30MOL0     H 4099   2.026  -0.841   9.462 -0.0873  2.2244  2.0756
   30MOL0     H 4100   2.090  -0.885   9.615  0.1484  1.5622 -0.5894
   30MOL0     H 4101   1.923  -0.912   9.581 -0.4565 -1.6267 -1.1320
   30MOL0     H 4102   1.927  -0.854   9.883  2.2797 -1.1771 -0.4049
   30MOL0     H 4103   1.895  -0.799  10.143 -1.1988  0.6005 -1.7554
   30MOL0     H 4104   2.142  -1.059  10.358  0.2530 -0.7192  1.0761
   30MOL0     H 4105   2.091  -0.890  10.414  0.6817 -0.9351  1.1888
   30MOL0     H 4106   2.085  -0.985  10.625 -0.3085 -0.5477 -0.5613
   30MOL0     H 4107   1.922  -1.024  10.566 -1.3854 -2.6688 -1.2382
   30MOL0     H 4108   2.148  -1.236  10.547 -0.5807 -3.4490  1.2941
   30MOL0     H 4109   1.989  -1.252  10.481  1.7643 -1.2708  0.1993
   30MOL0     H 4110   1.886  -1.247  10.697  1.1333  2.8542  1.2331
   30MOL0     H 4111   2.042  -1.229  10.782  0.9390  1.1251 -0.2602
   30MOL0     H 4112   1.947  -1.467  10.761 -1.9745  0.7176  0.1301
   30MOL0     H 4113   1.985  -1.450  10.582  2.5943 -1.9625  0.1090
   30MOL0     H 4114   2.170  -1.457  10.815 -3.6850  2.8602  0.4809
   30MOL0     H 4115   2.224  -1.397  10.656  2.6764 -0.2360 -0.2922
   30MOL0     H 4116   2.147  -1.615  10.550 -1.2427  0.0613 -0.4183
   30MOL0     H 4117   2.093  -1.677  10.699 -1.3677 -0.9626 -3.9489
   30MOL0     H 4118   2.320  -1.766  10.625  4.0618 -0.9165  0.7615
   30MOL0     H 4119   2.317  -1.706  10.783 -3.4127  0.8408  0.3019
   30MOL0     H 4120   1.993  -1.210  10.212  2.1547 -0.4761 -1.6417
   30MOL0     H 4121   2.010  -1.256   9.999  0.0704  0.7390  1.0687
   30MOL0     H 4122   2.064  -1.373   9.573 -1.7367 -1.0852 -2.7048
   30MOL0     H 4123   2.024  -1.394   9.314 -2.5630  0.7914 -1.3722
   30MOL0     H 4124   2.487   0.283   8.586  0.2461  1.3889 -1.6624
   30MOL0     H 4125   2.525   0.461   8.443 -1.2842 -0.3229  1.8852
   30MOL0     H 4126   2.934   0.746   8.388 -1.1989 -0.3924 -1.8443
   30MOL0     H 4127   3.062   0.904   8.273 -1.4345 -2.6093 -0.9305
   30MOL0     H 4128   3.208   1.151   8.349  0.7923 -0.1994 -0.1079
   30MOL0     H 4129   3.151   1.105   8.176 -0.8548  1.8145 -1.0213
   30MOL0     H 4130   3.248   1.369   8.277 -2.4962 -0.5301  0.6526
   30MOL0     H 4131   3.114   1.367   8.153  0.2574 -0.7768 -1.3036
   30MOL0     H 4132   3.358   1.404   8.082 -0.8749  0.8033 -1.3748
   30MOL0     H 4133   3.393   1.242   8.147 -0.6655  0.4254  3.5369
   30MOL0     H 4134   3.170   1.301   7.941 -0.3185 -0.5103 -0.7025
   30MOL0     H 4135   3.252   1.142   7.967 -1.3662 -1.1304 -1.3758
   30MOL0     H 4136   3.487   1.371   7.673 -2.2532 -0.9225 -2.6389
   30MOL0     H 4137   2.822   1.214   8.473  0.5325  1.3723 -2.6579
   30MOL0     H 4138   2.637   1.169   8.552  2.1807 -0.2424 -1.0493
   30MOL0     H 4139   2.549   1.035   8.484  0.9616  1.5436 -1.6125
   30MOL0     H 4140   2.613   1.042   8.660 -2.6986 -0.5967 -0.8040
   31MOL0     O 4141   1.238  10.866   4.235  0.5931  0.1335 -0.6612
   31MOL0     C 4142   1.289  10.974   4.220  1.3099  1.2443  0.6789
   31MOL0     O 4143   1.239  11.058   4.132 -0.0953 -0.4039 -0.8662
   31MOL0     C 4144   1.108  11.058   4.086 -0.5386 -0.7748  0.6214
   31MOL0     C 4145   1.096  11.116   3.960 -0.5634  0.2507  0.0098
   31MOL0     C 4146   0.977  11.123   3.897  1.1614 -0.3536 -0.1595
   31MOL0     C 4147   0.862  11.073   3.964  0.7785  0.9709  0.4825
   31MOL0     O 4148   0.737  11.070   3.901 -0.2261 -0.3869 -0.1320
   31MOL0     C 4149   0.736  11.033   3.762 -0.5889 -0.0082  0.0317
   31MOL0     C 4150   0.590  11.019   3.709  0.7735  0.8788 -0.0943
   31MOL0     C 4151   0.526  10.898   3.778  0.0403  0.7477  0.3496
   31MOL0     C 4152   0.364  10.872   3.733 -0.2780  0.1901 -0.4430
   31MOL0     C 4153   0.350  10.769   3.617  0.2521  0.1825  0.2561
   31MOL0     C 4154   0.210  10.705   3.601  0.1991 -0.0350  0.7068
   31MOL0     C 4155   0.229  10.579   3.509 -0.1039  0.3016 -1.1289
   31MOL0     C 4156   0.288  10.457   3.584  0.6861 -0.3511 -0.6858
   31MOL0     N 4157   0.193  10.385   3.669  0.3898  0.1019  0.3936
   31MOL0     C 4158   0.226  10.350   3.790 -0.1315  0.5448 -0.6841
   31MOL0     C 4159   0.118  10.274   3.833 -0.4476  0.1895  1.0209
   31MOL0     C 4160   0.110  10.234   3.973 -0.0841  0.3236 -0.6831
   31MOL0     C 4161   0.004  10.129   3.999 -0.4456 -0.4612  0.8117
   31MOL0     C 4162  -0.147  10.179   4.030 -0.2023  0.1671  0.0989
   31MOL0     C 4163  -0.248  10.140   3.922 -0.5073 -0.1617 -0.7663
   31MOL0     O 4164  -0.379  10.127   3.977  0.0706  0.7925  0.0654
   31MOL0     C 4165  -0.460  10.051   3.898  0.4983  0.7757 -0.6885
   31MOL0     C 4166  -0.426   9.974   3.781 -0.7622  0.1367 -1.2290
   31MOL0     C 4167  -0.501   9.873   3.725  1.2581 -0.4094  0.5824
   31MOL0     C 4168  -0.443   9.828   3.596  0.4930 -0.2796 -0.0229
   31MOL0     C 4169  -0.617   9.827   3.785  0.3915 -0.9995 -0.5065
   31MOL0     C 4170  -0.689   9.710   3.749  0.4115 -0.3437  0.4416
   31MOL0     O 4171  -0.667   9.608   3.843  0.0807 -0.5104  0.0904
   31MOL0     C 4172  -0.731   9.493   3.808 -0.1697  0.0245  0.1258
   31MOL0     C 4173  -0.851   9.457   3.868  0.2767 -0.7122 -1.1392
   31MOL0     C 4174  -0.931   9.350   3.834 -0.0449  0.0395 -0.1635
   31MOL0     C 4175  -0.877   9.261   3.735  1.4360  0.5043 -0.1871
   31MOL0     O 4176  -0.956   9.150   3.691  0.2018  0.1398  0.5421
   31MOL0     C 4177  -0.908   9.080   3.570  0.1364  0.9213  0.9177
   31MOL0     C 4178  -1.003   8.954   3.566  0.2794 -0.3132 -0.2090
   31MOL0     C 4179  -1.005   8.886   3.428 -0.9407 -0.0548  0.0470
   31MOL0     C 4180  -1.088   8.968   3.328  0.4316 -0.0120 -0.1568
   31MOL0     C 4181  -1.084   8.901   3.188 -0.5287 -0.8175  0.3281
   31MOL0     C 4182  -0.946   8.879   3.114  0.8868 -1.3541 -0.5657
   31MOL0     C 4183  -0.961   8.765   3.016  0.3086  0.2177  0.5509
   31MOL0     C 4184  -1.071   8.781   2.907  0.0111  0.0369 -0.0585
   31MOL0    Cl 4185  -1.037   8.923   2.812 -0.2036 -0.0874  0.4998
   31MOL0     C 4186  -0.747   9.279   3.692  0.0573 -0.1782  0.3506
   31MOL0     C 4187  -0.679   9.401   3.717  0.0584 -0.2563  0.3440
   31MOL0     O 4188  -0.745   9.704   3.641  0.0113  0.0600 -0.0493
   31MOL0     C 4189  -0.662   9.907   3.900  0.0659  0.8933  0.4331
   31MOL0     C 4190  -0.587  10.015   3.952 -0.1290  0.1736 -0.1826
   31MOL0     N 4191   0.021  10.279   3.726  0.9245 -0.2162 -0.0692
   31MOL0     N 4192   0.071  10.344   3.632  1.0488  0.0006 -0.3847
   31MOL0     C 4193   0.878  11.001   4.089 -0.1791 -0.8573 -0.1624
   31MOL0     C 4194   1.002  11.008   4.150  0.5258 -0.4679 -0.0085
   31MOL0     C 4195   1.422  11.006   4.270  0.2027 -0.2964  0.6797
   31MOL0     C 4196   1.520  11.047   4.172 -0.2808  0.3292  0.2593
   31MOL0     C 4197   1.648  11.092   4.214 -1.1217  0.0099 -1.4672
   31MOL0     C 4198   1.688  11.075   4.346  0.3060 -0.4408 -0.4437
   31MOL0     O 4199   1.810  11.101   4.396 -0.1098 -1.3759 -0.0819
   31MOL0     C 4200   1.893  11.207   4.337  0.1529 -0.8971  0.6180
   31MOL0     C 4201   1.845  11.351   4.386  0.3349  0.6639  1.6129
   31MOL0     C 4202   1.926  11.469   4.326  0.1595  0.8443  0.1200
   31MOL0     C 4203   1.883  11.605   4.380 -0.2909  0.3504  0.1658
   31MOL0     C 4204   1.864  11.617   4.524 -0.8349  0.3461 -0.3990
   31MOL0     C 4205   1.833  11.652   4.633 -1.0565  0.5051  0.1376
   31MOL0     C 4206   1.590  11.036   4.441 -0.9098  0.8643 -0.6508
   31MOL0     C 4207   1.465  10.999   4.402 -0.3828 -0.4721  0.7408
   31MOL0     C 4208   1.376  10.950   4.514 -0.4061 -0.1263  0.0299
   31MOL0     H 4209   1.188  11.153   3.917 -0.8192 -0.8925 -1.6432
   31MOL0     H 4210   0.968  11.180   3.805 -1.1003  0.5120  0.5354
   31MOL0     H 4211   0.793  10.940   3.756 -3.7403 -1.9935 -1.1337
   31MOL0     H 4212   0.782  11.113   3.702 -0.6668 -0.3222 -0.4564
   31MOL0     H 4213   0.535  11.113   3.715 -2.0551 -0.5694 -1.4409
   31MOL0     H 4214   0.594  10.995   3.602 -0.4067 -2.3836  0.4666
   31MOL0     H 4215   0.580  10.803   3.774 -0.2702  0.5381  0.9069
   31MOL0     H 4216   0.524  10.903   3.887 -1.2637 -0.1454  0.3992
   31MOL0     H 4217   0.314  10.828   3.819  0.1273  2.1667  0.8569
   31MOL0     H 4218   0.314  10.963   3.699  0.0930  1.0003  1.0925
   31MOL0     H 4219   0.430  10.694   3.613 -1.4360 -1.6748 -2.9507
   31MOL0     H 4220   0.363  10.825   3.524 -2.4735 -1.1872 -1.0695
   31MOL0     H 4221   0.153  10.681   3.692 -1.3116 -1.4491 -0.5514
   31MOL0     H 4222   0.150  10.779   3.548  1.6019 -0.4827 -1.6638
   31MOL0     H 4223   0.299  10.615   3.433  0.8336  1.5638  0.2720
   31MOL0     H 4224   0.141  10.533   3.464 -2.0251  1.3053  1.3277
   31MOL0     H 4225   0.327  10.384   3.513 -1.2205 -0.8308 -1.3256
   31MOL0     H 4226   0.363  10.504   3.647  0.4721 -1.1335  0.1636
   31MOL0     H 4227   0.317  10.357   3.847 -0.1298 -2.5325 -0.1508
   31MOL0     H 4228   0.088  10.324   4.032 -0.1885 -1.3215  1.9251
   31MOL0     H 4229   0.209  10.196   3.998  0.2697  1.0543 -0.9305
   31MOL0     H 4230   0.008  10.068   3.909  1.0004  0.1372  0.4446
   31MOL0     H 4231   0.038  10.066   4.082  0.0230 -2.0761 -0.5577
   31MOL0     H 4232  -0.176  10.138   4.128  1.4027  1.3377  1.1188
   31MOL0     H 4233  -0.158  10.286   4.053  0.7444  0.0962  0.9710
   31MOL0     H 4234  -0.247  10.206   3.836  2.4921 -0.1763 -0.8356
   31MOL0     H 4235  -0.205  10.044   3.890 -0.5252 -0.8573  1.1465
   31MOL0     H 4236  -0.332   9.996   3.731 -0.6647  3.6742  0.2317
   31MOL0     H 4237  -0.518   9.811   3.519  0.2573  0.9653 -0.0872
   31MOL0     H 4238  -0.403   9.728   3.614 -0.6110 -0.2770  2.9437
   31MOL0     H 4239  -0.367   9.893   3.551 -0.2744 -0.2484 -1.3339
   31MOL0     H 4240  -0.875   9.520   3.954 -0.1567  0.8104 -2.3403
   31MOL0     H 4241  -1.028   9.334   3.879  0.6566 -2.0970  0.7313
   31MOL0     H 4242  -0.936   9.142   3.484 -1.3850 -1.7453 -0.6815
   31MOL0     H 4243  -0.808   9.038   3.576  0.7452  2.2997  0.6869
   31MOL0     H 4244  -0.969   8.882   3.641  0.7256  0.8085  0.6918
   31MOL0     H 4245  -1.107   8.977   3.592  0.1383  0.3235 -1.2698
   31MOL0     H 4246  -1.049   8.786   3.428  1.8402 -1.3826  1.3763
   31MOL0     H 4247  -0.907   8.874   3.382 -0.6047 -2.1659  1.1727
   31MOL0     H 4248  -1.064   9.075   3.326 -0.8327  0.3080  0.6961
   31MOL0     H 4249  -1.188   8.960   3.372  0.8811 -0.6516  0.7960
   31MOL0     H 4250  -1.123   8.799   3.197 -0.2484 -0.8124  1.8654
   31MOL0     H 4251  -1.153   8.956   3.123  0.8023 -0.6148 -0.9769
   31MOL0     H 4252  -0.869   8.873   3.191 -1.5232 -0.3165  2.0857
   31MOL0     H 4253  -0.921   8.965   3.050 -2.5481  0.6491  0.5141
   31MOL0     H 4254  -0.970   8.670   3.070 -2.1765 -1.1724 -2.0274
   31MOL0     H 4255  -0.861   8.767   2.973 -0.3773  0.8087 -1.0830
   31MOL0     H 4256  -1.169   8.794   2.954 -1.3584 -1.6415 -2.2231
   31MOL0     H 4257  -1.072   8.689   2.847 -1.4988 -0.0847  0.0936
   31MOL0     H 4258  -0.687   9.220   3.624  2.2614  0.1377  1.8963
   31MOL0     H 4259  -0.579   9.411   3.676 -0.0740 -4.3458 -1.3907
   31MOL0     H 4260  -0.751   9.877   3.955  1.1161  0.1805  1.8092
   31MOL0     H 4261  -0.619  10.060   4.046  2.1013  0.2641  0.5969
   31MOL0     H 4262   0.785  10.977   4.140  0.2696  1.7524  2.0722
   31MOL0     H 4263   1.013  10.973   4.252  0.4987  0.1645  0.2145
   31MOL0     H 4264   1.498  11.042   4.066  3.0144 -3.3564 -0.5123
   31MOL0     H 4265   1.712  11.118   4.130 -2.1663 -1.2955 -2.7352
   31MOL0     H 4266   1.999  11.189   4.358  0.4472 -1.9420 -1.5153
   31MOL0     H 4267   1.887  11.205   4.228 -0.6411  1.9221  0.5373
   31MOL0     H 4268   1.852  11.348   4.495  0.1862 -2.3047  1.6432
   31MOL0     H 4269   1.742  11.366   4.353  0.8688  2.8885  0.7828
   31MOL0     H 4270   2.033  11.446   4.336  0.2119  1.4400  1.0516
   31MOL0     H 4271   1.918  11.472   4.217 -1.2399  1.3639  0.2217
   31MOL0     H 4272   1.796  11.641   4.325  1.6243  1.8710 -2.0608
   31MOL0     H 4273   1.962  11.679   4.361  1.3957 -0.7237  2.5147
   31MOL0     H 4274   1.808  11.682   4.732  2.3506  1.3017  0.8988
   31MOL0     H 4275   1.618  11.018   4.544  1.5452 -0.7056 -1.5027
   31MOL0     H 4276   1.434  10.931   4.604  4.1024 -0.0481 -2.5853
   31MOL0     H 4277   1.294  11.022   4.526 -1.7612 -1.4134 -1.0493
   31MOL0     H 4278   1.334  10.851   4.491  1.6796 -1.1649  0.4905
   32MOL0     O 4279   2.962  11.501   2.362  0.1663  0.8642  0.7763
   32MOL0     C 4280   2.887  11.474   2.458  0.0931  0.3873  0.0986
   32MOL0     O 4281   2.898  11.369   2.550 -0.4008 -0.9107 -0.1387
   32MOL0     C 4282   3.011  11.286   2.546  0.7720 -0.2323  0.0554
   32MOL0     C 4283   2.982  11.162   2.601 -0.5118 -0.0035  0.8645
   32MOL0     C 4284   3.088  11.062   2.597 -0.5776 -0.0612  0.0727
   32MOL0     C 4285   3.209  11.094   2.537  0.4205  0.0956  0.3904
   32MOL0     O 4286   3.300  10.997   2.510 -0.0588 -0.2352 -0.6329
   32MOL0     C 4287   3.315  10.880   2.592  0.7955 -0.0947 -0.4383
   32MOL0     C 4288   3.457  10.826   2.576  0.4745  0.0524 -0.0919
   32MOL0     C 4289   3.496  10.735   2.688  0.0117  0.0623 -0.4893
   32MOL0     C 4290   3.645  10.701   2.692  0.5644 -0.4882  0.5781
   32MOL0     C 4291   3.682  10.587   2.784  0.0967 -0.2204 -0.3266
   32MOL0     C 4292   3.836  10.571   2.802 -0.1109  0.2186  0.2630
   32MOL0     C 4293   3.923  10.680   2.853  0.1833  0.5865  0.3851
   32MOL0     C 4294   4.023  10.625   2.956 -0.7097 -0.6248 -0.1780
   32MOL0     N 4295   4.116  10.730   2.987  0.8086  0.3316  0.4449
   32MOL0     C 4296   4.196  10.805   2.904 -0.8769 -0.3432  0.6676
   32MOL0     C 4297   4.288  10.856   2.985 -0.3297  0.7753 -0.4122
   32MOL0     C 4298   4.405  10.930   2.923  0.4711  0.2530  0.6717
   32MOL0     C 4299   4.525  10.836   2.867 -0.1659 -0.5452 -0.4289
   32MOL0     C 4300   4.570  10.718   2.966 -1.5192 -0.5736 -1.2424
   32MOL0     C 4301   4.673  10.631   2.913 -0.2934  0.0993 -0.5174
   32MOL0     O 4302   4.794  10.699   2.885 -0.4739 -0.0431  0.0724
   32MOL0     C 4303   4.908  10.615   2.864  0.2437 -1.1291 -0.8971
   32MOL0     C 4304   5.002  10.617   2.957  0.2960  0.6762  0.7824
   32MOL0     C 4305   5.118  10.539   2.954 -0.4825 -0.7336 -0.7794
   32MOL0     C 4306   5.222  10.566   3.059 -0.7778  0.4372  0.0012
   32MOL0     C 4307   5.131  10.452   2.845  0.0588  0.2060 -0.0890
   32MOL0     C 4308   5.241  10.350   2.838 -0.8686  0.3865  0.8247
   32MOL0     O 4309   5.335  10.342   2.923 -0.7731  0.4893  0.3761
   32MOL0     C 4310   5.423  10.240   2.915 -0.1092  0.3218  0.2000
   32MOL0     C 4311   5.552  10.267   2.882  0.2057 -0.4907 -0.5341
   32MOL0     C 4312   5.643  10.155   2.882  0.0018 -0.1742  0.0084
   32MOL0     C 4313   5.604  10.033   2.940 -0.6126  0.1940  0.1536
   32MOL0     O 4314   5.712   9.956   2.972  0.6441  0.0215  0.5734
   32MOL0     C 4315   5.739   9.862   2.867 -0.3540 -0.2364 -0.4832
   32MOL0     C 4316   5.879   9.783   2.887 -0.1840 -0.4243  1.1630
   32MOL0     C 4317   5.995   9.877   2.910  0.6605  0.2826  0.3894
   32MOL0     C 4318   6.126   9.803   2.902  0.6507 -0.3142 -0.3731
   32MOL0     C 4319   6.239   9.878   2.972  0.2641 -0.7349  0.0215
   32MOL0     C 4320   6.315   9.984   2.890  0.3526  0.9433  0.8355
   32MOL0     C 4321   6.390  10.079   2.986  0.9792 -0.6725 -0.1779
   32MOL0     C 4322   6.512  10.142   2.918 -0.0844  0.5537 -0.1911
   32MOL0    Cl 4323   6.464  10.235   2.778  0.0414 -0.1724 -0.3008
   32MOL0     C 4324   5.467  10.011   2.971  0.0779 -0.4957  0.4015
   32MOL0     C 4325   5.375  10.113   2.951 -0.0258 -0.6877 -0.7061
   32MOL0     O 4326   5.231  10.288   2.733 -0.1442 -0.5128  0.0470
   32MOL0     C 4327   5.045  10.472   2.738  0.3732  0.1604  0.2919
   32MOL0     C 4328   4.926  10.546   2.751  0.2224  0.3891 -0.0085
   32MOL0     N 4329   4.257  10.825   3.115  0.9622  1.1900 -0.3592
   32MOL0     N 4330   4.163  10.739   3.110  0.1745 -0.4057 -0.0681
   32MOL0     C 4331   3.231  11.218   2.481  0.1785 -0.0281  0.2784
   32MOL0     C 4332   3.134  11.313   2.488  0.5985 -0.2950  0.2745
   32MOL0     C 4333   2.774  11.565   2.478  0.0198 -0.5797  0.4229
   32MOL0     C 4334   2.650  11.509   2.499 -0.1688  1.0108  0.1880
   32MOL0     C 4335   2.530  11.576   2.527 -0.2017 -0.2959 -0.0813
   32MOL0     C 4336   2.529  11.713   2.530 -0.8557  0.0925 -0.4894
   32MOL0     O 4337   2.419  11.795   2.550  0.0758 -0.2541 -0.0898
   32MOL0     C 4338   2.286  11.751   2.511  0.0119 -0.3444  0.0583
   32MOL0     C 4339   2.210  11.728   2.631  0.3924 -0.1002  0.3530
   32MOL0     C 4340   2.171  11.846   2.729 -0.4761 -0.6321  0.0721
   32MOL0     C 4341   2.094  11.959   2.671  0.3687  0.2714 -0.4375
   32MOL0     C 4342   2.083  12.059   2.775  0.4622 -0.0196  0.8121
   32MOL0     C 4343   2.082  12.160   2.844  0.5618  1.2372 -0.7939
   32MOL0     C 4344   2.648  11.778   2.510 -0.6951  0.8007 -1.0866
   32MOL0     C 4345   2.772  11.707   2.486 -0.0250  0.2152  1.1828
   32MOL0     C 4346   2.895  11.782   2.469 -0.1587  0.0406  0.0891
   32MOL0     H 4347   2.887  11.144   2.649 -1.4153 -1.2387 -1.2673
   32MOL0     H 4348   3.069  10.968   2.648  1.2195 -0.2600  0.4324
   32MOL0     H 4349   3.246  10.797   2.571 -0.0798  0.4119  0.3324
   32MOL0     H 4350   3.286  10.893   2.697 -4.3593 -0.2592 -1.5582
   32MOL0     H 4351   3.472  10.777   2.479  1.4463  0.3072 -0.0877
   32MOL0     H 4352   3.525  10.912   2.581  1.1629 -0.4318 -0.8741
   32MOL0     H 4353   3.478  10.783   2.785  2.1183 -0.4423  0.2123
   32MOL0     H 4354   3.437  10.643   2.679  1.1714 -1.1651  2.9949
   32MOL0     H 4355   3.673  10.685   2.587  1.1582  1.3855  0.4043
   32MOL0     H 4356   3.693  10.794   2.726  3.8954 -1.0679 -1.9645
   32MOL0     H 4357   3.636  10.493   2.751 -2.4326  0.5684  0.7586
   32MOL0     H 4358   3.646  10.604   2.886 -0.6132 -5.1474  0.5241
   32MOL0     H 4359   3.858  10.488   2.870  1.1353  0.6638  0.4407
   32MOL0     H 4360   3.871  10.544   2.702  0.3379 -0.1649  0.5162
   32MOL0     H 4361   3.862  10.748   2.913 -0.3805 -0.3027  0.8345
   32MOL0     H 4362   3.981  10.727   2.773 -0.9758  1.1829 -0.1303
   32MOL0     H 4363   3.980  10.588   3.049  0.3159  0.2872  0.6993
   32MOL0     H 4364   4.092  10.551   2.915  0.3713 -0.0336  0.5181
   32MOL0     H 4365   4.196  10.815   2.796  1.1088  2.7930  0.8642
   32MOL0     H 4366   4.453  10.994   2.998  1.2859  0.8449 -0.3360
   32MOL0     H 4367   4.370  11.002   2.848  2.4119  1.0661  0.4717
   32MOL0     H 4368   4.501  10.788   2.771 -0.3197  0.2994 -0.8182
   32MOL0     H 4369   4.613  10.897   2.849 -1.6847  2.6087  1.9393
   32MOL0     H 4370   4.604  10.764   3.059 -3.1452 -0.5510 -0.6137
   32MOL0     H 4371   4.478  10.664   2.991 -3.4583  3.0990  0.4191
   32MOL0     H 4372   4.706  10.563   2.991  2.0291 -1.8271 -3.0050
   32MOL0     H 4373   4.630  10.570   2.832  0.8481 -1.2513 -0.1305
   32MOL0     H 4374   4.982  10.675   3.046 -1.3853 -1.4780  1.9258
   32MOL0     H 4375   5.265  10.478   3.109  0.1391  1.7103  1.5576
   32MOL0     H 4376   5.181  10.636   3.132  0.6323  1.5821 -0.2556
   32MOL0     H 4377   5.308  10.621   3.019  0.1754 -1.3897 -0.5716
   32MOL0     H 4378   5.584  10.369   2.861  2.9403 -0.1722  3.9598
   32MOL0     H 4379   5.746  10.169   2.850  0.1320 -0.2344  0.4002
   32MOL0     H 4380   5.655   9.794   2.851 -0.0137 -0.7166 -0.2525
   32MOL0     H 4381   5.745   9.921   2.775  0.0208 -0.6521 -0.7271
   32MOL0     H 4382   5.870   9.701   2.958 -1.5991  0.3641  1.9498
   32MOL0     H 4383   5.891   9.719   2.799 -1.4399 -2.6981  2.5475
   32MOL0     H 4384   5.988   9.954   2.988  1.1862  2.9925 -2.0453
   32MOL0     H 4385   5.997   9.947   2.826 -1.4887 -0.9785 -0.8030
   32MOL0     H 4386   6.148   9.767   2.801  2.4543 -0.7952  0.1466
   32MOL0     H 4387   6.108   9.715   2.964 -0.4505 -0.7567 -1.2908
   32MOL0     H 4388   6.206   9.929   3.062 -1.0589 -1.8287  0.1955
   32MOL0     H 4389   6.309   9.801   3.007 -1.2942 -0.9781  2.8368
   32MOL0     H 4390   6.248  10.056   2.840 -0.3035  1.4776  2.4137
   32MOL0     H 4391   6.381   9.942   2.814 -0.8233 -0.5692  0.6024
   32MOL0     H 4392   6.413  10.010   3.068  3.9640 -1.4454 -1.4950
   32MOL0     H 4393   6.331  10.162   3.023  2.0302  0.1054 -0.2020
   32MOL0     H 4394   6.593  10.070   2.903  0.0352  0.2787  1.5609
   32MOL0     H 4395   6.559  10.209   2.991  0.4127  0.0991 -0.0929
   32MOL0     H 4396   5.442   9.924   3.031 -1.2926  0.8787  1.9286
   32MOL0     H 4397   5.272  10.111   2.986  0.2140 -4.2117  0.1865
   32MOL0     H 4398   5.072  10.431   2.641 -1.2833  0.8610 -0.5099
   32MOL0     H 4399   4.859  10.556   2.666  0.1899 -0.4548 -0.0913
   32MOL0     H 4400   3.317  11.241   2.418 -0.1000  2.4006  0.6997
   32MOL0     H 4401   3.149  11.409   2.441 -3.4359  0.2625 -0.2466
   32MOL0     H 4402   2.635  11.402   2.504  0.4077  0.8582 -0.9492
   32MOL0     H 4403   2.447  11.513   2.560  0.1530 -1.5581 -1.4636
   32MOL0     H 4404   2.235  11.815   2.439  0.4593  0.4732  0.4674
   32MOL0     H 4405   2.293  11.656   2.456  1.0395  0.2938 -0.9631
   32MOL0     H 4406   2.273  11.661   2.689  1.2175 -1.7024 -2.2153
   32MOL0     H 4407   2.117  11.678   2.603 -0.0026  0.5292  0.5019
   32MOL0     H 4408   2.106  11.814   2.810 -1.6745  1.1310 -0.1434
   32MOL0     H 4409   2.264  11.878   2.776 -2.3006 -0.2462  3.7141
   32MOL0     H 4410   1.991  11.934   2.645 -0.9064  2.7926  1.6593
   32MOL0     H 4411   2.141  12.004   2.583  0.8705 -0.4621 -0.5544
   32MOL0     H 4412   2.060  12.248   2.900 -0.4557  0.3670  0.2294
   32MOL0     H 4413   2.661  11.884   2.528  2.8788  0.4482 -0.7103
   32MOL0     H 4414   2.888  11.887   2.501 -1.2742  0.2359 -0.7292
   32MOL0     H 4415   2.970  11.741   2.537 -1.1433  0.5228  1.5406
   32MOL0     H 4416   2.935  11.774   2.368 -0.5483 -0.7808 -0.0071
   33MOL0     O 4417   0.924   2.882   2.469 -0.3821 -0.8005 -0.6030
   33MOL0     C 4418   0.946   2.926   2.363  0.7999 -0.3571  0.5138
   33MOL0     O 4419   0.899   2.874   2.248 -0.2110 -0.6129 -0.2603
   33MOL0     C 4420   0.802   2.772   2.245 -0.1758  0.3563  0.6207
   33MOL0     C 4421   0.701   2.746   2.341 -0.3929 -0.7527 -0.0284
   33MOL0     C 4422   0.619   2.636   2.338  0.3776 -0.2318  0.3357
   33MOL0     C 4423   0.634   2.546   2.235 -0.4289 -0.6630  0.3182
   33MOL0     O 4424   0.561   2.432   2.251  0.6326 -0.1853 -0.5562
   33MOL0     C 4425   0.536   2.345   2.141 -0.5943  0.1706  0.8450
   33MOL0     C 4426   0.461   2.213   2.184  1.3961  0.2222 -0.1768
   33MOL0     C 4427   0.445   2.121   2.072  1.0114 -0.0213 -0.0503
   33MOL0     C 4428   0.352   2.000   2.088 -0.4071  1.2300 -0.5597
   33MOL0     C 4429   0.343   1.932   1.952 -0.0922  0.0608  0.1144
   33MOL0     C 4430   0.292   1.788   1.965  0.0917 -0.0373 -0.2205
   33MOL0     C 4431   0.250   1.725   1.820  0.4863  0.2553 -0.1404
   33MOL0     C 4432   0.158   1.607   1.846 -0.0442 -0.0355  1.3817
   33MOL0     N 4433   0.142   1.506   1.736 -0.6610  0.1918 -0.2357
   33MOL0     C 4434   0.114   1.538   1.607 -0.4405 -0.9049  1.1046
   33MOL0     C 4435   0.174   1.438   1.528 -0.6881 -0.0855 -0.7558
   33MOL0     C 4436   0.175   1.435   1.376  0.9935  0.1594  0.6150
   33MOL0     C 4437   0.040   1.482   1.308  0.1743  0.4145 -0.8458
   33MOL0     C 4438   0.049   1.435   1.159 -0.3922  0.4879 -0.7655
   33MOL0     C 4439  -0.035   1.519   1.067  0.6211 -0.3377  0.6198
   33MOL0     O 4440  -0.054   1.479   0.925 -0.1486 -0.1350 -0.1539
   33MOL0     C 4441  -0.091   1.348   0.913 -0.3677  0.0447  0.7944
   33MOL0     C 4442  -0.181   1.271   0.992 -0.2055 -0.1647  0.0024
   33MOL0     C 4443  -0.226   1.140   0.947 -1.0039 -0.4574 -0.8379
   33MOL0     C 4444  -0.331   1.073   1.020 -0.1218  0.1280 -0.2118
   33MOL0     C 4445  -0.151   1.069   0.845 -0.2126  0.2698  0.1068
   33MOL0     C 4446  -0.173   0.928   0.805  0.6882  0.9629 -0.0785
   33MOL0     O 4447  -0.194   0.828   0.897 -0.2232 -0.0627  0.0740
   33MOL0     C 4448  -0.219   0.703   0.837 -0.7058  0.9015  0.2332
   33MOL0     C 4449  -0.354   0.661   0.853  0.0311 -0.5736  0.0680
   33MOL0     C 4450  -0.395   0.556   0.781  0.3878 -0.2858  0.0358
   33MOL0     C 4451  -0.306   0.478   0.702 -0.0076  0.3918  0.7780
   33MOL0     O 4452  -0.370   0.371   0.629  0.3011 -0.3626 -0.0561
   33MOL0     C 4453  -0.319   0.342   0.502 -0.5928  0.2064 -0.1833
   33MOL0     C 4454  -0.381   0.208   0.440  0.4108  0.0691 -0.1005
   33MOL0     C 4455  -0.534   0.223   0.406  0.1751 -0.6059  0.3685
   33MOL0     C 4456  -0.601   0.093   0.399  0.1736  0.9544  0.4334
   33MOL0     C 4457  -0.523   0.003   0.297  0.0080 -0.0928 -0.1797
   33MOL0     C 4458  -0.581  -0.134   0.273 -0.3164 -0.6931 -0.7165
   33MOL0     C 4459  -0.578  -0.199   0.410  0.5410 -0.0913  0.0571
   33MOL0     C 4460  -0.617  -0.348   0.441 -0.8757  0.1115 -0.9447
   33MOL0    Cl 4461  -0.529  -0.452   0.318  0.1000 -0.1709  0.1007
   33MOL0     C 4462  -0.175   0.507   0.700 -1.1355  0.1039 -0.5113
   33MOL0     C 4463  -0.134   0.625   0.757 -0.3104  1.0573 -0.7898
   33MOL0     O 4464  -0.182   0.910   0.685 -0.4355 -0.2717  0.7257
   33MOL0     C 4465  -0.063   1.152   0.756 -0.0167  0.1505 -0.7058
   33MOL0     C 4466  -0.046   1.293   0.790  0.1353  0.5203  0.2066
   33MOL0     N 4467   0.223   1.343   1.613 -0.2327 -0.2523 -0.0950
   33MOL0     N 4468   0.207   1.386   1.731 -0.6875 -0.0959 -0.2885
   33MOL0     C 4469   0.724   2.570   2.134  0.0857 -0.0319 -0.5945
   33MOL0     C 4470   0.810   2.680   2.136  0.4125 -0.3613 -0.8193
   33MOL0     C 4471   1.030   3.045   2.349  0.4628 -0.3084 -0.0550
   33MOL0     C 4472   1.144   3.049   2.440  0.1101 -0.4163 -0.3338
   33MOL0     C 4473   1.217   3.164   2.436  0.3951  1.0797 -1.0493
   33MOL0     C 4474   1.188   3.277   2.355 -0.1038  0.5901 -0.2206
   33MOL0     O 4475   1.265   3.391   2.382  0.0149  0.2578 -0.1434
   33MOL0     C 4476   1.253   3.495   2.276 -0.1961 -0.1608  0.1101
   33MOL0     C 4477   1.356   3.592   2.331 -0.5105  0.9221 -0.6539
   33MOL0     C 4478   1.361   3.710   2.240  0.1783 -0.8110  0.8154
   33MOL0     C 4479   1.469   3.810   2.290  0.5015  0.3221  0.2719
   33MOL0     C 4480   1.487   3.941   2.229  1.0825  1.1949 -0.1388
   33MOL0     C 4481   1.497   4.061   2.199  0.1003  0.7643  0.3373
   33MOL0     C 4482   1.083   3.261   2.264  0.1120 -0.9756 -0.5427
   33MOL0     C 4483   1.006   3.150   2.255 -0.0731 -0.7126 -0.4534
   33MOL0     C 4484   0.884   3.156   2.179  0.4620 -0.3594  0.5057
   33MOL0     H 4485   0.692   2.806   2.430  0.6592 -1.5057  0.6099
   33MOL0     H 4486   0.546   2.613   2.415  0.7664 -1.1588  0.4441
   33MOL0     H 4487   0.628   2.310   2.092 -1.3510  1.6275 -1.8166
   33MOL0     H 4488   0.485   2.398   2.060 -0.4039 -1.8083 -0.6718
   33MOL0     H 4489   0.519   2.162   2.262  0.4827  1.4318  1.3531
   33MOL0     H 4490   0.366   2.244   2.228  0.3519  1.9072 -3.3115
   33MOL0     H 4491   0.403   2.173   1.986 -1.5344 -1.7870  0.0388
   33MOL0     H 4492   0.546   2.087   2.046  1.5463  0.4593  1.2720
   33MOL0     H 4493   0.395   1.925   2.155 -2.6423 -2.0480 -2.4669
   33MOL0     H 4494   0.250   2.020   2.123 -0.2246  1.5072 -0.1840
   33MOL0     H 4495   0.443   1.929   1.908  1.7743 -1.2253  3.9806
   33MOL0     H 4496   0.272   1.995   1.898  2.2723  1.2237 -1.8201
   33MOL0     H 4497   0.375   1.725   1.999  0.7812 -1.9956 -4.7214
   33MOL0     H 4498   0.215   1.783   2.043 -1.5566  2.7834 -1.5262
   33MOL0     H 4499   0.336   1.676   1.773 -0.1970 -1.4690  0.2988
   33MOL0     H 4500   0.209   1.809   1.763  0.7178  0.5195  0.0799
   33MOL0     H 4501   0.202   1.547   1.926  0.4278 -0.9109  0.4827
   33MOL0     H 4502   0.059   1.643   1.876  0.7430  2.8525  0.8385
   33MOL0     H 4503   0.066   1.624   1.561 -2.7164 -3.2207 -1.1793
   33MOL0     H 4504   0.186   1.329   1.353 -1.1019  0.1817 -0.7313
   33MOL0     H 4505   0.260   1.494   1.340 -1.3982  2.6575 -1.3998
   33MOL0     H 4506  -0.040   1.436   1.367 -0.3082  0.5569 -1.3821
   33MOL0     H 4507   0.027   1.591   1.309 -2.6328  0.2292 -3.7482
   33MOL0     H 4508   0.150   1.418   1.122  0.0767  1.9925 -0.2413
   33MOL0     H 4509   0.005   1.335   1.158 -2.3628  1.2941 -0.0682
   33MOL0     H 4510  -0.142   1.516   1.092 -0.3268  0.0230 -2.7869
   33MOL0     H 4511   0.002   1.622   1.072  2.9007 -1.1882  3.4808
   33MOL0     H 4512  -0.225   1.321   1.077  2.6927 -2.7298  3.3018
   33MOL0     H 4513  -0.293   0.985   1.074 -0.8452  0.6427  1.1909
   33MOL0     H 4514  -0.418   1.052   0.958 -1.7998  3.2551  0.8409
   33MOL0     H 4515  -0.376   1.132   1.101  0.6796 -2.4867  2.3274
   33MOL0     H 4516  -0.419   0.706   0.928 -0.4866  0.8270 -1.1770
   33MOL0     H 4517  -0.500   0.532   0.796  1.2303 -4.1786  0.8463
   33MOL0     H 4518  -0.337   0.421   0.428 -3.7151 -4.2276 -4.8596
   33MOL0     H 4519  -0.211   0.330   0.514 -0.6030  2.2373  3.7065
   33MOL0     H 4520  -0.327   0.196   0.345  0.9598 -1.2701  0.3507
   33MOL0     H 4521  -0.360   0.122   0.504 -0.6237 -1.7637 -2.0692
   33MOL0     H 4522  -0.543   0.270   0.307  1.0269 -1.0884  0.0470
   33MOL0     H 4523  -0.584   0.286   0.480  3.1518  1.8256  0.5637
   33MOL0     H 4524  -0.703   0.105   0.361  1.1371  1.7852 -2.0857
   33MOL0     H 4525  -0.603   0.057   0.502  0.0697 -0.1272  0.0694
   33MOL0     H 4526  -0.509   0.056   0.202  1.3899  0.3878  0.2667
   33MOL0     H 4527  -0.425  -0.026   0.335 -0.7479 -2.1874  0.2848
   33MOL0     H 4528  -0.518  -0.189   0.201  0.0775  0.3683 -1.1991
   33MOL0     H 4529  -0.685  -0.126   0.240 -0.1620 -0.0108 -1.0538
   33MOL0     H 4530  -0.650  -0.151   0.476  1.8604 -1.4638  2.6626
   33MOL0     H 4531  -0.475  -0.193   0.446  1.0722  3.1186 -1.6718
   33MOL0     H 4532  -0.726  -0.349   0.432 -0.9070 -0.3708 -0.5143
   33MOL0     H 4533  -0.595  -0.374   0.545 -0.8175  1.2350 -0.6641
   33MOL0     H 4534  -0.106   0.445   0.644 -2.4059 -1.2021 -0.6930
   33MOL0     H 4535  -0.028   0.641   0.770 -0.6924  0.8575  5.5192
   33MOL0     H 4536  -0.019   1.121   0.662  1.9115  1.4274 -0.2656
   33MOL0     H 4537  -0.007   1.351   0.707 -1.6998  0.3583 -0.8275
   33MOL0     H 4538   0.733   2.502   2.050  1.5008  0.1870 -0.6500
   33MOL0     H 4539   0.884   2.704   2.061  1.6795  3.5291  1.3618
   33MOL0     H 4540   1.175   2.963   2.498 -1.4634 -1.4625 -0.9848
   33MOL0     H 4541   1.284   3.167   2.522 -0.2379  0.0195 -0.4965
   33MOL0     H 4542   1.287   3.448   2.184 -0.6074 -1.3250  0.5234
   33MOL0     H 4543   1.149   3.529   2.273 -0.7678 -1.2983  3.1266
   33MOL0     H 4544   1.457   3.548   2.335 -1.2706 -1.0989 -2.2351
   33MOL0     H 4545   1.329   3.621   2.433  4.6059  0.8484  1.0303
   33MOL0     H 4546   1.395   3.674   2.143  2.8670  1.2393  0.9022
   33MOL0     H 4547   1.266   3.762   2.220  0.8163 -0.6304 -2.1072
   33MOL0     H 4548   1.564   3.759   2.276  0.0319 -0.2036 -1.1832
   33MOL0     H 4549   1.452   3.844   2.392  6.4575  0.3528  1.6059
   33MOL0     H 4550   1.511   4.162   2.165 -1.4605  0.4941 -1.2768
   33MOL0     H 4551   1.047   3.344   2.205 -0.0271 -0.5376  0.1593
   33MOL0     H 4552   0.802   3.136   2.248  0.4073  1.6436  1.0825
   33MOL0     H 4553   0.868   3.262   2.155  3.2787  0.3745  1.5355
   33MOL0     H 4554   0.909   3.081   2.104  0.4904 -0.3033  0.4604
   34MOL0     O 4555   6.311   1.373   0.773  0.1373  0.1319 -0.2666
   34MOL0     C 4556   6.289   1.359   0.650  0.0484  0.4421  0.1982
   34MOL0     O 4557   6.385   1.379   0.549 -0.4217  0.0052 -0.1393
   34MOL0     C 4558   6.505   1.441   0.572 -0.1837  0.5682  0.3415
   34MOL0     C 4559   6.630   1.369   0.589  0.5408  0.8618  0.5948
   34MOL0     C 4560   6.752   1.429   0.597  0.5291 -0.2586 -0.3907
   34MOL0     C 4561   6.761   1.571   0.597  0.2374  0.0363 -0.9832
   34MOL0     O 4562   6.888   1.630   0.596  0.2283  0.0958  0.3107
   34MOL0     C 4563   6.924   1.679   0.722  0.3177  0.1488  0.2923
   34MOL0     C 4564   7.071   1.654   0.753 -0.0004  0.0107  0.8929
   34MOL0     C 4565   7.103   1.501   0.768  0.1527 -0.0995  0.3147
   34MOL0     C 4566   7.231   1.483   0.826 -0.3728  0.8009  0.4464
   34MOL0     C 4567   7.288   1.333   0.835  0.5458 -0.5209 -0.6963
   34MOL0     C 4568   7.196   1.249   0.921  0.5203  0.0697 -0.4430
   34MOL0     C 4569   7.245   1.104   0.952 -0.0224  0.1305  0.5697
   34MOL0     C 4570   7.376   1.093   1.022 -0.5511  0.0200 -0.8975
   34MOL0     N 4571   7.426   0.961   1.044  1.0457 -0.3746 -0.5227
   34MOL0     C 4572   7.368   0.883   1.139  0.5520 -0.1728 -0.0894
   34MOL0     C 4573   7.415   0.759   1.125  0.8022 -0.0456  0.5664
   34MOL0     C 4574   7.373   0.630   1.194 -0.5266 -0.6748 -1.0247
   34MOL0     C 4575   7.342   0.644   1.347 -0.3191  0.6654  0.0732
   34MOL0     C 4576   7.192   0.684   1.368  0.0330  0.2345  0.2207
   34MOL0     C 4577   7.157   0.683   1.513  0.2254  0.5532 -0.3282
   34MOL0     O 4578   7.029   0.746   1.511 -0.1483 -0.8409  0.1052
   34MOL0     C 4579   6.965   0.779   1.631  0.0967  0.7496  0.4677
   34MOL0     C 4580   6.829   0.812   1.629 -0.5393  0.1236 -0.4426
   34MOL0     C 4581   6.756   0.825   1.754 -0.9341  0.2868  0.2273
   34MOL0     C 4582   6.606   0.862   1.752 -1.3732 -0.5389  0.3691
   34MOL0     C 4583   6.825   0.815   1.878  0.5367  0.6650 -0.0458
   34MOL0     C 4584   6.756   0.835   2.006 -0.1160 -0.4037 -0.3887
   34MOL0     O 4585   6.842   0.865   2.112  0.7674  0.1992  0.0975
   34MOL0     C 4586   6.795   0.821   2.238 -0.0535  0.7332 -0.0082
   34MOL0     C 4587   6.835   0.710   2.298  0.0411  0.4967 -0.0157
   34MOL0     C 4588   6.788   0.662   2.428 -0.5580 -0.1613  0.8452
   34MOL0     C 4589   6.709   0.746   2.508  0.8577 -0.0205  0.0006
   34MOL0     O 4590   6.646   0.717   2.629 -0.4094  1.4564  0.2482
   34MOL0     C 4591   6.619   0.584   2.660  0.6993  0.0146 -0.1619
   34MOL0     C 4592   6.602   0.548   2.808 -1.0958  0.6246 -0.0154
   34MOL0     C 4593   6.550   0.407   2.824 -0.4167 -0.3277 -0.8522
   34MOL0     C 4594   6.549   0.373   2.976  0.1716 -1.0016  0.3893
   34MOL0     C 4595   6.526   0.215   2.994 -0.6441 -0.5095 -0.2788
   34MOL0     C 4596   6.400   0.162   2.931 -0.3429  0.7529 -0.0967
   34MOL0     C 4597   6.270   0.198   3.009  0.0917 -0.1900 -0.8161
   34MOL0     C 4598   6.244   0.095   3.124  0.5385  0.2218  0.4832
   34MOL0    Cl 4599   6.080   0.129   3.198 -0.1342 -0.4419  0.2300
   34MOL0     C 4600   6.661   0.860   2.438  0.1841 -0.1255 -0.1180
   34MOL0     C 4601   6.699   0.895   2.309  0.7599  0.4104  0.0017
   34MOL0     O 4602   6.633   0.821   2.018 -0.3677 -0.1211  0.2046
   34MOL0     C 4603   6.959   0.788   1.867 -0.2304  0.3288 -0.3357
   34MOL0     C 4604   7.026   0.768   1.758 -0.4621 -0.7407 -0.1332
   34MOL0     N 4605   7.505   0.754   1.012 -0.1187  0.5441 -1.3183
   34MOL0     N 4606   7.505   0.875   0.969  0.3385 -0.3973 -0.3913
   34MOL0     C 4607   6.641   1.644   0.572 -0.1528  0.5753  0.2573
   34MOL0     C 4608   6.516   1.582   0.567 -0.1697 -0.4844 -0.5281
   34MOL0     C 4609   6.152   1.325   0.600  0.0499 -0.4209 -0.7213
   34MOL0     C 4610   6.137   1.348   0.465  0.1387 -0.1699  0.0938
   34MOL0     C 4611   6.017   1.309   0.402  0.1907  0.7784  0.0485
   34MOL0     C 4612   5.907   1.261   0.471 -0.1124  0.7888 -0.4540
   34MOL0     O 4613   5.797   1.236   0.400  0.7165 -0.4156 -0.5153
   34MOL0     C 4614   5.678   1.226   0.481  0.8607  0.6183  0.0872
   34MOL0     C 4615   5.551   1.222   0.401  0.2831 -0.8232  0.1193
   34MOL0     C 4616   5.540   1.352   0.324  0.1874  0.8099  0.0864
   34MOL0     C 4617   5.403   1.363   0.251 -0.5347 -0.0549  0.0089
   34MOL0     C 4618   5.288   1.393   0.344 -0.8460  0.5166 -0.9542
   34MOL0     C 4619   5.190   1.418   0.417  1.3610  0.9059 -0.0684
   34MOL0     C 4620   5.925   1.238   0.606 -0.1796  0.7257  0.8120
   34MOL0     C 4621   6.046   1.270   0.669 -0.2646 -0.3558 -0.0798
   34MOL0     C 4622   6.061   1.223   0.806 -1.2043 -0.0824 -0.2075
   34MOL0     H 4623   6.620   1.261   0.578  2.0667  0.7359  0.1641
   34MOL0     H 4624   6.840   1.365   0.598  0.7424  0.0253 -0.6323
   34MOL0     H 4625   6.870   1.634   0.806  0.0086  1.9363  1.0874
   34MOL0     H 4626   6.898   1.785   0.728  0.6549  0.1847  1.2714
   34MOL0     H 4627   7.127   1.691   0.666 -1.1916  0.0717  0.1384
   34MOL0     H 4628   7.094   1.713   0.843 -4.0133  0.2639  1.9181
   34MOL0     H 4629   7.017   1.449   0.811 -1.4524  2.3965  0.3421
   34MOL0     H 4630   7.118   1.461   0.667 -1.6846  0.1352 -0.0952
   34MOL0     H 4631   7.297   1.540   0.760 -1.6189  1.8072  0.0280
   34MOL0     H 4632   7.249   1.534   0.921  0.3365 -0.7756  1.2026
   34MOL0     H 4633   7.388   1.346   0.877 -0.3472  2.2929  0.7546
   34MOL0     H 4634   7.300   1.283   0.738  0.4335 -2.7345  0.3692
   34MOL0     H 4635   7.174   1.289   1.020 -1.0107 -1.9466  0.1026
   34MOL0     H 4636   7.097   1.246   0.874 -1.7219  2.1495  3.5712
   34MOL0     H 4637   7.256   1.052   0.857  2.7385 -0.4370  1.0835
   34MOL0     H 4638   7.162   1.051   0.999 -2.5594 -0.1097 -3.6932
   34MOL0     H 4639   7.448   1.150   0.962  1.3115 -2.5523 -1.2658
   34MOL0     H 4640   7.374   1.143   1.119  0.2421 -2.8665  0.7286
   34MOL0     H 4641   7.296   0.903   1.219  0.0812  0.5470 -0.6744
   34MOL0     H 4642   7.456   0.562   1.171 -0.4120 -0.4083 -1.4318
   34MOL0     H 4643   7.285   0.587   1.146 -2.2235 -0.3290  1.6324
   34MOL0     H 4644   7.360   0.548   1.397  3.1567  1.2560  0.1855
   34MOL0     H 4645   7.406   0.716   1.399 -0.9126  0.3576  1.2920
   34MOL0     H 4646   7.187   0.784   1.325  3.5500  1.5040  2.3874
   34MOL0     H 4647   7.126   0.615   1.313 -1.0921  1.2280  0.2698
   34MOL0     H 4648   7.155   0.581   1.553  1.7043 -0.0692 -1.7094
   34MOL0     H 4649   7.227   0.744   1.571  0.0208  0.2851  0.1976
   34MOL0     H 4650   6.780   0.831   1.534 -2.0650 -0.8647  0.1083
   34MOL0     H 4651   6.530   0.790   1.785 -3.8423  1.4613 -0.6161
   34MOL0     H 4652   6.577   0.889   1.650  1.9163  0.5843 -0.3733
   34MOL0     H 4653   6.589   0.951   1.814 -2.9808 -0.5686  0.0318
   34MOL0     H 4654   6.903   0.650   2.239  0.9155 -0.8700  2.2552
   34MOL0     H 4655   6.830   0.567   2.460 -1.3647 -0.7521  0.1806
   34MOL0     H 4656   6.522   0.578   2.610 -0.1576  2.5845  1.0277
   34MOL0     H 4657   6.702   0.523   2.621 -0.1000 -1.4909  0.4006
   34MOL0     H 4658   6.702   0.557   2.852 -0.3938 -3.4527 -0.3578
   34MOL0     H 4659   6.530   0.606   2.866 -1.0711  1.0863 -0.4387
   34MOL0     H 4660   6.622   0.340   2.775 -0.0427 -1.4614  1.1083
   34MOL0     H 4661   6.451   0.404   2.778 -0.5054  1.3581 -0.8331
   34MOL0     H 4662   6.467   0.423   3.028  1.3434 -1.9484  3.3343
   34MOL0     H 4663   6.641   0.409   3.024 -0.8036 -0.1679  1.6970
   34MOL0     H 4664   6.618   0.168   2.960 -0.3393 -1.1382  1.3024
   34MOL0     H 4665   6.525   0.202   3.103  1.4968  1.5269  0.0748
   34MOL0     H 4666   6.417   0.056   2.912 -1.3191  0.9857 -2.7154
   34MOL0     H 4667   6.389   0.203   2.830 -2.5223  2.3194  0.6903
   34MOL0     H 4668   6.185   0.201   2.940  1.1967  0.0329 -2.2296
   34MOL0     H 4669   6.262   0.292   3.064 -1.8595 -0.8690  0.1436
   34MOL0     H 4670   6.311   0.105   3.209 -0.1294 -1.0300  1.1765
   34MOL0     H 4671   6.251  -0.002   3.074 -0.3111  1.4926 -2.3806
   34MOL0     H 4672   6.575   0.915   2.476 -0.0400  0.6255 -1.6298
   34MOL0     H 4673   6.678   0.989   2.259  1.4606  0.3387 -0.4330
   34MOL0     H 4674   7.020   0.792   1.956 -1.2158  2.1342  0.3221
   34MOL0     H 4675   7.129   0.735   1.769  0.1398  1.0229 -0.1323
   34MOL0     H 4676   6.652   1.752   0.571  1.0143  0.4786  0.1278
   34MOL0     H 4677   6.422   1.634   0.552  0.5922  1.2747  0.5743
   34MOL0     H 4678   6.206   1.389   0.392 -0.8413 -0.3217 -0.9324
   34MOL0     H 4679   5.996   1.318   0.296 -3.0462 -3.5996  0.0499
   34MOL0     H 4680   5.665   1.134   0.539 -1.0139  1.4053  0.9985
   34MOL0     H 4681   5.677   1.316   0.542 -1.2513  1.4644 -1.0907
   34MOL0     H 4682   5.470   1.203   0.471  0.8764  1.5400  1.5772
   34MOL0     H 4683   5.549   1.135   0.334 -1.5060 -1.0215  0.3947
   34MOL0     H 4684   5.549   1.442   0.386  3.8218 -0.2286  1.3057
   34MOL0     H 4685   5.613   1.355   0.242  0.0907 -1.0346 -0.1121
   34MOL0     H 4686   5.395   1.277   0.184  0.9729  1.1686 -1.8555
   34MOL0     H 4687   5.402   1.451   0.186 -0.8714 -2.0234 -2.8202
   34MOL0     H 4688   5.101   1.422   0.476 -0.2998  2.6327 -2.4972
   34MOL0     H 4689   5.857   1.194   0.678  0.4184  1.8854  2.1386
   34MOL0     H 4690   6.076   1.316   0.861 -1.1297 -0.3695  0.2557
   34MOL0     H 4691   5.970   1.172   0.841 -1.8987  0.6758 -0.8505
   34MOL0     H 4692   6.154   1.166   0.812  0.5067  2.2869 -2.1442
   35MOL0     O 4693  10.994   5.299   3.045  0.2910  0.2561  0.5208
   35MOL0     C 4694  11.043   5.338   2.939  1.0686  0.1230 -0.3318
   35MOL0     O 4695  10.985   5.328   2.811  0.1904 -0.1760 -0.2082
   35MOL0     C 4696  10.857   5.273   2.808  0.2313 -0.1206  1.2147
   35MOL0     C 4697  10.841   5.137   2.781  0.0036 -0.1936 -0.8866
   35MOL0     C 4698  10.704   5.082   2.768 -1.0737 -0.0612 -0.6519
   35MOL0     C 4699  10.588   5.160   2.787  0.2404  0.0366 -0.7039
   35MOL0     O 4700  10.460   5.091   2.785 -0.1401  0.3570  0.0326
   35MOL0     C 4701  10.335   5.160   2.803 -0.7747  0.3490  0.4799
   35MOL0     C 4702  10.294   5.152   2.954 -0.2738 -0.4346  0.2010
   35MOL0     C 4703  10.383   5.224   3.052  0.2304 -0.1525 -0.3112
   35MOL0     C 4704  10.351   5.377   3.051 -0.1732 -0.0032  0.2950
   35MOL0     C 4705  10.412   5.480   3.161 -0.4077  0.1672 -0.4022
   35MOL0     C 4706  10.561   5.490   3.178 -0.0739  0.4330  0.7265
   35MOL0     C 4707  10.597   5.561   3.306 -0.5848 -0.8338 -0.0440
   35MOL0     C 4708  10.746   5.548   3.337 -0.5372 -0.1879 -0.2706
   35MOL0     N 4709  10.789   5.644   3.427  0.0878 -0.2540 -0.1027
   35MOL0     C 4710  10.748   5.654   3.561  0.3964 -1.2412 -0.2392
   35MOL0     C 4711  10.813   5.762   3.613  0.0696  0.6742 -0.4969
   35MOL0     C 4712  10.799   5.814   3.755  0.3220 -0.5604 -0.9771
   35MOL0     C 4713  10.818   5.965   3.776  0.8242  0.1528 -0.2497
   35MOL0     C 4714  10.755   6.009   3.911 -0.6811 -0.7089 -0.0156
   35MOL0     C 4715  10.857   5.979   4.024 -0.7240  0.3081  0.2995
   35MOL0     O 4716  10.972   6.058   4.008 -0.0659  0.4147  0.0094
   35MOL0     C 4717  10.998   6.156   4.094 -1.2322  1.0282 -0.9363
   35MOL0     C 4718  11.070   6.128   4.212  1.2890  0.1629  0.4032
   35MOL0     C 4719  11.102   6.225   4.302 -0.3334 -0.2760  0.3202
   35MOL0     C 4720  11.175   6.166   4.418 -0.3398  0.2518 -0.0616
   35MOL0     C 4721  11.081   6.367   4.272 -0.3912  0.0698 -0.9028
   35MOL0     C 4722  11.115   6.470   4.372 -0.7467 -0.5169  0.9992
   35MOL0     O 4723  11.090   6.601   4.326 -0.2525 -0.6810  0.7100
   35MOL0     C 4724  11.104   6.722   4.406  0.4733 -0.2288  0.9261
   35MOL0     C 4725  11.004   6.817   4.392 -0.2679 -0.2680  0.1054
   35MOL0     C 4726  11.018   6.933   4.461  0.0480  0.7132 -0.3527
   35MOL0     C 4727  11.128   6.971   4.529 -0.9689  0.4682 -0.5031
   35MOL0     O 4728  11.142   7.100   4.572  0.2896 -0.1387 -0.4443
   35MOL0     C 4729  11.241   7.128   4.671 -0.5879 -0.0925 -0.4581
   35MOL0     C 4730  11.263   7.279   4.670  0.2238 -0.1079  0.1650
   35MOL0     C 4731  11.233   7.339   4.807 -0.1115  0.2930  0.3906
   35MOL0     C 4732  11.179   7.482   4.787  0.8995  0.3240  0.2929
   35MOL0     C 4733  11.165   7.559   4.920 -0.7416 -0.1401 -0.0778
   35MOL0     C 4734  11.074   7.689   4.907 -1.3033  0.1439  0.2964
   35MOL0     C 4735  11.076   7.781   5.031 -0.5566  0.1335  0.1867
   35MOL0     C 4736  11.010   7.725   5.150 -0.0562 -0.0057 -0.0167
   35MOL0    Cl 4737  11.119   7.620   5.234 -0.7172  0.3308 -0.3927
   35MOL0     C 4738  11.227   6.870   4.560  0.0690  0.2709  0.1200
   35MOL0     C 4739  11.213   6.750   4.491 -0.0010 -0.8523  0.2531
   35MOL0     O 4740  11.183   6.446   4.472 -0.0951  0.1604 -0.4998
   35MOL0     C 4741  11.005   6.388   4.157  0.7482 -0.3870 -0.0097
   35MOL0     C 4742  10.968   6.281   4.066  0.1673 -0.1992 -0.1351
   35MOL0     N 4743  10.911   5.802   3.516  1.3349  0.0711 -0.2868
   35MOL0     N 4744  10.888   5.733   3.407  0.4034 -0.3377 -0.3081
   35MOL0     C 4745  10.610   5.299   2.796 -0.3359  0.7938 -0.1421
   35MOL0     C 4746  10.743   5.352   2.821  0.1776  0.5408  0.4663
   35MOL0     C 4747  11.169   5.413   2.936 -0.3102 -0.4277 -0.0648
   35MOL0     C 4748  11.250   5.405   2.818 -0.2463 -0.6386 -0.0809
   35MOL0     C 4749  11.384   5.457   2.824 -0.2997  0.1351 -0.8244
   35MOL0     C 4750  11.430   5.505   2.943 -0.0091 -0.7125  0.9865
   35MOL0     O 4751  11.558   5.548   2.951 -0.8816  0.2117 -0.0914
   35MOL0     C 4752  11.664   5.448   2.977  0.4283 -0.2741 -0.1544
   35MOL0     C 4753  11.793   5.481   2.901  0.6801 -0.3482  0.1563
   35MOL0     C 4754  11.800   5.425   2.758 -0.9800  0.0264  0.8631
   35MOL0     C 4755  11.894   5.307   2.745  1.1478  0.2857 -0.0864
   35MOL0     C 4756  11.854   5.187   2.831  1.4848  0.4886  0.0987
   35MOL0     C 4757  11.813   5.101   2.907  0.2022 -1.1993 -0.4090
   35MOL0     C 4758  11.355   5.522   3.051  0.5542 -0.7668  1.3157
   35MOL0     C 4759  11.222   5.474   3.057 -0.1626 -0.3417 -0.0174
   35MOL0     C 4760  11.169   5.490   3.197  0.4546  0.1263  0.7362
   35MOL0     H 4761  10.937   5.087   2.776  0.4310  0.2084  1.8086
   35MOL0     H 4762  10.694   4.974   2.764  0.5319 -0.2242 -1.1201
   35MOL0     H 4763  10.263   5.107   2.739  0.3138 -0.5130 -0.0769
   35MOL0     H 4764  10.349   5.265   2.776  1.9822 -0.5434 -2.1870
   35MOL0     H 4765  10.190   5.187   2.957 -1.5443 -3.8125  0.4997
   35MOL0     H 4766  10.307   5.046   2.978  4.6514 -0.1524 -0.2326
   35MOL0     H 4767  10.367   5.198   3.157 -0.8506  4.5373  0.9470
   35MOL0     H 4768  10.485   5.204   3.020 -0.4105 -1.4020 -1.7169
   35MOL0     H 4769  10.385   5.421   2.957 -0.5466  1.0722  0.6422
   35MOL0     H 4770  10.242   5.386   3.044  0.0553  2.9649 -0.8397
   35MOL0     H 4771  10.365   5.448   3.254  0.1868  0.7379  0.1012
   35MOL0     H 4772  10.379   5.583   3.143 -0.2789  0.1531 -0.7420
   35MOL0     H 4773  10.598   5.387   3.182 -3.0411 -0.6931  1.2317
   35MOL0     H 4774  10.597   5.543   3.089 -0.5664 -0.8924 -0.2883
   35MOL0     H 4775  10.541   5.515   3.388  0.3283 -1.4331  0.2504
   35MOL0     H 4776  10.566   5.665   3.295  3.3181  0.4647 -0.1803
   35MOL0     H 4777  10.761   5.446   3.374 -1.3977  0.2360  1.3170
   35MOL0     H 4778  10.797   5.557   3.241  0.3631  1.7921  0.3442
   35MOL0     H 4779  10.687   5.587   3.620  0.4099 -0.7906  0.2890
   35MOL0     H 4780  10.871   5.773   3.826 -0.1485  3.6969  2.4067
   35MOL0     H 4781  10.694   5.798   3.783 -0.1545  1.5856 -1.3577
   35MOL0     H 4782  10.925   5.987   3.775  1.3075 -1.3482  3.4593
   35MOL0     H 4783  10.762   6.019   3.699 -0.8030  0.6401  1.2100
   35MOL0     H 4784  10.736   6.117   3.908  0.7365 -0.3906  1.0788
   35MOL0     H 4785  10.656   5.965   3.924 -1.2507  0.7125  0.6742
   35MOL0     H 4786  10.821   5.977   4.127  0.1016 -0.5566  0.5855
   35MOL0     H 4787  10.894   5.877   4.013 -1.3812  0.1303 -0.3573
   35MOL0     H 4788  11.076   6.021   4.232 -1.8809 -0.7150 -2.4168
   35MOL0     H 4789  11.281   6.193   4.410 -0.2296 -0.6126 -2.4179
   35MOL0     H 4790  11.165   6.060   4.441  0.2692  0.4257  1.0814
   35MOL0     H 4791  11.137   6.214   4.509 -0.0023  3.3811 -1.4371
   35MOL0     H 4792  10.930   6.801   4.315  1.4309 -0.4698 -1.5745
   35MOL0     H 4793  10.933   7.001   4.461  0.2782  1.0315 -1.7027
   35MOL0     H 4794  11.211   7.083   4.766  1.5109  1.4711  1.0326
   35MOL0     H 4795  11.338   7.082   4.648 -1.3709 -1.0314 -2.0712
   35MOL0     H 4796  11.367   7.298   4.643 -0.9940  2.8342 -3.2225
   35MOL0     H 4797  11.196   7.323   4.596  1.2296  1.2055 -0.0087
   35MOL0     H 4798  11.326   7.336   4.865 -0.6912 -1.5857  1.3013
   35MOL0     H 4799  11.163   7.289   4.875 -0.8905 -3.2094 -2.6791
   35MOL0     H 4800  11.080   7.485   4.740  0.7556 -0.0861  0.5575
   35MOL0     H 4801  11.247   7.534   4.719 -1.3420  0.1740 -2.2437
   35MOL0     H 4802  11.130   7.482   4.989  1.4924 -0.0726  1.2343
   35MOL0     H 4803  11.262   7.590   4.961 -0.2858 -0.3711 -0.9714
   35MOL0     H 4804  10.978   7.658   4.865 -0.2496 -0.2256 -1.9714
   35MOL0     H 4805  11.109   7.745   4.820 -0.9225 -3.2870 -1.9434
   35MOL0     H 4806  11.014   7.866   5.001 -0.4849  1.1210  2.5827
   35MOL0     H 4807  11.178   7.808   5.058 -0.9698  0.5555  1.4242
   35MOL0     H 4808  10.914   7.678   5.129  0.4390 -2.1857  2.0787
   35MOL0     H 4809  10.991   7.804   5.223  0.6013  0.3782 -0.2455
   35MOL0     H 4810  11.318   6.873   4.618 -1.0345 -0.3969  1.9778
   35MOL0     H 4811  11.280   6.665   4.498 -0.7541 -1.3618  1.7666
   35MOL0     H 4812  10.956   6.480   4.125 -1.0666 -0.8267  1.3314
   35MOL0     H 4813  10.913   6.305   3.975  0.6767 -0.2652 -0.4668
   35MOL0     H 4814  10.529   5.371   2.803 -0.3782  0.5637  3.3566
   35MOL0     H 4815  10.756   5.459   2.832 -1.1657  0.9040 -1.2132
   35MOL0     H 4816  11.226   5.348   2.729 -0.0829 -1.5753  0.4479
   35MOL0     H 4817  11.450   5.466   2.739 -2.3779  2.2128 -2.3137
   35MOL0     H 4818  11.691   5.457   3.083 -1.1915  3.0604  0.1076
   35MOL0     H 4819  11.628   5.350   2.943  2.6679 -1.1638 -0.1410
   35MOL0     H 4820  11.878   5.443   2.958  2.3955  2.8868 -0.0033
   35MOL0     H 4821  11.798   5.591   2.901  1.0977 -0.3615 -0.4265
   35MOL0     H 4822  11.704   5.398   2.713 -0.7042  0.0841  0.2262
   35MOL0     H 4823  11.856   5.496   2.697 -0.8429 -1.4023 -0.7520
   35MOL0     H 4824  11.998   5.327   2.772  0.9851 -2.6228  3.3263
   35MOL0     H 4825  11.890   5.275   2.640 -0.0936 -4.5451  1.1807
   35MOL0     H 4826  11.769   5.022   2.966 -1.7394 -0.8317 -1.3092
   35MOL0     H 4827  11.401   5.589   3.122 -1.5027  0.8602  1.2253
   35MOL0     H 4828  11.155   5.392   3.245 -1.3284 -1.6397 -2.8986
   35MOL0     H 4829  11.239   5.545   3.261  2.8217  1.4852 -2.7238
   35MOL0     H 4830  11.076   5.545   3.180  0.1676 -1.2653 -3.2542
   36MOL0     O 4831  10.263   6.902   3.990 -0.9819  0.4722 -0.2620
   36MOL0     C 4832  10.380   6.865   3.957  0.0515 -0.2254  0.5564
   36MOL0     O 4833  10.413   6.759   3.872  0.1190 -0.2278 -0.5470
   36MOL0     C 4834  10.311   6.689   3.816 -0.2169  0.3699  1.2945
   36MOL0     C 4835  10.196   6.646   3.877 -0.7803  0.2561  0.2942
   36MOL0     C 4836  10.123   6.542   3.818 -0.4672 -0.4009  0.1608
   36MOL0     C 4837  10.159   6.479   3.695  0.2985  1.0601 -0.0486
   36MOL0     O 4838  10.087   6.370   3.658 -0.0666  0.8310 -0.1328
   36MOL0     C 4839  10.118   6.328   3.517  0.2408 -0.2857 -0.8655
   36MOL0     C 4840  10.017   6.225   3.465 -0.7392  0.4402  0.3405
   36MOL0     C 4841   9.889   6.276   3.486  0.5999 -0.8715  0.6387
   36MOL0     C 4842   9.792   6.190   3.409  0.3536  0.0832 -0.2623
   36MOL0     C 4843   9.647   6.237   3.431  0.6721  0.2591 -0.4532
   36MOL0     C 4844   9.553   6.126   3.477  0.6557  0.1093 -0.4162
   36MOL0     C 4845   9.568   6.074   3.621  0.1295 -0.7050  0.4892
   36MOL0     C 4846   9.512   5.940   3.644 -0.1620  0.7754  0.9019
   36MOL0     N 4847   9.369   5.931   3.619  0.3676 -0.6524 -0.9262
   36MOL0     C 4848   9.279   5.860   3.701 -0.4302 -0.3014 -0.0599
   36MOL0     C 4849   9.170   5.832   3.623  0.2660 -0.1386 -0.0791
   36MOL0     C 4850   9.047   5.763   3.675  0.3805 -0.2400  0.3768
   36MOL0     C 4851   8.969   5.848   3.783  0.2206 -0.7039  0.2353
   36MOL0     C 4852   8.818   5.801   3.784  0.4522  0.9324  0.3646
   36MOL0     C 4853   8.802   5.651   3.815  0.0292 -0.1255  0.0972
   36MOL0     O 4854   8.668   5.624   3.846  0.8559 -0.0968 -0.4755
   36MOL0     C 4855   8.596   5.507   3.813 -0.0631 -0.7849 -0.6240
   36MOL0     C 4856   8.659   5.394   3.760 -0.1684  1.2530 -0.8292
   36MOL0     C 4857   8.580   5.281   3.741  0.1355 -0.5558  0.2416
   36MOL0     C 4858   8.650   5.169   3.660  0.2163 -0.0163  0.2694
   36MOL0     C 4859   8.442   5.278   3.779 -1.1907 -0.4940  1.0904
   36MOL0     C 4860   8.356   5.164   3.751  0.4898  1.1131  0.1967
   36MOL0     O 4861   8.404   5.042   3.781  0.4533  0.4843  0.0784
   36MOL0     C 4862   8.332   4.919   3.772 -0.8898 -1.1173  0.4294
   36MOL0     C 4863   8.395   4.806   3.843 -0.9233  0.1032  0.2199
   36MOL0     C 4864   8.339   4.676   3.836  1.4326 -0.2499  0.6820
   36MOL0     C 4865   8.220   4.650   3.759 -0.0242 -0.7614 -0.6834
   36MOL0     O 4866   8.149   4.534   3.751 -0.1893 -0.4863  0.3792
   36MOL0     C 4867   8.219   4.418   3.794 -0.1331  0.4215  0.6186
   36MOL0     C 4868   8.145   4.286   3.755 -0.0549 -0.5423  0.3235
   36MOL0     C 4869   8.001   4.281   3.813  0.2716  0.1551  0.2019
   36MOL0     C 4870   7.933   4.166   3.759  0.4118  0.1694  0.8251
   36MOL0     C 4871   7.800   4.163   3.824  0.2031  0.0927 -0.9700
   36MOL0     C 4872   7.719   4.039   3.783 -0.2776 -0.2055 -0.5454
   36MOL0     C 4873   7.577   4.017   3.841  0.3093  1.5354  1.0100
   36MOL0     C 4874   7.471   4.084   3.757  1.2577 -0.2779 -0.4402
   36MOL0    Cl 4875   7.444   4.009   3.592 -0.5304  0.3010 -0.0819
   36MOL0     C 4876   8.163   4.759   3.686 -0.3842  0.1326 -1.0833
   36MOL0     C 4877   8.222   4.886   3.704  0.1335  0.8527 -0.3274
   36MOL0     O 4878   8.239   5.187   3.722  0.7333 -0.2798  0.4063
   36MOL0     C 4879   8.388   5.398   3.822  0.3025 -0.2876 -0.0110
   36MOL0     C 4880   8.463   5.510   3.838  0.8944  0.5327  0.5746
   36MOL0     N 4881   9.198   5.887   3.505 -0.3105 -0.0541  0.5286
   36MOL0     N 4882   9.300   5.961   3.508  0.0536 -0.0468  0.0480
   36MOL0     C 4883  10.267   6.526   3.622 -0.7842 -0.6598  0.3219
   36MOL0     C 4884  10.344   6.630   3.690 -0.5692 -0.5181  0.6027
   36MOL0     C 4885  10.504   6.943   4.004  0.3503 -0.0140 -0.4374
   36MOL0     C 4886  10.601   7.001   3.914 -0.4397 -0.3200 -0.4050
   36MOL0     C 4887  10.705   7.082   3.970  0.5829  0.6312 -0.6539
   36MOL0     C 4888  10.731   7.093   4.108 -0.3259  0.5443 -1.0440
   36MOL0     O 4889  10.843   7.161   4.171  0.4407 -0.4508  0.8051
   36MOL0     C 4890  10.948   7.227   4.096  0.6964 -0.0992  0.8804
   36MOL0     C 4891  11.087   7.244   4.171 -0.4582 -0.2601 -0.7344
   36MOL0     C 4892  11.055   7.308   4.315 -1.0695  0.7333  0.3669
   36MOL0     C 4893  11.012   7.446   4.316  0.4319 -0.2458  1.0597
   36MOL0     C 4894  11.101   7.534   4.235 -0.2334 -0.9714  0.1080
   36MOL0     C 4895  11.172   7.608   4.171 -1.0547 -0.2529  0.3167
   36MOL0     C 4896  10.624   7.047   4.187  0.2845  1.4076 -0.1775
   36MOL0     C 4897  10.512   6.972   4.140 -0.0528  0.6044 -0.9248
   36MOL0     C 4898  10.405   6.923   4.242 -0.6237 -0.2101  0.0802
   36MOL0     H 4899  10.167   6.683   3.975  0.7827  0.4000  0.7257
   36MOL0     H 4900  10.044   6.498   3.878 -0.5163  1.8568  1.9083
   36MOL0     H 4901  10.219   6.286   3.506 -0.1532 -0.6515 -3.7813
   36MOL0     H 4902  10.111   6.415   3.452 -0.6856  0.6854  0.4733
   36MOL0     H 4903  10.030   6.184   3.364 -1.1372  0.8018  0.1424
   36MOL0     H 4904  10.023   6.136   3.529 -1.1741  0.6123  0.6254
   36MOL0     H 4905   9.861   6.270   3.591 -0.0340  2.1433  0.7312
   36MOL0     H 4906   9.884   6.383   3.460 -0.6410 -1.1812 -0.5452
   36MOL0     H 4907   9.820   6.192   3.303  3.0093 -4.1298  0.1249
   36MOL0     H 4908   9.793   6.085   3.440 -4.4070 -0.3210 -0.7113
   36MOL0     H 4909   9.604   6.276   3.339 -0.2573 -1.7877 -0.9565
   36MOL0     H 4910   9.657   6.313   3.509  0.4186  0.1628 -0.3231
   36MOL0     H 4911   9.453   6.171   3.475  1.2865  1.6199 -3.4847
   36MOL0     H 4912   9.574   6.045   3.407 -3.6905 -0.9891 -0.7297
   36MOL0     H 4913   9.534   6.151   3.691 -0.7587  1.2571 -1.9231
   36MOL0     H 4914   9.677   6.072   3.636  0.2774  4.0990  1.7759
   36MOL0     H 4915   9.570   5.874   3.579  3.1077  4.1304  0.0647
   36MOL0     H 4916   9.520   5.901   3.746  3.2193 -2.6896 -0.4235
   36MOL0     H 4917   9.299   5.844   3.806 -1.3104  1.7803  0.4828
   36MOL0     H 4918   9.088   5.673   3.724 -0.1177  0.7915  2.8276
   36MOL0     H 4919   8.993   5.731   3.585 -0.8053 -0.8823  1.2904
   36MOL0     H 4920   9.022   5.836   3.878  0.7871  0.4238  0.0660
   36MOL0     H 4921   8.977   5.952   3.752  0.2466 -0.6670  0.3683
   36MOL0     H 4922   8.766   5.849   3.867 -1.2696 -0.1865 -0.0137
   36MOL0     H 4923   8.766   5.820   3.690 -0.0760 -2.3433 -0.1260
   36MOL0     H 4924   8.828   5.589   3.729  1.6969 -0.4697  0.8125
   36MOL0     H 4925   8.862   5.618   3.901 -1.0179  0.3984  1.0486
   36MOL0     H 4926   8.766   5.380   3.750 -0.3317 -0.2113 -0.7086
   36MOL0     H 4927   8.586   5.131   3.580  0.0942 -2.5459  1.4749
   36MOL0     H 4928   8.669   5.085   3.727 -0.9213  0.0592  0.7008
   36MOL0     H 4929   8.746   5.198   3.614 -0.4262  2.4053  0.3180
   36MOL0     H 4930   8.491   4.840   3.880 -0.6649  0.2942 -0.5903
   36MOL0     H 4931   8.412   4.604   3.870  1.0062  0.0755  2.3620
   36MOL0     H 4932   8.321   4.416   3.754  0.3601  0.0293  1.8458
   36MOL0     H 4933   8.230   4.426   3.902 -1.1691 -1.0106  0.8586
   36MOL0     H 4934   8.149   4.291   3.646  1.6958  0.9755  0.3952
   36MOL0     H 4935   8.203   4.196   3.778  2.2635  0.6893 -0.2868
   36MOL0     H 4936   7.939   4.362   3.775  0.2520  0.4699  0.8938
   36MOL0     H 4937   8.009   4.273   3.922  0.7309 -0.5519  0.1232
   36MOL0     H 4938   7.991   4.074   3.767 -1.2284 -0.7911  2.2949
   36MOL0     H 4939   7.920   4.187   3.653  0.3235  1.0843  1.0050
   36MOL0     H 4940   7.792   4.153   3.933 -0.1700 -1.8242 -1.1329
   36MOL0     H 4941   7.750   4.251   3.783  1.0083  0.6801 -0.7224
   36MOL0     H 4942   7.778   3.956   3.823 -0.0825  1.3914  2.8608
   36MOL0     H 4943   7.710   4.029   3.674  0.3546  0.1301 -0.6342
   36MOL0     H 4944   7.574   4.042   3.947 -1.5641 -3.2316  2.3483
   36MOL0     H 4945   7.559   3.909   3.836  1.8091  1.3010 -1.9087
   36MOL0     H 4946   7.506   4.187   3.755 -1.3397  0.7076  0.5190
   36MOL0     H 4947   7.369   4.089   3.797  0.8207 -1.4702 -1.3637
   36MOL0     H 4948   8.083   4.730   3.618 -0.1140 -2.2793 -0.4708
   36MOL0     H 4949   8.179   4.974   3.657 -1.3368 -0.0644 -0.7888
   36MOL0     H 4950   8.280   5.406   3.830  0.3366  4.7170 -1.6913
   36MOL0     H 4951   8.426   5.608   3.867 -1.4747  0.0753 -0.6972
   36MOL0     H 4952  10.307   6.478   3.534  0.6142  3.8554 -1.8036
   36MOL0     H 4953  10.440   6.651   3.644 -0.6454 -2.9386 -0.8647
   36MOL0     H 4954  10.589   7.000   3.806  2.7700  1.5062 -0.9049
   36MOL0     H 4955  10.772   7.133   3.903 -1.4687  1.3769 -2.2258
   36MOL0     H 4956  10.966   7.183   3.997 -2.9055 -0.1908  0.1325
   36MOL0     H 4957  10.900   7.325   4.087  2.0376  0.8945  3.6398
   36MOL0     H 4958  11.157   7.294   4.104 -0.0861 -0.1843 -0.2981
   36MOL0     H 4959  11.128   7.143   4.183  0.1689 -0.0103 -0.7450
   36MOL0     H 4960  10.974   7.243   4.350  2.0639 -3.7188  0.1487
   36MOL0     H 4961  11.140   7.281   4.378  0.2225  0.9304 -1.2305
   36MOL0     H 4962  10.999   7.493   4.414 -2.0863  2.6703 -0.4881
   36MOL0     H 4963  10.915   7.439   4.267  1.1483  2.6386 -1.0543
   36MOL0     H 4964  11.247   7.665   4.120  1.1905 -1.3364  2.1812
   36MOL0     H 4965  10.619   7.061   4.294 -0.4747  2.4209 -0.3286
   36MOL0     H 4966  10.439   6.918   4.345  1.0015 -2.2476 -0.4977
   36MOL0     H 4967  10.320   6.993   4.243 -1.4416 -1.0992 -1.6330
   36MOL0     H 4968  10.371   6.824   4.210  0.5589 -1.1260  1.5431
   37MOL0     O 4969   8.591  10.881   7.858  0.1949 -0.3583  0.4280
   37MOL0     C 4970   8.660  10.897   7.756  1.1979 -0.3544  0.6731
   37MOL0     O 4971   8.679  11.019   7.686 -0.1052 -0.1083  0.0688
   37MOL0     C 4972   8.665  11.124   7.778  0.0436  0.9628 -0.8165
   37MOL0     C 4973   8.774  11.179   7.853  0.3092 -0.1721  0.0924
   37MOL0     C 4974   8.748  11.265   7.951 -0.6733  0.4958  0.9128
   37MOL0     C 4975   8.622  11.320   7.978 -0.2841 -0.7083 -0.3790
   37MOL0     O 4976   8.621  11.411   8.074 -0.6125  0.3339  0.4264
   37MOL0     C 4977   8.545  11.537   8.059 -0.2951  0.2932  0.1831
   37MOL0     C 4978   8.571  11.610   8.189 -0.4344  0.3887 -0.2186
   37MOL0     C 4979   8.519  11.753   8.180  0.1691 -0.6843  0.3950
   37MOL0     C 4980   8.581  11.824   8.069  0.3300 -0.0340  0.6996
   37MOL0     C 4981   8.557  11.975   8.080 -0.0420  1.3724  0.5228
   37MOL0     C 4982   8.655  12.042   7.977  0.3547  0.0110 -0.2075
   37MOL0     C 4983   8.654  12.205   7.997 -0.1575  0.6364 -0.3192
   37MOL0     C 4984   8.515  12.270   7.960  0.2698  1.0921  1.2083
   37MOL0     N 4985   8.513  12.414   7.990 -0.6437 -0.1658 -0.7940
   37MOL0     C 4986   8.526  12.470   8.121  0.1985  0.4627  0.4955
   37MOL0     C 4987   8.526  12.609   8.092 -0.3823  0.3036 -0.0500
   37MOL0     C 4988   8.562  12.727   8.182 -0.6647  1.4908 -0.5050
   37MOL0     C 4989   8.467  12.835   8.187 -0.5701 -0.5177  0.5197
   37MOL0     C 4990   8.541  12.966   8.229  0.6577 -0.4152  0.5112
   37MOL0     C 4991   8.468  13.097   8.203 -0.5508  0.6953  0.0476
   37MOL0     O 4992   8.529  13.201   8.275  0.0627 -1.2174 -0.3231
   37MOL0     C 4993   8.433  13.291   8.318  0.0039 -0.2468 -0.5285
   37MOL0     C 4994   8.432  13.329   8.451  0.4976 -0.6445  1.2300
   37MOL0     C 4995   8.338  13.414   8.506 -0.0864  0.3502 -0.1294
   37MOL0     C 4996   8.328  13.432   8.656 -0.8016 -0.2895  0.3518
   37MOL0     C 4997   8.243  13.473   8.415 -0.6289 -0.3487 -0.2754
   37MOL0     C 4998   8.148  13.581   8.451  0.2870 -0.7944 -1.4333
   37MOL0     O 4999   8.023  13.578   8.391  0.2711 -0.4467  0.2605
   37MOL0     C 5000   7.920  13.660   8.429  0.2118 -0.0455  0.0007
   37MOL0     C 5001   7.857  13.722   8.323  0.1713  0.3964  0.3087
   37MOL0     C 5002   7.740  13.790   8.332  0.3229 -0.2925  0.0902
   37MOL0     C 5003   7.673  13.807   8.450  0.0626  0.1686 -0.2865
   37MOL0     O 5004   7.546  13.867   8.449 -0.1935  0.0490  0.7090
   37MOL0     C 5005   7.522  13.964   8.551 -0.1822  0.4826  0.4743
   37MOL0     C 5006   7.461  14.089   8.490  1.2124 -0.2767 -0.5655
   37MOL0     C 5007   7.571  14.173   8.424  0.4653  0.4076  0.3451
   37MOL0     C 5008   7.499  14.308   8.362 -1.4367 -0.1753 -1.0066
   37MOL0     C 5009   7.590  14.435   8.351  0.4177 -0.8436  0.5691
   37MOL0     C 5010   7.717  14.435   8.265 -0.6077 -0.0522  0.6463
   37MOL0     C 5011   7.698  14.374   8.130 -0.4692 -0.2670 -0.4561
   37MOL0     C 5012   7.829  14.383   8.038 -0.0798 -0.6472 -0.5430
   37MOL0    Cl 5013   7.756  14.355   7.879  0.2089  0.2244 -0.2299
   37MOL0     C 5014   7.739  13.754   8.563  0.0158  1.1008  0.0464
   37MOL0     C 5015   7.860  13.672   8.552  0.7400 -0.3299 -0.0362
   37MOL0     O 5016   8.178  13.659   8.538  0.1146 -0.5471  0.9450
   37MOL0     C 5017   8.238  13.423   8.283 -0.3950  0.1181 -0.3374
   37MOL0     C 5018   8.329  13.334   8.231  0.0904  0.0020 -0.8596
   37MOL0     N 5019   8.496  12.631   7.961  0.5760  0.6752  0.0580
   37MOL0     N 5020   8.491  12.520   7.908 -0.1597  0.5813 -0.9347
   37MOL0     C 5021   8.512  11.270   7.910  0.0047 -0.3250 -0.5984
   37MOL0     C 5022   8.535  11.166   7.810 -0.3333 -0.7328  0.4934
   37MOL0     C 5023   8.713  10.768   7.701  0.2386  0.6727 -0.0710
   37MOL0     C 5024   8.684  10.640   7.753  0.6234 -0.1976 -0.6868
   37MOL0     C 5025   8.729  10.513   7.699  0.2238 -0.2137  0.0892
   37MOL0     C 5026   8.814  10.518   7.583  0.2776 -0.3449 -0.3250
   37MOL0     O 5027   8.859  10.409   7.518 -0.2881 -0.1715 -0.0654
   37MOL0     C 5028   8.771  10.306   7.473  0.5112 -0.5523 -1.0329
   37MOL0     C 5029   8.647  10.343   7.388  0.8523  0.8283 -0.1615
   37MOL0     C 5030   8.570  10.229   7.334 -0.0846  0.1199  0.3883
   37MOL0     C 5031   8.435  10.254   7.262  0.1559  0.5714  0.5021
   37MOL0     C 5032   8.426  10.194   7.129  0.3221  0.3040  0.2781
   37MOL0     C 5033   8.409  10.118   7.033  0.9182 -0.4301  0.5400
   37MOL0     C 5034   8.843  10.644   7.526  0.9851 -0.2331  0.1084
   37MOL0     C 5035   8.791  10.767   7.579  0.3772  1.0910 -0.5576
   37MOL0     C 5036   8.847  10.888   7.517 -0.1960 -0.9736 -0.8472
   37MOL0     H 5037   8.869  11.128   7.839  1.0796  1.5507 -1.2755
   37MOL0     H 5038   8.833  11.283   8.015 -0.2556 -1.4888  0.9599
   37MOL0     H 5039   8.438  11.531   8.038 -0.1080  0.5442 -0.9609
   37MOL0     H 5040   8.590  11.591   7.975 -2.2678  0.6322 -0.7167
   37MOL0     H 5041   8.523  11.558   8.273  1.4028 -1.4990 -0.2699
   37MOL0     H 5042   8.679  11.605   8.201 -0.6405 -0.6410  1.6543
   37MOL0     H 5043   8.410  11.746   8.176 -0.0232  1.6436  0.1075
   37MOL0     H 5044   8.539  11.803   8.276 -3.2324  0.5657  0.6084
   37MOL0     H 5045   8.687  11.803   8.053 -0.0881 -1.2023 -0.8177
   37MOL0     H 5046   8.530  11.798   7.975 -2.5443 -0.2350  2.2101
   37MOL0     H 5047   8.580  12.013   8.180 -1.5452  0.9404  1.0549
   37MOL0     H 5048   8.451  11.996   8.069 -0.3277 -0.2377 -0.0717
   37MOL0     H 5049   8.758  12.014   8.001 -0.4573 -1.7626  1.4690
   37MOL0     H 5050   8.638  12.020   7.872  0.2021 -0.3619 -0.1054
   37MOL0     H 5051   8.736  12.247   7.938  1.2768 -0.7769  0.6087
   37MOL0     H 5052   8.666  12.236   8.101  0.4189  2.5597 -0.9132
   37MOL0     H 5053   8.508  12.262   7.852 -0.4615  0.8526  1.2720
   37MOL0     H 5054   8.430  12.223   8.011  0.6683 -1.4294 -0.2931
   37MOL0     H 5055   8.536  12.418   8.216 -0.9977  0.9770  0.9163
   37MOL0     H 5056   8.665  12.750   8.153  0.2492 -0.3852  1.0559
   37MOL0     H 5057   8.564  12.684   8.283 -0.6493  0.3774 -0.9593
   37MOL0     H 5058   8.429  12.848   8.086  0.7553  4.2746  0.3893
   37MOL0     H 5059   8.376  12.810   8.241 -1.1266 -4.1078 -1.7635
   37MOL0     H 5060   8.559  12.957   8.337  0.6267 -2.2617  0.3914
   37MOL0     H 5061   8.640  12.980   8.186  2.6273 -0.2524  4.5719
   37MOL0     H 5062   8.468  13.112   8.094  2.6885 -2.0137 -0.4944
   37MOL0     H 5063   8.365  13.087   8.237 -0.8347  2.5117 -0.1789
   37MOL0     H 5064   8.497  13.277   8.521  0.8124 -1.7603  0.1283
   37MOL0     H 5065   8.380  13.356   8.714 -0.4473  0.6812  1.3335
   37MOL0     H 5066   8.223  13.419   8.680 -1.1544  0.2359 -0.8356
   37MOL0     H 5067   8.369  13.531   8.680  2.6058 -1.2632 -0.8086
   37MOL0     H 5068   7.886  13.710   8.219 -2.0118  1.5359 -0.4873
   37MOL0     H 5069   7.693  13.836   8.246  1.9116 -1.8189 -1.6782
   37MOL0     H 5070   7.450  13.927   8.625 -2.2559 -1.9031 -2.4792
   37MOL0     H 5071   7.617  13.986   8.601  1.8454  0.0792 -2.9081
   37MOL0     H 5072   7.374  14.075   8.424 -1.9885  2.2948  2.6986
   37MOL0     H 5073   7.424  14.148   8.574  3.1500 -0.1727  0.2441
   37MOL0     H 5074   7.615  14.116   8.341 -1.1121  3.2423 -2.6605
   37MOL0     H 5075   7.640  14.203   8.502 -1.0881  0.4590  1.7643
   37MOL0     H 5076   7.416  14.336   8.428  0.6449  1.2912  1.1633
   37MOL0     H 5077   7.464  14.276   8.263 -1.7755 -5.7660  0.5652
   37MOL0     H 5078   7.532  14.523   8.323 -1.0018 -0.5321  3.9638
   37MOL0     H 5079   7.625  14.462   8.451 -2.4591 -0.6520  1.6179
   37MOL0     H 5080   7.791  14.363   8.302 -1.6037 -1.6502 -0.3217
   37MOL0     H 5081   7.763  14.534   8.269 -0.6590 -0.0373  0.9903
   37MOL0     H 5082   7.626  14.441   8.081 -0.8390 -1.2049 -1.2289
   37MOL0     H 5083   7.650  14.276   8.141 -0.2476 -0.4787 -1.3161
   37MOL0     H 5084   7.895  14.301   8.068 -0.7343 -2.4621 -3.6290
   37MOL0     H 5085   7.858  14.488   8.048 -0.9604 -0.4890  0.6275
   37MOL0     H 5086   7.705  13.782   8.662  0.1465 -0.3209  0.5177
   37MOL0     H 5087   7.909  13.615   8.631 -0.3357 -1.7569 -0.3573
   37MOL0     H 5088   8.170  13.454   8.203  2.1368  3.1805 -1.5310
   37MOL0     H 5089   8.324  13.297   8.130  3.1069  2.8056 -2.2333
   37MOL0     H 5090   8.415  11.313   7.935 -0.0697  0.6177 -2.4064
   37MOL0     H 5091   8.446  11.135   7.756 -0.1084 -1.4781  0.5479
   37MOL0     H 5092   8.615  10.625   7.836  1.1883 -1.3688 -0.3996
   37MOL0     H 5093   8.720  10.417   7.747 -1.1527  0.3921  1.1253
   37MOL0     H 5094   8.829  10.252   7.398 -0.1310 -0.3843 -1.6620
   37MOL0     H 5095   8.763  10.249   7.565  3.7145  2.5617  1.4842
   37MOL0     H 5096   8.670  10.408   7.303  1.2142  1.3061  0.2956
   37MOL0     H 5097   8.574  10.399   7.448 -1.2339 -2.4019  0.5582
   37MOL0     H 5098   8.636  10.191   7.255 -3.9797 -3.0953 -1.7449
   37MOL0     H 5099   8.555  10.147   7.405 -0.9871 -0.4979 -0.4755
   37MOL0     H 5100   8.427  10.362   7.246  1.6443  1.2488  3.4967
   37MOL0     H 5101   8.361  10.216   7.333  1.5582 -2.6148  0.3934
   37MOL0     H 5102   8.387  10.054   6.950 -3.5592  3.1608 -1.4788
   37MOL0     H 5103   8.904  10.642   7.437 -2.8762 -3.0150 -2.7958
   37MOL0     H 5104   8.898  10.868   7.422 -2.6808 -2.0123 -2.0647
   37MOL0     H 5105   8.766  10.950   7.478  0.8274 -1.3717 -3.9557
   37MOL0     H 5106   8.919  10.936   7.584 -1.6265 -1.3078  1.0114
   38MOL0     O 5107  11.437   8.177   1.677 -0.2480  0.5045  0.3022
   38MOL0     C 5108  11.556   8.210   1.701 -0.8922  0.6715  0.3855
   38MOL0     O 5109  11.601   8.319   1.771 -0.7384 -0.6944  0.4777
   38MOL0     C 5110  11.538   8.346   1.894 -0.2899 -0.3871  0.2313
   38MOL0     C 5111  11.501   8.242   1.987 -0.2191  0.1437  0.0022
   38MOL0     C 5112  11.456   8.280   2.116 -0.3218  0.1054 -0.5114
   38MOL0     C 5113  11.437   8.415   2.144  0.5825 -0.2771 -0.0270
   38MOL0     O 5114  11.430   8.452   2.276 -0.7785  0.0448  0.0222
   38MOL0     C 5115  11.340   8.556   2.299  0.6050  0.3770 -0.2020
   38MOL0     C 5116  11.383   8.640   2.416  0.2379 -0.8940  0.6286
   38MOL0     C 5117  11.268   8.743   2.441 -1.1822 -0.1048  0.9580
   38MOL0     C 5118  11.327   8.872   2.502 -0.3111 -0.8477  0.4630
   38MOL0     C 5119  11.389   8.848   2.645 -0.4641  0.3922  0.4415
   38MOL0     C 5120  11.420   8.975   2.729 -0.1075 -0.1833  0.0245
   38MOL0     C 5121  11.486   8.930   2.864  0.5999  0.4086 -0.3150
   38MOL0     C 5122  11.637   8.909   2.856  0.9107  0.2389  0.6543
   38MOL0     N 5123  11.674   8.788   2.776  0.1327  0.7375 -0.4399
   38MOL0     C 5124  11.761   8.792   2.671 -0.3471 -0.1531 -0.5581
   38MOL0     C 5125  11.743   8.668   2.621  0.5427  0.8265 -0.4402
   38MOL0     C 5126  11.804   8.634   2.493  0.0755  0.2358 -0.1087
   38MOL0     C 5127  11.800   8.484   2.461 -0.4874  0.9761 -0.1726
   38MOL0     C 5128  11.826   8.462   2.314  0.0799 -0.0945  0.2123
   38MOL0     C 5129  11.841   8.315   2.277  0.8305  0.1439  0.0466
   38MOL0     O 5130  11.853   8.292   2.132 -0.2365  0.3197  0.3681
   38MOL0     C 5131  11.882   8.164   2.090  0.8585  0.5238 -0.4619
   38MOL0     C 5132  11.938   8.060   2.162 -1.1463 -1.3828 -0.2704
   38MOL0     C 5133  11.939   7.923   2.113 -0.7752 -0.4296 -0.3770
   38MOL0     C 5134  11.995   7.832   2.209 -0.4651  0.0359 -0.4977
   38MOL0     C 5135  11.901   7.888   1.984  0.0886 -0.4724 -0.1031
   38MOL0     C 5136  11.928   7.756   1.920  0.6281 -0.2256  0.0770
   38MOL0     O 5137  11.861   7.746   1.803 -0.4074 -0.7224  0.6719
   38MOL0     C 5138  11.888   7.641   1.720 -0.3339  0.0966  0.1443
   38MOL0     C 5139  11.787   7.576   1.647 -0.4884  0.0379 -1.2466
   38MOL0     C 5140  11.794   7.473   1.549  0.0556 -0.3834 -0.4561
   38MOL0     C 5141  11.924   7.406   1.544 -0.1924  0.7914 -0.5374
   38MOL0     O 5142  11.938   7.288   1.486 -0.5387 -0.3800  0.2122
   38MOL0     C 5143  12.050   7.211   1.515 -0.2119 -0.1759  0.4410
   38MOL0     C 5144  12.165   7.252   1.417  0.5994 -0.9972 -1.2169
   38MOL0     C 5145  12.316   7.241   1.463 -0.0775 -0.6070 -0.3595
   38MOL0     C 5146  12.407   7.310   1.360  0.5993 -0.8285  0.3359
   38MOL0     C 5147  12.554   7.324   1.412  0.1646 -0.3247 -0.3914
   38MOL0     C 5148  12.639   7.414   1.323 -0.6502 -0.1841 -0.7901
   38MOL0     C 5149  12.755   7.460   1.407 -0.0260 -0.3561 -0.1894
   38MOL0     C 5150  12.840   7.543   1.318  0.5176 -0.4768 -0.7401
   38MOL0    Cl 5151  12.969   7.635   1.406 -0.2298  0.1407  0.5721
   38MOL0     C 5152  12.028   7.472   1.622 -0.1953  0.3650  0.3144
   38MOL0     C 5153  12.015   7.590   1.693  0.7637  0.2331  0.0472
   38MOL0     O 5154  11.993   7.665   1.969 -0.2832 -0.2402  0.2142
   38MOL0     C 5155  11.868   8.003   1.902  0.1635 -0.3243 -0.5495
   38MOL0     C 5156  11.845   8.133   1.957  0.5809 -0.0470 -0.1693
   38MOL0     N 5157  11.653   8.584   2.697 -0.5362 -0.0764  1.0200
   38MOL0     N 5158  11.616   8.658   2.794 -1.0215  0.4898  0.6306
   38MOL0     C 5159  11.475   8.507   2.049 -0.2596 -0.9536  0.9392
   38MOL0     C 5160  11.516   8.476   1.920  0.3057 -0.4324  0.3401
   38MOL0     C 5161  11.669   8.160   1.625 -0.0257  0.5481 -0.1229
   38MOL0     C 5162  11.789   8.242   1.605 -0.2051 -0.4336 -0.2803
   38MOL0     C 5163  11.895   8.193   1.532 -0.1684 -0.0114  1.5235
   38MOL0     C 5164  11.892   8.077   1.457 -0.8793 -0.1836 -0.1421
   38MOL0     O 5165  11.994   8.051   1.373 -0.0882 -0.8072  0.5468
   38MOL0     C 5166  11.990   7.943   1.280 -0.6955 -0.5492 -0.9619
   38MOL0     C 5167  12.027   7.804   1.354 -0.0598 -0.7328  0.8196
   38MOL0     C 5168  12.175   7.748   1.330  1.0050  0.5428 -0.2396
   38MOL0     C 5169  12.280   7.832   1.378  0.0030  0.0391  0.0633
   38MOL0     C 5170  12.414   7.786   1.336  0.4578 -0.9920 -0.2158
   38MOL0     C 5171  12.524   7.757   1.298 -0.0987 -0.0871 -0.3412
   38MOL0     C 5172  11.777   7.994   1.484 -0.3221 -0.4631  0.2483
   38MOL0     C 5173  11.668   8.036   1.553 -0.9527  0.3322 -0.0683
   38MOL0     C 5174  11.554   7.939   1.568 -0.3303  0.4202 -0.5038
   38MOL0     H 5175  11.510   8.138   1.955 -0.9731 -1.0740  3.2997
   38MOL0     H 5176  11.422   8.209   2.190  0.1768 -1.1799 -1.4885
   38MOL0     H 5177  11.247   8.508   2.330  1.2630 -1.4076 -0.8895
   38MOL0     H 5178  11.326   8.616   2.208  2.2020  0.7415 -0.2249
   38MOL0     H 5179  11.403   8.576   2.503 -0.0233  1.0354  2.1750
   38MOL0     H 5180  11.477   8.694   2.399  0.0359 -0.2069  1.5982
   38MOL0     H 5181  11.219   8.766   2.346  1.0306  0.0270 -0.2247
   38MOL0     H 5182  11.194   8.715   2.516 -0.8885 -0.1461  1.2335
   38MOL0     H 5183  11.397   8.921   2.434 -2.6864 -0.1637 -1.6603
   38MOL0     H 5184  11.243   8.941   2.513 -0.0275 -0.6731  1.7503
   38MOL0     H 5185  11.486   8.798   2.640  0.5467  1.8733  2.7816
   38MOL0     H 5186  11.322   8.783   2.702  1.7657 -1.2255  1.3692
   38MOL0     H 5187  11.488   9.051   2.691 -0.0860  1.3307  2.7910
   38MOL0     H 5188  11.333   9.036   2.756 -0.1267  0.3061 -1.1123
   38MOL0     H 5189  11.449   8.835   2.902  2.3270 -0.5350 -0.8575
   38MOL0     H 5190  11.467   8.998   2.948  0.2011 -1.1999  0.9461
   38MOL0     H 5191  11.689   8.997   2.816  0.1512 -0.6804 -2.7147
   38MOL0     H 5192  11.667   8.883   2.957 -0.5002 -2.6986  0.4160
   38MOL0     H 5193  11.817   8.873   2.624 -1.7680  2.4536  1.9677
   38MOL0     H 5194  11.908   8.666   2.489 -0.1574  0.9398 -2.6332
   38MOL0     H 5195  11.759   8.692   2.412  3.1637  3.9947  0.5680
   38MOL0     H 5196  11.880   8.439   2.520  0.3162  3.5611  0.8903
   38MOL0     H 5197  11.699   8.447   2.480 -1.2041  0.0190 -4.7936
   38MOL0     H 5198  11.738   8.510   2.272 -0.9513  0.0423  2.3921
   38MOL0     H 5199  11.920   8.506   2.279  1.3709 -2.5966  0.2424
   38MOL0     H 5200  11.931   8.268   2.316  1.9767  1.3699 -1.0319
   38MOL0     H 5201  11.756   8.259   2.318  0.1073  0.8662 -0.4120
   38MOL0     H 5202  11.973   8.080   2.263 -0.6394 -2.3283 -0.2497
   38MOL0     H 5203  11.916   7.759   2.231  0.6570 -0.6975  1.3165
   38MOL0     H 5204  12.004   7.872   2.310 -0.2020 -3.0352  0.8200
   38MOL0     H 5205  12.092   7.798   2.172 -0.4577  0.4466 -0.8678
   38MOL0     H 5206  11.687   7.604   1.677 -0.9725 -1.4840 -1.3266
   38MOL0     H 5207  11.700   7.437   1.510 -0.3917  0.2214  0.0435
   38MOL0     H 5208  12.087   7.195   1.616  0.6229 -1.8077 -0.0926
   38MOL0     H 5209  12.028   7.109   1.483 -0.6509  0.7302 -2.4663
   38MOL0     H 5210  12.162   7.198   1.322 -0.3492  1.5800 -2.7404
   38MOL0     H 5211  12.149   7.358   1.397 -2.3099 -1.3351 -1.0677
   38MOL0     H 5212  12.356   7.139   1.471  3.9204  0.8071 -0.2376
   38MOL0     H 5213  12.332   7.285   1.561  5.5047 -1.7784 -0.4207
   38MOL0     H 5214  12.363   7.408   1.338  1.8894  0.6757  3.7884
   38MOL0     H 5215  12.398   7.240   1.277 -1.1797 -1.0337  0.6574
   38MOL0     H 5216  12.547   7.365   1.513 -0.3016  0.8094 -0.8694
   38MOL0     H 5217  12.599   7.224   1.405 -0.8553 -0.9650  1.5514
   38MOL0     H 5218  12.583   7.496   1.279 -1.6211 -1.9327 -3.0405
   38MOL0     H 5219  12.690   7.350   1.250  4.6148 -2.6207  4.1462
   38MOL0     H 5220  12.809   7.370   1.439  0.4956  0.8402  2.6298
   38MOL0     H 5221  12.726   7.514   1.498  1.1723 -2.2119  1.3878
   38MOL0     H 5222  12.782   7.617   1.263  1.4563  1.3179  0.5999
   38MOL0     H 5223  12.896   7.478   1.250  1.7058  1.9109 -2.1593
   38MOL0     H 5224  12.127   7.429   1.631  0.8745  2.3236 -1.5026
   38MOL0     H 5225  12.103   7.636   1.737 -0.7150  2.0340  1.2446
   38MOL0     H 5226  11.854   7.989   1.795 -1.3867  1.0341 -0.5555
   38MOL0     H 5227  11.817   8.213   1.889 -1.8377 -3.6484 -3.9385
   38MOL0     H 5228  11.483   8.613   2.070 -1.1330 -0.7711  0.4103
   38MOL0     H 5229  11.560   8.541   1.844  1.5979 -1.1147  0.4724
   38MOL0     H 5230  11.805   8.337   1.655 -2.7482 -2.6218  5.6134
   38MOL0     H 5231  11.982   8.255   1.516  1.0478 -1.8544  0.6501
   38MOL0     H 5232  11.895   7.941   1.226 -1.6486  2.2578  0.4143
   38MOL0     H 5233  12.065   7.960   1.202  0.5877  0.5245  0.4331
   38MOL0     H 5234  11.955   7.729   1.320  0.5568 -0.5758 -0.9053
   38MOL0     H 5235  12.021   7.817   1.463  3.9779 -3.4426  1.5743
   38MOL0     H 5236  12.176   7.654   1.386 -1.5969 -0.9372 -2.4573
   38MOL0     H 5237  12.179   7.738   1.222  0.4342  1.6780 -0.3870
   38MOL0     H 5238  12.285   7.841   1.487 -0.7082 -1.0320  0.1968
   38MOL0     H 5239  12.256   7.933   1.344  1.2125  1.4309  2.9598
   38MOL0     H 5240  12.619   7.730   1.258  1.6987  3.2445  1.2777
   38MOL0     H 5241  11.779   7.898   1.434 -1.7133  0.7497 -2.3432
   38MOL0     H 5242  11.572   7.831   1.566 -3.8652 -0.2870 -0.3437
   38MOL0     H 5243  11.496   7.955   1.659 -1.5622 -0.0260 -1.1969
   38MOL0     H 5244  11.495   7.946   1.476 -0.7639  0.5160 -0.2223
   39MOL0     O 5245   2.643  10.726   6.762 -0.6194  0.5847 -0.1755
   39MOL0     C 5246   2.556  10.803   6.718 -0.2176 -0.2917 -0.3287
   39MOL0     O 5247   2.486  10.893   6.782  0.1307  0.0741 -0.4065
   39MOL0     C 5248   2.489  10.896   6.922  0.2693  1.1982  0.9639
   39MOL0     C 5249   2.467  10.774   6.999 -0.3143 -0.7327  0.8131
   39MOL0     C 5250   2.472  10.771   7.134 -0.1766 -0.5268 -0.9714
   39MOL0     C 5251   2.512  10.890   7.203 -0.1164  0.3224 -0.1752
   39MOL0     O 5252   2.515  10.875   7.341  0.1733  0.1294 -0.0095
   39MOL0     C 5253   2.560  10.979   7.431 -0.0072  0.4336 -0.0711
   39MOL0     C 5254   2.473  10.981   7.564 -0.3466  0.1032 -0.7355
   39MOL0     C 5255   2.319  10.997   7.532  0.2442 -0.5049 -0.5208
   39MOL0     C 5256   2.295  11.144   7.469  0.4135  0.3899  0.6864
   39MOL0     C 5257   2.155  11.201   7.484  1.1767  0.1860  0.9032
   39MOL0     C 5258   2.074  11.129   7.373 -1.2422 -0.1176  0.0330
   39MOL0     C 5259   1.920  11.172   7.386 -0.0797  0.4804 -0.3054
   39MOL0     C 5260   1.852  11.134   7.526 -0.6950  0.5607  0.3584
   39MOL0     N 5261   1.703  11.134   7.525 -0.4392 -0.3281  0.2962
   39MOL0     C 5262   1.626  11.236   7.585  0.2232  1.5326  0.2798
   39MOL0     C 5263   1.499  11.196   7.547 -0.0816 -0.5303 -0.1880
   39MOL0     C 5264   1.373  11.245   7.614  0.2044 -0.3108 -0.1800
   39MOL0     C 5265   1.295  11.153   7.708 -0.2914 -0.4996  0.3314
   39MOL0     C 5266   1.181  11.223   7.782  0.3605 -0.2409  1.1045
   39MOL0     C 5267   1.055  11.130   7.818 -0.3306 -0.1199 -0.8966
   39MOL0     O 5268   0.991  11.079   7.701 -0.4860  0.4132 -0.4891
   39MOL0     C 5269   0.859  11.040   7.725 -0.7781  0.5672  0.7384
   39MOL0     C 5270   0.748  11.121   7.704  0.0978  0.5441  0.9569
   39MOL0     C 5271   0.616  11.085   7.736  0.2380 -0.1807 -0.0127
   39MOL0     C 5272   0.505  11.174   7.711 -0.3525 -0.2982  0.4935
   39MOL0     C 5273   0.589  10.960   7.794  0.9500  0.5950  0.1626
   39MOL0     C 5274   0.458  10.902   7.831 -0.3657 -1.1704  0.0784
   39MOL0     O 5275   0.358  10.930   7.755  0.3004  0.2753  0.5893
   39MOL0     C 5276   0.229  10.944   7.804 -0.3298 -0.1036 -0.8216
   39MOL0     C 5277   0.190  10.943   7.942 -0.8764 -0.2595  0.6665
   39MOL0     C 5278   0.052  10.959   7.963 -0.1481 -0.3654 -1.2893
   39MOL0     C 5279  -0.041  11.001   7.866 -0.6170  0.5941  0.2065
   39MOL0     O 5280  -0.167  11.035   7.890 -0.1096 -0.6371 -0.6039
   39MOL0     C 5281  -0.250  10.939   7.965  0.1726  0.3678  0.9218
   39MOL0     C 5282  -0.255  10.801   7.907  0.5615  0.1029  0.0164
   39MOL0     C 5283  -0.315  10.813   7.764  1.1258 -0.1931 -0.0771
   39MOL0     C 5284  -0.365  10.676   7.707 -0.3839  0.3371 -0.8706
   39MOL0     C 5285  -0.250  10.585   7.666 -0.1419  0.0704 -1.0151
   39MOL0     C 5286  -0.168  10.626   7.544 -0.2273  0.0903 -0.1133
   39MOL0     C 5287  -0.081  10.504   7.507 -0.3634 -0.1178  0.1473
   39MOL0     C 5288  -0.041  10.515   7.362 -0.9098  0.6227 -0.7884
   39MOL0    Cl 5289   0.092  10.395   7.330 -0.6916  0.2841  0.0367
   39MOL0     C 5290   0.004  11.003   7.733 -0.2996 -0.7579 -0.7557
   39MOL0     C 5291   0.133  10.965   7.703  0.0377  0.4097 -0.4165
   39MOL0     O 5292   0.456  10.829   7.931  0.4711 -0.2264  0.4404
   39MOL0     C 5293   0.703  10.879   7.815  0.3774  0.3079  0.4683
   39MOL0     C 5294   0.831  10.916   7.786  0.3583  0.4518 -0.2028
   39MOL0     N 5295   1.504  11.082   7.473  0.0880 -0.7083 -0.2819
   39MOL0     N 5296   1.624  11.036   7.470  0.4305  0.0488  1.2085
   39MOL0     C 5297   2.524  11.011   7.129 -0.8993  0.5164  0.0704
   39MOL0     C 5298   2.522  11.011   6.990  0.2062 -0.2013  0.9919
   39MOL0     C 5299   2.514  10.779   6.580  1.2055 -0.2331  0.1857
   39MOL0     C 5300   2.390  10.825   6.533 -0.1055 -0.1800  0.1133
   39MOL0     C 5301   2.337  10.800   6.402 -0.5501 -0.3032  0.2830
   39MOL0     C 5302   2.409  10.723   6.315 -0.5240  0.3182  0.1985
   39MOL0     O 5303   2.354  10.687   6.194 -0.1797 -0.8205  0.2158
   39MOL0     C 5304   2.381  10.771   6.076 -1.1465  0.6376 -0.4996
   39MOL0     C 5305   2.251  10.786   6.005  0.2008 -0.0533 -0.2480
   39MOL0     C 5306   2.212  10.658   5.928 -0.0143  0.4266  0.0835
   39MOL0     C 5307   2.156  10.540   6.014  0.0081 -0.1513 -0.9556
   39MOL0     C 5308   2.207  10.403   5.994 -0.3170 -0.1458  0.7357
   39MOL0     C 5309   2.244  10.295   5.962  0.1368 -0.8366 -0.3838
   39MOL0     C 5310   2.531  10.662   6.358 -0.2444 -0.6734 -0.4755
   39MOL0     C 5311   2.579  10.696   6.482  0.3170  0.2220  0.3745
   39MOL0     C 5312   2.721  10.653   6.511  1.3284  0.2811 -0.1473
   39MOL0     H 5313   2.427  10.689   6.945 -0.1203  0.0153 -0.5637
   39MOL0     H 5314   2.460  10.676   7.185 -0.8325  0.9679  1.8520
   39MOL0     H 5315   2.555  11.075   7.380  0.7092  0.9944  0.8684
   39MOL0     H 5316   2.665  10.956   7.452  0.8407  4.0190  0.2040
   39MOL0     H 5317   2.499  10.892   7.622  1.2773  0.9902 -0.0281
   39MOL0     H 5318   2.503  11.064   7.628 -0.2895  0.2965 -1.0089
   39MOL0     H 5319   2.279  10.915   7.472  1.7633 -1.0739 -0.8176
   39MOL0     H 5320   2.267  10.979   7.626 -0.1215 -2.3343 -1.0500
   39MOL0     H 5321   2.360  11.216   7.520  0.8329  1.2862 -1.0459
   39MOL0     H 5322   2.317  11.146   7.362  2.7708 -0.5224  1.0895
   39MOL0     H 5323   2.160  11.310   7.468  1.9425 -0.2983 -3.4077
   39MOL0     H 5324   2.129  11.152   7.578  3.2316  0.9688  1.9384
   39MOL0     H 5325   2.114  11.149   7.273  0.7682  1.5578  1.1018
   39MOL0     H 5326   2.078  11.019   7.376 -0.1022 -0.1783 -2.1204
   39MOL0     H 5327   1.859  11.114   7.316 -3.7137 -0.3424  3.1768
   39MOL0     H 5328   1.903  11.279   7.368 -0.6661  0.2869 -0.9407
   39MOL0     H 5329   1.893  11.034   7.540  2.3646  1.3729 -1.5643
   39MOL0     H 5330   1.891  11.203   7.602 -3.4964  1.4155  1.1147
   39MOL0     H 5331   1.651  11.315   7.655  1.9522  1.7341 -0.5221
   39MOL0     H 5332   1.309  11.294   7.540  0.1813  0.0488  0.0758
   39MOL0     H 5333   1.416  11.322   7.679  1.1104 -1.5935  0.7943
   39MOL0     H 5334   1.248  11.071   7.651  1.0809  1.6741 -4.4271
   39MOL0     H 5335   1.365  11.122   7.785 -2.3178  1.8981  3.3702
   39MOL0     H 5336   1.201  11.284   7.871  1.9421 -0.1640  0.7293
   39MOL0     H 5337   1.150  11.287   7.699  2.0339 -2.0094 -0.9789
   39MOL0     H 5338   1.080  11.050   7.888  1.0721  1.3907  0.4117
   39MOL0     H 5339   0.987  11.199   7.869  0.2297 -0.7862  0.7976
   39MOL0     H 5340   0.754  11.215   7.649 -2.8881  0.0417 -0.4426
   39MOL0     H 5341   0.430  11.128   7.646  1.5271 -1.8179 -0.7163
   39MOL0     H 5342   0.542  11.264   7.660  0.1088 -0.9151 -0.2761
   39MOL0     H 5343   0.462  11.215   7.803 -0.7550 -2.0187  1.1131
   39MOL0     H 5344   0.267  10.937   8.019  0.5763 -0.7509 -0.7476
   39MOL0     H 5345   0.014  10.940   8.063  0.3653 -1.2366 -1.2479
   39MOL0     H 5346  -0.224  10.942   8.072 -1.4303  0.0309  1.3429
   39MOL0     H 5347  -0.353  10.974   7.961 -0.6014 -1.3069  3.6024
   39MOL0     H 5348  -0.152  10.765   7.897  0.8318  1.0725 -0.8698
   39MOL0     H 5349  -0.316  10.734   7.969 -0.7835  1.5273  0.2574
   39MOL0     H 5350  -0.248  10.863   7.693 -0.2111  3.3652  0.9751
   39MOL0     H 5351  -0.404  10.872   7.784  2.4883  2.3597 -1.1226
   39MOL0     H 5352  -0.428  10.688   7.618 -1.3450 -2.0704 -0.5907
   39MOL0     H 5353  -0.429  10.631   7.784 -1.9195  2.5414 -0.7402
   39MOL0     H 5354  -0.180  10.580   7.750 -1.3563 -2.2135 -0.0237
   39MOL0     H 5355  -0.299  10.487   7.663 -1.2004  0.4202  1.9753
   39MOL0     H 5356  -0.105  10.710   7.574 -0.4455  1.5495 -3.3377
   39MOL0     H 5357  -0.228  10.661   7.460 -0.3008 -0.4195 -0.2808
   39MOL0     H 5358  -0.141  10.413   7.521 -1.1354 -0.1896 -2.9711
   39MOL0     H 5359   0.002  10.513   7.578  1.5978 -1.2537 -1.8581
   39MOL0     H 5360   0.008  10.610   7.339 -0.1736 -0.3575 -3.7392
   39MOL0     H 5361  -0.113  10.508   7.280 -1.4334  3.2784 -0.6331
   39MOL0     H 5362  -0.058  11.041   7.652 -1.7567  0.0833  0.6803
   39MOL0     H 5363   0.170  10.957   7.601 -2.6352 -0.9478 -1.3798
   39MOL0     H 5364   0.678  10.784   7.863 -1.4966  2.9144  5.3917
   39MOL0     H 5365   0.913  10.850   7.809  0.6364  0.5402 -0.9111
   39MOL0     H 5366   2.541  11.106   7.179 -2.5348 -1.3087  4.6672
   39MOL0     H 5367   2.539  11.099   6.929 -6.1608  1.1287  0.5416
   39MOL0     H 5368   2.319  10.888   6.586 -1.4009  0.5625 -2.3245
   39MOL0     H 5369   2.237  10.833   6.376  0.2279 -0.2589 -3.1379
   39MOL0     H 5370   2.426  10.867   6.104  6.0981 -2.3955  0.7349
   39MOL0     H 5371   2.453  10.714   6.017 -1.5555  0.5632 -0.9274
   39MOL0     H 5372   2.254  10.879   5.948 -2.2909  1.4976  1.8997
   39MOL0     H 5373   2.165  10.801   6.072 -0.0737 -0.3813 -0.5226
   39MOL0     H 5374   2.136  10.689   5.856 -0.4940  0.0271  0.4111
   39MOL0     H 5375   2.296  10.608   5.880 -0.6663 -1.3163  0.6853
   39MOL0     H 5376   2.048  10.543   5.995 -0.0010  0.1501 -0.8639
   39MOL0     H 5377   2.167  10.568   6.119 -1.5411 -1.6371 -0.3577
   39MOL0     H 5378   2.281  10.198   5.936 -0.8504 -0.2546 -4.6901
   39MOL0     H 5379   2.578  10.604   6.280 -0.9570 -2.5142  0.4068
   39MOL0     H 5380   2.787  10.739   6.521  0.9765  0.5549 -0.1573
   39MOL0     H 5381   2.731  10.580   6.592  0.1509  1.4656  1.1199
   39MOL0     H 5382   2.755  10.593   6.426 -1.3058  2.1749 -2.7088
   40MOL0     O 5383   4.819   3.452   7.887 -0.0275  0.2633 -0.0055
   40MOL0     C 5384   4.830   3.560   7.936  0.2379  0.3740 -0.1350
   40MOL0     O 5385   4.747   3.665   7.926 -0.4270 -0.7452  0.5747
   40MOL0     C 5386   4.665   3.660   7.819  0.1617  0.4082 -0.3910
   40MOL0     C 5387   4.534   3.689   7.846 -0.0059  0.0811  1.5759
   40MOL0     C 5388   4.448   3.725   7.745 -0.3871  0.0605 -0.4136
   40MOL0     C 5389   4.476   3.711   7.616  0.7377  0.0892  0.3866
   40MOL0     O 5390   4.378   3.718   7.523  1.2750  0.5197  0.4637
   40MOL0     C 5391   4.411   3.755   7.390  0.8175 -1.0174  0.8437
   40MOL0     C 5392   4.303   3.842   7.327  0.1325  0.6632  0.4319
   40MOL0     C 5393   4.319   3.990   7.360  0.3230  0.2691 -0.6426
   40MOL0     C 5394   4.182   4.056   7.331 -0.0559 -0.5895  0.5175
   40MOL0     C 5395   4.117   4.051   7.184 -0.5276  0.1576 -0.6172
   40MOL0     C 5396   4.203   4.108   7.077 -0.3228  0.0832 -0.1510
   40MOL0     C 5397   4.134   4.098   6.941 -0.4788 -0.2693  0.1680
   40MOL0     C 5398   4.204   4.012   6.849 -0.3685 -0.6433 -0.0675
   40MOL0     N 5399   4.194   3.866   6.871  0.7730 -0.0979 -0.5466
   40MOL0     C 5400   4.284   3.784   6.927  0.5035  0.8038 -0.4566
   40MOL0     C 5401   4.251   3.654   6.886  0.9387 -0.4757 -0.5701
   40MOL0     C 5402   4.330   3.538   6.946  0.0479  0.9213  0.0315
   40MOL0     C 5403   4.241   3.451   7.034  1.2054  1.1150 -0.5776
   40MOL0     C 5404   4.322   3.350   7.108 -1.1301 -0.2798  0.3308
   40MOL0     C 5405   4.381   3.222   7.035  0.3441 -1.3305 -0.5481
   40MOL0     O 5406   4.279   3.125   6.997  0.3342  0.0476  0.0950
   40MOL0     C 5407   4.214   3.052   7.093 -0.0350  0.2289  1.0219
   40MOL0     C 5408   4.251   3.039   7.221  0.7050  0.5708  0.5097
   40MOL0     C 5409   4.183   2.946   7.311  0.1752 -0.0509 -0.2990
   40MOL0     C 5410   4.231   2.943   7.451  1.0532  0.0882  0.5142
   40MOL0     C 5411   4.075   2.868   7.267  1.2119  0.0885 -0.4142
   40MOL0     C 5412   3.994   2.779   7.360 -0.2267 -0.1509  0.2126
   40MOL0     O 5413   3.864   2.763   7.330  0.3229 -0.0001 -0.1614
   40MOL0     C 5414   3.776   2.706   7.423 -0.2374 -0.2749  0.7141
   40MOL0     C 5415   3.694   2.605   7.387  0.2006  0.0399  0.1750
   40MOL0     C 5416   3.605   2.540   7.475  0.0320 -0.7152  0.2941
   40MOL0     C 5417   3.592   2.593   7.603  0.3009  0.9303  0.7068
   40MOL0     O 5418   3.485   2.536   7.683  0.0406  0.2341  0.4974
   40MOL0     C 5419   3.423   2.633   7.772 -0.1809 -0.2643  0.4338
   40MOL0     C 5420   3.370   2.549   7.887  0.1824  0.1108 -0.5595
   40MOL0     C 5421   3.237   2.478   7.861 -0.1279 -0.4528 -1.3878
   40MOL0     C 5422   3.177   2.453   8.006  0.6969  0.1613 -0.2719
   40MOL0     C 5423   3.032   2.409   7.989  0.2268 -0.6981 -0.3565
   40MOL0     C 5424   2.973   2.332   8.114  1.2068  0.6134 -0.1349
   40MOL0     C 5425   2.991   2.171   8.120 -0.0349  0.3949  0.0344
   40MOL0     C 5426   2.886   2.103   8.035 -0.6175 -0.0859  0.9201
   40MOL0    Cl 5427   2.951   2.093   7.864 -0.1499  0.1300 -0.0261
   40MOL0     C 5428   3.683   2.691   7.648  0.3844 -1.2022 -0.8615
   40MOL0     C 5429   3.778   2.744   7.556 -0.2616 -0.9706  0.0041
   40MOL0     O 5430   4.051   2.721   7.456  0.3244 -1.2272  1.2724
   40MOL0     C 5431   4.027   2.892   7.134  1.5478  0.5428  0.6847
   40MOL0     C 5432   4.094   2.970   7.050 -0.4498  0.0269 -0.7265
   40MOL0     N 5433   4.133   3.663   6.805 -0.4336  0.5823 -0.3183
   40MOL0     N 5434   4.104   3.786   6.799 -0.6623  0.1264  0.3330
   40MOL0     C 5435   4.612   3.692   7.583 -0.1215  0.3741  0.6558
   40MOL0     C 5436   4.708   3.672   7.691 -0.5742  0.3051 -0.4259
   40MOL0     C 5437   4.955   3.580   8.011  0.0510 -0.6387  0.2637
   40MOL0     C 5438   5.045   3.477   8.041 -0.4826  0.0199  0.4268
   40MOL0     C 5439   5.167   3.492   8.109  0.0417  0.5528 -0.0103
   40MOL0     C 5440   5.208   3.617   8.152  0.5132  0.3818 -0.6884
   40MOL0     O 5441   5.329   3.618   8.209  0.0978 -0.6405 -0.1233
   40MOL0     C 5442   5.370   3.729   8.289 -0.1074  0.0721 -0.4543
   40MOL0     C 5443   5.487   3.680   8.377  0.0691 -0.7008  0.2137
   40MOL0     C 5444   5.469   3.551   8.459  0.0909  0.7953  0.6061
   40MOL0     C 5445   5.323   3.538   8.503 -0.6445 -0.1050 -0.2120
   40MOL0     C 5446   5.318   3.420   8.583 -0.3858 -0.0303  0.6886
   40MOL0     C 5447   5.323   3.325   8.658 -0.5818  0.5146  0.3400
   40MOL0     C 5448   5.129   3.722   8.109 -0.1276  1.3961 -0.7498
   40MOL0     C 5449   5.005   3.713   8.042 -1.3537  0.3887  0.5888
   40MOL0     C 5450   4.946   3.849   8.020 -0.2892  1.1801 -0.0182
   40MOL0     H 5451   4.492   3.669   7.944 -1.9553  0.6521  0.9123
   40MOL0     H 5452   4.351   3.763   7.774 -1.6006 -2.3369 -1.1051
   40MOL0     H 5453   4.412   3.659   7.338  1.9121 -0.0389 -1.0366
   40MOL0     H 5454   4.509   3.803   7.380 -0.6634  1.9665 -1.0272
   40MOL0     H 5455   4.316   3.838   7.218 -2.1964  1.8681  0.0355
   40MOL0     H 5456   4.211   3.795   7.362  0.4249  0.2546  0.6661
   40MOL0     H 5457   4.351   4.001   7.464 -2.3476  1.5484  0.1427
   40MOL0     H 5458   4.382   4.045   7.290 -2.4220  2.2257 -1.7950
   40MOL0     H 5459   4.106   3.994   7.381 -1.2492  0.8516  0.5529
   40MOL0     H 5460   4.171   4.158   7.368 -4.1870  0.1005 -1.9333
   40MOL0     H 5461   4.028   4.115   7.194 -0.4874  0.2229 -0.6748
   40MOL0     H 5462   4.086   3.948   7.161  0.9211  0.0461 -2.1961
   40MOL0     H 5463   4.199   4.213   7.108  1.2801  0.0361  0.2876
   40MOL0     H 5464   4.307   4.077   7.072 -0.6379 -0.8391 -2.0088
   40MOL0     H 5465   4.137   4.200   6.900 -2.1551 -0.1019  0.3848
   40MOL0     H 5466   4.029   4.065   6.943 -1.4192  2.4803  0.1806
   40MOL0     H 5467   4.164   4.043   6.752  2.8946  0.7216 -1.1107
   40MOL0     H 5468   4.310   4.038   6.857 -0.5792  0.2029  0.1427
   40MOL0     H 5469   4.371   3.826   6.977  0.2424  2.9881 -1.6938
   40MOL0     H 5470   4.424   3.572   6.991  1.6316  2.1986 -3.8429
   40MOL0     H 5471   4.364   3.475   6.863  2.7430  1.2861  0.7719
   40MOL0     H 5472   4.201   3.514   7.114 -0.4517  0.0946 -0.5472
   40MOL0     H 5473   4.148   3.413   6.989  2.2467 -1.3628 -0.7888
   40MOL0     H 5474   4.411   3.398   7.149 -0.3499 -1.4989  0.1190
   40MOL0     H 5475   4.261   3.325   7.195  0.4466  1.8665  2.1736
   40MOL0     H 5476   4.424   3.251   6.938 -0.7575  0.1958 -0.6235
   40MOL0     H 5477   4.469   3.179   7.084  2.5927 -0.0775 -3.2061
   40MOL0     H 5478   4.334   3.101   7.254  3.5455 -0.9912 -2.9783
   40MOL0     H 5479   4.147   2.942   7.522 -0.4878  2.9459 -1.1052
   40MOL0     H 5480   4.284   3.038   7.468 -0.6696  0.9928  1.0942
   40MOL0     H 5481   4.298   2.858   7.468 -2.0111 -2.3867  1.1108
   40MOL0     H 5482   3.710   2.578   7.283  3.4284  1.8485  0.0540
   40MOL0     H 5483   3.529   2.470   7.444 -0.0152 -1.2695  1.5740
   40MOL0     H 5484   3.495   2.703   7.813  3.7253 -1.8572 -2.9089
   40MOL0     H 5485   3.345   2.676   7.709 -0.7739 -1.0951  0.5793
   40MOL0     H 5486   3.444   2.474   7.915 -1.7613 -1.5228  0.4644
   40MOL0     H 5487   3.357   2.610   7.977 -1.4961 -2.8206  1.3372
   40MOL0     H 5488   3.246   2.389   7.799  0.3641  0.3728 -2.5287
   40MOL0     H 5489   3.169   2.539   7.800 -2.4832 -2.8221 -1.3262
   40MOL0     H 5490   3.169   2.545   8.065 -3.9565  0.5586 -1.1392
   40MOL0     H 5491   3.235   2.371   8.049  1.2813 -0.1386 -1.6183
   40MOL0     H 5492   2.981   2.506   7.987  1.1581  0.2287  5.1312
   40MOL0     H 5493   2.999   2.353   7.901 -1.1957 -0.1003 -0.2313
   40MOL0     H 5494   2.868   2.359   8.109  0.1532 -2.9619 -0.6479
   40MOL0     H 5495   3.022   2.372   8.203 -0.6851 -0.2437  1.3547
   40MOL0     H 5496   2.976   2.124   8.217  1.5274 -0.7173 -0.2345
   40MOL0     H 5497   3.090   2.150   8.079 -0.9024 -0.6043 -1.6679
   40MOL0     H 5498   2.789   2.153   8.028 -1.7527 -2.2372 -0.1726
   40MOL0     H 5499   2.875   1.997   8.062  2.1612 -0.5948  0.4075
   40MOL0     H 5500   3.677   2.733   7.748  1.6154 -3.6766  0.3223
   40MOL0     H 5501   3.847   2.821   7.590  0.4808 -1.4704 -0.3398
   40MOL0     H 5502   3.937   2.846   7.097  0.7382  2.1746  0.5270
   40MOL0     H 5503   4.064   2.985   6.947  0.3928  0.8131 -0.8760
   40MOL0     H 5504   4.657   3.687   7.484 -1.5545  1.1453 -0.0639
   40MOL0     H 5505   4.812   3.689   7.667 -0.5970  2.9659  1.0357
   40MOL0     H 5506   5.014   3.374   8.022 -2.6593  0.6383  0.3874
   40MOL0     H 5507   5.241   3.414   8.124 -1.7423 -1.6423 -1.9028
   40MOL0     H 5508   5.399   3.813   8.225 -3.4051 -0.0189 -2.3002
   40MOL0     H 5509   5.293   3.768   8.356  2.8071  1.3840  2.4033
   40MOL0     H 5510   5.522   3.760   8.442 -0.4583 -0.0838 -0.2526
   40MOL0     H 5511   5.572   3.666   8.309 -0.0665 -1.1604  0.1369
   40MOL0     H 5512   5.500   3.472   8.391 -3.6141  1.9699 -2.7798
   40MOL0     H 5513   5.536   3.562   8.545  0.3680  1.9694  0.2620
   40MOL0     H 5514   5.247   3.516   8.427 -1.9029 -1.3526  1.3276
   40MOL0     H 5515   5.306   3.620   8.573 -1.1509  0.8433 -1.4022
   40MOL0     H 5516   5.327   3.243   8.726 -2.0511  2.2047  2.6270
   40MOL0     H 5517   5.172   3.820   8.126  2.7530  0.1056 -0.0273
   40MOL0     H 5518   4.848   3.849   8.067  0.2947 -2.9461  1.6253
   40MOL0     H 5519   5.004   3.930   8.066 -2.0157  2.3209  0.2285
   40MOL0     H 5520   4.940   3.884   7.916  0.9401  3.8775  0.7207
   41MOL0     O 5521   4.681   4.701   1.232 -0.7847 -0.3144  0.1687
   41MOL0     C 5522   4.562   4.738   1.249 -0.3117  0.0816 -0.7773
   41MOL0     O 5523   4.471   4.753   1.148  0.0091  0.3144  0.2294
   41MOL0     C 5524   4.510   4.700   1.024 -0.0128  0.2920 -1.1423
   41MOL0     C 5525   4.563   4.784   0.926 -0.5276  0.8208 -0.1011
   41MOL0     C 5526   4.627   4.726   0.813 -0.1164 -1.6238  0.5801
   41MOL0     C 5527   4.616   4.591   0.796 -0.1991  0.2925 -0.0533
   41MOL0     O 5528   4.668   4.557   0.677  0.2071  0.0589  0.2999
   41MOL0     C 5529   4.734   4.430   0.674 -0.0922  0.5694 -0.3276
   41MOL0     C 5530   4.865   4.432   0.605  0.3106  0.6521  0.3198
   41MOL0     C 5531   4.920   4.288   0.623 -0.3589 -0.1279  0.6655
   41MOL0     C 5532   5.052   4.281   0.548  0.3273  0.6896 -0.4566
   41MOL0     C 5533   5.123   4.152   0.599 -0.9502  0.3536  0.6038
   41MOL0     C 5534   5.174   4.147   0.740  0.2228  1.4300 -1.8920
   41MOL0     C 5535   5.255   4.267   0.802  0.0331 -0.6860 -0.1413
   41MOL0     C 5536   5.334   4.233   0.919 -0.3959 -0.0395 -0.4745
   41MOL0     N 5537   5.400   4.346   0.978 -0.1179  0.9625  0.3371
   41MOL0     C 5538   5.342   4.446   1.050  0.3962 -0.3112 -0.6555
   41MOL0     C 5539   5.435   4.521   1.116  0.9856  0.3839 -0.0606
   41MOL0     C 5540   5.409   4.661   1.188  0.2015  0.5903  0.6386
   41MOL0     C 5541   5.433   4.769   1.073 -0.2906 -0.7762  0.3377
   41MOL0     C 5542   5.456   4.909   1.127 -0.8986  0.0423 -0.3203
   41MOL0     C 5543   5.318   4.974   1.160 -0.1529  0.1280 -0.4738
   41MOL0     O 5544   5.329   5.108   1.206  0.5708  0.1822 -0.0988
   41MOL0     C 5545   5.300   5.209   1.121  0.2823  0.0366 -0.2900
   41MOL0     C 5546   5.211   5.316   1.164  0.0357 -0.5873  0.6842
   41MOL0     C 5547   5.147   5.389   1.069 -0.3325  0.3134  0.4420
   41MOL0     C 5548   5.033   5.473   1.115 -0.1572  0.1190 -0.2119
   41MOL0     C 5549   5.190   5.387   0.937  0.5964  0.3812 -0.0758
   41MOL0     C 5550   5.150   5.484   0.829 -0.0778 -0.2782  0.7874
   41MOL0     O 5551   5.186   5.453   0.702 -1.4263 -1.0542 -0.1379
   41MOL0     C 5552   5.167   5.562   0.625 -0.3787 -0.4067 -0.0790
   41MOL0     C 5553   5.233   5.686   0.642  1.0017 -0.5477 -0.2110
   41MOL0     C 5554   5.196   5.799   0.577 -0.3511 -0.6954 -0.3220
   41MOL0     C 5555   5.122   5.785   0.454 -0.5340  0.6443 -0.5165
   41MOL0     O 5556   5.110   5.898   0.378 -0.1249  0.1431 -0.0927
   41MOL0     C 5557   5.009   5.902   0.278  0.0469 -0.0292  0.3098
   41MOL0     C 5558   5.018   6.036   0.218 -0.4903  0.2154  0.5190
   41MOL0     C 5559   5.149   6.062   0.143 -0.0679  0.4036 -0.8836
   41MOL0     C 5560   5.142   6.197   0.069  0.2389  0.6840 -1.0120
   41MOL0     C 5561   5.276   6.212  -0.019  0.5554 -0.1719 -0.4679
   41MOL0     C 5562   5.393   6.250   0.073  0.3270 -0.2782 -0.3114
   41MOL0     C 5563   5.527   6.269  -0.016  0.4435 -0.3506 -0.5322
   41MOL0     C 5564   5.620   6.374   0.032  0.2446  0.2171 -0.0687
   41MOL0    Cl 5565   5.724   6.413  -0.100 -0.1359  0.1730  0.2440
   41MOL0     C 5566   5.061   5.659   0.427  1.0367 -0.5642  0.3721
   41MOL0     C 5567   5.076   5.557   0.522  0.3730  0.0256  0.4010
   41MOL0     O 5568   5.084   5.589   0.864 -0.6420 -0.2288  0.0565
   41MOL0     C 5569   5.277   5.288   0.893 -0.0275  0.2790 -0.1157
   41MOL0     C 5570   5.330   5.196   0.991 -0.4780 -0.7413  0.1547
   41MOL0     N 5571   5.559   4.476   1.068 -0.0872  0.2321  0.3248
   41MOL0     N 5572   5.539   4.358   0.998  0.0698  0.2411 -0.7006
   41MOL0     C 5573   4.555   4.504   0.892 -1.0834 -0.9726 -0.2092
   41MOL0     C 5574   4.505   4.562   1.008  0.9052 -0.3535  0.5780
   41MOL0     C 5575   4.509   4.783   1.385 -0.7240  1.6364 -0.2812
   41MOL0     C 5576   4.379   4.801   1.404  0.0317 -0.2436  0.3867
   41MOL0     C 5577   4.319   4.825   1.529  0.4989  0.0450 -0.9709
   41MOL0     C 5578   4.397   4.819   1.643 -0.1322  0.5169  0.5553
   41MOL0     O 5579   4.332   4.821   1.770  0.4353  0.3179 -0.0941
   41MOL0     C 5580   4.391   4.861   1.889 -0.1040 -1.0908 -0.0759
   41MOL0     C 5581   4.287   4.890   1.996  0.5622  0.5022  0.5188
   41MOL0     C 5582   4.350   4.971   2.118  0.6019 -0.5367 -0.0553
   41MOL0     C 5583   4.258   4.983   2.240  0.8720 -0.1774  0.4620
   41MOL0     C 5584   4.209   4.852   2.290 -1.2798 -0.4819 -0.3207
   41MOL0     C 5585   4.189   4.750   2.342 -0.4205  0.1053 -0.5158
   41MOL0     C 5586   4.530   4.786   1.634 -0.4984 -0.3957  0.8334
   41MOL0     C 5587   4.593   4.771   1.502  1.3128  0.7793 -1.0094
   41MOL0     C 5588   4.740   4.747   1.501 -0.3355 -0.0141  0.5631
   41MOL0     H 5589   4.562   4.892   0.942 -0.3655  0.6801  0.9448
   41MOL0     H 5590   4.678   4.792   0.744  2.7394 -3.8880  0.3654
   41MOL0     H 5591   4.672   4.361   0.617  0.5017  0.7283 -1.1787
   41MOL0     H 5592   4.735   4.392   0.777 -1.9104  0.1886 -0.4229
   41MOL0     H 5593   4.854   4.449   0.497 -0.8313 -1.7550 -0.0119
   41MOL0     H 5594   4.936   4.501   0.651  2.7944 -1.0827 -0.6844
   41MOL0     H 5595   4.944   4.292   0.730 -0.2556  2.2200  0.6045
   41MOL0     H 5596   4.851   4.209   0.591  0.8165 -2.3420  3.1782
   41MOL0     H 5597   5.032   4.259   0.443 -0.9978 -1.2154  0.1367
   41MOL0     H 5598   5.117   4.365   0.574  0.0414  0.2988  1.7919
   41MOL0     H 5599   5.209   4.151   0.530 -1.5906 -0.9688 -0.2297
   41MOL0     H 5600   5.068   4.058   0.585  2.4770 -1.8139  0.4981
   41MOL0     H 5601   5.098   4.117   0.813  1.4083  2.4606 -0.1536
   41MOL0     H 5602   5.247   4.065   0.735 -2.5468 -1.6695  1.7980
   41MOL0     H 5603   5.181   4.344   0.826  0.6813 -0.3365  0.8071
   41MOL0     H 5604   5.320   4.315   0.729 -0.8853  1.5369  0.4281
   41MOL0     H 5605   5.275   4.187   0.999 -1.0061  0.6437 -0.5156
   41MOL0     H 5606   5.421   4.173   0.891  1.7809  1.3890  2.5906
   41MOL0     H 5607   5.237   4.454   1.073  1.0604 -1.6111  3.9314
   41MOL0     H 5608   5.480   4.674   1.270  0.0969 -1.4465  1.1091
   41MOL0     H 5609   5.308   4.652   1.229 -0.2563 -1.3380 -0.7386
   41MOL0     H 5610   5.522   4.743   1.015  0.9563  0.3265  1.7107
   41MOL0     H 5611   5.345   4.772   1.007 -0.0077  1.8547 -0.0339
   41MOL0     H 5612   5.513   4.906   1.220 -1.0034  0.1732 -0.2507
   41MOL0     H 5613   5.515   4.969   1.056 -1.2287  0.0613 -0.5832
   41MOL0     H 5614   5.257   4.974   1.069 -4.4287  0.0494  2.1348
   41MOL0     H 5615   5.271   4.905   1.231  0.4029  0.2176 -0.0150
   41MOL0     H 5616   5.188   5.314   1.270 -0.3462 -2.9529  0.6080
   41MOL0     H 5617   5.062   5.579   1.117  1.3500 -0.2795  0.2222
   41MOL0     H 5618   4.995   5.438   1.212  0.4670 -0.1418 -0.0549
   41MOL0     H 5619   4.954   5.450   1.044  1.6684  1.7508 -2.9600
   41MOL0     H 5620   5.300   5.689   0.728  0.3887  2.1702  0.2760
   41MOL0     H 5621   5.238   5.897   0.598  0.0233 -0.8464 -0.3545
   41MOL0     H 5622   5.028   5.829   0.199  0.5876 -0.4636  0.8319
   41MOL0     H 5623   4.907   5.897   0.317  0.0979  2.4192  0.9374
   41MOL0     H 5624   4.943   6.026   0.140  0.5261 -4.3151 -0.1887
   41MOL0     H 5625   4.993   6.110   0.295  2.1935 -0.5231  2.2368
   41MOL0     H 5626   5.187   5.985   0.075 -0.4287 -1.9103  1.3789
   41MOL0     H 5627   5.215   6.074   0.229 -1.0555 -2.4778  0.4039
   41MOL0     H 5628   5.132   6.275   0.145  0.5327  0.8086 -1.0992
   41MOL0     H 5629   5.050   6.186   0.011 -0.1000  0.0075 -0.3676
   41MOL0     H 5630   5.306   6.131  -0.086  2.0811  2.9491 -3.9339
   41MOL0     H 5631   5.250   6.292  -0.089 -3.4173 -2.6755 -2.1891
   41MOL0     H 5632   5.404   6.175   0.151  1.0305 -0.0990 -0.2309
   41MOL0     H 5633   5.372   6.350   0.113 -0.3045 -0.3887 -0.3636
   41MOL0     H 5634   5.489   6.289  -0.117  1.1652  0.4136 -0.6622
   41MOL0     H 5635   5.587   6.178  -0.019  2.0598  0.6013  1.0986
   41MOL0     H 5636   5.675   6.344   0.122  2.2031  2.1302 -0.5540
   41MOL0     H 5637   5.560   6.463   0.052 -0.4010 -0.4423  1.0518
   41MOL0     H 5638   4.997   5.635   0.343  0.4294  1.5747  0.1706
   41MOL0     H 5639   5.024   5.463   0.515  0.3719  0.0454  0.1275
   41MOL0     H 5640   5.296   5.259   0.790 -1.8048 -2.5345  0.2435
   41MOL0     H 5641   5.399   5.127   0.944  1.0824  1.0168 -0.2242
   41MOL0     H 5642   4.552   4.397   0.876  0.8137 -0.9613 -0.9408
   41MOL0     H 5643   4.468   4.494   1.085  0.8126  0.4440  1.2456
   41MOL0     H 5644   4.305   4.798   1.324  1.4464 -0.0219 -0.9821
   41MOL0     H 5645   4.217   4.853   1.549  0.7579 -0.8111  1.9570
   41MOL0     H 5646   4.477   4.800   1.919 -0.5855 -1.7907 -0.1180
   41MOL0     H 5647   4.439   4.955   1.859  2.7317 -2.7332 -1.0712
   41MOL0     H 5648   4.243   4.796   2.029 -1.6343  1.6312  1.0227
   41MOL0     H 5649   4.214   4.959   1.952  0.2988 -1.7811 -3.0144
   41MOL0     H 5650   4.430   4.906   2.156  1.1046  0.5951  0.9171
   41MOL0     H 5651   4.378   5.070   2.082 -0.2459  0.1384  1.0667
   41MOL0     H 5652   4.173   5.047   2.215  0.7459 -1.3519 -2.5684
   41MOL0     H 5653   4.324   5.018   2.320 -0.1180  0.5512  0.9942
   41MOL0     H 5654   4.172   4.653   2.385 -0.8635  0.0298 -0.8498
   41MOL0     H 5655   4.595   4.794   1.720  1.9491  1.1569 -1.0285
   41MOL0     H 5656   4.779   4.751   1.603 -0.8121 -1.2745  0.8186
   41MOL0     H 5657   4.776   4.652   1.458 -1.5172 -1.1449  1.9727
   41MOL0     H 5658   4.794   4.826   1.448  1.6133 -4.1699 -4.5064
   42MOL0     O 5659   5.563   3.602   4.284 -0.7532 -0.6975  0.2921
   42MOL0     C 5660   5.619   3.537   4.376  0.3049 -0.2113  0.5652
   42MOL0     O 5661   5.560   3.420   4.426 -0.4729 -0.1210  0.2129
   42MOL0     C 5662   5.436   3.386   4.378 -0.4599 -0.4877  0.0430
   42MOL0     C 5663   5.324   3.373   4.469  0.3962 -0.9445  0.4575
   42MOL0     C 5664   5.208   3.313   4.409  0.5348 -1.2697  0.3997
   42MOL0     C 5665   5.200   3.282   4.277 -0.5479 -0.4458  0.3087
   42MOL0     O 5666   5.082   3.227   4.243  0.8093  0.6038  0.0118
   42MOL0     C 5667   5.024   3.281   4.123 -0.6462 -0.6620 -0.6907
   42MOL0     C 5668   4.881   3.226   4.103  0.4790 -0.1904  0.2057
   42MOL0     C 5669   4.839   3.224   3.949  0.4463 -0.2450 -0.4018
   42MOL0     C 5670   4.703   3.145   3.933 -0.6712 -0.1450  0.7860
   42MOL0     C 5671   4.594   3.198   4.017  0.5620 -0.8077 -0.4793
   42MOL0     C 5672   4.454   3.182   3.959 -0.1259 -0.2206  0.2978
   42MOL0     C 5673   4.346   3.253   4.038 -0.3069  0.6085  0.5620
   42MOL0     C 5674   4.317   3.385   3.974  0.2626 -0.3718 -0.2023
   42MOL0     N 5675   4.214   3.464   4.052  0.7357  1.1050  0.1876
   42MOL0     C 5676   4.248   3.568   4.136  0.1238  0.0543 -0.1587
   42MOL0     C 5677   4.128   3.624   4.167 -0.2339  0.0401 -0.2936
   42MOL0     C 5678   4.103   3.725   4.275  0.5968  1.1529 -0.6059
   42MOL0     C 5679   3.971   3.789   4.265 -0.1160 -0.0559 -1.1464
   42MOL0     C 5680   3.940   3.895   4.370 -0.1963 -0.6848 -0.3279
   42MOL0     C 5681   4.032   4.011   4.380  0.4319 -0.4613  0.1272
   42MOL0     O 5682   3.972   4.112   4.457  0.1852  1.0568  0.0438
   42MOL0     C 5683   3.987   4.236   4.408  0.1116  0.1901 -0.5926
   42MOL0     C 5684   4.072   4.328   4.473  0.5471 -1.0179 -0.2987
   42MOL0     C 5685   4.084   4.465   4.420  0.1576  0.0198 -0.4072
   42MOL0     C 5686   4.204   4.548   4.470  0.8525 -0.3348  0.1314
   42MOL0     C 5687   3.994   4.504   4.318 -0.1615 -0.2669 -0.0888
   42MOL0     C 5688   3.987   4.644   4.263 -0.0051  0.1335  0.3111
   42MOL0     O 5689   3.906   4.658   4.156 -0.8599 -0.1113  0.5198
   42MOL0     C 5690   3.876   4.788   4.119  0.5776  0.6199 -0.0121
   42MOL0     C 5691   3.961   4.889   4.098  0.0273 -0.5947 -0.1718
   42MOL0     C 5692   3.909   5.020   4.061  0.5794  0.2493 -0.6887
   42MOL0     C 5693   3.767   5.037   4.051 -0.2049 -0.3991  0.2362
   42MOL0     O 5694   3.717   5.164   4.019  0.1064 -0.3949 -0.5311
   42MOL0     C 5695   3.583   5.206   4.058  0.4904  0.0685 -0.4131
   42MOL0     C 5696   3.567   5.359   4.021 -0.5729 -0.3218  0.0535
   42MOL0     C 5697   3.642   5.437   4.132  0.2240 -0.4076  0.0339
   42MOL0     C 5698   3.659   5.586   4.099 -0.6054 -1.1838  0.2366
   42MOL0     C 5699   3.662   5.683   4.218  0.4211  0.0090 -0.6191
   42MOL0     C 5700   3.772   5.647   4.316  0.3732 -0.4198  0.6815
   42MOL0     C 5701   3.916   5.694   4.270 -0.1552  0.0126 -0.8425
   42MOL0     C 5702   4.022   5.578   4.286 -0.1311  0.7011  0.4456
   42MOL0    Cl 5703   3.978   5.419   4.216 -0.1224  0.3620 -0.0558
   42MOL0     C 5704   3.681   4.928   4.077 -0.1360  0.6524 -0.0694
   42MOL0     C 5705   3.735   4.802   4.100  0.0710 -0.5514  0.6330
   42MOL0     O 5706   4.038   4.737   4.319 -0.4327 -0.3947 -0.3611
   42MOL0     C 5707   3.904   4.407   4.262 -0.6532 -0.0180  0.2343
   42MOL0     C 5708   3.902   4.277   4.303  0.1992  0.8025 -0.6892
   42MOL0     N 5709   4.027   3.548   4.105  0.3622  1.3928  0.1005
   42MOL0     N 5710   4.078   3.449   4.038 -0.6047 -0.0725  0.3102
   42MOL0     C 5711   5.302   3.301   4.190 -0.1189 -1.3482 -0.1567
   42MOL0     C 5712   5.427   3.342   4.247  0.0817  0.5938 -0.6571
   42MOL0     C 5713   5.764   3.565   4.406 -0.2068  0.0875  0.5371
   42MOL0     C 5714   5.807   3.702   4.410  0.6129  0.5772  0.6051
   42MOL0     C 5715   5.935   3.728   4.446  0.3527  0.5778  0.1720
   42MOL0     C 5716   6.029   3.628   4.468 -0.5277 -0.2615 -0.1005
   42MOL0     O 5717   6.161   3.664   4.504 -0.2468 -0.9655  0.3006
   42MOL0     C 5718   6.278   3.583   4.449 -0.4426  0.0234  1.0107
   42MOL0     C 5719   6.334   3.477   4.539 -0.1519  0.4367 -0.1123
   42MOL0     C 5720   6.330   3.500   4.689 -0.4627 -0.7818 -1.2239
   42MOL0     C 5721   6.433   3.601   4.728 -0.3952  0.0139 -0.4629
   42MOL0     C 5722   6.550   3.523   4.776  0.1645 -0.7564 -0.3904
   42MOL0     C 5723   6.650   3.466   4.826 -0.2992 -0.8908 -0.1369
   42MOL0     C 5724   5.992   3.492   4.444 -0.4389  0.0180 -0.6505
   42MOL0     C 5725   5.860   3.464   4.419 -0.9959 -0.1119  0.2286
   42MOL0     C 5726   5.835   3.314   4.409  0.2817  0.8813  0.1119
   42MOL0     H 5727   5.344   3.397   4.573 -0.5606 -0.4266  0.5253
   42MOL0     H 5728   5.123   3.292   4.474  0.9573  1.1484  1.8473
   42MOL0     H 5729   5.088   3.261   4.036  1.5107  3.7845 -0.4140
   42MOL0     H 5730   5.024   3.390   4.120  1.7174 -0.5361  1.2001
   42MOL0     H 5731   4.882   3.125   4.145  1.3662  0.6113  2.2720
   42MOL0     H 5732   4.801   3.279   4.155  0.3024  0.9176 -1.1334
   42MOL0     H 5733   4.821   3.327   3.919 -0.1599  0.7188  2.8625
   42MOL0     H 5734   4.919   3.179   3.889  1.3732 -1.2740  1.5075
   42MOL0     H 5735   4.668   3.146   3.829 -2.4312 -1.4638  1.3219
   42MOL0     H 5736   4.718   3.038   3.951 -0.9000 -0.4491 -0.7156
   42MOL0     H 5737   4.596   3.305   4.038  0.4065 -0.9119  0.0912
   42MOL0     H 5738   4.603   3.132   4.104 -2.8467 -0.7077  0.1032
   42MOL0     H 5739   4.448   3.211   3.854  1.6441 -0.0024  0.2162
   42MOL0     H 5740   4.434   3.076   3.943 -0.1134 -0.2173  0.2601
   42MOL0     H 5741   4.359   3.271   4.145 -2.8097 -0.0457  1.0249
   42MOL0     H 5742   4.253   3.195   4.031  0.0490  0.2198 -1.6243
   42MOL0     H 5743   4.412   3.439   3.982  2.1677 -3.5848  0.6016
   42MOL0     H 5744   4.295   3.373   3.867 -1.5534  1.3565 -0.0857
   42MOL0     H 5745   4.349   3.602   4.159  0.9772 -0.5069 -2.7257
   42MOL0     H 5746   4.174   3.807   4.261  0.5657  1.3715  0.3932
   42MOL0     H 5747   4.113   3.676   4.372 -1.0379  0.9238 -0.5238
   42MOL0     H 5748   3.971   3.841   4.168 -1.6727 -0.7206 -1.5388
   42MOL0     H 5749   3.886   3.723   4.245 -0.6118 -0.1451  1.0179
   42MOL0     H 5750   3.835   3.920   4.350  0.5736  3.0575 -0.4343
   42MOL0     H 5751   3.941   3.856   4.473  0.8064  0.6535  0.1957
   42MOL0     H 5752   4.124   3.991   4.436  0.5490  1.2716  0.6167
   42MOL0     H 5753   4.050   4.054   4.281 -0.5547 -0.6706 -0.1503
   42MOL0     H 5754   4.136   4.308   4.558  2.3598 -0.7553 -1.5302
   42MOL0     H 5755   4.161   4.634   4.524 -0.0957 -1.8296  1.8801
   42MOL0     H 5756   4.273   4.588   4.395  1.4827  1.3303  1.5171
   42MOL0     H 5757   4.264   4.490   4.540  0.2722 -1.7039 -0.4851
   42MOL0     H 5758   4.067   4.874   4.115  0.5781  2.2463 -0.5302
   42MOL0     H 5759   3.979   5.098   4.031 -0.1930  0.0095 -3.3886
   42MOL0     H 5760   3.506   5.146   4.008  0.6144  0.3224 -0.9182
   42MOL0     H 5761   3.565   5.200   4.165 -1.7995 -0.4832 -0.7667
   42MOL0     H 5762   3.618   5.360   3.924  1.3697 -1.0366  0.9963
   42MOL0     H 5763   3.463   5.392   4.014 -1.7241 -3.6640 -0.7339
   42MOL0     H 5764   3.739   5.390   4.145 -0.8242 -1.9586  3.4206
   42MOL0     H 5765   3.579   5.429   4.222 -0.7640  0.0878 -0.5907
   42MOL0     H 5766   3.578   5.616   4.032 -1.7433  0.6343  2.3096
   42MOL0     H 5767   3.757   5.600   4.051 -0.1140 -2.9603  0.6378
   42MOL0     H 5768   3.675   5.783   4.174  0.0967 -0.4935 -1.9063
   42MOL0     H 5769   3.568   5.681   4.274  2.7017 -0.4492  3.6263
   42MOL0     H 5770   3.782   5.540   4.336 -0.0518 -0.3822  1.1188
   42MOL0     H 5771   3.759   5.697   4.412  0.2239 -1.5133  1.2453
   42MOL0     H 5772   3.951   5.783   4.324 -2.1695 -1.0075  2.3731
   42MOL0     H 5773   3.904   5.720   4.164 -2.0402  1.9862 -0.2137
   42MOL0     H 5774   4.056   5.568   4.389  1.2691  1.6520  0.1136
   42MOL0     H 5775   4.110   5.618   4.233 -1.4307  1.8927 -0.9050
   42MOL0     H 5776   3.572   4.934   4.078 -0.1014  1.5876 -0.6800
   42MOL0     H 5777   3.669   4.715   4.103 -1.7433  0.7578  0.2339
   42MOL0     H 5778   3.836   4.435   4.182  0.3016 -0.8753 -0.9193
   42MOL0     H 5779   3.850   4.193   4.258  1.0813 -0.0071 -0.2311
   42MOL0     H 5780   5.311   3.281   4.084 -1.3964  0.9172 -0.7546
   42MOL0     H 5781   5.512   3.334   4.180 -0.1332 -0.6737 -0.8048
   42MOL0     H 5782   5.736   3.783   4.419 -1.6835 -1.5654  5.1910
   42MOL0     H 5783   5.965   3.832   4.453  0.6066  0.4365  1.4004
   42MOL0     H 5784   6.243   3.521   4.366 -2.9518 -0.6853  2.4912
   42MOL0     H 5785   6.361   3.649   4.419  1.8337 -2.4394  1.4933
   42MOL0     H 5786   6.441   3.470   4.516  0.0721  0.4626  0.8880
   42MOL0     H 5787   6.299   3.377   4.514  4.8938 -2.3446  2.4796
   42MOL0     H 5788   6.227   3.534   4.704  0.8958  2.8261  1.2214
   42MOL0     H 5789   6.353   3.402   4.733  0.6598 -1.6270 -3.4990
   42MOL0     H 5790   6.396   3.657   4.815 -4.9106 -0.0494 -2.0502
   42MOL0     H 5791   6.460   3.671   4.649  0.3140 -0.4423 -0.6346
   42MOL0     H 5792   6.733   3.411   4.867 -0.9747 -2.8870 -1.2868
   42MOL0     H 5793   6.061   3.411   4.466 -2.9442 -1.5800  2.1547
   42MOL0     H 5794   5.934   3.276   4.382  1.7569  4.4464 -0.1194
   42MOL0     H 5795   5.799   3.276   4.505 -2.2698  1.4286 -0.5467
   42MOL0     H 5796   5.763   3.295   4.328  3.5569 -2.3818 -2.3888
   43MOL0     O 5797  10.219   7.386   4.458  0.8335 -0.5160 -0.1087
   43MOL0     C 5798  10.268   7.318   4.370  0.0211 -0.0331  0.1484
   43MOL0     O 5799  10.377   7.233   4.385  0.3521  0.0845  0.5547
   43MOL0     C 5800  10.392   7.192   4.512 -0.6002  0.0975  0.4250
   43MOL0     C 5801  10.523   7.183   4.547  0.1931 -0.5582  0.6686
   43MOL0     C 5802  10.559   7.122   4.666  0.7114  0.2274  0.1939
   43MOL0     C 5803  10.468   7.061   4.747  0.6000 -0.4316 -0.3915
   43MOL0     O 5804  10.526   6.993   4.850 -0.4667  0.0243 -0.5158
   43MOL0     C 5805  10.455   6.880   4.886  0.8982 -1.1616 -0.7866
   43MOL0     C 5806  10.540   6.781   4.964 -0.2822 -0.3898 -0.3113
   43MOL0     C 5807  10.580   6.843   5.098  0.8111 -0.4277 -0.0686
   43MOL0     C 5808  10.660   6.746   5.182  0.6701  0.7404 -0.4953
   43MOL0     C 5809  10.715   6.820   5.304  0.5282  0.6233 -0.4872
   43MOL0     C 5810  10.825   6.730   5.369 -1.0687 -0.7777  0.6523
   43MOL0     C 5811  10.777   6.591   5.434  0.1170 -0.7593  0.1250
   43MOL0     C 5812  10.871   6.471   5.420 -0.4310 -0.5739 -0.1174
   43MOL0     N 5813  10.879   6.428   5.278 -0.0791  0.2386 -0.3509
   43MOL0     C 5814  10.766   6.378   5.212  0.5224 -0.6827 -0.3574
   43MOL0     C 5815  10.813   6.344   5.090  0.4844  0.5564  0.3684
   43MOL0     C 5816  10.739   6.286   4.972 -0.1310  0.1933 -0.5177
   43MOL0     C 5817  10.631   6.392   4.937 -0.1910  0.1684 -0.3207
   43MOL0     C 5818  10.549   6.362   4.824 -0.0865  0.3878  0.2498
   43MOL0     C 5819  10.502   6.478   4.746 -0.7278  0.1504  0.3873
   43MOL0     O 5820  10.393   6.445   4.662  0.1731 -0.4220 -0.6520
   43MOL0     C 5821  10.395   6.347   4.559  0.6233  0.5896  0.8233
   43MOL0     C 5822  10.511   6.302   4.497  1.0737 -0.0349 -1.0017
   43MOL0     C 5823  10.501   6.195   4.409 -0.3320 -0.1722  1.1035
   43MOL0     C 5824  10.637   6.158   4.339  0.0263 -0.6410  0.1029
   43MOL0     C 5825  10.373   6.143   4.370 -0.3935  0.1699  0.5385
   43MOL0     C 5826  10.361   6.029   4.285  0.1058  0.0653  0.9014
   43MOL0     O 5827  10.241   5.952   4.295 -0.0795  0.8154 -1.3350
   43MOL0     C 5828  10.271   5.824   4.258 -0.8664 -1.2743 -0.6715
   43MOL0     C 5829  10.375   5.753   4.325 -0.7743  0.1667 -0.8212
   43MOL0     C 5830  10.416   5.623   4.264  0.2272 -0.5187 -0.2687
   43MOL0     C 5831  10.358   5.575   4.147  0.0012 -0.3370  0.5705
   43MOL0     O 5832  10.408   5.457   4.108 -0.1056 -0.5471  0.3249
   43MOL0     C 5833  10.432   5.447   3.965  0.9535 -0.2752  0.1817
   43MOL0     C 5834  10.545   5.350   3.944 -0.3019  0.7718 -0.0152
   43MOL0     C 5835  10.581   5.334   3.800  0.5584 -0.2821  0.3472
   43MOL0     C 5836  10.663   5.197   3.768  0.6069 -0.2891  0.8689
   43MOL0     C 5837  10.799   5.177   3.838  0.0172 -0.0223 -0.1093
   43MOL0     C 5838  10.913   5.270   3.800  1.6454  0.4220  0.4565
   43MOL0     C 5839  10.962   5.243   3.655  0.5362  0.1522  0.0975
   43MOL0     C 5840  11.078   5.321   3.606 -0.2175  0.3477  0.1747
   43MOL0    Cl 5841  11.236   5.257   3.670 -0.2018 -0.2996  0.0882
   43MOL0     C 5842  10.268   5.655   4.078  0.6159  0.0341 -0.0559
   43MOL0     C 5843  10.221   5.777   4.136  0.1520  0.2957  1.1339
   43MOL0     O 5844  10.451   6.017   4.198  0.0638  0.1365 -0.7558
   43MOL0     C 5845  10.265   6.192   4.435  0.5071  0.1471 -0.0412
   43MOL0     C 5846  10.273   6.291   4.526 -0.1784  0.0257 -0.5708
   43MOL0     N 5847  10.948   6.357   5.091 -0.2978  0.0221  0.4760
   43MOL0     N 5848  10.984   6.399   5.203 -0.1247 -0.1729  0.0854
   43MOL0     C 5849  10.328   7.074   4.718 -0.1276  0.4359 -0.1010
   43MOL0     C 5850  10.300   7.145   4.599  1.0969 -0.2435  0.6071
   43MOL0     C 5851  10.198   7.324   4.237  1.0252  0.3781  0.0256
   43MOL0     C 5852  10.250   7.250   4.132 -0.4181  0.1584  0.5779
   43MOL0     C 5853  10.192   7.254   4.010 -0.9782 -0.1446  0.6114
   43MOL0     C 5854  10.081   7.339   3.984  0.4774  0.1235  0.0011
   43MOL0     O 5855  10.039   7.352   3.851 -0.1083 -0.9726  0.1462
   43MOL0     C 5856   9.917   7.429   3.818 -0.5713  0.2687 -0.0564
   43MOL0     C 5857   9.894   7.399   3.669 -0.8965 -0.0872  0.7110
   43MOL0     C 5858   9.761   7.453   3.633  0.2992 -0.4697  0.8786
   43MOL0     C 5859   9.720   7.445   3.484  0.3199 -0.2602  0.5040
   43MOL0     C 5860   9.800   7.528   3.397 -0.7564  0.3921  0.5122
   43MOL0     C 5861   9.865   7.579   3.306  0.3905 -0.5106  1.3549
   43MOL0     C 5862  10.034   7.417   4.095  0.2754 -0.0207 -0.6514
   43MOL0     C 5863  10.083   7.402   4.217  0.2518 -0.0625 -0.2464
   43MOL0     C 5864  10.021   7.503   4.317  0.0198 -0.0866  0.2698
   43MOL0     H 5865  10.601   7.236   4.492 -2.6164  2.8728 -0.3300
   43MOL0     H 5866  10.665   7.130   4.686  0.8819  0.3619 -0.7041
   43MOL0     H 5867  10.420   6.838   4.791 -3.5979 -0.2458  0.2332
   43MOL0     H 5868  10.371   6.914   4.948  0.4132 -1.9892 -0.9735
   43MOL0     H 5869  10.492   6.684   4.959  0.6483 -1.0047  1.6679
   43MOL0     H 5870  10.638   6.776   4.914 -0.7103  1.2929 -1.3843
   43MOL0     H 5871  10.648   6.927   5.078  0.8731 -0.8712 -1.8540
   43MOL0     H 5872  10.487   6.883   5.140  1.5638  0.9406  0.3663
   43MOL0     H 5873  10.599   6.660   5.212  2.9183 -0.1509  1.9673
   43MOL0     H 5874  10.744   6.718   5.117 -1.7073 -1.1762 -2.9874
   43MOL0     H 5875  10.647   6.839   5.387 -0.3233 -1.7132 -0.5571
   43MOL0     H 5876  10.771   6.904   5.263  2.8584 -1.7514 -2.5778
   43MOL0     H 5877  10.903   6.704   5.297  1.1262 -1.8099  3.2278
   43MOL0     H 5878  10.874   6.802   5.435 -2.5976  0.8399  0.1096
   43MOL0     H 5879  10.682   6.556   5.393  1.1409 -1.7053 -1.5490
   43MOL0     H 5880  10.758   6.599   5.542 -0.9117 -3.9689  0.2735
   43MOL0     H 5881  10.961   6.506   5.471 -0.3324 -0.6581 -0.2331
   43MOL0     H 5882  10.831   6.393   5.485  2.8187 -0.9273  1.6541
   43MOL0     H 5883  10.663   6.369   5.244  1.0425 -0.3700  1.5000
   43MOL0     H 5884  10.684   6.198   5.006 -3.5149  2.8990  1.6615
   43MOL0     H 5885  10.799   6.280   4.881 -1.4324  0.8587 -1.4518
   43MOL0     H 5886  10.560   6.425   5.014  2.3784  3.1555  0.9631
   43MOL0     H 5887  10.689   6.481   4.915  2.3946 -1.5395 -0.8518
   43MOL0     H 5888  10.604   6.301   4.751  0.9992  4.6294 -2.8319
   43MOL0     H 5889  10.468   6.298   4.860  0.1381  0.0411  0.1528
   43MOL0     H 5890  10.465   6.545   4.824 -0.2310 -0.8191  1.4900
   43MOL0     H 5891  10.582   6.531   4.694 -0.3939  1.0895  1.8101
   43MOL0     H 5892  10.610   6.336   4.526  0.3100  0.6438  0.9895
   43MOL0     H 5893  10.723   6.196   4.395  1.5346 -1.8724 -1.2960
   43MOL0     H 5894  10.625   6.213   4.245 -2.0711  1.6136  1.5753
   43MOL0     H 5895  10.655   6.052   4.319 -0.3047 -0.6064 -0.4060
   43MOL0     H 5896  10.437   5.785   4.409 -1.2062 -2.2799  0.5351
   43MOL0     H 5897  10.497   5.567   4.310  2.0692  3.6944  2.2125
   43MOL0     H 5898  10.345   5.409   3.911  0.9553 -1.3148  0.8741
   43MOL0     H 5899  10.461   5.541   3.916  1.8955 -0.1278  0.9764
   43MOL0     H 5900  10.634   5.382   3.999 -0.6731  1.0458  0.4401
   43MOL0     H 5901  10.507   5.253   3.977  0.0552  0.7069  0.2159
   43MOL0     H 5902  10.639   5.419   3.761  0.1152 -0.1228  0.0297
   43MOL0     H 5903  10.486   5.318   3.748  0.8627 -0.9415 -0.0259
   43MOL0     H 5904  10.661   5.183   3.660 -3.6778  0.6726  0.6143
   43MOL0     H 5905  10.598   5.122   3.813 -1.3214  1.5460  1.3276
   43MOL0     H 5906  10.781   5.180   3.946  1.3962 -0.3181  0.1490
   43MOL0     H 5907  10.833   5.073   3.825  0.2651 -0.1585  1.4548
   43MOL0     H 5908  10.992   5.253   3.873  0.3311 -2.0377  1.4209
   43MOL0     H 5909  10.881   5.375   3.802 -2.2222 -0.5618 -0.4850
   43MOL0     H 5910  10.879   5.255   3.584  2.3571 -1.9598 -2.6422
   43MOL0     H 5911  11.003   5.141   3.660  2.3854  0.7721 -1.2731
   43MOL0     H 5912  11.075   5.430   3.617  1.5607  0.4365  0.1130
   43MOL0     H 5913  11.090   5.306   3.498 -0.4877 -2.0264  0.4240
   43MOL0     H 5914  10.233   5.602   3.990  1.6703 -1.5554  0.4303
   43MOL0     H 5915  10.164   5.842   4.071 -0.5659 -1.5338 -0.1526
   43MOL0     H 5916  10.168   6.145   4.425 -0.1406  1.2319  0.8427
   43MOL0     H 5917  10.194   6.326   4.591  0.7949  1.6685 -0.1994
   43MOL0     H 5918  10.247   7.042   4.783 -1.1085 -0.8562 -1.8600
   43MOL0     H 5919  10.194   7.143   4.574  0.9617 -1.9482  1.1887
   43MOL0     H 5920  10.354   7.219   4.134 -0.5894 -0.5482 -0.5318
   43MOL0     H 5921  10.240   7.197   3.931 -1.6817 -1.2215  0.9367
   43MOL0     H 5922   9.824   7.394   3.864 -1.3780  0.7895 -1.2567
   43MOL0     H 5923   9.927   7.536   3.840 -1.3734  0.5168 -0.8440
   43MOL0     H 5924   9.899   7.292   3.643 -2.6517 -0.0079 -0.1133
   43MOL0     H 5925   9.964   7.459   3.609 -0.4636 -2.2287 -1.0744
   43MOL0     H 5926   9.685   7.398   3.690 -3.2111  2.0719 -1.0002
   43MOL0     H 5927   9.755   7.558   3.663 -1.8434 -1.0144  2.6287
   43MOL0     H 5928   9.616   7.473   3.469  0.2183 -0.9553 -0.1443
   43MOL0     H 5929   9.725   7.340   3.453 -5.1937 -0.4293 -0.7717
   43MOL0     H 5930   9.942   7.605   3.236  0.3619 -2.9182  0.3410
   43MOL0     H 5931   9.955   7.482   4.060 -0.7007 -0.3823  0.8249
   43MOL0     H 5932  10.091   7.574   4.362 -1.8030  1.1935  1.2338
   43MOL0     H 5933   9.952   7.565   4.260 -0.8156  1.2586  2.5836
   43MOL0     H 5934   9.965   7.453   4.397 -0.1683 -2.6218 -1.3413
   44MOL0     O 5935   5.911   1.262   1.923  0.8998  0.2243 -0.3052
   44MOL0     C 5936   5.939   1.301   1.810  0.0356  0.5775 -0.2972
   44MOL0     O 5937   6.029   1.394   1.785  0.1080  0.1164  0.2466
   44MOL0     C 5938   6.124   1.420   1.880 -0.1114 -0.4347  0.2657
   44MOL0     C 5939   6.104   1.501   1.987  0.0072  0.3755  0.6172
   44MOL0     C 5940   6.207   1.538   2.077 -0.4325  0.7586  0.6828
   44MOL0     C 5941   6.335   1.485   2.061  0.0168  0.6013 -0.5629
   44MOL0     O 5942   6.421   1.541   2.154 -0.3093 -0.0979  0.5364
   44MOL0     C 5943   6.555   1.496   2.186  0.7389 -0.0439 -0.4827
   44MOL0     C 5944   6.574   1.449   2.329 -0.3967  0.0015 -0.0607
   44MOL0     C 5945   6.462   1.339   2.366 -0.9247 -0.1791  0.2502
   44MOL0     C 5946   6.476   1.268   2.500 -0.3900  0.3293  0.2445
   44MOL0     C 5947   6.362   1.168   2.522 -0.4422 -0.0728 -0.5835
   44MOL0     C 5948   6.371   1.091   2.647 -0.0362 -0.5385  0.1869
   44MOL0     C 5949   6.266   0.987   2.638  0.5414 -1.1947  0.9816
   44MOL0     C 5950   6.330   0.850   2.584  0.7490  0.3940 -0.3650
   44MOL0     N 5951   6.236   0.739   2.611 -0.0926  0.5298 -0.0263
   44MOL0     C 5952   6.234   0.674   2.736 -0.5305 -0.3664  1.3623
   44MOL0     C 5953   6.136   0.580   2.710 -0.3519 -0.6634  0.1048
   44MOL0     C 5954   6.116   0.463   2.793  0.1099  0.2740 -0.4361
   44MOL0     C 5955   6.025   0.480   2.918  0.2302 -0.4256  0.3662
   44MOL0     C 5956   6.069   0.572   3.025 -0.1390 -0.0942 -0.8398
   44MOL0     C 5957   5.968   0.565   3.141  0.0374 -0.0522 -0.2545
   44MOL0     O 5958   5.932   0.443   3.197 -0.6687 -0.4624  0.4975
   44MOL0     C 5959   5.858   0.445   3.312  0.8460  0.1957  0.8436
   44MOL0     C 5960   5.762   0.539   3.347 -0.2838 -0.7847  0.3498
   44MOL0     C 5961   5.704   0.556   3.467  0.1853  1.0555 -0.9595
   44MOL0     C 5962   5.611   0.674   3.484  0.2037  0.5779 -1.0432
   44MOL0     C 5963   5.738   0.454   3.572  0.3090 -0.0068  0.0351
   44MOL0     C 5964   5.691   0.448   3.709 -0.3051  0.4091 -0.7198
   44MOL0     O 5965   5.748   0.360   3.807 -0.0754  0.1644  0.1721
   44MOL0     C 5966   5.666   0.326   3.917 -0.9976  0.3958 -0.5140
   44MOL0     C 5967   5.661   0.188   3.947  1.1540 -0.0808  0.7606
   44MOL0     C 5968   5.585   0.138   4.054  0.0827  0.5009 -0.2097
   44MOL0     C 5969   5.519   0.239   4.132  0.4358  1.0138 -0.4256
   44MOL0     O 5970   5.433   0.174   4.216 -0.5011  0.3193 -0.3162
   44MOL0     C 5971   5.364   0.253   4.312  0.6305  0.3315  0.3910
   44MOL0     C 5972   5.306   0.141   4.401 -0.1301 -0.0290  1.1509
   44MOL0     C 5973   5.232   0.214   4.514  0.2960  0.4365 -0.5330
   44MOL0     C 5974   5.092   0.166   4.543 -0.6505  0.7472 -1.0547
   44MOL0     C 5975   5.040   0.186   4.689  0.2585  0.0216  0.2237
   44MOL0     C 5976   4.888   0.157   4.709  0.0990 -0.1981 -0.2223
   44MOL0     C 5977   4.828   0.214   4.831  0.4181  0.2945  0.3063
   44MOL0     C 5978   4.698   0.146   4.861 -0.1784  0.0532 -0.4357
   44MOL0    Cl 5979   4.709  -0.008   4.949  0.3054  0.4885  0.2911
   44MOL0     C 5980   5.520   0.374   4.101  0.4594 -0.6614  0.4840
   44MOL0     C 5981   5.585   0.418   3.991 -0.2447 -0.1266  0.1097
   44MOL0     O 5982   5.609   0.531   3.737 -0.5953  0.6280 -0.1582
   44MOL0     C 5983   5.837   0.361   3.540 -0.0074  1.1595  0.0643
   44MOL0     C 5984   5.889   0.358   3.418 -0.8417 -0.4675  0.5068
   44MOL0     N 5985   6.081   0.594   2.584  0.4390  0.0925  0.1308
   44MOL0     N 5986   6.143   0.696   2.531  1.0480  0.3337 -0.2885
   44MOL0     C 5987   6.352   1.397   1.957 -1.2354  0.3706  0.2354
   44MOL0     C 5988   6.250   1.370   1.862  0.7910 -0.3425  0.1546
   44MOL0     C 5989   5.874   1.229   1.699 -0.6843  0.0776  0.1346
   44MOL0     C 5990   5.872   1.291   1.568 -0.2778  0.0393  0.5113
   44MOL0     C 5991   5.801   1.225   1.458 -0.6490 -0.1249 -0.7154
   44MOL0     C 5992   5.736   1.106   1.484 -0.1355  0.3968  0.7923
   44MOL0     O 5993   5.671   1.053   1.385  1.0288 -0.1549 -0.4876
   44MOL0     C 5994   5.718   0.931   1.333 -0.2341 -0.1378  0.7076
   44MOL0     C 5995   5.598   0.837   1.352 -0.2467  0.4695 -0.3842
   44MOL0     C 5996   5.464   0.869   1.281  0.3656 -0.8526  0.1536
   44MOL0     C 5997   5.483   0.871   1.126  0.0529  0.0239 -0.2511
   44MOL0     C 5998   5.513   0.742   1.064  0.3305 -0.6958  0.0037
   44MOL0     C 5999   5.548   0.646   1.008  0.1739 -0.0991 -0.2527
   44MOL0     C 6000   5.735   1.051   1.609 -0.4132 -0.9491  0.5911
   44MOL0     C 6001   5.807   1.106   1.716  0.1672  0.2044  0.1107
   44MOL0     C 6002   5.795   1.018   1.843  0.3555  0.2068 -0.2832
   44MOL0     H 6003   6.006   1.544   2.005 -0.7527 -1.2619  0.5662
   44MOL0     H 6004   6.196   1.606   2.161  8.0877  1.8461  1.7646
   44MOL0     H 6005   6.628   1.575   2.167  2.1462 -0.7596  1.6019
   44MOL0     H 6006   6.586   1.419   2.116 -3.9330  0.6415 -3.8343
   44MOL0     H 6007   6.672   1.402   2.330 -1.0155 -1.6441 -3.3198
   44MOL0     H 6008   6.573   1.527   2.406  1.1045 -0.9688  0.9830
   44MOL0     H 6009   6.363   1.387   2.363 -1.7175 -1.7530  0.0328
   44MOL0     H 6010   6.466   1.258   2.292 -1.7014 -1.5473  1.6390
   44MOL0     H 6011   6.568   1.208   2.493 -1.2055 -0.8118 -1.1531
   44MOL0     H 6012   6.479   1.337   2.585 -1.5201 -0.7944  1.2434
   44MOL0     H 6013   6.374   1.094   2.443  0.3345  1.0121 -1.5051
   44MOL0     H 6014   6.272   1.230   2.521  0.1969  0.8581 -1.9254
   44MOL0     H 6015   6.468   1.044   2.666  0.1533 -1.7000 -3.1068
   44MOL0     H 6016   6.364   1.163   2.729 -1.1832 -1.0616  0.5738
   44MOL0     H 6017   6.177   1.017   2.581 -0.5408 -1.9969  2.1692
   44MOL0     H 6018   6.247   0.976   2.746 -0.1343  1.5617  1.2153
   44MOL0     H 6019   6.337   0.857   2.475  0.2801 -0.5522 -0.4668
   44MOL0     H 6020   6.432   0.832   2.616  0.9584 -1.5728 -1.9447
   44MOL0     H 6021   6.303   0.693   2.817 -3.4813  1.2578  3.7137
   44MOL0     H 6022   6.218   0.441   2.827  0.7437  1.8981 -1.1685
   44MOL0     H 6023   6.068   0.382   2.737 -2.9119  1.6887 -0.0919
   44MOL0     H 6024   5.928   0.513   2.882 -1.8561 -4.1762  2.0036
   44MOL0     H 6025   6.007   0.384   2.967 -0.1839 -0.3988  0.2624
   44MOL0     H 6026   6.167   0.547   3.066  1.1910  2.3836 -2.2787
   44MOL0     H 6027   6.069   0.680   3.004  0.6382  0.0930  0.0801
   44MOL0     H 6028   6.011   0.630   3.219  3.0267  1.1501 -2.7063
   44MOL0     H 6029   5.875   0.616   3.112 -0.3447 -1.6950 -2.0591
   44MOL0     H 6030   5.733   0.605   3.265 -2.2374  0.3527  1.8565
   44MOL0     H 6031   5.525   0.640   3.542  1.4446  2.0358  1.8366
   44MOL0     H 6032   5.583   0.704   3.382 -2.2972 -2.5697 -1.4352
   44MOL0     H 6033   5.653   0.745   3.555  2.7488 -3.7463  2.2743
   44MOL0     H 6034   5.689   0.125   3.863 -2.5161  1.0718 -1.5346
   44MOL0     H 6035   5.599   0.032   4.070 -1.9062  0.1880 -0.2652
   44MOL0     H 6036   5.427   0.322   4.368  0.4151  1.3117 -0.5294
   44MOL0     H 6037   5.288   0.301   4.249  1.2590 -1.9978 -2.3906
   44MOL0     H 6038   5.259   0.079   4.324  2.9504  0.3446 -1.2184
   44MOL0     H 6039   5.390   0.086   4.445  2.8461  1.3084 -2.3174
   44MOL0     H 6040   5.231   0.322   4.498  1.8393  0.3313 -1.5549
   44MOL0     H 6041   5.292   0.183   4.601 -1.7987 -3.3533 -0.1954
   44MOL0     H 6042   5.094   0.057   4.531 -2.1512  0.0101  3.3782
   44MOL0     H 6043   5.029   0.216   4.468 -1.2859  2.3889  0.5027
   44MOL0     H 6044   5.095   0.124   4.760 -0.8163 -0.3623  0.7344
   44MOL0     H 6045   5.061   0.290   4.717  1.1449 -0.6164  2.0811
   44MOL0     H 6046   4.879   0.048   4.704  1.8528 -0.3121 -2.4724
   44MOL0     H 6047   4.826   0.189   4.625  0.4232  4.4112  1.0291
   44MOL0     H 6048   4.810   0.320   4.810 -0.8991 -0.0148 -0.2200
   44MOL0     H 6049   4.898   0.211   4.915 -1.7311 -1.1156  2.1947
   44MOL0     H 6050   4.639   0.131   4.771 -3.4486 -0.1330  1.5612
   44MOL0     H 6051   4.632   0.220   4.909  0.0674 -0.3233  0.5137
   44MOL0     H 6052   5.471   0.449   4.162  0.1776 -1.3484  1.1175
   44MOL0     H 6053   5.595   0.525   3.976  4.9472 -0.5825 -1.5216
   44MOL0     H 6054   5.862   0.280   3.607  0.0244  0.6282 -0.5873
   44MOL0     H 6055   5.970   0.288   3.403  0.7186  0.7002  2.8391
   44MOL0     H 6056   6.451   1.353   1.948  1.1304  3.4824  5.8541
   44MOL0     H 6057   6.274   1.305   1.779  0.2177  0.6358 -0.8041
   44MOL0     H 6058   5.932   1.379   1.547  4.4054 -2.5023  1.7673
   44MOL0     H 6059   5.801   1.282   1.365 -0.0128 -0.0858 -0.6925
   44MOL0     H 6060   5.744   0.956   1.230 -2.0180  0.5947  0.3946
   44MOL0     H 6061   5.799   0.879   1.385  0.2341 -0.2119 -0.0757
   44MOL0     H 6062   5.566   0.830   1.456 -0.7383 -1.1893 -0.5999
   44MOL0     H 6063   5.626   0.737   1.317  3.0762  0.8042  1.0278
   44MOL0     H 6064   5.372   0.815   1.307 -0.0401 -0.1507  0.1959
   44MOL0     H 6065   5.446   0.976   1.292  1.7612 -0.8693  3.7771
   44MOL0     H 6066   5.561   0.942   1.098  1.2294 -1.4305 -0.8463
   44MOL0     H 6067   5.392   0.910   1.080 -2.4402 -0.8781  3.3924
   44MOL0     H 6068   5.580   0.549   0.978  0.5538  0.2647 -1.0440
   44MOL0     H 6069   5.683   0.957   1.625 -0.4347 -0.9045  0.7947
   44MOL0     H 6070   5.875   1.021   1.917  0.0771 -0.2257  0.0382
   44MOL0     H 6071   5.701   1.027   1.898 -0.2158 -1.9569 -0.7987
   44MOL0     H 6072   5.817   0.916   1.811  0.7585 -0.3663  1.6802
   45MOL0     O 6073   5.681  10.740   7.765 -0.3663  1.0018  0.1171
   45MOL0     C 6074   5.583  10.678   7.772  0.3249 -0.2577 -0.5461
   45MOL0     O 6075   5.545  10.568   7.707 -0.5227 -0.4770 -0.6503
   45MOL0     C 6076   5.642  10.520   7.636  0.2229 -0.5327  0.2693
   45MOL0     C 6077   5.605  10.501   7.501  0.7574 -0.1667 -0.1244
   45MOL0     C 6078   5.691  10.428   7.425 -0.1836  1.0357 -0.6977
   45MOL0     C 6079   5.814  10.370   7.479 -0.3281  0.1789 -0.1537
   45MOL0     O 6080   5.898  10.290   7.400  0.3376 -0.1719 -0.4647
   45MOL0     C 6081   6.019  10.347   7.358 -0.4104  0.9881 -1.0617
   45MOL0     C 6082   6.091  10.247   7.259 -0.0299  0.2470  0.6031
   45MOL0     C 6083   6.106  10.112   7.336  0.0705 -0.7425  1.5801
   45MOL0     C 6084   6.181  10.023   7.240  0.4488  0.6216  0.0987
   45MOL0     C 6085   6.203   9.885   7.299 -0.0609 -0.1030 -0.1949
   45MOL0     C 6086   6.078   9.818   7.372  0.0986 -0.1132 -0.6574
   45MOL0     C 6087   6.129   9.682   7.430  0.3215 -0.1794 -0.4351
   45MOL0     C 6088   6.012   9.589   7.473 -0.5511 -0.6923 -0.9433
   45MOL0     N 6089   6.061   9.454   7.490  0.3643  0.6594 -0.3620
   45MOL0     C 6090   6.188   9.392   7.490  0.3199 -0.2830 -0.1174
   45MOL0     C 6091   6.166   9.265   7.523  0.7240 -0.2156 -0.3133
   45MOL0     C 6092   6.265   9.151   7.506 -0.8341 -0.0548 -0.5848
   45MOL0     C 6093   6.306   9.109   7.365  0.5213 -0.2035  0.0801
   45MOL0     C 6094   6.188   9.063   7.276 -1.6865 -0.1824  0.5163
   45MOL0     C 6095   6.097   9.157   7.198  0.7564 -0.3215  0.3607
   45MOL0     O 6096   6.157   9.270   7.134  0.5035 -0.8420 -0.8755
   45MOL0     C 6097   6.092   9.390   7.108  0.4247 -0.9188  0.2808
   45MOL0     C 6098   5.951   9.420   7.120  0.2199  0.5339  0.1406
   45MOL0     C 6099   5.908   9.547   7.085  0.2577 -0.1014  0.3764
   45MOL0     C 6100   5.759   9.583   7.096  0.2647 -0.5563  0.4950
   45MOL0     C 6101   5.998   9.647   7.036 -0.4094 -0.3071 -0.9535
   45MOL0     C 6102   5.955   9.782   7.006  0.6451  0.0391  0.1432
   45MOL0     O 6103   6.029   9.839   6.914  0.5492 -0.1188 -0.8271
   45MOL0     C 6104   6.016   9.969   6.875  0.3736  0.1787 -0.0293
   45MOL0     C 6105   5.891  10.016   6.821  0.2711  0.6170 -0.4628
   45MOL0     C 6106   5.873  10.146   6.772  0.6529  0.1965  0.4880
   45MOL0     C 6107   5.982  10.234   6.769 -1.2431 -1.1287 -0.4319
   45MOL0     O 6108   5.969  10.365   6.735  0.0068  0.3745 -0.2305
   45MOL0     C 6109   5.838  10.429   6.704 -0.4742 -0.0073  0.9985
   45MOL0     C 6110   5.764  10.448   6.836 -1.0649 -0.9379 -0.1927
   45MOL0     C 6111   5.703  10.586   6.849 -0.6618  0.1329  0.2608
   45MOL0     C 6112   5.610  10.595   6.970  0.2124 -0.1598  0.2819
   45MOL0     C 6113   5.639  10.725   7.044 -0.5159 -1.4468 -0.1561
   45MOL0     C 6114   5.578  10.763   7.184 -0.3363 -1.1694  0.8445
   45MOL0     C 6115   5.434  10.712   7.198 -0.4805 -0.6370  0.5854
   45MOL0     C 6116   5.379  10.778   7.330  0.1450  0.7198  0.4412
   45MOL0    Cl 6117   5.227  10.700   7.357 -0.3944 -0.1381  0.2088
   45MOL0     C 6118   6.109  10.190   6.823  0.2448 -1.6420 -0.2832
   45MOL0     C 6119   6.116  10.058   6.870  0.2447  1.2909  0.0956
   45MOL0     O 6120   5.876   9.848   7.079  0.0163 -0.0737  0.3540
   45MOL0     C 6121   6.132   9.615   7.023 -0.1816  0.4738  0.1497
   45MOL0     C 6122   6.181   9.486   7.058 -0.3199  0.2682  0.1857
   45MOL0     N 6123   6.028   9.241   7.530 -0.5555 -0.6458  1.0498
   45MOL0     N 6124   5.972   9.361   7.530  0.6546  0.8918  0.1242
   45MOL0     C 6125   5.840  10.380   7.618 -0.1699  1.2690 -1.1197
   45MOL0     C 6126   5.756  10.458   7.700  0.9001  0.3383  0.1839
   45MOL0     C 6127   5.466  10.741   7.837 -0.9636  0.9092 -0.1853
   45MOL0     C 6128   5.335  10.706   7.793  0.2235  0.5647  0.1912
   45MOL0     C 6129   5.229  10.770   7.850  0.5059 -0.2805 -0.2203
   45MOL0     C 6130   5.241  10.876   7.945  0.4328 -0.2047  1.3934
   45MOL0     O 6131   5.123  10.914   7.996  0.0096 -0.0768 -0.0440
   45MOL0     C 6132   5.127  10.952   8.135 -0.1275  0.5844 -0.9564
   45MOL0     C 6133   5.162  10.831   8.222 -0.3003 -0.0598 -1.1649
   45MOL0     C 6134   5.175  10.867   8.369  0.8818 -0.8456  0.3926
   45MOL0     C 6135   5.307  10.918   8.412  0.5921  0.5397 -0.7183
   45MOL0     C 6136   5.411  10.824   8.389 -0.4060  0.6247 -0.5261
   45MOL0     C 6137   5.499  10.747   8.362  0.7887  1.1947  1.0726
   45MOL0     C 6138   5.365  10.905   7.984 -0.5132  0.5170 -0.4222
   45MOL0     C 6139   5.475  10.839   7.934  0.0502 -0.7815 -0.9689
   45MOL0     C 6140   5.601  10.881   8.009 -0.4460 -0.0729 -0.0134
   45MOL0     H 6141   5.511  10.544   7.465 -0.1588  0.7765  3.0315
   45MOL0     H 6142   5.676  10.416   7.318  3.7661 -0.4481 -1.2801
   45MOL0     H 6143   6.090  10.369   7.438 -2.5270  0.2868  1.1607
   45MOL0     H 6144   6.000  10.434   7.296 -2.3825 -0.9397 -3.3817
   45MOL0     H 6145   6.028  10.241   7.170  1.0567  1.2020 -0.2725
   45MOL0     H 6146   6.184  10.293   7.224  0.7797 -2.0214 -0.4354
   45MOL0     H 6147   6.160  10.136   7.428 -1.9386  3.7921  1.8441
   45MOL0     H 6148   6.007  10.071   7.361  0.2920 -1.8941  0.6374
   45MOL0     H 6149   6.132  10.013   7.143 -0.4888  0.2842  0.5979
   45MOL0     H 6150   6.280  10.065   7.219  1.3483 -0.1484  2.5114
   45MOL0     H 6151   6.292   9.896   7.362  0.2468 -1.8577 -0.2588
   45MOL0     H 6152   6.233   9.807   7.228 -0.7022  0.5342 -1.1809
   45MOL0     H 6153   6.064   9.872   7.467 -1.5223 -0.9277 -0.3912
   45MOL0     H 6154   5.984   9.812   7.317  0.3128 -0.5177 -0.9748
   45MOL0     H 6155   6.192   9.703   7.517  0.8806  0.3512 -0.9603
   45MOL0     H 6156   6.188   9.634   7.351 -3.0895 -2.4954 -1.8291
   45MOL0     H 6157   5.955   9.636   7.553  0.0331 -1.1395 -0.2564
   45MOL0     H 6158   5.938   9.582   7.392 -0.9978  0.3960 -0.6357
   45MOL0     H 6159   6.284   9.436   7.464  0.0379 -0.7476 -2.1204
   45MOL0     H 6160   6.231   9.058   7.554 -1.2096 -1.7793 -3.8685
   45MOL0     H 6161   6.363   9.162   7.552 -0.0601 -0.2062 -2.1528
   45MOL0     H 6162   6.363   9.188   7.315 -1.2107  0.3088 -1.1732
   45MOL0     H 6163   6.375   9.025   7.373  3.0857  1.5853 -1.4126
   45MOL0     H 6164   6.231   9.003   7.196 -2.7150 -0.8747  0.4679
   45MOL0     H 6165   6.136   8.993   7.343 -0.0240 -0.5588  1.4692
   45MOL0     H 6166   6.054   9.099   7.116 -0.8029  0.7773  0.3564
   45MOL0     H 6167   6.009   9.177   7.260 -1.5246 -3.7318 -1.4484
   45MOL0     H 6168   5.876   9.352   7.159 -1.4564  1.3694 -1.4528
   45MOL0     H 6169   5.703   9.489   7.111  2.6853 -2.4987 -1.7351
   45MOL0     H 6170   5.714   9.631   7.009 -1.1494  0.8814  1.9436
   45MOL0     H 6171   5.750   9.649   7.183  1.1620 -1.4162  1.2732
   45MOL0     H 6172   5.816   9.940   6.807  1.6971 -0.7788 -0.7756
   45MOL0     H 6173   5.774  10.168   6.734 -1.0868 -0.1777  4.3323
   45MOL0     H 6174   5.850  10.528   6.660 -2.5159  0.2393  0.9465
   45MOL0     H 6175   5.780  10.373   6.630  1.5640 -0.4577 -0.3394
   45MOL0     H 6176   5.680  10.379   6.850 -0.5554 -1.4291  0.5239
   45MOL0     H 6177   5.833  10.426   6.918 -1.5038 -1.4883  0.0346
   45MOL0     H 6178   5.639  10.606   6.762 -0.9553 -1.3116  0.1191
   45MOL0     H 6179   5.786  10.657   6.856  0.7168 -1.5561  2.3114
   45MOL0     H 6180   5.612  10.511   7.041 -1.4444 -0.3207  0.1676
   45MOL0     H 6181   5.508  10.602   6.932 -1.7012  0.4732  4.8612
   45MOL0     H 6182   5.747  10.725   7.061 -0.4476  0.1784 -0.4817
   45MOL0     H 6183   5.602  10.808   6.982 -2.6523 -2.4151 -0.2732
   45MOL0     H 6184   5.587  10.871   7.199  2.0575 -1.5722  3.2115
   45MOL0     H 6185   5.637  10.712   7.261 -0.9079 -0.2088  1.9380
   45MOL0     H 6186   5.436  10.603   7.209 -3.1412 -0.7988  0.2154
   45MOL0     H 6187   5.374  10.735   7.110  1.7591 -0.4708 -0.9537
   45MOL0     H 6188   5.365  10.884   7.308  3.9757  1.5305  1.2825
   45MOL0     H 6189   5.446  10.766   7.416 -1.8649 -1.5928  1.8420
   45MOL0     H 6190   6.182  10.271   6.820  1.1202 -2.4033 -0.0733
   45MOL0     H 6191   6.213  10.023   6.904 -1.2579 -3.6124  0.1323
   45MOL0     H 6192   6.215   9.683   7.007  2.1157 -0.7158  4.9369
   45MOL0     H 6193   6.284   9.460   7.033 -1.0922 -0.4614 -2.6267
   45MOL0     H 6194   5.929  10.341   7.666 -1.6958 -0.7247  0.2541
   45MOL0     H 6195   5.774  10.486   7.804 -0.2311  2.4882 -0.1347
   45MOL0     H 6196   5.322  10.634   7.712  1.3034  0.4237  0.1383
   45MOL0     H 6197   5.128  10.737   7.824  0.5859 -2.0004  1.3864
   45MOL0     H 6198   5.202  11.029   8.155  2.2115 -0.6745 -4.1657
   45MOL0     H 6199   5.031  10.996   8.165 -0.9553 -0.4412 -1.9739
   45MOL0     H 6200   5.252  10.783   8.182 -0.5623  1.0426 -3.2087
   45MOL0     H 6201   5.073  10.770   8.204 -1.8472  1.7634 -0.0431
   45MOL0     H 6202   5.094  10.939   8.383 -0.4496 -2.6095  2.5546
   45MOL0     H 6203   5.167  10.773   8.425 -0.2449 -1.0974 -0.1670
   45MOL0     H 6204   5.308  10.935   8.520  1.1303 -1.5091 -0.3643
   45MOL0     H 6205   5.328  11.010   8.356  0.5641  1.2533  0.4036
   45MOL0     H 6206   5.553  10.664   8.320 -1.5002  0.1553  0.0417
   45MOL0     H 6207   5.371  10.971   8.070  1.3285 -2.3736  1.8319
   45MOL0     H 6208   5.636  10.983   7.989 -1.0468  0.3298  0.9190
   45MOL0     H 6209   5.576  10.892   8.115 -1.0593 -1.1108 -0.0359
   45MOL0     H 6210   5.673  10.799   8.012 -0.1257  0.2394  1.2764
   46MOL0     O 6211   6.607   9.932   7.577  0.1780 -0.6779 -0.2713
   46MOL0     C 6212   6.488   9.941   7.604  1.0167  0.0285 -0.3677
   46MOL0     O 6213   6.403   9.821   7.624 -0.0875 -0.6702 -0.0311
   46MOL0     C 6214   6.469   9.706   7.596  0.8644  0.0307  0.3326
   46MOL0     C 6215   6.510   9.622   7.706 -0.6520  0.0416 -0.1495
   46MOL0     C 6216   6.575   9.499   7.690  0.0967  0.3457  1.1994
   46MOL0     C 6217   6.589   9.458   7.550  0.7788  0.4608 -1.0139
   46MOL0     O 6218   6.636   9.332   7.519  0.3338  0.7901  0.3423
   46MOL0     C 6219   6.753   9.287   7.586 -1.1502  0.6519  0.3355
   46MOL0     C 6220   6.834   9.193   7.500  1.0778 -0.0686  0.0474
   46MOL0     C 6221   6.790   9.037   7.538  0.3806 -0.5937 -0.5784
   46MOL0     C 6222   6.635   8.998   7.531  0.0657  0.1900  0.4775
   46MOL0     C 6223   6.595   8.852   7.577 -0.5986 -0.9156  0.4489
   46MOL0     C 6224   6.609   8.740   7.477 -0.4576 -0.1996 -0.6712
   46MOL0     C 6225   6.744   8.662   7.482  0.3072  0.0669 -0.7225
   46MOL0     C 6226   6.773   8.566   7.366  0.1602 -0.4017  1.1709
   46MOL0     N 6227   6.813   8.634   7.238  0.1808  0.0983 -0.1058
   46MOL0     C 6228   6.936   8.608   7.185  0.3045  0.2227  0.6404
   46MOL0     C 6229   6.919   8.642   7.060 -0.5653  0.0050 -0.8073
   46MOL0     C 6230   7.020   8.621   6.957 -0.6527 -0.1814  0.3444
   46MOL0     C 6231   7.018   8.670   6.808 -0.3258 -0.5741  0.6891
   46MOL0     C 6232   7.061   8.818   6.795  0.4333  0.3897 -1.0034
   46MOL0     C 6233   6.969   8.913   6.883  0.4947 -0.2198 -0.2767
   46MOL0     O 6234   6.982   9.054   6.854  0.5169  1.0702 -0.5423
   46MOL0     C 6235   6.888   9.137   6.896  0.4716  0.0189 -0.6630
   46MOL0     C 6236   6.783   9.114   6.992  0.7744 -0.5040  0.7430
   46MOL0     C 6237   6.698   9.216   7.039 -0.2894 -0.5998 -0.2715
   46MOL0     C 6238   6.572   9.178   7.118 -0.1796 -0.7417  0.1623
   46MOL0     C 6239   6.733   9.351   7.008 -0.1272 -0.5602 -0.0274
   46MOL0     C 6240   6.646   9.467   7.040  0.1147 -0.9162 -0.3238
   46MOL0     O 6241   6.712   9.589   7.046  0.5561 -0.7559 -0.1260
   46MOL0     C 6242   6.641   9.696   7.084 -0.1812  0.8186 -0.2649
   46MOL0     C 6243   6.536   9.745   7.012 -0.2590  1.2784 -0.2714
   46MOL0     C 6244   6.487   9.871   7.035  0.6886 -0.3797  0.0908
   46MOL0     C 6245   6.551   9.961   7.125 -0.0798  1.1381  0.7551
   46MOL0     O 6246   6.534  10.095   7.108 -0.8357 -0.0735  0.4032
   46MOL0     C 6247   6.551  10.174   7.217 -0.0306  0.4051 -1.5554
   46MOL0     C 6248   6.502  10.318   7.194 -0.0352  0.3669  0.0765
   46MOL0     C 6249   6.487  10.407   7.316  0.3535 -0.6351  0.3526
   46MOL0     C 6250   6.459  10.553   7.263 -0.2134  0.3793  0.6708
   46MOL0     C 6251   6.303  10.584   7.247 -0.1073 -0.6090 -0.1566
   46MOL0     C 6252   6.299  10.743   7.241 -0.0395 -0.1380 -0.9544
   46MOL0     C 6253   6.163  10.804   7.258  0.1408 -1.1886  0.1597
   46MOL0     C 6254   6.101  10.765   7.385  0.7872 -0.4494  0.7425
   46MOL0    Cl 6255   6.207  10.799   7.535  0.1344 -0.0341 -0.0667
   46MOL0     C 6256   6.663   9.915   7.192 -0.3373  0.3936 -0.1279
   46MOL0     C 6257   6.710   9.786   7.164  0.5883  0.6182 -0.1967
   46MOL0     O 6258   6.525   9.450   7.027  0.5937 -1.2226  0.4441
   46MOL0     C 6259   6.847   9.373   6.929  0.0081 -0.1513  0.2669
   46MOL0     C 6260   6.920   9.270   6.863  0.3614  1.0306  0.2914
   46MOL0     N 6261   6.796   8.713   7.050 -0.3560 -0.4711 -0.1146
   46MOL0     N 6262   6.728   8.710   7.158 -0.7688  0.0002 -0.6125
   46MOL0     C 6263   6.547   9.545   7.445  0.2790  0.2115 -0.1755
   46MOL0     C 6264   6.486   9.666   7.466  0.4586  0.8511 -0.3336
   46MOL0     C 6265   6.421  10.067   7.646  0.3262 -0.6681  0.1674
   46MOL0     C 6266   6.277  10.061   7.646  0.4930 -1.0362  0.0911
   46MOL0     C 6267   6.205  10.170   7.700  0.9135 -0.0495  1.5488
   46MOL0     C 6268   6.272  10.285   7.734 -0.2044  0.5439  0.4337
   46MOL0     O 6269   6.176  10.368   7.769  0.1461 -0.6927  0.2219
   46MOL0     C 6270   6.204  10.513   7.771 -0.4641 -0.0594 -0.3999
   46MOL0     C 6271   6.086  10.583   7.825 -0.0163 -0.4780 -0.3722
   46MOL0     C 6272   6.116  10.719   7.888  0.2120 -0.1258 -0.4797
   46MOL0     C 6273   6.003  10.770   7.989 -0.0378  0.4014 -1.0631
   46MOL0     C 6274   5.977  10.682   8.102 -1.8191 -0.4873  1.0715
   46MOL0     C 6275   5.958  10.643   8.219 -0.7121 -0.4246  0.0832
   46MOL0     C 6276   6.414  10.293   7.720  0.9006 -0.5657  0.5354
   46MOL0     C 6277   6.489  10.184   7.671  0.8726 -0.2374 -0.3221
   46MOL0     C 6278   6.637  10.207   7.663  0.4230 -0.2613  0.0316
   46MOL0     H 6279   6.481   9.654   7.805 -0.7172 -1.9257  0.5045
   46MOL0     H 6280   6.598   9.441   7.779 -0.7996  0.2504  1.3696
   46MOL0     H 6281   6.718   9.225   7.669 -1.8767 -2.6425 -2.2387
   46MOL0     H 6282   6.826   9.363   7.616 -0.4034  0.0908 -0.0258
   46MOL0     H 6283   6.818   9.221   7.395  2.0463 -0.4739 -0.2196
   46MOL0     H 6284   6.940   9.214   7.516  0.9937  1.4526 -1.2407
   46MOL0     H 6285   6.849   8.968   7.476 -0.2689 -0.9347 -0.8232
   46MOL0     H 6286   6.828   9.024   7.640  1.9424 -1.6559 -1.2473
   46MOL0     H 6287   6.592   9.079   7.591 -0.5953  1.0767 -1.1134
   46MOL0     H 6288   6.590   9.016   7.433  1.2691  1.7167  0.1671
   46MOL0     H 6289   6.488   8.859   7.601 -0.9091  1.1443 -1.1903
   46MOL0     H 6290   6.660   8.825   7.661  1.1060  2.5959  0.4595
   46MOL0     H 6291   6.533   8.664   7.498  1.1542 -2.2043 -1.6122
   46MOL0     H 6292   6.589   8.767   7.373 -1.1392 -1.9055 -1.0258
   46MOL0     H 6293   6.751   8.608   7.577  1.2677 -0.8090 -1.2637
   46MOL0     H 6294   6.825   8.736   7.475  1.8731 -1.5044 -0.0805
   46MOL0     H 6295   6.849   8.492   7.392  2.1960 -0.4257 -3.7615
   46MOL0     H 6296   6.684   8.510   7.335  1.7148 -1.7220 -1.2419
   46MOL0     H 6297   7.013   8.544   7.225  2.3469  0.0422 -3.1470
   46MOL0     H 6298   7.021   8.512   6.943 -1.4286 -0.1694  0.1339
   46MOL0     H 6299   7.113   8.663   6.996 -1.4695  2.3548 -0.2369
   46MOL0     H 6300   7.088   8.614   6.745 -1.0212  1.1338 -1.7194
   46MOL0     H 6301   6.916   8.656   6.770 -0.0016  1.7856 -1.2773
   46MOL0     H 6302   7.166   8.835   6.817  0.8609  1.7002 -3.6599
   46MOL0     H 6303   7.044   8.845   6.690 -1.0114  0.8989 -0.6714
   46MOL0     H 6304   6.865   8.882   6.868 -0.5815  3.0012 -0.3034
   46MOL0     H 6305   6.994   8.901   6.989  6.3788  0.1928 -1.2839
   46MOL0     H 6306   6.753   9.012   7.012 -1.1006  0.1887  1.6936
   46MOL0     H 6307   6.479   9.195   7.063  0.6299 -2.7003 -1.9645
   46MOL0     H 6308   6.546   9.236   7.207 -0.9276  0.0038 -0.5233
   46MOL0     H 6309   6.585   9.071   7.137 -1.1693 -0.5139  2.5034
   46MOL0     H 6310   6.482   9.680   6.944 -0.6299  2.0147 -0.6896
   46MOL0     H 6311   6.408   9.906   6.969  0.3500  1.4368  1.3915
   46MOL0     H 6312   6.508  10.136   7.310 -0.3287  0.6746 -1.5801
   46MOL0     H 6313   6.657  10.181   7.243 -0.8793  3.0968  2.0879
   46MOL0     H 6314   6.580  10.355   7.126  0.1758  4.1962  2.1088
   46MOL0     H 6315   6.411  10.314   7.134 -0.4082 -4.4692  0.6286
   46MOL0     H 6316   6.585  10.406   7.364  1.2126 -2.3265 -1.2790
   46MOL0     H 6317   6.408  10.373   7.384  0.4228 -0.5865  0.4574
   46MOL0     H 6318   6.512  10.564   7.168 -2.2014 -0.0216 -0.5344
   46MOL0     H 6319   6.508  10.611   7.343  2.0400 -0.9462  0.3416
   46MOL0     H 6320   6.255  10.545   7.157  0.9579  2.1257 -2.0370
   46MOL0     H 6321   6.259  10.554   7.342 -2.0570 -4.4224 -2.0353
   46MOL0     H 6322   6.353  10.776   7.151 -0.1292 -0.2222 -1.0390
   46MOL0     H 6323   6.356  10.790   7.322 -1.9603  0.7976 -0.0911
   46MOL0     H 6324   6.117  10.781   7.161  3.1336 -0.7577 -1.4885
   46MOL0     H 6325   6.178  10.911   7.269 -1.6407 -0.9926  0.9751
   46MOL0     H 6326   6.084  10.657   7.386  1.5483 -0.5782  0.2116
   46MOL0     H 6327   6.001  10.809   7.394  0.1212 -1.5405 -0.7506
   46MOL0     H 6328   6.718   9.971   7.267  2.4625 -0.8726 -1.0961
   46MOL0     H 6329   6.799   9.751   7.215  0.6428  1.2204  0.1317
   46MOL0     H 6330   6.876   9.474   6.902 -0.6206 -0.7533 -3.1128
   46MOL0     H 6331   7.011   9.287   6.807  1.7950  1.0506  2.5285
   46MOL0     H 6332   6.583   9.499   7.354  2.9344 -2.4659  2.0388
   46MOL0     H 6333   6.446   9.729   7.387 -1.0691 -0.0480 -0.3280
   46MOL0     H 6334   6.222   9.972   7.616  0.9602 -1.5627  0.7737
   46MOL0     H 6335   6.099  10.153   7.718  1.0452  1.1040  3.6827
   46MOL0     H 6336   6.291  10.534   7.834  0.0073  1.5919 -1.5333
   46MOL0     H 6337   6.217  10.560   7.673 -1.0836  1.6118  0.2819
   46MOL0     H 6338   6.045  10.506   7.890 -0.5406 -0.9966 -1.3074
   46MOL0     H 6339   6.011  10.604   7.748  1.8948 -0.2079 -2.2515
   46MOL0     H 6340   6.201  10.719   7.957 -0.8617 -1.2305  0.8998
   46MOL0     H 6341   6.139  10.789   7.807 -2.7148  2.4509  0.6977
   46MOL0     H 6342   5.910  10.797   7.938  0.1471  2.0039 -0.6021
   46MOL0     H 6343   6.027  10.859   8.047 -2.1054 -0.3078  1.0231
   46MOL0     H 6344   5.964  10.616   8.322 -0.3432 -1.1265 -0.1205
   46MOL0     H 6345   6.461  10.385   7.753 -0.1383 -0.0350  0.5716
   46MOL0     H 6346   6.658  10.312   7.687 -1.7275  0.4938 -1.0932
   46MOL0     H 6347   6.685  10.150   7.743 -0.9636 -1.0542  0.3236
   46MOL0     H 6348   6.669  10.180   7.562  2.5754  2.8439 -0.2973
   47MOL0     O 6349   8.665   7.228   9.836  0.0880  0.1444 -0.1281
   47MOL0     C 6350   8.682   7.118   9.790  0.9013 -0.5738 -0.4176
   47MOL0     O 6351   8.640   7.001   9.853  0.4338 -0.4165 -0.1433
   47MOL0     C 6352   8.605   6.990   9.988 -0.0917 -0.2104 -0.3517
   47MOL0     C 6353   8.671   7.063  10.083 -0.5842 -0.4073 -0.0873
   47MOL0     C 6354   8.641   7.029  10.218  0.2212  0.6735 -0.1276
   47MOL0     C 6355   8.533   6.954  10.265  0.2541  0.7697 -0.8799
   47MOL0     O 6356   8.519   6.926  10.400  0.8641 -0.0943 -0.3052
   47MOL0     C 6357   8.405   6.860  10.454  0.4100  0.7534  0.1275
   47MOL0     C 6358   8.458   6.751  10.548 -0.3897 -0.3102 -0.2994
   47MOL0     C 6359   8.348   6.695  10.641  0.7864  0.5827 -0.5408
   47MOL0     C 6360   8.393   6.711  10.793 -1.1608  0.4760 -0.5152
   47MOL0     C 6361   8.300   6.624  10.880 -0.9457  0.3712 -0.1969
   47MOL0     C 6362   8.355   6.602  11.023  0.7248 -0.0851  0.6832
   47MOL0     C 6363   8.493   6.547  11.048  0.6815 -0.5509  0.1074
   47MOL0     C 6364   8.513   6.481  11.187  0.5301 -0.4250 -0.6334
   47MOL0     N 6365   8.645   6.406  11.175 -0.0325  0.1130  0.6270
   47MOL0     C 6366   8.778   6.454  11.167  0.3708  0.4744 -1.0030
   47MOL0     C 6367   8.859   6.347  11.157  0.8916  0.0295 -0.1263
   47MOL0     C 6368   9.005   6.361  11.150  0.6407 -0.5463  0.1643
   47MOL0     C 6369   9.054   6.342  11.007  0.0742 -0.2971 -0.6082
   47MOL0     C 6370   9.211   6.359  11.016  0.0854 -0.1929  0.2069
   47MOL0     C 6371   9.287   6.325  10.879  0.0284 -0.1389 -0.2220
   47MOL0     O 6372   9.247   6.190  10.842 -0.5610  0.1629  0.2842
   47MOL0     C 6373   9.261   6.163  10.704 -0.4900 -0.7403 -0.4436
   47MOL0     C 6374   9.343   6.226  10.610 -0.1797  0.9295 -0.4367
   47MOL0     C 6375   9.335   6.191  10.476 -0.1221  0.4502  0.8666
   47MOL0     C 6376   9.430   6.253  10.371 -0.4672 -0.2144 -0.6691
   47MOL0     C 6377   9.252   6.085  10.429  0.2702  0.5247  0.0025
   47MOL0     C 6378   9.238   6.056  10.284  0.9448 -0.3527 -0.2809
   47MOL0     O 6379   9.103   6.047  10.240 -0.4620 -0.1696  0.4759
   47MOL0     C 6380   9.069   6.006  10.111  0.4601 -0.6158 -0.5870
   47MOL0     C 6381   8.929   6.019  10.086  0.4914 -0.2534  0.7381
   47MOL0     C 6382   8.861   5.973   9.980  0.7984 -0.5315  1.7058
   47MOL0     C 6383   8.931   5.914   9.888  0.2705  0.1795  0.3501
   47MOL0     O 6384   8.863   5.862   9.784  0.2927 -0.8606 -1.0309
   47MOL0     C 6385   8.878   5.722   9.784 -1.2550  0.4337  0.2959
   47MOL0     C 6386   8.739   5.661   9.741  0.7887  0.5440 -0.0469
   47MOL0     C 6387   8.651   5.727   9.632 -0.0939  0.7113 -0.1138
   47MOL0     C 6388   8.697   5.749   9.481 -0.2351 -0.5578 -0.3488
   47MOL0     C 6389   8.748   5.615   9.420  0.3018  0.6673 -0.2526
   47MOL0     C 6390   8.834   5.637   9.282 -0.0836 -0.1176  0.7136
   47MOL0     C 6391   8.748   5.675   9.160  0.5738  0.8706 -0.8637
   47MOL0     C 6392   8.825   5.669   9.035  0.9329 -0.0980  0.2786
   47MOL0    Cl 6393   8.949   5.811   9.035  0.1873 -0.2672  0.2110
   47MOL0     C 6394   9.070   5.898   9.898 -0.6155  0.2033  0.1011
   47MOL0     C 6395   9.145   5.939  10.014  0.1656  0.4238 -0.6081
   47MOL0     O 6396   9.339   6.032  10.224  0.1852  0.2738  0.3774
   47MOL0     C 6397   9.172   6.019  10.523  0.5483 -0.2332 -0.6034
   47MOL0     C 6398   9.173   6.072  10.654  0.0995  0.7040 -0.8336
   47MOL0     N 6399   8.774   6.232  11.163 -0.3091 -0.6755 -0.7943
   47MOL0     N 6400   8.649   6.270  11.170  0.5018  0.4337 -0.1794
   47MOL0     C 6401   8.452   6.902  10.157  0.8000  0.2217  0.2140
   47MOL0     C 6402   8.490   6.918  10.022  0.2144 -1.1172  0.3468
   47MOL0     C 6403   8.738   7.110   9.650 -0.3550 -0.0253  0.4119
   47MOL0     C 6404   8.764   7.225   9.578 -0.2408  0.2745 -1.1299
   47MOL0     C 6405   8.802   7.237   9.444  0.0894 -0.1899  0.0750
   47MOL0     C 6406   8.822   7.114   9.378  0.3014 -0.3502 -0.1782
   47MOL0     O 6407   8.880   7.117   9.250 -1.0311  0.7958 -0.6197
   47MOL0     C 6408   8.823   7.015   9.159 -0.3837  0.4218 -0.0854
   47MOL0     C 6409   8.689   7.051   9.097  1.0220 -0.1567 -0.4502
   47MOL0     C 6410   8.691   7.178   9.003 -0.1388 -0.7634  0.4363
   47MOL0     C 6411   8.657   7.301   9.083 -1.1580 -0.6407 -0.1310
   47MOL0     C 6412   8.638   7.432   9.017  0.1266 -1.6852 -0.2457
   47MOL0     C 6413   8.628   7.541   8.971  0.4373 -0.1071 -0.7499
   47MOL0     C 6414   8.802   6.994   9.449 -0.1529 -0.7483 -0.2973
   47MOL0     C 6415   8.770   6.989   9.581  0.5111  0.6355  0.4041
   47MOL0     C 6416   8.770   6.840   9.636  1.0543 -0.2638 -0.3917
   47MOL0     H 6417   8.751   7.127  10.048 -0.2235 -1.1246 -0.5826
   47MOL0     H 6418   8.699   7.058  10.305  2.8703  0.0479 -1.5983
   47MOL0     H 6419   8.338   6.809  10.384 -0.3611  1.0352  0.6559
   47MOL0     H 6420   8.351   6.940  10.505 -0.5128  0.2679 -0.0696
   47MOL0     H 6421   8.501   6.662  10.500  0.2822  0.5695 -1.3616
   47MOL0     H 6422   8.538   6.783  10.615  0.5536 -3.0219  0.0147
   47MOL0     H 6423   8.250   6.742  10.622  1.7476  2.1429 -1.8711
   47MOL0     H 6424   8.339   6.589  10.617 -0.9147  0.6479 -0.3568
   47MOL0     H 6425   8.494   6.674  10.815 -0.6068  0.9608 -2.0915
   47MOL0     H 6426   8.386   6.814  10.829  1.0151  0.4348  0.1329
   47MOL0     H 6427   8.292   6.525  10.834 -0.2321 -0.0315  0.5270
   47MOL0     H 6428   8.195   6.654  10.889 -1.5739 -1.4542 -1.0630
   47MOL0     H 6429   8.348   6.699  11.074 -0.1979 -0.6307  1.6315
   47MOL0     H 6430   8.282   6.537  11.072 -0.7708  0.2446 -1.0019
   47MOL0     H 6431   8.560   6.632  11.027 -0.2967 -0.1692 -1.7014
   47MOL0     H 6432   8.512   6.468  10.975 -0.2776  0.7983 -1.6856
   47MOL0     H 6433   8.491   6.550  11.269 -3.0720  0.3348 -2.0639
   47MOL0     H 6434   8.441   6.400  11.204  0.9754 -0.1744  3.4175
   47MOL0     H 6435   8.821   6.554  11.171  3.9667 -0.9913  1.8719
   47MOL0     H 6436   9.050   6.291  11.222  1.9127 -0.0439 -0.1085
   47MOL0     H 6437   9.027   6.463  11.183 -1.5926  0.0766 -0.1026
   47MOL0     H 6438   9.044   6.241  10.967  4.0263 -0.4101 -1.7907
   47MOL0     H 6439   8.995   6.415  10.950  1.4769  1.2106 -0.2012
   47MOL0     H 6440   9.234   6.465  11.031 -2.2833  0.7622 -2.0938
   47MOL0     H 6441   9.262   6.302  11.094  4.6795 -0.5129 -2.6398
   47MOL0     H 6442   9.257   6.400  10.806  2.0933  1.8677  0.8646
   47MOL0     H 6443   9.395   6.343  10.876 -0.1007  0.6306 -0.6228
   47MOL0     H 6444   9.411   6.309  10.628  1.6153 -0.1407 -1.8801
   47MOL0     H 6445   9.462   6.353  10.402 -0.0055 -0.7598  0.7065
   47MOL0     H 6446   9.381   6.272  10.275  0.6780  2.4002 -0.8189
   47MOL0     H 6447   9.526   6.202  10.358  1.8987  3.3666  1.0801
   47MOL0     H 6448   8.869   6.064  10.164 -1.4145  2.1350 -1.8828
   47MOL0     H 6449   8.752   5.981   9.981  0.8868  1.7648  0.3853
   47MOL0     H 6450   8.957   5.689   9.715 -2.2486  2.9680 -2.2655
   47MOL0     H 6451   8.896   5.680   9.883 -2.4438 -0.3248  0.2022
   47MOL0     H 6452   8.758   5.560   9.706 -2.5828 -0.1587 -0.1639
   47MOL0     H 6453   8.682   5.654   9.834  1.4578 -0.6047  0.2904
   47MOL0     H 6454   8.625   5.825   9.674  1.3579  0.8174  0.6081
   47MOL0     H 6455   8.562   5.663   9.629  0.2125  0.3051 -2.0996
   47MOL0     H 6456   8.776   5.825   9.478 -0.0865 -0.7370 -2.0859
   47MOL0     H 6457   8.618   5.795   9.420 -2.5506 -1.4713  1.8205
   47MOL0     H 6458   8.808   5.566   9.497 -1.0692  2.4833  2.0897
   47MOL0     H 6459   8.662   5.554   9.392  1.1489 -1.6103  1.7905
   47MOL0     H 6460   8.905   5.557   9.261  0.8169  0.9807 -0.5838
   47MOL0     H 6461   8.904   5.720   9.298  0.7750 -0.7106  0.0949
   47MOL0     H 6462   8.690   5.767   9.165 -0.3188  0.6420 -4.5393
   47MOL0     H 6463   8.674   5.597   9.141  1.1455  0.4301 -1.3301
   47MOL0     H 6464   8.769   5.667   8.942  3.2318  3.0030 -1.3388
   47MOL0     H 6465   8.874   5.571   9.030  0.8527 -0.3373  2.7364
   47MOL0     H 6466   9.129   5.844   9.825  2.9766 -0.0831  2.9310
   47MOL0     H 6467   9.250   5.911  10.016 -0.4595 -3.0150 -3.9506
   47MOL0     H 6468   9.107   5.937  10.493  0.8161 -0.6988  0.0693
   47MOL0     H 6469   9.114   6.024  10.732  1.8983 -1.3040 -0.6023
   47MOL0     H 6470   8.374   6.829  10.177  1.6353 -0.4598  1.0448
   47MOL0     H 6471   8.430   6.875   9.943 -2.9513  1.0808  1.3594
   47MOL0     H 6472   8.732   7.315   9.629 -0.5017  0.9063 -2.3742
   47MOL0     H 6473   8.805   7.336   9.401  0.4303  0.4929  1.6042
   47MOL0     H 6474   8.899   7.001   9.082  0.5112 -0.3491  0.9127
   47MOL0     H 6475   8.834   6.912   9.194  0.9399 -0.0777 -1.8737
   47MOL0     H 6476   8.622   7.075   9.180  5.0542  2.2043  2.5278
   47MOL0     H 6477   8.644   6.969   9.042 -1.2637 -0.4335  1.6526
   47MOL0     H 6478   8.784   7.181   8.946 -0.4764 -1.0585 -0.1421
   47MOL0     H 6479   8.616   7.157   8.925  0.4765  2.0891 -1.0490
   47MOL0     H 6480   8.735   7.301   9.160 -0.4829 -3.3237 -0.7096
   47MOL0     H 6481   8.564   7.278   9.137 -1.3574 -1.7140 -0.9060
   47MOL0     H 6482   8.587   7.626   8.920  1.5618 -0.0620 -1.6248
   47MOL0     H 6483   8.805   6.898   9.399 -0.6108 -0.8763 -0.0829
   47MOL0     H 6484   8.676   6.783   9.628  0.7141 -0.6239  3.9660
   47MOL0     H 6485   8.850   6.776   9.597  0.5341 -1.2444  0.1091
   47MOL0     H 6486   8.796   6.858   9.740 -3.6949  1.0480  0.8082
   48MOL0     O 6487   6.481  11.053   2.453  0.2850 -0.0843 -0.1258
   48MOL0     C 6488   6.576  10.986   2.506  0.3650  0.7088 -1.2846
   48MOL0     O 6489   6.666  10.924   2.433 -1.1802 -0.1650  0.0762
   48MOL0     C 6490   6.642  10.903   2.298 -0.9183  0.3756 -0.5192
   48MOL0     C 6491   6.640  11.004   2.204  0.6775  0.4469  0.2952
   48MOL0     C 6492   6.642  10.973   2.068  0.3777  0.7861  0.4345
   48MOL0     C 6493   6.637  10.845   2.025  0.0397 -0.1460  0.1741
   48MOL0     O 6494   6.632  10.811   1.889 -0.3465  0.2052  0.3129
   48MOL0     C 6495   6.748  10.856   1.817  0.0772 -0.7777  0.5005
   48MOL0     C 6496   6.712  10.881   1.669  0.1617  1.2115  0.6939
   48MOL0     C 6497   6.828  10.844   1.563 -0.3548 -0.2941 -0.2742
   48MOL0     C 6498   6.787  10.818   1.420  0.3474  0.0424  0.5911
   48MOL0     C 6499   6.904  10.767   1.333  0.0095 -1.1387  0.3956
   48MOL0     C 6500   6.915  10.832   1.193  0.6519  0.2560  0.5594
   48MOL0     C 6501   7.019  10.774   1.092 -0.3096  0.0657 -0.5461
   48MOL0     C 6502   7.154  10.731   1.148  0.4353 -0.2761  0.1999
   48MOL0     N 6503   7.236  10.831   1.208  1.1484 -0.9572 -0.4209
   48MOL0     C 6504   7.307  10.812   1.321  0.5949  0.3216 -0.3186
   48MOL0     C 6505   7.357  10.929   1.354  0.3011 -0.1788 -0.2938
   48MOL0     C 6506   7.430  10.946   1.476 -0.3667 -0.1792 -0.1990
   48MOL0     C 6507   7.583  10.925   1.446 -0.3249 -0.4835 -0.1248
   48MOL0     C 6508   7.616  10.783   1.475 -0.9535 -0.5174  0.6339
   48MOL0     C 6509   7.669  10.768   1.621 -0.2857 -0.3237 -0.4680
   48MOL0     O 6510   7.589  10.833   1.723  0.2293  0.8364  0.8466
   48MOL0     C 6511   7.588  10.771   1.847  0.1345 -0.9534 -0.5897
   48MOL0     C 6512   7.700  10.721   1.910 -0.0163 -0.0993  0.7541
   48MOL0     C 6513   7.688  10.657   2.036  0.2685 -0.4081 -1.0193
   48MOL0     C 6514   7.812  10.602   2.112 -0.3153  0.4319 -0.1141
   48MOL0     C 6515   7.557  10.647   2.098 -0.1228  0.9463  0.4794
   48MOL0     C 6516   7.532  10.575   2.231  0.5648 -0.0634 -0.0813
   48MOL0     O 6517   7.426  10.623   2.294 -0.5443 -0.5615  0.1103
   48MOL0     C 6518   7.356  10.564   2.391  0.2844 -0.1772  0.3894
   48MOL0     C 6519   7.388  10.579   2.527  0.2360 -0.0497  0.6543
   48MOL0     C 6520   7.328  10.492   2.623  0.0456 -0.5755 -0.3948
   48MOL0     C 6521   7.233  10.401   2.576  0.0346  1.3227 -0.0209
   48MOL0     O 6522   7.154  10.329   2.660 -0.1032  0.4404 -0.4518
   48MOL0     C 6523   7.212  10.280   2.782  0.4469  0.4985  0.2184
   48MOL0     C 6524   7.131  10.165   2.833  0.1947 -0.5974 -0.1382
   48MOL0     C 6525   7.182  10.129   2.962  0.2964  0.1291  1.2758
   48MOL0     C 6526   7.107  10.019   3.038 -0.1612  0.3241  0.4576
   48MOL0     C 6527   7.030  10.062   3.164 -0.7294 -0.1906 -0.3164
   48MOL0     C 6528   6.931   9.964   3.242  0.3661  1.0869  0.6816
   48MOL0     C 6529   6.984   9.817   3.271 -0.1635  0.2582  0.4044
   48MOL0     C 6530   7.066   9.795   3.393 -0.8325 -0.3455 -0.5358
   48MOL0    Cl 6531   7.001   9.662   3.506 -0.6679 -0.2237  0.0607
   48MOL0     C 6532   7.213  10.383   2.439  0.0319  0.5283 -0.1570
   48MOL0     C 6533   7.267  10.459   2.346 -0.3008 -0.3353  0.2955
   48MOL0     O 6534   7.609  10.486   2.279 -0.7886  0.5067  0.1202
   48MOL0     C 6535   7.446  10.700   2.030  0.3275 -0.2232 -0.0599
   48MOL0     C 6536   7.464  10.759   1.904  0.5785 -1.0973  0.4271
   48MOL0     N 6537   7.313  11.023   1.262  0.2720 -0.7100  0.2160
   48MOL0     N 6538   7.230  10.965   1.187  0.4696  0.4720  0.6282
   48MOL0     C 6539   6.613  10.746   2.123  0.8486  0.0248  0.0757
   48MOL0     C 6540   6.614  10.774   2.257  0.3330  0.3910  0.0130
   48MOL0     C 6541   6.606  11.000   2.653 -0.3066 -0.1354 -0.4909
   48MOL0     C 6542   6.720  10.935   2.693  1.4648  0.1033 -0.4167
   48MOL0     C 6543   6.751  10.949   2.830  0.7530 -0.2209  0.3177
   48MOL0     C 6544   6.685  11.034   2.916  0.1310 -0.4320  0.6058
   48MOL0     O 6545   6.746  11.049   3.038  0.5451 -0.4382  0.2886
   48MOL0     C 6546   6.670  11.075   3.157 -0.3977 -0.3389  0.0016
   48MOL0     C 6547   6.758  11.049   3.277 -0.1989 -0.2535 -0.8721
   48MOL0     C 6548   6.902  11.120   3.278  0.6269 -1.0447 -0.2462
   48MOL0     C 6549   6.979  11.095   3.396 -0.9914  0.0761  0.2754
   48MOL0     C 6550   7.024  10.957   3.401  1.3653  0.4254  0.0626
   48MOL0     C 6551   7.040  10.832   3.401  0.5334  0.9188 -0.1178
   48MOL0     C 6552   6.555  11.084   2.880  0.7851 -0.1615  0.9000
   48MOL0     C 6553   6.515  11.078   2.747 -0.0622  0.4466  0.6994
   48MOL0     C 6554   6.375  11.137   2.723 -1.0302  0.0756 -0.2464
   48MOL0     H 6555   6.638  11.103   2.250  2.2932 -0.0876  1.6070
   48MOL0     H 6556   6.643  11.057   1.999 -1.9464  0.0338 -0.6142
   48MOL0     H 6557   6.827  10.781   1.829 -1.7003 -2.6442  1.3117
   48MOL0     H 6558   6.784  10.955   1.844 -0.5628 -0.2565 -0.4932
   48MOL0     H 6559   6.616  10.832   1.647 -0.0872 -0.0865  3.9762
   48MOL0     H 6560   6.692  10.987   1.650 -1.1137  0.4340 -3.3072
   48MOL0     H 6561   6.900  10.925   1.551 -2.1265  1.5242  0.7963
   48MOL0     H 6562   6.886  10.762   1.605 -1.0431 -0.0173  1.2761
   48MOL0     H 6563   6.708  10.744   1.435  0.2312  0.5215  2.7225
   48MOL0     H 6564   6.738  10.909   1.385  4.4669  1.3969 -2.3813
   48MOL0     H 6565   6.891  10.660   1.317  0.8438 -1.2647  0.5195
   48MOL0     H 6566   6.999  10.790   1.381  0.9461  0.6906 -2.1084
   48MOL0     H 6567   6.818  10.861   1.151 -0.9900 -1.0481  3.1256
   48MOL0     H 6568   6.966  10.928   1.206  3.5026 -1.2225  1.2327
   48MOL0     H 6569   7.039  10.842   1.008 -1.5652 -0.6426 -1.4728
   48MOL0     H 6570   6.973  10.686   1.047 -3.0590  2.6456 -3.3017
   48MOL0     H 6571   7.140  10.649   1.219  1.1825 -2.1250 -1.6803
   48MOL0     H 6572   7.205  10.692   1.059 -1.1045  1.8210 -1.7251
   48MOL0     H 6573   7.311  10.720   1.377  4.1470  0.1605 -0.6440
   48MOL0     H 6574   7.382  10.890   1.557  0.5387  1.8797  1.8770
   48MOL0     H 6575   7.422  11.043   1.525 -1.8084 -1.0392  1.3758
   48MOL0     H 6576   7.614  10.939   1.342  2.7516 -2.1647  0.4175
   48MOL0     H 6577   7.628  10.993   1.518 -2.9884  1.7901 -0.4699
   48MOL0     H 6578   7.530  10.722   1.446 -0.4080 -0.0431 -2.3484
   48MOL0     H 6579   7.699  10.749   1.412 -0.1092  1.2811  0.6943
   48MOL0     H 6580   7.688  10.665   1.649  0.6803  0.5865  2.5735
   48MOL0     H 6581   7.766  10.818   1.613 -1.2797  1.5781 -1.5727
   48MOL0     H 6582   7.799  10.731   1.865 -0.4185 -1.8068 -0.6037
   48MOL0     H 6583   7.900  10.655   2.075  0.0141  0.1352  0.2347
   48MOL0     H 6584   7.829  10.495   2.092 -1.4531  0.1741  0.2119
   48MOL0     H 6585   7.804  10.614   2.220 -2.8319  0.8385 -0.2872
   48MOL0     H 6586   7.459  10.654   2.562 -1.2536  1.2348  1.1088
   48MOL0     H 6587   7.361  10.498   2.726  0.6258 -3.4650 -0.3431
   48MOL0     H 6588   7.314  10.246   2.762  0.1294 -1.5623  1.8598
   48MOL0     H 6589   7.208  10.358   2.858 -1.3888  0.2750  0.3895
   48MOL0     H 6590   7.029  10.203   2.834 -0.0652 -1.0510 -2.8234
   48MOL0     H 6591   7.137  10.081   2.762  0.0577 -0.8967  0.2001
   48MOL0     H 6592   7.184  10.208   3.037  1.3807 -0.7574  2.2274
   48MOL0     H 6593   7.286  10.099   2.943  0.2548  0.8240 -0.1032
   48MOL0     H 6594   7.176   9.936   3.053 -0.4564 -0.3640 -1.6150
   48MOL0     H 6595   7.031   9.969   2.977  0.9438 -0.0978 -0.6149
   48MOL0     H 6596   7.095  10.102   3.241 -0.9689 -1.2156  0.4445
   48MOL0     H 6597   6.966  10.147   3.142 -2.0457  0.0557  3.6555
   48MOL0     H 6598   6.842   9.946   3.181  2.2517 -2.3071 -1.3734
   48MOL0     H 6599   6.903  10.012   3.336 -0.1244 -0.5177  1.3798
   48MOL0     H 6600   7.039   9.774   3.186  1.5823  1.1596  1.0350
   48MOL0     H 6601   6.893   9.756   3.275  0.3030 -0.4543  0.3237
   48MOL0     H 6602   7.088   9.894   3.434  0.5544 -0.0462 -1.8872
   48MOL0     H 6603   7.164   9.753   3.369 -1.6602 -2.5733 -0.2525
   48MOL0     H 6604   7.145  10.304   2.408  2.5823 -1.0888 -2.0885
   48MOL0     H 6605   7.229  10.443   2.246  0.7322  0.3737 -0.2434
   48MOL0     H 6606   7.341  10.719   2.053 -0.1497  3.4699 -3.9675
   48MOL0     H 6607   7.383  10.808   1.853  0.1886 -1.7647  0.3944
   48MOL0     H 6608   6.593  10.647   2.083  1.4496  0.2303 -0.7463
   48MOL0     H 6609   6.604  10.696   2.332 -3.0763  1.2046  0.5604
   48MOL0     H 6610   6.789  10.880   2.630  0.6255  0.3891 -1.6247
   48MOL0     H 6611   6.841  10.902   2.867  0.9524 -0.2861 -0.2442
   48MOL0     H 6612   6.637  11.179   3.165  0.9496 -0.0391  3.5266
   48MOL0     H 6613   6.582  11.010   3.163 -0.4557 -0.4109 -1.2331
   48MOL0     H 6614   6.783  10.943   3.280 -1.0204 -0.4655  2.1457
   48MOL0     H 6615   6.708  11.078   3.370 -0.0293  0.6065 -1.0439
   48MOL0     H 6616   6.961  11.113   3.186  1.6677  0.9206  0.2171
   48MOL0     H 6617   6.877  11.225   3.292 -2.0274 -0.9572 -4.1198
   48MOL0     H 6618   6.925  11.123   3.487  0.5638  1.9464  0.6784
   48MOL0     H 6619   7.067  11.160   3.398 -0.7218 -0.1494  4.0048
   48MOL0     H 6620   7.081  10.734   3.412 -1.0755  0.0758 -1.1855
   48MOL0     H 6621   6.493  11.134   2.954 -0.4661 -2.3781  1.4257
   48MOL0     H 6622   6.382  11.239   2.685 -0.3373  0.3661  0.6200
   48MOL0     H 6623   6.327  11.071   2.650 -0.8943 -1.3834  0.9271
   48MOL0     H 6624   6.310  11.133   2.811  1.9785 -4.1387  2.1366
   49MOL0     O 6625   2.552   9.495   5.677 -0.0079  0.2296  0.1379
   49MOL0     C 6626   2.674   9.483   5.681  1.2128  0.7983  1.1299
   49MOL0     O 6627   2.749   9.444   5.791  0.4563  0.4566 -0.0583
   49MOL0     C 6628   2.674   9.438   5.911 -0.5080  0.7315 -0.6562
   49MOL0     C 6629   2.589   9.325   5.918 -0.3862 -0.6479  0.1939
   49MOL0     C 6630   2.514   9.307   6.038  0.2847  0.7314 -0.3356
   49MOL0     C 6631   2.528   9.394   6.152  0.7246 -0.6768 -0.0246
   49MOL0     O 6632   2.442   9.363   6.260 -0.1590  0.4885 -0.0964
   49MOL0     C 6633   2.378   9.467   6.339  0.1143  0.6565  0.7967
   49MOL0     C 6634   2.245   9.431   6.397 -0.4202  0.4188 -0.5069
   49MOL0     C 6635   2.150   9.340   6.316 -0.7324  0.5260 -1.1774
   49MOL0     C 6636   2.102   9.399   6.188 -0.0706 -0.2162 -0.2835
   49MOL0     C 6637   1.963   9.479   6.200 -0.0106  0.5060 -1.0487
   49MOL0     C 6638   1.915   9.535   6.071 -0.3398 -0.4894  0.3216
   49MOL0     C 6639   2.001   9.659   6.032  0.2581  0.0586 -0.0037
   49MOL0     C 6640   1.949   9.755   5.928  0.6918  0.3317  0.1093
   49MOL0     N 6641   2.054   9.825   5.859 -0.0774  0.4291  0.6251
   49MOL0     C 6642   2.154   9.772   5.781  0.1496 -0.7961  0.6652
   49MOL0     C 6643   2.219   9.889   5.730  0.8316  0.9059  0.4196
   49MOL0     C 6644   2.331   9.906   5.636 -0.1035  0.8917 -0.3874
   49MOL0     C 6645   2.475   9.868   5.675  0.7019  0.3732 -0.7379
   49MOL0     C 6646   2.552   9.988   5.747 -0.5521  0.6857  0.0762
   49MOL0     C 6647   2.590   9.951   5.885  0.3813  0.0358  0.5234
   49MOL0     O 6648   2.466   9.953   5.959 -0.4972 -0.4869 -0.0817
   49MOL0     C 6649   2.449   9.901   6.082 -1.5921  0.3288  0.5640
   49MOL0     C 6650   2.560   9.860   6.157  0.2708 -1.0975  0.1530
   49MOL0     C 6651   2.549   9.832   6.293 -0.3271  0.1582  0.1162
   49MOL0     C 6652   2.677   9.822   6.367  0.5928 -0.1019 -0.2544
   49MOL0     C 6653   2.417   9.821   6.343 -0.3158  0.5165 -0.3497
   49MOL0     C 6654   2.411   9.789   6.494 -0.2179 -0.0647  0.6952
   49MOL0     O 6655   2.289   9.739   6.528  0.7408 -0.3270 -0.5329
   49MOL0     C 6656   2.252   9.738   6.664 -0.9552 -0.0670 -0.3245
   49MOL0     C 6657   2.199   9.619   6.710 -1.0091  0.7544  0.5019
   49MOL0     C 6658   2.150   9.600   6.839 -0.3601 -1.4150 -0.1367
   49MOL0     C 6659   2.181   9.703   6.933  0.2103  0.1030  0.4993
   49MOL0     O 6660   2.136   9.693   7.059  0.1117  0.8881 -0.4776
   49MOL0     C 6661   2.135   9.815   7.148  0.0176 -0.2542 -0.8829
   49MOL0     C 6662   2.106   9.782   7.298  0.5875  1.0160 -0.0917
   49MOL0     C 6663   2.126   9.904   7.391 -0.5960  0.3888 -0.4637
   49MOL0     C 6664   2.109   9.858   7.539  0.3903 -0.6868  0.3346
   49MOL0     C 6665   2.077   9.983   7.621  0.2678 -0.4080  0.7776
   49MOL0     C 6666   2.199  10.073   7.653 -0.8589 -0.5546 -0.0762
   49MOL0     C 6667   2.156  10.180   7.751  0.2460 -0.3303  0.3360
   49MOL0     C 6668   2.272  10.259   7.800 -0.2985 -0.2429  0.3266
   49MOL0    Cl 6669   2.381  10.159   7.907  0.6750 -0.4359 -0.3812
   49MOL0     C 6670   2.231   9.824   6.884  0.0276 -0.6273 -0.0647
   49MOL0     C 6671   2.261   9.847   6.750 -0.7998  0.0754  0.7729
   49MOL0     O 6672   2.499   9.815   6.569 -0.0782 -0.5235 -0.4629
   49MOL0     C 6673   2.307   9.854   6.274  0.5220  0.3678 -0.6008
   49MOL0     C 6674   2.331   9.897   6.136 -0.0061  0.1962 -0.9536
   49MOL0     N 6675   2.160   9.998   5.783  0.0869 -0.1791  0.4674
   49MOL0     N 6676   2.059   9.958   5.863  0.8399 -0.6543  1.0203
   49MOL0     C 6677   2.619   9.498   6.143  0.1818  1.1072 -0.2353
   49MOL0     C 6678   2.686   9.525   6.024 -0.1683  0.4974  0.0907
   49MOL0     C 6679   2.761   9.522   5.561  0.7222  1.2466  0.1033
   49MOL0     C 6680   2.902   9.537   5.581 -0.9270 -0.5569 -0.1801
   49MOL0     C 6681   2.991   9.585   5.483 -0.7496 -0.5986  0.7448
   49MOL0     C 6682   2.943   9.611   5.353  0.5226  0.2408 -0.6638
   49MOL0     O 6683   3.040   9.656   5.268  0.1349  0.6088 -0.7777
   49MOL0     C 6684   3.020   9.679   5.124  0.9206 -0.0302  0.4337
   49MOL0     C 6685   3.026   9.542   5.056  0.1277  0.3036 -0.5414
   49MOL0     C 6686   3.160   9.471   5.072  0.8773 -0.2643 -0.3232
   49MOL0     C 6687   3.156   9.322   5.031  0.1366 -0.4536  0.6237
   49MOL0     C 6688   3.204   9.318   4.892 -0.2974  0.4240  0.9713
   49MOL0     C 6689   3.267   9.319   4.781  0.5721  0.7204 -0.2449
   49MOL0     C 6690   2.806   9.592   5.323 -0.7574 -0.3139  0.0840
   49MOL0     C 6691   2.716   9.551   5.429  0.5900 -0.2856 -0.0670
   49MOL0     C 6692   2.568   9.587   5.392 -0.9572 -0.1419  0.0182
   49MOL0     H 6693   2.589   9.259   5.831 -1.7303  0.6147 -0.8034
   49MOL0     H 6694   2.436   9.231   6.034  1.0392 -0.2456  2.1448
   49MOL0     H 6695   2.358   9.550   6.271  2.3087 -1.7879 -3.2467
   49MOL0     H 6696   2.446   9.497   6.419 -0.5594 -0.0516  1.6567
   49MOL0     H 6697   2.261   9.381   6.492  3.3075  0.9899 -0.6912
   49MOL0     H 6698   2.194   9.527   6.409  2.1575  2.0691 -1.9047
   49MOL0     H 6699   2.200   9.250   6.278 -1.1808  0.2730 -1.1783
   49MOL0     H 6700   2.067   9.288   6.364  0.9436 -1.2459 -0.0597
   49MOL0     H 6701   2.177   9.472   6.155  0.0119  0.4175  1.1916
   49MOL0     H 6702   2.077   9.325   6.112 -1.6121 -1.0012  0.9403
   49MOL0     H 6703   1.973   9.540   6.290 -3.0801 -3.0846  2.1176
   49MOL0     H 6704   1.882   9.413   6.234  0.2417  0.6624 -0.1031
   49MOL0     H 6705   1.925   9.455   5.996 -1.6790 -1.5938  1.2765
   49MOL0     H 6706   1.812   9.567   6.085 -0.3699 -0.4498  0.0171
   49MOL0     H 6707   2.091   9.610   5.992 -0.0306 -1.8153  1.4589
   49MOL0     H 6708   2.039   9.717   6.116  1.4594  1.0838 -1.2071
   49MOL0     H 6709   1.882   9.699   5.862  1.3778  0.8288 -1.0294
   49MOL0     H 6710   1.889   9.831   5.979 -1.3687  0.4536 -2.3347
   49MOL0     H 6711   2.164   9.666   5.756 -2.5292 -0.6141 -1.7047
   49MOL0     H 6712   2.331  10.009   5.597 -0.6636  1.6706  1.5571
   49MOL0     H 6713   2.308   9.841   5.551 -1.3430  2.3718 -1.2452
   49MOL0     H 6714   2.478   9.782   5.742  2.9816  0.7055 -0.3492
   49MOL0     H 6715   2.534   9.847   5.586  0.0341  1.4053 -1.4532
   49MOL0     H 6716   2.642  10.013   5.690 -2.7647  6.2968 -1.5801
   49MOL0     H 6717   2.490  10.076   5.727 -1.5231 -0.4291 -2.1614
   49MOL0     H 6718   2.630   9.850   5.873 -1.1414 -0.2920 -4.1124
   49MOL0     H 6719   2.664  10.017   5.931  3.4345  0.1242 -3.9003
   49MOL0     H 6720   2.661   9.855   6.116  1.2490  2.1092  1.8128
   49MOL0     H 6721   2.693   9.893   6.449  0.1543  2.1485 -2.0184
   49MOL0     H 6722   2.766   9.827   6.304  1.0361  0.8775  0.4290
   49MOL0     H 6723   2.673   9.721   6.410 -2.0164  1.4412  3.6408
   49MOL0     H 6724   2.182   9.549   6.629  0.3881 -1.3964  1.9641
   49MOL0     H 6725   2.096   9.517   6.883 -0.6551 -2.2569 -2.0322
   49MOL0     H 6726   2.233   9.861   7.138 -0.6776  0.9711 -2.5185
   49MOL0     H 6727   2.060   9.892   7.132  0.2692  0.1297 -0.2615
   49MOL0     H 6728   2.011   9.730   7.317  1.1552  1.1572  4.0959
   49MOL0     H 6729   2.179   9.704   7.322  0.6527  0.1505 -2.7495
   49MOL0     H 6730   2.055   9.985   7.373  2.0055  3.1333  0.8753
   49MOL0     H 6731   2.224   9.944   7.366 -2.4079  2.1118 -6.4038
   49MOL0     H 6732   2.207   9.820   7.570  1.8772  2.3821 -0.2487
   49MOL0     H 6733   2.035   9.779   7.560 -0.7676  0.3896  0.4042
   49MOL0     H 6734   2.008  10.048   7.566 -0.9022 -3.2267 -1.2823
   49MOL0     H 6735   2.028   9.953   7.714 -0.9517 -1.5447 -0.2061
   49MOL0     H 6736   2.246  10.122   7.568  0.0976  0.3419  0.9522
   49MOL0     H 6737   2.277  10.019   7.707  1.3818  1.3991 -1.2215
   49MOL0     H 6738   2.087  10.135   7.823 -2.8716  0.6416 -1.8677
   49MOL0     H 6739   2.104  10.249   7.685 -1.4369 -1.3591  0.5481
   49MOL0     H 6740   2.236  10.346   7.856  1.9538  0.7278  0.3704
   49MOL0     H 6741   2.326  10.304   7.715 -5.7011  5.4599 -0.7992
   49MOL0     H 6742   2.241   9.917   6.939 -0.6605  0.3060 -1.4708
   49MOL0     H 6743   2.295   9.942   6.711 -1.2284 -0.0054  0.1956
   49MOL0     H 6744   2.205   9.850   6.313  0.7799 -2.4263 -0.0077
   49MOL0     H 6745   2.249   9.932   6.075 -0.1514  1.0220 -0.3115
   49MOL0     H 6746   2.625   9.565   6.228  0.1967 -0.9833  1.4976
   49MOL0     H 6747   2.746   9.614   6.013  0.1921  1.2690  5.3826
   49MOL0     H 6748   2.950   9.519   5.676  1.0230 -0.0824 -1.0211
   49MOL0     H 6749   3.095   9.604   5.503 -0.7611  0.5040 -0.1784
   49MOL0     H 6750   2.918   9.717   5.109 -0.5723 -2.7558  2.6607
   49MOL0     H 6751   3.103   9.740   5.087  1.2953 -2.1905 -2.6162
   49MOL0     H 6752   3.013   9.566   4.950 -1.6252  5.6785  0.5994
   49MOL0     H 6753   2.946   9.475   5.089  2.9284 -3.4325 -0.6958
   49MOL0     H 6754   3.228   9.530   5.011  1.5918  1.0438  1.6401
   49MOL0     H 6755   3.187   9.482   5.178  0.4235 -0.5493 -0.1727
   49MOL0     H 6756   3.052   9.289   5.041  0.2994 -0.8461  1.0452
   49MOL0     H 6757   3.221   9.255   5.088  2.8736  3.6450  2.8040
   49MOL0     H 6758   3.319   9.315   4.687 -1.4553  2.7641 -1.5851
   49MOL0     H 6759   2.763   9.612   5.225 -5.7756  3.1981  2.5457
   49MOL0     H 6760   2.552   9.581   5.284 -0.9144  2.7225 -0.2381
   49MOL0     H 6761   2.505   9.510   5.437 -0.2355  0.5899  2.4858
   49MOL0     H 6762   2.559   9.684   5.442  1.4561  0.0501  0.2112
   50MOL0     O 6763   8.467   7.688   7.475  0.3407 -0.5604  0.1561
   50MOL0     C 6764   8.453   7.794   7.416  0.2109 -0.4417 -0.8069
   50MOL0     O 6765   8.448   7.909   7.474  0.8614 -0.6651  0.0795
   50MOL0     C 6766   8.431   7.910   7.606 -0.1404 -0.2373  0.3285
   50MOL0     C 6767   8.531   7.954   7.694 -0.8766 -0.8266 -0.3561
   50MOL0     C 6768   8.511   7.964   7.836 -0.7901 -0.2159  1.1163
   50MOL0     C 6769   8.390   7.931   7.893 -0.3614 -0.1095 -1.0709
   50MOL0     O 6770   8.387   7.941   8.034  0.5170 -0.2729  0.1566
   50MOL0     C 6771   8.362   7.816   8.100  0.5191  0.7141  0.0948
   50MOL0     C 6772   8.473   7.817   8.212  0.9142 -0.2431 -0.2553
   50MOL0     C 6773   8.472   7.934   8.303  0.2086  0.0270  0.2021
   50MOL0     C 6774   8.333   7.969   8.373 -0.7206 -0.5908 -0.6810
   50MOL0     C 6775   8.361   8.090   8.468 -0.2481  0.0691  0.0482
   50MOL0     C 6776   8.235   8.142   8.528 -0.5459  0.2479 -0.1268
   50MOL0     C 6777   8.257   8.257   8.629  0.2031  0.0126  0.6038
   50MOL0     C 6778   8.124   8.320   8.683 -1.0571 -0.4656  0.1204
   50MOL0     N 6779   8.148   8.451   8.744 -0.1428  0.3270 -0.5198
   50MOL0     C 6780   8.206   8.556   8.681  0.1780  0.5774 -0.1917
   50MOL0     C 6781   8.137   8.669   8.719  0.0791 -0.1085 -0.2823
   50MOL0     C 6782   8.151   8.799   8.643  0.6680 -0.6018  0.7308
   50MOL0     C 6783   8.286   8.848   8.608 -0.0867 -0.1200  0.1402
   50MOL0     C 6784   8.363   8.898   8.738  0.9446 -0.1942 -0.2331
   50MOL0     C 6785   8.513   8.928   8.713 -0.5379 -0.6557  0.2328
   50MOL0     O 6786   8.548   9.014   8.604 -0.5133 -0.7710 -0.5160
   50MOL0     C 6787   8.565   9.150   8.627  0.4655  0.2994  0.1066
   50MOL0     C 6788   8.599   9.218   8.513 -0.2273  0.3898  0.4893
   50MOL0     C 6789   8.614   9.358   8.511 -1.5036 -0.0371 -0.1527
   50MOL0     C 6790   8.669   9.423   8.386  0.8432 -0.1120 -0.2983
   50MOL0     C 6791   8.579   9.435   8.621 -0.5501 -0.2493 -0.5168
   50MOL0     C 6792   8.594   9.586   8.634 -0.9320  0.0223  0.3572
   50MOL0     O 6793   8.499   9.651   8.715 -0.3760 -0.9692 -0.7309
   50MOL0     C 6794   8.466   9.784   8.700  0.2481 -0.1867  0.6376
   50MOL0     C 6795   8.442   9.845   8.576  0.3797 -0.1761  0.4242
   50MOL0     C 6796   8.395   9.973   8.560 -0.3082  0.0215 -0.9447
   50MOL0     C 6797   8.388  10.056   8.671 -0.0503 -0.7167 -0.0570
   50MOL0     O 6798   8.359  10.191   8.659  0.6389  0.3210 -0.0491
   50MOL0     C 6799   8.300  10.246   8.537  0.7003  0.1364 -0.9803
   50MOL0     C 6800   8.257  10.386   8.567 -0.4811  0.0563  0.0154
   50MOL0     C 6801   8.156  10.447   8.479 -0.0514  0.2195  0.9052
   50MOL0     C 6802   8.139  10.602   8.498 -0.4005  0.5886 -1.1659
   50MOL0     C 6803   7.996  10.634   8.436  0.2867  0.3998  0.0473
   50MOL0     C 6804   7.990  10.784   8.433  0.7217  0.6052  0.4650
   50MOL0     C 6805   7.874  10.820   8.353  0.5188 -1.0435 -0.0760
   50MOL0     C 6806   7.839  10.970   8.399 -0.1835 -0.0235 -0.5985
   50MOL0    Cl 6807   7.757  10.962   8.555  0.1975 -0.0416 -0.2978
   50MOL0     C 6808   8.402   9.997   8.798 -0.5233  0.1918  0.0194
   50MOL0     C 6809   8.430   9.866   8.811 -0.4396 -0.5814  0.2063
   50MOL0     O 6810   8.679   9.645   8.566  0.1648  0.2424  0.4653
   50MOL0     C 6811   8.534   9.359   8.736 -1.1172 -0.4155  0.3106
   50MOL0     C 6812   8.525   9.222   8.737 -0.4355 -1.1813 -1.3115
   50MOL0     N 6813   8.064   8.637   8.832  1.3416  0.9964 -0.1026
   50MOL0     N 6814   8.066   8.509   8.837  0.5981 -0.3353  1.1289
   50MOL0     C 6815   8.290   7.882   7.809  0.4577  0.0952  0.3536
   50MOL0     C 6816   8.317   7.859   7.672  0.2652 -0.0739 -0.2560
   50MOL0     C 6817   8.444   7.781   7.272  0.1842 -0.6801 -0.2343
   50MOL0     C 6818   8.450   7.895   7.200 -0.4372  0.3604 -0.0352
   50MOL0     C 6819   8.445   7.894   7.055 -0.2407  0.9868 -0.3184
   50MOL0     C 6820   8.416   7.773   6.984 -0.6256 -0.3939  0.4290
   50MOL0     O 6821   8.425   7.755   6.845 -0.1247  0.1344 -0.4090
   50MOL0     C 6822   8.439   7.869   6.755  0.1371  0.5971 -0.1170
   50MOL0     C 6823   8.302   7.926   6.723 -1.0259 -0.0342 -0.0707
   50MOL0     C 6824   8.318   8.049   6.637 -0.6888 -1.0537 -0.9970
   50MOL0     C 6825   8.347   8.026   6.487  0.1409 -0.3899  0.7745
   50MOL0     C 6826   8.217   7.990   6.419 -0.3900 -0.9530  0.4967
   50MOL0     C 6827   8.112   7.964   6.376 -0.0030 -0.4262  0.0979
   50MOL0     C 6828   8.393   7.664   7.068 -0.4851  0.2071 -0.0496
   50MOL0     C 6829   8.410   7.660   7.202 -0.2158 -0.1749  0.1216
   50MOL0     C 6830   8.366   7.538   7.273 -0.1889 -0.4180  0.1976
   50MOL0     H 6831   8.625   7.987   7.651 -0.7166 -0.5960  0.1648
   50MOL0     H 6832   8.591   8.007   7.896  0.4229  1.6961 -1.5987
   50MOL0     H 6833   8.369   7.725   8.039  1.9919  0.3751  0.7231
   50MOL0     H 6834   8.265   7.807   8.150 -0.1474  1.1788 -1.0851
   50MOL0     H 6835   8.465   7.724   8.269  0.6153  1.4265  2.6448
   50MOL0     H 6836   8.567   7.817   8.156  1.7493 -0.2958  1.1107
   50MOL0     H 6837   8.552   7.918   8.376  0.4801  0.0563 -0.0889
   50MOL0     H 6838   8.488   8.025   8.245  0.0147 -1.3320 -2.1457
   50MOL0     H 6839   8.265   7.995   8.291  0.7661  1.3047 -1.4122
   50MOL0     H 6840   8.287   7.887   8.427 -1.0543  1.4579  2.4499
   50MOL0     H 6841   8.413   8.168   8.410  0.6809  0.2444  1.0745
   50MOL0     H 6842   8.433   8.063   8.546  2.9120  1.9541 -1.9741
   50MOL0     H 6843   8.167   8.170   8.447 -3.0292 -1.0344  1.3673
   50MOL0     H 6844   8.191   8.055   8.578  0.4297 -0.6018 -0.7061
   50MOL0     H 6845   8.315   8.336   8.580 -0.2413  1.4123  2.2396
   50MOL0     H 6846   8.315   8.215   8.712  2.3809  0.0571 -0.8095
   50MOL0     H 6847   8.053   8.345   8.604 -3.4299  1.3639  2.6082
   50MOL0     H 6848   8.077   8.252   8.755  0.2343  0.3277  1.7866
   50MOL0     H 6849   8.276   8.545   8.599 -2.8021  1.5668 -3.0866
   50MOL0     H 6850   8.100   8.887   8.684  0.2397  1.9634 -4.4371
   50MOL0     H 6851   8.103   8.805   8.545  2.7895  3.9972 -0.2814
   50MOL0     H 6852   8.343   8.775   8.551  0.2155 -0.0400  0.3381
   50MOL0     H 6853   8.271   8.935   8.543 -1.2422  0.8224  1.5942
   50MOL0     H 6854   8.311   8.988   8.771 -1.7996 -1.2295 -1.4244
   50MOL0     H 6855   8.348   8.829   8.822 -1.1056  0.4946  0.0267
   50MOL0     H 6856   8.551   8.961   8.810  0.2608 -0.7505 -0.0445
   50MOL0     H 6857   8.561   8.834   8.687  0.1012  0.4352 -2.8526
   50MOL0     H 6858   8.607   9.179   8.412 -2.3214  0.3049  0.3034
   50MOL0     H 6859   8.662   9.356   8.300 -4.5858  2.0212 -1.9809
   50MOL0     H 6860   8.770   9.456   8.413  0.7344 -1.5062  2.1391
   50MOL0     H 6861   8.599   9.505   8.367 -2.4375 -2.4985  0.4805
   50MOL0     H 6862   8.457   9.785   8.486  0.5596  2.2744 -1.2961
   50MOL0     H 6863   8.379  10.007   8.458  0.7133  1.2852 -0.7093
   50MOL0     H 6864   8.376  10.240   8.458  3.5006  1.6697  1.4169
   50MOL0     H 6865   8.208  10.190   8.515  1.5824 -2.3175  1.0822
   50MOL0     H 6866   8.221  10.387   8.670 -0.8369  0.2614 -0.1094
   50MOL0     H 6867   8.337  10.461   8.561  0.1393 -0.5783  0.1988
   50MOL0     H 6868   8.064  10.389   8.496  1.4224 -2.2858  0.7973
   50MOL0     H 6869   8.172  10.421   8.374 -2.5874 -1.3070  0.8027
   50MOL0     H 6870   8.224  10.648   8.445  1.4868 -1.0239  0.2775
   50MOL0     H 6871   8.137  10.628   8.604 -0.8500  0.2130 -1.0821
   50MOL0     H 6872   7.977  10.596   8.335 -3.4058 -0.5141  0.9670
   50MOL0     H 6873   7.920  10.598   8.505  2.0101 -4.4447 -0.2201
   50MOL0     H 6874   8.085  10.821   8.393  1.7232 -0.8870  1.3395
   50MOL0     H 6875   7.976  10.817   8.536 -1.9768 -2.0913  1.1024
   50MOL0     H 6876   7.785  10.756   8.359  0.9711 -1.8796 -1.6589
   50MOL0     H 6877   7.893  10.813   8.245 -0.5877 -3.8722 -0.1864
   50MOL0     H 6878   7.788  11.020   8.316  2.2725  0.8387 -1.6981
   50MOL0     H 6879   7.934  11.022   8.412  0.1013 -0.7441  0.3670
   50MOL0     H 6880   8.389  10.056   8.888 -2.8741 -2.0782  1.2877
   50MOL0     H 6881   8.425   9.823   8.910  0.4889 -3.0322 -0.7235
   50MOL0     H 6882   8.518   9.399   8.835 -2.6763 -0.8095  0.2351
   50MOL0     H 6883   8.472   9.184   8.824  1.2648  0.9457  0.7939
   50MOL0     H 6884   8.193   7.862   7.854  0.5817  1.5687  1.3298
   50MOL0     H 6885   8.245   7.815   7.604  3.1424 -0.6142 -3.1834
   50MOL0     H 6886   8.458   7.989   7.254 -0.8896  1.0576 -1.1331
   50MOL0     H 6887   8.469   7.985   7.001 -0.1864  1.1665  0.0050
   50MOL0     H 6888   8.515   7.938   6.793  2.7630 -1.6193 -1.0218
   50MOL0     H 6889   8.481   7.839   6.658  1.0326  1.2231  0.0598
   50MOL0     H 6890   8.245   7.950   6.813 -0.2027  0.4829  0.3286
   50MOL0     H 6891   8.250   7.853   6.660 -1.2853 -0.7430  0.9400
   50MOL0     H 6892   8.223   8.100   6.657  0.0861 -0.8689  2.9249
   50MOL0     H 6893   8.401   8.109   6.675 -1.6296  0.3661 -1.1118
   50MOL0     H 6894   8.427   7.953   6.474 -0.5748 -0.6860 -3.0712
   50MOL0     H 6895   8.380   8.121   6.444 -2.3162  1.0094  1.7354
   50MOL0     H 6896   8.026   7.932   6.320  0.0656 -0.3923 -0.0267
   50MOL0     H 6897   8.365   7.571   7.019 -2.3679 -1.4279  3.7555
   50MOL0     H 6898   8.335   7.452   7.213 -1.6850  0.8609 -0.9887
   50MOL0     H 6899   8.445   7.502   7.339 -1.1015  0.8185  2.0564
   50MOL0     H 6900   8.275   7.555   7.332 -1.0313 -3.1883 -0.1903
   51MOL0     O 6901   5.123   0.056   7.582 -0.0439  0.1797 -0.5588
   51MOL0     C 6902   5.129   0.001   7.468 -0.2764 -0.3229 -0.2975
   51MOL0     O 6903   5.195   0.051   7.353  0.0285  0.3624 -0.4614
   51MOL0     C 6904   5.282   0.162   7.340  0.1600 -0.4601  0.6543
   51MOL0     C 6905   5.307   0.204   7.204 -0.0242  0.4063  0.2470
   51MOL0     C 6906   5.416   0.286   7.178 -0.0948  0.3660  0.2305
   51MOL0     C 6907   5.483   0.348   7.277  0.5168 -0.4579 -1.2529
   51MOL0     O 6908   5.578   0.454   7.259 -0.7707 -0.5410 -0.2833
   51MOL0     C 6909   5.628   0.493   7.127 -0.1442  0.9836  0.1574
   51MOL0     C 6910   5.702   0.630   7.126 -0.5343  0.1458 -0.9707
   51MOL0     C 6911   5.817   0.641   7.242  0.1673 -0.1045 -0.3389
   51MOL0     C 6912   5.868   0.786   7.249 -0.9714 -0.7268 -0.5949
   51MOL0     C 6913   6.012   0.795   7.315  0.3511  0.4645 -0.6888
   51MOL0     C 6914   6.043   0.948   7.313  0.4736 -0.8772 -1.3681
   51MOL0     C 6915   5.963   1.032   7.424  0.0747  1.1536 -1.2311
   51MOL0     C 6916   5.972   1.180   7.393 -0.0774  0.4770  0.6264
   51MOL0     N 6917   6.113   1.228   7.365  0.0120 -0.0781 -0.4600
   51MOL0     C 6918   6.193   1.274   7.465 -0.0279 -0.6854  1.3322
   51MOL0     C 6919   6.309   1.336   7.414  0.2182 -0.0522 -0.0966
   51MOL0     C 6920   6.422   1.413   7.478 -0.4956 -0.1222  0.4010
   51MOL0     C 6921   6.433   1.352   7.618  0.2844 -0.2525  0.0546
   51MOL0     C 6922   6.572   1.372   7.683 -0.1294 -0.0204 -0.1694
   51MOL0     C 6923   6.632   1.511   7.679 -0.2512 -0.5111  0.8083
   51MOL0     O 6924   6.540   1.600   7.744 -0.6388  0.2632 -0.5812
   51MOL0     C 6925   6.544   1.601   7.878  0.5427  0.4193 -0.4398
   51MOL0     C 6926   6.638   1.535   7.962  0.6867  0.6134 -0.2883
   51MOL0     C 6927   6.619   1.521   8.100  0.3955 -0.0148 -0.1572
   51MOL0     C 6928   6.733   1.454   8.175  0.1147 -0.2838  1.4457
   51MOL0     C 6929   6.504   1.583   8.161  0.0366  0.7927  0.0882
   51MOL0     C 6930   6.466   1.579   8.304  0.2545  1.1966  0.4358
   51MOL0     O 6931   6.340   1.554   8.326 -0.3298  0.1099 -0.7472
   51MOL0     C 6932   6.300   1.567   8.456  0.3739 -0.9509  0.3061
   51MOL0     C 6933   6.298   1.451   8.524  0.2189  0.2508 -0.1049
   51MOL0     C 6934   6.257   1.440   8.659 -0.4910  0.0149 -0.8813
   51MOL0     C 6935   6.238   1.557   8.736  0.6373 -0.3538  0.3048
   51MOL0     O 6936   6.219   1.576   8.873  0.3462  0.3455 -0.0040
   51MOL0     C 6937   6.303   1.487   8.956  0.4452 -0.8067  0.1984
   51MOL0     C 6938   6.327   1.540   9.089  0.0701  0.7952 -0.1284
   51MOL0     C 6939   6.479   1.539   9.124 -0.1563 -0.7370 -1.0021
   51MOL0     C 6940   6.479   1.613   9.260 -0.5782 -0.6769  0.8665
   51MOL0     C 6941   6.624   1.602   9.327  0.3573  0.1041  0.6740
   51MOL0     C 6942   6.643   1.702   9.448  0.3986 -0.7318  0.4999
   51MOL0     C 6943   6.756   1.672   9.541  0.1362  0.4124 -0.3443
   51MOL0     C 6944   6.896   1.737   9.494 -0.5882 -0.1714 -0.0447
   51MOL0    Cl 6945   7.031   1.632   9.564  0.1630  0.2111 -0.0761
   51MOL0     C 6946   6.249   1.675   8.660  0.2571  0.4562  0.0250
   51MOL0     C 6947   6.266   1.682   8.523 -0.5199 -0.1011  0.4384
   51MOL0     O 6948   6.557   1.589   8.390  1.1017  1.1029  0.3916
   51MOL0     C 6949   6.412   1.651   8.075  0.1296  0.6825  0.9598
   51MOL0     C 6950   6.433   1.657   7.937 -0.4362 -0.2351  0.0914
   51MOL0     N 6951   6.289   1.327   7.273 -0.5860 -0.0795 -0.4345
   51MOL0     N 6952   6.169   1.270   7.246  0.4355  0.4558  0.3616
   51MOL0     C 6953   5.444   0.328   7.411 -0.6709 -0.5404  0.0777
   51MOL0     C 6954   5.346   0.229   7.441 -1.4089  0.1573  0.2303
   51MOL0     C 6955   5.063  -0.134   7.445 -0.3550 -0.4292  0.3859
   51MOL0     C 6956   5.066  -0.183   7.313  0.3969 -0.3841  0.5738
   51MOL0     C 6957   5.031  -0.311   7.275  0.8198 -0.5158  0.4112
   51MOL0     C 6958   4.999  -0.406   7.373  0.3102 -0.2174 -0.1392
   51MOL0     O 6959   4.971  -0.539   7.354  0.3827 -0.2749  0.5058
   51MOL0     C 6960   4.944  -0.576   7.223  1.2529 -0.1184 -0.4434
   51MOL0     C 6961   4.871  -0.714   7.221  1.3414 -0.4676 -0.0931
   51MOL0     C 6962   4.724  -0.717   7.271  0.5026  0.2293 -0.1794
   51MOL0     C 6963   4.712  -0.700   7.425  0.4214  0.4109 -0.3557
   51MOL0     C 6964   4.576  -0.752   7.475 -0.4278  0.7082  0.2340
   51MOL0     C 6965   4.470  -0.802   7.482  0.1151  0.2062 -0.1157
   51MOL0     C 6966   4.993  -0.356   7.507 -0.2987  0.1559  0.2976
   51MOL0     C 6967   5.024  -0.227   7.545  0.1133 -0.0655 -0.0798
   51MOL0     C 6968   5.042  -0.188   7.693  0.6238 -0.2652  0.0107
   51MOL0     H 6969   5.287   0.131   7.126  0.4270 -2.4743  2.6292
   51MOL0     H 6970   5.448   0.311   7.077 -3.0800  3.7708 -0.0585
   51MOL0     H 6971   5.549   0.497   7.052  0.9405  1.9186 -0.9894
   51MOL0     H 6972   5.685   0.409   7.085 -3.5997  0.5042 -4.3084
   51MOL0     H 6973   5.744   0.651   7.027 -1.5413 -0.3283 -1.5065
   51MOL0     H 6974   5.629   0.709   7.145  0.1753  0.8633 -1.1908
   51MOL0     H 6975   5.804   0.608   7.345  2.5365  2.8671  1.0686
   51MOL0     H 6976   5.897   0.570   7.218  2.1704  1.2498  1.8900
   51MOL0     H 6977   5.878   0.843   7.157  1.3200  0.4764  0.3057
   51MOL0     H 6978   5.800   0.835   7.320 -1.4213 -1.9250 -0.1607
   51MOL0     H 6979   6.083   0.738   7.253  0.8589  1.5519 -1.1326
   51MOL0     H 6980   6.013   0.748   7.414 -1.8827 -0.2915 -0.9706
   51MOL0     H 6981   6.148   0.958   7.341 -0.5823 -0.7022  3.3514
   51MOL0     H 6982   6.023   1.004   7.221  1.7793  2.1690  0.0664
   51MOL0     H 6983   5.995   1.013   7.527 -0.4115 -1.8683 -1.5546
   51MOL0     H 6984   5.856   1.010   7.423 -0.1759  2.2464 -0.2578
   51MOL0     H 6985   5.912   1.193   7.302  0.1108 -0.0664  0.4256
   51MOL0     H 6986   5.924   1.231   7.477 -1.0878  1.3540 -0.4404
   51MOL0     H 6987   6.181   1.283   7.573 -2.4472  1.2265  0.9775
   51MOL0     H 6988   6.397   1.519   7.482  3.5264  1.3421 -3.7081
   51MOL0     H 6989   6.508   1.404   7.410  0.0855  2.0560  0.7524
   51MOL0     H 6990   6.363   1.404   7.684 -1.0759 -2.4077  0.4290
   51MOL0     H 6991   6.422   1.243   7.620  1.3823 -0.3678  1.0430
   51MOL0     H 6992   6.553   1.331   7.783 -2.9197 -0.1001 -0.6522
   51MOL0     H 6993   6.643   1.302   7.639 -1.4802 -3.1028  2.1167
   51MOL0     H 6994   6.737   1.523   7.709  0.3243  4.0925 -2.0463
   51MOL0     H 6995   6.635   1.545   7.575  0.5592  1.2477  1.3717
   51MOL0     H 6996   6.731   1.495   7.922  0.5401  0.7184 -0.7406
   51MOL0     H 6997   6.789   1.532   8.228  0.9544  0.7401 -0.8322
   51MOL0     H 6998   6.806   1.415   8.105 -1.0124 -0.8912  0.5836
   51MOL0     H 6999   6.709   1.380   8.252 -0.2674 -2.1423 -0.3784
   51MOL0     H 7000   6.309   1.357   8.472  1.1720  1.3070 -1.8864
   51MOL0     H 7001   6.239   1.339   8.695  1.2439  0.7548  2.4020
   51MOL0     H 7002   6.259   1.387   8.957  1.4474 -1.3954 -2.7919
   51MOL0     H 7003   6.396   1.471   8.900 -0.4449 -1.6917 -1.0802
   51MOL0     H 7004   6.283   1.639   9.103 -1.1501  0.0460  1.7741
   51MOL0     H 7005   6.279   1.475   9.163  0.1940  1.4508  0.5439
   51MOL0     H 7006   6.543   1.588   9.050  1.2513  0.8803  1.1657
   51MOL0     H 7007   6.506   1.436   9.149 -2.1419 -1.0001  0.3470
   51MOL0     H 7008   6.399   1.576   9.326  1.3066  0.6272  4.1341
   51MOL0     H 7009   6.464   1.720   9.242 -2.6424 -0.7523  1.8146
   51MOL0     H 7010   6.638   1.497   9.355 -0.6346 -0.6096 -1.3208
   51MOL0     H 7011   6.696   1.617   9.247 -1.5730 -1.1745 -1.4479
   51MOL0     H 7012   6.545   1.705   9.498 -0.1484 -5.0160  0.0966
   51MOL0     H 7013   6.660   1.806   9.421 -1.6064 -0.5261 -0.1377
   51MOL0     H 7014   6.751   1.563   9.552 -0.9033  0.4104 -0.7861
   51MOL0     H 7015   6.736   1.698   9.645 -0.4053  0.2066 -0.3965
   51MOL0     H 7016   6.911   1.839   9.531 -1.0956  0.9400 -2.7084
   51MOL0     H 7017   6.916   1.733   9.387  1.6375  0.1843  0.3062
   51MOL0     H 7018   6.233   1.762   8.723 -1.9906 -0.5669  0.9752
   51MOL0     H 7019   6.251   1.769   8.461 -0.0689 -0.9782 -0.9511
   51MOL0     H 7020   6.341   1.714   8.127 -2.6676 -0.7222 -0.9247
   51MOL0     H 7021   6.367   1.715   7.872 -2.0795  0.2959  2.1270
   51MOL0     H 7022   5.494   0.369   7.498  1.1880  6.1553 -3.4887
   51MOL0     H 7023   5.337   0.197   7.545 -0.7624  0.8135  0.4958
   51MOL0     H 7024   5.089  -0.120   7.228 -0.1240 -2.9168 -1.5853
   51MOL0     H 7025   5.041  -0.330   7.169 -0.4957  1.9843 -0.2192
   51MOL0     H 7026   4.866  -0.505   7.195  2.6184  0.9458 -1.7036
   51MOL0     H 7027   5.036  -0.566   7.164  0.7480 -0.5625 -1.3416
   51MOL0     H 7028   4.925  -0.769   7.300  2.2654  0.9406  0.2869
   51MOL0     H 7029   4.873  -0.766   7.125 -0.9656 -1.2193  0.2015
   51MOL0     H 7030   4.680  -0.634   7.214 -1.7978  0.3448  1.6106
   51MOL0     H 7031   4.676  -0.813   7.252  0.8470 -1.0021  4.2297
   51MOL0     H 7032   4.711  -0.595   7.457  0.1491  0.1796  0.4139
   51MOL0     H 7033   4.789  -0.757   7.478 -0.3498 -0.9467 -0.6570
   51MOL0     H 7034   4.372  -0.842   7.503  0.5888  0.2024  2.3208
   51MOL0     H 7035   4.959  -0.434   7.574  1.8429  1.4471  3.0502
   51MOL0     H 7036   4.979  -0.101   7.714  1.0780  0.4591 -1.4604
   51MOL0     H 7037   5.013  -0.271   7.758  2.6132 -3.3672 -2.6951
   51MOL0     H 7038   5.147  -0.169   7.719  0.2518  1.2480  0.4923
   52MOL0     O 7039   6.493   3.219   3.754 -0.4480  0.7195 -0.0836
   52MOL0     C 7040   6.491   3.187   3.638 -0.0032  0.0085  0.3896
   52MOL0     O 7041   6.576   3.229   3.540 -0.2572 -0.8487  1.2781
   52MOL0     C 7042   6.679   3.309   3.574 -0.1419 -0.0965 -0.4826
   52MOL0     C 7043   6.780   3.264   3.657  0.4774 -0.3100  0.0621
   52MOL0     C 7044   6.893   3.349   3.674 -0.6691  0.0531 -0.0998
   52MOL0     C 7045   6.887   3.480   3.630  0.2512 -0.0539  0.1315
   52MOL0     O 7046   6.997   3.556   3.662  0.0947  0.6749  0.4585
   52MOL0     C 7047   6.968   3.700   3.667  0.0290 -0.0966  0.1896
   52MOL0     C 7048   7.069   3.764   3.765  0.4339 -0.2164 -0.6751
   52MOL0     C 7049   7.045   3.917   3.786  0.2077  1.3047  0.5966
   52MOL0     C 7050   7.099   4.004   3.676 -0.3203 -0.1084  0.4665
   52MOL0     C 7051   7.095   4.151   3.710  0.6092 -0.6274 -0.5446
   52MOL0     C 7052   7.140   4.231   3.585  0.3848  0.0394 -0.5402
   52MOL0     C 7053   7.096   4.382   3.613  0.5451  0.2515  0.0295
   52MOL0     C 7054   7.162   4.459   3.726 -0.6564 -0.3012  0.7608
   52MOL0     N 7055   7.296   4.495   3.672 -0.4173 -0.6510 -0.6124
   52MOL0     C 7056   7.430   4.463   3.725  0.3016  0.5015 -0.4387
   52MOL0     C 7057   7.510   4.546   3.656 -0.8297  0.7761 -0.0871
   52MOL0     C 7058   7.656   4.539   3.685 -0.8393 -0.0519 -0.0721
   52MOL0     C 7059   7.751   4.595   3.580  0.7945 -0.4471 -1.0038
   52MOL0     C 7060   7.746   4.510   3.461  0.1729 -0.7278  0.8126
   52MOL0     C 7061   7.848   4.559   3.364 -0.3725 -0.1669  0.4490
   52MOL0     O 7062   7.988   4.532   3.407  0.5646 -0.1890  1.1500
   52MOL0     C 7063   8.033   4.407   3.394 -1.2072 -0.0410  0.1185
   52MOL0     C 7064   8.172   4.391   3.399 -0.6569 -0.5601  0.0736
   52MOL0     C 7065   8.238   4.260   3.389  0.6036 -0.2724  0.2965
   52MOL0     C 7066   8.389   4.236   3.413  0.5855 -0.0490  0.0426
   52MOL0     C 7067   8.157   4.148   3.356 -0.3283 -1.4079 -0.0858
   52MOL0     C 7068   8.203   4.007   3.346 -0.4933  0.3601 -0.6469
   52MOL0     O 7069   8.140   3.906   3.406  0.8115  0.1992 -0.2748
   52MOL0     C 7070   8.204   3.782   3.417  0.4015 -0.0310  0.4303
   52MOL0     C 7071   8.312   3.763   3.503  0.7893  0.1596  0.3119
   52MOL0     C 7072   8.362   3.636   3.528  0.1222  0.3962  0.3626
   52MOL0     C 7073   8.314   3.513   3.473  0.0464  1.0271  0.4582
   52MOL0     O 7074   8.350   3.380   3.491  0.8800  0.6833  0.1276
   52MOL0     C 7075   8.489   3.358   3.529 -0.0197 -0.5173 -0.8816
   52MOL0     C 7076   8.578   3.363   3.410 -0.1550 -1.2537 -0.4180
   52MOL0     C 7077   8.593   3.241   3.317  0.9501 -0.0396  0.1671
   52MOL0     C 7078   8.462   3.210   3.244  0.9625 -0.5144  0.1727
   52MOL0     C 7079   8.428   3.313   3.129  0.4673  0.8622 -0.3762
   52MOL0     C 7080   8.285   3.321   3.079 -0.3741  0.6297 -0.5908
   52MOL0     C 7081   8.259   3.210   2.969  0.4546  0.0111  0.0581
   52MOL0     C 7082   8.114   3.168   2.970 -0.2144 -0.3519 -0.0594
   52MOL0    Cl 7083   8.082   3.043   2.850 -0.0344 -0.1941  0.2488
   52MOL0     C 7084   8.199   3.537   3.387 -0.3830  0.0264  0.1819
   52MOL0     C 7085   8.149   3.660   3.362  0.3406 -0.4157 -0.4201
   52MOL0     O 7086   8.303   3.987   3.278  0.2478  0.0310  0.2609
   52MOL0     C 7087   8.022   4.164   3.342  0.8250  0.0416  0.4390
   52MOL0     C 7088   7.963   4.290   3.358  0.4543  0.1289  0.3146
   52MOL0     N 7089   7.444   4.616   3.556 -0.0546 -0.7832  0.1814
   52MOL0     N 7090   7.320   4.582   3.570 -0.3590 -0.7289  0.6969
   52MOL0     C 7091   6.792   3.528   3.546 -0.3091  0.4291 -0.0716
   52MOL0     C 7092   6.684   3.440   3.511 -0.7607 -0.0369 -0.2746
   52MOL0     C 7093   6.374   3.104   3.601  0.5036 -0.0626 -0.2220
   52MOL0     C 7094   6.332   3.099   3.463 -0.0513 -0.0476 -0.1319
   52MOL0     C 7095   6.231   3.017   3.411  0.4082  0.7066 -0.6700
   52MOL0     C 7096   6.149   2.947   3.502  0.6789 -0.3465 -0.4192
   52MOL0     O 7097   6.042   2.874   3.454 -0.8690 -0.4387  0.2987
   52MOL0     C 7098   5.949   2.798   3.543 -0.4767 -0.2622 -0.4032
   52MOL0     C 7099   5.857   2.714   3.453 -0.4475  0.2371  0.5108
   52MOL0     C 7100   5.799   2.599   3.537  0.7946  1.2907  0.2005
   52MOL0     C 7101   5.883   2.501   3.632 -1.2036  0.4788 -0.1085
   52MOL0     C 7102   5.801   2.386   3.671 -0.4148  0.2031 -0.2850
   52MOL0     C 7103   5.731   2.295   3.722 -0.6783 -0.1946 -0.5210
   52MOL0     C 7104   6.188   2.948   3.639  0.5050 -0.1792 -0.4820
   52MOL0     C 7105   6.294   3.019   3.689  0.4530 -1.2826 -1.2309
   52MOL0     C 7106   6.341   2.993   3.822  0.3222  0.1009 -0.0062
   52MOL0     H 7107   6.778   3.160   3.688  2.5231 -0.1825  0.7227
   52MOL0     H 7108   6.976   3.317   3.735 -0.6546 -3.2197 -1.6731
   52MOL0     H 7109   6.865   3.722   3.697  0.1119 -1.3973  1.5859
   52MOL0     H 7110   6.978   3.736   3.564  0.0016 -5.0322 -1.8150
   52MOL0     H 7111   7.063   3.717   3.863  0.8034  0.9592 -0.0762
   52MOL0     H 7112   7.167   3.746   3.719  2.1832  4.1168  0.8225
   52MOL0     H 7113   6.938   3.938   3.796 -1.0362 -3.2919 -0.7368
   52MOL0     H 7114   7.100   3.937   3.878  2.8269  0.3930 -0.6847
   52MOL0     H 7115   7.196   3.969   3.641 -1.5283 -0.8982 -2.4273
   52MOL0     H 7116   7.032   3.991   3.590 -0.1975 -0.6277  0.4451
   52MOL0     H 7117   7.164   4.184   3.788  2.4116  0.4510 -2.4601
   52MOL0     H 7118   6.992   4.175   3.738 -0.0463 -3.9862  0.2482
   52MOL0     H 7119   7.249   4.224   3.578  0.2359 -2.7276 -1.6836
   52MOL0     H 7120   7.107   4.201   3.485  1.8022 -2.8275 -0.2694
   52MOL0     H 7121   6.990   4.395   3.637  0.3752  2.7194 -1.7707
   52MOL0     H 7122   7.121   4.436   3.521  1.6040 -4.0289 -2.4606
   52MOL0     H 7123   7.101   4.545   3.756 -0.3820 -1.1901  4.3017
   52MOL0     H 7124   7.177   4.408   3.821 -1.9334  2.9352  2.8580
   52MOL0     H 7125   7.448   4.389   3.802  0.8868  2.9470  1.8918
   52MOL0     H 7126   7.690   4.444   3.726  0.6435  0.9295  1.0786
   52MOL0     H 7127   7.669   4.606   3.770 -0.6110 -1.9766  1.4800
   52MOL0     H 7128   7.716   4.697   3.562  1.2111 -0.0927  0.1021
   52MOL0     H 7129   7.850   4.604   3.625  0.0585 -1.9114  1.0728
   52MOL0     H 7130   7.757   4.407   3.495  1.2583 -0.6251  0.8198
   52MOL0     H 7131   7.654   4.528   3.404  0.1916  0.3238  1.0861
   52MOL0     H 7132   7.836   4.514   3.265 -3.3495  1.0826  0.1405
   52MOL0     H 7133   7.833   4.667   3.353 -1.5075 -0.4174 -0.6563
   52MOL0     H 7134   8.238   4.475   3.419 -0.2656 -1.1484  1.3739
   52MOL0     H 7135   8.445   4.309   3.354  1.8431 -1.0441 -0.0410
   52MOL0     H 7136   8.418   4.132   3.400 -0.5814 -0.3451 -0.2901
   52MOL0     H 7137   8.410   4.270   3.515 -1.7404 -0.8336  0.8523
   52MOL0     H 7138   8.343   3.858   3.546  1.0460  1.8082 -3.1519
   52MOL0     H 7139   8.449   3.627   3.593 -2.4807  0.0577  4.1324
   52MOL0     H 7140   8.529   3.441   3.588 -1.7876  2.4535 -3.5442
   52MOL0     H 7141   8.493   3.264   3.586  0.3954 -0.0302 -0.0987
   52MOL0     H 7142   8.558   3.452   3.350  0.2435 -1.1083 -0.3342
   52MOL0     H 7143   8.680   3.384   3.443  0.1949 -1.9532 -1.0060
   52MOL0     H 7144   8.636   3.161   3.378  0.2418  0.8463  1.9012
   52MOL0     H 7145   8.664   3.275   3.241 -0.8624  2.7839 -0.4214
   52MOL0     H 7146   8.380   3.204   3.317  0.8950 -2.4734 -0.0001
   52MOL0     H 7147   8.466   3.110   3.199  1.0499 -2.7551  4.5962
   52MOL0     H 7148   8.449   3.414   3.166  1.6772  2.1271 -4.0162
   52MOL0     H 7149   8.490   3.288   3.042 -0.8559 -0.7262 -0.9265
   52MOL0     H 7150   8.270   3.416   3.028  1.7266  0.3203 -1.9025
   52MOL0     H 7151   8.206   3.322   3.155 -0.2900  2.5626 -0.4958
   52MOL0     H 7152   8.322   3.122   2.984  0.2564 -0.6008 -2.2759
   52MOL0     H 7153   8.287   3.238   2.867  0.2616  1.1051  0.2995
   52MOL0     H 7154   8.060   3.261   2.951  2.0946  1.4002  1.4742
   52MOL0     H 7155   8.077   3.127   3.065 -0.5768  0.9554  0.3917
   52MOL0     H 7156   8.159   3.441   3.357  0.0416 -1.2255  3.2715
   52MOL0     H 7157   8.063   3.685   3.299  1.5223 -0.7124 -2.2393
   52MOL0     H 7158   7.956   4.078   3.339 -1.7517  1.9148 -1.2756
   52MOL0     H 7159   7.855   4.293   3.355  0.2415 -1.6138  2.9945
   52MOL0     H 7160   6.798   3.630   3.509 -0.1664  2.2203  4.2275
   52MOL0     H 7161   6.616   3.450   3.427  0.9055 -1.4527 -1.8627
   52MOL0     H 7162   6.387   3.161   3.393 -0.6297  0.2823 -0.2933
   52MOL0     H 7163   6.200   3.030   3.307 -1.3059  0.7641 -0.1890
   52MOL0     H 7164   6.003   2.730   3.610 -2.2324 -1.9800 -0.6298
   52MOL0     H 7165   5.894   2.868   3.606  2.0679  1.4091  0.1202
   52MOL0     H 7166   5.908   2.673   3.365  2.1637 -0.4739  2.2383
   52MOL0     H 7167   5.782   2.780   3.409  1.4791  0.1317 -3.3846
   52MOL0     H 7168   5.710   2.638   3.586 -1.3051 -0.0939 -2.2350
   52MOL0     H 7169   5.751   2.530   3.466  1.4562  1.3936 -0.3594
   52MOL0     H 7170   5.932   2.548   3.718  0.5706 -2.4572  0.6367
   52MOL0     H 7171   5.968   2.454   3.582 -1.5353  1.7155 -1.9208
   52MOL0     H 7172   5.665   2.228   3.773 -0.6648  0.5063  0.4328
   52MOL0     H 7173   6.129   2.891   3.710  0.9652 -0.7747 -0.5748
   52MOL0     H 7174   6.279   2.915   3.867 -0.5060 -0.4748 -2.0262
   52MOL0     H 7175   6.439   2.946   3.819 -0.2045 -1.0220  0.1333
   52MOL0     H 7176   6.332   3.090   3.872  0.5320  0.2608 -0.2720
   53MOL0     O 7177   6.611   1.052   5.228  0.1964 -0.0800  0.2227
   53MOL0     C 7178   6.561   1.172   5.227  0.0237 -0.8014  0.0178
   53MOL0     O 7179   6.530   1.248   5.121 -0.5430  0.2318  0.5869
   53MOL0     C 7180   6.557   1.208   4.991  0.6367 -0.0034 -0.3858
   53MOL0     C 7181   6.684   1.193   4.948  0.3350  0.5577 -0.3954
   53MOL0     C 7182   6.714   1.158   4.812  0.5239  0.3473 -0.6139
   53MOL0     C 7183   6.606   1.144   4.720 -0.6595  0.1188 -1.2665
   53MOL0     O 7184   6.636   1.113   4.594  0.2003  0.3334  0.3265
   53MOL0     C 7185   6.734   1.194   4.529  0.5991  0.0436  0.1295
   53MOL0     C 7186   6.727   1.142   4.380  0.5533 -0.5918  0.8412
   53MOL0     C 7187   6.579   1.147   4.315  0.1830  0.5392  0.1474
   53MOL0     C 7188   6.587   1.098   4.179  0.5963  0.1616  0.8274
   53MOL0     C 7189   6.468   1.132   4.083 -0.1552 -0.9842  0.4362
   53MOL0     C 7190   6.363   1.048   4.122  0.1812 -0.6687 -0.7300
   53MOL0     C 7191   6.238   1.083   4.048  0.0264  0.2713  0.0411
   53MOL0     C 7192   6.125   0.985   4.076 -0.2013  0.1068  0.1241
   53MOL0     N 7193   5.994   1.013   4.029  0.7859 -0.6177 -0.2380
   53MOL0     C 7194   5.955   1.024   3.897  0.8385  0.6555  0.0127
   53MOL0     C 7195   5.823   1.054   3.900 -0.7835  0.3391 -0.2591
   53MOL0     C 7196   5.733   1.065   3.769 -0.2363 -0.8063  0.1461
   53MOL0     C 7197   5.600   1.125   3.809 -0.1513 -0.2665  0.2303
   53MOL0     C 7198   5.508   1.090   3.696  1.1732 -0.2821  0.0261
   53MOL0     C 7199   5.386   1.188   3.710 -0.4310 -0.1439 -0.1370
   53MOL0     O 7200   5.294   1.186   3.600 -0.2844 -0.0610  0.0716
   53MOL0     C 7201   5.174   1.238   3.627  0.6806 -0.7371 -0.1557
   53MOL0     C 7202   5.069   1.207   3.545  0.1994  0.7309 -0.0213
   53MOL0     C 7203   4.935   1.223   3.580 -0.0216  0.6820 -0.1555
   53MOL0     C 7204   4.836   1.150   3.497 -0.1021 -0.0661  0.3924
   53MOL0     C 7205   4.900   1.302   3.693 -0.1451  0.5733  0.9940
   53MOL0     C 7206   4.756   1.326   3.740 -0.3323 -0.1149 -0.3336
   53MOL0     O 7207   4.736   1.427   3.840  0.1190  0.4096 -0.0095
   53MOL0     C 7208   4.628   1.435   3.918 -0.2809  0.8348 -0.1120
   53MOL0     C 7209   4.649   1.502   4.048  0.1689 -0.3612  0.5961
   53MOL0     C 7210   4.543   1.518   4.137 -1.1448  0.1805  0.9736
   53MOL0     C 7211   4.419   1.481   4.106 -0.3865  0.0838  0.5196
   53MOL0     O 7212   4.325   1.516   4.196  0.7537 -0.0840 -0.1011
   53MOL0     C 7213   4.190   1.487   4.166  1.1991 -0.1531  0.1073
   53MOL0     C 7214   4.102   1.535   4.285 -0.6174  0.0079  0.3673
   53MOL0     C 7215   4.096   1.687   4.309 -0.1564  0.6823 -0.3506
   53MOL0     C 7216   4.014   1.772   4.215  0.3796  0.1047 -0.8837
   53MOL0     C 7217   4.003   1.924   4.255  0.5070 -0.1389 -0.1454
   53MOL0     C 7218   3.928   1.997   4.146 -0.6112  1.0395 -0.3042
   53MOL0     C 7219   3.894   2.144   4.172  0.5233  1.1063  0.1347
   53MOL0     C 7220   3.785   2.160   4.270 -0.1250 -0.5362  0.0764
   53MOL0    Cl 7221   3.767   2.346   4.295  0.1295  0.4940 -0.6046
   53MOL0     C 7222   4.392   1.412   3.981 -1.2805 -0.3297 -0.5265
   53MOL0     C 7223   4.497   1.382   3.893 -0.2170  0.2516 -0.5308
   53MOL0     O 7224   4.664   1.270   3.676 -0.3616  0.0901 -0.3085
   53MOL0     C 7225   5.010   1.367   3.756 -0.8094  0.1523 -0.4149
   53MOL0     C 7226   5.142   1.331   3.727 -0.3454  0.6275 -0.8393
   53MOL0     N 7227   5.780   1.061   4.036  0.2831  0.8262 -0.2068
   53MOL0     N 7228   5.888   1.045   4.108 -0.0672 -0.5243 -0.3835
   53MOL0     C 7229   6.471   1.150   4.764 -0.2667  0.6061 -0.9417
   53MOL0     C 7230   6.446   1.170   4.901  0.5487  1.0947 -0.1983
   53MOL0     C 7231   6.530   1.241   5.354  0.6087 -0.1261  0.3043
   53MOL0     C 7232   6.545   1.378   5.361  0.3394 -0.0963 -0.9959
   53MOL0     C 7233   6.529   1.447   5.483  0.4707 -1.0431 -0.6198
   53MOL0     C 7234   6.481   1.393   5.601 -0.0170 -0.3562  0.2817
   53MOL0     O 7235   6.464   1.483   5.704 -0.0271 -0.8216  1.3134
   53MOL0     C 7236   6.455   1.447   5.839 -0.9718  0.1558 -0.3604
   53MOL0     C 7237   6.601   1.443   5.891  0.4369 -0.3147  0.2148
   53MOL0     C 7238   6.710   1.348   5.841 -0.1337  0.0326  0.7978
   53MOL0     C 7239   6.695   1.197   5.886  0.3292 -0.1616 -0.1585
   53MOL0     C 7240   6.559   1.152   5.920 -0.7670  0.7868 -0.1590
   53MOL0     C 7241   6.445   1.118   5.931 -0.3002  0.3936  0.9443
   53MOL0     C 7242   6.459   1.256   5.590 -0.4139 -0.1727 -0.8037
   53MOL0     C 7243   6.488   1.175   5.474  0.3892 -0.3839 -0.8665
   53MOL0     C 7244   6.479   1.027   5.491  0.2270 -0.2292 -0.3007
   53MOL0     H 7245   6.760   1.208   5.024 -2.1198  2.8794  1.7880
   53MOL0     H 7246   6.817   1.152   4.780  0.8061  0.5793  0.2304
   53MOL0     H 7247   6.835   1.179   4.569  0.6687  1.3556  0.4844
   53MOL0     H 7248   6.704   1.299   4.531  0.5445  0.0133  1.2297
   53MOL0     H 7249   6.792   1.212   4.325 -1.3779  1.3111  0.8290
   53MOL0     H 7250   6.780   1.048   4.367  0.3634 -0.6398  0.3900
   53MOL0     H 7251   6.504   1.093   4.373 -0.0706 -1.8969 -2.2468
   53MOL0     H 7252   6.549   1.252   4.319 -2.0872 -0.0946  1.0878
   53MOL0     H 7253   6.679   1.130   4.130 -0.9973 -1.2974 -3.6367
   53MOL0     H 7254   6.614   0.992   4.179  3.7852  0.8508 -0.8026
   53MOL0     H 7255   6.493   1.121   3.977  2.3475  0.0611  0.8363
   53MOL0     H 7256   6.444   1.238   4.096  2.4529  0.0041 -1.7352
   53MOL0     H 7257   6.398   0.945   4.108 -0.2090 -1.4009  2.7826
   53MOL0     H 7258   6.330   1.065   4.224 -5.6986 -2.9186 -1.8835
   53MOL0     H 7259   6.262   1.089   3.942  0.6010  3.1847  0.2561
   53MOL0     H 7260   6.195   1.182   4.068 -1.5524 -0.7811  2.4043
   53MOL0     H 7261   6.157   0.913   4.000  0.9289 -0.9723  1.5658
   53MOL0     H 7262   6.117   0.948   4.178 -1.7005  0.7599  0.2642
   53MOL0     H 7263   6.033   1.013   3.821  1.2637  0.3537  0.4879
   53MOL0     H 7264   5.722   0.968   3.719  0.5811 -1.2673  0.8404
   53MOL0     H 7265   5.793   1.127   3.703  2.4411 -5.0759 -1.9019
   53MOL0     H 7266   5.572   1.083   3.906 -0.5954 -0.2473  0.1105
   53MOL0     H 7267   5.600   1.233   3.831 -3.3563  0.2433 -1.6463
   53MOL0     H 7268   5.546   1.121   3.598 -0.1978  1.7304  0.0686
   53MOL0     H 7269   5.472   0.987   3.688  0.4591  0.0388 -1.1324
   53MOL0     H 7270   5.334   1.161   3.803  1.1661  1.1956  1.2177
   53MOL0     H 7271   5.422   1.291   3.717  0.3149 -0.4027 -0.0963
   53MOL0     H 7272   5.092   1.139   3.464 -1.1073  0.8497 -0.5097
   53MOL0     H 7273   4.778   1.092   3.569  1.1737 -0.5390  1.0776
   53MOL0     H 7274   4.886   1.088   3.422 -0.1854  0.3207  0.0132
   53MOL0     H 7275   4.770   1.219   3.444 -1.2734 -1.4840 -0.0600
   53MOL0     H 7276   4.746   1.546   4.070  0.1272 -1.7140  4.1510
   53MOL0     H 7277   4.564   1.565   4.233  1.4083  1.9028 -0.3208
   53MOL0     H 7278   4.152   1.519   4.068 -0.1604 -2.9363 -0.4046
   53MOL0     H 7279   4.175   1.378   4.163 -2.7622  0.2390  0.3090
   53MOL0     H 7280   4.001   1.496   4.276 -1.2296  1.5106  0.3476
   53MOL0     H 7281   4.152   1.490   4.371  1.6246 -0.1694 -0.9266
   53MOL0     H 7282   4.199   1.722   4.301 -0.2294  0.8417 -0.6400
   53MOL0     H 7283   4.067   1.700   4.413  1.0399 -1.1854  0.2568
   53MOL0     H 7284   3.915   1.724   4.219  0.5392 -0.1531  0.4937
   53MOL0     H 7285   4.054   1.752   4.115  0.7908 -0.2975 -0.6409
   53MOL0     H 7286   3.957   1.932   4.354  1.1790 -3.0529  0.4976
   53MOL0     H 7287   4.105   1.960   4.266  0.3007  1.0578 -1.7630
   53MOL0     H 7288   3.838   1.938   4.126 -0.3589  0.5220  0.0634
   53MOL0     H 7289   3.988   1.991   4.055  1.0632  2.8483  0.5910
   53MOL0     H 7290   3.862   2.180   4.074 -0.3771  2.6419  0.9730
   53MOL0     H 7291   3.979   2.204   4.204 -2.6761  4.2587  3.6362
   53MOL0     H 7292   3.808   2.128   4.372  0.8215  3.8337  1.4309
   53MOL0     H 7293   3.693   2.112   4.235 -0.1077 -0.3676 -0.1983
   53MOL0     H 7294   4.291   1.390   3.947 -1.5599  1.1865 -0.7850
   53MOL0     H 7295   4.473   1.326   3.803 -0.6778  4.1589 -3.0635
   53MOL0     H 7296   4.998   1.446   3.830  0.5883  0.4845 -0.5131
   53MOL0     H 7297   5.217   1.389   3.781  2.8620 -2.9906 -1.0002
   53MOL0     H 7298   6.380   1.130   4.707  0.9200 -0.9885 -2.3730
   53MOL0     H 7299   6.344   1.157   4.935  0.5825  1.9141  0.2638
   53MOL0     H 7300   6.555   1.449   5.280 -0.9052  2.1142  0.7027
   53MOL0     H 7301   6.526   1.555   5.491 -0.4048 -0.9623 -1.8344
   53MOL0     H 7302   6.399   1.522   5.895  1.2551  0.5831  1.4662
   53MOL0     H 7303   6.408   1.349   5.851 -0.6634  0.2235  1.7112
   53MOL0     H 7304   6.587   1.407   5.994 -2.4393 -0.2297 -0.0588
   53MOL0     H 7305   6.647   1.542   5.899  1.2082 -0.3479 -2.7933
   53MOL0     H 7306   6.694   1.335   5.733 -2.3001  1.9988  0.7863
   53MOL0     H 7307   6.812   1.382   5.861  0.0825  0.7577 -1.3034
   53MOL0     H 7308   6.758   1.185   5.975  3.2308  1.1192 -1.8850
   53MOL0     H 7309   6.740   1.136   5.807  2.4180  1.8581 -0.6322
   53MOL0     H 7310   6.340   1.096   5.930 -0.2205  0.0047 -0.3875
   53MOL0     H 7311   6.429   1.214   5.686  1.6450  1.9807  0.9135
   53MOL0     H 7312   6.549   0.973   5.427 -1.4755 -1.1584 -1.4874
   53MOL0     H 7313   6.490   1.001   5.597 -1.5785 -0.0361 -0.0215
   53MOL0     H 7314   6.375   1.005   5.463 -0.0601  0.7457 -0.0437
   54MOL0     O 7315   8.435   7.121   3.371  0.3669 -0.1892  0.0967
   54MOL0     C 7316   8.548   7.133   3.416  0.1593  1.2806 -0.0944
   54MOL0     O 7317   8.631   7.243   3.405 -0.4211  0.4249 -0.3018
   54MOL0     C 7318   8.587   7.340   3.320 -0.1440 -0.1192  0.5330
   54MOL0     C 7319   8.548   7.324   3.188 -0.7706 -0.0676 -0.0056
   54MOL0     C 7320   8.509   7.430   3.103  0.3572  0.5847  0.2786
   54MOL0     C 7321   8.492   7.560   3.151 -0.2649  0.9287 -0.6394
   54MOL0     O 7322   8.443   7.651   3.059  0.1833  0.1173 -0.4943
   54MOL0     C 7323   8.351   7.748   3.111 -0.5329 -0.7226 -0.5897
   54MOL0     C 7324   8.261   7.820   3.012 -0.3147 -0.3945  0.7146
   54MOL0     C 7325   8.123   7.756   2.975 -0.1069  1.1315 -0.8380
   54MOL0     C 7326   8.018   7.822   3.069  0.9813  0.6794  0.5487
   54MOL0     C 7327   7.872   7.758   3.066 -0.3900 -0.7209 -0.1832
   54MOL0     C 7328   7.802   7.792   2.936 -0.5184  0.6757 -0.4322
   54MOL0     C 7329   7.653   7.730   2.950 -0.3121  0.3441  0.1816
   54MOL0     C 7330   7.574   7.810   3.055  0.2831  0.0048 -0.1080
   54MOL0     N 7331   7.428   7.791   3.041  0.7419  0.7147 -0.0045
   54MOL0     C 7332   7.369   7.669   3.028 -0.5806 -0.2699  0.4223
   54MOL0     C 7333   7.237   7.688   3.057 -0.0110  0.3374 -0.0769
   54MOL0     C 7334   7.130   7.581   3.073  0.1123 -0.1060 -0.1127
   54MOL0     C 7335   7.031   7.595   2.954 -0.4533 -0.7486 -0.9707
   54MOL0     C 7336   7.075   7.506   2.836  0.4965  0.2250 -1.4254
   54MOL0     C 7337   7.174   7.567   2.748 -0.0424 -0.2053 -0.2284
   54MOL0     O 7338   7.234   7.452   2.679  0.1283 -0.2932 -0.7100
   54MOL0     C 7339   7.367   7.433   2.707 -0.5526  0.4413 -0.1950
   54MOL0     C 7340   7.408   7.380   2.829  0.1625  0.0466  0.5278
   54MOL0     C 7341   7.545   7.375   2.857 -0.3081  0.2298 -0.8165
   54MOL0     C 7342   7.578   7.318   2.992 -0.8614 -0.0996 -0.1516
   54MOL0     C 7343   7.641   7.403   2.757 -0.0128 -0.1202  0.1263
   54MOL0     C 7344   7.796   7.397   2.772  0.3809 -0.4767  0.8254
   54MOL0     O 7345   7.877   7.422   2.666 -0.1969 -0.1623  0.0404
   54MOL0     C 7346   8.004   7.394   2.679  0.4944  0.3766  0.1202
   54MOL0     C 7347   8.105   7.481   2.725 -1.1503 -0.2555 -0.9468
   54MOL0     C 7348   8.233   7.424   2.745 -0.0453 -0.5447 -0.0043
   54MOL0     C 7349   8.268   7.294   2.702  0.9093  0.4584  0.5629
   54MOL0     O 7350   8.394   7.255   2.731 -0.5719 -0.0252  0.2489
   54MOL0     C 7351   8.432   7.116   2.712  0.2505 -1.0612  0.4980
   54MOL0     C 7352   8.491   7.072   2.580 -0.1443 -0.2485  0.0206
   54MOL0     C 7353   8.613   6.980   2.608  0.1531 -0.3460 -0.5446
   54MOL0     C 7354   8.711   6.941   2.482  0.5794  0.3797 -0.1775
   54MOL0     C 7355   8.862   6.931   2.527  0.0149  0.8194 -0.4704
   54MOL0     C 7356   8.889   6.801   2.609 -0.1778 -0.2304 -0.3779
   54MOL0     C 7357   9.030   6.802   2.680 -0.7661  0.4432 -0.7277
   54MOL0     C 7358   9.032   6.731   2.816 -0.5884 -0.9071  0.2233
   54MOL0    Cl 7359   9.190   6.661   2.849 -0.4643 -0.1260 -0.2024
   54MOL0     C 7360   8.164   7.221   2.645  0.3074 -0.1870 -0.2878
   54MOL0     C 7361   8.032   7.269   2.629  0.2215 -0.0375 -0.7406
   54MOL0     O 7362   7.833   7.379   2.885 -0.6180  0.0286 -0.2689
   54MOL0     C 7363   7.591   7.441   2.627 -0.3470 -0.1603 -0.4184
   54MOL0     C 7364   7.456   7.468   2.604  0.6391 -0.2764 -0.3148
   54MOL0     N 7365   7.226   7.822   3.079  0.3830  0.1366 -0.4644
   54MOL0     N 7366   7.339   7.882   3.084 -0.2464 -0.5214 -0.0889
   54MOL0     C 7367   8.520   7.569   3.292  0.7186 -0.2118 -1.0773
   54MOL0     C 7368   8.569   7.465   3.369  0.1838  0.2378  0.6521
   54MOL0     C 7369   8.576   7.033   3.520  0.2454 -0.1072  1.0045
   54MOL0     C 7370   8.573   6.896   3.492  0.3816 -0.2438  0.5799
   54MOL0     C 7371   8.603   6.793   3.594  0.3581  0.5727 -0.5617
   54MOL0     C 7372   8.639   6.836   3.721 -0.5139  1.0396 -0.4957
   54MOL0     O 7373   8.682   6.735   3.813  0.4501  0.0349 -0.0561
   54MOL0     C 7374   8.675   6.760   3.958 -0.5820 -0.1380  0.4993
   54MOL0     C 7375   8.683   6.625   4.031  0.6755 -0.6030 -0.2237
   54MOL0     C 7376   8.814   6.549   4.039 -0.2250  0.1351  1.1499
   54MOL0     C 7377   8.943   6.629   3.995  0.5308 -0.3921 -0.4538
   54MOL0     C 7378   8.979   6.718   4.114  0.6839 -0.3283  0.8214
   54MOL0     C 7379   8.973   6.783   4.212  1.6920 -0.1332  0.1644
   54MOL0     C 7380   8.641   6.977   3.750  0.1887 -0.2650  0.2911
   54MOL0     C 7381   8.603   7.075   3.656  0.3702  0.3513  0.0293
   54MOL0     C 7382   8.588   7.216   3.699 -0.4011  0.1883 -0.7963
   54MOL0     H 7383   8.557   7.220   3.157  0.1022  0.3849 -1.3276
   54MOL0     H 7384   8.486   7.411   2.999  2.2099 -1.4135  0.1636
   54MOL0     H 7385   8.417   7.816   3.165 -0.0402 -1.1885 -0.6021
   54MOL0     H 7386   8.287   7.704   3.188 -0.9581  3.8037  2.0161
   54MOL0     H 7387   8.250   7.926   3.041 -0.6870 -0.3283  0.3466
   54MOL0     H 7388   8.313   7.815   2.916  2.4310  3.8670  1.6965
   54MOL0     H 7389   8.101   7.769   2.869 -3.1437  1.7255 -0.2076
   54MOL0     H 7390   8.112   7.653   3.010  1.2609  0.8295 -1.2205
   54MOL0     H 7391   8.058   7.819   3.171 -0.3007  1.4669  1.1059
   54MOL0     H 7392   8.003   7.926   3.038 -1.0458  0.1272 -0.4477
   54MOL0     H 7393   7.824   7.792   3.159 -1.7746 -2.3772 -0.2394
   54MOL0     H 7394   7.893   7.652   3.080  1.0714 -0.3380  0.8382
   54MOL0     H 7395   7.792   7.899   2.919 -1.6500  0.6867  0.1563
   54MOL0     H 7396   7.865   7.756   2.855  0.6750  1.3131  0.1862
   54MOL0     H 7397   7.657   7.626   2.985 -1.8103  1.0242  2.5831
   54MOL0     H 7398   7.600   7.732   2.855 -1.1138  1.9387  0.6324
   54MOL0     H 7399   7.597   7.781   3.159 -3.0749 -1.8249  0.2609
   54MOL0     H 7400   7.596   7.916   3.040 -1.4545  0.7303  1.8905
   54MOL0     H 7401   7.427   7.583   2.996 -2.8553 -1.3736 -0.9773
   54MOL0     H 7402   7.084   7.601   3.170  0.9118 -0.6552  0.3949
   54MOL0     H 7403   7.171   7.479   3.077  1.5232  0.4739  1.7607
   54MOL0     H 7404   6.928   7.565   2.972 -0.1999 -1.2639 -0.3879
   54MOL0     H 7405   7.023   7.698   2.917 -2.4670 -1.1237 -1.7137
   54MOL0     H 7406   7.100   7.404   2.865 -1.4595  0.1236  0.1519
   54MOL0     H 7407   6.991   7.477   2.773 -2.1711  1.5491  1.2485
   54MOL0     H 7408   7.131   7.647   2.686  1.0515 -1.1029 -2.2246
   54MOL0     H 7409   7.254   7.612   2.808 -1.8643  0.3788  1.9063
   54MOL0     H 7410   7.336   7.334   2.896 -0.6292  0.2120 -0.1884
   54MOL0     H 7411   7.668   7.356   3.039 -1.0628  1.7809 -1.2081
   54MOL0     H 7412   7.594   7.211   2.976 -0.7985 -0.1708  0.3805
   54MOL0     H 7413   7.511   7.343   3.075  3.5180 -0.6632  3.9637
   54MOL0     H 7414   8.081   7.581   2.758  1.4984 -0.3725  1.7351
   54MOL0     H 7415   8.306   7.482   2.801 -0.7889 -1.6902  2.2996
   54MOL0     H 7416   8.502   7.091   2.792 -0.3632  0.2139  1.4778
   54MOL0     H 7417   8.349   7.046   2.726  2.8812 -4.3627  0.6398
   54MOL0     H 7418   8.404   7.026   2.533  1.6261 -0.7805 -2.9525
   54MOL0     H 7419   8.526   7.160   2.525  2.3554  0.7504  2.9216
   54MOL0     H 7420   8.574   6.889   2.654 -1.8523  0.3580 -0.7336
   54MOL0     H 7421   8.672   7.034   2.682  0.7509 -1.8717  0.1374
   54MOL0     H 7422   8.709   7.026   2.413  1.3994  1.8666  1.5335
   54MOL0     H 7423   8.671   6.848   2.441  2.7047  0.1716 -2.0345
   54MOL0     H 7424   8.926   6.917   2.439  0.5711 -4.4895  0.3969
   54MOL0     H 7425   8.878   7.028   2.576  2.4006  0.7390 -0.9586
   54MOL0     H 7426   8.871   6.716   2.543  0.0773  0.6035 -1.5495
   54MOL0     H 7427   8.819   6.767   2.685  0.6624 -0.4013  0.3375
   54MOL0     H 7428   9.079   6.899   2.677 -3.5395  1.9359 -1.3064
   54MOL0     H 7429   9.088   6.743   2.608 -0.9638 -3.2226  1.8156
   54MOL0     H 7430   8.955   6.653   2.819  0.4530 -2.1008 -1.7536
   54MOL0     H 7431   9.014   6.803   2.896 -0.5666 -0.0925 -0.5011
   54MOL0     H 7432   8.190   7.125   2.603  2.7172  0.8763 -1.4298
   54MOL0     H 7433   7.950   7.205   2.601  0.2728 -1.6389  2.3962
   54MOL0     H 7434   7.667   7.471   2.556 -1.3356 -0.3103 -1.5687
   54MOL0     H 7435   7.419   7.495   2.505  0.5972  2.6465  0.3975
   54MOL0     H 7436   8.501   7.666   3.339  3.4698 -0.3501  0.5324
   54MOL0     H 7437   8.590   7.498   3.470 -2.2267  6.0107 -0.3178
   54MOL0     H 7438   8.544   6.861   3.394 -0.6720 -0.7810  1.0639
   54MOL0     H 7439   8.586   6.689   3.569  0.6999 -0.2905  2.3829
   54MOL0     H 7440   8.761   6.820   3.986 -0.2262 -0.5779  0.3733
   54MOL0     H 7441   8.587   6.815   3.993 -0.2491  0.3230  0.6146
   54MOL0     H 7442   8.604   6.556   4.001 -0.0742 -0.6355  1.6620
   54MOL0     H 7443   8.656   6.638   4.137 -4.1798 -3.3768 -0.8228
   54MOL0     H 7444   8.825   6.515   4.142 -0.9393 -0.1868  1.1298
   54MOL0     H 7445   8.807   6.462   3.973 -0.3791  1.5844 -0.8355
   54MOL0     H 7446   8.919   6.692   3.909 -1.5266  1.3260  1.2581
   54MOL0     H 7447   9.028   6.562   3.984 -0.3469 -2.2453  2.7969
   54MOL0     H 7448   8.985   6.843   4.300  2.4346  1.9068 -1.2447
   54MOL0     H 7449   8.654   7.012   3.851  1.9749  1.2502 -0.4128
   54MOL0     H 7450   8.667   7.279   3.658  0.0264 -0.1674 -0.5281
   54MOL0     H 7451   8.491   7.250   3.661 -1.2951 -1.0961  0.2264
   54MOL0     H 7452   8.589   7.228   3.808  0.3418  2.6549 -1.0168
   55MOL0     O 7453   4.593   1.493   9.858 -0.4815  0.1162  0.3152
   55MOL0     C 7454   4.714   1.473   9.878  0.0208  0.3639 -0.0016
   55MOL0     O 7455   4.805   1.439   9.782  0.3088 -0.1805  0.0549
   55MOL0     C 7456   4.758   1.447   9.650 -0.5762  0.5350  0.3535
   55MOL0     C 7457   4.723   1.567   9.591 -0.2886  0.7042 -1.3990
   55MOL0     C 7458   4.680   1.564   9.459  0.3522 -0.5141  0.3341
   55MOL0     C 7459   4.668   1.439   9.388 -0.0858 -0.7398 -0.9449
   55MOL0     O 7460   4.608   1.416   9.266  0.3084  0.0887 -1.2987
   55MOL0     C 7461   4.500   1.497   9.225 -0.1457  0.3690  0.4153
   55MOL0     C 7462   4.397   1.413   9.141  0.2002 -0.1483 -0.1452
   55MOL0     C 7463   4.319   1.321   9.244 -0.3140 -0.3098 -0.3073
   55MOL0     C 7464   4.158   1.340   9.220  0.1516  0.3525 -0.0907
   55MOL0     C 7465   4.068   1.255   9.316 -0.2663 -0.2041  0.5377
   55MOL0     C 7466   3.926   1.281   9.278 -0.3244  0.2641 -0.1049
   55MOL0     C 7467   3.869   1.411   9.356 -0.1482  0.1223  0.4590
   55MOL0     C 7468   3.720   1.436   9.359  0.1795  0.9561 -0.5055
   55MOL0     N 7469   3.681   1.497   9.232 -0.2299  0.4788 -0.5153
   55MOL0     C 7470   3.625   1.624   9.216 -0.3676 -0.8988 -0.5715
   55MOL0     C 7471   3.622   1.635   9.083  0.7100  0.6897  0.5941
   55MOL0     C 7472   3.570   1.741   8.996 -0.8951 -0.1419  0.2436
   55MOL0     C 7473   3.424   1.779   8.994  1.3814 -0.3982 -1.5986
   55MOL0     C 7474   3.339   1.682   8.908  0.2931  0.4426  0.3402
   55MOL0     C 7475   3.186   1.712   8.927 -0.2809  0.4490 -0.3251
   55MOL0     O 7476   3.144   1.832   8.857 -0.0029 -0.3046  0.3513
   55MOL0     C 7477   3.027   1.890   8.887  0.3551 -0.0355 -0.1664
   55MOL0     C 7478   2.923   1.811   8.951  0.9206 -0.2666  0.7542
   55MOL0     C 7479   2.800   1.873   8.997  0.3969 -0.2737  0.9233
   55MOL0     C 7480   2.709   1.789   9.083 -0.2304  0.2884 -0.2746
   55MOL0     C 7481   2.781   2.018   8.979  0.5480 -0.6494  1.3211
   55MOL0     C 7482   2.653   2.095   9.016 -0.5276  0.4101  0.1902
   55MOL0     O 7483   2.647   2.222   8.967 -0.0691  0.0224  0.5166
   55MOL0     C 7484   2.530   2.276   8.922  0.3378  0.6203  0.3620
   55MOL0     C 7485   2.538   2.334   8.793  0.5317 -0.5006  0.4017
   55MOL0     C 7486   2.419   2.390   8.733  0.3074  0.3380 -0.2346
   55MOL0     C 7487   2.289   2.386   8.792 -0.2978  0.2560 -0.1988
   55MOL0     O 7488   2.170   2.426   8.732 -0.5146  0.3239  0.0320
   55MOL0     C 7489   2.166   2.461   8.591  0.1287  0.7678  1.1606
   55MOL0     C 7490   2.025   2.517   8.565  0.4808  0.3164  0.8815
   55MOL0     C 7491   1.988   2.526   8.413 -0.2133 -0.2623 -0.3874
   55MOL0     C 7492   1.935   2.401   8.342 -0.8036  0.0000 -0.4392
   55MOL0     C 7493   1.937   2.408   8.182 -0.3412 -0.4287  0.5969
   55MOL0     C 7494   1.821   2.500   8.118  0.0555  0.2142 -1.0926
   55MOL0     C 7495   1.794   2.490   7.962 -0.5561 -0.3670 -0.3124
   55MOL0     C 7496   1.891   2.569   7.883  0.5777  0.2221 -0.2912
   55MOL0    Cl 7497   1.878   2.749   7.900 -0.4871  0.5145  0.0094
   55MOL0     C 7498   2.287   2.333   8.925 -0.1015 -0.0896 -0.5830
   55MOL0     C 7499   2.404   2.285   8.988  0.0714  0.5033 -0.2429
   55MOL0     O 7500   2.577   2.051   9.096 -0.1991  0.9416 -0.0576
   55MOL0     C 7501   2.886   2.078   8.903  0.1399 -0.0405 -0.1462
   55MOL0     C 7502   2.998   2.014   8.865 -0.0769 -0.9345  0.2958
   55MOL0     N 7503   3.654   1.512   9.030 -0.1025  0.0974  0.3628
   55MOL0     N 7504   3.701   1.434   9.119 -0.0114 -0.9226 -0.8576
   55MOL0     C 7505   4.715   1.322   9.449  0.7528  0.2115 -0.4593
   55MOL0     C 7506   4.778   1.327   9.575  0.5775  0.2334  0.1389
   55MOL0     C 7507   4.754   1.469  10.022  0.2601 -1.4857  0.0260
   55MOL0     C 7508   4.658   1.513  10.118  0.5417 -0.7888 -0.1367
   55MOL0     C 7509   4.682   1.501  10.260 -0.7020 -0.5628  0.2003
   55MOL0     C 7510   4.800   1.455  10.299 -0.1570  0.0716 -0.2039
   55MOL0     O 7511   4.825   1.464  10.436 -0.3508  0.9657 -0.2535
   55MOL0     C 7512   4.858   1.333  10.492  0.1075  0.8257 -1.0490
   55MOL0     C 7513   4.764   1.309  10.611 -0.1742  0.5617  0.3206
   55MOL0     C 7514   4.771   1.423  10.713 -0.1489  0.5004  0.4753
   55MOL0     C 7515   4.904   1.422  10.790  0.1136  0.3168 -0.4074
   55MOL0     C 7516   4.941   1.298  10.859 -0.8304 -0.0124  1.3413
   55MOL0     C 7517   5.002   1.208  10.906 -0.4048 -0.0414  0.3271
   55MOL0     C 7518   4.891   1.404  10.207 -1.2379 -0.6491 -0.3147
   55MOL0     C 7519   4.874   1.424  10.067 -0.5107  1.3816 -0.5999
   55MOL0     C 7520   4.981   1.374   9.980 -0.4304  0.7454  0.1930
   55MOL0     H 7521   4.720   1.664   9.640  0.5151 -0.8965  2.1203
   55MOL0     H 7522   4.642   1.659   9.423 -1.3498 -1.2161  0.1783
   55MOL0     H 7523   4.529   1.584   9.166 -0.6790 -1.0474 -2.1050
   55MOL0     H 7524   4.458   1.550   9.311  1.6846  3.3922 -0.3919
   55MOL0     H 7525   4.334   1.483   9.086  0.9422 -2.8464 -4.9423
   55MOL0     H 7526   4.441   1.352   9.062 -0.4769 -1.4921  0.4837
   55MOL0     H 7527   4.350   1.217   9.229 -2.1055 -0.8825 -0.3160
   55MOL0     H 7528   4.332   1.346   9.349 -0.4117  0.3238 -0.4395
   55MOL0     H 7529   4.129   1.446   9.216  0.7521  0.6739  2.4183
   55MOL0     H 7530   4.140   1.310   9.117 -1.9846 -1.5329  0.7367
   55MOL0     H 7531   4.093   1.280   9.419  0.8644  3.2296 -0.4596
   55MOL0     H 7532   4.082   1.147   9.308 -3.6420 -0.9401  2.3752
   55MOL0     H 7533   3.919   1.292   9.170 -3.1145  1.3795  0.0986
   55MOL0     H 7534   3.871   1.188   9.300 -0.7014 -0.4163 -3.3964
   55MOL0     H 7535   3.904   1.501   9.305 -1.0195  0.1189 -0.1581
   55MOL0     H 7536   3.914   1.408   9.456 -0.4388  0.6669  0.6105
   55MOL0     H 7537   3.677   1.336   9.369  2.1604  0.1579  0.8217
   55MOL0     H 7538   3.691   1.494   9.448  1.6377 -0.7642  1.1919
   55MOL0     H 7539   3.602   1.704   9.286  3.0016  0.5957 -1.0022
   55MOL0     H 7540   3.583   1.713   8.891 -2.6251  0.6319 -0.2018
   55MOL0     H 7541   3.621   1.836   9.016 -2.6034  0.8270  0.1395
   55MOL0     H 7542   3.383   1.790   9.095  1.8462 -0.7968 -1.3589
   55MOL0     H 7543   3.415   1.880   8.953  4.1451  0.3234 -0.6519
   55MOL0     H 7544   3.370   1.699   8.804 -0.2989 -1.7970 -0.2676
   55MOL0     H 7545   3.358   1.579   8.942 -1.6576  0.2582  0.9538
   55MOL0     H 7546   3.131   1.631   8.880 -1.7479  1.4759 -0.4338
   55MOL0     H 7547   3.159   1.722   9.033 -2.3493 -0.4599 -0.7117
   55MOL0     H 7548   2.934   1.704   8.966 -3.3580 -1.0412 -0.3091
   55MOL0     H 7549   2.613   1.772   9.034  0.8682 -0.0989 -2.3891
   55MOL0     H 7550   2.714   1.829   9.185 -0.4281  0.6775 -0.4192
   55MOL0     H 7551   2.747   1.688   9.100  1.9045  1.4948  3.0570
   55MOL0     H 7552   2.631   2.354   8.742  0.1545  1.2030  0.3489
   55MOL0     H 7553   2.438   2.434   8.636 -0.5446  2.1049  0.3546
   55MOL0     H 7554   2.233   2.544   8.568  0.5592 -0.4521 -2.7471
   55MOL0     H 7555   2.189   2.381   8.519  0.3305  1.6721  0.1981
   55MOL0     H 7556   1.944   2.462   8.613 -3.3478  4.8278  0.3152
   55MOL0     H 7557   2.013   2.614   8.616  1.2508  1.7201 -1.4787
   55MOL0     H 7558   2.068   2.564   8.349  0.4446 -0.6698  0.1796
   55MOL0     H 7559   1.910   2.603   8.408 -0.2416 -0.3632 -1.5826
   55MOL0     H 7560   1.839   2.369   8.383 -3.4278  0.3527 -5.4714
   55MOL0     H 7561   2.008   2.325   8.372  1.1066  2.2442  0.9471
   55MOL0     H 7562   2.029   2.452   8.144  0.3237 -1.7316  0.6387
   55MOL0     H 7563   1.929   2.314   8.127 -3.4941  0.3018 -0.4226
   55MOL0     H 7564   1.846   2.606   8.132 -2.0992  0.9391 -2.2395
   55MOL0     H 7565   1.730   2.477   8.173 -0.5902 -1.4940 -2.7566
   55MOL0     H 7566   1.702   2.547   7.945 -0.0443  0.8115  0.6711
   55MOL0     H 7567   1.792   2.383   7.939 -0.4347 -0.2204 -1.0482
   55MOL0     H 7568   1.876   2.533   7.781 -3.2682 -2.0016  0.8591
   55MOL0     H 7569   1.992   2.539   7.910 -0.1070 -1.3349  0.6656
   55MOL0     H 7570   2.196   2.333   8.984  0.8481  3.6523  1.1832
   55MOL0     H 7571   2.389   2.231   9.081  1.4368  1.7272  0.7385
   55MOL0     H 7572   2.884   2.185   8.890  2.6825  0.2651  1.3190
   55MOL0     H 7573   3.074   2.076   8.818 -0.4761  0.7077  1.6816
   55MOL0     H 7574   4.710   1.224   9.402 -0.7047 -1.9807  3.7815
   55MOL0     H 7575   4.811   1.235   9.623  0.8353  0.0510 -0.3806
   55MOL0     H 7576   4.561   1.546  10.081  1.1852 -1.7261 -2.8690
   55MOL0     H 7577   4.600   1.534  10.324 -0.7795 -0.2162 -0.0711
   55MOL0     H 7578   4.855   1.252  10.419  0.7362  1.0345 -1.3079
   55MOL0     H 7579   4.961   1.324  10.526 -0.6433 -0.4528  1.1187
   55MOL0     H 7580   4.778   1.206  10.646  0.3825 -0.2444 -2.0623
   55MOL0     H 7581   4.662   1.297  10.575  0.3642 -0.6170 -0.9043
   55MOL0     H 7582   4.760   1.518  10.660  0.0317  1.3556  1.9161
   55MOL0     H 7583   4.686   1.402  10.779 -2.6219  1.7933 -2.1159
   55MOL0     H 7584   4.904   1.492  10.873 -3.6513 -0.4038  0.3797
   55MOL0     H 7585   4.986   1.450  10.722 -0.2501  4.2023  0.5163
   55MOL0     H 7586   5.049   1.122  10.949 -2.1369 -0.5518  1.2948
   55MOL0     H 7587   4.992   1.389  10.245 -0.3284  2.4473 -1.1369
   55MOL0     H 7588   5.033   1.450   9.921  0.8978  0.5353  1.0361
   55MOL0     H 7589   5.062   1.338  10.044  1.0648 -1.0332 -2.5062
   55MOL0     H 7590   4.961   1.287   9.917 -1.3385  2.5822 -2.2127
   56MOL0     O 7591  11.142   2.051   0.760 -0.1206  0.8144  0.8852
   56MOL0     C 7592  11.209   1.954   0.723 -1.2762 -0.0451 -0.2440
   56MOL0     O 7593  11.310   1.958   0.631 -0.3741 -0.5816 -0.5873
   56MOL0     C 7594  11.341   2.075   0.571  0.0309  0.8231  0.2476
   56MOL0     C 7595  11.369   2.191   0.643 -1.0429 -0.7405  0.4958
   56MOL0     C 7596  11.419   2.305   0.575  0.7703 -0.3363 -0.9128
   56MOL0     C 7597  11.446   2.310   0.442  0.2282  0.2838  0.3796
   56MOL0     O 7598  11.502   2.411   0.371 -0.0385 -0.0372  0.3854
   56MOL0     C 7599  11.517   2.543   0.430  0.8689 -0.0619 -0.6769
   56MOL0     C 7600  11.566   2.636   0.318  0.3378 -0.5911  0.6716
   56MOL0     C 7601  11.476   2.654   0.202  0.4460 -1.0315  0.1965
   56MOL0     C 7602  11.542   2.753   0.109  0.5417 -0.9895 -0.1872
   56MOL0     C 7603  11.493   2.754  -0.034 -0.4475 -0.1854 -0.0137
   56MOL0     C 7604  11.353   2.810  -0.051  0.5597  0.0475 -1.1251
   56MOL0     C 7605  11.328   2.952   0.010 -0.5016  0.3057 -0.7440
   56MOL0     C 7606  11.183   2.993  -0.014 -0.1523  0.0496  0.1581
   56MOL0     N 7607  11.160   3.117   0.064  0.2182 -1.0328 -0.1408
   56MOL0     C 7608  11.066   3.126   0.166  0.2476 -0.9651  0.7373
   56MOL0     C 7609  11.080   3.264   0.202  0.6562 -0.1369 -0.5528
   56MOL0     C 7610  10.988   3.333   0.294 -0.1304  0.1581 -0.9364
   56MOL0     C 7611  10.857   3.370   0.221  0.0932 -0.3559  0.3271
   56MOL0     C 7612  10.751   3.258   0.179  0.1161  0.3119 -0.7110
   56MOL0     C 7613  10.641   3.301   0.079  0.3974  0.2548 -0.8147
   56MOL0     O 7614  10.535   3.207   0.095 -0.5337  0.2223 -0.3722
   56MOL0     C 7615  10.451   3.168  -0.015 -0.0541  0.4819 -0.3503
   56MOL0     C 7616  10.461   3.232  -0.138 -0.1481  0.1266  0.7711
   56MOL0     C 7617  10.363   3.202  -0.237 -0.1629 -0.2994  0.0134
   56MOL0     C 7618  10.370   3.279  -0.375  0.2621 -0.4997 -0.1491
   56MOL0     C 7619  10.271   3.091  -0.212  0.8363 -0.1122 -0.5107
   56MOL0     C 7620  10.182   3.037  -0.325  0.1267 -0.5591  0.2212
   56MOL0     O 7621  10.063   2.998  -0.300  0.4061  0.6814 -0.5440
   56MOL0     C 7622   9.971   2.975  -0.395  0.3015 -0.6899  0.1178
   56MOL0     C 7623   9.943   3.067  -0.490  0.0997 -0.2103 -0.0253
   56MOL0     C 7624   9.857   3.042  -0.597 -0.0499  0.3442  0.6379
   56MOL0     C 7625   9.798   2.918  -0.597 -1.2102  0.2185 -0.0267
   56MOL0     O 7626   9.714   2.907  -0.700 -0.6314 -0.0767 -0.2191
   56MOL0     C 7627   9.594   2.835  -0.688  0.7325  0.6597  0.3245
   56MOL0     C 7628   9.511   2.836  -0.821 -0.3826  0.7281  1.0816
   56MOL0     C 7629   9.597   2.810  -0.947  0.5033 -0.8896 -0.2381
   56MOL0     C 7630   9.617   2.660  -0.940  0.7471 -1.4692  0.3026
   56MOL0     C 7631   9.678   2.618  -1.072 -0.3773  0.6416 -0.4273
   56MOL0     C 7632   9.738   2.476  -1.063  0.5721  0.1587 -0.3392
   56MOL0     C 7633   9.701   2.409  -1.198 -0.6767  0.0384 -0.0584
   56MOL0     C 7634   9.785   2.287  -1.214 -0.7062 -0.0751  0.5125
   56MOL0    Cl 7635   9.956   2.338  -1.222  0.3186 -0.3535  0.3293
   56MOL0     C 7636   9.837   2.813  -0.510  0.3264  0.2273 -0.2984
   56MOL0     C 7637   9.925   2.846  -0.404 -0.1022 -0.7147  1.5611
   56MOL0     O 7638  10.239   3.026  -0.436  0.6304  0.5673  0.3719
   56MOL0     C 7639  10.280   3.027  -0.093 -1.1525  0.1099  0.2798
   56MOL0     C 7640  10.370   3.058   0.009 -0.6893  0.1797 -0.0237
   56MOL0     N 7641  11.173   3.328   0.118 -0.3006  0.0526 -0.6621
   56MOL0     N 7642  11.224   3.238   0.044 -0.5909  1.1478 -0.2208
   56MOL0     C 7643  11.409   2.183   0.373 -0.7664 -0.2859  1.1005
   56MOL0     C 7644  11.366   2.072   0.439  0.4462  0.9190  0.9351
   56MOL0     C 7645  11.187   1.824   0.780  0.5479  0.7210  0.3565
   56MOL0     C 7646  11.099   1.737   0.720  0.0806  0.5767 -0.3583
   56MOL0     C 7647  11.095   1.605   0.773  0.1698  0.6785  0.1188
   56MOL0     C 7648  11.153   1.567   0.892  0.4001  0.2631  0.7239
   56MOL0     O 7649  11.144   1.439   0.949 -0.3438 -0.8592  0.3307
   56MOL0     C 7650  11.017   1.369   0.955 -0.5934 -0.4531  0.4254
   56MOL0     C 7651  11.009   1.273   0.838  0.6643  0.5580  0.1751
   56MOL0     C 7652  10.872   1.200   0.844  0.2694  0.6033 -0.1490
   56MOL0     C 7653  10.848   1.094   0.733 -0.3500 -0.2035  0.8108
   56MOL0     C 7654  10.878   0.953   0.781 -0.5618 -0.4695  0.3685
   56MOL0     C 7655  10.909   0.840   0.813  0.4249  1.0256 -0.0925
   56MOL0     C 7656  11.237   1.655   0.948  0.6222  0.0338 -0.5997
   56MOL0     C 7657  11.258   1.779   0.886  0.5772 -0.5006 -0.1767
   56MOL0     C 7658  11.348   1.880   0.950 -0.0535  0.3191  0.3574
   56MOL0     H 7659  11.362   2.209   0.749  1.3124  2.3160  0.2644
   56MOL0     H 7660  11.465   2.386   0.632 -0.0615 -1.0768  0.9016
   56MOL0     H 7661  11.591   2.538   0.511 -0.7016  2.5193  1.0714
   56MOL0     H 7662  11.423   2.576   0.476  0.7892  1.9759 -2.1328
   56MOL0     H 7663  11.585   2.737   0.358 -5.1064  1.2678 -0.4828
   56MOL0     H 7664  11.665   2.603   0.285  0.2864 -1.9377  1.8036
   56MOL0     H 7665  11.469   2.563   0.142 -6.1761  0.0013 -1.3822
   56MOL0     H 7666  11.375   2.673   0.238  1.8365  1.6325  3.1188
   56MOL0     H 7667  11.544   2.854   0.150  3.6869 -1.3250  0.7483
   56MOL0     H 7668  11.645   2.717   0.102  1.2509  1.0994 -1.1227
   56MOL0     H 7669  11.501   2.658  -0.087  1.5171  0.5024 -1.0595
   56MOL0     H 7670  11.556   2.822  -0.092 -0.6070 -0.6844 -0.7950
   56MOL0     H 7671  11.336   2.807  -0.159 -0.9207  1.2909 -0.9737
   56MOL0     H 7672  11.277   2.749  -0.001 -0.6019  1.9654 -0.4468
   56MOL0     H 7673  11.380   3.022  -0.056  3.5487 -0.3190  1.4809
   56MOL0     H 7674  11.363   2.959   0.113 -1.7261 -0.0772 -0.2870
   56MOL0     H 7675  11.168   3.012  -0.121  3.5113 -0.9472 -0.6515
   56MOL0     H 7676  11.119   2.913   0.025  0.0027  1.6262  4.1502
   56MOL0     H 7677  10.990   3.055   0.195 -0.1492 -0.0050  2.1796
   56MOL0     H 7678  11.028   3.425   0.338 -0.1357 -0.9103  1.4680
   56MOL0     H 7679  10.976   3.273   0.384 -0.4209 -0.6636 -1.5179
   56MOL0     H 7680  10.800   3.427   0.295  1.0770  0.6103  0.3794
   56MOL0     H 7681  10.885   3.430   0.133  1.4664 -0.9158  0.3469
   56MOL0     H 7682  10.810   3.177   0.136  0.5798  0.4878 -0.4068
   56MOL0     H 7683  10.701   3.229   0.272  1.7680  1.9173  0.7545
   56MOL0     H 7684  10.604   3.403   0.097 -4.6807 -1.5852  0.8926
   56MOL0     H 7685  10.667   3.297  -0.028 -0.2471 -2.5659 -0.9405
   56MOL0     H 7686  10.522   3.318  -0.160 -2.1444  0.7090 -3.7891
   56MOL0     H 7687  10.432   3.368  -0.362 -1.5393  1.2663 -2.7790
   56MOL0     H 7688  10.272   3.319  -0.402  0.2242 -1.2084 -1.0799
   56MOL0     H 7689  10.412   3.214  -0.452 -0.7538 -1.4435  0.0632
   56MOL0     H 7690   9.973   3.170  -0.472 -1.2448  0.1617  0.2632
   56MOL0     H 7691   9.808   3.117  -0.659 -0.7198 -2.3131 -2.2930
   56MOL0     H 7692   9.631   2.733  -0.670  2.4505  0.5610 -2.9631
   56MOL0     H 7693   9.515   2.863  -0.618 -1.0588  2.3533 -2.1791
   56MOL0     H 7694   9.429   2.766  -0.804 -0.6217  0.6309 -0.3127
   56MOL0     H 7695   9.467   2.936  -0.834  0.7546  0.9747 -1.7131
   56MOL0     H 7696   9.693   2.863  -0.946 -1.2062  2.4853  1.0513
   56MOL0     H 7697   9.545   2.837  -1.039  1.8464  0.6096 -0.6074
   56MOL0     H 7698   9.520   2.615  -0.918 -0.4408  1.7854  2.5199
   56MOL0     H 7699   9.676   2.635  -0.851  0.1183 -2.8702  0.3659
   56MOL0     H 7700   9.601   2.622  -1.150 -1.1171 -1.3437  0.1428
   56MOL0     H 7701   9.753   2.694  -1.098  0.9700 -1.4460 -3.1737
   56MOL0     H 7702   9.678   2.419  -0.992  0.9099 -1.5949 -1.3960
   56MOL0     H 7703   9.844   2.477  -1.037  1.7045  0.9446 -4.2561
   56MOL0     H 7704   9.722   2.484  -1.275  1.0412 -1.9788 -1.6691
   56MOL0     H 7705   9.596   2.377  -1.198 -0.0063 -2.3800 -0.7046
   56MOL0     H 7706   9.751   2.245  -1.309 -3.1077  0.7246  0.9515
   56MOL0     H 7707   9.784   2.209  -1.138 -0.2028 -1.1628 -0.5748
   56MOL0     H 7708   9.790   2.716  -0.526 -0.2287  0.0381  2.1070
   56MOL0     H 7709   9.962   2.760  -0.350  1.8681 -1.3933 -0.6836
   56MOL0     H 7710  10.205   2.949  -0.084 -0.7618 -1.4344 -5.4586
   56MOL0     H 7711  10.374   3.010   0.106  1.6973  0.1761 -0.0731
   56MOL0     H 7712  11.439   2.166   0.270  0.5562 -1.6143  1.6637
   56MOL0     H 7713  11.347   1.986   0.376  4.0600 -0.2988  1.2494
   56MOL0     H 7714  11.033   1.755   0.636  0.7539  1.2156 -0.7667
   56MOL0     H 7715  11.034   1.532   0.721  1.8185  0.0419 -1.0144
   56MOL0     H 7716  11.015   1.310   1.047 -1.9717 -0.1468  0.6031
   56MOL0     H 7717  10.927   1.428   0.938  1.6012  2.7875 -0.9329
   56MOL0     H 7718  11.089   1.200   0.832  2.4113  2.2557  1.4758
   56MOL0     H 7719  11.006   1.322   0.740  0.3706 -0.0034 -0.0963
   56MOL0     H 7720  10.862   1.148   0.939  1.2199 -0.1882 -0.4617
   56MOL0     H 7721  10.789   1.270   0.826 -0.0972 -0.0285 -1.0023
   56MOL0     H 7722  10.912   1.113   0.646  1.4808  0.2399  2.1866
   56MOL0     H 7723  10.746   1.091   0.696  0.4004 -1.2140 -1.3279
   56MOL0     H 7724  10.941   0.743   0.846  1.0963 -0.1375 -3.7462
   56MOL0     H 7725  11.298   1.638   1.037 -1.2956 -1.6455  0.4728
   56MOL0     H 7726  11.375   1.847   1.050 -0.5540  1.2363  0.7997
   56MOL0     H 7727  11.446   1.896   0.903  0.2670  0.0288  0.9207
   56MOL0     H 7728  11.298   1.977   0.948  0.8282  0.7985  0.6787
   57MOL0     O 7729   5.541   7.237  10.129 -0.2580 -0.7178 -0.4741
   57MOL0     C 7730   5.562   7.278  10.244  0.7068 -0.0045  0.1259
   57MOL0     O 7731   5.484   7.246  10.352 -0.1732 -0.4773 -0.1414
   57MOL0     C 7732   5.371   7.170  10.349  0.1758  0.6836 -0.9524
   57MOL0     C 7733   5.282   7.141  10.244 -0.6209 -0.0214 -0.1902
   57MOL0     C 7734   5.175   7.046  10.262  0.1472 -1.0718  0.4644
   57MOL0     C 7735   5.151   6.994  10.390  0.2909 -0.7258 -0.1295
   57MOL0     O 7736   5.045   6.910  10.390  0.1182  0.4623 -0.1824
   57MOL0     C 7737   4.994   6.862  10.516  0.1475 -0.0507  0.1208
   57MOL0     C 7738   4.869   6.763  10.495 -0.2878  0.3838 -0.8863
   57MOL0     C 7739   4.757   6.840  10.422 -0.5026 -0.5136 -0.4670
   57MOL0     C 7740   4.627   6.757  10.404 -0.1325 -0.5559 -0.1201
   57MOL0     C 7741   4.560   6.736  10.550 -0.3898 -0.9404  1.2028
   57MOL0     C 7742   4.542   6.868  10.637  0.4286 -0.5368  1.2829
   57MOL0     C 7743   4.447   6.853  10.755 -0.5370  0.3416  0.1292
   57MOL0     C 7744   4.310   6.795  10.718  0.1685  0.0608 -0.1404
   57MOL0     N 7745   4.216   6.814  10.825 -0.5218 -0.3666  0.1797
   57MOL0     C 7746   4.167   6.713  10.908 -0.2498 -0.2811 -0.7268
   57MOL0     C 7747   4.102   6.777  11.009 -0.6233  0.0127 -0.2216
   57MOL0     C 7748   4.047   6.681  11.119  0.2512 -0.1949  0.6230
   57MOL0     C 7749   4.020   6.749  11.245 -0.9242 -0.7732  0.7863
   57MOL0     C 7750   3.933   6.663  11.331  0.6498 -0.0314 -0.0986
   57MOL0     C 7751   3.931   6.719  11.475 -0.4974  0.5469 -0.4485
   57MOL0     O 7752   3.885   6.618  11.566 -0.6190 -0.0198 -0.1106
   57MOL0     C 7753   3.836   6.646  11.692  0.1888 -0.2708 -0.4668
   57MOL0     C 7754   3.775   6.543  11.759  0.5802  1.2813 -0.1708
   57MOL0     C 7755   3.721   6.557  11.890  0.2406  0.2621  0.0139
   57MOL0     C 7756   3.645   6.439  11.942 -1.1697  0.1556 -0.4382
   57MOL0     C 7757   3.732   6.685  11.947 -0.1649  0.1356 -0.3047
   57MOL0     C 7758   3.685   6.716  12.083  0.6118  0.5530  0.1877
   57MOL0     O 7759   3.759   6.803  12.166 -0.6714  0.0536 -0.6385
   57MOL0     C 7760   3.704   6.858  12.281  0.0861 -0.8264 -0.1255
   57MOL0     C 7761   3.600   6.951  12.271 -0.4986 -0.3995  0.1922
   57MOL0     C 7762   3.527   6.994  12.382 -0.2020 -0.6212 -0.1355
   57MOL0     C 7763   3.584   6.967  12.508  0.8139  0.4491  0.6239
   57MOL0     O 7764   3.515   7.018  12.622 -1.0056 -0.2421  0.6474
   57MOL0     C 7765   3.590   7.130  12.671  0.2009 -0.1409  0.5270
   57MOL0     C 7766   3.663   7.094  12.806  0.8417 -0.0443  0.7939
   57MOL0     C 7767   3.787   7.183  12.825 -0.1275 -0.2675 -0.5241
   57MOL0     C 7768   3.850   7.176  12.967  0.1384  0.1639 -0.0170
   57MOL0     C 7769   3.994   7.229  12.970  0.4382 -0.3526  0.8009
   57MOL0     C 7770   4.062   7.199  13.104 -0.3846 -1.2342 -0.0257
   57MOL0     C 7771   4.209   7.245  13.094  0.1764 -0.2179  0.0881
   57MOL0     C 7772   4.274   7.212  13.228 -0.7923  0.3959  0.0749
   57MOL0    Cl 7773   4.270   7.030  13.260  0.3244 -0.0519  0.0557
   57MOL0     C 7774   3.698   6.894  12.525  0.6498 -0.0728 -0.2429
   57MOL0     C 7775   3.755   6.826  12.411  0.2462  0.2351  0.1560
   57MOL0     O 7776   3.577   6.670  12.110  0.3634  0.8879  0.7185
   57MOL0     C 7777   3.796   6.787  11.882 -0.3866  0.4218 -0.8689
   57MOL0     C 7778   3.860   6.770  11.752  0.2616 -0.1621 -0.3022
   57MOL0     N 7779   4.101   6.913  10.988  0.1263  0.6875  0.2979
   57MOL0     N 7780   4.178   6.931  10.878  0.3853 -0.1148 -0.1297
   57MOL0     C 7781   5.249   7.014  10.496 -0.1941 -0.4483 -0.0381
   57MOL0     C 7782   5.355   7.108  10.479 -0.5136 -0.2662  1.0642
   57MOL0     C 7783   5.674   7.348  10.265 -0.4306 -0.3053 -0.1082
   57MOL0     C 7784   5.797   7.323  10.192  0.5359  0.0017  0.2520
   57MOL0     C 7785   5.912   7.404  10.220  0.1404  0.1374  0.9287
   57MOL0     C 7786   5.915   7.495  10.327  0.5507 -1.2746 -0.6150
   57MOL0     O 7787   6.024   7.574  10.335 -1.0368 -1.1735 -0.2303
   57MOL0     C 7788   6.143   7.501  10.380  0.4517 -0.2441  1.0524
   57MOL0     C 7789   6.269   7.557  10.306  1.0031 -0.2877 -0.6893
   57MOL0     C 7790   6.259   7.543  10.152 -0.1339 -0.0646 -0.0633
   57MOL0     C 7791   6.309   7.672  10.078 -0.2436 -0.5854  0.2237
   57MOL0     C 7792   6.434   7.648  10.011  0.5450  0.0289 -0.2506
   57MOL0     C 7793   6.551   7.622   9.974 -0.0199 -0.4379 -0.6011
   57MOL0     C 7794   5.799   7.526  10.392 -0.4734 -1.0320  0.7915
   57MOL0     C 7795   5.679   7.460  10.357  0.5228  0.1558  0.0802
   57MOL0     C 7796   5.553   7.508  10.423 -0.2223  0.1534 -1.3034
   57MOL0     H 7797   5.311   7.191  10.153  2.3219 -1.3657 -0.0967
   57MOL0     H 7798   5.117   7.029  10.171 -3.0452 -0.5034  2.2409
   57MOL0     H 7799   4.948   6.949  10.566 -1.1947 -0.9778  0.5545
   57MOL0     H 7800   5.065   6.809  10.580  1.1163  0.6201 -0.3885
   57MOL0     H 7801   4.890   6.667  10.447 -1.8829 -0.2391 -0.4149
   57MOL0     H 7802   4.836   6.744  10.597  1.3868  1.7808 -0.0478
   57MOL0     H 7803   4.746   6.938  10.470 -1.7183 -1.8089  2.1350
   57MOL0     H 7804   4.799   6.846  10.321  1.5717 -1.9296  0.2454
   57MOL0     H 7805   4.565   6.822  10.342 -1.4051 -2.4342 -0.9058
   57MOL0     H 7806   4.644   6.660  10.358 -0.6215 -2.1617  2.8317
   57MOL0     H 7807   4.640   6.670  10.586  0.5304 -0.9219 -0.6620
   57MOL0     H 7808   4.468   6.678  10.552  0.3989 -2.2401  3.8338
   57MOL0     H 7809   4.638   6.905  10.674  0.6165 -1.3323  1.6165
   57MOL0     H 7810   4.500   6.949  10.576 -0.3765 -1.7808  0.1284
   57MOL0     H 7811   4.434   6.952  10.800  0.7462  1.2581 -1.4016
   57MOL0     H 7812   4.492   6.789  10.831 -0.1484 -1.0641 -1.2169
   57MOL0     H 7813   4.271   6.849  10.631 -0.7511 -1.7844 -0.9310
   57MOL0     H 7814   4.327   6.687  10.709  0.9412 -0.3027  3.6586
   57MOL0     H 7815   4.175   6.606  10.900  3.1473 -0.1760  0.0456
   57MOL0     H 7816   4.117   6.599  11.140  0.6191  0.9231  4.4475
   57MOL0     H 7817   3.954   6.636  11.082 -0.0456  3.1592 -3.3211
   57MOL0     H 7818   4.112   6.787  11.291 -1.1324  3.0414 -1.5116
   57MOL0     H 7819   3.960   6.840  11.231 -2.7332 -1.9629  0.5545
   57MOL0     H 7820   3.831   6.659  11.290  1.8379  0.9671 -3.4809
   57MOL0     H 7821   3.961   6.557  11.329  2.2732  0.3775 -1.6453
   57MOL0     H 7822   4.030   6.753  11.507 -0.3492  1.2122 -1.5533
   57MOL0     H 7823   3.854   6.797  11.479 -0.5391  0.7178 -2.8217
   57MOL0     H 7824   3.758   6.455  11.698 -0.3761  0.2493  1.4766
   57MOL0     H 7825   3.538   6.450  11.964 -0.7432 -1.9023  3.8480
   57MOL0     H 7826   3.696   6.415  12.036  0.9578  1.4209 -1.2027
   57MOL0     H 7827   3.666   6.348  11.885  0.9633 -2.1738  3.5598
   57MOL0     H 7828   3.553   6.977  12.176 -2.7031  0.9769  1.5793
   57MOL0     H 7829   3.436   7.053  12.381 -1.3963 -2.2423  2.3656
   57MOL0     H 7830   3.665   7.162  12.597 -1.1292 -0.4415 -1.0159
   57MOL0     H 7831   3.519   7.214  12.667 -1.6139 -1.6370 -2.4800
   57MOL0     H 7832   3.588   7.102  12.885 -1.3118 -0.2877 -1.1006
   57MOL0     H 7833   3.684   6.987  12.800  1.2573  0.0320  0.8592
   57MOL0     H 7834   3.776   7.289  12.801 -0.1168  0.0379  0.7593
   57MOL0     H 7835   3.866   7.147  12.758 -1.3381 -1.1210 -1.5397
   57MOL0     H 7836   3.846   7.069  12.986 -1.6065 -0.0808 -1.5223
   57MOL0     H 7837   3.792   7.236  13.038  0.0557  0.1927 -0.1084
   57MOL0     H 7838   4.054   7.182  12.891  1.1458  5.1078 -2.4558
   57MOL0     H 7839   3.995   7.338  12.958 -0.3919 -0.3819  0.3854
   57MOL0     H 7840   4.054   7.095  13.137  1.9745 -2.6630 -3.4895
   57MOL0     H 7841   4.009   7.261  13.178 -0.9509  0.5030 -1.8079
   57MOL0     H 7842   4.214   7.353  13.079  0.6953 -0.3435 -0.6722
   57MOL0     H 7843   4.272   7.200  13.017  2.5281  2.9896 -0.0577
   57MOL0     H 7844   4.226   7.248  13.319 -0.4118  0.7713  0.1306
   57MOL0     H 7845   4.377   7.247  13.221 -0.8507  0.3299 -1.5522
   57MOL0     H 7846   3.724   6.868  12.627 -0.2272  3.5958  1.0972
   57MOL0     H 7847   3.845   6.766  12.422  0.4194 -0.0264 -2.1129
   57MOL0     H 7848   3.798   6.886  11.926 -1.4017 -0.4053  1.1774
   57MOL0     H 7849   3.917   6.856  11.719  3.6458 -2.0978  0.1027
   57MOL0     H 7850   5.233   6.963  10.590  0.5379  1.9323  1.4638
   57MOL0     H 7851   5.414   7.130  10.567 -2.2429  1.9971  1.7491
   57MOL0     H 7852   5.787   7.247  10.116 -0.0625 -1.3092  1.5779
   57MOL0     H 7853   5.996   7.394  10.152  0.0507  3.2559  0.2187
   57MOL0     H 7854   6.156   7.513  10.488 -0.8925  3.8529  0.9234
   57MOL0     H 7855   6.146   7.395  10.350 -2.8123  0.1900 -1.3635
   57MOL0     H 7856   6.361   7.504  10.330  0.2165 -1.2080  0.3997
   57MOL0     H 7857   6.267   7.663  10.329 -1.6626 -0.0236 -1.7295
   57MOL0     H 7858   6.311   7.458  10.106  3.5140  3.2917 -2.8091
   57MOL0     H 7859   6.154   7.525  10.131 -1.0361  2.6945  1.6488
   57MOL0     H 7860   6.320   7.762  10.139 -1.5771 -1.1357  1.3286
   57MOL0     H 7861   6.244   7.695   9.993  1.2862 -0.9510 -1.0777
   57MOL0     H 7862   6.653   7.609   9.943  0.4050 -1.9756  1.2044
   57MOL0     H 7863   5.800   7.605  10.467  0.8388  1.4052 -1.5962
   57MOL0     H 7864   5.558   7.611  10.459 -2.4339  1.0987 -3.4237
   57MOL0     H 7865   5.483   7.514  10.340  0.0610 -1.2134 -1.6663
   57MOL0     H 7866   5.522   7.445  10.507 -0.8111  1.7301 -0.2731
   58MOL0     O 7867   3.127  10.694   3.881 -0.5039  0.1345  0.4414
   58MOL0     C 7868   3.034  10.741   3.811  0.0696  0.7666 -0.7756
   58MOL0     O 7869   2.939  10.834   3.858  0.4252 -0.1328 -0.1816
   58MOL0     C 7870   2.962  10.903   3.973  0.0028 -0.5479 -0.2734
   58MOL0     C 7871   2.917  10.857   4.097 -0.1319 -0.1700  0.8237
   58MOL0     C 7872   2.940  10.924   4.213  0.3587 -0.1617 -0.8486
   58MOL0     C 7873   3.011  11.051   4.208  0.6494 -0.0885 -0.0132
   58MOL0     O 7874   3.038  11.137   4.311 -0.6775  0.3582 -0.2168
   58MOL0     C 7875   3.074  11.073   4.434 -0.6899 -0.4819  0.2412
   58MOL0     C 7876   3.158  11.172   4.524 -0.1214 -0.1683  0.3826
   58MOL0     C 7877   3.114  11.181   4.672 -0.0287 -0.1307 -0.4364
   58MOL0     C 7878   3.178  11.083   4.770  0.8138  0.0559  0.3331
   58MOL0     C 7879   3.145  11.086   4.922  0.4787 -0.4752  0.3763
   58MOL0     C 7880   3.013  11.026   4.967 -0.1152 -0.1331  0.8388
   58MOL0     C 7881   3.025  10.981   5.113  0.9191  0.3903  0.6241
   58MOL0     C 7882   2.889  10.933   5.174 -0.5443 -0.1903  1.1662
   58MOL0     N 7883   2.888  10.887   5.312  0.4382 -0.3466 -0.0959
   58MOL0     C 7884   2.989  10.893   5.407 -0.5249  0.2482  0.1957
   58MOL0     C 7885   2.948  10.862   5.529  0.4439  0.3244  0.4910
   58MOL0     C 7886   2.994  10.878   5.666  0.0079  0.3249  0.4409
   58MOL0     C 7887   3.095  10.774   5.726 -0.9711 -0.0265 -0.8456
   58MOL0     C 7888   3.025  10.639   5.772 -0.9894 -0.6141 -1.1537
   58MOL0     C 7889   2.971  10.552   5.652  0.0187  0.4139 -0.7380
   58MOL0     O 7890   3.082  10.530   5.561 -0.2061  0.1110  0.2081
   58MOL0     C 7891   3.054  10.530   5.428  0.1020 -0.8732  0.7529
   58MOL0     C 7892   2.924  10.522   5.368 -0.2547  0.8118  0.5999
   58MOL0     C 7893   2.901  10.550   5.231  0.1671 -0.6000  0.2696
   58MOL0     C 7894   2.760  10.542   5.181  0.0976  0.0622 -0.5324
   58MOL0     C 7895   3.013  10.574   5.152  0.5972  0.0556  0.1939
   58MOL0     C 7896   3.012  10.579   5.005 -0.3541 -0.5842  0.0767
   58MOL0     O 7897   3.114  10.643   4.947  0.1354 -0.5812 -0.6068
   58MOL0     C 7898   3.122  10.667   4.820  1.6408 -0.1642  1.0438
   58MOL0     C 7899   3.247  10.650   4.765  0.5265 -0.1662 -0.3465
   58MOL0     C 7900   3.268  10.685   4.625 -0.2609 -0.0869 -0.4801
   58MOL0     C 7901   3.165  10.726   4.545  0.0315  0.2490 -1.3539
   58MOL0     O 7902   3.184  10.757   4.411 -0.5812 -0.6265 -0.1546
   58MOL0     C 7903   3.283  10.683   4.342  0.8243  0.1464 -1.1938
   58MOL0     C 7904   3.259  10.710   4.199 -0.4762 -0.1825 -0.0100
   58MOL0     C 7905   3.341  10.614   4.114  0.3586 -0.1055  0.8415
   58MOL0     C 7906   3.490  10.641   4.125 -0.0879 -0.7558  0.3745
   58MOL0     C 7907   3.574  10.595   3.999 -0.4245 -0.1183  0.6463
   58MOL0     C 7908   3.701  10.683   3.989  0.2508  0.0993 -0.9330
   58MOL0     C 7909   3.779  10.645   3.862  1.0323 -0.6421 -0.4038
   58MOL0     C 7910   3.865  10.521   3.866 -0.1957  0.3560 -0.0974
   58MOL0    Cl 7911   4.022  10.567   3.949 -0.5876  0.0559  0.2111
   58MOL0     C 7912   3.036  10.729   4.597  1.3138  0.8015  0.2406
   58MOL0     C 7913   3.019  10.697   4.735 -0.5245  0.3071 -0.4816
   58MOL0     O 7914   2.921  10.519   4.947 -0.4332  0.4577  1.1249
   58MOL0     C 7915   3.139  10.561   5.209 -0.9957  0.3939 -0.3152
   58MOL0     C 7916   3.162  10.552   5.347 -0.0084  0.3571 -0.6118
   58MOL0     N 7917   2.819  10.825   5.503  0.5125  1.2902  0.5031
   58MOL0     N 7918   2.780  10.840   5.377 -0.6310 -0.3949  0.2430
   58MOL0     C 7919   3.061  11.093   4.085 -0.0677  0.0994  1.3268
   58MOL0     C 7920   3.036  11.024   3.965 -0.3451 -1.0355  0.2088
   58MOL0     C 7921   3.030  10.690   3.673 -0.5594 -0.3325 -0.7317
   58MOL0     C 7922   2.943  10.766   3.587  0.3814  0.0984  0.0970
   58MOL0     C 7923   2.943  10.723   3.451  0.8671  0.3128 -0.1934
   58MOL0     C 7924   3.007  10.605   3.403  1.1137 -0.3099 -0.8952
   58MOL0     O 7925   3.016  10.565   3.270  0.3691  0.0800 -0.2831
   58MOL0     C 7926   2.896  10.499   3.232  0.5863  0.6578 -0.6326
   58MOL0     C 7927   2.916  10.344   3.215 -0.1910  0.4186 -0.7500
   58MOL0     C 7928   2.787  10.284   3.172  0.2630  0.9835 -0.5272
   58MOL0     C 7929   2.751  10.321   3.023  0.6582 -1.0610  0.1205
   58MOL0     C 7930   2.862  10.317   2.925 -0.5138 -0.2162  0.0039
   58MOL0     C 7931   2.952  10.324   2.847 -0.1236 -0.4303  0.1189
   58MOL0     C 7932   3.087  10.536   3.495  0.3624 -0.0447  0.7419
   58MOL0     C 7933   3.098  10.576   3.629  0.0513 -0.0367  0.4492
   58MOL0     C 7934   3.170  10.471   3.715 -0.0146 -0.7997 -0.2368
   58MOL0     H 7935   2.874  10.757   4.098  0.5669 -0.5488 -1.3112
   58MOL0     H 7936   2.913  10.887   4.311  1.8795  0.0962 -0.3045
   58MOL0     H 7937   3.133  10.983   4.414 -0.4282 -0.6358  1.6572
   58MOL0     H 7938   2.983  11.037   4.483 -0.3906 -2.7779 -0.7464
   58MOL0     H 7939   3.264  11.170   4.499 -0.2699 -0.7320 -0.2506
   58MOL0     H 7940   3.128  11.272   4.490 -0.5253 -0.4405 -0.0781
   58MOL0     H 7941   3.130  11.276   4.724 -1.7933  1.9049 -3.2896
   58MOL0     H 7942   3.005  11.175   4.678  0.0304 -0.8210  0.0276
   58MOL0     H 7943   3.165  10.983   4.728  2.2538  0.4227 -1.0758
   58MOL0     H 7944   3.281  11.118   4.758  0.9667  1.3010  4.0320
   58MOL0     H 7945   3.153  11.188   4.959  1.0458  0.0668 -1.1407
   58MOL0     H 7946   3.223  11.022   4.965  2.4558  0.5278 -1.5238
   58MOL0     H 7947   2.930  11.097   4.955  1.1041  0.8964 -2.6064
   58MOL0     H 7948   2.992  10.940   4.904  1.8627  0.1870 -0.3477
   58MOL0     H 7949   3.069  11.053   5.183  1.4853  2.1020 -1.3815
   58MOL0     H 7950   3.095  10.898   5.112  0.3643 -0.1192  1.7621
   58MOL0     H 7951   2.813  11.012   5.172  3.3234  3.9567 -0.9565
   58MOL0     H 7952   2.843  10.863   5.104 -2.2046  1.6302  0.3463
   58MOL0     H 7953   3.088  10.937   5.395 -0.6808  1.1154  1.8431
   58MOL0     H 7954   2.905  10.893   5.727  0.5129  1.7897  0.8488
   58MOL0     H 7955   3.061  10.965   5.665  2.6102 -1.4724  2.4735
   58MOL0     H 7956   3.175  10.745   5.657 -0.4596 -0.6916 -0.0124
   58MOL0     H 7957   3.148  10.813   5.814 -0.1158  0.4810 -1.5633
   58MOL0     H 7958   3.092  10.581   5.836 -0.2611  0.7927 -0.6123
   58MOL0     H 7959   2.939  10.664   5.834 -0.0771  0.1783 -0.1758
   58MOL0     H 7960   2.925  10.457   5.681 -2.1769  0.6010 -3.1314
   58MOL0     H 7961   2.892  10.615   5.609  1.7705  5.3774  2.4889
   58MOL0     H 7962   2.830  10.491   5.414 -3.2520  1.4240 -4.4169
   58MOL0     H 7963   2.745  10.460   5.111 -0.8785  0.1652 -0.4668
   58MOL0     H 7964   2.734  10.635   5.129  1.0561 -0.4282 -1.9322
   58MOL0     H 7965   2.695  10.531   5.268 -0.7324  0.3418 -1.1003
   58MOL0     H 7966   3.321  10.606   4.831  1.1877 -1.1676 -1.7108
   58MOL0     H 7967   3.363  10.679   4.573  1.0825 -3.5062  2.0123
   58MOL0     H 7968   3.373  10.735   4.377  0.0705  0.9953 -0.4813
   58MOL0     H 7969   3.273  10.577   4.369 -1.0999  0.5674 -0.0738
   58MOL0     H 7970   3.154  10.694   4.174 -1.9688  2.8570  3.3875
   58MOL0     H 7971   3.280  10.815   4.176 -0.2944 -0.6389 -2.1144
   58MOL0     H 7972   3.320  10.629   4.008  0.6610 -0.1246  0.7773
   58MOL0     H 7973   3.323  10.511   4.146  3.5149 -1.5608 -1.5114
   58MOL0     H 7974   3.539  10.610   4.217  0.5433  0.6692  0.5597
   58MOL0     H 7975   3.500  10.750   4.123  0.1219 -0.7673  0.8113
   58MOL0     H 7976   3.594  10.490   4.024 -0.0979  0.8781  5.4973
   58MOL0     H 7977   3.527  10.600   3.900  0.1302 -1.2608  0.2976
   58MOL0     H 7978   3.760  10.666   4.079  1.4350  0.2587 -1.6563
   58MOL0     H 7979   3.666  10.786   3.998 -0.6289 -0.3451  1.4956
   58MOL0     H 7980   3.843  10.729   3.832  2.4295 -1.6867 -0.4273
   58MOL0     H 7981   3.713  10.626   3.778  0.3647 -1.1764  0.2300
   58MOL0     H 7982   3.888  10.492   3.763 -0.4837 -2.6124  0.5936
   58MOL0     H 7983   3.805  10.441   3.911 -1.3488  1.8409  1.1578
   58MOL0     H 7984   2.945  10.756   4.544  0.7891 -1.5675 -0.1682
   58MOL0     H 7985   2.919  10.708   4.776  0.2782  2.6568  1.0309
   58MOL0     H 7986   3.220  10.574   5.138 -1.2062  0.6011 -0.5165
   58MOL0     H 7987   3.266  10.544   5.376  0.6265 -2.8920 -3.1546
   58MOL0     H 7988   3.129  11.177   4.084 -1.2839  1.1864 -1.9486
   58MOL0     H 7989   3.061  11.063   3.867 -0.2740  1.6741  1.2319
   58MOL0     H 7990   2.880  10.849   3.619  2.6315  1.8829  0.1125
   58MOL0     H 7991   2.884  10.778   3.378 -1.0733 -0.6231  0.5954
   58MOL0     H 7992   2.817  10.521   3.305 -0.5856 -2.9295 -0.6244
   58MOL0     H 7993   2.862  10.531   3.133 -1.1646 -4.5342 -2.0154
   58MOL0     H 7994   2.953  10.294   3.305  2.3018 -3.2785 -3.5533
   58MOL0     H 7995   2.996  10.322   3.144 -0.4062  0.2179 -0.9322
   58MOL0     H 7996   2.788  10.177   3.199  0.3267  1.2968  0.8131
   58MOL0     H 7997   2.715  10.323   3.245 -1.2821 -1.4131 -0.6555
   58MOL0     H 7998   2.704  10.420   3.027  1.9668 -0.4487  1.6982
   58MOL0     H 7999   2.676  10.248   2.992 -0.3580 -0.7583  1.7485
   58MOL0     H 8000   3.030  10.332   2.774  0.7353  0.0747  1.0711
   58MOL0     H 8001   3.141  10.449   3.458 -0.8633 -0.3807 -0.3170
   58MOL0     H 8002   3.261  10.514   3.758  1.3262 -1.4941 -2.2285
   58MOL0     H 8003   3.105  10.438   3.796 -1.3889 -1.3859 -1.5299
   58MOL0     H 8004   3.206  10.390   3.652  1.3269 -0.4145  0.0044
   59MOL0     O 8005   5.368   2.569   7.244 -0.2518  0.1842 -0.0716
   59MOL0     C 8006   5.430   2.673   7.218  0.7001 -0.6098  0.4711
   59MOL0     O 8007   5.430   2.732   7.091  0.0837 -0.1336 -0.1859
   59MOL0     C 8008   5.395   2.663   6.977  0.2796  1.1884 -0.8599
   59MOL0     C 8009   5.441   2.534   6.940  0.5757 -0.2161 -0.2488
   59MOL0     C 8010   5.375   2.461   6.847  0.1543  0.3182  0.6906
   59MOL0     C 8011   5.265   2.511   6.774  0.4543 -0.7003 -0.1076
   59MOL0     O 8012   5.207   2.436   6.681  0.3059 -0.1684 -0.3532
   59MOL0     C 8013   5.086   2.378   6.737 -0.8221  0.0551  0.2341
   59MOL0     C 8014   4.967   2.454   6.689 -0.5821  0.1242 -0.6425
   59MOL0     C 8015   4.836   2.382   6.679 -0.0231 -0.3705 -0.1881
   59MOL0     C 8016   4.725   2.464   6.606  0.7179 -0.4971  0.1783
   59MOL0     C 8017   4.593   2.386   6.599 -0.5515  0.7098  0.9179
   59MOL0     C 8018   4.608   2.259   6.519  0.1985 -0.3126  0.1979
   59MOL0     C 8019   4.468   2.194   6.484  0.6211  0.2493 -0.0141
   59MOL0     C 8020   4.480   2.058   6.406  1.2060 -0.9166  0.0812
   59MOL0     N 8021   4.491   2.066   6.253  0.1596 -0.8918  0.6972
   59MOL0     C 8022   4.533   1.951   6.190  0.6152 -0.8349 -0.7131
   59MOL0     C 8023   4.507   1.976   6.062 -0.6726  0.3356 -0.4487
   59MOL0     C 8024   4.553   1.900   5.950 -0.5377  0.8042  0.7563
   59MOL0     C 8025   4.661   1.978   5.871 -0.3947 -0.7909 -0.1816
   59MOL0     C 8026   4.694   1.899   5.746  0.0936  0.2137 -0.2174
   59MOL0     C 8027   4.772   1.761   5.769  0.4453 -0.8736 -0.5945
   59MOL0     O 8028   4.884   1.774   5.852 -0.5591 -0.3047 -0.1793
   59MOL0     C 8029   4.975   1.671   5.841 -0.5116  0.0326 -0.2541
   59MOL0     C 8030   4.934   1.533   5.816 -0.1042  0.5274 -0.0147
   59MOL0     C 8031   5.027   1.424   5.819 -0.5684 -0.1761  0.4240
   59MOL0     C 8032   4.980   1.284   5.792  0.1392 -0.6522 -0.5273
   59MOL0     C 8033   5.161   1.453   5.841  0.5362  1.0006  1.0037
   59MOL0     C 8034   5.264   1.359   5.857  0.7073 -0.1044  0.2513
   59MOL0     O 8035   5.349   1.394   5.954 -0.0548  0.3533  0.3711
   59MOL0     C 8036   5.472   1.331   5.938  0.1030 -0.2451  1.0644
   59MOL0     C 8037   5.557   1.364   5.832  0.6006 -0.1195 -0.4013
   59MOL0     C 8038   5.678   1.295   5.812 -0.0583 -1.2091 -1.6943
   59MOL0     C 8039   5.713   1.199   5.898 -0.5173 -0.3446  0.4230
   59MOL0     O 8040   5.822   1.116   5.867  0.3940  0.2192 -0.5198
   59MOL0     C 8041   5.851   1.080   5.734 -0.1657  0.1739 -0.2213
   59MOL0     C 8042   5.973   1.154   5.679 -0.1465 -1.0129 -0.4659
   59MOL0     C 8043   6.000   1.126   5.532 -0.2534 -0.1364  0.4318
   59MOL0     C 8044   6.006   0.968   5.517 -0.0683  0.6623 -0.1739
   59MOL0     C 8045   6.061   0.943   5.378  0.2256 -0.2299  0.0473
   59MOL0     C 8046   6.103   0.797   5.374  0.5753  0.3563  0.4926
   59MOL0     C 8047   6.106   0.731   5.246  0.2826 -0.3896  0.5148
   59MOL0     C 8048   6.217   0.785   5.161 -0.7221 -0.2718  1.1966
   59MOL0    Cl 8049   6.128   0.915   5.070  0.1171  0.1660 -0.3865
   59MOL0     C 8050   5.651   1.173   6.013  1.4256 -0.6198 -0.7281
   59MOL0     C 8051   5.519   1.232   6.029 -0.5841 -0.6864  0.2435
   59MOL0     O 8052   5.280   1.262   5.785  0.6931 -0.3583 -0.5076
   59MOL0     C 8053   5.196   1.584   5.868  0.0510  0.2816 -0.1762
   59MOL0     C 8054   5.110   1.698   5.867  0.2181 -0.7941 -0.5205
   59MOL0     N 8055   4.456   2.109   6.051 -0.7650 -0.3766  0.1577
   59MOL0     N 8056   4.442   2.158   6.169 -0.5178  0.5151 -0.2342
   59MOL0     C 8057   5.233   2.646   6.791  0.0359  0.3467 -0.0179
   59MOL0     C 8058   5.301   2.711   6.892  0.3564 -1.0716  0.2336
   59MOL0     C 8059   5.490   2.735   7.339 -0.1636  0.2372  0.6726
   59MOL0     C 8060   5.465   2.668   7.467 -0.7775 -1.1682  0.1145
   59MOL0     C 8061   5.527   2.720   7.581 -0.1134  0.3214  0.5799
   59MOL0     C 8062   5.591   2.836   7.591  0.2589 -0.7787 -0.9214
   59MOL0     O 8063   5.627   2.889   7.708 -0.6765  0.6154  0.1724
   59MOL0     C 8064   5.534   2.918   7.818 -0.4300 -0.1108  0.7516
   59MOL0     C 8065   5.609   2.975   7.933 -0.6122  0.2063 -0.9225
   59MOL0     C 8066   5.533   3.015   8.061  0.0323 -0.4140  0.0164
   59MOL0     C 8067   5.448   3.146   8.050  0.5404 -0.1083  0.2677
   59MOL0     C 8068   5.404   3.165   8.190  0.4932  0.2435 -0.1447
   59MOL0     C 8069   5.366   3.187   8.305  0.5862  0.1047  0.0263
   59MOL0     C 8070   5.594   2.920   7.471 -0.0791  0.2821 -0.1100
   59MOL0     C 8071   5.559   2.859   7.339 -0.7406 -0.0888 -0.3964
   59MOL0     C 8072   5.585   2.948   7.224  0.8503  0.6666 -0.0501
   59MOL0     H 8073   5.511   2.485   7.007 -0.9452 -1.2402  0.6822
   59MOL0     H 8074   5.414   2.362   6.830  2.2401  1.0926  0.6786
   59MOL0     H 8075   5.096   2.368   6.845  4.0163 -1.7990 -0.1664
   59MOL0     H 8076   5.071   2.278   6.695 -3.6736 -0.4835  2.2582
   59MOL0     H 8077   4.952   2.543   6.751 -0.0550  0.3657 -0.8514
   59MOL0     H 8078   5.003   2.490   6.592 -1.0417 -1.7955 -1.5661
   59MOL0     H 8079   4.850   2.294   6.615 -1.1582 -0.3961 -0.4323
   59MOL0     H 8080   4.808   2.343   6.777 -0.7844 -1.2195 -0.7288
   59MOL0     H 8081   4.706   2.557   6.659  0.9517  0.7098 -1.7415
   59MOL0     H 8082   4.747   2.496   6.503 -3.1015  2.3508  0.0478
   59MOL0     H 8083   4.517   2.444   6.545 -1.6842 -1.0352  0.5593
   59MOL0     H 8084   4.553   2.369   6.699 -0.7435  0.2325  0.7645
   59MOL0     H 8085   4.664   2.280   6.427 -0.3749  0.9088  0.1178
   59MOL0     H 8086   4.659   2.188   6.586 -0.4348  0.3348  1.3868
   59MOL0     H 8087   4.415   2.272   6.429 -1.7743  0.8827  2.9317
   59MOL0     H 8088   4.403   2.172   6.570  0.4686 -2.6406 -0.7488
   59MOL0     H 8089   4.563   2.005   6.453  0.3079 -1.5200  1.0389
   59MOL0     H 8090   4.395   1.996   6.435 -1.1002  1.3570 -1.3507
   59MOL0     H 8091   4.577   1.858   6.225 -1.6727 -1.3621  0.9554
   59MOL0     H 8092   4.465   1.890   5.887 -2.6988  1.2466  3.5028
   59MOL0     H 8093   4.599   1.806   5.984  1.8500  2.4218  2.3098
   59MOL0     H 8094   4.619   2.076   5.852  0.6262 -0.2171  0.4123
   59MOL0     H 8095   4.748   1.996   5.935 -0.8240  1.5201 -0.1768
   59MOL0     H 8096   4.602   1.875   5.691  0.9410 -0.5886 -1.3273
   59MOL0     H 8097   4.755   1.965   5.685  3.1000 -2.2250 -0.0700
   59MOL0     H 8098   4.702   1.691   5.816  1.7187 -0.6533  1.7746
   59MOL0     H 8099   4.802   1.724   5.671 -1.6608  1.9768 -2.4948
   59MOL0     H 8100   4.827   1.514   5.817 -0.0968  0.4906  0.3411
   59MOL0     H 8101   4.871   1.285   5.798  0.0332  1.9242 -1.7222
   59MOL0     H 8102   5.026   1.221   5.869  2.1631  1.6633  0.3063
   59MOL0     H 8103   5.016   1.235   5.700  0.6900 -1.5998  0.1678
   59MOL0     H 8104   5.534   1.438   5.757 -0.9944  0.2710  0.4366
   59MOL0     H 8105   5.741   1.317   5.726  3.2744 -0.7335  0.7119
   59MOL0     H 8106   5.875   0.973   5.742 -2.3091 -0.3602 -0.5010
   59MOL0     H 8107   5.760   1.092   5.675  0.6509 -3.6470 -2.6645
   59MOL0     H 8108   5.957   1.262   5.676 -3.3995 -1.3969 -0.7230
   59MOL0     H 8109   6.055   1.135   5.750 -0.8467 -2.5657 -0.0259
   59MOL0     H 8110   6.095   1.168   5.497  0.4338  1.6785  4.0335
   59MOL0     H 8111   5.922   1.164   5.466 -0.1042 -0.4318  0.0849
   59MOL0     H 8112   5.902   0.936   5.527 -1.0864  3.4981 -0.4908
   59MOL0     H 8113   6.063   0.913   5.592 -2.6321 -1.7968  0.1225
   59MOL0     H 8114   5.979   0.960   5.307 -2.2979  2.1978  3.2222
   59MOL0     H 8115   6.150   1.001   5.355  1.3600 -1.4673  1.1467
   59MOL0     H 8116   6.045   0.735   5.444  0.7517 -0.1683  0.1812
   59MOL0     H 8117   6.205   0.804   5.415  0.7578  0.6926 -0.0093
   59MOL0     H 8118   6.013   0.742   5.189  1.7984 -3.4423 -3.0288
   59MOL0     H 8119   6.112   0.622   5.254  0.2643 -0.2630  3.0529
   59MOL0     H 8120   6.247   0.703   5.095  2.3670  0.9716  0.8928
   59MOL0     H 8121   6.305   0.827   5.211  0.2149  0.5244 -0.9908
   59MOL0     H 8122   5.692   1.093   6.074  1.2094  0.7868  1.3787
   59MOL0     H 8123   5.471   1.196   6.119 -0.0371 -2.1229 -0.0152
   59MOL0     H 8124   5.297   1.604   5.899  1.1704 -3.5642 -0.7676
   59MOL0     H 8125   5.155   1.795   5.884  0.6555 -0.5392 -2.8462
   59MOL0     H 8126   5.153   2.694   6.736 -0.3915 -0.1217  0.1793
   59MOL0     H 8127   5.267   2.813   6.903  2.7357  0.1834 -2.8901
   59MOL0     H 8128   5.392   2.588   7.476 -1.3846 -0.4081  2.9158
   59MOL0     H 8129   5.519   2.659   7.671 -0.3551  3.0056  2.5183
   59MOL0     H 8130   5.464   2.989   7.773  0.7326 -0.5624 -1.9550
   59MOL0     H 8131   5.470   2.834   7.850 -0.4128 -0.4271 -0.0256
   59MOL0     H 8132   5.650   3.066   7.888 -0.3186  0.2371 -0.5935
   59MOL0     H 8133   5.694   2.908   7.944 -0.9040 -0.1449 -0.7925
   59MOL0     H 8134   5.469   2.928   8.080  0.9389 -1.4771 -1.5875
   59MOL0     H 8135   5.600   3.017   8.147  1.1012 -2.5784 -0.6881
   59MOL0     H 8136   5.360   3.122   7.990  1.3516 -1.7062 -0.3453
   59MOL0     H 8137   5.509   3.230   8.016  0.8899 -0.5598 -0.2432
   59MOL0     H 8138   5.341   3.206   8.407  3.6921 -0.1524  0.9454
   59MOL0     H 8139   5.661   3.005   7.471  1.7478 -1.0977 -1.4332
   59MOL0     H 8140   5.657   3.024   7.254  1.8151 -0.4203  0.5141
   59MOL0     H 8141   5.633   2.887   7.147  0.5973 -0.4472  0.6480
   59MOL0     H 8142   5.489   2.994   7.198  2.2098  3.3229 -0.6946
   60MOL0     O 8143   3.138   9.911   5.726  0.5124  0.5407  0.6529
   60MOL0     C 8144   3.061   9.989   5.776 -0.1233  0.0776 -0.3808
   60MOL0     O 8145   2.969  10.064   5.712  0.0832  0.9816 -0.2668
   60MOL0     C 8146   2.966  10.060   5.579  0.1276 -0.0708  0.7573
   60MOL0     C 8147   2.894   9.950   5.520  0.0415 -0.0238  0.0493
   60MOL0     C 8148   2.888   9.945   5.379 -0.2532  0.4381  0.3029
   60MOL0     C 8149   2.959  10.031   5.298 -0.4027 -0.6186 -0.7504
   60MOL0     O 8150   2.948  10.008   5.165  0.5280  0.5595 -0.5513
   60MOL0     C 8151   2.999  10.119   5.079 -0.3697 -0.9044 -0.4310
   60MOL0     C 8152   2.949  10.093   4.943  0.2030 -0.9241  0.9274
   60MOL0     C 8153   2.976   9.948   4.888  0.0962  0.1950  0.1639
   60MOL0     C 8154   2.939   9.946   4.738  0.6354  0.9551  0.4198
   60MOL0     C 8155   3.028   9.861   4.653 -0.4276  0.3921  0.3016
   60MOL0     C 8156   2.966   9.721   4.658  1.0587  1.1529  0.4180
   60MOL0     C 8157   2.850   9.717   4.548 -0.1234 -0.1454 -0.2190
   60MOL0     C 8158   2.792   9.568   4.529 -1.0982  0.4099  0.2923
   60MOL0     N 8159   2.767   9.500   4.661 -0.7904  0.0207 -0.2114
   60MOL0     C 8160   2.654   9.506   4.734  0.0504 -0.0708 -0.7822
   60MOL0     C 8161   2.681   9.428   4.845  0.5000  0.9118 -1.7309
   60MOL0     C 8162   2.576   9.412   4.956 -0.0754  1.1163  0.4667
   60MOL0     C 8163   2.638   9.360   5.088 -0.4221 -0.3828  1.1220
   60MOL0     C 8164   2.674   9.217   5.081  0.1094  1.3712 -1.2641
   60MOL0     C 8165   2.729   9.166   5.220 -0.5394  0.4542  0.0805
   60MOL0     O 8166   2.867   9.213   5.247 -0.3526 -0.3649 -0.0868
   60MOL0     C 8167   2.912   9.209   5.375 -0.5641 -1.1800  1.1514
   60MOL0     C 8168   2.845   9.145   5.478 -0.6942  0.5447  0.0135
   60MOL0     C 8169   2.902   9.138   5.608  0.1217 -0.1144 -0.5710
   60MOL0     C 8170   2.830   9.065   5.722  0.9204  0.3412  0.2017
   60MOL0     C 8171   3.019   9.212   5.634 -0.5874  0.3206 -1.1812
   60MOL0     C 8172   3.081   9.225   5.773  0.7440 -0.5084  0.2501
   60MOL0     O 8173   3.212   9.252   5.787 -0.2240 -0.3223 -0.1339
   60MOL0     C 8174   3.264   9.313   5.904 -0.6658 -0.6592  0.5249
   60MOL0     C 8175   3.344   9.238   5.992  0.4432 -0.4919 -0.3899
   60MOL0     C 8176   3.378   9.283   6.113 -0.0795 -0.7674 -0.4812
   60MOL0     C 8177   3.352   9.418   6.158  0.3281  0.0104 -0.6949
   60MOL0     O 8178   3.387   9.465   6.281  0.6973  0.0263 -1.1117
   60MOL0     C 8179   3.452   9.382   6.381  0.3749  0.4538  0.0825
   60MOL0     C 8180   3.450   9.430   6.528 -0.6418  0.3745 -0.2814
   60MOL0     C 8181   3.307   9.452   6.593  0.3406  0.8494  0.1984
   60MOL0     C 8182   3.241   9.315   6.641  0.3040  0.3211  0.6078
   60MOL0     C 8183   3.121   9.325   6.727 -0.2074  0.7004  0.1333
   60MOL0     C 8184   3.082   9.175   6.768 -0.2874 -0.8022  0.4737
   60MOL0     C 8185   2.948   9.187   6.848  0.5190 -0.0536  0.1105
   60MOL0     C 8186   2.878   9.058   6.898 -0.4283  0.9022  0.7919
   60MOL0    Cl 8187   2.931   8.995   7.045 -0.3505  0.1161 -0.0183
   60MOL0     C 8188   3.295   9.499   6.062  0.3274 -0.7276 -0.2545
   60MOL0     C 8189   3.247   9.448   5.943 -0.1940 -0.7328  0.8344
   60MOL0     O 8190   3.001   9.250   5.858  0.2795 -0.3412 -0.1685
   60MOL0     C 8191   3.087   9.266   5.520  0.0352 -0.3643 -0.1120
   60MOL0     C 8192   3.034   9.275   5.395 -0.2737 -1.0572 -0.3134
   60MOL0     N 8193   2.810   9.372   4.831 -0.1116  0.0708  0.1051
   60MOL0     N 8194   2.859   9.421   4.721 -0.5927  0.0852 -0.2815
   60MOL0     C 8195   3.030  10.139   5.359  0.2623 -0.1290  0.0963
   60MOL0     C 8196   3.031  10.156   5.499  0.4052  0.3136  0.4569
   60MOL0     C 8197   3.057   9.993   5.927 -0.0603 -0.1184  0.0817
   60MOL0     C 8198   3.054  10.118   5.990 -0.5400 -0.2533 -0.3555
   60MOL0     C 8199   3.035  10.133   6.125  0.1530 -0.3293 -0.2485
   60MOL0     C 8200   3.027  10.028   6.208  0.8935  0.7267  0.3716
   60MOL0     O 8201   3.022  10.052   6.341 -0.0538  0.2656 -0.2912
   60MOL0     C 8202   3.064   9.959   6.435  0.1714 -0.4045  0.0800
   60MOL0     C 8203   3.087  10.032   6.577 -0.6777 -0.0736 -0.1524
   60MOL0     C 8204   2.955  10.070   6.637  0.0279 -0.2314 -0.1855
   60MOL0     C 8205   2.953  10.099   6.787 -0.9152 -0.1537 -0.1571
   60MOL0     C 8206   2.832  10.080   6.858 -0.3409 -0.9721 -0.2810
   60MOL0     C 8207   2.729  10.046   6.903 -0.8451 -0.1500  0.0024
   60MOL0     C 8208   3.014   9.902   6.147  0.1929 -0.5731 -0.7948
   60MOL0     C 8209   3.012   9.884   6.012 -0.3426 -0.8040 -0.2733
   60MOL0     C 8210   2.994   9.748   5.961  0.1996 -0.2823  0.7309
   60MOL0     H 8211   2.851   9.878   5.588  0.0508  0.0811  0.1649
   60MOL0     H 8212   2.832   9.866   5.329  1.5789 -2.1472  2.0744
   60MOL0     H 8213   3.107  10.126   5.099 -0.5235 -1.5052  0.7308
   60MOL0     H 8214   2.944  10.211   5.101 -0.0428  0.0842 -3.3181
   60MOL0     H 8215   2.843  10.116   4.938  0.6436  1.1502 -0.1253
   60MOL0     H 8216   2.997  10.158   4.869 -1.5269 -1.8298 -1.0723
   60MOL0     H 8217   3.080   9.937   4.918 -0.4588  0.0753  2.2269
   60MOL0     H 8218   2.917   9.876   4.945 -1.9307 -0.2467 -2.2895
   60MOL0     H 8219   2.834   9.920   4.722  0.7407  1.7543 -1.8554
   60MOL0     H 8220   2.933  10.043   4.687 -6.0600 -0.6931 -3.0736
   60MOL0     H 8221   3.129   9.856   4.695  0.8523 -0.7900 -2.6482
   60MOL0     H 8222   3.036   9.900   4.551 -1.7847  0.2129  0.1082
   60MOL0     H 8223   3.042   9.643   4.646  0.7878  0.2729  3.6270
   60MOL0     H 8224   2.930   9.707   4.760  2.6633 -1.7670  0.6920
   60MOL0     H 8225   2.884   9.748   4.449 -0.0799  1.0410  0.1628
   60MOL0     H 8226   2.774   9.790   4.576  0.4002 -0.2182  1.5033
   60MOL0     H 8227   2.702   9.561   4.467 -0.6711 -3.0760 -0.1158
   60MOL0     H 8228   2.874   9.509   4.486 -2.5644 -2.0762  0.7442
   60MOL0     H 8229   2.568   9.566   4.706  0.3790  1.6042  1.5117
   60MOL0     H 8230   2.504   9.343   4.909  1.3358 -0.0042 -0.1342
   60MOL0     H 8231   2.513   9.498   4.978  3.8970  4.1256  1.1903
   60MOL0     H 8232   2.723   9.424   5.113 -0.6378  0.3359  0.0894
   60MOL0     H 8233   2.560   9.371   5.164  1.0597 -1.2047  2.8358
   60MOL0     H 8234   2.591   9.150   5.056  0.1185  1.4501 -1.5066
   60MOL0     H 8235   2.745   9.207   4.998 -0.3773 -2.2113 -1.4011
   60MOL0     H 8236   2.663   9.205   5.298 -0.7742 -1.7165  1.0226
   60MOL0     H 8237   2.724   9.057   5.223  3.1915  0.1570  3.3617
   60MOL0     H 8238   2.760   9.082   5.453  0.1835 -0.7286  0.1031
   60MOL0     H 8239   2.889   9.049   5.813  0.3115 -4.2069  0.0442
   60MOL0     H 8240   2.781   8.972   5.690 -2.8607  2.2276 -0.0113
   60MOL0     H 8241   2.748   9.131   5.749  1.9465  1.5747  0.4314
   60MOL0     H 8242   3.379   9.135   5.982  0.1771 -0.6038 -0.1463
   60MOL0     H 8243   3.405   9.198   6.174 -2.4526 -1.2701 -0.0362
   60MOL0     H 8244   3.411   9.282   6.366  2.5349 -0.2619 -1.6725
   60MOL0     H 8245   3.556   9.378   6.348  0.3262  3.1765 -0.6666
   60MOL0     H 8246   3.505   9.366   6.597 -3.3019  0.0781  1.7135
   60MOL0     H 8247   3.494   9.530   6.518 -3.2914  1.7523  0.7035
   60MOL0     H 8248   3.235   9.503   6.529  1.7059  1.8098 -0.6341
   60MOL0     H 8249   3.323   9.515   6.682  1.3568  2.1356 -0.8503
   60MOL0     H 8250   3.306   9.245   6.694 -3.0574 -0.0422  4.7986
   60MOL0     H 8251   3.218   9.266   6.546  0.5843  1.7097 -0.2214
   60MOL0     H 8252   3.156   9.375   6.818 -0.3454 -1.8072  1.6557
   60MOL0     H 8253   3.037   9.369   6.672 -1.0686 -0.3287  0.5928
   60MOL0     H 8254   3.164   9.131   6.825  2.0353  0.3022 -1.7976
   60MOL0     H 8255   3.067   9.120   6.674 -0.6878 -0.8590  0.5696
   60MOL0     H 8256   2.880   9.244   6.784 -1.6320 -1.2015  1.2701
   60MOL0     H 8257   2.959   9.257   6.932 -1.8421  0.9991 -0.3812
   60MOL0     H 8258   2.874   8.974   6.828 -2.1152  1.4440  0.1710
   60MOL0     H 8259   2.777   9.099   6.907 -0.6782  1.3345 -2.5515
   60MOL0     H 8260   3.284   9.606   6.069 -1.2054 -0.8880  0.1554
   60MOL0     H 8261   3.206   9.516   5.869  0.7928 -0.3589  0.6161
   60MOL0     H 8262   3.183   9.313   5.540 -0.7917  1.7484 -0.8095
   60MOL0     H 8263   3.082   9.334   5.317  1.7041  2.2683  3.0542
   60MOL0     H 8264   3.091  10.207   5.300  0.0199  0.1894  0.2071
   60MOL0     H 8265   3.079  10.243   5.542  0.0574  0.2543  0.9723
   60MOL0     H 8266   3.066  10.211   5.936  0.5883 -1.7780 -2.9612
   60MOL0     H 8267   3.037  10.237   6.155  1.6070  0.3760 -2.5007
   60MOL0     H 8268   2.993   9.876   6.445  2.1344 -2.0271  1.3368
   60MOL0     H 8269   3.156   9.907   6.406  2.4435  2.3110  1.8564
   60MOL0     H 8270   3.154  10.118   6.565 -0.9622  0.3285  1.0243
   60MOL0     H 8271   3.128   9.964   6.653  2.3940  2.3466  0.5546
   60MOL0     H 8272   2.920  10.161   6.587  0.6184 -1.0530 -2.2105
   60MOL0     H 8273   2.887   9.985   6.627 -0.0127 -0.4596  1.7587
   60MOL0     H 8274   2.975  10.205   6.804 -1.5871 -0.5077  3.9693
   60MOL0     H 8275   3.024  10.030   6.834 -2.0067  0.0235  1.8506
   60MOL0     H 8276   2.643   9.998   6.945 -0.3687 -2.2093 -1.2361
   60MOL0     H 8277   2.999   9.817   6.212  0.7075 -0.0907 -0.0272
   60MOL0     H 8278   2.958   9.755   5.858  2.3440  0.7421 -0.0171
   60MOL0     H 8279   3.080   9.681   5.960 -1.5381 -2.6409 -0.9570
   60MOL0     H 8280   2.921   9.695   6.023  1.0234  2.0912  4.0315
   61MOL0     O 8281   9.233   3.166   7.975 -0.3545  0.4006 -0.1919
   61MOL0     C 8282   9.234   3.107   8.080 -0.8344 -0.1862 -0.0076
   61MOL0     O 8283   9.323   3.127   8.170  0.1541 -0.9162  0.5810
   61MOL0     C 8284   9.413   3.234   8.158 -0.0529  0.3232 -0.5106
   61MOL0     C 8285   9.517   3.222   8.060  0.7657 -0.2001  0.3922
   61MOL0     C 8286   9.595   3.335   8.025  0.9307  0.5410 -0.1164
   61MOL0     C 8287   9.584   3.448   8.110 -0.1090 -0.1779 -0.1435
   61MOL0     O 8288   9.682   3.538   8.089  0.3720  0.5351  0.0366
   61MOL0     C 8289   9.694   3.642   8.177  0.9127  0.1978 -1.3088
   61MOL0     C 8290   9.812   3.741   8.141  0.0233 -1.2370  0.2544
   61MOL0     C 8291   9.945   3.666   8.154 -0.9243  0.2891  0.5597
   61MOL0     C 8292   9.987   3.616   8.289  0.9888  0.0759 -0.2460
   61MOL0     C 8293  10.079   3.494   8.287 -0.3453 -0.6340  0.2790
   61MOL0     C 8294  10.177   3.501   8.409 -0.7845  1.0504  1.0774
   61MOL0     C 8295  10.314   3.433   8.382  0.0173 -0.6570 -1.4428
   61MOL0     C 8296  10.400   3.447   8.514 -0.0578 -0.9570  1.0337
   61MOL0     N 8297  10.336   3.370   8.620 -0.7682  0.7027 -0.0167
   61MOL0     C 8298  10.341   3.235   8.626 -0.5732  0.7257  0.3801
   61MOL0     C 8299  10.270   3.202   8.739  0.9195 -0.1086 -0.3233
   61MOL0     C 8300  10.238   3.078   8.819 -0.4008  0.3709  0.2497
   61MOL0     C 8301  10.164   2.962   8.731 -0.2438 -0.5731  0.6530
   61MOL0     C 8302  10.263   2.906   8.627  0.1972  1.4015  1.0406
   61MOL0     C 8303  10.197   2.830   8.505 -0.4425 -0.4436  0.6025
   61MOL0     O 8304  10.312   2.780   8.435 -0.7523 -0.8507 -0.1397
   61MOL0     C 8305  10.308   2.746   8.309  0.5443 -0.0355  0.7310
   61MOL0     C 8306  10.197   2.744   8.223 -0.0915  0.1081  0.1982
   61MOL0     C 8307  10.219   2.721   8.090 -0.5892 -0.0895  0.1563
   61MOL0     C 8308  10.107   2.719   7.992 -0.0508 -0.4829 -0.2146
   61MOL0     C 8309  10.352   2.723   8.033 -0.8592  0.3156 -0.2784
   61MOL0     C 8310  10.378   2.733   7.885 -0.3603  0.4171 -0.7719
   61MOL0     O 8311  10.501   2.793   7.855 -0.1198  0.0323 -0.1164
   61MOL0     C 8312  10.509   2.841   7.728  0.5390 -0.4960 -0.0204
   61MOL0     C 8313  10.504   2.974   7.705 -0.8602 -0.6140 -0.2662
   61MOL0     C 8314  10.526   3.027   7.577 -0.4132 -0.9929  0.0547
   61MOL0     C 8315  10.529   2.947   7.466  0.2639 -0.0344  0.8826
   61MOL0     O 8316  10.548   3.002   7.347  0.0917 -0.4671  0.1104
   61MOL0     C 8317  10.467   2.963   7.234 -0.6501 -0.0364  0.0430
   61MOL0     C 8318  10.385   3.087   7.203 -0.3500  0.0280  0.7581
   61MOL0     C 8319  10.278   3.065   7.096  0.0018  0.0163  0.1689
   61MOL0     C 8320  10.186   3.190   7.093 -0.7044  0.1997  0.4932
   61MOL0     C 8321  10.060   3.148   7.004  0.3797  0.2251 -0.9496
   61MOL0     C 8322  10.083   3.151   6.851 -0.8489  0.2042 -1.5378
   61MOL0     C 8323   9.972   3.097   6.764 -0.3656 -1.1164  0.4466
   61MOL0     C 8324   9.925   2.957   6.787  0.7249  0.7324 -0.3728
   61MOL0    Cl 8325   9.761   2.926   6.710  0.1355  0.3382 -0.1167
   61MOL0     C 8326  10.523   2.810   7.483  0.3866 -0.4797  0.4179
   61MOL0     C 8327  10.522   2.763   7.616  0.1023  0.3114 -0.4789
   61MOL0     O 8328  10.294   2.703   7.806  0.0330 -0.0852  0.4333
   61MOL0     C 8329  10.460   2.724   8.124  0.3139 -0.2021  0.6616
   61MOL0     C 8330  10.437   2.736   8.265  0.9038  0.5194  0.9689
   61MOL0     N 8331  10.245   3.322   8.809 -0.0073 -0.5324  1.0019
   61MOL0     N 8332  10.283   3.419   8.738  0.5371 -0.4275  0.0384
   61MOL0     C 8333   9.498   3.447   8.222 -0.4641 -0.3851 -1.4876
   61MOL0     C 8334   9.416   3.338   8.248  0.4573  0.3951  0.7622
   61MOL0     C 8335   9.143   2.994   8.099  0.8390 -0.9238  0.0504
   61MOL0     C 8336   9.163   2.903   8.206  0.4469 -0.0731 -0.3919
   61MOL0     C 8337   9.074   2.799   8.239 -0.1730  0.0874 -0.0717
   61MOL0     C 8338   8.973   2.771   8.155 -0.8514 -0.0621 -0.3471
   61MOL0     O 8339   8.889   2.675   8.202 -0.3925  0.0969  0.1693
   61MOL0     C 8340   8.759   2.681   8.152  0.8371  0.5135 -0.0358
   61MOL0     C 8341   8.661   2.788   8.203  0.6131 -0.1402 -0.2562
   61MOL0     C 8342   8.667   2.818   8.354 -0.0581 -0.2039 -0.0420
   61MOL0     C 8343   8.564   2.934   8.384 -0.4880  0.4820 -0.3356
   61MOL0     C 8344   8.584   2.997   8.506 -0.0822  0.3629 -0.2548
   61MOL0     C 8345   8.601   3.068   8.604 -0.5441 -0.6974  1.0683
   61MOL0     C 8346   8.951   2.851   8.043  0.6645 -0.8060 -0.4666
   61MOL0     C 8347   9.034   2.957   8.010 -0.0060  0.8332 -0.0178
   61MOL0     C 8348   8.996   3.026   7.886  0.3796  0.1786 -0.3495
   61MOL0     H 8349   9.525   3.136   7.995  2.0915  2.1005 -2.7354
   61MOL0     H 8350   9.673   3.333   7.950 -0.4656  3.6182 -1.8631
   61MOL0     H 8351   9.703   3.612   8.282  0.3967  0.4063 -1.2012
   61MOL0     H 8352   9.616   3.719   8.172  0.3588 -0.1569  0.7669
   61MOL0     H 8353   9.808   3.782   8.040 -0.8360  0.1808  0.8429
   61MOL0     H 8354   9.817   3.816   8.220  3.6125 -0.5883 -0.4111
   61MOL0     H 8355   9.953   3.594   8.073  4.0243  1.2400 -0.1341
   61MOL0     H 8356  10.028   3.730   8.122 -0.4129  0.5637  2.2964
   61MOL0     H 8357  10.030   3.694   8.352 -1.1119  3.2685 -2.5105
   61MOL0     H 8358   9.898   3.576   8.338  0.8643  1.4263  0.6771
   61MOL0     H 8359  10.135   3.490   8.193 -0.7595  1.3255 -0.0998
   61MOL0     H 8360  10.020   3.403   8.274 -1.4012 -0.0944  1.1086
   61MOL0     H 8361  10.211   3.593   8.457  1.9218  0.5693  0.2463
   61MOL0     H 8362  10.121   3.446   8.485 -0.5394 -0.4030  0.2507
   61MOL0     H 8363  10.362   3.494   8.304 -0.9926  3.5408  0.9069
   61MOL0     H 8364  10.313   3.325   8.365  2.2251 -0.5857 -2.3656
   61MOL0     H 8365  10.501   3.406   8.507  0.2185 -1.1632  4.3512
   61MOL0     H 8366  10.420   3.552   8.537 -0.5507 -1.1353  2.3900
   61MOL0     H 8367  10.401   3.171   8.562 -0.3269  0.3091  1.0109
   61MOL0     H 8368  10.179   3.094   8.909  1.0864  1.6850  1.0473
   61MOL0     H 8369  10.333   3.045   8.864 -0.6010  1.1538  1.2580
   61MOL0     H 8370  10.117   2.882   8.790  0.3135 -2.4339 -1.3224
   61MOL0     H 8371  10.092   3.021   8.674  0.1095 -0.8252 -0.0552
   61MOL0     H 8372  10.310   2.990   8.577 -0.8305  1.5439  0.2886
   61MOL0     H 8373  10.334   2.836   8.674 -1.5406 -1.4393 -0.3177
   61MOL0     H 8374  10.141   2.745   8.545  0.1415 -0.4226  1.4938
   61MOL0     H 8375  10.130   2.891   8.443  2.2545  0.5629 -1.5290
   61MOL0     H 8376  10.092   2.766   8.242  0.5103  3.4054  0.3838
   61MOL0     H 8377  10.108   2.816   7.942 -4.0044  2.1982  4.0354
   61MOL0     H 8378  10.009   2.713   8.040  0.5039 -2.4102  0.7884
   61MOL0     H 8379  10.112   2.631   7.927  0.5120 -0.6273  0.0228
   61MOL0     H 8380  10.492   3.033   7.796  2.7843 -0.6382  0.3588
   61MOL0     H 8381  10.536   3.135   7.567 -2.3056 -0.8669 -1.0127
   61MOL0     H 8382  10.531   2.926   7.154  0.6042 -3.3955  2.3585
   61MOL0     H 8383  10.408   2.873   7.253 -1.5337 -0.2732 -3.2370
   61MOL0     H 8384  10.340   3.119   7.297  0.1843 -1.1098  1.4286
   61MOL0     H 8385  10.451   3.168   7.174 -2.9539  1.6624 -1.1124
   61MOL0     H 8386  10.221   2.975   7.122  1.9265 -1.6682 -1.1467
   61MOL0     H 8387  10.324   3.056   6.998 -0.4892 -3.4700  0.1194
   61MOL0     H 8388  10.245   3.272   7.050 -1.2773 -0.0451 -0.8022
   61MOL0     H 8389  10.155   3.220   7.194  1.5550 -0.8056  1.5769
   61MOL0     H 8390  10.027   3.049   7.035 -1.3113  0.7708 -0.8699
   61MOL0     H 8391   9.980   3.219   7.028 -0.1509 -1.1918  1.9147
   61MOL0     H 8392  10.169   3.090   6.824  0.6191  0.1641  2.5499
   61MOL0     H 8393  10.103   3.257   6.833 -0.2386  0.3986  0.1390
   61MOL0     H 8394   9.997   3.114   6.659  1.5321  3.4131  1.3853
   61MOL0     H 8395   9.882   3.150   6.795 -0.1938 -0.3524 -0.3177
   61MOL0     H 8396   9.897   2.960   6.893  0.6395  1.8979 -0.4143
   61MOL0     H 8397   9.997   2.877   6.767 -0.0018  0.0621 -0.3662
   61MOL0     H 8398  10.531   2.734   7.405  0.3896  0.1071 -0.1643
   61MOL0     H 8399  10.531   2.656   7.631 -1.3275  0.3970  1.4203
   61MOL0     H 8400  10.562   2.717   8.087  0.4003 -2.0537  1.1549
   61MOL0     H 8401  10.521   2.728   8.333  1.5092  1.1522  0.3274
   61MOL0     H 8402   9.503   3.517   8.305  0.6474  0.0084 -1.8767
   61MOL0     H 8403   9.334   3.334   8.318  2.3158 -1.9116  2.9879
   61MOL0     H 8404   9.246   2.908   8.275 -2.2247  2.5488  3.0551
   61MOL0     H 8405   9.087   2.734   8.325 -1.7144 -0.9317 -0.5788
   61MOL0     H 8406   8.757   2.678   8.043  1.1744 -0.9169 -0.0263
   61MOL0     H 8407   8.721   2.582   8.175  1.3644  0.4032  0.4038
   61MOL0     H 8408   8.558   2.769   8.172  0.1198  0.2193  1.0873
   61MOL0     H 8409   8.687   2.875   8.142  1.8226 -0.6243 -0.4529
   61MOL0     H 8410   8.657   2.728   8.415  3.7441 -0.1449  0.9022
   61MOL0     H 8411   8.766   2.863   8.370 -0.6280  1.2587 -0.4021
   61MOL0     H 8412   8.465   2.890   8.370  0.6828 -2.6552  0.2833
   61MOL0     H 8413   8.589   3.013   8.312 -1.2811  1.2019  0.1639
   61MOL0     H 8414   8.619   3.138   8.683 -0.2315  0.4789 -0.0045
   61MOL0     H 8415   8.872   2.835   7.970  1.3033  2.8582 -2.2224
   61MOL0     H 8416   8.942   2.965   7.813 -0.0625 -3.2700  2.5644
   61MOL0     H 8417   8.948   3.122   7.907  1.1362  0.6424 -0.6961
   61MOL0     H 8418   9.077   3.072   7.828 -0.7743  1.2701 -1.1379
   62MOL0     O 8419   6.331   6.617   2.033  0.6178  0.1276 -0.0971
   62MOL0     C 8420   6.278   6.730   2.035  0.0033  0.5788  0.3935
   62MOL0     O 8421   6.232   6.799   1.918 -0.3000  0.7296 -0.6506
   62MOL0     C 8422   6.226   6.751   1.792  0.8815  0.2545  0.6003
   62MOL0     C 8423   6.347   6.706   1.728 -0.2067  0.1619 -0.4495
   62MOL0     C 8424   6.353   6.654   1.597  0.5362  0.2605  0.0071
   62MOL0     C 8425   6.231   6.646   1.530  0.0500  1.0940  0.8550
   62MOL0     O 8426   6.225   6.608   1.402 -0.1276  0.0379 -0.0864
   62MOL0     C 8427   6.334   6.622   1.307 -0.5656  0.3140 -0.8735
   62MOL0     C 8428   6.379   6.758   1.280 -0.7032 -0.1028 -0.2675
   62MOL0     C 8429   6.444   6.775   1.137 -0.7794  0.3055  0.2877
   62MOL0     C 8430   6.525   6.902   1.135 -0.5472  0.1182 -0.0216
   62MOL0     C 8431   6.594   6.933   1.000  0.0297 -0.2740  0.8200
   62MOL0     C 8432   6.631   7.084   0.984 -0.8227  0.4124 -0.8491
   62MOL0     C 8433   6.696   7.146   1.103 -0.3281 -1.2887 -0.7702
   62MOL0     C 8434   6.692   7.298   1.107  0.0564  0.6573 -0.2553
   62MOL0     N 8435   6.730   7.368   0.982  0.0163 -0.2872 -0.2084
   62MOL0     C 8436   6.849   7.425   0.954 -0.4333 -1.8401 -0.6673
   62MOL0     C 8437   6.826   7.513   0.846 -0.1134  0.5647 -0.6169
   62MOL0     C 8438   6.923   7.593   0.777  0.2554 -0.3633 -0.1291
   62MOL0     C 8439   6.878   7.742   0.782 -0.2083 -0.5856 -0.5540
   62MOL0     C 8440   6.841   7.815   0.916 -0.2350  0.1383 -0.0277
   62MOL0     C 8441   6.965   7.839   1.011 -0.1651  0.4362  1.1219
   62MOL0     O 8442   6.914   7.905   1.126  1.2941  0.4407 -0.4173
   62MOL0     C 8443   6.988   7.885   1.237 -0.4081 -0.0225  0.3607
   62MOL0     C 8444   6.992   7.755   1.303  0.4101 -0.1634  0.0021
   62MOL0     C 8445   7.063   7.742   1.420 -0.0546  0.5106 -0.5893
   62MOL0     C 8446   7.055   7.608   1.494 -0.1062 -0.5779  0.3319
   62MOL0     C 8447   7.135   7.853   1.469  0.4021 -0.2164 -0.3261
   62MOL0     C 8448   7.193   7.853   1.604 -0.8605 -0.4418 -0.1023
   62MOL0     O 8449   7.168   7.962   1.679  0.0068  0.2563 -0.2117
   62MOL0     C 8450   7.227   7.993   1.801  0.3667  0.4722  0.0668
   62MOL0     C 8451   7.246   8.136   1.819 -0.3765 -1.1771  0.6365
   62MOL0     C 8452   7.307   8.182   1.939  0.5437  0.4525 -0.0614
   62MOL0     C 8453   7.354   8.089   2.040 -0.4767 -0.7187 -0.2134
   62MOL0     O 8454   7.419   8.144   2.145 -0.4313 -0.3814  0.8450
   62MOL0     C 8455   7.468   8.062   2.250  0.3141 -1.9035 -0.0766
   62MOL0     C 8456   7.590   7.971   2.211 -0.0396 -0.4333 -0.2832
   62MOL0     C 8457   7.714   8.044   2.173 -0.4379  0.4816 -1.0602
   62MOL0     C 8458   7.805   7.953   2.079  0.3657 -0.3059 -0.5748
   62MOL0     C 8459   7.945   8.013   2.061 -0.1227  0.6790  0.2977
   62MOL0     C 8460   7.940   8.134   1.966  0.3854  0.2729  0.0521
   62MOL0     C 8461   8.086   8.147   1.922  0.1753 -0.6129  0.2405
   62MOL0     C 8462   8.099   8.271   1.827 -0.3421 -0.3563  0.1130
   62MOL0    Cl 8463   8.249   8.243   1.727  0.1604 -0.0224 -0.0149
   62MOL0     C 8464   7.321   7.955   2.022  0.6102 -0.4795 -0.7079
   62MOL0     C 8465   7.245   7.903   1.908  0.8092 -0.6814  0.2797
   62MOL0     O 8466   7.278   7.769   1.619 -0.4525 -0.7684 -0.3237
   62MOL0     C 8467   7.120   7.979   1.409  0.3062  0.3084 -0.3346
   62MOL0     C 8468   7.041   7.998   1.291  0.5385 -0.8086  0.3594
   62MOL0     N 8469   6.693   7.493   0.801  0.7563  0.8413 -0.4111
   62MOL0     N 8470   6.642   7.399   0.872 -0.1630  0.7559  0.0108
   62MOL0     C 8471   6.112   6.687   1.588 -0.4095  0.3503  0.1466
   62MOL0     C 8472   6.108   6.739   1.720  0.0749 -0.2567  1.3159
   62MOL0     C 8473   6.238   6.794   2.166  1.0086 -0.7100  0.9678
   62MOL0     C 8474   6.124   6.872   2.155 -0.3093 -0.9060  0.1896
   62MOL0     C 8475   6.061   6.920   2.273  0.2731  0.2434  0.1716
   62MOL0     C 8476   6.118   6.873   2.394 -0.8095 -0.8950  0.0429
   62MOL0     O 8477   6.046   6.906   2.500 -0.6032  0.3776 -0.8525
   62MOL0     C 8478   5.966   6.800   2.550  0.4721  1.4396 -0.3597
   62MOL0     C 8479   6.005   6.763   2.697 -0.2312 -0.5294 -0.1409
   62MOL0     C 8480   5.998   6.611   2.719  0.2669  0.2410  0.0622
   62MOL0     C 8481   6.061   6.574   2.863  0.6294 -0.3148  0.2140
   62MOL0     C 8482   6.207   6.569   2.878  1.1181  0.0061 -0.6062
   62MOL0     C 8483   6.327   6.562   2.890  0.7179 -0.4350 -0.1872
   62MOL0     C 8484   6.232   6.785   2.403 -0.8239 -1.0962 -0.3962
   62MOL0     C 8485   6.290   6.737   2.289 -0.2902  0.4573  0.3392
   62MOL0     C 8486   6.398   6.637   2.302  0.2985 -1.0060 -0.1281
   62MOL0     H 8487   6.432   6.713   1.795 -1.5474  2.3677  1.1699
   62MOL0     H 8488   6.449   6.618   1.563  1.1114  1.1997  0.5844
   62MOL0     H 8489   6.294   6.572   1.218 -1.2939  0.4939 -0.6504
   62MOL0     H 8490   6.421   6.568   1.348 -3.2030  0.1043  5.5264
   62MOL0     H 8491   6.298   6.825   1.311  1.9764  2.5769  1.5622
   62MOL0     H 8492   6.464   6.779   1.345  0.5821  1.8559 -2.4188
   62MOL0     H 8493   6.515   6.695   1.114 -0.8285  0.1426  0.6931
   62MOL0     H 8494   6.370   6.785   1.058  0.5053  2.9536 -0.6908
   62MOL0     H 8495   6.471   6.993   1.161  2.5195  2.0408  0.0955
   62MOL0     H 8496   6.599   6.892   1.215 -0.4314  3.3822  0.3855
   62MOL0     H 8497   6.517   6.910   0.927  2.4944 -2.3394 -1.3546
   62MOL0     H 8498   6.682   6.873   0.974 -0.6759 -0.7431 -0.5610
   62MOL0     H 8499   6.699   7.089   0.898  1.1745 -1.7287  0.4733
   62MOL0     H 8500   6.536   7.131   0.958 -2.0282 -2.5297 -2.3137
   62MOL0     H 8501   6.795   7.101   1.114  0.1693 -0.0508  0.0484
   62MOL0     H 8502   6.647   7.125   1.199  0.2058 -1.5859 -0.5555
   62MOL0     H 8503   6.590   7.323   1.136 -1.2602 -4.0262  0.0004
   62MOL0     H 8504   6.766   7.337   1.177  3.6764 -2.6478 -1.8412
   62MOL0     H 8505   6.935   7.424   1.021 -1.0622  2.8086  0.6157
   62MOL0     H 8506   6.944   7.564   0.674  1.9754  0.1544  0.0400
   62MOL0     H 8507   7.016   7.574   0.831 -0.6959 -2.6768  0.8282
   62MOL0     H 8508   6.955   7.799   0.730 -0.8422 -0.2940 -1.1925
   62MOL0     H 8509   6.784   7.755   0.727 -0.3516  0.1532 -0.1447
   62MOL0     H 8510   6.805   7.916   0.892 -0.5230  0.2845  0.9730
   62MOL0     H 8511   6.759   7.768   0.970  0.8238  1.1742  2.6575
   62MOL0     H 8512   7.015   7.746   1.041 -0.5067  0.5517  2.0796
   62MOL0     H 8513   7.032   7.909   0.961  0.0512  0.6007  1.6301
   62MOL0     H 8514   6.936   7.682   1.247 -0.3839  1.6740 -1.7197
   62MOL0     H 8515   7.143   7.554   1.456  1.5818  0.5076  2.5168
   62MOL0     H 8516   6.965   7.556   1.461  1.5508 -2.1531 -2.0866
   62MOL0     H 8517   7.066   7.615   1.603 -1.8117 -1.6548  0.6096
   62MOL0     H 8518   7.228   8.217   1.750  0.5476 -1.3353  0.1928
   62MOL0     H 8519   7.310   8.290   1.939 -1.0173  0.5518 -1.6328
   62MOL0     H 8520   7.508   8.121   2.333  2.2481 -1.9661 -0.8998
   62MOL0     H 8521   7.385   8.008   2.296 -2.2584 -0.5075 -2.7976
   62MOL0     H 8522   7.615   7.918   2.304  1.4989 -1.2963 -1.1628
   62MOL0     H 8523   7.562   7.898   2.135  3.3214 -1.5162 -0.6316
   62MOL0     H 8524   7.775   8.069   2.261 -0.1726  1.0150 -1.3879
   62MOL0     H 8525   7.691   8.132   2.112 -0.1650  1.9798  0.9102
   62MOL0     H 8526   7.749   7.944   1.985  1.0987  0.2848 -1.0798
   62MOL0     H 8527   7.807   7.851   2.119 -1.5065  0.6599  2.2633
   62MOL0     H 8528   7.979   8.033   2.163  1.6483  2.8118 -0.6161
   62MOL0     H 8529   8.004   7.932   2.018  1.9803  2.0332  0.4769
   62MOL0     H 8530   7.907   8.227   2.013 -0.7850  0.4138 -0.9842
   62MOL0     H 8531   7.877   8.114   1.878  2.1441 -0.7604 -1.0379
   62MOL0     H 8532   8.130   8.059   1.875  1.2089 -0.7921  1.4847
   62MOL0     H 8533   8.139   8.170   2.015 -1.1294  0.0216  0.8423
   62MOL0     H 8534   8.111   8.356   1.895  0.7986  0.3238 -0.8934
   62MOL0     H 8535   8.013   8.270   1.760 -2.3356  0.2336  2.5295
   62MOL0     H 8536   7.355   7.877   2.089  1.3679  0.0240 -0.4869
   62MOL0     H 8537   7.229   7.796   1.897 -0.6206 -0.5620  0.9573
   62MOL0     H 8538   7.156   8.077   1.438  0.0942  2.0684 -5.1161
   62MOL0     H 8539   7.047   8.094   1.240 -1.4851 -1.4030 -1.1310
   62MOL0     H 8540   6.020   6.693   1.531 -0.9371 -2.5037  0.5798
   62MOL0     H 8541   6.016   6.761   1.773 -0.9700 -0.7570 -0.1923
   62MOL0     H 8542   6.067   6.876   2.063  0.0444 -3.9758 -0.2557
   62MOL0     H 8543   5.971   6.978   2.261  0.5371  0.1828 -3.0082
   62MOL0     H 8544   5.865   6.840   2.542  0.0125  0.3434 -0.1433
   62MOL0     H 8545   5.985   6.711   2.490  1.0486  0.7985  0.7314
   62MOL0     H 8546   5.934   6.807   2.769  0.6039 -1.2099  1.1383
   62MOL0     H 8547   6.103   6.802   2.727 -2.1528  4.9088  0.1808
   62MOL0     H 8548   5.894   6.585   2.700  0.4883  0.3411 -1.4409
   62MOL0     H 8549   6.062   6.566   2.642  1.0131  1.5475 -0.1144
   62MOL0     H 8550   6.032   6.469   2.877  0.7799 -0.3006  0.6502
   62MOL0     H 8551   6.021   6.626   2.951 -1.0886 -3.3093  1.3565
   62MOL0     H 8552   6.429   6.539   2.910  0.1852 -1.8416  1.1071
   62MOL0     H 8553   6.258   6.759   2.506 -2.0984 -0.1000  0.2010
   62MOL0     H 8554   6.357   6.537   2.323  1.7759 -1.2625  1.6848
   62MOL0     H 8555   6.463   6.636   2.214 -0.8435  0.3604 -1.0426
   62MOL0     H 8556   6.457   6.685   2.380 -2.3315  3.0659 -0.3547
   63MOL0     O 8557   3.576   2.702   6.358 -0.0264 -0.3519  0.4419
   63MOL0     C 8558   3.650   2.604   6.370  0.4518  0.5373 -0.5647
   63MOL0     O 8559   3.616   2.476   6.363  0.6234 -0.2937  0.9149
   63MOL0     C 8560   3.477   2.455   6.327 -0.2068  0.3971  0.4620
   63MOL0     C 8561   3.432   2.499   6.204  0.7397 -0.0151  0.8161
   63MOL0     C 8562   3.319   2.446   6.139 -1.1240 -0.1566  0.2911
   63MOL0     C 8563   3.244   2.360   6.217 -0.0719  0.8648 -0.1215
   63MOL0     O 8564   3.133   2.301   6.163 -0.1672 -0.5568  0.2257
   63MOL0     C 8565   3.047   2.365   6.070 -0.8027  0.1624  0.3440
   63MOL0     C 8566   2.960   2.467   6.133  0.4840 -0.4886 -0.1266
   63MOL0     C 8567   2.849   2.525   6.051  0.4225 -0.1349  0.5302
   63MOL0     C 8568   2.781   2.657   6.118 -0.1196 -0.4659  0.2450
   63MOL0     C 8569   2.655   2.696   6.033 -1.1311 -0.4829  0.0623
   63MOL0     C 8570   2.562   2.790   6.116 -0.1728 -0.2662 -0.1883
   63MOL0     C 8571   2.440   2.830   6.029  0.3696  0.0149 -0.7405
   63MOL0     C 8572   2.332   2.909   6.115  0.4993  0.2341 -0.3744
   63MOL0     N 8573   2.255   2.831   6.214 -0.3496  0.7619  0.9371
   63MOL0     C 8574   2.276   2.825   6.346 -1.0165 -2.0776  0.4691
   63MOL0     C 8575   2.187   2.739   6.395 -0.4492 -0.8435 -0.9365
   63MOL0     C 8576   2.175   2.679   6.531 -0.1503  0.0777  0.5498
   63MOL0     C 8577   2.235   2.540   6.529 -0.0043 -0.1745  0.6205
   63MOL0     C 8578   2.236   2.483   6.671  1.3929 -0.3875 -0.9587
   63MOL0     C 8579   2.252   2.328   6.680  0.2851  0.2824  0.3042
   63MOL0     O 8580   2.134   2.264   6.615 -0.1806  0.8727 -0.4872
   63MOL0     C 8581   2.150   2.151   6.536 -0.8929  0.0220 -0.0632
   63MOL0     C 8582   2.029   2.113   6.468 -0.0080  0.7564 -1.0385
   63MOL0     C 8583   2.036   2.001   6.385  0.0630  0.7231  0.2864
   63MOL0     C 8584   1.905   1.975   6.321  0.0880  0.2180 -0.7941
   63MOL0     C 8585   2.147   1.913   6.378 -2.0899 -0.8017  0.4876
   63MOL0     C 8586   2.162   1.784   6.313 -0.0509  0.6485  0.0982
   63MOL0     O 8587   2.285   1.729   6.304 -0.1016 -0.5064 -0.1428
   63MOL0     C 8588   2.306   1.605   6.245  1.8171 -0.5541 -0.7849
   63MOL0     C 8589   2.248   1.499   6.301  0.4346  0.8247 -0.0746
   63MOL0     C 8590   2.272   1.367   6.254 -0.5302 -0.4099  0.4370
   63MOL0     C 8591   2.357   1.352   6.140  1.3920 -0.3939  0.3163
   63MOL0     O 8592   2.364   1.226   6.075 -0.2100  0.0662 -0.5730
   63MOL0     C 8593   2.250   1.168   6.017  0.6063  0.2274  0.4564
   63MOL0     C 8594   2.265   1.027   5.983  0.2122 -0.0979  0.1813
   63MOL0     C 8595   2.144   0.979   5.893 -1.0748  0.3459 -0.6184
   63MOL0     C 8596   2.154   0.836   5.902 -0.0890  0.6349  0.1153
   63MOL0     C 8597   2.059   0.765   5.791  0.4626  0.6703 -0.8409
   63MOL0     C 8598   2.047   0.613   5.807 -0.0976  0.0195  0.0065
   63MOL0     C 8599   1.952   0.591   5.925  0.4634  1.2245  0.9133
   63MOL0     C 8600   1.923   0.448   5.933  0.3910  1.5918  0.1193
   63MOL0    Cl 8601   2.033   0.355   6.039  0.1047  0.1146  0.2325
   63MOL0     C 8602   2.419   1.465   6.087 -0.5335  0.6985 -0.6448
   63MOL0     C 8603   2.389   1.587   6.145 -0.8975  0.7870  1.2351
   63MOL0     O 8604   2.062   1.731   6.260 -0.3262 -0.3658 -0.0180
   63MOL0     C 8605   2.260   1.945   6.464 -0.3635  0.1380 -0.3273
   63MOL0     C 8606   2.260   2.063   6.533  0.0186 -1.2381  0.0840
   63MOL0     N 8607   2.117   2.679   6.286  0.8918  0.1262  0.0836
   63MOL0     N 8608   2.158   2.746   6.184  0.1937  0.3533  0.3648
   63MOL0     C 8609   3.266   2.334   6.355 -1.1745  0.8948  0.6722
   63MOL0     C 8610   3.396   2.367   6.399 -0.9435  0.2585  0.2656
   63MOL0     C 8611   3.784   2.623   6.410 -0.1599 -0.5189 -0.4204
   63MOL0     C 8612   3.802   2.735   6.498 -0.2275 -0.4151 -0.0640
   63MOL0     C 8613   3.931   2.760   6.563 -0.6534 -0.0508 -0.0170
   63MOL0     C 8614   4.032   2.673   6.546 -0.0006 -1.0827  0.5764
   63MOL0     O 8615   4.158   2.665   6.603 -0.0860  0.4683 -0.8949
   63MOL0     C 8616   4.207   2.764   6.685 -0.1454  0.1733  0.1741
   63MOL0     C 8617   4.357   2.742   6.679  0.0946  0.4801  0.0100
   63MOL0     C 8618   4.429   2.867   6.734  0.2844  0.7074 -0.0271
   63MOL0     C 8619   4.586   2.864   6.707  0.3393 -0.0303  0.7867
   63MOL0     C 8620   4.649   2.953   6.804 -0.3477 -1.1537  1.0029
   63MOL0     C 8621   4.738   3.008   6.866  0.2723  0.0131 -0.0434
   63MOL0     C 8622   4.012   2.568   6.455 -0.4839  0.3356 -0.7654
   63MOL0     C 8623   3.897   2.545   6.385 -1.1116 -0.2064 -0.2849
   63MOL0     C 8624   3.899   2.413   6.307  0.2079 -0.6023 -1.5811
   63MOL0     H 8625   3.496   2.566   6.147 -1.3729  1.9577  0.6309
   63MOL0     H 8626   3.308   2.472   6.034  1.4870  1.4624  0.3420
   63MOL0     H 8627   2.984   2.292   6.020 -0.4519  2.0409 -3.1676
   63MOL0     H 8628   3.097   2.409   5.983  1.7437 -1.2767  0.9797
   63MOL0     H 8629   2.921   2.413   6.220  1.4311 -3.2355 -1.2963
   63MOL0     H 8630   3.019   2.554   6.164 -1.9008  1.4715 -0.7663
   63MOL0     H 8631   2.880   2.551   5.950  0.0745  3.7966  1.2649
   63MOL0     H 8632   2.766   2.454   6.051 -0.9756  1.4350  0.5845
   63MOL0     H 8633   2.759   2.634   6.223 -3.1689 -1.5505 -0.5305
   63MOL0     H 8634   2.857   2.734   6.103  0.4804 -1.0926  0.0307
   63MOL0     H 8635   2.609   2.602   6.002  1.4044 -1.6878 -0.2580
   63MOL0     H 8636   2.684   2.742   5.938 -0.4633  2.5729  1.6054
   63MOL0     H 8637   2.526   2.740   6.207 -0.9580 -1.0410 -0.9146
   63MOL0     H 8638   2.612   2.879   6.155 -1.4000  0.0923  0.6130
   63MOL0     H 8639   2.384   2.749   5.982 -1.0157 -0.6820  1.9380
   63MOL0     H 8640   2.470   2.890   5.943 -1.4802  0.2698 -1.2557
   63MOL0     H 8641   2.389   2.988   6.164  1.5781  0.7978 -2.4173
   63MOL0     H 8642   2.257   2.959   6.052 -2.9377 -2.3518  1.3432
   63MOL0     H 8643   2.357   2.878   6.395 -2.9531  2.5103 -0.7279
   63MOL0     H 8644   2.076   2.689   6.576 -1.0303  1.9927 -1.6430
   63MOL0     H 8645   2.245   2.745   6.585 -4.1819  4.4838  1.0267
   63MOL0     H 8646   2.179   2.467   6.469  2.7314 -1.3559 -0.7039
   63MOL0     H 8647   2.339   2.531   6.496  0.4864  1.2140  1.7301
   63MOL0     H 8648   2.307   2.533   6.738 -0.2309  1.0300 -0.2122
   63MOL0     H 8649   2.140   2.507   6.717  1.1861 -1.9159 -0.5408
   63MOL0     H 8650   2.347   2.302   6.633 -1.2288 -6.0876 -0.1315
   63MOL0     H 8651   2.270   2.293   6.782  1.3626  0.9351  0.3531
   63MOL0     H 8652   1.950   2.187   6.466 -2.2775 -1.4831 -0.1768
   63MOL0     H 8653   1.901   2.002   6.215  1.2355 -0.7081 -1.1004
   63MOL0     H 8654   1.823   2.039   6.355 -2.1212 -0.4437 -4.3132
   63MOL0     H 8655   1.870   1.872   6.337 -0.0422  0.0229 -2.1828
   63MOL0     H 8656   2.187   1.497   6.390  0.7065  0.4759  0.1025
   63MOL0     H 8657   2.227   1.279   6.298  2.7353 -0.9200  3.1122
   63MOL0     H 8658   2.163   1.189   6.079 -1.4231  1.1428 -2.5166
   63MOL0     H 8659   2.230   1.225   5.926  1.4256  2.1130  1.3984
   63MOL0     H 8660   2.359   1.016   5.928 -1.0089  2.0422 -2.5551
   63MOL0     H 8661   2.268   0.975   6.079 -1.6276  1.9887  1.4445
   63MOL0     H 8662   2.165   1.019   5.793  0.2936 -1.0290 -0.9098
   63MOL0     H 8663   2.050   1.013   5.938 -0.3055  0.0916  1.2576
   63MOL0     H 8664   2.132   0.808   6.005  0.7924 -0.0833  0.1168
   63MOL0     H 8665   2.257   0.802   5.889 -0.7543 -2.0546  1.0753
   63MOL0     H 8666   1.960   0.811   5.801  0.1119  0.0104 -1.2132
   63MOL0     H 8667   2.102   0.800   5.696  1.6142 -2.2360 -1.5137
   63MOL0     H 8668   2.140   0.556   5.814  3.4029  4.8946 -0.9601
   63MOL0     H 8669   2.003   0.571   5.716  0.4451 -2.0764  0.6592
   63MOL0     H 8670   1.861   0.649   5.911 -0.0817 -0.1598 -2.1843
   63MOL0     H 8671   2.000   0.617   6.020  1.0928 -1.1482  1.3214
   63MOL0     H 8672   1.906   0.397   5.837 -2.5530 -0.3993  1.5560
   63MOL0     H 8673   1.828   0.440   5.987 -0.8581 -0.6536 -2.1817
   63MOL0     H 8674   2.485   1.452   6.001  0.8077  1.9215  0.1557
   63MOL0     H 8675   2.441   1.675   6.109  0.3118 -0.0350  0.8690
   63MOL0     H 8676   2.334   1.866   6.466 -0.7535 -0.2255 -0.0066
   63MOL0     H 8677   2.348   2.081   6.595 -0.4814  0.3504  0.3868
   63MOL0     H 8678   3.204   2.271   6.418 -1.2038  2.0540  1.8468
   63MOL0     H 8679   3.424   2.342   6.501  1.6883 -2.0023 -0.8734
   63MOL0     H 8680   3.719   2.802   6.520  0.9706  0.7003  1.1548
   63MOL0     H 8681   3.943   2.847   6.626 -1.1523 -1.3530  1.9613
   63MOL0     H 8682   4.178   2.864   6.653 -0.4347 -0.4733 -1.6906
   63MOL0     H 8683   4.165   2.755   6.785  0.7219  2.6152  0.8234
   63MOL0     H 8684   4.402   2.732   6.580 -1.1815  2.6790 -0.8697
   63MOL0     H 8685   4.384   2.648   6.728  2.7438 -0.1164 -2.3995
   63MOL0     H 8686   4.381   2.958   6.697 -0.3972 -0.0220 -1.0000
   63MOL0     H 8687   4.401   2.860   6.839 -1.6825 -0.1345 -0.5543
   63MOL0     H 8688   4.606   2.890   6.603 -2.1327  0.0963  0.2829
   63MOL0     H 8689   4.629   2.764   6.720 -0.4821 -0.6421 -0.9265
   63MOL0     H 8690   4.821   3.053   6.917 -0.9955  2.4091  0.0347
   63MOL0     H 8691   4.106   2.515   6.440 -0.3851  0.9981 -2.8490
   63MOL0     H 8692   3.852   2.420   6.209  2.3220 -2.0574 -2.7711
   63MOL0     H 8693   3.999   2.377   6.281  0.2144  1.4949 -5.0641
   63MOL0     H 8694   3.846   2.346   6.375  2.2501 -0.2366  0.4981
   64MOL0     O 8695   3.157  10.358   8.388  0.4977  0.4550 -0.0135
   64MOL0     C 8696   3.038  10.386   8.411  0.2850 -0.0963  0.8139
   64MOL0     O 8697   2.939  10.289   8.438  0.1194  0.1009  0.1062
   64MOL0     C 8698   2.961  10.157   8.412 -0.2418  0.0643  0.4456
   64MOL0     C 8699   2.958  10.061   8.510 -0.1772 -0.0996 -0.1204
   64MOL0     C 8700   3.010   9.930   8.492 -0.0481  0.4880  0.7403
   64MOL0     C 8701   3.073   9.896   8.368  0.2716 -0.0523 -1.0578
   64MOL0     O 8702   3.129   9.777   8.345  0.0941 -0.9346 -0.7374
   64MOL0     C 8703   3.069   9.659   8.400  0.1172  0.8396  0.6113
   64MOL0     C 8704   2.945   9.617   8.332  0.1774  0.5919 -0.4395
   64MOL0     C 8705   2.962   9.585   8.187 -0.3637  0.9001 -0.9824
   64MOL0     C 8706   2.828   9.557   8.113  0.2016 -0.1582  0.3635
   64MOL0     C 8707   2.774   9.420   8.138  0.0184 -0.5165  0.1319
   64MOL0     C 8708   2.670   9.376   8.040 -0.1009 -0.5187  0.7876
   64MOL0     C 8709   2.720   9.293   7.923  0.8872 -0.8853  0.5562
   64MOL0     C 8710   2.617   9.239   7.824 -0.1574 -0.0995 -0.5743
   64MOL0     N 8711   2.544   9.341   7.742 -0.3160  0.3886  0.5009
   64MOL0     C 8712   2.407   9.341   7.729 -0.4702 -0.6620  0.1214
   64MOL0     C 8713   2.387   9.407   7.615  0.8198 -0.1994 -0.7044
   64MOL0     C 8714   2.255   9.459   7.575  0.6973 -0.3827 -0.3825
   64MOL0     C 8715   2.173   9.367   7.482  0.3591  0.2674  1.0722
   64MOL0     C 8716   2.225   9.365   7.331 -0.0560 -1.1453 -0.0669
   64MOL0     C 8717   2.218   9.216   7.285 -0.4108 -0.3432 -0.3047
   64MOL0     O 8718   2.089   9.159   7.294 -0.1392 -0.0105  0.4542
   64MOL0     C 8719   2.055   9.037   7.258 -0.1123 -0.4368  0.1625
   64MOL0     C 8720   2.150   8.951   7.189 -0.6013 -0.6546 -1.1337
   64MOL0     C 8721   2.111   8.821   7.152 -0.3218 -0.3121 -0.4292
   64MOL0     C 8722   2.217   8.737   7.095  0.0927 -0.7443  0.3593
   64MOL0     C 8723   1.976   8.777   7.190  0.2402 -0.3816 -0.4066
   64MOL0     C 8724   1.927   8.639   7.177  0.6417 -0.1287 -0.1869
   64MOL0     O 8725   1.815   8.612   7.261 -0.1338 -0.1355  0.3553
   64MOL0     C 8726   1.749   8.493   7.258 -0.2445  1.2024  0.9183
   64MOL0     C 8727   1.720   8.436   7.381 -0.5975 -0.3424 -0.8911
   64MOL0     C 8728   1.644   8.313   7.393  0.2950  0.5198 -0.0366
   64MOL0     C 8729   1.610   8.242   7.282 -0.0672  0.0390 -0.2685
   64MOL0     O 8730   1.532   8.124   7.289 -0.1550 -0.1528  0.5628
   64MOL0     C 8731   1.550   8.048   7.415 -0.8733  0.7395 -0.2351
   64MOL0     C 8732   1.434   8.067   7.507  0.4796  0.3937  0.1693
   64MOL0     C 8733   1.430   7.945   7.606  0.6580 -0.0058 -0.0984
   64MOL0     C 8734   1.337   7.980   7.720 -0.1329 -0.5338  0.1842
   64MOL0     C 8735   1.330   7.865   7.817  0.2060 -0.5530 -0.6401
   64MOL0     C 8736   1.462   7.868   7.906  0.4366  0.3105  0.6416
   64MOL0     C 8737   1.471   7.745   7.998  0.0639 -0.1561  0.2267
   64MOL0     C 8738   1.601   7.744   8.074 -0.5381  0.1134  0.7222
   64MOL0    Cl 8739   1.736   7.733   7.961  0.1319 -0.4504  0.4950
   64MOL0     C 8740   1.652   8.296   7.157  0.5310 -0.1850  0.1688
   64MOL0     C 8741   1.730   8.413   7.142  0.7547 -0.5512 -0.5217
   64MOL0     O 8742   1.974   8.567   7.091  0.9874 -0.0753  0.4491
   64MOL0     C 8743   1.879   8.869   7.253  0.9766 -0.6742  1.0156
   64MOL0     C 8744   1.925   8.993   7.284  0.3899  0.1120 -0.5418
   64MOL0     N 8745   2.513   9.437   7.559 -0.7690 -0.0304  0.5685
   64MOL0     N 8746   2.609   9.403   7.641  0.3322  0.0412  0.0009
   64MOL0     C 8747   3.069   9.992   8.267 -0.9779 -0.1097 -0.4290
   64MOL0     C 8748   3.012  10.116   8.283  0.0224 -0.0558 -0.3240
   64MOL0     C 8749   3.006  10.535   8.428  0.1827  0.3628 -0.4729
   64MOL0     C 8750   2.868  10.574   8.442 -0.3237 -0.7807 -0.5441
   64MOL0     C 8751   2.831  10.708   8.446 -0.2206  0.0826  0.0425
   64MOL0     C 8752   2.923  10.807   8.446  0.0294  0.6478  0.1255
   64MOL0     O 8753   2.870  10.923   8.498 -0.6671  0.1961  0.1389
   64MOL0     C 8754   2.938  11.046   8.503  0.5509 -0.2085 -0.3198
   64MOL0     C 8755   2.899  11.137   8.615  0.7402 -0.8389  0.0007
   64MOL0     C 8756   2.989  11.252   8.646 -0.4619 -0.3165 -0.4452
   64MOL0     C 8757   3.099  11.229   8.746 -0.0855 -0.4385  0.4974
   64MOL0     C 8758   3.185  11.349   8.765 -1.1396 -0.0034 -1.0461
   64MOL0     C 8759   3.261  11.442   8.795 -0.1212 -0.6620  0.7888
   64MOL0     C 8760   3.054  10.770   8.436 -0.6357 -0.8332  0.8050
   64MOL0     C 8761   3.096  10.639   8.424  0.3018 -0.5211 -0.5716
   64MOL0     C 8762   3.247  10.621   8.429  0.2680  0.0295 -0.2915
   64MOL0     H 8763   2.916  10.089   8.606  0.1948  0.7215 -0.1846
   64MOL0     H 8764   3.011   9.854   8.569  2.0953 -1.5183 -1.0717
   64MOL0     H 8765   3.061   9.653   8.509  2.3797  0.5853  0.8153
   64MOL0     H 8766   3.143   9.582   8.376  0.0136  0.7181  0.6807
   64MOL0     H 8767   2.917   9.523   8.381  0.4472  1.9199  2.4306
   64MOL0     H 8768   2.867   9.691   8.352  0.0859  0.0835  1.2302
   64MOL0     H 8769   3.028   9.655   8.135  0.9361  1.5006  1.3238
   64MOL0     H 8770   3.026   9.497   8.174 -1.7893 -0.0307 -2.1307
   64MOL0     H 8771   2.759   9.630   8.156 -1.9404 -0.5738 -2.1408
   64MOL0     H 8772   2.854   9.574   8.008 -1.3095  1.7108  0.2414
   64MOL0     H 8773   2.735   9.407   8.239 -0.4929  0.4541  0.0688
   64MOL0     H 8774   2.856   9.348   8.144 -0.4661 -1.2787 -1.7863
   64MOL0     H 8775   2.593   9.321   8.094 -1.5968  2.9072  2.4491
   64MOL0     H 8776   2.618   9.466   8.005  0.4185 -0.4019  0.3054
   64MOL0     H 8777   2.778   9.208   7.961  1.0620 -1.7257 -1.4569
   64MOL0     H 8778   2.779   9.359   7.859  0.5837  0.2032  1.3580
   64MOL0     H 8779   2.677   9.164   7.773  1.5377 -2.1486  3.9097
   64MOL0     H 8780   2.535   9.180   7.867 -0.7379  1.1722  0.1411
   64MOL0     H 8781   2.332   9.307   7.801  0.8093 -2.7830  0.5262
   64MOL0     H 8782   2.280   9.554   7.527  2.1775 -1.0524 -1.0239
   64MOL0     H 8783   2.198   9.479   7.666  2.4123 -1.5220  1.0074
   64MOL0     H 8784   2.176   9.267   7.528  2.5472 -0.2812 -0.1177
   64MOL0     H 8785   2.071   9.404   7.484 -0.5842 -2.1510  1.8743
   64MOL0     H 8786   2.158   9.423   7.266  2.7253  2.3667 -0.0835
   64MOL0     H 8787   2.328   9.395   7.311  0.7566 -3.7154 -0.0435
   64MOL0     H 8788   2.263   9.209   7.185  0.4584  0.2870  0.0319
   64MOL0     H 8789   2.291   9.154   7.338  0.3465 -1.0522 -2.0888
   64MOL0     H 8790   2.252   8.980   7.169 -0.3262 -0.8066  0.0288
   64MOL0     H 8791   2.314   8.780   7.119  0.5746 -0.3414 -2.0833
   64MOL0     H 8792   2.212   8.722   6.987 -2.8298 -1.6123  0.5147
   64MOL0     H 8793   2.215   8.640   7.145  0.3413 -1.3006 -0.6740
   64MOL0     H 8794   1.745   8.483   7.475  2.8320 -2.2314 -0.6986
   64MOL0     H 8795   1.619   8.285   7.495 -1.0190  0.0862 -0.4588
   64MOL0     H 8796   1.542   7.941   7.393 -4.1947  0.4677  1.6846
   64MOL0     H 8797   1.643   8.071   7.466 -2.0914  0.3957  2.2970
   64MOL0     H 8798   1.448   8.165   7.553  0.9921  1.2461 -1.7190
   64MOL0     H 8799   1.337   8.063   7.457 -0.0546  1.4332  1.0665
   64MOL0     H 8800   1.536   7.935   7.631  1.5881  1.8451 -2.7888
   64MOL0     H 8801   1.405   7.850   7.557  1.6696 -1.0672  1.3343
   64MOL0     H 8802   1.238   7.990   7.676 -0.0741 -2.0787 -0.3476
   64MOL0     H 8803   1.370   8.066   7.779  1.1377  0.0547 -1.3107
   64MOL0     H 8804   1.238   7.885   7.872  1.1259  0.8332  0.4638
   64MOL0     H 8805   1.321   7.764   7.774  0.4872 -0.5122 -0.7989
   64MOL0     H 8806   1.466   7.965   7.956 -0.4969  0.1973  0.9693
   64MOL0     H 8807   1.549   7.854   7.841 -1.1267 -0.4736 -1.3941
   64MOL0     H 8808   1.454   7.659   7.933 -1.6168  2.2669 -2.8969
   64MOL0     H 8809   1.395   7.753   8.075  2.2208  0.6329  2.3970
   64MOL0     H 8810   1.611   7.657   8.140  2.2287 -1.1581 -1.2150
   64MOL0     H 8811   1.609   7.836   8.132  2.7136  2.3962 -2.9014
   64MOL0     H 8812   1.607   8.250   7.070 -4.7892  0.4683  2.2246
   64MOL0     H 8813   1.770   8.432   7.043  0.0024 -1.9536 -1.1348
   64MOL0     H 8814   1.774   8.847   7.267 -0.6398  2.6233 -3.4087
   64MOL0     H 8815   1.850   9.060   7.326  2.9558  3.9118 -1.4155
   64MOL0     H 8816   3.113   9.984   8.168 -3.0681  1.6223 -1.5883
   64MOL0     H 8817   3.017  10.183   8.198 -2.3810 -1.4956 -1.7245
   64MOL0     H 8818   2.782  10.507   8.433  0.6786 -2.3392  0.8276
   64MOL0     H 8819   2.727  10.734   8.460 -0.1566 -0.0355  0.7709
   64MOL0     H 8820   3.046  11.028   8.507  0.5840 -1.5711 -3.8121
   64MOL0     H 8821   2.914  11.098   8.409  2.4539  2.5711  0.5996
   64MOL0     H 8822   2.897  11.076   8.706 -5.5794  1.6903  2.1105
   64MOL0     H 8823   2.797  11.175   8.605  1.2716  0.0657 -3.1156
   64MOL0     H 8824   3.031  11.278   8.548  0.6416  1.3765  0.4294
   64MOL0     H 8825   2.933  11.339   8.681  0.0008 -0.0017 -0.4653
   64MOL0     H 8826   3.157  11.147   8.703  1.5186  0.4531  0.9162
   64MOL0     H 8827   3.066  11.209   8.849  1.2165 -2.5590  0.5592
   64MOL0     H 8828   3.323  11.522   8.830  0.3128  0.0251 -1.4262
   64MOL0     H 8829   3.136  10.841   8.444 -0.6435 -0.7028 -0.1847
   64MOL0     H 8830   3.281  10.554   8.510  2.6761 -0.5005 -1.6527
   64MOL0     H 8831   3.275  10.574   8.334 -0.2239  2.2292 -1.5721
   64MOL0     H 8832   3.310  10.709   8.443 -0.0170 -0.0134  1.5368
   65MOL0     O 8833   5.051   3.339   6.031  0.5588  0.2420  0.6155
   65MOL0     C 8834   5.058   3.228   6.092  0.0692 -0.5160  0.4032
   65MOL0     O 8835   5.118   3.199   6.208  0.1002 -0.5983 -0.2634
   65MOL0     C 8836   5.146   3.306   6.294  0.4399  0.1110  0.9133
   65MOL0     C 8837   5.275   3.308   6.347  0.1683  0.2827 -0.3875
   65MOL0     C 8838   5.316   3.398   6.443 -0.5934 -0.4429 -0.1267
   65MOL0     C 8839   5.225   3.490   6.491  0.1676 -0.5816  0.0542
   65MOL0     O 8840   5.262   3.567   6.595  0.1778 -0.5497 -0.0451
   65MOL0     C 8841   5.190   3.683   6.633  0.0199  0.2201  0.0421
   65MOL0     C 8842   5.245   3.742   6.772  0.7721 -0.4322  0.6013
   65MOL0     C 8843   5.162   3.868   6.801  0.6395 -0.0242 -0.5032
   65MOL0     C 8844   5.032   3.822   6.864 -0.5689 -0.2529  0.5446
   65MOL0     C 8845   5.028   3.837   7.016  0.2451  0.4783  0.3622
   65MOL0     C 8846   5.061   3.695   7.084 -0.1484 -0.4477 -0.7422
   65MOL0     C 8847   5.032   3.708   7.233 -0.4005 -0.0772  0.7041
   65MOL0     C 8848   5.038   3.840   7.299 -0.4903  0.1429 -0.4080
   65MOL0     N 8849   5.069   3.828   7.436 -0.0273 -0.0093  0.1634
   65MOL0     C 8850   5.184   3.826   7.510 -0.1972  0.1519  0.0543
   65MOL0     C 8851   5.146   3.842   7.635 -0.2388  0.3761 -0.3286
   65MOL0     C 8852   5.229   3.842   7.754  0.9364  0.6377 -0.1088
   65MOL0     C 8853   5.279   3.991   7.782 -0.2968  0.4270 -1.2592
   65MOL0     C 8854   5.338   4.003   7.922  0.0243 -0.3946  0.3307
   65MOL0     C 8855   5.375   4.144   7.960 -0.2865 -0.6324 -0.0350
   65MOL0     O 8856   5.472   4.158   8.063 -0.0128  0.3578 -0.1388
   65MOL0     C 8857   5.446   4.115   8.185  0.9685  0.1637 -0.8679
   65MOL0     C 8858   5.316   4.091   8.237  0.1839 -0.4393  0.4033
   65MOL0     C 8859   5.286   4.056   8.365 -1.2003 -0.0919  0.3031
   65MOL0     C 8860   5.134   4.033   8.403 -0.3225  1.2732  0.1553
   65MOL0     C 8861   5.393   4.024   8.457 -0.1262  0.2301  0.0708
   65MOL0     C 8862   5.382   3.970   8.588  0.2113 -0.5080 -0.0952
   65MOL0     O 8863   5.503   3.968   8.660 -0.3343 -1.0231 -0.5568
   65MOL0     C 8864   5.496   3.992   8.798  0.6380  0.5537 -0.4011
   65MOL0     C 8865   5.497   4.117   8.851 -0.3058  0.6755  0.4393
   65MOL0     C 8866   5.518   4.141   8.989  1.5485  0.2990 -0.1504
   65MOL0     C 8867   5.499   4.037   9.075 -0.8169  0.1822 -0.1913
   65MOL0     O 8868   5.511   4.048   9.213 -0.0138 -0.3199 -0.4786
   65MOL0     C 8869   5.529   4.176   9.278 -0.3909  0.4400 -0.8049
   65MOL0     C 8870   5.669   4.240   9.270 -0.0261  0.4814 -0.1030
   65MOL0     C 8871   5.771   4.149   9.320  0.0255 -0.9945 -0.8384
   65MOL0     C 8872   5.901   4.215   9.289  0.9559 -1.7839  0.6091
   65MOL0     C 8873   6.023   4.148   9.359 -0.3752  0.0598  0.1529
   65MOL0     C 8874   6.123   4.265   9.393  0.9663  0.2271 -0.5141
   65MOL0     C 8875   6.239   4.212   9.474 -0.5174  0.3198  0.4238
   65MOL0     C 8876   6.341   4.325   9.508 -0.1541  0.1918  0.1059
   65MOL0    Cl 8877   6.273   4.468   9.599 -0.4721  0.1193 -0.3620
   65MOL0     C 8878   5.481   3.903   9.024 -0.5541  0.8555 -0.1303
   65MOL0     C 8879   5.486   3.884   8.880  0.5459  0.3278 -0.2440
   65MOL0     O 8880   5.267   3.944   8.633  0.0459 -0.6910  0.2649
   65MOL0     C 8881   5.520   4.050   8.404  0.0199  0.7212  0.4658
   65MOL0     C 8882   5.551   4.087   8.270  0.4403 -0.0177 -0.2436
   65MOL0     N 8883   5.006   3.860   7.639 -0.0264 -0.2202 -0.0198
   65MOL0     N 8884   4.968   3.857   7.514 -0.3864 -0.7470  0.6380
   65MOL0     C 8885   5.097   3.495   6.436  0.4106 -0.1966  0.6045
   65MOL0     C 8886   5.064   3.414   6.326  0.5344  0.4592 -0.0164
   65MOL0     C 8887   5.008   3.114   6.015  0.1954 -0.3036 -0.0980
   65MOL0     C 8888   5.012   3.117   5.877 -0.2368 -0.7360  0.1457
   65MOL0     C 8889   4.970   3.005   5.802 -0.1165 -0.1053 -0.5925
   65MOL0     C 8890   4.916   2.895   5.853  0.0115  0.0571 -0.3112
   65MOL0     O 8891   4.878   2.801   5.758  0.8535  0.4531 -0.1746
   65MOL0     C 8892   4.853   2.666   5.792  1.1677 -0.5100  0.6718
   65MOL0     C 8893   4.940   2.584   5.703 -0.4743 -0.1326 -0.1808
   65MOL0     C 8894   4.944   2.434   5.750 -0.1889 -0.3146 -0.3998
   65MOL0     C 8895   5.023   2.360   5.649 -0.3416 -0.2558 -0.7575
   65MOL0     C 8896   5.027   2.221   5.695 -0.3010  0.3670 -0.6375
   65MOL0     C 8897   5.034   2.106   5.742  0.0524  0.1684  1.0533
   65MOL0     C 8898   4.914   2.880   5.994  0.5391 -0.0996  0.3722
   65MOL0     C 8899   4.961   2.989   6.076  0.1848 -0.3849  0.1943
   65MOL0     C 8900   4.934   2.985   6.225  0.2873 -0.3864 -0.4172
   65MOL0     H 8901   5.348   3.237   6.309 -2.1883 -2.9571  0.6911
   65MOL0     H 8902   5.418   3.402   6.480 -1.2419  1.6559  1.7009
   65MOL0     H 8903   5.089   3.640   6.638  1.1289 -2.4133  1.9918
   65MOL0     H 8904   5.188   3.757   6.552  0.7394  1.1457  0.8488
   65MOL0     H 8905   5.228   3.667   6.850 -4.5863 -1.1513 -0.8258
   65MOL0     H 8906   5.350   3.767   6.755  0.6432 -1.2199 -1.7930
   65MOL0     H 8907   5.214   3.929   6.875  0.6370  0.0493 -0.5620
   65MOL0     H 8908   5.147   3.929   6.711  0.5640 -1.4019 -1.4543
   65MOL0     H 8909   4.967   3.899   6.822  0.1680  0.1993  0.2152
   65MOL0     H 8910   5.010   3.722   6.826 -1.1139 -0.0471  0.3095
   65MOL0     H 8911   4.928   3.868   7.047 -0.5847 -1.4915 -0.1856
   65MOL0     H 8912   5.080   3.921   7.063 -1.4234  0.3755  2.5702
   65MOL0     H 8913   4.996   3.618   7.040 -1.6317 -0.7321  1.7094
   65MOL0     H 8914   5.167   3.670   7.081  0.6462  2.0108  2.0940
   65MOL0     H 8915   5.110   3.643   7.274 -2.5711 -2.8198  0.8033
   65MOL0     H 8916   4.938   3.658   7.258 -1.2993  0.0851 -2.0144
   65MOL0     H 8917   5.118   3.904   7.263 -1.7167  3.8543  2.8183
   65MOL0     H 8918   4.953   3.901   7.267  1.4534  2.1292 -2.0925
   65MOL0     H 8919   5.285   3.812   7.471  0.0382 -0.6228  0.9282
   65MOL0     H 8920   5.304   3.762   7.747  2.3883  2.1125 -4.3242
   65MOL0     H 8921   5.163   3.814   7.836  0.8861  1.1410  0.0267
   65MOL0     H 8922   5.353   4.002   7.702 -0.4705 -2.0082 -1.8276
   65MOL0     H 8923   5.191   4.055   7.771 -0.9694 -0.1160  0.5974
   65MOL0     H 8924   5.282   3.963   8.006  3.1270  0.9069  3.2442
   65MOL0     H 8925   5.434   3.951   7.915 -0.2143 -1.2540  2.6474
   65MOL0     H 8926   5.416   4.180   7.866  0.9030 -0.1928  0.6351
   65MOL0     H 8927   5.292   4.213   7.981  1.1516  1.1870 -0.0673
   65MOL0     H 8928   5.231   4.099   8.171 -1.8893  1.8321  3.0542
   65MOL0     H 8929   5.114   4.094   8.492 -0.5530 -1.6061  2.2187
   65MOL0     H 8930   5.123   3.926   8.419 -1.4391  1.1836 -1.0906
   65MOL0     H 8931   5.062   4.049   8.323  1.1908 -1.7981 -2.0039
   65MOL0     H 8932   5.501   4.195   8.776 -2.3566 -0.3813 -0.8756
   65MOL0     H 8933   5.530   4.244   9.020  2.1315  0.0063  0.6367
   65MOL0     H 8934   5.461   4.249   9.233  0.2878  0.8261 -1.2183
   65MOL0     H 8935   5.493   4.149   9.378  0.5153 -0.4040 -0.6892
   65MOL0     H 8936   5.688   4.271   9.167 -3.3382 -1.0963 -1.3333
   65MOL0     H 8937   5.648   4.324   9.336 -4.0257 -2.7465  3.3246
   65MOL0     H 8938   5.761   4.051   9.273 -2.8924 -2.4085  2.3030
   65MOL0     H 8939   5.764   4.139   9.428  1.5365  1.6104 -0.3985
   65MOL0     H 8940   5.890   4.319   9.320  1.7102 -1.5006 -0.0422
   65MOL0     H 8941   5.924   4.211   9.182  0.0080 -0.3172  0.3252
   65MOL0     H 8942   5.991   4.087   9.444 -2.7191 -0.5662 -1.0802
   65MOL0     H 8943   6.067   4.087   9.280 -0.5439 -0.3790  0.3931
   65MOL0     H 8944   6.077   4.337   9.461  0.2050 -0.8594  0.1594
   65MOL0     H 8945   6.153   4.310   9.298 -0.8068 -0.7246 -1.5802
   65MOL0     H 8946   6.294   4.148   9.405  1.5761  4.7961 -2.5547
   65MOL0     H 8947   6.195   4.162   9.561 -1.8283  1.9189  0.7451
   65MOL0     H 8948   6.376   4.360   9.410 -0.7165  2.6569  0.7018
   65MOL0     H 8949   6.427   4.297   9.570  1.3745  1.2039 -1.4821
   65MOL0     H 8950   5.480   3.817   9.090  1.2015  1.0230  0.1798
   65MOL0     H 8951   5.476   3.785   8.836 -0.0965  0.1419  0.3111
   65MOL0     H 8952   5.607   4.027   8.465  0.3986  1.8320  0.3598
   65MOL0     H 8953   5.652   4.095   8.230  2.2821 -1.0872  3.7099
   65MOL0     H 8954   5.017   3.564   6.463 -1.4646 -2.0109 -0.0824
   65MOL0     H 8955   4.968   3.434   6.280  0.9027  0.9775 -0.5699
   65MOL0     H 8956   5.041   3.200   5.813 -0.5932 -2.5827 -2.5855
   65MOL0     H 8957   4.973   3.015   5.694  1.6711 -2.5628 -0.8716
   65MOL0     H 8958   4.868   2.639   5.897  2.7535  0.3674  0.6960
   65MOL0     H 8959   4.748   2.637   5.777  0.7303  0.3510  1.8762
   65MOL0     H 8960   5.039   2.631   5.697 -0.2991 -0.4953 -0.1701
   65MOL0     H 8961   4.894   2.584   5.604  0.0205  0.5114 -0.4216
   65MOL0     H 8962   5.004   2.434   5.842  0.1512 -0.3185 -0.6219
   65MOL0     H 8963   4.843   2.392   5.757 -0.9475  0.9708 -2.6926
   65MOL0     H 8964   5.121   2.406   5.632 -1.6550  3.2586  0.3229
   65MOL0     H 8965   4.962   2.370   5.559 -0.5349  0.6643 -0.5405
   65MOL0     H 8966   5.057   2.009   5.781  1.8110 -0.0606 -0.4588
   65MOL0     H 8967   4.867   2.791   6.034 -0.8876  0.8651  0.9543
   65MOL0     H 8968   4.875   2.896   6.248  2.2191 -2.0072 -1.4345
   65MOL0     H 8969   5.028   2.970   6.279 -0.3507 -1.7100  0.3707
   65MOL0     H 8970   4.883   3.076   6.258 -2.2534 -1.5473 -0.8746
   66MOL0     O 8971   0.372   0.239   2.980 -0.4516 -0.0765  0.2979
   66MOL0     C 8972   0.274   0.178   2.931  0.2026  0.5071 -1.3995
   66MOL0     O 8973   0.200   0.219   2.819 -0.0695 -0.8926  0.4383
   66MOL0     C 8974   0.231   0.331   2.744 -0.2184 -0.0462 -0.5688
   66MOL0     C 8975   0.326   0.424   2.763 -0.4970 -1.0079 -0.5919
   66MOL0     C 8976   0.343   0.524   2.667  0.6539  0.4587  0.2615
   66MOL0     C 8977   0.247   0.543   2.571 -0.2437 -0.9513  0.5656
   66MOL0     O 8978   0.257   0.644   2.483  0.3815  0.5524  0.2369
   66MOL0     C 8979   0.224   0.773   2.545 -0.8415  0.8712 -0.6298
   66MOL0     C 8980   0.275   0.883   2.457 -0.4245  0.0659  0.6552
   66MOL0     C 8981   0.242   0.851   2.316  1.4389 -0.4622  0.1302
   66MOL0     C 8982   0.235   0.973   2.217 -0.6214  0.7878  0.1575
   66MOL0     C 8983   0.182   0.928   2.079  0.3141  0.0732  0.2380
   66MOL0     C 8984   0.099   1.052   2.026  0.0154  0.3313  1.1130
   66MOL0     C 8985   0.060   1.027   1.881  0.7683  0.2464 -0.6856
   66MOL0     C 8986  -0.034   1.146   1.839  0.5942 -0.3521  0.1333
   66MOL0     N 8987  -0.095   1.116   1.707 -0.6402 -0.2217 -0.2283
   66MOL0     C 8988  -0.011   1.100   1.601 -0.2997 -0.7197  0.1659
   66MOL0     C 8989  -0.078   1.023   1.514  0.2654  0.3823 -0.2213
   66MOL0     C 8990  -0.029   0.960   1.389  0.9679 -0.5569 -0.2022
   66MOL0     C 8991  -0.006   1.052   1.271  0.7335  0.4538  1.0345
   66MOL0     C 8992   0.025   0.970   1.138 -0.3505 -0.4344 -0.7473
   66MOL0     C 8993   0.125   0.858   1.159 -0.9020 -0.4617 -0.0820
   66MOL0     O 8994   0.249   0.875   1.085 -0.4291 -0.0338  0.2903
   66MOL0     C 8995   0.362   0.932   1.145 -0.6544  0.2561 -0.0653
   66MOL0     C 8996   0.366   1.003   1.271  0.3305  0.6486  0.5512
   66MOL0     C 8997   0.491   1.042   1.316 -0.3922 -0.3351 -0.3380
   66MOL0     C 8998   0.479   1.118   1.452  0.5266 -0.0542  0.1304
   66MOL0     C 8999   0.613   1.016   1.247  0.0759 -0.6775  0.0737
   66MOL0     C 9000   0.751   1.055   1.298  1.0873  0.9435 -0.2931
   66MOL0     O 9001   0.849   1.063   1.202  0.4171  0.2590 -0.1786
   66MOL0     C 9002   0.977   1.083   1.239 -0.2650 -0.6674  0.1088
   66MOL0     C 9003   1.007   1.187   1.329  1.2260  0.3281  0.3275
   66MOL0     C 9004   1.138   1.210   1.368 -0.1082 -0.4387  0.3575
   66MOL0     C 9005   1.240   1.138   1.301 -0.1541  1.1558 -0.9568
   66MOL0     O 9006   1.369   1.151   1.330 -0.0850 -0.7582  0.5542
   66MOL0     C 9007   1.416   1.284   1.325 -0.2143 -0.9320  0.3255
   66MOL0     C 9008   1.537   1.316   1.417  0.4469 -0.1276  0.4327
   66MOL0     C 9009   1.593   1.463   1.400  0.4531 -0.9487 -0.0957
   66MOL0     C 9010   1.497   1.582   1.365 -0.3091  0.2930 -0.0837
   66MOL0     C 9011   1.574   1.710   1.333  1.1703 -0.1660  0.0535
   66MOL0     C 9012   1.489   1.813   1.253  0.6177  0.0566 -0.5675
   66MOL0     C 9013   1.381   1.865   1.349  0.1170 -0.1289 -0.2135
   66MOL0     C 9014   1.446   1.945   1.460 -0.2069  0.4428 -0.2514
   66MOL0    Cl 9015   1.332   2.055   1.554 -0.2292 -0.6328  0.2340
   66MOL0     C 9016   1.207   1.047   1.202 -0.3252  0.6998  0.2487
   66MOL0     C 9017   1.072   1.011   1.171 -0.0531 -0.7443 -0.4536
   66MOL0     O 9018   0.767   1.045   1.423  0.3183 -0.2937 -0.0299
   66MOL0     C 9019   0.608   0.960   1.129  0.6619 -0.8163  0.4186
   66MOL0     C 9020   0.483   0.903   1.075 -0.1194 -0.2595 -0.3881
   66MOL0     N 9021  -0.207   0.991   1.571 -0.1119  0.2169  0.1868
   66MOL0     N 9022  -0.212   1.054   1.683 -0.0265 -1.1525 -0.5621
   66MOL0     C 9023   0.158   0.444   2.549  0.2086  0.0085  0.0791
   66MOL0     C 9024   0.151   0.343   2.636 -0.1427  0.2482 -0.4386
   66MOL0     C 9025   0.243   0.044   2.994  0.1690 -0.1774 -0.3446
   66MOL0     C 9026   0.327  -0.017   3.087  0.0021 -1.1326 -0.2209
   66MOL0     C 9027   0.312  -0.137   3.156 -0.2240  0.5429  0.3261
   66MOL0     C 9028   0.203  -0.219   3.128  1.3336  0.5730 -0.2100
   66MOL0     O 9029   0.159  -0.333   3.191  0.0519  0.2725 -0.2697
   66MOL0     C 9030   0.231  -0.393   3.294 -0.3527 -0.6058 -0.4718
   66MOL0     C 9031   0.168  -0.360   3.428  0.3968 -0.4930  1.3327
   66MOL0     C 9032   0.041  -0.445   3.453 -0.4459 -0.3369  0.5276
   66MOL0     C 9033   0.013  -0.451   3.609 -0.1042  0.6560 -0.2702
   66MOL0     C 9034  -0.110  -0.533   3.628  0.3615  0.4519  0.2799
   66MOL0     C 9035  -0.213  -0.601   3.635  0.4805  1.5001  0.9942
   66MOL0     C 9036   0.112  -0.161   3.039  0.7549  0.0889  0.5993
   66MOL0     C 9037   0.129  -0.035   2.965 -0.2966  0.3980  0.6875
   66MOL0     C 9038   0.021   0.008   2.867  0.0337  0.0138  0.0804
   66MOL0     H 9039   0.383   0.419   2.856  0.1758 -0.8159 -0.9916
   66MOL0     H 9040   0.429   0.590   2.678  0.3691  0.7762  0.6024
   66MOL0     H 9041   0.256   0.782   2.650 -2.5301  2.1261 -0.1696
   66MOL0     H 9042   0.116   0.780   2.532 -1.2650 -3.2378 -0.6793
   66MOL0     H 9043   0.229   0.979   2.484  0.8184  0.3074  1.9997
   66MOL0     H 9044   0.383   0.887   2.473 -0.2370  0.3064 -0.5329
   66MOL0     H 9045   0.319   0.785   2.275  1.3753 -2.0764  2.4059
   66MOL0     H 9046   0.148   0.795   2.313 -0.5214  2.5475  1.0041
   66MOL0     H 9047   0.180   1.053   2.266  1.2567  2.0907  0.2438
   66MOL0     H 9048   0.338   1.008   2.204 -0.5348  1.5182  2.3640
   66MOL0     H 9049   0.109   0.847   2.086 -2.3673  2.1957 -1.1868
   66MOL0     H 9050   0.257   0.890   2.009 -2.0311 -0.2064 -2.3231
   66MOL0     H 9051   0.003   1.052   2.079 -0.3642  0.9981  0.4382
   66MOL0     H 9052   0.149   1.146   2.050  4.7604 -1.9049  1.1254
   66MOL0     H 9053   0.012   0.930   1.868  2.8612 -0.9047 -0.2334
   66MOL0     H 9054   0.156   1.018   1.830  0.5166 -1.0063 -0.9679
   66MOL0     H 9055  -0.115   1.174   1.907  1.1052  0.1191  0.5631
   66MOL0     H 9056   0.031   1.231   1.816 -0.3122  0.3678  0.1787
   66MOL0     H 9057   0.089   1.142   1.606 -1.8171  3.1674  0.7407
   66MOL0     H 9058  -0.094   0.879   1.354  1.4985 -0.4405 -1.5100
   66MOL0     H 9059   0.060   0.904   1.419  0.5052 -1.4497 -0.4345
   66MOL0     H 9060  -0.093   1.115   1.251  0.4693 -0.4744 -0.9382
   66MOL0     H 9061   0.071   1.130   1.284  0.7989  1.4615 -3.5613
   66MOL0     H 9062  -0.058   0.918   1.090 -0.6539 -0.7873  0.1508
   66MOL0     H 9063   0.064   1.038   1.061 -0.5576 -0.3966 -0.8192
   66MOL0     H 9064   0.168   0.850   1.259  0.0871 -3.1335 -0.6293
   66MOL0     H 9065   0.083   0.757   1.147  0.2057 -1.0284  0.6203
   66MOL0     H 9066   0.274   1.030   1.321 -0.6201 -1.3750  0.0082
   66MOL0     H 9067   0.570   1.177   1.467  1.1824 -0.5123 -1.7682
   66MOL0     H 9068   0.471   1.041   1.530  0.2797 -1.5865 -1.3389
   66MOL0     H 9069   0.391   1.181   1.466  0.4889 -0.2229  0.6891
   66MOL0     H 9070   0.927   1.239   1.382  2.2873 -0.0402  2.3835
   66MOL0     H 9071   1.164   1.285   1.442 -1.9077  2.2106 -1.5452
   66MOL0     H 9072   1.456   1.292   1.224  1.5023 -2.0355  0.8807
   66MOL0     H 9073   1.350   1.365   1.359  0.8736  0.8382 -1.5673
   66MOL0     H 9074   1.494   1.315   1.517 -1.4000  6.3199  0.1314
   66MOL0     H 9075   1.615   1.239   1.410 -0.4202 -1.0058  0.2759
   66MOL0     H 9076   1.677   1.459   1.329 -0.5378  2.0250 -1.6184
   66MOL0     H 9077   1.645   1.495   1.491  0.9178 -1.8514 -0.0367
   66MOL0     H 9078   1.437   1.588   1.456 -0.5143 -1.3506 -0.0803
   66MOL0     H 9079   1.423   1.553   1.289 -2.6998 -3.6412  3.2935
   66MOL0     H 9080   1.622   1.762   1.416 -1.0803  2.3755 -0.1126
   66MOL0     H 9081   1.647   1.681   1.256 -1.3918 -0.9962 -2.2268
   66MOL0     H 9082   1.426   1.772   1.174 -1.2662  0.9930  0.3772
   66MOL0     H 9083   1.555   1.893   1.217  1.9991 -0.6053  0.4033
   66MOL0     H 9084   1.314   1.785   1.381  0.2298 -0.9942 -2.0332
   66MOL0     H 9085   1.322   1.927   1.282 -3.3699 -1.6526  1.1952
   66MOL0     H 9086   1.527   2.009   1.425  0.9909 -1.3230 -0.8215
   66MOL0     H 9087   1.484   1.870   1.530 -4.2356  0.2708  2.0922
   66MOL0     H 9088   1.280   0.991   1.144  0.4265  0.5215  1.3519
   66MOL0     H 9089   1.043   0.935   1.099 -3.0321  1.3993 -1.7442
   66MOL0     H 9090   0.692   0.941   1.062 -0.8854 -0.3104 -1.7866
   66MOL0     H 9091   0.485   0.842   0.986  0.2434  0.1419 -0.6602
   66MOL0     H 9092   0.080   0.463   2.476  0.8161  5.0791  0.3834
   66MOL0     H 9093   0.073   0.270   2.618 -1.6676  1.4311  0.9956
   66MOL0     H 9094   0.411   0.041   3.125  0.5731 -1.6693 -0.6346
   66MOL0     H 9095   0.385  -0.159   3.234 -0.5981 -0.0873  0.5039
   66MOL0     H 9096   0.225  -0.502   3.282 -0.9353 -0.6220 -0.0188
   66MOL0     H 9097   0.339  -0.374   3.290  0.2840 -3.4682  0.6357
   66MOL0     H 9098   0.140  -0.257   3.450 -0.7355 -1.0117  2.4614
   66MOL0     H 9099   0.243  -0.392   3.501  0.8696 -1.3619  0.4919
   66MOL0     H 9100  -0.038  -0.398   3.394 -1.1298 -1.9857  0.0913
   66MOL0     H 9101   0.053  -0.546   3.413 -1.1771 -0.5391  0.7986
   66MOL0     H 9102  -0.020  -0.357   3.655 -1.1638  1.5036 -2.5986
   66MOL0     H 9103   0.107  -0.493   3.647 -0.3078 -0.5472 -1.0368
   66MOL0     H 9104  -0.308  -0.651   3.634 -0.0678  2.5116 -0.1645
   66MOL0     H 9105   0.020  -0.209   3.008  0.6125 -1.1118  2.6508
   66MOL0     H 9106  -0.004   0.112   2.890  1.8237  0.2896  1.0236
   66MOL0     H 9107   0.060   0.002   2.765  1.2630  1.6360  0.4065
   66MOL0     H 9108  -0.065  -0.058   2.869 -1.0801  1.3331 -1.3165
   67MOL0     O 9109   1.121   4.480   8.405 -0.3511 -0.0714 -0.2034
   67MOL0     C 9110   1.223   4.417   8.431  0.7013 -0.3851  0.0251
   67MOL0     O 9111   1.345   4.467   8.464  0.5278 -0.2303  0.0194
   67MOL0     C 9112   1.372   4.596   8.426 -0.2177 -0.8846 -0.7324
   67MOL0     C 9113   1.467   4.666   8.504 -0.2242  0.2628  0.0300
   67MOL0     C 9114   1.531   4.782   8.468  0.7970 -0.2494 -0.9097
   67MOL0     C 9115   1.495   4.842   8.347 -0.7463  0.5991 -0.1067
   67MOL0     O 9116   1.564   4.953   8.315 -0.3160  0.1425  0.2090
   67MOL0     C 9117   1.592   4.969   8.177 -0.0211  0.5020 -1.4145
   67MOL0     C 9118   1.672   5.093   8.170 -0.4201  0.5683  1.1373
   67MOL0     C 9119   1.696   5.136   8.029 -0.5990  0.1658  1.1045
   67MOL0     C 9120   1.777   5.267   8.021  0.7867  0.7432 -0.1689
   67MOL0     C 9121   1.833   5.276   7.873 -0.0633 -0.0544 -1.2330
   67MOL0     C 9122   1.911   5.402   7.856 -0.2744 -0.4890  0.4227
   67MOL0     C 9123   1.956   5.426   7.712  1.2582 -0.3474  0.6459
   67MOL0     C 9124   2.053   5.541   7.684  0.4127 -0.9136 -0.6599
   67MOL0     N 9125   2.173   5.532   7.767  0.3179  0.5798 -0.8025
   67MOL0     C 9126   2.241   5.419   7.791  0.9350 -0.5238  0.0477
   67MOL0     C 9127   2.333   5.459   7.885 -0.0477 -0.2877  0.2909
   67MOL0     C 9128   2.446   5.374   7.954 -0.3560 -0.1769  0.0576
   67MOL0     C 9129   2.569   5.350   7.865 -0.4529  0.5651  0.7401
   67MOL0     C 9130   2.698   5.276   7.924  1.1510 -0.3696 -0.5171
   67MOL0     C 9131   2.673   5.124   7.956 -0.1460 -0.4299  0.1947
   67MOL0     O 9132   2.569   5.115   8.054 -0.3221  0.5156  0.7303
   67MOL0     C 9133   2.591   5.139   8.189  0.1598  0.8061 -0.5047
   67MOL0     C 9134   2.712   5.180   8.235 -0.3574 -0.5734 -0.2978
   67MOL0     C 9135   2.725   5.217   8.370 -0.2724 -0.3534 -0.0770
   67MOL0     C 9136   2.851   5.289   8.395 -0.9781 -0.0249 -0.6245
   67MOL0     C 9137   2.626   5.189   8.462  0.5873  0.2761 -0.0263
   67MOL0     C 9138   2.634   5.212   8.605 -0.5397 -0.5687 -0.1161
   67MOL0     O 9139   2.756   5.225   8.665  0.4178  0.1792  0.7332
   67MOL0     C 9140   2.761   5.230   8.804 -0.2843  0.4819  0.7191
   67MOL0     C 9141   2.678   5.285   8.895 -1.0584 -0.4597  0.1408
   67MOL0     C 9142   2.698   5.289   9.030  0.1983  0.0923 -0.4379
   67MOL0     C 9143   2.785   5.203   9.089 -0.2835  0.8651  0.3561
   67MOL0     O 9144   2.814   5.187   9.225 -0.1176 -0.0764  0.2412
   67MOL0     C 9145   2.775   5.288   9.319  0.1948 -0.4121 -1.1279
   67MOL0     C 9146   2.636   5.291   9.367  0.8068  0.3800  0.3673
   67MOL0     C 9147   2.625   5.206   9.489  0.4369  0.2715 -0.0173
   67MOL0     C 9148   2.484   5.160   9.541 -0.6073 -0.3541  0.2448
   67MOL0     C 9149   2.409   5.263   9.616  0.6033 -0.6540 -0.4047
   67MOL0     C 9150   2.266   5.206   9.639 -0.7017 -0.3201 -1.1912
   67MOL0     C 9151   2.175   5.287   9.737 -0.5323  0.0075  0.9350
   67MOL0     C 9152   2.195   5.254   9.883  0.0340 -0.3151 -1.5755
   67MOL0    Cl 9153   2.083   5.365   9.985 -0.0864 -0.0615  0.1518
   67MOL0     C 9154   2.874   5.132   8.998 -1.2985  0.4008 -0.2380
   67MOL0     C 9155   2.856   5.152   8.860 -0.6426  0.7582 -0.2880
   67MOL0     O 9156   2.529   5.254   8.653  0.5227  0.0901 -0.7079
   67MOL0     C 9157   2.509   5.140   8.408  0.5359  0.2325  0.9424
   67MOL0     C 9158   2.492   5.113   8.272 -0.1795 -0.2574  0.4289
   67MOL0     N 9159   2.325   5.584   7.917 -0.1318 -0.8007  0.0152
   67MOL0     N 9160   2.227   5.630   7.853  0.6185  0.1501 -0.7375
   67MOL0     C 9161   1.396   4.777   8.265  0.0666 -0.6550  0.7022
   67MOL0     C 9162   1.330   4.659   8.301 -0.7155 -0.0185 -0.2066
   67MOL0     C 9163   1.205   4.270   8.435  0.0178 -0.0503 -0.7469
   67MOL0     C 9164   1.126   4.216   8.334 -0.4146  0.5934  0.3163
   67MOL0     C 9165   1.119   4.080   8.307 -0.0503  0.6923 -0.3215
   67MOL0     C 9166   1.201   3.991   8.390 -0.4620  0.6389 -0.2607
   67MOL0     O 9167   1.203   3.853   8.378  0.8417 -0.0239 -0.0985
   67MOL0     C 9168   1.111   3.797   8.287  0.0471  1.3218 -0.0330
   67MOL0     C 9169   1.160   3.660   8.254  0.4158  0.2007  0.0461
   67MOL0     C 9170   1.070   3.592   8.150 -0.7283  0.1803  0.0868
   67MOL0     C 9171   1.106   3.444   8.147  0.8175  0.4261  0.3272
   67MOL0     C 9172   1.248   3.407   8.112  0.9890  0.3532 -0.7971
   67MOL0     C 9173   1.368   3.402   8.100  0.0292  0.1749  0.6528
   67MOL0     C 9174   1.276   4.050   8.498  0.0953 -0.5399  0.6632
   67MOL0     C 9175   1.272   4.184   8.529  0.6274 -0.3344 -0.4199
   67MOL0     C 9176   1.340   4.228   8.650  0.0106 -0.3172 -0.3065
   67MOL0     H 9177   1.499   4.624   8.599 -2.1207  0.8432  0.9880
   67MOL0     H 9178   1.600   4.818   8.544 -0.1544 -3.0013  1.4371
   67MOL0     H 9179   1.500   4.970   8.117 -0.0957  0.1243 -1.3089
   67MOL0     H 9180   1.658   4.893   8.135  0.0662  0.3287 -0.9635
   67MOL0     H 9181   1.614   5.159   8.235  0.6499 -1.4996  4.4429
   67MOL0     H 9182   1.765   5.082   8.226  0.6551  0.5390 -0.5812
   67MOL0     H 9183   1.758   5.055   7.990 -2.2018 -0.7078  0.2387
   67MOL0     H 9184   1.605   5.141   7.968 -2.3197 -1.0520  3.3994
   67MOL0     H 9185   1.706   5.348   8.043 -3.1954 -2.2156 -1.0002
   67MOL0     H 9186   1.856   5.264   8.096 -0.1443  0.8794  0.8329
   67MOL0     H 9187   1.748   5.275   7.804 -0.4378  0.2237 -0.7805
   67MOL0     H 9188   1.888   5.183   7.856  0.0078 -0.1613 -0.4507
   67MOL0     H 9189   1.848   5.487   7.883 -0.7825 -0.5830 -0.4379
   67MOL0     H 9190   1.988   5.401   7.933 -1.3432  3.4945  1.7759
   67MOL0     H 9191   1.865   5.437   7.651  2.6295  0.8929 -1.3056
   67MOL0     H 9192   1.998   5.332   7.675  2.9547  0.6915 -0.1754
   67MOL0     H 9193   2.082   5.533   7.579 -1.1672 -3.8007 -0.9706
   67MOL0     H 9194   1.997   5.634   7.697 -0.2394 -0.3156 -5.6337
   67MOL0     H 9195   2.246   5.318   7.750  3.5705 -0.7884  0.8204
   67MOL0     H 9196   2.399   5.277   7.975 -0.8278 -0.1290 -0.7369
   67MOL0     H 9197   2.474   5.422   8.048 -0.0659  2.3173 -1.2286
   67MOL0     H 9198   2.533   5.282   7.787 -0.9371  1.6196  0.0172
   67MOL0     H 9199   2.610   5.439   7.816 -0.9035 -0.7583 -2.2057
   67MOL0     H 9200   2.773   5.287   7.844  3.1739 -0.0892  1.3059
   67MOL0     H 9201   2.740   5.334   8.007 -0.2510  2.4079 -1.5990
   67MOL0     H 9202   2.646   5.062   7.871 -2.8006  2.3344 -1.1813
   67MOL0     H 9203   2.770   5.081   7.983  0.9392  1.9951  0.4161
   67MOL0     H 9204   2.793   5.194   8.165 -0.4899  0.6963 -0.2242
   67MOL0     H 9205   2.913   5.235   8.467 -1.9816 -0.2836  0.0690
   67MOL0     H 9206   2.830   5.382   8.448  2.0779  1.1574 -1.2527
   67MOL0     H 9207   2.909   5.317   8.306 -3.9194 -1.9731 -3.3869
   67MOL0     H 9208   2.600   5.346   8.849 -1.6570 -2.0444 -1.0263
   67MOL0     H 9209   2.634   5.357   9.085  1.8684  0.0225  1.7344
   67MOL0     H 9210   2.841   5.288   9.406  0.5019 -1.7766 -1.3418
   67MOL0     H 9211   2.801   5.383   9.272 -1.5420  2.7876  3.6267
   67MOL0     H 9212   2.592   5.386   9.397  1.0944  0.5928  0.1236
   67MOL0     H 9213   2.569   5.260   9.286  0.0564  1.7830  0.4122
   67MOL0     H 9214   2.671   5.250   9.577  1.5530 -0.4791 -0.2079
   67MOL0     H 9215   2.683   5.115   9.472  1.9449  1.8276 -5.1428
   67MOL0     H 9216   2.486   5.066   9.596 -1.4643 -2.7738 -3.4369
   67MOL0     H 9217   2.425   5.134   9.452  0.2947 -2.3489  0.1602
   67MOL0     H 9218   2.458   5.282   9.712  0.2029  0.9614 -0.4852
   67MOL0     H 9219   2.405   5.357   9.559 -0.5258 -0.3085  0.2104
   67MOL0     H 9220   2.273   5.102   9.673 -1.6981 -0.6362 -1.8829
   67MOL0     H 9221   2.216   5.205   9.542  1.8574  3.7836 -2.7782
   67MOL0     H 9222   2.072   5.264   9.709 -0.1503 -2.3662  1.1839
   67MOL0     H 9223   2.196   5.391   9.713 -0.9612  0.0911  0.9146
   67MOL0     H 9224   2.298   5.285   9.907 -0.9356  2.8771 -1.1249
   67MOL0     H 9225   2.181   5.149   9.911  0.2834 -0.6421 -2.6314
   67MOL0     H 9226   2.957   5.079   9.045 -0.4583  1.7829 -0.1048
   67MOL0     H 9227   2.930   5.115   8.790 -1.7123 -1.3071 -0.3819
   67MOL0     H 9228   2.437   5.118   8.486  0.0704 -0.4019  0.3430
   67MOL0     H 9229   2.394   5.092   8.230 -0.3167  1.0167  0.0651
   67MOL0     H 9230   1.363   4.817   8.169 -0.1705 -0.6503  0.7843
   67MOL0     H 9231   1.267   4.604   8.232 -0.3395 -2.2530  1.1190
   67MOL0     H 9232   1.069   4.283   8.270  0.3620 -1.1616 -2.3322
   67MOL0     H 9233   1.047   4.046   8.234  0.3453  2.3930 -1.5747
   67MOL0     H 9234   1.012   3.793   8.334 -0.6722  0.8376 -1.5211
   67MOL0     H 9235   1.094   3.846   8.191  0.2656 -1.9249 -1.8772
   67MOL0     H 9236   1.180   3.611   8.350  3.4999  3.7675  1.4920
   67MOL0     H 9237   1.259   3.676   8.210 -0.3683  2.3448 -1.0799
   67MOL0     H 9238   0.962   3.600   8.160 -1.2689 -1.7776 -2.9089
   67MOL0     H 9239   1.101   3.638   8.056  1.3612 -0.9880  0.1263
   67MOL0     H 9240   1.036   3.394   8.079  0.7097 -0.0320  0.7686
   67MOL0     H 9241   1.092   3.388   8.240 -1.7278 -1.0326 -0.8081
   67MOL0     H 9242   1.473   3.391   8.080 -0.4276  0.9715 -2.7895
   67MOL0     H 9243   1.322   3.982   8.569  0.7000 -1.0971 -0.2392
   67MOL0     H 9244   1.330   4.152   8.728 -0.2536  0.4071  0.3876
   67MOL0     H 9245   1.444   4.252   8.624 -0.4991  1.3573 -0.9927
   67MOL0     H 9246   1.296   4.321   8.687  0.0390 -0.0549 -0.9196
   68MOL0     O 9247   6.700   5.770   2.451  0.2891 -0.1112  0.0523
   68MOL0     C 9248   6.642   5.663   2.423  0.3877  0.2240 -0.0767
   68MOL0     O 9249   6.702   5.549   2.375  0.0456  0.3787 -0.7724
   68MOL0     C 9250   6.843   5.544   2.394 -0.0374  0.0250  0.9589
   68MOL0     C 9251   6.898   5.429   2.462  0.0838 -0.1386  0.4445
   68MOL0     C 9252   7.039   5.425   2.473 -0.4836 -0.4733 -0.4522
   68MOL0     C 9253   7.126   5.525   2.413 -0.7742 -1.0068  0.3434
   68MOL0     O 9254   7.257   5.519   2.453 -0.0120  0.4920  0.3424
   68MOL0     C 9255   7.353   5.601   2.391 -0.1518  0.1533 -0.1476
   68MOL0     C 9256   7.465   5.518   2.336 -0.2619  0.2170 -0.3287
   68MOL0     C 9257   7.450   5.464   2.186  0.0789 -0.6658 -0.1435
   68MOL0     C 9258   7.315   5.393   2.162 -0.4819 -0.5702 -0.1389
   68MOL0     C 9259   7.337   5.310   2.039 -0.7404 -0.1849 -1.5876
   68MOL0     C 9260   7.209   5.273   1.967 -0.5274  0.4842 -0.1993
   68MOL0     C 9261   7.111   5.187   2.044  1.1500  0.5986  0.5405
   68MOL0     C 9262   7.149   5.038   2.030 -1.2126 -0.5038  0.0788
   68MOL0     N 9263   7.049   4.964   2.105 -0.4781  0.0530 -0.3776
   68MOL0     C 9264   6.915   4.948   2.067 -0.4939  0.5173  0.4772
   68MOL0     C 9265   6.853   4.878   2.170 -1.1945  0.4121  0.2880
   68MOL0     C 9266   6.714   4.828   2.178 -1.0812 -0.3555  0.8959
   68MOL0     C 9267   6.695   4.705   2.268 -0.3100  0.7104 -0.2744
   68MOL0     C 9268   6.568   4.629   2.233  0.1470 -0.1655 -0.4066
   68MOL0     C 9269   6.568   4.507   2.330 -0.3898 -0.1727  0.4470
   68MOL0     O 9270   6.435   4.452   2.327 -0.1942 -0.9780  0.3885
   68MOL0     C 9271   6.367   4.413   2.436  0.8924  0.1721  1.0743
   68MOL0     C 9272   6.247   4.345   2.395 -0.3972 -0.1718 -0.2564
   68MOL0     C 9273   6.171   4.278   2.490 -0.2020  0.3095 -0.6666
   68MOL0     C 9274   6.052   4.199   2.443 -0.5331 -0.2746  1.4535
   68MOL0     C 9275   6.201   4.294   2.630  0.0056  1.0157 -0.1238
   68MOL0     C 9276   6.122   4.238   2.748  0.0177  0.3667  0.3609
   68MOL0     O 9277   6.171   4.256   2.876 -0.6225  0.8024  0.1211
   68MOL0     C 9278   6.087   4.252   2.982 -0.4588  0.6925 -0.8444
   68MOL0     C 9279   5.954   4.279   2.980 -0.5036 -0.2541  0.0615
   68MOL0     C 9280   5.871   4.240   3.086  1.0014 -0.3885  0.5213
   68MOL0     C 9281   5.920   4.187   3.206 -0.8047 -0.2306  1.0148
   68MOL0     O 9282   5.841   4.151   3.315  0.5395  0.9162 -0.2048
   68MOL0     C 9283   5.692   4.130   3.293  0.7754  0.6055  0.2420
   68MOL0     C 9284   5.600   4.137   3.423  1.2904  0.2505 -0.4118
   68MOL0     C 9285   5.663   4.066   3.542  0.1902 -0.5685 -0.1101
   68MOL0     C 9286   5.571   4.088   3.672 -1.4885 -0.3577  0.4104
   68MOL0     C 9287   5.578   3.975   3.774  0.1037  0.6320  0.1375
   68MOL0     C 9288   5.707   3.951   3.840 -0.4760  0.0483  0.1412
   68MOL0     C 9289   5.767   4.062   3.933 -0.2596  0.8221  0.6163
   68MOL0     C 9290   5.680   4.100   4.057  0.0419  0.6739 -0.0599
   68MOL0    Cl 9291   5.629   3.979   4.171 -0.0380 -0.2017 -0.7048
   68MOL0     C 9292   6.057   4.171   3.223 -0.2537  0.2562  0.2592
   68MOL0     C 9293   6.138   4.201   3.108  0.5570 -0.8830 -1.3132
   68MOL0     O 9294   6.011   4.183   2.717  0.4020  0.3530 -1.0750
   68MOL0     C 9295   6.319   4.362   2.659  0.0247 -0.5588 -0.1844
   68MOL0     C 9296   6.404   4.419   2.569  0.1066 -0.2417  0.9386
   68MOL0     N 9297   6.944   4.873   2.272  0.4778 -0.1999 -1.4992
   68MOL0     N 9298   7.061   4.916   2.236  0.6060  0.4256  0.3410
   68MOL0     C 9299   7.068   5.637   2.359  1.3068 -0.0912  0.0788
   68MOL0     C 9300   6.933   5.643   2.340  0.3438  0.5251  1.2578
   68MOL0     C 9301   6.496   5.666   2.435  0.6734 -0.1120  0.0495
   68MOL0     C 9302   6.417   5.637   2.318  0.1929 -0.2370  0.2825
   68MOL0     C 9303   6.276   5.633   2.334 -0.2656 -0.9382 -0.2556
   68MOL0     C 9304   6.208   5.660   2.457  0.1108  0.5702  0.7028
   68MOL0     O 9305   6.071   5.648   2.455 -1.1514 -0.2509 -0.7352
   68MOL0     C 9306   5.992   5.695   2.569  0.9293 -0.3104  0.3863
   68MOL0     C 9307   5.847   5.643   2.532 -1.4997  0.2425 -0.9343
   68MOL0     C 9308   5.763   5.672   2.653 -0.2375 -0.5734  0.1329
   68MOL0     C 9309   5.613   5.646   2.626 -0.3733  0.9977 -0.1176
   68MOL0     C 9310   5.531   5.653   2.747 -0.2834 -0.0083 -0.5043
   68MOL0     C 9311   5.457   5.655   2.841 -0.1380 -0.1963  0.0249
   68MOL0     C 9312   6.284   5.699   2.565 -1.0033 -0.9904  0.3799
   68MOL0     C 9313   6.426   5.706   2.560  0.5847 -0.0407  0.2568
   68MOL0     C 9314   6.498   5.750   2.677  0.0332 -0.2170 -0.8060
   68MOL0     H 9315   6.827   5.359   2.505 -0.7977 -0.3889 -1.3479
   68MOL0     H 9316   7.087   5.355   2.540  0.0505 -0.6706 -1.0283
   68MOL0     H 9317   7.392   5.644   2.484 -0.5295 -0.8464  0.4966
   68MOL0     H 9318   7.322   5.691   2.338 -0.8968 -0.0439 -0.0582
   68MOL0     H 9319   7.562   5.569   2.341 -0.9727  1.4893  0.9735
   68MOL0     H 9320   7.469   5.422   2.388 -1.6392  0.4508  0.2348
   68MOL0     H 9321   7.449   5.547   2.115 -1.7799  1.5083  2.2048
   68MOL0     H 9322   7.528   5.392   2.161  0.4142 -0.1552 -0.5860
   68MOL0     H 9323   7.285   5.314   2.232 -1.1861 -2.7565 -2.7564
   68MOL0     H 9324   7.239   5.471   2.150  0.8991  1.2660  2.1215
   68MOL0     H 9325   7.381   5.216   2.073  1.4730  1.6752  1.1133
   68MOL0     H 9326   7.406   5.353   1.965  2.4343 -2.2738 -0.0783
   68MOL0     H 9327   7.149   5.363   1.949 -0.0225  0.9633  0.4640
   68MOL0     H 9328   7.227   5.215   1.876 -2.7705 -2.7637  1.2506
   68MOL0     H 9329   7.008   5.202   2.009  0.6308  0.3903  1.9046
   68MOL0     H 9330   7.109   5.222   2.147 -2.0053 -0.3362  0.9158
   68MOL0     H 9331   7.157   5.003   1.926 -3.5019  1.4720 -0.8468
   68MOL0     H 9332   7.249   5.028   2.073 -0.6295 -1.7139 -1.4528
   68MOL0     H 9333   6.875   4.964   1.968  2.0879 -1.0433 -0.9312
   68MOL0     H 9334   6.682   4.795   2.079 -0.4561  2.1508 -0.2183
   68MOL0     H 9335   6.660   4.918   2.209  3.0418  1.9777  2.1004
   68MOL0     H 9336   6.777   4.639   2.237  1.2898  2.6126 -0.3532
   68MOL0     H 9337   6.701   4.725   2.375  2.2068  1.7937 -0.5460
   68MOL0     H 9338   6.482   4.694   2.255 -0.8700 -1.7353  0.3762
   68MOL0     H 9339   6.555   4.602   2.127 -1.6875  0.2658 -0.3351
   68MOL0     H 9340   6.635   4.434   2.285  1.7670  1.9675  0.0354
   68MOL0     H 9341   6.599   4.533   2.432  0.9212 -0.5455  0.1540
   68MOL0     H 9342   6.225   4.337   2.289 -2.5027  0.9288  0.0551
   68MOL0     H 9343   6.066   4.179   2.337  0.3720  2.1838  1.0536
   68MOL0     H 9344   5.960   4.254   2.465  1.8240  5.1809 -0.5742
   68MOL0     H 9345   6.061   4.105   2.499 -0.6848  1.4975  4.7549
   68MOL0     H 9346   5.901   4.333   2.903 -3.0066 -0.1369  1.7523
   68MOL0     H 9347   5.766   4.269   3.084  0.5169 -2.0710 -0.1166
   68MOL0     H 9348   5.656   4.193   3.211  0.4387 -1.5576 -1.3744
   68MOL0     H 9349   5.669   4.031   3.253 -3.3864  1.1181  0.8780
   68MOL0     H 9350   5.564   4.238   3.443 -1.4451 -0.5541 -0.8630
   68MOL0     H 9351   5.518   4.072   3.389  2.1231 -1.8429  1.3859
   68MOL0     H 9352   5.756   4.117   3.567 -2.0943  2.0502  4.2203
   68MOL0     H 9353   5.674   3.959   3.519  0.1577 -1.0813  2.1057
   68MOL0     H 9354   5.472   4.103   3.629 -0.0980 -0.6886 -3.3230
   68MOL0     H 9355   5.593   4.181   3.724 -0.2254 -2.0038  3.0520
   68MOL0     H 9356   5.498   3.999   3.845 -0.8533 -0.4976 -0.5082
   68MOL0     H 9357   5.562   3.882   3.717  0.8230  1.4048 -1.3799
   68MOL0     H 9358   5.784   3.934   3.765  0.3280  2.0372  0.4408
   68MOL0     H 9359   5.699   3.862   3.903 -1.1272  0.2432  0.3453
   68MOL0     H 9360   5.786   4.154   3.878 -0.2637  2.3079  2.9655
   68MOL0     H 9361   5.868   4.040   3.970 -0.0615  2.0327  0.8332
   68MOL0     H 9362   5.588   4.135   4.010  0.1546 -0.0569 -0.8425
   68MOL0     H 9363   5.732   4.184   4.104  4.7927 -2.5006  1.0751
   68MOL0     H 9364   6.095   4.131   3.317 -0.1018 -1.9987 -0.6975
   68MOL0     H 9365   6.245   4.183   3.108  0.9024  0.9557 -1.3170
   68MOL0     H 9366   6.349   4.384   2.761  2.2072  1.4928 -1.1588
   68MOL0     H 9367   6.495   4.466   2.603 -0.2897 -0.5072  2.4323
   68MOL0     H 9368   7.127   5.724   2.331  2.9252 -1.1375  0.1110
   68MOL0     H 9369   6.896   5.728   2.283  3.9150  2.1440  1.0991
   68MOL0     H 9370   6.460   5.619   2.220 -2.0080 -1.6119 -0.5022
   68MOL0     H 9371   6.200   5.605   2.262 -1.6377  0.1460  0.7175
   68MOL0     H 9372   6.031   5.649   2.660  0.9689 -3.1012 -0.9286
   68MOL0     H 9373   5.982   5.804   2.578 -0.4846 -0.2584 -1.2614
   68MOL0     H 9374   5.849   5.534   2.516  0.8671 -0.1722  1.4125
   68MOL0     H 9375   5.817   5.698   2.443 -3.0238 -0.2448 -0.7560
   68MOL0     H 9376   5.800   5.600   2.727  1.1389 -0.6959 -0.6280
   68MOL0     H 9377   5.779   5.779   2.668 -0.6204 -0.1262 -2.2068
   68MOL0     H 9378   5.604   5.545   2.585  3.0595 -0.3341  1.9321
   68MOL0     H 9379   5.571   5.708   2.547  1.8625  1.3442 -1.1172
   68MOL0     H 9380   5.397   5.642   2.928 -1.2572 -1.0140 -0.8328
   68MOL0     H 9381   6.242   5.734   2.659 -1.7051 -1.1806  0.1350
   68MOL0     H 9382   6.434   5.785   2.758  1.4363  1.3812 -0.3302
   68MOL0     H 9383   6.559   5.663   2.704 -1.6761 -0.7102  1.7627
   68MOL0     H 9384   6.555   5.837   2.642  0.7632 -1.6853 -3.6359
   69MOL0     O 9385  10.857   8.016   2.552 -0.2324  0.3914 -0.0494
   69MOL0     C 9386  10.936   7.941   2.493 -1.3912  0.3092 -0.9991
   69MOL0     O 9387  10.907   7.866   2.376  0.5864 -0.1935 -0.4716
   69MOL0     C 9388  10.774   7.865   2.339  0.3278  1.5400  1.0145
   69MOL0     C 9389  10.701   7.973   2.310 -0.4589 -0.9897  0.1619
   69MOL0     C 9390  10.560   7.980   2.282  0.0952 -0.7067 -1.2462
   69MOL0     C 9391  10.495   7.857   2.284 -1.1998 -0.7519  0.0502
   69MOL0     O 9392  10.363   7.841   2.267  0.4111 -0.4514  0.4014
   69MOL0     C 9393  10.306   7.908   2.157 -1.2594 -0.0063 -0.0287
   69MOL0     C 9394  10.154   7.872   2.146  0.9667 -0.1257  0.9128
   69MOL0     C 9395  10.074   7.924   2.266 -0.2636  0.9188  0.5302
   69MOL0     C 9396   9.925   7.917   2.263  0.0487  0.1665 -0.3541
   69MOL0     C 9397   9.863   7.780   2.238 -0.6400 -0.0728 -0.5094
   69MOL0     C 9398   9.911   7.659   2.333  0.3477  0.2570  1.0620
   69MOL0     C 9399   9.779   7.602   2.378  0.7240  0.6219 -0.4607
   69MOL0     C 9400   9.811   7.482   2.469 -0.5759 -0.4797  0.4106
   69MOL0     N 9401   9.687   7.444   2.546 -0.4577 -0.3944  0.2012
   69MOL0     C 9402   9.645   7.489   2.665 -0.5283 -0.9343 -0.4513
   69MOL0     C 9403   9.572   7.388   2.706 -0.9708 -0.4305 -0.0617
   69MOL0     C 9404   9.487   7.402   2.827  1.0088  0.4319  0.3231
   69MOL0     C 9405   9.579   7.443   2.946  1.0301 -0.0229  0.6148
   69MOL0     C 9406   9.525   7.407   3.084  0.7771 -0.5856 -0.2297
   69MOL0     C 9407   9.387   7.450   3.127  0.5462 -0.2868 -1.4497
   69MOL0     O 9408   9.369   7.596   3.137  0.0475  0.2719 -0.8165
   69MOL0     C 9409   9.251   7.658   3.161 -0.2023  0.0301 -0.3639
   69MOL0     C 9410   9.128   7.604   3.139 -0.4600 -0.0756 -0.0825
   69MOL0     C 9411   9.013   7.679   3.159  0.6594 -0.4538 -0.8531
   69MOL0     C 9412   8.881   7.612   3.145 -0.5316  1.0743  0.1749
   69MOL0     C 9413   9.020   7.808   3.209 -1.1830  0.9343  0.6207
   69MOL0     C 9414   8.908   7.890   3.246 -0.4226 -0.5531 -0.0095
   69MOL0     O 9415   8.794   7.815   3.312 -0.1405  0.7459  0.0278
   69MOL0     C 9416   8.686   7.889   3.341  0.5288  0.2761 -0.5056
   69MOL0     C 9417   8.615   7.967   3.245  0.3171 -1.4996 -0.2111
   69MOL0     C 9418   8.517   8.068   3.283  0.0775  0.1930  0.0429
   69MOL0     C 9419   8.476   8.077   3.413  0.0153  0.5420 -0.2928
   69MOL0     O 9420   8.385   8.169   3.457 -0.2854 -0.2445 -0.5244
   69MOL0     C 9421   8.296   8.238   3.371 -0.2024 -1.5265 -0.1513
   69MOL0     C 9422   8.233   8.349   3.462  0.1219  0.3095 -0.7204
   69MOL0     C 9423   8.122   8.413   3.391 -0.2553  0.1690 -0.3181
   69MOL0     C 9424   8.085   8.548   3.459 -0.4318  0.6308 -0.7348
   69MOL0     C 9425   7.961   8.602   3.380 -0.1318 -0.1123 -0.4654
   69MOL0     C 9426   7.874   8.690   3.466 -0.6251  0.0355 -0.1207
   69MOL0     C 9427   7.788   8.598   3.553  0.2237  0.1926  0.0785
   69MOL0     C 9428   7.721   8.677   3.668 -0.2911  0.4217 -0.2343
   69MOL0    Cl 9429   7.843   8.750   3.767 -0.1455 -0.0358 -0.2472
   69MOL0     C 9430   8.534   7.990   3.510 -0.3975  0.3850  0.2700
   69MOL0     C 9431   8.637   7.901   3.478 -0.5002  0.4054  0.1743
   69MOL0     O 9432   8.923   8.014   3.248 -0.4637  0.5729 -0.0441
   69MOL0     C 9433   9.149   7.864   3.227 -0.6049  0.3577  0.0752
   69MOL0     C 9434   9.258   7.787   3.199 -0.1659 -0.0437  0.8348
   69MOL0     N 9435   9.559   7.289   2.612  0.4487 -0.1378  0.2145
   69MOL0     N 9436   9.633   7.324   2.513  0.1557 -0.5940  0.1487
   69MOL0     C 9437  10.567   7.745   2.321 -0.6537  0.6222  0.2983
   69MOL0     C 9438  10.709   7.747   2.337 -0.2622 -0.3217 -1.0850
   69MOL0     C 9439  11.077   7.941   2.533  0.0942  0.4502 -0.4483
   69MOL0     C 9440  11.128   8.064   2.578 -0.3923 -0.0451  0.9695
   69MOL0     C 9441  11.257   8.063   2.637 -0.1354  0.5932 -0.1698
   69MOL0     C 9442  11.339   7.949   2.635 -0.1823  0.5120  0.5823
   69MOL0     O 9443  11.462   7.953   2.689  0.4866 -0.2069  0.4587
   69MOL0     C 9444  11.507   8.055   2.774  0.6697 -0.0003 -0.6962
   69MOL0     C 9445  11.645   8.047   2.833  0.2903 -0.2402  0.0353
   69MOL0     C 9446  11.781   8.063   2.743  0.6033 -0.1935 -0.4594
   69MOL0     C 9447  11.915   8.087   2.815 -0.0968  0.1934 -0.9034
   69MOL0     C 9448  11.916   8.213   2.879  0.5956  0.8165 -0.3636
   69MOL0     C 9449  11.921   8.322   2.928 -0.5593 -0.2372  0.3206
   69MOL0     C 9450  11.287   7.835   2.576  0.1692  0.1999 -0.4379
   69MOL0     C 9451  11.157   7.831   2.516  0.5368  0.0916  0.5227
   69MOL0     C 9452  11.107   7.700   2.460  1.0315  0.6449  0.4317
   69MOL0     H 9453  10.755   8.066   2.325 -0.7710 -1.2650  3.9581
   69MOL0     H 9454  10.512   8.076   2.264 -0.0768 -0.4509  0.4295
   69MOL0     H 9455  10.347   7.874   2.061 -0.5240 -2.7136  1.1385
   69MOL0     H 9456  10.321   8.016   2.143  2.4096 -0.7194 -3.7428
   69MOL0     H 9457  10.121   7.906   2.047  0.6018 -1.3693  0.5822
   69MOL0     H 9458  10.137   7.764   2.139  2.7658 -0.3452 -1.2782
   69MOL0     H 9459  10.108   7.881   2.361  2.8461  0.0461 -0.8359
   69MOL0     H 9460  10.093   8.032   2.272 -2.4068  1.2747  1.7811
   69MOL0     H 9461   9.891   7.946   2.363  0.0360 -1.6466  0.2010
   69MOL0     H 9462   9.891   7.991   2.189  1.7016  0.1814 -1.1300
   69MOL0     H 9463   9.893   7.750   2.137 -2.0703  0.9859 -1.2823
   69MOL0     H 9464   9.755   7.793   2.243 -0.3127  2.6283  2.8067
   69MOL0     H 9465   9.968   7.592   2.268 -0.5658 -0.2991  0.8201
   69MOL0     H 9466   9.973   7.698   2.414  0.8010  1.9211 -0.0275
   69MOL0     H 9467   9.728   7.559   2.291  2.1605 -1.6486 -0.2581
   69MOL0     H 9468   9.720   7.678   2.430  2.6050  0.7090  1.7454
   69MOL0     H 9469   9.857   7.403   2.409  2.3408 -1.3958  3.5346
   69MOL0     H 9470   9.888   7.527   2.532 -1.4344  1.7112 -0.0416
   69MOL0     H 9471   9.678   7.583   2.709 -0.7194 -0.8139 -0.5622
   69MOL0     H 9472   9.439   7.306   2.843 -0.9616  1.4829  1.0626
   69MOL0     H 9473   9.405   7.473   2.809  0.8351  0.6590  1.8883
   69MOL0     H 9474   9.667   7.380   2.930  1.2867  0.2608  0.9154
   69MOL0     H 9475   9.595   7.551   2.942 -2.6852  0.6212 -0.5597
   69MOL0     H 9476   9.537   7.299   3.101  2.3604 -0.5893 -1.1660
   69MOL0     H 9477   9.599   7.453   3.150  0.7729  0.4827 -0.9526
   69MOL0     H 9478   9.309   7.409   3.063 -1.6680 -1.2682  1.6514
   69MOL0     H 9479   9.362   7.395   3.219  2.6379 -0.7426 -1.0896
   69MOL0     H 9480   9.127   7.500   3.107  0.1803  0.8539 -3.5235
   69MOL0     H 9481   8.883   7.524   3.079 -0.9905 -0.3209  1.9425
   69MOL0     H 9482   8.804   7.675   3.100 -2.7216 -2.0305 -0.7971
   69MOL0     H 9483   8.865   7.567   3.243 -0.6471 -2.5395 -1.3087
   69MOL0     H 9484   8.650   7.971   3.142  0.6858 -0.5241 -0.0640
   69MOL0     H 9485   8.459   8.123   3.209  2.3286 -0.6499 -2.5229
   69MOL0     H 9486   8.344   8.289   3.287 -0.9855 -0.6174 -0.0557
   69MOL0     H 9487   8.219   8.175   3.325 -1.8745  0.8101 -0.7577
   69MOL0     H 9488   8.196   8.295   3.549 -1.7310  0.8222 -1.1552
   69MOL0     H 9489   8.308   8.426   3.487 -0.3394  0.3922  0.4670
   69MOL0     H 9490   8.035   8.347   3.389 -1.8574  2.0127  2.5397
   69MOL0     H 9491   8.151   8.431   3.287 -1.9804  3.2165 -0.3711
   69MOL0     H 9492   8.173   8.612   3.461  0.3021 -0.3411  1.1411
   69MOL0     H 9493   8.065   8.529   3.565  0.9482 -0.4039 -0.6260
   69MOL0     H 9494   7.996   8.672   3.304 -1.5980  0.1029 -0.9665
   69MOL0     H 9495   7.898   8.526   3.332  1.4732 -1.9173  0.1791
   69MOL0     H 9496   7.814   8.762   3.410  0.2160 -0.4992 -1.7790
   69MOL0     H 9497   7.944   8.746   3.529  2.0886 -1.1393 -1.9033
   69MOL0     H 9498   7.851   8.529   3.610  0.0663  0.2928  0.3762
   69MOL0     H 9499   7.712   8.548   3.494 -0.4225  2.4400 -1.1260
   69MOL0     H 9500   7.657   8.611   3.726  1.4912 -1.7469 -0.6129
   69MOL0     H 9501   7.658   8.758   3.630 -1.3129 -0.9128 -1.4865
   69MOL0     H 9502   8.496   8.005   3.610 -2.4785  0.3673 -0.4753
   69MOL0     H 9503   8.682   7.836   3.552 -0.2435  1.9116  1.3825
   69MOL0     H 9504   9.171   7.961   3.270 -2.2749  0.1746  1.4845
   69MOL0     H 9505   9.352   7.836   3.223 -0.2473 -0.8117  2.9600
   69MOL0     H 9506  10.511   7.654   2.332  1.0179 -0.1289  4.0359
   69MOL0     H 9507  10.776   7.663   2.355 -0.1605 -0.3257 -1.4797
   69MOL0     H 9508  11.073   8.157   2.591 -1.3134 -0.7190  2.0792
   69MOL0     H 9509  11.298   8.155   2.676  3.8266 -0.7434 -0.7113
   69MOL0     H 9510  11.506   8.150   2.721  1.0186  2.1781  2.8619
   69MOL0     H 9511  11.440   8.051   2.861  2.5717 -0.2925  0.8277
   69MOL0     H 9512  11.651   7.945   2.872 -0.7996 -1.3162 -2.3635
   69MOL0     H 9513  11.655   8.121   2.912  0.6179 -1.2215  0.9328
   69MOL0     H 9514  11.782   7.981   2.670  1.7355  0.0356 -0.7085
   69MOL0     H 9515  11.764   8.152   2.681  1.1676  0.7382  0.6866
   69MOL0     H 9516  12.001   8.079   2.748  0.8619 -0.7996  0.3932
   69MOL0     H 9517  11.947   8.003   2.878  3.2312  1.2126 -1.0927
   69MOL0     H 9518  11.938   8.420   2.968 -0.5545  0.6692 -1.7414
   69MOL0     H 9519  11.338   7.740   2.585  0.1462  0.2520  0.3104
   69MOL0     H 9520  11.080   7.713   2.354 -1.0493 -1.7139  0.5656
   69MOL0     H 9521  11.175   7.614   2.462  1.3977  0.9301  0.4113
   69MOL0     H 9522  11.017   7.670   2.515 -0.5644  1.5615 -1.5256
   70MOL0     O 9523   6.420  10.518  11.517 -0.1159 -0.1286  0.0395
   70MOL0     C 9524   6.445  10.619  11.448 -0.5150  0.8666  0.8379
   70MOL0     O 9525   6.389  10.748  11.470  0.0905 -0.6408 -0.3405
   70MOL0     C 9526   6.282  10.754  11.555  0.5542  0.3953  0.6162
   70MOL0     C 9527   6.290  10.769  11.700 -0.7555  1.1044 -1.0729
   70MOL0     C 9528   6.168  10.761  11.771 -0.3535  0.2953 -0.1999
   70MOL0     C 9529   6.039  10.767  11.718  0.5761 -0.4463 -1.4042
   70MOL0     O 9530   5.932  10.777  11.799  1.0353  0.1338  0.2771
   70MOL0     C 9531   5.831  10.863  11.751  0.4343  0.5333 -0.2841
   70MOL0     C 9532   5.759  10.915  11.883  0.5295  0.3543  0.0772
   70MOL0     C 9533   5.687  10.802  11.944  0.3348 -0.3978  1.0357
   70MOL0     C 9534   5.602  10.831  12.071  0.3969  0.1813  0.3413
   70MOL0     C 9535   5.587  10.704  12.161 -0.9579  0.7536  0.8541
   70MOL0     C 9536   5.529  10.735  12.300  0.2503  1.1211 -0.8195
   70MOL0     C 9537   5.494  10.604  12.385  0.4349 -0.0226  0.3782
   70MOL0     C 9538   5.521  10.636  12.539 -0.1570  0.3613  0.8200
   70MOL0     N 9539   5.461  10.526  12.613  0.2046  0.8680  0.6523
   70MOL0     C 9540   5.520  10.402  12.611 -0.1413  0.7958  0.7193
   70MOL0     C 9541   5.420  10.318  12.659 -0.4000 -0.7888 -0.0363
   70MOL0     C 9542   5.427  10.168  12.677  0.4724  0.7097  0.3117
   70MOL0     C 9543   5.463  10.097  12.549  0.1012  0.8643  0.0349
   70MOL0     C 9544   5.552   9.967  12.569  1.2945 -0.0670 -0.3630
   70MOL0     C 9545   5.479   9.874  12.663  0.8757  0.7481 -0.2361
   70MOL0     O 9546   5.556   9.754  12.684 -0.7056 -0.2491  0.7668
   70MOL0     C 9547   5.543   9.678  12.802  0.2560 -0.4158  0.9509
   70MOL0     C 9548   5.420   9.678  12.857  0.7787 -0.0663  1.1578
   70MOL0     C 9549   5.399   9.609  12.974  0.3809  0.6249 -0.1384
   70MOL0     C 9550   5.256   9.620  13.034  0.4767  0.4678  0.9881
   70MOL0     C 9551   5.504   9.533  13.041  1.4842 -0.8603  0.9978
   70MOL0     C 9552   5.499   9.465  13.165 -0.1693 -0.7477 -0.8984
   70MOL0     O 9553   5.597   9.377  13.206 -0.2956 -0.6148  0.4074
   70MOL0     C 9554   5.574   9.322  13.336 -1.0652  0.4881 -0.2612
   70MOL0     C 9555   5.648   9.352  13.445  0.5269  0.9784  0.3781
   70MOL0     C 9556   5.620   9.282  13.560 -0.4292 -0.9520 -0.7250
   70MOL0     C 9557   5.537   9.177  13.571  0.4658  0.6598 -0.5334
   70MOL0     O 9558   5.534   9.122  13.700  0.7200  0.1598  0.5206
   70MOL0     C 9559   5.454   9.008  13.717  0.1260  0.0394 -0.5539
   70MOL0     C 9560   5.491   8.954  13.861  0.5172  0.0163  0.3341
   70MOL0     C 9561   5.379   8.878  13.929 -0.6371  0.2791 -0.0094
   70MOL0     C 9562   5.422   8.804  14.055  0.1273 -0.5245 -0.1334
   70MOL0     C 9563   5.305   8.712  14.107 -0.8810 -0.3308 -0.2964
   70MOL0     C 9564   5.318   8.576  14.051 -0.3336  0.0992 -0.5872
   70MOL0     C 9565   5.187   8.486  14.057  0.8629  0.1685  1.0409
   70MOL0     C 9566   5.198   8.393  14.182  0.7008 -0.5255  0.4181
   70MOL0    Cl 9567   5.302   8.251  14.150  0.3342 -0.5778 -0.5195
   70MOL0     C 9568   5.459   9.142  13.457 -0.9749 -0.2552 -0.8711
   70MOL0     C 9569   5.488   9.212  13.343  0.1729 -0.5058  0.7083
   70MOL0     O 9570   5.403   9.499  13.238  0.6190  0.4347  0.3725
   70MOL0     C 9571   5.631   9.536  12.975 -0.6488 -0.4132  0.2885
   70MOL0     C 9572   5.644   9.599  12.849 -0.5397 -0.7594  0.1351
   70MOL0     N 9573   5.335  10.399  12.734 -0.6733  0.0195 -0.1368
   70MOL0     N 9574   5.360  10.525  12.701 -0.0946 -0.4172 -1.2696
   70MOL0     C 9575   6.041  10.768  11.573  0.1712  0.0003  0.1634
   70MOL0     C 9576   6.157  10.759  11.501  0.5278 -0.1864  0.6505
   70MOL0     C 9577   6.496  10.581  11.317 -0.2431  0.4644 -0.4833
   70MOL0     C 9578   6.498  10.684  11.222  0.5604  0.0728  0.3709
   70MOL0     C 9579   6.543  10.667  11.091  0.3925  0.2150  0.4463
   70MOL0     C 9580   6.573  10.538  11.052  1.1453 -0.2005 -0.1487
   70MOL0     O 9581   6.610  10.546  10.920 -0.4617  0.5627  0.3441
   70MOL0     C 9582   6.623  10.425  10.842  0.2033 -0.1359  0.0237
   70MOL0     C 9583   6.646  10.450  10.686  0.8092 -0.5443 -0.6621
   70MOL0     C 9584   6.749  10.574  10.666  0.1912  0.2865  0.3746
   70MOL0     C 9585   6.884  10.578  10.752  0.8984 -0.3680 -0.5231
   70MOL0     C 9586   6.961  10.463  10.784  0.1026  0.7705  0.3602
   70MOL0     C 9587   7.010  10.359  10.806  0.1098 -0.5187  0.4740
   70MOL0     C 9588   6.582  10.431  11.141 -0.6525  0.0947  0.0625
   70MOL0     C 9589   6.552  10.455  11.274 -0.6399  0.3161 -0.7222
   70MOL0     C 9590   6.567  10.333  11.362  0.5714  0.0827  0.8366
   70MOL0     H 9591   6.378  10.751  11.762 -1.0881  2.8529 -0.0251
   70MOL0     H 9592   6.179  10.750  11.878  1.3391 -2.1213 -0.5251
   70MOL0     H 9593   5.764  10.809  11.685 -0.1493 -0.8899  1.4111
   70MOL0     H 9594   5.863  10.950  11.692 -2.9674 -0.5726 -4.2762
   70MOL0     H 9595   5.833  10.953  11.954  0.1873 -1.0872  1.2360
   70MOL0     H 9596   5.679  10.988  11.868 -2.5334 -1.6854  4.4524
   70MOL0     H 9597   5.615  10.758  11.875 -1.3249 -0.0140  2.4441
   70MOL0     H 9598   5.756  10.723  11.975  1.3206  0.6675  1.6597
   70MOL0     H 9599   5.648  10.906  12.135 -2.1814  0.9552  1.4459
   70MOL0     H 9600   5.504  10.874  12.048  0.0596  0.0504  1.4594
   70MOL0     H 9601   5.690  10.669  12.173 -0.5681  1.4883 -0.2260
   70MOL0     H 9602   5.525  10.634  12.104 -0.0222  0.1297  0.5847
   70MOL0     H 9603   5.597  10.796  12.360  2.5124 -1.8163 -0.1625
   70MOL0     H 9604   5.439  10.796  12.282  0.9110  2.5436  0.4311
   70MOL0     H 9605   5.544  10.513  12.351 -1.2486 -0.7740 -0.1415
   70MOL0     H 9606   5.390  10.579  12.365  0.3496 -0.2147  1.0416
   70MOL0     H 9607   5.628  10.642  12.557  0.0363  0.6162 -0.3527
   70MOL0     H 9608   5.474  10.729  12.574  0.8907  1.3998 -0.4266
   70MOL0     H 9609   5.615  10.367  12.572 -0.2510  0.4244  0.7747
   70MOL0     H 9610   5.343  10.129  12.736 -0.9324  0.4973 -1.7484
   70MOL0     H 9611   5.500  10.151  12.757  0.2665  1.5272  0.6911
   70MOL0     H 9612   5.373  10.074  12.490  1.5034  0.2361 -1.9619
   70MOL0     H 9613   5.516  10.159  12.477 -1.4975  0.2701 -1.7441
   70MOL0     H 9614   5.558   9.923  12.469  0.5815 -0.0278 -0.4341
   70MOL0     H 9615   5.653   9.991  12.602  1.4544 -3.1622  1.7466
   70MOL0     H 9616   5.461   9.928  12.756  0.4472 -1.5664  1.1043
   70MOL0     H 9617   5.385   9.849  12.613  2.1193 -0.7344 -1.9834
   70MOL0     H 9618   5.339   9.731  12.807  2.0474  2.0541  1.2193
   70MOL0     H 9619   5.223   9.528  13.084 -2.5278  1.7956  1.6669
   70MOL0     H 9620   5.185   9.642  12.953  0.3615  0.7848  1.1754
   70MOL0     H 9621   5.249   9.701  13.106 -1.3076  2.0360 -0.8160
   70MOL0     H 9622   5.726   9.424  13.425  0.1498  0.6419 -2.8072
   70MOL0     H 9623   5.669   9.321  13.649 -2.4679 -2.1095  1.0306
   70MOL0     H 9624   5.348   9.028  13.702  0.0331 -1.1904 -1.7000
   70MOL0     H 9625   5.481   8.927  13.649 -1.0131 -2.2150  1.5267
   70MOL0     H 9626   5.572   8.883  13.843  0.3922 -0.1166  0.2966
   70MOL0     H 9627   5.519   9.033  13.930 -3.9989  0.8208  1.5875
   70MOL0     H 9628   5.346   8.799  13.861  0.0039 -1.7781  1.9417
   70MOL0     H 9629   5.283   8.926  13.949 -0.3653  0.5374  0.7025
   70MOL0     H 9630   5.421   8.876  14.138 -0.9740 -0.8501  0.1523
   70MOL0     H 9631   5.519   8.757  14.040 -0.5750 -1.6860 -1.2509
   70MOL0     H 9632   5.305   8.715  14.217  0.6076 -0.8928 -0.2596
   70MOL0     H 9633   5.209   8.751  14.073  0.4064  0.5582 -3.1979
   70MOL0     H 9634   5.401   8.524  14.101 -0.3247 -0.3349 -1.0478
   70MOL0     H 9635   5.337   8.590  13.944 -0.3917  2.4117 -0.3353
   70MOL0     H 9636   5.168   8.428  13.966  0.9841 -0.5705  1.4809
   70MOL0     H 9637   5.093   8.540  14.072  0.3987 -0.9944  2.5670
   70MOL0     H 9638   5.098   8.362  14.214 -0.8962  2.3084 -1.3681
   70MOL0     H 9639   5.255   8.440  14.263  0.6058  0.1957  0.0704
   70MOL0     H 9640   5.388   9.061  13.446 -0.1648 -0.7923 -2.6798
   70MOL0     H 9641   5.418   9.194  13.263 -3.3536  3.0971  2.5951
   70MOL0     H 9642   5.719   9.487  13.016 -2.7137 -5.2795 -0.3335
   70MOL0     H 9643   5.742   9.600  12.802 -0.0353  0.3510  1.1677
   70MOL0     H 9644   5.953  10.752  11.512  1.5221  1.2906 -2.2713
   70MOL0     H 9645   6.141  10.749  11.394  1.3363  0.1256  0.4890
   70MOL0     H 9646   6.477  10.790  11.233  2.6380  1.0329 -3.1735
   70MOL0     H 9647   6.553  10.755  11.029 -2.7096  0.2383 -0.1780
   70MOL0     H 9648   6.711  10.373  10.880 -0.5186 -0.7838  0.8666
   70MOL0     H 9649   6.530  10.369  10.852  0.2808 -0.5304 -1.3036
   70MOL0     H 9650   6.551  10.477  10.640  0.2108 -1.4982 -0.0172
   70MOL0     H 9651   6.682  10.363  10.630  2.5742  2.5352 -4.8760
   70MOL0     H 9652   6.774  10.588  10.560 -1.4657 -0.0869 -0.0898
   70MOL0     H 9653   6.698  10.665  10.699  0.8159  0.4291  0.9619
   70MOL0     H 9654   6.857  10.623  10.848  2.1422 -0.9765  0.1461
   70MOL0     H 9655   6.956  10.645  10.703  0.9823  1.7184  2.1888
   70MOL0     H 9656   7.020  10.256  10.834 -1.3657 -0.4388  1.4353
   70MOL0     H 9657   6.617  10.334  11.107 -1.4720 -1.2250  2.6805
   70MOL0     H 9658   6.629  10.345  11.452  1.3542 -4.3107  1.0825
   70MOL0     H 9659   6.470  10.287  11.378  0.6424 -0.1351  0.6445
   70MOL0     H 9660   6.627  10.264  11.301 -0.4765  0.5521 -0.7714
   71MOL0     O 9661  10.159   7.030   0.572  0.0741  0.0041 -0.3792
   71MOL0     C 9662  10.148   7.152   0.576 -0.2410  0.3986 -0.3296
   71MOL0     O 9663  10.037   7.221   0.551 -0.0149 -0.5581 -0.1900
   71MOL0     C 9664   9.927   7.143   0.515 -0.3812 -0.4000 -0.7968
   71MOL0     C 9665   9.830   7.117   0.608  0.1212  0.4467  0.6068
   71MOL0     C 9666   9.730   7.024   0.587  0.0499  0.0562  0.8602
   71MOL0     C 9667   9.722   6.971   0.461  0.0692 -0.1804  0.3405
   71MOL0     O 9668   9.632   6.868   0.431  0.2776 -0.3974 -0.5551
   71MOL0     C 9669   9.515   6.902   0.363  0.8325 -0.4184  0.5765
   71MOL0     C 9670   9.409   6.846   0.455 -0.4266 -0.1815 -0.0304
   71MOL0     C 9671   9.260   6.859   0.422 -0.7513  0.4354  0.2246
   71MOL0     C 9672   9.226   6.803   0.281 -0.3532  0.6151  0.7935
   71MOL0     C 9673   9.226   6.651   0.275  0.0390 -0.1335 -0.3908
   71MOL0     C 9674   9.164   6.591   0.142  0.3859  0.1597 -1.2775
   71MOL0     C 9675   9.227   6.648   0.010  0.9317  0.7713 -0.1860
   71MOL0     C 9676   9.187   6.550  -0.107  0.0731 -0.1818 -0.6081
   71MOL0     N 9677   9.308   6.498  -0.165 -0.0627  0.0684  0.6516
   71MOL0     C 9678   9.326   6.364  -0.179 -0.8490  0.4715 -0.1407
   71MOL0     C 9679   9.432   6.345  -0.254  0.4131  0.2715  0.5346
   71MOL0     C 9680   9.506   6.212  -0.271 -0.4817 -0.4516  0.0688
   71MOL0     C 9681   9.487   6.151  -0.414 -0.1501  0.3328 -0.8107
   71MOL0     C 9682   9.587   6.043  -0.444 -0.6113 -0.1984 -1.6300
   71MOL0     C 9683   9.586   6.002  -0.590  0.7251  0.8561 -0.0516
   71MOL0     O 9684   9.689   5.900  -0.611 -0.5896  0.5617 -0.0144
   71MOL0     C 9685   9.738   5.878  -0.739  0.2066 -0.0909 -0.3454
   71MOL0     C 9686   9.666   5.904  -0.861  0.0663  0.4096 -0.3606
   71MOL0     C 9687   9.734   5.874  -0.983 -0.1188  0.3181 -0.1141
   71MOL0     C 9688   9.650   5.911  -1.113  0.0916  0.0240  0.0225
   71MOL0     C 9689   9.861   5.791  -0.980  0.3986 -1.1880 -0.1109
   71MOL0     C 9690   9.936   5.760  -1.095  0.0298 -0.3926 -0.1209
   71MOL0     O 9691   9.867   5.732  -1.212  0.0296  0.4626  0.4043
   71MOL0     C 9692   9.935   5.700  -1.331 -0.3965  0.6139  0.5241
   71MOL0     C 9693  10.070   5.703  -1.357  0.3079  0.9928  0.1587
   71MOL0     C 9694  10.117   5.672  -1.488  0.1633 -0.1572 -0.3541
   71MOL0     C 9695  10.033   5.626  -1.586  0.1330  0.5420  0.3236
   71MOL0     O 9696  10.093   5.600  -1.714  0.0889  0.3716  0.1356
   71MOL0     C 9697  10.011   5.523  -1.799 -0.3397  0.5161 -0.8088
   71MOL0     C 9698  10.079   5.489  -1.931 -0.0791 -0.5217  0.0039
   71MOL0     C 9699  10.192   5.381  -1.922 -0.4247  0.1924 -0.0941
   71MOL0     C 9700  10.206   5.284  -2.049  0.0839 -0.3488 -0.2432
   71MOL0     C 9701  10.311   5.180  -2.010  0.7596  0.2222  0.4779
   71MOL0     C 9702  10.442   5.221  -2.061  0.4892 -0.2652  0.2305
   71MOL0     C 9703  10.547   5.113  -2.036  0.8142  0.5211  0.9015
   71MOL0     C 9704  10.670   5.126  -2.122  0.0379  0.1905 -0.0482
   71MOL0    Cl 9705  10.730   5.285  -2.094  0.5708  0.1054  0.1259
   71MOL0     C 9706   9.898   5.611  -1.557 -0.0343 -0.1790  0.4755
   71MOL0     C 9707   9.854   5.658  -1.428 -0.1260 -0.7366 -0.2014
   71MOL0     O 9708  10.058   5.761  -1.078 -0.3381  0.2319 -1.0186
   71MOL0     C 9709   9.908   5.756  -0.850 -1.3739  0.4489  0.1882
   71MOL0     C 9710   9.849   5.795  -0.734  0.1744  0.8682 -0.7720
   71MOL0     N 9711   9.462   6.462  -0.316 -0.1837 -0.4990  0.1870
   71MOL0     N 9712   9.385   6.554  -0.261 -1.0046  0.6216 -0.4095
   71MOL0     C 9713   9.813   7.003   0.352 -0.0282  0.5738 -1.2052
   71MOL0     C 9714   9.914   7.091   0.381  0.5108  0.6804 -0.3090
   71MOL0     C 9715  10.261   7.225   0.633 -0.3204 -0.2100  0.0855
   71MOL0     C 9716  10.250   7.367   0.647 -0.0351  0.4098 -0.1339
   71MOL0     C 9717  10.345   7.448   0.705  0.4784  0.2287  0.2421
   71MOL0     C 9718  10.466   7.388   0.746 -0.7196 -1.0319 -0.6606
   71MOL0     O 9719  10.557   7.478   0.808  0.0615  0.7972  0.6912
   71MOL0     C 9720  10.658   7.425   0.896 -0.0858  0.4730 -0.1726
   71MOL0     C 9721  10.720   7.551   0.965 -0.6748 -0.1735 -0.3374
   71MOL0     C 9722  10.631   7.609   1.082 -0.2420  0.3398 -1.0456
   71MOL0     C 9723  10.487   7.665   1.047  0.0125 -0.7991  0.7302
   71MOL0     C 9724  10.434   7.739   1.165 -0.0403  1.5665 -0.5875
   71MOL0     C 9725  10.401   7.787   1.267 -0.1401 -0.0115 -0.0404
   71MOL0     C 9726  10.482   7.253   0.729 -0.2820 -0.0092  0.0121
   71MOL0     C 9727  10.385   7.170   0.687  0.2117  0.6302  0.7028
   71MOL0     C 9728  10.416   7.023   0.713 -0.2536 -0.0391  0.0323
   71MOL0     H 9729   9.832   7.176   0.699  0.3230  0.8293  0.3564
   71MOL0     H 9730   9.667   6.992   0.669 -1.5663  1.8284  0.3746
   71MOL0     H 9731   9.521   6.838   0.274 -0.3654  0.2334 -0.0030
   71MOL0     H 9732   9.500   7.009   0.347 -0.3724 -0.3849  1.7128
   71MOL0     H 9733   9.434   6.741   0.474  0.9439 -0.4151 -2.7596
   71MOL0     H 9734   9.422   6.888   0.555  0.4297 -2.1851  0.7622
   71MOL0     H 9735   9.208   6.811   0.505  1.3072  2.5816  2.9567
   71MOL0     H 9736   9.218   6.960   0.414  0.2692  0.7030 -3.3159
   71MOL0     H 9737   9.127   6.826   0.241 -0.1360  0.0307 -0.1372
   71MOL0     H 9738   9.287   6.849   0.202 -0.8971  0.2351  0.1334
   71MOL0     H 9739   9.178   6.602   0.361 -0.9113 -0.1764 -0.9288
   71MOL0     H 9740   9.325   6.611   0.297  0.0080 -0.5305 -0.9563
   71MOL0     H 9741   9.186   6.483   0.145  0.9866  0.2357  2.9391
   71MOL0     H 9742   9.057   6.605   0.129  0.2292 -1.0338 -1.4312
   71MOL0     H 9743   9.336   6.659   0.014  0.8945  1.6552 -1.1111
   71MOL0     H 9744   9.169   6.738  -0.012 -1.5251  0.0707  2.8616
   71MOL0     H 9745   9.129   6.465  -0.068 -0.6648  1.1943  1.4381
   71MOL0     H 9746   9.136   6.600  -0.190  0.8451  0.0930 -0.9268
   71MOL0     H 9747   9.269   6.283  -0.135 -0.1721 -0.3784 -0.7872
   71MOL0     H 9748   9.483   6.136  -0.197  1.0337 -0.7161  0.3158
   71MOL0     H 9749   9.612   6.241  -0.275 -0.7683  0.5119 -1.3018
   71MOL0     H 9750   9.384   6.113  -0.418 -0.1990  0.5056 -1.2197
   71MOL0     H 9751   9.498   6.232  -0.486  0.5147  2.5833  1.6736
   71MOL0     H 9752   9.687   6.084  -0.429 -2.2102  3.5101  0.2749
   71MOL0     H 9753   9.565   5.958  -0.378 -2.1441 -0.3723 -2.3234
   71MOL0     H 9754   9.491   5.948  -0.599  2.6990 -2.9162 -0.3175
   71MOL0     H 9755   9.586   6.079  -0.667 -1.0177 -0.7045 -1.6909
   71MOL0     H 9756   9.569   5.953  -0.863 -0.7466 -0.9464  1.8794
   71MOL0     H 9757   9.552   5.957  -1.098  0.5881  2.0475 -2.2688
   71MOL0     H 9758   9.626   5.825  -1.177  0.7732  0.0171 -0.2295
   71MOL0     H 9759   9.703   5.986  -1.173  2.2610 -1.9047 -0.5770
   71MOL0     H 9760  10.144   5.746  -1.289  2.0804 -1.2418 -0.2267
   71MOL0     H 9761  10.221   5.684  -1.516 -0.0552 -0.2735 -1.2228
   71MOL0     H 9762   9.987   5.436  -1.737  3.0273  1.8668  2.7706
   71MOL0     H 9763   9.921   5.578  -1.829 -0.1745 -0.1913 -2.7526
   71MOL0     H 9764  10.002   5.453  -2.000  1.2229 -2.1390 -0.6861
   71MOL0     H 9765  10.125   5.581  -1.969 -2.2126  0.2608 -0.8471
   71MOL0     H 9766  10.172   5.320  -1.833  0.7632 -0.6907 -0.4126
   71MOL0     H 9767  10.294   5.418  -1.906 -0.0573 -1.2697  1.2467
   71MOL0     H 9768  10.238   5.352  -2.128 -0.5938  1.6463  1.1012
   71MOL0     H 9769  10.113   5.241  -2.085  0.5809 -1.6914  0.0282
   71MOL0     H 9770  10.305   5.167  -1.901  1.2193  0.2738  0.5130
   71MOL0     H 9771  10.285   5.082  -2.052  1.2246  0.7081 -0.9995
   71MOL0     H 9772  10.479   5.315  -2.017  0.2769 -0.5525  1.0394
   71MOL0     H 9773  10.447   5.242  -2.168 -2.4615  1.1615  0.2645
   71MOL0     H 9774  10.504   5.015  -2.062 -1.1672  1.9595 -1.7987
   71MOL0     H 9775  10.572   5.098  -1.931 -0.9091  2.1620  1.5843
   71MOL0     H 9776  10.638   5.103  -2.224 -0.2319 -0.8857  0.2621
   71MOL0     H 9777  10.746   5.053  -2.095  1.5524  1.0862 -1.6727
   71MOL0     H 9778   9.821   5.575  -1.625 -0.8548  2.0138  0.1786
   71MOL0     H 9779   9.748   5.684  -1.425  0.1905  1.4190 -3.4857
   71MOL0     H 9780  10.010   5.719  -0.844 -0.2600  2.8926 -1.9493
   71MOL0     H 9781   9.883   5.749  -0.642  0.6797 -1.2103 -1.9143
   71MOL0     H 9782   9.787   6.955   0.258 -1.9965 -3.8883  1.2696
   71MOL0     H 9783   9.987   7.122   0.307  2.1100 -0.5931  0.6453
   71MOL0     H 9784  10.166   7.429   0.617  0.1613  0.9090  0.3229
   71MOL0     H 9785  10.352   7.556   0.714  3.8412 -0.0450  3.1838
   71MOL0     H 9786  10.611   7.357   0.968 -0.3406  1.6030  0.7686
   71MOL0     H 9787  10.732   7.380   0.829  1.4910  0.8325  1.2553
   71MOL0     H 9788  10.720   7.629   0.889 -0.6823 -2.2547 -2.6168
   71MOL0     H 9789  10.820   7.526   1.001  0.6488  1.6399 -2.5428
   71MOL0     H 9790  10.611   7.525   1.149  0.0726  0.0160 -1.3552
   71MOL0     H 9791  10.685   7.687   1.137 -4.1834  0.2733  3.6203
   71MOL0     H 9792  10.429   7.573   1.045  1.1136 -1.5798  2.3105
   71MOL0     H 9793  10.477   7.731   0.960 -1.3762 -1.0775  0.6553
   71MOL0     H 9794  10.375   7.830   1.362 -3.0773  1.5719 -1.3953
   71MOL0     H 9795  10.568   7.199   0.766  1.9305  0.2894 -4.1820
   71MOL0     H 9796  10.378   6.992   0.810  1.3211  3.1497  1.8048
   71MOL0     H 9797  10.368   6.952   0.644 -1.2664 -3.2876  3.7557
   71MOL0     H 9798  10.524   7.013   0.695 -0.1446  1.3522 -0.2407
   72MOL0     O 9799   0.985   6.974   7.385 -0.2880  0.5183  0.7709
   72MOL0     C 9800   0.891   7.015   7.456 -1.2538 -0.6194  0.9718
   72MOL0     O 9801   0.832   7.131   7.435  0.6344  0.6775 -0.7919
   72MOL0     C 9802   0.868   7.196   7.320 -0.8665  0.1163  0.1368
   72MOL0     C 9803   0.972   7.294   7.309  0.7429  0.5701 -0.2380
   72MOL0     C 9804   0.988   7.368   7.194 -0.4056  0.1151 -0.4337
   72MOL0     C 9805   0.921   7.341   7.078 -0.3952  0.6039  0.6409
   72MOL0     O 9806   0.936   7.409   6.958 -0.2605 -0.0952 -0.2234
   72MOL0     C 9807   0.930   7.551   6.979 -0.6689 -0.4610 -0.3686
   72MOL0     C 9808   0.877   7.612   6.848  0.1184 -0.4407 -0.0489
   72MOL0     C 9809   0.857   7.762   6.870 -0.3061  0.4996 -0.1416
   72MOL0     C 9810   0.867   7.840   6.742  0.2418  0.2467  0.6954
   72MOL0     C 9811   0.873   7.988   6.794  0.2641  0.3896 -0.6749
   72MOL0     C 9812   0.874   8.103   6.687 -0.3100 -0.5777 -0.6581
   72MOL0     C 9813   0.891   8.236   6.761  0.4818 -0.2444  0.6094
   72MOL0     C 9814   0.872   8.360   6.660  0.3240  0.2593  0.5830
   72MOL0     N 9815   0.870   8.491   6.738 -0.1554  0.5287  0.5528
   72MOL0     C 9816   0.956   8.600   6.718 -0.2854  0.0819 -0.3075
   72MOL0     C 9817   0.948   8.681   6.823 -0.2751 -0.6102 -0.4794
   72MOL0     C 9818   1.007   8.816   6.828  0.6055  0.2512  0.5222
   72MOL0     C 9819   1.152   8.826   6.785  0.9732 -0.5793  0.2812
   72MOL0     C 9820   1.252   8.794   6.892  1.2911  0.2089 -0.9164
   72MOL0     C 9821   1.249   8.651   6.942  0.1951 -0.2681  0.1190
   72MOL0     O 9822   1.269   8.554   6.838  0.2115 -0.1159  0.1282
   72MOL0     C 9823   1.270   8.419   6.868  0.2033 -0.1692  0.1031
   72MOL0     C 9824   1.269   8.336   6.754  0.2681  0.0790  0.6779
   72MOL0     C 9825   1.281   8.198   6.769  0.8479  0.0689  0.0520
   72MOL0     C 9826   1.296   8.112   6.647  0.9064  0.4245  0.4318
   72MOL0     C 9827   1.278   8.134   6.900 -0.2945  0.2676 -0.1702
   72MOL0     C 9828   1.288   7.988   6.916  0.3333  0.7986 -0.3368
   72MOL0     O 9829   1.351   7.955   7.025 -0.0850 -0.6432 -0.4426
   72MOL0     C 9830   1.374   7.830   7.052  0.6559 -0.0876  0.1577
   72MOL0     C 9831   1.301   7.780   7.154 -0.4259 -0.2574  0.5209
   72MOL0     C 9832   1.288   7.636   7.164  0.0012  0.4355  0.4827
   72MOL0     C 9833   1.374   7.554   7.096  0.7469  0.1181 -0.2209
   72MOL0     O 9834   1.367   7.420   7.127 -0.5020 -0.3076 -0.1392
   72MOL0     C 9835   1.379   7.334   7.017 -0.0601 -0.4122 -0.3433
   72MOL0     C 9836   1.489   7.230   7.044 -0.2098  0.0631 -0.4781
   72MOL0     C 9837   1.481   7.121   6.932  1.2927  0.6909  0.0108
   72MOL0     C 9838   1.567   7.000   6.971  0.0189  0.1271 -0.2494
   72MOL0     C 9839   1.535   6.876   6.889 -0.3940  0.2197 -0.3155
   72MOL0     C 9840   1.580   6.742   6.941 -0.0791 -0.5182  0.8025
   72MOL0     C 9841   1.729   6.737   6.972 -0.1731 -0.5179 -0.3731
   72MOL0     C 9842   1.757   6.613   7.056 -0.1226  0.2575  0.7004
   72MOL0    Cl 9843   1.923   6.628   7.091 -0.3157 -0.5864  0.1620
   72MOL0     C 9844   1.453   7.612   7.000 -0.9415  1.5381  0.2116
   72MOL0     C 9845   1.452   7.751   6.968 -0.2232  1.0127  0.3616
   72MOL0     O 9846   1.207   7.918   6.856 -0.8565 -0.3220  0.5170
   72MOL0     C 9847   1.271   8.221   7.015  0.3184 -0.0734 -0.1647
   72MOL0     C 9848   1.276   8.358   6.991  0.3421  0.2831 -0.5308
   72MOL0     N 9849   0.882   8.610   6.921  1.0553 -0.6200 -0.4055
   72MOL0     N 9850   0.816   8.501   6.863  0.1170 -0.5876 -0.0529
   72MOL0     C 9851   0.837   7.229   7.082  0.2720 -0.4390 -0.2091
   72MOL0     C 9852   0.803   7.168   7.201  0.2778 -0.2051 -0.3902
   72MOL0     C 9853   0.849   6.940   7.580  0.1502 -0.2466  0.3086
   72MOL0     C 9854   0.718   6.956   7.637 -0.2065 -0.9487  1.0206
   72MOL0     C 9855   0.681   6.897   7.756  0.5481  0.1566 -0.6986
   72MOL0     C 9856   0.755   6.811   7.829 -0.8564  0.5111 -0.0217
   72MOL0     O 9857   0.708   6.760   7.949  0.2194 -0.2548 -0.0049
   72MOL0     C 9858   0.734   6.840   8.061 -0.3961 -1.2706 -0.0332
   72MOL0     C 9859   0.643   6.792   8.178  0.2928 -0.4997 -1.1470
   72MOL0     C 9860   0.656   6.885   8.306 -0.0581  0.4510  0.5447
   72MOL0     C 9861   0.657   6.822   8.440 -0.6553  0.8920  1.1041
   72MOL0     C 9862   0.784   6.744   8.455  0.2265  0.0861 -0.3354
   72MOL0     C 9863   0.869   6.664   8.482  0.4788  0.2104  0.1552
   72MOL0     C 9864   0.881   6.796   7.780 -0.7006  0.8220  0.1482
   72MOL0     C 9865   0.928   6.860   7.664 -0.5317  0.5123  0.3895
   72MOL0     C 9866   1.080   6.852   7.629  0.2477  0.8163 -0.9287
   72MOL0     H 9867   1.037   7.309   7.394  2.4156  0.0631 -1.3851
   72MOL0     H 9868   1.062   7.448   7.192 -0.1624 -0.0221  1.4865
   72MOL0     H 9869   1.034   7.580   6.997  0.1346 -0.6995 -3.8448
   72MOL0     H 9870   0.858   7.566   7.059 -1.4669 -3.7217 -0.3420
   72MOL0     H 9871   0.944   7.604   6.762  0.3365 -1.1205  0.1757
   72MOL0     H 9872   0.788   7.555   6.822 -1.1470  1.6849 -0.6264
   72MOL0     H 9873   0.760   7.774   6.920  0.1567 -1.2914  1.3084
   72MOL0     H 9874   0.932   7.803   6.939  0.2703  2.1341 -1.6616
   72MOL0     H 9875   0.966   7.822   6.698  0.3394 -3.9127  2.2019
   72MOL0     H 9876   0.801   7.820   6.657  1.1269  0.5765 -0.0959
   72MOL0     H 9877   0.960   7.992   6.860 -0.5963  3.4103  0.4106
   72MOL0     H 9878   0.796   8.015   6.866  1.0550  0.5825  0.1132
   72MOL0     H 9879   0.951   8.080   6.613 -1.0327  1.3086 -2.0835
   72MOL0     H 9880   0.783   8.104   6.626 -0.9788 -0.5181  0.3166
   72MOL0     H 9881   0.998   8.241   6.784  1.1077 -1.2159 -1.8231
   72MOL0     H 9882   0.816   8.232   6.841 -0.2793 -2.0164 -0.1508
   72MOL0     H 9883   0.962   8.356   6.598  1.0235  0.0207  1.5929
   72MOL0     H 9884   0.779   8.355   6.603 -0.1140 -0.0426  1.3146
   72MOL0     H 9885   1.020   8.605   6.631 -2.4833 -2.6703 -2.2622
   72MOL0     H 9886   1.008   8.863   6.927  2.6367 -0.8664  1.0914
   72MOL0     H 9887   0.951   8.888   6.767 -0.3461 -0.0220  1.0495
   72MOL0     H 9888   1.178   8.775   6.691 -2.1044  0.4016 -1.2261
   72MOL0     H 9889   1.175   8.932   6.771  0.0177 -0.2143  1.4084
   72MOL0     H 9890   1.346   8.817   6.841  2.0884  0.0426  0.4375
   72MOL0     H 9891   1.246   8.870   6.970 -3.1156  1.0935 -1.8017
   72MOL0     H 9892   1.337   8.651   7.007  0.3308  1.2197 -0.0168
   72MOL0     H 9893   1.162   8.634   7.005  1.9744  0.8146  3.0627
   72MOL0     H 9894   1.263   8.388   6.659 -3.1904  3.0010  2.2208
   72MOL0     H 9895   1.377   8.040   6.666  0.5040 -0.2765 -0.4326
   72MOL0     H 9896   1.342   8.149   6.554  4.0690 -1.5489  1.0304
   72MOL0     H 9897   1.206   8.051   6.633  0.3582  1.6790 -2.1716
   72MOL0     H 9898   1.243   7.849   7.214  1.9695 -0.8507  3.7882
   72MOL0     H 9899   1.224   7.601   7.244  0.2414 -1.2006 -0.0112
   72MOL0     H 9900   1.283   7.286   6.994 -1.7643  2.9276 -0.8650
   72MOL0     H 9901   1.411   7.375   6.920  3.8948 -4.0269 -0.8818
   72MOL0     H 9902   1.578   7.293   7.052  0.9920 -1.3518 -1.9972
   72MOL0     H 9903   1.459   7.180   7.136 -2.5297 -0.5191 -1.4776
   72MOL0     H 9904   1.512   7.149   6.832 -3.4063 -0.1038 -1.9245
   72MOL0     H 9905   1.374   7.101   6.933  1.7756 -2.8922 -1.4948
   72MOL0     H 9906   1.532   6.979   7.072 -0.5471 -2.7833 -0.9509
   72MOL0     H 9907   1.673   7.025   6.971  0.0627  0.0652  1.5289
   72MOL0     H 9908   1.427   6.866   6.871 -0.4867 -0.5014  0.6046
   72MOL0     H 9909   1.583   6.884   6.791 -0.3425  1.1128 -0.2288
   72MOL0     H 9910   1.561   6.659   6.871  1.2088  1.3022 -1.8925
   72MOL0     H 9911   1.516   6.728   7.028 -3.2595  0.2087 -1.2730
   72MOL0     H 9912   1.768   6.828   7.019 -3.2942  1.4678 -1.3161
   72MOL0     H 9913   1.777   6.724   6.874  2.6309 -0.0627  0.8368
   72MOL0     H 9914   1.740   6.512   7.017 -0.3587  0.5204  0.0958
   72MOL0     H 9915   1.700   6.623   7.148 -0.3507  0.7082  0.5156
   72MOL0     H 9916   1.520   7.548   6.943  0.1153  2.7979 -0.0184
   72MOL0     H 9917   1.517   7.787   6.889  1.0035 -1.6928  0.0578
   72MOL0     H 9918   1.257   8.195   7.120 -1.8957  1.6537  0.0368
   72MOL0     H 9919   1.271   8.433   7.070 -0.2159  1.1801 -1.3945
   72MOL0     H 9920   0.787   7.192   6.992  0.6710 -2.6117  0.4027
   72MOL0     H 9921   0.724   7.094   7.203  2.4280 -2.6764  0.7125
   72MOL0     H 9922   0.649   7.018   7.581 -1.6898 -1.6680  1.9800
   72MOL0     H 9923   0.574   6.900   7.776  0.7225 -1.3155  0.6228
   72MOL0     H 9924   0.835   6.830   8.102  0.0527 -1.8922 -1.2378
   72MOL0     H 9925   0.705   6.943   8.037 -4.5514 -1.9175  1.4797
   72MOL0     H 9926   0.679   6.692   8.201  1.3774  0.2610  0.6757
   72MOL0     H 9927   0.536   6.787   8.154 -0.3658  2.8830  0.4552
   72MOL0     H 9928   0.752   6.935   8.295  0.1294 -0.3507 -2.2729
   72MOL0     H 9929   0.576   6.959   8.324 -0.3693  0.1493  0.4153
   72MOL0     H 9930   0.575   6.751   8.431  1.2968 -1.2321 -3.6011
   72MOL0     H 9931   0.655   6.897   8.519 -2.8187  0.2827  1.6647
   72MOL0     H 9932   0.937   6.582   8.489 -0.1450 -0.3715 -0.3695
   72MOL0     H 9933   0.939   6.714   7.820  0.0539  1.4066  0.2658
   72MOL0     H 9934   1.146   6.805   7.703  0.5464  0.4853 -1.4018
   72MOL0     H 9935   1.093   6.796   7.536  1.3228  1.6570 -1.3047
   72MOL0     H 9936   1.123   6.951   7.613  0.4286  0.4485 -2.9525
   73MOL0     O 9937   6.246   6.595   8.914 -0.2354  0.4178  0.0463
   73MOL0     C 9938   6.157   6.524   8.868 -0.1846  0.4727 -0.6823
   73MOL0     O 9939   6.140   6.485   8.736  0.4508 -0.1385  1.5015
   73MOL0     C 9940   6.238   6.534   8.659  0.0203 -0.2618  0.1835
   73MOL0     C 9941   6.232   6.663   8.609  0.2897  0.2017 -0.0196
   73MOL0     C 9942   6.350   6.718   8.551 -0.4929 -0.3508  0.2585
   73MOL0     C 9943   6.474   6.648   8.542  0.3902 -0.5335 -0.3007
   73MOL0     O 9944   6.578   6.703   8.464  0.1999  0.6428 -0.4784
   73MOL0     C 9945   6.713   6.655   8.477 -0.2318  0.1150 -0.6178
   73MOL0     C 9946   6.786   6.722   8.591 -0.0427  0.3175 -0.5549
   73MOL0     C 9947   6.909   6.639   8.633  0.1589 -0.4328  0.2101
   73MOL0     C 9948   7.000   6.729   8.722 -0.2353 -0.0689  0.7520
   73MOL0     C 9949   7.113   6.643   8.766 -0.0656  0.3313  0.0420
   73MOL0     C 9950   7.214   6.698   8.869 -0.0175 -0.7986  0.1674
   73MOL0     C 9951   7.305   6.589   8.921 -0.4446 -0.6510  0.7632
   73MOL0     C 9952   7.420   6.536   8.827  1.2107  0.1982  0.4120
   73MOL0     N 9953   7.472   6.403   8.852 -0.3424  0.2543 -0.1956
   73MOL0     C 9954   7.589   6.384   8.916  0.4277  0.5497 -0.3529
   73MOL0     C 9955   7.618   6.251   8.905 -0.3237 -0.6913 -0.6362
   73MOL0     C 9956   7.749   6.188   8.936 -0.3149  0.5537  0.0211
   73MOL0     C 9957   7.790   6.191   9.087 -0.2159  0.2600 -0.9227
   73MOL0     C 9958   7.915   6.103   9.120 -0.3987 -0.8204  0.2598
   73MOL0     C 9959   7.969   6.097   9.252  0.1954  0.5425  0.0048
   73MOL0     O 9960   8.015   6.219   9.318  0.5197 -0.4605  0.0257
   73MOL0     C 9961   8.123   6.209   9.407 -0.3983  0.2243  0.4223
   73MOL0     C 9962   8.177   6.088   9.470  0.9759  0.2461  0.1840
   73MOL0     C 9963   8.296   6.080   9.545  0.8014  0.6369 -0.4382
   73MOL0     C 9964   8.345   5.949   9.590  0.0333  0.6655 -0.8273
   73MOL0     C 9965   8.369   6.199   9.570 -0.9266 -0.2843  0.5373
   73MOL0     C 9966   8.499   6.209   9.654  0.5161 -0.0484  0.4571
   73MOL0     O 9967   8.597   6.297   9.618 -0.0683 -0.1224  0.4839
   73MOL0     C 9968   8.709   6.319   9.691 -0.1601  0.8920 -0.7074
   73MOL0     C 9969   8.793   6.213   9.729 -0.7397  0.6829 -0.4601
   73MOL0     C 9970   8.899   6.242   9.818 -0.0939  0.7181  0.1455
   73MOL0     C 9971   8.928   6.372   9.851 -0.0517 -0.6346  0.1226
   73MOL0     O 9972   9.046   6.419   9.907  0.7788  0.5253  0.2535
   73MOL0     C 9973   9.106   6.330  10.001 -0.4712  0.0155  0.2087
   73MOL0     C 9974   9.196   6.423  10.081  0.5009  0.7591 -0.1313
   73MOL0     C 9975   9.112   6.510  10.190  0.2929 -0.2228 -0.1626
   73MOL0     C 9976   9.174   6.605  10.292 -0.1703 -0.2013 -0.0613
   73MOL0     C 9977   9.069   6.628  10.401  0.0486 -0.5425 -0.8877
   73MOL0     C 9978   9.051   6.521  10.503  0.2709  1.2441 -0.1506
   73MOL0     C 9979   8.974   6.566  10.629  0.4030 -0.1914 -0.6706
   73MOL0     C 9980   9.048   6.687  10.689  0.1739 -0.0455 -0.7571
   73MOL0    Cl 9981   9.225   6.644  10.740 -0.0271 -0.1553 -0.1171
   73MOL0     C 9982   8.841   6.470   9.806  0.6484 -0.9775  0.1846
   73MOL0     C 9983   8.729   6.452   9.735  1.4387  0.2497 -0.1440
   73MOL0     O 9984   8.488   6.132   9.754  0.0797  0.9318  0.1202
   73MOL0     C 9985   8.323   6.317   9.502 -0.8324 -0.5006 -0.4489
   73MOL0     C 9986   8.203   6.322   9.435 -0.8333 -0.1907  0.0006
   73MOL0     N 9987   7.516   6.197   8.822  0.2333  0.1870  0.7263
   73MOL0     N 9988   7.431   6.296   8.786 -0.0335  0.1499  0.2539
   73MOL0     C 9989   6.471   6.518   8.588  0.4134 -0.3420 -0.4123
   73MOL0     C 9990   6.355   6.460   8.639 -0.8347  0.2213 -0.2698
   73MOL0     C 9991   6.047   6.476   8.958 -0.4046 -0.1040  0.3365
   73MOL0     C 9992   6.000   6.341   8.926  0.2386 -0.5777  0.9881
   73MOL0     C 9993   5.920   6.283   9.011  0.4907  0.9955 -0.8179
   73MOL0     C 9994   5.865   6.341   9.123  0.2182 -0.4657  0.5962
   73MOL0     O 9995   5.773   6.265   9.189 -0.2600  0.3131 -0.0489
   73MOL0     C 9996   5.711   6.342   9.292  0.6853  0.4042 -0.0622
   73MOL0     C 9997   5.617   6.247   9.362  0.9033  0.6356 -0.3403
   73MOL0     C 9998   5.520   6.320   9.456  0.0258  0.2659 -0.3683
   73MOL0     C 9999   5.423   6.216   9.510 -0.1931  0.7825  0.6499
   73MOL0     C10000   5.338   6.279   9.610 -0.0114 -0.9468  0.5461
   73MOL0     C10001   5.270   6.312   9.702 -0.8939  0.1751 -0.3152
   73MOL0     C10002   5.909   6.473   9.155  0.8144 -0.0220 -0.9514
   73MOL0     C10003   6.009   6.536   9.082  0.0978 -0.1273 -0.2092
   73MOL0     C10004   6.051   6.673   9.122  0.2026  0.2583 -0.5837
   73MOL0     H10005   6.151   6.733   8.623 -0.3105 -0.1445 -1.5788
   73MOL0     H10006   6.336   6.819   8.514 -0.3512  0.1502  1.5293
   73MOL0     H10007   6.770   6.666   8.384  1.7414  0.4518  0.5714
   73MOL0     H10008   6.714   6.546   8.488  0.8079  0.2594  1.0306
   73MOL0     H10009   6.811   6.819   8.548  0.8525 -0.0101 -0.7807
   73MOL0     H10010   6.724   6.731   8.681  1.0004 -0.3890  0.2618
   73MOL0     H10011   6.873   6.548   8.680 -0.5096  0.5839  1.7376
   73MOL0     H10012   6.951   6.596   8.541 -0.4277 -2.2178  0.7358
   73MOL0     H10013   7.043   6.804   8.655  0.4361 -1.4392 -0.4166
   73MOL0     H10014   6.953   6.779   8.808  0.1205  0.1670  0.8093
   73MOL0     H10015   7.170   6.611   8.679  2.6278  0.7291  1.5434
   73MOL0     H10016   7.063   6.553   8.804 -0.2612 -0.3933 -1.8018
   73MOL0     H10017   7.291   6.762   8.825 -0.3528  0.9641  1.9779
   73MOL0     H10018   7.168   6.757   8.949 -0.2572 -0.5776 -0.1297
   73MOL0     H10019   7.244   6.502   8.948 -0.9273  0.0522  2.0104
   73MOL0     H10020   7.351   6.623   9.014  1.8093 -1.4462  0.0101
   73MOL0     H10021   7.375   6.538   8.727 -0.4304  0.8882  1.1315
   73MOL0     H10022   7.500   6.611   8.829  1.1290  0.2739  0.9785
   73MOL0     H10023   7.642   6.461   8.972  0.0442  0.6346 -0.1061
   73MOL0     H10024   7.825   6.242   8.879  1.0520  0.7804  1.9643
   73MOL0     H10025   7.741   6.091   8.887  0.5171  1.4284 -1.9781
   73MOL0     H10026   7.812   6.291   9.128 -2.6275 -0.2168  1.8556
   73MOL0     H10027   7.703   6.154   9.141  1.3877 -0.2104  1.4821
   73MOL0     H10028   7.884   6.003   9.090 -0.5177 -0.6504 -0.1952
   73MOL0     H10029   7.990   6.149   9.055 -1.6869  2.9029  1.1269
   73MOL0     H10030   7.888   6.060   9.316  1.4641 -1.3071  0.6248
   73MOL0     H10031   8.042   6.016   9.250  0.1310  0.4784  0.2467
   73MOL0     H10032   8.127   5.995   9.446 -1.2590  1.6906 -1.1173
   73MOL0     H10033   8.436   5.916   9.539  0.4362 -0.8059  0.7733
   73MOL0     H10034   8.275   5.866   9.573  1.1526 -0.0501 -2.0997
   73MOL0     H10035   8.362   5.944   9.698  1.4692  2.8531 -0.8860
   73MOL0     H10036   8.775   6.112   9.694 -2.2305  0.7290  0.1012
   73MOL0     H10037   8.973   6.166   9.842  0.0857  0.4255 -1.2874
   73MOL0     H10038   9.035   6.267  10.055 -1.1275 -0.4204 -1.1109
   73MOL0     H10039   9.180   6.269   9.949  0.6601  1.6402 -0.1707
   73MOL0     H10040   9.281   6.375  10.131  2.4052  1.7677 -2.2343
   73MOL0     H10041   9.238   6.502  10.017  0.0202  3.2191  2.3807
   73MOL0     H10042   9.061   6.438  10.254 -2.0759  0.7918 -0.7903
   73MOL0     H10043   9.031   6.562  10.138 -2.0791 -1.6817  1.8687
   73MOL0     H10044   9.188   6.705  10.251 -3.9870  0.9718  1.0248
   73MOL0     H10045   9.265   6.559  10.331 -0.4941 -0.8683 -0.0751
   73MOL0     H10046   9.105   6.722  10.445 -1.1342  0.8233 -2.6678
   73MOL0     H10047   8.970   6.635  10.355 -0.8440 -1.1047  0.8548
   73MOL0     H10048   9.149   6.485  10.535 -0.7826 -2.6233 -0.8421
   73MOL0     H10049   9.007   6.433  10.455  0.9013  1.1850 -0.6458
   73MOL0     H10050   8.958   6.476  10.690 -4.1475 -0.2205 -1.4856
   73MOL0     H10051   8.868   6.592  10.620 -0.6763 -2.3412  3.4203
   73MOL0     H10052   8.995   6.719  10.779 -0.2483  1.6946 -1.5812
   73MOL0     H10053   9.044   6.781  10.632 -0.0617  2.6831  3.3262
   73MOL0     H10054   8.865   6.575   9.820 -3.0396  0.1810 -1.0738
   73MOL0     H10055   8.657   6.531   9.718  1.9895  0.8597  0.3055
   73MOL0     H10056   8.383   6.407   9.503  0.4650 -1.3309 -0.5052
   73MOL0     H10057   8.182   6.416   9.387 -0.9036  0.9136  2.0768
   73MOL0     H10058   6.562   6.459   8.581  0.1907 -0.4772 -3.6530
   73MOL0     H10059   6.362   6.356   8.667  0.5791  0.4400  0.3004
   73MOL0     H10060   6.032   6.285   8.838  0.2811  3.6401 -1.9818
   73MOL0     H10061   5.874   6.188   8.985 -1.3833  0.9854  2.0569
   73MOL0     H10062   5.781   6.365   9.373  0.6730 -1.4569  0.5346
   73MOL0     H10063   5.648   6.426   9.260  3.1940  2.1754 -0.6176
   73MOL0     H10064   5.676   6.171   9.414 -0.2471 -0.0199  0.0441
   73MOL0     H10065   5.557   6.191   9.289  2.0440  0.6262 -1.2984
   73MOL0     H10066   5.571   6.375   9.536 -0.5195 -2.5651  2.1166
   73MOL0     H10067   5.460   6.400   9.411 -3.7426 -2.1156  0.0070
   73MOL0     H10068   5.490   6.143   9.557 -1.3405 -1.0445 -0.4279
   73MOL0     H10069   5.363   6.182   9.425 -0.7229  0.7664  1.0295
   73MOL0     H10070   5.206   6.337   9.784 -1.8579  2.1073 -1.5885
   73MOL0     H10071   5.858   6.523   9.236 -1.5067 -2.6768 -0.5843
   73MOL0     H10072   6.157   6.660   9.147 -0.3569  0.7900  2.3960
   73MOL0     H10073   6.037   6.743   9.040 -0.9775 -0.7654 -1.3018
   73MOL0     H10074   5.996   6.716   9.206  0.1530  0.0994 -0.5328
   74MOL0     O10075   9.247   0.883   6.080 -1.1178 -0.3866  0.4952
   74MOL0     C10076   9.182   0.792   6.119 -0.7912  1.2232 -1.2707
   74MOL0     O10077   9.139   0.790   6.250  0.3632  0.4855  0.7402
   74MOL0     C10078   9.176   0.899   6.323 -0.3987  0.3152 -0.0786
   74MOL0     C10079   9.291   0.907   6.410  0.1958 -1.2637  0.3858
   74MOL0     C10080   9.327   1.024   6.474  0.5554  0.0497  0.9688
   74MOL0     C10081   9.244   1.136   6.469  0.4399  0.6308  0.1240
   74MOL0     O10082   9.276   1.238   6.552 -0.1539 -0.2417 -0.2266
   74MOL0     C10083   9.176   1.329   6.592 -0.3008  0.5673  0.5165
   74MOL0     C10084   9.173   1.452   6.486  0.0783  0.9902 -1.0560
   74MOL0     C10085   9.067   1.566   6.518  0.5475 -0.6209  0.6323
   74MOL0     C10086   9.077   1.611   6.664  0.6649 -0.5691 -1.2355
   74MOL0     C10087   9.000   1.736   6.704 -1.1552 -0.0460 -0.1603
   74MOL0     C10088   8.850   1.715   6.691  0.4481 -2.1106 -0.0168
   74MOL0     C10089   8.776   1.844   6.745  0.6650  0.5470  0.8335
   74MOL0     C10090   8.665   1.886   6.650  0.0547 -0.0517 -0.2299
   74MOL0     N10091   8.544   1.797   6.612 -0.0820 -0.2858  0.6931
   74MOL0     C10092   8.429   1.824   6.544  0.7350  0.7095  0.2756
   74MOL0     C10093   8.347   1.714   6.552 -1.2516  0.0567  0.3001
   74MOL0     C10094   8.217   1.694   6.483  0.6655 -0.0702 -0.7314
   74MOL0     C10095   8.106   1.628   6.565  0.0273 -0.1228  0.8115
   74MOL0     C10096   8.070   1.709   6.688 -0.1313  0.4717 -0.2814
   74MOL0     C10097   7.973   1.624   6.768  0.2508 -1.1102 -0.2470
   74MOL0     O10098   7.905   1.704   6.870 -1.0046 -0.6052  0.2105
   74MOL0     C10099   7.902   1.670   7.004 -0.0095 -0.0838 -0.7683
   74MOL0     C10100   7.955   1.551   7.062  0.6592 -0.2175  0.2753
   74MOL0     C10101   7.949   1.527   7.202 -0.4111  1.3200  1.1279
   74MOL0     C10102   8.020   1.389   7.250 -0.7598 -0.2650 -1.4518
   74MOL0     C10103   7.871   1.607   7.274  0.5390 -0.1770 -1.0577
   74MOL0     C10104   7.811   1.572   7.412 -0.3559  0.2429 -0.3827
   74MOL0     O10105   7.771   1.433   7.437  0.5721 -0.2210  0.7580
   74MOL0     C10106   7.725   1.401   7.566 -0.7689  0.5623 -0.4382
   74MOL0     C10107   7.641   1.479   7.650 -0.4799 -0.4232  0.3002
   74MOL0     C10108   7.594   1.431   7.769 -0.4773 -0.0007  0.7141
   74MOL0     C10109   7.661   1.321   7.829 -0.7841  0.3568  1.3764
   74MOL0     O10110   7.602   1.284   7.947 -0.3740  0.6213 -0.4677
   74MOL0     C10111   7.698   1.251   8.053  0.0470 -0.5711  0.3356
   74MOL0     C10112   7.624   1.223   8.187  0.0618 -0.2575 -0.5442
   74MOL0     C10113   7.719   1.145   8.281 -0.5138 -0.3366 -0.2177
   74MOL0     C10114   7.661   1.076   8.398  0.3226 -0.3064 -0.0118
   74MOL0     C10115   7.774   1.015   8.499  1.3272 -0.0938 -0.1429
   74MOL0     C10116   7.823   0.875   8.454 -0.5366  0.5947 -1.2646
   74MOL0     C10117   7.714   0.766   8.480  0.4308 -0.4058  0.3787
   74MOL0     C10118   7.707   0.661   8.371 -0.4372  0.1727 -0.2832
   74MOL0    Cl10119   7.868   0.566   8.349 -0.1010  0.2160 -0.4547
   74MOL0     C10120   7.757   1.254   7.755 -0.2667 -0.1604  0.5350
   74MOL0     C10121   7.787   1.289   7.627  0.0212  0.4013  0.4429
   74MOL0     O10122   7.798   1.666   7.490 -0.2064  0.0332  0.2435
   74MOL0     C10123   7.818   1.723   7.222  0.9070 -0.3900 -1.2699
   74MOL0     C10124   7.828   1.759   7.088 -0.4158 -0.8532  0.2619
   74MOL0     N10125   8.418   1.624   6.625 -0.5048  0.1385 -0.1948
   74MOL0     N10126   8.527   1.674   6.666 -0.3294 -1.2019  0.4563
   74MOL0     C10127   9.130   1.134   6.384 -0.2334  0.6674  0.2753
   74MOL0     C10128   9.096   1.009   6.318  0.6027  0.0718 -1.1921
   74MOL0     C10129   9.134   0.682   6.030 -0.4692  0.1120  0.6076
   74MOL0     C10130   9.225   0.654   5.926 -0.4196  0.2037  1.4896
   74MOL0     C10131   9.200   0.539   5.840 -0.7879  0.8708 -0.0401
   74MOL0     C10132   9.078   0.468   5.856  0.1659  0.1603  0.4250
   74MOL0     O10133   9.036   0.382   5.761 -0.6086 -0.3251 -0.2825
   74MOL0     C10134   9.034   0.252   5.814  0.0142 -0.1106  0.0314
   74MOL0     C10135   9.167   0.191   5.866  0.0963  0.0217  0.9903
   74MOL0     C10136   9.268   0.170   5.757 -0.5115 -0.1506  0.9268
   74MOL0     C10137   9.380   0.073   5.802 -0.2860  0.1103 -0.1584
   74MOL0     C10138   9.499   0.160   5.829 -0.3131  0.3426 -1.1118
   74MOL0     C10139   9.590   0.241   5.860  0.3947  0.1073  0.0271
   74MOL0     C10140   9.004   0.490   5.970 -0.2828 -0.2908 -0.7356
   74MOL0     C10141   9.024   0.603   6.054  0.3280  1.8759  0.5218
   74MOL0     C10142   8.920   0.636   6.155  0.5798  0.6285  0.4193
   74MOL0     H10143   9.354   0.819   6.415  0.2386 -1.1731  3.2055
   74MOL0     H10144   9.424   1.034   6.522  1.7870 -0.4445 -1.2550
   74MOL0     H10145   9.196   1.353   6.697  3.1523 -1.3837  0.4637
   74MOL0     H10146   9.076   1.286   6.598 -0.1567  0.3841  2.5813
   74MOL0     H10147   9.271   1.500   6.499 -0.4198  1.3196  2.2109
   74MOL0     H10148   9.161   1.409   6.386  2.3292 -1.6135 -0.3415
   74MOL0     H10149   9.080   1.655   6.455  1.7777 -1.7119 -0.7338
   74MOL0     H10150   8.976   1.516   6.484 -1.0620  2.2155  0.4233
   74MOL0     H10151   9.055   1.532   6.736  0.5452 -1.3243 -2.0760
   74MOL0     H10152   9.179   1.643   6.686  0.4951 -2.4665  3.6797
   74MOL0     H10153   9.037   1.817   6.641 -2.5766 -1.4233 -2.9497
   74MOL0     H10154   9.023   1.749   6.810 -0.9610 -0.9331 -0.0845
   74MOL0     H10155   8.827   1.700   6.585  0.9821 -2.0770 -0.1428
   74MOL0     H10156   8.832   1.632   6.760  1.6097 -1.7494  0.7523
   74MOL0     H10157   8.847   1.927   6.755  1.2274  0.5068 -2.0747
   74MOL0     H10158   8.728   1.815   6.839  0.9603 -0.6227  0.6387
   74MOL0     H10159   8.625   1.977   6.696  0.5148  0.9732 -1.7690
   74MOL0     H10160   8.712   1.926   6.560  2.0021  0.7539  1.0650
   74MOL0     H10161   8.402   1.918   6.498  0.2393  2.0914  3.1381
   74MOL0     H10162   8.232   1.627   6.398  1.1313 -1.4051  0.3774
   74MOL0     H10163   8.187   1.797   6.458  0.9473  0.4154  0.8037
   74MOL0     H10164   8.021   1.615   6.497  1.0161 -1.7987 -0.1855
   74MOL0     H10165   8.118   1.524   6.597 -0.8569  0.2401  2.4430
   74MOL0     H10166   8.164   1.719   6.743  1.9497 -2.9590 -2.7812
   74MOL0     H10167   8.026   1.801   6.648 -3.0448 -0.6998 -0.0182
   74MOL0     H10168   7.898   1.579   6.703  1.2051 -3.2201  0.0472
   74MOL0     H10169   8.025   1.537   6.808  3.1518  0.9142  0.7613
   74MOL0     H10170   8.010   1.472   7.013 -1.3854 -1.6693  0.1871
   74MOL0     H10171   8.121   1.384   7.209  1.2575 -1.7217  3.0702
   74MOL0     H10172   7.957   1.307   7.213 -2.4055  1.1708 -1.9434
   74MOL0     H10173   8.022   1.392   7.359 -1.7008  3.2510 -1.4113
   74MOL0     H10174   7.611   1.576   7.610 -0.1713 -0.0864  0.8630
   74MOL0     H10175   7.520   1.486   7.825  1.2035  0.6802  2.3684
   74MOL0     H10176   7.752   1.160   8.027 -0.3594 -0.2204 -1.9149
   74MOL0     H10177   7.773   1.330   8.068 -3.3412  2.7294  1.3528
   74MOL0     H10178   7.574   1.304   8.241 -0.1459 -2.0481  2.1621
   74MOL0     H10179   7.540   1.154   8.173  0.2866 -1.0341  1.4913
   74MOL0     H10180   7.788   1.221   8.319  0.2318 -1.2563  0.3000
   74MOL0     H10181   7.769   1.067   8.222 -0.8336 -1.4474  0.9337
   74MOL0     H10182   7.592   1.002   8.358 -0.3272  0.2854 -0.0044
   74MOL0     H10183   7.608   1.153   8.455 -2.0274 -1.2574 -0.7857
   74MOL0     H10184   7.866   1.075   8.508  0.1796  1.5082  1.4562
   74MOL0     H10185   7.747   1.012   8.604  3.0665  1.1572  0.3935
   74MOL0     H10186   7.906   0.845   8.519  0.0591  1.1157 -1.7653
   74MOL0     H10187   7.848   0.883   8.348  0.1210  0.4263 -1.1304
   74MOL0     H10188   7.610   0.797   8.471  0.5705 -0.4793 -2.3960
   74MOL0     H10189   7.749   0.709   8.566  2.3931  0.1100 -0.0243
   74MOL0     H10190   7.674   0.706   8.277  1.1537 -0.5684 -1.2305
   74MOL0     H10191   7.632   0.586   8.399  0.4602  0.5907  4.0676
   74MOL0     H10192   7.815   1.170   7.793  0.9895  0.9134  1.0480
   74MOL0     H10193   7.850   1.221   7.571 -0.0491 -1.4063  2.4513
   74MOL0     H10194   7.759   1.793   7.280  1.1501 -0.9233 -0.3578
   74MOL0     H10195   7.789   1.858   7.065 -1.4689 -0.0430  4.5560
   74MOL0     H10196   9.071   1.224   6.368 -2.1843 -1.0370 -3.6143
   74MOL0     H10197   9.007   1.006   6.256  0.8272  0.1730 -1.5221
   74MOL0     H10198   9.309   0.720   5.904 -0.1221 -0.1301  1.6185
   74MOL0     H10199   9.267   0.496   5.767  2.5053 -2.6760  4.4498
   74MOL0     H10200   8.959   0.229   5.891  2.8517 -2.2368  2.4171
   74MOL0     H10201   9.001   0.193   5.728 -1.2615  1.2857 -0.4791
   74MOL0     H10202   9.138   0.090   5.896  0.6114 -1.4396 -2.8230
   74MOL0     H10203   9.212   0.242   5.952 -0.1117  1.2269  0.4121
   74MOL0     H10204   9.221   0.115   5.674  1.5200  0.6157 -0.8283
   74MOL0     H10205   9.313   0.260   5.713 -2.5429  0.5624  0.1536
   74MOL0     H10206   9.406  -0.002   5.727  1.3171 -0.3985  0.8453
   74MOL0     H10207   9.340   0.025   5.892 -3.7000  0.0411 -1.5638
   74MOL0     H10208   9.651   0.328   5.876  1.6562 -1.1872  3.0522
   74MOL0     H10209   8.915   0.429   5.985  0.0725 -1.3934 -2.7772
   74MOL0     H10210   8.948   0.613   6.258 -0.7135  0.0353  0.6619
   74MOL0     H10211   8.898   0.743   6.155 -4.7600 -0.1548  3.1695
   74MOL0     H10212   8.827   0.585   6.125  1.2177  0.6402 -1.7256
   75MOL0     O10213   9.417   2.030   5.182 -0.2310  0.2754  0.4946
   75MOL0     C10214   9.300   2.073   5.216 -0.8488  0.4963 -0.0034
   75MOL0     O10215   9.220   2.136   5.141 -0.0644  0.4497  0.0998
   75MOL0     C10216   9.258   2.173   5.012 -0.2556  1.3366 -0.3919
   75MOL0     C10217   9.237   2.308   4.988  0.0437 -0.3227  0.1077
   75MOL0     C10218   9.279   2.364   4.865  0.4073  0.0276 -0.2633
   75MOL0     C10219   9.359   2.291   4.774 -0.3792 -0.6632  0.1914
   75MOL0     O10220   9.405   2.358   4.659  0.5017  0.4070 -0.0013
   75MOL0     C10221   9.497   2.281   4.568  0.2079 -0.9712 -0.4700
   75MOL0     C10222   9.557   2.376   4.458 -0.1158  0.8447 -0.4744
   75MOL0     C10223   9.597   2.294   4.341  0.3940 -0.4814  0.2967
   75MOL0     C10224   9.724   2.207   4.360  0.1023 -0.2020  0.8058
   75MOL0     C10225   9.795   2.171   4.226  0.1416  1.2361 -0.0045
   75MOL0     C10226   9.694   2.114   4.122  0.4933  0.1641  1.2265
   75MOL0     C10227   9.660   1.968   4.149  0.0552  0.5429 -0.0062
   75MOL0     C10228   9.502   1.959   4.151 -0.4901  0.3052 -0.1096
   75MOL0     N10229   9.434   1.983   4.019 -0.2226 -0.7186  0.4955
   75MOL0     C10230   9.396   1.887   3.929  0.5544 -0.0910  0.3847
   75MOL0     C10231   9.356   1.952   3.816 -0.2238 -0.1757  0.0943
   75MOL0     C10232   9.323   1.891   3.681  0.1163 -0.3306 -0.6829
   75MOL0     C10233   9.439   1.886   3.586  0.0554  0.0196  0.2532
   75MOL0     C10234   9.575   1.851   3.658  0.8790 -0.2624 -0.0108
   75MOL0     C10235   9.690   1.865   3.554  0.4940 -0.4404 -0.0321
   75MOL0     O10236   9.680   1.768   3.443 -0.0281  0.1840  0.0371
   75MOL0     C10237   9.750   1.797   3.329  0.7583  0.2077 -0.1318
   75MOL0     C10238   9.863   1.881   3.328 -0.1554 -0.7688 -0.0092
   75MOL0     C10239   9.930   1.902   3.203  0.1059 -0.6011  0.1931
   75MOL0     C10240  10.050   1.995   3.202  0.2467  0.2178  0.3542
   75MOL0     C10241   9.892   1.829   3.088  1.3456  0.4399  0.8516
   75MOL0     C10242   9.971   1.852   2.957 -0.5698  1.1021  0.6391
   75MOL0     O10243   9.968   1.974   2.889 -0.2374  0.4061 -0.2499
   75MOL0     C10244  10.052   1.994   2.782 -0.2092  0.3580  0.0850
   75MOL0     C10245  10.126   2.114   2.792 -1.2429  1.0458 -0.8370
   75MOL0     C10246  10.204   2.150   2.689 -0.6222 -0.8605  0.4466
   75MOL0     C10247  10.227   2.071   2.571  1.1158  0.4316  0.2070
   75MOL0     O10248  10.307   2.082   2.459 -0.2687  0.0510  0.0958
   75MOL0     C10249  10.398   2.189   2.439 -0.4587 -0.0073 -0.0564
   75MOL0     C10250  10.323   2.299   2.360  1.1197 -0.5014 -0.2983
   75MOL0     C10251  10.412   2.419   2.314 -0.0687  0.0491  0.3375
   75MOL0     C10252  10.444   2.505   2.433 -0.0692 -0.1434  0.2054
   75MOL0     C10253  10.564   2.595   2.410 -0.6074 -0.4791 -1.4393
   75MOL0     C10254  10.561   2.713   2.509 -0.0779  0.5313 -0.4901
   75MOL0     C10255  10.634   2.829   2.447 -0.5963  0.3584 -0.5968
   75MOL0     C10256  10.632   2.945   2.554 -0.1090 -0.1852  0.1551
   75MOL0    Cl10257  10.466   3.009   2.578  0.4748  0.3969 -0.0990
   75MOL0     C10258  10.159   1.947   2.569 -0.0359  0.4112  0.4934
   75MOL0     C10259  10.065   1.910   2.670  0.2848  0.1454 -0.3623
   75MOL0     O10260  10.046   1.759   2.932  0.3252 -0.8159 -0.0955
   75MOL0     C10261   9.776   1.750   3.095  0.9710 -0.5758  0.6105
   75MOL0     C10262   9.710   1.733   3.215  0.1406  0.7021 -1.1064
   75MOL0     N10263   9.374   2.084   3.842  0.7798 -1.0757 -1.3243
   75MOL0     N10264   9.415   2.104   3.966  0.4455 -0.0592  0.5842
   75MOL0     C10265   9.371   2.154   4.796  0.3400  0.3306 -0.4741
   75MOL0     C10266   9.321   2.094   4.912  0.5486  0.4965 -0.1827
   75MOL0     C10267   9.253   2.045   5.359 -0.0842 -0.3947 -0.0612
   75MOL0     C10268   9.334   1.964   5.438  0.3793 -1.5599  0.8232
   75MOL0     C10269   9.310   1.927   5.567  0.7108 -0.0893 -0.9562
   75MOL0     C10270   9.197   1.993   5.628  0.4706 -0.5953 -0.3044
   75MOL0     O10271   9.170   1.980   5.759 -1.0286  0.4197 -1.1039
   75MOL0     C10272   9.083   1.874   5.797 -0.1615  0.2758 -0.3735
   75MOL0     C10273   9.142   1.783   5.905  0.4291  0.3997 -0.5321
   75MOL0     C10274   9.272   1.719   5.875 -0.9007 -0.3148 -0.4038
   75MOL0     C10275   9.327   1.631   5.983  0.2056  0.3689 -0.0328
   75MOL0     C10276   9.375   1.708   6.100  0.6345 -0.3574  0.5247
   75MOL0     C10277   9.411   1.782   6.192 -0.0060 -0.3334  0.1293
   75MOL0     C10278   9.120   2.090   5.556  0.3038  0.1720 -0.1969
   75MOL0     C10279   9.144   2.109   5.420  0.5878  0.6847  0.1580
   75MOL0     C10280   9.042   2.205   5.341  0.6092 -0.8712 -0.0591
   75MOL0     H10281   9.198   2.377   5.061 -4.7069  2.6427 -4.5627
   75MOL0     H10282   9.282   2.471   4.852  2.6122 -0.1715 -2.0104
   75MOL0     H10283   9.431   2.205   4.524 -1.4918  0.7934 -1.1277
   75MOL0     H10284   9.581   2.232   4.618  1.8813  0.5446 -1.6762
   75MOL0     H10285   9.480   2.445   4.421 -0.5146  1.0523  0.7182
   75MOL0     H10286   9.637   2.441   4.495 -0.4276  0.3821  1.0943
   75MOL0     H10287   9.507   2.241   4.308 -0.3687  0.4590  0.7764
   75MOL0     H10288   9.607   2.363   4.257  0.4710  1.0267  1.4869
   75MOL0     H10289   9.804   2.254   4.418 -0.1621  0.8895  0.3067
   75MOL0     H10290   9.699   2.113   4.410  0.8882 -2.3489 -2.5593
   75MOL0     H10291   9.866   2.091   4.247 -0.5276  0.9159  1.1078
   75MOL0     H10292   9.848   2.261   4.192  0.7654  1.2692  1.0241
   75MOL0     H10293   9.601   2.171   4.113 -0.6805 -2.0095 -3.7392
   75MOL0     H10294   9.739   2.118   4.023  0.5185 -0.0443  1.2297
   75MOL0     H10295   9.702   1.925   4.240 -0.8491 -1.6713 -0.5617
   75MOL0     H10296   9.699   1.894   4.079  2.5432  1.7458 -0.0176
   75MOL0     H10297   9.472   1.858   4.181  2.9465 -1.4008 -1.9309
   75MOL0     H10298   9.461   2.034   4.220  0.4336  1.7959 -1.1044
   75MOL0     H10299   9.392   1.781   3.955 -1.1598  0.1657  1.3730
   75MOL0     H10300   9.249   1.953   3.629  0.0606  0.8223  0.7064
   75MOL0     H10301   9.268   1.799   3.700 -1.5219  0.2793 -2.1884
   75MOL0     H10302   9.429   1.806   3.512 -0.2560  0.7463 -0.4951
   75MOL0     H10303   9.446   1.979   3.529 -0.5178  0.3482  0.7203
   75MOL0     H10304   9.597   1.923   3.737  1.4556 -1.8616  1.3704
   75MOL0     H10305   9.566   1.749   3.697 -3.6194 -0.8914 -2.0238
   75MOL0     H10306   9.669   1.966   3.516  0.6398  0.8008  2.9260
   75MOL0     H10307   9.791   1.871   3.596 -0.0825  0.4487  1.2918
   75MOL0     H10308   9.900   1.931   3.416  1.6078 -0.6537 -0.7704
   75MOL0     H10309  10.124   1.963   3.128  0.0230  3.0354 -1.2220
   75MOL0     H10310  10.097   2.019   3.298  1.6039 -0.3962 -0.1322
   75MOL0     H10311  10.005   2.091   3.177 -3.1390 -1.2103  0.4068
   75MOL0     H10312  10.098   2.177   2.876 -1.9755 -0.9975  0.5372
   75MOL0     H10313  10.235   2.254   2.692 -1.7538 -0.4614 -0.7704
   75MOL0     H10314  10.429   2.230   2.536  0.1589 -1.7819  0.5303
   75MOL0     H10315  10.492   2.163   2.390 -1.5807  1.4707 -3.2005
   75MOL0     H10316  10.278   2.247   2.275 -0.8928  0.5243  0.0875
   75MOL0     H10317  10.236   2.330   2.419 -0.2037 -0.0496 -2.3619
   75MOL0     H10318  10.374   2.470   2.226 -1.8995 -1.8764 -0.0630
   75MOL0     H10319  10.513   2.386   2.286 -0.9080 -2.7602  0.3659
   75MOL0     H10320  10.475   2.443   2.518  2.5163  1.4867  0.5713
   75MOL0     H10321  10.351   2.556   2.458 -0.1725  0.2725 -0.9508
   75MOL0     H10322  10.659   2.542   2.416 -0.8806 -0.8187  0.7853
   75MOL0     H10323  10.547   2.635   2.309 -0.9320  1.9751 -0.4776
   75MOL0     H10324  10.590   2.682   2.610  1.1344 -1.4353 -1.4093
   75MOL0     H10325  10.460   2.755   2.502  0.2355  1.4234  0.1270
   75MOL0     H10326  10.577   2.856   2.358 -1.5137 -1.2758 -0.5320
   75MOL0     H10327  10.738   2.806   2.423  0.2480  3.3877 -0.3561
   75MOL0     H10328  10.705   3.022   2.530  1.8356 -2.4975 -1.8934
   75MOL0     H10329  10.664   2.899   2.648  3.5944  1.3947 -0.1940
   75MOL0     H10330  10.174   1.892   2.477 -0.3367  0.8464  0.1801
   75MOL0     H10331   9.994   1.830   2.654 -0.3531  0.8251 -0.9572
   75MOL0     H10332   9.739   1.693   3.011 -0.0748  0.7300  0.1597
   75MOL0     H10333   9.634   1.655   3.221  1.0527 -0.2424 -1.6494
   75MOL0     H10334   9.432   2.091   4.732  4.4943  1.9370  1.5807
   75MOL0     H10335   9.345   1.989   4.919  1.1206  0.2454 -3.8385
   75MOL0     H10336   9.421   1.922   5.390  0.6131  2.1895 -2.5229
   75MOL0     H10337   9.388   1.872   5.618 -0.4020  2.2727  3.8475
   75MOL0     H10338   8.990   1.903   5.846 -0.6927 -0.0189 -1.1939
   75MOL0     H10339   9.059   1.811   5.711 -3.9295  0.0676  0.6421
   75MOL0     H10340   9.068   1.708   5.932  0.1505  1.8547  3.5312
   75MOL0     H10341   9.154   1.837   6.000  0.9667 -3.4261  1.7676
   75MOL0     H10342   9.256   1.651   5.790  0.1265 -0.2231 -0.6847
   75MOL0     H10343   9.345   1.793   5.841  1.6117 -2.3444  0.2668
   75MOL0     H10344   9.410   1.572   5.945  1.7558  0.6015  2.7255
   75MOL0     H10345   9.254   1.553   6.005  1.7185 -0.6462  1.7533
   75MOL0     H10346   9.425   1.848   6.276 -1.8313  0.6149 -0.2538
   75MOL0     H10347   9.031   2.141   5.592 -1.4721 -0.5396 -3.2311
   75MOL0     H10348   8.966   2.237   5.412 -0.7548 -2.0341 -0.9350
   75MOL0     H10349   9.082   2.293   5.290  0.7249 -0.5025  0.6578
   75MOL0     H10350   8.998   2.151   5.256  0.5153  1.3613 -1.5215
   76MOL0     O10351   9.031   5.060   3.523 -0.4093 -0.3732 -0.4836
   76MOL0     C10352   9.156   5.063   3.519 -0.8486  0.0545 -0.1011
   76MOL0     O10353   9.247   4.964   3.465 -0.3491 -0.4374  0.1204
   76MOL0     C10354   9.204   4.848   3.401 -0.9053 -0.4549  0.6798
   76MOL0     C10355   9.076   4.785   3.398 -0.1546 -0.1060 -0.3091
   76MOL0     C10356   9.054   4.671   3.329  0.5664  0.8243 -0.8881
   76MOL0     C10357   9.151   4.601   3.257 -0.3510 -0.4239 -1.1157
   76MOL0     O10358   9.133   4.477   3.207  0.6890 -0.2474  0.8670
   76MOL0     C10359   9.011   4.450   3.133 -0.3531 -1.0126  1.2227
   76MOL0     C10360   9.014   4.500   2.984 -0.0446 -0.9962 -0.5795
   76MOL0     C10361   9.055   4.644   2.959 -0.1734 -0.3873 -0.2141
   76MOL0     C10362   9.102   4.663   2.804  0.2398 -0.4608 -0.9805
   76MOL0     C10363   9.200   4.783   2.799 -0.5989  0.1895  0.5480
   76MOL0     C10364   9.217   4.839   2.657 -0.2810 -0.7277  0.1197
   76MOL0     C10365   9.344   4.801   2.586 -0.6723  0.3452  0.1525
   76MOL0     C10366   9.471   4.855   2.650 -0.3204 -0.1989 -0.1130
   76MOL0     N10367   9.533   4.963   2.577  0.5668 -0.1329 -0.7180
   76MOL0     C10368   9.654   4.978   2.515 -0.6178  0.4860 -0.4537
   76MOL0     C10369   9.657   5.094   2.448 -0.5111 -0.2059 -0.2751
   76MOL0     C10370   9.768   5.139   2.364  0.3103 -1.6869 -0.9198
   76MOL0     C10371   9.845   5.256   2.425 -0.5875 -0.4563 -0.9149
   76MOL0     C10372   9.982   5.278   2.370 -0.1455  0.9301 -0.5732
   76MOL0     C10373   9.980   5.298   2.215 -0.1839 -0.3134  0.1795
   76MOL0     O10374  10.071   5.395   2.169  0.6208 -0.0242  0.0247
   76MOL0     C10375  10.049   5.530   2.172 -0.3457  1.4650  0.3183
   76MOL0     C10376  10.160   5.617   2.142 -0.9991  0.0120 -0.6231
   76MOL0     C10377  10.146   5.755   2.138 -0.8537 -1.0398  0.6113
   76MOL0     C10378  10.265   5.848   2.107 -0.2254  0.8402 -0.3475
   76MOL0     C10379  10.023   5.817   2.161 -0.0327 -0.3904  0.7336
   76MOL0     C10380  10.001   5.959   2.188 -0.0354  0.1112  0.0921
   76MOL0     O10381  10.047   6.005   2.309  0.3176  0.2470 -0.3978
   76MOL0     C10382  10.052   6.132   2.342 -0.3761 -1.1390  0.4645
   76MOL0     C10383  10.116   6.219   2.254  0.6815  0.2900 -0.3096
   76MOL0     C10384  10.132   6.352   2.286 -0.2217 -0.1875 -0.0508
   76MOL0     C10385  10.063   6.410   2.397 -0.0919 -0.3522  0.7350
   76MOL0     O10386  10.072   6.548   2.411 -0.0766 -0.2160 -0.6025
   76MOL0     C10387  10.096   6.605   2.537  0.1332  0.0085 -0.3169
   76MOL0     C10388  10.237   6.596   2.581 -0.9491 -0.0528 -0.4944
   76MOL0     C10389  10.265   6.664   2.719  0.6759 -0.9350  0.3850
   76MOL0     C10390  10.412   6.653   2.746  0.7189  0.8948  0.5077
   76MOL0     C10391  10.451   6.696   2.882 -0.1110 -0.7892  0.8578
   76MOL0     C10392  10.512   6.582   2.969 -0.4356 -0.6990  0.6648
   76MOL0     C10393  10.641   6.532   2.899 -0.0916 -0.9009  0.2263
   76MOL0     C10394  10.724   6.429   2.976 -0.5127  0.3659  1.2317
   76MOL0    Cl10395  10.807   6.492   3.123  0.8819  0.1198 -0.2034
   76MOL0     C10396  10.001   6.322   2.480 -0.0342 -0.1065 -0.8168
   76MOL0     C10397   9.997   6.182   2.464  0.1411 -0.0557  0.5238
   76MOL0     O10398   9.942   6.032   2.108 -0.0797 -0.0082  0.3222
   76MOL0     C10399   9.919   5.730   2.187  0.1014  0.4945 -0.9001
   76MOL0     C10400   9.924   5.593   2.184 -1.8927  0.4082  0.0951
   76MOL0     N10401   9.550   5.172   2.482  0.6795  0.3844 -0.8920
   76MOL0     N10402   9.466   5.085   2.551 -0.4108  0.2387  0.9371
   76MOL0     C10403   9.273   4.666   3.259  0.1688  1.7767  0.5262
   76MOL0     C10404   9.300   4.787   3.324  0.1286  0.9111 -0.7614
   76MOL0     C10405   9.221   5.184   3.575  0.0073 -0.0910 -1.0323
   76MOL0     C10406   9.318   5.162   3.670  0.8963  1.2479 -0.7836
   76MOL0     C10407   9.386   5.268   3.721  0.0486 -0.6152 -0.0088
   76MOL0     C10408   9.346   5.398   3.695  0.0330  0.3783  1.0249
   76MOL0     O10409   9.412   5.508   3.743 -0.3684 -0.0597 -0.1218
   76MOL0     C10410   9.497   5.504   3.859 -0.2039 -0.3479 -0.3494
   76MOL0     C10411   9.391   5.485   3.968  0.6959 -0.0108  0.5013
   76MOL0     C10412   9.433   5.517   4.104  0.1104 -0.2796  0.6320
   76MOL0     C10413   9.320   5.525   4.207 -1.1487  0.3756 -0.2539
   76MOL0     C10414   9.226   5.638   4.183  0.4630 -0.0451  0.2131
   76MOL0     C10415   9.153   5.732   4.172  0.3793 -0.5618 -0.3849
   76MOL0     C10416   9.239   5.415   3.612  0.2968 -0.9488 -0.6692
   76MOL0     C10417   9.173   5.313   3.551 -0.7428  0.4615  0.4401
   76MOL0     C10418   9.071   5.352   3.449 -0.3779  0.4802 -0.8870
   76MOL0     H10419   8.996   4.832   3.455  0.4029 -3.4562  3.7280
   76MOL0     H10420   8.956   4.628   3.350  0.7900  0.6499 -0.1584
   76MOL0     H10421   8.921   4.484   3.185 -0.2234 -2.8377  2.7234
   76MOL0     H10422   9.007   4.343   3.112 -1.7748 -0.2637 -3.7728
   76MOL0     H10423   9.079   4.448   2.914  1.2458  2.8862 -2.5825
   76MOL0     H10424   8.909   4.489   2.955 -0.3033  0.3491 -0.2232
   76MOL0     H10425   8.972   4.714   2.971 -1.8814 -2.4736  0.8860
   76MOL0     H10426   9.136   4.676   3.024 -0.6229  0.7899 -0.1971
   76MOL0     H10427   9.144   4.571   2.762  1.3154  0.4719 -1.9938
   76MOL0     H10428   9.019   4.703   2.745  0.1956  0.5969 -0.2390
   76MOL0     H10429   9.294   4.763   2.850 -0.7472  0.4177  0.9161
   76MOL0     H10430   9.153   4.869   2.847  0.3998  2.3538 -2.0822
   76MOL0     H10431   9.131   4.825   2.591 -0.6981  0.5254  0.3717
   76MOL0     H10432   9.238   4.946   2.668 -3.5130  0.0281  0.0236
   76MOL0     H10433   9.351   4.829   2.481  2.9957  0.7694  0.3716
   76MOL0     H10434   9.354   4.692   2.590 -0.6137  0.2321 -1.9420
   76MOL0     H10435   9.445   4.887   2.751 -0.7294 -1.5350  0.2223
   76MOL0     H10436   9.544   4.774   2.650 -0.1934 -0.0877 -0.3771
   76MOL0     H10437   9.735   4.906   2.521 -2.2134 -1.3270  0.3944
   76MOL0     H10438   9.725   5.165   2.267  1.0994  3.2311 -0.1980
   76MOL0     H10439   9.838   5.056   2.348  3.4448  0.8141 -1.2589
   76MOL0     H10440   9.789   5.349   2.416 -2.9458 -1.4679  1.9247
   76MOL0     H10441   9.863   5.237   2.531  3.3139  0.2721 -1.2755
   76MOL0     H10442  10.007   5.374   2.416  2.4205  0.1118 -0.1492
   76MOL0     H10443  10.051   5.200   2.402 -0.0149  0.8703 -0.9913
   76MOL0     H10444  10.024   5.209   2.169  2.8978  0.7671  0.7955
   76MOL0     H10445   9.883   5.331   2.177  1.3015  3.0659 -1.1006
   76MOL0     H10446  10.254   5.567   2.124 -1.8147 -1.2181 -1.6250
   76MOL0     H10447  10.226   5.908   2.025  1.3570 -0.3910 -2.0718
   76MOL0     H10448  10.350   5.788   2.076 -0.2355  0.2336  0.7405
   76MOL0     H10449  10.288   5.904   2.198 -1.0975  1.4813 -0.5124
   76MOL0     H10450  10.145   6.186   2.155  2.4354 -0.6580  0.4837
   76MOL0     H10451  10.185   6.414   2.214  1.4449 -0.6931  0.6914
   76MOL0     H10452  10.052   6.704   2.529 -0.6877 -0.5044 -3.2001
   76MOL0     H10453  10.038   6.554   2.615  1.1044  0.1709  0.5387
   76MOL0     H10454  10.270   6.491   2.577 -1.9444 -0.5737  2.3613
   76MOL0     H10455  10.296   6.649   2.506 -0.5066  1.7618  1.0660
   76MOL0     H10456  10.212   6.606   2.796  0.0571 -1.3979 -0.3769
   76MOL0     H10457  10.242   6.771   2.721 -1.1841 -1.3020  1.9366
   76MOL0     H10458  10.471   6.702   2.669  0.5146 -0.7182 -0.7473
   76MOL0     H10459  10.439   6.548   2.730  3.2491  1.6314 -0.4739
   76MOL0     H10460  10.527   6.774   2.870 -0.4795 -0.2850  1.6583
   76MOL0     H10461  10.366   6.739   2.936 -0.9430 -2.7344  1.1849
   76MOL0     H10462  10.439   6.504   2.990 -2.5686 -0.3760 -4.0753
   76MOL0     H10463  10.547   6.625   3.063  4.0498 -0.8902 -0.6513
   76MOL0     H10464  10.699   6.624   2.888 -2.0295  0.8723  3.5312
   76MOL0     H10465  10.632   6.489   2.798  2.4615 -1.0906 -0.0009
   76MOL0     H10466  10.796   6.390   2.904 -0.3241  3.1412 -0.2407
   76MOL0     H10467  10.652   6.351   3.001 -0.5411  0.4119  1.2913
   76MOL0     H10468   9.957   6.355   2.574  0.8951 -1.2110  0.0381
   76MOL0     H10469   9.946   6.113   2.530 -1.5175 -1.1174 -1.7100
   76MOL0     H10470   9.820   5.774   2.194  0.2953  1.0113 -1.3500
   76MOL0     H10471   9.827   5.547   2.196 -0.9596 -2.0512 -1.1620
   76MOL0     H10472   9.350   4.623   3.196 -1.9946 -1.4452 -0.1254
   76MOL0     H10473   9.392   4.841   3.304 -0.2781  1.2803 -1.6499
   76MOL0     H10474   9.354   5.061   3.687 -1.1798 -0.1146 -3.6846
   76MOL0     H10475   9.468   5.242   3.786  0.6591  1.4169  0.1129
   76MOL0     H10476   9.574   5.426   3.865  0.7390  0.4680 -1.3045
   76MOL0     H10477   9.542   5.601   3.879 -3.0684  1.5339 -2.2633
   76MOL0     H10478   9.366   5.379   3.979  0.3237 -0.0233 -0.3811
   76MOL0     H10479   9.303   5.541   3.935  1.4818  0.6986 -0.4286
   76MOL0     H10480   9.502   5.438   4.134 -0.2404 -0.5593  0.6949
   76MOL0     H10481   9.494   5.608   4.103 -0.8336  0.3652  0.8793
   76MOL0     H10482   9.366   5.534   4.306 -1.4191 -0.7537 -0.0162
   76MOL0     H10483   9.266   5.430   4.213  0.2669 -0.4366  5.4814
   76MOL0     H10484   9.075   5.805   4.174  0.5578 -0.3364  2.2228
   76MOL0     H10485   9.212   5.519   3.592 -1.0077 -1.0662  0.3290
   76MOL0     H10486   9.074   5.279   3.368 -0.3787 -0.3140 -0.1791
   76MOL0     H10487   8.970   5.338   3.490 -0.7448 -0.2782 -2.0172
   76MOL0     H10488   9.081   5.456   3.416 -0.7835  0.6969 -0.3395
   77MOL0     O10489   6.958   9.666  11.486  0.5412  0.2535 -0.1209
   77MOL0     C10490   7.032   9.625  11.402  0.3283 -0.4404 -0.8605
   77MOL0     O10491   7.154   9.672  11.385 -0.7966  0.8592 -0.0620
   77MOL0     C10492   7.213   9.754  11.474 -0.5217  0.4556  0.2820
   77MOL0     C10493   7.333   9.721  11.529 -0.1763  0.7272 -0.4122
   77MOL0     C10494   7.401   9.807  11.610 -0.0318  0.6383 -0.3219
   77MOL0     C10495   7.335   9.919  11.662 -0.2251 -0.0704 -0.1084
   77MOL0     O10496   7.408  10.007  11.744  0.1726 -0.1874 -0.5505
   77MOL0     C10497   7.497  10.098  11.670 -0.2660 -0.7025 -0.4186
   77MOL0     C10498   7.578  10.187  11.768  0.2634  0.4442 -0.1931
   77MOL0     C10499   7.664  10.101  11.865 -0.4732 -0.8115  0.7936
   77MOL0     C10500   7.770  10.183  11.939  0.4500  0.2137 -0.3337
   77MOL0     C10501   7.821  10.147  12.081 -0.5302 -0.2988  0.2383
   77MOL0     C10502   7.892  10.016  12.075  0.6364  0.1036 -0.7708
   77MOL0     C10503   7.953   9.987  12.210  0.4301  0.3189 -1.3945
   77MOL0     C10504   7.908   9.850  12.253  1.0768  0.4171  0.6071
   77MOL0     N10505   8.004   9.783  12.340 -0.9364 -0.9803  0.3433
   77MOL0     C10506   7.977   9.710  12.450 -0.7677 -1.2006 -0.7750
   77MOL0     C10507   8.099   9.660  12.497  0.0940  0.2746 -0.2527
   77MOL0     C10508   8.127   9.584  12.621  1.3855  0.4314  0.3512
   77MOL0     C10509   8.138   9.432  12.589 -0.2794  0.4012 -0.3645
   77MOL0     C10510   8.282   9.382  12.568 -0.7993  0.9700 -0.2799
   77MOL0     C10511   8.281   9.236  12.513 -0.5015 -0.8669 -0.9729
   77MOL0     O10512   8.414   9.185  12.520 -0.0041 -0.5432  0.3166
   77MOL0     C10513   8.448   9.101  12.613 -0.2056  1.0821 -0.3982
   77MOL0     C10514   8.544   9.000  12.597  0.4202 -1.1535  0.5312
   77MOL0     C10515   8.602   8.930  12.703  0.3548 -0.4297 -1.0665
   77MOL0     C10516   8.694   8.826  12.659 -0.3047 -0.3639  1.0589
   77MOL0     C10517   8.551   8.952  12.836 -1.0156 -0.5378  0.4797
   77MOL0     C10518   8.589   8.884  12.961 -0.9805  0.1363  1.4001
   77MOL0     O10519   8.558   8.942  13.083 -0.4042 -0.1896  0.1293
   77MOL0     C10520   8.647   8.917  13.182  0.0692  0.7285 -0.6375
   77MOL0     C10521   8.641   8.785  13.230 -0.4431 -0.0573 -0.1254
   77MOL0     C10522   8.722   8.748  13.343 -0.8623  1.1589  0.0419
   77MOL0     C10523   8.822   8.838  13.393  0.6443 -0.7985 -0.2203
   77MOL0     O10524   8.906   8.792  13.486  0.2902  1.5357  0.7452
   77MOL0     C10525   8.987   8.871  13.568  1.2428  0.4140 -0.5686
   77MOL0     C10526   9.005   8.788  13.698 -0.1655 -0.5622  0.3043
   77MOL0     C10527   9.069   8.656  13.684  0.5089  0.3566 -0.1482
   77MOL0     C10528   9.111   8.606  13.819  0.5150 -0.0271 -0.0787
   77MOL0     C10529   9.158   8.465  13.803 -0.4439  0.6597  0.6573
   77MOL0     C10530   9.144   8.383  13.930  0.1808  0.6581 -0.0943
   77MOL0     C10531   9.258   8.406  14.032  1.0642  0.1806  0.2479
   77MOL0     C10532   9.232   8.316  14.154 -0.6633  0.5239  0.6813
   77MOL0    Cl10533   9.356   8.353  14.285 -0.0324  0.1228  0.0942
   77MOL0     C10534   8.825   8.973  13.345 -0.2026  0.1491 -0.7607
   77MOL0     C10535   8.742   9.012  13.238  0.9403 -0.0715  0.7792
   77MOL0     O10536   8.642   8.772  12.950  0.6375 -0.8426 -0.1594
   77MOL0     C10537   8.462   9.049  12.857 -0.0004  0.8224  1.0037
   77MOL0     C10538   8.404   9.118  12.748  0.3116 -0.3543  0.9637
   77MOL0     N10539   8.188   9.698  12.405 -1.0779 -0.6407 -0.7345
   77MOL0     N10540   8.137   9.764  12.313 -0.6447 -0.0970 -0.1115
   77MOL0     C10541   7.211   9.962  11.607 -0.6114 -0.1799 -0.0445
   77MOL0     C10542   7.147   9.877  11.511  0.4283  0.0023 -0.9042
   77MOL0     C10543   6.982   9.534  11.296  0.3693  0.9473  0.2157
   77MOL0     C10544   6.897   9.434  11.340  0.4178  0.0616 -0.1435
   77MOL0     C10545   6.826   9.356  11.242  0.0889  0.3229  0.0022
   77MOL0     C10546   6.850   9.380  11.104 -0.0932 -0.0415 -0.5411
   77MOL0     O10547   6.784   9.303  11.007  0.4868 -0.4390 -0.1612
   77MOL0     C10548   6.738   9.384  10.896 -0.1800  1.0958 -0.5181
   77MOL0     C10549   6.653   9.287  10.806  0.2160 -0.0405  0.0041
   77MOL0     C10550   6.722   9.163  10.761  0.6519 -0.6481 -0.1405
   77MOL0     C10551   6.841   9.171  10.670 -0.1243  0.3891  0.3895
   77MOL0     C10552   6.830   9.266  10.555  1.4723  0.4217 -0.3000
   77MOL0     C10553   6.815   9.342  10.465 -0.0619 -0.3474 -0.6875
   77MOL0     C10554   6.950   9.478  11.072  0.2395  1.4600  0.1695
   77MOL0     C10555   7.015   9.561  11.159  0.4754 -0.2719  0.3126
   77MOL0     C10556   7.122   9.666  11.105  0.6911 -0.3245  0.3434
   77MOL0     H10557   7.374   9.625  11.501  0.0321 -0.4555  3.3847
   77MOL0     H10558   7.501   9.775  11.641  0.6476  3.2069  0.3770
   77MOL0     H10559   7.441  10.171  11.610  0.5539  1.8428  1.7312
   77MOL0     H10560   7.561  10.048  11.596 -2.7482  1.0309 -4.0484
   77MOL0     H10561   7.635  10.264  11.714 -3.0090  1.0670 -3.1293
   77MOL0     H10562   7.495  10.242  11.813 -1.1806 -2.8389  1.4892
   77MOL0     H10563   7.602  10.044  11.935 -2.0455 -0.2377 -0.0855
   77MOL0     H10564   7.730  10.031  11.813 -1.3526 -1.4301  0.4927
   77MOL0     H10565   7.858  10.195  11.876  4.2529 -0.2957  4.3254
   77MOL0     H10566   7.729  10.284  11.943 -2.1091 -0.7779  0.6471
   77MOL0     H10567   7.748  10.151  12.162 -0.8800 -0.4108 -0.0657
   77MOL0     H10568   7.898  10.222  12.102  1.8770 -2.1151 -1.5659
   77MOL0     H10569   7.825   9.936  12.045  0.6768 -1.5678  3.0501
   77MOL0     H10570   7.970  10.029  11.999  2.8961  0.4585  1.4484
   77MOL0     H10571   7.925  10.060  12.286  3.5979  2.6514 -2.2680
   77MOL0     H10572   8.061   9.993  12.200  0.7683 -1.4329  0.4749
   77MOL0     H10573   7.809   9.854  12.299 -0.4685  2.2623 -2.5735
   77MOL0     H10574   7.891   9.793  12.161 -1.5203 -0.9424  1.8325
   77MOL0     H10575   7.879   9.703  12.496 -1.0854  1.7045 -0.8157
   77MOL0     H10576   8.041   9.614  12.682  0.2598  2.3027 -1.9704
   77MOL0     H10577   8.220   9.622  12.663  1.4028  1.3366 -0.4862
   77MOL0     H10578   8.088   9.374  12.667  1.4361  1.2231  1.4030
   77MOL0     H10579   8.082   9.403  12.499  0.4538 -0.7958 -0.4652
   77MOL0     H10580   8.330   9.449  12.496  1.3784  0.4176  0.6095
   77MOL0     H10581   8.337   9.387  12.662 -2.0675  4.7627  0.4476
   77MOL0     H10582   8.211   9.174  12.570  2.0656 -1.2604  2.0428
   77MOL0     H10583   8.254   9.250  12.408 -1.2626  5.7515 -0.3388
   77MOL0     H10584   8.582   8.998  12.495  1.8922  1.8111  0.9366
   77MOL0     H10585   8.714   8.824  12.552  2.0342 -1.7999  1.4445
   77MOL0     H10586   8.651   8.730  12.689 -4.8683  1.7714  2.2309
   77MOL0     H10587   8.794   8.835  12.703  1.0549 -1.7678 -1.4990
   77MOL0     H10588   8.560   8.727  13.186 -0.8788 -0.3682  1.0545
   77MOL0     H10589   8.696   8.654  13.390  1.4216  1.1158  1.3661
   77MOL0     H10590   9.084   8.872  13.517  1.2055 -0.9111 -0.6816
   77MOL0     H10591   8.960   8.975  13.588 -2.2014 -0.6858  1.4004
   77MOL0     H10592   9.060   8.858  13.761 -0.6405 -2.5774  3.1425
   77MOL0     H10593   8.900   8.775  13.728 -0.2663 -3.2133 -0.9377
   77MOL0     H10594   9.150   8.676  13.613 -1.3554  0.9576 -2.2149
   77MOL0     H10595   8.995   8.587  13.642  0.6706  1.4134 -2.2627
   77MOL0     H10596   9.017   8.609  13.875  0.9163  1.6758  0.5679
   77MOL0     H10597   9.180   8.668  13.877  1.1696 -1.1801  0.4246
   77MOL0     H10598   9.100   8.410  13.729 -1.9673  0.3248  2.0143
   77MOL0     H10599   9.258   8.463  13.759 -0.1475  0.2463  1.3294
   77MOL0     H10600   9.148   8.279  13.897  2.8958  0.6801 -0.0410
   77MOL0     H10601   9.044   8.409  13.968 -0.7001  0.7161 -2.3021
   77MOL0     H10602   9.264   8.505  14.079  0.0600  0.1835  0.3841
   77MOL0     H10603   9.357   8.389  13.988  0.8795 -1.6595  0.4796
   77MOL0     H10604   9.242   8.213  14.117 -1.9106  1.1499 -1.6495
   77MOL0     H10605   9.134   8.335  14.199 -0.6907  0.7231  0.5439
   77MOL0     H10606   8.913   9.031  13.369  0.9456 -1.5573 -0.6103
   77MOL0     H10607   8.737   9.113  13.200 -1.0159 -0.7785 -1.0655
   77MOL0     H10608   8.426   9.072  12.957  0.6027 -2.6632  2.1627
   77MOL0     H10609   8.326   9.189  12.775 -1.3725 -1.0111 -1.8135
   77MOL0     H10610   7.153  10.051  11.629 -4.5680 -2.3776 -0.6978
   77MOL0     H10611   7.049   9.907  11.476 -0.2709  1.5256  2.0082
   77MOL0     H10612   6.885   9.418  11.446  1.6954  3.1301  0.5681
   77MOL0     H10613   6.759   9.273  11.259  0.3130 -0.2623 -1.8102
   77MOL0     H10614   6.680   9.468  10.935 -0.7505  0.3448  0.3087
   77MOL0     H10615   6.819   9.422  10.834  2.0769 -1.5891  0.5517
   77MOL0     H10616   6.622   9.344  10.718  2.0550  1.0859  0.0380
   77MOL0     H10617   6.560   9.260  10.858  0.9516 -1.1757  0.7802
   77MOL0     H10618   6.748   9.098  10.845 -0.3963 -2.1261 -0.8951
   77MOL0     H10619   6.656   9.110  10.691  2.3169  0.6841 -2.8806
   77MOL0     H10620   6.874   9.072  10.635 -1.3349  0.6285 -1.6157
   77MOL0     H10621   6.928   9.209  10.724 -1.5039  0.2178  2.8506
   77MOL0     H10622   6.802   9.411  10.385 -1.5392  1.6294  1.1230
   77MOL0     H10623   6.976   9.487  10.967  1.5190  0.8143  0.4023
   77MOL0     H10624   7.106   9.665  10.996 -3.4726 -2.3123  0.8021
   77MOL0     H10625   7.124   9.767  11.146  5.8295 -1.1050  2.7803
   77MOL0     H10626   7.219   9.618  11.119  1.3936  1.2429  1.0525
   78MOL0     O10627   4.628   6.743   6.123  0.6538 -0.6140  0.7461
   78MOL0     C10628   4.547   6.681   6.047 -0.1992  0.1056 -0.0383
   78MOL0     O10629   4.432   6.726   5.996 -1.3096 -0.1596  0.2442
   78MOL0     C10630   4.385   6.845   6.033 -0.1194 -0.0773 -0.2287
   78MOL0     C10631   4.441   6.973   6.007 -0.5359 -0.4791 -0.0650
   78MOL0     C10632   4.380   7.090   6.035  0.6240 -0.0489 -0.0429
   78MOL0     C10633   4.262   7.080   6.108 -0.1764  0.5377  0.1117
   78MOL0     O10634   4.188   7.187   6.136  0.3748  0.4592  0.1389
   78MOL0     C10635   4.071   7.207   6.047  0.0596  0.7258  0.8059
   78MOL0     C10636   4.081   7.344   5.983  0.3980 -0.2146  0.2757
   78MOL0     C10637   3.959   7.366   5.894  0.6739 -0.2926  1.0160
   78MOL0     C10638   3.974   7.504   5.814 -0.0987 -0.1342  0.7236
   78MOL0     C10639   3.892   7.507   5.683  0.1465 -0.4196  0.1423
   78MOL0     C10640   3.920   7.648   5.629  0.4966 -0.2574  0.8819
   78MOL0     C10641   3.843   7.682   5.499  1.1351  0.1397 -0.1520
   78MOL0     C10642   3.849   7.579   5.384 -0.4526 -0.1182 -0.0001
   78MOL0     N10643   3.789   7.626   5.251  0.0189  0.5163 -0.3116
   78MOL0     C10644   3.828   7.738   5.172 -0.0689  0.3587  0.2677
   78MOL0     C10645   3.757   7.724   5.053  0.0950 -0.0356 -0.1191
   78MOL0     C10646   3.767   7.811   4.938 -0.5125 -0.3932  0.2201
   78MOL0     C10647   3.887   7.774   4.855 -0.8540 -0.3542  0.1552
   78MOL0     C10648   3.894   7.895   4.746 -1.0636 -0.3201  0.5546
   78MOL0     C10649   4.016   7.987   4.788  0.1782  0.4520 -0.1259
   78MOL0     O10650   4.064   8.070   4.685  0.0796 -0.8516 -0.2103
   78MOL0     C10651   4.150   8.177   4.708  0.1623 -0.2313  0.0321
   78MOL0     C10652   4.210   8.200   4.835  0.2226  0.5762  0.9771
   78MOL0     C10653   4.312   8.295   4.846  0.2076 -0.1396  0.2579
   78MOL0     C10654   4.369   8.309   4.984  0.2395 -0.1556 -0.4526
   78MOL0     C10655   4.334   8.390   4.742 -0.8049  0.1368  1.0966
   78MOL0     C10656   4.419   8.508   4.753  0.4970 -0.7936  0.1526
   78MOL0     O10657   4.416   8.587   4.644  0.2869 -0.6918 -0.4844
   78MOL0     C10658   4.473   8.711   4.651 -0.5210 -0.4782 -0.5722
   78MOL0     C10659   4.590   8.733   4.573  1.0431  0.4366 -0.0158
   78MOL0     C10660   4.643   8.860   4.550 -0.3606  0.2223 -0.2331
   78MOL0     C10661   4.580   8.973   4.595  0.4952 -0.7869  0.0153
   78MOL0     O10662   4.641   9.093   4.562  0.1029 -0.1071 -0.4824
   78MOL0     C10663   4.568   9.213   4.595 -0.4216  0.3148  0.0577
   78MOL0     C10664   4.626   9.338   4.521  0.6810  1.3311  0.6082
   78MOL0     C10665   4.544   9.464   4.544  0.3508  0.2229 -0.3892
   78MOL0     C10666   4.570   9.589   4.455 -0.5365  0.1802 -0.3989
   78MOL0     C10667   4.541   9.729   4.514 -1.3514  0.4994 -0.3310
   78MOL0     C10668   4.400   9.750   4.566 -0.7401  0.4314  0.2567
   78MOL0     C10669   4.291   9.783   4.456 -1.0357 -0.0883  0.4321
   78MOL0     C10670   4.160   9.808   4.526  1.1045  0.3449 -0.0254
   78MOL0    Cl10671   4.025   9.773   4.410 -0.4923  0.1248  0.1026
   78MOL0     C10672   4.467   8.956   4.674 -0.2914 -0.2051 -0.6969
   78MOL0     C10673   4.412   8.828   4.703  0.0856  0.4486 -0.6310
   78MOL0     O10674   4.486   8.535   4.853  0.0015  1.1356 -0.0732
   78MOL0     C10675   4.261   8.374   4.618 -0.1106 -0.0066  1.2734
   78MOL0     C10676   4.175   8.260   4.601  0.6232  0.5993  0.1204
   78MOL0     N10677   3.665   7.619   5.082 -0.6295  0.2304 -0.6760
   78MOL0     N10678   3.686   7.564   5.200  0.4770  0.0387 -0.1067
   78MOL0     C10679   4.199   6.961   6.142 -1.1708  0.6880 -0.0572
   78MOL0     C10680   4.260   6.847   6.090 -0.7128 -0.0881 -0.4418
   78MOL0     C10681   4.588   6.548   6.001 -0.0640 -0.0166 -0.5524
   78MOL0     C10682   4.591   6.447   6.103  0.0537 -0.4807  0.8920
   78MOL0     C10683   4.603   6.320   6.067 -0.4371  0.6443  0.6906
   78MOL0     C10684   4.643   6.281   5.937  0.7250  0.4931  0.2144
   78MOL0     O10685   4.660   6.156   5.886  0.9971 -0.2731  0.0627
   78MOL0     C10686   4.545   6.077   5.927 -0.4965  0.2761  0.8439
   78MOL0     C10687   4.512   5.965   5.840  0.3904 -0.0865 -0.4936
   78MOL0     C10688   4.455   6.021   5.707  0.0686 -0.0698 -0.5524
   78MOL0     C10689   4.432   5.915   5.601  0.8668 -0.4522  0.2897
   78MOL0     C10690   4.313   5.821   5.614 -0.4515 -0.0761 -0.8338
   78MOL0     C10691   4.220   5.751   5.653 -0.8085  0.2925 -0.0551
   78MOL0     C10692   4.636   6.377   5.838 -0.9377  0.8867  0.0172
   78MOL0     C10693   4.607   6.511   5.864  0.1792 -0.3516  0.8773
   78MOL0     C10694   4.578   6.607   5.754 -0.5030 -0.6504  0.1895
   78MOL0     H10695   4.539   6.969   5.961 -0.5540  0.9575 -0.2606
   78MOL0     H10696   4.423   7.185   6.005  2.4512 -1.0206 -0.6026
   78MOL0     H10697   3.985   7.208   6.114 -0.6445  0.6285 -0.0857
   78MOL0     H10698   4.069   7.129   5.971  2.1144  0.7136  0.7030
   78MOL0     H10699   4.088   7.415   6.066  1.5979 -0.7834  0.6884
   78MOL0     H10700   4.174   7.352   5.927  1.0026 -0.7022  1.1754
   78MOL0     H10701   3.946   7.284   5.823 -0.2105  1.3267 -0.7925
   78MOL0     H10702   3.869   7.378   5.954  1.4261  1.7907  1.8241
   78MOL0     H10703   3.947   7.584   5.883 -2.5475 -1.3404  1.2543
   78MOL0     H10704   4.077   7.516   5.778 -1.6494  0.1614 -4.4141
   78MOL0     H10705   3.785   7.498   5.704 -0.5165  2.8345 -1.2445
   78MOL0     H10706   3.918   7.419   5.623  2.7343 -1.7679  2.9690
   78MOL0     H10707   3.894   7.722   5.706  0.7971 -1.8465  2.5641
   78MOL0     H10708   4.027   7.652   5.606 -0.0458 -3.1280 -3.0167
   78MOL0     H10709   3.890   7.773   5.462  2.2892 -0.0187  0.8482
   78MOL0     H10710   3.736   7.693   5.523  1.0594 -2.1911  0.8759
   78MOL0     H10711   3.954   7.555   5.364  0.0779  0.1932  2.1040
   78MOL0     H10712   3.794   7.486   5.398  0.6460 -0.8087 -0.1324
   78MOL0     H10713   3.898   7.817   5.199 -1.3992  1.4808  0.5328
   78MOL0     H10714   3.779   7.910   4.982  3.9309  0.2392 -1.8881
   78MOL0     H10715   3.676   7.788   4.881 -0.0529 -1.6291 -0.0661
   78MOL0     H10716   3.980   7.755   4.909 -0.6029 -2.4578 -0.9095
   78MOL0     H10717   3.858   7.679   4.811 -3.2664  0.0572  0.7018
   78MOL0     H10718   3.912   7.862   4.644  3.1798  3.6798 -0.3599
   78MOL0     H10719   3.800   7.950   4.747 -1.0952 -0.2863 -1.4967
   78MOL0     H10720   3.978   8.038   4.878 -2.8682  0.3414 -1.2219
   78MOL0     H10721   4.103   7.929   4.820  1.0025  2.0021  0.5425
   78MOL0     H10722   4.178   8.135   4.915  1.1486 -0.7697  0.2900
   78MOL0     H10723   4.322   8.227   5.039 -1.4092  1.8317  1.2799
   78MOL0     H10724   4.332   8.403   5.027 -1.6244 -0.4901 -1.2522
   78MOL0     H10725   4.477   8.308   4.969  0.1381  3.5388 -2.4941
   78MOL0     H10726   4.636   8.641   4.540  0.9560 -0.6659  2.6919
   78MOL0     H10727   4.732   8.861   4.489 -0.5217 -1.8036 -0.5945
   78MOL0     H10728   4.460   9.207   4.584 -1.1249 -1.6164  5.2511
   78MOL0     H10729   4.581   9.228   4.703  1.3208  1.6536 -0.2843
   78MOL0     H10730   4.722   9.367   4.563  1.1455 -0.5807  0.9546
   78MOL0     H10731   4.637   9.319   4.413 -2.1819  1.9312  0.1168
   78MOL0     H10732   4.550   9.486   4.651 -0.4446  3.2927 -0.8962
   78MOL0     H10733   4.440   9.440   4.524  0.0480  2.6423 -2.0299
   78MOL0     H10734   4.511   9.582   4.363  0.1115 -0.9932 -0.7479
   78MOL0     H10735   4.678   9.580   4.437 -0.7842  1.5865 -2.9863
   78MOL0     H10736   4.615   9.749   4.591 -1.1426 -3.5168  0.7460
   78MOL0     H10737   4.565   9.800   4.434  1.1157 -0.3191 -0.4083
   78MOL0     H10738   4.405   9.833   4.637  2.6852  1.1084 -0.5572
   78MOL0     H10739   4.358   9.663   4.616  0.6818 -0.2137  0.3765
   78MOL0     H10740   4.292   9.694   4.393 -1.4497 -0.9656  1.6223
   78MOL0     H10741   4.313   9.879   4.408  2.9769 -0.0972  1.8287
   78MOL0     H10742   4.158   9.909   4.566 -2.0313 -0.6092  2.6633
   78MOL0     H10743   4.144   9.747   4.616  2.3456  0.1955  0.1139
   78MOL0     H10744   4.413   9.043   4.710  0.7845 -0.5549  1.9715
   78MOL0     H10745   4.322   8.828   4.764  0.2953 -0.5987 -0.3066
   78MOL0     H10746   4.268   8.447   4.539  0.6600  0.7812  2.0429
   78MOL0     H10747   4.105   8.247   4.519 -3.1138 -1.0156  3.2021
   78MOL0     H10748   4.103   6.944   6.190 -3.3118  0.0526 -4.1174
   78MOL0     H10749   4.213   6.750   6.094  0.6396 -0.7781 -0.6775
   78MOL0     H10750   4.564   6.471   6.206 -3.0890  1.5615 -0.2765
   78MOL0     H10751   4.589   6.240   6.140 -5.0458  0.1340 -0.4673
   78MOL0     H10752   4.567   6.030   6.024  1.9898  0.0689  0.2456
   78MOL0     H10753   4.456   6.138   5.943 -0.1708  1.3703 -1.1892
   78MOL0     H10754   4.440   5.909   5.899 -0.6952  0.4690 -1.2548
   78MOL0     H10755   4.603   5.907   5.821  1.9715  1.3070  2.1802
   78MOL0     H10756   4.362   6.069   5.738  1.3226  1.2669  1.4386
   78MOL0     H10757   4.521   6.090   5.654  1.9416 -1.0040  0.4478
   78MOL0     H10758   4.532   5.870   5.598  0.7550 -0.6661 -0.3918
   78MOL0     H10759   4.420   5.976   5.511 -2.1306  2.9432  2.6785
   78MOL0     H10760   4.151   5.682   5.697  0.0425 -0.4749  0.1210
   78MOL0     H10761   4.648   6.339   5.737  2.2657 -3.3503  1.6977
   78MOL0     H10762   4.617   6.706   5.782 -0.4820 -1.1275  1.9552
   78MOL0     H10763   4.633   6.600   5.660 -0.9077 -2.1339  0.0495
   78MOL0     H10764   4.472   6.619   5.733 -0.3536 -1.9079 -1.5209
   79MOL0     O10765   3.680   9.237   3.352  0.6325  0.2529  0.6120
   79MOL0     C10766   3.733   9.272   3.462 -0.7759 -0.3552  0.1969
   79MOL0     O10767   3.671   9.306   3.578  0.7610 -0.2786 -0.0554
   79MOL0     C10768   3.532   9.308   3.584  0.0131 -0.8805  0.1543
   79MOL0     C10769   3.452   9.207   3.534 -0.7699  0.0555  0.5961
   79MOL0     C10770   3.315   9.203   3.558 -1.4986  0.2369 -0.2665
   79MOL0     C10771   3.249   9.303   3.623 -1.1632 -1.5290  0.3320
   79MOL0     O10772   3.114   9.307   3.640 -0.5212  0.0792  0.2152
   79MOL0     C10773   3.039   9.325   3.526 -0.5294 -0.0487  0.8065
   79MOL0     C10774   2.911   9.238   3.507 -0.2161  0.3447  0.2529
   79MOL0     C10775   2.801   9.245   3.616 -0.2285 -0.5780  0.5010
   79MOL0     C10776   2.759   9.396   3.633  0.0494  0.4528 -0.1422
   79MOL0     C10777   2.632   9.397   3.727 -0.2598 -0.8063  0.3940
   79MOL0     C10778   2.572   9.530   3.757  0.1941 -1.4004  1.0617
   79MOL0     C10779   2.656   9.633   3.846 -0.6645  0.5638  0.3559
   79MOL0     C10780   2.653   9.599   3.999 -0.1278  0.0966  0.8638
   79MOL0     N10781   2.699   9.705   4.083  0.3748  0.1823 -0.3658
   79MOL0     C10782   2.806   9.787   4.050 -0.4494  0.2606 -0.7672
   79MOL0     C10783   2.804   9.881   4.151 -0.6894  0.5292  1.0859
   79MOL0     C10784   2.890  10.010   4.144  0.1399 -0.6953  0.4275
   79MOL0     C10785   2.809  10.125   4.089 -0.3377 -0.2913 -0.2049
   79MOL0     C10786   2.899  10.257   4.111  0.0333 -0.0310  0.3209
   79MOL0     C10787   2.834  10.378   4.046 -0.1432 -0.6214  0.2082
   79MOL0     O10788   2.847  10.357   3.906 -0.2082  0.2129  0.9658
   79MOL0     C10789   2.785  10.433   3.816  0.3913 -0.3707  0.4838
   79MOL0     C10790   2.722  10.553   3.858  1.7694  0.2582  0.2871
   79MOL0     C10791   2.638  10.632   3.765  0.3722  0.3420  0.5866
   79MOL0     C10792   2.580  10.755   3.827 -0.4041 -0.9124 -0.0925
   79MOL0     C10793   2.625  10.583   3.633  1.2038  0.0261 -0.7022
   79MOL0     C10794   2.555  10.647   3.530  1.2578 -0.6272 -0.4827
   79MOL0     O10795   2.600  10.652   3.407 -0.4029  0.3933  0.5809
   79MOL0     C10796   2.503  10.652   3.303 -0.4524  0.6293 -0.4348
   79MOL0     C10797   2.552  10.658   3.171  0.0478  0.0891  0.4170
   79MOL0     C10798   2.469  10.650   3.057 -1.1377  1.2549 -0.3002
   79MOL0     C10799   2.336  10.632   3.072  0.3585  0.9357 -0.2234
   79MOL0     O10800   2.254  10.616   2.969 -0.5081  0.3039  0.1541
   79MOL0     C10801   2.114  10.656   2.985  0.1777 -1.2347 -0.3750
   79MOL0     C10802   2.042  10.569   2.880 -0.1936 -0.8935  0.5407
   79MOL0     C10803   1.896  10.606   2.862 -0.0932  0.3830  1.0034
   79MOL0     C10804   1.806  10.613   2.983 -0.3998  0.2184 -0.2635
   79MOL0     C10805   1.666  10.650   2.948  0.0333 -0.7352 -0.8030
   79MOL0     C10806   1.574  10.541   2.898  0.7682  0.2477  0.6657
   79MOL0     C10807   1.553  10.415   2.997  0.5525  0.3836  0.4430
   79MOL0     C10808   1.474  10.446   3.126 -0.7907 -0.6367 -0.2897
   79MOL0    Cl10809   1.436  10.290   3.197  0.0652 -0.1938 -0.0558
   79MOL0     C10810   2.285  10.624   3.201  0.5261  0.2962  0.0729
   79MOL0     C10811   2.364  10.645   3.311  0.6382  0.0675 -0.4975
   79MOL0     O10812   2.449  10.698   3.577  0.3962 -0.4733 -0.4732
   79MOL0     C10813   2.701  10.472   3.590  0.2459  0.4079 -0.2771
   79MOL0     C10814   2.776  10.392   3.681  0.0251 -1.1391 -0.7362
   79MOL0     N10815   2.698   9.860   4.230 -0.0531 -0.6971  0.1546
   79MOL0     N10816   2.649   9.745   4.198 -0.2989 -0.7276  0.3408
   79MOL0     C10817   3.326   9.407   3.674 -0.5221  0.8307  0.1418
   79MOL0     C10818   3.465   9.411   3.652  0.3883 -0.5920  0.4965
   79MOL0     C10819   3.874   9.282   3.461 -0.9352  0.3450 -0.7218
   79MOL0     C10820   3.936   9.300   3.337  0.3322 -0.6301  0.2179
   79MOL0     C10821   4.071   9.287   3.315 -0.6756  0.4240 -0.7943
   79MOL0     C10822   4.151   9.261   3.421 -0.1602  0.3348 -0.1947
   79MOL0     O10823   4.282   9.291   3.407  0.1209 -0.6606  0.6650
   79MOL0     C10824   4.317   9.426   3.425 -0.0469 -0.0430 -0.3591
   79MOL0     C10825   4.444   9.425   3.513 -0.1014  0.2316 -0.4146
   79MOL0     C10826   4.454   9.566   3.586  0.7470 -0.5182  0.4420
   79MOL0     C10827   4.580   9.602   3.672 -0.5222 -0.3236 -0.7841
   79MOL0     C10828   4.615   9.493   3.758  0.2797  0.8410 -0.5980
   79MOL0     C10829   4.632   9.410   3.850 -0.1041  0.4922 -0.3609
   79MOL0     C10830   4.094   9.233   3.556  0.3724  0.7905  0.0765
   79MOL0     C10831   3.962   9.250   3.571  0.7323 -0.5007  0.2054
   79MOL0     C10832   3.916   9.215   3.706 -0.7956 -0.2646  0.1937
   79MOL0     H10833   3.477   9.116   3.480  2.0383  1.2452 -0.3150
   79MOL0     H10834   3.257   9.116   3.528 -2.2079  0.7943 -0.5304
   79MOL0     H10835   3.083   9.304   3.428  2.4957 -0.6293  2.1832
   79MOL0     H10836   3.028   9.434   3.517  4.8469  0.6586 -1.1553
   79MOL0     H10837   2.867   9.253   3.408  1.4820 -0.0501 -0.5982
   79MOL0     H10838   2.942   9.133   3.509 -1.7404 -0.1281 -0.0622
   79MOL0     H10839   2.720   9.182   3.579 -0.2590 -0.8229  0.9745
   79MOL0     H10840   2.828   9.191   3.707  0.2989 -1.1844 -0.0009
   79MOL0     H10841   2.839   9.457   3.677 -0.3653  3.0095 -2.5952
   79MOL0     H10842   2.732   9.436   3.534  0.5368 -0.1580 -0.5303
   79MOL0     H10843   2.644   9.341   3.820 -0.0505 -0.9999  0.2515
   79MOL0     H10844   2.546   9.350   3.678  0.6945 -0.6016 -1.5850
   79MOL0     H10845   2.557   9.590   3.667  1.0294 -0.6704  1.3861
   79MOL0     H10846   2.470   9.520   3.795 -0.3442 -3.7233 -0.7414
   79MOL0     H10847   2.630   9.739   3.843  0.0769  0.8786  3.0672
   79MOL0     H10848   2.761   9.633   3.814  0.2955  0.9409  3.2700
   79MOL0     H10849   2.551   9.568   4.026  0.0686  0.6408  2.3059
   79MOL0     H10850   2.721   9.515   4.016  1.8126  1.4733  0.2300
   79MOL0     H10851   2.853   9.783   3.952  0.1544  2.0697 -0.6010
   79MOL0     H10852   2.980   9.988   4.087  0.2639  0.8484 -0.0143
   79MOL0     H10853   2.922  10.022   4.248 -3.9577 -2.2152  2.0898
   79MOL0     H10854   2.782  10.111   3.984 -1.2917 -0.4390  0.0499
   79MOL0     H10855   2.717  10.120   4.149  0.9389 -0.0416  1.8472
   79MOL0     H10856   2.914  10.277   4.217 -0.7279 -1.8232  0.8102
   79MOL0     H10857   2.998  10.252   4.066  0.6975  0.2639  1.7188
   79MOL0     H10858   2.730  10.394   4.079 -0.5608  0.1480 -1.3750
   79MOL0     H10859   2.898  10.461   4.074  0.5647 -1.2276  0.4091
   79MOL0     H10860   2.731  10.588   3.960 -2.0837  3.3395 -0.2232
   79MOL0     H10861   2.481  10.747   3.874  0.0684  0.1040  1.1433
   79MOL0     H10862   2.581  10.828   3.746  0.8871 -1.0332 -0.2043
   79MOL0     H10863   2.656  10.797   3.894 -0.7975 -0.6718  0.2099
   79MOL0     H10864   2.656  10.669   3.143  0.4806 -1.8984  1.1148
   79MOL0     H10865   2.508  10.629   2.957  2.4795  2.7001  0.6487
   79MOL0     H10866   2.069  10.624   3.080 -2.0124 -0.8005 -1.2140
   79MOL0     H10867   2.097  10.763   2.974 -0.8928 -1.4097 -0.5356
   79MOL0     H10868   2.094  10.578   2.784  0.9780 -0.9489  1.1464
   79MOL0     H10869   2.056  10.462   2.900 -0.6604 -1.4237 -1.6043
   79MOL0     H10870   1.852  10.536   2.790 -0.6973  0.7782  0.9807
   79MOL0     H10871   1.893  10.704   2.813 -0.5128  0.0802  0.4062
   79MOL0     H10872   1.834  10.703   3.038  1.6410 -0.0972 -0.7174
   79MOL0     H10873   1.817  10.521   3.041 -0.2062  0.7808  0.6106
   79MOL0     H10874   1.605  10.696   3.026 -0.3723 -0.7307 -1.1154
   79MOL0     H10875   1.678  10.732   2.876 -1.4716  0.7722  0.5594
   79MOL0     H10876   1.604  10.499   2.801 -1.2309  1.2072 -0.4122
   79MOL0     H10877   1.479  10.584   2.867  1.0267 -1.6969 -3.5686
   79MOL0     H10878   1.649  10.363   3.014  2.3325  2.3758 -2.5265
   79MOL0     H10879   1.484  10.345   2.949 -1.0381  2.5865 -0.6666
   79MOL0     H10880   1.389  10.512   3.109 -0.8961 -0.5767  0.4505
   79MOL0     H10881   1.539  10.486   3.204 -1.1218  0.0043 -0.3398
   79MOL0     H10882   2.185  10.595   3.230 -0.2667  1.0727 -1.7394
   79MOL0     H10883   2.310  10.641   3.405 -1.1899  5.0992 -1.0702
   79MOL0     H10884   2.696  10.440   3.487  4.7573  0.7007 -0.7611
   79MOL0     H10885   2.824  10.305   3.639  1.9216 -0.5641  0.1399
   79MOL0     H10886   3.272   9.486   3.725 -1.2185  0.0289  0.6846
   79MOL0     H10887   3.519   9.491   3.702  1.1065 -0.7421 -0.0201
   79MOL0     H10888   3.876   9.325   3.250  0.6341 -3.9861 -1.1119
   79MOL0     H10889   4.114   9.312   3.219  0.8135 -3.8234 -1.4346
   79MOL0     H10890   4.341   9.484   3.335 -1.8303  1.5996  0.1665
   79MOL0     H10891   4.235   9.474   3.479  0.0220 -0.0985 -0.2063
   79MOL0     H10892   4.537   9.424   3.456 -0.8522  0.7492 -1.6750
   79MOL0     H10893   4.447   9.343   3.586  1.2234  1.7373  1.3207
   79MOL0     H10894   4.454   9.649   3.515  1.3771 -0.8065  0.0940
   79MOL0     H10895   4.374   9.584   3.658  0.3225  1.2583 -0.4326
   79MOL0     H10896   4.561   9.691   3.732 -1.1183 -0.8982 -0.0952
   79MOL0     H10897   4.667   9.614   3.606 -0.2706 -0.1407 -0.4167
   79MOL0     H10898   4.662   9.341   3.927  2.3509  1.1914 -0.5862
   79MOL0     H10899   4.162   9.227   3.641  0.2333 -0.6242  0.1120
   79MOL0     H10900   3.845   9.133   3.694 -3.2173  1.8990 -1.4936
   79MOL0     H10901   3.989   9.180   3.780  2.1246  1.7106 -1.5376
   79MOL0     H10902   3.868   9.304   3.748 -0.9936  0.1287 -0.8417
   80MOL0     O10903   4.341   2.087   7.905 -0.3178 -0.4140  0.1872
   80MOL0     C10904   4.284   2.197   7.915 -0.1389 -0.0917  0.5435
   80MOL0     O10905   4.248   2.270   7.810  0.5390  0.2425  0.6379
   80MOL0     C10906   4.283   2.247   7.679  0.4995  0.5273  0.6955
   80MOL0     C10907   4.403   2.189   7.633 -0.0463  0.4485  1.6288
   80MOL0     C10908   4.429   2.176   7.495  0.5780  0.7088  0.4621
   80MOL0     C10909   4.340   2.209   7.395  0.8125 -0.0456 -0.3580
   80MOL0     O10910   4.347   2.197   7.256 -0.0064  0.5105 -0.0809
   80MOL0     C10911   4.482   2.191   7.203 -0.6122  0.2756  0.5806
   80MOL0     C10912   4.479   2.245   7.055 -0.2703 -0.5592 -0.5816
   80MOL0     C10913   4.610   2.220   6.988  0.6696  0.0003 -0.1074
   80MOL0     C10914   4.730   2.297   7.041  0.6621 -1.3165  0.3248
   80MOL0     C10915   4.717   2.450   7.010  0.2845  0.3013 -0.6125
   80MOL0     C10916   4.854   2.515   7.009 -0.2232 -1.1849 -0.5432
   80MOL0     C10917   4.897   2.572   7.140 -0.1721 -0.5653  0.7834
   80MOL0     C10918   5.020   2.664   7.116 -0.7086 -0.4316  0.9882
   80MOL0     N10919   5.032   2.773   7.220 -1.5970  0.7838 -0.3059
   80MOL0     C10920   5.095   2.763   7.338  0.9964 -0.1462  0.3511
   80MOL0     C10921   5.092   2.888   7.391  0.8485  0.1086 -0.9831
   80MOL0     C10922   5.110   2.925   7.537 -0.2692 -0.1044  0.7333
   80MOL0     C10923   5.000   2.990   7.620  0.0685 -0.1075  0.3445
   80MOL0     C10924   5.046   3.019   7.768 -0.2146 -0.3580  0.2204
   80MOL0     C10925   4.945   3.079   7.861  0.0750  0.0300 -1.0621
   80MOL0     O10926   4.866   2.975   7.920  0.1335 -0.2225  0.1912
   80MOL0     C10927   4.764   3.001   7.997  1.2441  1.4228 -0.2895
   80MOL0     C10928   4.682   2.899   8.055 -0.6382  0.3704 -0.6185
   80MOL0     C10929   4.591   2.917   8.156  0.0608  0.0248 -0.1483
   80MOL0     C10930   4.519   2.802   8.219  0.4514 -0.0699  0.9100
   80MOL0     C10931   4.545   3.052   8.178 -0.3467 -0.5362 -0.2741
   80MOL0     C10932   4.424   3.105   8.248 -0.3694  0.4107  0.1670
   80MOL0     O10933   4.402   3.237   8.266 -0.0239  0.4900  0.1575
   80MOL0     C10934   4.300   3.281   8.349 -0.1147  0.4642 -1.0706
   80MOL0     C10935   4.171   3.222   8.353  0.1597  0.3789 -0.3521
   80MOL0     C10936   4.078   3.275   8.452  0.0516 -1.0657 -0.4747
   80MOL0     C10937   4.118   3.367   8.557 -0.3188 -0.4028  0.7040
   80MOL0     O10938   4.033   3.420   8.659 -0.0908  0.0748 -0.5566
   80MOL0     C10939   3.892   3.421   8.634  0.4145 -0.3270 -0.4462
   80MOL0     C10940   3.827   3.504   8.742 -0.1594 -0.0242 -0.1958
   80MOL0     C10941   3.808   3.432   8.875 -0.1213 -0.5423 -0.3079
   80MOL0     C10942   3.785   3.525   8.992  0.1124 -0.7803  0.8072
   80MOL0     C10943   3.641   3.525   9.050 -0.5027  0.3642 -0.2320
   80MOL0     C10944   3.652   3.604   9.180  0.2573  0.0996  0.1913
   80MOL0     C10945   3.509   3.632   9.232 -0.4417  0.1304 -0.5416
   80MOL0     C10946   3.525   3.701   9.367 -0.8723 -0.3483  0.9784
   80MOL0    Cl10947   3.362   3.699   9.436 -0.0622 -0.5253 -0.0556
   80MOL0     C10948   4.248   3.422   8.543 -0.2429 -0.6624 -0.0275
   80MOL0     C10949   4.336   3.377   8.438  0.3313 -0.2091 -1.4473
   80MOL0     O10950   4.357   3.021   8.299 -0.3565 -0.0712  0.5507
   80MOL0     C10951   4.609   3.158   8.106  0.6336  0.2793 -0.6032
   80MOL0     C10952   4.715   3.128   8.028 -0.5882 -1.2050  0.1683
   80MOL0     N10953   5.030   2.969   7.300  0.3632 -0.1127 -0.5815
   80MOL0     N10954   4.993   2.903   7.198  0.2102  0.5660  0.3093
   80MOL0     C10955   4.222   2.275   7.442 -0.7020  0.6375  0.8558
   80MOL0     C10956   4.193   2.292   7.579  0.6612  0.0976 -0.0739
   80MOL0     C10957   4.231   2.254   8.037 -0.8603 -0.5794 -0.5764
   80MOL0     C10958   4.166   2.384   8.037 -0.1080  0.6813 -0.4903
   80MOL0     C10959   4.129   2.460   8.150 -0.3987 -0.2345  0.7490
   80MOL0     C10960   4.158   2.406   8.274 -0.1296  0.1243 -0.2734
   80MOL0     O10961   4.124   2.462   8.391  0.1778  1.4182  0.0795
   80MOL0     C10962   4.052   2.582   8.410 -0.3224 -0.4703  0.2824
   80MOL0     C10963   4.143   2.673   8.499 -0.4975 -0.2616 -0.1590
   80MOL0     C10964   4.050   2.789   8.519 -0.7217 -0.9013  0.2929
   80MOL0     C10965   4.118   2.915   8.573  0.0753  0.2506 -0.2074
   80MOL0     C10966   4.035   3.008   8.657  0.7728  0.8880 -0.8245
   80MOL0     C10967   3.968   3.075   8.725  0.5721  0.4021 -0.3888
   80MOL0     C10968   4.218   2.278   8.278  0.2691  0.3535  0.1333
   80MOL0     C10969   4.257   2.201   8.167  0.5125 -0.8919  0.0475
   80MOL0     C10970   4.318   2.068   8.186  0.1814  0.5807  0.3990
   80MOL0     H10971   4.477   2.143   7.697 -0.0540 -0.4294  1.0136
   80MOL0     H10972   4.520   2.140   7.447 -0.9651 -0.2246 -1.9432
   80MOL0     H10973   4.516   2.087   7.211  1.8428  0.8017 -1.6737
   80MOL0     H10974   4.549   2.254   7.262  0.8935 -0.5573 -0.1731
   80MOL0     H10975   4.396   2.204   6.996  0.5380  0.5014 -2.5349
   80MOL0     H10976   4.476   2.353   7.072  1.9518 -0.2593 -1.7057
   80MOL0     H10977   4.647   2.118   7.003 -0.8162 -0.0583  5.1130
   80MOL0     H10978   4.597   2.242   6.882 -0.9132  0.2322  0.1129
   80MOL0     H10979   4.749   2.273   7.146  3.6534 -0.8203 -0.0134
   80MOL0     H10980   4.824   2.269   6.993  1.0691 -0.5033  0.6326
   80MOL0     H10981   4.659   2.490   7.094 -1.2090 -1.6958 -0.5994
   80MOL0     H10982   4.663   2.467   6.917 -1.1581  0.8421  0.2856
   80MOL0     H10983   4.935   2.454   6.971  0.9530 -0.3610  0.5454
   80MOL0     H10984   4.849   2.595   6.934  2.0014  2.7738  3.0614
   80MOL0     H10985   4.925   2.492   7.210 -1.0763 -3.8256 -2.3035
   80MOL0     H10986   4.810   2.631   7.169  0.4490  1.9147 -1.9379
   80MOL0     H10987   5.113   2.608   7.102 -1.6348 -1.3322 -2.6113
   80MOL0     H10988   5.004   2.714   7.020  0.4482 -1.5249  0.1798
   80MOL0     H10989   5.148   2.676   7.374 -0.7319 -1.3603  0.0764
   80MOL0     H10990   5.201   2.980   7.560 -0.6696 -0.0388  2.3041
   80MOL0     H10991   5.119   2.828   7.589 -2.9403 -1.8321 -1.7269
   80MOL0     H10992   4.974   3.086   7.574  0.1142 -0.8682 -1.3565
   80MOL0     H10993   4.916   2.920   7.630  0.6741 -0.9293 -0.1904
   80MOL0     H10994   5.081   2.924   7.809  2.0761 -0.5574 -1.9748
   80MOL0     H10995   5.129   3.089   7.761 -1.0686  0.8103  1.3460
   80MOL0     H10996   4.994   3.146   7.932 -0.4797  0.8292 -1.4094
   80MOL0     H10997   4.878   3.144   7.803 -0.1867 -1.9963 -3.1712
   80MOL0     H10998   4.713   2.798   8.028  2.8394  1.2562 -0.4281
   80MOL0     H10999   4.588   2.719   8.234  2.2019  1.3067  0.8029
   80MOL0     H11000   4.426   2.778   8.167  1.5441 -4.9977  0.7565
   80MOL0     H11001   4.497   2.830   8.323 -1.6652  2.9542 -0.2080
   80MOL0     H11002   4.138   3.142   8.288  0.3540  0.2038 -0.2383
   80MOL0     H11003   3.974   3.244   8.450 -0.5329  0.7557 -1.5603
   80MOL0     H11004   3.891   3.454   8.530  1.6099 -3.0033 -1.4164
   80MOL0     H11005   3.851   3.319   8.641  0.6648 -0.8876 -4.5874
   80MOL0     H11006   3.871   3.604   8.747 -1.6078  0.8015 -2.6466
   80MOL0     H11007   3.725   3.532   8.715 -0.7950 -1.6435  0.3879
   80MOL0     H11008   3.900   3.378   8.900  1.3991  2.2669  0.7603
   80MOL0     H11009   3.738   3.350   8.864  0.6989 -1.1875 -0.8283
   80MOL0     H11010   3.824   3.621   8.957  0.5815 -0.8541  1.1256
   80MOL0     H11011   3.855   3.491   9.069  1.4495 -2.0121 -0.8521
   80MOL0     H11012   3.571   3.567   8.977 -1.7652 -1.0168  0.1453
   80MOL0     H11013   3.608   3.424   9.072 -0.9073  0.2520 -1.2949
   80MOL0     H11014   3.693   3.700   9.149 -1.7165  1.3932  1.3865
   80MOL0     H11015   3.721   3.555   9.251 -0.6523  1.6167  2.2102
   80MOL0     H11016   3.459   3.535   9.245  1.5510 -1.0607 -1.4237
   80MOL0     H11017   3.460   3.702   9.164 -2.4468 -0.8118 -0.1459
   80MOL0     H11018   3.563   3.804   9.361 -1.1307 -0.1837  1.9914
   80MOL0     H11019   3.594   3.644   9.428 -2.4949 -0.5141  2.7464
   80MOL0     H11020   4.277   3.487   8.625 -3.3031  2.1237 -0.8979
   80MOL0     H11021   4.440   3.405   8.451 -0.1219  0.0632  3.7981
   80MOL0     H11022   4.554   3.252   8.104 -3.7991 -2.0131  0.7906
   80MOL0     H11023   4.758   3.212   7.975  0.6217 -2.2034 -0.4641
   80MOL0     H11024   4.163   2.308   7.357  0.4568 -0.5560 -0.4828
   80MOL0     H11025   4.100   2.336   7.613 -0.6453 -4.2391  2.7778
   80MOL0     H11026   4.144   2.428   7.940 -3.1000 -0.3095 -0.3751
   80MOL0     H11027   4.085   2.559   8.150  0.2687  0.0732  0.9158
   80MOL0     H11028   4.021   2.634   8.319 -2.2721 -2.1581 -0.0890
   80MOL0     H11029   3.967   2.556   8.474 -1.9561  1.9009 -0.7873
   80MOL0     H11030   4.239   2.690   8.449  0.2822 -1.8685  0.7198
   80MOL0     H11031   4.175   2.630   8.594 -0.5334  0.4141  0.1667
   80MOL0     H11032   3.999   2.822   8.429 -1.2546 -1.4724  0.3867
   80MOL0     H11033   3.969   2.767   8.589 -1.3384 -1.6837 -0.6673
   80MOL0     H11034   4.164   2.970   8.491  1.2033  0.1053  0.3066
   80MOL0     H11035   4.210   2.890   8.628  0.4797  1.4487 -0.3125
   80MOL0     H11036   3.912   3.140   8.790 -1.4863 -1.4466 -0.1978
   80MOL0     H11037   4.241   2.235   8.376 -0.6339 -1.9192 -0.5791
   80MOL0     H11038   4.325   2.032   8.289  4.8616  1.0088  0.4391
   80MOL0     H11039   4.257   2.001   8.124 -1.3617  1.2102  1.1923
   80MOL0     H11040   4.420   2.060   8.148  0.6226 -1.5858  1.8261
   81MOL0     O11041   9.389  10.249   1.360 -0.1710  0.3663  0.1218
   81MOL0     C11042   9.318  10.235   1.460 -0.5786  0.1181 -0.2286
   81MOL0     O11043   9.185  10.206   1.454 -0.5082 -0.7999 -0.4994
   81MOL0     C11044   9.127  10.184   1.332 -0.9665  0.5083 -0.2185
   81MOL0     C11045   9.031  10.265   1.277  0.3912 -0.4570  0.8385
   81MOL0     C11046   8.982  10.260   1.150  0.0873  1.8272  0.5855
   81MOL0     C11047   9.037  10.162   1.063 -0.2109  0.0844  0.4077
   81MOL0     O11048   8.983  10.147   0.935 -0.2832  0.0079 -0.1845
   81MOL0     C11049   9.063  10.097   0.830  0.4160 -0.7716  0.0850
   81MOL0     C11050   8.999  10.138   0.699 -0.4934  0.8327 -0.4772
   81MOL0     C11051   9.054  10.054   0.587 -0.5052  0.4005 -0.2125
   81MOL0     C11052   9.033  10.138   0.463 -0.2567  0.2384  0.3265
   81MOL0     C11053   9.049  10.055   0.337 -0.3914 -0.3838  0.6431
   81MOL0     C11054   9.187  10.005   0.301 -0.1129  0.1609 -0.6229
   81MOL0     C11055   9.203   9.973   0.153 -0.2043  0.7416  0.3276
   81MOL0     C11056   9.170   9.828   0.111  0.2703  0.1896 -0.1761
   81MOL0     N11057   9.127   9.829  -0.022 -0.3286  0.4605  1.0109
   81MOL0     C11058   9.210   9.863  -0.129  0.3427  0.2842 -0.0032
   81MOL0     C11059   9.131   9.841  -0.235  0.8242 -0.5222  0.0514
   81MOL0     C11060   9.164   9.852  -0.385  0.5607 -0.1443  0.0704
   81MOL0     C11061   9.080   9.969  -0.443  0.2802 -1.7841  0.2138
   81MOL0     C11062   9.105   9.989  -0.599  0.6087 -1.1447  0.1333
   81MOL0     C11063   8.976  10.042  -0.666 -0.3028 -0.0524  0.2120
   81MOL0     O11064   8.930  10.163  -0.597 -0.1957  0.0965 -0.0096
   81MOL0     C11065   8.799  10.199  -0.599 -0.0370  0.5445  0.3141
   81MOL0     C11066   8.706  10.135  -0.688  0.1093 -0.0924  0.0135
   81MOL0     C11067   8.566  10.171  -0.682  0.4139 -0.8648  0.3607
   81MOL0     C11068   8.463  10.069  -0.737  0.1438  0.8645  0.2356
   81MOL0     C11069   8.538  10.293  -0.618  0.1638  0.2035 -0.1573
   81MOL0     C11070   8.411  10.371  -0.626  0.5156 -0.7465 -0.2153
   81MOL0     O11071   8.388  10.455  -0.519 -0.5548  0.0062  0.0265
   81MOL0     C11072   8.262  10.509  -0.499  0.5242  0.6882  0.0572
   81MOL0     C11073   8.129  10.456  -0.533 -0.8311  0.4944  0.2903
   81MOL0     C11074   8.014  10.486  -0.464  0.4408  0.1893  0.4928
   81MOL0     C11075   8.011  10.587  -0.370  0.9496  0.0783  0.4421
   81MOL0     O11076   7.897  10.618  -0.297 -0.0007  0.4337 -0.4704
   81MOL0     C11077   7.805  10.700  -0.378 -0.4295 -0.2695  0.2199
   81MOL0     C11078   7.829  10.843  -0.350 -0.5606 -0.8661 -0.8877
   81MOL0     C11079   7.734  10.932  -0.422  0.1305 -0.5283  0.4809
   81MOL0     C11080   7.749  11.079  -0.403 -0.0956  0.4627 -0.6040
   81MOL0     C11081   7.671  11.165  -0.511  0.6537 -0.3343 -0.5710
   81MOL0     C11082   7.666  11.314  -0.487 -0.2458 -0.5405  0.0301
   81MOL0     C11083   7.563  11.386  -0.582 -0.3473  0.6974  0.2126
   81MOL0     C11084   7.510  11.516  -0.523  0.1156 -0.9259 -0.9444
   81MOL0    Cl11085   7.638  11.638  -0.484  0.2136 -0.0267 -0.0696
   81MOL0     C11086   8.128  10.655  -0.337 -0.3516 -0.0472  0.1661
   81MOL0     C11087   8.249  10.614  -0.401 -0.4171  0.5731  0.9863
   81MOL0     O11088   8.345  10.362  -0.725  1.1939  0.1610 -0.0793
   81MOL0     C11089   8.632  10.343  -0.528 -0.8168 -0.4007 -0.6046
   81MOL0     C11090   8.768  10.307  -0.528  0.6215 -0.2779 -0.8539
   81MOL0     N11091   9.005   9.806  -0.193 -0.3306 -0.7861 -0.0319
   81MOL0     N11092   9.007   9.805  -0.068 -0.0703  0.6942 -0.4771
   81MOL0     C11093   9.124  10.069   1.111  1.0001  0.3929  0.2353
   81MOL0     C11094   9.172  10.073   1.246  0.0224  0.9457 -0.4705
   81MOL0     C11095   9.371  10.266   1.589 -1.4486  0.1220 -0.8464
   81MOL0     C11096   9.280  10.275   1.703  0.1230  0.5855 -0.9122
   81MOL0     C11097   9.333  10.287   1.832  0.4795 -0.3186 -0.6352
   81MOL0     C11098   9.474  10.300   1.852  0.3228 -0.2349 -0.3533
   81MOL0     O11099   9.538  10.313   1.966  0.0074  0.0858 -1.4670
   81MOL0     C11100   9.460  10.341   2.084 -1.1784 -0.0960  0.0358
   81MOL0     C11101   9.565  10.354   2.204 -0.3031 -0.3037  0.8615
   81MOL0     C11102   9.505  10.420   2.334  0.4472 -0.3830  0.5650
   81MOL0     C11103   9.623  10.480   2.409 -1.1785 -0.1138 -0.1773
   81MOL0     C11104   9.713  10.376   2.453  0.2622  0.1871 -0.5407
   81MOL0     C11105   9.798  10.297   2.462  0.3247  1.1841 -0.0213
   81MOL0     C11106   9.556  10.293   1.746  0.0263 -0.1115  0.6100
   81MOL0     C11107   9.513  10.289   1.616  0.3418  0.3590 -0.3110
   81MOL0     C11108   9.622  10.290   1.508 -0.0152 -0.5074 -0.3690
   81MOL0     H11109   9.002  10.349   1.338  1.3523  1.1499 -0.8197
   81MOL0     H11110   8.911  10.327   1.102  0.1872  2.2921  1.0801
   81MOL0     H11111   9.061   9.988   0.845 -1.5308 -0.6240  1.2598
   81MOL0     H11112   9.161  10.145   0.835 -0.0635  0.3545 -0.9070
   81MOL0     H11113   8.890  10.130   0.699 -0.4320 -0.7624  1.3927
   81MOL0     H11114   9.019  10.245   0.685  1.4188  0.5954  0.1146
   81MOL0     H11115   9.162  10.041   0.600  0.2228  1.7436 -3.6728
   81MOL0     H11116   9.000   9.959   0.586  4.4609 -2.8063  0.9610
   81MOL0     H11117   8.930  10.176   0.467 -0.3415  0.3233 -1.6728
   81MOL0     H11118   9.081  10.235   0.446 -0.4753 -0.0565 -2.4502
   81MOL0     H11119   9.012  10.118   0.255 -1.3801 -2.6701 -0.7578
   81MOL0     H11120   8.980   9.971   0.343  0.8037 -1.5619 -1.2068
   81MOL0     H11121   9.267  10.072   0.334  0.7729 -1.3249  0.3442
   81MOL0     H11122   9.205   9.907   0.346  0.0338 -0.0283 -1.0849
   81MOL0     H11123   9.306   9.999   0.126  0.3801 -2.3331 -0.8822
   81MOL0     H11124   9.146  10.051   0.101 -1.0884 -0.9406 -1.3472
   81MOL0     H11125   9.263   9.770   0.112 -1.3592 -2.6248 -0.2037
   81MOL0     H11126   9.096   9.776   0.173 -1.4364 -2.3987 -4.0033
   81MOL0     H11127   9.316   9.878  -0.142  0.2167  0.1197 -1.2996
   81MOL0     H11128   9.135   9.758  -0.431 -1.0779  0.3654 -0.0007
   81MOL0     H11129   9.272   9.862  -0.402  0.1006  1.3151 -2.4936
   81MOL0     H11130   8.978   9.956  -0.405  0.5744  0.8596  2.2383
   81MOL0     H11131   9.098  10.067  -0.399 -3.7845  0.0530 -1.6393
   81MOL0     H11132   9.183  10.065  -0.608  1.7613 -2.0614  1.7777
   81MOL0     H11133   9.134   9.896  -0.649 -1.2271 -1.8371  0.2785
   81MOL0     H11134   8.996  10.048  -0.773 -0.9860 -1.2935 -0.0111
   81MOL0     H11135   8.897   9.967  -0.653 -0.1732  0.2307  3.4794
   81MOL0     H11136   8.727  10.052  -0.755 -4.9206 -0.5957 -1.3467
   81MOL0     H11137   8.472  10.058  -0.845  0.7394 -1.0194  0.4299
   81MOL0     H11138   8.360  10.099  -0.717  0.6009  1.5571  1.6746
   81MOL0     H11139   8.466   9.970  -0.689 -1.1278 -1.7207 -4.3916
   81MOL0     H11140   8.118  10.378  -0.607 -1.8952  2.0431 -1.2498
   81MOL0     H11141   7.921  10.438  -0.490  1.6311 -1.9207 -0.1229
   81MOL0     H11142   7.827  10.677  -0.483  3.5086  0.1224  0.8088
   81MOL0     H11143   7.707  10.658  -0.356 -2.1256  2.7451 -0.9781
   81MOL0     H11144   7.820  10.865  -0.243 -1.8526 -1.3514 -0.8816
   81MOL0     H11145   7.930  10.865  -0.386 -0.3762 -1.0858 -0.5142
   81MOL0     H11146   7.635  10.909  -0.382 -1.2049  2.2213 -0.9795
   81MOL0     H11147   7.734  10.919  -0.530 -2.5155  4.6475 -0.4704
   81MOL0     H11148   7.854  11.105  -0.414 -0.3338  0.6751 -2.6268
   81MOL0     H11149   7.707  11.099  -0.303 -2.5603 -1.3396 -1.1832
   81MOL0     H11150   7.710  11.154  -0.612 -1.3644  3.7955 -2.0429
   81MOL0     H11151   7.568  11.129  -0.519  0.4964 -0.3005  0.9029
   81MOL0     H11152   7.763  11.350  -0.521  0.1343 -2.3769 -0.9440
   81MOL0     H11153   7.644  11.319  -0.380 -1.5166 -0.0037 -0.2376
   81MOL0     H11154   7.492  11.305  -0.602  1.4409 -0.8621 -0.0619
   81MOL0     H11155   7.604  11.401  -0.682  0.5013 -0.1492  0.4188
   81MOL0     H11156   7.463  11.482  -0.430  3.7157 -2.0147  0.6705
   81MOL0     H11157   7.426  11.557  -0.580 -3.4524  0.8290  4.7431
   81MOL0     H11158   8.126  10.745  -0.275 -1.6228  0.5784 -0.7363
   81MOL0     H11159   8.347  10.656  -0.382  0.9923 -2.2833  0.5024
   81MOL0     H11160   8.614  10.439  -0.481  0.6585 -1.3679  2.1210
   81MOL0     H11161   8.838  10.366  -0.469 -2.0054  2.4322 -0.1657
   81MOL0     H11162   9.142   9.971   1.067  1.7254 -0.4434  2.2505
   81MOL0     H11163   9.237  10.002   1.296  0.1329  2.2175  1.3006
   81MOL0     H11164   9.173  10.257   1.698  0.2284 -0.6668  0.5375
   81MOL0     H11165   9.269  10.289   1.919  1.9219  0.8616  0.4693
   81MOL0     H11166   9.410  10.436   2.066 -2.1527 -0.9237 -1.8880
   81MOL0     H11167   9.399  10.255   2.114 -2.8632  1.4704  1.2842
   81MOL0     H11168   9.641  10.419   2.159 -2.5777  0.0521 -2.8672
   81MOL0     H11169   9.619  10.261   2.225  1.2239  0.4745  0.5758
   81MOL0     H11170   9.445  10.509   2.314  0.7314 -0.2180  0.4253
   81MOL0     H11171   9.454  10.344   2.394 -1.6881  0.4676 -0.1084
   81MOL0     H11172   9.587  10.521   2.504  0.8963 -1.0460  1.0949
   81MOL0     H11173   9.674  10.563   2.359 -0.7739 -0.1740  0.1343
   81MOL0     H11174   9.884  10.238   2.485 -0.6087 -0.6435 -0.9858
   81MOL0     H11175   9.661  10.291   1.772  0.5358  0.0292 -1.2797
   81MOL0     H11176   9.597  10.353   1.423  1.5370 -0.9723 -1.2095
   81MOL0     H11177   9.722  10.317   1.542 -0.5063 -0.6801  1.3065
   81MOL0     H11178   9.635  10.192   1.461  0.4785 -0.2123 -0.8584
   82MOL0     O11179   0.782   9.379   6.508 -0.6291 -0.9339 -0.3137
   82MOL0     C11180   0.682   9.431   6.457 -0.4606  0.5109  0.1460
   82MOL0     O11181   0.659   9.571   6.454  0.6800  0.1669 -0.1466
   82MOL0     C11182   0.763   9.651   6.491  0.6834 -0.9185 -0.0443
   82MOL0     C11183   0.801   9.665   6.625 -0.3351 -1.3392  0.0671
   82MOL0     C11184   0.899   9.751   6.671  0.2844 -0.7865  1.0695
   82MOL0     C11185   0.970   9.839   6.583  0.1557  0.8738 -0.2212
   82MOL0     O11186   1.080   9.910   6.611  0.2571  0.7508  0.6722
   82MOL0     C11187   1.081  10.047   6.594  0.0961 -0.7785  1.3878
   82MOL0     C11188   1.176  10.120   6.682  0.7443 -0.3437  0.3820
   82MOL0     C11189   1.117  10.104   6.824  0.3155  0.5595 -0.4125
   82MOL0     C11190   1.016  10.211   6.861  0.2770  0.6754 -0.1995
   82MOL0     C11191   0.944  10.193   6.996 -0.6419  0.2047 -0.5916
   82MOL0     C11192   0.816  10.102   6.991  0.6883  0.7417  0.5049
   82MOL0     C11193   0.835   9.963   6.938 -0.0452  0.3976  0.3098
   82MOL0     C11194   0.721   9.877   6.957  0.5093  0.3394  0.3203
   82MOL0     N11195   0.589   9.912   6.892 -0.1503 -0.7641  0.2524
   82MOL0     C11196   0.517   9.836   6.799 -0.1117  0.8392  0.5377
   82MOL0     C11197   0.403   9.903   6.760  0.9559 -0.2021  0.4663
   82MOL0     C11198   0.310   9.890   6.638  0.1275 -0.2330  0.1594
   82MOL0     C11199   0.343   9.750   6.570  0.0022 -0.1684  0.1893
   82MOL0     C11200   0.223   9.689   6.496 -0.5945  0.3275  0.0735
   82MOL0     C11201   0.158   9.790   6.408  0.3541  0.2152 -0.2183
   82MOL0     O11202   0.115   9.747   6.272  0.2900  0.0451  0.3720
   82MOL0     C11203   0.042   9.633   6.259  0.0786 -0.2545 -0.2043
   82MOL0     C11204   0.083   9.528   6.179 -0.1269 -0.3553  0.6111
   82MOL0     C11205   0.002   9.413   6.155 -0.2236 -1.0497 -0.7294
   82MOL0     C11206   0.066   9.290   6.106  0.2638 -0.4676 -0.3786
   82MOL0     C11207  -0.128   9.406   6.214  0.1604 -0.1898  0.0455
   82MOL0     C11208  -0.218   9.293   6.201 -0.8331  0.3175  0.5216
   82MOL0     O11209  -0.232   9.241   6.074  0.6133 -0.5868  0.1943
   82MOL0     C11210  -0.311   9.139   6.026 -0.8782  0.7981  1.0424
   82MOL0     C11211  -0.408   9.067   6.100  0.9204  0.3311 -0.2763
   82MOL0     C11212  -0.509   8.997   6.029 -0.2416 -0.5789 -0.3786
   82MOL0     C11213  -0.511   8.991   5.894 -0.2242 -0.3229  0.2864
   82MOL0     O11214  -0.606   8.912   5.832  0.2826  0.3076  0.6315
   82MOL0     C11215  -0.714   8.986   5.764 -0.0155  0.9311  0.5052
   82MOL0     C11216  -0.781   8.886   5.667  0.4101  0.1812  0.8454
   82MOL0     C11217  -0.776   8.930   5.523  0.7886 -0.1634 -0.0921
   82MOL0     C11218  -0.876   9.042   5.502 -0.6848  0.1817  0.1367
   82MOL0     C11219  -0.856   9.097   5.357  1.2549 -0.7397  0.0350
   82MOL0     C11220  -0.935   9.021   5.257 -0.1261 -0.0048  0.2494
   82MOL0     C11221  -0.922   9.075   5.107 -0.5159 -0.0639 -0.3645
   82MOL0     C11222  -1.004   8.978   5.011 -0.6999  0.1877 -0.8910
   82MOL0    Cl11223  -0.999   9.028   4.837  0.0550 -0.0725 -0.0935
   82MOL0     C11224  -0.408   9.053   5.823 -0.6128  0.3232 -1.5229
   82MOL0     C11225  -0.310   9.135   5.888  1.2120  0.3061 -0.1760
   82MOL0     O11226  -0.283   9.255   6.298  0.0146 -0.3315  0.0671
   82MOL0     C11227  -0.169   9.518   6.283  0.2706  0.7449 -0.1820
   82MOL0     C11228  -0.087   9.624   6.323 -0.3826  0.1233  0.6937
   82MOL0     N11229   0.400  10.012   6.853  0.5247 -0.5882 -0.1827
   82MOL0     N11230   0.512  10.021   6.925  1.3437 -0.1766 -0.0044
   82MOL0     C11231   0.935   9.822   6.445 -0.4003  0.7258  0.1797
   82MOL0     C11232   0.836   9.729   6.397 -0.4227 -0.3857 -0.1555
   82MOL0     C11233   0.574   9.336   6.406  0.5643  0.3347  0.2013
   82MOL0     C11234   0.541   9.335   6.271  0.0257 -0.0345 -1.1786
   82MOL0     C11235   0.446   9.247   6.221  0.4955 -0.3059 -0.0644
   82MOL0     C11236   0.373   9.162   6.317 -0.5201 -0.0070  0.5627
   82MOL0     O11237   0.267   9.085   6.286  0.2386  0.0043 -0.4173
   82MOL0     C11238   0.282   9.013   6.170 -0.9510  0.2351  0.2456
   82MOL0     C11239   0.192   8.895   6.183 -0.1259  0.3106 -0.2830
   82MOL0     C11240   0.244   8.784   6.286  0.2600  0.1012  0.2571
   82MOL0     C11241   0.168   8.652   6.265  0.1506 -0.3279 -0.5703
   82MOL0     C11242   0.236   8.526   6.296 -1.3182  0.2015  0.7307
   82MOL0     C11243   0.286   8.420   6.313 -0.0360 -0.3156 -0.5528
   82MOL0     C11244   0.411   9.165   6.452  0.5123  0.0845 -0.0901
   82MOL0     C11245   0.507   9.258   6.502 -0.8410 -0.4216 -1.3007
   82MOL0     C11246   0.532   9.249   6.652 -0.4200  0.0921 -1.2297
   82MOL0     H11247   0.747   9.605   6.698  0.6912 -1.1227  1.0266
   82MOL0     H11248   0.929   9.755   6.775  2.3557 -0.3852  0.5170
   82MOL0     H11249   0.984  10.097   6.596  1.2403  1.7270 -0.0282
   82MOL0     H11250   1.103  10.058   6.487 -3.1040 -0.6278  0.6373
   82MOL0     H11251   1.268  10.063   6.665 -0.2306 -1.5036 -1.2984
   82MOL0     H11252   1.193  10.225   6.657 -1.0386 -0.1522 -0.0934
   82MOL0     H11253   1.075  10.005   6.844 -1.8134  0.6754 -3.5932
   82MOL0     H11254   1.199  10.114   6.895  0.2637 -0.5844 -0.1740
   82MOL0     H11255   1.065  10.308   6.867  2.0733 -0.2057 -0.1737
   82MOL0     H11256   0.938  10.213   6.783  0.6978 -1.3057 -0.7091
   82MOL0     H11257   0.912  10.285   7.046 -1.7333 -1.7327  2.5113
   82MOL0     H11258   1.022  10.153   7.060  0.7521  2.2548 -0.8942
   82MOL0     H11259   0.793  10.093   7.098 -0.0778  0.8224  0.3520
   82MOL0     H11260   0.735  10.150   6.936  0.6983 -2.5044 -2.6479
   82MOL0     H11261   0.923   9.915   6.981  0.6332  0.3433 -1.1104
   82MOL0     H11262   0.854   9.979   6.831 -0.1629  0.7534  0.3407
   82MOL0     H11263   0.740   9.778   6.916 -1.5296  0.4549 -1.0049
   82MOL0     H11264   0.703   9.870   7.065  0.0494  0.5344  0.2573
   82MOL0     H11265   0.563   9.753   6.746 -2.2349  0.4067 -0.7483
   82MOL0     H11266   0.325   9.984   6.585  0.2255  0.1983  0.9350
   82MOL0     H11267   0.212   9.882   6.685  0.1127 -3.0601 -0.1726
   82MOL0     H11268   0.430   9.759   6.505  2.2705 -0.8542  2.9545
   82MOL0     H11269   0.365   9.666   6.636  1.8528  0.7222  0.7665
   82MOL0     H11270   0.264   9.599   6.449  0.4335  1.2379 -0.8366
   82MOL0     H11271   0.137   9.666   6.561 -3.1856  3.0369 -2.1003
   82MOL0     H11272   0.076   9.833   6.466  0.7265  1.5842 -0.6730
   82MOL0     H11273   0.226   9.874   6.386 -0.5801  1.9816  3.0160
   82MOL0     H11274   0.183   9.541   6.139  0.3728  2.3948  2.4926
   82MOL0     H11275   0.097   9.225   6.188 -0.2658 -3.9559 -2.7321
   82MOL0     H11276   0.158   9.315   6.053  0.7963 -0.9887  0.2865
   82MOL0     H11277   0.003   9.243   6.030  0.9981  0.0079 -1.3008
   82MOL0     H11278  -0.408   9.077   6.208 -1.7902  2.4634 -0.3643
   82MOL0     H11279  -0.580   8.948   6.094 -2.5709  2.6028 -0.3039
   82MOL0     H11280  -0.787   9.015   5.840 -2.7375 -1.1920 -1.1033
   82MOL0     H11281  -0.685   9.074   5.706 -2.1658  1.2851 -0.1292
   82MOL0     H11282  -0.737   8.786   5.667  3.5701  1.2280 -3.5892
   82MOL0     H11283  -0.885   8.864   5.692  0.4076 -3.9457 -1.8039
   82MOL0     H11284  -0.808   8.851   5.455 -2.5324  1.4350 -0.5665
   82MOL0     H11285  -0.678   8.968   5.492  1.1560 -1.1692 -0.2214
   82MOL0     H11286  -0.860   9.126   5.571 -1.8289  0.6359 -0.1196
   82MOL0     H11287  -0.978   9.013   5.528 -1.1222 -1.3593 -2.8687
   82MOL0     H11288  -0.871   9.205   5.353  1.9407 -0.6620 -2.2327
   82MOL0     H11289  -0.752   9.093   5.323  0.6799  0.5609 -2.0938
   82MOL0     H11290  -1.039   9.030   5.290  0.1464  1.3233  0.8112
   82MOL0     H11291  -0.902   8.916   5.264  2.1591  0.5374 -1.1679
   82MOL0     H11292  -0.816   9.061   5.083 -0.7712 -2.2757 -0.4421
   82MOL0     H11293  -0.967   9.173   5.091  0.8171  0.7097  0.4683
   82MOL0     H11294  -1.104   8.980   5.053 -0.1658  0.4972  0.4019
   82MOL0     H11295  -0.964   8.876   5.013  0.6115  0.5113 -4.1169
   82MOL0     H11296  -0.406   9.028   5.717  2.7607  1.1535 -1.7721
   82MOL0     H11297  -0.242   9.197   5.829 -1.9869  2.5704 -1.7769
   82MOL0     H11298  -0.273   9.512   6.312 -0.1779  1.6107 -1.4989
   82MOL0     H11299  -0.112   9.718   6.372  2.0125  0.7778  0.8275
   82MOL0     H11300   0.990   9.876   6.367 -1.2410  0.9675 -0.2601
   82MOL0     H11301   0.820   9.716   6.290 -0.5872 -2.1051  0.0522
   82MOL0     H11302   0.580   9.410   6.203  1.0892  1.1627  0.6578
   82MOL0     H11303   0.416   9.256   6.117  0.8348  0.3159 -0.1092
   82MOL0     H11304   0.250   9.076   6.087  3.1439  1.3823 -0.6844
   82MOL0     H11305   0.384   8.983   6.148 -0.0594  2.2823  1.2483
   82MOL0     H11306   0.180   8.865   6.078 -0.3943  0.8055 -0.3983
   82MOL0     H11307   0.092   8.913   6.223 -2.1501 -5.0322 -2.0078
   82MOL0     H11308   0.349   8.771   6.259 -0.3300 -0.7400 -1.8542
   82MOL0     H11309   0.232   8.813   6.391  1.0859 -2.0957  1.0083
   82MOL0     H11310   0.128   8.641   6.164 -0.1773 -1.3720 -0.3461
   82MOL0     H11311   0.075   8.648   6.322 -0.1058 -3.2201 -1.0451
   82MOL0     H11312   0.333   8.324   6.318  0.3904 -0.0688  0.2451
   82MOL0     H11313   0.364   9.105   6.530  1.2718 -1.9160 -1.0759
   82MOL0     H11314   0.449   9.204   6.707 -0.4382  1.4288 -0.1027
   82MOL0     H11315   0.620   9.190   6.676 -1.4111 -0.8421  0.2767
   82MOL0     H11316   0.538   9.343   6.708  1.5900 -1.5531  1.5145
   83MOL0     O11317   0.131   5.254   7.321 -0.2965 -0.1138 -0.3198
   83MOL0     C11318   0.130   5.369   7.284 -0.7664  0.6986  0.6396
   83MOL0     O11319   0.093   5.404   7.156  0.4164  0.6546  0.6531
   83MOL0     C11320   0.040   5.309   7.077 -0.0290 -0.0191  0.2714
   83MOL0     C11321   0.110   5.218   7.005 -0.3083  0.5437 -0.1010
   83MOL0     C11322   0.045   5.127   6.921  0.3668  0.1626  0.5198
   83MOL0     C11323  -0.094   5.114   6.919  0.0222 -0.8685 -0.7040
   83MOL0     O11324  -0.172   5.028   6.849 -0.1462  0.0917  0.0686
   83MOL0     C11325  -0.119   4.974   6.718 -0.7997 -0.5727 -0.1783
   83MOL0     C11326  -0.106   5.073   6.606  0.6136 -0.7485 -0.1577
   83MOL0     C11327  -0.020   5.027   6.490 -0.2159  0.6307  0.4756
   83MOL0     C11328   0.027   5.145   6.399  0.1751 -0.2559 -0.4531
   83MOL0     C11329  -0.088   5.215   6.329 -0.3443 -1.4202  0.0885
   83MOL0     C11330  -0.147   5.130   6.221  0.4479  0.7658  0.5949
   83MOL0     C11331  -0.239   5.229   6.140  0.2320  0.7789 -0.0179
   83MOL0     C11332  -0.347   5.160   6.064  0.0045  0.0440  0.3160
   83MOL0     N11333  -0.465   5.136   6.149  0.3741 -0.0133  0.0155
   83MOL0     C11334  -0.477   5.077   6.280 -0.0713  0.4346  1.1061
   83MOL0     C11335  -0.610   5.052   6.280 -0.1301  0.8363 -0.9816
   83MOL0     C11336  -0.671   4.943   6.373  0.0641 -1.0647  0.8101
   83MOL0     C11337  -0.749   4.836   6.308  1.3710  0.4249  0.9784
   83MOL0     C11338  -0.768   4.713   6.397  0.0967  0.3358 -0.2783
   83MOL0     C11339  -0.790   4.582   6.330 -0.5056  0.0992 -0.3432
   83MOL0     O11340  -0.674   4.529   6.283 -0.4304  0.0221 -0.3797
   83MOL0     C11341  -0.669   4.436   6.184 -0.3749  0.1489  0.1257
   83MOL0     C11342  -0.561   4.438   6.085  0.3555  0.0998  0.1279
   83MOL0     C11343  -0.557   4.346   5.970  0.0343 -0.5077  0.1477
   83MOL0     C11344  -0.448   4.361   5.867 -0.3734  0.6170 -0.0347
   83MOL0     C11345  -0.651   4.243   5.974 -1.1479 -0.7327 -0.6851
   83MOL0     C11346  -0.639   4.136   5.884  0.0169  0.5841 -0.1266
   83MOL0     O11347  -0.654   4.009   5.946 -0.0148 -0.5021  0.0665
   83MOL0     C11348  -0.647   3.897   5.867 -0.2008  0.2357  0.4929
   83MOL0     C11349  -0.546   3.883   5.776 -1.0172  0.1281 -0.3047
   83MOL0     C11350  -0.543   3.756   5.705  0.4142  0.4089  0.5982
   83MOL0     C11351  -0.645   3.650   5.718 -0.1956 -0.0583 -0.0573
   83MOL0     O11352  -0.644   3.535   5.641 -0.0614  1.1230 -0.1363
   83MOL0     C11353  -0.746   3.433   5.665 -0.5365 -0.7412  0.0084
   83MOL0     C11354  -0.736   3.299   5.596 -0.3100 -0.6816 -0.2456
   83MOL0     C11355  -0.602   3.238   5.616  0.2699  0.4452  0.4606
   83MOL0     C11356  -0.615   3.089   5.571  0.3726  0.0485  0.8455
   83MOL0     C11357  -0.486   3.005   5.555  0.3294 -0.3568 -0.9338
   83MOL0     C11358  -0.387   3.032   5.671  0.4972  0.0297 -0.4506
   83MOL0     C11359  -0.244   2.965   5.673  0.4143  1.0968  0.4983
   83MOL0     C11360  -0.172   2.994   5.548 -0.9089  0.2477  0.1750
   83MOL0    Cl11361  -0.002   2.919   5.552  0.2635  0.5913 -0.3282
   83MOL0     C11362  -0.739   3.678   5.811 -0.4485  0.7706 -0.1613
   83MOL0     C11363  -0.735   3.800   5.883  0.5791  0.5547 -0.8641
   83MOL0     O11364  -0.631   4.155   5.765 -0.2574  0.2780  0.8654
   83MOL0     C11365  -0.757   4.244   6.065 -0.2763  0.9512 -0.7387
   83MOL0     C11366  -0.767   4.346   6.171 -1.0803  0.5226  0.3544
   83MOL0     N11367  -0.680   5.102   6.172  0.2554  0.1012 -0.1011
   83MOL0     N11368  -0.588   5.146   6.096  0.4667 -0.0595  0.5426
   83MOL0     C11369  -0.164   5.214   6.981 -0.0255 -0.1278 -0.0168
   83MOL0     C11370  -0.101   5.313   7.062  0.6444 -0.7409  0.1708
   83MOL0     C11371   0.169   5.479   7.368 -0.1755 -0.2996 -1.0251
   83MOL0     C11372   0.151   5.613   7.323 -0.5198  0.0580  0.1303
   83MOL0     C11373   0.181   5.730   7.400 -0.4430  0.1518 -0.8160
   83MOL0     C11374   0.218   5.718   7.536  0.2553 -0.1636  1.6117
   83MOL0     O11375   0.259   5.831   7.610  0.5840 -0.7277 -0.2177
   83MOL0     C11376   0.209   5.960   7.562 -0.4985 -0.0892  0.3663
   83MOL0     C11377   0.160   6.038   7.686  0.0569  0.0599 -0.9512
   83MOL0     C11378   0.119   6.174   7.634  0.2845 -0.6639 -1.6771
   83MOL0     C11379   0.080   6.290   7.739 -0.7402 -0.0008 -0.1737
   83MOL0     C11380   0.003   6.229   7.841  0.4949 -0.0535 -0.5469
   83MOL0     C11381  -0.056   6.166   7.929  0.4191  0.7226 -0.4134
   83MOL0     C11382   0.235   5.587   7.582 -0.0290 -0.0815 -0.1500
   83MOL0     C11383   0.215   5.471   7.502 -0.1609  0.5867  0.7774
   83MOL0     C11384   0.246   5.344   7.570  0.1098 -0.3472  0.5047
   83MOL0     H11385   0.218   5.218   7.017 -0.2578  1.8493 -0.3893
   83MOL0     H11386   0.098   5.048   6.868 -2.9413 -1.3267 -0.8678
   83MOL0     H11387  -0.188   4.892   6.696  0.7887 -2.4172  1.3118
   83MOL0     H11388  -0.018   4.931   6.724  0.1364  1.4517 -0.4003
   83MOL0     H11389  -0.207   5.086   6.565  1.2388 -0.4492 -1.6771
   83MOL0     H11390  -0.062   5.165   6.644  1.0637 -1.5771  1.4112
   83MOL0     H11391   0.067   4.983   6.538  1.5748  2.4065 -0.9641
   83MOL0     H11392  -0.071   4.946   6.438  1.4791 -0.5324  0.5455
   83MOL0     H11393   0.084   5.216   6.460 -3.9151 -1.7686  6.1257
   83MOL0     H11394   0.096   5.111   6.322 -1.2965  0.8574 -2.3562
   83MOL0     H11395  -0.038   5.303   6.289 -2.4759  0.1873  0.7846
   83MOL0     H11396  -0.166   5.245   6.399 -1.2627  3.4497 -2.6170
   83MOL0     H11397  -0.074   5.074   6.162  0.7581 -1.3223  2.8310
   83MOL0     H11398  -0.208   5.046   6.255 -1.4897  2.2187  0.8867
   83MOL0     H11399  -0.178   5.278   6.063  1.4613  0.0184  0.4457
   83MOL0     H11400  -0.287   5.297   6.210 -1.5696 -0.6424  0.2046
   83MOL0     H11401  -0.383   5.220   5.980 -3.5540  0.3641  1.8940
   83MOL0     H11402  -0.307   5.062   6.035  0.6512 -0.3945  2.5387
   83MOL0     H11403  -0.398   5.059   6.353 -2.1433  1.3923  3.7298
   83MOL0     H11404  -0.738   4.994   6.442  1.2626  0.2689  1.0468
   83MOL0     H11405  -0.588   4.904   6.432 -0.2176 -1.0288  1.2271
   83MOL0     H11406  -0.840   4.870   6.258  1.8048 -2.8888 -2.5309
   83MOL0     H11407  -0.679   4.799   6.233  3.1168  2.2711  1.5979
   83MOL0     H11408  -0.673   4.701   6.450  1.0260  4.0191 -0.8002
   83MOL0     H11409  -0.865   4.726   6.446  0.3587  0.9854  0.0855
   83MOL0     H11410  -0.829   4.510   6.402  2.4591 -4.3937 -2.7155
   83MOL0     H11411  -0.869   4.594   6.256 -0.4302  0.5072 -0.3615
   83MOL0     H11412  -0.471   4.497   6.096  0.3026  0.1340  0.3935
   83MOL0     H11413  -0.347   4.387   5.902  1.1964 -1.7573 -2.3581
   83MOL0     H11414  -0.479   4.436   5.794  2.5776  1.1057 -0.9164
   83MOL0     H11415  -0.429   4.267   5.813  1.6528  0.1620  1.3447
   83MOL0     H11416  -0.469   3.955   5.748 -1.3208 -0.1675 -2.0400
   83MOL0     H11417  -0.462   3.733   5.637 -0.7730 -0.1079 -0.6946
   83MOL0     H11418  -0.748   3.405   5.771  0.6954 -3.1623 -0.5351
   83MOL0     H11419  -0.844   3.472   5.637 -0.2164 -2.2268 -3.8597
   83MOL0     H11420  -0.819   3.239   5.635  0.0614 -1.3643 -0.4823
   83MOL0     H11421  -0.746   3.324   5.490 -1.5403  1.6534  0.3559
   83MOL0     H11422  -0.568   3.230   5.720  0.4156 -0.9252  0.3278
   83MOL0     H11423  -0.520   3.278   5.556 -0.7500 -0.2308 -1.4454
   83MOL0     H11424  -0.670   3.084   5.477  0.8133 -3.5199  0.6265
   83MOL0     H11425  -0.674   3.038   5.648 -3.7366  1.3636 -1.1986
   83MOL0     H11426  -0.510   2.898   5.559  4.1644 -1.3454  2.4650
   83MOL0     H11427  -0.450   3.024   5.453  0.2578 -1.0456 -1.0977
   83MOL0     H11428  -0.430   2.997   5.765  1.4046 -1.5212 -0.5798
   83MOL0     H11429  -0.364   3.138   5.685  2.2423 -0.4807  1.0307
   83MOL0     H11430  -0.262   2.857   5.683 -2.6486  1.5780  1.1999
   83MOL0     H11431  -0.186   3.005   5.756  0.8724  1.0718  0.1978
   83MOL0     H11432  -0.169   3.102   5.529 -1.6753  0.0919 -0.8771
   83MOL0     H11433  -0.232   2.947   5.471  0.1741 -3.4909  1.4246
   83MOL0     H11434  -0.825   3.615   5.832 -0.0277  1.0031  2.6615
   83MOL0     H11435  -0.800   3.813   5.970  2.3580 -1.1030  0.8156
   83MOL0     H11436  -0.832   4.166   6.076  0.7594  0.2958  3.1176
   83MOL0     H11437  -0.831   4.323   6.255  0.3803 -4.0334  0.4679
   83MOL0     H11438  -0.270   5.230   6.971  0.5806  4.1680 -1.5968
   83MOL0     H11439  -0.163   5.385   7.115 -0.9807 -1.5733 -0.5605
   83MOL0     H11440   0.120   5.639   7.222  1.4173 -1.1418 -0.8509
   83MOL0     H11441   0.152   5.825   7.356 -2.0555 -0.4461 -1.1148
   83MOL0     H11442   0.289   6.015   7.511 -1.5849  0.7052 -0.5037
   83MOL0     H11443   0.121   5.953   7.499 -1.4520 -2.9398  1.8031
   83MOL0     H11444   0.238   6.045   7.763 -2.2692 -0.0580  1.5804
   83MOL0     H11445   0.066   5.997   7.723 -0.8618  0.2642 -2.9320
   83MOL0     H11446   0.191   6.218   7.564 -2.4551  1.9796 -3.0930
   83MOL0     H11447   0.030   6.153   7.573 -1.4185 -1.7803  1.0256
   83MOL0     H11448   0.018   6.366   7.690 -1.5465 -0.0382  0.7630
   83MOL0     H11449   0.158   6.342   7.797 -3.0717 -0.7363  4.0728
   83MOL0     H11450  -0.096   6.106   8.008  0.8143 -0.9599 -1.4198
   83MOL0     H11451   0.271   5.569   7.682 -4.4545  0.6740  1.8329
   83MOL0     H11452   0.163   5.276   7.551 -0.2265 -0.4602  2.2402
   83MOL0     H11453   0.345   5.301   7.550 -1.0529 -2.1543 -1.9323
   83MOL0     H11454   0.245   5.363   7.677 -0.2293 -1.7405  0.7684
   84MOL0     O11455   1.021   1.727   4.150  0.0031 -0.9143 -0.0347
   84MOL0     C11456   1.095   1.716   4.056 -0.3080 -0.3053  0.8188
   84MOL0     O11457   1.227   1.741   4.049 -0.2749  0.7131  0.0466
   84MOL0     C11458   1.301   1.785   4.156 -1.0650  0.7948  0.9058
   84MOL0     C11459   1.426   1.823   4.107  0.1741  0.7095  0.0475
   84MOL0     C11460   1.524   1.875   4.192  0.0682  0.0709  0.6047
   84MOL0     C11461   1.499   1.884   4.336 -0.2800  0.8358  0.4477
   84MOL0     O11462   1.596   1.926   4.421  0.4856 -0.0322 -0.8724
   84MOL0     C11463   1.704   2.016   4.377  0.1502  0.6308 -0.6163
   84MOL0     C11464   1.653   2.146   4.340  0.6396  0.0440 -0.5278
   84MOL0     C11465   1.769   2.230   4.276 -0.2590  0.0807 -0.6658
   84MOL0     C11466   1.701   2.370   4.245 -0.1596 -0.9575 -0.2698
   84MOL0     C11467   1.598   2.375   4.129  0.0294  0.1924 -0.5390
   84MOL0     C11468   1.654   2.357   3.985  0.5612 -0.1215 -0.0571
   84MOL0     C11469   1.571   2.426   3.876  0.1018  0.8476 -0.6973
   84MOL0     C11470   1.652   2.554   3.845 -0.0447 -0.2808 -0.3277
   84MOL0     N11471   1.571   2.655   3.777 -1.0118  0.4247  0.4209
   84MOL0     C11472   1.448   2.707   3.815 -1.0839 -0.3627 -0.3046
   84MOL0     C11473   1.416   2.799   3.723  0.4121  0.1023 -0.5578
   84MOL0     C11474   1.299   2.901   3.737 -0.7657 -0.4955  0.7438
   84MOL0     C11475   1.330   3.000   3.844  0.1379 -0.4991 -0.4333
   84MOL0     C11476   1.218   2.997   3.949 -0.0443 -0.3191  0.2090
   84MOL0     C11477   1.206   3.143   4.010  0.5469  0.3639  0.3401
   84MOL0     O11478   1.330   3.194   4.060 -0.7106 -0.4973 -0.3898
   84MOL0     C11479   1.385   3.107   4.147 -0.1149 -0.5815 -0.4144
   84MOL0     C11480   1.517   3.065   4.136 -0.8402 -0.5169  0.3310
   84MOL0     C11481   1.581   2.970   4.217 -0.3806 -0.0248  0.0370
   84MOL0     C11482   1.719   2.930   4.191  0.0718  0.2587  0.5662
   84MOL0     C11483   1.505   2.907   4.319 -0.6315  0.3272  1.3800
   84MOL0     C11484   1.558   2.801   4.413  0.7353 -0.5222 -0.9129
   84MOL0     O11485   1.664   2.815   4.491 -0.6838  0.0857  0.8484
   84MOL0     C11486   1.712   2.701   4.553  0.2532 -0.0880 -0.0497
   84MOL0     C11487   1.632   2.641   4.657  0.2846  0.0229  0.2687
   84MOL0     C11488   1.671   2.518   4.715  0.0422  0.0969  0.0669
   84MOL0     C11489   1.784   2.438   4.678 -0.3406 -0.6177 -0.4617
   84MOL0     O11490   1.816   2.324   4.744  0.0925 -0.1138 -0.2851
   84MOL0     C11491   1.919   2.229   4.687  0.5179 -0.4336 -0.0285
   84MOL0     C11492   1.913   2.092   4.754  0.0339  0.3880  0.2354
   84MOL0     C11493   1.982   2.082   4.893 -0.2123 -0.2183 -0.1459
   84MOL0     C11494   1.961   1.944   4.952 -0.2942  1.2694 -1.1791
   84MOL0     C11495   2.071   1.920   5.055  0.3743  0.5099 -0.1170
   84MOL0     C11496   2.039   1.789   5.132 -0.2375 -0.1629 -0.3504
   84MOL0     C11497   1.944   1.814   5.243  0.1282  0.2381  0.4212
   84MOL0     C11498   1.874   1.687   5.274  0.3233 -0.3365 -0.4154
   84MOL0    Cl11499   1.991   1.576   5.332  0.3381  0.5287 -0.3326
   84MOL0     C11500   1.850   2.496   4.564  0.3204  0.8259  1.0017
   84MOL0     C11501   1.823   2.625   4.504 -0.4081  0.1954 -0.5576
   84MOL0     O11502   1.487   2.700   4.401  0.6217  0.2256 -0.7243
   84MOL0     C11503   1.374   2.954   4.332 -0.5482 -0.4742  0.6090
   84MOL0     C11504   1.313   3.057   4.252  0.2207 -0.3311  0.1222
   84MOL0     N11505   1.513   2.797   3.621  0.1081 -0.5102 -0.5282
   84MOL0     N11506   1.615   2.720   3.666  0.2024 -0.7860  0.2986
   84MOL0     C11507   1.366   1.860   4.376 -0.3117  0.1618  0.0900
   84MOL0     C11508   1.270   1.804   4.288 -1.1881 -0.8475 -0.5098
   84MOL0     C11509   1.043   1.673   3.919  0.5371  0.0464  0.2635
   84MOL0     C11510   1.122   1.693   3.803  0.0836 -0.4445 -0.3040
   84MOL0     C11511   1.083   1.649   3.675  0.0495  0.5389  0.3871
   84MOL0     C11512   0.955   1.589   3.649 -0.7431  0.5017  0.0147
   84MOL0     O11513   0.916   1.554   3.528  0.1352 -0.0752 -0.9824
   84MOL0     C11514   0.984   1.486   3.429  0.4402  0.1806  0.4472
   84MOL0     C11515   0.962   1.328   3.430 -0.2446 -0.4930 -0.0425
   84MOL0     C11516   1.057   1.263   3.531  0.1826  0.4479 -1.4442
   84MOL0     C11517   0.974   1.193   3.629  0.6024  0.0700  0.3970
   84MOL0     C11518   1.061   1.159   3.734  0.3801 -0.0156  0.0807
   84MOL0     C11519   1.123   1.141   3.828 -0.1766  0.0154 -0.0793
   84MOL0     C11520   0.878   1.573   3.764  0.2610  0.1397 -0.4352
   84MOL0     C11521   0.920   1.614   3.899  0.7633 -0.1538 -0.5202
   84MOL0     C11522   0.817   1.570   4.007 -0.3021  0.1970  0.0970
   84MOL0     H11523   1.453   1.814   4.002  1.3472 -0.6288  0.4322
   84MOL0     H11524   1.619   1.912   4.155 -0.5633  2.1737  0.9719
   84MOL0     H11525   1.764   1.967   4.299 -1.0300 -0.1998 -1.0313
   84MOL0     H11526   1.767   2.036   4.464 -0.0484 -0.4233 -0.2186
   84MOL0     H11527   1.573   2.132   4.266 -1.0564  0.7318  1.0826
   84MOL0     H11528   1.620   2.190   4.435 -0.8358 -0.0799 -0.9520
   84MOL0     H11529   1.847   2.249   4.350 -0.4471  2.8381 -1.0562
   84MOL0     H11530   1.814   2.180   4.190  1.0217  0.8492 -0.4651
   84MOL0     H11531   1.664   2.426   4.332  2.0008  1.2415 -0.6521
   84MOL0     H11532   1.778   2.435   4.202 -0.0419 -1.4374 -0.8014
   84MOL0     H11533   1.564   2.478   4.144  0.1569 -0.1697  3.1354
   84MOL0     H11534   1.515   2.306   4.144  1.1809 -0.7668  1.9243
   84MOL0     H11535   1.753   2.401   3.979  0.6566 -0.2141  0.7521
   84MOL0     H11536   1.672   2.251   3.964 -1.1083 -0.8024  1.6040
   84MOL0     H11537   1.465   2.432   3.899  0.2079 -1.1894  0.5492
   84MOL0     H11538   1.566   2.361   3.788 -1.3487  0.3386 -0.2579
   84MOL0     H11539   1.680   2.603   3.938 -0.7050 -0.6299  0.0648
   84MOL0     H11540   1.749   2.534   3.800  0.9246  1.7151  0.7549
   84MOL0     H11541   1.386   2.683   3.901 -0.9666  1.4453  0.3303
   84MOL0     H11542   1.218   2.832   3.760 -0.1760 -0.8943  1.7095
   84MOL0     H11543   1.294   2.948   3.639  0.2741 -2.4494 -0.2989
   84MOL0     H11544   1.422   2.968   3.894  1.0171 -1.1654 -2.3981
   84MOL0     H11545   1.343   3.104   3.812 -1.2314 -0.5757 -1.3246
   84MOL0     H11546   1.121   2.959   3.917  0.3515  0.4720 -2.0786
   84MOL0     H11547   1.262   2.929   4.022  1.0268  0.8838  0.7419
   84MOL0     H11548   1.177   3.214   3.931 -1.3574 -1.7355 -0.9785
   84MOL0     H11549   1.130   3.138   4.088  0.1767 -2.7484 -0.1084
   84MOL0     H11550   1.577   3.105   4.055  0.5710 -0.0129  1.5864
   84MOL0     H11551   1.776   3.018   4.157  0.4979 -0.2434 -0.0593
   84MOL0     H11552   1.725   2.855   4.111  2.8652  1.8949 -0.9285
   84MOL0     H11553   1.767   2.884   4.278 -0.1431  0.2218  0.6653
   84MOL0     H11554   1.546   2.691   4.700  1.5736  0.6211  2.2953
   84MOL0     H11555   1.620   2.465   4.795  0.8086  0.0809  0.5606
   84MOL0     H11556   1.877   2.213   4.587  1.2908 -1.4837 -0.2047
   84MOL0     H11557   2.017   2.278   4.690  0.3808 -0.1034 -0.7154
   84MOL0     H11558   1.804   2.078   4.752  0.0259  0.4645  0.0487
   84MOL0     H11559   1.956   2.021   4.683 -0.8941 -0.9157  0.9319
   84MOL0     H11560   1.939   2.152   4.965 -0.8178 -1.2076  0.4887
   84MOL0     H11561   2.090   2.081   4.876  0.0764 -2.0313  1.4673
   84MOL0     H11562   1.964   1.860   4.882 -1.1216 -1.2759  1.5685
   84MOL0     H11563   1.863   1.951   5.001  0.3907  0.9537  0.3182
   84MOL0     H11564   2.171   1.906   5.012  0.4260  1.6273 -0.3779
   84MOL0     H11565   2.071   2.004   5.125 -0.4765  0.8773 -0.5437
   84MOL0     H11566   2.133   1.754   5.175 -0.3087  0.8989  0.7110
   84MOL0     H11567   1.999   1.716   5.062  1.1231 -0.3777 -0.9452
   84MOL0     H11568   1.875   1.898   5.228  0.8858  0.6915 -0.6282
   84MOL0     H11569   2.002   1.860   5.324 -1.3973  2.1249  0.5187
   84MOL0     H11570   1.818   1.638   5.193 -3.4319  1.0015  1.1299
   84MOL0     H11571   1.799   1.710   5.350 -3.5222 -2.1991 -3.2973
   84MOL0     H11572   1.927   2.435   4.518 -0.1392 -1.2266  2.8263
   84MOL0     H11573   1.877   2.656   4.416 -1.7997  0.4863 -1.3496
   84MOL0     H11574   1.318   2.913   4.416 -1.2026  1.7372  1.3517
   84MOL0     H11575   1.210   3.082   4.276  0.9553 -0.0353  3.4991
   84MOL0     H11576   1.341   1.879   4.480 -1.0349  0.4826 -0.1381
   84MOL0     H11577   1.176   1.767   4.327 -0.5067  0.6247  2.8307
   84MOL0     H11578   1.217   1.743   3.817 -1.5923  2.1503  3.1029
   84MOL0     H11579   1.149   1.662   3.590 -1.4915 -0.6806 -1.0594
   84MOL0     H11580   0.959   1.524   3.330  3.1317 -0.6603 -0.6568
   84MOL0     H11581   1.093   1.494   3.424  1.0714 -5.4540 -2.1749
   84MOL0     H11582   0.996   1.291   3.333  2.0105 -1.0741  0.8852
   84MOL0     H11583   0.855   1.309   3.440 -0.9247  2.2045 -1.4307
   84MOL0     H11584   1.105   1.181   3.477 -0.2884 -1.4956  0.8855
   84MOL0     H11585   1.129   1.336   3.570 -0.2542  1.4442 -2.4716
   84MOL0     H11586   0.921   1.116   3.571  1.6109  0.0320 -0.5027
   84MOL0     H11587   0.892   1.250   3.673  0.8360  0.0335  0.8863
   84MOL0     H11588   1.189   1.143   3.912 -2.0513  0.1842  1.4506
   84MOL0     H11589   0.778   1.531   3.755 -1.6172  4.0090  0.4566
   84MOL0     H11590   0.799   1.462   4.008  0.9259 -0.0221  1.7389
   84MOL0     H11591   0.846   1.592   4.110  2.8936 -0.2833 -0.6083
   84MOL0     H11592   0.722   1.619   3.981 -0.0250  0.4347 -0.5093
   85MOL0     O11593   0.912   1.971   7.882 -1.0674  0.0297  0.4549
   85MOL0     C11594   0.863   2.076   7.915 -0.0950 -0.3879  0.2355
   85MOL0     O11595   0.783   2.154   7.836  0.0473 -0.4369 -0.0419
   85MOL0     C11596   0.734   2.109   7.715  0.2219 -0.2375 -0.1046
   85MOL0     C11597   0.603   2.159   7.683 -0.3124  0.2867  0.5666
   85MOL0     C11598   0.546   2.148   7.558  0.0635  0.1671  0.5259
   85MOL0     C11599   0.618   2.071   7.460  0.3494  0.1058  0.3368
   85MOL0     O11600   0.576   2.034   7.337  0.1542 -0.0002  0.1004
   85MOL0     C11601   0.455   2.084   7.270 -0.2942  0.1029 -1.1022
   85MOL0     C11602   0.485   2.203   7.185  0.1225 -0.4976 -1.1039
   85MOL0     C11603   0.540   2.317   7.267  0.0299  0.1370 -0.4746
   85MOL0     C11604   0.554   2.452   7.198 -0.4510  0.0175  1.1636
   85MOL0     C11605   0.627   2.557   7.279  0.4876 -0.3149 -0.5015
   85MOL0     C11606   0.780   2.535   7.244 -0.4292  0.7151  0.0443
   85MOL0     C11607   0.810   2.611   7.113  0.3822 -0.1610 -0.2716
   85MOL0     C11608   0.960   2.649   7.104  0.4769  0.1251  0.1490
   85MOL0     N11609   1.016   2.664   6.964 -0.3063 -0.2698 -0.2143
   85MOL0     C11610   0.942   2.734   6.874 -0.0816 -0.7669 -0.5993
   85MOL0     C11611   0.998   2.709   6.757 -0.4734  1.2209  0.1597
   85MOL0     C11612   0.986   2.813   6.647 -1.1040 -0.0432 -0.0035
   85MOL0     C11613   0.857   2.802   6.574  0.0865 -0.1207  0.2208
   85MOL0     C11614   0.831   2.925   6.470 -0.3030  0.1509 -0.1805
   85MOL0     C11615   0.790   3.058   6.539 -0.7008 -0.5872  0.4264
   85MOL0     O11616   0.744   3.133   6.425  0.1452  0.4270 -0.3065
   85MOL0     C11617   0.810   3.250   6.381 -0.6132  0.3700 -0.0690
   85MOL0     C11618   0.740   3.354   6.314  0.0291  0.3596  0.0928
   85MOL0     C11619   0.806   3.469   6.275  1.0123  1.1902 -1.2769
   85MOL0     C11620   0.717   3.570   6.205  0.1965 -0.2754  0.7138
   85MOL0     C11621   0.940   3.492   6.297  1.0548  0.2638 -0.6153
   85MOL0     C11622   1.005   3.620   6.267 -0.4310 -0.0575 -0.7802
   85MOL0     O11623   1.040   3.641   6.139  0.6380 -0.7151  0.2569
   85MOL0     C11624   1.060   3.782   6.109  1.4734 -0.0422  0.1477
   85MOL0     C11625   0.958   3.854   6.043 -0.0001  0.5582  0.2944
   85MOL0     C11626   0.977   3.987   5.997  0.2797  0.1049 -0.0890
   85MOL0     C11627   1.106   4.045   6.016 -0.3359  1.2011  0.5188
   85MOL0     O11628   1.119   4.181   5.985  0.2782  0.0051  1.6976
   85MOL0     C11629   1.225   4.252   6.041 -0.4939 -0.6728  0.2820
   85MOL0     C11630   1.214   4.400   5.999  0.9858 -0.5612  0.4272
   85MOL0     C11631   1.241   4.406   5.844 -0.6636 -0.4138 -0.2209
   85MOL0     C11632   1.212   4.549   5.806  1.3151 -0.5219 -0.1778
   85MOL0     C11633   1.226   4.562   5.652 -1.0710 -0.4275  0.2633
   85MOL0     C11634   1.123   4.654   5.585  0.2338 -0.2475 -0.9420
   85MOL0     C11635   1.159   4.805   5.606 -0.8383  0.1230 -0.2392
   85MOL0     C11636   1.028   4.880   5.625  0.2989 -0.7550  0.1285
   85MOL0    Cl11637   0.933   4.865   5.473 -0.3177 -0.4689 -0.2055
   85MOL0     C11638   1.212   3.967   6.063  0.3660 -0.1099 -0.0599
   85MOL0     C11639   1.184   3.840   6.116  0.7836  0.3113  0.7465
   85MOL0     O11640   1.025   3.692   6.359  0.5346  0.2118  0.7284
   85MOL0     C11641   1.015   3.383   6.350 -0.2514 -0.3899  1.1948
   85MOL0     C11642   0.957   3.267   6.392  1.9974 -0.6860 -0.6407
   85MOL0     N11643   1.079   2.600   6.766 -0.1338  0.6392  0.5040
   85MOL0     N11644   1.088   2.571   6.893  0.1980 -0.6703  0.6268
   85MOL0     C11645   0.746   2.014   7.489  0.7112  0.2035 -0.0296
   85MOL0     C11646   0.803   2.040   7.616 -0.7882  0.1401  1.1258
   85MOL0     C11647   0.894   2.130   8.045 -0.3362 -0.1658  0.2610
   85MOL0     C11648   0.880   2.265   8.074 -0.2781 -0.5574  0.3122
   85MOL0     C11649   0.943   2.325   8.183  0.9245  0.6263  0.2774
   85MOL0     C11650   1.006   2.244   8.287  0.1852  0.9723 -0.1348
   85MOL0     O11651   1.053   2.298   8.407  0.0384 -0.1094  0.4337
   85MOL0     C11652   0.976   2.257   8.524  0.4043 -0.8784 -0.4599
   85MOL0     C11653   1.061   2.270   8.645 -0.1476 -0.1450 -0.2630
   85MOL0     C11654   1.123   2.404   8.680 -0.1300 -0.2899  0.5122
   85MOL0     C11655   1.007   2.508   8.685  0.8709 -0.2664  0.9620
   85MOL0     C11656   1.046   2.619   8.772  0.2871 -0.1748 -0.6428
   85MOL0     C11657   1.109   2.693   8.843  0.2644  0.6708 -0.1498
   85MOL0     C11658   1.006   2.107   8.264 -0.1619  0.2468  0.1917
   85MOL0     C11659   0.942   2.048   8.148  0.8601 -0.4212 -0.7715
   85MOL0     C11660   0.924   1.895   8.149  0.5107  0.2607 -0.6953
   85MOL0     H11661   0.553   2.212   7.763  0.6200  0.9991  0.6931
   85MOL0     H11662   0.453   2.197   7.530 -0.7917 -2.5804 -1.9850
   85MOL0     H11663   0.376   2.106   7.343  0.4142 -1.8362  0.3445
   85MOL0     H11664   0.428   1.997   7.209 -0.9700 -1.6518  1.4931
   85MOL0     H11665   0.549   2.168   7.104  1.6427  1.7015 -0.9446
   85MOL0     H11666   0.390   2.245   7.150 -0.2735 -1.4012 -1.1395
   85MOL0     H11667   0.474   2.335   7.351  0.5486  3.5767 -0.6459
   85MOL0     H11668   0.638   2.292   7.310 -0.4659 -0.7128  0.1916
   85MOL0     H11669   0.619   2.431   7.112 -1.6933  2.0496 -0.3578
   85MOL0     H11670   0.459   2.478   7.149  0.3591 -1.0897 -1.1662
   85MOL0     H11671   0.617   2.551   7.387  0.0499  1.0181 -0.4587
   85MOL0     H11672   0.603   2.660   7.251  2.7169  0.3781 -0.0564
   85MOL0     H11673   0.850   2.562   7.323 -0.2556  0.0546  0.1176
   85MOL0     H11674   0.793   2.429   7.222 -0.7551  0.2989  1.7169
   85MOL0     H11675   0.750   2.701   7.100  0.2624 -0.2305 -0.2008
   85MOL0     H11676   0.795   2.542   7.029  3.2254 -1.9318  0.5180
   85MOL0     H11677   0.985   2.737   7.165  1.7050 -1.8710  2.7014
   85MOL0     H11678   1.018   2.572   7.156 -0.6980 -0.2812  0.8879
   85MOL0     H11679   0.856   2.799   6.890  0.0239 -0.6102 -0.6791
   85MOL0     H11680   1.074   2.811   6.582 -1.2095  4.1921 -0.5559
   85MOL0     H11681   0.996   2.915   6.683  0.1076  1.3385 -3.8307
   85MOL0     H11682   0.858   2.703   6.527 -1.2168  0.3462 -0.8472
   85MOL0     H11683   0.778   2.799   6.649 -0.7190 -2.0143 -0.6420
   85MOL0     H11684   0.922   2.928   6.409 -0.3163 -2.3244 -0.3933
   85MOL0     H11685   0.749   2.896   6.404 -0.0248 -3.4614  0.8409
   85MOL0     H11686   0.702   3.051   6.604 -1.1615  0.0731 -0.1047
   85MOL0     H11687   0.870   3.097   6.602 -1.4520 -4.1599  4.0256
   85MOL0     H11688   0.633   3.339   6.300 -0.1191 -0.1068  1.5016
   85MOL0     H11689   0.770   3.603   6.115  1.4515  1.0913  1.9119
   85MOL0     H11690   0.717   3.660   6.267 -0.5675  2.4941 -2.9481
   85MOL0     H11691   0.616   3.541   6.175  0.3435  0.0458 -0.1411
   85MOL0     H11692   0.867   3.796   6.030  1.2777 -1.8593  1.5701
   85MOL0     H11693   0.910   4.045   5.934 -2.1883 -1.1520  1.2222
   85MOL0     H11694   1.219   4.247   6.150 -1.1380  1.2044  0.3693
   85MOL0     H11695   1.318   4.215   5.997  0.5098  1.6881  0.2337
   85MOL0     H11696   1.113   4.432   6.024 -0.1867 -1.0714 -3.1170
   85MOL0     H11697   1.292   4.464   6.043  1.0953 -0.6435  0.3519
   85MOL0     H11698   1.165   4.346   5.794  0.4385 -0.5000 -1.8615
   85MOL0     H11699   1.337   4.382   5.798 -0.2550 -2.7858  1.6732
   85MOL0     H11700   1.277   4.622   5.855 -1.6082  0.8918  1.8946
   85MOL0     H11701   1.107   4.559   5.836  0.6901 -3.8231 -0.9188
   85MOL0     H11702   1.328   4.585   5.619 -0.9140 -1.4619 -0.0121
   85MOL0     H11703   1.214   4.471   5.592 -0.3896 -0.5369  0.2868
   85MOL0     H11704   1.027   4.627   5.629 -0.6389  3.7533  0.0347
   85MOL0     H11705   1.121   4.649   5.476  0.6783  1.9985 -1.1061
   85MOL0     H11706   1.220   4.841   5.523  0.5215 -0.0973  0.6436
   85MOL0     H11707   1.215   4.807   5.700  1.0004 -1.8888 -1.2239
   85MOL0     H11708   1.057   4.986   5.635  0.6730 -0.9188  0.8798
   85MOL0     H11709   0.959   4.838   5.698 -0.2191 -1.0099 -0.5048
   85MOL0     H11710   1.314   4.002   6.069  0.4608  0.3508 -2.9464
   85MOL0     H11711   1.258   3.775   6.163  1.2154  0.9133  0.9043
   85MOL0     H11712   1.120   3.398   6.374  0.1957 -0.3553 -0.6111
   85MOL0     H11713   1.026   3.195   6.433  2.0203 -1.7626 -2.4374
   85MOL0     H11714   0.785   1.952   7.409 -0.8376 -1.2231  0.2828
   85MOL0     H11715   0.910   2.037   7.630 -0.8418  2.7666  2.7890
   85MOL0     H11716   0.844   2.337   8.001  4.4548  0.0943 -1.7976
   85MOL0     H11717   0.939   2.433   8.193  0.1811  0.5295  1.0799
   85MOL0     H11718   0.889   2.322   8.533  2.4176  1.8926  0.1231
   85MOL0     H11719   0.952   2.151   8.513  2.2424 -1.2056 -1.8350
   85MOL0     H11720   1.147   2.203   8.647 -0.1125 -0.0919 -0.0515
   85MOL0     H11721   0.994   2.246   8.728 -0.5478  2.6396  0.3247
   85MOL0     H11722   1.167   2.387   8.779  0.6862  0.0937  0.2203
   85MOL0     H11723   1.192   2.441   8.604 -2.8778  0.5640 -1.7011
   85MOL0     H11724   0.913   2.468   8.724  0.1521  0.8193  0.3893
   85MOL0     H11725   0.995   2.529   8.579  1.1402 -1.8170  0.6111
   85MOL0     H11726   1.172   2.756   8.903 -0.0738  1.8108 -0.9455
   85MOL0     H11727   1.041   2.037   8.340 -2.8249 -0.3273  0.9731
   85MOL0     H11728   0.991   1.853   8.073 -1.5942  1.6134 -3.4948
   85MOL0     H11729   0.934   1.852   8.249 -0.6697 -1.4561 -1.2632
   85MOL0     H11730   0.820   1.868   8.127  0.1448  0.7894  0.3649
   86MOL0     O11731   4.099   9.407   9.268  0.2653  0.3367  0.4753
   86MOL0     C11732   4.189   9.320   9.250  0.8826  0.2351  0.0352
   86MOL0     O11733   4.239   9.245   9.348 -0.1079  0.9221 -0.4462
   86MOL0     C11734   4.176   9.240   9.475  0.0537  0.4144  1.1485
   86MOL0     C11735   4.049   9.176   9.478 -0.2046  0.2604  0.0402
   86MOL0     C11736   3.990   9.164   9.605  0.4652 -0.3692 -0.4946
   86MOL0     C11737   4.058   9.204   9.725  0.5077 -0.0450 -0.8463
   86MOL0     O11738   3.980   9.174   9.838 -0.5673 -0.5945  0.1074
   86MOL0     C11739   4.044   9.212   9.968 -0.2558 -0.2724  0.6050
   86MOL0     C11740   3.952   9.187  10.079  0.5566 -0.2673  0.7687
   86MOL0     C11741   3.987   9.290  10.187  0.4500  0.0505  0.2881
   86MOL0     C11742   3.906   9.253  10.310  0.7617 -0.1942 -1.1480
   86MOL0     C11743   3.933   9.353  10.421  0.3024 -0.3754  1.2732
   86MOL0     C11744   3.820   9.367  10.510 -0.1657  0.3800 -0.0031
   86MOL0     C11745   3.856   9.440  10.642 -0.0139 -1.2842 -0.4980
   86MOL0     C11746   3.926   9.583  10.635  0.2252  0.6457 -0.3848
   86MOL0     N11747   3.834   9.674  10.567  0.2722 -0.0873 -0.4029
   86MOL0     C11748   3.706   9.666  10.545  0.3575  0.9757  0.3019
   86MOL0     C11749   3.673   9.744  10.436 -0.3026 -0.3843  0.9555
   86MOL0     C11750   3.534   9.757  10.370 -1.3309  0.1837 -0.2007
   86MOL0     C11751   3.524   9.851  10.250 -1.1244 -0.4770  0.2556
   86MOL0     C11752   3.376   9.851  10.186 -0.4683 -0.1648 -1.1556
   86MOL0     C11753   3.294   9.950  10.272 -0.0354  0.8468  0.0330
   86MOL0     O11754   3.207  10.023  10.181 -0.0996  0.2060  0.7902
   86MOL0     C11755   3.106   9.955  10.111 -0.0119  1.4951 -0.5942
   86MOL0     C11756   3.036   9.845  10.172  0.6238 -0.0225 -0.7045
   86MOL0     C11757   2.927   9.779  10.110  0.0901  0.6466 -0.6935
   86MOL0     C11758   2.836   9.682  10.181  0.8616 -0.4797  1.4650
   86MOL0     C11759   2.892   9.812   9.978  0.1640  0.7274  0.8405
   86MOL0     C11760   2.785   9.746   9.890 -0.0241 -0.1852 -0.3365
   86MOL0     O11761   2.741   9.836   9.800 -0.2365  0.1614  0.9161
   86MOL0     C11762   2.645   9.792   9.712 -0.3349 -0.2250 -0.6098
   86MOL0     C11763   2.671   9.772   9.577 -0.5603  0.1278 -0.0891
   86MOL0     C11764   2.575   9.727   9.482  0.0466 -0.3551 -0.9265
   86MOL0     C11765   2.436   9.708   9.515  1.0120 -0.5656 -0.7438
   86MOL0     O11766   2.343   9.653   9.435  0.7072 -0.2902 -0.8100
   86MOL0     C11767   2.392   9.541   9.358 -0.3800 -0.4134 -0.0105
   86MOL0     C11768   2.277   9.448   9.324 -0.6873 -0.2750  1.0008
   86MOL0     C11769   2.188   9.508   9.212  0.0046  0.0851 -0.3032
   86MOL0     C11770   2.065   9.415   9.189 -0.7951  0.3537  0.4045
   86MOL0     C11771   1.965   9.459   9.075  0.4606  0.3408  0.1246
   86MOL0     C11772   1.884   9.352   8.999  0.6119 -0.6805 -0.4126
   86MOL0     C11773   1.809   9.396   8.873  0.2198  0.2670 -0.6364
   86MOL0     C11774   1.897   9.420   8.764 -0.5699  0.3546 -0.6941
   86MOL0    Cl11775   1.815   9.354   8.615 -0.0882 -0.7290 -0.3214
   86MOL0     C11776   2.400   9.742   9.646  0.1770  0.2677  0.1561
   86MOL0     C11777   2.506   9.782   9.741 -0.0908  0.2052  0.1005
   86MOL0     O11778   2.764   9.624   9.892  0.0403 -0.0900  0.4346
   86MOL0     C11779   2.970   9.909   9.913  0.4152  0.4074  0.2791
   86MOL0     C11780   3.066   9.984   9.979 -0.9248 -0.0896 -1.0204
   86MOL0     N11781   3.785   9.812  10.408 -0.5050  0.1720 -1.1276
   86MOL0     N11782   3.885   9.771  10.489  0.2656  0.9371  1.3491
   86MOL0     C11783   4.181   9.268   9.716  0.3886 -0.3430 -0.0334
   86MOL0     C11784   4.234   9.281   9.592 -0.1831 -1.3468 -0.1054
   86MOL0     C11785   4.257   9.325   9.118  0.3157  0.5225  0.6620
   86MOL0     C11786   4.284   9.451   9.071  0.3595  0.6196 -0.2281
   86MOL0     C11787   4.347   9.478   8.948  0.3573 -0.8855  0.2798
   86MOL0     C11788   4.386   9.369   8.876 -0.2684  0.6451 -0.4224
   86MOL0     O11789   4.452   9.374   8.753  1.0720  0.0168  0.1461
   86MOL0     C11790   4.465   9.508   8.689 -0.3020  0.1373 -0.3761
   86MOL0     C11791   4.554   9.487   8.564  0.2838  0.2393 -0.4818
   86MOL0     C11792   4.688   9.396   8.571  0.6704  0.1308 -0.0582
   86MOL0     C11793   4.781   9.455   8.673  0.3233  0.2957  0.2557
   86MOL0     C11794   4.781   9.393   8.801  0.1182 -0.1935 -0.4412
   86MOL0     C11795   4.790   9.320   8.894 -0.1202 -0.3876  0.8530
   86MOL0     C11796   4.374   9.237   8.931  1.3745  0.2840 -0.0769
   86MOL0     C11797   4.299   9.212   9.047  0.4920  0.3156 -0.5902
   86MOL0     C11798   4.252   9.074   9.088  0.6446 -0.1936 -0.3320
   86MOL0     H11799   4.004   9.145   9.385  0.7624  0.1022 -0.3887
   86MOL0     H11800   3.891   9.120   9.616  0.1024  0.4188 -0.5059
   86MOL0     H11801   4.077   9.316   9.967 -3.4759  0.8514  0.5030
   86MOL0     H11802   4.127   9.144   9.990 -0.7356 -0.1840  2.9100
   86MOL0     H11803   3.847   9.187  10.047  0.4031  0.5725  1.2331
   86MOL0     H11804   3.977   9.084  10.107 -1.4455 -1.9275 -2.9399
   86MOL0     H11805   4.093   9.281  10.214 -0.0408  2.3964  3.6588
   86MOL0     H11806   3.963   9.392  10.156  3.4763  0.0035 -2.7779
   86MOL0     H11807   3.801   9.252  10.280  1.0579 -2.0730 -2.2912
   86MOL0     H11808   3.923   9.147  10.331 -2.3244 -1.2073 -3.0542
   86MOL0     H11809   3.959   9.447  10.370 -1.2236  0.3397  1.7469
   86MOL0     H11810   4.017   9.313  10.478  0.9784  1.1811  1.4174
   86MOL0     H11811   3.746   9.417  10.446 -0.1836  1.0151  0.4986
   86MOL0     H11812   3.783   9.267  10.532  4.0007 -1.0731  1.2622
   86MOL0     H11813   3.936   9.381  10.688  0.1916 -0.4219  0.2906
   86MOL0     H11814   3.777   9.441  10.717 -0.0825 -3.3172 -0.5043
   86MOL0     H11815   3.946   9.628  10.732 -0.1097 -0.6681  0.3112
   86MOL0     H11816   4.022   9.580  10.583 -0.8177 -0.0019 -2.4109
   86MOL0     H11817   3.641   9.596  10.595 -1.7710  0.2570 -3.1468
   86MOL0     H11818   3.475   9.797  10.452 -2.8108 -5.5182  1.9983
   86MOL0     H11819   3.509   9.654  10.341  1.6745 -1.1192  1.3417
   86MOL0     H11820   3.572   9.948  10.262  1.2396 -1.3044 -1.6315
   86MOL0     H11821   3.573   9.794  10.170 -1.2202  1.5629 -1.3335
   86MOL0     H11822   3.376   9.879  10.080 -1.1522  3.9894 -0.2246
   86MOL0     H11823   3.326   9.755  10.203 -0.2163  0.1643  1.9796
   86MOL0     H11824   3.242   9.892  10.348  3.5509  0.1507  2.1909
   86MOL0     H11825   3.347  10.034  10.317 -0.2210  1.6847 -1.2509
   86MOL0     H11826   3.051   9.811  10.274 -2.3495 -0.6505 -0.3723
   86MOL0     H11827   2.866   9.653  10.283  0.9317 -5.1570  0.3249
   86MOL0     H11828   2.841   9.589  10.124 -0.7488  0.9819 -1.2294
   86MOL0     H11829   2.735   9.722  10.193 -0.2565 -3.5395  3.2872
   86MOL0     H11830   2.766   9.809   9.541 -2.1253  3.1781 -1.5115
   86MOL0     H11831   2.599   9.727   9.376  1.0284  4.2232 -0.8948
   86MOL0     H11832   2.462   9.572   9.280  0.1887  3.9328  1.9700
   86MOL0     H11833   2.460   9.491   9.427  0.7926 -1.4347 -1.8227
   86MOL0     H11834   2.323   9.358   9.281 -1.4567 -0.1809 -0.0750
   86MOL0     H11835   2.210   9.422   9.407 -0.9658 -0.9415  0.5786
   86MOL0     H11836   2.245   9.519   9.119  3.3112 -1.7236  1.3276
   86MOL0     H11837   2.150   9.609   9.234  2.5634  1.2147 -0.6910
   86MOL0     H11838   2.016   9.380   9.281  1.6883 -2.5174  0.7888
   86MOL0     H11839   2.103   9.316   9.160 -1.7982 -0.7034  2.4579
   86MOL0     H11840   1.897   9.530   9.123 -1.4623  0.5351 -2.6613
   86MOL0     H11841   2.023   9.520   9.006  1.4936 -0.3250  0.3758
   86MOL0     H11842   1.810   9.309   9.067  1.5491  0.5093  1.4216
   86MOL0     H11843   1.955   9.275   8.967  2.2420 -0.7301  2.9248
   86MOL0     H11844   1.750   9.483   8.904 -1.2992 -0.7284 -0.6571
   86MOL0     H11845   1.745   9.309   8.858 -1.5566  1.8480 -2.8320
   86MOL0     H11846   1.993   9.370   8.784 -3.0783 -3.5617  3.7000
   86MOL0     H11847   1.916   9.527   8.762  1.0817  0.0895 -2.6058
   86MOL0     H11848   2.292   9.740   9.653  0.1585 -1.5353 -0.2788
   86MOL0     H11849   2.478   9.823   9.838 -0.3886  0.0965  0.0587
   86MOL0     H11850   2.957   9.930   9.807  1.5149 -0.4761 -0.0447
   86MOL0     H11851   3.131  10.058   9.933 -0.7726  0.9359  0.7439
   86MOL0     H11852   4.243   9.306   9.797  0.6262  0.5452 -0.6061
   86MOL0     H11853   4.326   9.338   9.585  0.2069 -1.9856 -0.1871
   86MOL0     H11854   4.259   9.542   9.125  1.2723  0.8722 -0.2203
   86MOL0     H11855   4.347   9.581   8.912 -2.2050 -0.6003  0.8766
   86MOL0     H11856   4.369   9.557   8.672 -1.2593 -2.3653 -2.7836
   86MOL0     H11857   4.528   9.573   8.751 -0.3470  0.4511 -0.6541
   86MOL0     H11858   4.582   9.590   8.538  0.7213  0.2463  0.0123
   86MOL0     H11859   4.488   9.448   8.486  0.8139 -0.1483 -0.7527
   86MOL0     H11860   4.653   9.293   8.583 -0.0243 -0.1669 -3.6134
   86MOL0     H11861   4.747   9.403   8.479  1.6554 -1.6346  0.3814
   86MOL0     H11862   4.754   9.558   8.698  2.6385  0.4987  2.2978
   86MOL0     H11863   4.883   9.456   8.632 -0.6126  1.2754 -2.2372
   86MOL0     H11864   4.786   9.254   8.979  0.7223 -3.2879 -1.2016
   86MOL0     H11865   4.414   9.162   8.864  2.8385 -0.5914  1.6956
   86MOL0     H11866   4.147   9.061   9.058 -0.0289 -0.6517  1.9431
   86MOL0     H11867   4.314   9.000   9.038  2.8982  1.2084  0.2238
   86MOL0     H11868   4.254   9.048   9.194 -4.3322  0.5609  0.2329
   87MOL0     O11869   4.403   8.505   9.705  0.0284  0.5771 -0.4625
   87MOL0     C11870   4.316   8.456   9.633  0.8485  0.1321 -0.3557
   87MOL0     O11871   4.325   8.454   9.497 -0.1749  0.3361 -0.0232
   87MOL0     C11872   4.430   8.515   9.439 -1.1490 -0.3187  0.3965
   87MOL0     C11873   4.396   8.638   9.373 -0.1337  0.1686 -0.2796
   87MOL0     C11874   4.481   8.688   9.273  0.8737 -0.8333  0.6728
   87MOL0     C11875   4.617   8.630   9.271  0.8168 -0.5897  1.2287
   87MOL0     O11876   4.734   8.660   9.200  0.2772 -0.1820  0.4470
   87MOL0     C11877   4.730   8.742   9.079  0.6397  1.1619 -0.0122
   87MOL0     C11878   4.845   8.687   8.986  0.9222 -0.2568 -0.0125
   87MOL0     C11879   4.807   8.722   8.841  0.2690  0.0060  0.5137
   87MOL0     C11880   4.784   8.871   8.796 -0.0274  0.0874  0.7491
   87MOL0     C11881   4.750   8.884   8.647  0.2641  0.7372 -0.7385
   87MOL0     C11882   4.743   9.028   8.601  0.4108  0.1536  0.1970
   87MOL0     C11883   4.886   9.085   8.617 -0.7033 -2.1485  0.5377
   87MOL0     C11884   4.961   9.137   8.482  0.5296 -0.0727 -0.0718
   87MOL0     N11885   5.081   9.214   8.508  0.2190 -0.5648 -0.3460
   87MOL0     C11886   5.106   9.291   8.613  0.7509  0.1275 -0.6764
   87MOL0     C11887   5.218   9.357   8.583 -0.0094 -0.1285 -0.5824
   87MOL0     C11888   5.293   9.457   8.667 -0.2272  0.3556  0.0299
   87MOL0     C11889   5.235   9.599   8.658  0.8135  0.4423  0.2877
   87MOL0     C11890   5.118   9.618   8.764  0.8037  0.0806  0.9366
   87MOL0     C11891   5.127   9.558   8.900  0.7420 -0.3592  0.4152
   87MOL0     O11892   5.255   9.584   8.958  0.9809  0.6762  0.4393
   87MOL0     C11893   5.284   9.687   9.032 -0.1182 -0.4009 -0.0918
   87MOL0     C11894   5.190   9.787   9.078  0.6959  0.2142 -0.1250
   87MOL0     C11895   5.227   9.888   9.167 -0.5196 -1.2168  0.7544
   87MOL0     C11896   5.116   9.978   9.197 -0.6313  0.0591  0.1387
   87MOL0     C11897   5.376   9.902   9.199  0.3348 -0.3986 -0.2541
   87MOL0     C11898   5.428  10.003   9.305  0.7418  0.4300  0.1983
   87MOL0     O11899   5.550   9.993   9.352 -0.6755  0.5366  0.3421
   87MOL0     C11900   5.589  10.033   9.478  0.5797 -0.0641 -1.1621
   87MOL0     C11901   5.491  10.056   9.586 -0.2609  0.2873 -0.1321
   87MOL0     C11902   5.539  10.083   9.712 -0.5467 -0.4762 -0.0206
   87MOL0     C11903   5.671  10.101   9.746 -0.2892 -0.7199  0.9734
   87MOL0     O11904   5.706  10.137   9.871  0.0761  1.6999  0.3039
   87MOL0     C11905   5.607  10.147   9.975  0.9195  0.1953 -0.0054
   87MOL0     C11906   5.674  10.209  10.098 -0.1172 -0.1692 -0.1508
   87MOL0     C11907   5.769  10.327  10.070 -0.2272 -0.8509  0.2387
   87MOL0     C11908   5.892  10.341  10.157 -0.0845 -0.0851  0.9423
   87MOL0     C11909   5.867  10.323  10.306  0.1335  0.5642 -0.1026
   87MOL0     C11910   5.994  10.364  10.379 -0.9215  0.2007  0.8664
   87MOL0     C11911   5.991  10.315  10.518  0.1871  0.6083  0.7116
   87MOL0     C11912   6.111  10.376  10.588 -0.6834 -0.2144  0.8893
   87MOL0    Cl11913   6.111  10.311  10.746 -0.1538 -0.3351  0.4463
   87MOL0     C11914   5.767  10.094   9.644  1.2147  0.7931 -0.2050
   87MOL0     C11915   5.724  10.059   9.512  0.3334 -0.2677 -0.6371
   87MOL0     O11916   5.352  10.089   9.335 -0.1052 -0.7038 -0.2028
   87MOL0     C11917   5.468   9.810   9.146 -0.0822 -0.2872  1.0719
   87MOL0     C11918   5.418   9.702   9.072 -0.0648  0.9344  1.0374
   87MOL0     N11919   5.262   9.318   8.459  0.1750 -1.0408 -0.3176
   87MOL0     N11920   5.180   9.234   8.416  0.2715  0.6455  0.6973
   87MOL0     C11921   4.643   8.516   9.340 -0.5215 -0.0471 -0.2352
   87MOL0     C11922   4.555   8.458   9.428 -0.0463  0.0083  0.2933
   87MOL0     C11923   4.197   8.407   9.698  0.0211  1.1204  0.0220
   87MOL0     C11924   4.195   8.396   9.843 -0.0824 -1.1287  0.2805
   87MOL0     C11925   4.082   8.349   9.909 -0.4601  0.2092 -0.3180
   87MOL0     C11926   3.964   8.304   9.844 -0.2412  0.3772  0.1436
   87MOL0     O11927   3.860   8.252   9.897  1.2082  0.0012 -0.2404
   87MOL0     C11928   3.795   8.351   9.978 -0.2490  0.6766 -0.3954
   87MOL0     C11929   3.700   8.280  10.069  0.0168  0.5339 -0.0663
   87MOL0     C11930   3.603   8.375  10.131 -0.6402 -0.0761 -0.2554
   87MOL0     C11931   3.495   8.432  10.040 -0.3726 -0.2417  0.5936
   87MOL0     C11932   3.541   8.542   9.946  0.9326  0.4564 -1.3824
   87MOL0     C11933   3.547   8.651   9.887  0.3372 -0.4515 -0.2532
   87MOL0     C11934   3.976   8.306   9.705  0.1585 -0.9816 -0.5582
   87MOL0     C11935   4.076   8.357   9.631 -0.5786 -0.1044  0.4559
   87MOL0     C11936   4.082   8.319   9.490  0.0199 -0.0666 -1.0093
   87MOL0     H11937   4.298   8.674   9.400  0.4515  0.8101  1.0643
   87MOL0     H11938   4.462   8.774   9.210  1.1468 -0.4155  1.1446
   87MOL0     H11939   4.744   8.849   9.095 -0.2111  1.4511 -1.0734
   87MOL0     H11940   4.637   8.736   9.020  1.1065  0.4377 -0.6981
   87MOL0     H11941   4.931   8.744   9.022 -1.1968  1.5798  2.4910
   87MOL0     H11942   4.848   8.578   9.000  0.6478 -0.1069  1.3663
   87MOL0     H11943   4.891   8.694   8.777  0.1937  1.6759 -0.3740
   87MOL0     H11944   4.720   8.662   8.813  1.4553 -2.1831  1.2907
   87MOL0     H11945   4.696   8.906   8.850 -1.8511 -0.5665 -1.6394
   87MOL0     H11946   4.860   8.935   8.841 -0.2686 -0.2983  1.7345
   87MOL0     H11947   4.651   8.841   8.633  0.0973  0.5293  0.8203
   87MOL0     H11948   4.822   8.829   8.586 -1.6847 -0.7748 -1.7434
   87MOL0     H11949   4.699   9.053   8.504 -1.8131 -1.5333  0.6749
   87MOL0     H11950   4.686   9.092   8.670  2.7857  1.8660  0.7203
   87MOL0     H11951   4.945   9.005   8.662 -0.3710 -1.8870  0.5689
   87MOL0     H11952   4.888   9.167   8.690  0.4826 -0.8602 -0.8650
   87MOL0     H11953   4.989   9.051   8.421  3.3636  1.8892 -1.7932
   87MOL0     H11954   4.883   9.187   8.423  2.2079 -0.1987 -2.5506
   87MOL0     H11955   5.037   9.290   8.696  1.7108 -3.5577  0.2403
   87MOL0     H11956   5.390   9.467   8.617 -1.4428 -1.3278 -2.9750
   87MOL0     H11957   5.312   9.426   8.770 -0.8361 -1.0921 -0.2568
   87MOL0     H11958   5.315   9.673   8.671  1.7615 -0.7681  1.6988
   87MOL0     H11959   5.202   9.625   8.557  2.1624  0.1975 -0.2417
   87MOL0     H11960   5.098   9.725   8.774 -0.3225 -0.1959  1.8088
   87MOL0     H11961   5.031   9.567   8.723  0.8746 -0.8508  1.8796
   87MOL0     H11962   5.039   9.594   8.954 -0.9472 -0.9594 -1.7630
   87MOL0     H11963   5.116   9.449   8.903  1.3303 -0.5748 -2.4254
   87MOL0     H11964   5.084   9.769   9.058  0.3819 -0.0684  1.6248
   87MOL0     H11965   5.117  10.073   9.144 -0.2821 -0.8647 -1.5770
   87MOL0     H11966   5.118  10.007   9.303 -0.8942  0.3946  0.0539
   87MOL0     H11967   5.013   9.942   9.186 -0.9966  0.4037  2.0425
   87MOL0     H11968   5.387  10.036   9.565 -0.0945  1.1960 -1.9741
   87MOL0     H11969   5.463  10.090   9.789 -0.0889 -2.5401  0.6717
   87MOL0     H11970   5.519  10.207   9.952  1.9776  1.2767 -1.4668
   87MOL0     H11971   5.586  10.044  10.006 -0.5287  0.6261  0.5176
   87MOL0     H11972   5.585  10.254  10.143  0.4535  0.9704 -0.1292
   87MOL0     H11973   5.715  10.131  10.163  0.9436 -0.3513 -1.0120
   87MOL0     H11974   5.701  10.411  10.091  2.3367  1.0602  1.4454
   87MOL0     H11975   5.807  10.303   9.970  1.1127 -3.2297  1.2323
   87MOL0     H11976   5.946  10.432  10.129  0.3313  0.7596  4.1333
   87MOL0     H11977   5.958  10.262  10.121  1.2051  2.0984 -1.8124
   87MOL0     H11978   5.785  10.384  10.345 -1.5377 -1.6973  0.1004
   87MOL0     H11979   5.839  10.220  10.330 -1.2782  1.3376  1.8363
   87MOL0     H11980   5.998  10.473  10.377 -0.0299  0.2134 -2.0756
   87MOL0     H11981   6.078  10.321  10.323 -3.0300  0.0262 -2.4791
   87MOL0     H11982   5.977  10.207  10.515 -3.0051  0.8930  1.1037
   87MOL0     H11983   5.896  10.350  10.561 -1.6276 -3.0383  0.0204
   87MOL0     H11984   6.097  10.484  10.582 -0.2074 -0.1755 -4.4730
   87MOL0     H11985   6.203  10.348  10.535 -0.2216  0.3972  1.3587
   87MOL0     H11986   5.874  10.107   9.653  1.3717  0.6539 -1.6079
   87MOL0     H11987   5.794  10.063   9.429  2.9110  2.5554  1.4328
   87MOL0     H11988   5.573   9.808   9.175  0.4271 -0.6474 -0.6563
   87MOL0     H11989   5.486   9.620   9.049 -2.2866 -0.3616 -1.5289
   87MOL0     H11990   4.746   8.483   9.335  0.0161  1.3525  0.8133
   87MOL0     H11991   4.583   8.368   9.482  3.7478  0.4815 -0.6020
   87MOL0     H11992   4.281   8.425   9.903  1.8083 -0.8762 -2.3586
   87MOL0     H11993   4.090   8.339  10.017 -0.6630  0.6768 -0.2606
   87MOL0     H11994   3.865   8.408  10.039  2.1945 -1.6611 -0.8362
   87MOL0     H11995   3.761   8.431   9.910 -1.3595  1.1779  0.7107
   87MOL0     H11996   3.763   8.233  10.145 -0.4105  2.4069  1.5371
   87MOL0     H11997   3.645   8.202  10.015 -0.2774  0.1773  0.7352
   87MOL0     H11998   3.584   8.336  10.231  2.3347  1.9047  1.2497
   87MOL0     H11999   3.669   8.455  10.167  0.8787 -2.0858  1.7135
   87MOL0     H12000   3.419   8.475  10.106  1.4765 -1.9290  4.1692
   87MOL0     H12001   3.440   8.359   9.980 -1.8018  2.1529 -1.1747
   87MOL0     H12002   3.558   8.746   9.840  0.2392 -0.0456  0.5249
   87MOL0     H12003   3.895   8.260   9.649 -0.3793 -1.4286  0.5423
   87MOL0     H12004   4.156   8.238   9.488  0.1441 -0.1093  1.4593
   87MOL0     H12005   3.986   8.291   9.445  0.5613  2.3147 -3.8810
   87MOL0     H12006   4.104   8.400   9.421  0.3125  1.0082  0.3080
   88MOL0     O12007   5.703  10.003   7.922  0.3406  0.6555 -0.2466
   88MOL0     C12008   5.685   9.996   7.802 -0.4561  0.1177 -0.2767
   88MOL0     O12009   5.733   9.895   7.723 -0.4993  0.1274  0.2678
   88MOL0     C12010   5.840   9.821   7.773 -0.2993  0.2898  0.0237
   88MOL0     C12011   5.963   9.875   7.787 -0.7260 -0.0564 -0.2349
   88MOL0     C12012   6.077   9.799   7.831  0.9761 -0.9034 -0.7469
   88MOL0     C12013   6.060   9.659   7.854 -0.3064  0.0515  1.2016
   88MOL0     O12014   6.179   9.596   7.870 -0.4510 -0.1161  0.7406
   88MOL0     C12015   6.166   9.457   7.904 -0.2460 -0.4831  0.8166
   88MOL0     C12016   6.302   9.407   7.920  0.0001 -0.9087 -1.1532
   88MOL0     C12017   6.313   9.268   7.985 -0.2517 -0.2237 -0.1745
   88MOL0     C12018   6.447   9.200   7.962 -0.3731 -0.0660 -0.0183
   88MOL0     C12019   6.453   9.069   8.039  0.4360  0.2930 -0.4618
   88MOL0     C12020   6.568   8.983   7.986 -0.4244 -0.0103 -0.0752
   88MOL0     C12021   6.573   8.839   8.037  0.4784 -0.5177 -0.6919
   88MOL0     C12022   6.662   8.760   7.954 -0.1739  0.3109  0.0286
   88MOL0     N12023   6.801   8.814   7.943  0.4707  0.1612 -0.0316
   88MOL0     C12024   6.869   8.852   8.053  0.2832 -0.8501  0.2327
   88MOL0     C12025   6.998   8.885   8.004  0.2159 -1.2951 -0.1284
   88MOL0     C12026   7.113   8.944   8.080  0.2967  0.7774 -0.4282
   88MOL0     C12027   7.094   9.090   8.123 -0.9697 -1.0114 -0.6037
   88MOL0     C12028   7.005   9.114   8.242 -0.1149  0.1424  1.0008
   88MOL0     C12029   7.009   9.255   8.287 -0.3882  0.3509  0.1328
   88MOL0     O12030   6.920   9.333   8.209  1.0875  0.2931 -0.5709
   88MOL0     C12031   6.886   9.459   8.260 -0.4285 -0.7199 -0.7217
   88MOL0     C12032   6.800   9.537   8.180  0.5265 -1.0165 -0.0275
   88MOL0     C12033   6.747   9.661   8.208  0.7774 -0.7284 -0.3496
   88MOL0     C12034   6.653   9.717   8.102 -0.4787 -0.1957  0.4837
   88MOL0     C12035   6.783   9.724   8.328  0.1561 -0.1223  0.3472
   88MOL0     C12036   6.758   9.871   8.354 -0.1536 -0.3123 -0.4184
   88MOL0     O12037   6.801   9.925   8.472 -0.2916  0.2308  0.2361
   88MOL0     C12038   6.764  10.059   8.496 -0.3454  0.4797  0.1598
   88MOL0     C12039   6.630  10.096   8.482 -0.9454 -0.6611  0.0275
   88MOL0     C12040   6.600  10.234   8.498 -0.5634  0.7711  0.1887
   88MOL0     C12041   6.700  10.331   8.518  0.2997 -1.2776 -1.2086
   88MOL0     O12042   6.656  10.465   8.550 -0.1738 -0.0989 -0.3085
   88MOL0     C12043   6.757  10.553   8.592  0.1298 -0.9658 -0.2891
   88MOL0     C12044   6.700  10.684   8.641  0.2054 -0.9672 -0.9021
   88MOL0     C12045   6.600  10.689   8.766 -0.6325 -0.0754 -0.1867
   88MOL0     C12046   6.540  10.836   8.786 -1.4514 -0.2326 -0.4536
   88MOL0     C12047   6.468  10.844   8.929 -0.4276  0.7105  0.0072
   88MOL0     C12048   6.326  10.844   8.902  0.6750 -0.1831 -0.4895
   88MOL0     C12049   6.232  10.847   9.027  0.4585 -0.6081 -0.4995
   88MOL0     C12050   6.083  10.883   9.006 -0.3827 -0.1233  0.4628
   88MOL0    Cl12051   6.065  11.049   8.959  0.0716  0.1211  0.3182
   88MOL0     C12052   6.831  10.282   8.531 -0.5024  0.1742  0.1961
   88MOL0     C12053   6.861  10.154   8.523 -0.0132 -0.7334  0.3437
   88MOL0     O12054   6.736   9.934   8.251 -0.2583  0.6624 -0.6124
   88MOL0     C12055   6.870   9.647   8.412 -0.0815 -0.0479  0.0878
   88MOL0     C12056   6.912   9.515   8.386 -0.2166  0.0318  0.5959
   88MOL0     N12057   6.997   8.870   7.866 -0.4154  0.9467 -0.8630
   88MOL0     N12058   6.879   8.826   7.838  0.7225 -1.2100  0.0074
   88MOL0     C12059   5.925   9.607   7.858 -0.3328 -0.1590  0.2705
   88MOL0     C12060   5.822   9.685   7.808  0.7260 -0.2235  0.4401
   88MOL0     C12061   5.589  10.085   7.749 -0.0423  0.2073  0.1450
   88MOL0     C12062   5.516  10.168   7.835  0.2236  0.4811 -0.5098
   88MOL0     C12063   5.412  10.255   7.793 -0.2899 -0.4204 -0.0431
   88MOL0     C12064   5.359  10.253   7.665 -0.8369 -0.0809 -0.5998
   88MOL0     O12065   5.253  10.324   7.614  0.4410  0.0157  0.1663
   88MOL0     C12066   5.166  10.387   7.709 -0.4042 -1.0355  0.1513
   88MOL0     C12067   5.077  10.490   7.635  0.0471 -0.2327 -0.6960
   88MOL0     C12068   4.957  10.415   7.564 -0.6343 -0.1742 -0.3482
   88MOL0     C12069   4.880  10.498   7.463  0.2250  0.4216  0.3588
   88MOL0     C12070   4.770  10.402   7.417 -0.3752  0.4081 -0.0840
   88MOL0     C12071   4.682  10.321   7.387  0.2780  0.1962  0.8710
   88MOL0     C12072   5.428  10.177   7.575 -0.7623 -0.9743 -0.1168
   88MOL0     C12073   5.545  10.103   7.612 -0.1759  0.7343  0.0803
   88MOL0     C12074   5.620  10.031   7.499 -0.4545  0.0636  0.0022
   88MOL0     H12075   5.984   9.978   7.761  0.3648  0.0734  0.9984
   88MOL0     H12076   6.169   9.855   7.846 -0.5884  1.5772  0.1490
   88MOL0     H12077   6.117   9.406   7.821  0.9177 -1.8200  0.9195
   88MOL0     H12078   6.107   9.445   7.995  0.5590 -2.6919  1.1120
   88MOL0     H12079   6.360   9.412   7.827  0.7279 -1.1327 -0.7166
   88MOL0     H12080   6.340   9.474   7.998 -0.2617 -1.9260 -0.1263
   88MOL0     H12081   6.293   9.258   8.093  3.5709 -0.4686  0.6624
   88MOL0     H12082   6.245   9.208   7.924 -0.8528  0.5170 -0.2451
   88MOL0     H12083   6.460   9.166   7.859  1.9790  1.1916 -0.2079
   88MOL0     H12084   6.523   9.277   7.979 -1.0990  1.0880 -1.7523
   88MOL0     H12085   6.362   9.013   8.016  0.2513 -0.7466  2.4901
   88MOL0     H12086   6.460   9.095   8.145 -0.1075 -1.8331  0.1375
   88MOL0     H12087   6.568   8.979   7.877  0.2922 -1.4569 -0.0502
   88MOL0     H12088   6.665   9.032   7.998  1.1428 -2.5708 -1.4078
   88MOL0     H12089   6.470   8.803   8.040  1.3174 -3.0635 -0.2851
   88MOL0     H12090   6.607   8.846   8.141 -0.6656  4.4875 -0.3977
   88MOL0     H12091   6.672   8.663   8.003 -0.0610  0.1535 -0.3034
   88MOL0     H12092   6.616   8.746   7.856  0.1901  1.6122 -0.3466
   88MOL0     H12093   6.842   8.854   8.158  1.5039 -1.3892  0.5874
   88MOL0     H12094   7.202   8.927   8.018  1.6414 -2.9857  2.1527
   88MOL0     H12095   7.125   8.891   8.175  0.3690  1.2219 -0.1880
   88MOL0     H12096   7.192   9.135   8.143 -0.6858 -1.3652 -1.1904
   88MOL0     H12097   7.044   9.148   8.045 -2.0489  0.1007  0.8692
   88MOL0     H12098   6.905   9.076   8.222 -0.4101  1.5979 -0.4997
   88MOL0     H12099   7.054   9.057   8.322  1.2549 -0.3473 -0.1490
   88MOL0     H12100   6.980   9.248   8.392  2.5566 -0.7588  0.9778
   88MOL0     H12101   7.111   9.294   8.290 -0.2844  0.0170  2.3303
   88MOL0     H12102   6.774   9.490   8.085 -0.5196 -1.5292  0.4938
   88MOL0     H12103   6.587   9.797   8.138  1.3087  1.7433 -0.3444
   88MOL0     H12104   6.597   9.642   8.045  0.0658  1.4506 -2.4174
   88MOL0     H12105   6.723   9.755   8.028  1.3041 -0.8798  1.7429
   88MOL0     H12106   6.553  10.019   8.483 -0.9322 -0.6734  0.8435
   88MOL0     H12107   6.494  10.259   8.499 -0.1925  2.6079 -1.4216
   88MOL0     H12108   6.825  10.507   8.664 -2.9696 -1.0823  2.7684
   88MOL0     H12109   6.808  10.579   8.498 -4.7478 -0.5203 -3.1225
   88MOL0     H12110   6.784  10.751   8.660  1.0581 -2.0204 -0.8497
   88MOL0     H12111   6.641  10.725   8.559 -0.6866 -0.2898  0.0555
   88MOL0     H12112   6.662  10.656   8.850  0.9683  2.4109 -0.2741
   88MOL0     H12113   6.520  10.616   8.754 -0.3857 -0.0931 -1.9474
   88MOL0     H12114   6.473  10.868   8.705  0.8460  3.6232 -1.0497
   88MOL0     H12115   6.633  10.893   8.779 -1.6806 -0.0343 -3.4438
   88MOL0     H12116   6.491  10.759   8.993  0.2538 -1.4318 -2.9013
   88MOL0     H12117   6.498  10.927   8.994  1.5361  0.2936 -0.3241
   88MOL0     H12118   6.298  10.760   8.838  0.4030 -1.1470  0.8497
   88MOL0     H12119   6.303  10.934   8.844  2.7905  1.3257  0.8953
   88MOL0     H12120   6.266  10.904   9.113 -2.1072 -3.2503  2.5261
   88MOL0     H12121   6.230  10.742   9.057 -1.5699 -0.5027 -0.1005
   88MOL0     H12122   6.035  10.867   9.103  1.8647  2.4136  2.1561
   88MOL0     H12123   6.044  10.820   8.926 -1.3418  3.0113 -1.7309
   88MOL0     H12124   6.914  10.350   8.543 -1.8823  2.2251 -1.1221
   88MOL0     H12125   6.965  10.124   8.527 -0.2699 -1.6473  0.4541
   88MOL0     H12126   6.903   9.687   8.508 -0.0281  0.5103 -0.1604
   88MOL0     H12127   6.972   9.459   8.456  1.9528  0.5277 -0.7615
   88MOL0     H12128   5.903   9.503   7.879  1.3280 -0.5080  0.3728
   88MOL0     H12129   5.726   9.641   7.783 -0.1756  1.1638  1.3122
   88MOL0     H12130   5.545  10.177   7.939  2.0831  0.2364 -0.9746
   88MOL0     H12131   5.369  10.319   7.869 -0.2460 -1.5215  0.9330
   88MOL0     H12132   5.106  10.307   7.754 -1.1318 -0.3994  0.3366
   88MOL0     H12133   5.226  10.446   7.779  2.3242 -1.4954 -1.6319
   88MOL0     H12134   5.134  10.552   7.565 -0.1546  0.8873  0.1074
   88MOL0     H12135   5.022  10.554   7.705 -1.3012 -0.7426 -1.2568
   88MOL0     H12136   4.995  10.323   7.519 -3.2528 -2.6750  2.0924
   88MOL0     H12137   4.891  10.391   7.648  0.8656 -1.5484  0.5122
   88MOL0     H12138   4.944  10.517   7.376  1.9964  1.5029  1.8332
   88MOL0     H12139   4.840  10.584   7.519 -0.9374 -0.6413  1.2256
   88MOL0     H12140   4.621  10.250   7.335  0.4870  0.7362 -0.1425
   88MOL0     H12141   5.401  10.190   7.471 -0.8691  0.6232  0.0765
   88MOL0     H12142   5.725  10.057   7.481 -0.2426 -2.0932 -2.4040
   88MOL0     H12143   5.628   9.922   7.510  1.3269  0.3209  1.7870
   88MOL0     H12144   5.568  10.033   7.403  0.5091 -3.1929 -0.7260
   89MOL0     O12145   8.267  10.057   9.906  0.4647  0.7293 -0.3551
   89MOL0     C12146   8.180   9.999   9.978 -1.1446  0.0927 -0.0979
   89MOL0     O12147   8.124  10.040  10.099 -0.7999 -0.4056 -0.4237
   89MOL0     C12148   8.160  10.168  10.142 -0.2122  0.8790 -0.1208
   89MOL0     C12149   8.291  10.209  10.148  0.1580 -1.0923 -0.7733
   89MOL0     C12150   8.317  10.334  10.201  0.8635 -0.0680 -0.6346
   89MOL0     C12151   8.203  10.429  10.227 -0.3113 -0.3652 -0.4685
   89MOL0     O12152   8.208  10.562  10.250 -0.1516  0.5614 -0.3682
   89MOL0     C12153   8.326  10.628  10.191  1.1651  0.0654 -0.1590
   89MOL0     C12154   8.300  10.772  10.213 -0.0071 -0.0278  0.3480
   89MOL0     C12155   8.412  10.864  10.159 -0.5039  0.3353  1.1184
   89MOL0     C12156   8.364  10.957  10.042 -0.4361 -0.0021  0.1058
   89MOL0     C12157   8.484  11.053   9.996 -0.5786 -0.5091 -0.1901
   89MOL0     C12158   8.467  11.126   9.869  0.1646 -0.1568  0.5203
   89MOL0     C12159   8.334  11.207   9.854  0.4513  0.1938  0.3177
   89MOL0     C12160   8.356  11.342   9.776  0.1977  0.2937 -0.1021
   89MOL0     N12161   8.378  11.329   9.630 -0.3794  0.5663  0.2666
   89MOL0     C12162   8.282  11.324   9.527  0.0712 -0.5075  0.0615
   89MOL0     C12163   8.357  11.291   9.420  0.4524  0.2647 -0.5517
   89MOL0     C12164   8.292  11.295   9.280 -0.6610  0.2543  0.3702
   89MOL0     C12165   8.300  11.432   9.209 -0.4432  0.1779 -1.0606
   89MOL0     C12166   8.206  11.441   9.097 -0.2279  0.9979 -0.2638
   89MOL0     C12167   8.224  11.583   9.026 -0.6825 -0.6210  0.1446
   89MOL0     O12168   8.119  11.593   8.922  0.2974 -0.5395 -0.3407
   89MOL0     C12169   8.038  11.703   8.950  0.0472 -0.2997  0.4229
   89MOL0     C12170   7.949  11.692   9.061 -0.1367  0.3370 -0.0808
   89MOL0     C12171   7.871  11.805   9.098  0.0372 -1.1032  0.0363
   89MOL0     C12172   7.792  11.797   9.224 -0.1204 -0.5507 -0.6659
   89MOL0     C12173   7.875  11.920   9.017  0.4817 -0.6000 -0.4224
   89MOL0     C12174   7.801  12.048   9.037 -0.8377 -0.6291 -1.5342
   89MOL0     O12175   7.856  12.162   8.991  0.0849  0.2046 -0.3744
   89MOL0     C12176   7.780  12.271   8.980  0.3688  0.1452  1.2350
   89MOL0     C12177   7.676  12.274   8.888  0.0036 -0.8554  0.9074
   89MOL0     C12178   7.601  12.385   8.890  0.2985 -0.2428 -1.2567
   89MOL0     C12179   7.621  12.494   8.973 -0.4205 -0.2645 -0.2591
   89MOL0     O12180   7.535  12.599   8.963  0.1969 -0.0571 -0.0224
   89MOL0     C12181   7.545  12.680   8.839  0.5573 -0.5839 -0.5503
   89MOL0     C12182   7.624  12.814   8.869 -0.8750 -1.0610  0.8265
   89MOL0     C12183   7.535  12.930   8.917  0.9994 -0.7243  0.1822
   89MOL0     C12184   7.440  12.987   8.809  0.2636 -0.1739  0.1171
   89MOL0     C12185   7.365  13.114   8.851  0.0352 -0.0288 -0.1964
   89MOL0     C12186   7.293  13.180   8.728  0.4995 -0.3470 -0.2950
   89MOL0     C12187   7.184  13.277   8.777  0.0851 -0.0111 -0.2604
   89MOL0     C12188   7.117  13.352   8.661 -0.2510  0.3400 -0.9686
   89MOL0    Cl12189   7.072  13.249   8.519 -0.2748  0.0161  0.4303
   89MOL0     C12190   7.720  12.480   9.072 -0.5080 -0.2808  0.4214
   89MOL0     C12191   7.797  12.366   9.079 -0.0335 -0.1063 -0.3616
   89MOL0     O12192   7.690  12.045   9.094 -0.0447 -0.2598  0.8497
   89MOL0     C12193   7.967  11.933   8.901  0.5063 -0.0086  0.4365
   89MOL0     C12194   8.042  11.820   8.868  1.0417  0.7891  0.9192
   89MOL0     N12195   8.487  11.262   9.453  0.2748  0.3849 -0.6128
   89MOL0     N12196   8.501  11.290   9.584 -0.0227  1.0093 -0.0879
   89MOL0     C12197   8.070  10.368  10.234 -0.7226 -0.8305 -0.5912
   89MOL0     C12198   8.045  10.238  10.192 -0.2824  1.2264  0.1487
   89MOL0     C12199   8.136   9.862   9.927  0.3709  1.0154 -0.5193
   89MOL0     C12200   8.034   9.787   9.994 -0.0299  0.7446  0.8004
   89MOL0     C12201   7.984   9.673   9.933  0.7833 -0.5663 -1.2760
   89MOL0     C12202   8.027   9.617   9.820  0.2743 -0.2968 -0.1592
   89MOL0     O12203   7.978   9.495   9.792  1.4634  0.3209  0.1170
   89MOL0     C12204   8.038   9.403   9.695  0.2645  0.7966  0.3160
   89MOL0     C12205   7.978   9.255   9.708  0.0106 -1.3129 -0.1080
   89MOL0     C12206   7.837   9.241   9.659  0.4103 -0.0285 -0.0083
   89MOL0     C12207   7.791   9.105   9.617  0.0146 -0.3188 -0.4775
   89MOL0     C12208   7.830   8.990   9.703 -0.7006  0.8467 -0.0860
   89MOL0     C12209   7.843   8.886   9.771  0.2698 -0.6732  1.0146
   89MOL0     C12210   8.128   9.678   9.753  0.1257 -0.1971  0.6209
   89MOL0     C12211   8.184   9.799   9.807  1.1496 -1.3073 -0.3790
   89MOL0     C12212   8.309   9.846   9.737 -0.0192  1.1745 -0.2400
   89MOL0     H12213   8.375  10.144  10.124 -0.8320 -2.6869 -0.1339
   89MOL0     H12214   8.416  10.379  10.201  1.6773 -1.7597  0.5783
   89MOL0     H12215   8.335  10.615  10.082 -0.1386  3.8095 -0.8612
   89MOL0     H12216   8.423  10.592  10.227 -0.2091 -1.5054  2.1639
   89MOL0     H12217   8.204  10.813  10.181 -0.2410 -2.3098 -2.2932
   89MOL0     H12218   8.315  10.790  10.320 -0.5968  1.1902  0.2499
   89MOL0     H12219   8.448  10.925  10.243 -3.8943 -0.8303  3.6338
   89MOL0     H12220   8.498  10.808  10.122 -1.4519  0.0665 -0.7538
   89MOL0     H12221   8.330  10.903   9.953 -2.1833  2.9444 -1.1635
   89MOL0     H12222   8.276  11.009  10.079 -0.7075 -1.0009  0.8939
   89MOL0     H12223   8.576  10.995   9.985 -0.2058  0.2427 -1.1738
   89MOL0     H12224   8.505  11.119  10.080  2.6665  2.2544 -2.8602
   89MOL0     H12225   8.548  11.200   9.868 -0.0629  0.1098 -1.3293
   89MOL0     H12226   8.492  11.072   9.778  4.1753  0.1630  1.2106
   89MOL0     H12227   8.287  11.229   9.951 -1.8184 -1.6649 -0.2571
   89MOL0     H12228   8.260  11.146   9.801 -0.7382  2.7964 -1.1753
   89MOL0     H12229   8.261  11.396   9.781 -0.7189 -0.8504 -3.0026
   89MOL0     H12230   8.435  11.402   9.823 -1.5266  1.3704  1.5419
   89MOL0     H12231   8.177  11.352   9.526  0.3591  0.8517 -3.0217
   89MOL0     H12232   8.189  11.261   9.296 -0.3739 -1.4724 -1.0649
   89MOL0     H12233   8.334  11.218   9.214 -0.6934  0.8185 -0.3113
   89MOL0     H12234   8.287  11.517   9.276  0.9779 -0.1887 -0.2537
   89MOL0     H12235   8.404  11.441   9.175 -0.0731 -1.7402 -0.5745
   89MOL0     H12236   8.226  11.358   9.030  4.5142  2.1261 -0.5480
   89MOL0     H12237   8.111  11.428   9.149  0.2793  0.5294  0.5516
   89MOL0     H12238   8.211  11.661   9.102 -2.3466 -0.9994  0.2827
   89MOL0     H12239   8.327  11.592   8.992 -0.9768  3.9552 -0.1464
   89MOL0     H12240   7.944  11.594   9.107  0.7657 -1.6925 -3.8864
   89MOL0     H12241   7.819  11.704   9.274  1.6485  0.6557  0.7603
   89MOL0     H12242   7.685  11.792   9.201 -0.9903  3.9977  1.2308
   89MOL0     H12243   7.803  11.870   9.305  0.2952 -1.3802  0.0390
   89MOL0     H12244   7.649  12.198   8.816  0.8524 -1.3652  1.1184
   89MOL0     H12245   7.522  12.405   8.818 -1.8399  2.0661  1.4819
   89MOL0     H12246   7.587  12.612   8.766 -0.9592  1.2925 -3.3707
   89MOL0     H12247   7.445  12.700   8.799  0.7700 -1.3223 -1.4710
   89MOL0     H12248   7.702  12.802   8.943 -1.2856 -0.8196  1.3048
   89MOL0     H12249   7.669  12.850   8.776 -1.5569  2.5657  1.7624
   89MOL0     H12250   7.588  13.017   8.958  2.3469 -1.4343 -0.0133
   89MOL0     H12251   7.484  12.894   9.007 -1.4141 -1.4421 -1.3693
   89MOL0     H12252   7.372  12.910   8.771  0.8033 -0.3757 -0.4685
   89MOL0     H12253   7.500  13.025   8.725 -0.0143 -0.6795 -0.3171
   89MOL0     H12254   7.291  13.091   8.928 -0.0770  2.2355  0.4513
   89MOL0     H12255   7.424  13.192   8.900 -2.4146  1.1351  1.1258
   89MOL0     H12256   7.243  13.106   8.664 -1.8254  0.6662  0.2513
   89MOL0     H12257   7.357  13.247   8.669 -0.5078 -1.4701 -2.8369
   89MOL0     H12258   7.221  13.352   8.848  3.3425 -1.5790 -0.1203
   89MOL0     H12259   7.103  13.220   8.825 -0.8205  1.1389 -0.3677
   89MOL0     H12260   7.190  13.427   8.631  0.1727  1.4259  2.3992
   89MOL0     H12261   7.035  13.407   8.708 -0.4025 -0.0954 -0.7163
   89MOL0     H12262   7.726  12.566   9.138  1.1153 -0.6614  0.8258
   89MOL0     H12263   7.888  12.357   9.137  0.4406 -2.2546 -1.3453
   89MOL0     H12264   7.975  12.017   8.833 -0.3775 -2.2578 -2.6597
   89MOL0     H12265   8.097  11.813   8.775 -2.7749  0.6709 -1.5692
   89MOL0     H12266   7.983  10.426  10.264 -0.0027  0.7264 -1.3801
   89MOL0     H12267   7.949  10.191  10.175  0.9533 -0.8133 -1.7196
   89MOL0     H12268   7.987   9.827  10.083 -0.5285 -0.1586  0.9607
   89MOL0     H12269   7.913   9.622   9.998  0.6153  2.4371  1.0990
   89MOL0     H12270   8.020   9.430   9.591  1.8073  0.3825 -0.0811
   89MOL0     H12271   8.146   9.400   9.711  0.6274  0.0231 -1.9278
   89MOL0     H12272   7.974   9.229   9.814 -0.6703  1.1849  0.5600
   89MOL0     H12273   8.038   9.179   9.656  1.4209 -0.8654  0.8175
   89MOL0     H12274   7.773   9.274   9.741  0.1743  2.6657 -1.1739
   89MOL0     H12275   7.817   9.301   9.570  2.2591 -0.6910 -0.9171
   89MOL0     H12276   7.830   9.090   9.515  0.9624 -0.9573 -0.0330
   89MOL0     H12277   7.682   9.111   9.608  0.0262 -0.7546 -1.0206
   89MOL0     H12278   7.858   8.792   9.820 -2.3856 -0.7590  1.8271
   89MOL0     H12279   8.163   9.623   9.666  1.1416  2.5609 -0.8292
   89MOL0     H12280   8.348   9.757   9.686  0.2021  2.2462 -2.0027
   89MOL0     H12281   8.283   9.924   9.666 -2.1463  2.9081  2.2827
   89MOL0     H12282   8.377   9.892   9.810 -0.6560 -0.3569  1.4159
   90MOL0     O12283   7.454   1.834   0.487 -0.2525 -0.6905 -0.3251
   90MOL0     C12284   7.498   1.716   0.485  0.2062  0.0351 -0.4603
   90MOL0     O12285   7.557   1.654   0.590 -0.5557  0.3691 -0.5256
   90MOL0     C12286   7.560   1.708   0.719 -0.7074 -0.0357 -0.8053
   90MOL0     C12287   7.442   1.742   0.787  0.3763 -1.3022  0.1644
   90MOL0     C12288   7.443   1.785   0.919 -0.9470  0.5581 -1.2523
   90MOL0     C12289   7.563   1.825   0.985 -0.1055  0.4182  0.1167
   90MOL0     O12290   7.552   1.892   1.109 -0.1074  0.4773 -0.2610
   90MOL0     C12291   7.668   1.945   1.156 -0.1429 -1.4381 -0.5328
   90MOL0     C12292   7.640   2.018   1.291 -0.7089 -0.5641 -0.8067
   90MOL0     C12293   7.616   1.927   1.404  1.3318  0.8267  0.1998
   90MOL0     C12294   7.621   2.017   1.533 -0.0476 -0.4033  0.5475
   90MOL0     C12295   7.620   1.919   1.654  0.0234  0.4834  0.8707
   90MOL0     C12296   7.630   1.988   1.782  0.2081 -0.5583 -0.4184
   90MOL0     C12297   7.599   1.879   1.898  0.8030 -0.3420  0.1242
   90MOL0     C12298   7.663   1.932   2.024 -0.9360  0.0006  0.8578
   90MOL0     N12299   7.602   2.041   2.099  0.5141 -0.8319  0.2221
   90MOL0     C12300   7.613   2.172   2.080 -0.3836 -0.6221  0.1079
   90MOL0     C12301   7.552   2.237   2.184 -0.2776 -0.1184  0.3002
   90MOL0     C12302   7.549   2.380   2.222 -0.2391 -0.7906  0.1653
   90MOL0     C12303   7.570   2.398   2.374  0.2362 -0.6011 -0.7095
   90MOL0     C12304   7.711   2.347   2.425  0.7096 -0.2994 -0.2317
   90MOL0     C12305   7.718   2.324   2.578 -0.8660 -0.7811  0.6249
   90MOL0     O12306   7.626   2.218   2.616  0.0325 -0.1387 -0.7830
   90MOL0     C12307   7.631   2.176   2.744  0.1926 -0.3240 -0.3755
   90MOL0     C12308   7.749   2.129   2.798 -0.0122 -0.5655 -0.2609
   90MOL0     C12309   7.755   2.063   2.919  0.6852  0.0806  0.2297
   90MOL0     C12310   7.879   2.004   2.966 -0.5860 -0.2537  0.4830
   90MOL0     C12311   7.629   2.038   2.994 -0.3771 -1.2651 -0.5754
   90MOL0     C12312   7.625   1.975   3.125 -0.5992 -0.0784 -0.6473
   90MOL0     O12313   7.501   1.901   3.161  0.3361  0.4615 -0.4010
   90MOL0     C12314   7.482   1.829   3.277 -0.3119 -0.7596  0.2573
   90MOL0     C12315   7.374   1.747   3.280  0.2075 -0.9888 -0.7022
   90MOL0     C12316   7.348   1.660   3.388 -0.8139  0.0818  0.7657
   90MOL0     C12317   7.431   1.660   3.501 -0.6309 -0.1029  0.8981
   90MOL0     O12318   7.429   1.562   3.600  0.1363  0.0730  0.1755
   90MOL0     C12319   7.310   1.476   3.604 -0.5248 -0.0553 -0.5062
   90MOL0     C12320   7.211   1.529   3.714 -1.4075  0.4078  0.0002
   90MOL0     C12321   7.133   1.650   3.652  0.6782 -1.1491 -0.3735
   90MOL0     C12322   6.994   1.677   3.719 -0.1545 -0.5700 -0.1375
   90MOL0     C12323   6.921   1.788   3.639  0.4100 -0.6091 -0.5520
   90MOL0     C12324   6.995   1.919   3.610 -0.6105 -0.0802  0.0764
   90MOL0     C12325   7.067   1.918   3.468 -0.6698 -0.3126 -1.1498
   90MOL0     C12326   7.161   2.041   3.443 -0.4857  0.5563 -0.4260
   90MOL0    Cl12327   7.082   2.191   3.481  0.1203  0.3680 -0.1796
   90MOL0     C12328   7.532   1.752   3.503 -0.2834 -0.0803 -1.0308
   90MOL0     C12329   7.564   1.834   3.392 -0.7079 -0.9129  0.3161
   90MOL0     O12330   7.716   1.999   3.209  0.1588  0.2361 -0.1060
   90MOL0     C12331   7.511   2.082   2.941  0.6641 -0.6021  0.1741
   90MOL0     C12332   7.512   2.144   2.814  0.5212  1.1201 -0.2941
   90MOL0     N12333   7.508   2.130   2.267  0.9462 -0.2073  0.0413
   90MOL0     N12334   7.536   2.020   2.217 -0.4235  0.2201  0.0443
   90MOL0     C12335   7.684   1.776   0.925  0.4338  0.2285  1.0589
   90MOL0     C12336   7.680   1.715   0.793 -0.0570  0.2695  0.7772
   90MOL0     C12337   7.481   1.649   0.353  0.4757  0.4202 -0.3449
   90MOL0     C12338   7.367   1.684   0.281  0.4836 -0.1708 -0.0438
   90MOL0     C12339   7.323   1.638   0.157 -0.5670 -0.6992  0.4320
   90MOL0     C12340   7.404   1.544   0.097 -0.0560 -0.7216  0.6757
   90MOL0     O12341   7.384   1.504  -0.033 -0.3267 -1.2511 -0.7106
   90MOL0     C12342   7.331   1.368  -0.045 -0.2847  0.6926  0.2597
   90MOL0     C12343   7.180   1.364  -0.035  0.2578 -0.0478 -0.4068
   90MOL0     C12344   7.121   1.385  -0.175  0.4723 -0.2082 -0.4685
   90MOL0     C12345   7.106   1.249  -0.236  0.4496 -0.1578  0.6838
   90MOL0     C12346   7.034   1.249  -0.359  0.2389  0.8580 -0.8754
   90MOL0     C12347   6.983   1.270  -0.467  0.0282  0.2431  0.5985
   90MOL0     C12348   7.529   1.498   0.158  0.2684  0.4711 -0.5001
   90MOL0     C12349   7.566   1.544   0.292  0.2986 -0.6536  0.4318
   90MOL0     C12350   7.694   1.495   0.356 -0.7239 -0.0728 -0.1691
   90MOL0     H12351   7.347   1.757   0.737  2.4860 -0.4141 -3.9859
   90MOL0     H12352   7.347   1.823   0.952 -1.5215  0.8168 -3.1134
   90MOL0     H12353   7.713   2.014   1.084  1.4334 -2.0938 -0.2215
   90MOL0     H12354   7.745   1.870   1.172  0.7787  0.1028  3.5487
   90MOL0     H12355   7.727   2.084   1.306 -1.2451  0.8729 -3.4977
   90MOL0     H12356   7.549   2.078   1.287 -1.4316 -1.3641  1.6563
   90MOL0     H12357   7.526   1.866   1.408  0.9100  1.3712 -0.6943
   90MOL0     H12358   7.694   1.850   1.411 -2.5439 -3.7977 -1.5836
   90MOL0     H12359   7.708   2.082   1.544 -0.8035  0.3360  2.7223
   90MOL0     H12360   7.531   2.079   1.538 -0.4937 -0.6952 -2.2161
   90MOL0     H12361   7.686   1.834   1.638 -2.0420 -1.3691  1.6096
   90MOL0     H12362   7.517   1.882   1.663  1.3981 -3.9054  0.5593
   90MOL0     H12363   7.731   2.026   1.795  0.2036  1.0222 -3.9371
   90MOL0     H12364   7.551   2.064   1.783 -1.2148 -1.9742  0.6193
   90MOL0     H12365   7.639   1.784   1.862 -1.7413 -0.9530 -1.3245
   90MOL0     H12366   7.491   1.875   1.914  0.9525 -0.7690  1.0565
   90MOL0     H12367   7.671   1.859   2.104  2.9078  1.7328  2.3189
   90MOL0     H12368   7.767   1.945   1.992 -0.2683 -2.0113  2.0693
   90MOL0     H12369   7.671   2.210   1.997  1.6582 -1.6676  0.9953
   90MOL0     H12370   7.447   2.414   2.204 -0.6872 -2.7887 -1.4886
   90MOL0     H12371   7.627   2.430   2.164 -1.8051 -0.5445 -1.8112
   90MOL0     H12372   7.550   2.500   2.409  2.7561 -0.3003  0.0353
   90MOL0     H12373   7.488   2.345   2.422 -1.5190  2.4346 -0.1169
   90MOL0     H12374   7.738   2.248   2.385  0.6917 -0.2526 -0.3601
   90MOL0     H12375   7.786   2.414   2.383  0.1656 -0.9956 -2.4546
   90MOL0     H12376   7.822   2.309   2.609 -0.9405  2.8849  3.2794
   90MOL0     H12377   7.684   2.415   2.627  1.0714  0.8844 -0.9871
   90MOL0     H12378   7.842   2.151   2.745 -0.2536  1.4139  0.0450
   90MOL0     H12379   7.950   2.020   2.884 -0.4465 -0.9284  0.4647
   90MOL0     H12380   7.877   1.897   2.992  2.2755  0.0028  2.0766
   90MOL0     H12381   7.919   2.066   3.046 -2.0926  3.5395 -1.4468
   90MOL0     H12382   7.307   1.744   3.194 -0.2425 -0.8707 -0.3641
   90MOL0     H12383   7.283   1.584   3.346  1.2044 -1.3174 -0.0257
   90MOL0     H12384   7.272   1.447   3.505 -1.4536 -1.1933  0.1620
   90MOL0     H12385   7.355   1.385   3.646  3.1155  0.9131 -1.9606
   90MOL0     H12386   7.148   1.446   3.747 -1.9482  1.3917  1.4987
   90MOL0     H12387   7.270   1.565   3.799  0.8669 -0.6832 -1.0141
   90MOL0     H12388   7.106   1.617   3.551  0.8656  1.6423 -1.4070
   90MOL0     H12389   7.195   1.740   3.661 -1.6944  0.3329  3.0842
   90MOL0     H12390   7.007   1.722   3.818  3.3991  0.8548 -1.0768
   90MOL0     H12391   6.936   1.586   3.736  0.9284 -0.7255  3.9893
   90MOL0     H12392   6.876   1.747   3.548  0.9651  0.5698 -1.3868
   90MOL0     H12393   6.839   1.824   3.702  1.9755  4.1385 -0.7946
   90MOL0     H12394   7.078   1.934   3.679  1.5454 -1.6609 -2.0056
   90MOL0     H12395   6.931   2.007   3.624  0.3325  0.5948  0.2783
   90MOL0     H12396   6.987   1.893   3.399  1.1824 -4.8664 -2.0762
   90MOL0     H12397   7.135   1.832   3.466 -0.1887  0.0624 -1.2048
   90MOL0     H12398   7.195   2.052   3.340 -1.8851  1.8657 -0.7834
   90MOL0     H12399   7.250   2.034   3.507  0.1690  2.6947 -1.0038
   90MOL0     H12400   7.597   1.760   3.590 -0.6204 -0.9298 -0.6940
   90MOL0     H12401   7.667   1.869   3.391 -1.2406  0.7424  0.8275
   90MOL0     H12402   7.418   2.064   2.993 -0.1156  0.7529 -0.6967
   90MOL0     H12403   7.427   2.175   2.755  2.1849  1.5378 -2.6132
   90MOL0     H12404   7.783   1.775   0.970  2.3148  0.3671 -2.6734
   90MOL0     H12405   7.765   1.669   0.743 -0.7745 -1.0084  0.6783
   90MOL0     H12406   7.306   1.754   0.337  0.1740 -0.5028  0.0365
   90MOL0     H12407   7.246   1.678   0.093  0.7374  0.9139 -0.2146
   90MOL0     H12408   7.359   1.320  -0.139 -2.5044 -0.0969 -0.0418
   90MOL0     H12409   7.370   1.307   0.038  0.9522  1.4035  0.2213
   90MOL0     H12410   7.146   1.437   0.039  1.2822  0.3853 -0.3389
   90MOL0     H12411   7.153   1.269   0.011 -1.6274  0.7882  0.3151
   90MOL0     H12412   7.026   1.430  -0.147  0.6329 -0.0590 -0.1650
   90MOL0     H12413   7.181   1.455  -0.234  1.2043  2.1930  2.8416
   90MOL0     H12414   7.055   1.186  -0.162  2.0379 -0.2287  1.7665
   90MOL0     H12415   7.201   1.197  -0.249  1.3351  1.2539  1.1995
   90MOL0     H12416   6.944   1.285  -0.566 -3.4964  2.4272  2.1086
   90MOL0     H12417   7.603   1.448   0.095  1.8972  2.7810 -0.5671
   90MOL0     H12418   7.751   1.427   0.292 -0.6493 -3.0760  2.7958
   90MOL0     H12419   7.759   1.578   0.386 -1.1683  0.7631 -1.4605
   90MOL0     H12420   7.654   1.434   0.438 -1.2369 -3.2515 -2.6023
   91MOL0     O12421   7.942  10.167   9.348 -0.2699  0.2318 -0.3108
   91MOL0     C12422   7.989  10.062   9.399 -0.0227  0.1388  1.4139
   91MOL0     O12423   7.985  10.036   9.540 -0.6072  0.2326 -0.0766
   91MOL0     C12424   7.905  10.119   9.621 -0.0196  0.2843  0.3749
   91MOL0     C12425   7.782  10.162   9.578 -0.5187  0.2394 -0.1070
   91MOL0     C12426   7.715  10.265   9.639 -0.7342  0.4782 -0.0988
   91MOL0     C12427   7.762  10.311   9.758 -0.5384 -0.5933  0.6258
   91MOL0     O12428   7.691  10.410   9.827 -0.0149 -0.2415 -0.0868
   91MOL0     C12429   7.655  10.527   9.755  0.0441  0.7654 -0.0086
   91MOL0     C12430   7.654  10.636   9.858  0.7992 -0.7615 -0.5969
   91MOL0     C12431   7.603  10.774   9.794  1.3542 -0.6075 -0.3939
   91MOL0     C12432   7.451  10.808   9.830 -0.7508  0.2098  0.0617
   91MOL0     C12433   7.425  10.961   9.796  0.8954  0.3528  0.1057
   91MOL0     C12434   7.417  10.976   9.637  0.1294  0.1292 -0.7313
   91MOL0     C12435   7.353  11.099   9.592  0.0727 -0.4385  0.1139
   91MOL0     C12436   7.440  11.231   9.605 -0.1214  0.3169 -0.3766
   91MOL0     N12437   7.576  11.224   9.545 -0.2326  0.5748 -0.0399
   91MOL0     C12438   7.595  11.234   9.408  0.4861  0.9596 -1.0856
   91MOL0     C12439   7.728  11.240   9.389  0.2472  0.5678  0.3890
   91MOL0     C12440   7.797  11.292   9.263 -1.2172 -1.2590 -0.0593
   91MOL0     C12441   7.725  11.239   9.144  0.5949  0.2742  0.0951
   91MOL0     C12442   7.777  11.293   9.016  0.3749 -0.0438  0.0682
   91MOL0     C12443   7.906  11.242   8.971 -0.7134  0.8451  0.5943
   91MOL0     O12444   7.883  11.115   8.909  0.2101  0.5223  0.3124
   91MOL0     C12445   7.996  11.035   8.883  0.4405 -0.3955  0.2800
   91MOL0     C12446   8.131  11.086   8.888  0.0415  0.1946 -0.7940
   91MOL0     C12447   8.241  11.005   8.861  0.0328  0.1767  0.0971
   91MOL0     C12448   8.374  11.083   8.870  0.0063  0.0088  0.6516
   91MOL0     C12449   8.221  10.870   8.823  0.5507  0.0382 -0.4422
   91MOL0     C12450   8.320  10.779   8.783  0.2733 -0.2809 -0.5208
   91MOL0     O12451   8.446  10.832   8.748  0.4790 -0.4784  0.1477
   91MOL0     C12452   8.531  10.747   8.690  0.3077 -0.4908 -0.6386
   91MOL0     C12453   8.658  10.721   8.760 -0.6028 -0.0550 -0.2000
   91MOL0     C12454   8.754  10.628   8.717 -0.6899 -0.2769  0.2774
   91MOL0     C12455   8.730  10.559   8.605 -0.5004  0.8627 -0.0941
   91MOL0     O12456   8.820  10.468   8.570 -0.5020  0.9037 -0.3984
   91MOL0     C12457   8.777  10.357   8.494  0.3336 -0.4348 -0.4003
   91MOL0     C12458   8.870  10.232   8.522  0.8692 -0.4397 -0.0916
   91MOL0     C12459   8.857  10.104   8.429  0.0921 -0.0716 -0.7075
   91MOL0     C12460   8.943   9.985   8.491  0.2784 -0.7996  0.5294
   91MOL0     C12461   8.911   9.851   8.410  0.1042  0.2117  0.8946
   91MOL0     C12462   8.974   9.843   8.262  0.9741 -0.1134  0.2500
   91MOL0     C12463   9.114   9.898   8.238  0.0845 -0.2845 -0.2112
   91MOL0     C12464   9.189   9.837   8.122  0.2481 -0.4933 -0.8533
   91MOL0    Cl12465   9.366   9.875   8.125 -0.2687 -0.3096  0.5409
   91MOL0     C12466   8.616  10.586   8.525  0.1874 -0.0297 -0.0808
   91MOL0     C12467   8.520  10.684   8.565 -1.1607 -0.1893 -0.2588
   91MOL0     O12468   8.300  10.655   8.788  0.3698  0.1361  0.9740
   91MOL0     C12469   8.083  10.820   8.831 -1.3747 -0.2743  0.1239
   91MOL0     C12470   7.979  10.904   8.863 -0.9475  0.1640  0.0822
   91MOL0     N12471   7.783  11.225   9.520 -0.9797  0.3440 -0.0281
   91MOL0     N12472   7.695  11.214   9.615  0.1935 -0.9306  0.2238
   91MOL0     C12473   7.884  10.254   9.813 -0.0193  0.5732  0.1808
   91MOL0     C12474   7.959  10.166   9.742 -0.0588  0.0757 -0.3882
   91MOL0     C12475   8.069   9.957   9.313 -0.0036 -0.1730 -0.3834
   91MOL0     C12476   8.103   9.830   9.366 -0.2612 -0.0962 -0.4548
   91MOL0     C12477   8.168   9.730   9.288 -0.4596 -0.4828  0.4793
   91MOL0     C12478   8.198   9.756   9.154  0.1391 -0.5790 -0.1429
   91MOL0     O12479   8.260   9.661   9.074 -0.2865 -0.4789 -0.3084
   91MOL0     C12480   8.156   9.586   9.006  0.1965  0.1045  0.6633
   91MOL0     C12481   8.243   9.490   8.925 -0.4515 -0.5406  0.8338
   91MOL0     C12482   8.182   9.472   8.789 -0.1401  0.1766  0.4612
   91MOL0     C12483   8.052   9.401   8.779 -0.2129 -0.8013 -0.1288
   91MOL0     C12484   8.051   9.262   8.810  0.5317  0.5437 -0.2543
   91MOL0     C12485   8.067   9.147   8.850  0.7716  0.5816 -1.2892
   91MOL0     C12486   8.164   9.885   9.103  0.2922 -0.2484  0.0618
   91MOL0     C12487   8.101   9.984   9.178 -0.8246 -0.0916 -0.6704
   91MOL0     C12488   8.071  10.120   9.110  0.2030  0.7083  0.1834
   91MOL0     H12489   7.744  10.119   9.486  2.1336 -1.5302 -0.5074
   91MOL0     H12490   7.639  10.314   9.580 -0.7420  0.1316 -0.3787
   91MOL0     H12491   7.554  10.528   9.712 -1.0665 -0.9185  2.3326
   91MOL0     H12492   7.736  10.540   9.682  0.4962 -1.7125 -0.0382
   91MOL0     H12493   7.576  10.620   9.934 -0.4840  1.0943 -1.4412
   91MOL0     H12494   7.750  10.654   9.908  0.6334  2.4776 -1.2533
   91MOL0     H12495   7.655  10.858   9.842 -0.7363  1.5458 -1.6760
   91MOL0     H12496   7.618  10.763   9.686  1.8970  1.7995 -0.6360
   91MOL0     H12497   7.400  10.735   9.765  3.4295 -2.3428 -0.7725
   91MOL0     H12498   7.428  10.797   9.936  0.1000  2.1892  0.5011
   91MOL0     H12499   7.500  11.029   9.838  1.7609 -0.1915 -0.5318
   91MOL0     H12500   7.328  10.979   9.844  1.1532  0.0970  0.7303
   91MOL0     H12501   7.524  10.973   9.613  0.7933  0.6831  1.8699
   91MOL0     H12502   7.362  10.892   9.592 -1.9458 -0.1748  2.0958
   91MOL0     H12503   7.257  11.098   9.645  0.0518  4.6494  0.6598
   91MOL0     H12504   7.325  11.080   9.488 -3.6126  0.2321  0.8406
   91MOL0     H12505   7.396  11.309   9.543  0.0811  1.9756  1.4530
   91MOL0     H12506   7.442  11.262   9.710 -1.2290 -0.9777  0.0564
   91MOL0     H12507   7.517  11.246   9.334  2.0336 -1.7427 -3.3345
   91MOL0     H12508   7.904  11.271   9.267 -0.8989  0.0470 -0.9232
   91MOL0     H12509   7.785  11.400   9.254 -0.2455 -1.2342 -1.3411
   91MOL0     H12510   7.734  11.130   9.133 -2.8676  0.0278 -1.3121
   91MOL0     H12511   7.616  11.247   9.146 -0.0390 -3.7250 -3.6325
   91MOL0     H12512   7.692  11.262   8.953 -1.2620  2.0819  1.0982
   91MOL0     H12513   7.776  11.402   9.023 -0.8273  0.0928 -1.5423
   91MOL0     H12514   7.962  11.308   8.904 -0.9122 -1.4318 -1.9883
   91MOL0     H12515   7.968  11.242   9.061  0.9400  0.2561 -0.4903
   91MOL0     H12516   8.144  11.192   8.907  1.0866  0.0969 -0.9351
   91MOL0     H12517   8.364  11.158   8.949 -3.3984 -0.5243  0.8817
   91MOL0     H12518   8.392  11.125   8.771  0.5799  0.5147  0.9706
   91MOL0     H12519   8.461  11.019   8.888  1.3231  1.6035  0.2032
   91MOL0     H12520   8.683  10.772   8.852  2.7635 -0.1431 -0.9050
   91MOL0     H12521   8.845  10.611   8.774 -0.7901 -2.5037 -0.1317
   91MOL0     H12522   8.680  10.313   8.519  1.3225 -4.0431 -2.2529
   91MOL0     H12523   8.783  10.376   8.387  2.4036 -2.9158 -0.8032
   91MOL0     H12524   8.975  10.256   8.537  0.3925  0.0258  3.0575
   91MOL0     H12525   8.831  10.193   8.616  3.0919  0.3511  1.2105
   91MOL0     H12526   8.876  10.124   8.323 -2.0586 -2.5323 -1.6730
   91MOL0     H12527   8.751  10.082   8.442 -0.5546  3.4924  1.3829
   91MOL0     H12528   8.913   9.969   8.595  2.6394  1.8974  1.7834
   91MOL0     H12529   9.049  10.008   8.505  0.0424  0.8367 -0.1333
   91MOL0     H12530   8.969   9.773   8.461 -1.5403 -0.9765  1.0474
   91MOL0     H12531   8.805   9.823   8.412 -0.7305  2.9304 -0.5515
   91MOL0     H12532   8.898   9.897   8.203 -2.0774 -2.5865  1.5978
   91MOL0     H12533   8.980   9.739   8.228  0.7749 -0.2583  0.6532
   91MOL0     H12534   9.168   9.895   8.334  1.3975 -1.0886 -0.9312
   91MOL0     H12535   9.107  10.005   8.221  0.9342 -0.5300 -2.3485
   91MOL0     H12536   9.144   9.872   8.028 -1.7509 -1.7842 -0.4541
   91MOL0     H12537   9.184   9.727   8.118  1.6718 -0.5497 -1.8574
   91MOL0     H12538   8.591  10.543   8.428 -2.4424 -1.8258  1.3087
   91MOL0     H12539   8.437  10.710   8.499  1.5633  2.6515 -2.9327
   91MOL0     H12540   8.064  10.718   8.800 -0.3036  0.1110 -1.9738
   91MOL0     H12541   7.879  10.863   8.862 -1.5357  1.5091 -1.5937
   91MOL0     H12542   7.913  10.288   9.912  2.1915 -0.4880 -0.0355
   91MOL0     H12543   8.057  10.123   9.760 -0.8639 -1.5323  0.3320
   91MOL0     H12544   8.084   9.806   9.470  0.4752  0.5572 -0.1566
   91MOL0     H12545   8.220   9.639   9.317  0.2381  0.2686  1.6213
   91MOL0     H12546   8.085   9.528   9.066 -0.1169 -1.3880 -1.0765
   91MOL0     H12547   8.093   9.653   8.948  1.2903 -1.9329 -3.2489
   91MOL0     H12548   8.254   9.391   8.971 -3.7083 -1.1326  0.6231
   91MOL0     H12549   8.344   9.531   8.919 -1.3897  1.7156 -3.0203
   91MOL0     H12550   8.161   9.574   8.756 -1.4058 -0.3514 -0.4486
   91MOL0     H12551   8.252   9.412   8.730 -3.0115 -2.3165 -0.7191
   91MOL0     H12552   8.000   9.408   8.683 -2.4798 -0.3336  1.0772
   91MOL0     H12553   7.985   9.449   8.851 -1.8267 -3.2976  0.1535
   91MOL0     H12554   8.080   9.051   8.895  2.9325  2.2683  2.1119
   91MOL0     H12555   8.194   9.910   9.001 -2.3735  1.1656 -0.4776
   91MOL0     H12556   8.133  10.198   9.155  1.4107 -0.6886  1.0544
   91MOL0     H12557   8.111  10.116   9.008  1.6250  1.5829  0.6796
   91MOL0     H12558   7.965  10.145   9.112  0.2720  1.0350  2.3972
   92MOL0     O12559   6.532  11.241   4.299 -0.4905  0.2053  0.4660
   92MOL0     C12560   6.467  11.339   4.337 -0.2143 -0.1023  0.0061
   92MOL0     O12561   6.516  11.463   4.339 -0.8146  0.3397 -0.4007
   92MOL0     C12562   6.628  11.467   4.269 -0.0961 -1.0178  0.4603
   92MOL0     C12563   6.621  11.478   4.132  0.2450 -0.0044 -0.0089
   92MOL0     C12564   6.748  11.501   4.060  0.6526 -0.8117 -0.4120
   92MOL0     C12565   6.871  11.494   4.118 -1.3890 -0.2091  0.7197
   92MOL0     O12566   6.986  11.498   4.037  0.4070  0.0453 -0.1181
   92MOL0     C12567   7.112  11.482   4.107  0.2059  0.7501 -0.0039
   92MOL0     C12568   7.151  11.333   4.133 -0.1839  0.2923 -0.1869
   92MOL0     C12569   7.220  11.279   4.008  0.9649  0.4452  0.2758
   92MOL0     C12570   7.258  11.131   4.040  0.1895 -0.3842  0.0229
   92MOL0     C12571   7.138  11.037   4.062  0.6406  0.6114  0.8255
   92MOL0     C12572   7.168  10.883   4.068  0.9978 -0.3202 -0.2166
   92MOL0     C12573   7.285  10.863   4.174  0.9800  0.2644 -0.6842
   92MOL0     C12574   7.319  10.717   4.203 -0.4339 -0.3809 -0.3699
   92MOL0     N12575   7.206  10.637   4.239 -0.0114  0.7619  0.1797
   92MOL0     C12576   7.185  10.516   4.196  0.3423  0.4351  0.2648
   92MOL0     C12577   7.089  10.468   4.282  0.3675  0.3442 -0.3851
   92MOL0     C12578   7.027  10.325   4.289  0.0137 -0.3699 -0.5590
   92MOL0     C12579   7.131  10.217   4.324 -0.3161 -0.1268  0.1607
   92MOL0     C12580   7.080  10.072   4.315 -0.0195 -0.4176  0.4274
   92MOL0     C12581   6.971  10.046   4.416  0.1096 -0.3143 -0.5064
   92MOL0     O12582   6.980  10.113   4.550 -0.2745  0.2161  0.7622
   92MOL0     C12583   6.872  10.099   4.640  0.6157  0.9670 -0.3748
   92MOL0     C12584   6.845   9.972   4.689 -0.7120  0.2213 -0.2788
   92MOL0     C12585   6.729   9.950   4.767 -0.3717 -1.0276 -0.2329
   92MOL0     C12586   6.701   9.814   4.829  0.5744  0.6252  0.3790
   92MOL0     C12587   6.646  10.060   4.788 -0.3852  0.8021 -0.7235
   92MOL0     C12588   6.533  10.055   4.877  0.9456  0.0167  0.7681
   92MOL0     O12589   6.413  10.034   4.812 -0.6342 -0.7169 -0.7900
   92MOL0     C12590   6.306  10.034   4.901 -0.3970  0.3486 -0.1572
   92MOL0     C12591   6.287   9.926   4.986 -0.5740 -0.9016 -0.2584
   92MOL0     C12592   6.176   9.925   5.072 -0.3770  0.1397  0.2794
   92MOL0     C12593   6.084  10.024   5.080 -0.4391  0.4378 -0.0984
   92MOL0     O12594   5.985  10.018   5.180  0.4517 -0.7521 -0.0765
   92MOL0     C12595   5.868   9.942   5.141  0.9351  0.0749 -0.2612
   92MOL0     C12596   5.739  10.024   5.116 -0.7033 -0.4131 -0.8132
   92MOL0     C12597   5.689  10.080   5.250 -1.6599 -0.1025  0.1607
   92MOL0     C12598   5.565  10.162   5.214 -0.5438  0.7157  0.6225
   92MOL0     C12599   5.505  10.209   5.348 -0.9050  0.1452 -0.3897
   92MOL0     C12600   5.376  10.295   5.325  0.5256  0.0454 -0.2270
   92MOL0     C12601   5.291  10.284   5.451  0.0795  0.2307 -0.8217
   92MOL0     C12602   5.166  10.353   5.416  0.5190  0.4050 -0.8333
   92MOL0    Cl12603   5.070  10.335   5.572  0.3212  0.1230  0.0822
   92MOL0     C12604   6.096  10.132   4.992  0.6165  0.1888 -0.6306
   92MOL0     C12605   6.202  10.136   4.898 -0.4377 -0.0657 -0.6734
   92MOL0     O12606   6.542  10.078   4.999 -0.7101  0.3271 -0.1147
   92MOL0     C12607   6.670  10.185   4.740  0.2216  0.6609 -0.0644
   92MOL0     C12608   6.783  10.204   4.663  0.3432 -0.0492 -0.0568
   92MOL0     N12609   7.043  10.569   4.357  0.6177 -1.1566 -0.4367
   92MOL0     N12610   7.119  10.669   4.333  0.0564  0.8193 -0.1655
   92MOL0     C12611   6.864  11.459   4.257  0.8109 -0.5236 -0.5130
   92MOL0     C12612   6.748  11.459   4.338  0.1079  0.6954  0.6674
   92MOL0     C12613   6.327  11.319   4.362  0.3678  0.3919  0.2343
   92MOL0     C12614   6.248  11.445   4.378  0.1337  0.2600  0.5361
   92MOL0     C12615   6.111  11.444   4.365  0.0624 -0.0578 -0.7635
   92MOL0     C12616   6.041  11.325   4.370 -0.5650  0.4948  0.3699
   92MOL0     O12617   5.910  11.307   4.376  0.2253  0.4150 -0.1984
   92MOL0     C12618   5.855  11.336   4.248  0.4821  0.6409 -0.3733
   92MOL0     C12619   5.708  11.389   4.262 -0.0033 -0.3402 -0.2338
   92MOL0     C12620   5.608  11.313   4.357  0.2681  0.4419  0.0044
   92MOL0     C12621   5.532  11.199   4.293 -0.1284 -0.8392 -0.8253
   92MOL0     C12622   5.419  11.148   4.373 -0.8441  0.0794  0.8924
   92MOL0     C12623   5.333  11.108   4.444  0.8739  1.2426 -0.1104
   92MOL0     C12624   6.113  11.205   4.378  0.5580  0.4828 -0.4277
   92MOL0     C12625   6.256  11.200   4.369  0.5734 -0.7277  0.5292
   92MOL0     C12626   6.307  11.069   4.337 -0.5519  0.9958 -0.6262
   92MOL0     H12627   6.530  11.495   4.075  3.0389 -1.0285 -5.4268
   92MOL0     H12628   6.750  11.523   3.954  0.8606  0.7098 -0.1181
   92MOL0     H12629   7.120  11.540   4.200  2.3120  1.1826 -0.3853
   92MOL0     H12630   7.193  11.521   4.044  2.5700 -0.9822  1.7996
   92MOL0     H12631   7.207  11.312   4.225 -2.5437  0.4211  1.3642
   92MOL0     H12632   7.053  11.289   4.152 -0.2148  1.2073  2.0129
   92MOL0     H12633   7.139  11.271   3.935  2.1866  0.9249 -1.1854
   92MOL0     H12634   7.301  11.344   3.976  0.0169  2.1480  1.1785
   92MOL0     H12635   7.317  11.089   3.958  1.6718 -0.0864  0.8941
   92MOL0     H12636   7.315  11.126   4.133 -1.4682 -0.8612  1.0582
   92MOL0     H12637   7.058  11.056   3.990  1.5845 -0.5983 -0.6001
   92MOL0     H12638   7.096  11.071   4.157 -2.5874  1.1784 -0.6738
   92MOL0     H12639   7.076  10.832   4.096  2.0829 -2.3379 -0.1939
   92MOL0     H12640   7.210  10.827   3.985 -0.0970  1.5474 -2.1421
   92MOL0     H12641   7.269  10.909   4.272  5.0386 -0.8055  0.6513
   92MOL0     H12642   7.368  10.923   4.134 -0.5270  2.3884 -0.8493
   92MOL0     H12643   7.376  10.679   4.118 -0.0300 -0.2371 -0.1694
   92MOL0     H12644   7.388  10.714   4.288 -0.0242  0.9646 -0.6198
   92MOL0     H12645   7.235  10.459   4.119  0.9548  1.9212 -0.4690
   92MOL0     H12646   6.990  10.298   4.190  1.5097 -0.2347 -1.1981
   92MOL0     H12647   6.936  10.327   4.349  0.8732  1.9416  0.8205
   92MOL0     H12648   7.212  10.233   4.252 -0.7391 -1.0560 -0.5406
   92MOL0     H12649   7.167  10.225   4.427  0.8507  1.4551 -0.3274
   92MOL0     H12650   7.046  10.053   4.213 -0.8154  2.2314  0.1230
   92MOL0     H12651   7.154   9.995   4.338  0.6781 -0.3371 -1.3769
   92MOL0     H12652   6.876  10.080   4.373  0.8395 -1.3164 -3.0554
   92MOL0     H12653   6.968   9.938   4.427  1.3697 -0.0917  3.7448
   92MOL0     H12654   6.915   9.891   4.670 -0.3987  0.0026  1.5636
   92MOL0     H12655   6.601   9.781   4.799  1.0986 -0.0855 -0.6355
   92MOL0     H12656   6.700   9.831   4.937 -1.5293  1.7506  0.2503
   92MOL0     H12657   6.756   9.726   4.795 -1.3506 -0.5610  0.1697
   92MOL0     H12658   6.366   9.852   4.990  0.4512  0.2262  1.2123
   92MOL0     H12659   6.160   9.835   5.131  1.7336 -0.6973 -0.3250
   92MOL0     H12660   5.893   9.893   5.047  1.0258 -2.4030  0.9848
   92MOL0     H12661   5.844   9.857   5.204 -0.0978 -0.5423 -1.4488
   92MOL0     H12662   5.759  10.107   5.047  0.3664 -1.6499 -2.0389
   92MOL0     H12663   5.664   9.965   5.061 -1.0126  1.6248 -2.7270
   92MOL0     H12664   5.768  10.136   5.299  0.0163 -1.8138 -0.4441
   92MOL0     H12665   5.665   9.996   5.316 -2.8630 -0.7977 -1.0987
   92MOL0     H12666   5.480  10.111   5.169 -1.3498  0.0217  2.7694
   92MOL0     H12667   5.598  10.240   5.144 -0.4786  2.2371  2.2486
   92MOL0     H12668   5.488  10.115   5.401  1.7427 -0.1475  0.0759
   92MOL0     H12669   5.575  10.269   5.407  1.3260 -1.4958 -1.2319
   92MOL0     H12670   5.329  10.251   5.237  1.3924 -0.6337 -0.3628
   92MOL0     H12671   5.395  10.399   5.299 -0.6575  0.2326 -0.3966
   92MOL0     H12672   5.328  10.334   5.541 -1.4757 -0.3450  0.1717
   92MOL0     H12673   5.270  10.178   5.465 -0.4889  0.2828 -1.2377
   92MOL0     H12674   5.121  10.303   5.329 -1.4956  0.8359 -0.0853
   92MOL0     H12675   5.182  10.459   5.397 -3.5013  2.2471  3.9074
   92MOL0     H12676   6.025  10.212   5.002 -3.3549 -3.1509  0.7944
   92MOL0     H12677   6.211  10.230   4.845  0.7636 -0.3934 -1.0813
   92MOL0     H12678   6.603  10.269   4.758 -1.3841 -0.7759  1.0808
   92MOL0     H12679   6.799  10.302   4.620 -1.6461  0.5184  0.3926
   92MOL0     H12680   6.951  11.437   4.318 -0.8337  0.0627  2.2005
   92MOL0     H12681   6.749  11.442   4.445 -1.3516  0.6877  0.6912
   92MOL0     H12682   6.291  11.545   4.379 -3.0053  1.7373  0.4166
   92MOL0     H12683   6.061  11.540   4.355 -1.2381 -0.5611  0.6322
   92MOL0     H12684   5.917  11.394   4.180 -0.9134 -0.3956 -2.6294
   92MOL0     H12685   5.855  11.237   4.203 -0.2907  0.1905  0.5688
   92MOL0     H12686   5.668  11.392   4.160  1.1712 -0.9613 -0.7342
   92MOL0     H12687   5.718  11.487   4.309 -3.2487 -0.0753  0.1219
   92MOL0     H12688   5.651  11.269   4.447 -0.2264 -0.1259 -0.0281
   92MOL0     H12689   5.546  11.388   4.408  0.8969  1.5357 -0.8018
   92MOL0     H12690   5.595  11.111   4.275  0.4802 -0.6874  0.4260
   92MOL0     H12691   5.481  11.245   4.209 -0.1666  2.3531  0.8001
   92MOL0     H12692   5.249  11.070   4.499 -1.3074  1.8474 -2.7946
   92MOL0     H12693   6.049  11.118   4.366 -2.0772  2.1869  0.3499
   92MOL0     H12694   6.383  11.077   4.259  0.2123  1.2885  0.1445
   92MOL0     H12695   6.350  11.007   4.416 -2.2867  1.1490  0.4912
   92MOL0     H12696   6.228  11.006   4.294  1.3436 -0.2754 -2.4795
   93MOL0     O12697   1.582   9.795   9.009 -0.2336  0.3267  0.9647
   93MOL0     C12698   1.515   9.885   8.960  0.5623 -1.2050 -0.5976
   93MOL0     O12699   1.459   9.993   9.029  0.3866  0.3272 -0.7433
   93MOL0     C12700   1.524  10.040   9.141  0.4683  0.1651  0.4178
   93MOL0     C12701   1.635  10.132   9.138  0.3295  0.4883  0.9985
   93MOL0     C12702   1.696  10.158   9.262 -0.2874  0.4167  0.4262
   93MOL0     C12703   1.653  10.103   9.379 -0.3962 -0.3329 -0.4593
   93MOL0     O12704   1.728  10.145   9.484  0.6286 -0.2525  0.1933
   93MOL0     C12705   1.670  10.143   9.620  0.1787  0.2232  0.8667
   93MOL0     C12706   1.687  10.274   9.692 -0.3528  0.0596 -0.0846
   93MOL0     C12707   1.608  10.258   9.821 -0.1479  0.2185 -0.8976
   93MOL0     C12708   1.609  10.387   9.900  0.0795  0.8528 -0.3020
   93MOL0     C12709   1.533  10.386  10.036  1.2514  0.3610 -0.6482
   93MOL0     C12710   1.538  10.533  10.101 -0.5110  0.6111 -0.8228
   93MOL0     C12711   1.527  10.527  10.264  0.9793 -0.4239 -0.0101
   93MOL0     C12712   1.557  10.660  10.338  0.1044 -0.4745 -0.0210
   93MOL0     N12713   1.464  10.766  10.299  0.7559  0.2217  0.3221
   93MOL0     C12714   1.498  10.879  10.223  0.4082 -0.0578  0.4224
   93MOL0     C12715   1.377  10.945  10.222  0.2661 -0.4764 -0.1102
   93MOL0     C12716   1.339  11.060  10.130 -0.0439 -1.3298 -0.0338
   93MOL0     C12717   1.366  11.198  10.185 -0.4046  0.4005 -0.4903
   93MOL0     C12718   1.281  11.234  10.317  0.5695 -0.1676  0.0336
   93MOL0     C12719   1.301  11.375  10.366 -0.4572 -0.6789  0.6784
   93MOL0     O12720   1.204  11.386  10.473 -0.9092  0.2673 -0.5590
   93MOL0     C12721   1.244  11.381  10.606  0.2419  1.5892  0.5787
   93MOL0     C12722   1.369  11.409  10.655  0.3133 -0.4188  0.0722
   93MOL0     C12723   1.406  11.388  10.786  0.1540  0.1354  0.3004
   93MOL0     C12724   1.552  11.424  10.820  0.1925  0.4951  0.2871
   93MOL0     C12725   1.313  11.326  10.879 -0.6620 -0.3423 -0.4388
   93MOL0     C12726   1.341  11.298  11.029 -1.6931 -0.6380 -0.2766
   93MOL0     O12727   1.248  11.240  11.094  0.2909 -0.9573 -0.5307
   93MOL0     C12728   1.267  11.230  11.233 -0.4996  0.9901  0.2455
   93MOL0     C12729   1.200  11.309  11.327  0.2940 -0.3777 -0.6444
   93MOL0     C12730   1.224  11.318  11.467 -1.0577  0.6438 -0.8000
   93MOL0     C12731   1.332  11.226  11.516 -0.5989  0.4208  0.9873
   93MOL0     O12732   1.382  11.206  11.638 -0.8359 -0.1727 -0.3694
   93MOL0     C12733   1.387  11.323  11.720  0.2156 -0.7545  1.3242
   93MOL0     C12734   1.489  11.288  11.828  0.6655 -0.3837 -0.2891
   93MOL0     C12735   1.460  11.340  11.965  0.1415 -0.9147 -1.6151
   93MOL0     C12736   1.494  11.485  11.985 -0.7717 -0.6008 -0.5893
   93MOL0     C12737   1.397  11.588  11.931  0.2131 -0.0222  0.0811
   93MOL0     C12738   1.428  11.732  11.998  0.1320  0.2158  0.1995
   93MOL0     C12739   1.320  11.846  11.982 -0.2848 -0.1549 -0.0484
   93MOL0     C12740   1.307  11.891  11.840  0.3305  0.6235 -0.0654
   93MOL0    Cl12741   1.437  12.005  11.807  0.0727 -0.0711 -0.3721
   93MOL0     C12742   1.378  11.133  11.417  1.1283 -0.3689 -0.2420
   93MOL0     C12743   1.347  11.129  11.279  1.1071 -0.2661 -0.2789
   93MOL0     O12744   1.461  11.328  11.077  0.6913 -0.5417 -0.3562
   93MOL0     C12745   1.190  11.282  10.825 -0.2041 -0.2481 -0.4095
   93MOL0     C12746   1.157  11.317  10.695 -0.1441 -0.1487  0.5341
   93MOL0     N12747   1.289  10.867  10.287 -0.5384  0.1138 -0.0885
   93MOL0     N12748   1.338  10.764  10.338  0.3645 -0.8309  0.1872
   93MOL0     C12749   1.527  10.027   9.387  0.4498 -0.7342  0.0914
   93MOL0     C12750   1.468   9.995   9.265  0.0606  0.5682  0.3565
   93MOL0     C12751   1.453   9.867   8.825 -0.5348 -0.6989  0.4039
   93MOL0     C12752   1.378   9.981   8.775  0.6628 -0.3310 -0.2995
   93MOL0     C12753   1.341   9.989   8.637  0.8118  1.0596 -0.7219
   93MOL0     C12754   1.364   9.875   8.553  0.3898 -0.6760  0.2211
   93MOL0     O12755   1.316   9.877   8.423  0.2148  0.7062 -0.3755
   93MOL0     C12756   1.427   9.858   8.326  0.1031 -0.6257  0.2470
   93MOL0     C12757   1.378   9.893   8.187 -0.1919  0.4931  0.3497
   93MOL0     C12758   1.491   9.900   8.083  0.4501  0.1408  0.4398
   93MOL0     C12759   1.587  10.018   8.114 -0.0992  0.3129 -0.8905
   93MOL0     C12760   1.691  10.033   8.016  0.6518 -0.3396  0.4598
   93MOL0     C12761   1.783  10.052   7.941 -0.6827 -0.2047 -1.3890
   93MOL0     C12762   1.441   9.775   8.601 -0.0700  0.3349 -0.9694
   93MOL0     C12763   1.484   9.760   8.732  0.3372  0.1183 -0.2588
   93MOL0     C12764   1.566   9.642   8.768 -0.2655 -0.0888 -0.4162
   93MOL0     H12765   1.679  10.170   9.046  1.2637  2.5817  2.2297
   93MOL0     H12766   1.786  10.217   9.275  0.9128 -0.8645 -1.5668
   93MOL0     H12767   1.705  10.055   9.674  0.2208 -0.8509 -0.8283
   93MOL0     H12768   1.562  10.133   9.612  0.0809  1.0477  1.0044
   93MOL0     H12769   1.787  10.302   9.725 -0.2044 -1.3864  0.7804
   93MOL0     H12770   1.653  10.352   9.624  0.6506  0.8940  0.3621
   93MOL0     H12771   1.504  10.233   9.797 -0.5843  2.2555 -1.2633
   93MOL0     H12772   1.658  10.187   9.888  1.7534  2.7788  0.5707
   93MOL0     H12773   1.712  10.413   9.928 -0.3192  3.7693 -1.2574
   93MOL0     H12774   1.584  10.475   9.841 -1.5223  1.4885  1.2710
   93MOL0     H12775   1.579  10.309  10.097  1.3169  0.9587  0.0732
   93MOL0     H12776   1.429  10.354  10.029  0.8363  0.6333  2.6175
   93MOL0     H12777   1.640  10.571  10.089 -0.2770  0.7522  1.2018
   93MOL0     H12778   1.457  10.594  10.060 -1.7690  0.5572  1.3944
   93MOL0     H12779   1.598  10.456  10.307 -1.3246 -2.1588  1.1535
   93MOL0     H12780   1.426  10.493  10.290  0.9118  1.0106  1.8330
   93MOL0     H12781   1.552  10.644  10.446 -0.5877 -0.5983 -0.0710
   93MOL0     H12782   1.656  10.677  10.295  0.5249 -1.4814  0.5061
   93MOL0     H12783   1.598  10.911  10.196 -0.3155  1.6772 -0.2724
   93MOL0     H12784   1.238  11.046  10.091 -1.1039 -1.9579  2.6646
   93MOL0     H12785   1.408  11.051  10.046  0.2181 -0.7498  0.1099
   93MOL0     H12786   1.469  11.232  10.197 -0.5632  0.0609  2.3008
   93MOL0     H12787   1.331  11.267  10.106 -1.5548 -3.1231 -3.3350
   93MOL0     H12788   1.174  11.225  10.296  0.4890 -0.2034  0.4572
   93MOL0     H12789   1.294  11.165  10.400  0.8821 -0.7153 -0.4615
   93MOL0     H12790   1.402  11.387  10.407 -1.4272 -1.5844  3.5594
   93MOL0     H12791   1.285  11.453  10.291  2.4998  0.8257  1.4373
   93MOL0     H12792   1.441  11.456  10.589 -2.6892  0.9515 -2.4869
   93MOL0     H12793   1.546  11.512  10.884 -1.5554  1.4340 -1.0512
   93MOL0     H12794   1.608  11.450  10.729 -1.3139 -1.7571 -1.4011
   93MOL0     H12795   1.591  11.329  10.857  3.0872  1.0719 -1.0392
   93MOL0     H12796   1.131  11.378  11.278 -0.9163 -1.0937 -0.0102
   93MOL0     H12797   1.166  11.382  11.533  1.7198 -1.2396  4.0641
   93MOL0     H12798   1.415  11.400  11.648  0.6841 -2.2796 -0.2045
   93MOL0     H12799   1.288  11.356  11.753 -0.6277  0.0102 -1.6088
   93MOL0     H12800   1.504  11.181  11.848 -2.0450 -0.5764  1.1356
   93MOL0     H12801   1.581  11.338  11.797  0.3041  1.2610  1.1680
   93MOL0     H12802   1.517  11.285  12.040  2.1572  1.5133 -1.2518
   93MOL0     H12803   1.354  11.329  11.993  0.0912 -0.6682 -1.7103
   93MOL0     H12804   1.595  11.508  11.949  0.9749  0.0855  4.0701
   93MOL0     H12805   1.506  11.509  12.091 -0.5557  0.4759 -0.8459
   93MOL0     H12806   1.416  11.591  11.824  0.7043  0.0188  0.1694
   93MOL0     H12807   1.301  11.543  11.958  0.8951 -0.9633  1.0397
   93MOL0     H12808   1.528  11.762  11.964 -1.2841  1.5445 -3.2492
   93MOL0     H12809   1.435  11.719  12.106 -0.4483  2.2020  0.5291
   93MOL0     H12810   1.351  11.929  12.046  3.3602 -0.2749 -1.4024
   93MOL0     H12811   1.222  11.811  12.018  0.0394 -1.7880 -0.6719
   93MOL0     H12812   1.214  11.946  11.824  0.5318  0.5422 -1.7234
   93MOL0     H12813   1.314  11.808  11.769  0.2352  2.1220 -1.8877
   93MOL0     H12814   1.457  11.064  11.446 -0.0454 -0.7418  2.4365
   93MOL0     H12815   1.383  11.053  11.211 -0.9264 -3.2227  1.7380
   93MOL0     H12816   1.114  11.226  10.880 -0.2989  0.9296  0.7257
   93MOL0     H12817   1.060  11.284  10.658 -1.5177 -1.1212  4.5096
   93MOL0     H12818   1.480   9.987   9.476 -2.4988 -1.3609 -1.6040
   93MOL0     H12819   1.390   9.920   9.259 -0.9103  1.3139  2.7812
   93MOL0     H12820   1.358  10.059   8.848  1.6419 -1.8791  1.7409
   93MOL0     H12821   1.288  10.073   8.594  0.7021  1.7885  0.8055
   93MOL0     H12822   1.511   9.920   8.359  0.9598 -1.8661  0.4499
   93MOL0     H12823   1.465   9.755   8.325 -1.9940 -1.4619  1.3789
   93MOL0     H12824   1.331   9.991   8.194 -1.3773  0.2647 -2.7969
   93MOL0     H12825   1.306   9.817   8.153  1.1279 -0.1693 -1.1000
   93MOL0     H12826   1.549   9.808   8.079  1.2011  0.6072  0.5104
   93MOL0     H12827   1.457   9.916   7.980  2.2708  0.3728 -0.1529
   93MOL0     H12828   1.641  10.003   8.208  2.9649 -0.4732 -2.6363
   93MOL0     H12829   1.531  10.112   8.109  1.6643  1.7422  2.5674
   93MOL0     H12830   1.876  10.069   7.891  0.6205  0.7272  1.1459
   93MOL0     H12831   1.458   9.687   8.539  1.6297 -0.2180  0.2055
   93MOL0     H12832   1.513   9.591   8.849 -1.4325  1.2051 -0.3144
   93MOL0     H12833   1.580   9.566   8.692 -0.4921  0.7024 -1.2695
   93MOL0     H12834   1.664   9.676   8.804 -1.1847  1.3431  0.8792
   94MOL0     O12835   7.061   3.386   7.261  0.4376  0.6100  0.6961
   94MOL0     C12836   7.022   3.502   7.259 -1.7679  0.6792  1.9046
   94MOL0     O12837   7.045   3.597   7.353  0.6733 -0.0935 -0.2688
   94MOL0     C12838   7.135   3.566   7.450  0.2957  0.7180 -0.4084
   94MOL0     C12839   7.252   3.510   7.421  0.2942 -0.0167 -0.6811
   94MOL0     C12840   7.335   3.463   7.522  0.1901 -0.3905  0.6291
   94MOL0     C12841   7.304   3.468   7.658 -0.4113 -0.0932 -0.6942
   94MOL0     O12842   7.383   3.394   7.752  0.1565  0.1940  0.1450
   94MOL0     C12843   7.363   3.431   7.889  0.8867 -0.4303 -0.7888
   94MOL0     C12844   7.465   3.377   7.985  0.6877  0.6377  0.6518
   94MOL0     C12845   7.462   3.222   8.009  0.5444 -0.6140 -0.4025
   94MOL0     C12846   7.341   3.126   7.954 -0.2261 -0.7099 -0.2379
   94MOL0     C12847   7.352   2.992   8.021 -0.2871  0.0175  0.5180
   94MOL0     C12848   7.230   2.913   7.991 -0.0826 -0.1099 -0.1797
   94MOL0     C12849   7.221   2.764   8.059  0.5852 -0.4173 -0.1585
   94MOL0     C12850   7.090   2.698   8.028  0.1706  0.1430  0.6844
   94MOL0     N12851   6.972   2.767   8.090  0.1240 -0.2582 -0.3924
   94MOL0     C12852   6.865   2.818   8.017 -0.1705 -0.2361 -0.3794
   94MOL0     C12853   6.796   2.895   8.107 -0.7634  0.4874  0.8945
   94MOL0     C12854   6.669   2.967   8.079 -0.7265 -0.4796 -0.0177
   94MOL0     C12855   6.568   2.933   8.195 -0.6674 -0.0506 -0.3045
   94MOL0     C12856   6.534   2.776   8.188  0.5924 -0.0471  0.0416
   94MOL0     C12857   6.409   2.751   8.268  0.3218 -0.2922 -1.0919
   94MOL0     O12858   6.306   2.835   8.214 -0.5073  0.2096  0.1506
   94MOL0     C12859   6.188   2.844   8.270  0.8714  0.0720 -0.2968
   94MOL0     C12860   6.135   2.754   8.365 -0.9550 -1.1468  0.0777
   94MOL0     C12861   6.000   2.773   8.404  0.1286  0.1333 -0.5292
   94MOL0     C12862   5.946   2.662   8.510  0.5733 -0.1334 -0.5220
   94MOL0     C12863   5.921   2.876   8.356  0.2185  0.3156 -0.7382
   94MOL0     C12864   5.774   2.897   8.396 -0.6691  0.9497 -0.4387
   94MOL0     O12865   5.698   2.793   8.439 -0.4938  0.9257  0.0100
   94MOL0     C12866   5.588   2.814   8.509  0.5020 -0.5930  0.4409
   94MOL0     C12867   5.581   2.774   8.641  0.3834 -0.7989  0.2349
   94MOL0     C12868   5.467   2.803   8.717 -0.5704  1.0817 -0.5585
   94MOL0     C12869   5.357   2.855   8.663  0.2121  1.1315 -0.0079
   94MOL0     O12870   5.255   2.874   8.750  0.0563  0.3431 -0.4638
   94MOL0     C12871   5.151   2.968   8.715 -0.3379  0.0758 -0.0999
   94MOL0     C12872   5.037   2.937   8.813  0.8854 -0.5719  0.1504
   94MOL0     C12873   5.091   2.937   8.952  0.6093  0.6941  0.2658
   94MOL0     C12874   5.001   2.970   9.064  0.0640  0.2068  0.1763
   94MOL0     C12875   5.053   2.936   9.204 -0.7124 -0.9301  0.2629
   94MOL0     C12876   4.945   2.948   9.317  0.2179 -0.1865 -0.2795
   94MOL0     C12877   4.882   3.087   9.339 -0.1212 -0.5472  1.0974
   94MOL0     C12878   4.744   3.106   9.267  0.7957  1.0545 -0.4342
   94MOL0    Cl12879   4.630   2.976   9.292  0.1669  0.2206 -0.2237
   94MOL0     C12880   5.355   2.886   8.526  0.2869  0.0354  0.2551
   94MOL0     C12881   5.468   2.861   8.447 -0.8147  0.5183  0.4776
   94MOL0     O12882   5.733   3.008   8.381  0.9220 -0.2308 -0.4199
   94MOL0     C12883   5.980   2.963   8.259  0.2173  1.1749 -0.1743
   94MOL0     C12884   6.109   2.949   8.227 -0.3307  1.2075  0.1733
   94MOL0     N12885   6.863   2.901   8.219  0.0067  0.2040 -0.3536
   94MOL0     N12886   6.973   2.821   8.218  0.4538  0.6306 -0.6628
   94MOL0     C12887   7.187   3.551   7.691  0.3813 -0.1673 -0.1420
   94MOL0     C12888   7.107   3.589   7.583 -0.0659 -0.2902  0.2171
   94MOL0     C12889   6.957   3.560   7.138 -0.3884 -0.2358 -0.0166
   94MOL0     C12890   6.859   3.664   7.148  0.4907  0.1821 -0.7075
   94MOL0     C12891   6.813   3.729   7.035 -0.0005  0.2086  0.1028
   94MOL0     C12892   6.855   3.683   6.907 -0.2582  0.1787  0.0041
   94MOL0     O12893   6.795   3.735   6.797  0.1752  0.2810  0.0711
   94MOL0     C12894   6.848   3.739   6.659  0.5994  0.4980  0.1045
   94MOL0     C12895   6.776   3.856   6.584  0.2452 -0.5256 -0.1278
   94MOL0     C12896   6.776   3.849   6.435  1.2186  0.2827  0.1968
   94MOL0     C12897   6.903   3.824   6.358 -0.9151 -0.2566 -0.4466
   94MOL0     C12898   6.899   3.811   6.214  0.3491  1.0746  0.3197
   94MOL0     C12899   6.901   3.808   6.089 -0.2887 -0.3146 -0.7039
   94MOL0     C12900   6.946   3.578   6.897  0.0168 -0.0246 -0.4390
   94MOL0     C12901   7.005   3.514   7.007  0.4799 -0.5025 -0.5421
   94MOL0     C12902   7.105   3.404   6.983 -0.3754 -0.2693 -0.4558
   94MOL0     H12903   7.269   3.498   7.315  1.0297  1.9382 -0.8382
   94MOL0     H12904   7.430   3.415   7.501  0.1071  0.3540 -1.7297
   94MOL0     H12905   7.261   3.402   7.914  2.2181 -2.8360  2.5627
   94MOL0     H12906   7.372   3.540   7.887 -0.3908 -0.1915  2.0436
   94MOL0     H12907   7.563   3.402   7.942  1.2373 -0.3604  1.2955
   94MOL0     H12908   7.459   3.432   8.079  1.8052  0.3731  0.8850
   94MOL0     H12909   7.563   3.183   7.991  2.0091  2.0384  1.4889
   94MOL0     H12910   7.464   3.214   8.118  3.5105 -0.7231 -0.3801
   94MOL0     H12911   7.253   3.186   7.978  0.3012  0.6417 -1.5091
   94MOL0     H12912   7.342   3.111   7.846  1.9137 -2.1342 -0.0892
   94MOL0     H12913   7.361   3.012   8.129  0.8342 -1.5481  0.7534
   94MOL0     H12914   7.438   2.931   7.993 -2.1138 -1.0770 -3.4749
   94MOL0     H12915   7.140   2.962   8.029 -0.0822 -0.2232 -0.0337
   94MOL0     H12916   7.229   2.910   7.882  0.7026  1.4087 -0.2588
   94MOL0     H12917   7.235   2.760   8.167  1.5184  1.1358 -0.1904
   94MOL0     H12918   7.297   2.706   8.007  0.2172 -0.7201 -0.3660
   94MOL0     H12919   7.077   2.692   7.920 -2.7467 -2.5973  1.0284
   94MOL0     H12920   7.087   2.593   8.059 -1.5195  0.1110  0.4893
   94MOL0     H12921   6.835   2.793   7.915 -0.6217  0.2985 -0.3805
   94MOL0     H12922   6.632   2.935   7.981  3.0701 -0.2368 -1.7065
   94MOL0     H12923   6.681   3.076   8.070  2.2088 -0.8413 -1.5445
   94MOL0     H12924   6.623   2.950   8.288  1.2695 -0.8208 -1.2636
   94MOL0     H12925   6.482   3.000   8.197 -1.2375 -0.7223  2.9790
   94MOL0     H12926   6.512   2.740   8.087  1.5177  2.0242 -0.9678
   94MOL0     H12927   6.615   2.713   8.224  1.3995 -0.5784 -2.5020
   94MOL0     H12928   6.366   2.651   8.256 -0.9226  0.1301 -0.4119
   94MOL0     H12929   6.430   2.776   8.373  1.9690 -1.7668 -1.0327
   94MOL0     H12930   6.187   2.670   8.410  0.5280  0.2246  1.0463
   94MOL0     H12931   5.851   2.617   8.476  1.3285  0.3317 -3.5710
   94MOL0     H12932   5.937   2.731   8.594 -0.1673 -1.0641  0.1960
   94MOL0     H12933   6.016   2.587   8.548  1.1284  0.7168  0.1541
   94MOL0     H12934   5.660   2.713   8.684  0.6368 -1.6607 -1.3619
   94MOL0     H12935   5.464   2.764   8.818 -1.5781 -0.7062 -1.2389
   94MOL0     H12936   5.203   3.059   8.747 -2.8805  0.3160  3.9705
   94MOL0     H12937   5.130   2.968   8.608  2.6181  0.7635 -0.7922
   94MOL0     H12938   4.966   3.019   8.804  1.4863  0.0248  0.8080
   94MOL0     H12939   4.991   2.839   8.797  0.5683 -0.3927 -0.0273
   94MOL0     H12940   5.182   2.997   8.951  1.0922  0.1998  3.5803
   94MOL0     H12941   5.119   2.832   8.970  0.4660  0.9337  2.0267
   94MOL0     H12942   4.909   2.911   9.054  1.1052 -1.5846  0.5982
   94MOL0     H12943   4.986   3.078   9.062 -1.7987 -0.0196 -0.2716
   94MOL0     H12944   5.092   2.834   9.216 -0.8690 -0.7975  2.3593
   94MOL0     H12945   5.134   3.007   9.220  0.4213 -2.5961  2.4884
   94MOL0     H12946   5.004   2.919   9.405  0.8738  1.3664 -0.1748
   94MOL0     H12947   4.864   2.875   9.307 -0.1250  0.4371 -2.5166
   94MOL0     H12948   4.944   3.173   9.313 -4.8055  2.2705 -2.4689
   94MOL0     H12949   4.873   3.099   9.448 -0.2171 -3.4545  1.4863
   94MOL0     H12950   4.765   3.136   9.164  1.0994  3.6629  0.3137
   94MOL0     H12951   4.687   3.192   9.301 -1.4301 -0.4760 -0.0313
   94MOL0     H12952   5.264   2.917   8.476 -0.0054  0.1068  0.8175
   94MOL0     H12953   5.473   2.878   8.340  2.9751  0.3827  0.4992
   94MOL0     H12954   5.912   3.031   8.208 -2.4029 -1.0744  0.1387
   94MOL0     H12955   6.155   3.003   8.145  1.8646 -2.8726 -1.5660
   94MOL0     H12956   7.143   3.561   7.790 -1.7567  1.9006 -1.1817
   94MOL0     H12957   7.008   3.630   7.601 -0.0271 -0.9152  2.0817
   94MOL0     H12958   6.815   3.695   7.242 -2.5744 -2.1869 -1.2179
   94MOL0     H12959   6.730   3.799   7.038 -2.0704 -2.1170  1.9016
   94MOL0     H12960   6.956   3.758   6.664  0.1466  3.5769  5.0509
   94MOL0     H12961   6.826   3.645   6.609  0.8031  0.6879 -0.3466
   94MOL0     H12962   6.806   3.953   6.623 -0.3543 -1.2273  2.3061
   94MOL0     H12963   6.675   3.859   6.627  0.8952  2.9553  1.5215
   94MOL0     H12964   6.708   3.767   6.408 -0.2506  1.0305  1.4222
   94MOL0     H12965   6.730   3.946   6.414 -0.4226 -0.9201 -2.1753
   94MOL0     H12966   6.940   3.730   6.399 -2.8941 -0.7296  0.3755
   94MOL0     H12967   6.964   3.912   6.376  0.4356 -1.3984  0.7672
   94MOL0     H12968   6.912   3.791   5.983 -0.6847  1.2823 -1.0260
   94MOL0     H12969   6.970   3.545   6.796 -0.4582  0.4766 -0.7190
   94MOL0     H12970   7.057   3.308   7.003  0.6885 -1.2988 -2.4488
   94MOL0     H12971   7.151   3.398   6.883  2.5564 -3.3736  0.8878
   94MOL0     H12972   7.191   3.413   7.050 -0.9989 -2.8001  0.7725
   95MOL0     O12973   3.431   1.243   3.311 -0.4076  0.0788 -0.0358
   95MOL0     C12974   3.478   1.249   3.429  0.8073 -0.0924  0.0998
   95MOL0     O12975   3.603   1.279   3.460 -0.3612  0.3198 -0.4751
   95MOL0     C12976   3.666   1.374   3.378 -0.5729 -0.3307  0.0271
   95MOL0     C12977   3.780   1.331   3.307 -0.2641 -0.2067 -0.2787
   95MOL0     C12978   3.848   1.429   3.234  0.4806 -0.2845 -0.1219
   95MOL0     C12979   3.827   1.560   3.252 -1.2175 -0.1590  0.6962
   95MOL0     O12980   3.924   1.653   3.213  0.4613 -0.0434  0.5510
   95MOL0     C12981   3.880   1.728   3.093  0.1329 -0.7370 -0.5429
   95MOL0     C12982   3.985   1.819   3.041  1.2387 -0.0716  0.9630
   95MOL0     C12983   4.076   1.883   3.148  0.8139  0.1815  0.5810
   95MOL0     C12984   4.168   1.980   3.073 -0.1674  0.3055 -0.4680
   95MOL0     C12985   4.247   2.062   3.182 -0.0689  0.8285 -0.4491
   95MOL0     C12986   4.320   2.184   3.114 -0.4059 -0.2912 -0.3730
   95MOL0     C12987   4.400   2.255   3.226 -0.2573 -1.0547 -0.2760
   95MOL0     C12988   4.510   2.350   3.168 -0.0255 -0.3768 -0.4721
   95MOL0     N12989   4.621   2.393   3.261 -0.7599  1.0230  0.5048
   95MOL0     C12990   4.683   2.322   3.361  0.7713  0.2008  0.4638
   95MOL0     C12991   4.794   2.389   3.399 -0.8743 -0.3231 -0.1593
   95MOL0     C12992   4.907   2.335   3.482 -0.4365  0.4286 -0.8065
   95MOL0     C12993   4.870   2.294   3.626 -0.1750  0.0907  0.2454
   95MOL0     C12994   4.988   2.277   3.724  0.0836  0.2845  1.1530
   95MOL0     C12995   5.099   2.168   3.691 -0.3660  0.4516 -0.0895
   95MOL0     O12996   5.198   2.148   3.791  0.8486  0.3633 -0.1787
   95MOL0     C12997   5.317   2.082   3.758  0.8245  0.7591  0.4091
   95MOL0     C12998   5.407   2.071   3.862 -0.6183  0.0182 -0.1617
   95MOL0     C12999   5.536   2.012   3.838 -0.4853 -0.5829 -0.2589
   95MOL0     C13000   5.635   2.042   3.956  0.1845  0.2979  0.6664
   95MOL0     C13001   5.572   1.967   3.703 -0.5785  0.2524 -0.3672
   95MOL0     C13002   5.713   1.919   3.670 -0.3027 -1.0758 -0.5357
   95MOL0     O13003   5.773   1.949   3.547 -0.2720  1.0124 -0.4301
   95MOL0     C13004   5.896   1.888   3.530  0.3774 -0.9522 -0.1647
   95MOL0     C13005   5.913   1.763   3.476 -0.1606  0.7147 -0.3606
   95MOL0     C13006   6.033   1.696   3.460  0.1674  0.4158  0.1298
   95MOL0     C13007   6.150   1.759   3.503 -0.2495  0.8279 -0.2614
   95MOL0     O13008   6.274   1.698   3.464 -0.1597  0.5755  0.5668
   95MOL0     C13009   6.399   1.767   3.460 -0.2565 -1.3752  0.5275
   95MOL0     C13010   6.493   1.671   3.389  0.5506  0.4160  0.8143
   95MOL0     C13011   6.498   1.695   3.241  0.2397 -0.1503  0.1120
   95MOL0     C13012   6.509   1.577   3.144 -0.0653  0.6430  0.1537
   95MOL0     C13013   6.421   1.598   3.013  0.6307 -0.4530  0.4953
   95MOL0     C13014   6.266   1.598   3.041 -0.2535  0.1044  0.4214
   95MOL0     C13015   6.182   1.599   2.919  0.6516  0.0681  0.5619
   95MOL0     C13016   6.142   1.451   2.875 -0.6229 -0.2797 -1.3172
   95MOL0    Cl13017   6.015   1.428   2.754 -0.1078 -0.3999 -0.0219
   95MOL0     C13018   6.136   1.880   3.573  0.4738 -0.3746  0.0515
   95MOL0     C13019   6.010   1.943   3.591 -0.3192  0.3869  1.1750
   95MOL0     O13020   5.766   1.864   3.764  0.1029 -0.1097 -0.1115
   95MOL0     C13021   5.469   1.973   3.608 -0.5203 -0.0005  0.7032
   95MOL0     C13022   5.334   2.013   3.631  0.2644  0.0914 -0.9091
   95MOL0     N13023   4.803   2.496   3.317  0.0602  0.5945  0.3180
   95MOL0     N13024   4.702   2.491   3.228 -0.1166  0.6138 -0.0906
   95MOL0     C13025   3.714   1.605   3.327  0.2301  0.3805 -0.0147
   95MOL0     C13026   3.626   1.512   3.385 -0.2977 -0.0102  0.0281
   95MOL0     C13027   3.395   1.198   3.546  0.1618  0.2900  0.9291
   95MOL0     C13028   3.301   1.091   3.535 -0.4434  0.1498  1.0078
   95MOL0     C13029   3.223   1.043   3.630 -0.0152 -0.0638 -0.5403
   95MOL0     C13030   3.230   1.106   3.752  0.3515 -0.7539  0.1847
   95MOL0     O13031   3.147   1.057   3.858 -0.0533  0.2570 -0.0653
   95MOL0     C13032   3.164   1.100   3.988  0.7245 -0.0788  0.1437
   95MOL0     C13033   3.054   1.030   4.063 -0.4184 -0.2717 -0.0066
   95MOL0     C13034   3.007   1.095   4.193  0.3636 -1.2688 -0.2929
   95MOL0     C13035   2.968   0.997   4.301  0.1011  0.1797  0.1857
   95MOL0     C13036   2.858   0.928   4.243 -0.6910 -0.1459  0.3792
   95MOL0     C13037   2.762   0.854   4.202 -0.1101 -0.3405 -0.5864
   95MOL0     C13038   3.317   1.215   3.776  0.5055 -0.3366  0.0277
   95MOL0     C13039   3.401   1.258   3.668 -0.0502 -0.1162  0.2741
   95MOL0     C13040   3.486   1.378   3.703 -0.8025 -0.2356 -0.2512
   95MOL0     H13041   3.806   1.229   3.333 -1.6267 -0.1497  1.4796
   95MOL0     H13042   3.946   1.419   3.189  0.8207  3.8745 -0.7115
   95MOL0     H13043   3.796   1.789   3.128  0.2873 -1.1484  0.6016
   95MOL0     H13044   3.844   1.675   3.004  0.3946 -1.0469 -0.4658
   95MOL0     H13045   4.036   1.768   2.959 -1.2199 -3.7497  1.4694
   95MOL0     H13046   3.933   1.899   2.988  0.8096 -1.8049 -1.4096
   95MOL0     H13047   4.010   1.944   3.211  0.6864  1.9587 -1.1697
   95MOL0     H13048   4.133   1.807   3.202  1.1960  0.6365  0.8258
   95MOL0     H13049   4.237   1.928   3.007  1.4871  0.5340  0.9982
   95MOL0     H13050   4.108   2.055   3.021 -1.4627  0.5426  1.2585
   95MOL0     H13051   4.323   2.003   3.233  1.0679  1.0222 -1.8513
   95MOL0     H13052   4.173   2.083   3.260  0.2646 -1.2564  0.4815
   95MOL0     H13053   4.388   2.157   3.033  0.3591  2.1600 -0.6352
   95MOL0     H13054   4.243   2.246   3.068  0.9058  2.6489  1.0860
   95MOL0     H13055   4.440   2.174   3.289 -3.3537 -1.6332  1.1453
   95MOL0     H13056   4.331   2.297   3.300  1.0550 -5.6930  4.2280
   95MOL0     H13057   4.555   2.305   3.080  1.6031  0.2893 -0.0243
   95MOL0     H13058   4.454   2.434   3.124 -0.1580 -0.6940 -0.9121
   95MOL0     H13059   4.653   2.223   3.394 -2.4284  1.6358  2.4302
   95MOL0     H13060   4.988   2.408   3.492  1.4260 -1.7333  0.8526
   95MOL0     H13061   4.961   2.251   3.438  1.2954  1.9898 -1.7695
   95MOL0     H13062   4.808   2.379   3.657  1.2767  2.5320 -2.9700
   95MOL0     H13063   4.799   2.211   3.628 -1.5802  1.2606  2.4783
   95MOL0     H13064   5.035   2.374   3.744 -2.0491  1.3847  1.1372
   95MOL0     H13065   4.942   2.233   3.813  0.6526 -1.9033  0.4173
   95MOL0     H13066   5.054   2.071   3.671 -2.1388  1.3965 -0.9084
   95MOL0     H13067   5.129   2.201   3.591 -2.0876 -2.6804 -1.7810
   95MOL0     H13068   5.381   2.137   3.944 -4.4779 -0.8913 -0.4922
   95MOL0     H13069   5.735   2.057   3.916 -0.6484 -1.1751 -2.2480
   95MOL0     H13070   5.636   1.949   4.014  2.6090 -0.5885 -0.6668
   95MOL0     H13071   5.605   2.119   4.028 -2.8185 -0.4743  0.3914
   95MOL0     H13072   5.822   1.712   3.446 -0.4229 -1.7030  3.8274
   95MOL0     H13073   6.034   1.606   3.400 -0.4359 -2.1047  3.5473
   95MOL0     H13074   6.392   1.863   3.410  1.0434 -1.0566  0.9203
   95MOL0     H13075   6.446   1.798   3.554 -0.8203  0.9433  0.1111
   95MOL0     H13076   6.597   1.673   3.424  0.4455 -1.4628  1.3260
   95MOL0     H13077   6.463   1.566   3.397 -1.8979  1.0108 -0.0078
   95MOL0     H13078   6.589   1.754   3.231  0.8699 -1.4360 -2.7167
   95MOL0     H13079   6.415   1.758   3.206 -1.1755 -1.5265  0.8484
   95MOL0     H13080   6.463   1.492   3.194 -0.8797 -0.3112 -2.0985
   95MOL0     H13081   6.611   1.560   3.106 -0.9044 -1.7869 -1.2319
   95MOL0     H13082   6.452   1.697   2.979 -2.3700  1.1661  2.0829
   95MOL0     H13083   6.445   1.523   2.937 -3.0090 -0.0158 -1.2870
   95MOL0     H13084   6.244   1.688   3.099  1.5425 -0.5791  2.2925
   95MOL0     H13085   6.245   1.510   3.104  1.8520 -1.3809 -0.8507
   95MOL0     H13086   6.228   1.650   2.833  0.9227 -4.1932 -2.1176
   95MOL0     H13087   6.086   1.635   2.956  0.1463 -1.0955  0.4114
   95MOL0     H13088   6.096   1.405   2.963 -3.2019 -0.9921 -2.9125
   95MOL0     H13089   6.227   1.389   2.844  0.7296  0.9958 -0.2918
   95MOL0     H13090   6.224   1.935   3.606  0.5456  2.3218 -3.9279
   95MOL0     H13091   5.999   2.038   3.641  0.6711  0.8331  0.5809
   95MOL0     H13092   5.493   1.926   3.513  1.1814 -1.8194  1.9286
   95MOL0     H13093   5.260   2.023   3.553 -1.3345  0.8214  0.6435
   95MOL0     H13094   3.688   1.710   3.339 -2.0981 -0.0899 -0.5645
   95MOL0     H13095   3.540   1.534   3.447 -2.5822 -3.9900 -1.3428
   95MOL0     H13096   3.302   1.032   3.444 -0.2762  0.4505  0.8117
   95MOL0     H13097   3.153   0.961   3.614 -0.1554 -0.0629  0.0609
   95MOL0     H13098   3.263   1.079   4.031  1.6598  5.0679  1.1315
   95MOL0     H13099   3.151   1.208   4.002 -2.2877  0.0389 -2.4635
   95MOL0     H13100   3.085   0.931   4.098 -2.9065 -0.3953  2.1163
   95MOL0     H13101   2.972   1.013   3.992 -0.1362 -0.9127 -0.1819
   95MOL0     H13102   3.087   1.161   4.229  0.9099 -1.7321 -0.6372
   95MOL0     H13103   2.921   1.161   4.179  1.2201  0.4220  1.8360
   95MOL0     H13104   2.940   1.051   4.392  1.8599 -2.1518  2.2469
   95MOL0     H13105   3.040   0.920   4.332 -0.3290  0.3726  1.8012
   95MOL0     H13106   2.680   0.792   4.173  0.6530 -2.3532  1.2757
   95MOL0     H13107   3.304   1.275   3.866  1.0813  1.6527 -1.1482
   95MOL0     H13108   3.589   1.349   3.723 -1.5375 -1.0576  2.8135
   95MOL0     H13109   3.486   1.456   3.627  0.5923  1.3557  1.3178
   95MOL0     H13110   3.444   1.421   3.794 -0.7809 -0.3284 -0.1973
   96MOL0     O13111   8.972  11.144  11.404 -0.1813  0.5327 -0.2417
   96MOL0     C13112   8.914  11.248  11.442 -0.3854  0.2878  0.7456
   96MOL0     O13113   8.976  11.361  11.479 -0.1190 -0.8357 -0.0902
   96MOL0     C13114   9.111  11.372  11.487 -0.2018 -0.4817  0.8651
   96MOL0     C13115   9.184  11.351  11.370  0.1873 -0.1362 -0.3191
   96MOL0     C13116   9.325  11.365  11.381 -0.2416  0.1122  0.9113
   96MOL0     C13117   9.394  11.393  11.500  0.3542  0.6807  1.2054
   96MOL0     O13118   9.528  11.421  11.492 -0.1316  0.5089  0.5211
   96MOL0     C13119   9.614  11.399  11.609  0.4146  0.5080  0.0463
   96MOL0     C13120   9.764  11.402  11.569  0.9428 -0.6630 -0.2229
   96MOL0     C13121   9.849  11.369  11.686  1.2598 -0.5111  0.1845
   96MOL0     C13122   9.987  11.344  11.643 -1.3284 -0.1597  0.4306
   96MOL0     C13123  10.064  11.245  11.722 -0.5659 -0.6253  0.4203
   96MOL0     C13124  10.007  11.097  11.707  0.7140 -0.0782  0.0392
   96MOL0     C13125  10.065  10.992  11.797 -0.5712 -0.0951  0.0456
   96MOL0     C13126  10.015  10.850  11.781 -0.0387 -0.1652 -0.8706
   96MOL0     N13127  10.103  10.757  11.857  0.6549 -0.6171  1.0164
   96MOL0     C13128  10.229  10.716  11.830  0.0194  1.2607  0.3957
   96MOL0     C13129  10.266  10.647  11.932 -0.8321  0.3702 -0.6242
   96MOL0     C13130  10.401  10.570  11.932 -0.5548  0.3088 -0.3309
   96MOL0     C13131  10.377  10.424  11.890 -1.0400  0.3609  0.1743
   96MOL0     C13132  10.529  10.366  11.882  0.6026 -0.0788 -0.5992
   96MOL0     C13133  10.550  10.294  11.746 -0.6919  0.0162  0.1596
   96MOL0     O13134  10.555  10.152  11.759  0.0541  0.6857 -0.7082
   96MOL0     C13135  10.635  10.074  11.674  0.6123 -0.6384  0.1827
   96MOL0     C13136  10.676  10.120  11.549 -0.0017  0.4224  0.0506
   96MOL0     C13137  10.761  10.038  11.475  0.4185  0.5371 -0.5789
   96MOL0     C13138  10.806  10.094  11.344  0.7384 -0.1555 -0.2542
   96MOL0     C13139  10.786   9.899  11.514  0.7604 -1.4326 -0.7464
   96MOL0     C13140  10.862   9.792  11.439  0.7877  0.4711 -0.0329
   96MOL0     O13141  10.920   9.707  11.529 -0.2224 -0.2266  0.3780
   96MOL0     C13142  11.002   9.602  11.485 -0.0299 -0.4341 -0.3759
   96MOL0     C13143  11.077   9.556  11.587  0.9153  0.3574  0.2391
   96MOL0     C13144  11.176   9.463  11.567 -0.1817  0.1814 -0.4648
   96MOL0     C13145  11.201   9.411  11.437 -0.0118  0.1302 -0.2114
   96MOL0     O13146  11.296   9.322  11.399 -0.1884 -0.1407  0.9531
   96MOL0     C13147  11.388   9.273  11.498  0.0223  0.2043  0.2645
   96MOL0     C13148  11.500   9.187  11.444  0.3954  0.7913  0.2100
   96MOL0     C13149  11.593   9.123  11.548  0.4045 -0.8015  0.3570
   96MOL0     C13150  11.711   9.052  11.484  0.0001  0.3887  0.3283
   96MOL0     C13151  11.809   9.000  11.584  1.2114 -0.1898 -0.1489
   96MOL0     C13152  11.894   8.883  11.532 -0.7202  0.2896  0.2598
   96MOL0     C13153  12.009   8.860  11.639  1.0560  0.4145 -0.4416
   96MOL0     C13154  12.102   8.748  11.606 -0.2173 -0.8720  0.0583
   96MOL0    Cl13155  12.052   8.587  11.663  0.0012  0.4385  0.2564
   96MOL0     C13156  11.135   9.471  11.336  0.2878 -0.3411 -0.9093
   96MOL0     C13157  11.035   9.565  11.352  0.5355 -0.3182  0.3718
   96MOL0     O13158  10.881   9.800  11.315 -0.1083 -0.1464  0.2314
   96MOL0     C13159  10.742   9.861  11.638  0.2282  0.6750 -0.4479
   96MOL0     C13160  10.667   9.942  11.721 -1.2438  0.5395  0.4965
   96MOL0     N13161  10.177  10.663  12.034 -0.5653  0.5407 -0.3816
   96MOL0     N13162  10.072  10.717  11.980  0.8161  0.4337 -0.4286
   96MOL0     C13163   9.315  11.394  11.611 -0.5028  0.2850 -0.9673
   96MOL0     C13164   9.175  11.372  11.608  0.6521 -0.7072  0.0473
   96MOL0     C13165   8.760  11.253  11.438 -0.0002 -0.1801 -0.1509
   96MOL0     C13166   8.698  11.152  11.363 -0.2721 -0.4981 -0.6302
   96MOL0     C13167   8.562  11.158  11.344 -0.1094  0.3887 -0.3409
   96MOL0     C13168   8.481  11.263  11.395 -1.0716  0.7327 -0.2794
   96MOL0     O13169   8.353  11.240  11.384 -0.1255  0.2557 -0.9580
   96MOL0     C13170   8.257  11.338  11.419 -0.1361  0.8437 -0.0072
   96MOL0     C13171   8.119  11.277  11.404  0.6584 -0.4884 -1.1354
   96MOL0     C13172   8.007  11.366  11.463  0.5227 -0.2690  0.3907
   96MOL0     C13173   7.860  11.304  11.463  0.0522 -0.3284 -0.8214
   96MOL0     C13174   7.868  11.186  11.563 -0.0131 -0.5801  0.5865
   96MOL0     C13175   7.863  11.110  11.659  0.1152  0.8268 -0.0837
   96MOL0     C13176   8.542  11.368  11.463 -0.0939 -0.0226  0.8708
   96MOL0     C13177   8.678  11.361  11.495 -0.1688  0.3459 -0.4370
   96MOL0     C13178   8.727  11.489  11.552  0.7978 -0.7492  0.2920
   96MOL0     H13179   9.133  11.344  11.274 -0.6071  1.2878 -0.0238
   96MOL0     H13180   9.379  11.383  11.289 -6.0467  3.4177 -2.4614
   96MOL0     H13181   9.611  11.295  11.643  0.3517  1.2747  2.5976
   96MOL0     H13182   9.599  11.469  11.692  2.1033 -1.1765  1.8887
   96MOL0     H13183   9.787  11.331  11.489  1.5930 -0.9864  0.2476
   96MOL0     H13184   9.783  11.497  11.518 -2.9208  1.2253  1.4851
   96MOL0     H13185   9.846  11.447  11.763 -0.3925  0.0276 -0.3786
   96MOL0     H13186   9.800  11.289  11.741 -2.8404  2.4969  1.3696
   96MOL0     H13187   9.978  11.301  11.543 -2.7876 -2.2733  1.3997
   96MOL0     H13188  10.044  11.438  11.637 -0.1303 -0.8353  0.8964
   96MOL0     H13189  10.060  11.264  11.829  2.8259 -3.0414  1.1271
   96MOL0     H13190  10.165  11.253  11.681 -1.6843  3.5971 -2.1323
   96MOL0     H13191   9.899  11.105  11.726  0.1938 -0.6667 -2.2991
   96MOL0     H13192  10.034  11.062  11.607 -2.1949  3.9923 -2.4558
   96MOL0     H13193  10.046  11.029  11.899  3.6583  2.2014  0.2549
   96MOL0     H13194  10.173  10.992  11.781 -0.9176 -1.4470 -2.8214
   96MOL0     H13195   9.918  10.835  11.830  1.6987  1.1944  3.3717
   96MOL0     H13196  10.009  10.829  11.674 -2.2148 -1.2139 -0.5960
   96MOL0     H13197  10.274  10.722  11.731 -1.5273  3.4282 -0.2577
   96MOL0     H13198  10.449  10.572  12.030 -1.0526 -2.3216  0.0423
   96MOL0     H13199  10.477  10.614  11.867 -0.9794 -1.8218 -2.4278
   96MOL0     H13200  10.313  10.375  11.964 -0.2641  2.2690  2.2212
   96MOL0     H13201  10.345  10.419  11.785  4.0552 -1.3148 -1.6468
   96MOL0     H13202  10.599  10.450  11.890 -1.1240  1.2693  2.7062
   96MOL0     H13203  10.538  10.299  11.968  1.3434 -0.7359 -1.1753
   96MOL0     H13204  10.473  10.316  11.672  1.8455  2.6837 -1.9557
   96MOL0     H13205  10.645  10.328  11.704 -1.6412  1.6752 -0.7489
   96MOL0     H13206  10.641  10.215  11.509 -0.9418 -0.6479 -1.7985
   96MOL0     H13207  10.905  10.068  11.306  1.1335  0.1086  0.5662
   96MOL0     H13208  10.808  10.202  11.361 -2.9294 -0.1434  1.0331
   96MOL0     H13209  10.732  10.080  11.264  0.0543  0.2139  0.2923
   96MOL0     H13210  11.082   9.590  11.690  0.3668 -0.0238  0.3995
   96MOL0     H13211  11.234   9.422  11.649 -1.0993  0.3290  0.2718
   96MOL0     H13212  11.442   9.355  11.546  0.2721  0.9947 -1.2796
   96MOL0     H13213  11.340   9.209  11.572 -0.1530  2.0379  1.8131
   96MOL0     H13214  11.450   9.106  11.389 -1.3502  2.3106 -0.5434
   96MOL0     H13215  11.559   9.248  11.375 -1.0107  1.3835 -0.5088
   96MOL0     H13216  11.538   9.064  11.622 -0.7187  3.8689  3.7028
   96MOL0     H13217  11.632   9.205  11.609  0.0080  0.2769 -0.8093
   96MOL0     H13218  11.763   9.131  11.430  0.6093  0.7874  1.4603
   96MOL0     H13219  11.678   8.977  11.412  0.0014 -0.7385  1.4590
   96MOL0     H13220  11.874   9.085  11.608 -1.3146  1.3974  1.5645
   96MOL0     H13221  11.769   8.978  11.684 -0.6769  1.8624 -0.3656
   96MOL0     H13222  11.924   8.898  11.428  2.5150  0.0720  1.0593
   96MOL0     H13223  11.838   8.789  11.539 -2.2112  0.6216 -4.1561
   96MOL0     H13224  11.964   8.845  11.738 -3.1407  2.1744 -1.8560
   96MOL0     H13225  12.068   8.951  11.650  1.0422  0.2956  0.8262
   96MOL0     H13226  12.194   8.769  11.662 -0.5491  2.4245 -0.4097
   96MOL0     H13227  12.134   8.745  11.501 -1.1369 -3.6082 -0.2214
   96MOL0     H13228  11.152   9.432  11.236  2.2068 -0.4910 -0.5687
   96MOL0     H13229  10.979   9.610  11.271  0.5519  1.0037  1.0580
   96MOL0     H13230  10.762   9.758  11.665  0.3636  0.6936 -0.4779
   96MOL0     H13231  10.632   9.906  11.817  1.6770  0.1190  1.5111
   96MOL0     H13232   9.366  11.416  11.705  1.0798 -3.6280 -0.7050
   96MOL0     H13233   9.108  11.376  11.693  0.0985  1.2010 -0.4190
   96MOL0     H13234   8.756  11.079  11.308 -0.5455  1.3737 -3.5883
   96MOL0     H13235   8.513  11.079  11.289 -2.2866 -0.8394  3.0143
   96MOL0     H13236   8.274  11.391  11.512  0.0282  2.5156 -0.9593
   96MOL0     H13237   8.259  11.418  11.345  3.5390  1.3433  0.4595
   96MOL0     H13238   8.121  11.189  11.469 -0.1291 -0.8863 -1.6295
   96MOL0     H13239   8.097  11.248  11.301 -1.0662  0.9663 -1.2194
   96MOL0     H13240   8.042  11.402  11.560  2.3998  1.1925 -0.7661
   96MOL0     H13241   7.998  11.460  11.408  0.7163  0.7852  2.0875
   96MOL0     H13242   7.834  11.264  11.365 -1.2587  2.9770 -1.9829
   96MOL0     H13243   7.777  11.372  11.486 -2.5568 -3.1470 -1.2098
   96MOL0     H13244   7.862  11.049  11.747 -0.3794  2.5283  1.1233
   96MOL0     H13245   8.480  11.452  11.493  2.5649  1.5638  2.3615
   96MOL0     H13246   8.647  11.550  11.596  3.0180  2.3292  0.3346
   96MOL0     H13247   8.805  11.472  11.626  1.5363 -0.9455 -0.5177
   96MOL0     H13248   8.774  11.550  11.474  0.8573 -1.7208 -0.4591
   97MOL0     O13249   9.528  11.231   5.273  0.8750  0.5721 -0.4895
   97MOL0     C13250   9.409  11.247   5.303  0.2513  0.4639 -0.1712
   97MOL0     O13251   9.354  11.358   5.333 -0.6890 -0.0336  0.6590
   97MOL0     C13252   9.437  11.463   5.376  0.0482  0.1693  0.1335
   97MOL0     C13253   9.406  11.584   5.330  0.9135 -0.1698 -0.3970
   97MOL0     C13254   9.477  11.692   5.370 -0.3846  0.6552 -0.0374
   97MOL0     C13255   9.598  11.679   5.450 -0.2848  0.6939 -0.2408
   97MOL0     O13256   9.657  11.792   5.500  0.1834  0.6008  0.0904
   97MOL0     C13257   9.697  11.894   5.406  0.5501 -0.2644  0.6564
   97MOL0     C13258   9.627  12.029   5.421 -0.1146 -0.5060 -0.0458
   97MOL0     C13259   9.615  12.081   5.567 -0.2346  0.4051 -0.1605
   97MOL0     C13260   9.554  12.219   5.557  0.5585  0.3288  0.6491
   97MOL0     C13261   9.542  12.282   5.704 -0.0830 -0.2227 -0.1962
   97MOL0     C13262   9.471  12.413   5.720 -0.6019 -0.5772 -0.8212
   97MOL0     C13263   9.507  12.514   5.606 -0.1219  0.0881  0.2616
   97MOL0     C13264   9.454  12.660   5.630  0.5637  0.5940 -0.1070
   97MOL0     N13265   9.316  12.661   5.686  0.0383  0.7818  0.1909
   97MOL0     C13266   9.277  12.686   5.816  0.1757 -0.9250  0.4399
   97MOL0     C13267   9.146  12.667   5.819  1.0111  0.2963  0.1617
   97MOL0     C13268   9.048  12.685   5.935 -0.6359  0.2260 -0.5775
   97MOL0     C13269   9.019  12.836   5.928 -0.2118  1.0578 -0.5837
   97MOL0     C13270   8.952  12.898   6.052 -0.1561  0.2192  0.1383
   97MOL0     C13271   8.813  12.835   6.088 -0.5932 -0.6382 -0.8679
   97MOL0     O13272   8.771  12.903   6.212 -0.2719 -0.0778 -0.1835
   97MOL0     C13273   8.650  12.869   6.276 -0.4182 -0.0300  0.0084
   97MOL0     C13274   8.560  12.764   6.232 -0.7164  0.1568 -1.2108
   97MOL0     C13275   8.435  12.749   6.281  0.0618  0.5130 -0.5294
   97MOL0     C13276   8.351  12.641   6.223 -0.2390 -0.1765  0.8516
   97MOL0     C13277   8.395  12.837   6.392 -0.3972  1.7826 -0.2918
   97MOL0     C13278   8.264  12.823   6.469 -0.1133  0.3507 -0.3736
   97MOL0     O13279   8.273  12.859   6.599  0.4516  0.4209 -1.0544
   97MOL0     C13280   8.163  12.840   6.686 -0.1665  0.3317  0.4993
   97MOL0     C13281   8.024  12.863   6.660 -0.0284  0.1450 -0.0093
   97MOL0     C13282   7.921  12.844   6.758 -0.8370 -0.7454  0.5977
   97MOL0     C13283   7.960  12.809   6.882  0.6640  0.6556 -0.7628
   97MOL0     O13284   7.866  12.786   6.975 -0.0460 -0.1123  0.6839
   97MOL0     C13285   7.729  12.802   6.962 -0.5411  1.1023 -0.7540
   97MOL0     C13286   7.681  12.824   7.108  0.2519 -0.2441  0.4725
   97MOL0     C13287   7.640  12.699   7.178  0.3525  0.7899 -0.1577
   97MOL0     C13288   7.561  12.712   7.314 -0.3894 -0.0491 -0.4300
   97MOL0     C13289   7.452  12.604   7.333  0.1803  0.6629 -0.3944
   97MOL0     C13290   7.349  12.638   7.447  0.6923 -0.1020 -0.1181
   97MOL0     C13291   7.404  12.690   7.590  0.3129 -0.0342  0.1861
   97MOL0     C13292   7.513  12.599   7.640 -0.1210 -0.5593 -0.5506
   97MOL0    Cl13293   7.449  12.475   7.739  0.0578  0.4108  0.1898
   97MOL0     C13294   8.094  12.797   6.917  1.0617 -0.6572  0.1250
   97MOL0     C13295   8.193  12.797   6.819  0.8731 -0.0825 -0.1376
   97MOL0     O13296   8.164  12.777   6.417 -0.1054  0.4020 -0.2931
   97MOL0     C13297   8.482  12.935   6.442 -0.2567  0.4223 -0.4127
   97MOL0     C13298   8.608  12.944   6.386 -0.0105  0.0578  0.1096
   97MOL0     N13299   9.101  12.648   5.691 -1.4022  0.6559 -0.1979
   97MOL0     N13300   9.201  12.652   5.607 -0.4402  0.2813 -0.3325
   97MOL0     C13301   9.620  11.546   5.504 -0.2161 -0.5771 -0.2624
   97MOL0     C13302   9.545  11.444   5.463 -0.0017  0.1485 -0.3237
   97MOL0     C13303   9.319  11.132   5.308 -0.5246  1.2059 -0.7695
   97MOL0     C13304   9.375  11.007   5.299  0.2286  0.3309 -0.1694
   97MOL0     C13305   9.291  10.893   5.293  0.1852  0.6519 -0.3549
   97MOL0     C13306   9.154  10.891   5.294  0.6546  0.4757 -1.0581
   97MOL0     O13307   9.075  10.782   5.269 -0.5994 -0.4890  0.0697
   97MOL0     C13308   9.120  10.654   5.308 -0.5556  0.9084  0.1089
   97MOL0     C13309   9.003  10.554   5.294  0.3681 -1.0206 -0.6046
   97MOL0     C13310   9.021  10.403   5.320  0.4738 -0.3952 -0.7524
   97MOL0     C13311   9.138  10.349   5.248  0.4516 -0.5720  0.3018
   97MOL0     C13312   9.104  10.333   5.101 -0.3359 -0.0215 -0.2822
   97MOL0     C13313   9.077  10.311   4.986  0.5409  0.1631  0.5169
   97MOL0     C13314   9.103  11.017   5.303 -0.5869 -0.2551  0.0038
   97MOL0     C13315   9.179  11.130   5.323 -0.2196  0.1833  0.6533
   97MOL0     C13316   9.104  11.264   5.344 -1.5465  0.6058 -0.4902
   97MOL0     H13317   9.306  11.598   5.290 -0.8871 -1.7243  3.1249
   97MOL0     H13318   9.442  11.791   5.343 -0.2687  1.0398  1.1679
   97MOL0     H13319   9.701  11.858   5.303  2.6160  3.6509 -0.8421
   97MOL0     H13320   9.799  11.912   5.441 -0.7150  2.3856  3.4963
   97MOL0     H13321   9.674  12.101   5.354  3.1336 -0.3386  2.1974
   97MOL0     H13322   9.522  12.014   5.394 -0.8324  2.0593  1.0619
   97MOL0     H13323   9.555  12.009   5.623  2.1020 -1.0646  0.5912
   97MOL0     H13324   9.706  12.082   5.627 -0.8858  1.4990  0.8482
   97MOL0     H13325   9.617  12.283   5.495  0.7732 -0.2561  0.2456
   97MOL0     H13326   9.455  12.204   5.512  1.9764 -1.5346 -2.1997
   97MOL0     H13327   9.647  12.296   5.730 -0.6167  1.1542  1.3104
   97MOL0     H13328   9.501  12.204   5.768 -1.7463  0.9533  0.2250
   97MOL0     H13329   9.362  12.404   5.720 -1.1134  3.1948  1.8390
   97MOL0     H13330   9.495  12.456   5.818 -1.2816 -3.6493  0.8371
   97MOL0     H13331   9.467  12.478   5.511  1.8690 -1.0739 -0.1941
   97MOL0     H13332   9.614  12.516   5.585 -0.3007  1.3759 -0.6400
   97MOL0     H13333   9.517  12.701   5.710 -1.7009 -2.1972  3.4436
   97MOL0     H13334   9.449  12.714   5.535 -1.6760  0.6542 -0.0098
   97MOL0     H13335   9.342  12.715   5.898  0.4104  6.7058 -1.7488
   97MOL0     H13336   9.109  12.658   6.022 -0.1854 -2.6040 -1.6674
   97MOL0     H13337   8.958  12.623   5.923 -1.0950  0.9248 -0.7802
   97MOL0     H13338   9.114  12.888   5.913 -0.6584  1.3482 -2.9118
   97MOL0     H13339   8.958  12.856   5.839 -0.6151 -2.2822 -1.2026
   97MOL0     H13340   9.019  12.890   6.138  1.1234  1.6212 -0.6660
   97MOL0     H13341   8.938  13.002   6.021  6.7672  0.4807 -4.4451
   97MOL0     H13342   8.746  12.862   6.005 -0.7985  2.7547  0.2303
   97MOL0     H13343   8.834  12.728   6.095 -0.3693 -0.4979  1.1097
   97MOL0     H13344   8.599  12.717   6.142  0.9314 -1.2215  0.1783
   97MOL0     H13345   8.405  12.594   6.140 -2.9726 -1.0142 -0.5572
   97MOL0     H13346   8.262  12.680   6.173  0.5684 -1.5159 -1.8386
   97MOL0     H13347   8.318  12.563   6.291 -2.0721 -0.6491 -0.5261
   97MOL0     H13348   8.000  12.880   6.555 -2.0635 -2.4322 -0.0633
   97MOL0     H13349   7.816  12.858   6.732 -0.6152 -0.6275 -0.2939
   97MOL0     H13350   7.706  12.892   6.904 -2.1281  1.2287  0.0080
   97MOL0     H13351   7.681  12.718   6.909  2.1015 -0.1129 -1.3755
   97MOL0     H13352   7.759  12.883   7.159  0.5468  0.8544 -1.1781
   97MOL0     H13353   7.589  12.883   7.110 -1.0881 -2.2321  1.8657
   97MOL0     H13354   7.737  12.650   7.193 -1.1251 -1.5651  2.7619
   97MOL0     H13355   7.590  12.633   7.106 -0.4277  0.9577  0.2238
   97MOL0     H13356   7.516  12.812   7.312  3.8028  2.0476 -2.0357
   97MOL0     H13357   7.623  12.712   7.404  3.0468  1.3056 -2.6070
   97MOL0     H13358   7.398  12.585   7.240 -0.5243  2.1049 -0.3131
   97MOL0     H13359   7.507  12.511   7.349 -1.8724 -0.3709  1.3022
   97MOL0     H13360   7.277  12.557   7.465 -0.9848  0.7486 -2.5726
   97MOL0     H13361   7.297  12.728   7.414  0.3116 -0.8602 -1.6669
   97MOL0     H13362   7.323  12.695   7.664  1.2223 -0.5369  1.2375
   97MOL0     H13363   7.444  12.790   7.571  3.2074 -1.2067 -0.3123
   97MOL0     H13364   7.584  12.662   7.695 -0.0195 -0.0337 -1.2753
   97MOL0     H13365   7.570  12.558   7.556  1.6179  2.0344 -0.7775
   97MOL0     H13366   8.111  12.766   7.019 -0.9131 -0.3062  0.5980
   97MOL0     H13367   8.292  12.766   6.850  0.0024 -1.9721  0.9328
   97MOL0     H13368   8.438  12.984   6.528 -1.7220 -3.1036  1.0695
   97MOL0     H13369   8.670  13.025   6.422 -1.6506  1.6120 -0.4171
   97MOL0     H13370   9.707  11.544   5.568  2.1578  0.6233 -3.1963
   97MOL0     H13371   9.572  11.343   5.494  0.1758  0.5042  0.7520
   97MOL0     H13372   9.482  10.995   5.284 -0.0638 -0.1235 -2.3015
   97MOL0     H13373   9.327  10.792   5.274 -2.2684 -0.2706 -0.5105
   97MOL0     H13374   9.206  10.623   5.248 -0.8006 -1.0384  0.6816
   97MOL0     H13375   9.155  10.642   5.411 -0.4274  0.3295  0.0037
   97MOL0     H13376   8.964  10.561   5.192  0.1323 -1.8534 -0.5793
   97MOL0     H13377   8.929  10.593   5.365  1.5203 -1.9186  1.1467
   97MOL0     H13378   9.048  10.373   5.421  0.3917  1.1808 -0.2254
   97MOL0     H13379   8.930  10.343   5.309  1.5831 -2.2175 -0.2503
   97MOL0     H13380   9.159  10.249   5.288  1.0163 -0.8471 -0.6396
   97MOL0     H13381   9.232  10.405   5.256  1.0058 -1.4246 -0.1210
   97MOL0     H13382   9.056  10.276   4.886  0.1735 -0.7665  0.9050
   97MOL0     H13383   8.996  11.017   5.285 -1.4517 -2.5165  3.8782
   97MOL0     H13384   8.999  11.243   5.365 -1.6192  2.0582  0.7508
   97MOL0     H13385   9.149  11.303   5.435 -0.7230 -0.0863 -0.5896
   97MOL0     H13386   9.122  11.337   5.265 -1.5771  0.8349 -0.2844
   98MOL0     O13387  11.152  10.307   8.193 -0.2692 -0.1947  0.7761
   98MOL0     C13388  11.174  10.361   8.085 -0.5089 -0.3621  0.4751
   98MOL0     O13389  11.167  10.496   8.058  0.4434  0.2897 -0.3287
   98MOL0     C13390  11.157  10.570   8.171 -0.1371 -0.9635  0.6158
   98MOL0     C13391  11.028  10.632   8.202  1.1956 -0.4637 -0.5411
   98MOL0     C13392  11.025  10.732   8.301  0.1721 -0.3357 -0.5177
   98MOL0     C13393  11.144  10.771   8.368 -1.0874  0.1810 -0.0994
   98MOL0     O13394  11.132  10.874   8.456 -0.5873  0.1170  0.4207
   98MOL0     C13395  11.230  10.903   8.556 -0.1603 -0.1914 -0.8405
   98MOL0     C13396  11.286  11.035   8.532 -1.0620 -0.4532  0.6903
   98MOL0     C13397  11.378  11.036   8.407  0.1469 -0.2879  0.6980
   98MOL0     C13398  11.467  11.167   8.417  0.5484  0.1293  0.0853
   98MOL0     C13399  11.552  11.193   8.296 -0.7231 -0.7013 -0.2767
   98MOL0     C13400  11.486  11.285   8.196 -0.9452 -0.2981 -0.1142
   98MOL0     C13401  11.589  11.316   8.090 -0.8292  0.4754  0.3594
   98MOL0     C13402  11.564  11.449   8.017 -0.6972 -0.4552 -0.6655
   98MOL0     N13403  11.643  11.449   7.896  0.5685 -0.5607  0.0914
   98MOL0     C13404  11.593  11.403   7.771 -0.6121 -0.2831  0.0668
   98MOL0     C13405  11.693  11.428   7.689 -1.0335  0.6034  1.2248
   98MOL0     C13406  11.681  11.384   7.550  0.1627 -0.8172  0.5288
   98MOL0     C13407  11.609  11.498   7.460 -0.4031  0.6007  0.0503
   98MOL0     C13408  11.631  11.463   7.306  0.7177  0.1013  0.0343
   98MOL0     C13409  11.702  11.572   7.223  1.1194  0.3809 -0.1232
   98MOL0     O13410  11.838  11.583   7.260  0.5288 -1.2013  0.3151
   98MOL0     C13411  11.915  11.470   7.229 -0.1692  0.6163  1.0744
   98MOL0     C13412  11.929  11.406   7.108  1.0302  0.4506  0.8706
   98MOL0     C13413  12.005  11.295   7.076  0.5052 -0.1906 -0.9489
   98MOL0     C13414  11.988  11.245   6.940  0.3785 -0.6978  0.5480
   98MOL0     C13415  12.081  11.234   7.185  0.3959  0.0760 -0.6592
   98MOL0     C13416  12.167  11.120   7.179 -0.6368 -0.0006 -0.6811
   98MOL0     O13417  12.187  11.062   7.295 -0.8856  0.5532 -0.2116
   98MOL0     C13418  12.308  10.987   7.316 -0.2123  0.3506 -0.2274
   98MOL0     C13419  12.428  11.036   7.267 -1.0910 -0.1730 -0.1132
   98MOL0     C13420  12.549  10.974   7.298 -0.5330  1.0478 -0.1972
   98MOL0     C13421  12.554  10.859   7.386  0.1651 -0.6504  0.0484
   98MOL0     O13422  12.667  10.779   7.411 -1.1205 -0.3380  0.0731
   98MOL0     C13423  12.791  10.843   7.397  0.5309 -1.0648  0.4416
   98MOL0     C13424  12.868  10.821   7.525 -0.1710 -0.4128  0.3944
   98MOL0     C13425  12.891  10.683   7.568 -0.0239 -1.0629 -0.6688
   98MOL0     C13426  13.002  10.690   7.684 -0.3916  0.5400  0.0509
   98MOL0     C13427  13.141  10.718   7.622  0.4014  0.1946 -0.3404
   98MOL0     C13428  13.249  10.637   7.693 -0.7839  1.0325  0.3550
   98MOL0     C13429  13.288  10.516   7.611  0.4101 -0.2338  0.2548
   98MOL0     C13430  13.395  10.438   7.688 -0.5421  0.5570  0.1417
   98MOL0    Cl13431  13.436  10.277   7.617 -0.2075 -0.2815 -0.1486
   98MOL0     C13432  12.432  10.820   7.442  0.1427  0.1584 -0.5086
   98MOL0     C13433  12.307  10.877   7.397 -0.1615  0.6287 -0.3728
   98MOL0     O13434  12.216  11.095   7.075 -0.0506  0.5370  0.6062
   98MOL0     C13435  12.079  11.302   7.313  0.1866  0.9433  0.4214
   98MOL0     C13436  12.001  11.416   7.324 -0.2376  0.6254 -0.4242
   98MOL0     N13437  11.800  11.488   7.751 -0.9812 -1.0002  0.6587
   98MOL0     N13438  11.766  11.505   7.875  0.4640  0.2900 -0.8833
   98MOL0     C13439  11.262  10.703   8.338  0.6056  0.6395 -0.0918
   98MOL0     C13440  11.278  10.604   8.239 -0.3075 -0.4708  0.7062
   98MOL0     C13441  11.180  10.276   7.968  1.1863 -0.6053 -0.0079
   98MOL0     C13442  11.132  10.334   7.848 -0.3258 -0.2264  0.0538
   98MOL0     C13443  11.164  10.277   7.727 -0.1841  0.3008  0.5498
   98MOL0     C13444  11.234  10.163   7.719 -0.5355  0.4335  0.1712
   98MOL0     O13445  11.250  10.100   7.597  0.3061 -0.3515 -0.6701
   98MOL0     C13446  11.266  10.149   7.472 -0.0190  0.2285 -0.0197
   98MOL0     C13447  11.372  10.052   7.410 -0.0705  0.4571 -0.4300
   98MOL0     C13448  11.516  10.093   7.425  0.4076 -0.8491  0.2712
   98MOL0     C13449  11.630  10.002   7.378 -0.0926 -0.3110 -0.4928
   98MOL0     C13450  11.621   9.995   7.230  0.0287 -0.6248  0.0067
   98MOL0     C13451  11.651   9.989   7.113  0.8496 -0.2005  0.5089
   98MOL0     C13452  11.253  10.092   7.836  0.4078 -0.1390 -0.1839
   98MOL0     C13453  11.227  10.143   7.964 -0.9792  0.6640 -1.0241
   98MOL0     C13454  11.274  10.064   8.092 -0.0280  0.6304  0.3414
   98MOL0     H13455  10.935  10.596   8.160  0.7997  0.9070 -0.8941
   98MOL0     H13456  10.934  10.777   8.339  1.7169  1.2194  1.5997
   98MOL0     H13457  11.316  10.835   8.557 -0.1750 -0.2183 -1.2946
   98MOL0     H13458  11.176  10.903   8.651  0.9077  3.8683 -0.0553
   98MOL0     H13459  11.211  11.114   8.521  1.9411  2.7699  1.6338
   98MOL0     H13460  11.350  11.062   8.617  0.1904 -0.3252 -0.2640
   98MOL0     H13461  11.437  10.947   8.384  0.2609  0.0481 -0.3632
   98MOL0     H13462  11.311  11.041   8.321  1.9637  0.4602 -0.7374
   98MOL0     H13463  11.410  11.256   8.444  3.4157  2.3610 -0.7239
   98MOL0     H13464  11.535  11.145   8.500 -2.2832 -1.1381  2.2696
   98MOL0     H13465  11.570  11.093   8.256 -1.2238  0.4168 -3.6430
   98MOL0     H13466  11.646  11.235   8.333 -0.4244  0.9405 -2.6060
   98MOL0     H13467  11.394  11.238   8.161 -2.5772  3.0122 -0.6169
   98MOL0     H13468  11.461  11.380   8.244  2.4953  3.0416 -4.1842
   98MOL0     H13469  11.591  11.231   8.022  0.5816  0.6621  0.1326
   98MOL0     H13470  11.687  11.315   8.139 -0.5791  0.7118 -0.1265
   98MOL0     H13471  11.459  11.465   7.993 -0.3237 -0.0894 -2.1637
   98MOL0     H13472  11.593  11.533   8.082  1.6290 -0.4270 -1.6491
   98MOL0     H13473  11.502  11.350   7.744  0.3546 -2.4377  0.7912
   98MOL0     H13474  11.629  11.288   7.541 -0.6340 -0.4246  0.7932
   98MOL0     H13475  11.787  11.379   7.522  0.7467 -0.5184  2.5148
   98MOL0     H13476  11.500  11.489   7.467 -0.9045  4.5061 -0.5821
   98MOL0     H13477  11.648  11.599   7.471 -0.6509  0.8776 -1.4202
   98MOL0     H13478  11.675  11.364   7.294 -0.6574 -0.4012 -1.1604
   98MOL0     H13479  11.535  11.453   7.255  0.7947  1.0388 -0.3078
   98MOL0     H13480  11.691  11.558   7.115  1.2505 -1.5666  0.0927
   98MOL0     H13481  11.657  11.671   7.241  1.1883  0.4540 -0.3437
   98MOL0     H13482  11.872  11.447   7.025  2.3746 -0.2895 -0.4617
   98MOL0     H13483  11.944  11.322   6.875  0.8586 -0.1986  0.8061
   98MOL0     H13484  11.922  11.158   6.936 -0.7522  0.1697 -1.5856
   98MOL0     H13485  12.086  11.219   6.899 -0.0875  0.2827 -1.3566
   98MOL0     H13486  12.433  11.117   7.196  3.1549  1.2568  1.4868
   98MOL0     H13487  12.630  11.006   7.232 -2.5665  0.6656 -3.0733
   98MOL0     H13488  12.837  10.810   7.303 -1.2478 -0.3444 -0.7351
   98MOL0     H13489  12.789  10.953   7.392  0.8276 -1.1033 -1.2672
   98MOL0     H13490  12.958  10.884   7.521 -2.0489  2.4637  0.8246
   98MOL0     H13491  12.811  10.870   7.604 -0.9474 -1.6539  0.6388
   98MOL0     H13492  12.917  10.627   7.478 -0.1817 -2.4365  0.1144
   98MOL0     H13493  12.803  10.639   7.616 -0.8177 -1.8513 -2.7241
   98MOL0     H13494  12.997  10.593   7.735  2.6186 -0.4986 -1.3729
   98MOL0     H13495  12.986  10.770   7.757  1.9845 -0.0282  1.3027
   98MOL0     H13496  13.141  10.709   7.513 -0.4799 -0.8220 -0.2733
   98MOL0     H13497  13.167  10.823   7.638 -2.2723  0.7436  1.1536
   98MOL0     H13498  13.222  10.613   7.796  0.0675  0.3229  0.4230
   98MOL0     H13499  13.343  10.689   7.712 -0.6653  1.4181 -1.1268
   98MOL0     H13500  13.323  10.556   7.515 -0.0282 -3.8651 -1.6132
   98MOL0     H13501  13.203  10.448   7.601  0.6527 -1.0073  2.6665
   98MOL0     H13502  13.360  10.428   7.792  1.9997 -1.9729  0.8730
   98MOL0     H13503  13.483  10.503   7.683  0.5077 -0.9158 -1.7555
   98MOL0     H13504  12.426  10.746   7.521 -2.4208  3.0693  2.3084
   98MOL0     H13505  12.206  10.852   7.429 -0.3616  2.0826  0.2040
   98MOL0     H13506  12.135  11.261   7.396 -2.2400 -0.6089  1.4100
   98MOL0     H13507  12.007  11.470   7.419  0.4221  0.6266 -0.4621
   98MOL0     H13508  11.357  10.738   8.376  0.2221  1.4355  0.1562
   98MOL0     H13509  11.380  10.572   8.220 -0.5162 -0.9373  0.3344
   98MOL0     H13510  11.063  10.417   7.850  0.7716  0.7446 -0.9444
   98MOL0     H13511  11.123  10.314   7.633  2.8434  3.0242  0.1343
   98MOL0     H13512  11.174  10.143   7.414 -0.4868  2.4570  0.3904
   98MOL0     H13513  11.290  10.256   7.475 -0.0130  0.2136  1.2644
   98MOL0     H13514  11.365  10.057   7.301  1.3000  1.4663 -0.4944
   98MOL0     H13515  11.350   9.950   7.445  0.6467  1.2919  2.7961
   98MOL0     H13516  11.527  10.193   7.381 -0.8985 -2.4085 -4.0883
   98MOL0     H13517  11.532  10.096   7.534  3.0850 -0.2725 -0.0755
   98MOL0     H13518  11.614   9.903   7.420  0.2882  0.4707  1.6076
   98MOL0     H13519  11.726  10.035   7.419 -0.1713 -0.4676 -0.1853
   98MOL0     H13520  11.679   9.984   7.010 -1.0269  0.7419 -0.0922
   98MOL0     H13521  11.311  10.001   7.827  0.3377 -0.0466 -1.7434
   98MOL0     H13522  11.349  10.113   8.154  0.8210 -0.2902  0.0729
   98MOL0     H13523  11.182  10.037   8.145  1.9054 -1.8434  2.7429
   98MOL0     H13524  11.319   9.970   8.058  1.7445  1.9643 -1.2506
   99MOL0     O13525   4.487  11.463   5.996 -0.5040 -0.0415 -0.1125
   99MOL0     C13526   4.463  11.394   6.097 -0.5707 -0.4625 -0.4925
   99MOL0     O13527   4.543  11.295   6.148  0.9671  0.2553 -0.2557
   99MOL0     C13528   4.625  11.241   6.055 -0.5867  0.6953  0.2861
   99MOL0     C13529   4.582  11.129   5.978  0.1806  0.0333 -0.9498
   99MOL0     C13530   4.658  11.073   5.876  0.0545  0.8277 -0.4093
   99MOL0     C13531   4.781  11.128   5.840 -0.6093 -0.1027 -0.3548
   99MOL0     O13532   4.883  11.075   5.763  0.3304 -0.2318 -1.1962
   99MOL0     C13533   4.837  11.003   5.644 -0.2205  0.2205 -0.2872
   99MOL0     C13534   4.945  10.940   5.548  0.8730  0.7155  0.1998
   99MOL0     C13535   5.035  11.044   5.485  0.1786  1.0441 -0.7287
   99MOL0     C13536   5.136  10.987   5.384 -0.6397  0.5306  0.0668
   99MOL0     C13537   5.221  10.873   5.441  0.3157  0.5308  0.9470
   99MOL0     C13538   5.332  10.828   5.343 -0.3324  0.9207 -1.5201
   99MOL0     C13539   5.394  10.685   5.377 -0.6469  0.1637 -0.0222
   99MOL0     C13540   5.514  10.704   5.467  0.0912  0.0235  0.5209
   99MOL0     N13541   5.608  10.590   5.454 -0.6390 -0.0918 -0.3445
   99MOL0     C13542   5.697  10.569   5.352 -0.0463 -0.4230 -0.1519
   99MOL0     C13543   5.791  10.483   5.400 -0.1452  0.2021 -0.1819
   99MOL0     C13544   5.899  10.418   5.319 -0.1165 -0.2736 -0.0376
   99MOL0     C13545   6.005  10.529   5.311  0.4595 -1.0063 -0.2163
   99MOL0     C13546   6.120  10.489   5.221 -0.4624 -1.1293  0.4799
   99MOL0     C13547   6.193  10.371   5.268 -1.2486 -0.7139  0.0646
   99MOL0     O13548   6.247  10.394   5.399  1.0348 -0.2401  0.9072
   99MOL0     C13549   6.352  10.317   5.442  0.4569  0.7448 -0.5236
   99MOL0     C13550   6.391  10.195   5.389 -1.1536  0.4358 -0.7669
   99MOL0     C13551   6.501  10.123   5.447  0.0466  0.1457  1.3094
   99MOL0     C13552   6.532   9.994   5.376  0.0276 -0.6756 -0.3623
   99MOL0     C13553   6.556  10.159   5.571 -0.7229 -0.2447 -0.0647
   99MOL0     C13554   6.661  10.091   5.644 -0.0112  0.9829 -0.0347
   99MOL0     O13555   6.757  10.039   5.562 -0.2009  0.0537  0.6893
   99MOL0     C13556   6.848   9.944   5.609  0.1977  1.1929  0.4496
   99MOL0     C13557   6.961   9.913   5.533 -1.2313  0.4623  0.8855
   99MOL0     C13558   7.056   9.810   5.574  1.0082  0.0855  0.1228
   99MOL0     C13559   7.030   9.734   5.686  0.3563 -0.0509  0.1154
   99MOL0     O13560   7.123   9.643   5.722  0.1477  0.7069 -0.7105
   99MOL0     C13561   7.195   9.573   5.622  0.5507 -0.2234  0.3767
   99MOL0     C13562   7.248   9.443   5.680 -0.0684  0.2124  0.0767
   99MOL0     C13563   7.335   9.359   5.587  0.1281  0.1178  0.1356
   99MOL0     C13564   7.434   9.253   5.634 -0.4131 -0.6537 -0.7261
   99MOL0     C13565   7.490   9.151   5.533 -0.2574 -0.5450  0.5648
   99MOL0     C13566   7.386   9.101   5.440  0.3044 -0.0363 -0.6484
   99MOL0     C13567   7.429   8.981   5.366 -0.6565 -0.4180  0.5983
   99MOL0     C13568   7.443   8.844   5.443 -0.4359 -0.2021 -0.4725
   99MOL0    Cl13569   7.285   8.798   5.529 -0.0072  0.0384 -0.0164
   99MOL0     C13570   6.910   9.758   5.756 -0.4149  0.0663  0.6697
   99MOL0     C13571   6.820   9.855   5.712 -0.2957 -0.9836  0.4475
   99MOL0     O13572   6.646  10.076   5.765 -0.0584 -0.0063  1.0287
   99MOL0     C13573   6.506  10.283   5.624 -0.2758  0.1709  0.2916
   99MOL0     C13574   6.396  10.353   5.564 -0.4271  0.1422  0.4653
   99MOL0     N13575   5.760  10.465   5.541  0.4512  0.3657  1.5269
   99MOL0     N13576   5.652  10.527   5.562  0.3321 -0.2737  0.5976
   99MOL0     C13577   4.833  11.234   5.931  0.1484  0.3171 -0.7157
   99MOL0     C13578   4.752  11.291   6.029 -0.3194  0.2015  0.0676
   99MOL0     C13579   4.354  11.440   6.176 -0.1253  0.2651  0.1659
   99MOL0     C13580   4.349  11.405   6.314 -0.6341 -0.0019 -0.2444
   99MOL0     C13581   4.238  11.437   6.400 -0.3029 -0.2422  0.1176
   99MOL0     C13582   4.127  11.490   6.343  0.6469  0.6478 -0.0403
   99MOL0     O13583   4.020  11.513   6.428  0.5495 -0.5236 -0.3995
   99MOL0     C13584   3.890  11.556   6.378 -0.0243  0.2452  0.1471
   99MOL0     C13585   3.796  11.604   6.495 -0.3814 -0.0383  0.5899
   99MOL0     C13586   3.692  11.702   6.439 -0.1444  0.3728 -0.2050
   99MOL0     C13587   3.566  11.718   6.518 -0.8141  0.2209 -0.5123
   99MOL0     C13588   3.466  11.610   6.494  0.2401  0.1630 -0.5986
   99MOL0     C13589   3.410  11.504   6.466  1.1475  0.3737  0.5661
   99MOL0     C13590   4.125  11.520   6.200 -0.9821 -0.3755 -0.0443
   99MOL0     C13591   4.239  11.500   6.120  0.1664  0.5341  0.9683
   99MOL0     C13592   4.224  11.552   5.978  0.1096 -0.3169 -0.5888
   99MOL0     H13593   4.492  11.074   5.998  0.9177 -1.4770 -1.6217
   99MOL0     H13594   4.610  10.987   5.831  0.4001 -0.2487  1.1811
   99MOL0     H13595   4.769  11.070   5.592 -0.8418 -0.7298 -0.7337
   99MOL0     H13596   4.774  10.920   5.676 -0.3185  0.0468 -0.9152
   99MOL0     H13597   4.990  10.857   5.603 -3.2777 -1.1091  1.2137
   99MOL0     H13598   4.888  10.886   5.472  0.5625  2.3205 -0.7708
   99MOL0     H13599   4.968  11.113   5.433 -0.1532  1.9050  0.7874
   99MOL0     H13600   5.100  11.090   5.559 -1.3903 -1.7859  2.7050
   99MOL0     H13601   5.085  10.945   5.297  2.1433 -3.8373  0.2966
   99MOL0     H13602   5.193  11.068   5.337  0.6288 -0.9554 -1.0412
   99MOL0     H13603   5.163  10.787   5.475  0.1209  0.1966 -0.2119
   99MOL0     H13604   5.275  10.912   5.528  1.2661  1.3112  0.0201
   99MOL0     H13605   5.295  10.825   5.240  0.7237 -2.5140 -1.8982
   99MOL0     H13606   5.414  10.898   5.324 -0.1750  0.3058 -3.3211
   99MOL0     H13607   5.420  10.650   5.277 -1.2999  1.3767 -0.6315
   99MOL0     H13608   5.328  10.615   5.429 -0.2115 -1.2201 -1.2466
   99MOL0     H13609   5.567  10.797   5.446 -1.7640  0.6467 -1.8792
   99MOL0     H13610   5.477  10.715   5.569  5.4215  2.3492  2.5715
   99MOL0     H13611   5.692  10.610   5.252  0.7125 -2.6321 -1.1729
   99MOL0     H13612   5.876  10.394   5.215 -1.5241  2.1256 -0.3685
   99MOL0     H13613   5.933  10.328   5.371 -0.3369 -1.1579 -1.3751
   99MOL0     H13614   5.960  10.619   5.271 -0.4129 -1.3538 -0.0329
   99MOL0     H13615   6.040  10.546   5.414  2.3074  1.0438 -1.0963
   99MOL0     H13616   6.088  10.474   5.117  1.3821  0.8890 -0.4617
   99MOL0     H13617   6.197  10.566   5.222 -1.0739 -0.4381 -1.3067
   99MOL0     H13618   6.127  10.284   5.258 -0.6993 -0.8622 -4.1251
   99MOL0     H13619   6.282  10.354   5.206 -1.8148 -3.3606 -0.1436
   99MOL0     H13620   6.356  10.157   5.293  0.3502 -0.4785 -0.9771
   99MOL0     H13621   6.546   9.924   5.459  1.5871 -1.7804 -1.4932
   99MOL0     H13622   6.614  10.004   5.304  0.7197  1.9141  0.6632
   99MOL0     H13623   6.450   9.950   5.320  0.3958 -1.8198 -0.0238
   99MOL0     H13624   6.977   9.968   5.441 -2.4109  1.4236  1.2207
   99MOL0     H13625   7.139   9.791   5.507  0.9725 -1.3429  0.4518
   99MOL0     H13626   7.134   9.549   5.535 -0.7221  0.1267  1.1542
   99MOL0     H13627   7.288   9.619   5.587  2.3483 -2.8119  1.3907
   99MOL0     H13628   7.289   9.459   5.780 -0.1133 -1.5550  0.4117
   99MOL0     H13629   7.160   9.378   5.689  2.1378 -2.9901  0.2092
   99MOL0     H13630   7.396   9.432   5.534 -1.5615  0.8572 -0.8835
   99MOL0     H13631   7.273   9.319   5.507  0.4719  0.8357 -0.5008
   99MOL0     H13632   7.392   9.194   5.716  2.0113 -0.1991  0.9627
   99MOL0     H13633   7.529   9.302   5.658  0.7661 -2.4500 -1.4635
   99MOL0     H13634   7.573   9.197   5.480 -0.3852 -0.9972 -0.0333
   99MOL0     H13635   7.528   9.068   5.594 -1.0383  0.6575  2.7889
   99MOL0     H13636   7.371   9.178   5.364  1.1927  0.1842 -0.6106
   99MOL0     H13637   7.298   9.080   5.503  0.2384  2.3063  0.1552
   99MOL0     H13638   7.517   9.006   5.306 -1.9036  0.5333 -0.8922
   99MOL0     H13639   7.357   8.967   5.285  0.9464  0.3643 -1.0207
   99MOL0     H13640   7.524   8.855   5.516 -0.8549 -1.3377  0.2024
   99MOL0     H13641   7.475   8.768   5.371 -0.8112  0.2664 -1.1374
   99MOL0     H13642   6.889   9.706   5.849  2.3159  0.2715  1.5054
   99MOL0     H13643   6.725   9.866   5.764 -0.8036 -1.6441 -0.3238
   99MOL0     H13644   6.546  10.340   5.706  2.1822  1.8593 -1.9185
   99MOL0     H13645   6.364  10.441   5.619 -2.2597 -1.3450  1.9162
   99MOL0     H13646   4.937  11.259   5.916  0.7091 -1.0743  0.6256
   99MOL0     H13647   4.800  11.365   6.092 -0.2237  1.2935 -1.2373
   99MOL0     H13648   4.429  11.354   6.368  0.1619  2.1825  0.7617
   99MOL0     H13649   4.236  11.397   6.501  1.1482 -2.2493 -0.5616
   99MOL0     H13650   3.898  11.632   6.299 -2.2647  1.3944  0.9514
   99MOL0     H13651   3.846  11.467   6.333  1.5198 -1.1080  1.2035
   99MOL0     H13652   3.853  11.658   6.572 -2.0570  0.9659  1.1766
   99MOL0     H13653   3.749  11.512   6.533 -2.7250  1.5771  1.8425
   99MOL0     H13654   3.744  11.797   6.425  1.4859 -0.4125  0.2740
   99MOL0     H13655   3.660  11.658   6.344  0.4716  1.3537 -0.8857
   99MOL0     H13656   3.527  11.818   6.495  1.7958  0.9710 -2.1592
   99MOL0     H13657   3.589  11.712   6.625 -0.7995  1.4492 -0.4274
   99MOL0     H13658   3.355  11.414   6.448  2.7391 -1.1741  2.8295
   99MOL0     H13659   4.037  11.568   6.158 -1.7720 -0.9858  0.8678
   99MOL0     H13660   4.122  11.588   5.965 -0.5430 -2.4992 -1.9505
   99MOL0     H13661   4.294  11.633   5.956  0.5728 -1.4956 -4.0712
   99MOL0     H13662   4.242  11.476   5.902 -1.1684 -1.0671 -0.1706
  100MOL0     O13663   4.077   4.041   5.181  0.9953  0.5316  0.0557
  100MOL0     C13664   4.141   4.035   5.286 -0.1930  0.4885 -0.0104
  100MOL0     O13665   4.101   3.975   5.402 -0.7521 -0.0299  0.6024
  100MOL0     C13666   4.026   4.057   5.482  0.2141 -0.2053 -0.0273
  100MOL0     C13667   3.886   4.086   5.453  0.2402  0.3759  0.4277
  100MOL0     C13668   3.806   4.148   5.552  0.3831  0.2737  0.6706
  100MOL0     C13669   3.861   4.170   5.678  0.0977  0.3493 -0.6045
  100MOL0     O13670   3.772   4.224   5.773  1.0804 -0.4813  0.5867
  100MOL0     C13671   3.814   4.250   5.906  0.8288  0.3667  0.6326
  100MOL0     C13672   3.699   4.249   6.008 -0.3737  0.4872  0.4431
  100MOL0     C13673   3.624   4.118   6.001  0.0453 -0.5217  0.0071
  100MOL0     C13674   3.507   4.127   5.904  0.1296  0.7672 -0.0275
  100MOL0     C13675   3.387   4.071   5.969  0.6673  0.1103  0.6938
  100MOL0     C13676   3.401   3.924   6.005  1.6464  0.0318 -0.4319
  100MOL0     C13677   3.267   3.845   6.038 -0.6735  0.7242  0.0900
  100MOL0     C13678   3.259   3.840   6.189 -0.6845  0.6971 -0.0129
  100MOL0     N13679   3.135   3.764   6.233  0.0841  0.0067 -0.6132
  100MOL0     C13680   3.126   3.637   6.266  0.7802 -1.2062 -0.2437
  100MOL0     C13681   2.995   3.616   6.295  0.2152 -0.3702 -0.6489
  100MOL0     C13682   2.939   3.481   6.333  0.0280 -0.5390 -0.5368
  100MOL0     C13683   2.910   3.468   6.477 -0.1418  0.3773 -0.0193
  100MOL0     C13684   3.015   3.519   6.578  0.3105  0.4478  0.0220
  100MOL0     C13685   3.152   3.465   6.559 -0.5888  0.0598 -0.5498
  100MOL0     O13686   3.237   3.524   6.662 -0.4136  0.0301  0.6049
  100MOL0     C13687   3.259   3.478   6.787 -0.3082  0.4416  0.4786
  100MOL0     C13688   3.354   3.549   6.867  0.2915 -0.4214  0.0932
  100MOL0     C13689   3.385   3.499   6.995 -0.7545  0.1792 -0.7397
  100MOL0     C13690   3.482   3.572   7.071  0.2547  0.5921  0.3773
  100MOL0     C13691   3.309   3.382   7.044 -0.4896  0.2809 -0.7643
  100MOL0     C13692   3.323   3.321   7.186  0.2123  0.5241 -0.0756
  100MOL0     O13693   3.269   3.196   7.212  0.5975 -0.2193  0.5677
  100MOL0     C13694   3.270   3.136   7.338  0.8166 -1.0634 -0.6268
  100MOL0     C13695   3.235   3.213   7.450 -0.0017 -0.0095  0.9470
  100MOL0     C13696   3.235   3.154   7.581 -0.7163  1.1099 -0.8035
  100MOL0     C13697   3.269   3.018   7.595 -0.1454 -0.2169  0.3420
  100MOL0     O13698   3.250   2.962   7.719 -0.3635  0.3298  0.1223
  100MOL0     C13699   3.169   3.019   7.825  0.3113  0.4029 -0.5930
  100MOL0     C13700   3.245   3.117   7.914  0.5000 -0.6706 -0.2623
  100MOL0     C13701   3.310   3.052   8.034 -0.1910  0.2662  0.7803
  100MOL0     C13702   3.407   2.939   7.999 -0.4431 -0.7597  0.2829
  100MOL0     C13703   3.471   2.877   8.122  0.0040 -0.2753  0.9171
  100MOL0     C13704   3.369   2.829   8.235 -0.0900  0.9962  0.7161
  100MOL0     C13705   3.449   2.771   8.349 -0.2821 -0.1183  0.0477
  100MOL0     C13706   3.495   2.879   8.449 -0.5994  1.0874 -0.7505
  100MOL0    Cl13707   3.591   2.787   8.568  0.4620  0.0637  0.1009
  100MOL0     C13708   3.321   2.949   7.483  0.3760  0.8451 -0.3444
  100MOL0     C13709   3.308   3.008   7.353 -1.2422  0.3950 -0.3903
  100MOL0     O13710   3.386   3.386   7.262 -0.1491 -0.2511 -0.7382
  100MOL0     C13711   3.215   3.314   6.966 -0.4532  0.0534 -0.5128
  100MOL0     C13712   3.200   3.359   6.835  0.2357 -0.5096  0.6326
  100MOL0     N13713   2.928   3.740   6.277  0.1348  0.4289  0.9485
  100MOL0     N13714   3.016   3.826   6.241  0.8837 -0.0148  0.7461
  100MOL0     C13715   3.991   4.132   5.709  1.2819 -0.3116  0.8327
  100MOL0     C13716   4.072   4.084   5.608 -0.0566  1.3573 -0.8324
  100MOL0     C13717   4.278   4.071   5.281 -1.4090  0.1630  0.6266
  100MOL0     C13718   4.378   3.989   5.350  0.2714 -0.2076  0.4163
  100MOL0     C13719   4.512   4.026   5.356 -0.2037 -0.0821 -0.3142
  100MOL0     C13720   4.566   4.130   5.278  0.4136 -0.0419 -0.8808
  100MOL0     O13721   4.700   4.165   5.257 -0.6624  0.7386  0.6909
  100MOL0     C13722   4.799   4.092   5.326 -0.3956 -0.1290 -0.1427
  100MOL0     C13723   4.850   3.965   5.254  0.9652 -1.3447 -0.6981
  100MOL0     C13724   4.918   3.998   5.119  0.3327 -0.6055 -0.2274
  100MOL0     C13725   5.062   3.941   5.117  0.0377  0.5336  0.2128
  100MOL0     C13726   5.157   4.018   5.187 -1.0278  0.3380 -1.6916
  100MOL0     C13727   5.243   4.091   5.239  0.8942 -0.4016 -0.1094
  100MOL0     C13728   4.468   4.211   5.222 -0.4985 -0.1255  0.1746
  100MOL0     C13729   4.334   4.190   5.222  0.5876  0.4640  0.4272
  100MOL0     C13730   4.247   4.295   5.152  0.4683  0.0020 -0.2620
  100MOL0     H13731   3.833   4.072   5.359 -1.9010  1.9873  1.3190
  100MOL0     H13732   3.704   4.182   5.541 -0.0969 -0.0498  3.4263
  100MOL0     H13733   3.870   4.345   5.906  0.6915  0.6249  4.7143
  100MOL0     H13734   3.881   4.170   5.937  0.3870 -0.4143 -0.3786
  100MOL0     H13735   3.745   4.269   6.105  2.0811  3.7779 -1.1896
  100MOL0     H13736   3.639   4.339   5.992 -1.4415 -0.0480  1.2909
  100MOL0     H13737   3.692   4.040   5.964 -3.5178 -3.0111 -1.9121
  100MOL0     H13738   3.591   4.091   6.102 -0.9685  2.4120  0.5585
  100MOL0     H13739   3.488   4.228   5.867  0.8195  0.4991 -1.1619
  100MOL0     H13740   3.520   4.059   5.818 -2.3741 -0.1532  0.2370
  100MOL0     H13741   3.308   4.069   5.893 -0.7059 -1.9354  2.0747
  100MOL0     H13742   3.344   4.123   6.055  0.5860 -0.0561  0.7535
  100MOL0     H13743   3.439   3.877   5.914 -1.7424  1.2867 -2.7096
  100MOL0     H13744   3.477   3.910   6.081  0.1055  0.6673  1.3051
  100MOL0     H13745   3.271   3.743   6.000  0.1424  0.4434  0.9067
  100MOL0     H13746   3.178   3.901   6.006 -0.5955  1.4613  1.1252
  100MOL0     H13747   3.346   3.797   6.239  0.4629  0.8267 -1.8315
  100MOL0     H13748   3.252   3.942   6.229  2.7933  0.1588  2.4285
  100MOL0     H13749   3.212   3.571   6.269  2.1934  0.1330 -4.5229
  100MOL0     H13750   3.006   3.403   6.295  1.1508  1.0375 -1.9035
  100MOL0     H13751   2.849   3.465   6.273 -0.3450 -2.5687  0.4883
  100MOL0     H13752   2.825   3.532   6.500 -0.5173 -0.2258  0.2832
  100MOL0     H13753   2.865   3.368   6.487 -1.7104  1.2051  1.9013
  100MOL0     H13754   3.011   3.628   6.576 -2.5531  0.4226 -0.0322
  100MOL0     H13755   2.985   3.484   6.677  1.6700  1.2484  0.7342
  100MOL0     H13756   3.152   3.357   6.574  0.1051  0.3126  1.6359
  100MOL0     H13757   3.203   3.495   6.467  0.0015 -1.0462 -0.5963
  100MOL0     H13758   3.411   3.624   6.813 -0.6717  1.9311  2.1586
  100MOL0     H13759   3.432   3.635   7.145 -1.4185 -0.1015 -0.1185
  100MOL0     H13760   3.554   3.625   7.007  1.9142 -2.5649 -0.6161
  100MOL0     H13761   3.546   3.506   7.130  0.0751  3.0918  3.6241
  100MOL0     H13762   3.199   3.314   7.434  3.9025  1.3986 -0.2699
  100MOL0     H13763   3.206   3.209   7.670  1.0795  1.3688 -0.3437
  100MOL0     H13764   3.080   3.063   7.780 -0.2807  0.6807  0.8029
  100MOL0     H13765   3.148   2.930   7.885  3.0076  1.9531  3.0330
  100MOL0     H13766   3.316   3.174   7.853  0.5916  1.1151  1.4019
  100MOL0     H13767   3.177   3.195   7.950 -1.2239 -2.3614  0.2758
  100MOL0     H13768   3.234   3.009   8.100 -0.8454  0.3759  0.1020
  100MOL0     H13769   3.369   3.116   8.100  1.3765 -0.7124  0.3897
  100MOL0     H13770   3.484   2.975   7.929  0.3512  1.0981  2.0076
  100MOL0     H13771   3.356   2.860   7.942  0.7494 -1.0606 -0.4055
  100MOL0     H13772   3.513   2.784   8.083 -2.2571 -1.1200  0.3282
  100MOL0     H13773   3.543   2.951   8.160  2.3012 -2.4849  1.1148
  100MOL0     H13774   3.294   2.754   8.208 -0.0535  0.9391  0.7717
  100MOL0     H13775   3.325   2.915   8.285  3.2368  3.3203  0.0221
  100MOL0     H13776   3.541   2.721   8.315  1.0403  2.3243 -0.2404
  100MOL0     H13777   3.387   2.700   8.404  1.2601  0.7437  3.1218
  100MOL0     H13778   3.407   2.916   8.503 -1.5739 -2.6554  0.5536
  100MOL0     H13779   3.558   2.952   8.398 -0.1691  0.9763 -0.3820
  100MOL0     H13780   3.370   2.852   7.488  0.5490  0.7676 -2.5626
  100MOL0     H13781   3.344   2.950   7.268  0.4128 -1.9720  1.7501
  100MOL0     H13782   3.165   3.227   7.008  0.7602 -0.3231  0.2015
  100MOL0     H13783   3.132   3.298   6.776  1.7539 -1.0911 -0.6121
  100MOL0     H13784   4.032   4.129   5.809  2.6345 -0.8089  0.2821
  100MOL0     H13785   4.174   4.061   5.636 -0.8790 -2.2348 -0.3691
  100MOL0     H13786   4.350   3.909   5.418 -0.6114  0.6997  1.1543
  100MOL0     H13787   4.570   3.952   5.411 -0.3806 -2.4603 -3.0738
  100MOL0     H13788   4.889   4.154   5.332  1.2177 -2.3843  0.4235
  100MOL0     H13789   4.769   4.066   5.428  0.8853 -1.1981 -0.0125
  100MOL0     H13790   4.759   3.905   5.243 -0.6134  0.6896  0.6385
  100MOL0     H13791   4.920   3.920   5.325  2.2080  1.6051  0.0812
  100MOL0     H13792   4.856   3.959   5.038  1.1925 -1.9462 -0.2607
  100MOL0     H13793   4.937   4.106   5.120  1.5819 -0.7818 -1.3849
  100MOL0     H13794   5.095   3.953   5.014  2.3416  2.7086  1.0719
  100MOL0     H13795   5.051   3.838   5.153 -1.7472  0.5013 -0.3703
  100MOL0     H13796   5.311   4.166   5.276  0.6560  0.1657 -0.8144
  100MOL0     H13797   4.515   4.286   5.161  0.4185 -3.0727 -3.0656
  100MOL0     H13798   4.316   4.371   5.115 -2.4954  1.6628 -2.7635
  100MOL0     H13799   4.195   4.265   5.061  1.1650 -0.0228 -0.6613
  100MOL0     H13800   4.174   4.339   5.220 -0.7928 -1.6095 -0.5216
  101MOL0     O13801   7.705   5.386   8.319  0.1227 -0.7750 -0.6743
  101MOL0     C13802   7.752   5.320   8.225  0.9922  0.3958 -0.4175
  101MOL0     O13803   7.776   5.364   8.104  0.4808 -0.1516 -0.9364
  101MOL0     C13804   7.692   5.469   8.064  0.4003  1.0427 -0.2245
  101MOL0     C13805   7.562   5.436   8.015 -0.3427 -1.1460 -0.5743
  101MOL0     C13806   7.475   5.536   7.973 -0.7038 -0.7727  0.2804
  101MOL0     C13807   7.517   5.669   7.962  1.2373 -0.4040  0.1032
  101MOL0     O13808   7.428   5.755   7.894 -0.0818 -0.0116 -0.6135
  101MOL0     C13809   7.449   5.897   7.885 -0.2591 -0.1717 -0.7038
  101MOL0     C13810   7.313   5.948   7.816  0.0478 -0.3894 -0.1005
  101MOL0     C13811   7.182   5.872   7.859 -0.6831 -0.7962 -1.7267
  101MOL0     C13812   7.057   5.920   7.796 -0.4664 -0.6490 -0.4697
  101MOL0     C13813   7.029   6.063   7.848 -1.6880  0.0958  0.2874
  101MOL0     C13814   6.892   6.126   7.798  0.2807  0.0774 -0.1165
  101MOL0     C13815   6.787   6.044   7.881 -0.6977  1.2264  0.4830
  101MOL0     C13816   6.641   6.080   7.836  0.4281  0.5652  1.0867
  101MOL0     N13817   6.589   6.217   7.833  0.0320  1.1035 -0.3915
  101MOL0     C13818   6.476   6.257   7.905 -0.4041 -0.8889  0.0888
  101MOL0     C13819   6.438   6.381   7.848  0.7503  0.0541  0.0602
  101MOL0     C13820   6.301   6.440   7.861 -0.5095  0.1963 -0.0007
  101MOL0     C13821   6.285   6.562   7.950 -0.2511  0.0077  0.5144
  101MOL0     C13822   6.332   6.521   8.088 -0.5044 -0.0029  0.4733
  101MOL0     C13823   6.311   6.644   8.185  0.1784 -0.2883  0.5469
  101MOL0     O13824   6.176   6.683   8.205  0.0268 -0.2806  0.1190
  101MOL0     C13825   6.089   6.611   8.281  0.3422 -0.1804 -0.4865
  101MOL0     C13826   6.109   6.479   8.328  0.0275 -0.5496 -0.5835
  101MOL0     C13827   6.005   6.421   8.409  0.5396  0.6648  1.2484
  101MOL0     C13828   6.030   6.274   8.459 -0.6867 -0.3432  0.2362
  101MOL0     C13829   5.883   6.496   8.441 -0.3836 -0.8699 -0.3609
  101MOL0     C13830   5.767   6.441   8.525  0.1018  0.1131  0.2962
  101MOL0     O13831   5.665   6.529   8.534  0.0539 -0.5269  0.3771
  101MOL0     C13832   5.538   6.480   8.543 -0.4225  0.2912  0.3423
  101MOL0     C13833   5.479   6.392   8.447 -0.9992 -0.2741  0.2944
  101MOL0     C13834   5.341   6.358   8.467  0.1505  0.1713 -0.3144
  101MOL0     C13835   5.265   6.401   8.580 -0.5964  0.2768  0.3150
  101MOL0     O13836   5.129   6.365   8.589  0.2593 -0.4897  0.1048
  101MOL0     C13837   5.095   6.305   8.718 -0.2258 -0.2276  0.6443
  101MOL0     C13838   4.940   6.284   8.729 -0.2318  0.4457  0.1569
  101MOL0     C13839   4.871   6.221   8.849  0.3183  0.6784 -0.9368
  101MOL0     C13840   4.923   6.264   8.987  1.2396 -0.1394 -0.1756
  101MOL0     C13841   4.906   6.161   9.094 -0.1449  0.3200 -0.4657
  101MOL0     C13842   4.982   6.195   9.223 -0.3115 -0.1502 -0.9769
  101MOL0     C13843   4.938   6.101   9.337 -0.5800  0.9101  1.0558
  101MOL0     C13844   4.940   5.948   9.310  0.8729  0.0310  0.6310
  101MOL0    Cl13845   5.106   5.916   9.271  0.1205 -0.4214 -0.0998
  101MOL0     C13846   5.320   6.495   8.670 -0.4183  0.3971  0.7636
  101MOL0     C13847   5.455   6.531   8.645  0.2908 -0.9634 -0.1195
  101MOL0     O13848   5.764   6.331   8.592  0.4333 -0.0675  0.0659
  101MOL0     C13849   5.881   6.627   8.387  0.8101  0.3836 -0.2322
  101MOL0     C13850   5.971   6.684   8.304 -0.1037  0.5481  0.0981
  101MOL0     N13851   6.544   6.416   7.755 -0.4138  1.1436  0.4821
  101MOL0     N13852   6.631   6.314   7.748  0.8362 -0.2321 -0.2530
  101MOL0     C13853   7.651   5.702   8.017  0.3937 -0.3596 -0.7702
  101MOL0     C13854   7.732   5.601   8.073 -0.0424  0.9719  0.7278
  101MOL0     C13855   7.813   5.189   8.256 -0.1632 -0.0443  0.8820
  101MOL0     C13856   7.911   5.133   8.173  0.0411 -0.1014  0.5061
  101MOL0     C13857   7.952   5.001   8.189 -0.1155  0.7937  0.6395
  101MOL0     C13858   7.901   4.914   8.283  0.0036 -0.0018  0.1253
  101MOL0     O13859   7.931   4.778   8.295  0.3764  0.0401  0.0970
  101MOL0     C13860   7.977   4.712   8.174 -0.5434  0.4596 -0.5493
  101MOL0     C13861   7.950   4.566   8.180 -0.1548  0.7400  0.4773
  101MOL0     C13862   7.798   4.539   8.149  0.4282  0.4078 -0.6020
  101MOL0     C13863   7.754   4.396   8.125  0.3097  0.4711  0.7597
  101MOL0     C13864   7.832   4.321   8.021 -0.2732 -0.5226  0.4502
  101MOL0     C13865   7.916   4.290   7.934 -0.1136 -0.3962 -0.5079
  101MOL0     C13866   7.806   4.974   8.375 -0.5178  0.9514  0.0817
  101MOL0     C13867   7.763   5.104   8.355  0.2297  0.3169  0.4507
  101MOL0     C13868   7.656   5.149   8.457 -0.8127  0.7074  0.2800
  101MOL0     H13869   7.526   5.335   7.998 -1.6350 -0.3346 -3.1806
  101MOL0     H13870   7.382   5.504   7.927  1.1641 -0.9410 -3.7920
  101MOL0     H13871   7.543   5.924   7.835 -0.5238  1.3090 -0.4594
  101MOL0     H13872   7.460   5.944   7.984 -0.5475  3.0378 -2.0547
  101MOL0     H13873   7.307   6.055   7.840  1.1686 -0.2039 -0.5929
  101MOL0     H13874   7.340   5.943   7.710  1.8947  4.7123 -0.1748
  101MOL0     H13875   7.180   5.774   7.811 -1.2471 -2.0820  0.7417
  101MOL0     H13876   7.171   5.853   7.966  2.9437  0.7591 -0.9218
  101MOL0     H13877   7.072   5.922   7.688 -0.0836 -0.7250 -0.4186
  101MOL0     H13878   6.975   5.849   7.815 -1.9439  1.8035  3.7190
  101MOL0     H13879   7.112   6.131   7.831 -0.8116 -1.2913 -1.2395
  101MOL0     H13880   7.029   6.073   7.957 -1.9669  1.6852  0.1596
  101MOL0     H13881   6.903   6.232   7.824  1.9929  0.0416 -0.6233
  101MOL0     H13882   6.887   6.114   7.690 -0.2504  3.4947 -0.5987
  101MOL0     H13883   6.796   6.075   7.986 -0.3059  0.9796  0.5259
  101MOL0     H13884   6.805   5.937   7.888 -0.0752  1.3663  1.2187
  101MOL0     H13885   6.638   6.052   7.730 -0.8898  3.0070  0.3868
  101MOL0     H13886   6.562   6.017   7.877  1.0034 -0.8148  0.1380
  101MOL0     H13887   6.427   6.194   7.979 -0.8846 -2.0597 -1.1797
  101MOL0     H13888   6.237   6.357   7.892 -0.4017 -0.2158 -0.8305
  101MOL0     H13889   6.266   6.464   7.760  0.3232 -0.2258 -0.4012
  101MOL0     H13890   6.347   6.641   7.906 -2.6947  0.9401 -1.4970
  101MOL0     H13891   6.179   6.589   7.939  0.5631  2.3308 -5.0870
  101MOL0     H13892   6.284   6.431   8.126  0.4109 -0.3422  0.8504
  101MOL0     H13893   6.439   6.500   8.094 -0.8485 -2.4686 -0.8453
  101MOL0     H13894   6.364   6.634   8.280  2.5265  1.8507 -0.4446
  101MOL0     H13895   6.370   6.720   8.133  3.9243 -3.7809 -0.8206
  101MOL0     H13896   6.191   6.416   8.295  0.5552 -0.1896  0.0175
  101MOL0     H13897   5.939   6.213   8.469 -0.1313 -1.6916 -2.0566
  101MOL0     H13898   6.082   6.277   8.555  0.3798 -2.6767 -0.2025
  101MOL0     H13899   6.096   6.221   8.389  1.4341  1.4319  0.7933
  101MOL0     H13900   5.546   6.351   8.373 -0.1419  3.2787 -1.1146
  101MOL0     H13901   5.283   6.292   8.403  0.6410  0.8255 -1.4798
  101MOL0     H13902   5.138   6.205   8.717 -0.3820 -0.3023  1.0598
  101MOL0     H13903   5.141   6.359   8.800  2.4301 -0.1888 -0.7758
  101MOL0     H13904   4.877   6.372   8.709 -2.5561 -0.8757  1.2498
  101MOL0     H13905   4.904   6.218   8.650 -0.6021 -0.0902  0.7652
  101MOL0     H13906   4.885   6.113   8.849 -1.7046  0.3767  0.2388
  101MOL0     H13907   4.764   6.240   8.844  0.5508  2.5099  0.0439
  101MOL0     H13908   4.852   6.343   9.016  0.7982 -0.5091 -0.2506
  101MOL0     H13909   5.025   6.304   8.987  1.7696 -1.2502 -3.5576
  101MOL0     H13910   4.799   6.140   9.099 -0.1810  0.2379 -1.3050
  101MOL0     H13911   4.937   6.062   9.059 -2.4433 -0.2029 -1.2098
  101MOL0     H13912   4.975   6.298   9.258  0.4504 -0.4154  0.0004
  101MOL0     H13913   5.091   6.186   9.212 -0.2392 -0.6672  0.0912
  101MOL0     H13914   4.836   6.132   9.364 -1.1988 -2.9252  4.0173
  101MOL0     H13915   5.010   6.129   9.414  1.7462  2.3179 -1.4756
  101MOL0     H13916   4.872   5.929   9.227  0.9465 -0.8619  0.7690
  101MOL0     H13917   4.898   5.892   9.394 -1.8440  3.1338  1.5415
  101MOL0     H13918   5.264   6.539   8.752  1.7505 -0.2588  2.7155
  101MOL0     H13919   5.489   6.612   8.708 -0.6586 -2.3697  2.2981
  101MOL0     H13920   5.792   6.686   8.408  0.0557 -0.5072 -0.8487
  101MOL0     H13921   5.952   6.783   8.264  1.7594  0.7074 -0.4721
  101MOL0     H13922   7.669   5.808   8.030  0.1759 -0.6149  2.3942
  101MOL0     H13923   7.833   5.627   8.104  0.5341  2.1429 -1.8581
  101MOL0     H13924   7.957   5.196   8.097 -0.9137 -0.4726 -0.4071
  101MOL0     H13925   8.023   4.962   8.117 -2.5592 -2.1019 -0.4116
  101MOL0     H13926   7.904   4.749   8.101 -3.8374 -0.9458  1.8032
  101MOL0     H13927   8.081   4.725   8.143  0.0906 -0.9193  0.8898
  101MOL0     H13928   7.974   4.528   8.280 -0.1236 -0.3646  0.0600
  101MOL0     H13929   8.011   4.519   8.102  3.1442  0.6327  2.9133
  101MOL0     H13930   7.750   4.582   8.238  2.2128  0.4287  0.3846
  101MOL0     H13931   7.753   4.607   8.076  0.1825  2.0697  1.0229
  101MOL0     H13932   7.656   4.418   8.082 -0.2122  1.0903  2.2128
  101MOL0     H13933   7.735   4.333   8.212  0.0821 -0.9387 -0.2648
  101MOL0     H13934   7.987   4.264   7.858  0.6115  1.0690 -0.3708
  101MOL0     H13935   7.759   4.906   8.444 -0.8495  0.2036 -0.8689
  101MOL0     H13936   7.692   5.239   8.508  0.8299 -1.6690  3.7196
  101MOL0     H13937   7.571   5.165   8.390  0.0472 -0.3400 -1.0952
  101MOL0     H13938   7.637   5.070   8.531  0.0502 -0.7748 -1.0127
  102MOL0     O13939   8.342   0.030   6.987  0.1781  0.5986 -0.7814
  102MOL0     C13940   8.334  -0.064   7.072  0.4717 -0.2268 -0.4750
  102MOL0     O13941   8.387  -0.183   7.063  0.3141 -0.4340 -0.8655
  102MOL0     C13942   8.478  -0.213   6.961  0.1335  0.8900 -0.1061
  102MOL0     C13943   8.451  -0.218   6.829  0.1336 -0.4124  0.6218
  102MOL0     C13944   8.543  -0.276   6.737 -0.4731 -0.1231  0.3315
  102MOL0     C13945   8.669  -0.323   6.774 -0.2766 -0.4903 -0.0230
  102MOL0     O13946   8.756  -0.394   6.686  0.4315 -0.0654 -0.7083
  102MOL0     C13947   8.702  -0.500   6.610 -0.3341  0.2641  1.4408
  102MOL0     C13948   8.833  -0.584   6.555  0.2926  0.0779  0.2946
  102MOL0     C13949   8.943  -0.616   6.659 -0.5229 -0.4718  0.0382
  102MOL0     C13950   9.035  -0.736   6.620  0.5053 -0.0734 -0.5787
  102MOL0     C13951   9.142  -0.763   6.738 -0.6588 -0.6766  0.5634
  102MOL0     C13952   9.237  -0.632   6.767 -0.1851  0.4704 -0.2160
  102MOL0     C13953   9.330  -0.665   6.883 -0.0240 -0.1366  0.1982
  102MOL0     C13954   9.440  -0.560   6.918 -1.2590  0.4946  0.8006
  102MOL0     N13955   9.385  -0.425   6.956 -0.0928 -0.4620 -0.2934
  102MOL0     C13956   9.386  -0.311   6.872 -0.0680 -0.3803  1.0367
  102MOL0     C13957   9.339  -0.209   6.955 -0.7762  0.5646 -0.0604
  102MOL0     C13958   9.317  -0.066   6.918  0.3905  0.3454  0.0756
  102MOL0     C13959   9.433   0.035   6.933 -0.8294 -0.1257 -0.6587
  102MOL0     C13960   9.518   0.013   7.058 -0.3375  0.3386  0.1151
  102MOL0     C13961   9.557   0.144   7.126 -0.1101  0.8139 -0.3559
  102MOL0     O13962   9.652   0.217   7.046 -0.5697  0.4942 -0.0257
  102MOL0     C13963   9.718   0.330   7.103 -0.1042 -0.7919 -0.1634
  102MOL0     C13964   9.672   0.423   7.196 -0.3805 -0.3724 -0.0787
  102MOL0     C13965   9.740   0.546   7.235  0.6787  0.6803 -0.2888
  102MOL0     C13966   9.690   0.626   7.349  0.0490  0.5742 -0.1786
  102MOL0     C13967   9.860   0.570   7.161 -0.1154  0.2230 -0.5176
  102MOL0     C13968   9.943   0.703   7.172  0.1586  0.8721 -0.5598
  102MOL0     O13969  10.076   0.702   7.142  0.2269 -0.0594 -0.3544
  102MOL0     C13970  10.145   0.826   7.118  0.0814  0.3446  0.0165
  102MOL0     C13971  10.280   0.837   7.169  0.4007  0.3288  0.6067
  102MOL0     C13972  10.356   0.948   7.148  0.3461 -0.6931 -0.0614
  102MOL0     C13973  10.304   1.063   7.072  0.2079  0.2819  0.0715
  102MOL0     O13974  10.377   1.179   7.044  0.3270  0.3721  0.6622
  102MOL0     C13975  10.481   1.221   7.128 -0.2053 -0.1098  0.3077
  102MOL0     C13976  10.513   1.370   7.106  0.0453  0.1528 -0.3399
  102MOL0     C13977  10.395   1.457   7.155  0.4063  0.9791 -0.3129
  102MOL0     C13978  10.422   1.607   7.159  0.1926  0.7648 -0.0857
  102MOL0     C13979  10.481   1.655   7.292 -0.3246  0.0371  0.3789
  102MOL0     C13980  10.531   1.804   7.278  0.1941  0.3330  0.6591
  102MOL0     C13981  10.615   1.819   7.410 -0.2735  1.0130  0.2316
  102MOL0     C13982  10.641   1.973   7.432  0.0282 -0.7603  0.2477
  102MOL0    Cl13983  10.499   2.042   7.521 -0.3423 -0.5166 -0.0250
  102MOL0     C13984  10.177   1.044   7.020  0.1514 -0.0430  1.3074
  102MOL0     C13985  10.104   0.921   7.031  0.3605  0.0744 -0.2347
  102MOL0     O13986   9.871   0.795   7.203 -0.4102  0.0867  0.0301
  102MOL0     C13987   9.917   0.472   7.075  0.3587 -0.0821  0.1160
  102MOL0     C13988   9.849   0.353   7.053 -0.3878 -0.3913 -1.0032
  102MOL0     N13989   9.318  -0.263   7.084  0.1659 -0.2100  0.4306
  102MOL0     N13990   9.336  -0.397   7.082 -0.3630 -0.6286  0.3758
  102MOL0     C13991   8.691  -0.326   6.913  0.7857  1.2830 -0.1208
  102MOL0     C13992   8.601  -0.270   7.002  0.0077  0.1126 -0.6679
  102MOL0     C13993   8.225  -0.051   7.165 -0.0227 -0.1645 -0.2698
  102MOL0     C13994   8.138  -0.166   7.183 -0.0365  0.0645  0.5760
  102MOL0     C13995   8.028  -0.170   7.276 -0.7417 -0.3287  0.5213
  102MOL0     C13996   7.996  -0.057   7.348  0.0773  0.8952 -0.2335
  102MOL0     O13997   7.896  -0.080   7.440  0.2362  0.0056 -0.7550
  102MOL0     C13998   7.914  -0.027   7.574  0.2151 -0.0495 -0.1761
  102MOL0     C13999   8.030  -0.081   7.657  0.2969 -0.2691 -0.0156
  102MOL0     C14000   8.028  -0.057   7.812  0.4387  0.4397 -0.2237
  102MOL0     C14001   8.032   0.087   7.874 -0.8925 -0.6444  0.4704
  102MOL0     C14002   8.147   0.168   7.829 -0.0839  0.1485 -0.8477
  102MOL0     C14003   8.248   0.224   7.813 -0.0573 -0.4319 -0.5796
  102MOL0     C14004   8.074   0.055   7.331  0.1937 -0.6926  1.1369
  102MOL0     C14005   8.178   0.061   7.239 -0.1181 -0.3517  0.4557
  102MOL0     C14006   8.252   0.192   7.209 -1.0196 -0.3347 -0.6107
  102MOL0     H14007   8.354  -0.175   6.806 -0.1734 -1.2092  0.4049
  102MOL0     H14008   8.524  -0.278   6.630  1.6381  1.9196 -0.1519
  102MOL0     H14009   8.651  -0.470   6.518  2.6868  1.1090 -0.0853
  102MOL0     H14010   8.629  -0.555   6.670  1.4387  0.2466  3.7190
  102MOL0     H14011   8.787  -0.680   6.530  0.8638 -0.1181 -0.0096
  102MOL0     H14012   8.873  -0.527   6.471 -1.4269 -0.8676 -1.2365
  102MOL0     H14013   9.002  -0.525   6.663 -2.5600  0.8611  2.0550
  102MOL0     H14014   8.896  -0.653   6.750 -0.0326 -0.2326  0.3883
  102MOL0     H14015   8.972  -0.824   6.607  1.7833 -1.1789  0.3245
  102MOL0     H14016   9.083  -0.712   6.525  1.3736  1.5471  0.2150
  102MOL0     H14017   9.203  -0.847   6.703 -3.1349 -2.3533  0.0321
  102MOL0     H14018   9.090  -0.786   6.831  0.0739  1.1055  1.4634
  102MOL0     H14019   9.301  -0.615   6.680  3.3910 -0.7972  1.9417
  102MOL0     H14020   9.176  -0.544   6.790 -0.5641  0.9975 -2.8637
  102MOL0     H14021   9.380  -0.761   6.874  1.9738  0.9122 -0.3959
  102MOL0     H14022   9.259  -0.681   6.964 -0.6317 -2.7403 -0.7474
  102MOL0     H14023   9.508  -0.592   6.998 -1.7724 -2.2689  0.2281
  102MOL0     H14024   9.503  -0.543   6.831 -2.1392 -0.4048 -0.0426
  102MOL0     H14025   9.413  -0.275   6.773 -1.8430 -0.6437  0.4211
  102MOL0     H14026   9.237  -0.023   6.978 -0.4768  1.9005 -2.0633
  102MOL0     H14027   9.291  -0.064   6.811  2.2348  1.6993 -0.4138
  102MOL0     H14028   9.500   0.014   6.849 -1.0514 -1.0191 -0.6192
  102MOL0     H14029   9.396   0.137   6.922 -2.2732 -0.7839 -2.2279
  102MOL0     H14030   9.468  -0.049   7.133  0.0314  0.9434  0.8745
  102MOL0     H14031   9.613  -0.034   7.032  0.8150  3.4507 -1.8861
  102MOL0     H14032   9.466   0.198   7.154 -1.9235 -1.5722 -1.2543
  102MOL0     H14033   9.606   0.120   7.221 -0.4122 -0.2376 -0.4481
  102MOL0     H14034   9.579   0.407   7.249 -0.5846  1.8207  0.3185
  102MOL0     H14035   9.627   0.569   7.417  1.0196 -3.1449 -2.1257
  102MOL0     H14036   9.639   0.714   7.309 -0.1245  0.4425 -0.2482
  102MOL0     H14037   9.780   0.654   7.404  0.6890  0.1985 -1.0051
  102MOL0     H14038  10.319   0.751   7.223 -2.4826 -0.4176  1.6973
  102MOL0     H14039  10.459   0.953   7.180  0.9695 -0.1207 -1.9920
  102MOL0     H14040  10.456   1.195   7.231 -0.0486 -4.7805 -0.5909
  102MOL0     H14041  10.571   1.167   7.098 -0.3908 -0.8587  1.0783
  102MOL0     H14042  10.603   1.398   7.162  0.7941  0.4847 -1.6743
  102MOL0     H14043  10.546   1.388   7.003  1.7167  2.1760  0.4653
  102MOL0     H14044  10.363   1.430   7.256  2.4725 -1.1986 -0.1409
  102MOL0     H14045  10.305   1.436   7.096 -0.4457  0.8183  0.9926
  102MOL0     H14046  10.321   1.648   7.148  0.1693  0.9092  0.6131
  102MOL0     H14047  10.477   1.648   7.074 -2.8807  0.9240 -2.1583
  102MOL0     H14048  10.406   1.647   7.371 -0.6035  1.3217  0.2599
  102MOL0     H14049  10.567   1.593   7.319  1.4849  1.8193 -0.9564
  102MOL0     H14050  10.458   1.885   7.277  2.3550  2.4003  0.6465
  102MOL0     H14051  10.588   1.806   7.185 -1.2029  3.3093 -0.2291
  102MOL0     H14052  10.708   1.762   7.412  0.1902  1.7300  3.5330
  102MOL0     H14053  10.560   1.786   7.498  1.6613 -0.6162  0.8737
  102MOL0     H14054  10.661   2.010   7.331 -0.1552 -2.3439 -0.4116
  102MOL0     H14055  10.729   1.984   7.495 -1.2710  4.6234  1.6248
  102MOL0     H14056  10.130   1.118   6.956  0.9244  1.2381  2.1868
  102MOL0     H14057  10.009   0.909   6.981 -0.9058  1.6604  1.6420
  102MOL0     H14058  10.015   0.487   7.032  0.8036  0.6290  1.3140
  102MOL0     H14059   9.903   0.281   6.992  2.2923 -0.5319  1.3304
  102MOL0     H14060   8.784  -0.362   6.955  2.5009  2.1446 -2.9443
  102MOL0     H14061   8.640  -0.249   7.101 -0.3231 -1.0209 -0.2896
  102MOL0     H14062   8.150  -0.257   7.125 -1.9370  1.2943 -1.9573
  102MOL0     H14063   7.962  -0.255   7.289 -1.6310 -0.3676 -3.2514
  102MOL0     H14064   7.934   0.081   7.570 -2.5603  0.5203 -3.6212
  102MOL0     H14065   7.819  -0.016   7.628  0.3575  1.4668 -0.1904
  102MOL0     H14066   8.118  -0.043   7.604 -2.0059  1.2747 -3.0663
  102MOL0     H14067   8.028  -0.189   7.640 -4.9337 -0.4038 -0.1708
  102MOL0     H14068   7.930  -0.083   7.852  1.9453 -3.4648  1.4334
  102MOL0     H14069   8.074  -0.133   7.875 -1.3812  1.4101  2.4256
  102MOL0     H14070   8.032   0.091   7.983 -3.6344 -1.6060  0.5802
  102MOL0     H14071   7.934   0.131   7.851 -0.1270 -0.7528 -3.8388
  102MOL0     H14072   8.331   0.282   7.778 -0.0572 -0.7809 -1.1564
  102MOL0     H14073   8.051   0.148   7.381 -1.6126  0.5157 -1.7062
  102MOL0     H14074   8.244   0.267   7.289  2.6712  0.4853 -0.8243
  102MOL0     H14075   8.361   0.185   7.207 -0.9787 -3.0446  2.4100
  102MOL0     H14076   8.221   0.242   7.117  0.5444 -0.6042 -1.3143
  103MOL0     O14077   9.752   7.147   8.463 -0.0862 -0.3290  0.7455
  103MOL0     C14078   9.723   7.262   8.497  0.3804 -0.0835 -0.4677
  103MOL0     O14079   9.770   7.384   8.444 -0.1014  0.0265  0.4882
  103MOL0     C14080   9.879   7.365   8.369 -0.5754 -0.6174  0.6471
  103MOL0     C14081   9.997   7.343   8.421  0.1817 -0.0402  0.3833
  103MOL0     C14082  10.115   7.316   8.346  0.1345  0.1652  0.7629
  103MOL0     C14083  10.109   7.327   8.202 -0.3104  0.8401  0.0505
  103MOL0     O14084  10.225   7.325   8.117 -0.0106  0.5404 -0.0915
  103MOL0     C14085  10.335   7.259   8.183  0.4189  0.8492  0.1619
  103MOL0     C14086  10.455   7.233   8.090  0.5832  0.6170  0.9636
  103MOL0     C14087  10.488   7.354   8.005 -0.5958 -0.2087 -0.8125
  103MOL0     C14088  10.615   7.347   7.923 -0.4163 -1.5677 -0.4140
  103MOL0     C14089  10.658   7.487   7.877 -0.1481 -0.1920 -0.2436
  103MOL0     C14090  10.786   7.506   7.792  0.1241  0.5465  0.8547
  103MOL0     C14091  10.923   7.455   7.840  0.2897 -0.1502 -0.4768
  103MOL0     C14092  10.974   7.551   7.946 -0.8064 -0.2077  0.5388
  103MOL0     N14093  11.053   7.665   7.893 -0.2595  0.0919  0.0007
  103MOL0     C14094  11.183   7.711   7.935 -0.7578  0.0365 -0.2612
  103MOL0     C14095  11.205   7.819   7.849 -1.8411  0.4240  1.0129
  103MOL0     C14096  11.326   7.901   7.834 -0.4443 -0.1210 -0.1630
  103MOL0     C14097  11.343   7.989   7.707 -0.0125  0.3351 -0.0774
  103MOL0     C14098  11.313   8.139   7.740  0.4610 -0.2290 -0.9629
  103MOL0     C14099  11.250   8.200   7.610  0.3948  0.4884  0.2903
  103MOL0     O14100  11.350   8.271   7.533  0.6145 -0.8874  0.7377
  103MOL0     C14101  11.313   8.306   7.402  0.2734 -0.2322  0.6930
  103MOL0     C14102  11.192   8.265   7.345 -0.6713  0.9211 -0.5021
  103MOL0     C14103  11.156   8.309   7.220  0.3582  0.1379  0.2510
  103MOL0     C14104  11.018   8.278   7.159 -0.1129 -0.1008 -0.2500
  103MOL0     C14105  11.249   8.388   7.141  0.0896  0.1498 -0.1947
  103MOL0     C14106  11.214   8.447   7.015 -0.0913 -0.3050  0.6966
  103MOL0     O14107  11.086   8.496   7.002 -0.0587 -0.0377  0.7504
  103MOL0     C14108  11.061   8.567   6.889 -1.3427  0.5236  1.2468
  103MOL0     C14109  11.056   8.706   6.879  0.6335  0.1719  0.5176
  103MOL0     C14110  11.029   8.763   6.751  0.6566  0.2498  0.2727
  103MOL0     C14111  10.998   8.680   6.643 -0.6813 -0.6484  0.7172
  103MOL0     O14112  10.983   8.745   6.519 -0.7261 -0.7169 -0.9762
  103MOL0     C14113  11.008   8.678   6.396 -0.2199 -0.8586 -0.8218
  103MOL0     C14114  11.145   8.608   6.369 -0.0531  0.4610  0.6774
  103MOL0     C14115  11.254   8.711   6.331 -0.6275 -0.2207  0.2250
  103MOL0     C14116  11.287   8.810   6.447 -0.4617  1.3020  1.0327
  103MOL0     C14117  11.408   8.898   6.419 -0.2051 -0.2253  0.4827
  103MOL0     C14118  11.402   9.018   6.510 -0.3044 -0.2745 -0.0550
  103MOL0     C14119  11.532   9.098   6.499 -0.4903  0.5748  0.1361
  103MOL0     C14120  11.544   9.245   6.539  0.3051 -0.3262 -1.1267
  103MOL0    Cl14121  11.689   9.321   6.453  0.6924 -0.1925 -0.3337
  103MOL0     C14122  10.999   8.540   6.655 -0.0363  0.1992 -0.7455
  103MOL0     C14123  11.034   8.479   6.781 -0.0123 -0.2109 -0.0949
  103MOL0     O14124  11.313   8.474   6.942  0.1386  0.1875  0.2508
  103MOL0     C14125  11.379   8.416   7.194  0.7299  0.3214  0.2951
  103MOL0     C14126  11.404   8.370   7.323 -0.0412 -0.4544 -0.1861
  103MOL0     N14127  11.100   7.823   7.765  0.3340 -0.3699  0.0316
  103MOL0     N14128  11.017   7.730   7.778 -0.9489 -0.3330 -0.0302
  103MOL0     C14129   9.985   7.355   8.147  0.0784 -0.0616 -0.9904
  103MOL0     C14130   9.873   7.372   8.230 -0.1025 -0.6680  0.8788
  103MOL0     C14131   9.616   7.274   8.607 -1.0023  0.4082 -0.0854
  103MOL0     C14132   9.604   7.387   8.693  0.0142  0.0568  0.4143
  103MOL0     C14133   9.526   7.402   8.808 -0.8296  1.1320 -0.1628
  103MOL0     C14134   9.431   7.296   8.835 -0.6333  0.2314 -1.0481
  103MOL0     O14135   9.344   7.319   8.941 -0.2477  0.2182  0.0118
  103MOL0     C14136   9.251   7.208   8.975  1.5528 -0.5786 -0.0537
  103MOL0     C14137   9.311   7.111   9.062 -0.1457  0.4402  0.4027
  103MOL0     C14138   9.215   6.992   9.101  1.8816 -0.7539  1.1142
  103MOL0     C14139   9.235   6.955   9.253  0.7226 -0.0336 -0.1143
  103MOL0     C14140   9.150   6.848   9.293  0.1394 -0.5509 -0.3013
  103MOL0     C14141   9.084   6.753   9.338 -0.5336 -0.9595  0.1120
  103MOL0     C14142   9.443   7.188   8.749  0.6883 -0.7325 -0.7818
  103MOL0     C14143   9.517   7.179   8.631 -0.5473 -0.3870 -0.2416
  103MOL0     C14144   9.486   7.062   8.535 -0.4917 -0.4653 -0.0569
  103MOL0     H14145   9.986   7.327   8.527  1.4497 -2.0053  0.2568
  103MOL0     H14146  10.203   7.298   8.405 -2.1187 -2.1971  3.7402
  103MOL0     H14147  10.304   7.157   8.207  0.2843 -0.0675 -3.3893
  103MOL0     H14148  10.355   7.322   8.270 -1.6767 -1.0282  2.1469
  103MOL0     H14149  10.534   7.186   8.149 -0.2520 -1.0228  0.8420
  103MOL0     H14150  10.433   7.156   8.016  1.8350  3.4731 -2.7097
  103MOL0     H14151  10.395   7.376   7.950 -3.8842 -2.1279  3.3537
  103MOL0     H14152  10.515   7.430   8.078  0.5180  0.0530 -1.4866
  103MOL0     H14153  10.689   7.298   7.987 -0.6755 -2.7574 -0.9893
  103MOL0     H14154  10.604   7.281   7.837  0.6507 -0.0344 -1.7989
  103MOL0     H14155  10.685   7.561   7.953 -1.5843  1.6442 -1.4365
  103MOL0     H14156  10.572   7.536   7.830  0.9510 -0.4318 -2.6356
  103MOL0     H14157  10.765   7.445   7.704 -1.4099  1.3602  0.6127
  103MOL0     H14158  10.801   7.610   7.762  2.6517  0.3863  1.3318
  103MOL0     H14159  10.997   7.444   7.760 -0.5166  2.2295 -1.6487
  103MOL0     H14160  10.906   7.361   7.892 -2.1788 -0.6889 -2.1163
  103MOL0     H14161  10.898   7.591   8.014 -1.0688 -1.6505  1.1509
  103MOL0     H14162  11.041   7.502   8.018  2.8148  0.8082 -1.8889
  103MOL0     H14163  11.240   7.674   8.020  1.8683  1.6571 -1.2204
  103MOL0     H14164  11.412   7.833   7.828  0.3554  0.8207  0.3340
  103MOL0     H14165  11.346   7.963   7.922 -1.3946 -1.1563  0.8145
  103MOL0     H14166  11.444   7.980   7.666 -0.0135  1.8525 -0.4562
  103MOL0     H14167  11.282   7.938   7.632  1.5590 -0.6085 -0.7501
  103MOL0     H14168  11.257   8.154   7.833  0.8806  1.7514 -0.9685
  103MOL0     H14169  11.404   8.195   7.765 -1.1400  1.5587  1.3932
  103MOL0     H14170  11.207   8.122   7.548  2.5606 -0.1954 -0.4068
  103MOL0     H14171  11.166   8.264   7.642 -1.1447 -2.2725  2.1911
  103MOL0     H14172  11.116   8.203   7.391  0.3585 -0.7599 -0.9620
  103MOL0     H14173  10.950   8.363   7.172 -2.2398 -1.8639  1.0326
  103MOL0     H14174  10.970   8.192   7.206 -0.1983  0.4136  0.6149
  103MOL0     H14175  11.020   8.241   7.056  0.6817  0.3406 -0.3968
  103MOL0     H14176  11.092   8.762   6.965  1.8565 -0.1200  0.2270
  103MOL0     H14177  11.030   8.869   6.727 -1.9547  0.0456 -1.1164
  103MOL0     H14178  10.927   8.606   6.383 -3.3996  1.2879  4.0879
  103MOL0     H14179  10.992   8.760   6.326  0.5487  4.4205  4.3731
  103MOL0     H14180  11.179   8.564   6.464  0.4904  3.4394  1.9777
  103MOL0     H14181  11.133   8.537   6.287  0.1184  1.9841 -0.6999
  103MOL0     H14182  11.236   8.765   6.237 -2.6701 -2.7107 -0.9279
  103MOL0     H14183  11.349   8.662   6.308  1.1897  2.6901  0.9688
  103MOL0     H14184  11.293   8.762   6.545  2.2256  0.8960  0.7442
  103MOL0     H14185  11.195   8.862   6.474 -3.3533 -2.8417 -0.0296
  103MOL0     H14186  11.495   8.831   6.424 -1.2311 -1.6132  0.2245
  103MOL0     H14187  11.397   8.936   6.317 -2.1020 -3.0255 -0.4920
  103MOL0     H14188  11.395   8.972   6.609  2.4343 -0.5780  0.0800
  103MOL0     H14189  11.314   9.078   6.484 -1.4440 -0.9619  1.9256
  103MOL0     H14190  11.567   9.091   6.395 -1.1004 -0.5651 -0.0163
  103MOL0     H14191  11.604   9.045   6.562  1.8971  3.3729 -0.0104
  103MOL0     H14192  11.563   9.230   6.646  1.1725 -0.8235 -1.3378
  103MOL0     H14193  11.462   9.311   6.510  0.4753  0.1240 -0.5930
  103MOL0     H14194  10.972   8.483   6.566  1.0385 -0.4991 -0.6362
  103MOL0     H14195  11.022   8.373   6.799 -0.4230  0.1645  2.1124
  103MOL0     H14196  11.451   8.471   7.134 -1.0421  1.5616 -0.7868
  103MOL0     H14197  11.504   8.393   7.357 -0.4325  1.3770 -0.2192
  103MOL0     H14198   9.983   7.370   8.040  0.2213 -1.3112 -1.1857
  103MOL0     H14199   9.785   7.396   8.171  3.0409 -0.3925 -4.3252
  103MOL0     H14200   9.662   7.477   8.674 -0.4257  0.4262  0.7751
  103MOL0     H14201   9.530   7.490   8.871  0.7387  0.5508  0.6104
  103MOL0     H14202   9.170   7.251   9.036  3.2228  1.6188  0.7814
  103MOL0     H14203   9.202   7.161   8.890 -0.5614  0.4217  0.5390
  103MOL0     H14204   9.341   7.167   9.151  0.2200 -1.9946  1.9012
  103MOL0     H14205   9.402   7.069   9.019 -0.6249  3.2798 -4.0210
  103MOL0     H14206   9.109   7.021   9.105  2.1270  0.2309  0.6262
  103MOL0     H14207   9.231   6.909   9.032  0.0761 -0.8382  0.7371
  103MOL0     H14208   9.211   7.043   9.313  0.5089  1.7759 -2.6601
  103MOL0     H14209   9.342   6.942   9.270  1.3448  1.2748 -2.4626
  103MOL0     H14210   9.020   6.681   9.386 -0.8956  0.7218  2.3231
  103MOL0     H14211   9.370   7.110   8.769 -3.0147  3.0037  1.8357
  103MOL0     H14212   9.570   6.996   8.512 -1.2240 -1.2129 -0.6250
  103MOL0     H14213   9.412   6.998   8.582 -1.3855  2.0201  2.2170
  103MOL0     H14214   9.456   7.108   8.440 -0.7386  0.4506  0.4503
  104MOL0     O14215   3.052   4.597   5.606 -0.4608  0.1311  0.2050
  104MOL0     C14216   2.961   4.642   5.671  1.5596 -0.4181 -0.0723
  104MOL0     O14217   2.826   4.653   5.625 -0.4704  0.7298 -1.1488
  104MOL0     C14218   2.781   4.559   5.527  0.2540  0.5540  0.3224
  104MOL0     C14219   2.705   4.606   5.418  0.1820 -0.1792 -0.2282
  104MOL0     C14220   2.647   4.511   5.327 -0.8819 -1.0246  0.6107
  104MOL0     C14221   2.678   4.377   5.341 -0.6513  0.1189 -0.0495
  104MOL0     O14222   2.647   4.299   5.233  0.0125  0.2587  0.0947
  104MOL0     C14223   2.590   4.175   5.264  0.2914  0.2480 -0.2288
  104MOL0     C14224   2.520   4.124   5.143 -0.0611  0.2467 -0.6057
  104MOL0     C14225   2.608   4.067   5.034 -0.1523  1.0791 -0.6795
  104MOL0     C14226   2.680   4.173   4.956 -0.0511 -0.0987 -0.5640
  104MOL0     C14227   2.720   4.116   4.816  0.6549 -0.0887 -0.6621
  104MOL0     C14228   2.807   4.223   4.741  0.2452  0.1127 -0.0026
  104MOL0     C14229   2.843   4.184   4.599  0.0200  0.2686 -1.1699
  104MOL0     C14230   2.939   4.070   4.583 -0.6141  0.7607  0.8588
  104MOL0     N14231   2.932   4.019   4.447  0.1708 -0.3383  0.3856
  104MOL0     C14232   2.970   4.088   4.340 -0.2790  0.1404  0.3215
  104MOL0     C14233   2.960   4.000   4.240  0.1243  0.5297 -0.3040
  104MOL0     C14234   2.974   4.028   4.098  0.2166 -1.0228  0.3705
  104MOL0     C14235   3.050   3.924   4.021 -0.1865 -0.5804 -0.3451
  104MOL0     C14236   3.082   3.982   3.882  1.3195 -0.7526 -0.5551
  104MOL0     C14237   3.195   4.084   3.867  0.9643  0.1014  0.1752
  104MOL0     O14238   3.211   4.128   3.731 -0.6680 -0.4430 -0.8025
  104MOL0     C14239   3.312   4.209   3.706 -0.7147  0.2637  0.5071
  104MOL0     C14240   3.447   4.190   3.738 -0.5574  0.0607  0.9491
  104MOL0     C14241   3.542   4.293   3.734  0.0732 -0.1844 -0.3239
  104MOL0     C14242   3.670   4.274   3.810 -0.1705 -0.7894 -0.4120
  104MOL0     C14243   3.506   4.420   3.691 -0.6285 -0.2092  0.5440
  104MOL0     C14244   3.599   4.546   3.697 -0.6179 -0.3453  0.4366
  104MOL0     O14245   3.566   4.644   3.614  0.5372 -0.5348 -0.5872
  104MOL0     C14246   3.642   4.760   3.593 -0.0422  0.5674 -0.1070
  104MOL0     C14247   3.685   4.794   3.462  0.8374  0.1484 -0.7406
  104MOL0     C14248   3.753   4.911   3.444 -0.2812  0.0947  0.4210
  104MOL0     C14249   3.773   5.008   3.543 -0.5066 -0.8250 -0.2613
  104MOL0     O14250   3.825   5.130   3.504 -0.8421 -0.0746  0.3671
  104MOL0     C14251   3.759   5.249   3.558  0.2012 -0.1772  0.6633
  104MOL0     C14252   3.783   5.373   3.461  0.4371 -0.1231  0.4666
  104MOL0     C14253   3.711   5.365   3.322  0.1963  1.0211  0.5225
  104MOL0     C14254   3.796   5.307   3.204  1.0913  0.8324 -0.3559
  104MOL0     C14255   3.699   5.298   3.080 -0.4557 -0.4909  0.5323
  104MOL0     C14256   3.760   5.253   2.950 -0.6634 -0.3205 -0.0521
  104MOL0     C14257   3.853   5.351   2.867  0.0305  0.1124 -0.5097
  104MOL0     C14258   3.779   5.471   2.803  0.1445  0.2271 -0.2155
  104MOL0    Cl14259   3.898   5.591   2.754 -0.0955 -0.5481  0.3070
  104MOL0     C14260   3.735   4.981   3.679 -0.1989  0.5155  0.0626
  104MOL0     C14261   3.670   4.853   3.694 -0.8715  1.5122  0.4437
  104MOL0     O14262   3.695   4.551   3.776 -1.1001  0.2988 -0.0796
  104MOL0     C14263   3.375   4.434   3.644  0.9124 -0.1123 -0.1919
  104MOL0     C14264   3.285   4.332   3.653  0.7061 -0.3938  1.1215
  104MOL0     N14265   2.934   3.875   4.300 -0.5760  0.4286 -0.4355
  104MOL0     N14266   2.928   3.884   4.425 -0.1293  1.2398  0.0682
  104MOL0     C14267   2.759   4.324   5.441  0.1284  0.3671 -1.1000
  104MOL0     C14268   2.800   4.418   5.541  0.5713 -0.1074  0.3964
  104MOL0     C14269   2.987   4.691   5.810 -0.0722  0.3430 -0.6183
  104MOL0     C14270   2.895   4.789   5.864  0.9078 -0.2218 -0.2943
  104MOL0     C14271   2.908   4.826   5.994 -0.5545  0.2834  0.7204
  104MOL0     C14272   3.005   4.776   6.085 -0.2723  0.4960  0.2874
  104MOL0     O14273   3.014   4.809   6.222 -0.2587  0.4821  0.2999
  104MOL0     C14274   2.910   4.890   6.278  0.5451  0.6388 -0.6766
  104MOL0     C14275   2.933   4.936   6.415 -0.4341 -0.7187  0.2968
  104MOL0     C14276   2.816   5.019   6.459  0.6789  0.0618  0.8428
  104MOL0     C14277   2.836   5.088   6.585 -0.3506 -0.7869 -0.1247
  104MOL0     C14278   2.850   4.993   6.696  0.3519 -0.4648  0.6847
  104MOL0     C14279   2.840   4.920   6.795 -0.6611 -0.1727  0.3133
  104MOL0     C14280   3.107   4.695   6.027  0.2990 -0.4444  0.2349
  104MOL0     C14281   3.098   4.647   5.893  0.0178  0.5360  0.5004
  104MOL0     C14282   3.214   4.579   5.827 -0.1358  0.4288  0.0212
  104MOL0     H14283   2.663   4.704   5.397 -2.1523 -1.4962 -2.4633
  104MOL0     H14284   2.589   4.543   5.241  1.0911 -0.8560 -0.7428
  104MOL0     H14285   2.520   4.161   5.347  2.2399  0.2679  1.4953
  104MOL0     H14286   2.671   4.106   5.291 -0.2538  0.5948  2.6305
  104MOL0     H14287   2.453   4.044   5.173 -2.0562  1.6338 -1.1079
  104MOL0     H14288   2.458   4.207   5.105 -1.2988  0.9101  2.5456
  104MOL0     H14289   2.672   3.992   5.083 -0.5597 -1.0127 -3.1631
  104MOL0     H14290   2.547   4.006   4.968  0.1100 -0.1981  0.2109
  104MOL0     H14291   2.619   4.263   4.945 -1.7491 -0.9725  1.0503
  104MOL0     H14292   2.769   4.208   5.010 -0.3048  1.6522 -1.2123
  104MOL0     H14293   2.621   4.109   4.770 -0.1036 -0.3290  0.9459
  104MOL0     H14294   2.767   4.018   4.819 -1.9972 -1.5268 -2.3845
  104MOL0     H14295   2.752   4.317   4.740 -2.9011 -1.5966  0.4981
  104MOL0     H14296   2.899   4.236   4.798  0.5969 -2.3228  0.0856
  104MOL0     H14297   2.894   4.262   4.541  2.4787 -1.7561 -1.9011
  104MOL0     H14298   2.753   4.164   4.540 -1.5394 -0.9721  1.4803
  104MOL0     H14299   3.037   4.118   4.583 -0.7338  1.0899 -1.2612
  104MOL0     H14300   2.926   3.989   4.655 -0.4544 -0.2275 -0.2102
  104MOL0     H14301   2.986   4.195   4.331 -0.7779  0.2058  0.1346
  104MOL0     H14302   3.012   4.128   4.075 -1.9202 -0.3740 -0.5673
  104MOL0     H14303   2.877   4.035   4.049  2.0500  4.2053 -3.4730
  104MOL0     H14304   3.146   3.900   4.069  0.1735 -0.7178 -1.1274
  104MOL0     H14305   2.985   3.837   4.009 -1.4112  0.3617 -0.7800
  104MOL0     H14306   3.131   3.897   3.833  1.4704 -1.0893  0.1635
  104MOL0     H14307   2.987   4.003   3.833  0.4808 -1.1244  0.8778
  104MOL0     H14308   3.180   4.164   3.940 -1.8903 -0.9357  0.8270
  104MOL0     H14309   3.291   4.035   3.890  0.5299 -0.9723 -0.2358
  104MOL0     H14310   3.474   4.091   3.774 -0.8258  0.6076  2.7216
  104MOL0     H14311   3.676   4.170   3.846  0.3016 -0.0717  1.7056
  104MOL0     H14312   3.677   4.336   3.899 -0.4585 -3.3923  1.5474
  104MOL0     H14313   3.753   4.289   3.740  0.5706  1.0931  0.7998
  104MOL0     H14314   3.674   4.716   3.387 -2.5679 -0.8070  0.5960
  104MOL0     H14315   3.786   4.921   3.341  2.8990  0.0978  1.3155
  104MOL0     H14316   3.653   5.231   3.575 -0.2038  0.8971 -0.5854
  104MOL0     H14317   3.804   5.278   3.654  0.3489  2.3693 -0.1063
  104MOL0     H14318   3.739   5.456   3.518  1.3858  1.3455 -0.8771
  104MOL0     H14319   3.890   5.392   3.449  0.1393  1.2612 -0.1767
  104MOL0     H14320   3.673   5.466   3.305  2.4131  1.7605 -0.4274
  104MOL0     H14321   3.625   5.300   3.339  2.6476 -2.5769  0.1082
  104MOL0     H14322   3.831   5.205   3.221  2.9633  1.1691 -1.8431
  104MOL0     H14323   3.883   5.370   3.182  3.1567 -1.1588  1.5244
  104MOL0     H14324   3.615   5.228   3.094 -0.2080 -1.5541 -2.4759
  104MOL0     H14325   3.643   5.391   3.072 -2.4023 -1.6593 -0.1604
  104MOL0     H14326   3.677   5.217   2.889  0.9500 -1.7303 -1.5748
  104MOL0     H14327   3.818   5.164   2.977 -0.9892 -0.9898 -1.4770
  104MOL0     H14328   3.903   5.293   2.788 -2.0428 -2.8834  0.1799
  104MOL0     H14329   3.925   5.386   2.941  0.5234 -2.2250  0.1970
  104MOL0     H14330   3.711   5.526   2.869 -0.4633 -1.2505  0.4510
  104MOL0     H14331   3.711   5.450   2.719 -1.6480  2.3490  0.6046
  104MOL0     H14332   3.746   5.045   3.765 -1.7420 -0.1919  0.8345
  104MOL0     H14333   3.633   4.829   3.793  0.5883 -1.4931  0.3664
  104MOL0     H14334   3.330   4.528   3.613 -0.1379  0.3792  2.5453
  104MOL0     H14335   3.183   4.358   3.625  0.6689  1.8569  3.0342
  104MOL0     H14336   2.752   4.218   5.462 -4.1206  0.2134 -2.2850
  104MOL0     H14337   2.861   4.391   5.626 -0.0922 -0.4484  0.7693
  104MOL0     H14338   2.815   4.843   5.815  1.7483  3.0898  1.6505
  104MOL0     H14339   2.848   4.909   6.030 -0.6640  0.6030 -0.1667
  104MOL0     H14340   2.887   4.976   6.215  3.0247  2.1902  0.3901
  104MOL0     H14341   2.817   4.832   6.275  1.5983 -1.1894  0.2949
  104MOL0     H14342   3.029   4.988   6.422 -1.0235  0.5148 -0.4311
  104MOL0     H14343   2.938   4.845   6.477 -2.0506 -1.7039 -0.9472
  104MOL0     H14344   2.784   5.092   6.384 -3.6890 -2.0975  0.2805
  104MOL0     H14345   2.734   4.947   6.473 -0.5066  0.9865 -0.9100
  104MOL0     H14346   2.749   5.154   6.595 -0.5314 -0.6318 -2.3158
  104MOL0     H14347   2.926   5.149   6.576 -1.0731  1.4434  4.5471
  104MOL0     H14348   2.860   4.851   6.874 -1.1375  1.4059  1.9094
  104MOL0     H14349   3.189   4.662   6.090  0.4734  0.5747  0.5618
  104MOL0     H14350   3.178   4.479   5.801 -1.6327  0.6648  1.0636
  104MOL0     H14351   3.261   4.636   5.746 -0.8261  2.1141  0.7609
  104MOL0     H14352   3.298   4.558   5.894  0.7111 -2.2070 -1.7123
  105MOL0     O14353   5.313   3.359   7.799  0.5701  0.8518 -0.6454
  105MOL0     C14354   5.372   3.374   7.693  0.6455  0.7963  0.0930
  105MOL0     O14355   5.498   3.408   7.671  0.5959  0.0483  0.3445
  105MOL0     C14356   5.562   3.474   7.766 -0.1898  0.1243  0.0255
  105MOL0     C14357   5.518   3.530   7.889  0.2704  0.3968 -0.0695
  105MOL0     C14358   5.599   3.609   7.966 -0.3347  0.6758 -0.3964
  105MOL0     C14359   5.728   3.632   7.935 -0.7032 -0.0251  0.8950
  105MOL0     O14360   5.818   3.710   8.010  0.0582 -0.1037 -0.4926
  105MOL0     C14361   5.775   3.805   8.100 -0.3350 -0.2240 -0.5717
  105MOL0     C14362   5.886   3.851   8.184 -0.0969 -0.2783  0.2883
  105MOL0     C14363   5.990   3.737   8.214 -0.5050 -0.1495  0.0337
  105MOL0     C14364   6.089   3.786   8.334  1.0416 -0.5460 -0.3904
  105MOL0     C14365   6.202   3.681   8.362  0.4145 -0.4321 -0.3423
  105MOL0     C14366   6.291   3.718   8.486  0.0419  0.2135  0.4505
  105MOL0     C14367   6.431   3.650   8.485 -0.3614 -0.4663 -0.3812
  105MOL0     C14368   6.502   3.704   8.612 -0.2570  0.0496  0.4917
  105MOL0     N14369   6.640   3.670   8.624 -0.3678 -0.3004 -0.8179
  105MOL0     C14370   6.691   3.549   8.593 -0.5583 -0.0552 -0.8885
  105MOL0     C14371   6.820   3.555   8.583  0.4515  0.1304 -0.2734
  105MOL0     C14372   6.915   3.444   8.562  0.7609  0.0759 -0.0748
  105MOL0     C14373   6.955   3.394   8.698 -0.0916  0.5502 -0.4334
  105MOL0     C14374   7.011   3.246   8.679 -0.8692 -0.6934 -0.0601
  105MOL0     C14375   7.084   3.176   8.803 -0.4327 -0.2072  0.7084
  105MOL0     O14376   6.994   3.183   8.906 -0.2573  0.5678  0.1785
  105MOL0     C14377   7.032   3.148   9.034 -0.7075  0.3116  0.5908
  105MOL0     C14378   7.161   3.117   9.072  0.4201  0.1728 -0.3522
  105MOL0     C14379   7.197   3.083   9.209 -0.6918 -0.3163 -0.3882
  105MOL0     C14380   7.350   3.083   9.230  0.7163  0.5914 -0.5628
  105MOL0     C14381   7.095   3.058   9.296  0.1103 -0.5563  0.0933
  105MOL0     C14382   7.124   2.993   9.423 -0.0735 -0.0986 -0.2329
  105MOL0     O14383   7.251   2.954   9.448 -0.6971 -0.2018 -0.0034
  105MOL0     C14384   7.276   2.889   9.559  0.0182  0.3298  0.3630
  105MOL0     C14385   7.279   2.750   9.546 -0.0103  0.0884 -0.8293
  105MOL0     C14386   7.279   2.672   9.662  0.1856  0.5419 -0.6116
  105MOL0     C14387   7.290   2.728   9.791  0.6472  0.3509  0.5874
  105MOL0     O14388   7.290   2.647   9.901  0.8034 -0.4851  0.3674
  105MOL0     C14389   7.338   2.702  10.027  0.0941  1.6307 -0.3936
  105MOL0     C14390   7.357   2.581  10.129  0.1631 -0.2707  0.3153
  105MOL0     C14391   7.392   2.631  10.278 -0.3481 -0.3647  0.7728
  105MOL0     C14392   7.281   2.713  10.351 -0.0313 -0.7548  0.1573
  105MOL0     C14393   7.309   2.733  10.495 -0.1832  0.4785  0.3103
  105MOL0     C14394   7.199   2.815  10.568 -0.4576  1.0186  0.7790
  105MOL0     C14395   7.216   2.816  10.717 -0.0442  1.2032 -0.3275
  105MOL0     C14396   7.350   2.866  10.772 -1.0572  0.1624  0.5894
  105MOL0    Cl14397   7.403   3.029  10.712 -0.4869 -0.2805  0.4064
  105MOL0     C14398   7.285   2.876   9.804 -0.3178  0.3791  0.1634
  105MOL0     C14399   7.277   2.954   9.683 -0.0225  0.0484 -0.0459
  105MOL0     O14400   7.026   2.985   9.496  0.0754  0.1078 -0.6168
  105MOL0     C14401   6.959   3.094   9.252 -0.4729 -0.6914 -0.8271
  105MOL0     C14402   6.931   3.143   9.129  0.0922 -0.3482  1.0443
  105MOL0     N14403   6.848   3.692   8.593  0.9550  0.4411  0.1355
  105MOL0     N14404   6.741   3.758   8.618 -0.3038  0.3131  0.6224
  105MOL0     C14405   5.778   3.579   7.814 -0.5626  0.8667 -0.6253
  105MOL0     C14406   5.694   3.500   7.737  0.4138  0.9143  0.4642
  105MOL0     C14407   5.291   3.363   7.577  1.1946  0.4608  0.0888
  105MOL0     C14408   5.175   3.452   7.563  0.2683 -0.6157  1.1493
  105MOL0     C14409   5.095   3.440   7.446  0.7161 -0.0950 -0.4992
  105MOL0     C14410   5.119   3.344   7.346 -0.3381 -0.2144  1.2727
  105MOL0     O14411   5.030   3.360   7.238 -0.4503  0.1264  0.7405
  105MOL0     C14412   5.031   3.262   7.136  0.7706  0.9859  0.7960
  105MOL0     C14413   5.099   3.315   7.007  0.0862  0.2572  0.6836
  105MOL0     C14414   5.106   3.203   6.899  0.8022 -0.1464 -0.7409
  105MOL0     C14415   5.171   3.267   6.777  0.4347  0.4859  0.5222
  105MOL0     C14416   5.178   3.169   6.672  1.0232  0.2283  0.4556
  105MOL0     C14417   5.176   3.075   6.589  1.2335 -0.2768  0.1327
  105MOL0     C14418   5.239   3.266   7.364  0.7616 -0.4215  0.7853
  105MOL0     C14419   5.311   3.265   7.481  0.1731  0.6212  0.5494
  105MOL0     C14420   5.409   3.154   7.503 -1.0966  0.1962 -0.0681
  105MOL0     H14421   5.414   3.532   7.921 -0.6111 -0.5035 -2.6584
  105MOL0     H14422   5.558   3.635   8.063  0.6479  1.3278 -0.1453
  105MOL0     H14423   5.696   3.753   8.156 -0.5860  0.0896 -0.6320
  105MOL0     H14424   5.745   3.896   8.047 -0.7106  0.5035  0.8316
  105MOL0     H14425   5.943   3.929   8.133 -1.2617  0.6168  0.3168
  105MOL0     H14426   5.834   3.892   8.271  0.1318  0.1113  0.2431
  105MOL0     H14427   5.931   3.655   8.255 -0.7869  0.1781  0.2928
  105MOL0     H14428   6.045   3.694   8.130  2.1859 -0.0561  1.6145
  105MOL0     H14429   6.134   3.882   8.309 -0.8524  1.2837  2.5712
  105MOL0     H14430   6.025   3.798   8.422 -0.8734 -3.6682 -1.1913
  105MOL0     H14431   6.264   3.673   8.272  2.5468 -1.4276  1.1576
  105MOL0     H14432   6.164   3.581   8.386  2.6515 -0.7026  2.5612
  105MOL0     H14433   6.299   3.826   8.471 -3.7399  0.6745  0.7964
  105MOL0     H14434   6.235   3.704   8.579  0.5100  1.2048  0.9031
  105MOL0     H14435   6.486   3.673   8.393 -1.0639 -3.7502 -1.7397
  105MOL0     H14436   6.421   3.542   8.484  1.4405 -0.6624 -1.5746
  105MOL0     H14437   6.485   3.811   8.600 -4.2987 -0.6268 -1.4171
  105MOL0     H14438   6.444   3.673   8.699 -0.2229 -0.9064  0.1863
  105MOL0     H14439   6.639   3.454   8.596  0.2786 -0.5074 -0.6506
  105MOL0     H14440   7.004   3.487   8.516  2.3816 -2.5381  0.3962
  105MOL0     H14441   6.860   3.371   8.503 -0.5981  1.8709 -1.1341
  105MOL0     H14442   7.027   3.465   8.739 -1.6375  1.7940  0.2289
  105MOL0     H14443   6.870   3.392   8.766 -2.4863  3.2133 -3.0688
  105MOL0     H14444   6.931   3.185   8.637  0.7072 -1.7411 -1.6285
  105MOL0     H14445   7.089   3.245   8.603 -1.1252  0.8758 -0.3839
  105MOL0     H14446   7.118   3.075   8.781 -0.7362 -0.3280  0.7979
  105MOL0     H14447   7.180   3.229   8.813  0.9793 -2.2317 -1.1189
  105MOL0     H14448   7.241   3.128   9.000 -1.9001 -1.5052 -3.3983
  105MOL0     H14449   7.391   3.117   9.326 -1.4895 -0.4339  0.8275
  105MOL0     H14450   7.410   3.144   9.162  0.2976  2.7764  0.9313
  105MOL0     H14451   7.393   2.986   9.203  1.1968  1.5494 -3.5633
  105MOL0     H14452   7.278   2.704   9.448  0.3562  2.0407 -1.8047
  105MOL0     H14453   7.283   2.564   9.647  1.7049  0.4828  0.0571
  105MOL0     H14454   7.440   2.735  10.006  1.1129 -1.0726 -0.0651
  105MOL0     H14455   7.276   2.781  10.070 -0.2195  0.6422  1.0415
  105MOL0     H14456   7.270   2.515  10.132 -0.8497  0.3752 -4.7029
  105MOL0     H14457   7.432   2.516  10.083 -0.9792 -0.0901 -1.9572
  105MOL0     H14458   7.475   2.703  10.275 -0.9649  0.4903 -4.2985
  105MOL0     H14459   7.416   2.541  10.334 -3.9574 -2.5460 -0.8472
  105MOL0     H14460   7.183   2.666  10.339 -0.7914  0.1894  2.2498
  105MOL0     H14461   7.271   2.812  10.304 -1.3866 -2.0702 -2.5443
  105MOL0     H14462   7.321   2.637  10.546 -1.7817  0.7170  1.2012
  105MOL0     H14463   7.404   2.788  10.494 -0.9262  1.8713  1.6799
  105MOL0     H14464   7.102   2.770  10.543 -1.2167  1.0105  3.3929
  105MOL0     H14465   7.181   2.911  10.519 -1.1687  0.3210 -0.3650
  105MOL0     H14466   7.201   2.712  10.746  0.1929  1.1712 -0.3205
  105MOL0     H14467   7.143   2.877  10.771 -0.2743  0.7488 -0.1202
  105MOL0     H14468   7.436   2.801  10.758 -0.3118  0.5283  2.9745
  105MOL0     H14469   7.337   2.876  10.881 -1.2090 -1.0148  0.6935
  105MOL0     H14470   7.255   2.926   9.895 -0.9125 -0.7434  0.6061
  105MOL0     H14471   7.253   3.059   9.694 -1.2866 -0.2979  0.6933
  105MOL0     H14472   6.869   3.096   9.312  0.8753  0.4955  1.2748
  105MOL0     H14473   6.829   3.152   9.092 -0.1936 -1.0141  1.6383
  105MOL0     H14474   5.872   3.620   7.779 -0.7153  1.1819 -0.6757
  105MOL0     H14475   5.720   3.460   7.639 -1.2183 -2.7371  1.3579
  105MOL0     H14476   5.147   3.532   7.630 -0.0107 -0.1294  0.4639
  105MOL0     H14477   5.014   3.511   7.432  2.9993  2.9791  0.6299
  105MOL0     H14478   5.074   3.171   7.178 -1.4438  0.6530  2.4933
  105MOL0     H14479   4.932   3.236   7.098  1.4043 -1.1394  0.4935
  105MOL0     H14480   5.196   3.357   7.034 -0.2361  0.6697  1.2211
  105MOL0     H14481   5.036   3.395   6.969  0.1745  1.0503  2.1429
  105MOL0     H14482   5.163   3.119   6.939 -0.4117  0.1198  1.7050
  105MOL0     H14483   5.002   3.173   6.881  0.4786 -0.0960  0.8859
  105MOL0     H14484   5.267   3.316   6.794  1.9916 -2.5315  1.0615
  105MOL0     H14485   5.104   3.345   6.739  0.9823 -0.0411 -1.6832
  105MOL0     H14486   5.191   2.999   6.515  1.7099  3.6111 -4.2014
  105MOL0     H14487   5.249   3.196   7.282  0.8122 -0.2208  0.6219
  105MOL0     H14488   5.375   3.060   7.459 -0.4992 -0.1033  0.1021
  105MOL0     H14489   5.498   3.173   7.443  0.3122 -1.8570  1.2531
  105MOL0     H14490   5.441   3.138   7.606  0.9669  1.5823 -0.4392
  106MOL0     O14491   6.887   2.017   7.759 -0.2705 -0.4712  0.4708
  106MOL0     C14492   6.792   2.079   7.804 -0.3263  0.0836 -0.3873
  106MOL0     O14493   6.800   2.181   7.892 -0.2687  0.5230  0.8941
  106MOL0     C14494   6.932   2.233   7.898 -0.2132  0.3006 -0.4743
  106MOL0     C14495   7.028   2.175   7.975 -0.3230  0.1552  0.2123
  106MOL0     C14496   7.162   2.225   7.985  0.5498  0.5665  0.5495
  106MOL0     C14497   7.205   2.339   7.917 -0.0453 -0.4742  0.9192
  106MOL0     O14498   7.332   2.390   7.939 -0.7531  0.2979 -0.1919
  106MOL0     C14499   7.406   2.428   7.831  0.1065 -0.6724 -0.2778
  106MOL0     C14500   7.546   2.409   7.871 -0.6903 -1.0243  0.0922
  106MOL0     C14501   7.578   2.271   7.930 -0.3915 -0.1844 -0.2189
  106MOL0     C14502   7.733   2.274   7.945  0.5227  0.2469 -0.1896
  106MOL0     C14503   7.772   2.129   7.979 -0.7576  0.6432  0.7636
  106MOL0     C14504   7.756   2.029   7.855  0.9456 -0.5135  0.2437
  106MOL0     C14505   7.852   1.912   7.875  0.3260  0.5942  0.1465
  106MOL0     C14506   7.813   1.814   7.977 -1.3880 -0.1785 -0.4696
  106MOL0     N14507   7.913   1.694   7.981  0.0164 -0.4289 -0.2748
  106MOL0     C14508   7.942   1.605   7.882  0.0711 -0.2913  0.0456
  106MOL0     C14509   8.046   1.530   7.939  0.1632  0.1180 -0.2185
  106MOL0     C14510   8.120   1.413   7.874 -0.0934 -0.2143 -0.1246
  106MOL0     C14511   8.094   1.270   7.917  0.2288  1.2677  0.5449
  106MOL0     C14512   8.161   1.173   7.812  0.0508  0.5796 -0.1515
  106MOL0     C14513   8.149   1.026   7.864 -0.4361 -0.3601  0.3520
  106MOL0     O14514   8.008   1.001   7.884  0.1135 -0.5112 -0.6235
  106MOL0     C14515   7.971   0.869   7.919 -0.4279 -0.9804  0.5224
  106MOL0     C14516   8.066   0.783   7.976 -0.2082  0.0176 -1.0133
  106MOL0     C14517   8.037   0.649   8.010 -1.1648  0.2475 -0.1223
  106MOL0     C14518   8.155   0.567   8.069 -1.3455 -0.9854  0.7216
  106MOL0     C14519   7.911   0.596   7.975 -0.1147  0.7894 -0.1283
  106MOL0     C14520   7.867   0.460   7.990  0.0735 -0.1000 -0.4294
  106MOL0     O14521   7.745   0.421   7.936 -0.6326 -0.5060  0.8906
  106MOL0     C14522   7.700   0.288   7.937  0.2704  0.0938 -0.8432
  106MOL0     C14523   7.649   0.227   7.830  0.5218  0.4244 -0.0140
  106MOL0     C14524   7.617   0.089   7.832  0.4756 -0.3820  0.3872
  106MOL0     C14525   7.627   0.020   7.949  0.0203 -0.7192 -0.3011
  106MOL0     O14526   7.591  -0.106   7.969 -0.2098  0.2026 -0.1552
  106MOL0     C14527   7.465  -0.125   8.033 -0.0683 -0.0861  0.3305
  106MOL0     C14528   7.423  -0.268   8.009  0.0806  0.5922  0.2803
  106MOL0     C14529   7.279  -0.290   8.056 -1.0653  0.3932 -0.6163
  106MOL0     C14530   7.246  -0.232   8.205 -0.0381  0.2532  0.4854
  106MOL0     C14531   7.108  -0.282   8.257 -0.3736 -0.3430 -0.5731
  106MOL0     C14532   7.090  -0.210   8.396 -0.1368 -0.5417 -0.1740
  106MOL0     C14533   6.944  -0.218   8.435  0.0608 -0.0282  0.1002
  106MOL0     C14534   6.929  -0.165   8.579 -0.1025 -0.8743  0.2692
  106MOL0    Cl14535   6.996  -0.286   8.683 -0.0023 -0.1725 -0.1621
  106MOL0     C14536   7.666   0.087   8.069 -0.4521  0.8461  0.9125
  106MOL0     C14537   7.702   0.220   8.057 -0.6618  0.9679  0.1292
  106MOL0     O14538   7.943   0.376   8.041 -0.0192 -0.5888  0.0992
  106MOL0     C14539   7.823   0.679   7.915  0.4830 -0.5343  0.1011
  106MOL0     C14540   7.852   0.811   7.875  0.1960  0.0650  0.9715
  106MOL0     N14541   8.079   1.578   8.062 -1.0734 -0.1071 -0.4199
  106MOL0     N14542   8.001   1.674   8.089 -0.2394 -0.8461  0.1401
  106MOL0     C14543   7.103   2.397   7.840 -0.2335  0.5624 -0.1476
  106MOL0     C14544   6.969   2.344   7.821 -0.0445 -0.1495 -0.3806
  106MOL0     C14545   6.648   2.031   7.785 -0.0812 -0.4172  0.2103
  106MOL0     C14546   6.550   2.069   7.867  0.7567 -0.2145 -0.1856
  106MOL0     C14547   6.418   2.038   7.844  0.3798 -0.1749 -0.3840
  106MOL0     C14548   6.378   1.963   7.729  0.2447 -0.4303 -0.5912
  106MOL0     O14549   6.251   1.935   7.705 -0.0366  1.0664 -0.7654
  106MOL0     C14550   6.144   1.983   7.776 -0.3705 -0.4136  0.6202
  106MOL0     C14551   6.106   1.891   7.885 -0.0172 -1.2578 -0.1789
  106MOL0     C14552   6.052   1.756   7.841 -0.0574  0.1027 -0.4794
  106MOL0     C14553   5.936   1.695   7.923  0.3068 -0.9465  0.0261
  106MOL0     C14554   5.997   1.663   8.053 -0.7113  0.3283 -1.5497
  106MOL0     C14555   6.042   1.612   8.159 -0.4707 -0.9029 -0.5567
  106MOL0     C14556   6.478   1.917   7.644 -0.2404  0.2540  1.0959
  106MOL0     C14557   6.611   1.945   7.676  0.1499  0.3861 -1.1647
  106MOL0     C14558   6.712   1.910   7.568 -0.5847  0.2095 -1.2081
  106MOL0     H14559   6.993   2.086   8.026 -0.6187  1.2449  1.9912
  106MOL0     H14560   7.230   2.180   8.058  3.0044  2.1823 -0.6042
  106MOL0     H14561   7.390   2.535   7.815 -1.3674 -0.7988  0.1240
  106MOL0     H14562   7.377   2.368   7.745  1.9998 -1.9048 -0.1109
  106MOL0     H14563   7.608   2.439   7.786  1.9870 -1.7493  1.6797
  106MOL0     H14564   7.574   2.483   7.947  2.4084 -0.1783 -1.7166
  106MOL0     H14565   7.534   2.253   8.029  0.4260 -6.0705 -0.5417
  106MOL0     H14566   7.540   2.190   7.866  0.8668 -1.0433  0.0694
  106MOL0     H14567   7.776   2.307   7.850 -0.8505 -0.1145 -0.9635
  106MOL0     H14568   7.756   2.333   8.034 -0.3827 -1.8711  1.5349
  106MOL0     H14569   7.700   2.084   8.049 -2.9087 -0.0034 -1.7313
  106MOL0     H14570   7.875   2.112   8.014 -0.6390 -2.7705 -0.7513
  106MOL0     H14571   7.652   1.996   7.839  1.1712 -1.0567 -0.1370
  106MOL0     H14572   7.778   2.085   7.764 -1.1590  3.2629  1.8473
  106MOL0     H14573   7.951   1.953   7.894  1.1553 -1.2739  0.1025
  106MOL0     H14574   7.849   1.854   7.782  3.1928 -0.4822  0.6282
  106MOL0     H14575   7.816   1.859   8.076 -2.3647 -3.6304  1.2858
  106MOL0     H14576   7.713   1.773   7.960 -1.1288 -2.6561  2.8942
  106MOL0     H14577   7.893   1.611   7.785 -1.2087  1.7206  0.7585
  106MOL0     H14578   8.229   1.420   7.879 -0.1540  0.7886  4.3490
  106MOL0     H14579   8.094   1.418   7.768 -1.0217  0.8752  0.1365
  106MOL0     H14580   8.141   1.255   8.015  1.2114  0.5247 -0.0223
  106MOL0     H14581   7.990   1.238   7.910  0.9696 -1.2192  0.1520
  106MOL0     H14582   8.107   1.178   7.717  1.0042 -0.2138 -0.7587
  106MOL0     H14583   8.266   1.200   7.796 -0.1176  2.5016  1.6094
  106MOL0     H14584   8.196   0.954   7.796 -0.1593 -0.1851  0.3587
  106MOL0     H14585   8.203   1.015   7.958  1.1268 -0.6850 -0.5478
  106MOL0     H14586   8.169   0.809   7.993  0.5658 -3.3294  0.1543
  106MOL0     H14587   8.220   0.631   8.131  1.3980 -0.5927 -2.2831
  106MOL0     H14588   8.219   0.539   7.985 -1.5821 -0.8964  0.5119
  106MOL0     H14589   8.129   0.488   8.140  0.8874 -1.0210  1.5956
  106MOL0     H14590   7.657   0.292   7.744  4.1404  0.9102  0.5139
  106MOL0     H14591   7.585   0.036   7.742  4.5171 -0.2237 -1.3716
  106MOL0     H14592   7.476  -0.100   8.139 -0.6204  5.6327 -0.6664
  106MOL0     H14593   7.380  -0.069   7.993 -2.6031 -4.3024 -0.8891
  106MOL0     H14594   7.430  -0.310   7.909 -1.4176 -0.6226  0.6446
  106MOL0     H14595   7.495  -0.326   8.067  0.6973 -1.3536 -2.2731
  106MOL0     H14596   7.278  -0.400   8.053  1.3203  0.3307 -2.9223
  106MOL0     H14597   7.206  -0.247   7.987 -3.7371  0.4018  2.0124
  106MOL0     H14598   7.242  -0.123   8.199  1.2740  0.2618 -1.1551
  106MOL0     H14599   7.329  -0.271   8.265  0.6254  1.2948  0.2702
  106MOL0     H14600   7.035  -0.257   8.179  0.2672 -1.2893 -1.5093
  106MOL0     H14601   7.107  -0.390   8.272 -1.2840 -0.5730 -2.0662
  106MOL0     H14602   7.120  -0.106   8.384 -2.9520  0.2516 -0.9987
  106MOL0     H14603   7.152  -0.260   8.471 -1.0587  0.1161  1.0528
  106MOL0     H14604   6.899  -0.317   8.441 -2.3666  0.9986 -0.2481
  106MOL0     H14605   6.880  -0.165   8.364 -0.0784  0.1216  0.3384
  106MOL0     H14606   6.825  -0.159   8.609  1.2389 -0.2679  5.8703
  106MOL0     H14607   6.970  -0.066   8.602 -1.1951 -1.0219  3.1494
  106MOL0     H14608   7.665   0.031   8.162  1.6041 -2.1293 -0.7006
  106MOL0     H14609   7.743   0.277   8.140 -1.4195  0.6005  0.7696
  106MOL0     H14610   7.724   0.645   7.886  0.1815 -0.7186  1.2709
  106MOL0     H14611   7.784   0.863   7.809 -1.8172 -0.9444  2.1477
  106MOL0     H14612   7.133   2.489   7.792 -0.4639  0.2256 -0.9621
  106MOL0     H14613   6.908   2.381   7.739 -0.3109 -1.7108 -0.9162
  106MOL0     H14614   6.574   2.138   7.947  0.1332 -0.7579  0.4859
  106MOL0     H14615   6.352   2.075   7.922  0.3271 -0.3686 -0.3363
  106MOL0     H14616   6.164   2.086   7.809  0.5123  0.3331 -1.9491
  106MOL0     H14617   6.058   1.995   7.710  1.1639  3.1072 -1.0227
  106MOL0     H14618   6.026   1.952   7.927  0.8573  1.6790 -2.4446
  106MOL0     H14619   6.196   1.891   7.947  0.4066  0.9016 -0.7076
  106MOL0     H14620   6.013   1.762   7.739 -0.1158  4.2498 -0.3498
  106MOL0     H14621   6.134   1.683   7.844  0.5338  0.7875  0.6284
  106MOL0     H14622   5.907   1.600   7.877  1.9620  0.0744 -3.4689
  106MOL0     H14623   5.848   1.760   7.929  1.5222  1.0142 -2.0883
  106MOL0     H14624   6.082   1.569   8.249 -1.2177  1.0705  0.7838
  106MOL0     H14625   6.450   1.884   7.545  2.1569  0.7967  0.1769
  106MOL0     H14626   6.776   1.996   7.547 -1.8985  2.0763  1.7750
  106MOL0     H14627   6.761   1.813   7.580 -2.1099 -1.0877 -4.2432
  106MOL0     H14628   6.658   1.879   7.478  2.7472  1.2022 -3.7452
  107MOL0     O14629   8.930   5.002   4.892  0.2442 -0.0143  0.7765
  107MOL0     C14630   8.930   5.014   4.770  0.8400  0.8240  0.4428
  107MOL0     O14631   8.889   5.128   4.699 -0.9624 -0.0933  0.0715
  107MOL0     C14632   8.855   5.238   4.767  0.5004 -0.6908 -1.3069
  107MOL0     C14633   8.949   5.305   4.851  0.0388  0.3122 -0.6249
  107MOL0     C14634   8.911   5.422   4.919 -0.6171  0.8272 -1.0787
  107MOL0     C14635   8.778   5.475   4.905 -0.7724  0.9039 -0.8554
  107MOL0     O14636   8.744   5.605   4.956 -0.2681  0.0602 -0.3718
  107MOL0     C14637   8.829   5.679   5.040  0.2954 -0.3574 -0.6632
  107MOL0     C14638   8.750   5.803   5.095 -0.4672  1.2074  0.4462
  107MOL0     C14639   8.698   5.895   4.989 -0.0298 -0.4607 -0.5098
  107MOL0     C14640   8.702   6.042   5.038  0.8252 -0.7457  0.4927
  107MOL0     C14641   8.697   6.141   4.924 -0.6580 -0.4031 -0.1603
  107MOL0     C14642   8.571   6.152   4.842 -0.2627  0.2224  0.2685
  107MOL0     C14643   8.440   6.161   4.924  0.4111 -0.2340 -0.6268
  107MOL0     C14644   8.325   6.199   4.828 -0.5428  0.4588 -0.1108
  107MOL0     N14645   8.338   6.334   4.770 -0.2515  0.0343 -0.2028
  107MOL0     C14646   8.337   6.451   4.849  0.0898 -0.6653 -0.0773
  107MOL0     C14647   8.351   6.543   4.756  0.5423  0.0705  0.3990
  107MOL0     C14648   8.360   6.698   4.791  0.7483 -0.2389  0.4168
  107MOL0     C14649   8.326   6.787   4.676 -0.1386  0.3693 -0.0923
  107MOL0     C14650   8.183   6.763   4.623  0.1121  0.8461 -0.1385
  107MOL0     C14651   8.055   6.818   4.692 -0.0285  0.6973  0.0149
  107MOL0     O14652   8.019   6.754   4.811 -0.1475  0.1819 -0.8278
  107MOL0     C14653   7.999   6.619   4.821  0.4941  0.4418 -1.0782
  107MOL0     C14654   8.007   6.556   4.948  0.3792 -0.3169  0.6505
  107MOL0     C14655   7.980   6.417   4.962  0.2374  0.1574 -1.2107
  107MOL0     C14656   7.978   6.374   5.108 -0.5678  0.5888 -0.0082
  107MOL0     C14657   7.949   6.343   4.848  0.4715  0.1241  0.0716
  107MOL0     C14658   7.920   6.193   4.848  0.5027  1.2252 -0.2679
  107MOL0     O14659   7.979   6.119   4.949  0.1980 -0.4299 -0.5352
  107MOL0     C14660   7.936   5.990   4.973  0.5220 -0.0836 -1.2554
  107MOL0     C14661   7.807   5.931   4.939 -0.1866 -0.9399  0.1221
  107MOL0     C14662   7.781   5.799   4.975  0.9121  0.3573  0.4792
  107MOL0     C14663   7.873   5.717   5.051  0.1537  1.0916 -0.2477
  107MOL0     O14664   7.836   5.585   5.093  0.1259  0.2551  0.2153
  107MOL0     C14665   7.704   5.542   5.078 -0.4127 -0.2692 -0.4610
  107MOL0     C14666   7.691   5.397   5.125 -0.9848 -0.0387 -0.0297
  107MOL0     C14667   7.552   5.349   5.105 -0.0534  0.0462 -0.4774
  107MOL0     C14668   7.511   5.221   5.187 -0.1774 -0.7176 -0.6898
  107MOL0     C14669   7.516   5.237   5.344 -0.3779 -0.1457  0.4670
  107MOL0     C14670   7.473   5.117   5.412  0.0893  0.0189  0.1041
  107MOL0     C14671   7.518   5.096   5.562 -0.8450 -0.5163 -0.1545
  107MOL0     C14672   7.460   4.966   5.613 -0.8979 -0.3476 -0.7369
  107MOL0    Cl14673   7.499   4.943   5.783  0.4266  0.5822 -0.3796
  107MOL0     C14674   7.998   5.766   5.066 -0.1230  0.6682 -1.5873
  107MOL0     C14675   8.028   5.901   5.045 -0.4123 -0.6068  0.3714
  107MOL0     O14676   7.860   6.143   4.756  0.2721 -0.4033  0.5551
  107MOL0     C14677   7.917   6.411   4.726  0.6235 -0.1299  0.1274
  107MOL0     C14678   7.949   6.542   4.718 -0.4343 -0.5856  0.6761
  107MOL0     N14679   8.372   6.486   4.635  1.4602 -0.1507 -0.8660
  107MOL0     N14680   8.360   6.360   4.642  0.2799 -0.0887  0.5047
  107MOL0     C14681   8.694   5.422   4.815 -0.3370 -0.1177 -0.4811
  107MOL0     C14682   8.724   5.304   4.755  1.5919 -0.3699  0.4293
  107MOL0     C14683   8.967   4.895   4.685  0.6237 -0.5148 -0.3943
  107MOL0     C14684   9.058   4.804   4.745  0.1550 -0.6838  0.6014
  107MOL0     C14685   9.096   4.684   4.679 -0.0860  0.2920 -0.1875
  107MOL0     C14686   9.040   4.657   4.552  0.5147 -0.1340  0.0675
  107MOL0     O14687   9.094   4.545   4.497 -0.0213 -0.7393 -0.1120
  107MOL0     C14688   9.059   4.502   4.364  0.6944  0.7176  0.5629
  107MOL0     C14689   9.049   4.353   4.362  0.1752  0.3849  0.1363
  107MOL0     C14690   9.041   4.286   4.226 -0.3146  0.2997  0.2788
  107MOL0     C14691   9.034   4.135   4.241  0.1956  0.5974  0.8016
  107MOL0     C14692   9.015   4.076   4.105  0.3336  0.1330  0.7246
  107MOL0     C14693   9.032   4.039   3.995 -0.0514  0.0028  0.5000
  107MOL0     C14694   8.951   4.753   4.497 -0.2834  0.7228 -0.3587
  107MOL0     C14695   8.906   4.873   4.557 -0.8030  0.2241 -0.2450
  107MOL0     C14696   8.783   4.942   4.507 -0.2937  0.1823 -0.5382
  107MOL0     H14697   9.046   5.260   4.864 -0.3796 -1.3157 -2.6709
  107MOL0     H14698   8.989   5.465   4.981  0.5414 -4.1547  1.4262
  107MOL0     H14699   8.919   5.715   4.989 -0.1044  0.4586 -0.8019
  107MOL0     H14700   8.854   5.608   5.120 -0.9615 -0.3946 -0.2818
  107MOL0     H14701   8.679   5.760   5.166  1.9112 -1.4118  1.4434
  107MOL0     H14702   8.829   5.853   5.151 -1.4925  2.9147  0.4261
  107MOL0     H14703   8.761   5.897   4.900 -0.6432 -2.7491 -1.0785
  107MOL0     H14704   8.598   5.866   4.954 -0.2160  0.4129 -0.7035
  107MOL0     H14705   8.627   6.071   5.112 -0.9778  0.8727 -1.7932
  107MOL0     H14706   8.800   6.060   5.082  2.0496 -0.6388 -2.1209
  107MOL0     H14707   8.790   6.131   4.867  0.7028 -2.7456  2.2503
  107MOL0     H14708   8.707   6.237   4.975 -2.6033  0.2583 -0.9266
  107MOL0     H14709   8.590   6.249   4.796  2.4862 -0.9064 -1.1994
  107MOL0     H14710   8.555   6.075   4.766  0.7531  0.3107 -0.0421
  107MOL0     H14711   8.461   6.234   5.003  0.1170 -1.3334  0.5015
  107MOL0     H14712   8.407   6.066   4.967  0.7169 -0.5958 -1.1887
  107MOL0     H14713   8.324   6.126   4.746 -0.2465 -0.6947  0.8836
  107MOL0     H14714   8.243   6.182   4.898  0.0504 -2.1585  0.0323
  107MOL0     H14715   8.328   6.469   4.955  2.6893 -2.1553  0.4828
  107MOL0     H14716   8.453   6.723   4.842  0.7746  0.4121  0.0561
  107MOL0     H14717   8.284   6.718   4.867  0.8100 -1.9052  0.9489
  107MOL0     H14718   8.342   6.889   4.711 -1.2979  0.2267  0.8979
  107MOL0     H14719   8.399   6.762   4.599  0.0278 -0.6522  0.3709
  107MOL0     H14720   8.176   6.820   4.530 -2.7537  1.2320  0.2078
  107MOL0     H14721   8.161   6.663   4.586 -2.1081  1.1389  0.2021
  107MOL0     H14722   8.061   6.926   4.710 -2.0215  0.4198  2.9540
  107MOL0     H14723   7.975   6.821   4.616  1.7294  1.0375 -1.9067
  107MOL0     H14724   8.034   6.613   5.036 -1.4704  0.1737  0.9453
  107MOL0     H14725   8.067   6.313   5.125 -1.6910 -0.7672  1.2923
  107MOL0     H14726   7.887   6.314   5.120 -0.1448 -0.3289 -1.2987
  107MOL0     H14727   7.978   6.458   5.179  2.6052  0.3858  0.3462
  107MOL0     H14728   7.728   5.989   4.891  0.9065  0.0620 -0.5307
  107MOL0     H14729   7.688   5.757   4.937  0.9452  1.3317 -0.7614
  107MOL0     H14730   7.644   5.614   5.134  2.2482  1.9249 -0.2160
  107MOL0     H14731   7.689   5.551   4.970 -0.6706  1.7681 -0.2901
  107MOL0     H14732   7.762   5.343   5.062  2.7864  0.9439  3.0288
  107MOL0     H14733   7.729   5.394   5.228  1.0195  2.1340 -0.6284
  107MOL0     H14734   7.525   5.309   5.007 -1.8038  2.5539 -1.1086
  107MOL0     H14735   7.485   5.429   5.138  1.2715  1.0944 -0.2875
  107MOL0     H14736   7.568   5.135   5.153  0.2726 -0.3907 -0.7661
  107MOL0     H14737   7.404   5.226   5.165 -0.1388  0.5515 -0.6849
  107MOL0     H14738   7.623   5.247   5.365  0.0400 -3.8885  0.6992
  107MOL0     H14739   7.467   5.330   5.376  1.2619  1.2393 -0.8358
  107MOL0     H14740   7.506   5.029   5.356 -1.0990 -1.1138  1.1118
  107MOL0     H14741   7.363   5.123   5.409 -0.0446  1.3030  3.2847
  107MOL0     H14742   7.498   5.176   5.632  0.1170 -0.0758 -0.3586
  107MOL0     H14743   7.627   5.081   5.567 -1.0400 -2.0399 -0.0607
  107MOL0     H14744   7.502   4.884   5.555  1.7638 -1.1421  2.0313
  107MOL0     H14745   7.351   4.975   5.609 -1.1015 -1.0227  1.5107
  107MOL0     H14746   8.070   5.698   5.110 -2.0603  0.0736  0.8822
  107MOL0     H14747   8.129   5.929   5.073  1.2285 -1.5825 -3.9360
  107MOL0     H14748   7.895   6.359   4.633 -0.8129 -0.6931  0.7455
  107MOL0     H14749   7.936   6.596   4.625 -1.8079  0.3117  1.3578
  107MOL0     H14750   8.608   5.477   4.778  1.2751  0.5164 -3.7294
  107MOL0     H14751   8.644   5.264   4.693  2.5625 -1.6168 -0.0611
  107MOL0     H14752   9.110   4.832   4.837  0.3643 -0.0535  0.2961
  107MOL0     H14753   9.164   4.620   4.733  0.4312  3.8176  3.8883
  107MOL0     H14754   8.959   4.537   4.338  1.5130 -0.0949 -4.8923
  107MOL0     H14755   9.146   4.523   4.300  3.6653 -2.2292  3.2409
  107MOL0     H14756   8.953   4.334   4.410  1.5409 -1.0852  2.4889
  107MOL0     H14757   9.127   4.306   4.424 -0.4686  0.7211  1.2218
  107MOL0     H14758   8.950   4.330   4.183 -0.1310  2.2112  1.7166
  107MOL0     H14759   9.124   4.306   4.158 -0.7317 -4.0882 -1.8862
  107MOL0     H14760   8.949   4.108   4.304  0.7612  0.9416  1.7283
  107MOL0     H14761   9.128   4.095   4.280 -0.0949  0.4151  1.3175
  107MOL0     H14762   9.049   3.996   3.899  0.8359 -0.7338  0.9768
  107MOL0     H14763   8.921   4.718   4.398  1.2328 -0.1421 -0.5350
  107MOL0     H14764   8.731   4.867   4.445 -0.4850 -0.8467  0.8262
  107MOL0     H14765   8.716   4.959   4.592 -0.8825 -2.1593 -0.4592
  107MOL0     H14766   8.798   5.031   4.445 -0.4793  1.0411  0.6248
  108MOL0     O14767   7.146   7.371   7.568 -0.7121 -0.2628  0.9566
  108MOL0     C14768   7.247   7.397   7.633 -0.2500 -0.7508 -0.4441
  108MOL0     O14769   7.287   7.339   7.755 -0.1077  0.1035 -0.2341
  108MOL0     C14770   7.203   7.241   7.815 -0.7087  0.3307  0.6530
  108MOL0     C14771   7.249   7.111   7.831 -0.1587 -0.3168 -0.3048
  108MOL0     C14772   7.180   7.018   7.916 -0.1183 -0.8687 -0.2985
  108MOL0     C14773   7.061   7.067   7.986  0.0226  0.3678 -0.4807
  108MOL0     O14774   6.972   6.989   8.060  0.4409  0.1283  0.3406
  108MOL0     C14775   6.987   6.849   8.075  0.3552 -0.5078 -1.0042
  108MOL0     C14776   7.112   6.795   8.162  0.2887  0.7795 -0.4995
  108MOL0     C14777   7.129   6.869   8.303 -0.2400  0.5168 -0.3001
  108MOL0     C14778   7.267   6.851   8.363  0.7225  0.4840 -0.2929
  108MOL0     C14779   7.323   6.708   8.356 -0.6073  0.7883  0.5016
  108MOL0     C14780   7.469   6.697   8.403  0.2073 -0.6697 -0.0783
  108MOL0     C14781   7.513   6.550   8.429  1.4221 -0.0038 -0.1914
  108MOL0     C14782   7.653   6.530   8.453 -0.2077 -0.1677 -0.1393
  108MOL0     N14783   7.718   6.397   8.444  0.4524  0.3910 -1.2793
  108MOL0     C14784   7.694   6.294   8.532 -0.4326 -0.4924  2.2536
  108MOL0     C14785   7.773   6.200   8.478  0.6011  0.8005  0.4792
  108MOL0     C14786   7.794   6.064   8.538 -0.5755 -0.1115  0.4422
  108MOL0     C14787   7.665   5.979   8.537  0.2808  0.4393 -0.1957
  108MOL0     C14788   7.622   5.908   8.407 -0.5079 -0.7310  0.1370
  108MOL0     C14789   7.496   5.823   8.432  0.1748  0.9533 -0.6094
  108MOL0     O14790   7.390   5.903   8.484  0.3852 -0.4810  0.5792
  108MOL0     C14791   7.348   6.005   8.408 -0.9880 -0.3694  0.2966
  108MOL0     C14792   7.305   6.120   8.473 -0.4440 -0.0948  0.3807
  108MOL0     C14793   7.253   6.235   8.406  0.8817  0.0110  0.2271
  108MOL0     C14794   7.209   6.346   8.496 -0.4651 -0.2242  0.0040
  108MOL0     C14795   7.253   6.232   8.263 -0.2962  0.1212  0.3527
  108MOL0     C14796   7.172   6.317   8.170  0.1170 -0.3168 -0.2239
  108MOL0     O14797   7.191   6.310   8.036 -0.3628 -0.1199  0.4355
  108MOL0     C14798   7.141   6.415   7.966  0.3446 -0.0202 -0.7883
  108MOL0     C14799   7.241   6.475   7.885  0.8867 -0.2337 -0.5221
  108MOL0     C14800   7.208   6.574   7.790 -0.1025 -1.1883  0.1422
  108MOL0     C14801   7.075   6.609   7.776  0.0295  0.6812  0.7947
  108MOL0     O14802   7.024   6.681   7.672 -0.3498 -0.7087 -0.1123
  108MOL0     C14803   7.103   6.729   7.571  0.4140 -0.6585 -0.2696
  108MOL0     C14804   7.187   6.860   7.586  0.2401  1.0127 -0.7349
  108MOL0     C14805   7.266   6.876   7.459  0.1699 -0.7275 -0.9825
  108MOL0     C14806   7.354   7.003   7.456 -0.5893  0.1151  0.9944
  108MOL0     C14807   7.421   7.017   7.313  0.0048  0.4078  0.4026
  108MOL0     C14808   7.535   7.118   7.325  0.7389  0.3767 -0.2257
  108MOL0     C14809   7.494   7.271   7.337  0.0270  0.0019  0.8452
  108MOL0     C14810   7.612   7.369   7.321  0.1540  0.1021  1.0308
  108MOL0    Cl14811   7.639   7.373   7.144  0.2866 -0.2137  0.4691
  108MOL0     C14812   6.976   6.548   7.853 -1.0201  0.2337 -0.9743
  108MOL0     C14813   7.010   6.451   7.953  1.1871  0.4539  0.8236
  108MOL0     O14814   7.090   6.390   8.229  0.4474 -0.2289  0.2713
  108MOL0     C14815   7.310   6.126   8.202 -0.1364 -0.5405  0.0149
  108MOL0     C14816   7.360   6.014   8.269  0.1146 -0.0184  0.6682
  108MOL0     N14817   7.848   6.240   8.375 -0.6620  0.4886 -0.2211
  108MOL0     N14818   7.808   6.365   8.351  0.3300  0.1653  0.4979
  108MOL0     C14819   7.009   7.192   7.955  0.1846  0.3211 -0.0792
  108MOL0     C14820   7.081   7.282   7.868  1.0693 -0.1346 -1.1943
  108MOL0     C14821   7.326   7.514   7.589  0.0453 -0.4784 -0.3383
  108MOL0     C14822   7.403   7.572   7.682 -0.0811 -0.8259  0.2087
  108MOL0     C14823   7.483   7.687   7.663 -0.2480 -0.3312  1.2898
  108MOL0     C14824   7.475   7.746   7.548 -0.0543  0.2785  0.7020
  108MOL0     O14825   7.573   7.839   7.525 -0.1350  0.4099 -0.1223
  108MOL0     C14826   7.553   7.959   7.437  1.5004  0.4810  0.5482
  108MOL0     C14827   7.531   8.072   7.543  0.2534 -0.8811  0.3557
  108MOL0     C14828   7.442   8.187   7.504 -0.2130 -0.2533 -0.7893
  108MOL0     C14829   7.422   8.298   7.613  0.1424  0.2813 -0.4139
  108MOL0     C14830   7.540   8.387   7.637  0.0475  0.4337  0.2135
  108MOL0     C14831   7.625   8.459   7.667 -0.5064  0.6808  0.2056
  108MOL0     C14832   7.402   7.692   7.448 -0.3625 -0.4638  0.0999
  108MOL0     C14833   7.322   7.575   7.461 -1.1127  0.5567 -0.4123
  108MOL0     C14834   7.248   7.520   7.339 -0.5243 -0.4655  0.6091
  108MOL0     H14835   7.345   7.078   7.794  1.1216  3.4013 -0.7236
  108MOL0     H14836   7.226   6.927   7.950  1.3079  0.5856  1.9109
  108MOL0     H14837   6.986   6.808   7.973  2.5299 -3.7708  0.1607
  108MOL0     H14838   6.894   6.822   8.127  0.6069  2.5774  1.3228
  108MOL0     H14839   7.108   6.688   8.182 -3.2232  0.3046 -2.9177
  108MOL0     H14840   7.199   6.806   8.097  1.1065 -1.3923  0.1494
  108MOL0     H14841   7.104   6.975   8.296  4.2922  1.9349  1.3907
  108MOL0     H14842   7.056   6.817   8.366  2.3610 -4.8194 -1.0767
  108MOL0     H14843   7.336   6.920   8.313 -0.7753  1.7433 -0.6987
  108MOL0     H14844   7.261   6.884   8.467  3.1968  0.5540 -0.1087
  108MOL0     H14845   7.338   6.670   8.254  1.2998 -0.5191  1.2190
  108MOL0     H14846   7.259   6.643   8.417  1.0090 -0.2130  1.1784
  108MOL0     H14847   7.532   6.745   8.328 -2.8602  4.1127 -0.0090
  108MOL0     H14848   7.470   6.748   8.500 -5.5479 -0.7894  0.3515
  108MOL0     H14849   7.480   6.489   8.345 -1.7093  2.2628 -0.8030
  108MOL0     H14850   7.467   6.517   8.523 -0.5060  0.8563 -0.7691
  108MOL0     H14851   7.698   6.588   8.372 -1.7922 -0.8623 -1.5773
  108MOL0     H14852   7.670   6.566   8.555 -1.0197  0.2759 -0.1532
  108MOL0     H14853   7.618   6.275   8.607  0.7612  0.2639  3.7074
  108MOL0     H14854   7.828   6.083   8.640  0.7486  1.3434 -0.2281
  108MOL0     H14855   7.876   6.012   8.487  3.2113  4.2242  1.4558
  108MOL0     H14856   7.690   5.907   8.615  0.8891  0.4558 -0.3636
  108MOL0     H14857   7.579   6.042   8.562 -0.6297 -1.4762  1.7814
  108MOL0     H14858   7.613   5.976   8.323 -1.0303  0.8089  1.3959
  108MOL0     H14859   7.703   5.842   8.375  1.5080  1.7217 -0.1342
  108MOL0     H14860   7.462   5.770   8.342 -2.5022  2.3516 -0.5185
  108MOL0     H14861   7.527   5.743   8.502 -1.7896 -0.0763 -0.8446
  108MOL0     H14862   7.321   6.124   8.580  3.5973  4.8683 -0.0144
  108MOL0     H14863   7.254   6.443   8.472  1.6231 -1.0066  0.5561
  108MOL0     H14864   7.244   6.320   8.596  0.6985 -4.4879 -1.3156
  108MOL0     H14865   7.099   6.345   8.497 -0.5134 -2.0390  2.8151
  108MOL0     H14866   7.342   6.436   7.889  2.4481  3.4641  1.4797
  108MOL0     H14867   7.288   6.622   7.735  2.0385 -0.2523  3.7358
  108MOL0     H14868   7.167   6.647   7.537 -0.7871 -1.3540 -0.9431
  108MOL0     H14869   7.043   6.761   7.485 -2.3914  1.6785  2.3253
  108MOL0     H14870   7.126   6.945   7.617  0.3383  1.4404 -1.7013
  108MOL0     H14871   7.260   6.847   7.667 -0.3745  3.2277  0.2568
  108MOL0     H14872   7.204   6.869   7.369 -3.3740 -2.2938  1.3607
  108MOL0     H14873   7.331   6.788   7.454  1.5229  0.2830 -1.6824
  108MOL0     H14874   7.441   6.996   7.522 -0.3061  0.3344  0.6526
  108MOL0     H14875   7.300   7.096   7.479 -0.8413 -0.0359  1.0150
  108MOL0     H14876   7.458   6.918   7.286 -2.8840 -0.6226 -0.1212
  108MOL0     H14877   7.340   7.057   7.252 -0.5692 -0.9458  0.2663
  108MOL0     H14878   7.603   7.119   7.239  2.4360  2.2073  1.0649
  108MOL0     H14879   7.594   7.098   7.415  2.2247  0.7384 -1.0895
  108MOL0     H14880   7.458   7.278   7.440  2.7987 -0.6870  1.9415
  108MOL0     H14881   7.425   7.300   7.257  2.1608 -0.2413 -1.1834
  108MOL0     H14882   7.696   7.331   7.380  0.4850  1.8494  1.7342
  108MOL0     H14883   7.600   7.470   7.361 -0.7773  0.2666  0.3618
  108MOL0     H14884   6.873   6.579   7.840 -0.9781  0.3195 -1.1054
  108MOL0     H14885   6.938   6.402   8.019 -2.1192  0.0353 -2.7370
  108MOL0     H14886   7.315   6.125   8.093 -3.5576 -1.1595 -0.2628
  108MOL0     H14887   7.388   5.925   8.214  1.0395 -1.0743  2.6982
  108MOL0     H14888   6.918   7.220   8.008 -1.7592 -2.3707 -1.7295
  108MOL0     H14889   7.053   7.386   7.854  2.5178  0.3649 -0.5740
  108MOL0     H14890   7.408   7.546   7.787  1.5794  5.3315  2.0999
  108MOL0     H14891   7.555   7.726   7.735  1.9434  1.8415 -1.8293
  108MOL0     H14892   7.629   7.973   7.359  1.1315  0.5098  0.1911
  108MOL0     H14893   7.458   7.946   7.384  2.2780 -0.6384 -0.6477
  108MOL0     H14894   7.629   8.105   7.581 -0.0774  0.4330  0.1159
  108MOL0     H14895   7.484   8.031   7.633 -0.5714 -0.7658 -0.0160
  108MOL0     H14896   7.474   8.234   7.411  1.8804 -1.4653 -0.7432
  108MOL0     H14897   7.345   8.142   7.481 -2.0544  2.2204  1.4925
  108MOL0     H14898   7.410   8.243   7.706  3.1749 -0.2426 -0.2203
  108MOL0     H14899   7.334   8.359   7.591  1.4732  2.5733  0.2928
  108MOL0     H14900   7.698   8.534   7.690  0.2532  0.3288 -0.9671
  108MOL0     H14901   7.409   7.731   7.347 -0.8679 -2.9782 -0.9850
  108MOL0     H14902   7.309   7.544   7.251 -2.2408  0.8317 -0.3086
  108MOL0     H14903   7.241   7.411   7.346 -1.9382 -0.5167 -0.8925
  108MOL0     H14904   7.142   7.546   7.327 -0.6943 -1.3596  0.0416
  109MOL0     O14905   7.082   1.088   4.618  0.5154  0.5834 -0.1342
  109MOL0     C14906   7.138   0.982   4.610 -0.4743  1.4371  0.0296
  109MOL0     O14907   7.177   0.901   4.715 -0.2005  0.8396 -0.5052
  109MOL0     C14908   7.143   0.933   4.845  0.3800  0.3113  0.0325
  109MOL0     C14909   7.005   0.940   4.879 -1.2664 -0.6048 -1.4498
  109MOL0     C14910   6.962   0.979   5.003 -0.9371  0.5931 -0.4469
  109MOL0     C14911   7.050   0.987   5.114  0.1481 -1.4613  0.7946
  109MOL0     O14912   7.024   1.023   5.239 -0.3184 -0.2855  0.5723
  109MOL0     C14913   6.895   0.982   5.277 -1.4254  0.7249 -0.1052
  109MOL0     C14914   6.880   0.990   5.430 -0.3281  0.1257  0.2468
  109MOL0     C14915   6.867   1.129   5.485  0.3370  0.0450 -0.2814
  109MOL0     C14916   6.997   1.183   5.527  0.9374 -0.5348 -0.5565
  109MOL0     C14917   6.987   1.335   5.538 -0.6982  0.2552 -0.5664
  109MOL0     C14918   7.097   1.396   5.628 -0.0066  0.4009 -1.1316
  109MOL0     C14919   7.238   1.380   5.560  0.7229 -0.1610 -0.7163
  109MOL0     C14920   7.350   1.455   5.642  0.3494 -0.7544  0.2024
  109MOL0     N14921   7.366   1.393   5.776  0.1706  0.0884  0.3508
  109MOL0     C14922   7.385   1.263   5.796 -0.1573  0.5541 -0.2718
  109MOL0     C14923   7.370   1.241   5.931 -1.4093  0.0504  0.7214
  109MOL0     C14924   7.367   1.110   6.019  0.5785  0.4865  0.1704
  109MOL0     C14925   7.349   0.980   5.933 -0.1056 -0.0071  0.4036
  109MOL0     C14926   7.208   0.974   5.857 -0.9237  0.4869  0.1378
  109MOL0     C14927   7.085   0.983   5.952 -0.8126  0.7146 -0.6958
  109MOL0     O14928   6.978   0.928   5.888 -0.2652  0.3554 -0.9385
  109MOL0     C14929   6.930   0.807   5.924 -0.0620 -0.2297 -0.0216
  109MOL0     C14930   6.990   0.709   6.011 -0.1019 -0.4109 -0.3142
  109MOL0     C14931   6.957   0.571   6.010 -1.0750  0.5109 -1.0315
  109MOL0     C14932   7.030   0.478   6.109 -0.7193  0.1909  0.1229
  109MOL0     C14933   6.849   0.525   5.924 -0.0924 -0.8710  0.2205
  109MOL0     C14934   6.786   0.404   5.939  0.2195  1.4253 -0.3003
  109MOL0     O14935   6.766   0.346   6.069 -0.0291 -0.3956  0.2920
  109MOL0     C14936   6.770   0.211   6.084  0.5411  0.3916  0.0252
  109MOL0     C14937   6.656   0.141   6.118  0.1902 -0.2855 -0.1230
  109MOL0     C14938   6.666   0.001   6.151  0.0060  0.2865 -0.0825
  109MOL0     C14939   6.786  -0.071   6.151 -0.0478 -0.2769 -0.7333
  109MOL0     O14940   6.784  -0.204   6.192 -0.3768  0.1353 -1.0137
  109MOL0     C14941   6.903  -0.257   6.238 -0.1722 -0.1930  0.7157
  109MOL0     C14942   6.865  -0.339   6.356  0.6370  0.0527 -0.1702
  109MOL0     C14943   6.982  -0.390   6.421 -0.1845  0.7293  0.0922
  109MOL0     C14944   7.079  -0.297   6.485  0.3993  1.2487 -0.8818
  109MOL0     C14945   7.134  -0.362   6.610 -0.3045 -1.1289 -0.7978
  109MOL0     C14946   7.232  -0.268   6.671 -0.6813 -0.1012  0.3285
  109MOL0     C14947   7.286  -0.330   6.804  0.2473  0.4276 -0.2099
  109MOL0     C14948   7.418  -0.270   6.844  0.5366 -0.4543  0.6863
  109MOL0    Cl14949   7.415  -0.087   6.855  0.6885  0.1601 -0.8164
  109MOL0     C14950   6.894   0.002   6.114 -0.1608 -0.2409  0.2492
  109MOL0     C14951   6.885   0.142   6.081 -0.0311  1.1732  0.3833
  109MOL0     O14952   6.740   0.356   5.836  0.0841  0.2317  0.1374
  109MOL0     C14953   6.794   0.618   5.836  0.4603  0.0519  0.3240
  109MOL0     C14954   6.830   0.756   5.837  0.5934  1.2618  0.3794
  109MOL0     N14955   7.349   1.361   5.993  0.0498  0.5955  0.0202
  109MOL0     N14956   7.321   1.450   5.896 -0.3549 -0.0303 -0.2444
  109MOL0     C14957   7.183   0.976   5.074  1.5005 -0.0471 -0.1722
  109MOL0     C14958   7.237   0.960   4.938 -0.8422 -0.0380 -0.8391
  109MOL0     C14959   7.169   0.907   4.485 -0.4372 -1.9726  0.6677
  109MOL0     C14960   7.207   0.772   4.484 -0.3725  0.3004 -0.7429
  109MOL0     C14961   7.218   0.699   4.363 -0.7718 -0.7166  0.0682
  109MOL0     C14962   7.187   0.754   4.242 -0.1162  0.5426  0.9635
  109MOL0     O14963   7.186   0.673   4.128 -0.1924 -0.5348 -0.1274
  109MOL0     C14964   7.165   0.741   3.997 -0.4166  0.2526 -0.7692
  109MOL0     C14965   7.021   0.731   3.968  0.0842 -0.2310 -0.5127
  109MOL0     C14966   6.982   0.796   3.841 -0.3242  0.5163  0.0661
  109MOL0     C14967   7.032   0.719   3.717  0.1728 -0.5859 -0.1684
  109MOL0     C14968   7.007   0.795   3.594  1.2461  0.1871 -0.8263
  109MOL0     C14969   6.986   0.856   3.494 -0.4296  0.2570  0.4326
  109MOL0     C14970   7.160   0.895   4.244 -0.7684 -0.5207  0.2177
  109MOL0     C14971   7.158   0.974   4.358 -0.0188  0.6113  0.2583
  109MOL0     C14972   7.131   1.117   4.327  0.1410  0.9081  1.0902
  109MOL0     H14973   6.949   0.914   4.789 -1.2576  4.4193 -3.2750
  109MOL0     H14974   6.855   0.969   5.020 -1.1307 -2.5569 -2.6182
  109MOL0     H14975   6.850   0.890   5.239 -0.0089  0.2968 -0.8195
  109MOL0     H14976   6.834   1.061   5.232 -1.9315  0.6909  0.5126
  109MOL0     H14977   6.785   0.942   5.454 -0.5492 -0.7690 -2.1644
  109MOL0     H14978   6.967   0.936   5.467 -1.6754 -0.9913  1.9250
  109MOL0     H14979   6.819   1.192   5.410  3.1527  0.8172 -1.5608
  109MOL0     H14980   6.812   1.137   5.579 -0.7768  1.1564 -0.9988
  109MOL0     H14981   7.016   1.137   5.625  4.9064  1.1979 -0.3397
  109MOL0     H14982   7.077   1.155   5.458 -1.1619 -1.4866 -2.7496
  109MOL0     H14983   6.897   1.377   5.583  0.9994  1.9724  1.4230
  109MOL0     H14984   7.005   1.381   5.440  2.7239  0.2250 -0.0640
  109MOL0     H14985   7.072   1.502   5.636  0.3982  0.6090 -2.4001
  109MOL0     H14986   7.099   1.352   5.728 -0.3574  1.5806 -0.5910
  109MOL0     H14987   7.242   1.413   5.456 -0.9293 -0.6946 -0.9883
  109MOL0     H14988   7.259   1.273   5.545  0.3551 -0.3536  0.0603
  109MOL0     H14989   7.439   1.461   5.579 -0.3878  2.1196 -0.7204
  109MOL0     H14990   7.315   1.558   5.656 -0.7285 -0.9729 -0.6901
  109MOL0     H14991   7.406   1.188   5.721  0.3072  1.0798 -0.6682
  109MOL0     H14992   7.278   1.113   6.081  0.2800  1.1264 -0.2730
  109MOL0     H14993   7.456   1.114   6.082  3.2519 -2.5101 -2.9777
  109MOL0     H14994   7.435   0.979   5.864 -0.9665  0.8145 -0.7136
  109MOL0     H14995   7.366   0.894   5.997  1.1153  0.8334  1.2559
  109MOL0     H14996   7.192   1.058   5.789  0.3587  0.5050 -0.1529
  109MOL0     H14997   7.196   0.881   5.800 -1.8808  0.5821  0.1573
  109MOL0     H14998   7.120   0.918   6.032 -1.2527 -2.6873 -3.0394
  109MOL0     H14999   7.056   1.085   5.980 -1.6458  0.0614  0.9468
  109MOL0     H15000   7.070   0.734   6.080  0.3396 -1.9893 -0.2163
  109MOL0     H15001   7.080   0.396   6.058 -0.1197  0.2065  0.6697
  109MOL0     H15002   6.959   0.451   6.188 -1.1303  0.9965  0.0445
  109MOL0     H15003   7.108   0.543   6.150 -2.7269  1.0804  2.8582
  109MOL0     H15004   6.568   0.203   6.131  1.0790  1.1962 -0.8309
  109MOL0     H15005   6.576  -0.050   6.184  0.5933 -0.0722  1.0190
  109MOL0     H15006   6.950  -0.315   6.158  2.6556  2.5959  0.1351
  109MOL0     H15007   6.967  -0.176   6.273  1.5301 -1.5548  0.8747
  109MOL0     H15008   6.805  -0.279   6.425 -1.5099 -1.4740 -0.6011
  109MOL0     H15009   6.808  -0.428   6.327  0.0526  0.6970 -1.0537
  109MOL0     H15010   7.037  -0.452   6.350 -2.3264 -2.8260  1.3045
  109MOL0     H15011   6.936  -0.453   6.497 -2.6602  2.5350  0.2161
  109MOL0     H15012   7.040  -0.198   6.513  0.6245  0.9608  0.4880
  109MOL0     H15013   7.165  -0.285   6.418  0.7993  1.5807 -0.3218
  109MOL0     H15014   7.046  -0.381   6.672 -0.6347 -1.6048 -1.3964
  109MOL0     H15015   7.181  -0.455   6.577  0.6421 -0.3725 -1.6553
  109MOL0     H15016   7.178  -0.175   6.693 -0.3441  1.3245 -4.0145
  109MOL0     H15017   7.319  -0.246   6.608  1.2645 -2.0498  2.1372
  109MOL0     H15018   7.294  -0.439   6.805  0.6407  0.3865  2.9399
  109MOL0     H15019   7.213  -0.301   6.880  0.1424 -0.5451  0.0707
  109MOL0     H15020   7.494  -0.293   6.769 -1.5014 -0.6620 -1.4320
  109MOL0     H15021   7.450  -0.308   6.942  0.2091 -0.0891  0.9394
  109MOL0     H15022   6.987  -0.049   6.096 -0.6167 -0.3669 -2.0533
  109MOL0     H15023   6.986   0.179   6.063  0.6665  0.0459  1.7832
  109MOL0     H15024   6.706   0.588   5.781 -0.6364 -1.1209  2.5872
  109MOL0     H15025   6.778   0.828   5.775 -2.4498 -0.8726  0.2082
  109MOL0     H15026   7.256   0.986   5.153 -0.1677 -0.4442  1.4701
  109MOL0     H15027   7.342   0.955   4.910 -0.7060  2.3863 -1.0140
  109MOL0     H15028   7.203   0.719   4.579  2.7825  1.0650 -0.0915
  109MOL0     H15029   7.247   0.595   4.350  1.3980 -0.2223  0.4986
  109MOL0     H15030   7.207   0.842   4.007  0.3031 -0.1776  0.9473
  109MOL0     H15031   7.211   0.681   3.918 -1.7569 -0.8107 -0.7858
  109MOL0     H15032   6.966   0.777   4.050 -0.1869  3.0859 -2.3794
  109MOL0     H15033   6.991   0.627   3.952  0.0911  0.0392 -2.6407
  109MOL0     H15034   6.873   0.809   3.840 -0.5619 -1.2362 -0.9210
  109MOL0     H15035   7.023   0.897   3.844 -1.2659  0.8958  0.3776
  109MOL0     H15036   6.997   0.615   3.716 -0.1713 -0.4733  0.0628
  109MOL0     H15037   7.141   0.712   3.711  0.3107  1.3822 -0.7402
  109MOL0     H15038   6.978   0.929   3.415  0.7600  1.4964  1.4210
  109MOL0     H15039   7.160   0.956   4.154  2.0665 -0.4987  0.1271
  109MOL0     H15040   7.143   1.191   4.406 -1.3055  1.7994  0.5203
  109MOL0     H15041   7.217   1.140   4.263  0.7452  2.8712  2.5509
  109MOL0     H15042   7.042   1.145   4.270  0.5298 -0.6546 -0.3828
  110MOL0     O15043   1.623  11.196   5.941 -0.2873 -0.7969 -0.3544
  110MOL0     C15044   1.532  11.253   5.999 -0.3832  0.1420 -0.3128
  110MOL0     O15045   1.506  11.388   5.986 -0.0069 -0.1130 -0.4474
  110MOL0     C15046   1.577  11.461   5.895 -0.3342 -0.3781 -0.0882
  110MOL0     C15047   1.709  11.494   5.911  0.3137 -0.2301 -0.0438
  110MOL0     C15048   1.770  11.585   5.823  0.4873 -0.3062  0.0175
  110MOL0     C15049   1.693  11.641   5.711 -0.4617 -0.0681  0.7569
  110MOL0     O15050   1.749  11.727   5.615 -0.7005 -0.0239  0.1992
  110MOL0     C15051   1.889  11.737   5.579 -0.0721  0.2056  0.4671
  110MOL0     C15052   1.901  11.816   5.452  0.7841  0.2093  0.1571
  110MOL0     C15053   1.860  11.953   5.474  0.4512  0.5544  0.5625
  110MOL0     C15054   1.905  12.041   5.352 -0.3757 -0.8887 -0.4417
  110MOL0     C15055   1.829  12.181   5.357  0.1545 -0.0222 -0.5858
  110MOL0     C15056   1.686  12.179   5.300 -0.5688  0.1916 -0.2898
  110MOL0     C15057   1.639  12.328   5.293  0.1163  0.7346 -0.8721
  110MOL0     C15058   1.485  12.341   5.272  0.7527  0.1997  0.6120
  110MOL0     N15059   1.452  12.335   5.128  0.5564 -0.5582  0.0103
  110MOL0     C15060   1.455  12.445   5.047 -1.0151  0.2394  0.0120
  110MOL0     C15061   1.407  12.396   4.933  0.3992 -0.5467  0.2390
  110MOL0     C15062   1.409  12.481   4.809 -0.0705 -0.4044  0.7404
  110MOL0     C15063   1.260  12.491   4.747  0.9003  0.3121 -0.7151
  110MOL0     C15064   1.268  12.559   4.606  0.6815  0.3507  0.3721
  110MOL0     C15065   1.145  12.538   4.525 -0.3807 -0.1637  0.0100
  110MOL0     O15066   1.108  12.398   4.509 -0.2335 -0.3352 -0.1642
  110MOL0     C15067   1.108  12.332   4.386 -0.0482 -0.5988 -0.1319
  110MOL0     C15068   1.151  12.202   4.382  0.6567  0.0126  0.2100
  110MOL0     C15069   1.160  12.131   4.266 -0.4532  0.3641 -0.1818
  110MOL0     C15070   1.210  11.991   4.289 -0.5893 -0.4351  0.9751
  110MOL0     C15071   1.127  12.187   4.142  0.1096  0.4157  0.1056
  110MOL0     C15072   1.152  12.119   4.015  0.5816 -0.0419  0.7496
  110MOL0     O15073   1.093  11.996   3.981  0.0233  0.2708  0.7442
  110MOL0     C15074   1.089  11.948   3.852  0.5281 -0.2628  0.8318
  110MOL0     C15075   1.192  11.882   3.792 -0.0961  0.0546  0.4104
  110MOL0     C15076   1.198  11.871   3.652  0.0749  0.0968 -0.7942
  110MOL0     C15077   1.089  11.904   3.571  0.0435 -0.0888 -0.1883
  110MOL0     O15078   1.088  11.879   3.433 -0.2443  0.0358 -0.3764
  110MOL0     C15079   1.188  11.971   3.373 -0.3909 -0.4185 -0.8799
  110MOL0     C15080   1.175  11.987   3.227  0.5289 -0.1301  0.4289
  110MOL0     C15081   1.220  11.861   3.151 -0.7192 -0.1557 -0.9756
  110MOL0     C15082   1.212  11.886   2.999 -0.3188 -0.3717 -0.3976
  110MOL0     C15083   1.254  11.761   2.913 -0.4123  0.2336  0.9297
  110MOL0     C15084   1.189  11.776   2.776 -0.7031 -0.1759  0.2198
  110MOL0     C15085   1.232  11.683   2.664 -0.1565  0.5350  0.1699
  110MOL0     C15086   1.184  11.708   2.512  0.1622 -0.2590 -0.0128
  110MOL0    Cl15087   0.999  11.721   2.487  0.1392 -0.1270 -0.1396
  110MOL0     C15088   0.977  11.959   3.633  0.2477  0.1483  0.6059
  110MOL0     C15089   0.985  11.987   3.772  0.1987  0.3465 -0.0683
  110MOL0     O15090   1.218  12.187   3.937 -0.4128  0.3090 -0.9163
  110MOL0     C15091   1.073  12.317   4.149  0.4909  0.1355 -1.0376
  110MOL0     C15092   1.064  12.391   4.269 -0.5236  0.6908 -0.0378
  110MOL0     N15093   1.376  12.261   4.945  0.0992  0.4385  1.1349
  110MOL0     N15094   1.397  12.232   5.061  0.0808  0.8171 -0.3194
  110MOL0     C15095   1.560  11.616   5.703 -0.2026 -0.0318  0.1657
  110MOL0     C15096   1.501  11.522   5.795 -0.3551  0.2377  0.8207
  110MOL0     C15097   1.461  11.167   6.092  0.6959 -0.3409  0.7177
  110MOL0     C15098   1.394  11.224   6.196  0.3509  0.2088 -0.0575
  110MOL0     C15099   1.315  11.157   6.282  0.1177 -0.1032 -0.0793
  110MOL0     C15100   1.306  11.022   6.278  0.9431  0.0891  0.2309
  110MOL0     O15101   1.230  10.962   6.383 -0.3715 -1.1767  0.0357
  110MOL0     C15102   1.239  10.829   6.398 -0.0940  0.5232  0.3733
  110MOL0     C15103   1.155  10.782   6.524  0.4149 -0.2699  0.3820
  110MOL0     C15104   1.113  10.645   6.490  0.6450 -0.7492 -0.6250
  110MOL0     C15105   1.018  10.583   6.594  0.0450  0.1595 -1.1751
  110MOL0     C15106   0.926  10.476   6.562 -0.6803 -0.0692  0.8137
  110MOL0     C15107   0.851  10.383   6.544  0.2065  0.3190  0.4978
  110MOL0     C15108   1.379  10.957   6.185  0.3131  0.2074  0.2546
  110MOL0     C15109   1.454  11.024   6.088  0.5063 -0.2813  0.8377
  110MOL0     C15110   1.506  10.934   5.978  0.5082 -0.5825 -0.2312
  110MOL0     H15111   1.763  11.433   5.982 -2.6374 -1.3237  1.4337
  110MOL0     H15112   1.878  11.593   5.821  0.5796 -1.5598 -0.4804
  110MOL0     H15113   1.911  11.631   5.564 -0.2845  0.4542 -2.0552
  110MOL0     H15114   1.957  11.777   5.655  2.8070 -0.1578 -1.7465
  110MOL0     H15115   2.007  11.821   5.426  0.1957  2.1355 -2.1514
  110MOL0     H15116   1.864  11.758   5.368 -1.5168 -1.6579  2.2986
  110MOL0     H15117   1.751  11.954   5.480  0.1863  3.6925 -2.0142
  110MOL0     H15118   1.891  11.991   5.571 -3.8713 -0.9341  2.8040
  110MOL0     H15119   2.015  12.041   5.353 -0.3497 -0.0700  1.4234
  110MOL0     H15120   1.886  11.998   5.254  2.3957  0.3402 -1.6374
  110MOL0     H15121   1.883  12.262   5.306 -0.4605 -0.1870 -1.5214
  110MOL0     H15122   1.821  12.216   5.461 -0.5157  1.7317 -1.1962
  110MOL0     H15123   1.693  12.135   5.201  1.2950 -3.9901  1.4592
  110MOL0     H15124   1.618  12.111   5.351 -1.8474  1.6491  0.0233
  110MOL0     H15125   1.695  12.379   5.213  1.9172  0.3913  0.1210
  110MOL0     H15126   1.647  12.386   5.386 -3.7893 -0.6427  0.5033
  110MOL0     H15127   1.438  12.255   5.321  2.5202  0.2207  2.4565
  110MOL0     H15128   1.443  12.432   5.314 -3.2257 -0.6245 -1.1409
  110MOL0     H15129   1.496  12.539   5.083 -0.3878 -0.4788  1.2405
  110MOL0     H15130   1.480  12.440   4.737 -1.7920 -0.3985 -1.0317
  110MOL0     H15131   1.441  12.583   4.833  0.5696 -0.5174  0.3839
  110MOL0     H15132   1.204  12.397   4.748 -0.0950  0.8878 -0.3551
  110MOL0     H15133   1.200  12.554   4.814 -2.9057  2.0965 -5.2599
  110MOL0     H15134   1.288  12.667   4.607  0.5620  0.3721  1.1003
  110MOL0     H15135   1.344  12.501   4.553  0.7119  1.3466 -0.7288
  110MOL0     H15136   1.057  12.594   4.558 -0.5302  0.3097 -1.1359
  110MOL0     H15137   1.182  12.587   4.435  2.4757 -0.1185  1.1030
  110MOL0     H15138   1.161  12.153   4.478 -0.9083  2.6998  1.8626
  110MOL0     H15139   1.220  11.949   4.389 -2.1308 -2.6906  0.2608
  110MOL0     H15140   1.309  11.969   4.247 -0.8360  0.6981 -0.2636
  110MOL0     H15141   1.131  11.931   4.243  0.7443 -0.2167 -1.8194
  110MOL0     H15142   1.286  11.846   3.834  0.4983 -2.8395 -2.8695
  110MOL0     H15143   1.295  11.842   3.613  1.0634 -0.5170  1.8493
  110MOL0     H15144   1.180  12.071   3.416  4.1284 -0.2740  0.1352
  110MOL0     H15145   1.288  11.932   3.396  0.3685  0.8445 -1.9092
  110MOL0     H15146   1.073  12.018   3.202  0.5023  1.1042  1.9434
  110MOL0     H15147   1.233  12.069   3.184 -0.0448  0.2339  0.3415
  110MOL0     H15148   1.164  11.769   3.169  0.2214 -0.9778 -2.1251
  110MOL0     H15149   1.322  11.844   3.187 -0.7796  2.6811  0.8384
  110MOL0     H15150   1.281  11.968   2.977  1.8787 -1.4832  1.8108
  110MOL0     H15151   1.109  11.914   2.975 -1.4689  1.0413  4.7961
  110MOL0     H15152   1.359  11.764   2.883 -0.2791  3.6031  1.2929
  110MOL0     H15153   1.225  11.665   2.958 -1.7518  0.1979  0.0374
  110MOL0     H15154   1.224  11.875   2.745  1.3971 -0.7805  0.4653
  110MOL0     H15155   1.081  11.767   2.793 -0.4631 -0.6167  1.6670
  110MOL0     H15156   1.186  11.586   2.688 -1.7221  1.4896  1.2233
  110MOL0     H15157   1.340  11.664   2.664 -0.0503  0.9461  1.8221
  110MOL0     H15158   1.219  11.620   2.456 -0.6024  1.3574 -3.3171
  110MOL0     H15159   1.231  11.796   2.468  0.4438 -0.5994 -0.4026
  110MOL0     H15160   0.881  11.968   3.583 -1.4706 -1.2248  3.4416
  110MOL0     H15161   0.912  12.044   3.828 -0.9882  0.4558 -1.6508
  110MOL0     H15162   1.040  12.359   4.055 -0.5873 -1.0545 -1.2202
  110MOL0     H15163   1.030  12.494   4.270 -0.2373  0.8590  3.4589
  110MOL0     H15164   1.502  11.658   5.622 -0.0824  0.1794  0.1898
  110MOL0     H15165   1.397  11.497   5.776 -0.3506  0.5266  0.4065
  110MOL0     H15166   1.394  11.332   6.209 -1.7946  0.1021  1.3733
  110MOL0     H15167   1.250  11.213   6.348 -0.2134 -1.0160  0.3767
  110MOL0     H15168   1.211  10.774   6.308  1.0696  2.1788 -1.0567
  110MOL0     H15169   1.346  10.814   6.418 -0.0734  2.0028  1.5927
  110MOL0     H15170   1.066  10.843   6.543  0.8577  0.9899 -1.2696
  110MOL0     H15171   1.214  10.781   6.616  0.6280  1.2105  0.2927
  110MOL0     H15172   1.064  10.642   6.392 -0.1682 -2.0161 -0.1971
  110MOL0     H15173   1.202  10.587   6.463  0.8132 -0.7171 -0.1482
  110MOL0     H15174   0.957  10.657   6.646 -0.1885 -1.7074  1.3744
  110MOL0     H15175   1.081  10.547   6.675 -1.8949  2.7328  1.7253
  110MOL0     H15176   0.792  10.294   6.545  0.8301 -0.1215  2.4047
  110MOL0     H15177   1.373  10.849   6.176  2.8102 -0.0925  1.4546
  110MOL0     H15178   1.605  10.904   6.012  0.3936  0.5768  1.2519
  110MOL0     H15179   1.430  10.855   5.969 -0.2198  0.2243 -1.3060
  110MOL0     H15180   1.511  10.984   5.881 -2.7963  0.8145  0.1655
  111MOL0     O15181   9.449   7.025   9.948 -0.2909  0.6848 -0.0813
  111MOL0     C15182   9.453   6.981  10.062 -0.1866 -0.4256  0.2043
  111MOL0     O15183   9.480   6.852  10.099  0.1729 -0.0074 -0.5912
  111MOL0     C15184   9.521   6.758  10.008 -0.9373  0.0015 -1.2500
  111MOL0     C15185   9.528   6.629  10.057 -0.6294 -0.4433  0.2878
  111MOL0     C15186   9.601   6.530   9.997 -0.6394 -0.1757 -0.4021
  111MOL0     C15187   9.649   6.554   9.870 -0.8323  0.3882  0.1515
  111MOL0     O15188   9.722   6.451   9.808  0.5218 -0.0921 -0.1659
  111MOL0     C15189   9.746   6.455   9.669 -0.1520 -0.6464 -0.4376
  111MOL0     C15190   9.819   6.326   9.619  0.6045 -0.1033  0.3273
  111MOL0     C15191   9.824   6.296   9.471  0.4440 -0.7186  1.2069
  111MOL0     C15192   9.907   6.398   9.387 -0.4219 -0.6071 -0.1500
  111MOL0     C15193   9.908   6.337   9.246 -0.9462 -0.1400 -0.5476
  111MOL0     C15194   9.928   6.434   9.130 -0.4862  0.4391 -0.2454
  111MOL0     C15195   9.974   6.367   9.002  0.3348  0.2756  0.8440
  111MOL0     C15196   9.868   6.265   8.962  0.3474  0.1393 -0.7355
  111MOL0     N15197   9.895   6.207   8.821  0.0267 -0.3617 -0.7462
  111MOL0     C15198   9.863   6.087   8.782 -0.7474  0.1085 -0.2365
  111MOL0     C15199   9.920   6.072   8.654  1.0650  0.3635 -0.6151
  111MOL0     C15200   9.905   5.949   8.571  0.1135  0.2184 -0.2105
  111MOL0     C15201   9.765   5.948   8.513  0.1364 -0.0724  0.3857
  111MOL0     C15202   9.743   5.840   8.415  0.0643  0.2572  0.2998
  111MOL0     C15203   9.783   5.700   8.457  0.8233  0.8752 -0.1957
  111MOL0     O15204   9.776   5.601   8.350 -0.4280  0.4268 -0.1413
  111MOL0     C15205   9.652   5.568   8.289 -0.7957 -0.2343 -0.3307
  111MOL0     C15206   9.531   5.607   8.343  0.7756 -0.3273  0.8423
  111MOL0     C15207   9.409   5.579   8.284  0.1367  0.0831 -0.1517
  111MOL0     C15208   9.288   5.638   8.343  0.3284  0.2418 -0.4144
  111MOL0     C15209   9.404   5.505   8.165 -0.7321 -0.1535  0.6934
  111MOL0     C15210   9.280   5.474   8.090 -0.6411 -0.5380  0.3157
  111MOL0     O15211   9.291   5.418   7.962 -0.9310 -0.9382  0.3211
  111MOL0     C15212   9.173   5.366   7.910 -0.0360  0.6972  1.0789
  111MOL0     C15213   9.060   5.437   7.876 -0.1717  0.3285  0.0716
  111MOL0     C15214   8.937   5.387   7.814  0.6500  0.6090 -0.7159
  111MOL0     C15215   8.935   5.253   7.790 -0.1120 -0.2949  0.4173
  111MOL0     O15216   8.824   5.200   7.740 -0.2253  0.1262  0.0135
  111MOL0     C15217   8.805   5.054   7.719 -0.8792 -1.0258 -0.3705
  111MOL0     C15218   8.665   5.032   7.655 -0.3528 -0.3884  0.0309
  111MOL0     C15219   8.664   4.902   7.575 -0.4386 -0.2832 -0.1350
  111MOL0     C15220   8.553   4.870   7.472 -0.6842 -1.0072  0.4651
  111MOL0     C15221   8.535   4.732   7.433 -0.0943 -0.5105 -0.8176
  111MOL0     C15222   8.400   4.710   7.359 -0.1065  0.1683  0.3714
  111MOL0     C15223   8.389   4.576   7.285  0.0224 -0.4372 -0.8596
  111MOL0     C15224   8.336   4.475   7.386  0.6665 -0.9462 -0.2782
  111MOL0    Cl15225   8.172   4.523   7.446 -0.5976 -0.6718 -0.0537
  111MOL0     C15226   9.053   5.175   7.832  0.2578 -0.5223 -0.1581
  111MOL0     C15227   9.165   5.234   7.886 -0.0346  1.1555  0.2743
  111MOL0     O15228   9.172   5.483   8.150 -0.5907  0.0578  0.3447
  111MOL0     C15229   9.530   5.476   8.100  0.7454  0.1043  0.0053
  111MOL0     C15230   9.652   5.495   8.168  0.5536  0.4383  0.0845
  111MOL0     N15231   9.998   6.187   8.636  0.1236 -0.7848  0.6746
  111MOL0     N15232   9.984   6.266   8.733 -0.5534 -0.1828 -0.7630
  111MOL0     C15233   9.656   6.689   9.824  0.2664  0.1620  0.7193
  111MOL0     C15234   9.587   6.786   9.894  0.9407 -0.1299  1.5903
  111MOL0     C15235   9.442   7.079  10.167 -0.9797  0.4505  0.1854
  111MOL0     C15236   9.396   7.207  10.144  1.2564  0.1135 -0.1743
  111MOL0     C15237   9.349   7.297  10.241 -1.1528 -0.7614  0.1154
  111MOL0     C15238   9.362   7.274  10.375 -0.0871  0.9946 -0.0063
  111MOL0     O15239   9.342   7.371  10.471 -0.9711  0.4046  0.2086
  111MOL0     C15240   9.227   7.349  10.553 -1.0986  0.3495 -0.6706
  111MOL0     C15241   9.120   7.457  10.517 -0.2549 -0.2695  0.8166
  111MOL0     C15242   9.181   7.602  10.501 -0.4037  0.7136 -0.7446
  111MOL0     C15243   9.249   7.667  10.632 -1.0933 -0.0699  0.4428
  111MOL0     C15244   9.265   7.808  10.601 -0.0781  0.1271 -0.2851
  111MOL0     C15245   9.283   7.922  10.578  0.8379 -0.7255 -0.5943
  111MOL0     C15246   9.421   7.155  10.407 -0.4336 -0.3988  0.3150
  111MOL0     C15247   9.457   7.053  10.307 -0.4646  0.1985 -0.2386
  111MOL0     C15248   9.505   6.908  10.361  0.2302  0.1304 -0.2514
  111MOL0     H15249   9.492   6.613  10.158 -2.4167  1.4206  0.0205
  111MOL0     H15250   9.618   6.434  10.044  1.8733  0.6521  0.5212
  111MOL0     H15251   9.811   6.540   9.646 -0.1534 -0.2362  1.0351
  111MOL0     H15252   9.644   6.470   9.632 -0.2195  1.5054  0.4891
  111MOL0     H15253   9.919   6.327   9.664  1.6145 -0.9588 -1.7621
  111MOL0     H15254   9.765   6.235   9.645 -0.9329 -0.0142 -2.2546
  111MOL0     H15255   9.854   6.194   9.445  0.2994  0.3879 -4.7403
  111MOL0     H15256   9.723   6.314   9.433  1.0044  1.7877  0.7009
  111MOL0     H15257   9.861   6.497   9.388  1.7319  0.4666  1.8596
  111MOL0     H15258  10.011   6.399   9.421  0.3286 -0.8630 -2.2953
  111MOL0     H15259   9.815   6.282   9.230 -0.8071 -1.0293  1.4667
  111MOL0     H15260   9.991   6.267   9.259  0.2418  1.3232  0.1611
  111MOL0     H15261   9.835   6.490   9.117 -0.4601  0.4594 -0.3515
  111MOL0     H15262   9.998   6.517   9.146 -2.8825  2.6653 -0.6622
  111MOL0     H15263  10.068   6.312   9.017  0.3967 -0.4210 -1.6560
  111MOL0     H15264   9.990   6.441   8.924 -1.4331  2.4929  2.4583
  111MOL0     H15265   9.864   6.189   9.041 -1.5706  3.0755  2.2302
  111MOL0     H15266   9.767   6.306   8.971  0.0027 -0.8320  0.0841
  111MOL0     H15267   9.801   6.012   8.829 -0.7979  1.9585  2.9830
  111MOL0     H15268   9.929   5.860   8.631 -1.0780  0.0317  0.0125
  111MOL0     H15269   9.975   5.952   8.487  1.2275  2.1800  0.7291
  111MOL0     H15270   9.700   5.948   8.601  1.8626  0.2091  1.7220
  111MOL0     H15271   9.740   6.034   8.450 -2.0052 -2.1928 -1.8500
  111MOL0     H15272   9.636   5.836   8.392  0.4114 -1.0819 -1.2488
  111MOL0     H15273   9.801   5.865   8.325  0.4675  1.0114  0.7594
  111MOL0     H15274   9.889   5.689   8.480  1.2324 -0.7707 -2.5803
  111MOL0     H15275   9.731   5.657   8.543 -0.0247  1.0342 -0.6120
  111MOL0     H15276   9.516   5.673   8.428 -1.2723 -0.9817  1.0609
  111MOL0     H15277   9.303   5.714   8.420  0.3294 -2.3109  2.3190
  111MOL0     H15278   9.228   5.556   8.384  2.2679 -0.3711  1.3694
  111MOL0     H15279   9.221   5.694   8.278  1.1620  1.2177 -0.4557
  111MOL0     H15280   9.074   5.542   7.900  1.2474 -0.0376  0.9881
  111MOL0     H15281   8.856   5.452   7.783 -0.3183 -0.6862 -0.9794
  111MOL0     H15282   8.896   5.029   7.665  1.0068 -1.4505  2.7701
  111MOL0     H15283   8.805   4.990   7.807 -0.2377 -3.4389 -2.0181
  111MOL0     H15284   8.585   5.038   7.728 -0.8096  1.7729 -0.5757
  111MOL0     H15285   8.644   5.120   7.593 -1.0445 -0.9408 -0.5489
  111MOL0     H15286   8.674   4.823   7.650  1.3758  0.5112  0.5117
  111MOL0     H15287   8.753   4.901   7.510  0.1352  3.4067  0.4021
  111MOL0     H15288   8.568   4.935   7.385 -1.5932  0.3524  1.2772
  111MOL0     H15289   8.460   4.909   7.515 -1.1269  0.8989 -1.9798
  111MOL0     H15290   8.622   4.693   7.378  0.8307  1.3000 -0.7230
  111MOL0     H15291   8.522   4.687   7.532 -0.0119  2.2364  0.5386
  111MOL0     H15292   8.404   4.791   7.286  3.1497 -0.3655 -0.1608
  111MOL0     H15293   8.312   4.727   7.422 -1.4940 -4.7003  0.1680
  111MOL0     H15294   8.485   4.547   7.242  0.8360  0.7184  0.0961
  111MOL0     H15295   8.319   4.585   7.202  1.4216 -0.2895 -2.0564
  111MOL0     H15296   8.402   4.476   7.473  2.7420 -0.2963 -1.7622
  111MOL0     H15297   8.327   4.371   7.353  2.3472 -0.6453 -1.8317
  111MOL0     H15298   9.076   5.072   7.810  4.4260  0.4758 -1.5661
  111MOL0     H15299   9.242   5.171   7.929 -2.6022 -0.8321  2.2867
  111MOL0     H15300   9.533   5.434   8.001  0.2650 -2.3217  0.9604
  111MOL0     H15301   9.747   5.457   8.132  0.8351  1.9049 -0.8269
  111MOL0     H15302   9.712   6.707   9.733 -3.4455  1.7271 -1.4959
  111MOL0     H15303   9.591   6.880   9.840 -0.8461 -1.5182 -1.2116
  111MOL0     H15304   9.390   7.233  10.039 -1.4362 -3.8443 -1.2476
  111MOL0     H15305   9.299   7.390  10.213 -3.3789 -0.1959  4.9563
  111MOL0     H15306   9.187   7.248  10.539 -2.0992  0.7500 -0.7858
  111MOL0     H15307   9.247   7.361  10.660 -0.4315 -0.9657 -0.6338
  111MOL0     H15308   9.054   7.465  10.603  0.6812 -0.0522  1.5323
  111MOL0     H15309   9.066   7.434  10.425  1.7187 -1.0699 -0.2105
  111MOL0     H15310   9.255   7.606  10.420 -0.7078 -1.4476 -1.1904
  111MOL0     H15311   9.098   7.663  10.465  1.0142  2.6893 -0.8627
  111MOL0     H15312   9.351   7.629  10.635 -0.8560  0.4450 -0.6000
  111MOL0     H15313   9.191   7.653  10.724 -2.2637  0.8278 -0.1194
  111MOL0     H15314   9.271   8.025  10.553 -1.0474 -0.4336  1.1929
  111MOL0     H15315   9.438   7.126  10.510  0.9064  0.0769  0.2399
  111MOL0     H15316   9.426   6.833  10.360 -0.7947  1.1728  0.0123
  111MOL0     H15317   9.601   6.871  10.322  1.1794  0.3036  1.8099
  111MOL0     H15318   9.538   6.913  10.465  3.3470 -1.2633 -1.0283
  112MOL0     O15319   0.464  10.027   8.837 -0.6635 -0.7462 -0.3240
  112MOL0     C15320   0.566  10.006   8.772  0.3479  0.2284  0.2796
  112MOL0     O15321   0.690  10.062   8.797  0.1994 -0.8423 -0.2907
  112MOL0     C15322   0.711  10.146   8.903  0.0736  0.4983 -0.3942
  112MOL0     C15323   0.791  10.257   8.886 -0.4029  0.7527 -0.6891
  112MOL0     C15324   0.813  10.347   8.996 -0.5041  0.1332  0.4621
  112MOL0     C15325   0.763  10.314   9.125  0.6438  0.3775 -0.5621
  112MOL0     O15326   0.792  10.395   9.227 -0.1136 -0.3571  0.6430
  112MOL0     C15327   0.676  10.448   9.293  0.1489  0.1565  0.2722
  112MOL0     C15328   0.715  10.531   9.426 -0.3738 -0.4812 -0.4788
  112MOL0     C15329   0.794  10.663   9.392  0.0675 -0.3679  0.1075
  112MOL0     C15330   0.889  10.710   9.503  0.2172  0.4168  0.2722
  112MOL0     C15331   0.821  10.779   9.623  0.4292 -0.0478  0.9471
  112MOL0     C15332   0.930  10.821   9.712  0.0258  0.2357  0.1626
  112MOL0     C15333   0.882  10.893   9.846 -0.2957  0.1544 -0.0285
  112MOL0     C15334   1.002  10.898   9.952 -0.8258 -0.4793 -0.2001
  112MOL0     N15335   0.969  10.963  10.076  0.1604  0.2269 -0.3003
  112MOL0     C15336   0.976  10.898  10.192 -0.5409  0.1229 -0.2930
  112MOL0     C15337   0.934  10.982  10.285 -0.5872  1.2449 -0.6905
  112MOL0     C15338   0.905  10.944  10.425  0.7212 -1.3246  0.4362
  112MOL0     C15339   1.012  10.975  10.537 -0.0866  0.9464  0.3190
  112MOL0     C15340   1.089  10.848  10.577 -1.0964  0.4881 -0.0398
  112MOL0     C15341   1.211  10.898  10.656  0.4627 -0.3266  0.0229
  112MOL0     O15342   1.180  10.952  10.788  0.0597 -0.2616  0.0912
  112MOL0     C15343   1.257  10.906  10.884 -0.3635  0.1776  0.5264
  112MOL0     C15344   1.400  10.920  10.879  0.4570  0.8188 -0.9578
  112MOL0     C15345   1.483  10.855  10.970  0.1700 -0.3536 -0.4953
  112MOL0     C15346   1.632  10.879  10.966  0.4112 -0.9411 -0.2817
  112MOL0     C15347   1.425  10.786  11.074 -0.2235 -0.4099  0.9915
  112MOL0     C15348   1.509  10.710  11.171  0.4951 -0.6364 -0.4633
  112MOL0     O15349   1.434  10.684  11.278 -0.2925  0.0550 -0.8639
  112MOL0     C15350   1.473  10.610  11.386  0.8156 -0.3744  0.4171
  112MOL0     C15351   1.377  10.523  11.438  0.5785  0.2594 -0.1998
  112MOL0     C15352   1.410  10.440  11.550  0.1327 -1.0050  0.2459
  112MOL0     C15353   1.541  10.442  11.607  0.1428 -0.1420  1.3498
  112MOL0     O15354   1.581  10.362  11.705 -0.7983  0.4861 -0.4365
  112MOL0     C15355   1.497  10.365  11.825 -0.4105  1.1768  0.4340
  112MOL0     C15356   1.500  10.486  11.920 -1.6994  0.5275  1.3170
  112MOL0     C15357   1.414  10.607  11.877 -0.6566 -0.0176  0.0110
  112MOL0     C15358   1.266  10.577  11.839  1.2488  0.5999 -0.9370
  112MOL0     C15359   1.176  10.504  11.941 -1.2911  1.6565 -0.8888
  112MOL0     C15360   1.118  10.596  12.052 -0.8629 -0.6616 -0.0781
  112MOL0     C15361   1.007  10.698  12.012 -0.0600  0.1405  0.0458
  112MOL0     C15362   0.888  10.625  11.946  0.7583 -0.2557  0.4613
  112MOL0    Cl15363   0.743  10.729  11.945  0.4195 -0.0755 -0.1432
  112MOL0     C15364   1.631  10.526  11.549  1.1957 -0.1821  0.8147
  112MOL0     C15365   1.597  10.605  11.442  0.0454 -0.2427  0.6949
  112MOL0     O15366   1.611  10.652  11.140 -0.0625 -0.1528 -1.1710
  112MOL0     C15367   1.278  10.787  11.091  0.0661  1.0088  0.8575
  112MOL0     C15368   1.194  10.844  10.993 -0.4094  0.2000  0.3369
  112MOL0     N15369   0.907  11.094  10.219  0.2495  0.2485 -0.1670
  112MOL0     N15370   0.929  11.085  10.096 -0.1221 -0.2471  0.2099
  112MOL0     C15371   0.709  10.187   9.147  0.2134 -0.5891 -1.3517
  112MOL0     C15372   0.675  10.110   9.033 -0.2143 -0.3888  0.1643
  112MOL0     C15373   0.549   9.935   8.635 -0.2367 -0.4047 -0.2452
  112MOL0     C15374   0.489   9.813   8.638 -0.0643 -0.1012 -0.8130
  112MOL0     C15375   0.479   9.740   8.515 -0.1705 -0.4021  0.0336
  112MOL0     C15376   0.516   9.799   8.393  0.0202 -0.8547  0.1556
  112MOL0     O15377   0.524   9.725   8.281 -0.4447  0.6205  0.6407
  112MOL0     C15378   0.407   9.668   8.221  0.2271  0.2316  0.2121
  112MOL0     C15379   0.322   9.767   8.140  0.6033 -0.6035  0.2057
  112MOL0     C15380   0.168   9.762   8.153 -0.2342  0.5912  0.7813
  112MOL0     C15381   0.084   9.878   8.092 -0.1298 -0.1677  0.1149
  112MOL0     C15382   0.099   9.902   7.951 -0.2696 -0.2956 -0.1616
  112MOL0     C15383   0.115   9.933   7.834  0.2662 -0.8781 -0.1927
  112MOL0     C15384   0.583   9.926   8.394 -0.1713  0.0315 -0.9817
  112MOL0     C15385   0.599   9.993   8.518  0.7968 -0.3923  0.5815
  112MOL0     C15386   0.677  10.119   8.515 -0.0009  0.5499  0.4167
  112MOL0     H15387   0.840  10.281   8.792 -3.0555  1.1969 -2.0758
  112MOL0     H15388   0.859  10.444   8.980  1.6768 -1.0775 -1.1389
  112MOL0     H15389   0.603  10.378   9.337 -1.9244  1.4853 -0.8915
  112MOL0     H15390   0.609  10.502   9.226 -2.4982 -1.5164  1.3690
  112MOL0     H15391   0.632  10.571   9.485  2.6289  2.4227  2.2245
  112MOL0     H15392   0.764  10.460   9.493 -0.3894  1.6196  1.8836
  112MOL0     H15393   0.864  10.637   9.312  0.0477 -1.2458  0.3700
  112MOL0     H15394   0.728  10.748   9.369 -2.1065 -2.1280 -0.5921
  112MOL0     H15395   0.966  10.634   9.517 -1.2517 -1.7710 -2.7025
  112MOL0     H15396   0.946  10.788   9.452  0.4187 -0.7959 -1.3951
  112MOL0     H15397   0.753  10.713   9.678  1.0737 -1.0541  0.5582
  112MOL0     H15398   0.772  10.868   9.580  1.4834  2.0832  3.8121
  112MOL0     H15399   0.985  10.727   9.727  3.5906  1.7213 -2.2569
  112MOL0     H15400   0.988  10.896   9.658 -2.0205  0.8490 -1.3242
  112MOL0     H15401   0.795  10.843   9.890  0.3696 -0.2658  0.8227
  112MOL0     H15402   0.849  10.991   9.810 -0.0051 -0.0458 -0.8751
  112MOL0     H15403   1.030  10.794   9.972 -2.6703 -1.4208 -2.1099
  112MOL0     H15404   1.088  10.955   9.913 -1.0790  0.3180  0.3863
  112MOL0     H15405   0.992  10.793  10.211 -0.0074  0.4971  1.5765
  112MOL0     H15406   0.878  10.838  10.432  2.2529 -1.6948  1.3166
  112MOL0     H15407   0.820  11.007  10.451 -0.7862 -1.2739 -3.8527
  112MOL0     H15408   1.082  11.052  10.505 -0.8480  2.8846  2.9585
  112MOL0     H15409   0.943  11.018  10.611  0.6842  1.8725  0.5052
  112MOL0     H15410   1.024  10.784  10.636 -2.6119  4.3584  2.9220
  112MOL0     H15411   1.121  10.800  10.484  1.6859  0.2601  0.9230
  112MOL0     H15412   1.284  10.818  10.667 -0.5557 -1.7788 -2.8680
  112MOL0     H15413   1.263  10.975  10.598  1.2292 -1.2208 -0.4991
  112MOL0     H15414   1.430  10.971  10.788 -0.0560  2.1418 -0.4024
  112MOL0     H15415   1.688  10.809  10.904 -0.1949 -0.0175 -1.9460
  112MOL0     H15416   1.687  10.909  11.056 -0.7671  3.0507 -0.7005
  112MOL0     H15417   1.642  10.973  10.910 -0.4917 -1.9021 -2.1384
  112MOL0     H15418   1.279  10.518  11.393  0.8744  1.3811 -1.0178
  112MOL0     H15419   1.341  10.369  11.595 -2.1699 -1.3616 -3.4007
  112MOL0     H15420   1.393  10.333  11.811  0.7194 -2.5500 -0.7034
  112MOL0     H15421   1.530  10.279  11.883 -0.0236 -0.4910 -2.0813
  112MOL0     H15422   1.452  10.450  12.011 -2.0707 -1.7595  0.2757
  112MOL0     H15423   1.603  10.516  11.944 -1.8105 -0.4707  3.2915
  112MOL0     H15424   1.470  10.659  11.799  2.5418 -0.7656  1.6391
  112MOL0     H15425   1.400  10.674  11.962 -4.9203  0.2073 -0.6517
  112MOL0     H15426   1.264  10.514  11.749 -0.4831  0.4278 -0.8103
  112MOL0     H15427   1.218  10.671  11.809 -0.1772 -0.6562 -2.8918
  112MOL0     H15428   1.099  10.459  11.879 -1.8407  0.7841  0.3713
  112MOL0     H15429   1.239  10.425  11.985 -0.7306  0.2527 -3.9655
  112MOL0     H15430   1.211  10.640  12.091  0.3168 -2.2012 -1.0380
  112MOL0     H15431   1.094  10.530  12.136  0.8426 -1.5109 -0.2015
  112MOL0     H15432   1.035  10.778  11.943  0.5528  0.5575  0.7512
  112MOL0     H15433   0.972  10.754  12.100  4.3019  0.6014  1.7664
  112MOL0     H15434   0.873  10.527  11.992 -1.0203 -2.3222 -3.9447
  112MOL0     H15435   0.909  10.594  11.843 -0.5461 -0.6627  0.2965
  112MOL0     H15436   1.736  10.529  11.579  1.6619  1.9021 -0.7943
  112MOL0     H15437   1.675  10.656  11.387 -0.0547 -0.7838  0.0379
  112MOL0     H15438   1.236  10.729  11.173 -2.7828  3.2875  1.1783
  112MOL0     H15439   1.089  10.817  10.999 -1.0860  2.0124 -1.9504
  112MOL0     H15440   0.684  10.164   9.250  0.9548 -1.2770 -1.3101
  112MOL0     H15441   0.610  10.027   9.060 -0.3843 -0.3996 -0.2606
  112MOL0     H15442   0.457   9.762   8.729  0.1367 -1.2714 -1.3886
  112MOL0     H15443   0.436   9.640   8.516 -3.4550  0.8693 -0.1569
  112MOL0     H15444   0.454   9.599   8.151  4.5220 -0.7780  3.6273
  112MOL0     H15445   0.339   9.616   8.290 -2.5869  1.1541 -1.6755
  112MOL0     H15446   0.358   9.758   8.037 -0.8288 -5.4860 -0.1143
  112MOL0     H15447   0.349   9.865   8.182 -3.3241  1.4398 -1.5188
  112MOL0     H15448   0.135   9.661   8.129  3.0712 -0.5254  0.3683
  112MOL0     H15449   0.143   9.766   8.259 -3.0010  4.0799  0.1662
  112MOL0     H15450   0.112   9.970   8.144  1.8545 -1.2975  1.1608
  112MOL0     H15451  -0.020   9.863   8.120  0.2282 -0.0217  1.5942
  112MOL0     H15452   0.110   9.946   7.728 -4.6162  1.3350  0.0412
  112MOL0     H15453   0.621   9.971   8.303 -3.5448  0.4099 -2.3720
  112MOL0     H15454   0.612  10.200   8.552  0.2680  0.4426  1.1397
  112MOL0     H15455   0.761  10.105   8.584  2.2222 -1.9843 -2.5357
  112MOL0     H15456   0.728  10.144   8.421 -1.8333 -0.9389 -1.0709
  113MOL0     O15457   2.685  11.320  11.514  0.1326 -0.1965 -0.3748
  113MOL0     C15458   2.600  11.286  11.432  0.6460 -0.1129 -0.1371
  113MOL0     O15459   2.617  11.298  11.297  0.1387  0.7132  0.6592
  113MOL0     C15460   2.720  11.377  11.257 -0.1649 -0.7436  0.9754
  113MOL0     C15461   2.830  11.309  11.199  0.1926 -1.6087  0.4029
  113MOL0     C15462   2.928  11.388  11.132  0.5410 -0.2735 -1.1834
  113MOL0     C15463   2.920  11.526  11.125  0.2641 -0.0693  0.8662
  113MOL0     O15464   3.022  11.588  11.057 -0.6721 -0.7053 -0.0832
  113MOL0     C15465   3.090  11.695  11.130 -0.8597 -1.2360 -1.0507
  113MOL0     C15466   3.048  11.834  11.092 -0.4739 -0.4173 -0.3183
  113MOL0     C15467   3.145  11.938  11.162  0.1845  0.5178  0.1229
  113MOL0     C15468   3.100  12.081  11.149  0.2316 -0.6043  0.2745
  113MOL0     C15469   3.176  12.180  11.244  0.3900  1.1093 -0.5527
  113MOL0     C15470   3.141  12.332  11.223 -0.9133 -0.1627  0.0429
  113MOL0     C15471   3.213  12.388  11.096  0.6234  0.3437 -0.0409
  113MOL0     C15472   3.258  12.529  11.109 -0.3812  0.2900 -0.6893
  113MOL0     N15473   3.150  12.614  11.145 -0.6046 -0.4947 -0.4109
  113MOL0     C15474   3.037  12.626  11.068  0.1857  0.3851 -0.3259
  113MOL0     C15475   2.941  12.681  11.145  0.6479  0.2813  0.2415
  113MOL0     C15476   2.795  12.688  11.113 -0.6302 -0.0220 -0.1745
  113MOL0     C15477   2.730  12.556  11.152  0.0981 -0.0270  0.3055
  113MOL0     C15478   2.753  12.514  11.299  0.0593 -0.4006 -0.0016
  113MOL0     C15479   2.675  12.394  11.344  0.8554  0.5335  0.3236
  113MOL0     O15480   2.713  12.290  11.247  0.6252  0.3908  0.3867
  113MOL0     C15481   2.654  12.172  11.250 -0.5931 -0.3202  1.1966
  113MOL0     C15482   2.579  12.128  11.357  0.1201  0.4604  0.2545
  113MOL0     C15483   2.520  11.996  11.361  1.0289 -0.4487 -0.0367
  113MOL0     C15484   2.452  11.947  11.488  0.4840 -0.6791  0.2595
  113MOL0     C15485   2.518  11.928  11.235 -0.2291 -0.5195  0.1783
  113MOL0     C15486   2.445  11.802  11.208  0.4855  0.5088  0.6419
  113MOL0     O15487   2.456  11.734  11.089 -0.4014 -0.5412  0.7151
  113MOL0     C15488   2.372  11.634  11.062 -0.5664 -0.1062 -0.0922
  113MOL0     C15489   2.235  11.628  11.086 -0.6012 -0.7712 -0.0958
  113MOL0     C15490   2.166  11.523  11.041  0.3364  0.8937  0.0949
  113MOL0     C15491   2.217  11.425  10.958 -0.3083 -0.4460  0.6690
  113MOL0     O15492   2.130  11.324  10.905 -0.0573  0.3363 -0.2353
  113MOL0     C15493   2.062  11.240  10.996 -0.2902 -0.0817 -0.1573
  113MOL0     C15494   1.909  11.263  10.995  0.3631 -0.6065  0.7740
  113MOL0     C15495   1.814  11.177  11.079 -1.1661 -0.1391  1.0992
  113MOL0     C15496   1.807  11.195  11.229 -0.9543  0.2093  0.9635
  113MOL0     C15497   1.744  11.062  11.284  0.0123  0.3167  0.6109
  113MOL0     C15498   1.734  11.071  11.439  0.1720  0.1707 -0.4334
  113MOL0     C15499   1.694  10.948  11.513  0.1341  1.1599 -0.3513
  113MOL0     C15500   1.686  10.966  11.666 -0.3272  0.2067 -0.0621
  113MOL0    Cl15501   1.698  10.812  11.767 -0.0987  0.6003  0.0262
  113MOL0     C15502   2.348  11.434  10.923  0.3402 -0.2644  0.7016
  113MOL0     C15503   2.418  11.549  10.964 -0.5759  0.6081  0.2196
  113MOL0     O15504   2.373  11.763  11.296 -0.1934  0.7189 -0.8682
  113MOL0     C15505   2.602  11.972  11.130  0.0407  1.1500 -0.7595
  113MOL0     C15506   2.677  12.087  11.137  0.3212 -0.1820 -0.4522
  113MOL0     N15507   3.007  12.717  11.262  0.2834 -0.8359 -0.2522
  113MOL0     N15508   3.122  12.679  11.264  0.2186 -0.5791 -0.1031
  113MOL0     C15509   2.800  11.584  11.165 -1.5413 -1.5713  0.0638
  113MOL0     C15510   2.710  11.517  11.241  0.4131 -0.2353 -0.3520
  113MOL0     C15511   2.472  11.222  11.479 -0.0662  0.6693  0.3937
  113MOL0     C15512   2.449  11.204  11.608  0.4119  0.6144 -1.1106
  113MOL0     C15513   2.337  11.148  11.657  0.4814 -1.2498 -0.0432
  113MOL0     C15514   2.236  11.107  11.570 -0.4946  0.2689 -0.0582
  113MOL0     O15515   2.115  11.084  11.619  0.3010 -0.0424 -0.0529
  113MOL0     C15516   2.079  10.942  11.654 -0.0011 -1.1953  0.8393
  113MOL0     C15517   2.074  10.862  11.523  0.0617 -0.4684  0.0923
  113MOL0     C15518   2.002  10.729  11.531 -0.4020  0.0262 -0.6915
  113MOL0     C15519   2.090  10.621  11.580 -0.0519 -0.0052  0.6676
  113MOL0     C15520   2.038  10.481  11.571 -0.0754  0.6921  0.2556
  113MOL0     C15521   1.972  10.375  11.548 -0.6239 -0.7763 -0.8401
  113MOL0     C15522   2.255  11.111  11.436  0.0196 -0.6878  0.7355
  113MOL0     C15523   2.373  11.166  11.384  0.5267  0.0996  0.0364
  113MOL0     C15524   2.382  11.172  11.230 -0.5245 -0.4241  0.4151
  113MOL0     H15525   2.836  11.201  11.198 -1.8387 -1.8851 -3.5606
  113MOL0     H15526   3.010  11.334  11.086  1.0171  0.9287 -1.7846
  113MOL0     H15527   3.197  11.692  11.104  0.3236  2.9033  2.2425
  113MOL0     H15528   3.081  11.679  11.238  2.0593 -1.9593 -0.8068
  113MOL0     H15529   3.054  11.846  10.983 -0.2230 -0.4954 -0.3118
  113MOL0     H15530   2.941  11.834  11.116  0.1540  0.9158  3.0961
  113MOL0     H15531   3.131  11.913  11.268 -3.5507 -1.5066 -0.6678
  113MOL0     H15532   3.250  11.920  11.136  0.5244  1.1087  1.0086
  113MOL0     H15533   3.106  12.110  11.043 -1.0436  3.0987  1.0339
  113MOL0     H15534   2.996  12.066  11.181 -0.5954 -4.1890 -3.3750
  113MOL0     H15535   3.283  12.179  11.224 -0.2168  0.2132 -4.8166
  113MOL0     H15536   3.156  12.145  11.346 -0.1490 -1.6530 -1.5207
  113MOL0     H15537   3.034  12.354  11.214 -0.4340  2.9802  0.9072
  113MOL0     H15538   3.168  12.395  11.308 -1.7828  1.8378 -1.1104
  113MOL0     H15539   3.134  12.398  11.021  0.5961  2.3727  0.2058
  113MOL0     H15540   3.298  12.327  11.063 -0.0738  0.3681 -2.0658
  113MOL0     H15541   3.335  12.536  11.186 -0.6812 -2.3055 -0.0644
  113MOL0     H15542   3.299  12.566  11.014  4.0039 -1.4163  0.3291
  113MOL0     H15543   3.001  12.581  10.976 -2.5348 -1.4204  1.4804
  113MOL0     H15544   2.773  12.697  11.006 -1.8913  1.7533  0.1822
  113MOL0     H15545   2.754  12.777  11.162  0.9367  0.7698 -0.2381
  113MOL0     H15546   2.623  12.575  11.160  0.4905  2.6763 -0.1625
  113MOL0     H15547   2.760  12.479  11.080 -0.3804 -0.0704  0.1490
  113MOL0     H15548   2.858  12.499  11.326  0.0884  0.5779  0.4511
  113MOL0     H15549   2.718  12.593  11.366  2.4569  0.6773  0.0737
  113MOL0     H15550   2.709  12.355  11.440  0.1199  1.2820  0.9085
  113MOL0     H15551   2.566  12.403  11.344  0.3573 -3.6061 -1.4158
  113MOL0     H15552   2.572  12.189  11.446 -0.1212 -1.3754  1.5536
  113MOL0     H15553   2.473  11.841  11.502 -0.4519 -1.0108 -0.6341
  113MOL0     H15554   2.342  11.944  11.493  0.4186  1.7410  1.8023
  113MOL0     H15555   2.483  12.002  11.577 -0.5814  1.1029 -0.4083
  113MOL0     H15556   2.177  11.691  11.152 -0.1274  1.2883 -1.5477
  113MOL0     H15557   2.068  11.510  11.085  1.1506  2.8838  2.7593
  113MOL0     H15558   2.081  11.140  10.958 -0.7738  0.4483 -1.8867
  113MOL0     H15559   2.105  11.243  11.096 -0.2347 -2.0586 -0.0951
  113MOL0     H15560   1.875  11.367  11.008  1.2186 -0.2611  0.3214
  113MOL0     H15561   1.871  11.253  10.893  0.7284 -2.8078  0.8206
  113MOL0     H15562   1.868  11.083  11.064  0.4236  0.6981  1.3079
  113MOL0     H15563   1.711  11.173  11.042 -1.3575  0.9973  1.4701
  113MOL0     H15564   1.746  11.283  11.246 -1.6390 -0.0840  0.0703
  113MOL0     H15565   1.909  11.200  11.270 -0.3388 -3.4584  0.2886
  113MOL0     H15566   1.641  11.044  11.252  0.6273 -1.0835 -0.7055
  113MOL0     H15567   1.802  10.974  11.254  1.2091  0.0471  3.4431
  113MOL0     H15568   1.666  11.154  11.464 -0.0484 -0.2221  0.3161
  113MOL0     H15569   1.828  11.113  11.476  0.1427  1.1729 -1.4312
  113MOL0     H15570   1.767  10.872  11.483 -0.8139  0.4235 -0.8667
  113MOL0     H15571   1.607  10.902  11.464 -1.9172  0.9011  3.1545
  113MOL0     H15572   1.589  11.014  11.682  0.4588  2.7950 -2.3049
  113MOL0     H15573   1.768  11.034  11.691 -1.2225  0.9348  1.0046
  113MOL0     H15574   2.400  11.361  10.863 -1.2857  1.2896 -2.9065
  113MOL0     H15575   2.524  11.552  10.942 -0.1507 -4.1120  0.4406
  113MOL0     H15576   2.618  11.920  11.036  3.5645 -0.8246  0.7423
  113MOL0     H15577   2.745  12.133  11.066  1.7116 -1.2019  0.1946
  113MOL0     H15578   2.785  11.689  11.142  2.0146 -0.0899  3.4765
  113MOL0     H15579   2.619  11.559  11.282  1.8416  1.7929  0.9427
  113MOL0     H15580   2.525  11.231  11.681  1.6315 -6.7762  1.2384
  113MOL0     H15581   2.319  11.137  11.763 -3.1238 -5.1878 -0.7767
  113MOL0     H15582   2.156  10.887  11.709  1.1964  0.6253  1.0612
  113MOL0     H15583   1.981  10.931  11.702 -0.9839 -0.4011 -0.8743
  113MOL0     H15584   2.181  10.854  11.502  0.1241 -0.7860  0.5276
  113MOL0     H15585   2.016  10.923  11.453 -0.2500 -0.3372  0.4608
  113MOL0     H15586   1.934  10.739  11.617  0.8806  1.1092  0.2374
  113MOL0     H15587   1.942  10.707  11.442 -0.2618 -2.2476 -0.2890
  113MOL0     H15588   2.131  10.654  11.675 -1.4944  0.4816  1.1491
  113MOL0     H15589   2.186  10.618  11.528  1.8759  2.3289  3.8018
  113MOL0     H15590   1.911  10.287  11.549 -1.4475 -0.3050  2.6344
  113MOL0     H15591   2.180  11.062  11.375  0.7006  1.2382 -1.8135
  113MOL0     H15592   2.283  11.157  11.187 -0.3752 -1.0958  0.3069
  113MOL0     H15593   2.397  11.277  11.201  0.7310 -0.4548  0.9063
  113MOL0     H15594   2.458  11.110  11.182  0.0715  2.4887 -2.7670
  114MOL0     O15595   2.329  10.677  11.257  0.2427  0.0735 -0.7747
  114MOL0     C15596   2.371  10.758  11.179  0.1481  0.3671  0.5904
  114MOL0     O15597   2.487  10.821  11.187 -0.6994 -0.1887  0.6726
  114MOL0     C15598   2.572  10.797  11.298  0.3863  0.4161 -0.5554
  114MOL0     C15599   2.659  10.694  11.295  0.1813  0.4870 -0.8409
  114MOL0     C15600   2.743  10.671  11.406 -0.9670  0.3569  0.3089
  114MOL0     C15601   2.754  10.765  11.510 -0.4313 -0.9642 -0.5474
  114MOL0     O15602   2.834  10.749  11.620  0.1399 -0.4258 -0.1097
  114MOL0     C15603   2.972  10.697  11.594 -0.3209  0.7599 -0.3792
  114MOL0     C15604   2.988  10.540  11.631  0.5691  0.0958  1.0915
  114MOL0     C15605   2.993  10.503  11.772 -0.6213  0.3790 -0.9195
  114MOL0     C15606   3.042  10.359  11.800  0.4140 -0.2289 -0.0129
  114MOL0     C15607   3.110  10.355  11.934  0.2470  0.5014  0.2859
  114MOL0     C15608   3.181  10.210  11.946 -0.7567 -0.4263 -0.3465
  114MOL0     C15609   3.321  10.190  11.878  0.5383  0.2666  0.3537
  114MOL0     C15610   3.424  10.287  11.941  0.5110  0.0959 -1.0829
  114MOL0     N15611   3.540  10.292  11.854 -0.1980 -0.5714 -1.1332
  114MOL0     C15612   3.617  10.183  11.836  0.3792  1.2393  0.4155
  114MOL0     C15613   3.694  10.222  11.730  0.3140  0.3207 -0.6188
  114MOL0     C15614   3.814  10.158  11.657  1.2791  0.6266 -0.1671
  114MOL0     C15615   3.785  10.120  11.509  0.3426 -0.5958  0.0715
  114MOL0     C15616   3.777  10.231  11.411 -0.0956 -1.0375  1.4742
  114MOL0     C15617   3.634  10.273  11.368 -0.7141 -0.2675  0.1435
  114MOL0     O15618   3.620  10.377  11.266 -0.0889 -0.1867  0.4235
  114MOL0     C15619   3.498  10.441  11.257  0.5898  1.3363 -1.3114
  114MOL0     C15620   3.502  10.545  11.161  0.7466  0.9687  0.5976
  114MOL0     C15621   3.385  10.621  11.130  0.4157  0.3591 -0.2571
  114MOL0     C15622   3.415  10.748  11.044  0.7909  0.7423  0.1065
  114MOL0     C15623   3.263  10.586  11.192  0.0146  0.4498  0.5984
  114MOL0     C15624   3.140  10.671  11.175  0.2892  0.7806  1.1213
  114MOL0     O15625   3.135  10.724  11.048 -0.2254 -0.3896 -0.2854
  114MOL0     C15626   3.036  10.808  10.996 -0.6026  0.8024  0.0800
  114MOL0     C15627   2.924  10.872  11.066 -0.6061 -0.4604 -0.1857
  114MOL0     C15628   2.837  10.961  11.003 -0.3682 -0.2847 -0.7023
  114MOL0     C15629   2.852  10.989  10.869  0.5833 -0.0139  0.7276
  114MOL0     O15630   2.763  11.078  10.816  0.6319  0.5695  0.4934
  114MOL0     C15631   2.807  11.154  10.697  0.2744  0.4596  0.0593
  114MOL0     C15632   2.685  11.222  10.635 -0.5138 -0.2853  0.4508
  114MOL0     C15633   2.728  11.330  10.541 -0.1135 -0.7439 -0.0902
  114MOL0     C15634   2.606  11.377  10.455  0.1863  0.2947 -0.5806
  114MOL0     C15635   2.633  11.486  10.344  1.2135 -0.5003 -0.9779
  114MOL0     C15636   2.756  11.474  10.254  0.1021  0.1989 -0.0208
  114MOL0     C15637   2.779  11.578  10.140  1.2907  0.2045  0.9876
  114MOL0     C15638   2.934  11.595  10.121 -0.7519  0.1189  0.0724
  114MOL0    Cl15639   3.013  11.428  10.101  0.1454  0.6642  0.5818
  114MOL0     C15640   2.961  10.933  10.796  0.4892  0.1774 -0.4690
  114MOL0     C15641   3.050  10.839  10.860 -0.1486  0.3678  0.3214
  114MOL0     O15642   3.055  10.669  11.262 -0.3080 -0.1315  0.7999
  114MOL0     C15643   3.259  10.489  11.297 -0.0596  0.0583  0.5488
  114MOL0     C15644   3.375  10.421  11.340 -0.4104 -0.7260  0.3011
  114MOL0     N15645   3.663  10.346  11.702  0.4288 -0.4568 -0.2071
  114MOL0     N15646   3.575  10.393  11.774 -0.2430 -0.5188  0.6429
  114MOL0     C15647   2.666  10.873  11.507 -0.1365  0.4841 -0.1483
  114MOL0     C15648   2.565  10.882  11.408  0.0421  0.7038  0.1298
  114MOL0     C15649   2.290  10.788  11.051 -0.9243 -0.1537  0.0440
  114MOL0     C15650   2.364  10.864  10.951  0.1132  0.8397  0.3447
  114MOL0     C15651   2.315  10.889  10.824  0.6819  0.2841  0.4707
  114MOL0     C15652   2.185  10.841  10.796  0.6931  0.0411 -0.5468
  114MOL0     O15653   2.142  10.881  10.673  0.6392  0.2057 -0.3442
  114MOL0     C15654   2.115  11.023  10.661 -0.0769  0.9129 -0.6210
  114MOL0     C15655   1.962  11.035  10.658 -0.6221 -0.6785  0.8239
  114MOL0     C15656   1.915  11.001  10.521 -0.4153  0.2222  0.2018
  114MOL0     C15657   1.776  10.928  10.500  0.4960 -0.0098  0.5522
  114MOL0     C15658   1.672  11.033  10.519 -0.7471 -0.7119 -0.2955
  114MOL0     C15659   1.570  11.101  10.519 -0.2023 -0.2958 -0.6400
  114MOL0     C15660   2.106  10.771  10.887  0.0569  0.4829 -0.0129
  114MOL0     C15661   2.166  10.743  11.017 -0.0703  0.1838 -0.1932
  114MOL0     C15662   2.083  10.661  11.120 -0.3118  0.0430 -0.5075
  114MOL0     H15663   2.673  10.635  11.205  0.2916  0.9932 -1.1622
  114MOL0     H15664   2.805  10.583  11.421 -1.1987  0.2393  0.5926
  114MOL0     H15665   3.037  10.750  11.664 -2.9970  0.8852  2.2012
  114MOL0     H15666   3.000  10.727  11.493 -2.7640  0.9561 -1.0775
  114MOL0     H15667   2.914  10.478  11.580  2.5937 -0.7165 -1.0448
  114MOL0     H15668   3.074  10.504  11.574 -1.3457 -1.3583 -1.0665
  114MOL0     H15669   3.053  10.577  11.826  0.1832 -1.9774  1.6889
  114MOL0     H15670   2.891  10.508  11.811 -0.0805  3.7496  0.3671
  114MOL0     H15671   2.957  10.291  11.802 -1.7633  2.3083  1.5012
  114MOL0     H15672   3.111  10.337  11.718  3.1272  0.9500  1.8037
  114MOL0     H15673   3.039  10.374  12.015 -0.7615 -1.2480 -0.1471
  114MOL0     H15674   3.174  10.443  11.948 -3.2035  2.8739  2.5041
  114MOL0     H15675   3.188  10.178  12.050  0.1986  0.3726 -0.1533
  114MOL0     H15676   3.120  10.138  11.890 -0.7313  0.2964 -1.3362
  114MOL0     H15677   3.307  10.202  11.770  1.4976  0.3987  0.2342
  114MOL0     H15678   3.361  10.089  11.891  2.5617  0.8444 -0.9901
  114MOL0     H15679   3.386  10.386  11.970 -2.5602 -1.4640  0.7770
  114MOL0     H15680   3.468  10.249  12.034 -2.9533  0.4774  0.8760
  114MOL0     H15681   3.620  10.083  11.879 -0.2522  1.2665  0.5373
  114MOL0     H15682   3.850  10.067  11.706 -1.3156  0.4809  1.7283
  114MOL0     H15683   3.884  10.243  11.660  1.3553  0.5517  1.3740
  114MOL0     H15684   3.884  10.079  11.489  0.5281  0.3120 -0.9428
  114MOL0     H15685   3.698  10.054  11.506 -0.5278  0.4955  0.4027
  114MOL0     H15686   3.840  10.316  11.438 -0.4307 -0.2436 -0.1398
  114MOL0     H15687   3.816  10.191  11.316  0.4296  2.3570  0.0989
  114MOL0     H15688   3.586  10.184  11.328  0.0346 -0.4306 -0.4239
  114MOL0     H15689   3.587  10.297  11.463  0.4193 -2.9809  1.4887
  114MOL0     H15690   3.598  10.552  11.109  0.8485  0.0708  0.6469
  114MOL0     H15691   3.338  10.825  11.049 -1.4358 -1.3572 -0.2215
  114MOL0     H15692   3.414  10.708  10.942 -2.8734 -0.3071  0.4229
  114MOL0     H15693   3.512  10.793  11.069 -0.3967  2.1560  2.4971
  114MOL0     H15694   2.914  10.867  11.174 -1.7917  1.7993 -0.1413
  114MOL0     H15695   2.757  11.015  11.054 -0.2677 -1.1927  0.4488
  114MOL0     H15696   2.876  11.235  10.723 -1.6508  1.9268  0.8568
  114MOL0     H15697   2.846  11.089  10.618 -2.4920  0.8648 -1.7618
  114MOL0     H15698   2.632  11.144  10.579  0.4950 -0.2337 -0.6107
  114MOL0     H15699   2.613  11.250  10.712 -2.5737 -1.7717 -0.8267
  114MOL0     H15700   2.804  11.285  10.477 -0.7113  0.0196 -1.3622
  114MOL0     H15701   2.759  11.409  10.610 -2.6390  0.0628  0.2395
  114MOL0     H15702   2.533  11.421  10.524  2.1053 -0.8320  2.3493
  114MOL0     H15703   2.571  11.284  10.409  0.8388 -0.6878  0.8286
  114MOL0     H15704   2.548  11.500  10.276  0.8898  1.4684 -0.2312
  114MOL0     H15705   2.634  11.588  10.382 -3.8070 -0.5953  0.0769
  114MOL0     H15706   2.738  11.383  10.195  0.2029  1.1054 -1.5076
  114MOL0     H15707   2.844  11.458  10.316  0.6087 -1.5332 -1.1080
  114MOL0     H15708   2.753  11.683  10.161 -0.4981 -0.4170  2.0748
  114MOL0     H15709   2.728  11.542  10.051  0.1250  2.2023  0.7699
  114MOL0     H15710   2.981  11.646  10.206  1.9781 -0.2288 -1.1357
  114MOL0     H15711   2.958  11.647  10.028  0.4795 -1.3170 -0.4421
  114MOL0     H15712   2.986  10.943  10.691 -1.0234  2.0503 -0.6967
  114MOL0     H15713   3.131  10.798  10.802 -0.5569  0.7500 -0.5333
  114MOL0     H15714   3.169  10.458  11.351 -1.4931 -0.9158 -2.1918
  114MOL0     H15715   3.372  10.354  11.425  0.5781  3.0360  3.6304
  114MOL0     H15716   2.650  10.930  11.598 -2.5278  0.5779 -0.5719
  114MOL0     H15717   2.477  10.945  11.404 -2.1150 -2.0438 -4.7667
  114MOL0     H15718   2.466  10.903  10.955  1.4492 -1.9178 -2.0982
  114MOL0     H15719   2.380  10.943  10.757 -0.8810  1.8647  0.1747
  114MOL0     H15720   2.157  11.083  10.742  2.1912  0.0418 -1.0556
  114MOL0     H15721   2.147  11.053  10.561  1.7715 -1.3815 -0.8165
  114MOL0     H15722   1.931  11.139  10.668 -1.1085 -0.2453 -3.4375
  114MOL0     H15723   1.912  10.974  10.734  0.6015 -4.5479 -1.1846
  114MOL0     H15724   1.907  11.092  10.462 -1.5362 -0.3564 -0.5828
  114MOL0     H15725   1.984  10.929  10.475  0.0904  0.8906 -0.1017
  114MOL0     H15726   1.766  10.845  10.571  2.3114 -2.6364 -1.9999
  114MOL0     H15727   1.772  10.895  10.395 -2.1260 -1.7411  1.0873
  114MOL0     H15728   1.469  11.136  10.529 -0.1714 -0.2419 -0.5125
  114MOL0     H15729   2.011  10.723  10.867  1.1512 -1.1995 -1.4608
  114MOL0     H15730   2.081  10.709  11.218 -2.3276  0.2262 -0.6185
  114MOL0     H15731   1.980  10.640  11.090  0.0885 -2.5428 -0.3417
  114MOL0     H15732   2.140  10.567  11.118  0.8562  0.7085  0.5827
  115MOL0     O15733   8.901   9.193   2.424 -0.0835  0.5584 -0.3216
  115MOL0     C15734   8.783   9.202   2.467 -1.2528 -0.3648  0.1161
  115MOL0     O15735   8.749   9.274   2.568  0.6787  0.6376  0.6137
  115MOL0     C15736   8.837   9.322   2.663 -0.0454  0.0622  0.3442
  115MOL0     C15737   8.978   9.304   2.684 -0.3468  0.5064 -0.7171
  115MOL0     C15738   9.041   9.353   2.808  0.6196  0.0649  0.0325
  115MOL0     C15739   8.962   9.438   2.885 -0.0979  1.1109 -0.5855
  115MOL0     O15740   9.009   9.524   2.980 -0.2581 -0.0429 -0.5500
  115MOL0     C15741   9.136   9.480   3.053  0.5801 -0.0190 -0.9437
  115MOL0     C15742   9.150   9.595   3.143 -0.0104 -0.2305 -0.2992
  115MOL0     C15743   9.038   9.628   3.245 -1.0848 -0.0917  0.2676
  115MOL0     C15744   9.088   9.704   3.363 -0.5451  0.2436 -0.2938
  115MOL0     C15745   9.150   9.837   3.332 -0.4691 -0.0508  0.8314
  115MOL0     C15746   9.210   9.901   3.452  0.5279  0.2959  0.2874
  115MOL0     C15747   9.296  10.020   3.398 -0.4368  0.4015  0.7526
  115MOL0     C15748   9.340  10.122   3.485  0.1197 -0.2960 -0.9568
  115MOL0     N15749   9.427  10.220   3.420  0.8805  0.0133 -0.1388
  115MOL0     C15750   9.567  10.208   3.401 -0.5240 -0.4166 -0.0030
  115MOL0     C15751   9.605  10.304   3.312  0.1379 -0.3649 -0.4017
  115MOL0     C15752   9.738  10.346   3.244 -0.1810  1.3685 -0.2348
  115MOL0     C15753   9.840  10.314   3.357 -0.5608  0.3202 -0.2031
  115MOL0     C15754   9.958  10.419   3.367  2.1703 -0.1327 -0.4431
  115MOL0     C15755  10.085  10.363   3.436 -0.0977  0.2459 -0.0197
  115MOL0     O15756  10.051  10.345   3.572  0.0213  0.1401 -0.3272
  115MOL0     C15757  10.075  10.218   3.630  0.4446  0.9634 -0.7212
  115MOL0     C15758  10.122  10.211   3.758  0.7641  0.5476 -0.1108
  115MOL0     C15759  10.148  10.093   3.827  0.5736 -0.8269 -0.6904
  115MOL0     C15760  10.214  10.091   3.964 -0.2306 -0.4752  0.0018
  115MOL0     C15761  10.109   9.968   3.761 -0.4768  0.0453  0.2864
  115MOL0     C15762  10.099   9.843   3.838  0.0283  0.2343  0.0730
  115MOL0     O15763  10.094   9.842   3.969 -0.0956  0.2338  0.7191
  115MOL0     C15764  10.119   9.721   4.034 -1.1942 -1.2409 -0.0792
  115MOL0     C15765  10.050   9.675   4.138  0.1334 -0.1891 -0.1677
  115MOL0     C15766  10.074   9.559   4.208  0.7690 -0.0654 -0.9344
  115MOL0     C15767  10.181   9.483   4.179  1.4490 -0.1353 -0.2455
  115MOL0     O15768  10.194   9.375   4.261  0.8937  0.2167 -1.0601
  115MOL0     C15769  10.274   9.269   4.213 -0.3387 -0.6679  0.0807
  115MOL0     C15770  10.211   9.195   4.091 -0.6270 -0.1309  0.0349
  115MOL0     C15771  10.309   9.089   4.033  0.5573 -0.1220  0.4768
  115MOL0     C15772  10.302   9.070   3.884 -0.2019  0.0945  0.3949
  115MOL0     C15773  10.207   8.946   3.851  0.4130 -0.2617 -0.0508
  115MOL0     C15774  10.232   8.899   3.710 -0.7543  0.3225 -0.2497
  115MOL0     C15775  10.131   8.785   3.669  0.7088  0.4002  0.2285
  115MOL0     C15776  10.209   8.661   3.605 -0.3475 -0.9593 -1.6120
  115MOL0    Cl15777  10.255   8.708   3.444  0.0597  0.0407 -0.0575
  115MOL0     C15778  10.266   9.533   4.075 -0.6528 -0.2147  0.2131
  115MOL0     C15779  10.236   9.646   3.993  0.2537  0.6419 -0.6995
  115MOL0     O15780  10.103   9.741   3.773  0.1246  0.0668 -0.0160
  115MOL0     C15781  10.064   9.979   3.634 -0.3374  0.2017  0.3909
  115MOL0     C15782  10.048  10.102   3.566  0.9057  0.8823  0.2409
  115MOL0     N15783   9.494  10.382   3.287 -0.4069 -1.5431  0.0431
  115MOL0     N15784   9.390  10.342   3.361  0.5158  0.4322  0.1577
  115MOL0     C15785   8.825   9.451   2.861 -0.3544 -1.0418 -0.0983
  115MOL0     C15786   8.763   9.393   2.754 -0.1731  0.8725 -0.5911
  115MOL0     C15787   8.678   9.149   2.373  0.3087 -0.2617 -0.0509
  115MOL0     C15788   8.727   9.111   2.246  0.8651  0.2160 -0.0949
  115MOL0     C15789   8.643   9.044   2.157 -0.6854  0.1781  0.3727
  115MOL0     C15790   8.508   9.019   2.186 -0.4761  0.4833  0.4962
  115MOL0     O15791   8.419   8.958   2.097  0.0417 -1.5627  0.6042
  115MOL0     C15792   8.457   8.852   2.009  0.1377  0.8685  0.2197
  115MOL0     C15793   8.361   8.828   1.901  0.0810  0.8769  0.2748
  115MOL0     C15794   8.213   8.808   1.948 -0.7524  0.1340 -0.1740
  115MOL0     C15795   8.124   8.763   1.824 -0.2609  1.4310  0.7926
  115MOL0     C15796   8.003   8.699   1.880 -0.6266 -0.5987  0.2778
  115MOL0     C15797   7.904   8.648   1.919  0.0750  0.4853  0.2329
  115MOL0     C15798   8.464   9.066   2.305  0.4111 -0.0023 -0.4117
  115MOL0     C15799   8.540   9.126   2.404  0.9616  0.4968  0.4894
  115MOL0     C15800   8.475   9.159   2.535 -0.2748  0.1836 -0.7593
  115MOL0     H15801   9.040   9.246   2.617 -0.8582 -1.2431  0.2591
  115MOL0     H15802   9.147   9.339   2.824  1.5211  1.1845 -3.8855
  115MOL0     H15803   9.221   9.448   2.992  2.7084  0.7161  1.4988
  115MOL0     H15804   9.126   9.389   3.114  2.1914  1.5648  1.8895
  115MOL0     H15805   9.233   9.576   3.210 -1.5903  0.9192  2.1089
  115MOL0     H15806   9.165   9.680   3.076 -0.7497 -0.5189 -0.8477
  115MOL0     H15807   8.973   9.688   3.180 -0.6509 -0.5119 -0.5692
  115MOL0     H15808   8.996   9.532   3.277  0.2614 -0.6191  0.5025
  115MOL0     H15809   9.007   9.721   3.435  0.7011  0.5819  1.0756
  115MOL0     H15810   9.156   9.637   3.417 -4.3764 -0.0283  5.0148
  115MOL0     H15811   9.074   9.909   3.301 -0.6588  0.4568  2.4123
  115MOL0     H15812   9.229   9.821   3.257 -1.1320  0.9419 -0.1093
  115MOL0     H15813   9.133   9.935   3.522 -0.2737 -1.6511  0.4146
  115MOL0     H15814   9.270   9.836   3.516  0.8241 -0.8239 -1.0973
  115MOL0     H15815   9.233  10.066   3.321  2.2439  0.5233 -1.5421
  115MOL0     H15816   9.377   9.975   3.339  0.2048 -0.2192  2.0533
  115MOL0     H15817   9.255  10.178   3.526  0.7284 -0.8376  1.1979
  115MOL0     H15818   9.398  10.076   3.566  1.1029 -0.2535 -1.6291
  115MOL0     H15819   9.631  10.125   3.430  2.0331  0.6138 -2.3243
  115MOL0     H15820   9.729  10.451   3.218 -4.2921  0.7028 -2.4533
  115MOL0     H15821   9.756  10.294   3.149 -2.1734 -0.2507  0.1877
  115MOL0     H15822   9.802  10.299   3.458 -1.8454 -2.0755 -0.9716
  115MOL0     H15823   9.891  10.222   3.327  0.6781 -0.1681  3.0327
  115MOL0     H15824   9.981  10.468   3.272 -1.8868 -1.9093 -2.5771
  115MOL0     H15825   9.915  10.493   3.436  2.0131 -0.6219 -0.0183
  115MOL0     H15826  10.114  10.266   3.393 -1.5103 -0.5403  0.7453
  115MOL0     H15827  10.168  10.433   3.421 -0.4275  1.0967  1.9374
  115MOL0     H15828  10.159  10.301   3.806 -1.0626  1.8257 -0.9719
  115MOL0     H15829  10.250  10.193   3.979 -0.5404  0.2023 -3.1829
  115MOL0     H15830  10.298  10.024   3.984 -1.3625 -1.1083  3.3339
  115MOL0     H15831  10.139  10.067   4.040  0.8250 -0.5454  1.0533
  115MOL0     H15832   9.962   9.731   4.168  0.3453  0.6107 -0.9857
  115MOL0     H15833  10.015   9.535   4.297 -0.8131  3.7759 -0.7629
  115MOL0     H15834  10.372   9.309   4.188 -0.1822 -2.0319 -1.7276
  115MOL0     H15835  10.304   9.199   4.291  1.1813 -2.2918 -1.8667
  115MOL0     H15836  10.118   9.151   4.127 -1.8466  0.4283 -2.2799
  115MOL0     H15837  10.184   9.268   4.015 -1.0729 -0.3750 -0.0400
  115MOL0     H15838  10.294   8.993   4.084 -1.6108 -0.2079 -0.2328
  115MOL0     H15839  10.409   9.127   4.058 -0.0254  0.1650  2.5877
  115MOL0     H15840  10.405   9.056   3.852  1.9856  2.7456  5.1969
  115MOL0     H15841  10.266   9.156   3.827  2.0966  0.1777 -1.0639
  115MOL0     H15842  10.221   8.862   3.920  1.1905  0.3369  0.5247
  115MOL0     H15843  10.104   8.973   3.872  0.9003  0.2521  1.8450
  115MOL0     H15844  10.336   8.864   3.715 -0.5847  0.9729  1.3736
  115MOL0     H15845  10.233   8.983   3.641 -1.0400  1.1833  0.7787
  115MOL0     H15846  10.056   8.828   3.602 -0.2471 -2.3580 -0.6193
  115MOL0     H15847  10.069   8.758   3.755 -0.8653  1.6789 -0.4674
  115MOL0     H15848  10.143   8.575   3.593 -1.0463 -0.4828 -1.2837
  115MOL0     H15849  10.289   8.626   3.669 -1.7350  1.2708  1.6122
  115MOL0     H15850  10.364   9.490   4.058 -1.4945 -2.5082  0.8089
  115MOL0     H15851  10.305   9.677   3.915 -3.5519  1.6064 -3.9866
  115MOL0     H15852  10.035   9.890   3.580 -3.6823  1.4253 -0.1092
  115MOL0     H15853  10.003  10.087   3.469 -2.4521 -0.5849  1.8523
  115MOL0     H15854   8.764   9.517   2.921 -1.1462  0.4228 -2.3893
  115MOL0     H15855   8.655   9.397   2.744 -0.5904 -1.1373  1.9075
  115MOL0     H15856   8.831   9.128   2.219  1.4310 -1.2115  1.0731
  115MOL0     H15857   8.692   9.008   2.067 -1.6065 -0.5212  0.1301
  115MOL0     H15858   8.558   8.869   1.970  0.4567  1.8293  1.4257
  115MOL0     H15859   8.457   8.758   2.065 -4.3708  0.3500 -0.2156
  115MOL0     H15860   8.403   8.737   1.855 -0.5756  1.0697 -0.7402
  115MOL0     H15861   8.364   8.911   1.830 -2.4491  2.0816  1.4629
  115MOL0     H15862   8.203   8.737   2.031 -0.1559 -0.4616 -0.6034
  115MOL0     H15863   8.192   8.914   1.968 -0.6629  1.0248 -4.0770
  115MOL0     H15864   8.181   8.688   1.768 -1.9601  0.1457  0.7043
  115MOL0     H15865   8.091   8.842   1.758  0.2395  1.0196  0.0344
  115MOL0     H15866   7.818   8.599   1.960  0.6640 -0.7795  0.0215
  115MOL0     H15867   8.357   9.051   2.306  0.6335 -2.9455 -3.2790
  115MOL0     H15868   8.369   9.143   2.518 -0.4264  1.2457 -0.9003
  115MOL0     H15869   8.501   9.086   2.613 -1.2908  0.6320  0.0230
  115MOL0     H15870   8.510   9.255   2.574  3.0260 -1.4260  0.6985
  116MOL0     O15871   7.689   9.607   2.369  0.6833 -0.3333  0.0150
  116MOL0     C15872   7.683   9.539   2.271  0.5449  0.5834 -0.3013
  116MOL0     O15873   7.622   9.417   2.262  0.5886 -0.7287 -0.6349
  116MOL0     C15874   7.549   9.379   2.379 -0.7491  0.3998  0.5902
  116MOL0     C15875   7.561   9.244   2.411  0.1776  0.1609 -0.8011
  116MOL0     C15876   7.489   9.180   2.508  0.5023  0.2924 -0.8024
  116MOL0     C15877   7.401   9.258   2.591 -0.2911  0.3714  0.0864
  116MOL0     O15878   7.334   9.197   2.692 -0.6209 -0.5601 -0.7621
  116MOL0     C15879   7.278   9.284   2.789 -0.1756 -0.2686 -0.3149
  116MOL0     C15880   7.275   9.216   2.923 -0.4417  0.2152  0.4126
  116MOL0     C15881   7.396   9.233   2.994 -0.9506 -0.2096  0.3640
  116MOL0     C15882   7.415   9.155   3.123 -0.4546  0.2655  0.9616
  116MOL0     C15883   7.566   9.150   3.174 -0.5985  0.1668  0.3420
  116MOL0     C15884   7.564   9.070   3.310 -0.5711  0.0949 -0.3861
  116MOL0     C15885   7.709   9.053   3.342  0.1202 -0.0011 -0.0508
  116MOL0     C15886   7.796   9.179   3.339 -1.2798 -1.2795  0.1159
  116MOL0     N15887   7.928   9.143   3.401 -0.4143  0.6343  0.2769
  116MOL0     C15888   7.999   9.031   3.350 -0.3029 -0.3753  0.4517
  116MOL0     C15889   8.124   9.058   3.408 -0.1263  0.5652 -0.0614
  116MOL0     C15890   8.254   8.985   3.390  0.4616 -0.3431  0.3919
  116MOL0     C15891   8.306   8.901   3.509  0.2047  0.1794  0.5806
  116MOL0     C15892   8.348   8.972   3.636 -0.4372  0.6065 -0.0624
  116MOL0     C15893   8.240   9.015   3.734 -0.9350  0.0990  0.2625
  116MOL0     O15894   8.314   9.071   3.846 -0.6538  0.5707 -0.4730
  116MOL0     C15895   8.347   9.203   3.852 -0.2515 -0.0590  0.1701
  116MOL0     C15896   8.315   9.300   3.755 -0.2748  0.8387 -1.1598
  116MOL0     C15897   8.358   9.427   3.770 -0.0858  0.3826 -0.1020
  116MOL0     C15898   8.316   9.527   3.663  1.0766 -0.8206  0.0389
  116MOL0     C15899   8.428   9.471   3.888 -0.6239  1.4610  0.7560
  116MOL0     C15900   8.482   9.600   3.900  0.0938 -0.3596  1.1353
  116MOL0     O15901   8.443   9.668   4.011  0.8788 -0.1205 -0.2938
  116MOL0     C15902   8.492   9.797   4.031 -0.5857  0.6945  0.6595
  116MOL0     C15903   8.451   9.898   3.947  0.4024 -0.2898 -0.0852
  116MOL0     C15904   8.484  10.033   3.980 -0.1837  0.7582 -0.3658
  116MOL0     C15905   8.564  10.062   4.103 -0.3303  0.7511  1.1633
  116MOL0     O15906   8.584  10.191   4.148  0.6549 -0.3023 -0.5882
  116MOL0     C15907   8.619  10.292   4.053  0.2645 -0.3186 -0.2950
  116MOL0     C15908   8.760  10.322   4.036 -0.4625  1.4597 -0.5961
  116MOL0     C15909   8.836  10.364   4.171  0.9417  0.0429  0.3515
  116MOL0     C15910   8.839  10.510   4.190 -0.5450  0.3820  0.5046
  116MOL0     C15911   8.909  10.542   4.316  0.5432  0.2698  0.1760
  116MOL0     C15912   8.980  10.686   4.312 -1.4490  0.4836 -0.3406
  116MOL0     C15913   9.093  10.712   4.420 -0.0437  1.5423  1.0060
  116MOL0     C15914   9.203  10.797   4.365  0.5265 -0.1055 -0.0530
  116MOL0    Cl15915   9.137  10.956   4.355  0.1710  0.3080  0.7434
  116MOL0     C15916   8.605   9.952   4.177  0.1033 -0.1131  0.5890
  116MOL0     C15917   8.580   9.816   4.138 -0.0767 -0.1323  0.1941
  116MOL0     O15918   8.562   9.641   3.821 -0.3842 -0.3949 -0.7398
  116MOL0     C15919   8.460   9.375   3.981  0.0552  0.8623  1.4713
  116MOL0     C15920   8.417   9.247   3.967  0.0085 -0.9916 -0.2353
  116MOL0     N15921   8.123   9.176   3.470 -0.4738 -0.5149 -0.8914
  116MOL0     N15922   8.004   9.226   3.470  0.2915 -0.1071 -0.0322
  116MOL0     C15923   7.372   9.390   2.546 -0.2393  0.4681 -0.5267
  116MOL0     C15924   7.450   9.454   2.448 -0.4886  0.0259 -0.3434
  116MOL0     C15925   7.725   9.604   2.143 -1.2527 -1.0180  0.2899
  116MOL0     C15926   7.688   9.548   2.022 -0.6246 -0.3524 -0.3417
  116MOL0     C15927   7.720   9.595   1.901 -0.6990 -0.0737 -0.1844
  116MOL0     C15928   7.787   9.713   1.893 -0.4527 -0.5985 -0.1456
  116MOL0     O15929   7.825   9.756   1.770  0.3656 -0.1314 -0.3715
  116MOL0     C15930   7.949   9.824   1.760 -0.9897  0.1608  0.4256
  116MOL0     C15931   7.957   9.977   1.725 -0.5110  0.2988 -0.0263
  116MOL0     C15932   7.873  10.026   1.615 -0.0608  0.4475  0.1494
  116MOL0     C15933   7.720  10.008   1.623  0.2101 -0.1364  0.6604
  116MOL0     C15934   7.661  10.035   1.755 -1.0016  1.1119 -0.1413
  116MOL0     C15935   7.625  10.071   1.867 -0.0297  1.1097 -0.5327
  116MOL0     C15936   7.825   9.779   2.015 -0.2413  0.9522 -1.1310
  116MOL0     C15937   7.792   9.734   2.139  0.0742 -0.4765 -0.1884
  116MOL0     C15938   7.833   9.813   2.261 -0.5857  0.7557  0.2496
  116MOL0     H15939   7.613   9.177   2.344 -2.1051 -2.4394 -0.1302
  116MOL0     H15940   7.495   9.075   2.535  0.8708  0.4509 -0.2463
  116MOL0     H15941   7.172   9.306   2.769  0.4901  0.6758 -3.2935
  116MOL0     H15942   7.342   9.372   2.794  2.2614 -1.6996 -3.0269
  116MOL0     H15943   7.187   9.261   2.970 -1.3107 -1.5301  0.5670
  116MOL0     H15944   7.243   9.112   2.911  0.0757  0.1473 -0.4751
  116MOL0     H15945   7.478   9.191   2.936  0.9510  3.4311  0.0820
  116MOL0     H15946   7.424   9.337   3.013 -0.0164 -0.6104  1.3187
  116MOL0     H15947   7.363   9.206   3.205 -2.7037  0.3155 -0.4081
  116MOL0     H15948   7.369   9.056   3.116 -2.4563  1.0901  1.4550
  116MOL0     H15949   7.586   9.255   3.200 -2.3266  1.2653 -2.2461
  116MOL0     H15950   7.634   9.111   3.098  0.1223 -0.6246  1.3743
  116MOL0     H15951   7.521   9.121   3.396 -2.4882  1.2077 -1.9128
  116MOL0     H15952   7.501   8.982   3.299 -1.2475  0.2294  1.9444
  116MOL0     H15953   7.751   8.973   3.280  1.2891 -1.1212  2.0883
  116MOL0     H15954   7.708   9.001   3.438 -1.7729 -1.5978 -0.8563
  116MOL0     H15955   7.821   9.206   3.236 -0.1261  1.0424  0.9306
  116MOL0     H15956   7.746   9.263   3.388  3.6699  1.4682  1.1630
  116MOL0     H15957   7.971   8.944   3.291 -2.3031 -0.5033  1.4951
  116MOL0     H15958   8.318   9.069   3.361 -0.2710  1.0033  2.4415
  116MOL0     H15959   8.252   8.913   3.307 -0.1463 -1.0784  1.0312
  116MOL0     H15960   8.233   8.822   3.529  0.4105 -0.0918  0.2857
  116MOL0     H15961   8.387   8.836   3.474  0.8989 -2.0215  5.4615
  116MOL0     H15962   8.408   8.902   3.694  1.3865  1.4920 -0.8250
  116MOL0     H15963   8.416   9.054   3.609  1.0293  0.1049  1.9497
  116MOL0     H15964   8.174   9.088   3.687  2.1939  3.2242  0.3061
  116MOL0     H15965   8.183   8.926   3.761 -2.2807  0.5174 -1.0500
  116MOL0     H15966   8.259   9.272   3.666  0.4842  0.3206 -1.4879
  116MOL0     H15967   8.399   9.597   3.645 -0.3989  1.2631  0.9282
  116MOL0     H15968   8.227   9.579   3.700  1.8615  0.6397 -0.0357
  116MOL0     H15969   8.299   9.480   3.565  2.9033  3.6695 -2.7759
  116MOL0     H15970   8.377   9.882   3.869 -1.7113  1.8666  1.3496
  116MOL0     H15971   8.453  10.122   3.927 -1.7427  0.8297  0.6146
  116MOL0     H15972   8.576  10.273   3.954 -2.2950  2.7815  0.0593
  116MOL0     H15973   8.560  10.382   4.072 -1.4683 -1.3244 -0.6460
  116MOL0     H15974   8.787  10.217   4.025 -6.3238 -0.5889  0.7510
  116MOL0     H15975   8.779  10.392   3.955  4.1062  1.4009  0.1729
  116MOL0     H15976   8.929  10.306   4.170 -0.1977 -1.9020  0.6442
  116MOL0     H15977   8.777  10.326   4.255  1.1584  1.8385  1.3591
  116MOL0     H15978   8.739  10.553   4.186 -1.0025 -0.7115 -2.6376
  116MOL0     H15979   8.889  10.546   4.099 -0.0478  1.2466  1.1098
  116MOL0     H15980   8.839  10.528   4.398 -0.5485  1.9729 -0.4110
  116MOL0     H15981   8.990  10.469   4.326  1.0458  0.8272  0.2660
  116MOL0     H15982   8.904  10.762   4.326 -1.3335  1.0314 -2.3873
  116MOL0     H15983   9.022  10.701   4.212 -0.6562  0.4415 -0.0259
  116MOL0     H15984   9.130  10.612   4.442  0.3130  0.6912 -2.8445
  116MOL0     H15985   9.053  10.761   4.510  0.3112 -0.9159  2.5918
  116MOL0     H15986   9.242  10.765   4.267 -2.7296 -0.4548 -1.3478
  116MOL0     H15987   9.284  10.799   4.438 -0.8495 -0.0772  1.5191
  116MOL0     H15988   8.661   9.960   4.269 -0.2290 -2.2351  1.0367
  116MOL0     H15989   8.596   9.730   4.203  1.0920 -0.0027  0.0958
  116MOL0     H15990   8.530   9.401   4.060  2.1274  0.4621 -0.1175
  116MOL0     H15991   8.454   9.170   4.034  2.0415  1.8820  2.2069
  116MOL0     H15992   7.282   9.445   2.573  0.3602  0.6231  1.3295
  116MOL0     H15993   7.430   9.556   2.417  0.7689  0.6614  0.8077
  116MOL0     H15994   7.611   9.472   2.009 -3.1014  1.8630  0.4534
  116MOL0     H15995   7.677   9.562   1.807  0.0733  0.5273 -0.7615
  116MOL0     H15996   8.012   9.809   1.848 -1.5732 -0.9173  0.6816
  116MOL0     H15997   7.984   9.772   1.670 -0.0701 -0.0169  0.8659
  116MOL0     H15998   8.060  10.007   1.703 -0.7446  2.2061  1.3324
  116MOL0     H15999   7.927  10.040   1.809 -1.6646  1.8159 -1.4991
  116MOL0     H16000   7.886  10.134   1.598  0.0940  0.6437  1.4026
  116MOL0     H16001   7.914   9.982   1.523  1.6222 -0.1437  1.1329
  116MOL0     H16002   7.697   9.903   1.607  3.2019 -0.9821  1.2158
  116MOL0     H16003   7.664  10.071   1.554  0.5182 -0.2743  0.2822
  116MOL0     H16004   7.609  10.098   1.970  1.4011  0.8521 -0.2149
  116MOL0     H16005   7.874   9.876   2.021  0.4907  0.5215  0.3341
  116MOL0     H16006   7.753   9.859   2.320  0.2341  0.7522  1.4106
  116MOL0     H16007   7.887   9.742   2.325  2.0156  1.8640 -0.6306
  116MOL0     H16008   7.879   9.904   2.223  0.7588  0.3854  0.9429
  117MOL0     O16009   5.371   2.738   0.339 -0.7478 -0.0675 -0.2206
  117MOL0     C16010   5.467   2.676   0.294 -0.3797  0.0241 -0.6977
  117MOL0     O16011   5.467   2.602   0.178  0.8159  0.7712  1.3186
  117MOL0     C16012   5.350   2.607   0.107 -0.4410 -0.0974  0.3125
  117MOL0     C16013   5.335   2.705   0.009  0.9768 -0.0916 -0.4012
  117MOL0     C16014   5.214   2.708  -0.064 -0.4191 -0.4369  0.1252
  117MOL0     C16015   5.111   2.619  -0.036 -0.8772  0.3711  0.6887
  117MOL0     O16016   4.999   2.603  -0.109  0.2713 -0.3662 -0.6298
  117MOL0     C16017   5.004   2.640  -0.256 -0.0098 -0.8407 -0.3882
  117MOL0     C16018   4.891   2.565  -0.313  0.1678 -0.0625  0.8472
  117MOL0     C16019   4.886   2.560  -0.471 -0.1565  0.3207 -0.2318
  117MOL0     C16020   4.933   2.687  -0.546 -0.8195  0.1711  0.3265
  117MOL0     C16021   4.947   2.661  -0.699 -0.4498 -0.1370 -0.0890
  117MOL0     C16022   4.811   2.626  -0.752 -0.5279  0.1146 -0.3974
  117MOL0     C16023   4.783   2.655  -0.900 -0.3424 -0.3085 -0.7252
  117MOL0     C16024   4.790   2.812  -0.931  0.0240  0.0518 -0.0791
  117MOL0     N16025   4.703   2.894  -0.838  0.3775  0.6309  0.1809
  117MOL0     C16026   4.560   2.891  -0.841 -0.4501 -0.3403 -0.1126
  117MOL0     C16027   4.528   2.982  -0.747 -0.3802  0.6735  0.2839
  117MOL0     C16028   4.387   3.017  -0.713 -0.0625 -0.2661 -0.0012
  117MOL0     C16029   4.324   3.118  -0.813 -0.9201 -0.3199  0.5089
  117MOL0     C16030   4.369   3.261  -0.806 -0.3273  0.8895  0.0967
  117MOL0     C16031   4.305   3.346  -0.697 -0.4641  0.7044  0.1237
  117MOL0     O16032   4.372   3.476  -0.693 -0.1211  0.1565  0.2747
  117MOL0     C16033   4.365   3.534  -0.576 -0.9496  0.6091  1.1897
  117MOL0     C16034   4.477   3.526  -0.488 -0.7721  0.5532  0.4606
  117MOL0     C16035   4.492   3.593  -0.368  0.7662 -0.3028 -0.8598
  117MOL0     C16036   4.620   3.578  -0.297 -0.5530 -0.3753  0.4462
  117MOL0     C16037   4.374   3.681  -0.328 -0.0619  1.1327  0.8783
  117MOL0     C16038   4.377   3.770  -0.212  0.5638 -0.5118 -0.0441
  117MOL0     O16039   4.254   3.824  -0.174 -0.0363 -0.9867  0.1153
  117MOL0     C16040   4.238   3.886  -0.049 -0.3275  0.6765  0.8976
  117MOL0     C16041   4.143   3.984  -0.027  1.0786 -0.4205  0.1086
  117MOL0     C16042   4.112   4.033   0.096 -0.4498 -0.3779  0.2370
  117MOL0     C16043   4.176   3.992   0.209  0.6652 -0.2979 -0.1526
  117MOL0     O16044   4.145   4.056   0.332 -0.7888 -0.0299  0.0399
  117MOL0     C16045   4.225   4.029   0.446 -0.5229 -0.8770 -0.2434
  117MOL0     C16046   4.172   4.118   0.555  0.4010  0.3783 -0.0504
  117MOL0     C16047   4.171   4.263   0.531  0.3589 -0.7325  0.4481
  117MOL0     C16048   4.118   4.333   0.651 -0.3469  0.0543 -0.3787
  117MOL0     C16049   3.964   4.340   0.655  0.2333  0.7164  0.3244
  117MOL0     C16050   3.913   4.432   0.762  0.6075  0.7065  0.0091
  117MOL0     C16051   3.792   4.525   0.718 -0.2509  1.0904  0.0877
  117MOL0     C16052   3.670   4.449   0.667  0.8141 -0.4983  0.0046
  117MOL0    Cl16053   3.618   4.315   0.769  0.0629 -0.7120 -0.1757
  117MOL0     C16054   4.268   3.882   0.191  0.1147 -0.2987 -1.2221
  117MOL0     C16055   4.304   3.838   0.063  0.1271  0.1895 -0.5221
  117MOL0     O16056   4.480   3.812  -0.170  0.0293  0.4115 -0.3782
  117MOL0     C16057   4.257   3.665  -0.413 -0.9448  0.8159 -0.3484
  117MOL0     C16058   4.250   3.593  -0.541  0.4094  0.5339 -0.4385
  117MOL0     N16059   4.647   3.056  -0.721 -0.4516 -0.0202 -0.1106
  117MOL0     N16060   4.753   3.004  -0.779 -0.1994  1.0208  0.2109
  117MOL0     C16061   5.120   2.529   0.067 -0.6723  0.1939  0.2856
  117MOL0     C16062   5.246   2.521   0.143  1.1489 -0.0508  0.3616
  117MOL0     C16063   5.584   2.669   0.389 -0.0484 -0.0148  0.6947
  117MOL0     C16064   5.668   2.553   0.390  0.2447 -0.6239 -0.1423
  117MOL0     C16065   5.788   2.547   0.457  0.0650 -0.5006 -0.3220
  117MOL0     C16066   5.835   2.657   0.531  0.4783 -0.4371 -0.4351
  117MOL0     O16067   5.958   2.654   0.588 -0.6277 -0.5242  0.4251
  117MOL0     C16068   5.980   2.726   0.711 -0.9586 -0.7882  0.2366
  117MOL0     C16069   6.095   2.638   0.781 -0.2974  0.4892  1.5716
  117MOL0     C16070   6.203   2.602   0.678  0.8787  0.5932  0.0429
  117MOL0     C16071   6.343   2.605   0.746 -0.9298  0.6934 -0.3947
  117MOL0     C16072   6.363   2.487   0.827  0.7052 -0.6483  0.1606
  117MOL0     C16073   6.369   2.379   0.893 -0.1822  0.6796 -0.5329
  117MOL0     C16074   5.752   2.771   0.541 -0.7064  0.2050 -0.8173
  117MOL0     C16075   5.625   2.780   0.478 -0.1856 -0.0323  0.7561
  117MOL0     C16076   5.563   2.919   0.458 -0.9725 -0.2620 -0.2001
  117MOL0     H16077   5.420   2.768  -0.014  0.6465  1.3389  1.9150
  117MOL0     H16078   5.200   2.779  -0.146 -1.4970  1.6631  1.9941
  117MOL0     H16079   5.096   2.603  -0.303  0.2511  2.0687 -2.4340
  117MOL0     H16080   4.986   2.745  -0.280 -2.6370 -1.8643 -3.6862
  117MOL0     H16081   4.892   2.464  -0.272 -1.0078 -1.2084 -1.7167
  117MOL0     H16082   4.794   2.608  -0.286  1.2685  2.5842  0.8841
  117MOL0     H16083   4.947   2.476  -0.507  0.4255  1.0971 -1.0900
  117MOL0     H16084   4.781   2.541  -0.494 -0.3467 -2.3431  2.2151
  117MOL0     H16085   4.865   2.773  -0.543  1.0744  1.7752 -0.2562
  117MOL0     H16086   5.023   2.729  -0.500 -0.1736 -0.7022 -0.1103
  117MOL0     H16087   5.023   2.583  -0.701  0.7960  0.8916  2.4228
  117MOL0     H16088   4.986   2.751  -0.747  0.2865 -0.7723 -0.7132
  117MOL0     H16089   4.777   2.525  -0.727 -0.9818  0.4157  0.2554
  117MOL0     H16090   4.743   2.695  -0.700  1.0243  2.7827 -1.7362
  117MOL0     H16091   4.692   2.611  -0.942 -2.1220  2.1199  0.2985
  117MOL0     H16092   4.872   2.614  -0.948  1.0281  1.9431 -0.2700
  117MOL0     H16093   4.890   2.847  -0.905 -0.1684 -0.1502  0.9872
  117MOL0     H16094   4.768   2.839  -1.034 -1.2844 -1.1688 -0.1458
  117MOL0     H16095   4.493   2.850  -0.916 -1.1657 -2.5903  1.6473
  117MOL0     H16096   4.397   3.075  -0.621 -1.7211 -0.7197  0.4913
  117MOL0     H16097   4.320   2.931  -0.707  0.7523 -1.1225 -1.9847
  117MOL0     H16098   4.336   3.081  -0.915 -0.0578  0.4695  0.3152
  117MOL0     H16099   4.216   3.127  -0.795 -1.6205  0.0494 -3.2096
  117MOL0     H16100   4.476   3.245  -0.789 -0.7667 -2.4546  0.4759
  117MOL0     H16101   4.353   3.313  -0.901  1.3130 -0.6463 -1.0975
  117MOL0     H16102   4.203   3.347  -0.737 -0.6249 -1.9136  0.2354
  117MOL0     H16103   4.314   3.285  -0.606 -0.8914 -1.0361 -0.9446
  117MOL0     H16104   4.560   3.474  -0.536 -2.0762  0.1298 -1.4193
  117MOL0     H16105   4.672   3.672  -0.276  1.3608 -1.3432  0.2524
  117MOL0     H16106   4.697   3.534  -0.362  0.9137 -0.5080  2.1918
  117MOL0     H16107   4.614   3.524  -0.202  1.0195  3.4388  2.9903
  117MOL0     H16108   4.086   4.025  -0.110  0.3052 -2.3642 -0.3741
  117MOL0     H16109   4.036   4.111   0.104 -3.1297 -2.9613  2.3127
  117MOL0     H16110   4.225   3.927   0.484 -1.1052 -0.5762  0.6033
  117MOL0     H16111   4.327   4.050   0.411 -2.1327  2.1653 -3.8629
  117MOL0     H16112   4.066   4.088   0.557  1.5534 -4.5106 -0.1982
  117MOL0     H16113   4.214   4.086   0.651 -0.4258 -1.8760 -0.3860
  117MOL0     H16114   4.139   4.295   0.432  2.5264  0.6129  0.1009
  117MOL0     H16115   4.278   4.287   0.531  0.0989  0.5263 -0.2867
  117MOL0     H16116   4.148   4.438   0.658  0.4910 -0.0695 -1.7107
  117MOL0     H16117   4.153   4.290   0.745  3.0327  2.6231 -0.2638
  117MOL0     H16118   3.937   4.367   0.552 -0.2655  1.6450  0.6867
  117MOL0     H16119   3.931   4.240   0.685 -1.7188  1.4547  0.8217
  117MOL0     H16120   3.989   4.506   0.790 -1.0891  2.1328  1.0932
  117MOL0     H16121   3.895   4.377   0.855  1.8099 -1.6576 -1.0722
  117MOL0     H16122   3.826   4.594   0.639 -2.3368 -0.4131 -2.2472
  117MOL0     H16123   3.756   4.573   0.809  1.2358  1.2166  0.6399
  117MOL0     H16124   3.687   4.408   0.567  0.0512  0.0728 -0.3747
  117MOL0     H16125   3.587   4.518   0.647  1.7972  0.8041  0.3747
  117MOL0     H16126   4.329   3.854   0.276 -1.9503  1.1998  0.8853
  117MOL0     H16127   4.382   3.762   0.062  1.4333  1.4906 -0.7140
  117MOL0     H16128   4.164   3.718  -0.391 -1.6300  0.1405 -1.5227
  117MOL0     H16129   4.164   3.565  -0.601  1.4207 -0.0503 -1.6526
  117MOL0     H16130   5.033   2.468   0.088  0.5178 -0.5607  3.5892
  117MOL0     H16131   5.254   2.452   0.226 -1.7837  2.5041  3.0639
  117MOL0     H16132   5.629   2.473   0.329 -0.3213 -0.3757 -0.1112
  117MOL0     H16133   5.848   2.456   0.457 -0.1517 -0.6566  0.6012
  117MOL0     H16134   6.023   2.824   0.687  3.9620 -3.2676 -2.5977
  117MOL0     H16135   5.898   2.733   0.782 -1.6155 -0.7047 -0.5108
  117MOL0     H16136   6.055   2.549   0.831  3.0141 -1.1071  1.6578
  117MOL0     H16137   6.142   2.700   0.858  3.3630  2.0318 -1.5135
  117MOL0     H16138   6.170   2.506   0.637 -2.4468  1.5371  0.2331
  117MOL0     H16139   6.199   2.688   0.612 -1.3053  0.9324  0.5388
  117MOL0     H16140   6.369   2.696   0.800  2.1822 -0.6715  0.6544
  117MOL0     H16141   6.427   2.593   0.677  1.3495  1.6930  2.0612
  117MOL0     H16142   6.381   2.290   0.952  0.4264  2.2751  1.8890
  117MOL0     H16143   5.795   2.864   0.577  2.1781 -0.0838 -3.1484
  117MOL0     H16144   5.571   2.942   0.352  0.4815 -1.4687 -0.3898
  117MOL0     H16145   5.457   2.922   0.487 -0.9795  1.9647 -0.3019
  117MOL0     H16146   5.613   3.001   0.510 -2.5236 -0.1860  1.2780
  118MOL0     O16147   8.363   5.627  10.589 -0.2741 -0.5517 -0.3898
  118MOL0     C16148   8.339   5.743  10.561  0.0597  0.6523 -0.5439
  118MOL0     O16149   8.215   5.792  10.572 -0.0618 -0.1788 -0.5681
  118MOL0     C16150   8.117   5.701  10.618 -0.0415 -0.2518 -0.5399
  118MOL0     C16151   8.051   5.638  10.517  0.0946  0.3428  0.2640
  118MOL0     C16152   7.951   5.545  10.550 -0.1263  0.1103 -0.6861
  118MOL0     C16153   7.933   5.504  10.685 -0.4764 -0.1444  0.6766
  118MOL0     O16154   7.855   5.389  10.702  0.5332 -0.5686  1.2330
  118MOL0     C16155   7.824   5.348  10.841  0.2342  0.2630 -0.6875
  118MOL0     C16156   7.742   5.217  10.833  0.5998  0.5813  0.2508
  118MOL0     C16157   7.835   5.104  10.877 -0.4005  0.8252  0.6291
  118MOL0     C16158   7.941   5.079  10.775 -0.4189  0.5909 -0.0118
  118MOL0     C16159   7.910   4.955  10.695  0.6892  0.3722 -0.3678
  118MOL0     C16160   8.022   4.944  10.591  0.8781 -0.5178 -0.1119
  118MOL0     C16161   8.016   4.812  10.523  0.4281  0.1338 -0.7071
  118MOL0     C16162   8.122   4.817  10.407  0.9495 -1.3025 -0.6848
  118MOL0     N16163   8.227   4.716  10.425  0.2219 -0.5018 -0.1811
  118MOL0     C16164   8.356   4.742  10.477  0.5225  0.6671  0.2000
  118MOL0     C16165   8.421   4.622  10.474  0.1390 -0.6702  0.3847
  118MOL0     C16166   8.554   4.594  10.539 -0.8494 -0.1175 -0.0612
  118MOL0     C16167   8.536   4.551  10.681 -0.2624 -0.3663  0.3206
  118MOL0     C16168   8.660   4.548  10.772  0.1562 -0.2800 -0.1510
  118MOL0     C16169   8.618   4.576  10.921 -0.0352 -0.5444  0.1012
  118MOL0     O16170   8.728   4.582  11.018  0.2463 -0.2420 -0.5151
  118MOL0     C16171   8.793   4.473  11.071  0.8532  0.1448 -0.1793
  118MOL0     C16172   8.753   4.342  11.051  0.9436 -0.4623 -0.4534
  118MOL0     C16173   8.798   4.232  11.122 -1.0418 -0.0124 -1.7811
  118MOL0     C16174   8.747   4.094  11.093 -0.0882 -0.3073 -0.4738
  118MOL0     C16175   8.912   4.254  11.209 -0.3666  0.5323  1.2576
  118MOL0     C16176   8.961   4.152  11.295 -0.0182 -0.5940 -0.7520
  118MOL0     O16177   9.098   4.136  11.297  1.1590  0.0537  0.4867
  118MOL0     C16178   9.157   4.032  11.362  0.8533 -0.3079 -0.0518
  118MOL0     C16179   9.107   3.901  11.368  0.0790  1.0119  0.4323
  118MOL0     C16180   9.162   3.806  11.457 -0.6530  0.2240 -1.1195
  118MOL0     C16181   9.272   3.842  11.540 -0.1991 -1.2428 -0.0995
  118MOL0     O16182   9.302   3.758  11.636 -0.0559 -0.1032  0.0025
  118MOL0     C16183   9.416   3.774  11.716 -0.8270 -0.3288  0.2520
  118MOL0     C16184   9.459   3.633  11.767  0.6041 -1.0871  0.5774
  118MOL0     C16185   9.585   3.639  11.855 -1.0642  0.0542 -0.2984
  118MOL0     C16186   9.600   3.512  11.934  0.1134  0.8483  0.4381
  118MOL0     C16187   9.744   3.482  11.966 -0.0479 -0.3432 -0.0841
  118MOL0     C16188   9.775   3.402  12.095  0.8096 -0.7364  0.5802
  118MOL0     C16189   9.697   3.269  12.085  1.0891  0.0878  0.1582
  118MOL0     C16190   9.657   3.219  12.222 -0.3392 -0.0791  0.1906
  118MOL0    Cl16191   9.574   3.055  12.201 -0.3637  0.4724  0.0456
  118MOL0     C16192   9.334   3.966  11.516 -0.3956 -0.3578  0.0963
  118MOL0     C16193   9.274   4.060  11.433 -0.5601  0.1935 -0.1141
  118MOL0     O16194   8.876   4.093  11.366  0.0706 -0.1004  0.3659
  118MOL0     C16195   8.968   4.387  11.211 -1.0900 -0.3409 -0.5961
  118MOL0     C16196   8.904   4.493  11.141 -0.2157 -0.1323  0.3692
  118MOL0     N16197   8.336   4.533  10.408  0.5209  0.2408 -0.2073
  118MOL0     N16198   8.217   4.581  10.394  0.4165 -0.9769 -0.1563
  118MOL0     C16199   8.009   5.572  10.784  0.7786 -0.8817 -0.6860
  118MOL0     C16200   8.100   5.674  10.758  1.2942 -0.5163  0.1875
  118MOL0     C16201   8.439   5.834  10.505  1.1854 -0.0590 -0.0488
  118MOL0     C16202   8.384   5.942  10.445  1.0283  0.2609 -1.4047
  118MOL0     C16203   8.456   6.036  10.374 -0.4211 -0.0674  0.0720
  118MOL0     C16204   8.592   6.024  10.360  0.0082  0.3032 -0.6648
  118MOL0     O16205   8.680   6.117  10.307  0.5183 -0.0782 -0.5958
  118MOL0     C16206   8.627   6.244  10.266  0.4167 -0.3025  0.9192
  118MOL0     C16207   8.735   6.334  10.212 -1.6638 -0.6537 -0.2749
  118MOL0     C16208   8.690   6.467  10.140  0.1435 -0.4781  0.7795
  118MOL0     C16209   8.615   6.578  10.221  0.3358  0.8053 -0.5014
  118MOL0     C16210   8.476   6.538  10.244  0.2613  0.0861  1.2249
  118MOL0     C16211   8.372   6.500  10.278  0.9133  0.9656 -0.2927
  118MOL0     C16212   8.648   5.914  10.428 -0.3183 -0.9973  0.5249
  118MOL0     C16213   8.576   5.816  10.495  1.0020  0.1132  0.1631
  118MOL0     C16214   8.636   5.696  10.545  0.1999  0.2716 -0.2009
  118MOL0     H16215   8.078   5.634  10.412 -4.3721 -4.0264 -1.0871
  118MOL0     H16216   7.894   5.493  10.474 -0.3112  0.1302 -0.5611
  118MOL0     H16217   7.763   5.425  10.890  2.1730 -0.4405  3.3059
  118MOL0     H16218   7.917   5.335  10.898 -0.1944 -0.0890 -0.0700
  118MOL0     H16219   7.655   5.219  10.899  0.5282  4.1893  0.2646
  118MOL0     H16220   7.708   5.201  10.731  0.5917 -0.5028  0.4144
  118MOL0     H16221   7.877   5.113  10.977  0.0909 -0.3689  0.5448
  118MOL0     H16222   7.780   5.010  10.887  1.9879 -0.6298  0.5867
  118MOL0     H16223   7.952   5.161  10.703  0.1680  0.6537  0.1501
  118MOL0     H16224   8.030   5.056  10.834 -0.9726 -2.1497 -0.1511
  118MOL0     H16225   7.809   4.953  10.653 -0.3127 -0.9131  1.9513
  118MOL0     H16226   7.914   4.871  10.765 -0.8616 -1.3046 -2.1786
  118MOL0     H16227   7.996   5.017  10.514  0.8285 -1.2583 -0.8143
  118MOL0     H16228   8.113   4.978  10.642  1.7076  0.1762 -1.9736
  118MOL0     H16229   7.918   4.797  10.477  0.1387  1.0544 -0.3965
  118MOL0     H16230   8.035   4.735  10.599 -1.4449 -0.2826 -0.6110
  118MOL0     H16231   8.072   4.796  10.313  0.8987  1.6443 -1.4109
  118MOL0     H16232   8.174   4.913  10.406  2.3261 -1.8340  2.8819
  118MOL0     H16233   8.404   4.831  10.515  1.6433  0.1545  0.0382
  118MOL0     H16234   8.619   4.682  10.538  0.4550 -1.0360 -2.5663
  118MOL0     H16235   8.596   4.507  10.489 -5.1077 -0.0550 -4.4511
  118MOL0     H16236   8.455   4.613  10.721  0.6090  0.1950  1.2558
  118MOL0     H16237   8.496   4.449  10.677 -1.4844  0.0625  0.8806
  118MOL0     H16238   8.721   4.458  10.776  0.1654 -0.2556  3.1559
  118MOL0     H16239   8.729   4.627  10.742  0.8256 -0.2723  1.3271
  118MOL0     H16240   8.561   4.670  10.919  1.3835  0.3433  0.3250
  118MOL0     H16241   8.534   4.508  10.941 -1.2410  0.7986 -0.1897
  118MOL0     H16242   8.667   4.318  10.990  1.6667 -0.7817 -1.3745
  118MOL0     H16243   8.823   4.017  11.079 -0.6110 -0.1946 -6.2683
  118MOL0     H16244   8.697   4.092  10.996  1.0395  0.6637 -1.1034
  118MOL0     H16245   8.691   4.056  11.178  1.6339  0.7452  1.2160
  118MOL0     H16246   9.023   3.871  11.305  0.6742  1.7382 -0.7273
  118MOL0     H16247   9.115   3.708  11.461 -2.8754  1.2678 -0.0454
  118MOL0     H16248   9.496   3.827  11.663 -2.2171  2.6623  0.9105
  118MOL0     H16249   9.402   3.832  11.808  3.1275 -0.3651  1.0703
  118MOL0     H16250   9.381   3.581  11.823  2.6482 -2.7196  2.0911
  118MOL0     H16251   9.470   3.573  11.676 -0.2301  1.6873 -1.4720
  118MOL0     H16252   9.598   3.726  11.919  0.6232  0.3695 -1.0201
  118MOL0     H16253   9.663   3.638  11.778 -0.7847 -0.2109 -0.0159
  118MOL0     H16254   9.544   3.428  11.891 -3.5244  2.5685  1.4362
  118MOL0     H16255   9.543   3.519  12.027 -0.4443  1.0171  0.0825
  118MOL0     H16256   9.775   3.423  11.879 -2.4274 -1.3194 -0.3651
  118MOL0     H16257   9.805   3.572  11.959 -0.1004 -0.4356 -2.7606
  118MOL0     H16258   9.747   3.466  12.179  0.7663  2.4184 -1.6405
  118MOL0     H16259   9.883   3.396  12.109  1.5347  1.0233 -3.1096
  118MOL0     H16260   9.762   3.197  12.034  0.2457 -1.5924  1.3639
  118MOL0     H16261   9.609   3.278  12.021  2.9657  1.3798 -2.4015
  118MOL0     H16262   9.581   3.282  12.269 -1.2956 -2.0505  1.4183
  118MOL0     H16263   9.751   3.223  12.278  1.0678  0.3635 -2.0501
  118MOL0     H16264   9.422   3.987  11.576  0.9402  0.5822 -2.0941
  118MOL0     H16265   9.303   4.161  11.407 -2.4077  0.1507 -2.7142
  118MOL0     H16266   9.050   4.414  11.277  0.7728 -1.2694 -2.3934
  118MOL0     H16267   8.937   4.591  11.174  0.1272 -0.3908  0.8063
  118MOL0     H16268   7.989   5.564  10.891 -1.8979  1.0741 -0.9549
  118MOL0     H16269   8.138   5.739  10.836 -2.1484  3.4316 -1.0822
  118MOL0     H16270   8.278   5.960  10.437  0.1732 -3.6857 -0.8305
  118MOL0     H16271   8.404   6.116  10.322  0.3891 -0.4530 -1.3742
  118MOL0     H16272   8.555   6.229  10.185 -1.3901 -1.0643  2.6111
  118MOL0     H16273   8.568   6.291  10.345 -0.5884 -0.4278  0.2608
  118MOL0     H16274   8.798   6.273  10.146  0.0640 -0.2006  0.8594
  118MOL0     H16275   8.812   6.357  10.287 -0.4365  3.2000 -2.3879
  118MOL0     H16276   8.775   6.523  10.099 -1.4092  0.7021 -0.9873
  118MOL0     H16277   8.637   6.441  10.048 -1.3544 -1.1504  1.7951
  118MOL0     H16278   8.608   6.669  10.159  0.4158 -0.0208 -1.7709
  118MOL0     H16279   8.680   6.600  10.306 -0.2775  1.1518 -0.1121
  118MOL0     H16280   8.272   6.473  10.306  0.2893  1.7758 -1.6153
  118MOL0     H16281   8.753   5.886  10.428 -0.0696 -0.4621  3.6273
  118MOL0     H16282   8.618   5.679  10.652  1.0217  4.5476  0.7864
  118MOL0     H16283   8.615   5.598  10.502  2.0723 -0.8167  1.2117
  118MOL0     H16284   8.745   5.701  10.538  0.1243 -0.2417 -2.2750
  119MOL0     O16285   0.200   5.430   6.696  0.0550 -0.1938  0.4396
  119MOL0     C16286   0.297   5.467   6.760 -0.5405 -0.1924  0.3879
  119MOL0     O16287   0.307   5.580   6.838  0.0341  0.3848  0.2724
  119MOL0     C16288   0.193   5.653   6.879 -0.6685  0.6515 -0.8326
  119MOL0     C16289   0.235   5.756   6.961 -0.0094 -0.3859  0.2777
  119MOL0     C16290   0.139   5.827   7.035  0.0436  0.9893  0.1431
  119MOL0     C16291   0.001   5.790   7.030 -1.1199 -0.7856 -0.0629
  119MOL0     O16292  -0.065   5.872   7.121 -0.3219  0.5862 -0.0197
  119MOL0     C16293  -0.195   5.828   7.159 -0.5885  0.8816 -0.5928
  119MOL0     C16294  -0.278   5.937   7.216 -0.1437 -1.6980 -0.2580
  119MOL0     C16295  -0.283   6.068   7.132  0.6382 -0.1616 -1.0532
  119MOL0     C16296  -0.159   6.158   7.154  0.0656 -0.1561  0.8407
  119MOL0     C16297  -0.169   6.291   7.077  0.0466  0.4644  0.2608
  119MOL0     C16298  -0.055   6.386   7.097 -0.7197 -0.2202  0.2271
  119MOL0     C16299  -0.073   6.531   7.030  0.1110 -0.2103 -1.0159
  119MOL0     C16300   0.045   6.622   7.041  0.5381 -0.9361  0.1184
  119MOL0     N16301   0.024   6.741   6.952 -0.3221 -0.4560  0.0734
  119MOL0     C16302   0.028   6.732   6.818  0.8063 -0.0388 -0.6620
  119MOL0     C16303   0.029   6.862   6.779 -0.1986  0.0030  0.3575
  119MOL0     C16304   0.010   6.904   6.638  0.2778 -0.5997  0.2191
  119MOL0     C16305  -0.132   6.956   6.604  0.7077  0.0618 -0.5862
  119MOL0     C16306  -0.174   6.972   6.455  0.0234 -0.1853  0.3477
  119MOL0     C16307  -0.209   6.849   6.376 -0.8955  1.2376  0.8054
  119MOL0     O16308  -0.258   6.879   6.245  0.2155 -0.1653 -0.3927
  119MOL0     C16309  -0.393   6.849   6.235  0.9196  0.6468 -0.5238
  119MOL0     C16310  -0.431   6.736   6.160  0.1465 -0.1960 -0.3854
  119MOL0     C16311  -0.571   6.712   6.148 -0.1628 -0.4115 -0.7031
  119MOL0     C16312  -0.608   6.580   6.084  1.3864 -0.3909  0.6053
  119MOL0     C16313  -0.668   6.809   6.202  0.0171  0.3946 -0.4276
  119MOL0     C16314  -0.815   6.792   6.191  0.1366  0.5388  0.5290
  119MOL0     O16315  -0.881   6.860   6.277  0.5558  0.2381  0.4292
  119MOL0     C16316  -1.018   6.872   6.261  0.0913  0.6777 -0.3339
  119MOL0     C16317  -1.101   6.875   6.142 -0.1219 -0.9532 -0.8920
  119MOL0     C16318  -1.234   6.904   6.151  0.1194 -0.1259  0.0775
  119MOL0     C16319  -1.304   6.929   6.273  0.1818 -0.1779  0.1859
  119MOL0     O16320  -1.436   6.942   6.263 -0.3687  0.3625 -0.1897
  119MOL0     C16321  -1.510   6.934   6.386  0.0930 -0.0884 -0.3487
  119MOL0     C16322  -1.663   6.941   6.357 -0.0641  0.4419  0.3478
  119MOL0     C16323  -1.735   6.994   6.476  0.5177 -0.6515  0.6337
  119MOL0     C16324  -1.738   6.892   6.600  0.2936  0.0789 -0.6794
  119MOL0     C16325  -1.753   6.969   6.723 -0.0055 -0.3476  0.7045
  119MOL0     C16326  -1.788   6.877   6.844  0.2333  0.3559 -0.5832
  119MOL0     C16327  -1.940   6.822   6.846  0.1021 -0.4271  0.1172
  119MOL0     C16328  -2.057   6.923   6.859 -0.4395  0.0698  0.5497
  119MOL0    Cl16329  -2.212   6.830   6.896  0.2988 -0.3788  0.3265
  119MOL0     C16330  -1.225   6.923   6.386  0.5577 -0.5550  0.1574
  119MOL0     C16331  -1.093   6.886   6.374 -1.1688  0.6053 -0.6652
  119MOL0     O16332  -0.861   6.706   6.120  0.8028  0.3604  0.8072
  119MOL0     C16333  -0.620   6.920   6.268 -0.2973 -0.5149 -0.1091
  119MOL0     C16334  -0.482   6.941   6.277 -0.2576 -0.9144 -0.4441
  119MOL0     N16335   0.005   6.932   6.890  0.6023 -0.6733  0.9453
  119MOL0     N16336   0.008   6.865   6.995 -0.0442 -0.0729  0.2644
  119MOL0     C16337  -0.040   5.679   6.952 -0.0830  0.1641 -0.5420
  119MOL0     C16338   0.059   5.613   6.872 -0.2622  0.4732  0.2246
  119MOL0     C16339   0.437   5.408   6.734 -0.9646  0.4971 -0.9532
  119MOL0     C16340   0.553   5.483   6.768  0.2540 -0.3911 -0.0502
  119MOL0     C16341   0.682   5.441   6.764 -0.1746  0.2939 -0.2879
  119MOL0     C16342   0.695   5.314   6.700 -0.4035  0.8124 -0.7906
  119MOL0     O16343   0.818   5.250   6.698  0.6463 -0.4850 -0.2314
  119MOL0     C16344   0.935   5.321   6.653  0.7669  0.2376 -0.4223
  119MOL0     C16345   0.923   5.358   6.499 -0.2849 -0.1131  0.7881
  119MOL0     C16346   1.060   5.404   6.444  0.0565 -0.3176 -0.5959
  119MOL0     C16347   1.060   5.428   6.293  0.3047 -0.2393 -1.0915
  119MOL0     C16348   1.028   5.569   6.258 -0.7531 -0.0901 -0.0509
  119MOL0     C16349   1.001   5.685   6.235  0.5602  0.7598 -0.1828
  119MOL0     C16350   0.588   5.245   6.644  0.0016  0.1297  0.2650
  119MOL0     C16351   0.454   5.279   6.668 -1.0966  0.4079  0.0219
  119MOL0     C16352   0.337   5.186   6.630 -1.0751  0.0994  0.2892
  119MOL0     H16353   0.339   5.785   6.962 -0.1979  0.3099  1.3156
  119MOL0     H16354   0.182   5.908   7.093 -0.2329  0.9710  0.3780
  119MOL0     H16355  -0.183   5.750   7.235 -1.8641 -0.0959 -1.3528
  119MOL0     H16356  -0.246   5.776   7.077 -2.1211  0.7427  0.4093
  119MOL0     H16357  -0.384   5.908   7.223  0.0771 -2.3023  0.7152
  119MOL0     H16358  -0.241   5.956   7.316  0.6538  2.6031 -1.1899
  119MOL0     H16359  -0.304   6.035   7.030 -0.0782  0.5630 -1.1466
  119MOL0     H16360  -0.366   6.133   7.160  1.3722  0.5821 -0.5670
  119MOL0     H16361  -0.146   6.185   7.259 -1.5534  1.8599  0.5793
  119MOL0     H16362  -0.073   6.100   7.118  0.7908  1.4201 -0.0916
  119MOL0     H16363  -0.269   6.335   7.088 -0.5832 -0.1849 -2.1824
  119MOL0     H16364  -0.179   6.274   6.969  0.3901  1.4889  0.0548
  119MOL0     H16365  -0.035   6.390   7.204  1.4396  2.3334 -0.1681
  119MOL0     H16366   0.038   6.346   7.055  0.2633  2.8794 -0.7713
  119MOL0     H16367  -0.155   6.583   7.081  3.0433  2.1686  1.6958
  119MOL0     H16368  -0.101   6.514   6.926 -1.1366  1.6673 -1.0312
  119MOL0     H16369   0.066   6.644   7.146 -0.9433  1.2902  0.0231
  119MOL0     H16370   0.136   6.567   7.015  0.8972 -0.0509 -0.5760
  119MOL0     H16371   0.014   6.645   6.753  1.8152 -0.5942 -0.1618
  119MOL0     H16372   0.046   6.829   6.567  1.2822  1.8263 -1.9947
  119MOL0     H16373   0.075   6.990   6.621  0.4495 -0.9328 -0.9117
  119MOL0     H16374  -0.195   6.879   6.648 -0.2303 -0.7331 -3.1267
  119MOL0     H16375  -0.146   7.053   6.653  2.9515 -0.6110  1.5792
  119MOL0     H16376  -0.255   7.045   6.450  1.1752  1.5198  3.8527
  119MOL0     H16377  -0.084   7.011   6.406  1.3610 -0.3466  2.5760
  119MOL0     H16378  -0.120   6.787   6.362 -0.9774  1.5492 -1.5020
  119MOL0     H16379  -0.272   6.791   6.443  0.1356 -0.8618  0.0589
  119MOL0     H16380  -0.367   6.661   6.115  0.4546  1.0513 -2.1072
  119MOL0     H16381  -0.527   6.519   6.042 -0.0643 -1.3293 -0.9356
  119MOL0     H16382  -0.674   6.592   5.998 -0.5504  0.0549  2.0770
  119MOL0     H16383  -0.659   6.515   6.156  4.1567  1.0675  4.1773
  119MOL0     H16384  -1.061   6.869   6.041  0.4799  1.9483 -0.9158
  119MOL0     H16385  -1.276   6.921   6.052 -0.1102  0.5679  0.2907
  119MOL0     H16386  -1.491   6.836   6.429  2.7628 -0.3426 -1.9293
  119MOL0     H16387  -1.480   7.002   6.467 -2.0647  0.0439  0.4264
  119MOL0     H16388  -1.701   7.001   6.274  2.1992  1.7181  0.1344
  119MOL0     H16389  -1.687   6.837   6.334  0.5990  0.6431 -1.4644
  119MOL0     H16390  -1.828   7.039   6.443  0.3704 -0.9222  0.6736
  119MOL0     H16391  -1.672   7.078   6.506 -0.3564  1.1297 -2.1521
  119MOL0     H16392  -1.653   6.824   6.590 -0.1522 -0.6289  0.2258
  119MOL0     H16393  -1.826   6.830   6.587  0.3456 -0.4641  1.2383
  119MOL0     H16394  -1.653   7.009   6.742 -0.6492  3.5394 -2.6044
  119MOL0     H16395  -1.829   7.047   6.713 -0.8011 -1.2425 -0.4941
  119MOL0     H16396  -1.773   6.923   6.942  0.0625 -1.8341  0.5338
  119MOL0     H16397  -1.723   6.789   6.839 -1.7179 -1.1093 -1.7659
  119MOL0     H16398  -1.955   6.746   6.923  4.0889  0.9627  2.5840
  119MOL0     H16399  -1.960   6.764   6.755 -1.8586 -1.5560  1.2253
  119MOL0     H16400  -2.047   6.982   6.768  0.2363 -1.5918 -0.5085
  119MOL0     H16401  -2.028   6.986   6.944  1.7917 -0.8366  0.5395
  119MOL0     H16402  -1.261   6.937   6.488  0.7769  1.9759 -0.0557
  119MOL0     H16403  -1.038   6.863   6.465 -3.0970 -1.3406  0.1117
  119MOL0     H16404  -0.686   6.996   6.307  0.5050  0.4988 -0.6785
  119MOL0     H16405  -0.444   7.028   6.331  1.4073 -3.1964  2.3512
  119MOL0     H16406  -0.146   5.657   6.938 -0.1884 -0.8648  1.4622
  119MOL0     H16407   0.011   5.537   6.811  3.2589  0.0265 -2.2293
  119MOL0     H16408   0.552   5.585   6.807  0.5347 -0.2951 -0.2920
  119MOL0     H16409   0.758   5.497   6.818 -1.4866 -0.7302  2.8600
  119MOL0     H16410   0.955   5.410   6.714 -0.4665  3.0788 -3.8466
  119MOL0     H16411   1.027   5.262   6.653  1.1992  0.8218  1.7162
  119MOL0     H16412   0.843   5.432   6.486 -0.6486 -0.7469 -0.8533
  119MOL0     H16413   0.906   5.266   6.442 -0.8587 -0.5162  1.5942
  119MOL0     H16414   1.106   5.486   6.500 -0.9016  1.6112 -2.4787
  119MOL0     H16415   1.115   5.310   6.454 -1.5758 -1.3207 -0.7211
  119MOL0     H16416   0.977   5.368   6.254 -2.2092  3.6064 -2.2352
  119MOL0     H16417   1.150   5.402   6.238 -0.4368 -0.9341 -2.0044
  119MOL0     H16418   1.000   5.791   6.221 -1.8555  0.7448 -0.5465
  119MOL0     H16419   0.620   5.153   6.596 -0.6906 -0.7713  1.4823
  119MOL0     H16420   0.267   5.227   6.557  0.3799 -0.6896 -1.6503
  119MOL0     H16421   0.358   5.086   6.589  3.8437  0.8766  0.3266
  119MOL0     H16422   0.272   5.164   6.715 -0.9838 -2.7280 -0.2540
  120MOL0     O16423   5.839   9.133   5.171  0.3132 -0.0281 -0.3249
  120MOL0     C16424   5.841   9.101   5.289  0.4263  1.1204 -1.5703
  120MOL0     O16425   5.897   8.989   5.347  0.0627  0.4418 -1.6564
  120MOL0     C16426   5.988   8.902   5.293  0.5181 -0.2383  0.2332
  120MOL0     C16427   6.066   8.814   5.372  0.4306 -0.7558 -1.2814
  120MOL0     C16428   6.161   8.732   5.319  0.2514  0.7646  0.2270
  120MOL0     C16429   6.200   8.741   5.191  0.7226  0.8020  1.2607
  120MOL0     O16430   6.282   8.640   5.157 -1.0161  0.4395 -0.0317
  120MOL0     C16431   6.269   8.582   5.024  0.4106  0.8859 -0.3257
  120MOL0     C16432   6.324   8.442   5.010  0.2100  0.0246  0.2733
  120MOL0     C16433   6.471   8.431   5.025  0.0388  0.5443 -0.6647
  120MOL0     C16434   6.520   8.290   5.031  0.3487 -0.8440  0.3650
  120MOL0     C16435   6.655   8.265   5.102 -0.5125  0.2294 -0.5229
  120MOL0     C16436   6.681   8.117   5.109 -0.4897  1.4964 -0.6668
  120MOL0     C16437   6.692   8.044   4.977  0.2338 -0.7026  0.2761
  120MOL0     C16438   6.785   8.113   4.867 -0.2825  0.0123 -0.1947
  120MOL0     N16439   6.922   8.124   4.919 -0.6419 -0.5038 -0.6092
  120MOL0     C16440   7.011   8.228   4.923 -0.2691 -1.1244 -0.7548
  120MOL0     C16441   7.114   8.183   5.006  0.7521 -0.6094  0.0590
  120MOL0     C16442   7.227   8.266   5.056 -0.6304 -0.6905 -0.7516
  120MOL0     C16443   7.355   8.272   4.982  0.3084 -0.6466  0.6188
  120MOL0     C16444   7.425   8.135   4.962 -0.9440  1.2503 -0.4511
  120MOL0     C16445   7.434   8.039   5.072 -1.3914 -0.3972  0.1573
  120MOL0     O16446   7.498   8.100   5.186  0.3782 -0.6409 -0.3334
  120MOL0     C16447   7.518   8.026   5.302  0.0969 -0.4804  0.1304
  120MOL0     C16448   7.587   8.098   5.407  0.4234  0.0819 -0.1733
  120MOL0     C16449   7.611   8.041   5.538  1.1348 -0.0997 -0.0149
  120MOL0     C16450   7.689   8.126   5.632 -1.0772  0.2098 -0.0128
  120MOL0     C16451   7.564   7.905   5.559 -0.1976 -0.2557 -0.4950
  120MOL0     C16452   7.588   7.827   5.683 -0.1007 -0.9259 -0.5183
  120MOL0     O16453   7.563   7.689   5.669 -0.3942 -0.2575  0.9261
  120MOL0     C16454   7.557   7.609   5.779  0.3742 -0.0823 -0.1476
  120MOL0     C16455   7.550   7.647   5.911  0.1022 -1.1113 -0.0140
  120MOL0     C16456   7.511   7.555   6.015 -0.1268 -0.4188 -0.0177
  120MOL0     C16457   7.484   7.424   5.976  0.4236 -1.6714 -0.4301
  120MOL0     O16458   7.427   7.320   6.049 -0.0345 -0.0210 -0.4706
  120MOL0     C16459   7.414   7.348   6.188  0.8362 -0.4247 -0.1855
  120MOL0     C16460   7.543   7.357   6.270 -0.3691  0.5699 -0.7250
  120MOL0     C16461   7.508   7.370   6.425 -0.0274 -0.9820  1.2315
  120MOL0     C16462   7.626   7.416   6.509  1.4398  0.1115 -0.2712
  120MOL0     C16463   7.604   7.438   6.654 -0.6773  0.1095 -0.4492
  120MOL0     C16464   7.703   7.364   6.743  0.5062  0.4113  0.6312
  120MOL0     C16465   7.683   7.214   6.717  1.1179  0.8059 -0.2574
  120MOL0     C16466   7.715   7.133   6.843  0.1924  0.5375 -0.5996
  120MOL0    Cl16467   7.905   7.104   6.861 -0.1329 -0.3211  0.3107
  120MOL0     C16468   7.515   7.388   5.853 -0.3334  0.0634 -0.5706
  120MOL0     C16469   7.557   7.476   5.758  0.2161  0.1510  0.6861
  120MOL0     O16470   7.643   7.888   5.778 -0.0158 -0.0647 -0.0646
  120MOL0     C16471   7.497   7.843   5.456  0.0751  0.0187  0.1429
  120MOL0     C16472   7.477   7.895   5.328 -0.2574 -0.5764 -0.0761
  120MOL0     N16473   7.075   8.057   5.046  0.1281  0.9122  0.1384
  120MOL0     N16474   6.974   8.015   4.993 -0.4091  0.6128 -0.0040
  120MOL0     C16475   6.135   8.825   5.104  0.2684  0.4463 -0.5719
  120MOL0     C16476   6.039   8.910   5.161 -0.1257 -0.5076  0.0262
  120MOL0     C16477   5.757   9.189   5.375 -0.0976 -0.3728 -0.1865
  120MOL0     C16478   5.762   9.324   5.354  0.3761 -0.8557 -0.0493
  120MOL0     C16479   5.683   9.417   5.436  0.2094  1.2849 -0.1388
  120MOL0     C16480   5.602   9.368   5.541 -0.0279  0.2636  0.9666
  120MOL0     O16481   5.526   9.456   5.607 -0.3331  0.4094  0.2770
  120MOL0     C16482   5.424   9.414   5.706 -0.1581  0.0288  1.2833
  120MOL0     C16483   5.327   9.522   5.761 -0.4009  1.1037  0.0527
  120MOL0     C16484   5.215   9.463   5.856  0.3271  0.6191 -0.5806
  120MOL0     C16485   5.131   9.577   5.919  0.0853 -0.7004  0.3239
  120MOL0     C16486   5.021   9.521   5.993  0.4623 -0.1278 -0.5333
  120MOL0     C16487   4.921   9.482   6.057 -1.1246 -0.2463 -0.7693
  120MOL0     C16488   5.609   9.235   5.576  0.0860  0.1820  0.1663
  120MOL0     C16489   5.689   9.150   5.494 -0.1752  0.4649  0.2980
  120MOL0     C16490   5.679   9.003   5.535  0.8759 -0.2080  0.2071
  120MOL0     H16491   6.050   8.805   5.480 -4.3456 -0.1139 -1.7197
  120MOL0     H16492   6.202   8.659   5.389 -0.2845  0.8547  0.6342
  120MOL0     H16493   6.320   8.638   4.945  1.1625  2.5833  1.2937
  120MOL0     H16494   6.162   8.568   5.006  0.6274 -1.5748 -0.0055
  120MOL0     H16495   6.270   8.384   5.086  1.6577  0.9669  2.1285
  120MOL0     H16496   6.309   8.401   4.910  2.6428 -2.0635  0.6639
  120MOL0     H16497   6.526   8.493   4.954 -2.1861  2.3728 -0.8929
  120MOL0     H16498   6.494   8.466   5.126  0.8720  0.0076 -0.6648
  120MOL0     H16499   6.452   8.232   5.093 -0.8277  0.7633  0.6437
  120MOL0     H16500   6.511   8.252   4.929  4.7137 -2.9778  0.5398
  120MOL0     H16501   6.650   8.307   5.203  1.0502  1.8737 -1.0859
  120MOL0     H16502   6.743   8.315   5.060  1.6346  0.7964  4.0577
  120MOL0     H16503   6.773   8.099   5.166 -0.4683  1.1230 -0.8188
  120MOL0     H16504   6.599   8.069   5.163  0.0328  0.2687 -0.9255
  120MOL0     H16505   6.596   8.028   4.928 -0.2013  1.5272  0.2799
  120MOL0     H16506   6.720   7.940   4.996  3.2705  0.0066  0.1364
  120MOL0     H16507   6.790   8.058   4.772 -1.2228  0.9846 -0.8252
  120MOL0     H16508   6.743   8.212   4.847  0.2162  1.0713  3.3169
  120MOL0     H16509   6.998   8.324   4.874 -1.0439 -0.8170  0.0206
  120MOL0     H16510   7.252   8.236   5.158 -0.3462 -2.1203 -1.2254
  120MOL0     H16511   7.174   8.362   5.064  1.4451  0.4207  0.5488
  120MOL0     H16512   7.328   8.305   4.881  1.4405  3.1930  1.4160
  120MOL0     H16513   7.420   8.344   5.033  2.1820 -2.2032  0.5607
  120MOL0     H16514   7.362   8.080   4.892 -1.5423 -1.3428  1.9590
  120MOL0     H16515   7.519   8.148   4.908 -0.9591 -1.4249 -1.2435
  120MOL0     H16516   7.335   8.007   5.107 -1.2205  0.8473  1.8902
  120MOL0     H16517   7.489   7.953   5.032 -2.2204  0.4071 -2.9237
  120MOL0     H16518   7.622   8.200   5.397  2.7211 -0.7166 -0.9781
  120MOL0     H16519   7.727   8.218   5.588 -2.2283  0.5153 -0.4126
  120MOL0     H16520   7.765   8.063   5.680 -1.2749  1.5115  2.1553
  120MOL0     H16521   7.622   8.163   5.710 -1.3544 -3.5100  1.7709
  120MOL0     H16522   7.554   7.750   5.946  1.2045 -0.8291 -0.8948
  120MOL0     H16523   7.509   7.592   6.117  5.2655  1.1970 -0.1727
  120MOL0     H16524   7.351   7.435   6.208  0.0288 -0.9211 -0.5549
  120MOL0     H16525   7.357   7.265   6.230 -0.3432  0.3848 -0.1451
  120MOL0     H16526   7.600   7.264   6.264 -1.0277  0.1832 -1.1244
  120MOL0     H16527   7.603   7.445   6.247 -0.0849  1.4571  2.9018
  120MOL0     H16528   7.479   7.268   6.452  2.0483 -1.7976  0.5313
  120MOL0     H16529   7.420   7.428   6.455  0.5816 -1.0689  3.3264
  120MOL0     H16530   7.666   7.511   6.473 -0.4013  0.7322 -0.7863
  120MOL0     H16531   7.692   7.331   6.493 -0.1043 -1.0926 -0.5132
  120MOL0     H16532   7.606   7.545   6.672  0.6838  0.5953 -3.0314
  120MOL0     H16533   7.507   7.393   6.679 -0.6096 -0.4327 -1.1251
  120MOL0     H16534   7.689   7.395   6.847 -1.1839 -0.0110  0.5648
  120MOL0     H16535   7.804   7.393   6.714  1.9652 -2.0873  2.7328
  120MOL0     H16536   7.743   7.167   6.638 -1.2753 -1.5276 -0.8445
  120MOL0     H16537   7.579   7.192   6.692  1.1028  0.4603  0.1021
  120MOL0     H16538   7.670   7.033   6.838 -0.4205  0.6866  1.0700
  120MOL0     H16539   7.670   7.168   6.937  4.5824 -1.3033  2.5612
  120MOL0     H16540   7.520   7.282   5.828  0.6483 -0.2989  1.0228
  120MOL0     H16541   7.553   7.440   5.656 -2.5483 -3.1403  1.7638
  120MOL0     H16542   7.461   7.741   5.463  0.4046 -0.0231  1.6363
  120MOL0     H16543   7.429   7.839   5.249  2.0916  0.2743 -2.2666
  120MOL0     H16544   6.164   8.842   5.001 -0.0347  0.0831 -0.7176
  120MOL0     H16545   6.001   8.984   5.091  1.3541 -1.0317 -1.3905
  120MOL0     H16546   5.809   9.369   5.267  0.6048  1.6333  1.2614
  120MOL0     H16547   5.654   9.519   5.411 -1.5029  0.1181 -3.5136
  120MOL0     H16548   5.363   9.344   5.648  3.3913 -2.5569  0.3204
  120MOL0     H16549   5.483   9.363   5.782  3.7636  1.6773 -0.3764
  120MOL0     H16550   5.279   9.567   5.674 -1.4010 -1.7306 -0.9679
  120MOL0     H16551   5.394   9.594   5.809 -0.4042 -0.2073  2.1949
  120MOL0     H16552   5.151   9.392   5.802 -1.9579 -0.4238  3.1259
  120MOL0     H16553   5.269   9.411   5.936 -0.9037 -1.3668 -0.9823
  120MOL0     H16554   5.098   9.637   5.833  0.3548 -0.2348  0.5433
  120MOL0     H16555   5.193   9.637   5.986  0.8930 -2.5828  1.3341
  120MOL0     H16556   4.860   9.451   6.140  0.4566 -1.6041 -0.0359
  120MOL0     H16557   5.561   9.187   5.661  0.2273 -1.8585 -0.8417
  120MOL0     H16558   5.755   8.958   5.599 -1.2148 -2.9146  0.9954
  120MOL0     H16559   5.579   8.995   5.579 -0.5534 -0.5256 -2.8572
  120MOL0     H16560   5.657   8.931   5.456  0.2397 -0.3721  0.5162
  121MOL0     O16561  10.633   5.116   9.974  0.2177  0.7940 -0.0925
  121MOL0     C16562  10.645   5.214   9.900  0.3334 -0.0578  0.6538
  121MOL0     O16563  10.540   5.295   9.877 -0.0727 -0.3449  0.3058
  121MOL0     C16564  10.432   5.284   9.958  0.2223 -0.6233 -0.6382
  121MOL0     C16565  10.360   5.166   9.987 -0.1545  0.2960 -0.0217
  121MOL0     C16566  10.245   5.170  10.072  0.8703 -0.0692  0.0399
  121MOL0     C16567  10.222   5.292  10.145  0.7392 -0.0286 -0.1856
  121MOL0     O16568  10.119   5.311  10.233 -0.5012  0.2326 -0.8318
  121MOL0     C16569  10.027   5.206  10.267  0.9000 -0.4511 -0.4331
  121MOL0     C16570   9.958   5.231  10.403 -0.1549  0.7914 -0.2903
  121MOL0     C16571   9.826   5.307  10.393  0.0781 -0.2864  0.2920
  121MOL0     C16572   9.780   5.349  10.527  0.4918  0.0896 -0.9778
  121MOL0     C16573   9.642   5.423  10.512 -0.5377  0.2760 -0.3908
  121MOL0     C16574   9.589   5.452  10.653 -0.3369 -0.2147 -1.2562
  121MOL0     C16575   9.452   5.521  10.636  0.7261  0.4094 -0.0440
  121MOL0     C16576   9.393   5.564  10.771 -0.1396 -0.3204 -0.3991
  121MOL0     N16577   9.248   5.583  10.751  0.7116  0.4061 -0.3034
  121MOL0     C16578   9.188   5.707  10.767  0.7356 -0.3504 -0.7595
  121MOL0     C16579   9.054   5.694  10.756  0.2480  0.5359 -0.4045
  121MOL0     C16580   8.939   5.789  10.764  1.1444  0.3629  0.2811
  121MOL0     C16581   8.935   5.883  10.890 -1.3482 -0.9815  0.3150
  121MOL0     C16582   8.866   5.831  11.007 -0.3419 -1.0025 -0.6709
  121MOL0     C16583   8.916   5.906  11.130  0.0634  0.8888 -0.2011
  121MOL0     O16584   9.053   5.868  11.182  0.2058 -0.0995  0.0574
  121MOL0     C16585   9.111   5.919  11.295 -0.6947  0.1296 -0.0962
  121MOL0     C16586   9.226   5.852  11.340 -0.0424  0.5289 -0.4950
  121MOL0     C16587   9.293   5.884  11.457  0.5114 -1.2352 -1.1164
  121MOL0     C16588   9.427   5.818  11.483 -0.4682  0.1440 -0.4116
  121MOL0     C16589   9.251   6.001  11.535  0.4954  0.4807  0.0329
  121MOL0     C16590   9.317   6.083  11.646  0.5760 -0.2047 -0.4631
  121MOL0     O16591   9.251   6.193  11.697 -0.2641  0.0563  0.7059
  121MOL0     C16592   9.312   6.245  11.809  0.3890  0.1427 -0.9403
  121MOL0     C16593   9.232   6.250  11.923 -0.5039  0.6916  0.6033
  121MOL0     C16594   9.287   6.305  12.040  0.0340  0.1382  0.1932
  121MOL0     C16595   9.410   6.360  12.044  1.0548 -1.2392  1.1403
  121MOL0     O16596   9.458   6.419  12.154  0.3893 -0.4166  1.1963
  121MOL0     C16597   9.374   6.478  12.257 -0.5310  0.3608  0.5553
  121MOL0     C16598   9.405   6.429  12.395 -0.2233  0.4270 -0.2258
  121MOL0     C16599   9.406   6.270  12.404 -0.5925 -0.2437  0.0099
  121MOL0     C16600   9.431   6.231  12.545  0.0457 -0.3485 -0.4118
  121MOL0     C16601   9.477   6.082  12.553  0.7469 -0.1473 -0.1248
  121MOL0     C16602   9.543   6.056  12.685 -0.2389 -0.5372  0.3194
  121MOL0     C16603   9.455   6.072  12.808 -0.7935 -0.3236 -0.6018
  121MOL0     C16604   9.355   5.966  12.834  0.1838 -0.2570 -0.3992
  121MOL0    Cl16605   9.280   6.029  12.995  0.0514 -0.3987  0.0272
  121MOL0     C16606   9.494   6.359  11.924  0.4776  0.0024 -0.9764
  121MOL0     C16607   9.442   6.299  11.811 -0.2270  1.0973  0.4360
  121MOL0     O16608   9.430   6.051  11.682  0.0147 -0.1168 -0.1301
  121MOL0     C16609   9.130   6.053  11.490  1.1633  0.1796  0.4014
  121MOL0     C16610   9.053   6.012  11.380 -0.8515 -0.3736  0.0517
  121MOL0     N16611   9.037   5.553  10.742  0.2824 -1.3008  0.1386
  121MOL0     N16612   9.144   5.496  10.730 -0.4061 -0.3619 -0.6537
  121MOL0     C16613  10.302   5.401  10.127 -0.2979 -0.5903  0.0274
  121MOL0     C16614  10.407   5.404  10.035 -0.1037  0.8375  0.8683
  121MOL0     C16615  10.775   5.259   9.848 -0.2514  0.0068  0.4350
  121MOL0     C16616  10.788   5.403   9.832 -0.1015 -0.2637  0.0232
  121MOL0     C16617  10.910   5.449   9.787 -0.5985  0.0299 -0.5240
  121MOL0     C16618  11.006   5.352   9.738  0.3599 -0.0747 -0.0391
  121MOL0     O16619  11.113   5.380   9.657 -1.0779 -0.2975 -0.5900
  121MOL0     C16620  11.104   5.506   9.588 -1.3614  0.2124  0.0928
  121MOL0     C16621  11.024   5.486   9.460 -0.3317 -0.6652  1.0366
  121MOL0     C16622  11.038   5.612   9.361  0.2080  0.0818  0.1860
  121MOL0     C16623  11.147   5.596   9.260 -1.0850 -0.1832 -0.1047
  121MOL0     C16624  11.212   5.725   9.239  0.4023  1.1441  0.5773
  121MOL0     C16625  11.271   5.822   9.208  0.5839  0.0284 -0.7119
  121MOL0     C16626  10.986   5.217   9.762 -0.4965 -0.3052  0.3617
  121MOL0     C16627  10.874   5.162   9.813  0.5066 -0.3713 -0.3134
  121MOL0     C16628  10.869   5.010   9.832  0.6778 -0.2883 -0.1186
  121MOL0     H16629  10.386   5.075   9.934 -0.9930  1.7472 -3.1374
  121MOL0     H16630  10.177   5.087  10.087 -0.3621  1.1038  1.2020
  121MOL0     H16631  10.088   5.117  10.284 -0.3548 -1.3150 -0.2701
  121MOL0     H16632   9.957   5.192  10.184 -1.6005 -0.1330  1.4950
  121MOL0     H16633   9.929   5.131  10.436 -1.0947  1.2456  0.2809
  121MOL0     H16634  10.026   5.281  10.472 -0.5441 -1.5134  1.8881
  121MOL0     H16635   9.855   5.395  10.336  1.0208 -1.6007 -1.3507
  121MOL0     H16636   9.749   5.250  10.341 -0.3704  1.0811 -0.5658
  121MOL0     H16637   9.765   5.270  10.601 -0.6090 -2.1334 -3.4091
  121MOL0     H16638   9.854   5.417  10.570 -2.2081  0.8422  3.0960
  121MOL0     H16639   9.569   5.362  10.459 -0.1973 -1.0139  0.5554
  121MOL0     H16640   9.656   5.515  10.454 -1.5430  1.4485  1.1423
  121MOL0     H16641   9.575   5.358  10.706  5.0780 -0.8472 -0.4385
  121MOL0     H16642   9.660   5.505  10.716 -1.5670 -0.0124  0.0155
  121MOL0     H16643   9.381   5.456  10.585  0.9547 -0.6589  0.9627
  121MOL0     H16644   9.455   5.611  10.573 -1.8053 -0.8687 -2.1804
  121MOL0     H16645   9.398   5.483  10.844 -2.1123 -1.0585 -1.0389
  121MOL0     H16646   9.448   5.647  10.816  0.4231 -1.1786  0.5394
  121MOL0     H16647   9.244   5.795  10.797 -0.9004  0.5542 -0.2499
  121MOL0     H16648   8.838   5.751  10.749  0.1957  3.0581 -0.8262
  121MOL0     H16649   8.949   5.860  10.681 -0.6881  1.3838  0.8848
  121MOL0     H16650   9.039   5.895  10.923 -1.5710  0.9595  0.4267
  121MOL0     H16651   8.889   5.982  10.878  0.4344  0.0919  1.7939
  121MOL0     H16652   8.759   5.851  11.000  0.4156  3.7753 -2.6587
  121MOL0     H16653   8.894   5.726  11.019  0.3356 -0.9806 -1.8798
  121MOL0     H16654   8.913   6.011  11.099 -1.8580  0.4622 -1.6115
  121MOL0     H16655   8.842   5.891  11.209  0.4164  0.9514  0.1492
  121MOL0     H16656   9.262   5.774  11.274  1.5395 -2.3800  3.4346
  121MOL0     H16657   9.439   5.797  11.590 -0.3111 -0.3632 -0.5260
  121MOL0     H16658   9.509   5.883  11.451  1.2473 -1.7462 -0.0619
  121MOL0     H16659   9.443   5.720  11.438 -1.7878 -0.7674  0.9712
  121MOL0     H16660   9.136   6.201  11.935  0.3325 -1.0407  0.5139
  121MOL0     H16661   9.226   6.288  12.128 -0.0883  0.1707  0.1154
  121MOL0     H16662   9.397   6.585  12.257 -0.4400  0.3535 -0.2256
  121MOL0     H16663   9.267   6.463  12.241 -0.5618  1.5879 -0.6418
  121MOL0     H16664   9.502   6.456  12.439 -0.3063 -2.2531  1.9388
  121MOL0     H16665   9.335   6.471  12.467  1.2696  4.0887 -0.7139
  121MOL0     H16666   9.477   6.213  12.344  0.1550 -0.5530  1.1445
  121MOL0     H16667   9.311   6.243  12.358 -0.6894 -0.0572  0.0956
  121MOL0     H16668   9.340   6.236  12.606  2.1081 -0.3766  2.9360
  121MOL0     H16669   9.495   6.305  12.593 -0.8027  2.1423 -2.9034
  121MOL0     H16670   9.382   6.029  12.542 -0.5382  2.1741 -0.9517
  121MOL0     H16671   9.565   6.063  12.490  2.2832  0.8021  1.6376
  121MOL0     H16672   9.618   6.136  12.687  1.6799 -2.2697  2.8887
  121MOL0     H16673   9.607   5.968  12.684  1.8963  0.9333 -0.5889
  121MOL0     H16674   9.403   6.169  12.810  1.7324  1.1042  0.1030
  121MOL0     H16675   9.512   6.075  12.901 -2.1818 -1.3235  0.3196
  121MOL0     H16676   9.393   5.865  12.846 -1.8897 -0.8719  1.7451
  121MOL0     H16677   9.287   5.964  12.748  3.3802  0.5108 -3.1943
  121MOL0     H16678   9.600   6.384  11.930  0.5710 -0.6382  2.8825
  121MOL0     H16679   9.513   6.288  11.729 -1.3701 -1.2221 -0.3393
  121MOL0     H16680   9.087   6.131  11.552  1.8690 -0.8948  2.3357
  121MOL0     H16681   8.957   6.062  11.374 -1.5640 -1.7913 -5.2491
  121MOL0     H16682  10.295   5.491  10.188  3.3046 -1.5779  2.2250
  121MOL0     H16683  10.457   5.499  10.020 -1.0075  1.1926  0.0583
  121MOL0     H16684  10.703   5.467   9.854 -0.9247 -1.7819  1.5662
  121MOL0     H16685  10.929   5.556   9.782 -2.4563  0.3484 -2.1769
  121MOL0     H16686  11.065   5.591   9.647 -0.9268 -0.4382  1.3567
  121MOL0     H16687  11.206   5.538   9.564 -0.6357 -1.4721  0.8106
  121MOL0     H16688  10.918   5.488   9.486 -0.6037 -1.1541  0.0074
  121MOL0     H16689  11.056   5.394   9.409  1.2399 -0.9266  2.4051
  121MOL0     H16690  10.948   5.619   9.299  1.1612 -1.8302 -1.5179
  121MOL0     H16691  11.048   5.705   9.419  2.5039  0.3707 -0.5722
  121MOL0     H16692  11.096   5.550   9.174  1.3525 -1.7986 -0.7879
  121MOL0     H16693  11.216   5.516   9.288 -2.0269 -1.8559 -2.2492
  121MOL0     H16694  11.331   5.901   9.167  2.7616 -0.3361  1.5150
  121MOL0     H16695  11.063   5.151   9.722 -0.5390 -0.4829  0.5692
  121MOL0     H16696  10.767   4.975   9.813 -0.8220  3.4916  0.0825
  121MOL0     H16697  10.930   4.956   9.760  0.4536 -1.6184  0.6524
  121MOL0     H16698  10.894   4.982   9.935  0.4228 -3.5786 -0.8455
  122MOL0     O16699   4.183   2.559   2.211 -0.0995  0.5863  1.1159
  122MOL0     C16700   4.201   2.608   2.096  0.4027  0.3998 -0.5821
  122MOL0     O16701   4.165   2.546   1.976  0.0795  0.0068 -0.1126
  122MOL0     C16702   4.106   2.426   1.979 -0.5420 -0.3510 -0.1139
  122MOL0     C16703   4.191   2.318   1.955 -0.4003 -0.1098 -0.0068
  122MOL0     C16704   4.141   2.189   1.938  0.9435  0.4697 -0.9921
  122MOL0     C16705   3.998   2.172   1.951  0.3756  0.0082  0.2499
  122MOL0     O16706   3.958   2.040   1.951 -0.0680 -0.1344 -0.0828
  122MOL0     C16707   3.843   2.014   1.860 -0.1301  0.5937 -0.3487
  122MOL0     C16708   3.808   1.869   1.824  0.4711  0.2293 -0.4874
  122MOL0     C16709   3.907   1.813   1.727 -0.0020 -0.6233  0.4785
  122MOL0     C16710   3.905   1.654   1.722 -0.8236 -1.2734 -0.3741
  122MOL0     C16711   4.047   1.593   1.680  0.2983 -0.2873 -0.5484
  122MOL0     C16712   4.050   1.440   1.677  0.2210 -0.8177 -0.6476
  122MOL0     C16713   3.923   1.367   1.615 -0.8804  0.2753 -0.2306
  122MOL0     C16714   3.908   1.387   1.464 -0.6651  0.3062  0.6714
  122MOL0     N16715   3.787   1.327   1.413  0.3086 -0.6163  0.0357
  122MOL0     C16716   3.781   1.204   1.359 -0.0761 -0.4442 -0.0772
  122MOL0     C16717   3.651   1.201   1.323  0.8442 -0.6742 -1.3491
  122MOL0     C16718   3.588   1.095   1.228  0.2832 -0.0465  0.3132
  122MOL0     C16719   3.440   1.086   1.230 -0.2443  0.5908  0.0514
  122MOL0     C16720   3.401   0.996   1.113 -0.9527  0.3959  0.4564
  122MOL0     C16721   3.256   0.938   1.108 -0.2242  0.6473  0.0926
  122MOL0     O16722   3.161   1.036   1.155  0.1236  0.4734  0.8883
  122MOL0     C16723   3.036   1.006   1.184 -0.6016 -0.2683  0.0977
  122MOL0     C16724   2.962   0.890   1.198  0.4019 -0.6898 -0.7561
  122MOL0     C16725   2.825   0.875   1.237  0.4701 -0.1316  0.3806
  122MOL0     C16726   2.764   0.738   1.238  0.6493 -0.4597  0.0588
  122MOL0     C16727   2.757   0.997   1.258  0.7166 -0.2294  0.4779
  122MOL0     C16728   2.610   1.014   1.279 -0.7204 -0.8656  0.0812
  122MOL0     O16729   2.530   0.911   1.240 -0.1140  0.4302  0.0107
  122MOL0     C16730   2.404   0.914   1.292 -0.8618 -0.1551  0.0052
  122MOL0     C16731   2.314   1.018   1.265  0.3256  0.4851 -0.6039
  122MOL0     C16732   2.186   1.025   1.336  0.2200  0.3904  0.4848
  122MOL0     C16733   2.149   0.918   1.418 -0.1719 -0.0254  0.2854
  122MOL0     O16734   2.018   0.930   1.466  0.7078 -0.2303  0.5519
  122MOL0     C16735   1.956   0.805   1.513 -0.5854  0.4082  0.3104
  122MOL0     C16736   1.807   0.804   1.474  0.8219 -0.3269 -0.3615
  122MOL0     C16737   1.729   0.930   1.536  0.3387  0.4502  0.1588
  122MOL0     C16738   1.583   0.942   1.486  0.0707  0.9176  0.3899
  122MOL0     C16739   1.494   0.834   1.550  0.3945 -0.8205  0.3582
  122MOL0     C16740   1.350   0.882   1.542 -0.0140 -0.0156 -1.3464
  122MOL0     C16741   1.260   0.790   1.618  1.1500 -0.5789  0.3609
  122MOL0     C16742   1.113   0.831   1.601 -0.4546 -0.5263  0.7549
  122MOL0    Cl16743   0.996   0.742   1.706 -0.3539 -0.1517  0.4977
  122MOL0     C16744   2.242   0.819   1.453 -1.0527  0.8413  0.4356
  122MOL0     C16745   2.367   0.814   1.384  0.3627  0.7612  0.2642
  122MOL0     O16746   2.570   1.110   1.344  0.5190 -0.2690 -0.1437
  122MOL0     C16747   2.824   1.115   1.256 -0.0340 -0.1351 -0.8371
  122MOL0     C16748   2.963   1.122   1.212 -0.3656 -0.1630  0.1806
  122MOL0     N16749   3.582   1.304   1.380  0.1359  0.2503  0.3286
  122MOL0     N16750   3.673   1.392   1.411  0.3673  0.1563 -0.4986
  122MOL0     C16751   3.908   2.277   1.984  0.6737 -0.7121  0.0737
  122MOL0     C16752   3.962   2.407   1.992 -1.0219 -0.9307  0.0358
  122MOL0     C16753   4.282   2.733   2.087 -0.9487  0.7220 -0.3978
  122MOL0     C16754   4.233   2.825   1.995  0.0521  0.6551 -0.6795
  122MOL0     C16755   4.292   2.949   1.977 -0.7629  0.6875  0.3513
  122MOL0     C16756   4.405   2.988   2.058  1.2624  0.2784  0.5519
  122MOL0     O16757   4.444   3.111   2.038 -0.8968  0.5340  0.8302
  122MOL0     C16758   4.554   3.168   2.107  0.5669  0.0692 -0.9437
  122MOL0     C16759   4.532   3.326   2.108  0.6278 -0.2252  0.2759
  122MOL0     C16760   4.513   3.377   1.968 -0.7225 -0.5803  0.5780
  122MOL0     C16761   4.526   3.526   1.942 -0.0571  0.3342  0.5729
  122MOL0     C16762   4.652   3.577   1.986  0.2371 -0.0192 -0.9685
  122MOL0     C16763   4.754   3.610   2.046 -0.9877  0.2874  0.6781
  122MOL0     C16764   4.444   2.903   2.162  0.0644  0.9030 -1.5643
  122MOL0     C16765   4.386   2.774   2.180  0.6807 -0.3788  0.3560
  122MOL0     C16766   4.447   2.687   2.292  0.7783  0.1354  0.7221
  122MOL0     H16767   4.299   2.334   1.957 -0.3822 -0.2823  0.8489
  122MOL0     H16768   4.216   2.114   1.914  2.5942  0.7115  2.7290
  122MOL0     H16769   3.873   2.059   1.765 -1.6236  1.3110 -0.5128
  122MOL0     H16770   3.756   2.060   1.907 -0.4846 -1.0068  0.6443
  122MOL0     H16771   3.802   1.817   1.920  1.6082  0.7353 -0.1269
  122MOL0     H16772   3.711   1.878   1.774  0.1086  1.5826  0.3954
  122MOL0     H16773   3.907   1.851   1.624 -1.0229 -0.4020  0.5543
  122MOL0     H16774   4.002   1.856   1.759  1.5618  0.0040 -4.1885
  122MOL0     H16775   3.869   1.611   1.816 -0.4932 -3.7174 -1.2829
  122MOL0     H16776   3.832   1.624   1.646  1.8961  0.6413 -4.0795
  122MOL0     H16777   4.119   1.627   1.754 -2.0125 -0.2038  1.8308
  122MOL0     H16778   4.059   1.625   1.577 -3.1030  0.9149 -0.7073
  122MOL0     H16779   4.138   1.404   1.624  1.0814  0.5805 -0.2163
  122MOL0     H16780   4.066   1.400   1.777 -2.0619 -2.8752 -0.9985
  122MOL0     H16781   3.832   1.382   1.673 -1.3009  0.8003 -1.0147
  122MOL0     H16782   3.941   1.260   1.633  1.8131  0.6589 -0.2581
  122MOL0     H16783   3.912   1.494   1.445  3.2044  0.4053  1.3310
  122MOL0     H16784   3.983   1.347   1.395 -0.4436  0.6660  0.7027
  122MOL0     H16785   3.867   1.147   1.325  0.1194  0.7353 -1.6925
  122MOL0     H16786   3.633   0.997   1.247  1.4305  0.4774  0.3507
  122MOL0     H16787   3.623   1.127   1.130 -0.5800  0.8666  0.2811
  122MOL0     H16788   3.427   1.036   1.326  2.4157 -1.0770 -0.3474
  122MOL0     H16789   3.392   1.185   1.227 -0.2632  0.5667 -1.9672
  122MOL0     H16790   3.428   1.054   1.024  3.4271  0.6845  1.7479
  122MOL0     H16791   3.465   0.908   1.108 -1.3727 -0.2503  4.2751
  122MOL0     H16792   3.220   0.905   1.010 -0.9052  1.9314 -0.1124
  122MOL0     H16793   3.258   0.849   1.171  1.4877 -0.7435 -1.8062
  122MOL0     H16794   3.021   0.802   1.174 -0.3376 -0.8981 -1.8828
  122MOL0     H16795   2.838   0.658   1.237 -0.4854 -1.6501  2.4670
  122MOL0     H16796   2.693   0.722   1.156  1.4941 -2.8941 -0.2772
  122MOL0     H16797   2.707   0.727   1.331  0.0874  0.2363 -0.1844
  122MOL0     H16798   2.355   1.094   1.199  1.8639  0.1078 -0.1189
  122MOL0     H16799   2.132   1.118   1.351 -0.8953 -0.2021  0.2463
  122MOL0     H16800   2.010   0.721   1.469  1.0254  1.0296  1.0194
  122MOL0     H16801   1.961   0.797   1.622 -2.1509  1.8504  0.5331
  122MOL0     H16802   1.795   0.784   1.368  2.5040 -1.6896 -0.3437
  122MOL0     H16803   1.774   0.711   1.521  1.9447 -1.3931 -1.6074
  122MOL0     H16804   1.778   1.022   1.504  0.5915 -0.1107 -1.1401
  122MOL0     H16805   1.726   0.922   1.645 -1.8947  2.0735  0.2749
  122MOL0     H16806   1.587   0.916   1.380 -0.5176 -3.0513  1.1537
  122MOL0     H16807   1.551   1.044   1.508  1.2887  0.9411  2.2458
  122MOL0     H16808   1.518   0.737   1.506 -1.7809 -0.7961 -1.0162
  122MOL0     H16809   1.507   0.829   1.658 -2.5250 -1.8315  0.7623
  122MOL0     H16810   1.317   0.878   1.437 -3.9091  1.5619 -0.3456
  122MOL0     H16811   1.334   0.981   1.584 -2.1974 -1.3030  1.1557
  122MOL0     H16812   1.296   0.782   1.721 -0.3207 -3.5261  0.7325
  122MOL0     H16813   1.276   0.694   1.569  0.6950  0.7419 -2.5749
  122MOL0     H16814   1.081   0.816   1.498 -4.0303 -1.6425  1.8716
  122MOL0     H16815   1.096   0.934   1.634 -1.8544 -0.2033 -0.8749
  122MOL0     H16816   2.209   0.736   1.515  1.1551  0.1312  0.7352
  122MOL0     H16817   2.435   0.731   1.404 -0.6705  0.3736  2.4983
  122MOL0     H16818   2.780   1.211   1.281  0.7712  0.2857 -1.0150
  122MOL0     H16819   3.014   1.217   1.205 -1.1403  0.1853 -1.0404
  122MOL0     H16820   3.804   2.249   2.002  1.1575 -2.1614  0.7643
  122MOL0     H16821   3.889   2.487   1.992 -1.3333 -1.1696 -1.6448
  122MOL0     H16822   4.141   2.786   1.953  1.1331 -3.2822  0.2027
  122MOL0     H16823   4.247   3.020   1.908 -0.1145  2.6699  1.8715
  122MOL0     H16824   4.547   3.133   2.210  2.9827 -1.6912 -1.2958
  122MOL0     H16825   4.652   3.129   2.077  0.3837 -0.1441 -1.2744
  122MOL0     H16826   4.623   3.368   2.153  1.3303 -1.0348 -0.3518
  122MOL0     H16827   4.444   3.349   2.168  2.6963  0.9308  3.1271
  122MOL0     H16828   4.588   3.327   1.906  0.4376  0.0048  1.4631
  122MOL0     H16829   4.418   3.338   1.932 -0.1211 -1.4071 -0.1607
  122MOL0     H16830   4.447   3.584   1.989  0.7622  3.5772 -1.7016
  122MOL0     H16831   4.509   3.542   1.835 -1.5224 -0.0126  0.7336
  122MOL0     H16832   4.849   3.629   2.092  0.2271 -2.0978 -0.6831
  122MOL0     H16833   4.523   2.929   2.231  1.4340 -0.7158 -2.4432
  122MOL0     H16834   4.377   2.700   2.376  1.9303 -1.3409  1.9619
  122MOL0     H16835   4.458   2.583   2.260  2.2856  1.0670 -2.2062
  122MOL0     H16836   4.544   2.727   2.322  2.6282 -2.4650 -1.4048
  123MOL0     O16837   9.441   1.676   1.297 -0.7832 -0.3665 -0.2600
  123MOL0     C16838   9.411   1.728   1.187 -0.0724 -0.5750  0.8407
  123MOL0     O16839   9.286   1.776   1.163  0.7844  0.2078  0.3956
  123MOL0     C16840   9.199   1.744   1.263 -0.7670  0.5640  1.1483
  123MOL0     C16841   9.189   1.820   1.383  0.1051 -0.5360  1.2305
  123MOL0     C16842   9.084   1.796   1.472 -0.3199  0.2157  0.2793
  123MOL0     C16843   9.006   1.685   1.459  0.3028 -0.1958 -1.0719
  123MOL0     O16844   8.921   1.647   1.557  0.6047 -0.9294 -0.3982
  123MOL0     C16845   8.835   1.741   1.628 -0.1318 -0.1143  0.3396
  123MOL0     C16846   8.708   1.669   1.680  0.2332  0.9632 -0.6633
  123MOL0     C16847   8.592   1.634   1.588  0.1318  0.5102 -0.2336
  123MOL0     C16848   8.503   1.515   1.642 -0.4923 -0.5698 -0.5816
  123MOL0     C16849   8.445   1.418   1.537 -0.4187 -0.4666 -0.4057
  123MOL0     C16850   8.556   1.339   1.463 -0.0995  0.8574 -0.1487
  123MOL0     C16851   8.486   1.224   1.376  0.0358  0.2543 -0.2865
  123MOL0     C16852   8.580   1.153   1.283  0.4803  0.5445 -0.3204
  123MOL0     N16853   8.675   1.231   1.208 -0.2335 -1.0000 -0.2096
  123MOL0     C16854   8.653   1.349   1.141  0.2394  0.3638  1.0495
  123MOL0     C16855   8.776   1.389   1.095  0.0543  0.4364  1.2411
  123MOL0     C16856   8.812   1.519   1.030 -0.1516  0.0605  0.3193
  123MOL0     C16857   8.702   1.625   1.048 -1.6744 -0.0554 -0.4451
  123MOL0     C16858   8.739   1.762   0.982 -0.0451  0.3313 -0.4601
  123MOL0     C16859   8.636   1.789   0.877  0.3544  0.2436  0.0164
  123MOL0     O16860   8.664   1.919   0.816 -0.7559  1.6787  0.3855
  123MOL0     C16861   8.682   1.898   0.683  0.5195  0.8042  0.0925
  123MOL0     C16862   8.606   1.969   0.595 -0.3825  0.2436  0.2315
  123MOL0     C16863   8.626   1.956   0.455 -0.8170 -0.0893 -0.6433
  123MOL0     C16864   8.555   2.042   0.350 -0.2512  0.0462  0.2525
  123MOL0     C16865   8.732   1.870   0.406 -0.0755  0.4448  0.0560
  123MOL0     C16866   8.771   1.860   0.263  0.0917 -1.4275 -0.3325
  123MOL0     O16867   8.804   1.733   0.227  0.8831  0.3228 -0.6504
  123MOL0     C16868   8.827   1.709   0.097 -0.5263  0.6260 -0.0350
  123MOL0     C16869   8.725   1.738   0.009 -0.8461 -0.0415 -0.5970
  123MOL0     C16870   8.755   1.724  -0.123 -0.1212 -0.0587  0.7798
  123MOL0     C16871   8.879   1.673  -0.178 -0.5498  0.6740 -0.3021
  123MOL0     O16872   8.921   1.664  -0.311 -0.0367  0.0938 -0.7356
  123MOL0     C16873   8.848   1.732  -0.412 -0.3806 -0.4601 -1.1350
  123MOL0     C16874   8.925   1.720  -0.549  0.1633  0.2684 -0.0801
  123MOL0     C16875   9.067   1.778  -0.523  0.1129 -0.4239  0.8719
  123MOL0     C16876   9.155   1.766  -0.641 -0.3713  1.2858 -0.8882
  123MOL0     C16877   9.103   1.858  -0.743 -0.1865  0.5378  1.1543
  123MOL0     C16878   9.222   1.891  -0.837  0.9392 -0.5125  0.1653
  123MOL0     C16879   9.189   1.992  -0.957 -0.0387 -1.0071 -1.3527
  123MOL0     C16880   9.327   2.018  -1.035  0.9711  0.4684 -0.0075
  123MOL0    Cl16881   9.336   2.169  -1.134  0.2226 -0.0970  0.3847
  123MOL0     C16882   8.973   1.638  -0.077  0.6447 -0.0402  0.1675
  123MOL0     C16883   8.955   1.659   0.057 -0.2806  1.0010 -0.1588
  123MOL0     O16884   8.771   1.960   0.197 -0.5114 -0.0782  1.2209
  123MOL0     C16885   8.811   1.806   0.506  0.1213 -0.1261  0.0681
  123MOL0     C16886   8.778   1.812   0.642 -0.1427 -0.5241  0.3474
  123MOL0     N16887   8.870   1.297   1.130  0.0523  0.2553  0.3227
  123MOL0     N16888   8.806   1.203   1.193  0.5236  0.0309 -0.4131
  123MOL0     C16889   9.024   1.594   1.351 -0.3474  0.8142  0.2669
  123MOL0     C16890   9.114   1.628   1.249  0.1439 -0.2786 -0.3177
  123MOL0     C16891   9.516   1.756   1.092  0.0712 -0.7236  0.2805
  123MOL0     C16892   9.492   1.863   1.003  1.1874 -0.6395 -0.0702
  123MOL0     C16893   9.589   1.911   0.919 -0.7929  0.6145  0.1809
  123MOL0     C16894   9.716   1.852   0.920  0.8645 -1.0134 -0.3024
  123MOL0     O16895   9.819   1.904   0.848 -0.4638 -0.5179  0.1751
  123MOL0     C16896   9.928   1.968   0.917 -0.2233 -0.3510 -0.0075
  123MOL0     C16897  10.034   2.029   0.817  0.8943 -0.5508 -0.2278
  123MOL0     C16898  10.093   1.929   0.726  0.2793 -0.7230 -0.5073
  123MOL0     C16899  10.197   2.003   0.639  0.8059  0.1318 -0.0889
  123MOL0     C16900  10.132   2.096   0.549 -0.1136  0.3406 -0.0577
  123MOL0     C16901  10.071   2.157   0.464  0.4598  0.8917  0.2411
  123MOL0     C16902   9.738   1.733   1.006  0.2719  0.0526  0.9367
  123MOL0     C16903   9.641   1.680   1.085  0.7528 -0.4627  0.6534
  123MOL0     C16904   9.687   1.558   1.174  0.2779 -0.1964  0.3427
  123MOL0     H16905   9.231   1.917   1.408  0.0335 -0.6765  1.9295
  123MOL0     H16906   9.069   1.870   1.549 -3.3008  0.9969 -0.9201
  123MOL0     H16907   8.799   1.817   1.557  0.2648 -0.7879 -0.6007
  123MOL0     H16908   8.898   1.787   1.705 -1.2722 -0.5370  1.5589
  123MOL0     H16909   8.733   1.572   1.725  1.5079  2.3038  1.7343
  123MOL0     H16910   8.651   1.733   1.747  0.4141  1.8615 -1.3491
  123MOL0     H16911   8.525   1.719   1.573 -0.0743  0.4353  0.2635
  123MOL0     H16912   8.634   1.606   1.491 -0.3034  1.9417 -0.8654
  123MOL0     H16913   8.555   1.437   1.699 -0.1868 -1.2790 -1.7976
  123MOL0     H16914   8.417   1.557   1.694 -0.3257 -0.4547 -0.3978
  123MOL0     H16915   8.387   1.474   1.463  0.1466 -0.2577 -0.7047
  123MOL0     H16916   8.379   1.351   1.592  0.0496  0.3511  1.2076
  123MOL0     H16917   8.616   1.406   1.400  1.2684 -0.3740 -0.2129
  123MOL0     H16918   8.630   1.296   1.531 -0.3406 -0.3206 -0.6042
  123MOL0     H16919   8.404   1.269   1.320 -2.4955  0.0380  2.9147
  123MOL0     H16920   8.443   1.159   1.453 -0.0779 -0.3677 -0.8699
  123MOL0     H16921   8.632   1.072   1.335  2.4515  2.3226  0.6154
  123MOL0     H16922   8.514   1.097   1.216  1.4655 -0.7035 -0.2892
  123MOL0     H16923   8.564   1.410   1.152  0.4204  0.3305  3.0007
  123MOL0     H16924   8.841   1.521   0.924 -1.6755  2.2755 -0.1425
  123MOL0     H16925   8.898   1.551   1.089  2.1242 -2.4525 -1.4186
  123MOL0     H16926   8.607   1.590   1.007  0.7819 -4.7279 -2.9390
  123MOL0     H16927   8.687   1.635   1.156 -0.9769 -1.8600 -0.1475
  123MOL0     H16928   8.736   1.833   1.064 -0.0204 -1.5133  1.2119
  123MOL0     H16929   8.838   1.742   0.939  1.8974  3.1231  2.3470
  123MOL0     H16930   8.630   1.702   0.812  2.4200 -0.4882  0.7287
  123MOL0     H16931   8.548   1.810   0.939  1.8306  0.3545  2.1984
  123MOL0     H16932   8.528   2.031   0.638 -0.8085  0.3375 -0.6508
  123MOL0     H16933   8.465   2.090   0.388 -1.7943 -0.2320 -2.7651
  123MOL0     H16934   8.517   1.977   0.271 -1.7039  1.5816 -0.3710
  123MOL0     H16935   8.617   2.126   0.315  0.8183 -1.2261 -1.0515
  123MOL0     H16936   8.630   1.754   0.060 -1.4631 -1.2256 -1.3339
  123MOL0     H16937   8.669   1.749  -0.184 -1.1756  1.0494  2.6299
  123MOL0     H16938   8.752   1.683  -0.429 -0.8244  0.4138 -1.1970
  123MOL0     H16939   8.845   1.839  -0.390  2.8788 -0.2259 -1.2921
  123MOL0     H16940   8.938   1.616  -0.582  1.8659  0.1275  0.9636
  123MOL0     H16941   8.870   1.766  -0.632 -0.7023 -3.4591 -1.8196
  123MOL0     H16942   9.102   1.711  -0.445 -0.8610 -0.4586  1.2951
  123MOL0     H16943   9.067   1.878  -0.479  0.0103  0.6867 -1.4903
  123MOL0     H16944   9.179   1.661  -0.663  0.9061  0.6982  2.6769
  123MOL0     H16945   9.257   1.793  -0.613  0.8092 -2.5430 -0.8880
  123MOL0     H16946   9.023   1.812  -0.803  0.3668  1.0434 -0.0056
  123MOL0     H16947   9.068   1.943  -0.684  2.3728  1.2286  1.8089
  123MOL0     H16948   9.254   1.798  -0.884 -2.5135 -0.6546 -2.3577
  123MOL0     H16949   9.305   1.923  -0.775 -1.0867 -0.6449  3.1468
  123MOL0     H16950   9.159   2.088  -0.914 -0.8950 -0.6036 -2.7557
  123MOL0     H16951   9.114   1.957  -1.029 -2.7150  1.1120  0.1891
  123MOL0     H16952   9.334   1.932  -1.102 -0.7198 -0.5001  1.0080
  123MOL0     H16953   9.412   2.019  -0.966 -1.0481 -1.4107  2.7296
  123MOL0     H16954   9.070   1.603  -0.112  0.7932  1.4974 -1.0710
  123MOL0     H16955   9.022   1.633   0.138  0.3257  1.1490 -0.6061
  123MOL0     H16956   8.888   1.733   0.483 -0.7200 -2.0295  2.7497
  123MOL0     H16957   8.836   1.767   0.722 -2.3803 -0.3249  2.2071
  123MOL0     H16958   8.963   1.504   1.350 -2.2379  1.9500  2.5613
  123MOL0     H16959   9.133   1.544   1.183  1.5953 -1.9941  2.1208
  123MOL0     H16960   9.402   1.924   0.999  1.5099 -0.2129 -3.0518
  123MOL0     H16961   9.576   1.988   0.843 -2.3154 -1.4068 -1.7382
  123MOL0     H16962   9.898   2.045   0.989  1.9134 -0.6130  1.2465
  123MOL0     H16963   9.987   1.902   0.981  1.8950  0.5787 -0.9269
  123MOL0     H16964  10.100   2.080   0.888  0.6423 -1.5042  0.7182
  123MOL0     H16965   9.961   2.088   0.762 -1.1386 -2.3335  0.4083
  123MOL0     H16966  10.148   1.861   0.790 -0.2150 -0.5377  0.1311
  123MOL0     H16967  10.017   1.869   0.675 -0.7821 -1.1005  1.4269
  123MOL0     H16968  10.253   1.930   0.581 -0.5381  0.3427 -1.7300
  123MOL0     H16969  10.272   2.050   0.703  3.1521 -0.2653 -2.3892
  123MOL0     H16970  10.021   2.209   0.385  1.5543  0.0131 -1.0529
  123MOL0     H16971   9.834   1.685   0.994 -0.3789 -1.5571  1.9432
  123MOL0     H16972   9.685   1.578   1.282 -0.7826 -3.1551  0.9679
  123MOL0     H16973   9.621   1.471   1.163  0.3448 -0.4608  1.7577
  123MOL0     H16974   9.788   1.520   1.154 -1.4255 -5.2993 -0.2156
  124MOL0     O16975   2.734   4.697  10.783  0.5189 -0.0968 -0.0421
  124MOL0     C16976   2.809   4.614  10.727 -0.1544 -0.8507 -0.2137
  124MOL0     O16977   2.795   4.476  10.739  0.2093 -0.2028 -0.7490
  124MOL0     C16978   2.682   4.433  10.808 -0.8357 -0.0815  0.6117
  124MOL0     C16979   2.691   4.399  10.938  0.2236 -0.0971  0.4761
  124MOL0     C16980   2.590   4.341  11.008  0.2084  0.4767 -0.4591
  124MOL0     C16981   2.465   4.326  10.954 -1.6702  0.6451 -0.9883
  124MOL0     O16982   2.368   4.259  11.020  0.9181 -0.1726  0.0870
  124MOL0     C16983   2.233   4.292  10.994  0.6581 -0.7340  0.4689
  124MOL0     C16984   2.165   4.163  10.958 -0.7886  0.2521 -0.1322
  124MOL0     C16985   2.232   4.075  10.849  0.6002  0.4817 -0.3116
  124MOL0     C16986   2.140   3.956  10.811 -0.1018 -0.8259  0.0348
  124MOL0     C16987   2.202   3.875  10.691 -0.2325 -0.1699 -0.6335
  124MOL0     C16988   2.122   3.752  10.634  0.1509  1.0861 -0.6067
  124MOL0     C16989   2.158   3.711  10.490 -0.1525 -0.1669 -0.8896
  124MOL0     C16990   2.059   3.614  10.434 -0.7608 -0.3596  0.3728
  124MOL0     N16991   2.118   3.543  10.319 -1.4617 -0.1136 -0.2561
  124MOL0     C16992   2.173   3.419  10.341 -0.4131 -0.1520  0.1029
  124MOL0     C16993   2.252   3.394  10.230  0.1340 -1.3061  0.4311
  124MOL0     C16994   2.330   3.267  10.217  0.8204 -0.5772 -0.5685
  124MOL0     C16995   2.487   3.297  10.209  1.2059  0.4888 -0.5636
  124MOL0     C16996   2.542   3.337  10.347  1.0278  0.2624  0.0793
  124MOL0     C16997   2.693   3.338  10.341  0.4172  0.8739 -0.3368
  124MOL0     O16998   2.736   3.203  10.327  0.2367  0.2458  0.2492
  124MOL0     C16999   2.765   3.122  10.436 -0.1716 -0.2421 -0.1426
  124MOL0     C17000   2.770   3.166  10.579 -0.5530  0.2022 -0.2246
  124MOL0     C17001   2.810   3.073  10.683  0.2620 -0.0136  0.3099
  124MOL0     C17002   2.822   3.117  10.830  0.4164 -0.7378  0.3660
  124MOL0     C17003   2.832   2.937  10.639 -0.1701  0.1560 -0.1126
  124MOL0     C17004   2.835   2.827  10.735 -0.7956 -0.7226 -0.0464
  124MOL0     O17005   2.761   2.715  10.710 -0.7272 -0.9003 -0.5737
  124MOL0     C17006   2.772   2.605  10.800  0.3690 -0.2132 -0.0425
  124MOL0     C17007   2.732   2.491  10.728  0.0287  0.3064  0.3629
  124MOL0     C17008   2.745   2.365  10.790 -0.5573 -0.5377 -0.9548
  124MOL0     C17009   2.785   2.352  10.921 -0.9383 -0.1398  0.4663
  124MOL0     O17010   2.776   2.229  10.972  0.2733 -0.0687 -0.6219
  124MOL0     C17011   2.810   2.196  11.111  0.0536  0.9084  0.0402
  124MOL0     C17012   2.683   2.222  11.196  0.1347  0.5427  0.5888
  124MOL0     C17013   2.573   2.153  11.128  0.0761  0.3880 -0.5692
  124MOL0     C17014   2.438   2.153  11.211 -0.8263 -0.3843 -0.3146
  124MOL0     C17015   2.350   2.030  11.166 -0.1723 -0.9063 -0.0610
  124MOL0     C17016   2.323   2.038  11.012  0.4692 -0.7264 -0.1934
  124MOL0     C17017   2.284   2.178  10.958 -0.4065 -0.3638 -1.3091
  124MOL0     C17018   2.186   2.172  10.840 -0.3893 -0.2487 -0.2714
  124MOL0    Cl17019   2.030   2.091  10.884  0.0030  0.3644  0.0308
  124MOL0     C17020   2.832   2.462  10.989  0.3971 -0.3508 -1.0481
  124MOL0     C17021   2.819   2.589  10.930 -0.5898  0.2743  0.2712
  124MOL0     O17022   2.908   2.850  10.835  0.1648  0.0087  0.7965
  124MOL0     C17023   2.839   2.903  10.507 -0.2957 -1.1590  0.1966
  124MOL0     C17024   2.804   2.994  10.409 -0.2499 -0.3355 -0.5594
  124MOL0     N17025   2.240   3.509  10.147 -0.4857 -0.3949 -0.1159
  124MOL0     N17026   2.161   3.589  10.203 -0.4009  0.4346 -0.0540
  124MOL0     C17027   2.456   4.348  10.816  1.3756 -1.0311 -0.7741
  124MOL0     C17028   2.561   4.409  10.746 -0.0364  0.7593 -0.1973
  124MOL0     C17029   2.926   4.672  10.649 -0.7036  0.2360  0.4557
  124MOL0     C17030   2.962   4.804  10.667 -0.2371 -0.5178 -0.4332
  124MOL0     C17031   3.056   4.866  10.591 -0.4562  0.8558  1.2756
  124MOL0     C17032   3.116   4.801  10.481  0.6277  0.4721 -1.4479
  124MOL0     O17033   3.208   4.866  10.406  0.3229 -0.0356  0.3352
  124MOL0     C17034   3.260   4.818  10.273  0.3802 -0.8359 -0.4512
  124MOL0     C17035   3.147   4.799  10.168  0.3871 -0.2067 -0.4841
  124MOL0     C17036   3.069   4.928  10.119  0.5437 -0.3312  0.3702
  124MOL0     C17037   2.923   4.935  10.175 -0.5519  0.5225 -1.6580
  124MOL0     C17038   2.830   5.003  10.094  1.0634  0.4623  0.4298
  124MOL0     C17039   2.742   5.047  10.025 -0.4644  0.9156  0.1765
  124MOL0     C17040   3.092   4.661  10.474  0.1680  0.4336  0.1549
  124MOL0     C17041   3.009   4.596  10.564  0.2274  0.3241 -1.1069
  124MOL0     C17042   2.992   4.447  10.547 -0.9178 -0.7615 -0.0653
  124MOL0     H17043   2.787   4.420  10.985 -0.2460  0.6764  1.0939
  124MOL0     H17044   2.593   4.314  11.113 -2.6822 -4.7019 -1.3398
  124MOL0     H17045   2.218   4.369  10.918 -0.7151  1.9320  3.2396
  124MOL0     H17046   2.194   4.333  11.088  0.7374  1.9519 -0.5874
  124MOL0     H17047   2.180   4.090  11.038  0.8399 -1.5473 -2.0030
  124MOL0     H17048   2.058   4.175  10.936 -1.3522 -0.2339  2.0711
  124MOL0     H17049   2.239   4.143  10.764 -0.7185  2.4477  1.0598
  124MOL0     H17050   2.330   4.042  10.886 -0.4448 -1.0631  1.2465
  124MOL0     H17051   2.109   3.894  10.895 -0.5113 -0.1826  0.3697
  124MOL0     H17052   2.045   3.996  10.773  0.2910 -1.1574 -1.3602
  124MOL0     H17053   2.296   3.835  10.731  0.2839  1.1094 -0.5140
  124MOL0     H17054   2.230   3.938  10.606  3.1130  1.2639  1.3117
  124MOL0     H17055   2.150   3.674  10.705  2.2345  0.1396 -2.3382
  124MOL0     H17056   2.014   3.768  10.640  0.1376  0.8063 -0.1044
  124MOL0     H17057   2.259   3.670  10.501 -0.0170 -0.0346 -1.5801
  124MOL0     H17058   2.178   3.802  10.432  2.4397  1.5247  2.3277
  124MOL0     H17059   2.050   3.539  10.513  2.3385 -2.4392 -1.0530
  124MOL0     H17060   1.969   3.668  10.403  0.6097  0.0676 -3.4383
  124MOL0     H17061   2.150   3.363  10.431  0.7137 -2.2482 -0.8666
  124MOL0     H17062   2.295   3.194  10.143  3.1988 -6.0413  2.9951
  124MOL0     H17063   2.295   3.205  10.301 -0.1724 -0.1808 -0.6701
  124MOL0     H17064   2.539   3.208  10.174  3.4586  1.3159  0.4942
  124MOL0     H17065   2.506   3.379  10.138 -2.0509  1.9098  0.0043
  124MOL0     H17066   2.504   3.434  10.380 -2.3979 -0.5734 -1.0048
  124MOL0     H17067   2.510   3.258  10.416 -6.3535  1.3236 -1.3164
  124MOL0     H17068   2.721   3.406  10.260  0.2692  0.4693 -0.7315
  124MOL0     H17069   2.737   3.389  10.428 -1.0766  0.0236  0.9625
  124MOL0     H17070   2.734   3.265  10.605 -3.0527 -0.2382 -1.6700
  124MOL0     H17071   2.928   3.127  10.857 -0.1218 -1.8434  3.3596
  124MOL0     H17072   2.775   3.052  10.904 -1.4578  0.0492 -0.0892
  124MOL0     H17073   2.769   3.211  10.850 -1.1354 -1.4922 -0.0564
  124MOL0     H17074   2.717   2.502  10.622 -0.0278  1.3425  0.4649
  124MOL0     H17075   2.715   2.277  10.735 -1.0984 -2.2423  1.8965
  124MOL0     H17076   2.832   2.090  11.122 -1.7330  0.6511  1.5169
  124MOL0     H17077   2.902   2.249  11.137  0.8724  0.8934 -2.4863
  124MOL0     H17078   2.697   2.191  11.300 -0.6590 -0.3693  0.4371
  124MOL0     H17079   2.662   2.329  11.198  1.8868  0.9063  2.0360
  124MOL0     H17080   2.611   2.050  11.126 -0.0417  0.3413 -2.9354
  124MOL0     H17081   2.558   2.177  11.022  0.1544 -0.4043 -0.7703
  124MOL0     H17082   2.393   2.253  11.218  3.0486  1.5542  0.0633
  124MOL0     H17083   2.469   2.131  11.313  2.2091 -1.8382 -1.4041
  124MOL0     H17084   2.415   1.944  11.189  1.4264 -0.1064 -1.3631
  124MOL0     H17085   2.258   2.019  11.223 -0.5660  2.9277  0.3221
  124MOL0     H17086   2.244   1.963  11.003 -0.5728  0.1163  1.4645
  124MOL0     H17087   2.410   2.011  10.951  0.7052 -1.3979  0.4165
  124MOL0     H17088   2.374   2.229  10.922  0.2570 -2.2816 -2.4757
  124MOL0     H17089   2.249   2.249  11.034  4.4157 -0.1060  1.0484
  124MOL0     H17090   2.228   2.114  10.758 -0.4393  0.0111 -0.4820
  124MOL0     H17091   2.177   2.265  10.783  3.2992 -0.1196 -0.9003
  124MOL0     H17092   2.873   2.456  11.089  0.0570  1.3137 -0.7648
  124MOL0     H17093   2.831   2.683  10.984 -0.2765 -0.5117  1.6317
  124MOL0     H17094   2.872   2.802  10.485 -1.2379 -1.5093  0.3259
  124MOL0     H17095   2.811   2.969  10.303  2.9471  1.3537 -0.8575
  124MOL0     H17096   2.365   4.324  10.762  1.0283 -2.2420  0.2899
  124MOL0     H17097   2.545   4.422  10.640  0.6060 -0.4138 -0.4640
  124MOL0     H17098   2.914   4.869  10.738 -0.2557 -1.5261  0.5058
  124MOL0     H17099   3.095   4.963  10.618 -1.5995  1.6353  0.2262
  124MOL0     H17100   3.317   4.900  10.227 -0.6138 -0.5996 -1.2938
  124MOL0     H17101   3.320   4.728  10.293  2.4398  1.0719  3.1262
  124MOL0     H17102   3.087   4.709  10.182  2.1531 -1.1455  1.6383
  124MOL0     H17103   3.208   4.769  10.082  1.6081  1.2214 -0.1726
  124MOL0     H17104   3.131   5.015  10.139 -1.0227  2.3261 -4.6882
  124MOL0     H17105   3.058   4.913  10.011  3.5136 -3.2222  0.3267
  124MOL0     H17106   2.938   4.981  10.273 -0.0840 -0.8595 -1.0634
  124MOL0     H17107   2.866   4.843  10.192 -0.3667  0.1159 -3.1076
  124MOL0     H17108   2.669   5.072   9.950  1.3534 -1.3502 -2.5576
  124MOL0     H17109   3.140   4.598  10.399 -0.0529  0.1558  0.2454
  124MOL0     H17110   2.893   4.431  10.503 -1.1461  2.4305 -0.9303
  124MOL0     H17111   3.068   4.412  10.477 -2.0483 -0.5602 -1.4244
  124MOL0     H17112   2.999   4.390  10.641  2.1568  0.6823  0.6842
  125MOL0     O17113   1.815   8.137   0.451 -0.7657  0.7302  0.1905
  125MOL0     C17114   1.777   8.090   0.344  0.2286  0.2370  0.1294
  125MOL0     O17115   1.767   7.958   0.313 -0.1674 -0.8199 -0.1763
  125MOL0     C17116   1.778   7.872   0.413 -0.3235  0.5588 -1.9028
  125MOL0     C17117   1.669   7.829   0.486  0.6804 -1.1757 -0.0911
  125MOL0     C17118   1.674   7.741   0.595  0.1380  0.0172  0.0841
  125MOL0     C17119   1.802   7.699   0.632 -0.7374  0.2617 -0.9090
  125MOL0     O17120   1.799   7.618   0.747  0.4747  0.3457 -0.0792
  125MOL0     C17121   1.921   7.541   0.767  0.6970  1.4403 -1.4555
  125MOL0     C17122   1.885   7.446   0.885 -0.7503  0.1221 -0.5986
  125MOL0     C17123   1.912   7.506   1.023 -0.6369 -0.3257  0.2267
  125MOL0     C17124   2.067   7.513   1.055  0.5651 -0.8491 -0.5230
  125MOL0     C17125   2.095   7.582   1.187 -0.5712 -0.7462 -0.8288
  125MOL0     C17126   2.241   7.633   1.177  0.7683 -0.0679  0.1025
  125MOL0     C17127   2.285   7.679   1.315 -0.5202 -1.6200 -0.4143
  125MOL0     C17128   2.439   7.732   1.318 -0.5910  0.8641  0.1899
  125MOL0     N17129   2.457   7.843   1.221  0.1698  0.5693  0.3423
  125MOL0     C17130   2.393   7.961   1.239  0.1140 -0.9722 -0.2811
  125MOL0     C17131   2.432   8.036   1.135 -0.1608  0.4233  0.4727
  125MOL0     C17132   2.388   8.177   1.085  0.2585 -0.4022 -0.1159
  125MOL0     C17133   2.256   8.165   1.000 -0.2919  1.1514  0.0398
  125MOL0     C17134   2.186   8.298   0.965 -0.5562 -0.0850 -0.1033
  125MOL0     C17135   2.277   8.412   0.931  0.1052 -0.2745  0.5711
  125MOL0     O17136   2.200   8.528   0.899 -0.2536 -0.3565  0.4509
  125MOL0     C17137   2.157   8.619   0.998  0.1837  0.5572  0.4156
  125MOL0     C17138   2.186   8.598   1.129  0.5837 -0.8773 -1.1256
  125MOL0     C17139   2.146   8.686   1.231  0.4288 -0.4221  0.6001
  125MOL0     C17140   2.147   8.637   1.377  0.0036 -1.0973  1.3392
  125MOL0     C17141   2.082   8.806   1.194  0.6893  0.1570 -0.7344
  125MOL0     C17142   2.030   8.905   1.288 -0.0699 -0.2330 -0.2402
  125MOL0     O17143   2.096   9.007   1.334 -0.0096 -0.3551  0.6257
  125MOL0     C17144   2.212   9.032   1.280 -0.4765  0.3612  0.4789
  125MOL0     C17145   2.329   8.987   1.334 -0.4498  0.0418 -0.7389
  125MOL0     C17146   2.455   9.024   1.288  0.3009  1.0736 -0.2474
  125MOL0     C17147   2.470   9.097   1.170  0.3284 -0.4417  0.2899
  125MOL0     O17148   2.584   9.138   1.120 -0.7767  0.8686  0.9837
  125MOL0     C17149   2.709   9.094   1.167 -0.1491  0.6182 -0.7965
  125MOL0     C17150   2.834   9.159   1.103  0.7663 -0.1677  1.4051
  125MOL0     C17151   2.962   9.108   1.164 -0.0279 -0.3596 -0.9064
  125MOL0     C17152   3.091   9.171   1.109  0.4961 -0.4693  0.5270
  125MOL0     C17153   3.097   9.111   0.963 -1.2683 -0.5024  0.6955
  125MOL0     C17154   3.214   9.157   0.874  0.8437 -0.2641 -0.4096
  125MOL0     C17155   3.347   9.119   0.944  0.0019  0.2419  0.1584
  125MOL0     C17156   3.437   9.234   0.913 -0.5030 -0.0678 -0.3765
  125MOL0    Cl17157   3.592   9.205   1.003  0.4397 -0.5331 -0.3901
  125MOL0     C17158   2.351   9.142   1.115  0.3221 -0.4311 -0.4602
  125MOL0     C17159   2.223   9.111   1.166  0.2755 -0.4323 -0.5857
  125MOL0     O17160   1.918   8.873   1.339 -0.7011 -0.4309 -0.0587
  125MOL0     C17161   2.050   8.839   1.058 -0.8234  0.8208  0.2826
  125MOL0     C17162   2.088   8.739   0.958 -0.1736 -1.1946  0.3161
  125MOL0     N17163   2.527   7.967   1.065 -0.7354  0.2832  0.0599
  125MOL0     N17164   2.539   7.851   1.109 -0.5536  0.4201 -0.1803
  125MOL0     C17165   1.918   7.750   0.566  0.1383  0.4083 -0.1285
  125MOL0     C17166   1.903   7.837   0.457  0.3162  0.2821  0.4430
  125MOL0     C17167   1.743   8.180   0.228  0.8407  0.4550  0.1225
  125MOL0     C17168   1.677   8.127   0.112  0.6831 -0.2696  0.3589
  125MOL0     C17169   1.656   8.203  -0.009 -0.3580  0.0684 -0.5702
  125MOL0     C17170   1.699   8.336  -0.019 -0.5859 -0.0047  0.6108
  125MOL0     O17171   1.687   8.410  -0.132 -0.3191 -0.1556  0.5854
  125MOL0     C17172   1.813   8.435  -0.205 -0.4950 -0.5820  0.0408
  125MOL0     C17173   1.853   8.313  -0.291 -0.4159  0.0931 -0.7295
  125MOL0     C17174   1.974   8.348  -0.380  0.7115 -0.2659  0.1446
  125MOL0     C17175   2.057   8.230  -0.424  0.3516  0.0532  0.2677
  125MOL0     C17176   1.984   8.109  -0.463  0.2780  0.1500  0.3387
  125MOL0     C17177   1.923   8.006  -0.471  0.3279  0.4501 -0.5731
  125MOL0     C17178   1.763   8.387   0.094 -0.0018 -0.5651  0.9352
  125MOL0     C17179   1.776   8.316   0.214  0.8939  0.3119 -0.2974
  125MOL0     C17180   1.865   8.385   0.321  0.8131 -0.1243  0.1268
  125MOL0     H17181   1.577   7.873   0.448  2.6764  3.0379 -0.6113
  125MOL0     H17182   1.591   7.721   0.661 -0.1755  1.5600  0.2009
  125MOL0     H17183   2.008   7.600   0.798  0.0198  1.9402 -0.4276
  125MOL0     H17184   1.932   7.481   0.677  1.4038 -0.0097 -0.4400
  125MOL0     H17185   1.779   7.419   0.882 -0.4040 -1.4223  0.0099
  125MOL0     H17186   1.945   7.355   0.873  1.1043  0.9464  1.7335
  125MOL0     H17187   1.874   7.609   1.023 -2.7828 -1.0708  0.8231
  125MOL0     H17188   1.856   7.457   1.103  0.8756 -0.4680  1.2413
  125MOL0     H17189   2.106   7.411   1.050  0.8763 -0.7220 -0.7089
  125MOL0     H17190   2.120   7.559   0.971 -1.7277  0.4034 -1.3748
  125MOL0     H17191   2.074   7.523   1.276  1.5243 -2.2432 -1.2464
  125MOL0     H17192   2.028   7.668   1.185  1.8264  1.2491 -2.0299
  125MOL0     H17193   2.314   7.554   1.156  2.0577  1.0669  0.2115
  125MOL0     H17194   2.255   7.713   1.105  1.0154  0.9675  1.2680
  125MOL0     H17195   2.276   7.594   1.384 -5.1444  0.0068  1.3229
  125MOL0     H17196   2.226   7.765   1.346 -4.6915 -4.2755 -0.2036
  125MOL0     H17197   2.458   7.766   1.420 -1.4501  2.7639 -0.2372
  125MOL0     H17198   2.512   7.658   1.284  0.8545  2.0074  0.6698
  125MOL0     H17199   2.316   7.990   1.310  2.1140  1.7653  0.9494
  125MOL0     H17200   2.463   8.229   1.024  0.5357 -0.2774  0.3294
  125MOL0     H17201   2.373   8.239   1.173  1.7090 -0.6668  0.3366
  125MOL0     H17202   2.268   8.115   0.903 -0.6583  2.1068 -0.5086
  125MOL0     H17203   2.187   8.095   1.049  1.0928 -0.1368  0.2312
  125MOL0     H17204   2.128   8.281   0.874 -0.0058  2.1120 -0.8997
  125MOL0     H17205   2.122   8.329   1.049 -1.0050  0.9468 -0.8108
  125MOL0     H17206   2.354   8.431   1.006 -3.2464  0.9225  3.9972
  125MOL0     H17207   2.331   8.392   0.838 -4.2465 -0.9340 -2.0882
  125MOL0     H17208   2.230   8.504   1.160  1.4889  0.5738  2.4669
  125MOL0     H17209   2.071   8.689   1.435  0.0654  0.7459 -0.1187
  125MOL0     H17210   2.245   8.660   1.418 -1.5283  3.0449  3.1268
  125MOL0     H17211   2.129   8.529   1.380 -0.1437 -1.1123  0.3048
  125MOL0     H17212   2.332   8.931   1.426 -1.7712  2.8749  1.1759
  125MOL0     H17213   2.545   8.989   1.338  0.6707  2.2677 -0.0550
  125MOL0     H17214   2.715   9.107   1.276 -0.1009 -0.6670 -0.6281
  125MOL0     H17215   2.712   8.985   1.164  2.3152  0.6445 -3.1415
  125MOL0     H17216   2.829   9.117   1.003 -1.8832 -0.8445  1.7450
  125MOL0     H17217   2.831   9.268   1.093  1.1677 -0.2033  0.8711
  125MOL0     H17218   2.979   9.000   1.161  1.2151 -0.2732  0.9324
  125MOL0     H17219   2.949   9.143   1.267  2.4032 -0.1997 -0.5910
  125MOL0     H17220   3.177   9.124   1.158 -0.8725 -2.0383  1.4924
  125MOL0     H17221   3.081   9.280   1.105 -0.7353 -0.6119 -1.0562
  125MOL0     H17222   3.120   9.005   0.981  3.8270  0.6258  2.7165
  125MOL0     H17223   3.004   9.132   0.910 -1.5945  2.9151  2.3602
  125MOL0     H17224   3.196   9.264   0.862 -1.1457 -0.7637 -2.4692
  125MOL0     H17225   3.204   9.111   0.775 -3.5608 -3.7470  1.2755
  125MOL0     H17226   3.382   9.025   0.901 -2.4185 -0.5331 -0.2794
  125MOL0     H17227   3.344   9.115   1.053 -1.6268  3.9378  0.4046
  125MOL0     H17228   3.390   9.318   0.965 -0.3648  0.5393 -1.2069
  125MOL0     H17229   3.451   9.255   0.806 -1.4614  1.8936 -0.1611
  125MOL0     H17230   2.362   9.193   1.019 -2.3644 -2.9420 -2.2916
  125MOL0     H17231   2.142   9.157   1.110 -2.0208 -0.2245  2.6245
  125MOL0     H17232   2.009   8.937   1.033  1.1450  2.0535  1.6361
  125MOL0     H17233   2.077   8.779   0.858 -2.2678 -0.5478  0.7598
  125MOL0     H17234   2.014   7.718   0.605 -1.1965 -0.5229  2.6220
  125MOL0     H17235   1.988   7.869   0.397  1.2661 -0.7041  1.2264
  125MOL0     H17236   1.637   8.027   0.118 -1.4750  0.4954 -0.1820
  125MOL0     H17237   1.619   8.149  -0.096  0.4035  0.4076 -1.1141
  125MOL0     H17238   1.799   8.523  -0.268  4.8349 -0.5871 -1.6203
  125MOL0     H17239   1.889   8.468  -0.133 -0.7189  2.5162 -0.9809
  125MOL0     H17240   1.772   8.294  -0.362  0.5508  4.7494 -3.4935
  125MOL0     H17241   1.871   8.228  -0.224 -0.8629  1.2306  0.8899
  125MOL0     H17242   1.939   8.407  -0.466  4.5729  2.6225  0.3026
  125MOL0     H17243   2.029   8.410  -0.309 -1.7796  3.8339 -1.1818
  125MOL0     H17244   2.126   8.212  -0.341  0.7106 -0.1230 -0.0690
  125MOL0     H17245   2.133   8.259  -0.498  1.4775  5.3297  2.9684
  125MOL0     H17246   1.871   7.914  -0.492 -0.4230 -0.3668  3.7461
  125MOL0     H17247   1.806   8.486   0.088  1.1839 -1.0033  1.8451
  125MOL0     H17248   1.880   8.490   0.298  3.7465 -0.6129 -0.5850
  125MOL0     H17249   1.809   8.368   0.413 -2.7530  0.5502 -1.7360
  125MOL0     H17250   1.966   8.343   0.324  2.3618  3.3049  0.5737
  126MOL0     O17251   0.128  10.349   8.291  0.2128  0.0361  0.4491
  126MOL0     C17252   0.036  10.277   8.273  0.8821  0.2996 -0.8351
  126MOL0     O17253  -0.042  10.281   8.163  0.0795 -0.5863 -0.2228
  126MOL0     C17254   0.013  10.334   8.049 -0.9622  0.1993  0.2526
  126MOL0     C17255   0.131  10.274   7.996  0.0871 -0.3242  0.2841
  126MOL0     C17256   0.214  10.333   7.904 -0.0479 -0.0464 -0.5936
  126MOL0     C17257   0.174  10.456   7.844  0.7204 -0.0138  0.0389
  126MOL0     O17258   0.236  10.524   7.750 -0.2415 -0.1528  0.3975
  126MOL0     C17259   0.371  10.485   7.699 -0.4704 -0.5498  0.4586
  126MOL0     C17260   0.375  10.515   7.547 -0.7164  0.2064  0.7860
  126MOL0     C17261   0.329  10.664   7.503 -0.3278  0.0815 -0.8219
  126MOL0     C17262   0.326  10.691   7.357 -1.0485  0.0094  0.1354
  126MOL0     C17263   0.253  10.827   7.329 -0.4455  0.1154  0.0630
  126MOL0     C17264   0.200  10.838   7.189  1.2795  0.6956  0.2652
  126MOL0     C17265   0.299  10.809   7.080  0.7406 -0.1344 -0.4115
  126MOL0     C17266   0.237  10.779   6.950  0.9048 -0.2783 -0.2807
  126MOL0     N17267   0.161  10.653   6.951  0.4278 -0.0041 -0.8586
  126MOL0     C17268   0.226  10.542   6.911  0.2995 -0.3996 -0.3423
  126MOL0     C17269   0.136  10.439   6.930 -0.7477 -0.3804 -0.5674
  126MOL0     C17270   0.177  10.292   6.907 -0.2238 -0.5486 -0.4640
  126MOL0     C17271   0.150  10.246   6.762  0.6779 -0.2792  0.2704
  126MOL0     C17272  -0.000  10.242   6.730 -0.6405  0.6104  0.1536
  126MOL0     C17273  -0.096  10.146   6.808 -0.0463 -0.8758 -0.7496
  126MOL0     O17274  -0.034  10.017   6.818  0.4988  0.6339 -0.3661
  126MOL0     C17275  -0.122   9.917   6.777 -0.3124 -0.0118  0.7750
  126MOL0     C17276  -0.103   9.785   6.805 -0.0251 -0.4583  0.0352
  126MOL0     C17277  -0.167   9.680   6.748  0.4688 -0.6870 -0.4726
  126MOL0     C17278  -0.128   9.540   6.779 -0.1691 -0.1795  0.1215
  126MOL0     C17279  -0.277   9.706   6.663  0.7986  0.6497  0.0236
  126MOL0     C17280  -0.370   9.602   6.628  0.0905  0.7659  1.1197
  126MOL0     O17281  -0.398   9.516   6.725 -0.6674 -0.8292  0.2325
  126MOL0     C17282  -0.499   9.426   6.695 -1.4739 -1.1509 -1.4767
  126MOL0     C17283  -0.473   9.322   6.608  0.0499  0.6808  0.5502
  126MOL0     C17284  -0.565   9.224   6.580  0.4308 -0.3012  0.0222
  126MOL0     C17285  -0.690   9.228   6.651  0.6479  0.1451  0.2576
  126MOL0     O17286  -0.797   9.148   6.621  0.5675  0.2718  0.0551
  126MOL0     C17287  -0.782   9.048   6.523  0.2741 -0.0679 -0.1586
  126MOL0     C17288  -0.909   8.960   6.521 -0.1223  0.4010 -0.7494
  126MOL0     C17289  -0.938   8.861   6.631  0.5250  1.0713 -0.1562
  126MOL0     C17290  -1.068   8.785   6.610  0.3801  0.0365 -0.0786
  126MOL0     C17291  -1.075   8.663   6.712 -0.4848 -0.2941  0.4757
  126MOL0     C17292  -1.203   8.580   6.708  0.0213  0.7941  0.2308
  126MOL0     C17293  -1.334   8.648   6.767 -0.0281 -0.8346  0.0360
  126MOL0     C17294  -1.314   8.716   6.898 -0.1211  0.1635  0.0699
  126MOL0    Cl17295  -1.462   8.745   6.991  0.3765  0.0294  0.0478
  126MOL0     C17296  -0.720   9.333   6.741 -0.4242 -0.1012  0.4419
  126MOL0     C17297  -0.624   9.437   6.764 -0.2237  0.1470 -0.3250
  126MOL0     O17298  -0.424   9.605   6.518  0.5682  0.2668 -1.1065
  126MOL0     C17299  -0.287   9.836   6.612  0.8346 -0.2191 -0.3282
  126MOL0     C17300  -0.203   9.941   6.660  0.6706  0.6443 -0.1273
  126MOL0     N17301   0.016  10.496   6.991  0.1757 -0.3975  0.1105
  126MOL0     N17302   0.033  10.626   6.993 -0.6645  0.2516 -0.6615
  126MOL0     C17303   0.057  10.509   7.897  0.9191  0.3247  0.7722
  126MOL0     C17304  -0.032  10.450   7.989  1.0644  0.5849 -0.0304
  126MOL0     C17305  -0.010  10.176   8.376  0.3159 -0.1172  0.4428
  126MOL0     C17306  -0.145  10.183   8.412 -0.1124 -0.2481  0.1736
  126MOL0     C17307  -0.195  10.107   8.514  0.5126 -0.5292 -0.3058
  126MOL0     C17308  -0.116  10.025   8.581 -0.9114 -0.5211 -0.1993
  126MOL0     O17309  -0.162   9.960   8.684  0.0332 -1.1107  0.1515
  126MOL0     C17310  -0.168   9.817   8.682 -0.2523 -0.5147  0.3362
  126MOL0     C17311  -0.154   9.767   8.836 -0.1925  0.0593 -0.2523
  126MOL0     C17312  -0.027   9.810   8.892 -0.8376 -0.2008 -0.0531
  126MOL0     C17313  -0.002   9.755   9.033 -0.2874  0.2054 -0.1143
  126MOL0     C17314   0.127   9.821   9.077  0.3052 -0.3160  1.3375
  126MOL0     C17315   0.243   9.870   9.090 -0.1794 -0.6658  0.7480
  126MOL0     C17316   0.022  10.005   8.546 -0.5038 -0.3724 -0.4559
  126MOL0     C17317   0.077  10.088   8.443  0.2720 -0.4290 -0.3991
  126MOL0     C17318   0.216  10.069   8.411 -0.2533  0.1696  0.2090
  126MOL0     H17319   0.159  10.186   8.053  1.3498  0.9616  1.7425
  126MOL0     H17320   0.304  10.273   7.894 -1.4074 -2.0459 -1.5671
  126MOL0     H17321   0.411  10.385   7.723  0.9748  0.0350  0.6167
  126MOL0     H17322   0.446  10.545   7.752  3.2608 -1.0265 -3.7000
  126MOL0     H17323   0.476  10.499   7.509 -0.8267  1.5970 -0.1864
  126MOL0     H17324   0.305  10.443   7.504 -1.5263  0.6752  1.2918
  126MOL0     H17325   0.227  10.670   7.540  0.1005 -2.0048  0.8840
  126MOL0     H17326   0.389  10.747   7.542 -2.1613  0.7796  0.6014
  126MOL0     H17327   0.428  10.677   7.319 -1.1762 -4.2557  0.8876
  126MOL0     H17328   0.270  10.605   7.319  0.1057 -0.1176 -1.3888
  126MOL0     H17329   0.327  10.905   7.345  1.1271 -0.6244 -3.0006
  126MOL0     H17330   0.165  10.827   7.395  0.9496 -0.5397  2.0089
  126MOL0     H17331   0.109  10.780   7.174 -0.0768  2.5301  0.9661
  126MOL0     H17332   0.158  10.939   7.177 -0.5556  0.0501  0.9298
  126MOL0     H17333   0.354  10.717   7.104  3.2284  1.4455  0.3525
  126MOL0     H17334   0.385  10.876   7.065  1.3501 -0.8104 -0.0146
  126MOL0     H17335   0.165  10.858   6.929  1.4842 -0.1194 -1.8034
  126MOL0     H17336   0.305  10.779   6.864 -1.1014 -1.0133 -1.9361
  126MOL0     H17337   0.330  10.538   6.881  0.4415  0.4973 -0.0144
  126MOL0     H17338   0.114  10.234   6.975 -1.2055  1.1567  0.1557
  126MOL0     H17339   0.281  10.276   6.937 -0.7619  0.2996  2.1612
  126MOL0     H17340   0.203  10.300   6.682  1.6672 -0.5168  0.7506
  126MOL0     H17341   0.188  10.146   6.742  0.3943  0.1845 -3.2151
  126MOL0     H17342  -0.029  10.347   6.726 -0.4173  0.7695  1.8898
  126MOL0     H17343  -0.008  10.206   6.627 -1.5218 -2.0107  1.0477
  126MOL0     H17344  -0.090  10.186   6.909  1.7820  1.6165 -1.7366
  126MOL0     H17345  -0.198  10.150   6.770 -0.5443 -1.3408  0.5184
  126MOL0     H17346  -0.028   9.754   6.877  4.3170 -0.0083 -3.7921
  126MOL0     H17347  -0.146   9.478   6.690 -1.8106  1.2047 -0.5784
  126MOL0     H17348  -0.188   9.498   6.859 -3.7956  0.8952 -1.7805
  126MOL0     H17349  -0.021   9.539   6.799  0.1797  2.7522 -0.9810
  126MOL0     H17350  -0.378   9.288   6.569  0.1505  1.2164  0.3167
  126MOL0     H17351  -0.550   9.148   6.504 -1.3075 -0.4912 -0.1685
  126MOL0     H17352  -0.777   9.093   6.423 -0.6816  1.2203  0.3481
  126MOL0     H17353  -0.693   8.991   6.551 -0.6452 -0.4630  2.1870
  126MOL0     H17354  -0.991   9.032   6.521 -1.5693 -1.1698  0.3564
  126MOL0     H17355  -0.908   8.895   6.433  3.3011  0.2453 -0.7305
  126MOL0     H17356  -0.949   8.910   6.728  1.5161  0.2146  0.4029
  126MOL0     H17357  -0.857   8.787   6.636 -0.6459 -0.4153 -1.8641
  126MOL0     H17358  -1.086   8.753   6.508  2.5391  2.4131 -1.3154
  126MOL0     H17359  -1.144   8.862   6.632  2.4530  2.5035 -1.0051
  126MOL0     H17360  -0.996   8.597   6.675 -1.6135 -1.0671 -0.6849
  126MOL0     H17361  -1.050   8.693   6.814  1.3559  1.2430 -0.3791
  126MOL0     H17362  -1.200   8.480   6.753  0.3381  0.3709 -0.6948
  126MOL0     H17363  -1.221   8.543   6.606 -1.3697 -2.7239  1.5715
  126MOL0     H17364  -1.418   8.578   6.771 -0.0051 -0.8407  0.5280
  126MOL0     H17365  -1.361   8.722   6.691  2.3069 -0.0352 -0.0852
  126MOL0     H17366  -1.258   8.809   6.895 -2.0344  1.4624  1.6573
  126MOL0     H17367  -1.246   8.652   6.956 -1.6551 -0.6661  1.0365
  126MOL0     H17368  -0.815   9.356   6.790 -0.0631 -0.5340  1.3783
  126MOL0     H17369  -0.661   9.518   6.826  0.3249 -0.3737  0.7119
  126MOL0     H17370  -0.362   9.863   6.539 -2.1987  2.7852  3.4867
  126MOL0     H17371  -0.199  10.029   6.597  1.2753  0.4867 -0.3203
  126MOL0     H17372   0.039  10.607   7.854  1.9790  0.8881  1.5559
  126MOL0     H17373  -0.128  10.497   8.009  0.4831 -0.5877  0.0126
  126MOL0     H17374  -0.215  10.230   8.343 -1.3183  0.7023  1.9599
  126MOL0     H17375  -0.299  10.112   8.545  0.5257  0.3492 -0.3631
  126MOL0     H17376  -0.272   9.788   8.663  0.9594 -4.7648 -1.0554
  126MOL0     H17377  -0.100   9.772   8.609  1.3206 -3.2334  3.2674
  126MOL0     H17378  -0.159   9.658   8.842 -1.5902  0.1679  1.3657
  126MOL0     H17379  -0.243   9.808   8.885 -1.8746 -1.1883 -2.0622
  126MOL0     H17380   0.052   9.777   8.824  1.4711 -0.7285  2.7016
  126MOL0     H17381  -0.033   9.919   8.899  1.5026 -0.0295  0.1640
  126MOL0     H17382   0.020   9.648   9.034  3.7701  0.8387  2.5089
  126MOL0     H17383  -0.076   9.797   9.101  2.8601  3.0658  1.8511
  126MOL0     H17384   0.339   9.916   9.080  0.7356 -1.6260  3.8661
  126MOL0     H17385   0.088   9.936   8.596  0.3067  1.4122  1.0629
  126MOL0     H17386   0.264  10.128   8.490 -2.3983 -2.5353  3.8562
  126MOL0     H17387   0.251   9.966   8.414  0.5887  0.3772 -1.3868
  126MOL0     H17388   0.246  10.101   8.311  1.3809 -1.6674  0.0719
  127MOL0     O17389   7.761   3.362  11.343 -1.2699 -0.5089  0.0536
  127MOL0     C17390   7.751   3.357  11.221 -0.1583  0.8439  0.0395
  127MOL0     O17391   7.663   3.425  11.142  0.8200 -0.5747 -0.0761
  127MOL0     C17392   7.614   3.536  11.202 -0.4579  0.2681  0.8490
  127MOL0     C17393   7.486   3.540  11.255 -0.1397  0.1592 -0.3007
  127MOL0     C17394   7.447   3.658  11.319  0.6541  0.3855  0.0383
  127MOL0     C17395   7.513   3.774  11.330 -0.8827  0.7439  0.4012
  127MOL0     O17396   7.455   3.880  11.371 -0.0186  0.2977 -0.6434
  127MOL0     C17397   7.452   3.911  11.508 -0.1636  0.4279 -0.2483
  127MOL0     C17398   7.400   4.051  11.531 -0.4474  0.3304 -0.4849
  127MOL0     C17399   7.385   4.069  11.681 -0.1711 -0.1481 -0.3848
  127MOL0     C17400   7.353   4.214  11.714 -0.0091 -0.6740 -0.1776
  127MOL0     C17401   7.327   4.256  11.857  0.8249  0.2994 -0.3077
  127MOL0     C17402   7.315   4.406  11.881 -0.8696  0.3398  0.0630
  127MOL0     C17403   7.460   4.452  11.910 -0.0065 -0.1903  1.1809
  127MOL0     C17404   7.453   4.600  11.929  0.9990  0.6371  0.0239
  127MOL0     N17405   7.569   4.649  12.005 -0.8290  0.2548 -0.2846
  127MOL0     C17406   7.704   4.632  11.967  0.7664 -0.4911 -0.1388
  127MOL0     C17407   7.770   4.701  12.065 -0.8859  0.6013  0.2341
  127MOL0     C17408   7.922   4.709  12.083 -0.9466 -0.0563  0.4889
  127MOL0     C17409   7.981   4.834  12.015  0.5004 -0.5178  0.9720
  127MOL0     C17410   8.126   4.853  12.019  0.8852 -0.1165 -0.1923
  127MOL0     C17411   8.203   4.730  11.987  1.2246  0.5165  1.0436
  127MOL0     O17412   8.191   4.625  12.078  0.5643  0.0843  0.4786
  127MOL0     C17413   8.228   4.499  12.043  0.3613  0.4638 -0.3631
  127MOL0     C17414   8.317   4.459  11.938 -0.6157 -0.2915 -0.3890
  127MOL0     C17415   8.346   4.325  11.922  0.2864 -0.9444 -0.0609
  127MOL0     C17416   8.453   4.299  11.820 -0.5420 -0.4723  0.9242
  127MOL0     C17417   8.285   4.228  12.000  0.2512 -1.2475  0.1193
  127MOL0     C17418   8.281   4.078  11.971  0.9106  0.1297  0.8199
  127MOL0     O17419   8.174   4.014  12.030 -0.0593  0.3883  0.5192
  127MOL0     C17420   8.178   3.882  12.015 -0.8191 -0.5438  0.6652
  127MOL0     C17421   8.208   3.802  12.115  0.4477  0.1722  0.5384
  127MOL0     C17422   8.205   3.653  12.097  0.9597  0.1704 -0.0508
  127MOL0     C17423   8.170   3.602  11.973 -0.4117  0.1384 -0.3716
  127MOL0     O17424   8.180   3.467  11.938  0.8978  0.3164  0.2098
  127MOL0     C17425   8.194   3.374  12.040 -0.2853  1.1946 -0.5269
  127MOL0     C17426   8.068   3.361  12.125 -0.0052 -0.1644 -0.1039
  127MOL0     C17427   8.081   3.236  12.215  0.1906 -1.4260  0.0895
  127MOL0     C17428   8.027   3.274  12.353 -0.2686 -0.0377 -0.7368
  127MOL0     C17429   7.881   3.296  12.378  0.9672  0.6269  0.1594
  127MOL0     C17430   7.804   3.398  12.292  0.1388  0.1429  0.2195
  127MOL0     C17431   7.657   3.375  12.318 -0.1069 -0.3298  0.4292
  127MOL0     C17432   7.595   3.491  12.243  0.5558 -0.2550  0.7009
  127MOL0    Cl17433   7.558   3.618  12.361 -0.2232  0.3562  0.0271
  127MOL0     C17434   8.149   3.694  11.865  0.0244  0.1872 -0.3553
  127MOL0     C17435   8.145   3.836  11.882  1.0357 -0.6000 -0.5187
  127MOL0     O17436   8.361   4.027  11.896  0.6866 -0.4744  0.0231
  127MOL0     C17437   8.200   4.266  12.105  0.1531 -0.6760 -0.4771
  127MOL0     C17438   8.180   4.406  12.127  0.8883  1.0922 -0.4011
  127MOL0     N17439   7.680   4.773  12.145  0.5526  0.9787  0.4450
  127MOL0     N17440   7.557   4.727  12.113 -0.4627 -0.2141  0.0102
  127MOL0     C17441   7.635   3.782  11.270 -0.4255  0.3653  0.4477
  127MOL0     C17442   7.688   3.657  11.218  0.4447  0.7136  0.5499
  127MOL0     C17443   7.820   3.243  11.154  0.2538  1.0670 -0.2312
  127MOL0     C17444   7.919   3.181  11.234 -0.0046 -0.2631 -0.6342
  127MOL0     C17445   8.002   3.083  11.183 -0.2231  0.2849  0.8697
  127MOL0     C17446   7.999   3.045  11.049  0.8209 -0.4857 -0.5941
  127MOL0     O17447   8.089   2.950  11.005 -0.2435  0.5315  0.0614
  127MOL0     C17448   8.092   2.878  10.881  0.9868  0.2959  0.1689
  127MOL0     C17449   8.205   2.778  10.867  0.9527 -0.3051 -0.4178
  127MOL0     C17450   8.331   2.844  10.828  1.0581 -0.4979  0.4947
  127MOL0     C17451   8.448   2.765  10.858 -0.5713 -0.5002  0.1142
  127MOL0     C17452   8.571   2.825  10.800 -0.1932  0.9397 -0.1749
  127MOL0     C17453   8.661   2.875  10.744 -0.3500 -0.8732  0.4106
  127MOL0     C17454   7.892   3.107  10.967 -1.3695  0.2990  0.5438
  127MOL0     C17455   7.805   3.206  11.019 -1.5042  0.4195  1.0855
  127MOL0     C17456   7.695   3.250  10.925 -0.3669 -0.1879  0.4409
  127MOL0     H17457   7.415   3.458  11.256  0.6771 -0.5861  1.3610
  127MOL0     H17458   7.345   3.660  11.356  0.7171  0.4411  0.2085
  127MOL0     H17459   7.556   3.893  11.537 -1.0380 -0.7590  2.3628
  127MOL0     H17460   7.396   3.840  11.568  3.0219 -0.8788  1.4407
  127MOL0     H17461   7.477   4.116  11.488  1.4740 -2.3890 -1.4836
  127MOL0     H17462   7.308   4.067  11.474  1.0255 -2.4601 -4.0845
  127MOL0     H17463   7.314   4.005  11.734  0.1017  0.8372  1.2557
  127MOL0     H17464   7.478   4.055  11.736 -0.5175 -1.9075 -0.1978
  127MOL0     H17465   7.437   4.272  11.676  0.9425 -1.2156  1.0493
  127MOL0     H17466   7.266   4.253  11.660 -2.0068 -1.9977  1.9049
  127MOL0     H17467   7.407   4.221  11.923  1.4977  0.9580 -0.7686
  127MOL0     H17468   7.239   4.203  11.896  1.4264 -1.5874 -1.4002
  127MOL0     H17469   7.262   4.459  11.801 -1.8125  0.7687  0.9537
  127MOL0     H17470   7.251   4.422  11.967 -1.2862 -0.0930 -0.1623
  127MOL0     H17471   7.528   4.425  11.829  0.9731 -0.4878  2.0763
  127MOL0     H17472   7.490   4.389  11.995 -0.0607 -0.1997  1.1934
  127MOL0     H17473   7.437   4.653  11.835  1.5063  2.9420  1.1740
  127MOL0     H17474   7.365   4.623  11.991  1.6466  1.4092  0.6807
  127MOL0     H17475   7.751   4.569  11.892 -0.5889 -0.5579 -0.9692
  127MOL0     H17476   7.957   4.617  12.035  0.7762  0.4367  0.7542
  127MOL0     H17477   7.952   4.723  12.187  0.7740  1.4810 -0.1633
  127MOL0     H17478   7.957   4.809  11.911  0.2943  1.7108  0.4378
  127MOL0     H17479   7.931   4.930  12.034  1.2401  0.2095 -0.5239
  127MOL0     H17480   8.142   4.923  11.936  2.4670 -2.2819 -1.8528
  127MOL0     H17481   8.147   4.881  12.122 -3.5745 -1.0249  1.1848
  127MOL0     H17482   8.183   4.691  11.887  3.0444 -2.2221  1.6366
  127MOL0     H17483   8.310   4.751  11.998  0.9402  2.1740  0.8705
  127MOL0     H17484   8.358   4.523  11.861  1.4164 -3.4574 -2.1571
  127MOL0     H17485   8.505   4.389  11.786 -1.6805 -0.3147 -0.5030
  127MOL0     H17486   8.421   4.246  11.730 -0.4142  5.2261 -3.0207
  127MOL0     H17487   8.521   4.236  11.879 -2.9719 -2.2850  1.9650
  127MOL0     H17488   8.238   3.842  12.211  1.7035  3.1967 -0.9535
  127MOL0     H17489   8.227   3.599  12.189 -2.6911 -0.3442  0.6729
  127MOL0     H17490   8.218   3.284  11.983  1.4595  0.7444  0.8420
  127MOL0     H17491   8.282   3.389  12.103 -0.5037  3.1749 -0.6106
  127MOL0     H17492   8.065   3.451  12.188 -1.3851 -0.8351  0.8352
  127MOL0     H17493   7.976   3.345  12.068 -0.0074  0.9202 -0.4373
  127MOL0     H17494   8.185   3.204  12.217  1.0403  1.0441  3.2743
  127MOL0     H17495   8.022   3.152  12.178 -1.3954  0.8290 -3.0170
  127MOL0     H17496   8.083   3.358  12.395 -0.4307  0.8273 -2.1714
  127MOL0     H17497   8.036   3.184  12.414 -1.4217 -0.2969 -0.9154
  127MOL0     H17498   7.839   3.195  12.366  0.6933  0.6616  0.7897
  127MOL0     H17499   7.873   3.330  12.481  0.7535 -1.4080  0.8622
  127MOL0     H17500   7.828   3.391  12.186 -0.0473 -1.1988  0.2519
  127MOL0     H17501   7.842   3.495  12.327  2.7025 -1.5761  2.6886
  127MOL0     H17502   7.635   3.382  12.425  0.8340  0.7049  0.5726
  127MOL0     H17503   7.612   3.279  12.290 -0.2031 -0.5832  1.4076
  127MOL0     H17504   7.494   3.467  12.207 -0.4234  1.9123  1.8340
  127MOL0     H17505   7.653   3.525  12.157 -1.7546  1.1590 -0.4183
  127MOL0     H17506   8.117   3.660  11.767 -2.9083  2.7521 -0.4307
  127MOL0     H17507   8.136   3.913  11.807  2.0734 -2.0484 -2.2017
  127MOL0     H17508   8.167   4.187  12.171  0.5089 -2.5841 -2.4329
  127MOL0     H17509   8.120   4.438  12.212  1.2357  2.4481 -0.6504
  127MOL0     H17510   7.684   3.878  11.267 -1.3560  0.9718  2.6565
  127MOL0     H17511   7.791   3.662  11.186  0.5288 -1.2750  0.3685
  127MOL0     H17512   7.943   3.203  11.337 -4.8963  0.4757  0.5986
  127MOL0     H17513   8.081   3.029  11.233  0.0766 -1.7620 -1.5375
  127MOL0     H17514   8.000   2.825  10.857  2.0615 -1.4258 -0.2980
  127MOL0     H17515   8.107   2.944  10.794  0.6758  0.2089  0.0478
  127MOL0     H17516   8.180   2.707  10.787  0.8377 -1.5833  0.7244
  127MOL0     H17517   8.209   2.723  10.961  0.7785 -1.8487 -1.2798
  127MOL0     H17518   8.325   2.857  10.720 -0.5968 -1.6855  0.4132
  127MOL0     H17519   8.344   2.946  10.867 -1.8499  1.2273 -2.6276
  127MOL0     H17520   8.444   2.660  10.827 -1.7259 -0.6479  0.7226
  127MOL0     H17521   8.455   2.749  10.966  0.9962  0.8108  0.2443
  127MOL0     H17522   8.743   2.917  10.689  0.8229 -0.5148  2.3225
  127MOL0     H17523   7.895   3.075  10.864  0.9291  2.0789 -0.0009
  127MOL0     H17524   7.721   3.350  10.890 -1.2860 -0.2593 -0.4886
  127MOL0     H17525   7.699   3.181  10.840 -1.1289 -2.9145  2.4875
  127MOL0     H17526   7.598   3.257  10.974 -1.4961 -1.1115 -1.5608
  128MOL0     O17527   9.070   2.615   9.914  1.1935 -0.5635 -0.1313
  128MOL0     C17528   9.084   2.550  10.018 -0.1657 -1.4345 -0.0792
  128MOL0     O17529   9.101   2.600  10.147 -0.2795 -0.4771  0.8413
  128MOL0     C17530   9.169   2.720  10.169  0.3816  0.1528  0.4898
  128MOL0     C17531   9.169   2.843  10.091 -0.2200  0.0756 -0.0323
  128MOL0     C17532   9.239   2.958  10.122  0.0687  0.0587 -0.6959
  128MOL0     C17533   9.318   2.953  10.240  0.4126 -0.6952  0.3985
  128MOL0     O17534   9.368   3.065  10.295 -0.7966  0.3798  0.0853
  128MOL0     C17535   9.309   3.141  10.400  0.7611  0.3589  0.3414
  128MOL0     C17536   9.156   3.146  10.370 -1.1742 -0.0827 -0.7871
  128MOL0     C17537   9.100   3.235  10.475 -0.5861  0.7187  0.2718
  128MOL0     C17538   9.131   3.197  10.621  0.1812  0.3814  0.3699
  128MOL0     C17539   9.065   3.317  10.701  0.6052  1.0517 -0.9305
  128MOL0     C17540   9.165   3.442  10.718  0.7752  0.4105 -0.7671
  128MOL0     C17541   9.292   3.414  10.777  0.5736  0.0046 -0.3608
  128MOL0     C17542   9.369   3.547  10.771 -0.3090  0.2806 -0.2581
  128MOL0     N17543   9.513   3.525  10.786  0.1381 -0.3316 -0.3560
  128MOL0     C17544   9.584   3.493  10.899  1.3949  0.2236 -0.1025
  128MOL0     C17545   9.720   3.517  10.860 -0.9286  0.4629  0.4027
  128MOL0     C17546   9.843   3.550  10.954  0.2910  0.4422 -0.2237
  128MOL0     C17547   9.961   3.448  10.960  0.7112 -0.6793 -0.7199
  128MOL0     C17548  10.027   3.445  10.822 -0.7816 -0.5761  0.7989
  128MOL0     C17549  10.115   3.560  10.773  0.3212  0.2160 -0.2598
  128MOL0     O17550  10.238   3.540  10.849  0.6570  0.4034  0.2346
  128MOL0     C17551  10.266   3.614  10.953 -0.2052  0.4646 -0.2960
  128MOL0     C17552  10.388   3.583  11.017  0.1061  0.0197 -0.3642
  128MOL0     C17553  10.440   3.654  11.126  0.4693 -0.0046  0.5410
  128MOL0     C17554  10.576   3.627  11.182 -0.8527  0.2251  0.8799
  128MOL0     C17555  10.354   3.765  11.174 -0.1167  0.7991  0.3815
  128MOL0     C17556  10.388   3.866  11.278  0.5214  0.1947 -0.2448
  128MOL0     O17557  10.521   3.849  11.325  0.6097 -0.3391 -0.2474
  128MOL0     C17558  10.577   3.945  11.406  0.0082 -0.1085 -0.7653
  128MOL0     C17559  10.618   3.913  11.533 -0.2512  1.1050 -1.1455
  128MOL0     C17560  10.659   4.007  11.622  0.4628  0.2413  0.2608
  128MOL0     C17561  10.663   4.139  11.590 -0.0836  0.2930 -0.0526
  128MOL0     O17562  10.725   4.217  11.680  0.2003  0.1816  0.3470
  128MOL0     C17563  10.797   4.325  11.619 -1.4658  0.2031  1.2072
  128MOL0     C17564  10.843   4.422  11.735  0.5988  0.6022 -0.2452
  128MOL0     C17565  10.925   4.361  11.841 -0.2382  0.6908  0.7491
  128MOL0     C17566  11.064   4.327  11.794  0.3271  0.8369 -1.0802
  128MOL0     C17567  11.160   4.273  11.905  0.9126  1.5845 -0.1146
  128MOL0     C17568  11.312   4.265  11.860  0.0476 -0.7854  0.0037
  128MOL0     C17569  11.409   4.237  11.982  0.1928 -0.2873 -0.1385
  128MOL0     C17570  11.467   4.360  12.057  0.1417 -0.3991 -0.3762
  128MOL0    Cl17571  11.558   4.466  11.949  0.0357 -0.1639 -0.0149
  128MOL0     C17572  10.602   4.183  11.472  0.6445  0.3016 -0.2180
  128MOL0     C17573  10.565   4.080  11.384 -0.4042 -0.0362 -0.1311
  128MOL0     O17574  10.302   3.944  11.317 -0.0987  0.6362  0.0752
  128MOL0     C17575  10.227   3.776  11.121  0.6462  0.0569  0.1692
  128MOL0     C17576  10.181   3.703  11.012 -0.6384  0.7253  0.2260
  128MOL0     N17577   9.716   3.548  10.720 -0.4906  0.3440 -0.2246
  128MOL0     N17578   9.594   3.541  10.680  0.2866 -0.8198 -0.8646
  128MOL0     C17579   9.321   2.836  10.320 -0.1458  0.4273 -0.1778
  128MOL0     C17580   9.243   2.723  10.286 -0.0948  0.3788  0.2877
  128MOL0     C17581   9.087   2.405  10.014 -0.3778 -0.5115  0.4859
  128MOL0     C17582   9.179   2.341  10.099  0.0142  0.6280  0.6884
  128MOL0     C17583   9.201   2.202  10.090 -0.5075  0.9416 -0.2622
  128MOL0     C17584   9.109   2.124  10.021 -0.2516 -0.0265  0.2178
  128MOL0     O17585   9.111   1.982  10.042 -0.6811 -0.2191 -0.1102
  128MOL0     C17586   9.134   1.942  10.183  0.4815  0.7760  0.4911
  128MOL0     C17587   9.087   1.799  10.216 -0.1812 -0.1006 -0.4362
  128MOL0     C17588   9.160   1.697  10.131 -0.3577  0.0324 -0.7649
  128MOL0     C17589   9.202   1.559  10.193  0.3047  0.5152 -0.1883
  128MOL0     C17590   9.097   1.476  10.246  0.3393 -0.2080 -0.2380
  128MOL0     C17591   9.031   1.403  10.312 -0.7595 -0.1428  0.2767
  128MOL0     C17592   9.011   2.193   9.946  0.0076 -0.7890  0.2495
  128MOL0     C17593   9.004   2.333   9.930 -1.2490  0.6793  0.2269
  128MOL0     C17594   8.893   2.394   9.856 -0.4364 -0.4560  0.8864
  128MOL0     H17595   9.105   2.851  10.003 -0.0660  0.3583 -0.1199
  128MOL0     H17596   9.241   3.051  10.068  0.3941 -0.2443 -1.2172
  128MOL0     H17597   9.349   3.242  10.411  1.4518  0.2145 -0.6771
  128MOL0     H17598   9.324   3.090  10.495  1.9211  4.5260  2.6532
  128MOL0     H17599   9.150   3.192  10.271 -2.5888  0.7954 -0.3251
  128MOL0     H17600   9.119   3.043  10.378  3.6749 -1.8985  3.1377
  128MOL0     H17601   9.135   3.337  10.458  2.1121 -0.5683 -3.0970
  128MOL0     H17602   8.993   3.238  10.453 -1.0681  2.1430  2.5518
  128MOL0     H17603   9.085   3.100  10.641  1.4254 -0.8523 -2.2582
  128MOL0     H17604   9.238   3.199  10.647  0.3612  3.4195 -0.3017
  128MOL0     H17605   9.053   3.273  10.800  1.9688 -0.7504 -1.4953
  128MOL0     H17606   8.971   3.342  10.651 -0.2998 -3.6697 -2.0619
  128MOL0     H17607   9.181   3.487  10.620 -2.0590  1.6644 -0.7542
  128MOL0     H17608   9.119   3.506  10.795  1.4454 -0.6412  0.5579
  128MOL0     H17609   9.348   3.339  10.720 -1.2670 -2.9304  1.4421
  128MOL0     H17610   9.281   3.370  10.877  3.4482 -1.6313 -0.6397
  128MOL0     H17611   9.354   3.587  10.671 -1.3849 -0.4294 -0.3897
  128MOL0     H17612   9.330   3.610  10.851  2.5797 -0.2643  1.7573
  128MOL0     H17613   9.546   3.475  10.999  0.7769  1.8470 -0.0212
  128MOL0     H17614   9.800   3.555  11.055  1.7678 -0.9137  0.5218
  128MOL0     H17615   9.867   3.651  10.920 -1.7710  0.4878 -1.6929
  128MOL0     H17616  10.021   3.471  11.049 -1.4151  1.6613  0.2242
  128MOL0     H17617   9.928   3.346  10.983 -1.5427 -0.4926 -2.7080
  128MOL0     H17618  10.088   3.354  10.827 -0.6168 -0.7347 -2.1866
  128MOL0     H17619   9.950   3.415  10.750 -0.4505 -1.0992  0.6549
  128MOL0     H17620  10.157   3.545  10.673  0.4586  0.9106 -0.3099
  128MOL0     H17621  10.058   3.652  10.788  0.2534  0.0347  0.6489
  128MOL0     H17622  10.451   3.507  10.972  1.5650 -0.5587  2.4361
  128MOL0     H17623  10.555   3.622  11.290 -1.5070  1.9916  0.8543
  128MOL0     H17624  10.653   3.700  11.157  2.0672 -2.1999  2.0718
  128MOL0     H17625  10.624   3.533  11.153 -0.8201  0.8436 -1.2151
  128MOL0     H17626  10.607   3.809  11.564  0.1905  1.2812 -0.3847
  128MOL0     H17627  10.694   3.982  11.722  1.2354 -0.3642 -0.1535
  128MOL0     H17628  10.883   4.278  11.571 -0.9966  2.1290  0.0788
  128MOL0     H17629  10.732   4.380  11.551 -2.3145 -0.9482  1.0603
  128MOL0     H17630  10.890   4.516  11.705  1.4521  0.8508  1.7379
  128MOL0     H17631  10.752   4.444  11.792  1.6518  0.0354  1.7410
  128MOL0     H17632  10.878   4.270  11.879  0.8312  1.8351  5.4162
  128MOL0     H17633  10.931   4.442  11.915 -2.5684  2.3058 -0.6792
  128MOL0     H17634  11.091   4.428  11.760 -0.6100  1.4805  0.0097
  128MOL0     H17635  11.060   4.253  11.713  0.1862  2.9821 -3.1686
  128MOL0     H17636  11.140   4.323  12.001 -1.7606 -1.8821  1.3456
  128MOL0     H17637  11.129   4.171  11.930 -2.3042  2.5342  0.2843
  128MOL0     H17638  11.338   4.362  11.816  0.7727 -1.3401 -0.8250
  128MOL0     H17639  11.306   4.193  11.778 -2.5767 -1.0086  0.3064
  128MOL0     H17640  11.493   4.183  11.937 -1.9572 -5.1187  1.0032
  128MOL0     H17641  11.380   4.170  12.063  3.2089 -0.0702  1.2425
  128MOL0     H17642  11.524   4.323  12.143 -1.1606 -1.7752 -0.0598
  128MOL0     H17643  11.383   4.423  12.087  1.2695 -0.8217  4.4085
  128MOL0     H17644  10.587   4.285  11.440 -1.0214  0.1926  0.1518
  128MOL0     H17645  10.527   4.102  11.285  0.2609 -0.7742 -0.5649
  128MOL0     H17646  10.162   3.859  11.144  0.6569  0.1605 -0.1679
  128MOL0     H17647  10.083   3.738  10.983  0.0427  2.1973 -0.4402
  128MOL0     H17648   9.374   2.839  10.414 -1.0733 -0.2984  0.3888
  128MOL0     H17649   9.251   2.633  10.346 -2.1147 -0.8546 -1.1560
  128MOL0     H17650   9.253   2.392  10.161  1.8688  2.5363 -2.7762
  128MOL0     H17651   9.286   2.160  10.142  2.0017  2.1669 -3.0616
  128MOL0     H17652   9.238   1.950  10.218  0.6828 -0.1730  0.1293
  128MOL0     H17653   9.073   2.011  10.242 -0.8208  0.4492 -0.4490
  128MOL0     H17654   8.977   1.793  10.211 -0.1461  0.1056 -1.7401
  128MOL0     H17655   9.106   1.783  10.322 -0.9699  2.3242  0.1346
  128MOL0     H17656   9.082   1.684  10.055 -2.5118  2.6199  0.8440
  128MOL0     H17657   9.256   1.740  10.100  1.6391 -0.9787  3.2988
  128MOL0     H17658   9.266   1.590  10.276 -0.2650  1.3934 -0.0634
  128MOL0     H17659   9.255   1.497  10.120 -0.6562 -1.1444  0.4620
  128MOL0     H17660   8.971   1.340  10.375 -0.7274 -0.4254  0.0284
  128MOL0     H17661   8.943   2.126   9.895  2.2254 -2.0036 -1.2951
  128MOL0     H17662   8.811   2.326   9.831  0.2478 -1.2817  0.8321
  128MOL0     H17663   8.856   2.483   9.908 -0.1987  0.2154 -0.0814
  128MOL0     H17664   8.937   2.433   9.764  0.2488 -1.4388  0.7800
  129MOL0     O17665  10.228   9.598   0.065 -0.0107 -0.0278 -0.2047
  129MOL0     C17666  10.318   9.624  -0.008 -0.6048  0.0416 -0.5013
  129MOL0     O17667  10.348   9.752  -0.055  0.7936 -0.1717  0.3791
  129MOL0     C17668  10.284   9.861  -0.001  0.5374  0.7533 -0.0156
  129MOL0     C17669  10.197   9.862   0.117 -1.0102 -0.4387  0.3630
  129MOL0     C17670  10.120   9.976   0.134  0.4522  0.6394  1.0509
  129MOL0     C17671  10.141  10.104   0.079 -0.6515 -0.0008 -0.1567
  129MOL0     O17672  10.079  10.222   0.119  0.5318  0.5012 -0.3128
  129MOL0     C17673  10.020  10.224   0.246 -0.2852 -0.3932  0.8027
  129MOL0     C17674  10.030  10.367   0.306  0.3963 -0.0803  0.4324
  129MOL0     C17675   9.891  10.418   0.347  0.6567  0.6378  0.1607
  129MOL0     C17676   9.882  10.439   0.496  0.1697 -0.2462 -1.3132
  129MOL0     C17677   9.743  10.485   0.554  0.2166 -0.8036 -0.2391
  129MOL0     C17678   9.728  10.641   0.532 -0.6877  1.0083 -0.5237
  129MOL0     C17679   9.601  10.699   0.607 -0.5701 -0.6257 -0.3683
  129MOL0     C17680   9.603  10.846   0.591 -0.7054  0.7267 -0.3590
  129MOL0     N17681   9.513  10.912   0.681 -0.0864 -0.8218  0.5507
  129MOL0     C17682   9.377  10.914   0.680 -1.2691 -0.7298  0.0042
  129MOL0     C17683   9.337  10.976   0.793 -0.9512 -0.8592 -0.8677
  129MOL0     C17684   9.203  11.005   0.845  0.0945  0.0243 -0.5431
  129MOL0     C17685   9.142  10.874   0.896 -0.7381 -0.2403  0.6153
  129MOL0     C17686   9.055  10.887   1.012 -0.0026 -0.7424  0.4260
  129MOL0     C17687   8.984  10.762   1.057  0.6599 -0.4552  1.1233
  129MOL0     O17688   8.876  10.752   0.971  0.1807 -0.0517 -0.0082
  129MOL0     C17689   8.775  10.673   1.028  1.6465  0.2199  1.0007
  129MOL0     C17690   8.782  10.580   1.128  1.1408 -0.7355 -1.6711
  129MOL0     C17691   8.669  10.515   1.189 -0.4488  0.2446 -0.2309
  129MOL0     C17692   8.695  10.413   1.298  0.5720  0.0863 -0.3960
  129MOL0     C17693   8.541  10.546   1.137  0.1771  0.0731  0.0998
  129MOL0     C17694   8.410  10.491   1.181  0.2575 -0.1918 -0.6348
  129MOL0     O17695   8.294  10.557   1.158  0.5498 -0.5759  0.1795
  129MOL0     C17696   8.186  10.535   1.237 -0.0899  0.1602 -0.6927
  129MOL0     C17697   8.128  10.414   1.260 -0.3422  0.0411 -0.6361
  129MOL0     C17698   8.010  10.403   1.341  0.5065 -0.2100 -0.1020
  129MOL0     C17699   7.963  10.527   1.394  0.3624  0.4116 -0.1630
  129MOL0     O17700   7.856  10.536   1.485  0.3252 -0.7229 -0.5727
  129MOL0     C17701   7.768  10.433   1.515 -0.2133  0.3000  0.1678
  129MOL0     C17702   7.664  10.419   1.405 -0.0592 -0.5727 -1.3947
  129MOL0     C17703   7.547  10.339   1.447  0.9205  0.3524 -0.8105
  129MOL0     C17704   7.438  10.365   1.342 -0.9541 -0.4899 -0.7967
  129MOL0     C17705   7.337  10.257   1.335 -0.1470 -0.9293  1.2212
  129MOL0     C17706   7.262  10.215   1.462 -0.0705  0.1854 -0.1251
  129MOL0     C17707   7.156  10.327   1.496 -0.7870 -0.1085  0.1896
  129MOL0     C17708   7.040  10.281   1.574 -0.7671 -0.6863  0.8645
  129MOL0    Cl17709   6.927  10.206   1.454  0.5677 -0.1385 -0.1371
  129MOL0     C17710   8.020  10.653   1.381  0.5203  0.1453  0.3053
  129MOL0     C17711   8.132  10.647   1.296  0.1022 -0.4321 -0.5183
  129MOL0     O17712   8.421  10.375   1.230  0.3414 -0.2823 -0.1015
  129MOL0     C17713   8.535  10.651   1.039  0.0787 -0.4083  0.1773
  129MOL0     C17714   8.646  10.711   0.995 -0.2965  0.3005 -0.4415
  129MOL0     N17715   9.454  10.997   0.860 -0.3615 -0.4447 -0.3998
  129MOL0     N17716   9.553  10.965   0.797 -0.5774  0.0924  0.3203
  129MOL0     C17717  10.251  10.102  -0.010 -0.4834  0.5040 -0.0307
  129MOL0     C17718  10.310   9.989  -0.062  0.2179  0.7821 -0.6616
  129MOL0     C17719  10.404   9.510  -0.037 -0.6785  1.1226 -1.0577
  129MOL0     C17720  10.543   9.538  -0.060  0.4594 -0.4688 -0.5674
  129MOL0     C17721  10.635   9.438  -0.109 -0.0194  0.1864  0.3596
  129MOL0     C17722  10.594   9.309  -0.099 -0.5080  0.1285  0.2497
  129MOL0     O17723  10.668   9.191  -0.113 -0.4520 -0.7766  0.9293
  129MOL0     C17724  10.810   9.209  -0.140 -0.4299  0.3913 -0.2614
  129MOL0     C17725  10.881   9.075  -0.123  0.6560  0.6309 -0.9321
  129MOL0     C17726  11.019   9.096  -0.069  0.7727 -0.2850  0.5163
  129MOL0     C17727  11.091   8.957  -0.061  0.1398 -0.2513  1.0392
  129MOL0     C17728  11.045   8.872   0.044  0.1693  0.1373  0.4096
  129MOL0     C17729  11.002   8.802   0.128  0.5132  0.0053 -0.3209
  129MOL0     C17730  10.458   9.289  -0.097  0.5367  0.5933 -0.2737
  129MOL0     C17731  10.364   9.376  -0.060 -0.2195  0.4921 -0.6488
  129MOL0     C17732  10.221   9.334  -0.045 -0.5124 -0.5583 -0.3167
  129MOL0     H17733  10.174   9.780   0.183 -1.3613  0.0939  0.9146
  129MOL0     H17734  10.047   9.955   0.212  1.2614 -1.2483  1.3592
  129MOL0     H17735  10.082  10.165   0.315  0.6448 -1.5864 -0.9661
  129MOL0     H17736   9.917  10.191   0.233 -1.3631  2.6471  0.9947
  129MOL0     H17737  10.102  10.372   0.389  0.8813  1.0870 -0.0367
  129MOL0     H17738  10.061  10.434   0.225  1.1987 -0.4006  0.4564
  129MOL0     H17739   9.873  10.516   0.301  0.8326 -1.0705 -3.9606
  129MOL0     H17740   9.804  10.366   0.304  2.6148  0.7612 -4.5845
  129MOL0     H17741   9.922  10.350   0.544 -0.9092 -0.1816 -0.2415
  129MOL0     H17742   9.949  10.518   0.530 -1.8728  0.9644  0.1935
  129MOL0     H17743   9.745  10.469   0.663 -0.5348 -0.4761 -0.1677
  129MOL0     H17744   9.660  10.423   0.518  0.8215 -2.4645  1.0594
  129MOL0     H17745   9.821  10.687   0.567  0.2726 -1.5295  0.5283
  129MOL0     H17746   9.729  10.650   0.423  0.3050 -0.9416 -0.7271
  129MOL0     H17747   9.619  10.673   0.711  1.7948 -3.4193 -1.3524
  129MOL0     H17748   9.508  10.649   0.578  0.2774 -2.1754 -0.5230
  129MOL0     H17749   9.704  10.885   0.608 -0.2215 -0.5718 -0.1620
  129MOL0     H17750   9.573  10.866   0.488 -1.5794  0.9905 -0.0668
  129MOL0     H17751   9.321  10.889   0.591 -0.2773 -0.6166 -0.6648
  129MOL0     H17752   9.149  11.048   0.760  1.8251 -0.3380 -1.8650
  129MOL0     H17753   9.200  11.081   0.923  0.1654 -1.5855  1.0970
  129MOL0     H17754   9.078  10.833   0.818 -0.1181 -2.1224  1.0295
  129MOL0     H17755   9.230  10.817   0.928 -0.5050 -0.1659  0.1122
  129MOL0     H17756   9.111  10.922   1.099  1.8244  1.9480 -1.6577
  129MOL0     H17757   8.983  10.967   0.992 -1.3980 -1.8296  0.9024
  129MOL0     H17758   9.051  10.676   1.051 -1.3493 -2.0185 -1.6347
  129MOL0     H17759   8.963  10.764   1.164 -2.2372 -1.8392  0.7096
  129MOL0     H17760   8.883  10.557   1.162  0.6146 -1.2282 -0.4137
  129MOL0     H17761   8.627  10.440   1.379  0.9288 -0.7860  0.2074
  129MOL0     H17762   8.797  10.405   1.336  0.9009 -0.5281 -1.3447
  129MOL0     H17763   8.688  10.311   1.259  2.9193 -0.5325  0.6505
  129MOL0     H17764   8.168  10.325   1.213 -3.8013 -2.4972  0.8400
  129MOL0     H17765   7.961  10.307   1.357  1.7748 -0.5893  1.7937
  129MOL0     H17766   7.808  10.331   1.521 -1.3479 -0.3556 -2.2496
  129MOL0     H17767   7.713  10.459   1.606  0.2656 -0.5549  0.7119
  129MOL0     H17768   7.628  10.511   1.357 -0.9955 -0.4816 -0.5521
  129MOL0     H17769   7.712  10.364   1.323  0.2469 -0.5303 -1.2437
  129MOL0     H17770   7.514  10.352   1.551  1.9677 -1.7179 -0.1639
  129MOL0     H17771   7.565  10.231   1.442  0.9329  0.4097 -2.9292
  129MOL0     H17772   7.480  10.362   1.241  1.6129 -3.7096  0.2161
  129MOL0     H17773   7.397  10.462   1.373  3.1971  0.4821  2.7324
  129MOL0     H17774   7.267  10.285   1.256  0.7520  1.3043  1.1205
  129MOL0     H17775   7.381  10.167   1.293  0.6061 -0.1550  0.2941
  129MOL0     H17776   7.337  10.207   1.542  0.6996 -0.4304 -0.8920
  129MOL0     H17777   7.204  10.123   1.451  1.7947 -1.2546  1.3810
  129MOL0     H17778   7.122  10.384   1.409  4.7452  2.8532 -0.4502
  129MOL0     H17779   7.216  10.398   1.554  0.1765 -0.1419 -0.7234
  129MOL0     H17780   6.992  10.370   1.617 -0.5522  0.4300 -1.0974
  129MOL0     H17781   7.059  10.222   1.664 -1.2158  1.6488  2.5877
  129MOL0     H17782   7.978  10.745   1.420 -0.9242 -0.7523  0.9491
  129MOL0     H17783   8.178  10.741   1.268 -1.6091  0.3421 -0.9010
  129MOL0     H17784   8.441  10.675   0.989  1.1766 -0.5840 -2.0887
  129MOL0     H17785   8.637  10.786   0.917 -0.7873 -0.5662 -1.2493
  129MOL0     H17786  10.275  10.201  -0.048 -0.8222 -0.0672 -1.8336
  129MOL0     H17787  10.383  10.003  -0.141  0.9685  2.2310  0.2333
  129MOL0     H17788  10.563   9.643  -0.073 -3.0879  0.3601 -0.2422
  129MOL0     H17789  10.736   9.469  -0.135 -0.6627  1.9265 -0.1722
  129MOL0     H17790  10.838   9.248  -0.239 -1.0437 -2.1845 -1.5315
  129MOL0     H17791  10.848   9.280  -0.067 -1.4185  0.0860  0.5714
  129MOL0     H17792  10.891   9.021  -0.218 -1.1383 -1.8916  0.2082
  129MOL0     H17793  10.822   9.017  -0.052  0.9855  0.0078 -1.1660
  129MOL0     H17794  11.068   9.145  -0.154 -1.1620 -0.0085 -0.4829
  129MOL0     H17795  11.018   9.154   0.024  2.8572  3.2894 -1.4513
  129MOL0     H17796  11.198   8.976  -0.056  0.7805 -0.9562 -4.2852
  129MOL0     H17797  11.071   8.907  -0.156 -0.4616 -0.4893  1.2837
  129MOL0     H17798  10.980   8.736   0.209 -0.6089 -1.2165 -1.5489
  129MOL0     H17799  10.413   9.190  -0.102  1.0565  0.3124  0.4400
  129MOL0     H17800  10.193   9.326   0.060  1.9808 -0.1256  0.4472
  129MOL0     H17801  10.156   9.407  -0.094 -0.9277 -0.1602  0.8046
  129MOL0     H17802  10.212   9.234  -0.089 -0.6593 -0.2165 -1.0961
  130MOL0     O17803   5.903   3.106   3.241 -0.1871 -0.1374 -0.7333
  130MOL0     C17804   5.922   3.202   3.318 -0.6084 -0.0649 -0.6234
  130MOL0     O17805   5.825   3.255   3.397 -0.3764  0.5051  0.3678
  130MOL0     C17806   5.732   3.156   3.432  0.3858  0.1917  0.2799
  130MOL0     C17807   5.739   3.076   3.553 -0.0691 -1.1875 -0.7993
  130MOL0     C17808   5.644   2.977   3.572 -0.3033  0.6333  0.3299
  130MOL0     C17809   5.539   2.957   3.487  0.0837 -0.1112  1.1651
  130MOL0     O17810   5.454   2.866   3.528  0.0846 -0.5396  0.1156
  130MOL0     C17811   5.332   2.854   3.459  0.6486 -0.7888 -0.0890
  130MOL0     C17812   5.278   2.714   3.497  0.1672  0.2028 -0.8579
  130MOL0     C17813   5.379   2.605   3.482  1.0446 -0.8810 -0.0551
  130MOL0     C17814   5.326   2.469   3.514  0.5450  0.7842  0.2799
  130MOL0     C17815   5.433   2.359   3.501  0.9056  0.1164  0.8665
  130MOL0     C17816   5.482   2.343   3.360 -0.2384 -0.0335 -0.5212
  130MOL0     C17817   5.562   2.214   3.327 -0.6916 -0.5582  0.3551
  130MOL0     C17818   5.714   2.220   3.328  0.0910 -0.8048 -0.5031
  130MOL0     N17819   5.754   2.298   3.206  0.5498 -0.1352 -0.1792
  130MOL0     C17820   5.790   2.251   3.079 -0.7914 -0.2429  0.6859
  130MOL0     C17821   5.821   2.366   3.007 -0.1324  0.0244 -0.9257
  130MOL0     C17822   5.866   2.380   2.860 -0.5361 -0.0226  0.8526
  130MOL0     C17823   6.023   2.378   2.848  0.0933 -1.6783 -1.2855
  130MOL0     C17824   6.061   2.497   2.756  0.3955  0.0669 -0.1942
  130MOL0     C17825   6.198   2.497   2.697 -0.5470 -0.1775  0.7642
  130MOL0     O17826   6.307   2.494   2.798 -0.0040 -0.5804  0.4154
  130MOL0     C17827   6.439   2.472   2.761  0.4723 -0.5333 -0.5130
  130MOL0     C17828   6.484   2.448   2.629  0.4220 -0.6258 -0.0931
  130MOL0     C17829   6.620   2.428   2.599  1.2689 -0.1682 -0.1651
  130MOL0     C17830   6.657   2.404   2.452  0.0047 -0.6815 -0.8671
  130MOL0     C17831   6.718   2.444   2.699 -0.7587  0.5324  1.2087
  130MOL0     C17832   6.864   2.409   2.678  0.9114  1.0859 -0.5303
  130MOL0     O17833   6.934   2.490   2.594  0.0642 -0.4017 -0.1335
  130MOL0     C17834   7.063   2.495   2.617 -0.1839  0.2285 -0.0066
  130MOL0     C17835   7.097   2.625   2.643  0.6385  0.0663  0.0449
  130MOL0     C17836   7.230   2.645   2.690  0.3975  1.0529  0.1614
  130MOL0     C17837   7.331   2.549   2.662  0.3084  0.2724 -0.2402
  130MOL0     O17838   7.456   2.572   2.702  0.2115 -0.7098  0.2494
  130MOL0     C17839   7.480   2.630   2.832  0.3360 -1.3967  0.3450
  130MOL0     C17840   7.624   2.595   2.876  0.1206  0.1657 -0.3492
  130MOL0     C17841   7.614   2.466   2.966  1.0876 -0.0170 -0.1918
  130MOL0     C17842   7.581   2.490   3.113  0.5775  0.4092 -0.1516
  130MOL0     C17843   7.568   2.353   3.183  0.7445  0.2743  1.3313
  130MOL0     C17844   7.510   2.361   3.324  0.4242 -0.3677  0.2744
  130MOL0     C17845   7.570   2.245   3.401  1.2700 -0.9833  0.1116
  130MOL0     C17846   7.531   2.257   3.547 -1.1913 -0.5298  0.2141
  130MOL0    Cl17847   7.547   2.094   3.624  0.2844 -0.5890  0.2178
  130MOL0     C17848   7.291   2.428   2.617 -0.7970  0.1239 -0.0125
  130MOL0     C17849   7.157   2.395   2.599 -0.0234  0.5781  0.2754
  130MOL0     O17850   6.914   2.342   2.774 -0.0425 -0.3093 -0.7173
  130MOL0     C17851   6.665   2.488   2.827  0.4622  0.0581  0.8866
  130MOL0     C17852   6.538   2.494   2.853  0.2978 -0.1969  0.0059
  130MOL0     N17853   5.812   2.476   3.091 -0.0314 -0.3431  0.0984
  130MOL0     N17854   5.768   2.439   3.210 -0.1890  0.0045  0.4111
  130MOL0     C17855   5.527   3.042   3.373 -0.3226  0.7139 -0.4780
  130MOL0     C17856   5.621   3.131   3.346  0.3813 -0.4290  0.2197
  130MOL0     C17857   6.041   3.290   3.296 -0.9753 -0.9171 -0.1163
  130MOL0     C17858   6.074   3.325   3.167 -0.1937  1.1618  0.8243
  130MOL0     C17859   6.192   3.393   3.145  0.8266  1.3111  0.6002
  130MOL0     C17860   6.266   3.445   3.252  0.3407  0.8024 -0.2346
  130MOL0     O17861   6.376   3.527   3.231  0.6512 -0.3899 -0.4626
  130MOL0     C17862   6.452   3.540   3.112  0.5358 -1.0423 -0.0105
  130MOL0     C17863   6.554   3.428   3.098  0.4624 -0.3896  0.6810
  130MOL0     C17864   6.665   3.469   2.996 -0.4195 -0.4606  0.5563
  130MOL0     C17865   6.780   3.547   3.060 -0.0050  0.2067 -0.2943
  130MOL0     C17866   6.854   3.473   3.164  0.5337  0.4131 -0.1133
  130MOL0     C17867   6.929   3.427   3.251  0.0805 -0.1317  0.8269
  130MOL0     C17868   6.219   3.426   3.383 -0.7628 -0.2633  0.2212
  130MOL0     C17869   6.111   3.350   3.406 -0.0547  0.4664  0.4940
  130MOL0     C17870   6.072   3.319   3.548  0.5154 -0.5165 -0.1652
  130MOL0     H17871   5.818   3.095   3.625 -1.9421  1.0645  0.8122
  130MOL0     H17872   5.641   2.922   3.666  0.1283  1.6847  0.9841
  130MOL0     H17873   5.329   2.869   3.351 -4.1567  2.2519  0.1775
  130MOL0     H17874   5.262   2.927   3.501 -0.2690 -1.3524 -0.6043
  130MOL0     H17875   5.240   2.713   3.600  0.8775 -1.2088 -0.5979
  130MOL0     H17876   5.190   2.704   3.432 -0.1271  0.2426 -0.4719
  130MOL0     H17877   5.415   2.612   3.379 -0.3245 -1.0973 -0.5689
  130MOL0     H17878   5.462   2.617   3.553  0.0104 -0.4916  1.1294
  130MOL0     H17879   5.291   2.460   3.618  2.8641 -3.1337  0.9485
  130MOL0     H17880   5.237   2.448   3.453  0.3963 -0.2083  0.7991
  130MOL0     H17881   5.384   2.268   3.535 -2.3189  2.4734  3.1080
  130MOL0     H17882   5.521   2.379   3.564  2.3684 -0.5769 -0.8440
  130MOL0     H17883   5.389   2.350   3.304 -1.5941  1.0671  1.7151
  130MOL0     H17884   5.546   2.428   3.337  0.3001 -0.6211 -1.2634
  130MOL0     H17885   5.540   2.175   3.227 -3.6993 -0.5576  0.9172
  130MOL0     H17886   5.530   2.136   3.397  1.8499 -0.1180  2.1452
  130MOL0     H17887   5.742   2.264   3.424  1.1652  2.5053 -2.1951
  130MOL0     H17888   5.754   2.118   3.332  1.8315 -0.1842 -1.1923
  130MOL0     H17889   5.772   2.152   3.039 -2.0960  0.9021 -1.8522
  130MOL0     H17890   5.825   2.477   2.830  0.4189 -0.0704 -0.7192
  130MOL0     H17891   5.816   2.298   2.808 -1.4272  1.5732 -0.9397
  130MOL0     H17892   6.064   2.398   2.947 -1.5277  1.2910 -1.0842
  130MOL0     H17893   6.063   2.280   2.819  0.1980 -1.9457 -0.2728
  130MOL0     H17894   5.994   2.510   2.670  1.4019  0.4337 -0.9346
  130MOL0     H17895   6.069   2.588   2.817  1.4675  1.2763 -2.0272
  130MOL0     H17896   6.207   2.411   2.630  0.3655  0.8080 -0.4438
  130MOL0     H17897   6.212   2.583   2.631 -1.5542  0.1457  0.9601
  130MOL0     H17898   6.412   2.443   2.548 -0.3952  0.5806  0.5286
  130MOL0     H17899   6.590   2.328   2.410  0.8309 -3.1796  1.9372
  130MOL0     H17900   6.760   2.369   2.438 -0.8023 -3.4752 -0.5682
  130MOL0     H17901   6.649   2.502   2.406 -1.5227  0.3211  1.3496
  130MOL0     H17902   7.030   2.709   2.658  2.2812  1.5275 -0.4813
  130MOL0     H17903   7.260   2.738   2.737  3.2079  0.7867 -0.9139
  130MOL0     H17904   7.461   2.738   2.838 -2.4057 -1.7948  0.2975
  130MOL0     H17905   7.408   2.584   2.901  0.4935  0.3319  1.7358
  130MOL0     H17906   7.685   2.565   2.790  1.0853 -0.2496  0.4628
  130MOL0     H17907   7.670   2.677   2.931  1.3568 -1.1982  0.7287
  130MOL0     H17908   7.709   2.416   2.946  0.9059  0.7452 -3.3585
  130MOL0     H17909   7.536   2.405   2.920  2.1965 -0.4479 -1.5773
  130MOL0     H17910   7.488   2.548   3.116  0.3922  0.3001 -2.2783
  130MOL0     H17911   7.660   2.551   3.157  0.2003  0.5061  0.4080
  130MOL0     H17912   7.497   2.286   3.132 -0.4426  2.1075  0.4903
  130MOL0     H17913   7.671   2.317   3.181  0.0687 -2.4285 -4.1628
  130MOL0     H17914   7.401   2.369   3.313 -0.0352 -3.4535  1.4692
  130MOL0     H17915   7.540   2.454   3.373 -2.2118  0.0569  1.2780
  130MOL0     H17916   7.678   2.245   3.388  1.3918  0.5560  0.9224
  130MOL0     H17917   7.518   2.155   3.366  2.2886 -1.9924  1.1266
  130MOL0     H17918   7.428   2.292   3.551 -0.9000  0.3101  0.5422
  130MOL0     H17919   7.593   2.335   3.592  2.7982 -0.8323 -3.9394
  130MOL0     H17920   7.369   2.352   2.609  1.7285  2.4226  1.3907
  130MOL0     H17921   7.125   2.300   2.558 -1.1719  0.5863  1.1261
  130MOL0     H17922   6.739   2.512   2.903  2.3713  1.1523 -1.1842
  130MOL0     H17923   6.504   2.519   2.953 -2.0593 -2.4114 -0.1227
  130MOL0     H17924   5.445   3.028   3.302 -2.0325  1.5322  1.2444
  130MOL0     H17925   5.622   3.190   3.255  0.3016 -2.8738 -1.4644
  130MOL0     H17926   6.025   3.275   3.084 -0.0969  2.4890 -0.0602
  130MOL0     H17927   6.217   3.393   3.039  0.5017 -1.1378  0.4791
  130MOL0     H17928   6.389   3.540   3.022  0.5092  0.3978 -0.0193
  130MOL0     H17929   6.495   3.641   3.111 -1.6550 -0.0296 -1.3603
  130MOL0     H17930   6.504   3.340   3.057  0.3308  0.4909 -1.1172
  130MOL0     H17931   6.596   3.399   3.195 -1.2025 -1.6814  1.0493
  130MOL0     H17932   6.706   3.379   2.950  0.5521 -0.2907  1.0650
  130MOL0     H17933   6.631   3.536   2.916 -1.8883 -1.2117  0.5259
  130MOL0     H17934   6.734   3.632   3.112  4.8445  2.6612  0.6235
  130MOL0     H17935   6.853   3.594   2.993  1.2747  1.1238  1.6106
  130MOL0     H17936   6.992   3.376   3.321  0.5816 -1.9548 -0.8509
  130MOL0     H17937   6.274   3.472   3.464 -2.7321  0.4950  1.1886
  130MOL0     H17938   5.996   3.394   3.569  1.4233  0.7482 -1.2234
  130MOL0     H17939   6.036   3.217   3.564  1.8206 -1.1440 -1.0168
  130MOL0     H17940   6.157   3.337   3.615  1.7780 -3.7143 -0.7112
  131MOL0     O17941   7.177   4.673   8.748  0.3096 -0.2300  0.3306
  131MOL0     C17942   7.177   4.591   8.830 -0.2245  0.0389  0.1422
  131MOL0     O17943   7.266   4.586   8.936 -0.2667  0.7417  0.2640
  131MOL0     C17944   7.366   4.680   8.934 -0.4966  0.5846  1.1809
  131MOL0     C17945   7.497   4.641   8.916  0.7902  0.3793 -0.1607
  131MOL0     C17946   7.594   4.739   8.889 -0.5855 -0.7679 -0.6536
  131MOL0     C17947   7.553   4.876   8.880  0.9139  1.2904 -0.5589
  131MOL0     O17948   7.652   4.961   8.848 -0.4615  0.3760  0.2536
  131MOL0     C17949   7.616   5.094   8.806  0.3721  0.3728  0.0500
  131MOL0     C17950   7.610   5.181   8.935  0.0294  0.8955 -0.0349
  131MOL0     C17951   7.746   5.202   8.996  0.3007  0.2256 -0.1188
  131MOL0     C17952   7.833   5.296   8.922  0.0334 -0.2396  0.2617
  131MOL0     C17953   7.973   5.304   8.986 -0.1597 -0.2051 -0.1026
  131MOL0     C17954   8.046   5.433   8.946  0.6623 -0.2636  0.4033
  131MOL0     C17955   8.081   5.445   8.797 -1.0690 -0.4652  0.7112
  131MOL0     C17956   8.184   5.347   8.745 -0.8324  1.0406 -0.6784
  131MOL0     N17957   8.269   5.376   8.638 -0.7415 -0.3639 -0.2515
  131MOL0     C17958   8.221   5.382   8.513 -0.5219 -0.7668  0.4407
  131MOL0     C17959   8.311   5.453   8.439 -0.2045  0.6677  0.2149
  131MOL0     C17960   8.295   5.492   8.289  0.1988  0.4767 -0.8427
  131MOL0     C17961   8.208   5.613   8.283 -0.4756 -0.9499 -0.8298
  131MOL0     C17962   8.162   5.656   8.141 -0.2499 -0.5237  0.4434
  131MOL0     C17963   8.108   5.798   8.150 -0.0522 -0.3938  1.0239
  131MOL0     O17964   8.037   5.828   8.025 -0.0968  0.4759 -0.4234
  131MOL0     C17965   7.941   5.925   8.010 -0.3116  0.0445  0.6124
  131MOL0     C17966   7.897   5.958   7.884  0.4695  1.3447  0.1771
  131MOL0     C17967   7.800   6.052   7.867 -0.5907  0.9254  0.0812
  131MOL0     C17968   7.764   6.076   7.724  0.2585 -0.3603  0.3522
  131MOL0     C17969   7.743   6.120   7.975 -1.2773  0.4960  0.9420
  131MOL0     C17970   7.648   6.230   7.947 -0.9689 -0.6406  0.1406
  131MOL0     O17971   7.683   6.329   7.866 -1.5458 -0.4547  1.4744
  131MOL0     C17972   7.624   6.454   7.870 -0.3297 -0.6814 -0.9663
  131MOL0     C17973   7.599   6.540   7.761 -0.2371  0.3046 -0.5279
  131MOL0     C17974   7.560   6.670   7.780  0.8757 -0.9478 -1.1307
  131MOL0     C17975   7.553   6.730   7.912 -0.2791 -0.6594 -0.3116
  131MOL0     O17976   7.518   6.864   7.926 -0.0706  0.2571  0.7785
  131MOL0     C17977   7.623   6.935   7.994 -0.1438  0.5996  0.3533
  131MOL0     C17978   7.569   7.075   8.008  0.0095 -0.2604  0.2393
  131MOL0     C17979   7.633   7.162   8.118 -0.0921 -0.4753  0.6785
  131MOL0     C17980   7.556   7.290   8.133  0.4270 -0.3475 -0.8202
  131MOL0     C17981   7.631   7.389   8.236 -0.3390 -0.6832  0.3682
  131MOL0     C17982   7.578   7.538   8.248  0.1825  0.7198  0.7963
  131MOL0     C17983   7.576   7.602   8.115 -0.1904 -0.1903  0.3111
  131MOL0     C17984   7.507   7.741   8.134 -0.0485  0.1788 -1.4459
  131MOL0    Cl17985   7.523   7.857   8.003  0.1769  0.3327 -0.3193
  131MOL0     C17986   7.571   6.642   8.015  0.2821 -0.5467  0.3866
  131MOL0     C17987   7.610   6.511   7.995  0.1046  0.6583  0.0022
  131MOL0     O17988   7.542   6.226   8.012  0.3820 -0.1826  0.4601
  131MOL0     C17989   7.781   6.082   8.105  0.6556 -0.4965  0.2579
  131MOL0     C17990   7.880   5.989   8.120  0.1636  0.6000  0.9235
  131MOL0     N17991   8.410   5.490   8.525 -0.6903 -0.2917 -0.0519
  131MOL0     N17992   8.388   5.443   8.645 -0.3651 -0.0824  0.8505
  131MOL0     C17993   7.416   4.909   8.901  0.5107  0.3880  0.5138
  131MOL0     C17994   7.324   4.811   8.934 -0.0095  0.5912 -0.0486
  131MOL0     C17995   7.076   4.492   8.819 -0.4036  0.1188  0.7761
  131MOL0     C17996   7.051   4.408   8.936  1.1939  0.0339  0.9021
  131MOL0     C17997   6.970   4.300   8.921  1.5072  0.9512  0.2348
  131MOL0     C17998   6.901   4.269   8.811  0.0862  0.5036  0.1508
  131MOL0     O17999   6.815   4.161   8.829 -0.1148  0.2197 -0.4693
  131MOL0     C18000   6.728   4.122   8.727  0.5628 -0.3748 -0.4736
  131MOL0     C18001   6.593   4.196   8.739  0.3030  0.8410  0.9124
  131MOL0     C18002   6.494   4.117   8.654  1.0752  0.3661  0.0960
  131MOL0     C18003   6.380   4.215   8.626 -0.7329 -0.4975  0.4375
  131MOL0     C18004   6.299   4.185   8.511 -0.2348  0.4261  0.3055
  131MOL0     C18005   6.228   4.157   8.408 -0.4897 -0.4095 -0.9476
  131MOL0     C18006   6.929   4.347   8.700  0.3698  0.4994 -0.0634
  131MOL0     C18007   7.009   4.460   8.697 -0.3236  0.1792 -0.6419
  131MOL0     C18008   7.015   4.522   8.554 -0.4484  0.2568  0.0502
  131MOL0     H18009   7.517   4.534   8.908  2.6032  0.7383 -0.9027
  131MOL0     H18010   7.694   4.706   8.862  0.2177  0.3720  0.8079
  131MOL0     H18011   7.526   5.106   8.746 -0.0202  2.1129  0.9067
  131MOL0     H18012   7.698   5.134   8.745  0.5916  0.1266  0.1813
  131MOL0     H18013   7.576   5.280   8.903 -0.1097  0.6356 -0.7061
  131MOL0     H18014   7.536   5.148   9.009  1.3012  0.4888  1.0790
  131MOL0     H18015   7.736   5.248   9.094  6.9487  1.4650  0.4218
  131MOL0     H18016   7.787   5.102   9.014 -1.4583 -0.0548  3.0168
  131MOL0     H18017   7.846   5.277   8.815 -1.2006  3.9670 -0.8436
  131MOL0     H18018   7.788   5.396   8.920  0.9214  0.1825  0.3824
  131MOL0     H18019   8.019   5.206   8.968 -2.2974 -1.5996  1.5357
  131MOL0     H18020   7.964   5.312   9.095 -0.0396 -0.8709 -0.0434
  131MOL0     H18021   7.978   5.518   8.958  1.9084  0.5719  1.9740
  131MOL0     H18022   8.130   5.472   9.004  2.0152  0.7943 -2.0857
  131MOL0     H18023   8.133   5.542   8.788 -0.4246 -0.7429  1.3342
  131MOL0     H18024   7.996   5.438   8.728  1.7161 -0.2578 -3.0847
  131MOL0     H18025   8.248   5.307   8.824 -2.7332  1.8750  1.4075
  131MOL0     H18026   8.118   5.264   8.716 -3.0822  1.7415  1.9140
  131MOL0     H18027   8.131   5.342   8.468 -1.9113  1.3398  1.1856
  131MOL0     H18028   8.254   5.407   8.234 -1.7204  1.7707 -1.5193
  131MOL0     H18029   8.389   5.526   8.244  1.2741  2.2163  2.3619
  131MOL0     H18030   8.122   5.608   8.350 -0.3790 -0.8435 -0.6942
  131MOL0     H18031   8.269   5.697   8.321 -0.9932  0.7690 -3.5400
  131MOL0     H18032   8.248   5.649   8.074  0.2778 -1.2864  1.1917
  131MOL0     H18033   8.083   5.592   8.101 -1.8607  0.7158  1.4811
  131MOL0     H18034   8.033   5.810   8.229 -0.2184  1.6555  0.6143
  131MOL0     H18035   8.189   5.872   8.160  0.3816 -0.6510 -0.4194
  131MOL0     H18036   7.922   5.893   7.800  3.3625  1.0994  1.1409
  131MOL0     H18037   7.825   6.021   7.651 -1.2060  0.6156 -1.7320
  131MOL0     H18038   7.785   6.181   7.699  1.1368 -0.6861 -0.3761
  131MOL0     H18039   7.661   6.043   7.707 -0.9788  2.6401  1.3569
  131MOL0     H18040   7.601   6.505   7.659 -1.6084 -0.7867 -0.2120
  131MOL0     H18041   7.516   6.739   7.708 -1.0278 -0.1002  0.7371
  131MOL0     H18042   7.645   6.882   8.088 -3.8433 -1.0527  0.4669
  131MOL0     H18043   7.717   6.940   7.940 -1.4373  0.8008 -2.0177
  131MOL0     H18044   7.576   7.131   7.915 -0.2278 -0.2439  0.2282
  131MOL0     H18045   7.460   7.076   8.018 -0.0696  1.0865 -0.5528
  131MOL0     H18046   7.736   7.187   8.094  0.1339 -1.2302  0.8359
  131MOL0     H18047   7.619   7.100   8.207  0.4794 -0.8345  0.5213
  131MOL0     H18048   7.461   7.270   8.184  1.0799 -0.8116  0.2535
  131MOL0     H18049   7.533   7.339   8.038 -1.4358  1.4151  0.4449
  131MOL0     H18050   7.622   7.341   8.333  0.0598 -0.8904  0.3068
  131MOL0     H18051   7.736   7.401   8.207 -0.2806  2.4083  1.5208
  131MOL0     H18052   7.651   7.596   8.305  0.7396 -0.4619  1.3350
  131MOL0     H18053   7.481   7.525   8.298 -0.7258 -0.3715 -1.0889
  131MOL0     H18054   7.517   7.551   8.039  2.3248  2.4183 -3.7357
  131MOL0     H18055   7.679   7.608   8.080  0.2049 -2.7593  0.8330
  131MOL0     H18056   7.554   7.795   8.216 -0.3174  1.0906 -1.8718
  131MOL0     H18057   7.399   7.729   8.148  0.3310  0.3176  3.0530
  131MOL0     H18058   7.569   6.686   8.114 -0.7038 -0.1515  0.2003
  131MOL0     H18059   7.627   6.455   8.087 -3.0433  0.8089  0.7674
  131MOL0     H18060   7.720   6.118   8.187  1.8693 -0.7683  1.3211
  131MOL0     H18061   7.906   5.969   8.223  1.2977 -2.9415  0.0972
  131MOL0     H18062   7.364   5.004   8.892 -0.7797 -0.4639 -1.8600
  131MOL0     H18063   7.218   4.836   8.939 -0.3273 -0.7073  0.0217
  131MOL0     H18064   7.093   4.415   9.036 -0.8305 -0.8720  1.8631
  131MOL0     H18065   6.952   4.236   9.006  1.3316  0.1276 -0.4079
  131MOL0     H18066   6.757   4.155   8.627 -3.0944 -1.4233 -2.0565
  131MOL0     H18067   6.721   4.013   8.724 -0.3388 -0.3393 -0.0637
  131MOL0     H18068   6.598   4.299   8.702 -1.5083  1.2234  1.6229
  131MOL0     H18069   6.549   4.216   8.837 -0.2025  1.4363  0.5710
  131MOL0     H18070   6.536   4.082   8.559  0.2601  2.7958 -1.2527
  131MOL0     H18071   6.446   4.040   8.714 -2.1497 -0.1459 -2.8638
  131MOL0     H18072   6.425   4.310   8.597  2.9928 -2.3485 -0.5240
  131MOL0     H18073   6.316   4.240   8.711 -0.9879  1.2808 -0.2376
  131MOL0     H18074   6.173   4.147   8.317  1.8451  4.1515 -3.1792
  131MOL0     H18075   6.889   4.317   8.604 -1.8514 -1.0371  1.2567
  131MOL0     H18076   6.915   4.514   8.510 -0.5100  1.0099  0.0256
  131MOL0     H18077   7.066   4.617   8.534  1.1283 -0.9957 -2.4316
  131MOL0     H18078   7.076   4.452   8.496 -2.5302 -3.0562  1.6002
  132MOL0     O18079   7.742   5.382   0.347  0.1279  0.1286  0.5516
  132MOL0     C18080   7.697   5.286   0.407 -0.8169  0.0427  0.5499
  132MOL0     O18081   7.761   5.225   0.516 -0.1422 -0.2322 -0.0424
  132MOL0     C18082   7.869   5.294   0.560 -0.7509 -0.3682  0.0321
  132MOL0     C18083   7.997   5.233   0.551  0.6436  0.2044  1.8348
  132MOL0     C18084   8.110   5.297   0.606 -0.5893 -0.2462 -0.0291
  132MOL0     C18085   8.098   5.429   0.651 -0.5115  1.2991  0.1127
  132MOL0     O18086   8.208   5.491   0.697 -0.8941 -0.1267  0.5042
  132MOL0     C18087   8.201   5.557   0.823 -0.6442 -1.1967 -0.8672
  132MOL0     C18088   8.344   5.562   0.865  0.0385 -0.3867 -0.5088
  132MOL0     C18089   8.356   5.638   0.994 -0.2649 -0.3765 -0.4535
  132MOL0     C18090   8.494   5.616   1.056  0.1132  0.2860  0.5681
  132MOL0     C18091   8.504   5.707   1.186  0.7986 -1.0233 -0.1691
  132MOL0     C18092   8.441   5.630   1.314  0.1322 -0.1392 -0.9659
  132MOL0     C18093   8.490   5.679   1.445 -0.1686  0.4333  0.9171
  132MOL0     C18094   8.483   5.566   1.551 -0.5401 -0.4192  0.0854
  132MOL0     N18095   8.556   5.444   1.505 -0.5149 -0.9469 -0.0057
  132MOL0     C18096   8.501   5.326   1.459  1.2204  0.0894  0.8756
  132MOL0     C18097   8.607   5.255   1.431 -0.2435 -0.3088 -0.2182
  132MOL0     C18098   8.585   5.110   1.394  0.2179  0.2496  0.2415
  132MOL0     C18099   8.630   5.022   1.501 -0.0298 -0.2929 -0.8068
  132MOL0     C18100   8.788   5.018   1.489  0.7311 -0.5546  0.5053
  132MOL0     C18101   8.855   4.958   1.609 -0.5542  1.0040 -1.3384
  132MOL0     O18102   8.790   4.837   1.652  0.9353 -0.8971  0.2479
  132MOL0     C18103   8.809   4.715   1.603 -0.7461 -0.0423 -0.7725
  132MOL0     C18104   8.921   4.687   1.525 -0.1129  0.3636 -0.3766
  132MOL0     C18105   8.942   4.561   1.460  0.3270  0.3785 -0.2519
  132MOL0     C18106   9.052   4.553   1.360  0.4045 -0.8815 -0.5486
  132MOL0     C18107   8.844   4.458   1.491 -0.4380 -0.4083  0.1592
  132MOL0     C18108   8.850   4.322   1.437 -0.3057 -0.4430  0.6266
  132MOL0     O18109   8.911   4.296   1.322  0.0604 -1.0517  0.8822
  132MOL0     C18110   8.908   4.171   1.266 -0.0780  0.2901 -0.8585
  132MOL0     C18111   8.949   4.052   1.345  0.3011  0.3130  0.9252
  132MOL0     C18112   8.953   3.919   1.278 -0.5797 -0.5562 -0.1807
  132MOL0     C18113   8.922   3.906   1.141 -0.3082  0.6330  0.3278
  132MOL0     O18114   8.915   3.789   1.066 -0.6153  0.4239 -0.6513
  132MOL0     C18115   9.051   3.724   1.069  0.2581 -0.8521  0.1037
  132MOL0     C18116   9.027   3.605   0.978  0.6600 -0.2665 -0.3936
  132MOL0     C18117   9.150   3.530   0.943 -0.2898  0.2524  0.3785
  132MOL0     C18118   9.144   3.400   0.862  0.9509 -0.0834  0.9654
  132MOL0     C18119   9.277   3.333   0.863  0.4979 -0.5216  0.1666
  132MOL0     C18120   9.280   3.205   0.771  0.3317 -0.5151  0.6396
  132MOL0     C18121   9.232   3.084   0.854 -0.6628  0.3391  0.7633
  132MOL0     C18122   9.322   2.971   0.845  0.2065 -0.2672  0.2741
  132MOL0    Cl18123   9.475   3.008   0.920  0.3862 -0.1970 -0.2404
  132MOL0     C18124   8.886   4.022   1.069  0.7668 -0.3068  0.0334
  132MOL0     C18125   8.868   4.147   1.138 -0.0327  0.2217  0.3568
  132MOL0     O18126   8.794   4.237   1.509 -0.7342 -0.1073  0.5432
  132MOL0     C18127   8.733   4.487   1.575 -0.4399 -0.3814 -0.2219
  132MOL0     C18128   8.721   4.614   1.635  0.5420  0.6497 -0.8338
  132MOL0     N18129   8.725   5.324   1.457  0.6857  0.7411  0.7536
  132MOL0     N18130   8.692   5.441   1.484 -0.8783  0.0962  0.1130
  132MOL0     C18131   7.968   5.484   0.667  0.1740  0.2898 -0.0480
  132MOL0     C18132   7.852   5.417   0.624  0.3079  0.2371 -0.7354
  132MOL0     C18133   7.590   5.209   0.352  0.4168  0.0769  0.8716
  132MOL0     C18134   7.556   5.087   0.413 -0.1695 -0.7844 -0.5231
  132MOL0     C18135   7.443   5.021   0.362 -0.2747 -0.1442  0.0732
  132MOL0     C18136   7.358   5.065   0.259  0.3886 -0.0250  0.2836
  132MOL0     O18137   7.241   5.015   0.211 -0.5767 -0.1323  0.1302
  132MOL0     C18138   7.175   4.916   0.287 -0.0453 -0.3557  1.2650
  132MOL0     C18139   7.043   4.883   0.221  0.3760 -1.0581 -1.0503
  132MOL0     C18140   6.950   5.006   0.239  0.5706  0.4355 -0.7566
  132MOL0     C18141   6.808   4.975   0.184 -0.0327 -0.0211 -0.1090
  132MOL0     C18142   6.823   4.960   0.035 -0.1391 -0.1009 -0.6242
  132MOL0     C18143   6.845   4.953  -0.089  0.0159  0.3485 -0.0975
  132MOL0     C18144   7.399   5.177   0.203 -0.7325 -0.4648 -0.2133
  132MOL0     C18145   7.515   5.251   0.241 -0.2364 -0.3769  1.0777
  132MOL0     C18146   7.546   5.374   0.159  0.7186  0.0086  0.3449
  132MOL0     H18147   8.004   5.134   0.506  0.8460  1.9398 -2.4412
  132MOL0     H18148   8.210   5.254   0.601  1.0134  3.1943 -1.8948
  132MOL0     H18149   8.140   5.512   0.902 -0.1248  0.2431  0.4012
  132MOL0     H18150   8.163   5.658   0.805 -2.4410 -1.5429  0.6649
  132MOL0     H18151   8.389   5.463   0.879  0.5394 -0.2867 -1.3052
  132MOL0     H18152   8.400   5.632   0.801 -1.3236  2.6689  1.4322
  132MOL0     H18153   8.347   5.745   0.973 -0.8588  0.2151  2.4199
  132MOL0     H18154   8.274   5.623   1.064  1.1752  2.1704  1.9697
  132MOL0     H18155   8.511   5.511   1.080 -0.3092 -0.4119 -1.9097
  132MOL0     H18156   8.573   5.640   0.984 -0.5057 -0.0281 -0.2233
  132MOL0     H18157   8.460   5.803   1.160  1.3812 -0.9131 -0.7903
  132MOL0     H18158   8.610   5.733   1.203  0.9510 -0.6758 -1.5600
  132MOL0     H18159   8.332   5.640   1.308 -0.2329 -1.4225  1.8014
  132MOL0     H18160   8.468   5.527   1.289 -2.0225 -0.5265 -1.9560
  132MOL0     H18161   8.437   5.771   1.474 -4.0114 -1.4558  0.5333
  132MOL0     H18162   8.592   5.712   1.426  0.4356 -2.2706 -1.0929
  132MOL0     H18163   8.531   5.603   1.641 -2.3705  0.9151  0.5607
  132MOL0     H18164   8.385   5.523   1.574 -0.1722 -2.0527 -1.1993
  132MOL0     H18165   8.398   5.297   1.444  0.3391  2.8828  0.8790
  132MOL0     H18166   8.635   5.094   1.297  0.9268 -0.5629  0.7325
  132MOL0     H18167   8.479   5.088   1.381  0.5305 -1.2415  0.0221
  132MOL0     H18168   8.600   5.055   1.601 -1.2933 -0.9763 -0.9261
  132MOL0     H18169   8.585   4.922   1.499 -1.7089  0.3672  0.9332
  132MOL0     H18170   8.808   4.962   1.397 -2.0681  1.4889 -1.5540
  132MOL0     H18171   8.825   5.120   1.476 -3.7645  1.0218 -2.5616
  132MOL0     H18172   8.964   4.957   1.606 -0.5453 -1.3941 -1.9205
  132MOL0     H18173   8.833   5.029   1.690 -4.7108 -0.6020 -0.8048
  132MOL0     H18174   8.995   4.765   1.512 -0.8829  0.9178 -1.6362
  132MOL0     H18175   9.104   4.459   1.381  0.0996 -1.3897 -1.9828
  132MOL0     H18176   9.123   4.637   1.369  0.9102 -1.4674  1.4495
  132MOL0     H18177   9.016   4.545   1.257  2.1460  2.0564 -1.5225
  132MOL0     H18178   8.964   4.057   1.453 -3.0542  0.8429  1.4755
  132MOL0     H18179   8.985   3.836   1.340 -1.2612 -1.8570 -1.5010
  132MOL0     H18180   9.110   3.793   1.008  0.1340 -2.3923 -1.8912
  132MOL0     H18181   9.093   3.715   1.169  0.8015  3.2653  0.4003
  132MOL0     H18182   8.971   3.527   1.030 -0.5433 -0.2869 -1.6867
  132MOL0     H18183   8.977   3.634   0.885 -2.9583 -0.5891  1.3009
  132MOL0     H18184   9.186   3.490   1.039  2.9024 -0.7597 -1.0843
  132MOL0     H18185   9.227   3.594   0.899  0.0202 -0.2881  0.1228
  132MOL0     H18186   9.108   3.423   0.762 -0.0317 -1.0484  1.0789
  132MOL0     H18187   9.072   3.332   0.909 -1.2490  1.7745  0.4252
  132MOL0     H18188   9.348   3.408   0.830 -0.8720  1.0678  0.6865
  132MOL0     H18189   9.309   3.301   0.962  2.6147  0.0835 -0.2872
  132MOL0     H18190   9.385   3.190   0.744  1.2621  0.7625  3.2618
  132MOL0     H18191   9.212   3.223   0.687 -0.3778  0.2875  1.3758
  132MOL0     H18192   9.138   3.052   0.808  0.4747  1.1386 -2.4133
  132MOL0     H18193   9.206   3.101   0.959 -2.8297 -0.0464  0.3274
  132MOL0     H18194   9.332   2.922   0.748  0.4292  0.0483  0.1367
  132MOL0     H18195   9.282   2.889   0.907  2.5080  2.5236  6.2002
  132MOL0     H18196   8.859   4.013   0.965  4.1546 -1.7131 -0.8638
  132MOL0     H18197   8.824   4.232   1.087  0.8224 -0.2351 -1.2274
  132MOL0     H18198   8.654   4.415   1.595 -0.4982  0.0495  1.2297
  132MOL0     H18199   8.641   4.633   1.706 -0.7423  2.3462 -2.6519
  132MOL0     H18200   7.959   5.590   0.688  0.6749  0.1899  0.7182
  132MOL0     H18201   7.754   5.461   0.636 -0.1788 -1.1554  0.5841
  132MOL0     H18202   7.621   5.055   0.493  2.9295  1.7743 -1.7835
  132MOL0     H18203   7.419   4.926   0.409  1.7168 -0.7280 -0.0084
  132MOL0     H18204   7.239   4.828   0.303  0.0542 -0.5978 -0.3185
  132MOL0     H18205   7.158   4.949   0.390 -1.6153  0.4587  0.7645
  132MOL0     H18206   6.994   4.793   0.260 -0.9737 -0.2377 -0.7923
  132MOL0     H18207   7.054   4.863   0.114 -0.3908  2.3488 -1.8847
  132MOL0     H18208   6.940   5.024   0.347 -1.9026 -2.6411 -0.3115
  132MOL0     H18209   6.998   5.092   0.192 -1.6857  0.8399 -2.4983
  132MOL0     H18210   6.744   5.062   0.204  2.3243  1.3366  2.2599
  132MOL0     H18211   6.752   4.897   0.235 -0.1589 -0.4817 -0.9349
  132MOL0     H18212   6.858   4.967  -0.194 -0.2151  2.7163  0.1377
  132MOL0     H18213   7.354   5.207   0.108  0.0157 -4.9298 -2.2117
  132MOL0     H18214   7.633   5.354   0.096 -0.9473 -1.8107 -1.5469
  132MOL0     H18215   7.469   5.387   0.082 -0.6970 -1.9895  1.3058
  132MOL0     H18216   7.562   5.472   0.205  1.3903  0.3382 -0.5687
  133MOL0     O18217  10.948   8.077   5.177 -1.1477  0.3192  0.4078
  133MOL0     C18218  10.868   8.143   5.240 -0.3379  0.4189 -0.4164
  133MOL0     O18219  10.887   8.203   5.360  0.2891 -0.9840  0.8998
  133MOL0     C18220  10.996   8.185   5.434  0.1393  0.5293 -0.5506
  133MOL0     C18221  11.112   8.251   5.403 -0.2925 -0.0252  0.4094
  133MOL0     C18222  11.233   8.210   5.468  0.7251  0.4950  0.4958
  133MOL0     C18223  11.228   8.113   5.570 -0.6660  0.8184 -0.2624
  133MOL0     O18224  11.331   8.099   5.663 -0.5083  0.3086  0.1608
  133MOL0     C18225  11.463   8.035   5.628  0.6001 -0.3138 -0.5754
  133MOL0     C18226  11.563   8.048   5.742 -0.0391  0.6423  0.0782
  133MOL0     C18227  11.588   8.192   5.778  0.1904 -0.0394  0.5436
  133MOL0     C18228  11.697   8.217   5.887  0.2990  0.0406  0.3845
  133MOL0     C18229  11.744   8.362   5.899 -0.4858  0.8741 -0.0754
  133MOL0     C18230  11.878   8.357   5.948 -0.6961  0.5354 -0.1817
  133MOL0     C18231  11.930   8.497   5.977  1.3258 -0.0042  0.3172
  133MOL0     C18232  11.978   8.564   5.846 -0.6819  0.5371  0.0852
  133MOL0     N18233  12.023   8.699   5.892  1.5163  0.2109 -0.2003
  133MOL0     C18234  12.127   8.723   5.968 -0.2548 -1.0100 -1.1905
  133MOL0     C18235  12.136   8.865   5.978  1.0695 -0.3257  0.4643
  133MOL0     C18236  12.238   8.950   6.051 -0.7194  0.0470  0.4584
  133MOL0     C18237  12.337   9.042   5.971  0.5308  0.0507  0.1926
  133MOL0     C18238  12.409   9.129   6.086 -0.1541  0.8530 -0.4112
  133MOL0     C18239  12.498   9.241   6.026  0.4759  0.0424 -0.5307
  133MOL0     O18240  12.605   9.296   6.119 -0.7032 -0.0876 -0.1646
  133MOL0     C18241  12.738   9.242   6.087  0.7250  0.6602  0.3495
  133MOL0     C18242  12.848   9.319   6.044 -0.1986 -0.1431 -0.5039
  133MOL0     C18243  12.970   9.265   6.018  0.0608 -0.2091  0.1504
  133MOL0     C18244  13.074   9.371   5.966  0.7080 -0.6615  0.4609
  133MOL0     C18245  12.996   9.131   6.035  0.3516 -0.1233 -0.5026
  133MOL0     C18246  13.126   9.066   6.015  0.1373  0.5213  0.9825
  133MOL0     O18247  13.239   9.134   6.048 -0.4075  0.4590 -0.5664
  133MOL0     C18248  13.363   9.086   6.003  0.2077  0.3650 -0.4078
  133MOL0     C18249  13.410   8.953   6.011 -0.3322  0.8762  0.1150
  133MOL0     C18250  13.541   8.918   5.968 -1.2186 -0.4329  1.4658
  133MOL0     C18251  13.630   9.017   5.925  0.7056  0.3078  0.1889
  133MOL0     O18252  13.759   8.984   5.884  0.1391  0.0665  1.0197
  133MOL0     C18253  13.838   8.919   5.985 -0.3470  1.1004  0.1478
  133MOL0     C18254  13.984   8.907   5.947 -0.0344 -0.7156  0.0443
  133MOL0     C18255  14.078   8.891   6.067 -0.3149 -1.0960 -0.1324
  133MOL0     C18256  14.224   8.912   6.038 -0.7255  0.4018  0.3316
  133MOL0     C18257  14.298   8.804   5.959  0.0842  0.0840  0.3123
  133MOL0     C18258  14.421   8.758   6.039 -0.8360  0.2607  0.6902
  133MOL0     C18259  14.523   8.685   5.956 -0.3565 -0.7399  0.0708
  133MOL0     C18260  14.626   8.599   6.046 -0.6756 -1.1152  0.6909
  133MOL0    Cl18261  14.752   8.522   5.933 -0.4004 -0.2433 -0.1889
  133MOL0     C18262  13.583   9.144   5.916  0.1485 -1.3936 -0.9875
  133MOL0     C18263  13.448   9.176   5.959 -1.1291  0.1157 -0.0761
  133MOL0     O18264  13.126   8.957   5.960  0.5570 -0.2324 -0.7314
  133MOL0     C18265  12.885   9.053   6.093  0.0213 -0.0459  1.1622
  133MOL0     C18266  12.758   9.104   6.108 -0.9414  0.6138  1.1291
  133MOL0     N18267  12.028   8.921   5.915  0.1595  0.2566  0.0495
  133MOL0     N18268  11.966   8.817   5.854  0.8213  0.2661  0.3225
  133MOL0     C18269  11.107   8.060   5.600 -0.2519  0.0567 -0.3885
  133MOL0     C18270  10.991   8.094   5.540 -0.4236  0.4164 -0.8344
  133MOL0     C18271  10.729   8.164   5.179 -0.4389  0.8097  0.3411
  133MOL0     C18272  10.645   8.252   5.237 -0.1538  0.4938 -0.7905
  133MOL0     C18273  10.507   8.255   5.200 -0.6412 -0.1333  0.6512
  133MOL0     C18274  10.456   8.175   5.093  0.4376 -0.0266 -0.2608
  133MOL0     O18275  10.322   8.160   5.082 -0.4843  0.4941 -0.1976
  133MOL0     C18276  10.261   8.243   4.985 -0.1678 -0.4532 -0.0504
  133MOL0     C18277  10.113   8.225   4.952  0.4138 -0.5285  0.0824
  133MOL0     C18278  10.021   8.253   5.071 -0.0966  0.6690 -0.6695
  133MOL0     C18279   9.874   8.229   5.046  0.1652 -0.0166 -0.4237
  133MOL0     C18280   9.831   8.090   5.046 -0.0384 -0.7202  1.0388
  133MOL0     C18281   9.776   7.978   5.017 -0.5976  0.1082 -0.4747
  133MOL0     C18282  10.537   8.084   5.035 -0.0449 -0.9652  0.1006
  133MOL0     C18283  10.666   8.069   5.079  0.6073 -0.2926 -0.0996
  133MOL0     C18284  10.742   7.947   5.015  0.3568 -0.6832  0.5021
  133MOL0     H18285  11.132   8.318   5.319 -0.6343 -0.7750 -0.2863
  133MOL0     H18286  11.326   8.254   5.434  1.0200  0.0442  0.7071
  133MOL0     H18287  11.498   8.094   5.544 -2.7830 -0.8701 -2.5618
  133MOL0     H18288  11.452   7.932   5.591  2.5257 -0.5242 -0.6224
  133MOL0     H18289  11.514   8.006   5.830  0.8362  1.4653  0.9923
  133MOL0     H18290  11.658   7.997   5.719 -0.6012 -0.1300 -0.5799
  133MOL0     H18291  11.609   8.265   5.699  0.5407  2.5415  2.8436
  133MOL0     H18292  11.498   8.231   5.826  0.6364 -0.4930  1.7849
  133MOL0     H18293  11.666   8.164   5.978 -1.2492  2.9252  1.6716
  133MOL0     H18294  11.782   8.162   5.846 -0.8160 -1.7451  0.3119
  133MOL0     H18295  11.689   8.410   5.980 -0.6048  1.3251 -0.4194
  133MOL0     H18296  11.726   8.427   5.813 -1.1164  2.7975  1.4595
  133MOL0     H18297  11.884   8.293   6.036  1.2354  0.2556 -0.4869
  133MOL0     H18298  11.943   8.311   5.873  1.4414  2.2230  0.5465
  133MOL0     H18299  12.007   8.485   6.053 -1.5408 -2.9850  3.1086
  133MOL0     H18300  11.846   8.550   6.025  0.3365 -3.0699  2.2924
  133MOL0     H18301  12.060   8.503   5.805 -2.5864 -2.2254  0.0825
  133MOL0     H18302  11.891   8.572   5.781 -1.1957 -0.9845  0.5330
  133MOL0     H18303  12.186   8.648   6.019 -0.5296  0.1428  0.9290
  133MOL0     H18304  12.288   8.875   6.114  1.4471 -0.5610 -1.8582
  133MOL0     H18305  12.189   9.021   6.118  1.5000  1.2507  0.8922
  133MOL0     H18306  12.404   8.973   5.919  0.7186 -0.4266  1.0436
  133MOL0     H18307  12.283   9.106   5.901  1.9001  2.2135  1.0146
  133MOL0     H18308  12.336   9.171   6.155  0.4676  0.9993  0.1758
  133MOL0     H18309  12.463   9.053   6.143  1.1727  2.2101  0.2305
  133MOL0     H18310  12.531   9.206   5.928 -0.3602  1.7264 -1.4523
  133MOL0     H18311  12.429   9.326   6.022 -2.3426 -2.0919 -0.2247
  133MOL0     H18312  12.836   9.426   6.028 -2.6147 -0.5211 -1.6992
  133MOL0     H18313  13.107   9.425   6.056 -0.2496  1.2929 -0.3108
  133MOL0     H18314  13.021   9.439   5.899 -1.6229 -2.0231  0.8118
  133MOL0     H18315  13.157   9.323   5.913 -1.0784 -4.8132  1.0443
  133MOL0     H18316  13.360   8.867   6.054 -0.5003  1.8075  1.8919
  133MOL0     H18317  13.580   8.818   5.987  1.1365 -0.5258 -2.6416
  133MOL0     H18318  13.837   8.978   6.077  1.5165  1.6122 -0.1345
  133MOL0     H18319  13.797   8.819   6.003  0.4115  0.5602 -1.0611
  133MOL0     H18320  13.987   8.829   5.871  0.3297  0.4907 -1.2202
  133MOL0     H18321  14.007   9.003   5.899 -3.5815  0.7492  0.9767
  133MOL0     H18322  14.068   8.790   6.107  3.0197 -0.5506  2.4644
  133MOL0     H18323  14.055   8.966   6.143  1.8171 -0.6350  0.1091
  133MOL0     H18324  14.266   8.916   6.139  1.0866 -3.5039 -0.1065
  133MOL0     H18325  14.245   9.005   5.984 -1.8383 -1.5339 -3.8438
  133MOL0     H18326  14.233   8.716   5.946  1.3529 -0.7786 -0.3676
  133MOL0     H18327  14.324   8.843   5.860  1.6223 -1.0591  0.2365
  133MOL0     H18328  14.385   8.700   6.125  2.3852  0.7269  2.5547
  133MOL0     H18329  14.470   8.852   6.069 -0.1249 -0.2755  1.2569
  133MOL0     H18330  14.587   8.754   5.900  0.0848  1.1560  2.7318
  133MOL0     H18331  14.475   8.611   5.892 -0.2427  1.4056 -2.6947
  133MOL0     H18332  14.587   8.520   6.112 -0.9972 -0.2408  1.5798
  133MOL0     H18333  14.681   8.661   6.118  0.7798  0.7003 -1.8104
  133MOL0     H18334  13.643   9.226   5.878 -1.2453  2.2730  3.6642
  133MOL0     H18335  13.401   9.273   5.956  1.1104  1.2359 -0.8361
  133MOL0     H18336  12.897   8.946   6.106  1.4190  0.2184  2.2377
  133MOL0     H18337  12.677   9.045   6.149  0.8400  0.5037  4.9052
  133MOL0     H18338  11.097   7.984   5.677 -4.3771  1.1031  0.3503
  133MOL0     H18339  10.899   8.041   5.564 -0.5386  1.5548  1.5156
  133MOL0     H18340  10.681   8.317   5.317 -0.3806  0.3175 -0.5436
  133MOL0     H18341  10.444   8.311   5.269  0.7353 -0.1722  1.9956
  133MOL0     H18342  10.276   8.349   5.005  1.3604 -0.8138  0.8857
  133MOL0     H18343  10.323   8.225   4.896  0.1970  0.6120 -0.0170
  133MOL0     H18344  10.103   8.123   4.913  1.8826 -1.8900  2.9434
  133MOL0     H18345  10.092   8.299   4.874 -1.3116  1.4610  2.2804
  133MOL0     H18346  10.066   8.201   5.156  1.9488  1.6150 -1.1147
  133MOL0     H18347  10.029   8.358   5.101  0.3908  0.1869  0.9843
  133MOL0     H18348   9.840   8.267   4.949 -1.1922 -0.2286 -0.0509
  133MOL0     H18349   9.810   8.277   5.120 -1.6369 -2.7206 -0.1040
  133MOL0     H18350   9.744   7.876   5.012  3.2355 -1.7472  4.2108
  133MOL0     H18351  10.497   8.013   4.963  1.1854 -2.1227  0.5077
  133MOL0     H18352  10.777   7.872   5.087  1.2347  0.3003  1.1210
  133MOL0     H18353  10.677   7.896   4.943 -0.3530  0.3657  0.3764
  133MOL0     H18354  10.831   7.981   4.962 -0.5874  0.4196 -0.4161
  134MOL0     O18355  10.617   1.433   2.939  0.3775  0.1288 -0.3804
  134MOL0     C18356  10.718   1.413   3.001 -0.4668  0.8107  0.1206
  134MOL0     O18357  10.732   1.312   3.093  0.5673 -0.2861  0.3034
  134MOL0     C18358  10.624   1.241   3.135 -0.4003  0.0628  0.0892
  134MOL0     C18359  10.497   1.212   3.074  0.5576  0.8875 -0.1715
  134MOL0     C18360  10.401   1.136   3.146 -0.0874  0.4497  0.1946
  134MOL0     C18361  10.431   1.095   3.279  0.1129  1.4521  0.5943
  134MOL0     O18362  10.346   1.015   3.359 -0.2507  0.0315  0.3487
  134MOL0     C18363  10.220   0.973   3.305 -0.4734 -0.1977 -0.7248
  134MOL0     C18364  10.161   0.876   3.394 -0.1642  0.2280 -0.5245
  134MOL0     C18365  10.022   0.820   3.363 -0.0265  0.5194 -0.0585
  134MOL0     C18366  10.016   0.681   3.421 -0.2344 -0.3928  0.0573
  134MOL0     C18367   9.890   0.610   3.364 -0.1881  0.8003 -0.3822
  134MOL0     C18368   9.850   0.478   3.432  0.9093  0.2480 -1.2485
  134MOL0     C18369   9.960   0.384   3.485  0.2989 -1.2425  0.2344
  134MOL0     C18370   9.898   0.257   3.535 -0.0302  0.4746  0.3906
  134MOL0     N18371   9.996   0.165   3.566  0.0177  0.5976  0.1198
  134MOL0     C18372   9.975   0.073   3.666 -0.3145  0.5484  0.2114
  134MOL0     C18373  10.093   0.017   3.682 -0.6198 -0.2229  0.3590
  134MOL0     C18374  10.123  -0.063   3.802 -0.4534  0.0897  0.1253
  134MOL0     C18375  10.269  -0.076   3.837 -0.8920  0.1857 -0.1906
  134MOL0     C18376  10.338   0.060   3.873  0.4630  0.1615 -0.4099
  134MOL0     C18377  10.462   0.049   3.973  0.6900 -0.7530  0.1039
  134MOL0     O18378  10.535  -0.072   3.973 -0.4038 -1.2439 -0.7024
  134MOL0     C18379  10.543  -0.156   4.080 -0.8804 -0.9280 -0.0679
  134MOL0     C18380  10.661  -0.234   4.088  0.4616 -0.9048  1.1084
  134MOL0     C18381  10.683  -0.322   4.188  0.7032 -0.5194  0.7154
  134MOL0     C18382  10.818  -0.396   4.180 -0.6712  0.5580 -1.3766
  134MOL0     C18383  10.580  -0.354   4.280 -0.0376  0.6907  1.0195
  134MOL0     C18384  10.604  -0.446   4.384 -0.2664  0.6348 -0.9826
  134MOL0     O18385  10.607  -0.580   4.350 -0.1009 -0.2315 -0.4803
  134MOL0     C18386  10.639  -0.673   4.441 -0.5978 -0.3313  0.3687
  134MOL0     C18387  10.770  -0.723   4.444  0.4516 -0.4536  0.7344
  134MOL0     C18388  10.808  -0.799   4.554  0.8693 -0.3513  0.8260
  134MOL0     C18389  10.713  -0.845   4.657 -0.9028 -0.2266  0.4047
  134MOL0     O18390  10.753  -0.915   4.768  0.0483 -0.9299  0.1638
  134MOL0     C18391  10.893  -0.962   4.777 -0.1035  0.1784  0.6121
  134MOL0     C18392  10.931  -1.038   4.912  0.5922 -0.7623 -0.7313
  134MOL0     C18393  10.977  -1.183   4.877  0.8063 -0.1009 -0.3056
  134MOL0     C18394  10.999  -1.277   4.988  1.1179 -0.3438  0.3587
  134MOL0     C18395  11.021  -1.425   4.958 -0.8353  1.1061  0.3585
  134MOL0     C18396  11.030  -1.518   5.082 -0.6679 -0.1791 -0.1738
  134MOL0     C18397  10.905  -1.506   5.164 -0.1572  0.3530  0.1034
  134MOL0     C18398  10.889  -1.635   5.246 -0.1187 -0.8949 -0.1611
  134MOL0    Cl18399  10.732  -1.632   5.330 -0.3598  0.0658  0.0010
  134MOL0     C18400  10.583  -0.813   4.631 -0.1588 -0.9519  0.9427
  134MOL0     C18401  10.545  -0.721   4.533 -1.1112 -1.2869 -0.4492
  134MOL0     O18402  10.620  -0.402   4.504  0.1778  0.0852  0.1869
  134MOL0     C18403  10.459  -0.288   4.263 -0.7266 -0.5117 -0.0328
  134MOL0     C18404  10.445  -0.179   4.174 -0.2854  0.3619  0.2481
  134MOL0     N18405  10.186   0.069   3.594  1.1220 -0.2812 -0.7170
  134MOL0     N18406  10.121   0.151   3.525  0.9775  0.8551  0.4798
  134MOL0     C18407  10.560   1.107   3.320 -0.3023  0.1856  0.4596
  134MOL0     C18408  10.657   1.181   3.254 -0.3689  0.5539 -0.4471
  134MOL0     C18409  10.820   1.521   2.980  0.9138 -0.0150 -0.2055
  134MOL0     C18410  10.910   1.518   3.088 -0.3630 -0.0119  0.6965
  134MOL0     C18411  11.003   1.625   3.097 -0.3112  0.4938 -0.3040
  134MOL0     C18412  11.023   1.723   3.005  0.3367 -0.5901  0.4774
  134MOL0     O18413  11.129   1.812   3.009  0.1691 -0.1966 -0.4925
  134MOL0     C18414  11.123   1.895   3.126  0.4267 -0.6586  0.4855
  134MOL0     C18415  11.207   2.025   3.103 -0.6618  0.9379 -0.6520
  134MOL0     C18416  11.329   2.032   3.188  0.8580  0.0718 -0.5860
  134MOL0     C18417  11.400   2.167   3.159 -0.6661  1.2606 -0.0772
  134MOL0     C18418  11.457   2.166   3.027  0.0105 -0.3819 -0.2490
  134MOL0     C18419  11.484   2.144   2.913 -0.0696 -1.0547 -0.7970
  134MOL0     C18420  10.942   1.716   2.891  0.8840 -0.5776 -0.5772
  134MOL0     C18421  10.826   1.624   2.880 -1.2645  0.0349 -0.1987
  134MOL0     C18422  10.734   1.618   2.747 -0.9367 -0.1272  0.3398
  134MOL0     H18423  10.486   1.264   2.980  1.7190  1.2618 -0.1092
  134MOL0     H18424  10.303   1.117   3.103 -0.6476  2.8603  0.2479
  134MOL0     H18425  10.241   0.940   3.203  0.3101 -0.3823 -0.5077
  134MOL0     H18426  10.148   1.054   3.290 -0.4714  0.5097  2.3573
  134MOL0     H18427  10.239   0.801   3.383  0.2014  0.7471 -1.5864
  134MOL0     H18428  10.163   0.925   3.492 -0.4906  3.8557 -2.1558
  134MOL0     H18429   9.944   0.875   3.417 -1.4356 -1.4187 -0.0041
  134MOL0     H18430  10.001   0.820   3.256  2.4876  0.8841 -0.6116
  134MOL0     H18431  10.103   0.625   3.385 -0.9202 -0.4943 -1.4925
  134MOL0     H18432  10.016   0.689   3.530 -2.3369  2.7605 -0.0466
  134MOL0     H18433   9.909   0.588   3.258 -1.6376 -2.5006 -0.0915
  134MOL0     H18434   9.795   0.665   3.368 -0.6244  0.0270  3.2308
  134MOL0     H18435   9.788   0.509   3.517  0.5611  1.2046 -1.8396
  134MOL0     H18436   9.790   0.426   3.357 -2.9905  2.9332 -0.2834
  134MOL0     H18437  10.030   0.428   3.557 -1.0840  2.5255 -0.5048
  134MOL0     H18438  10.019   0.375   3.393 -1.3892  0.9697 -1.1618
  134MOL0     H18439   9.827   0.270   3.617  2.3568  1.5254  2.4283
  134MOL0     H18440   9.843   0.209   3.454 -0.6100 -0.1994  1.1728
  134MOL0     H18441   9.889   0.054   3.730 -0.5853 -2.1895 -0.8220
  134MOL0     H18442  10.083  -0.165   3.794 -0.8219  0.2982 -0.8896
  134MOL0     H18443  10.074  -0.026   3.893 -1.3307 -0.2848 -0.1792
  134MOL0     H18444  10.269  -0.146   3.921 -4.2260 -4.2506 -3.3717
  134MOL0     H18445  10.320  -0.128   3.755 -1.1027  2.0267 -1.5650
  134MOL0     H18446  10.376   0.090   3.775 -1.8613 -1.1146 -1.8060
  134MOL0     H18447  10.268   0.138   3.904  0.4817  0.5733 -1.3460
  134MOL0     H18448  10.545   0.107   3.931  0.6541 -0.0718  0.9725
  134MOL0     H18449  10.424   0.088   4.068  0.7030  2.6993 -1.1603
  134MOL0     H18450  10.737  -0.222   4.012 -0.4483  1.1796  0.4318
  134MOL0     H18451  10.846  -0.407   4.075  4.9302  2.1172 -0.3848
  134MOL0     H18452  10.827  -0.497   4.221 -0.9580  1.0317 -0.0908
  134MOL0     H18453  10.898  -0.332   4.220 -3.4918  3.5774 -0.0866
  134MOL0     H18454  10.843  -0.678   4.378 -1.2961 -0.0817 -1.0167
  134MOL0     H18455  10.915  -0.814   4.559  0.7723 -0.6844  4.6166
  134MOL0     H18456  10.920  -1.037   4.702 -0.6920 -0.8343  1.3831
  134MOL0     H18457  10.966  -0.881   4.770  2.6794 -2.2619 -4.3268
  134MOL0     H18458  11.004  -0.977   4.965 -0.6885 -0.4731  0.7751
  134MOL0     H18459  10.836  -1.034   4.965 -1.4207  2.3632 -4.0599
  134MOL0     H18460  11.066  -1.167   4.815 -0.8813  1.8676 -2.4204
  134MOL0     H18461  10.905  -1.234   4.812 -2.7651 -1.3567  4.1462
  134MOL0     H18462  10.913  -1.266   5.055  0.5274 -2.8965  0.1287
  134MOL0     H18463  11.082  -1.241   5.050 -0.9855  1.3131  2.3881
  134MOL0     H18464  10.942  -1.461   4.892 -2.1987  1.4033  1.7636
  134MOL0     H18465  11.114  -1.434   4.900 -0.4485  2.6305  0.6881
  134MOL0     H18466  11.120  -1.494   5.140  0.5563 -0.4675 -1.9077
  134MOL0     H18467  11.042  -1.622   5.053  0.4403 -0.6047  1.6422
  134MOL0     H18468  10.817  -1.482   5.104  0.9808  1.6343 -1.1221
  134MOL0     H18469  10.916  -1.419   5.231  0.2376 -1.9277  3.2378
  134MOL0     H18470  10.964  -1.641   5.325 -1.7437  0.2879  1.5565
  134MOL0     H18471  10.893  -1.727   5.187 -0.2970 -0.9683 -0.0591
  134MOL0     H18472  10.504  -0.846   4.698 -2.5281  2.9680  0.3786
  134MOL0     H18473  10.448  -0.683   4.501 -1.3459 -0.4141  1.1874
  134MOL0     H18474  10.375  -0.315   4.326  0.9104  1.3255  3.2297
  134MOL0     H18475  10.349  -0.132   4.154  0.3915  1.4763 -0.4697
  134MOL0     H18476  10.589   1.062   3.414  2.1457 -0.5018 -0.5500
  134MOL0     H18477  10.758   1.191   3.292 -0.7874 -0.4640  1.0334
  134MOL0     H18478  10.909   1.446   3.168 -1.5708  1.9726  2.5764
  134MOL0     H18479  11.081   1.619   3.172  0.7394 -2.1905 -1.4911
  134MOL0     H18480  11.019   1.919   3.152  0.5417 -2.0016  2.3938
  134MOL0     H18481  11.160   1.840   3.213 -0.5504 -2.6345 -0.2914
  134MOL0     H18482  11.147   2.116   3.113  0.5493  1.7114 -0.3089
  134MOL0     H18483  11.247   2.012   3.002  0.1888  2.0786 -0.4764
  134MOL0     H18484  11.294   2.032   3.292 -1.9949  1.5605 -1.4220
  134MOL0     H18485  11.386   1.941   3.170 -3.3447 -2.4627 -2.5344
  134MOL0     H18486  11.474   2.187   3.238  0.8554  0.6931 -1.2924
  134MOL0     H18487  11.329   2.250   3.156 -0.3895  1.6647 -5.3138
  134MOL0     H18488  11.492   2.114   2.811 -1.1545 -0.1420 -1.1718
  134MOL0     H18489  10.956   1.782   2.805 -0.4933  0.0077 -0.3794
  134MOL0     H18490  10.766   1.704   2.687  3.0945  0.0696  2.4212
  134MOL0     H18491  10.759   1.529   2.689  1.8590  0.7645  0.0605
  134MOL0     H18492  10.632   1.627   2.787 -0.9939  1.5231 -0.0931
  135MOL0     O18493   9.107  10.504   1.786  1.2551  0.3719  0.3304
  135MOL0     C18494   9.029  10.508   1.683  1.2931 -0.0101 -0.5901
  135MOL0     O18495   9.056  10.552   1.557  0.3337 -0.3227  0.2168
  135MOL0     C18496   9.176  10.612   1.530  0.1727 -0.2167  0.3261
  135MOL0     C18497   9.161  10.700   1.417  0.1171 -0.3328 -1.1742
  135MOL0     C18498   9.269  10.769   1.374 -0.4166 -0.8973  1.2665
  135MOL0     C18499   9.399  10.765   1.427 -0.1554 -0.8988  0.2176
  135MOL0     O18500   9.501  10.843   1.391 -0.1122  0.0512  0.0464
  135MOL0     C18501   9.482  10.956   1.307  1.2064  0.9320  0.0486
  135MOL0     C18502   9.619  11.028   1.308  0.3295 -0.2220 -0.0427
  135MOL0     C18503   9.661  11.070   1.448  0.1779  0.3576  0.2107
  135MOL0     C18504   9.583  11.178   1.505  0.0363  0.2589 -0.0075
  135MOL0     C18505   9.638  11.233   1.636  0.5771  0.0669  0.7386
  135MOL0     C18506   9.640  11.138   1.748 -0.5540 -0.1710 -0.0439
  135MOL0     C18507   9.657  11.207   1.878 -0.3258  0.3223 -0.1996
  135MOL0     C18508   9.659  11.097   1.991  0.5132 -0.6101  0.1773
  135MOL0     N18509   9.661  11.161   2.127  1.0848 -0.0917  0.4112
  135MOL0     C18510   9.757  11.207   2.202  0.2770  0.4346 -0.6751
  135MOL0     C18511   9.692  11.247   2.314 -0.1013 -0.0302 -0.4761
  135MOL0     C18512   9.754  11.284   2.448 -1.0043  0.5385  0.1122
  135MOL0     C18513   9.673  11.228   2.566  0.1072 -0.4526  0.1486
  135MOL0     C18514   9.754  11.219   2.693 -0.1238 -0.7665 -0.2934
  135MOL0     C18515   9.665  11.229   2.812  0.2662  0.0307  0.7255
  135MOL0     O18516   9.757  11.250   2.924 -0.2735  0.5186  0.1412
  135MOL0     C18517   9.713  11.297   3.044  0.5084 -0.2822  0.2918
  135MOL0     C18518   9.809  11.316   3.136  0.9140 -0.2812  0.1558
  135MOL0     C18519   9.788  11.386   3.257  1.1434 -0.0653  1.0045
  135MOL0     C18520   9.896  11.416   3.357 -0.5410  0.5732 -0.0272
  135MOL0     C18521   9.655  11.441   3.271  0.3698  0.1094 -0.2659
  135MOL0     C18522   9.609  11.532   3.381 -0.1932 -0.1772  0.0607
  135MOL0     O18523   9.476  11.574   3.383 -0.1226  1.2662  0.6712
  135MOL0     C18524   9.432  11.687   3.435  0.1332 -0.9199  0.1702
  135MOL0     C18525   9.290  11.710   3.461 -0.8207  0.8382 -0.2320
  135MOL0     C18526   9.237  11.831   3.509  0.7304 -0.7088 -0.0102
  135MOL0     C18527   9.330  11.929   3.550  0.2580 -1.1978 -0.2447
  135MOL0     O18528   9.295  12.042   3.620  1.1205  0.2502  0.4440
  135MOL0     C18529   9.287  12.156   3.530  0.1519  1.0465  0.9660
  135MOL0     C18530   9.417  12.242   3.537  0.1917  0.8370 -0.4466
  135MOL0     C18531   9.450  12.297   3.680  0.4697 -0.4371 -0.4670
  135MOL0     C18532   9.586  12.371   3.694  0.3275 -0.4251  0.6626
  135MOL0     C18533   9.593  12.485   3.578  0.0664  0.4485 -1.1395
  135MOL0     C18534   9.701  12.583   3.623  0.4023 -0.2693  0.2340
  135MOL0     C18535   9.831  12.530   3.680  0.1236  0.7847 -1.3461
  135MOL0     C18536   9.945  12.618   3.686 -0.0527  1.0227  0.0648
  135MOL0    Cl18537   9.950  12.701   3.836 -0.2718  0.3003 -0.2063
  135MOL0     C18538   9.462  11.917   3.528 -0.4227  1.5282 -0.2983
  135MOL0     C18539   9.515  11.794   3.472 -0.0832 -1.0544  0.2337
  135MOL0     O18540   9.691  11.575   3.457 -0.4649 -1.0252 -0.1815
  135MOL0     C18541   9.555  11.412   3.181 -0.7554 -0.5683  0.3642
  135MOL0     C18542   9.584  11.347   3.067 -0.2940  0.1505  0.2657
  135MOL0     N18543   9.552  11.235   2.298 -0.9259  0.1014 -0.1596
  135MOL0     N18544   9.535  11.190   2.175  0.0608 -0.4654  0.5542
  135MOL0     C18545   9.417  10.690   1.538  0.1074 -1.2090  0.0781
  135MOL0     C18546   9.306  10.612   1.595 -0.5141  0.3844  0.7149
  135MOL0     C18547   8.902  10.437   1.704  0.1159 -0.5637 -0.9606
  135MOL0     C18548   8.904  10.311   1.763 -0.5257  0.6384 -0.7958
  135MOL0     C18549   8.786  10.238   1.779 -0.2201 -0.7477 -0.0308
  135MOL0     C18550   8.660  10.287   1.749  0.8984  0.3072  0.7010
  135MOL0     O18551   8.537  10.225   1.780  0.0871 -0.1739  0.4924
  135MOL0     C18552   8.533  10.089   1.740  0.3859  0.0554 -0.3110
  135MOL0     C18553   8.506  10.084   1.588  0.6265  0.0579 -0.2566
  135MOL0     C18554   8.369  10.150   1.558 -0.7339  0.5798 -0.5072
  135MOL0     C18555   8.313  10.114   1.422 -0.2473 -0.4605 -1.1115
  135MOL0     C18556   8.253   9.980   1.424 -0.0738 -0.2214  0.0282
  135MOL0     C18557   8.204   9.868   1.426 -0.4044 -0.5534  0.0037
  135MOL0     C18558   8.660  10.415   1.688  0.1614 -0.6180  0.4038
  135MOL0     C18559   8.776  10.494   1.669 -0.4128 -0.2500  0.5881
  135MOL0     C18560   8.772  10.629   1.582  0.3464 -0.4939 -0.6351
  135MOL0     H18561   9.067  10.733   1.373 -0.2894 -0.2270 -0.2493
  135MOL0     H18562   9.256  10.840   1.293 -0.0563  0.2602  2.1977
  135MOL0     H18563   9.406  11.024   1.346  1.3817  0.9448  0.3800
  135MOL0     H18564   9.454  10.923   1.207 -0.5261  2.7495 -0.1271
  135MOL0     H18565   9.687  10.946   1.282  2.5383  1.8589 -1.2365
  135MOL0     H18566   9.631  11.109   1.235  5.0034  1.4697  2.1765
  135MOL0     H18567   9.656  10.982   1.513 -1.4621 -0.8691 -1.4692
  135MOL0     H18568   9.769  11.089   1.449  0.9634 -3.0367 -2.1327
  135MOL0     H18569   9.576  11.260   1.433  0.1667  2.6747  2.5327
  135MOL0     H18570   9.478  11.150   1.519 -0.5985  1.9082 -1.1007
  135MOL0     H18571   9.565  11.310   1.664 -0.9071 -0.2743 -1.8387
  135MOL0     H18572   9.734  11.283   1.623  0.5303  0.4991  1.8839
  135MOL0     H18573   9.540  11.095   1.761  0.2996 -1.7682  1.7132
  135MOL0     H18574   9.724  11.069   1.738  2.5183  3.4651 -1.6989
  135MOL0     H18575   9.566  11.264   1.894 -0.4648 -0.1712  0.8152
  135MOL0     H18576   9.747  11.270   1.883 -1.7112  2.2829  2.9368
  135MOL0     H18577   9.574  11.030   1.977 -0.0807 -0.3179  2.0628
  135MOL0     H18578   9.750  11.038   1.980  0.4042 -0.6005 -0.7876
  135MOL0     H18579   9.865  11.217   2.196  1.2125 -4.3638  2.2333
  135MOL0     H18580   9.769  11.392   2.451  2.7832  0.1952 -1.3975
  135MOL0     H18581   9.852  11.236   2.448 -1.7827 -1.2610  2.4048
  135MOL0     H18582   9.585  11.293   2.576  0.0258 -0.3651 -1.0169
  135MOL0     H18583   9.646  11.127   2.535  2.7577 -1.2218  0.0821
  135MOL0     H18584   9.818  11.132   2.706 -0.4775 -1.1763 -1.2159
  135MOL0     H18585   9.813  11.311   2.688  0.4723 -1.1370 -0.1514
  135MOL0     H18586   9.598  11.314   2.800 -0.3992 -0.2890  1.9633
  135MOL0     H18587   9.615  11.132   2.821  0.8697 -0.3866 -0.2026
  135MOL0     H18588   9.910  11.279   3.117 -0.3038 -4.2066  0.4267
  135MOL0     H18589   9.972  11.340   3.337 -1.5300 -0.1375 -1.2625
  135MOL0     H18590   9.858  11.384   3.455  0.5560 -0.3656  0.1098
  135MOL0     H18591   9.928  11.521   3.354  1.3619  0.0438  0.4741
  135MOL0     H18592   9.218  11.630   3.451  0.7894 -0.5002 -1.7262
  135MOL0     H18593   9.128  11.835   3.517  0.7029 -2.3384  0.8866
  135MOL0     H18594   9.280  12.124   3.426  0.2484  2.5540  0.4641
  135MOL0     H18595   9.200  12.221   3.543 -1.5983 -1.1773  0.7688
  135MOL0     H18596   9.506  12.192   3.498  1.0156  2.0037 -0.1158
  135MOL0     H18597   9.405  12.331   3.475 -0.5234  1.0310 -0.0336
  135MOL0     H18598   9.437  12.215   3.752  0.0764  1.3582  1.5912
  135MOL0     H18599   9.375  12.373   3.703 -2.5319 -2.4214 -2.8637
  135MOL0     H18600   9.665  12.298   3.673  1.7844  0.9983  1.0637
  135MOL0     H18601   9.604  12.404   3.796 -0.3909 -2.9276  1.6816
  135MOL0     H18602   9.618  12.443   3.480  0.9165 -3.2373  0.4791
  135MOL0     H18603   9.495  12.533   3.579  0.3279  1.0249  1.1026
  135MOL0     H18604   9.654  12.641   3.703  1.0509  0.4780  0.0840
  135MOL0     H18605   9.718  12.652   3.540  1.5900 -0.1938  0.5282
  135MOL0     H18606   9.856  12.451   3.608  2.2386  0.6446 -0.5557
  135MOL0     H18607   9.809  12.481   3.776 -2.1073  3.6507 -0.2736
  135MOL0     H18608   9.934  12.689   3.603  1.1739  1.9737  0.6847
  135MOL0     H18609  10.040  12.565   3.672 -0.3091  0.5443  0.1273
  135MOL0     H18610   9.526  11.998   3.561  0.1763  1.8310 -2.0893
  135MOL0     H18611   9.620  11.797   3.443  0.9762  0.8081  3.7754
  135MOL0     H18612   9.457  11.458   3.185  0.5036  2.3303 -0.0746
  135MOL0     H18613   9.504  11.350   2.994 -0.7322 -2.7734  0.5363
  135MOL0     H18614   9.513  10.694   1.588  0.2523  0.2126 -0.2627
  135MOL0     H18615   9.313  10.551   1.684  0.3401  0.0261  0.4138
  135MOL0     H18616   9.000  10.273   1.795 -0.7122 -0.5981 -1.6357
  135MOL0     H18617   8.784  10.145   1.835 -1.5814  0.1306  1.4907
  135MOL0     H18618   8.628  10.038   1.759 -0.5287 -2.1423 -1.2255
  135MOL0     H18619   8.457  10.030   1.792  0.4853 -0.8019 -1.1109
  135MOL0     H18620   8.502   9.982   1.549  3.6014  0.6472 -2.4720
  135MOL0     H18621   8.585  10.130   1.527  0.9795  1.6553  1.3268
  135MOL0     H18622   8.298  10.121   1.636 -1.1426 -0.3428 -1.1954
  135MOL0     H18623   8.392  10.256   1.564  0.4983  0.2839  0.3918
  135MOL0     H18624   8.389  10.119   1.343  0.5564 -2.2472 -0.5148
  135MOL0     H18625   8.231  10.181   1.398  0.0885  1.6503  2.7639
  135MOL0     H18626   8.161   9.771   1.417 -5.0109  1.3018 -1.2251
  135MOL0     H18627   8.562  10.457   1.667  0.2246 -1.1458 -1.0513
  135MOL0     H18628   8.831  10.706   1.633  0.6633 -1.7884  1.0713
  135MOL0     H18629   8.807  10.624   1.479  1.6357  1.8245 -0.3637
  135MOL0     H18630   8.667  10.661   1.585  1.0343  1.8730 -0.0869
  136MOL0     O18631   2.143  11.230   4.058 -0.8912  0.3983  0.5655
  136MOL0     C18632   2.250  11.247   3.998 -0.1164  0.3429 -0.1789
  136MOL0     O18633   2.300  11.173   3.897  0.1664  0.2216  0.2971
  136MOL0     C18634   2.257  11.042   3.877 -0.0858  0.1614  0.3812
  136MOL0     C18635   2.203  10.955   3.976 -0.2398  0.6994 -0.2502
  136MOL0     C18636   2.162  10.825   3.937  0.0302  0.0997  0.6959
  136MOL0     C18637   2.162  10.794   3.797  0.5313  0.8955 -0.6490
  136MOL0     O18638   2.116  10.673   3.746 -0.3369 -0.5709 -0.4441
  136MOL0     C18639   2.121  10.561   3.826 -0.0500  0.2298  0.4428
  136MOL0     C18640   2.057  10.432   3.775 -0.1329 -0.3284  0.8429
  136MOL0     C18641   1.899  10.447   3.788 -0.1987 -0.1645  0.1973
  136MOL0     C18642   1.829  10.312   3.758  0.4189  0.3206 -0.0953
  136MOL0     C18643   1.684  10.331   3.790  0.1688  0.3766  0.1287
  136MOL0     C18644   1.601  10.417   3.688  0.2654 -0.3223  0.4784
  136MOL0     C18645   1.453  10.436   3.744 -1.1081 -0.0372 -0.3964
  136MOL0     C18646   1.381  10.528   3.647  0.2462 -0.2670 -0.3081
  136MOL0     N18647   1.258  10.560   3.708 -0.0930  0.5193 -0.5579
  136MOL0     C18648   1.235  10.637   3.818  0.1665  0.1960  0.6317
  136MOL0     C18649   1.101  10.633   3.836  0.0564 -0.5421  0.5874
  136MOL0     C18650   1.023  10.724   3.934 -0.1626  0.7774  0.1492
  136MOL0     C18651   0.924  10.645   4.022 -0.6234  0.3496  0.8823
  136MOL0     C18652   0.779  10.682   3.983 -0.1599 -0.1907  0.1184
  136MOL0     C18653   0.678  10.585   4.045 -0.4901  0.3351  0.1983
  136MOL0     O18654   0.542  10.626   4.039  0.5390  0.0041  0.2566
  136MOL0     C18655   0.451  10.566   4.118  1.0486 -0.3354  0.0670
  136MOL0     C18656   0.346  10.638   4.165 -0.2711  1.4470 -0.0204
  136MOL0     C18657   0.250  10.574   4.245  0.1149  1.2443  0.8037
  136MOL0     C18658   0.137  10.651   4.286 -1.4436  0.3163  0.3192
  136MOL0     C18659   0.268  10.436   4.276  0.6840 -0.5624  0.1226
  136MOL0     C18660   0.152  10.349   4.335 -0.4737 -0.6069  0.9155
  136MOL0     O18661   0.022  10.350   4.296 -0.2807 -0.1154 -0.7025
  136MOL0     C18662  -0.072  10.275   4.360 -0.0361 -1.0355  0.5963
  136MOL0     C18663  -0.068  10.139   4.388 -0.0057 -1.1077  0.3743
  136MOL0     C18664  -0.180  10.071   4.438 -0.0926  0.9746  0.2660
  136MOL0     C18665  -0.304  10.139   4.466 -0.0046 -0.2637 -1.6331
  136MOL0     O18666  -0.418  10.086   4.515  0.1485  0.6994 -0.3503
  136MOL0     C18667  -0.425   9.941   4.530  0.1496  0.2786 -0.4407
  136MOL0     C18668  -0.574   9.889   4.548 -0.3170  0.4208 -0.7273
  136MOL0     C18669  -0.642   9.924   4.686 -0.3342 -0.2659  1.0869
  136MOL0     C18670  -0.769   9.845   4.709 -0.1881  1.0434  0.4842
  136MOL0     C18671  -0.829   9.864   4.847 -0.3374  0.5503 -0.3925
  136MOL0     C18672  -0.976   9.811   4.856  0.1992 -0.3959  0.5993
  136MOL0     C18673  -1.046   9.853   4.987 -0.0543  0.4588 -0.5684
  136MOL0     C18674  -1.188   9.810   4.985 -0.4140  0.2449 -0.2349
  136MOL0    Cl18675  -1.210   9.637   4.972  0.2110 -0.2791  0.7070
  136MOL0     C18676  -0.303  10.277   4.447 -0.0137 -0.1823  0.0191
  136MOL0     C18677  -0.194  10.345   4.390  0.0844 -0.4132 -0.1593
  136MOL0     O18678   0.190  10.280   4.424 -0.2430 -0.8438  0.0676
  136MOL0     C18679   0.384  10.369   4.235 -0.1605 -0.1005  0.0608
  136MOL0     C18680   0.471  10.430   4.149  1.1115  0.0507  0.7558
  136MOL0     N18681   1.044  10.540   3.742  0.2635 -0.4918 -0.0630
  136MOL0     N18682   1.144  10.500   3.676 -1.0325  0.6450  0.4576
  136MOL0     C18683   2.215  10.888   3.705 -0.0136  0.8636 -0.0242
  136MOL0     C18684   2.266  11.007   3.749 -0.2264  0.3180 -0.2028
  136MOL0     C18685   2.329  11.369   4.036  0.5585  0.8273  0.0668
  136MOL0     C18686   2.312  11.413   4.168 -0.9707  0.2574 -0.8454
  136MOL0     C18687   2.390  11.522   4.217 -0.0569 -0.2696  0.0323
  136MOL0     C18688   2.474  11.590   4.130 -0.1733 -0.9388 -0.1943
  136MOL0     O18689   2.563  11.691   4.166  0.7228 -0.1047  0.1629
  136MOL0     C18690   2.513  11.791   4.255 -0.2083 -0.3421 -0.6981
  136MOL0     C18691   2.605  11.916   4.233  0.7627 -0.8641  0.2143
  136MOL0     C18692   2.734  11.902   4.310  0.0867 -0.9788  0.0830
  136MOL0     C18693   2.717  11.947   4.455  1.0132  0.0855  0.7963
  136MOL0     C18694   2.825  11.926   4.543 -0.7968  0.5048 -0.1985
  136MOL0     C18695   2.927  11.914   4.611  0.0522 -1.0123  0.5416
  136MOL0     C18696   2.465  11.557   3.997  0.2753  0.2757 -0.2347
  136MOL0     C18697   2.401  11.445   3.948 -0.5001  0.1875 -0.5398
  136MOL0     C18698   2.403  11.420   3.799 -0.0519 -0.4093  0.0429
  136MOL0     H18699   2.181  10.992   4.075  0.4931 -0.4319  0.3550
  136MOL0     H18700   2.100  10.763   4.001 -2.7497  3.4399  1.5002
  136MOL0     H18701   2.093  10.569   3.932  0.1246 -0.7794  0.5791
  136MOL0     H18702   2.227  10.536   3.817  0.4283  2.7354 -2.5920
  136MOL0     H18703   2.083  10.420   3.670  3.7074 -2.1070  1.8046
  136MOL0     H18704   2.097  10.344   3.826  0.4889  1.0406  2.8773
  136MOL0     H18705   1.885  10.478   3.892  0.9926  0.3118  0.2365
  136MOL0     H18706   1.868  10.527   3.720 -0.7449  1.5030  2.3047
  136MOL0     H18707   1.827  10.282   3.653  0.6907 -1.6429  0.4322
  136MOL0     H18708   1.876  10.232   3.816  0.5417 -1.4618 -2.4840
  136MOL0     H18709   1.684  10.378   3.889 -0.9918 -0.5161  0.5777
  136MOL0     H18710   1.635  10.234   3.800 -0.1321  0.6701  1.7401
  136MOL0     H18711   1.652  10.513   3.676  1.8188 -1.3019 -1.2890
  136MOL0     H18712   1.589  10.368   3.591 -0.1161  0.0925  0.3088
  136MOL0     H18713   1.456  10.480   3.844  0.5373 -0.1016 -0.3899
  136MOL0     H18714   1.407  10.337   3.749  0.1732 -0.6784 -0.9602
  136MOL0     H18715   1.440  10.619   3.630  2.8820 -2.0115 -1.0621
  136MOL0     H18716   1.349  10.478   3.556 -1.3741  2.8135 -1.5620
  136MOL0     H18717   1.305  10.705   3.864 -0.6333  0.8469  0.9044
  136MOL0     H18718   0.966  10.803   3.885 -3.6481 -1.1922  0.6802
  136MOL0     H18719   1.094  10.773   4.002 -1.6730  0.0487  2.3794
  136MOL0     H18720   0.946  10.539   4.008  1.9170  0.8246  0.7084
  136MOL0     H18721   0.943  10.661   4.129  0.1599  0.2956  0.7560
  136MOL0     H18722   0.758  10.782   4.022 -1.3624 -0.9910  1.6399
  136MOL0     H18723   0.765  10.691   3.875  0.2348 -2.3337 -0.1511
  136MOL0     H18724   0.693  10.495   3.985 -2.1036 -1.1556  1.8812
  136MOL0     H18725   0.700  10.564   4.151 -3.0430  1.4244  1.0329
  136MOL0     H18726   0.331  10.739   4.126  1.2998  2.0311  0.7952
  136MOL0     H18727   0.153  10.713   4.375 -1.1912  2.2354 -0.9877
  136MOL0     H18728   0.049  10.594   4.317 -3.5430  1.5467 -2.8375
  136MOL0     H18729   0.104  10.709   4.199  2.6633  1.8983 -0.3803
  136MOL0     H18730   0.027  10.089   4.373 -0.7469 -2.0905 -1.3400
  136MOL0     H18731  -0.180   9.967   4.469  2.2723  0.0487 -2.4811
  136MOL0     H18732  -0.389   9.887   4.442 -0.1083  0.5008 -0.6855
  136MOL0     H18733  -0.357   9.917   4.612 -1.7264  2.5437  1.9680
  136MOL0     H18734  -0.637   9.910   4.461 -2.5969  1.4638  1.0859
  136MOL0     H18735  -0.584   9.780   4.549 -4.0221  0.6183 -1.7120
  136MOL0     H18736  -0.679  10.027   4.681 -3.2445 -1.0531  3.6912
  136MOL0     H18737  -0.568   9.928   4.767 -0.2164  3.3352  0.9571
  136MOL0     H18738  -0.758   9.737   4.695 -1.0573  1.1803 -1.6650
  136MOL0     H18739  -0.843   9.873   4.634  0.9836  1.9595 -0.3577
  136MOL0     H18740  -0.765   9.814   4.920  3.2743  0.3678 -3.3689
  136MOL0     H18741  -0.844   9.969   4.876 -2.0816  0.4610 -0.8295
  136MOL0     H18742  -0.976   9.701   4.861 -1.2303 -0.3967  0.9498
  136MOL0     H18743  -1.032   9.851   4.772  1.8044  0.4342 -0.1204
  136MOL0     H18744  -1.040   9.962   4.990 -1.5784  0.5610  1.6526
  136MOL0     H18745  -0.994   9.812   5.074  1.9067  0.5555 -1.6370
  136MOL0     H18746  -1.233   9.851   4.894  0.5007  0.9354 -0.3932
  136MOL0     H18747  -1.242   9.856   5.068 -1.5259  3.4745 -2.5481
  136MOL0     H18748  -0.401  10.323   4.457 -0.8836 -1.4505 -1.9865
  136MOL0     H18749  -0.200  10.451   4.368 -0.5344 -0.5214 -0.5257
  136MOL0     H18750   0.414  10.266   4.251  2.7026  0.5428 -0.5520
  136MOL0     H18751   0.560  10.375   4.120  0.1454 -0.1941 -2.1112
  136MOL0     H18752   2.204  10.857   3.601  0.3689 -0.8000  0.3969
  136MOL0     H18753   2.311  11.079   3.682 -1.7187  1.1049 -0.3985
  136MOL0     H18754   2.243  11.371   4.242 -0.0190  1.4807  0.8007
  136MOL0     H18755   2.387  11.558   4.319 -2.7338 -2.5597  0.8881
  136MOL0     H18756   2.407  11.797   4.229 -0.0305 -0.3581 -1.4425
  136MOL0     H18757   2.517  11.762   4.360 -1.0419 -1.7101 -1.0141
  136MOL0     H18758   2.549  12.008   4.252 -1.2042 -1.9594  0.0201
  136MOL0     H18759   2.628  11.932   4.128 -1.1481  5.8558  0.3913
  136MOL0     H18760   2.758  11.795   4.314 -0.2420 -1.0329  0.8793
  136MOL0     H18761   2.813  11.965   4.267 -2.8742  3.5235  0.5514
  136MOL0     H18762   2.639  11.882   4.497  0.7429  2.5089  4.4556
  136MOL0     H18763   2.697  12.054   4.452 -0.3740 -0.1604  0.5232
  136MOL0     H18764   3.008  11.886   4.675  1.1692 -1.3780 -0.9641
  136MOL0     H18765   2.529  11.622   3.938  1.1610  2.4055  2.7974
  136MOL0     H18766   2.307  11.372   3.775  1.0149 -2.6165 -0.0260
  136MOL0     H18767   2.405  11.520   3.753  0.8632  0.3147  1.5628
  136MOL0     H18768   2.486  11.364   3.756 -1.2800  0.0633 -3.1989
  137MOL0     O18769  10.538   0.024   9.659  0.5194  0.0320 -0.1661
  137MOL0     C18770  10.427   0.032   9.712  0.3750  0.4629  0.0302
  137MOL0     O18771  10.311   0.075   9.646 -0.3697 -0.6039 -0.4059
  137MOL0     C18772  10.309   0.109   9.512  0.0427 -0.4319  0.0386
  137MOL0     C18773  10.427   0.158   9.447  0.2015  0.5669 -0.0992
  137MOL0     C18774  10.427   0.169   9.306  0.3318 -0.9031  0.5603
  137MOL0     C18775  10.322   0.127   9.232 -0.2647  0.3146 -0.0497
  137MOL0     O18776  10.333   0.144   9.100 -0.1921 -0.4992  0.6156
  137MOL0     C18777  10.235   0.089   9.013  0.8585  0.0691  0.0255
  137MOL0     C18778  10.250   0.107   8.855  1.0118 -0.5416 -0.3199
  137MOL0     C18779  10.113   0.044   8.788  0.6521  0.0165 -0.1717
  137MOL0     C18780  10.139   0.007   8.645  0.3168  0.4589 -0.2889
  137MOL0     C18781  10.020  -0.078   8.599 -0.2607  0.2950  0.4560
  137MOL0     C18782   9.997  -0.085   8.445  0.2010 -0.4480 -0.2318
  137MOL0     C18783   9.961   0.062   8.387  0.5823  1.0085  0.1562
  137MOL0     C18784   9.828   0.115   8.432  0.5791  0.1491 -0.9448
  137MOL0     N18785   9.714   0.021   8.410 -0.4258  0.1153 -0.1079
  137MOL0     C18786   9.664  -0.069   8.505  0.2546 -0.6615 -0.0066
  137MOL0     C18787   9.555  -0.106   8.442 -0.4193 -0.0514 -0.0778
  137MOL0     C18788   9.460  -0.210   8.497 -0.3159  0.6055  0.1193
  137MOL0     C18789   9.356  -0.137   8.591  0.2676  0.3764 -0.2945
  137MOL0     C18790   9.394  -0.122   8.733  0.7211 -1.3075 -0.0561
  137MOL0     C18791   9.296  -0.052   8.816  0.1573  0.1201  0.4207
  137MOL0     O18792   9.238   0.062   8.762  0.1099 -0.8356 -0.6235
  137MOL0     C18793   9.232   0.186   8.824 -0.3274 -0.7015 -0.2269
  137MOL0     C18794   9.329   0.234   8.909 -0.2795 -0.3167 -0.6217
  137MOL0     C18795   9.325   0.364   8.967 -0.3785 -0.4457 -0.2498
  137MOL0     C18796   9.433   0.407   9.066 -0.2773  0.7791 -0.0935
  137MOL0     C18797   9.212   0.447   8.944 -0.1558 -0.1540  0.5954
  137MOL0     C18798   9.190   0.590   8.987 -0.2259 -0.4042  0.0944
  137MOL0     O18799   9.066   0.612   9.017  0.6198  0.0890  0.4415
  137MOL0     C18800   9.010   0.708   9.094  0.3041 -0.1886 -0.2035
  137MOL0     C18801   9.028   0.847   9.070 -0.0538  0.9729  0.0920
  137MOL0     C18802   8.959   0.942   9.138 -0.0425 -0.3304 -0.4001
  137MOL0     C18803   8.856   0.902   9.223 -0.3934  1.2112  0.3022
  137MOL0     O18804   8.767   0.993   9.280 -0.2218 -0.1248 -0.2135
  137MOL0     C18805   8.772   1.135   9.237 -0.1217 -0.2341 -0.1122
  137MOL0     C18806   8.695   1.222   9.334  0.2779  0.2561  0.3415
  137MOL0     C18807   8.788   1.271   9.453  0.8553 -0.0390  0.4303
  137MOL0     C18808   8.831   1.169   9.549  0.2670  0.2753  0.5355
  137MOL0     C18809   8.778   1.180   9.688 -0.1161  0.3558 -1.3122
  137MOL0     C18810   8.895   1.255   9.764 -0.0393 -0.1678  0.2701
  137MOL0     C18811   8.854   1.313   9.902  0.3366  1.2296 -0.4530
  137MOL0     C18812   8.786   1.209   9.993 -0.4110 -0.2577 -1.2329
  137MOL0    Cl18813   8.869   1.185  10.155  0.3964  0.2856  0.1180
  137MOL0     C18814   8.828   0.763   9.239  0.3330  0.1798 -0.0847
  137MOL0     C18815   8.909   0.670   9.177  0.2648 -0.2069  0.1592
  137MOL0     O18816   9.281   0.670   9.007 -0.5750  0.1529 -0.3634
  137MOL0     C18817   9.114   0.390   8.862 -0.6816 -0.9376 -0.3953
  137MOL0     C18818   9.129   0.275   8.790 -0.2731  0.7299 -0.2936
  137MOL0     N18819   9.547  -0.068   8.310 -1.3008 -0.4595  0.0119
  137MOL0     N18820   9.651   0.012   8.291 -0.3154  0.0293 -0.1454
  137MOL0     C18821  10.208   0.074   9.299  0.2515 -0.7940  0.7571
  137MOL0     C18822  10.205   0.058   9.435  1.5134 -0.8428 -0.4707
  137MOL0     C18823  10.417  -0.026   9.846 -0.1185 -0.7198  0.1123
  137MOL0     C18824  10.524  -0.099   9.900  0.7656 -0.0996 -0.2881
  137MOL0     C18825  10.530  -0.154  10.028 -0.9785  0.1509  0.3810
  137MOL0     C18826  10.417  -0.147  10.111  0.2787 -0.1629  0.0564
  137MOL0     O18827  10.422  -0.214  10.228 -0.7497 -0.1711  0.5001
  137MOL0     C18828  10.321  -0.191  10.324  0.2949  0.1510 -0.2198
  137MOL0     C18829  10.327  -0.296  10.430 -0.1192  0.2464  0.4590
  137MOL0     C18830  10.243  -0.419  10.404 -0.8117 -0.7921  0.1165
  137MOL0     C18831  10.246  -0.469  10.257 -1.2155 -0.6943  0.1184
  137MOL0     C18832  10.138  -0.570  10.243  0.3710 -0.5148 -0.1214
  137MOL0     C18833  10.041  -0.637  10.215  0.0897 -0.2772  0.4923
  137MOL0     C18834  10.312  -0.064  10.073  0.8308 -0.2274  0.1574
  137MOL0     C18835  10.310  -0.005   9.939  0.3540 -0.0037  0.0645
  137MOL0     C18836  10.191   0.080   9.912  0.9405 -0.1491 -0.9875
  137MOL0     H18837  10.525   0.177   9.488  0.8012  0.2088 -1.3213
  137MOL0     H18838  10.515   0.216   9.265  1.5465 -1.4647  2.3802
  137MOL0     H18839  10.139   0.139   9.034  2.8913  4.8042 -0.6553
  137MOL0     H18840  10.224  -0.018   9.031  1.6964  0.1451  1.0911
  137MOL0     H18841  10.264   0.214   8.843  0.2228 -0.3280  0.5751
  137MOL0     H18842  10.341   0.064   8.814  0.7863 -0.4538 -0.9176
  137MOL0     H18843  10.072  -0.043   8.840  2.5110 -1.6905 -1.4175
  137MOL0     H18844  10.039   0.124   8.779 -0.8823 -1.0752  1.8638
  137MOL0     H18845  10.152   0.102   8.594  2.0079  1.8984  2.5776
  137MOL0     H18846  10.237  -0.041   8.638  0.9519  1.0900  2.6944
  137MOL0     H18847   9.930  -0.043   8.651 -0.7672  0.4010 -0.4705
  137MOL0     H18848  10.037  -0.181   8.630 -1.1775  0.5021  1.7448
  137MOL0     H18849  10.091  -0.115   8.398 -0.0537 -1.8332  0.0968
  137MOL0     H18850   9.926  -0.159   8.406  1.7003 -0.6004 -2.9024
  137MOL0     H18851   9.952   0.065   8.278  3.2511  0.7792 -0.1474
  137MOL0     H18852  10.046   0.131   8.397  0.7673  0.5226  2.3442
  137MOL0     H18853   9.825   0.128   8.541 -2.7133 -2.6680 -0.5095
  137MOL0     H18854   9.799   0.207   8.381  2.0104  1.7154  0.9110
  137MOL0     H18855   9.690  -0.099   8.606 -2.8197  2.9179  2.0858
  137MOL0     H18856   9.519  -0.287   8.547 -2.6812 -2.0793 -0.8976
  137MOL0     H18857   9.414  -0.273   8.420  1.5483 -1.3072  0.4881
  137MOL0     H18858   9.340  -0.040   8.544 -0.3338 -0.3883 -1.7516
  137MOL0     H18859   9.264  -0.196   8.587 -0.6514  1.7575 -0.2247
  137MOL0     H18860   9.414  -0.220   8.778  1.9749 -0.4082  1.4857
  137MOL0     H18861   9.486  -0.063   8.739  1.0208 -1.8322  0.9239
  137MOL0     H18862   9.214  -0.124   8.824  0.4536 -0.3193 -0.4392
  137MOL0     H18863   9.333  -0.033   8.917  2.1656  0.9383 -0.4358
  137MOL0     H18864   9.410   0.168   8.939 -0.6682  0.2088  1.8430
  137MOL0     H18865   9.474   0.312   9.102 -2.6031 -0.2581 -0.0285
  137MOL0     H18866   9.409   0.485   9.138 -4.1566  0.5236 -0.9165
  137MOL0     H18867   9.524   0.442   9.016 -0.6337  2.2580  0.2444
  137MOL0     H18868   9.098   0.885   8.997 -0.4648 -1.2423 -1.5520
  137MOL0     H18869   8.982   1.047   9.122 -1.7561  0.6518  2.7567
  137MOL0     H18870   8.872   1.179   9.228 -0.6034  1.3488  1.5032
  137MOL0     H18871   8.724   1.139   9.139  2.1075  0.9360 -1.2092
  137MOL0     H18872   8.658   1.308   9.278  1.9791  1.1013  0.4542
  137MOL0     H18873   8.601   1.174   9.365 -0.3876  1.4465  0.2542
  137MOL0     H18874   8.743   1.358   9.502  1.4171 -0.6085  2.0288
  137MOL0     H18875   8.882   1.311   9.415  2.5844 -3.6965  0.4225
  137MOL0     H18876   8.941   1.172   9.547  0.2543  1.5816 -0.6766
  137MOL0     H18877   8.817   1.066   9.515  2.1103  1.4014 -4.6213
  137MOL0     H18878   8.681   1.231   9.689 -0.4317 -0.2435 -1.3314
  137MOL0     H18879   8.772   1.082   9.736 -4.2461 -0.5998 -3.3677
  137MOL0     H18880   8.935   1.338   9.706 -2.3228  0.0131 -1.1831
  137MOL0     H18881   8.978   1.187   9.785  3.0976  2.5222 -2.3616
  137MOL0     H18882   8.799   1.408   9.893  0.2502  1.2189 -0.0805
  137MOL0     H18883   8.953   1.335   9.944  1.1118 -2.6645  0.0989
  137MOL0     H18884   8.775   1.106   9.956  0.3614 -2.1295  3.0490
  137MOL0     H18885   8.677   1.221   9.998 -0.2253  1.4321 -0.7202
  137MOL0     H18886   8.749   0.734   9.307 -1.0149 -1.0941 -2.1067
  137MOL0     H18887   8.895   0.562   9.181  1.1303 -0.4347 -1.8938
  137MOL0     H18888   9.026   0.450   8.840 -0.3467 -1.2977 -2.9656
  137MOL0     H18889   9.069   0.251   8.702 -0.7263  0.8705 -0.0252
  137MOL0     H18890  10.123   0.037   9.242 -1.1014  2.4815  0.4238
  137MOL0     H18891  10.120   0.013   9.484  0.9555  0.3086 -0.3471
  137MOL0     H18892  10.620  -0.107   9.851  1.1067  0.6624  0.2330
  137MOL0     H18893  10.622  -0.200  10.060 -1.0091  0.9437  1.6783
  137MOL0     H18894  10.333  -0.096  10.377  0.3351 -0.0479  0.1337
  137MOL0     H18895  10.217  -0.200  10.291 -0.1497 -2.3185  1.4757
  137MOL0     H18896  10.299  -0.255  10.528 -1.1456 -1.3533  0.8926
  137MOL0     H18897  10.433  -0.323  10.431 -0.4405 -1.0939  1.5260
  137MOL0     H18898  10.285  -0.501  10.464 -0.2422 -0.5057  0.1096
  137MOL0     H18899  10.144  -0.396  10.446  0.1454  1.0955  1.4722
  137MOL0     H18900  10.345  -0.509  10.234 -2.1048 -1.3907 -2.9294
  137MOL0     H18901  10.218  -0.392  10.185 -2.5605  0.9805  2.2913
  137MOL0     H18902   9.954  -0.697  10.199 -0.9069  0.9428  1.1428
  137MOL0     H18903  10.233  -0.037  10.142  1.5340 -0.5111  1.0818
  137MOL0     H18904  10.115   0.039   9.845 -0.8057  1.9106 -0.3581
  137MOL0     H18905  10.145   0.111  10.006 -4.7352 -2.5868 -2.5233
  137MOL0     H18906  10.222   0.173   9.865  1.8471  1.8973  3.1738
  138MOL0     O18907   9.686   9.065   4.500  0.8436 -0.2998 -0.5696
  138MOL0     C18908   9.656   8.942   4.491 -0.0675  0.2865 -0.6251
  138MOL0     O18909   9.698   8.866   4.383  0.3775  0.5528 -0.9904
  138MOL0     C18910   9.753   8.924   4.266 -0.0304  0.8353 -0.2462
  138MOL0     C18911   9.867   8.879   4.205  0.0515  0.8500  0.0256
  138MOL0     C18912   9.929   8.952   4.100  0.8229  0.3002 -0.3834
  138MOL0     C18913   9.865   9.068   4.052  0.0353  0.6705  0.3166
  138MOL0     O18914   9.938   9.138   3.958  0.2719 -0.5288 -0.4727
  138MOL0     C18915   9.902   9.282   3.946 -0.0206 -0.6020  0.2347
  138MOL0     C18916   9.987   9.356   3.840  1.1336  0.9931 -0.7386
  138MOL0     C18917   9.948   9.327   3.692 -0.2822 -0.0126 -0.2265
  138MOL0     C18918   9.980   9.189   3.642  0.4814 -0.7750 -0.7899
  138MOL0     C18919   9.986   9.200   3.483 -0.2607 -0.7051  0.9060
  138MOL0     C18920  10.036   9.066   3.416 -0.0133 -0.5312  0.5107
  138MOL0     C18921  10.023   9.075   3.259 -0.7887  0.5601  0.0666
  138MOL0     C18922  10.099   8.965   3.190 -0.1057  0.3853 -0.1782
  138MOL0     N18923  10.120   8.998   3.048  0.0808  0.5540 -0.3703
  138MOL0     C18924  10.045   8.928   2.948  0.1858  0.4121  0.0051
  138MOL0     C18925  10.108   8.968   2.836  0.0724 -0.9076  0.0920
  138MOL0     C18926  10.074   8.940   2.693 -0.2454 -0.4073 -0.5425
  138MOL0     C18927  10.101   8.802   2.642  0.3135 -0.1054 -0.2703
  138MOL0     C18928  10.250   8.776   2.632  0.6871 -0.5237 -0.0961
  138MOL0     C18929  10.279   8.667   2.525  0.6049 -0.4968  0.2663
  138MOL0     O18930  10.307   8.716   2.395 -0.3459 -0.5522 -0.3953
  138MOL0     C18931  10.330   8.615   2.305  0.4023  0.1126 -0.1929
  138MOL0     C18932  10.247   8.506   2.282  0.5926 -0.8131  0.4425
  138MOL0     C18933  10.278   8.409   2.181 -0.0248  0.0253  0.0878
  138MOL0     C18934  10.192   8.291   2.161 -0.2764  0.5287  0.6132
  138MOL0     C18935  10.386   8.436   2.104 -0.9046 -1.2738  0.5367
  138MOL0     C18936  10.442   8.339   1.999  1.1684 -0.0757 -0.3962
  138MOL0     O18937  10.527   8.398   1.906  0.3990  0.4708 -0.6322
  138MOL0     C18938  10.606   8.326   1.822  0.0038 -0.7991  0.3558
  138MOL0     C18939  10.654   8.199   1.837  0.7066 -0.3836  0.1775
  138MOL0     C18940  10.769   8.167   1.770  0.1331 -0.2511  0.9649
  138MOL0     C18941  10.848   8.256   1.689  0.2554 -0.7051  0.2581
  138MOL0     O18942  10.985   8.234   1.660  0.7752  0.4275 -0.1807
  138MOL0     C18943  11.078   8.296   1.743  0.3145  0.3457 -0.3886
  138MOL0     C18944  11.106   8.439   1.689  0.4478 -0.8591  0.2181
  138MOL0     C18945  11.211   8.498   1.777  0.7345  0.3538  0.3476
  138MOL0     C18946  11.222   8.651   1.779 -0.8571 -0.4465  0.4829
  138MOL0     C18947  11.134   8.733   1.879 -0.0773 -0.1649  0.1522
  138MOL0     C18948  10.983   8.738   1.843  1.1760  0.0787 -0.6836
  138MOL0     C18949  10.906   8.841   1.924  0.0469 -0.1024  0.0487
  138MOL0     C18950  10.762   8.851   1.878 -0.5355 -0.6415  0.1205
  138MOL0    Cl18951  10.689   8.978   1.994  0.4055 -0.3284  0.2282
  138MOL0     C18952  10.787   8.378   1.654  1.2359 -0.1341  0.6311
  138MOL0     C18953  10.665   8.406   1.727  0.7186 -0.0122  0.2415
  138MOL0     O18954  10.403   8.223   1.999 -0.3556  1.3460 -1.0980
  138MOL0     C18955  10.476   8.539   2.135  0.9045 -0.0663  0.9878
  138MOL0     C18956  10.443   8.635   2.227 -0.0670  0.4110 -0.1732
  138MOL0     N18957  10.209   9.061   2.864 -0.3211 -0.4472  0.2712
  138MOL0     N18958  10.219   9.075   2.993 -0.9518  0.3528 -1.2429
  138MOL0     C18959   9.733   9.104   4.097  0.2512  0.4211  0.2293
  138MOL0     C18960   9.685   9.034   4.210  0.5810  0.3049  0.8886
  138MOL0     C18961   9.596   8.865   4.613 -0.5184 -0.3985  0.2807
  138MOL0     C18962   9.615   8.926   4.738  0.8052  0.1002  0.3923
  138MOL0     C18963   9.546   8.880   4.855 -0.0708  0.2361  0.0979
  138MOL0     C18964   9.461   8.781   4.837  0.1420  0.1398  0.6317
  138MOL0     O18965   9.385   8.736   4.946 -0.3900  0.2655 -0.0369
  138MOL0     C18966   9.367   8.809   5.069  1.2443  0.9347 -0.0236
  138MOL0     C18967   9.385   8.702   5.172 -0.0070  0.0075  0.3246
  138MOL0     C18968   9.365   8.760   5.315  0.3094  0.9154 -0.4553
  138MOL0     C18969   9.468   8.866   5.364  0.4809 -0.2490 -0.3752
  138MOL0     C18970   9.592   8.808   5.420  0.6197  0.1730  0.0112
  138MOL0     C18971   9.695   8.757   5.446 -0.2353  0.1505  0.1981
  138MOL0     C18972   9.444   8.711   4.719 -0.7836 -0.2956 -0.6652
  138MOL0     C18973   9.502   8.754   4.602  0.5724 -0.6552 -0.9686
  138MOL0     C18974   9.459   8.703   4.473 -0.5504  0.7155 -0.0718
  138MOL0     H18975   9.923   8.804   4.260  0.5383 -0.5605 -2.2322
  138MOL0     H18976  10.023   8.911   4.065  0.3025  0.0385 -1.5239
  138MOL0     H18977   9.916   9.336   4.040  2.2528  0.3143 -0.5844
  138MOL0     H18978   9.797   9.301   3.920  0.2362 -0.1257 -0.4509
  138MOL0     H18979   9.965   9.462   3.852 -0.1372  0.7442 -0.7298
  138MOL0     H18980  10.093   9.329   3.847  0.7779 -1.3307 -2.8360
  138MOL0     H18981   9.842   9.355   3.688  0.0870  1.3413 -1.4764
  138MOL0     H18982  10.006   9.385   3.620 -0.7812 -0.6968 -1.2085
  138MOL0     H18983  10.076   9.162   3.688  1.7777 -0.3215 -3.0471
  138MOL0     H18984   9.901   9.117   3.666  1.5495 -1.2592  1.5530
  138MOL0     H18985  10.059   9.275   3.451 -1.5225  0.5588  0.9331
  138MOL0     H18986   9.890   9.238   3.449 -1.1383 -2.0931  1.7410
  138MOL0     H18987  10.136   9.040   3.453 -1.3252 -0.6643  4.4337
  138MOL0     H18988   9.964   8.993   3.454  1.9301 -2.3122  0.9582
  138MOL0     H18989  10.085   9.156   3.219  1.3218 -1.7785 -1.7579
  138MOL0     H18990   9.918   9.079   3.228 -1.5896 -0.3969  2.4584
  138MOL0     H18991  10.193   8.956   3.246  1.0399  0.3934 -2.0312
  138MOL0     H18992  10.037   8.875   3.201 -1.2810  1.3547  1.8380
  138MOL0     H18993   9.953   8.871   2.954  0.6359 -0.6066 -1.9958
  138MOL0     H18994  10.132   9.011   2.634 -0.8347  0.6628  0.1347
  138MOL0     H18995   9.973   8.976   2.668  0.6102  0.6470 -2.7484
  138MOL0     H18996  10.066   8.724   2.710  1.2278 -1.8866 -1.7492
  138MOL0     H18997  10.056   8.779   2.545  0.1863 -0.4534 -0.1331
  138MOL0     H18998  10.300   8.873   2.629 -1.7415  0.7886 -1.1480
  138MOL0     H18999  10.270   8.731   2.730  0.7846  2.8792  1.6082
  138MOL0     H19000  10.351   8.593   2.563 -0.0360 -1.7459 -0.8478
  138MOL0     H19001  10.183   8.615   2.523 -1.0785  2.3492  1.1447
  138MOL0     H19002  10.154   8.507   2.339 -0.1775  2.3157 -0.6413
  138MOL0     H19003  10.248   8.207   2.202  1.2706  0.6153 -1.1789
  138MOL0     H19004  10.169   8.276   2.055 -1.5739 -2.6973  1.2082
  138MOL0     H19005  10.098   8.306   2.215  0.0542  0.5724  1.1909
  138MOL0     H19006  10.622   8.131   1.915  2.4526 -1.1420  0.2831
  138MOL0     H19007  10.813   8.068   1.780  1.7716  0.2704 -0.6150
  138MOL0     H19008  11.054   8.297   1.850  0.1363 -0.1053 -0.4195
  138MOL0     H19009  11.167   8.232   1.744  0.4217  0.4695 -1.1395
  138MOL0     H19010  11.115   8.449   1.581 -0.1899 -2.0654  0.0476
  138MOL0     H19011  11.013   8.490   1.715 -0.3972 -2.3641  0.2301
  138MOL0     H19012  11.304   8.450   1.747  0.4733  1.7525 -3.2638
  138MOL0     H19013  11.200   8.480   1.884 -2.5036  1.5955  0.3334
  138MOL0     H19014  11.204   8.688   1.677 -1.7144  1.4855  1.2892
  138MOL0     H19015  11.326   8.674   1.805 -1.1344  1.4342  0.0613
  138MOL0     H19016  11.143   8.689   1.978  0.1601  0.8652  0.5952
  138MOL0     H19017  11.170   8.836   1.873 -1.4704  0.6852  3.8844
  138MOL0     H19018  10.941   8.637   1.842 -4.0697  1.9316 -0.5280
  138MOL0     H19019  10.972   8.769   1.739 -0.2667 -0.3358 -0.6886
  138MOL0     H19020  10.950   8.939   1.907 -1.5475  0.6917  0.3622
  138MOL0     H19021  10.900   8.823   2.032 -1.2801 -1.5702 -0.2360
  138MOL0     H19022  10.715   8.753   1.888  1.9983 -1.8289  1.4895
  138MOL0     H19023  10.764   8.906   1.783  1.1048  1.4642  1.2761
  138MOL0     H19024  10.840   8.450   1.593  1.4764 -1.1487 -0.3818
  138MOL0     H19025  10.608   8.496   1.704  1.4147  0.8065  1.6021
  138MOL0     H19026  10.572   8.557   2.089  1.2357  0.8589  1.9955
  138MOL0     H19027  10.493   8.731   2.237  0.1541  0.1716  1.2742
  138MOL0     H19028   9.678   9.196   4.075  2.0958  3.9486  7.2003
  138MOL0     H19029   9.585   9.060   4.244 -0.7019 -2.5480 -0.3417
  138MOL0     H19030   9.667   9.021   4.740  0.8623  0.1148 -0.7977
  138MOL0     H19031   9.566   8.933   4.947 -1.6784 -0.4032  0.8480
  138MOL0     H19032   9.442   8.888   5.082  2.8953 -0.6870  0.8739
  138MOL0     H19033   9.266   8.846   5.088  0.9940 -0.8216  2.6257
  138MOL0     H19034   9.482   8.652   5.165  0.0113 -0.3218  2.4095
  138MOL0     H19035   9.310   8.622   5.168  1.2758 -1.2867  1.2720
  138MOL0     H19036   9.268   8.812   5.319 -0.0815  0.0825  2.3056
  138MOL0     H19037   9.351   8.687   5.395  0.6608  2.6946  1.3055
  138MOL0     H19038   9.420   8.932   5.437 -2.0418  0.1455 -2.2497
  138MOL0     H19039   9.493   8.939   5.286  1.1410 -0.7771 -0.6624
  138MOL0     H19040   9.791   8.709   5.455  0.2638  0.9113 -0.8585
  138MOL0     H19041   9.374   8.629   4.708  0.6089 -1.4227 -1.4418
  138MOL0     H19042   9.535   8.671   4.401 -1.2371 -1.6392  0.1848
  138MOL0     H19043   9.408   8.609   4.494  4.5925 -1.9622  2.3846
  138MOL0     H19044   9.393   8.773   4.421 -0.4797  1.3317  0.6596
  139MOL0     O19045   1.874   9.429   9.631 -0.0156 -0.2312 -0.7750
  139MOL0     C19046   1.773   9.496   9.651 -0.0030  0.3379 -0.8454
  139MOL0     O19047   1.773   9.630   9.616  1.0420 -0.6638 -0.4639
  139MOL0     C19048   1.827   9.682   9.500 -0.0405  1.5415 -0.4433
  139MOL0     C19049   1.949   9.749   9.495 -0.3543  1.4169  0.1505
  139MOL0     C19050   1.998   9.795   9.376  1.0052 -0.3156 -0.3088
  139MOL0     C19051   1.925   9.801   9.257  0.4243 -0.2743  0.3179
  139MOL0     O19052   1.985   9.854   9.148  0.2748  0.1013 -0.5072
  139MOL0     C19053   1.906   9.870   9.025  0.0002 -0.3071 -0.4636
  139MOL0     C19054   1.980   9.949   8.914  0.1699  0.2790 -0.6390
  139MOL0     C19055   1.892   9.956   8.794  0.5894 -0.3479 -0.0988
  139MOL0     C19056   1.915  10.097   8.734 -0.0839  0.1405  0.5158
  139MOL0     C19057   1.812  10.111   8.619 -0.2810  0.2724 -0.2281
  139MOL0     C19058   1.848  10.231   8.542 -0.0106 -1.0802  0.5685
  139MOL0     C19059   1.729  10.268   8.443  0.0185  1.1109 -0.6245
  139MOL0     C19060   1.588  10.262   8.502  0.3130 -0.2205 -0.2824
  139MOL0     N19061   1.564  10.324   8.635  0.2707  0.5697  0.1506
  139MOL0     C19062   1.636  10.419   8.694  0.4584 -0.6354  0.4733
  139MOL0     C19063   1.579  10.436   8.813  0.9074  0.2404 -0.7541
  139MOL0     C19064   1.618  10.541   8.919  0.9668 -0.3581  0.5455
  139MOL0     C19065   1.676  10.469   9.040  1.0520 -0.1622 -0.3484
  139MOL0     C19066   1.691  10.565   9.161 -0.8584  1.4858  0.6891
  139MOL0     C19067   1.752  10.705   9.132 -1.1026 -0.7687  0.5422
  139MOL0     O19068   1.720  10.781   9.251 -0.6606 -0.0576  0.5987
  139MOL0     C19069   1.757  10.921   9.246 -0.2103  0.1055  0.0646
  139MOL0     C19070   1.789  10.967   9.372 -0.0456 -0.5780 -0.2999
  139MOL0     C19071   1.856  11.094   9.392 -0.2355 -0.2824  0.6248
  139MOL0     C19072   1.916  11.118   9.532 -0.5407 -0.6506  0.1754
  139MOL0     C19073   1.894  11.171   9.282 -0.4030 -0.3967 -0.9130
  139MOL0     C19074   1.985  11.297   9.287  0.5638  0.1745 -0.6057
  139MOL0     O19075   2.016  11.354   9.169 -1.0784 -0.1162  0.0187
  139MOL0     C19076   2.118  11.441   9.151  0.8870  0.1443  0.4387
  139MOL0     C19077   2.114  11.514   9.031  0.1765 -0.3434 -0.1081
  139MOL0     C19078   2.223  11.591   8.983 -0.3910 -0.0441  0.0895
  139MOL0     C19079   2.336  11.607   9.065 -0.0248  0.4505  0.8066
  139MOL0     O19080   2.434  11.691   9.019  0.6058  0.1705  0.7394
  139MOL0     C19081   2.416  11.821   9.082 -0.5140  0.1398 -0.0526
  139MOL0     C19082   2.532  11.902   9.022 -0.1245  0.4260  0.0633
  139MOL0     C19083   2.570  12.030   9.101  0.4111  0.2352 -0.7327
  139MOL0     C19084   2.661  12.124   9.009 -0.3828  0.0505 -0.2727
  139MOL0     C19085   2.725  12.244   9.091 -0.1471 -0.4003  0.3236
  139MOL0     C19086   2.809  12.334   8.997 -0.0133  0.4806  0.3608
  139MOL0     C19087   2.880  12.451   9.074 -1.4788  0.1048  0.1990
  139MOL0     C19088   3.004  12.405   9.151  0.6394 -0.1483 -0.6344
  139MOL0    Cl19089   3.112  12.530   9.209 -0.1167 -0.1048  0.0383
  139MOL0     C19090   2.337  11.542   9.192 -0.4341  0.2285  0.2381
  139MOL0     C19091   2.229  11.456   9.232  0.1551 -0.2506 -1.2467
  139MOL0     O19092   2.027  11.337   9.395  0.3762 -0.4238  0.4418
  139MOL0     C19093   1.844  11.129   9.157  0.6497  0.7351  0.7917
  139MOL0     C19094   1.781  10.999   9.138 -0.6172  1.0234  0.3221
  139MOL0     N19095   1.476  10.343   8.831  0.4441  0.0483 -0.1990
  139MOL0     N19096   1.469  10.277   8.728  0.1851  0.5987 -0.0490
  139MOL0     C19097   1.800   9.731   9.262  0.7837  0.0198  0.7773
  139MOL0     C19098   1.748   9.677   9.384  0.2310  0.3220 -0.2171
  139MOL0     C19099   1.660   9.438   9.721  0.4066  0.2885 -0.5457
  139MOL0     C19100   1.561   9.523   9.766  0.6556  0.3133  0.0184
  139MOL0     C19101   1.454   9.477   9.851  0.2505  1.0816  0.7007
  139MOL0     C19102   1.444   9.341   9.884  0.0770 -0.3132  0.2328
  139MOL0     O19103   1.341   9.273   9.943 -0.1233 -0.0042 -1.1605
  139MOL0     C19104   1.258   9.350  10.030  0.2620 -0.2498  0.6373
  139MOL0     C19105   1.165   9.256  10.109  0.0508  1.2209  0.3066
  139MOL0     C19106   1.224   9.174  10.223 -0.7854  0.3171  0.3481
  139MOL0     C19107   1.118   9.095  10.284 -0.4177  0.4738  0.6343
  139MOL0     C19108   1.178   9.047  10.410 -0.1337 -0.2575 -0.2774
  139MOL0     C19109   1.237   8.996  10.506 -0.1893 -0.0672  0.1638
  139MOL0     C19110   1.540   9.254   9.840  0.7553 -0.2960  0.7597
  139MOL0     C19111   1.646   9.302   9.759  0.2400  0.9600 -0.7169
  139MOL0     C19112   1.740   9.185   9.724  0.1545  0.8655  0.6300
  139MOL0     H19113   2.011   9.738   9.584  0.3055 -0.5856 -0.4924
  139MOL0     H19114   2.098   9.836   9.363  0.9013 -0.1986 -0.7563
  139MOL0     H19115   1.811   9.922   9.041  0.1389 -0.4603  0.9802
  139MOL0     H19116   1.886   9.770   8.983  0.6222 -0.5936 -0.0806
  139MOL0     H19117   2.007  10.051   8.944  0.5062  0.9660 -3.0116
  139MOL0     H19118   2.075   9.909   8.878 -1.5885 -0.5750 -5.0649
  139MOL0     H19119   1.908   9.880   8.717 -0.9908 -0.2259 -0.5744
  139MOL0     H19120   1.787   9.948   8.823  1.0717 -3.3918  1.1740
  139MOL0     H19121   1.904  10.172   8.813  2.4426  0.5708  0.5505
  139MOL0     H19122   2.012  10.105   8.684  0.1538 -2.4140  0.4503
  139MOL0     H19123   1.721  10.133   8.675  0.6782  3.5532  0.2521
  139MOL0     H19124   1.801  10.024   8.554  0.7262  0.7510 -1.0710
  139MOL0     H19125   1.866  10.321   8.601 -2.6826 -0.8836  1.2056
  139MOL0     H19126   1.942  10.211   8.488  1.1441  0.5513  1.8515
  139MOL0     H19127   1.729  10.192   8.363 -0.8626  0.2430  0.1610
  139MOL0     H19128   1.756  10.365   8.402  1.9276  0.0727 -1.9769
  139MOL0     H19129   1.505  10.305   8.446 -2.4353 -0.0106  3.5312
  139MOL0     H19130   1.569  10.155   8.501  1.2266 -0.4634  1.8838
  139MOL0     H19131   1.716  10.469   8.639 -1.0457 -1.1643 -2.4227
  139MOL0     H19132   1.520  10.583   8.943  0.8806  0.5893 -1.2661
  139MOL0     H19133   1.691  10.605   8.868 -1.1736  2.2737  0.5896
  139MOL0     H19134   1.602  10.390   9.061 -0.6461  0.7376 -2.5322
  139MOL0     H19135   1.775  10.428   9.021  1.1040 -0.2822  0.1659
  139MOL0     H19136   1.591  10.582   9.200 -0.8376  0.2730  1.3313
  139MOL0     H19137   1.746  10.511   9.240 -0.0927 -6.3237 -4.0942
  139MOL0     H19138   1.860  10.705   9.117 -0.8116  0.1740  2.2650
  139MOL0     H19139   1.705  10.751   9.045 -0.0332 -0.2773  0.2176
  139MOL0     H19140   1.777  10.902   9.458  0.5072 -0.3408 -0.0354
  139MOL0     H19141   1.885  11.044   9.607 -0.7036 -0.1418  0.6203
  139MOL0     H19142   1.876  11.217   9.557  1.9025  0.2159  0.9321
  139MOL0     H19143   2.025  11.120   9.530 -0.4863  3.1211 -0.2703
  139MOL0     H19144   2.021  11.513   8.975 -1.2735 -2.2749  2.1357
  139MOL0     H19145   2.203  11.656   8.898  1.0485 -0.3618 -0.5272
  139MOL0     H19146   2.329  11.873   9.041 -0.6264  2.0880  2.4398
  139MOL0     H19147   2.412  11.810   9.190  0.7361 -2.1566 -0.1661
  139MOL0     H19148   2.626  11.847   9.030  0.1508  0.3447 -2.7187
  139MOL0     H19149   2.508  11.928   8.918  0.5892  0.6390 -0.0580
  139MOL0     H19150   2.616  12.005   9.197  1.0506 -1.4919 -1.4427
  139MOL0     H19151   2.473  12.076   9.121  0.6370  0.3386  0.1588
  139MOL0     H19152   2.609  12.171   8.925 -4.6809 -1.0445  1.5051
  139MOL0     H19153   2.742  12.059   8.974 -2.2608 -2.7210  0.1992
  139MOL0     H19154   2.637  12.299   9.126 -0.3432  0.9399 -2.1195
  139MOL0     H19155   2.783  12.226   9.182 -1.8426  2.8369  2.2550
  139MOL0     H19156   2.750  12.374   8.913  0.9699 -0.4328 -0.7942
  139MOL0     H19157   2.881  12.270   8.945 -0.4070  1.3093 -1.2764
  139MOL0     H19158   2.819  12.514   9.138 -1.9275  2.5332 -2.3878
  139MOL0     H19159   2.911  12.515   8.990 -1.8346  1.1933  0.8669
  139MOL0     H19160   3.064  12.347   9.080  1.5638 -0.7367  0.5916
  139MOL0     H19161   2.979  12.333   9.229  0.8480  1.0482  0.5776
  139MOL0     H19162   2.417  11.570   9.260  2.0622  0.2050 -2.4495
  139MOL0     H19163   2.242  11.383   9.311  0.6728  3.3102  2.2951
  139MOL0     H19164   1.871  11.184   9.068  1.1021 -2.5010 -1.2600
  139MOL0     H19165   1.767  10.967   9.035  1.3754  2.0596 -0.3158
  139MOL0     H19166   1.735   9.732   9.176 -0.1947 -0.3132  1.4933
  139MOL0     H19167   1.661   9.613   9.393 -1.6165  2.8575  1.3259
  139MOL0     H19168   1.558   9.629   9.744 -2.9136  0.7529  1.8168
  139MOL0     H19169   1.378   9.546   9.885 -0.9444 -0.0683  0.4482
  139MOL0     H19170   1.328   9.398  10.099  1.4275 -0.5866 -0.2695
  139MOL0     H19171   1.193   9.426   9.985 -0.1349 -2.4778 -2.9942
  139MOL0     H19172   1.114   9.194  10.035  4.3514 -2.1396 -0.2052
  139MOL0     H19173   1.092   9.325  10.153 -1.4184 -0.3578  0.4500
  139MOL0     H19174   1.295   9.109  10.172 -1.8991 -0.7249  0.0628
  139MOL0     H19175   1.280   9.239  10.290  0.7144 -0.1358 -0.4206
  139MOL0     H19176   1.090   9.008  10.225  0.2662  0.7420 -0.1019
  139MOL0     H19177   1.027   9.150  10.310 -0.1245  1.5375 -0.4934
  139MOL0     H19178   1.270   8.940  10.591  1.9416 -2.8440 -2.2606
  139MOL0     H19179   1.512   9.149   9.840 -2.6208  0.5026 -0.1911
  139MOL0     H19180   1.787   9.199   9.626  0.3376  0.4297  0.6514
  139MOL0     H19181   1.818   9.179   9.800  0.2067  3.0373  0.8206
  139MOL0     H19182   1.693   9.088   9.703  1.7762  0.5267 -1.8413
  140MOL0     O19183   0.288  11.573   6.655  0.3457  0.1304  0.0042
  140MOL0     C19184   0.209  11.664   6.689 -1.4340 -0.0742 -0.3857
  140MOL0     O19185   0.223  11.794   6.636  0.4653 -0.5160 -0.3070
  140MOL0     C19186   0.321  11.814   6.547 -0.4120 -0.1456 -0.3796
  140MOL0     C19187   0.440  11.884   6.594  0.0465 -0.3631 -0.0566
  140MOL0     C19188   0.528  11.928   6.496 -0.0309 -0.3335 -0.5081
  140MOL0     C19189   0.518  11.905   6.366  0.0331  0.2874 -0.1074
  140MOL0     O19190   0.628  11.940   6.292 -0.8479 -0.5977 -0.4850
  140MOL0     C19191   0.622  11.944   6.146  0.1160  0.4144 -0.6783
  140MOL0     C19192   0.757  11.912   6.092 -0.0020  0.9207  0.7463
  140MOL0     C19193   0.861  12.014   6.142  0.0065  0.4451 -0.1459
  140MOL0     C19194   0.995  11.997   6.067 -0.7518  0.1913  0.2584
  140MOL0     C19195   1.008  12.115   5.966  0.0467  0.2530  0.2847
  140MOL0     C19196   1.081  12.228   6.042 -0.4179  1.0995  0.2646
  140MOL0     C19197   1.098  12.349   5.949 -0.0793 -0.2592 -0.1061
  140MOL0     C19198   1.211  12.437   6.008  0.1208  0.2503  0.2967
  140MOL0     N19199   1.177  12.528   6.112  0.3429 -0.2326  0.7148
  140MOL0     C19200   1.152  12.660   6.093  0.1653  0.8061 -0.6203
  140MOL0     C19201   1.138  12.706   6.224  0.2519 -0.6111 -0.2876
  140MOL0     C19202   1.122  12.852   6.262  0.1375  0.4859 -0.6273
  140MOL0     C19203   1.230  12.942   6.192 -1.0118  0.3063  1.1930
  140MOL0     C19204   1.212  13.092   6.197 -0.1760 -0.3469  0.0807
  140MOL0     C19205   1.249  13.162   6.330 -0.7821 -0.7694 -0.6729
  140MOL0     O19206   1.398  13.192   6.336  0.6624  0.3356 -0.6637
  140MOL0     C19207   1.476  13.078   6.370  0.2930  0.2915  0.6378
  140MOL0     C19208   1.615  13.073   6.334 -0.4651 -0.1976  0.2683
  140MOL0     C19209   1.714  12.982   6.379  1.0412 -0.4005  0.9671
  140MOL0     C19210   1.855  12.995   6.334 -0.3251 -0.3712  0.3704
  140MOL0     C19211   1.672  12.878   6.466 -0.4445 -0.1702  0.0690
  140MOL0     C19212   1.761  12.777   6.525  0.8825  0.5185 -0.5837
  140MOL0     O19213   1.702  12.654   6.539  0.4266  1.4655 -0.3233
  140MOL0     C19214   1.778  12.551   6.587  0.5648  0.1698 -0.1840
  140MOL0     C19215   1.720  12.469   6.678  0.2416  0.4064 -0.2302
  140MOL0     C19216   1.794  12.361   6.736 -0.1523 -0.6533  0.7416
  140MOL0     C19217   1.929  12.337   6.706 -0.1211 -0.9661 -0.3165
  140MOL0     O19218   1.985  12.232   6.772  0.4183  0.1886 -0.1335
  140MOL0     C19219   2.115  12.233   6.824  0.2670 -0.1903  0.5069
  140MOL0     C19220   2.124  12.170   6.958  0.1318  0.0002 -0.2726
  140MOL0     C19221   2.105  12.013   6.941  0.2620 -0.9457  0.2342
  140MOL0     C19222   2.149  11.948   7.063  0.1034  0.2409  0.3936
  140MOL0     C19223   2.151  11.797   7.056 -0.1632 -1.3417  0.1775
  140MOL0     C19224   2.007  11.730   7.062 -0.2259 -0.6619  0.2979
  140MOL0     C19225   2.010  11.580   7.080 -0.8120 -0.2386 -0.4604
  140MOL0     C19226   1.877  11.521   7.126 -0.6259 -0.1943 -0.0799
  140MOL0    Cl19227   1.868  11.342   7.109  0.2892 -0.0567  0.1636
  140MOL0     C19228   1.987  12.425   6.610  1.0088 -0.0021 -0.2599
  140MOL0     C19229   1.916  12.532   6.560  0.0896  0.2147  0.4623
  140MOL0     O19230   1.868  12.818   6.575 -0.6440  0.3978  0.0242
  140MOL0     C19231   1.539  12.882   6.511 -1.1033  0.2168  0.5058
  140MOL0     C19232   1.438  12.972   6.456 -0.4057  0.1434 -0.2568
  140MOL0     N19233   1.160  12.607   6.314  0.4922  0.5546  0.2999
  140MOL0     N19234   1.186  12.500   6.248 -0.9819 -0.2822  0.0951
  140MOL0     C19235   0.398  11.839   6.324  0.5616  0.1717  0.0160
  140MOL0     C19236   0.299  11.798   6.412 -0.3769  0.8603  0.3914
  140MOL0     C19237   0.107  11.641   6.791 -0.1270 -0.1668  0.4243
  140MOL0     C19238   0.030  11.526   6.791  0.7660  0.6021  0.4435
  140MOL0     C19239  -0.089  11.510   6.863 -1.6482 -0.1811 -0.2191
  140MOL0     C19240  -0.131  11.616   6.929 -0.3223  0.0153  0.3349
  140MOL0     O19241  -0.255  11.591   6.992 -0.5393 -0.2012 -0.1639
  140MOL0     C19242  -0.282  11.681   7.093  0.5414 -0.5106 -0.5121
  140MOL0     C19243  -0.394  11.636   7.188 -0.0732 -0.5090  1.0527
  140MOL0     C19244  -0.363  11.524   7.291 -0.5774  0.3391  0.6997
  140MOL0     C19245  -0.459  11.407   7.307  0.3781  0.3520 -0.2146
  140MOL0     C19246  -0.476  11.318   7.195 -0.3372  0.0044 -0.3741
  140MOL0     C19247  -0.505  11.242   7.107 -0.9881  0.6779  0.3893
  140MOL0     C19248  -0.059  11.740   6.933 -0.5022 -0.1398  0.7820
  140MOL0     C19249   0.065  11.753   6.874  0.2158 -0.6548  0.4245
  140MOL0     C19250   0.144  11.885   6.897 -1.1108 -0.3499 -0.8798
  140MOL0     H19251   0.462  11.898   6.699 -0.8819 -1.3026  0.2924
  140MOL0     H19252   0.618  11.975   6.533 -0.2801  0.7903 -1.2679
  140MOL0     H19253   0.599  12.041   6.101  1.0382  0.1404 -1.7821
  140MOL0     H19254   0.543  11.878   6.111  0.2323  1.3374 -2.8322
  140MOL0     H19255   0.793  11.816   6.131 -0.1533 -0.5385 -2.4334
  140MOL0     H19256   0.757  11.906   5.983 -0.5271  1.1867  0.7296
  140MOL0     H19257   0.827  12.118   6.133 -3.9006 -0.6825 -0.3132
  140MOL0     H19258   0.874  11.988   6.248 -2.5239 -0.8040 -0.0751
  140MOL0     H19259   1.077  11.988   6.139 -0.2612 -1.4905 -0.4585
  140MOL0     H19260   0.988  11.904   6.010  1.9355 -1.5801  2.5431
  140MOL0     H19261   0.909  12.151   5.938 -0.6926 -2.7702 -1.3956
  140MOL0     H19262   1.069  12.092   5.878  2.2036 -2.8874  2.3990
  140MOL0     H19263   1.025  12.254   6.132 -1.6692 -0.7604  0.0796
  140MOL0     H19264   1.184  12.197   6.062  0.3686  2.2586 -1.7307
  140MOL0     H19265   1.006  12.407   5.943  0.1034 -0.1011 -1.9940
  140MOL0     H19266   1.136  12.309   5.854  0.5454 -0.6467  0.2912
  140MOL0     H19267   1.285  12.367   6.049  0.0949 -1.1968 -1.9634
  140MOL0     H19268   1.254  12.490   5.922  0.0991 -0.7109 -0.3187
  140MOL0     H19269   1.147  12.711   5.997 -3.2034 -2.4135 -2.3748
  140MOL0     H19270   1.127  12.880   6.368 -1.8800  0.0653 -0.3938
  140MOL0     H19271   1.030  12.893   6.221  0.2849  2.5764  0.9784
  140MOL0     H19272   1.332  12.917   6.221  0.1102  1.9717 -1.0037
  140MOL0     H19273   1.215  12.939   6.084 -2.1868  3.4138  1.1666
  140MOL0     H19274   1.258  13.140   6.111 -0.1384 -1.4005 -0.5072
  140MOL0     H19275   1.110  13.121   6.172  0.3349  1.3593 -0.1412
  140MOL0     H19276   1.208  13.263   6.336  1.2119  0.0193  1.2381
  140MOL0     H19277   1.210  13.106   6.415 -0.1509 -0.6037 -0.2675
  140MOL0     H19278   1.651  13.144   6.260  0.3568 -2.6017 -1.7521
  140MOL0     H19279   1.851  13.042   6.236  2.0729 -1.8765 -0.5232
  140MOL0     H19280   1.910  12.901   6.345 -1.1554 -0.8332  0.7073
  140MOL0     H19281   1.921  13.070   6.378  2.7504 -2.0554 -1.0882
  140MOL0     H19282   1.620  12.488   6.716  1.1363  3.6698  0.8388
  140MOL0     H19283   1.737  12.295   6.800 -0.4986  0.2931  1.4365
  140MOL0     H19284   2.176  12.163   6.767 -1.7934 -3.9167  2.5412
  140MOL0     H19285   2.147  12.338   6.828  1.6367 -0.5848  0.4568
  140MOL0     H19286   2.222  12.196   6.998  1.2835  0.9233 -3.3624
  140MOL0     H19287   2.039  12.210   7.014 -1.2432 -1.0829 -1.4992
  140MOL0     H19288   2.172  11.984   6.860 -0.8643 -2.0299 -0.3536
  140MOL0     H19289   2.007  11.977   6.907  0.3678  2.4941 -4.7718
  140MOL0     H19290   2.072  11.977   7.136  1.1725  0.5586  1.4369
  140MOL0     H19291   2.250  11.983   7.087  0.3294 -0.1016 -0.0388
  140MOL0     H19292   2.195  11.779   6.958  1.7721 -0.2600  0.7927
  140MOL0     H19293   2.222  11.756   7.129 -2.0636  0.1469  3.0466
  140MOL0     H19294   1.944  11.745   6.974 -3.0575 -1.2921  2.0770
  140MOL0     H19295   1.957  11.773   7.150  0.6566 -2.2183  1.6296
  140MOL0     H19296   2.082  11.559   7.159 -0.6388  2.0167  0.0607
  140MOL0     H19297   2.046  11.530   6.989  2.1510  3.3037 -1.5027
  140MOL0     H19298   1.795  11.559   7.064  0.3134  1.6299 -0.2788
  140MOL0     H19299   1.865  11.538   7.233 -0.2860  1.9857 -0.3445
  140MOL0     H19300   2.090  12.404   6.586 -0.0735 -2.6412 -3.4194
  140MOL0     H19301   1.954  12.589   6.476  3.2616 -1.7805  0.3898
  140MOL0     H19302   1.510  12.798   6.573 -0.2554  0.4883  1.2972
  140MOL0     H19303   1.337  12.945   6.487 -0.8544 -0.9597 -2.4549
  140MOL0     H19304   0.394  11.824   6.217 -0.8360 -0.9497  0.1909
  140MOL0     H19305   0.214  11.751   6.364 -1.2429  4.4333 -1.9828
  140MOL0     H19306   0.062  11.459   6.712 -1.1095 -2.9181  2.3943
  140MOL0     H19307  -0.150  11.420   6.869 -3.1730  0.8794  1.3274
  140MOL0     H19308  -0.197  11.705   7.157  0.9121  0.2876 -1.2871
  140MOL0     H19309  -0.312  11.768   7.033  1.7527  0.6957  0.5644
  140MOL0     H19310  -0.479  11.602   7.130 -0.3104 -0.3093  1.2779
  140MOL0     H19311  -0.436  11.716   7.250 -1.6800 -0.4712 -0.0321
  140MOL0     H19312  -0.269  11.480   7.254  0.4235  1.6015  1.6426
  140MOL0     H19313  -0.338  11.561   7.391  0.4923 -1.2212  1.0419
  140MOL0     H19314  -0.561  11.444   7.322 -0.1727  0.1249 -2.8914
  140MOL0     H19315  -0.430  11.358   7.400 -2.0179  1.3439  1.1334
  140MOL0     H19316  -0.525  11.184   7.019  0.0009  2.2099 -0.9166
  140MOL0     H19317  -0.101  11.823   6.989 -1.1661  1.9447 -2.5525
  140MOL0     H19318   0.129  11.905   7.004 -0.6379  1.9091 -1.2010
  140MOL0     H19319   0.250  11.882   6.872 -0.8233 -0.0776  0.2262
  140MOL0     H19320   0.100  11.977   6.859 -2.5196 -0.4729  0.3449
  141MOL0     O19321   2.226   7.409   3.296  0.5443  0.2542 -0.0935
  141MOL0     C19322   2.123   7.437   3.360 -0.3932  0.3292  0.8548
  141MOL0     O19323   1.996   7.413   3.319 -0.0846  0.2714 -0.9341
  141MOL0     C19324   1.981   7.322   3.214 -0.6106  0.1038 -1.0105
  141MOL0     C19325   2.034   7.355   3.080 -0.7919  0.6228 -0.8074
  141MOL0     C19326   1.989   7.282   2.967 -0.4989  0.4658  0.9896
  141MOL0     C19327   1.893   7.180   2.976  0.4089 -0.2667 -0.0865
  141MOL0     O19328   1.852   7.109   2.869 -0.3537  0.1525  0.0533
  141MOL0     C19329   1.820   6.966   2.884  0.0449  0.5888 -1.0233
  141MOL0     C19330   1.798   6.908   2.742  0.0313 -0.9274  0.6394
  141MOL0     C19331   1.675   6.959   2.664  0.1472 -0.1811  0.2225
  141MOL0     C19332   1.685   6.903   2.517  0.8134 -0.8654  0.2728
  141MOL0     C19333   1.555   6.952   2.441 -0.9314 -0.2508  0.3251
  141MOL0     C19334   1.544   6.898   2.303 -0.1498  0.7520  0.3344
  141MOL0     C19335   1.435   6.965   2.218 -0.8349 -0.0225  0.4084
  141MOL0     C19336   1.287   6.910   2.232 -0.9892 -1.0902  0.5640
  141MOL0     N19337   1.243   6.886   2.367 -0.8280  0.2341 -0.3099
  141MOL0     C19338   1.205   6.984   2.455 -0.1596  0.3951 -1.4333
  141MOL0     C19339   1.161   6.914   2.568  0.8296  0.0210 -0.1355
  141MOL0     C19340   1.107   6.972   2.693 -0.4349  0.0165 -0.9081
  141MOL0     C19341   1.212   7.031   2.784  0.0301  0.4158  0.2586
  141MOL0     C19342   1.338   7.099   2.715 -0.1933 -0.3129 -0.1948
  141MOL0     C19343   1.317   7.247   2.670  0.4364  0.2529 -0.3659
  141MOL0     O19344   1.252   7.311   2.777 -0.7496  0.0668 -0.7405
  141MOL0     C19345   1.185   7.426   2.737 -0.3487  0.2738 -1.0903
  141MOL0     C19346   1.064   7.426   2.676 -0.3101  0.0532 -0.4974
  141MOL0     C19347   0.982   7.541   2.660 -0.5772  0.1620  0.3326
  141MOL0     C19348   0.845   7.507   2.623  0.7543 -0.1722  0.9908
  141MOL0     C19349   1.041   7.670   2.690 -0.1950 -0.2235 -0.8076
  141MOL0     C19350   0.969   7.793   2.679  0.7985 -0.5066 -0.1495
  141MOL0     O19351   0.836   7.796   2.659 -0.2612 -0.5250 -0.2405
  141MOL0     C19352   0.771   7.918   2.639 -0.2655 -0.4264 -0.2987
  141MOL0     C19353   0.737   7.948   2.503  0.6009 -0.5550 -0.2131
  141MOL0     C19354   0.675   8.071   2.475  0.4295 -0.2889  0.1239
  141MOL0     C19355   0.634   8.160   2.578  0.4600 -0.4723  0.5752
  141MOL0     O19356   0.554   8.270   2.532 -0.0441  0.2465 -0.5500
  141MOL0     C19357   0.608   8.395   2.567 -0.8470  0.0844 -0.7917
  141MOL0     C19358   0.532   8.475   2.673  0.9040  0.1688  0.1451
  141MOL0     C19359   0.582   8.625   2.669  0.5646  0.2817 -0.3147
  141MOL0     C19360   0.512   8.714   2.769 -0.1510  0.3125 -0.0624
  141MOL0     C19361   0.550   8.682   2.919  0.0490 -0.3334 -0.6777
  141MOL0     C19362   0.467   8.772   3.003  0.5848 -1.1235 -0.5896
  141MOL0     C19363   0.454   8.716   3.149 -0.7897 -0.6611  0.4564
  141MOL0     C19364   0.370   8.800   3.238  0.1339 -0.4982 -0.3887
  141MOL0    Cl19365   0.198   8.823   3.186 -0.0133  0.0562 -0.4169
  141MOL0     C19366   0.665   8.128   2.711 -0.2970  0.3761 -0.3289
  141MOL0     C19367   0.729   8.013   2.742  0.3228  0.7066  0.0702
  141MOL0     O19368   1.036   7.889   2.687  0.1617 -0.5316  0.0505
  141MOL0     C19369   1.171   7.674   2.742  0.1812 -0.5221 -0.6445
  141MOL0     C19370   1.241   7.555   2.768  0.2828 -0.1945 -0.8461
  141MOL0     N19371   1.169   6.782   2.537  0.0217 -0.0429 -0.3710
  141MOL0     N19372   1.223   6.769   2.415  0.1664  0.7351 -1.0666
  141MOL0     C19373   1.839   7.154   3.110 -0.9795  0.5423  0.5289
  141MOL0     C19374   1.891   7.223   3.225 -0.8090  0.5099 -0.2586
  141MOL0     C19375   2.156   7.527   3.473  0.3495  0.5820 -0.6985
  141MOL0     C19376   2.277   7.594   3.475 -0.1911  0.5086  0.4524
  141MOL0     C19377   2.303   7.689   3.573 -0.8503 -0.0234 -0.4881
  141MOL0     C19378   2.211   7.714   3.672 -0.9956 -0.1363  0.0693
  141MOL0     O19379   2.234   7.815   3.756  0.0004 -0.1682 -0.3119
  141MOL0     C19380   2.338   7.805   3.842  0.1696 -0.2461  0.5981
  141MOL0     C19381   2.407   7.942   3.861  0.3990  1.0111  0.9805
  141MOL0     C19382   2.322   8.042   3.933  0.3395  0.2313 -0.0174
  141MOL0     C19383   2.239   8.121   3.828  0.4423 -0.2995  0.6106
  141MOL0     C19384   2.157   8.215   3.905 -1.4610  1.3368  0.4844
  141MOL0     C19385   2.112   8.310   3.967 -0.5309 -0.2386  0.1470
  141MOL0     C19386   2.098   7.641   3.676 -1.0076 -0.3713 -0.8275
  141MOL0     C19387   2.074   7.541   3.585 -0.7688  0.3364 -0.3244
  141MOL0     C19388   1.950   7.467   3.602  0.8221 -0.2656 -0.1851
  141MOL0     H19389   2.117   7.422   3.063 -0.6276  0.2909 -1.3159
  141MOL0     H19390   2.033   7.281   2.867 -1.7488 -1.4039  0.4162
  141MOL0     H19391   1.726   6.945   2.937  1.2237 -1.6634  0.3151
  141MOL0     H19392   1.907   6.924   2.936 -0.1441 -0.1769 -1.3145
  141MOL0     H19393   1.887   6.937   2.686 -1.8621  6.2316  0.3019
  141MOL0     H19394   1.777   6.800   2.744 -1.5648 -0.6396  1.8209
  141MOL0     H19395   1.581   6.922   2.708 -0.4602 -0.9362 -1.6121
  141MOL0     H19396   1.680   7.068   2.671  1.0234 -0.0832 -1.4647
  141MOL0     H19397   1.770   6.952   2.468 -0.7528  1.8326  0.0574
  141MOL0     H19398   1.690   6.793   2.515  4.6438 -0.8253 -1.3729
  141MOL0     H19399   1.557   7.061   2.449  3.1657 -0.2403  1.6265
  141MOL0     H19400   1.473   6.908   2.498 -0.9491 -4.3692 -2.4599
  141MOL0     H19401   1.641   6.912   2.256  0.0630  0.0761  0.5531
  141MOL0     H19402   1.527   6.790   2.303 -0.9290  0.7432 -3.2038
  141MOL0     H19403   1.460   6.942   2.113  0.2595  0.1580  0.6225
  141MOL0     H19404   1.451   7.073   2.222 -1.0020  0.0073  0.2869
  141MOL0     H19405   1.219   6.978   2.180 -0.3048  1.1095  2.3819
  141MOL0     H19406   1.278   6.820   2.171 -2.9833 -0.6708  0.1616
  141MOL0     H19407   1.212   7.092   2.446  0.1741  1.0394  3.7528
  141MOL0     H19408   1.043   6.897   2.741 -0.7425  0.3096 -0.8557
  141MOL0     H19409   1.041   7.058   2.678 -0.4540  0.1524 -0.0908
  141MOL0     H19410   1.173   7.102   2.857  2.2976  1.9618  0.0714
  141MOL0     H19411   1.239   6.938   2.835  1.2804  1.2014  1.0761
  141MOL0     H19412   1.420   7.117   2.785  0.8491  0.3965 -1.5604
  141MOL0     H19413   1.376   7.043   2.629 -1.8122  1.6137 -2.2995
  141MOL0     H19414   1.410   7.284   2.626  0.3017 -3.6166 -4.6271
  141MOL0     H19415   1.246   7.249   2.586  1.2514 -0.5386 -1.0858
  141MOL0     H19416   1.030   7.328   2.645  0.7179 -0.4001 -0.2583
  141MOL0     H19417   0.835   7.399   2.612 -3.1496  0.0410  0.9975
  141MOL0     H19418   0.823   7.555   2.526 -0.0851  3.0063  2.6157
  141MOL0     H19419   0.771   7.547   2.692 -2.1293  0.2301 -2.0500
  141MOL0     H19420   0.767   7.891   2.416  0.7883 -1.2762  0.3159
  141MOL0     H19421   0.658   8.091   2.370 -3.3994 -0.1604  0.6477
  141MOL0     H19422   0.705   8.367   2.611 -1.8771 -3.5183 -0.4678
  141MOL0     H19423   0.623   8.450   2.473 -2.7348 -1.1771 -1.8910
  141MOL0     H19424   0.425   8.466   2.656  0.5805  1.5272  1.2641
  141MOL0     H19425   0.553   8.430   2.771  1.9911 -1.2750 -0.7027
  141MOL0     H19426   0.560   8.660   2.568  0.4396 -0.7725 -0.6609
  141MOL0     H19427   0.690   8.622   2.682  0.7176 -4.3682 -1.0391
  141MOL0     H19428   0.408   8.681   2.759 -0.0875  0.3728 -1.0767
  141MOL0     H19429   0.531   8.820   2.752  2.9913 -0.3763 -1.6871
  141MOL0     H19430   0.515   8.582   2.943 -1.5642  0.6064  1.2272
  141MOL0     H19431   0.658   8.690   2.935 -0.2172  0.9607  0.6992
  141MOL0     H19432   0.367   8.778   2.960  1.6201  1.9098 -2.9776
  141MOL0     H19433   0.503   8.875   2.995 -3.6260  0.6136  0.3408
  141MOL0     H19434   0.556   8.701   3.186 -0.2861 -1.3947 -1.1630
  141MOL0     H19435   0.425   8.612   3.135 -0.9872 -0.6167  0.5300
  141MOL0     H19436   0.424   8.895   3.244 -1.2066  0.4721 -2.5019
  141MOL0     H19437   0.365   8.746   3.333 -0.5401  3.0026  1.7530
  141MOL0     H19438   0.652   8.201   2.790 -2.2386 -1.2972  1.0388
  141MOL0     H19439   0.754   7.976   2.842 -0.6141 -2.1118 -0.6503
  141MOL0     H19440   1.223   7.767   2.758  1.6204 -1.2269 -1.0411
  141MOL0     H19441   1.333   7.563   2.824 -0.4385 -0.2635  0.3999
  141MOL0     H19442   1.762   7.083   3.138 -0.3969  0.4701  2.0886
  141MOL0     H19443   1.854   7.193   3.323  0.7703  0.5448  0.3682
  141MOL0     H19444   2.352   7.579   3.399  1.6424  2.0650  1.8328
  141MOL0     H19445   2.397   7.743   3.570 -0.0675 -1.3506 -1.0977
  141MOL0     H19446   2.292   7.769   3.934 -2.9231  0.9580 -0.3491
  141MOL0     H19447   2.420   7.736   3.820  0.1019  0.4127 -2.0778
  141MOL0     H19448   2.440   7.981   3.764 -1.8592 -2.2656 -1.2994
  141MOL0     H19449   2.500   7.928   3.916  0.8041 -1.3853 -0.2096
  141MOL0     H19450   2.255   7.985   3.999  1.4361 -1.8778 -0.6299
  141MOL0     H19451   2.383   8.113   3.987  0.2059  0.3296  0.0048
  141MOL0     H19452   2.162   8.053   3.789 -1.0676 -0.8606  4.1176
  141MOL0     H19453   2.297   8.162   3.746  0.6468  0.2212  1.0141
  141MOL0     H19454   2.079   8.396   4.022  0.0120 -0.7119  1.2296
  141MOL0     H19455   2.039   7.669   3.763  0.9220  2.0330 -0.1831
  141MOL0     H19456   1.889   7.479   3.512 -0.9365 -1.8311  0.7447
  141MOL0     H19457   1.951   7.360   3.626 -5.8467 -0.7290 -0.0752
  141MOL0     H19458   1.891   7.503   3.687  3.2564 -0.0607  1.5053
  142MOL0     O19459   5.349   7.239   1.132  0.1357 -0.3481  0.2743
  142MOL0     C19460   5.244   7.300   1.154 -0.4897  0.5155  0.6648
  142MOL0     O19461   5.232   7.428   1.213 -0.1452  0.5287  0.7880
  142MOL0     C19462   5.350   7.489   1.236 -0.0051 -1.3818 -0.6202
  142MOL0     C19463   5.445   7.457   1.339 -0.3294  0.2641  0.0730
  142MOL0     C19464   5.556   7.537   1.361 -0.1988 -0.1275  0.7595
  142MOL0     C19465   5.580   7.649   1.275  1.0370 -0.0435  0.2265
  142MOL0     O19466   5.691   7.716   1.285  0.1878 -0.1033 -0.5261
  142MOL0     C19467   5.787   7.695   1.386 -0.8175 -0.2357  0.4667
  142MOL0     C19468   5.871   7.818   1.404 -0.6257 -0.2349  1.1956
  142MOL0     C19469   5.932   7.886   1.276  0.0620  1.2485  1.3354
  142MOL0     C19470   5.991   7.783   1.170  0.4898  0.4212 -0.7575
  142MOL0     C19471   6.092   7.847   1.077  0.1316  0.2940 -0.0868
  142MOL0     C19472   6.019   7.951   0.992 -1.1006 -0.6137 -0.5361
  142MOL0     C19473   6.098   8.016   0.874  0.0349  0.5474 -0.2761
  142MOL0     C19474   6.018   8.135   0.809 -0.6942  0.4126  0.4248
  142MOL0     N19475   6.042   8.136   0.661 -0.0346  0.5067 -0.8870
  142MOL0     C19476   6.027   8.029   0.572 -0.5494 -0.1953  0.1356
  142MOL0     C19477   6.092   8.077   0.465 -0.1850 -0.5804 -0.7701
  142MOL0     C19478   6.092   8.011   0.337 -0.3396 -0.3933  1.3424
  142MOL0     C19479   6.031   8.127   0.246 -0.3119 -0.7490 -0.1292
  142MOL0     C19480   6.034   8.079   0.101  0.0161 -0.3579  0.2073
  142MOL0     C19481   5.963   8.163  -0.005 -0.2843  0.5707  0.0625
  142MOL0     O19482   6.016   8.289  -0.008 -0.2401  0.4027  0.4943
  142MOL0     C19483   6.035   8.361  -0.123  0.3022 -0.0569  0.6650
  142MOL0     C19484   5.977   8.486  -0.138 -0.2496 -0.3953 -0.3456
  142MOL0     C19485   6.024   8.579  -0.238 -0.0379  0.9671  1.0801
  142MOL0     C19486   5.980   8.725  -0.220 -1.2121  0.4842  0.2937
  142MOL0     C19487   6.130   8.541  -0.322 -0.5828  0.1171 -0.5800
  142MOL0     C19488   6.171   8.623  -0.438 -0.5750 -0.4390  0.4288
  142MOL0     O19489   6.297   8.592  -0.493  0.3537  0.6141 -0.4070
  142MOL0     C19490   6.326   8.649  -0.618  1.5011 -0.1967  0.0439
  142MOL0     C19491   6.298   8.569  -0.738  0.8782  0.1870 -0.8767
  142MOL0     C19492   6.336   8.614  -0.863  0.6978  0.0336  0.1841
  142MOL0     C19493   6.397   8.739  -0.880  0.1011  0.1742 -0.1625
  142MOL0     O19494   6.428   8.774  -1.008 -0.5026  0.0254  1.2590
  142MOL0     C19495   6.333   8.884  -1.043 -0.1257 -1.0251 -0.2388
  142MOL0     C19496   6.360   8.939  -1.190 -0.0101 -0.0405 -0.6051
  142MOL0     C19497   6.511   8.960  -1.229  0.1542  0.0345  0.1797
  142MOL0     C19498   6.524   9.059  -1.353 -0.0854 -0.4409  0.2816
  142MOL0     C19499   6.663   9.119  -1.369 -0.1590 -0.6327  1.0407
  142MOL0     C19500   6.684   9.195  -1.493 -0.1370  0.6202 -0.4353
  142MOL0     C19501   6.828   9.244  -1.511 -0.3309 -0.1797 -0.9696
  142MOL0     C19502   6.844   9.329  -1.639 -0.5834  0.6011 -0.0949
  142MOL0    Cl19503   7.027   9.361  -1.643  0.2291 -0.0624 -0.6918
  142MOL0     C19504   6.424   8.817  -0.771  0.0640 -0.2500 -0.1367
  142MOL0     C19505   6.388   8.768  -0.638  0.3664 -0.7727  0.6536
  142MOL0     O19506   6.097   8.706  -0.488 -0.7601  0.0130  0.1150
  142MOL0     C19507   6.173   8.406  -0.311 -0.3306 -0.1527  0.3055
  142MOL0     C19508   6.134   8.319  -0.213 -0.6496  0.2105  0.0058
  142MOL0     N19509   6.147   8.201   0.495  0.5630  0.2383  0.5492
  142MOL0     N19510   6.118   8.230   0.608 -1.1947 -0.3184  0.6602
  142MOL0     C19511   5.489   7.683   1.175  0.1632 -0.4502  0.2260
  142MOL0     C19512   5.374   7.601   1.156  1.2195  0.7977  0.0164
  142MOL0     C19513   5.128   7.219   1.153 -0.7005 -0.0331 -0.1124
  142MOL0     C19514   5.078   7.185   1.281  0.0010 -0.0330  0.2742
  142MOL0     C19515   4.957   7.123   1.292 -0.2240 -0.0348 -0.0174
  142MOL0     C19516   4.882   7.088   1.176  0.0363 -0.0907  0.8805
  142MOL0     O19517   4.768   7.018   1.186  0.0578 -0.1916  0.6677
  142MOL0     C19518   4.683   7.020   1.303 -0.2484  0.0120 -0.2981
  142MOL0     C19519   4.575   6.915   1.294 -0.7309 -0.0214  0.0740
  142MOL0     C19520   4.534   6.877   1.437 -0.0465  0.3199  0.0345
  142MOL0     C19521   4.405   6.796   1.446 -0.1185  0.0096 -0.5118
  142MOL0     C19522   4.409   6.659   1.388  0.5451 -1.2018  0.8869
  142MOL0     C19523   4.430   6.554   1.320 -0.0698 -1.1313  0.3410
  142MOL0     C19524   4.930   7.119   1.052 -0.2405 -0.1355 -0.1998
  142MOL0     C19525   5.054   7.188   1.038  0.5912  0.5488 -0.2070
  142MOL0     C19526   5.100   7.225   0.900 -0.4093  1.1614  0.6146
  142MOL0     H19527   5.449   7.367   1.399  2.7798  0.2605  0.0046
  142MOL0     H19528   5.631   7.519   1.438  0.5818  4.3852  1.3324
  142MOL0     H19529   5.857   7.612   1.368 -2.1376 -1.5557  1.1462
  142MOL0     H19530   5.745   7.676   1.485 -0.5372 -0.7241  0.4963
  142MOL0     H19531   5.800   7.889   1.447 -0.1613  1.6063 -0.8542
  142MOL0     H19532   5.951   7.795   1.474  0.0095 -3.3452 -0.3635
  142MOL0     H19533   5.855   7.954   1.239  1.0569  1.0111 -1.4504
  142MOL0     H19534   6.022   7.942   1.306  0.3043  0.0556  2.9521
  142MOL0     H19535   6.038   7.696   1.215  0.3519  0.5196 -0.4186
  142MOL0     H19536   5.903   7.745   1.117  0.0396 -1.2483  1.0915
  142MOL0     H19537   6.136   7.770   1.012  0.0961 -0.7677  1.0962
  142MOL0     H19538   6.175   7.878   1.141  1.6231 -2.8276 -0.3098
  142MOL0     H19539   5.929   7.898   0.963 -1.2044 -2.4878  2.6888
  142MOL0     H19540   5.990   8.033   1.059  1.4014 -0.6168  0.6940
  142MOL0     H19541   6.130   7.942   0.800  1.9513 -2.7781  3.4420
  142MOL0     H19542   6.193   8.057   0.910 -1.2313  1.7424  1.9615
  142MOL0     H19543   5.911   8.118   0.819 -0.8870 -0.0054 -1.8221
  142MOL0     H19544   6.044   8.229   0.860  1.6842  0.2194 -0.3039
  142MOL0     H19545   5.984   7.930   0.585 -1.1691 -0.1209 -1.2228
  142MOL0     H19546   6.031   7.920   0.335  1.1204 -1.5193  3.5413
  142MOL0     H19547   6.188   7.974   0.300  1.0190  1.0891  3.1896
  142MOL0     H19548   5.928   8.142   0.282 -0.6966 -2.7248 -0.3197
  142MOL0     H19549   6.083   8.222   0.258 -4.3760  1.4560  2.5174
  142MOL0     H19550   6.139   8.064   0.072 -0.1688 -4.4375  0.9790
  142MOL0     H19551   5.990   7.979   0.106 -0.3526 -0.1453  2.2459
  142MOL0     H19552   5.977   8.106  -0.097 -1.7182  0.4341 -0.0866
  142MOL0     H19553   5.855   8.165   0.011 -0.8035 -2.7955 -2.1480
  142MOL0     H19554   5.913   8.508  -0.052 -0.7604  3.3263 -1.4663
  142MOL0     H19555   6.061   8.796  -0.240  0.3997 -1.1044  0.9296
  142MOL0     H19556   5.942   8.733  -0.117 -1.2237 -2.2729  0.5765
  142MOL0     H19557   5.905   8.742  -0.298 -3.0479  0.7374  2.0099
  142MOL0     H19558   6.236   8.480  -0.742  0.8002  0.2018 -0.0899
  142MOL0     H19559   6.320   8.560  -0.956  2.2537 -0.2291  0.0488
  142MOL0     H19560   6.227   8.857  -1.040 -0.8463  1.3579  4.4388
  142MOL0     H19561   6.342   8.968  -0.974  2.2050 -0.9067 -0.6207
  142MOL0     H19562   6.326   8.860  -1.258  1.0338 -0.2422 -0.9042
  142MOL0     H19563   6.295   9.025  -1.208 -2.3108 -1.7883 -1.2498
  142MOL0     H19564   6.561   8.868  -1.260  1.0682  0.1069  1.3349
  142MOL0     H19565   6.567   9.006  -1.146  1.9969  0.7289 -1.3554
  142MOL0     H19566   6.451   9.140  -1.358  0.7670  0.3341  0.2558
  142MOL0     H19567   6.507   8.990  -1.437 -0.2189 -0.6116  0.4485
  142MOL0     H19568   6.685   9.190  -1.288  1.7600 -0.8063  0.7235
  142MOL0     H19569   6.734   9.036  -1.368 -1.5288 -1.8435  1.7874
  142MOL0     H19570   6.622   9.285  -1.488 -2.0192 -0.4910 -2.1321
  142MOL0     H19571   6.668   9.133  -1.581 -1.0090  1.8075 -1.1493
  142MOL0     H19572   6.908   9.169  -1.506  2.1859  2.2933 -1.2147
  142MOL0     H19573   6.859   9.304  -1.425 -0.2448 -0.6158 -0.6942
  142MOL0     H19574   6.783   9.420  -1.641 -2.3972 -0.5122  1.3552
  142MOL0     H19575   6.821   9.265  -1.725 -2.2963  0.0464  0.7333
  142MOL0     H19576   6.476   8.910  -0.790 -0.6301  0.0028 -0.8838
  142MOL0     H19577   6.429   8.825  -0.555  1.5278 -2.0633  1.0142
  142MOL0     H19578   6.245   8.363  -0.380 -1.1099 -1.6195  0.3721
  142MOL0     H19579   6.198   8.233  -0.195  1.1206  1.4523 -0.0589
  142MOL0     H19580   5.494   7.767   1.107 -1.7275  0.3872  1.0591
  142MOL0     H19581   5.300   7.629   1.081  0.1195  0.5729  0.9764
  142MOL0     H19582   5.133   7.213   1.370 -0.2543 -1.7456  0.9860
  142MOL0     H19583   4.912   7.108   1.390  0.4330 -1.7958  0.0464
  142MOL0     H19584   4.734   7.014   1.399  2.0103  0.5652 -1.3846
  142MOL0     H19585   4.639   7.119   1.320 -1.2394 -0.7820  2.0816
  142MOL0     H19586   4.610   6.821   1.249  1.1418  0.3406  0.6905
  142MOL0     H19587   4.491   6.942   1.229  0.4667  1.5679 -0.8570
  142MOL0     H19588   4.620   6.828   1.483  1.0742  2.1267 -0.0445
  142MOL0     H19589   4.526   6.971   1.493 -0.6053  0.6668 -0.6168
  142MOL0     H19590   4.320   6.848   1.402 -1.5032 -1.1759  0.6783
  142MOL0     H19591   4.384   6.780   1.552  0.3722  1.4813 -0.1633
  142MOL0     H19592   4.466   6.472   1.261  3.2474 -1.0771  2.0558
  142MOL0     H19593   4.869   7.093   0.966  0.6341 -3.8591  0.1440
  142MOL0     H19594   5.193   7.180   0.866 -1.6067 -2.1226  1.3839
  142MOL0     H19595   5.019   7.209   0.828 -1.6350  1.1657  1.9433
  142MOL0     H19596   5.123   7.332   0.891  2.5509  0.6759  1.4614
  143MOL0     O19597   3.668   1.413  10.505  0.2271 -0.0826 -0.2615
  143MOL0     C19598   3.631   1.329  10.579 -0.2122 -0.6021 -0.3983
  143MOL0     O19599   3.704   1.226  10.618  0.0023  0.0536 -0.0121
  143MOL0     C19600   3.800   1.183  10.525 -0.5971  0.6604  0.1224
  143MOL0     C19601   3.784   1.178  10.384  0.6527 -0.9920 -0.4285
  143MOL0     C19602   3.889   1.134  10.301  1.2538  0.5405 -0.1429
  143MOL0     C19603   4.005   1.088  10.354  0.1326 -0.6191 -0.7485
  143MOL0     O19604   4.099   1.028  10.280  0.2531 -0.1464 -0.0469
  143MOL0     C19605   4.140   1.093  10.154  0.2981  0.4353  0.1769
  143MOL0     C19606   4.269   1.166  10.187  0.0352 -0.0141 -0.1322
  143MOL0     C19607   4.395   1.087  10.173 -1.3179  0.0955  0.3083
  143MOL0     C19608   4.511   1.165  10.239 -0.6353  0.2178 -0.1148
  143MOL0     C19609   4.649   1.102  10.190 -0.5703 -0.1362 -0.1910
  143MOL0     C19610   4.667   1.090  10.031  0.9072  0.3817 -0.5229
  143MOL0     C19611   4.818   1.056  10.010  0.5368 -0.2107 -0.5862
  143MOL0     C19612   4.842   1.049   9.862 -0.7312 -0.6953  0.2149
  143MOL0     N19613   4.990   1.018   9.827  1.1064  0.4725  0.2891
  143MOL0     C19614   5.047   0.903   9.867 -0.2597  0.1048 -0.1679
  143MOL0     C19615   5.164   0.888   9.791  0.0389 -0.2921 -0.0605
  143MOL0     C19616   5.267   0.776   9.832 -0.0071  0.1036  1.5689
  143MOL0     C19617   5.269   0.652   9.740  1.3984  0.5420 -0.1002
  143MOL0     C19618   5.303   0.682   9.593 -0.3148 -0.2189 -0.6321
  143MOL0     C19619   5.435   0.773   9.574  0.6113 -0.3460 -0.2643
  143MOL0     O19620   5.548   0.716   9.633 -0.3532  0.0368 -0.5461
  143MOL0     C19621   5.582   0.581   9.620  0.5187  0.0152  0.6649
  143MOL0     C19622   5.552   0.503   9.506  0.4547  0.0454  0.3222
  143MOL0     C19623   5.570   0.360   9.496 -0.6222  0.1735  0.4613
  143MOL0     C19624   5.496   0.293   9.384  0.1442 -0.1920 -0.6144
  143MOL0     C19625   5.644   0.301   9.607 -0.2915  0.2806  0.6748
  143MOL0     C19626   5.687   0.151   9.617  0.6272  0.2636 -0.9954
  143MOL0     O19627   5.727   0.099   9.741 -1.3311  0.4655  0.1373
  143MOL0     C19628   5.752  -0.034   9.762  0.5809  0.0283 -0.4861
  143MOL0     C19629   5.685  -0.140   9.701  0.0727 -0.9049 -0.1557
  143MOL0     C19630   5.702  -0.267   9.744  0.1959  0.8025 -0.4220
  143MOL0     C19631   5.776  -0.304   9.860 -0.8033  0.1045  0.4721
  143MOL0     O19632   5.773  -0.435   9.898 -0.1523 -0.0246  0.2396
  143MOL0     C19633   5.902  -0.508   9.931  0.6353  0.3205 -0.1670
  143MOL0     C19634   5.880  -0.658   9.937 -0.6609 -0.6006 -0.0564
  143MOL0     C19635   5.838  -0.701  10.080 -0.0218  0.6834  0.0660
  143MOL0     C19636   5.797  -0.849  10.084 -1.0726 -0.8745 -0.1679
  143MOL0     C19637   5.657  -0.860  10.134 -1.0254 -0.7906 -0.9806
  143MOL0     C19638   5.629  -0.813  10.278 -0.0343  0.1614  0.0533
  143MOL0     C19639   5.515  -0.888  10.351  0.4457  0.1533 -0.4468
  143MOL0     C19640   5.496  -0.826  10.489 -0.0875 -0.0523  1.1959
  143MOL0    Cl19641   5.336  -0.846  10.557  0.2444  0.5110 -0.2020
  143MOL0     C19642   5.849  -0.203   9.911 -0.0676 -1.1743  0.9326
  143MOL0     C19643   5.825  -0.066   9.864  0.7370  0.7167  0.5153
  143MOL0     O19644   5.705   0.095   9.510 -0.1470  0.2495 -0.2768
  143MOL0     C19645   5.678   0.383   9.715 -1.2227  0.3963  0.8566
  143MOL0     C19646   5.649   0.520   9.727 -1.1647  0.0401  0.4967
  143MOL0     N19647   5.161   0.990   9.705  0.4345  0.4329 -0.1652
  143MOL0     N19648   5.056   1.065   9.726  0.6558  1.3186 -0.5795
  143MOL0     C19649   4.021   1.077  10.493  0.7820  0.0577  0.7070
  143MOL0     C19650   3.916   1.121  10.578  0.0438  0.6533 -0.2137
  143MOL0     C19651   3.502   1.352  10.653 -0.3826  1.2320 -0.4346
  143MOL0     C19652   3.474   1.275  10.769  0.1295  0.6029  0.4349
  143MOL0     C19653   3.355   1.289  10.853 -0.1271 -0.0203  0.2054
  143MOL0     C19654   3.255   1.377  10.812  0.1291  0.8036  0.3668
  143MOL0     O19655   3.137   1.385  10.873  0.4906 -0.1848  0.3032
  143MOL0     C19656   3.117   1.368  11.010  0.2624  0.3407  0.1088
  143MOL0     C19657   3.178   1.497  11.085 -0.3210 -0.0542  0.3128
  143MOL0     C19658   3.091   1.620  11.054 -0.0306 -0.0569 -0.9925
  143MOL0     C19659   3.128   1.740  11.142  0.9231  0.1486 -0.0365
  143MOL0     C19660   3.255   1.785  11.095 -0.3576  0.5282  0.1780
  143MOL0     C19661   3.362   1.817  11.050  0.9381  1.0696 -0.5476
  143MOL0     C19662   3.279   1.437  10.687 -0.1416  0.6281  0.2668
  143MOL0     C19663   3.396   1.424  10.609  0.0557  0.9149 -0.0461
  143MOL0     C19664   3.395   1.498  10.478 -0.5022 -0.0511  0.1691
  143MOL0     H19665   3.694   1.210  10.333 -0.5180  0.0795  2.1456
  143MOL0     H19666   3.866   1.135  10.195 -0.1739  0.8574  0.1495
  143MOL0     H19667   4.064   1.164  10.120 -0.2426 -0.4821 -0.5896
  143MOL0     H19668   4.154   1.026  10.069  0.2521 -1.2043  1.4258
  143MOL0     H19669   4.278   1.240  10.106 -3.3909 -0.1485 -0.7620
  143MOL0     H19670   4.253   1.218  10.282  1.0874 -0.8293  0.5145
  143MOL0     H19671   4.389   0.990  10.223 -0.4874  0.9156  2.1099
  143MOL0     H19672   4.411   1.064  10.068 -0.2961  1.0423  0.2414
  143MOL0     H19673   4.499   1.272  10.223 -2.0767  0.3018  1.3141
  143MOL0     H19674   4.504   1.170  10.348  0.3997  1.8576 -0.0890
  143MOL0     H19675   4.649   0.998  10.225  1.5741 -0.2206 -0.2808
  143MOL0     H19676   4.738   1.155  10.227 -0.5576  0.2974 -0.8217
  143MOL0     H19677   4.588   1.026   9.992 -1.3023  1.1344  2.3717
  143MOL0     H19678   4.661   1.190   9.986  0.3115  1.2322  1.3380
  143MOL0     H19679   4.833   0.959  10.058  4.6166  0.5591  0.0259
  143MOL0     H19680   4.883   1.131  10.055  0.0270  0.7660 -1.4301
  143MOL0     H19681   4.780   0.970   9.817  0.3224 -0.9658 -0.8178
  143MOL0     H19682   4.812   1.147   9.826  2.1808  0.4739  0.7009
  143MOL0     H19683   5.001   0.843   9.945 -0.9695 -1.2912 -1.6140
  143MOL0     H19684   5.243   0.745   9.934 -1.0541 -3.0699  0.4892
  143MOL0     H19685   5.357   0.838   9.827 -0.3338  0.5003  0.0379
  143MOL0     H19686   5.347   0.586   9.779  0.3567 -0.9742 -0.5105
  143MOL0     H19687   5.177   0.595   9.728  1.8170  0.3690 -3.4019
  143MOL0     H19688   5.311   0.586   9.541 -1.4165 -1.4898  1.4346
  143MOL0     H19689   5.220   0.740   9.552  1.2935  0.8831 -2.5259
  143MOL0     H19690   5.448   0.781   9.466 -0.6990 -1.1086 -0.5071
  143MOL0     H19691   5.408   0.870   9.616 -0.0870 -0.4364 -0.4934
  143MOL0     H19692   5.496   0.559   9.432  0.3966  0.8244  0.9394
  143MOL0     H19693   5.530   0.325   9.285  3.3436  0.6834  0.6578
  143MOL0     H19694   5.391   0.314   9.406  1.1516  2.4756  2.5570
  143MOL0     H19695   5.496   0.184   9.386 -0.2769 -0.2082  1.6489
  143MOL0     H19696   5.631  -0.129   9.607 -0.1327  0.0123  0.0595
  143MOL0     H19697   5.656  -0.339   9.677 -0.5290  0.0667  0.8225
  143MOL0     H19698   5.978  -0.473   9.860  0.9277 -0.1926 -0.1120
  143MOL0     H19699   5.951  -0.474  10.023 -0.3071 -0.4434  0.6420
  143MOL0     H19700   5.802  -0.688   9.866 -1.5014  0.6926  0.2949
  143MOL0     H19701   5.973  -0.713   9.915 -1.4115 -0.9682 -2.7088
  143MOL0     H19702   5.758  -0.629  10.099  1.4502  2.6023 -0.6067
  143MOL0     H19703   5.915  -0.680  10.155  0.7781  1.4331 -0.9268
  143MOL0     H19704   5.866  -0.915  10.138 -1.5771  0.7100  2.5850
  143MOL0     H19705   5.804  -0.886   9.981 -2.3829 -0.5993 -0.3729
  143MOL0     H19706   5.590  -0.814  10.061 -1.0366 -1.5179 -1.4309
  143MOL0     H19707   5.644  -0.968  10.130 -0.3813 -0.9114 -0.1112
  143MOL0     H19708   5.616  -0.704  10.278  1.0279  0.3549  2.7777
  143MOL0     H19709   5.719  -0.838  10.335  2.6004  3.8462 -2.0489
  143MOL0     H19710   5.542  -0.993  10.354  0.9273  0.2885  0.2200
  143MOL0     H19711   5.415  -0.873  10.308 -1.5715 -0.0866  3.6494
  143MOL0     H19712   5.505  -0.719  10.467 -2.5246 -0.6848 -4.7049
  143MOL0     H19713   5.574  -0.866  10.554 -1.5150  1.7111  4.2083
  143MOL0     H19714   5.924  -0.227   9.986 -0.6054 -3.2452  0.8733
  143MOL0     H19715   5.873   0.012   9.922 -0.4767  1.5780  0.4173
  143MOL0     H19716   5.746   0.354   9.794  0.5088  2.0127  0.0597
  143MOL0     H19717   5.672   0.576   9.817 -1.2334  1.8320 -0.5528
  143MOL0     H19718   4.109   1.031  10.535  0.3976 -0.9686  0.4113
  143MOL0     H19719   3.921   1.125  10.686  2.6774  0.0396 -0.2313
  143MOL0     H19720   3.552   1.210  10.808  0.0303  0.0661 -0.2393
  143MOL0     H19721   3.342   1.230  10.943 -3.4328 -1.5589 -1.1058
  143MOL0     H19722   3.010   1.367  11.033  0.2689 -0.0830  0.1336
  143MOL0     H19723   3.160   1.277  11.052 -0.0012  0.9525  1.7736
  143MOL0     H19724   3.281   1.511  11.051 -0.5860 -3.6032 -2.4538
  143MOL0     H19725   3.185   1.474  11.192  1.6303 -0.9277  0.0477
  143MOL0     H19726   3.088   1.648  10.948  0.6558  3.1412 -0.2923
  143MOL0     H19727   2.990   1.589  11.080 -0.0484  1.9821  1.9104
  143MOL0     H19728   3.125   1.716  11.249 -1.8726 -0.4377 -0.1698
  143MOL0     H19729   3.052   1.818  11.126  0.4418 -0.4602 -0.7826
  143MOL0     H19730   3.458   1.844  11.009  1.0808  1.5934  0.1193
  143MOL0     H19731   3.197   1.504  10.665 -2.2578 -1.1685  2.1912
  143MOL0     H19732   3.480   1.567  10.480 -1.0251  0.6261  2.7732
  143MOL0     H19733   3.412   1.429  10.394  0.8104  2.2060 -1.5373
  143MOL0     H19734   3.304   1.556  10.461 -1.3795 -1.6094 -0.7818
  144MOL0     O19735  11.358   3.317   2.391 -0.3665 -0.1437 -0.3548
  144MOL0     C19736  11.428   3.414   2.422  0.1157  1.8492 -0.0378
  144MOL0     O19737  11.425   3.542   2.383  0.7395  0.8578  0.6372
  144MOL0     C19738  11.331   3.583   2.285 -0.5647  0.2243  0.3517
  144MOL0     C19739  11.376   3.694   2.207  0.0289  0.7875  0.1344
  144MOL0     C19740  11.308   3.746   2.096  0.3213 -0.2537  0.1090
  144MOL0     C19741  11.187   3.683   2.063 -0.5529  0.3550  0.0755
  144MOL0     O19742  11.123   3.748   1.952 -1.1511  0.2915 -0.2448
  144MOL0     C19743  11.003   3.695   1.893 -0.2352  0.3974  0.1124
  144MOL0     C19744  11.026   3.570   1.811 -1.3115 -0.0627 -0.4294
  144MOL0     C19745  11.101   3.595   1.673  0.0251 -1.0290 -0.0075
  144MOL0     C19746  11.233   3.669   1.691  0.0505  0.5440 -0.7123
  144MOL0     C19747  11.231   3.813   1.673 -0.0488  0.2872 -0.4678
  144MOL0     C19748  11.369   3.873   1.714  0.0310 -0.3037 -0.5833
  144MOL0     C19749  11.376   4.020   1.707 -0.2002  0.2588 -0.8834
  144MOL0     C19750  11.290   4.093   1.820 -0.2020 -0.0199 -0.1062
  144MOL0     N19751  11.289   4.244   1.795  0.0757 -1.1400  0.4705
  144MOL0     C19752  11.264   4.309   1.675 -0.0113 -0.6872  0.5678
  144MOL0     C19753  11.286   4.442   1.701  0.2294 -0.4707  0.8743
  144MOL0     C19754  11.253   4.567   1.613  0.2185  0.5758  0.4772
  144MOL0     C19755  11.324   4.700   1.634  0.3081  0.0461 -0.3100
  144MOL0     C19756  11.306   4.803   1.520  0.3794  0.3961  0.9939
  144MOL0     C19757  11.165   4.858   1.522 -0.9869  0.3099 -0.0667
  144MOL0     O19758  11.142   4.965   1.430 -0.0167  0.2071  1.1712
  144MOL0     C19759  11.081   4.936   1.304  0.8976 -1.2011  0.1153
  144MOL0     C19760  10.942   4.935   1.291  0.5480 -0.5830 -0.3044
  144MOL0     C19761  10.883   4.933   1.158 -0.2472  0.5811  0.1200
  144MOL0     C19762  10.733   4.928   1.155 -0.4732 -0.2598 -0.4580
  144MOL0     C19763  10.963   4.903   1.044  0.6068 -0.6029  0.2606
  144MOL0     C19764  10.908   4.891   0.904 -0.9766  0.0630 -0.1944
  144MOL0     O19765  10.994   4.819   0.825  0.8374  0.5862 -0.8733
  144MOL0     C19766  10.954   4.795   0.696 -0.7240 -0.2046  0.0934
  144MOL0     C19767  11.036   4.854   0.599 -0.0285 -0.5491  1.0287
  144MOL0     C19768  11.011   4.848   0.464  0.5220  0.3223 -0.2748
  144MOL0     C19769  10.914   4.765   0.420 -0.5754 -0.1045 -1.3973
  144MOL0     O19770  10.884   4.757   0.285 -0.5990 -0.1431  0.1198
  144MOL0     C19771  10.839   4.878   0.220  0.9456  0.4062 -0.5689
  144MOL0     C19772  10.697   4.906   0.243  0.6976 -1.3305 -0.7938
  144MOL0     C19773  10.640   5.018   0.152  0.5330 -0.5639 -0.4913
  144MOL0     C19774  10.617   4.973   0.001 -0.5164 -1.0096 -0.2605
  144MOL0     C19775  10.509   4.861  -0.006  0.3496  1.3072 -0.0614
  144MOL0     C19776  10.423   4.891  -0.133  0.3245 -1.0059  0.4572
  144MOL0     C19777  10.335   4.779  -0.178  0.3305  0.0108 -0.3606
  144MOL0     C19778  10.235   4.822  -0.292  0.0048 -0.1727  0.3316
  144MOL0    Cl19779  10.098   4.937  -0.253  0.4663 -0.0196 -0.0660
  144MOL0     C19780  10.838   4.697   0.510  0.1767 -0.6589  1.0978
  144MOL0     C19781  10.851   4.713   0.651  0.6165 -0.6704  0.3388
  144MOL0     O19782  10.797   4.946   0.865 -0.3850 -0.3716  0.1308
  144MOL0     C19783  11.096   4.892   1.067 -0.2730  0.2661  0.8295
  144MOL0     C19784  11.160   4.923   1.189 -0.2880  0.3410  0.3847
  144MOL0     N19785  11.332   4.452   1.833  0.5796 -0.9264  0.3229
  144MOL0     N19786  11.331   4.332   1.882 -1.0374 -0.5392 -0.3996
  144MOL0     C19787  11.137   3.576   2.141  0.7835  0.0592  0.6490
  144MOL0     C19788  11.208   3.530   2.256 -0.1771  0.6185  0.7602
  144MOL0     C19789  11.539   3.389   2.519  0.5100  0.2968 -0.6757
  144MOL0     C19790  11.582   3.503   2.597  0.7068 -0.4506 -0.4674
  144MOL0     C19791  11.680   3.479   2.687 -0.5429 -0.3040  0.0337
  144MOL0     C19792  11.743   3.353   2.717  0.7145  0.1425 -0.1097
  144MOL0     O19793  11.834   3.336   2.812  0.2682  0.0935  0.3798
  144MOL0     C19794  11.901   3.444   2.884 -0.1521  0.0892  0.2487
  144MOL0     C19795  12.019   3.500   2.795  0.5149  0.1151 -0.7322
  144MOL0     C19796  12.142   3.407   2.775 -0.1817  0.2184  0.3009
  144MOL0     C19797  12.231   3.463   2.668 -0.3861 -0.2365 -0.9580
  144MOL0     C19798  12.331   3.381   2.613  0.0141 -0.0306 -1.3964
  144MOL0     C19799  12.407   3.306   2.557 -0.7141 -0.2501 -0.2659
  144MOL0     C19800  11.703   3.236   2.648 -0.5144 -0.9232 -0.3987
  144MOL0     C19801  11.594   3.254   2.551 -0.6306 -0.0426 -0.5934
  144MOL0     C19802  11.544   3.127   2.497  0.0855  0.9231  0.2275
  144MOL0     H19803  11.479   3.723   2.224  0.6008  0.9216 -2.9333
  144MOL0     H19804  11.353   3.823   2.035  1.5903 -1.4295 -0.5056
  144MOL0     H19805  10.956   3.767   1.826  0.6786  1.5811  0.6886
  144MOL0     H19806  10.932   3.675   1.974 -1.1936 -1.1357 -1.0605
  144MOL0     H19807  11.085   3.501   1.872 -1.3155  0.0908 -0.2512
  144MOL0     H19808  10.925   3.532   1.790 -0.3582 -4.0868  1.2097
  144MOL0     H19809  11.103   3.498   1.622 -2.1375 -1.6021  0.9292
  144MOL0     H19810  11.031   3.657   1.618 -1.6477 -3.4756 -0.8022
  144MOL0     H19811  11.261   3.643   1.793  1.4489 -2.5135 -1.7699
  144MOL0     H19812  11.316   3.628   1.632 -0.4508  1.0776 -1.8247
  144MOL0     H19813  11.151   3.860   1.730 -0.2547 -1.6497  0.9459
  144MOL0     H19814  11.218   3.830   1.566  1.7523  2.7014 -0.3917
  144MOL0     H19815  11.401   3.842   1.813  3.8363  3.0007 -0.5256
  144MOL0     H19816  11.444   3.835   1.644 -1.3216 -2.1086 -1.1324
  144MOL0     H19817  11.354   4.047   1.603  0.9707 -2.3031 -1.8803
  144MOL0     H19818  11.484   4.035   1.715 -0.3976  0.9312  1.0639
  144MOL0     H19819  11.188   4.055   1.814  0.9834 -4.6246  3.3862
  144MOL0     H19820  11.311   4.053   1.919 -5.2766 -0.9282  0.8757
  144MOL0     H19821  11.231   4.262   1.582  4.6333 -4.2319  0.3363
  144MOL0     H19822  11.146   4.579   1.629  0.6306 -0.1040  5.0616
  144MOL0     H19823  11.281   4.532   1.513 -2.7545  1.6379 -0.8382
  144MOL0     H19824  11.284   4.738   1.728  1.7586 -0.1875  0.4306
  144MOL0     H19825  11.427   4.684   1.665 -0.2340  1.2975  2.4121
  144MOL0     H19826  11.383   4.880   1.526  2.1456 -1.0577 -1.3334
  144MOL0     H19827  11.325   4.750   1.426  0.3378 -2.7360  2.5966
  144MOL0     H19828  11.104   4.772   1.495  3.3517 -1.9494 -4.0015
  144MOL0     H19829  11.135   4.898   1.620 -2.3913 -0.1975 -0.2692
  144MOL0     H19830  10.879   4.952   1.378  0.3313  3.9615 -1.1339
  144MOL0     H19831  10.685   4.852   1.093 -0.7085 -3.4990  3.3242
  144MOL0     H19832  10.704   5.032   1.135  1.2397 -0.2622 -3.5915
  144MOL0     H19833  10.687   4.903   1.251  4.3494 -1.8400  1.7570
  144MOL0     H19834  11.119   4.909   0.642  0.9309 -1.3302  0.2314
  144MOL0     H19835  11.076   4.908   0.401 -0.9991  0.1186 -2.1176
  144MOL0     H19836  10.895   4.966   0.252 -0.4786  0.8712  0.7595
  144MOL0     H19837  10.850   4.872   0.111  0.0968  1.9605 -0.7723
  144MOL0     H19838  10.642   4.814   0.222  1.4899 -1.8203 -0.7529
  144MOL0     H19839  10.685   4.921   0.350 -0.2606  0.4861 -1.1119
  144MOL0     H19840  10.696   5.112   0.155  0.5184 -0.4486 -2.4303
  144MOL0     H19841  10.536   5.026   0.185 -1.5988 -1.0868 -5.9776
  144MOL0     H19842  10.715   4.942  -0.038  2.2727  3.0276  2.7584
  144MOL0     H19843  10.579   5.063  -0.048 -1.7022 -2.0707 -1.3759
  144MOL0     H19844  10.547   4.759  -0.009 -0.1145  1.1629 -2.2217
  144MOL0     H19845  10.442   4.881   0.078  0.5058 -1.0692  0.6870
  144MOL0     H19846  10.492   4.920  -0.213 -0.0603  0.6959  0.7067
  144MOL0     H19847  10.353   4.974  -0.121 -1.2325 -1.8618 -2.1499
  144MOL0     H19848  10.276   4.747  -0.091  1.9581  1.7514  1.4754
  144MOL0     H19849  10.405   4.695  -0.182  1.2080  0.1672  4.8836
  144MOL0     H19850  10.189   4.728  -0.324  0.0181  0.0364 -0.3109
  144MOL0     H19851  10.284   4.872  -0.376  0.4620  0.0963  0.7524
  144MOL0     H19852  10.763   4.624   0.481 -0.4119 -0.9136  3.0773
  144MOL0     H19853  10.796   4.652   0.722  0.0760 -0.6070 -0.0190
  144MOL0     H19854  11.164   4.870   0.986  1.2438  0.0967  2.1068
  144MOL0     H19855  11.268   4.922   1.181 -0.4521 -0.8786 -3.8695
  144MOL0     H19856  11.044   3.530   2.110  1.2517 -0.4632 -0.0242
  144MOL0     H19857  11.163   3.454   2.319 -3.3311  2.2629  0.6964
  144MOL0     H19858  11.540   3.602   2.582 -1.6338 -1.7957 -4.0217
  144MOL0     H19859  11.710   3.571   2.735 -0.5314 -0.8823  1.1620
  144MOL0     H19860  11.831   3.527   2.899 -0.3089  0.4788 -2.1623
  144MOL0     H19861  11.947   3.426   2.981  0.4877  2.4839  0.4474
  144MOL0     H19862  12.050   3.599   2.829  0.1474 -0.9692  3.1625
  144MOL0     H19863  11.970   3.512   2.697  0.2393 -1.5032 -0.8195
  144MOL0     H19864  12.199   3.398   2.868  2.8821  2.1326 -1.2505
  144MOL0     H19865  12.116   3.307   2.739 -0.9307  0.8029 -0.8113
  144MOL0     H19866  12.283   3.550   2.710  1.4567 -0.8943 -1.7640
  144MOL0     H19867  12.168   3.499   2.586 -0.7041  0.6161 -0.3520
  144MOL0     H19868  12.468   3.225   2.522  0.9480  1.0417 -0.5064
  144MOL0     H19869  11.739   3.136   2.671 -1.7570 -1.2461  0.2151
  144MOL0     H19870  11.607   3.039   2.511 -0.4912  0.1660 -1.5655
  144MOL0     H19871  11.451   3.100   2.548  0.9548 -0.1228  1.3162
  144MOL0     H19872  11.519   3.129   2.390 -2.6196 -2.4796  0.6132
  145MOL0     O19873   2.432   8.956   8.086  0.0442 -0.0379 -0.9575
  145MOL0     C19874   2.499   8.852   8.083 -0.5454 -0.4440 -0.1607
  145MOL0     O19875   2.622   8.838   8.143 -0.1581 -0.7007 -0.2684
  145MOL0     C19876   2.686   8.945   8.198  0.4956 -0.0171  0.2595
  145MOL0     C19877   2.643   9.013   8.314 -0.9348  1.1548  0.2059
  145MOL0     C19878   2.720   9.115   8.364 -0.3017  0.5217  0.8167
  145MOL0     C19879   2.841   9.143   8.314 -0.6346  0.7298  0.5330
  145MOL0     O19880   2.901   9.245   8.384  0.0478 -0.0137 -0.4885
  145MOL0     C19881   3.043   9.246   8.392  0.4841 -0.2290 -0.5524
  145MOL0     C19882   3.083   9.321   8.516 -0.7007 -0.3052 -0.5021
  145MOL0     C19883   3.122   9.236   8.639 -0.2536  0.0630 -0.1252
  145MOL0     C19884   3.134   9.326   8.773  0.9842  0.3765  0.1500
  145MOL0     C19885   3.223   9.265   8.871 -0.0385  0.5307  0.7012
  145MOL0     C19886   3.270   9.374   8.977  0.1218  1.4950  0.0553
  145MOL0     C19887   3.366   9.301   9.065 -0.9306  0.4612 -0.1256
  145MOL0     C19888   3.438   9.407   9.152  0.5005  0.3050 -0.7954
  145MOL0     N19889   3.510   9.337   9.256 -0.2505  0.1326  0.2273
  145MOL0     C19890   3.472   9.335   9.389 -0.5523 -0.2022 -0.2234
  145MOL0     C19891   3.581   9.276   9.453  0.2213  0.8144  0.5194
  145MOL0     C19892   3.589   9.236   9.598  0.2213  0.3032 -0.4673
  145MOL0     C19893   3.497   9.112   9.622  0.0303 -0.4301  0.6768
  145MOL0     C19894   3.546   8.985   9.534  1.3370 -1.0632 -0.1693
  145MOL0     C19895   3.452   8.872   9.564  0.8348  0.3828  0.1666
  145MOL0     O19896   3.490   8.751   9.495 -0.2315 -0.3484  0.0341
  145MOL0     C19897   3.486   8.752   9.355  0.2134 -0.2728 -0.8251
  145MOL0     C19898   3.427   8.843   9.273  0.8770 -0.7487 -0.6125
  145MOL0     C19899   3.420   8.832   9.135  0.7597  0.4402  0.7028
  145MOL0     C19900   3.368   8.941   9.047  0.2609  0.1249 -0.1248
  145MOL0     C19901   3.490   8.719   9.084 -0.6315 -0.3427  0.3761
  145MOL0     C19902   3.503   8.687   8.933  0.3316 -0.5361 -0.2727
  145MOL0     O19903   3.570   8.576   8.901 -0.2831 -0.4454  0.0416
  145MOL0     C19904   3.595   8.551   8.766 -0.6262 -0.4195 -0.8999
  145MOL0     C19905   3.703   8.599   8.689 -0.0364  0.2955 -0.9726
  145MOL0     C19906   3.696   8.579   8.552  0.4787 -0.8098  0.8024
  145MOL0     C19907   3.610   8.480   8.489 -0.0939 -0.6737  0.5167
  145MOL0     O19908   3.624   8.453   8.359  0.0860  0.2633  0.2192
  145MOL0     C19909   3.521   8.381   8.285  0.2939  0.7266  0.3251
  145MOL0     C19910   3.541   8.224   8.281 -0.2855  0.2591  1.0991
  145MOL0     C19911   3.650   8.184   8.190  0.0170 -0.8242  0.6240
  145MOL0     C19912   3.679   8.036   8.204 -0.0634  0.7438  0.1184
  145MOL0     C19913   3.714   7.970   8.329  0.8363  0.6492 -0.5650
  145MOL0     C19914   3.744   7.816   8.317  0.0956 -1.0259 -0.5479
  145MOL0     C19915   3.883   7.777   8.263 -0.5164  0.3567  0.6313
  145MOL0     C19916   3.974   7.733   8.376  0.7432 -0.4370 -0.6765
  145MOL0    Cl19917   4.103   7.646   8.303  0.2778 -0.1982  0.0307
  145MOL0     C19918   3.513   8.424   8.571 -0.2217  0.0838  0.3282
  145MOL0     C19919   3.506   8.466   8.708 -1.3967  0.0445  0.3764
  145MOL0     O19920   3.453   8.763   8.850 -0.2426 -0.1261 -0.1565
  145MOL0     C19921   3.554   8.626   9.167  0.0834  1.0770  0.2626
  145MOL0     C19922   3.546   8.642   9.300 -0.5234  0.1295 -0.0326
  145MOL0     N19923   3.674   9.239   9.354 -0.4039 -0.6363  0.5424
  145MOL0     N19924   3.633   9.270   9.239 -0.1430  0.5236  0.4945
  145MOL0     C19925   2.891   9.086   8.201 -0.5255 -0.3928  0.3791
  145MOL0     C19926   2.807   8.994   8.136 -0.2894  0.1308  0.1668
  145MOL0     C19927   2.443   8.738   8.016 -0.5388  0.7455 -0.3008
  145MOL0     C19928   2.530   8.643   7.963  0.6444 -0.1897  0.2299
  145MOL0     C19929   2.477   8.540   7.893  0.2824  0.1485 -0.3288
  145MOL0     C19930   2.347   8.489   7.912  0.0347 -0.4606 -0.0491
  145MOL0     O19931   2.326   8.358   7.866  0.2591  0.0320 -0.4600
  145MOL0     C19932   2.291   8.351   7.731 -0.0365  0.4097  0.8108
  145MOL0     C19933   2.143   8.292   7.731 -0.6824  0.0623 -0.5078
  145MOL0     C19934   2.077   8.279   7.595  0.5000 -0.0672 -0.6350
  145MOL0     C19935   2.104   8.400   7.505 -0.0997 -0.5548  0.4233
  145MOL0     C19936   2.039   8.527   7.555  0.1069  0.3178  0.3087
  145MOL0     C19937   1.992   8.633   7.600  0.3503 -0.4184 -0.2418
  145MOL0     C19938   2.256   8.575   7.983 -0.1704  0.2621  1.0804
  145MOL0     C19939   2.299   8.707   8.027 -0.6506  0.1552  0.2009
  145MOL0     C19940   2.207   8.793   8.112  0.3503 -0.2426  0.0835
  145MOL0     H19941   2.552   8.984   8.365 -1.1346 -0.7925 -1.1213
  145MOL0     H19942   2.687   9.162   8.456 -1.2866  0.2266  0.6298
  145MOL0     H19943   3.086   9.282   8.298  1.2270 -0.3109 -0.2563
  145MOL0     H19944   3.085   9.146   8.412  0.5017  0.3600  3.0752
  145MOL0     H19945   3.176   9.371   8.486  0.4842 -2.2953 -0.3648
  145MOL0     H19946   3.007   9.398   8.528 -2.0621 -0.9112 -3.9367
  145MOL0     H19947   3.039   9.165   8.654 -0.8254  1.1891  2.5734
  145MOL0     H19948   3.212   9.176   8.621  1.4026  2.5684 -0.6213
  145MOL0     H19949   3.166   9.423   8.734  2.5313  0.3718  1.3409
  145MOL0     H19950   3.031   9.350   8.803  0.7070  0.2923 -0.7134
  145MOL0     H19951   3.308   9.229   8.813 -0.4364  0.7078 -0.0052
  145MOL0     H19952   3.193   9.181   8.934 -0.1888  0.0235 -0.0393
  145MOL0     H19953   3.309   9.468   8.938  1.9919  1.3178  1.3638
  145MOL0     H19954   3.184   9.405   9.036  1.5405  4.3224  0.8463
  145MOL0     H19955   3.433   9.243   9.001  1.5012 -1.6639  3.9986
  145MOL0     H19956   3.316   9.223   9.123  0.7336 -1.9175 -1.7230
  145MOL0     H19957   3.506   9.453   9.080 -0.5011 -0.5200 -2.3112
  145MOL0     H19958   3.364   9.482   9.182 -1.3370 -1.7372  0.0456
  145MOL0     H19959   3.393   9.382   9.446  0.8517  2.2209 -0.1267
  145MOL0     H19960   3.565   9.321   9.663  2.6556  1.6871 -1.2384
  145MOL0     H19961   3.694   9.215   9.620  1.7287 -0.2162 -6.4507
  145MOL0     H19962   3.505   9.086   9.728  2.5757  1.9061  1.1846
  145MOL0     H19963   3.391   9.128   9.600  0.5578 -0.5777 -2.4649
  145MOL0     H19964   3.538   9.023   9.431 -1.6301  1.1877  0.7394
  145MOL0     H19965   3.642   8.956   9.578  1.1725  0.5236  1.3118
  145MOL0     H19966   3.444   8.857   9.672 -3.1286 -0.0821 -0.0678
  145MOL0     H19967   3.351   8.892   9.527 -0.5028 -4.4949  0.4554
  145MOL0     H19968   3.384   8.937   9.305  0.0861 -1.1307 -0.5404
  145MOL0     H19969   3.304   9.005   9.109 -1.0856 -1.8545  0.6238
  145MOL0     H19970   3.313   8.913   8.957 -2.0953  2.8707  0.3039
  145MOL0     H19971   3.445   9.015   9.024 -2.1445  3.1276  0.8375
  145MOL0     H19972   3.762   8.674   8.741  1.9137 -2.9017  1.7878
  145MOL0     H19973   3.770   8.635   8.496 -2.0296  1.8801 -0.0729
  145MOL0     H19974   3.421   8.401   8.325  0.6792  2.3688  0.5340
  145MOL0     H19975   3.525   8.414   8.181  0.8364  0.8932  0.3921
  145MOL0     H19976   3.574   8.197   8.382 -0.5639  2.1191  1.7314
  145MOL0     H19977   3.453   8.170   8.247  0.9793 -1.1223 -0.1575
  145MOL0     H19978   3.738   8.246   8.212 -2.2881  2.0912  2.2399
  145MOL0     H19979   3.615   8.206   8.089 -1.6014  3.4200  1.9099
  145MOL0     H19980   3.760   8.014   8.133  1.5586  7.2949 -0.7251
  145MOL0     H19981   3.584   7.988   8.178 -0.7228  1.4238  1.2262
  145MOL0     H19982   3.801   8.012   8.381  1.1540 -1.8781  1.1412
  145MOL0     H19983   3.632   7.983   8.401 -0.0513  1.0627 -1.6213
  145MOL0     H19984   3.678   7.782   8.237  1.6466 -2.7393 -1.1619
  145MOL0     H19985   3.711   7.775   8.413 -0.3619 -0.1864 -0.3308
  145MOL0     H19986   3.936   7.856   8.210 -0.2217 -0.3013 -0.0686
  145MOL0     H19987   3.866   7.694   8.194 -1.2011  0.2258  0.9454
  145MOL0     H19988   3.922   7.674   8.452  0.3690 -0.9500 -1.3155
  145MOL0     H19989   4.014   7.822   8.424  0.3852 -0.4040 -0.4392
  145MOL0     H19990   3.456   8.344   8.525  2.7788 -0.6619 -2.4615
  145MOL0     H19991   3.441   8.405   8.770 -1.8335 -1.5801 -1.5704
  145MOL0     H19992   3.614   8.545   9.126 -2.2603  0.6129 -2.5940
  145MOL0     H19993   3.589   8.565   9.363 -1.2071  1.5084  2.2436
  145MOL0     H19994   2.982   9.113   8.149 -0.4091  1.2057  1.3552
  145MOL0     H19995   2.849   8.956   8.044  0.7331 -0.8442  1.0081
  145MOL0     H19996   2.634   8.674   7.956  1.1585 -1.6971  0.8354
  145MOL0     H19997   2.554   8.480   7.847  1.4857  0.3931  1.2739
  145MOL0     H19998   2.303   8.448   7.683 -2.3903 -0.6988 -2.4187
  145MOL0     H19999   2.363   8.279   7.694  0.3855  1.8067 -1.2093
  145MOL0     H20000   2.070   8.340   7.797 -2.7628 -2.5164 -0.7416
  145MOL0     H20001   2.157   8.188   7.765  1.3874  0.3584 -0.3069
  145MOL0     H20002   2.112   8.192   7.538 -0.1210  0.5337 -1.9770
  145MOL0     H20003   1.970   8.261   7.610 -0.0187  1.6339 -1.9469
  145MOL0     H20004   2.065   8.363   7.410 -2.1367  1.1794  0.5063
  145MOL0     H20005   2.213   8.399   7.494  0.3249 -2.4986  3.6680
  145MOL0     H20006   1.930   8.707   7.645  1.2673  0.6828 -0.7318
  145MOL0     H20007   2.155   8.539   7.996 -0.1293 -0.6430 -0.7326
  145MOL0     H20008   2.256   8.818   8.207  1.3860  0.0778 -0.5124
  145MOL0     H20009   2.182   8.887   8.062  1.5420  0.3132  0.4945
  145MOL0     H20010   2.108   8.748   8.123  1.7576 -3.6609 -0.0933
  146MOL0     O20011   0.984   9.976  10.768 -0.3016  0.0847 -0.0493
  146MOL0     C20012   0.988   9.872  10.701  0.3244 -1.1174 -0.6768
  146MOL0     O20013   0.901   9.850  10.591 -0.0675  1.4022 -0.4248
  146MOL0     C20014   0.812   9.947  10.538 -1.1142  0.2840 -0.5477
  146MOL0     C20015   0.714  10.005  10.604  1.4339  0.0062  0.2011
  146MOL0     C20016   0.613  10.075  10.530  0.6493 -0.1803 -0.5311
  146MOL0     C20017   0.627  10.095  10.390 -0.3380  0.2411 -0.2096
  146MOL0     O20018   0.539  10.177  10.314 -0.0752  1.0459  0.1831
  146MOL0     C20019   0.398  10.143  10.336  0.6003 -0.1865  0.6409
  146MOL0     C20020   0.295  10.243  10.278 -0.1907 -0.2563  0.3979
  146MOL0     C20021   0.154  10.186  10.294  0.6577  0.8508 -0.4968
  146MOL0     C20022   0.086  10.240  10.418 -0.0577  0.0907 -0.3706
  146MOL0     C20023  -0.053  10.167  10.445  0.2989  0.1959 -0.1333
  146MOL0     C20024  -0.059  10.071  10.562  0.0685  0.0846 -0.4702
  146MOL0     C20025   0.034   9.943  10.548  0.7627  0.0321  0.1593
  146MOL0     C20026   0.014   9.838  10.663 -0.3406 -0.3320  0.3975
  146MOL0     N20027  -0.124   9.797  10.681  0.6496  0.1737 -0.0536
  146MOL0     C20028  -0.211   9.838  10.787 -1.2211 -0.1265 -0.8719
  146MOL0     C20029  -0.331   9.774  10.763 -0.0422 -0.5186 -0.5905
  146MOL0     C20030  -0.449   9.785  10.843 -0.4096 -0.1456  0.2346
  146MOL0     C20031  -0.549   9.893  10.795  0.2315 -0.1118  0.4322
  146MOL0     C20032  -0.671   9.896  10.884  0.4463 -0.9700  0.7226
  146MOL0     C20033  -0.646   9.935  11.025 -0.0015  1.4698 -0.9596
  146MOL0     O20034  -0.593  10.067  11.040  0.2397  0.6488 -0.2642
  146MOL0     C20035  -0.671  10.184  11.021 -0.6532 -0.3976 -1.2196
  146MOL0     C20036  -0.620  10.307  11.064  0.2658 -0.0648 -0.1936
  146MOL0     C20037  -0.692  10.434  11.055  0.1972 -0.3305 -0.5076
  146MOL0     C20038  -0.633  10.555  11.110  0.1797  0.0077 -0.7330
  146MOL0     C20039  -0.829  10.439  11.007  0.3057  0.2477 -0.0578
  146MOL0     C20040  -0.913  10.558  10.993  0.3555 -0.5218  1.0043
  146MOL0     O20041  -1.045  10.542  11.005  0.3029  1.0832 -0.1678
  146MOL0     C20042  -1.132  10.651  11.020  0.1375  1.0179 -0.0304
  146MOL0     C20043  -1.249  10.643  10.955  0.3109  0.9769  0.6006
  146MOL0     C20044  -1.324  10.758  10.934  0.5445  1.3735  0.1155
  146MOL0     C20045  -1.278  10.879  10.978  0.4656 -0.1882  0.3584
  146MOL0     O20046  -1.347  10.999  10.961 -0.1822  0.4664  0.7259
  146MOL0     C20047  -1.387  11.038  10.824  0.4929 -0.3165 -0.5317
  146MOL0     C20048  -1.438  11.181  10.834 -0.4872  0.2863  0.2359
  146MOL0     C20049  -1.540  11.218  10.726  0.5769 -0.0187 -0.3294
  146MOL0     C20050  -1.644  11.336  10.769 -0.3474  0.7722  1.4272
  146MOL0     C20051  -1.768  11.360  10.671 -0.0528 -0.0700 -0.1654
  146MOL0     C20052  -1.818  11.508  10.680 -0.0450  0.4703  0.9821
  146MOL0     C20053  -1.960  11.521  10.636 -0.8644 -0.2026  0.6872
  146MOL0     C20054  -2.005  11.666  10.630 -0.1189  0.5152  0.5911
  146MOL0    Cl20055  -1.967  11.760  10.776 -0.5047 -0.0935  0.5578
  146MOL0     C20056  -1.168  10.884  11.064 -0.3950  0.3092  0.0307
  146MOL0     C20057  -1.087  10.774  11.082  0.2640 -1.5091 -0.3007
  146MOL0     O20058  -0.853  10.662  10.960  0.7835  0.2963  0.1175
  146MOL0     C20059  -0.887  10.309  10.976 -0.0062 -0.7860  0.1719
  146MOL0     C20060  -0.805  10.196  10.980 -0.2441  0.3357 -0.2953
  146MOL0     N20061  -0.315   9.707  10.640  0.0272 -1.4081  0.3166
  146MOL0     N20062  -0.191   9.711  10.598  0.3087 -0.8911  0.1074
  146MOL0     C20063   0.740  10.046  10.328  0.6123 -0.0260 -0.4737
  146MOL0     C20064   0.825   9.967  10.395  0.4486  0.0971  0.0176
  146MOL0     C20065   1.069   9.758  10.743 -1.0424 -1.2243  0.3580
  146MOL0     C20066   1.078   9.654  10.656  1.0733  0.1352 -0.1471
  146MOL0     C20067   1.151   9.543  10.673 -0.0967  0.5943 -0.1050
  146MOL0     C20068   1.238   9.529  10.782  0.6366 -0.7153 -0.8403
  146MOL0     O20069   1.329   9.436  10.809 -0.6730  0.4026 -0.1426
  146MOL0     C20070   1.351   9.320  10.718 -1.0948  0.3857  0.0379
  146MOL0     C20071   1.446   9.338  10.598 -1.0663  0.1649 -0.3339
  146MOL0     C20072   1.585   9.355  10.663  0.0910 -0.1655 -1.0861
  146MOL0     C20073   1.694   9.356  10.547  0.3791 -0.2524 -0.4493
  146MOL0     C20074   1.715   9.475  10.474  0.6305  0.3737  0.8962
  146MOL0     C20075   1.720   9.576  10.409  0.5960  0.3343  0.1502
  146MOL0     C20076   1.223   9.632  10.877 -0.4128  0.6598 -0.2917
  146MOL0     C20077   1.139   9.746  10.860  0.0451 -0.4472  0.1130
  146MOL0     C20078   1.141   9.841  10.978 -1.7188 -1.1393  0.0066
  146MOL0     H20079   0.699   9.991  10.711  3.0123  1.9727  0.7359
  146MOL0     H20080   0.537  10.127  10.588  1.5225  3.3300 -2.2440
  146MOL0     H20081   0.371  10.125  10.440  1.3367  4.0072  1.7035
  146MOL0     H20082   0.381  10.052  10.276 -2.7230  0.2786  0.7269
  146MOL0     H20083   0.305  10.341  10.325  1.0729 -1.0416  1.8538
  146MOL0     H20084   0.315  10.250  10.170 -3.7114 -0.5179 -0.3721
  146MOL0     H20085   0.089  10.196  10.206 -0.5415  0.2877  0.2991
  146MOL0     H20086   0.171  10.079  10.314  1.7224  0.9692 -0.6789
  146MOL0     H20087   0.148  10.243  10.507 -0.6326 -0.4544  0.0618
  146MOL0     H20088   0.051  10.343  10.403  2.2259  1.1954  1.2348
  146MOL0     H20089  -0.101  10.122  10.358  2.9128 -0.0527 -1.5475
  146MOL0     H20090  -0.129  10.239  10.475  1.0795  0.7458  0.5700
  146MOL0     H20091  -0.044  10.112  10.662  0.0904  3.0741 -1.6027
  146MOL0     H20092  -0.160  10.029  10.564  0.7075 -1.5712  1.9195
  146MOL0     H20093   0.139   9.972  10.543 -0.1677  3.7338 -0.5920
  146MOL0     H20094   0.003   9.884  10.461  1.5055 -2.7362  1.6293
  146MOL0     H20095   0.084   9.756  10.644 -1.0440 -0.5135 -1.6421
  146MOL0     H20096   0.044   9.878  10.761 -0.8898 -1.6030  1.1137
  146MOL0     H20097  -0.181   9.893  10.875  1.3057  2.7921 -3.3175
  146MOL0     H20098  -0.416   9.803  10.946  0.0605 -2.3090  0.5244
  146MOL0     H20099  -0.506   9.692  10.837 -0.7253 -0.1560  2.4686
  146MOL0     H20100  -0.502   9.992  10.793  0.0037  0.0396 -2.7380
  146MOL0     H20101  -0.578   9.871  10.692 -0.6161  0.3214  0.5661
  146MOL0     H20102  -0.734   9.971  10.833 -0.3886 -1.2668  1.3057
  146MOL0     H20103  -0.723   9.800  10.878  3.2655 -2.5541 -0.3569
  146MOL0     H20104  -0.740   9.931  11.080  1.8309  3.4688  2.6611
  146MOL0     H20105  -0.584   9.858  11.071 -1.1323 -0.3489 -2.3449
  146MOL0     H20106  -0.523  10.281  11.104 -0.5614 -1.4705  1.0057
  146MOL0     H20107  -0.704  10.617  11.165 -0.5516 -2.7406  1.7192
  146MOL0     H20108  -0.579  10.624  11.046  0.7383  3.2665  2.8760
  146MOL0     H20109  -0.557  10.521  11.182 -1.5488 -1.6787  0.4101
  146MOL0     H20110  -1.297  10.551  10.925 -1.2318  1.4883  1.3859
  146MOL0     H20111  -1.421  10.746  10.888  2.2418  0.4904 -3.6526
  146MOL0     H20112  -1.294  11.030  10.767  0.2824  0.9006 -1.0913
  146MOL0     H20113  -1.453  10.974  10.764  2.5482 -1.4792 -1.6759
  146MOL0     H20114  -1.481  11.183  10.934  1.9367 -1.3753  1.4198
  146MOL0     H20115  -1.355  11.253  10.837 -1.2229  1.1162  1.6525
  146MOL0     H20116  -1.594  11.126  10.703 -0.5294  1.2587 -3.2639
  146MOL0     H20117  -1.484  11.246  10.636 -1.8780 -1.2999 -2.3587
  146MOL0     H20118  -1.595  11.433  10.783 -1.4615  1.3550  1.4027
  146MOL0     H20119  -1.689  11.311  10.865 -2.3458 -1.0803  0.1146
  146MOL0     H20120  -1.748  11.340  10.566 -0.2538  1.1782 -0.4545
  146MOL0     H20121  -1.842  11.290  10.710 -0.6127  0.9119  0.5734
  146MOL0     H20122  -1.746  11.570  10.627 -1.7720  3.5100  1.9485
  146MOL0     H20123  -1.819  11.551  10.781 -0.3575  4.2035 -0.4596
  146MOL0     H20124  -2.018  11.471  10.714 -1.4327  3.8300  3.1203
  146MOL0     H20125  -1.977  11.471  10.541  0.2850 -0.2759  0.5055
  146MOL0     H20126  -2.111  11.672  10.605  0.5467  0.0885 -2.8499
  146MOL0     H20127  -1.947  11.706  10.547 -1.3432 -1.4376 -1.3251
  146MOL0     H20128  -1.131  10.978  11.104 -1.0158  0.9344 -0.8264
  146MOL0     H20129  -1.013  10.791  11.160 -1.4691 -0.1692  1.1275
  146MOL0     H20130  -0.983  10.308  10.925 -0.9709 -0.9260  1.9066
  146MOL0     H20131  -0.861  10.108  10.951  1.3008 -1.1524  0.9955
  146MOL0     H20132   0.759  10.073  10.224 -2.3943 -2.1259 -1.7069
  146MOL0     H20133   0.906   9.913  10.346  1.5435  1.2136  0.5557
  146MOL0     H20134   1.018   9.656  10.566 -1.1695 -3.1088  1.0743
  146MOL0     H20135   1.168   9.468  10.597 -3.1833 -0.0777 -0.2643
  146MOL0     H20136   1.392   9.236  10.773  1.1374  1.1141 -0.4222
  146MOL0     H20137   1.257   9.288  10.671  0.1545 -1.8488 -1.0670
  146MOL0     H20138   1.417   9.425  10.538 -1.3094  1.4641  1.5788
  146MOL0     H20139   1.445   9.241  10.548  3.6713  1.1653 -3.0444
  146MOL0     H20140   1.590   9.446  10.724  3.5008  0.6865 -2.3645
  146MOL0     H20141   1.606   9.270  10.728  0.5922  0.7142 -0.0641
  146MOL0     H20142   1.674   9.271  10.481 -0.5907  1.2552 -2.1774
  146MOL0     H20143   1.790   9.334  10.594 -0.2402 -1.7703  0.1579
  146MOL0     H20144   1.698   9.659  10.344  0.8190  1.7849  1.8392
  146MOL0     H20145   1.299   9.610  10.952  1.2471  1.5528 -1.6326
  146MOL0     H20146   1.187   9.786  11.061  1.2934  0.8596 -0.1782
  146MOL0     H20147   1.217   9.915  10.948 -1.0486 -1.8866 -0.1728
  146MOL0     H20148   1.048   9.885  11.014 -0.6615  0.9415  0.3985
  147MOL0     O20149   2.424   4.358   0.319 -0.0743  0.7778 -0.0863
  147MOL0     C20150   2.411   4.478   0.349  0.0760  0.1491 -0.7588
  147MOL0     O20151   2.513   4.570   0.354  0.0159  0.7115 -0.1797
  147MOL0     C20152   2.637   4.513   0.336 -0.4442 -1.4223 -1.2160
  147MOL0     C20153   2.703   4.445   0.442  0.6242 -0.3135 -0.3519
  147MOL0     C20154   2.841   4.404   0.420  1.2589 -0.5673 -0.2095
  147MOL0     C20155   2.901   4.424   0.294  0.8160  0.5328 -0.8101
  147MOL0     O20156   3.035   4.388   0.278 -0.8271 -0.0491 -0.3496
  147MOL0     C20157   3.129   4.467   0.358 -0.1268  1.0426  0.6035
  147MOL0     C20158   3.154   4.613   0.285 -0.6985  0.3116 -0.6137
  147MOL0     C20159   3.195   4.598   0.131 -1.0108 -0.0852  0.0388
  147MOL0     C20160   3.338   4.560   0.085 -0.4758  0.4866  0.6480
  147MOL0     C20161   3.372   4.602  -0.060 -0.5685 -0.4587  1.1780
  147MOL0     C20162   3.517   4.584  -0.109 -0.7373 -0.5680  0.5290
  147MOL0     C20163   3.539   4.652  -0.252 -0.9571  0.1665 -0.5843
  147MOL0     C20164   3.432   4.621  -0.360  0.5105  0.5067  0.4356
  147MOL0     N20165   3.464   4.684  -0.485 -0.2789 -0.3806 -0.0431
  147MOL0     C20166   3.395   4.769  -0.570  0.8480  0.6610  0.6259
  147MOL0     C20167   3.480   4.781  -0.670  0.0875  0.2123  0.3251
  147MOL0     C20168   3.446   4.849  -0.812 -0.3873 -0.3176 -0.0780
  147MOL0     C20169   3.514   4.990  -0.801  0.8976 -0.6739 -0.1437
  147MOL0     C20170   3.476   5.077  -0.925 -0.0302  0.5432 -0.0217
  147MOL0     C20171   3.577   5.189  -0.934  0.2868 -1.3305  0.5747
  147MOL0     O20172   3.528   5.294  -1.023 -0.0898 -0.5410 -0.2308
  147MOL0     C20173   3.551   5.272  -1.153  0.1943 -0.2406 -0.4470
  147MOL0     C20174   3.436   5.255  -1.233 -0.9349 -0.2903 -0.4016
  147MOL0     C20175   3.440   5.260  -1.374 -1.0110  0.0740 -0.5411
  147MOL0     C20176   3.325   5.215  -1.454  0.6919 -0.6232 -0.5938
  147MOL0     C20177   3.570   5.290  -1.441 -0.9033 -0.7772  0.2680
  147MOL0     C20178   3.592   5.302  -1.589 -1.0962  1.3347 -0.9308
  147MOL0     O20179   3.724   5.298  -1.628 -0.4479  0.4717 -0.3240
  147MOL0     C20180   3.756   5.323  -1.757  0.2758 -0.7374  0.0456
  147MOL0     C20181   3.765   5.450  -1.802  0.2148  0.0284  0.1629
  147MOL0     C20182   3.798   5.473  -1.935  0.0896  0.0476 -0.2373
  147MOL0     C20183   3.816   5.374  -2.023 -0.4174 -0.1203 -0.2023
  147MOL0     O20184   3.851   5.408  -2.151 -0.0661  0.9549  0.2224
  147MOL0     C20185   3.895   5.303  -2.242  0.1365  0.4706  0.0746
  147MOL0     C20186   3.919   5.359  -2.387 -0.2188  0.1678 -0.2220
  147MOL0     C20187   4.071   5.387  -2.413  0.0159 -0.2165 -0.1198
  147MOL0     C20188   4.094   5.477  -2.537 -0.5282  0.4560 -0.3238
  147MOL0     C20189   4.238   5.529  -2.550  0.5473  0.5921  0.5025
  147MOL0     C20190   4.249   5.624  -2.672  0.9979 -0.0424 -0.7770
  147MOL0     C20191   4.178   5.768  -2.651 -0.2103  0.2426  0.6832
  147MOL0     C20192   4.218   5.882  -2.746 -0.7379 -0.7004 -0.8757
  147MOL0    Cl20193   4.147   5.843  -2.906 -0.0085 -0.1264  0.0836
  147MOL0     C20194   3.806   5.242  -1.976  0.0402  0.4988 -0.7107
  147MOL0     C20195   3.780   5.218  -1.838 -0.0894 -0.2514 -0.0442
  147MOL0     O20196   3.497   5.303  -1.670 -0.3660 -0.0402  0.5084
  147MOL0     C20197   3.677   5.306  -1.355  0.1453  0.4551  0.2325
  147MOL0     C20198   3.678   5.292  -1.214 -1.1814  1.0140  0.4636
  147MOL0     N20199   3.597   4.711  -0.653  0.8401 -0.1246  0.1580
  147MOL0     N20200   3.588   4.659  -0.543  0.0921 -0.0068 -0.2702
  147MOL0     C20201   2.826   4.483   0.193 -0.5518 -0.0766  0.5314
  147MOL0     C20202   2.695   4.524   0.213  0.1452 -1.7569  0.6464
  147MOL0     C20203   2.272   4.527   0.378 -0.6815 -0.4240 -0.4900
  147MOL0     C20204   2.251   4.665   0.350  0.1359  0.0898 -0.2424
  147MOL0     C20205   2.132   4.726   0.366  0.0455  0.4625  0.0693
  147MOL0     C20206   2.020   4.649   0.413  0.4234 -0.6082  0.1043
  147MOL0     O20207   1.904   4.709   0.454 -0.2569  0.4210  0.2430
  147MOL0     C20208   1.928   4.820   0.553  0.4222  0.6856 -0.1196
  147MOL0     C20209   1.814   4.925   0.533  0.2120 -1.0504 -0.2916
  147MOL0     C20210   1.871   5.069   0.482  0.6624  0.3735 -0.8070
  147MOL0     C20211   1.766   5.180   0.469  1.2816  0.1254  0.8498
  147MOL0     C20212   1.826   5.312   0.473 -0.7040 -0.5100  0.0557
  147MOL0     C20213   1.869   5.426   0.496 -0.2171  0.0276  1.5225
  147MOL0     C20214   2.029   4.514   0.418  0.1336 -0.2947  0.3387
  147MOL0     C20215   2.160   4.450   0.410 -0.5440 -0.7423  0.5407
  147MOL0     C20216   2.178   4.303   0.454  0.8931 -0.1938  0.7111
  147MOL0     H20217   2.662   4.442   0.543  0.9852  2.5286 -0.0354
  147MOL0     H20218   2.905   4.361   0.496 -0.2771  0.6696  1.8899
  147MOL0     H20219   3.225   4.415   0.363  0.1914  1.3335 -1.6366
  147MOL0     H20220   3.104   4.472   0.464 -2.7853 -0.9694  0.1689
  147MOL0     H20221   3.072   4.683   0.304 -0.5206 -0.0752  1.9646
  147MOL0     H20222   3.234   4.660   0.342 -1.7967  2.4009 -0.7159
  147MOL0     H20223   3.116   4.537   0.086 -0.6075 -1.9208  1.7336
  147MOL0     H20224   3.182   4.701   0.096  1.3356  0.0326 -0.6839
  147MOL0     H20225   3.412   4.597   0.157  0.6440 -0.6534  0.1268
  147MOL0     H20226   3.362   4.453   0.092 -1.4137 -0.1702 -3.3734
  147MOL0     H20227   3.362   4.710  -0.072  1.5320 -0.4335 -1.5168
  147MOL0     H20228   3.299   4.557  -0.127  0.8208  2.4319 -2.7078
  147MOL0     H20229   3.585   4.631  -0.037 -0.6820 -0.5551  0.4684
  147MOL0     H20230   3.536   4.476  -0.110 -1.8410 -0.8262 -2.8125
  147MOL0     H20231   3.634   4.620  -0.297 -0.4722  1.6228 -0.6742
  147MOL0     H20232   3.544   4.761  -0.238 -1.4121 -0.0576  1.6673
  147MOL0     H20233   3.438   4.516  -0.389  0.7288  1.1278 -1.9688
  147MOL0     H20234   3.332   4.657  -0.331  0.0356  1.4868 -2.1655
  147MOL0     H20235   3.301   4.822  -0.573  0.4981  0.0136 -0.5675
  147MOL0     H20236   3.339   4.863  -0.824  0.0733  1.4539 -3.2062
  147MOL0     H20237   3.487   4.795  -0.898  1.0759 -1.2588  1.1496
  147MOL0     H20238   3.486   5.034  -0.705  0.6969 -0.8634 -0.1134
  147MOL0     H20239   3.621   4.970  -0.792  0.5752 -3.1404 -1.1151
  147MOL0     H20240   3.479   5.022  -1.020  1.3900 -1.6313  1.1922
  147MOL0     H20241   3.378   5.126  -0.916  0.6688  2.6495 -2.4674
  147MOL0     H20242   3.578   5.222  -0.829  0.1698  0.9795 -0.1015
  147MOL0     H20243   3.676   5.148  -0.956  0.8944  1.3941 -2.5132
  147MOL0     H20244   3.343   5.233  -1.182 -1.1063 -4.1915 -2.0472
  147MOL0     H20245   3.236   5.230  -1.392  1.1444  1.3609 -0.3523
  147MOL0     H20246   3.328   5.119  -1.506 -2.2192 -0.0236 -2.0373
  147MOL0     H20247   3.298   5.287  -1.531  0.3828 -0.7787 -0.6314
  147MOL0     H20248   3.742   5.534  -1.737  0.4203 -0.7901  1.2988
  147MOL0     H20249   3.819   5.574  -1.969  1.5389  0.9640  3.0199
  147MOL0     H20250   3.982   5.253  -2.199 -1.1128 -3.5345 -1.5539
  147MOL0     H20251   3.814   5.229  -2.241 -0.1583  0.7906  1.3362
  147MOL0     H20252   3.890   5.296  -2.472 -0.1068  0.8616 -0.7961
  147MOL0     H20253   3.855   5.446  -2.406 -1.9507 -1.2826 -1.4552
  147MOL0     H20254   4.129   5.297  -2.435 -0.3115 -1.3989  3.3788
  147MOL0     H20255   4.122   5.436  -2.330  0.7328  0.0377 -0.6885
  147MOL0     H20256   4.029   5.564  -2.528 -2.3601 -0.6636 -1.9645
  147MOL0     H20257   4.075   5.415  -2.625 -1.7019  0.6918 -0.2532
  147MOL0     H20258   4.263   5.579  -2.455  1.6995  4.2158 -1.5137
  147MOL0     H20259   4.306   5.447  -2.571  1.9515  2.4089 -2.7480
  147MOL0     H20260   4.200   5.576  -2.757  0.0764  2.7249 -1.9138
  147MOL0     H20261   4.355   5.630  -2.695  1.0962  4.1993  0.0085
  147MOL0     H20262   4.202   5.798  -2.549  4.2053  0.6896 -0.2822
  147MOL0     H20263   4.069   5.761  -2.655 -0.1787 -0.6623 -3.5701
  147MOL0     H20264   4.327   5.891  -2.748 -0.9267  3.8538 -0.3393
  147MOL0     H20265   4.187   5.979  -2.708 -0.4223 -0.7231 -0.5574
  147MOL0     H20266   3.805   5.163  -2.050  0.3244 -0.9902  0.8076
  147MOL0     H20267   3.760   5.123  -1.791 -1.8850 -0.7611 -1.6907
  147MOL0     H20268   3.773   5.324  -1.403 -0.8657  1.0078 -1.6975
  147MOL0     H20269   3.769   5.312  -1.158  0.0310  0.3987 -1.2204
  147MOL0     H20270   2.875   4.509   0.100 -1.9345  1.4357  0.1777
  147MOL0     H20271   2.631   4.575   0.141  1.8284 -1.3557 -0.6154
  147MOL0     H20272   2.324   4.744   0.335  2.0373 -0.5118  4.2776
  147MOL0     H20273   2.132   4.834   0.354  0.2213  0.4492 -0.0536
  147MOL0     H20274   1.922   4.791   0.658  1.7381  1.1285  0.1015
  147MOL0     H20275   2.020   4.877   0.537 -0.0200  0.8027 -2.7193
  147MOL0     H20276   1.755   4.939   0.624  0.1837 -0.7185 -0.3570
  147MOL0     H20277   1.749   4.891   0.453  2.3529 -0.8294 -2.2461
  147MOL0     H20278   1.953   5.105   0.545 -0.9590  0.8185  1.1601
  147MOL0     H20279   1.919   5.052   0.385  1.2564  1.4751 -0.7200
  147MOL0     H20280   1.693   5.171   0.550  1.2565  2.1411  1.0900
  147MOL0     H20281   1.715   5.168   0.373 -0.0939 -0.0482  1.5733
  147MOL0     H20282   1.901   5.529   0.492 -0.7663  0.2068  1.6681
  147MOL0     H20283   1.943   4.451   0.439  0.8790 -2.5501 -2.5544
  147MOL0     H20284   2.167   4.228   0.375  3.6077 -1.5537  1.5303
  147MOL0     H20285   2.276   4.294   0.500  0.3560 -0.8029  1.7750
  147MOL0     H20286   2.101   4.278   0.527 -1.1421  1.2180 -0.8285
  148MOL0     O20287   2.496   6.867   1.958 -0.7695  0.3656 -0.3030
  148MOL0     C20288   2.529   6.785   2.033 -1.7616  0.9537 -0.2435
  148MOL0     O20289   2.468   6.741   2.146  0.2056 -0.7106 -0.1390
  148MOL0     C20290   2.374   6.815   2.212  0.8326  0.2125  1.1994
  148MOL0     C20291   2.384   6.957   2.229 -0.6357  0.1263  0.3585
  148MOL0     C20292   2.288   7.026   2.300 -0.4209  0.4302  0.0554
  148MOL0     C20293   2.184   6.955   2.364 -0.0465 -0.2200 -0.4676
  148MOL0     O20294   2.075   7.013   2.420  0.1946  0.9681 -0.2710
  148MOL0     C20295   2.057   7.157   2.422  0.8124 -0.1978 -0.0752
  148MOL0     C20296   1.930   7.184   2.493  0.0241  0.5134  0.7575
  148MOL0     C20297   1.907   7.332   2.503 -0.1307  0.1263 -0.2648
  148MOL0     C20298   1.768   7.362   2.561  0.2670  0.0305  0.7739
  148MOL0     C20299   1.719   7.514   2.548 -0.4803 -0.9879  0.1792
  148MOL0     C20300   1.785   7.620   2.642 -1.1219 -0.0532 -1.3486
  148MOL0     C20301   1.760   7.584   2.793 -0.3634  0.6310 -0.3072
  148MOL0     C20302   1.776   7.704   2.885 -0.0058 -0.8981 -0.1001
  148MOL0     N20303   1.651   7.789   2.866 -0.6108  0.4616 -0.8757
  148MOL0     C20304   1.607   7.859   2.974 -0.2877 -0.1301  0.3140
  148MOL0     C20305   1.486   7.894   2.944 -0.4238 -0.3386  0.0131
  148MOL0     C20306   1.399   7.977   3.035 -1.1822 -0.5769  0.5368
  148MOL0     C20307   1.408   8.134   3.005  0.7610  0.2175 -0.2345
  148MOL0     C20308   1.330   8.171   2.882 -0.6974  0.3726 -1.1085
  148MOL0     C20309   1.184   8.115   2.857  0.1594  0.3343  0.1223
  148MOL0     O20310   1.107   8.177   2.958 -0.4055 -0.6221  0.1877
  148MOL0     C20311   1.060   8.106   3.061  0.6189 -0.7666  0.9878
  148MOL0     C20312   1.038   8.169   3.181 -0.0813 -0.7665  0.8294
  148MOL0     C20313   0.945   8.131   3.277  0.0614 -0.2276 -0.6788
  148MOL0     C20314   0.913   8.226   3.386  0.4362 -0.1008  0.4357
  148MOL0     C20315   0.883   8.004   3.270 -0.6235  0.1774  0.8959
  148MOL0     C20316   0.772   7.946   3.360 -0.3630  0.1688 -0.1845
  148MOL0     O20317   0.700   7.835   3.307  0.0237  0.4218  1.2113
  148MOL0     C20318   0.646   7.738   3.389 -0.1702  0.0965 -0.6340
  148MOL0     C20319   0.714   7.699   3.505  0.2514 -0.4341 -0.4795
  148MOL0     C20320   0.659   7.615   3.599  0.1195  1.2305 -0.4998
  148MOL0     C20321   0.531   7.555   3.573 -0.0824 -0.2089 -1.3551
  148MOL0     O20322   0.476   7.465   3.666  0.4553 -0.2966 -0.5699
  148MOL0     C20323   0.329   7.454   3.674  0.2894  0.0470 -0.8414
  148MOL0     C20324   0.296   7.398   3.814 -0.1939 -0.0793  0.4558
  148MOL0     C20325   0.371   7.464   3.930  0.2114 -0.3858 -0.2921
  148MOL0     C20326   0.306   7.441   4.065  0.2653 -0.3693 -0.5461
  148MOL0     C20327   0.173   7.526   4.074  0.4599  0.3661 -0.0359
  148MOL0     C20328   0.106   7.483   4.210  0.5250  0.0621 -0.0555
  148MOL0     C20329  -0.036   7.531   4.203  0.7044 -0.2741  0.0454
  148MOL0     C20330  -0.086   7.543   4.344 -0.0148  0.3512 -0.0141
  148MOL0    Cl20331  -0.033   7.420   4.465 -0.1721 -0.1348 -0.2424
  148MOL0     C20332   0.477   7.581   3.447 -0.0027 -0.0485  0.2307
  148MOL0     C20333   0.530   7.670   3.358 -0.0854  0.9267 -0.2972
  148MOL0     O20334   0.762   7.991   3.469  0.0189 -0.1468 -0.1672
  148MOL0     C20335   0.919   7.928   3.149 -0.1051  1.0823 -1.3037
  148MOL0     C20336   0.994   7.982   3.040  0.0600 -0.1219 -0.4492
  148MOL0     N20337   1.453   7.848   2.817 -0.0300 -0.1891 -0.1671
  148MOL0     N20338   1.555   7.789   2.763 -0.1050  0.7947 -0.3518
  148MOL0     C20339   2.172   6.815   2.352 -0.3653  0.7850  0.1337
  148MOL0     C20340   2.263   6.752   2.270  0.0271 -1.0376  0.0777
  148MOL0     C20341   2.649   6.704   1.995 -0.2064  0.7360  0.2685
  148MOL0     C20342   2.653   6.560   1.986 -0.4611  0.6267 -0.4713
  148MOL0     C20343   2.756   6.494   1.929 -0.1548  1.1860 -0.1741
  148MOL0     C20344   2.879   6.552   1.884  0.4504  0.4310  0.0645
  148MOL0     O20345   2.980   6.465   1.847 -0.0763  1.1644  1.1066
  148MOL0     C20346   2.997   6.447   1.705 -0.0685  0.3101  0.6367
  148MOL0     C20347   3.141   6.407   1.682 -0.4494 -0.0771  0.1619
  148MOL0     C20348   3.196   6.285   1.770  0.8597  0.3809  0.9204
  148MOL0     C20349   3.335   6.239   1.723  0.7144 -0.2389  0.5030
  148MOL0     C20350   3.351   6.094   1.739  0.3683 -0.0565  0.1446
  148MOL0     C20351   3.360   5.976   1.759 -0.7084 -0.1172  0.4691
  148MOL0     C20352   2.888   6.687   1.913  0.1724  0.3368  0.5734
  148MOL0     C20353   2.776   6.761   1.961 -0.1374 -1.0062  0.1150
  148MOL0     C20354   2.801   6.908   1.987  0.7357 -0.0298  0.4386
  148MOL0     H20355   2.465   7.019   2.192  0.9204 -3.0538 -2.1307
  148MOL0     H20356   2.306   7.132   2.318 -1.3316  0.6042  0.0223
  148MOL0     H20357   2.050   7.201   2.322  1.1276  2.3503  0.9312
  148MOL0     H20358   2.129   7.211   2.483  0.7754 -0.8761  0.5761
  148MOL0     H20359   1.861   7.128   2.430 -0.2693  0.0815  1.4478
  148MOL0     H20360   1.939   7.137   2.592  1.2159  0.9648  0.8869
  148MOL0     H20361   1.986   7.389   2.554  0.7107  0.3732 -1.7856
  148MOL0     H20362   1.900   7.361   2.398 -1.9709 -0.7402 -0.4206
  148MOL0     H20363   1.689   7.294   2.528 -1.2572  1.2532  1.7584
  148MOL0     H20364   1.784   7.337   2.666  2.8499 -1.8164  0.0438
  148MOL0     H20365   1.610   7.513   2.561 -0.8276 -0.1998 -2.1081
  148MOL0     H20366   1.736   7.540   2.443  3.3624 -0.1558  0.8745
  148MOL0     H20367   1.893   7.605   2.627 -1.6247 -5.4661 -1.5206
  148MOL0     H20368   1.750   7.719   2.610  1.8235  2.5087  2.4062
  148MOL0     H20369   1.808   7.491   2.822 -1.1745 -0.5088 -2.4458
  148MOL0     H20370   1.657   7.551   2.806  0.8948 -2.5746  4.3077
  148MOL0     H20371   1.801   7.673   2.987 -2.1663  1.3966  1.2198
  148MOL0     H20372   1.858   7.768   2.850 -0.2478 -1.3096 -1.4762
  148MOL0     H20373   1.672   7.880   3.058  0.8540 -1.5510 -0.1720
  148MOL0     H20374   1.440   7.953   3.134 -0.8441 -2.6034 -0.0584
  148MOL0     H20375   1.292   7.953   3.044 -2.4016  2.2681 -3.7284
  148MOL0     H20376   1.356   8.187   3.085 -4.2186 -0.5567 -2.5281
  148MOL0     H20377   1.507   8.176   2.986  0.2552  0.9301 -1.3973
  148MOL0     H20378   1.326   8.280   2.892 -0.4775  0.3802 -1.0909
  148MOL0     H20379   1.401   8.148   2.802 -0.8918 -1.6839 -0.7301
  148MOL0     H20380   1.134   8.142   2.764 -0.3639  3.0596  1.1165
  148MOL0     H20381   1.185   8.005   2.861  2.3778  0.3002  0.0016
  148MOL0     H20382   1.086   8.266   3.182  1.9695 -1.6975 -0.9648
  148MOL0     H20383   0.815   8.239   3.432  1.5151 -1.0345  3.2185
  148MOL0     H20384   0.945   8.327   3.357  2.2212 -0.4063  1.1583
  148MOL0     H20385   0.978   8.199   3.470 -2.6465  1.4507  3.5181
  148MOL0     H20386   0.800   7.758   3.535  1.9688 -3.1724  0.4224
  148MOL0     H20387   0.695   7.620   3.701 -2.1545  2.1618  0.3017
  148MOL0     H20388   0.284   7.553   3.659  0.5296  0.6284  1.8001
  148MOL0     H20389   0.282   7.381   3.608  0.6789 -3.5890  2.5406
  148MOL0     H20390   0.190   7.423   3.829 -0.6476 -0.4196 -1.8152
  148MOL0     H20391   0.303   7.289   3.819  0.9788 -0.0362  0.0334
  148MOL0     H20392   0.349   7.567   3.902  0.3625 -1.1220 -3.4138
  148MOL0     H20393   0.479   7.453   3.941  0.2303  1.6411  3.2619
  148MOL0     H20394   0.376   7.472   4.144  2.0109 -2.5758 -1.1088
  148MOL0     H20395   0.286   7.335   4.079 -2.3018  0.2011  0.6335
  148MOL0     H20396   0.183   7.635   4.064 -0.5712  0.5355  0.6812
  148MOL0     H20397   0.090   7.492   4.011 -2.1241  0.7156  2.9569
  148MOL0     H20398   0.155   7.530   4.295 -2.7250  0.6381  1.6657
  148MOL0     H20399   0.096   7.374   4.218 -3.1848  0.2335 -0.6237
  148MOL0     H20400  -0.103   7.468   4.144 -1.1241  1.4226  0.2078
  148MOL0     H20401  -0.037   7.628   4.151 -0.5744 -1.8272 -3.0985
  148MOL0     H20402  -0.195   7.541   4.345 -0.1348 -0.4733  4.5056
  148MOL0     H20403  -0.059   7.644   4.377 -0.4139 -0.2998  2.4477
  148MOL0     H20404   0.386   7.532   3.413  0.2582 -1.1382  1.0418
  148MOL0     H20405   0.474   7.687   3.266 -2.5073 -0.9086  0.7225
  148MOL0     H20406   0.888   7.826   3.126  2.7763  0.0248 -0.9229
  148MOL0     H20407   1.005   7.941   2.941 -2.4094  1.2534 -1.3792
  148MOL0     H20408   2.083   6.765   2.387 -0.4529  0.8336 -0.0183
  148MOL0     H20409   2.262   6.646   2.247  0.0730 -0.7857 -1.1513
  148MOL0     H20410   2.556   6.522   2.016 -1.6416  3.8543  0.1835
  148MOL0     H20411   2.749   6.386   1.930  1.8883  1.0007  0.0033
  148MOL0     H20412   2.927   6.373   1.664  0.1513 -0.3764  1.4796
  148MOL0     H20413   2.982   6.539   1.648  1.8471  0.0094 -0.4369
  148MOL0     H20414   3.201   6.493   1.711 -2.5924  1.3699  0.5574
  148MOL0     H20415   3.163   6.383   1.578  2.4710 -0.7421  0.8483
  148MOL0     H20416   3.204   6.321   1.873  0.0472  0.2164  1.0504
  148MOL0     H20417   3.123   6.205   1.752  1.9154 -0.3862 -0.0813
  148MOL0     H20418   3.416   6.287   1.779 -0.0626  1.4238  0.2697
  148MOL0     H20419   3.349   6.260   1.616 -3.2039  2.1441  0.2574
  148MOL0     H20420   3.363   5.874   1.792 -0.0761 -0.7499 -1.3872
  148MOL0     H20421   2.979   6.733   1.874  1.6038 -3.2988 -0.8778
  148MOL0     H20422   2.781   6.958   1.892  0.4983  0.3671  0.6957
  148MOL0     H20423   2.729   6.955   2.053 -2.0586 -1.1623 -1.6139
  148MOL0     H20424   2.905   6.929   2.013  1.0716  0.7893 -1.3893
  149MOL0     O20425  11.350   2.510   2.492 -0.1295  0.6996 -0.2946
  149MOL0     C20426  11.345   2.445   2.590  0.7586 -0.5624 -0.3715
  149MOL0     O20427  11.355   2.496   2.717  0.6596 -0.1028  0.7472
  149MOL0     C20428  11.389   2.627   2.736  1.1155 -0.1419 -0.3777
  149MOL0     C20429  11.491   2.696   2.676 -0.8401  0.2209  1.7042
  149MOL0     C20430  11.537   2.822   2.707 -0.0871  0.8366  0.0855
  149MOL0     C20431  11.494   2.875   2.833 -0.2896 -0.4608 -0.4658
  149MOL0     O20432  11.562   2.987   2.872 -0.1847 -0.0161  0.0291
  149MOL0     C20433  11.603   2.985   3.018  0.1305  0.3195 -0.5718
  149MOL0     C20434  11.732   3.070   3.040  0.0612  0.3203  0.6852
  149MOL0     C20435  11.846   3.011   2.958  0.1669  0.0125  0.9355
  149MOL0     C20436  11.971   2.978   3.033  0.0591 -0.2971  0.7726
  149MOL0     C20437  12.089   2.977   2.941  0.9046 -0.6361  0.0593
  149MOL0     C20438  12.223   2.962   3.019  0.1428  0.8809 -0.2727
  149MOL0     C20439  12.331   2.972   2.913  0.1359  0.6456  0.3706
  149MOL0     C20440  12.472   2.948   2.975  0.7979 -0.9259 -0.6371
  149MOL0     N20441  12.552   3.069   2.975 -0.0970  0.8983 -0.2839
  149MOL0     C20442  12.596   3.145   2.869 -0.4487  0.6893  0.4420
  149MOL0     C20443  12.639   3.257   2.930 -0.2073 -0.4585 -0.6848
  149MOL0     C20444  12.678   3.384   2.865 -0.0209  0.3917 -0.4746
  149MOL0     C20445  12.809   3.363   2.802 -0.3463 -0.0970 -0.3581
  149MOL0     C20446  12.840   3.485   2.710  0.6957  0.3908 -0.1418
  149MOL0     C20447  12.859   3.619   2.788 -0.6712  0.0214 -0.3437
  149MOL0     O20448  12.871   3.718   2.694  0.2686 -0.7808  0.2387
  149MOL0     C20449  12.757   3.774   2.644  0.2418  0.0690  0.2551
  149MOL0     C20450  12.766   3.888   2.555  0.9999 -0.2541 -0.2707
  149MOL0     C20451  12.662   3.955   2.498 -0.3148 -0.4991 -0.1116
  149MOL0     C20452  12.677   4.080   2.408  0.4554 -0.0964  0.1724
  149MOL0     C20453  12.533   3.904   2.530  0.3144  0.3495  0.9964
  149MOL0     C20454  12.402   3.962   2.469 -0.3984 -0.0029 -0.2149
  149MOL0     O20455  12.314   3.911   2.385 -0.9671  0.4889 -0.0528
  149MOL0     C20456  12.368   3.816   2.291  0.2525  0.1511 -0.0487
  149MOL0     C20457  12.480   3.851   2.211 -0.1046  0.4792  0.2628
  149MOL0     C20458  12.528   3.757   2.125  0.1215  0.7052 -0.3035
  149MOL0     C20459  12.488   3.619   2.116  0.8439 -0.2584 -0.1637
  149MOL0     O20460  12.526   3.512   2.038  0.1603  1.2207  0.3579
  149MOL0     C20461  12.620   3.524   1.928  1.0632  0.4725 -1.0077
  149MOL0     C20462  12.537   3.555   1.800 -0.2992 -0.1084 -0.3107
  149MOL0     C20463  12.452   3.438   1.754 -0.1374  0.9234 -0.1191
  149MOL0     C20464  12.305   3.493   1.728  0.3797 -0.6463 -0.8796
  149MOL0     C20465  12.217   3.382   1.655  0.0733 -0.5223 -0.6637
  149MOL0     C20466  12.065   3.417   1.667  0.0866 -0.3352  0.5593
  149MOL0     C20467  11.989   3.313   1.572 -0.3997  0.7587  0.0866
  149MOL0     C20468  12.004   3.172   1.616  1.5777  0.3667  0.2763
  149MOL0    Cl20469  11.988   3.149   1.785  0.0694  0.0992 -0.1817
  149MOL0     C20470  12.378   3.587   2.202  0.0445 -0.3562  0.3587
  149MOL0     C20471  12.319   3.685   2.289  0.0351 -0.5563  1.1826
  149MOL0     O20472  12.388   4.074   2.525 -0.1894 -0.5817 -1.0051
  149MOL0     C20473  12.519   3.790   2.607 -0.3006 -0.5756  0.4522
  149MOL0     C20474  12.627   3.730   2.661  0.5591  0.0360 -0.2384
  149MOL0     N20475  12.641   3.227   3.062 -0.5113  0.4945  0.1737
  149MOL0     N20476  12.585   3.120   3.097 -0.0549 -0.5105 -1.0107
  149MOL0     C20477  11.380   2.818   2.896  0.1707  0.0929  0.0112
  149MOL0     C20478  11.325   2.692   2.849 -0.0297 -0.8619  1.6698
  149MOL0     C20479  11.337   2.292   2.576  0.6290 -0.6108  0.1891
  149MOL0     C20480  11.262   2.228   2.676 -0.4858  0.1602 -0.1705
  149MOL0     C20481  11.243   2.091   2.669  0.1386  0.3455 -0.6490
  149MOL0     C20482  11.280   2.022   2.556  0.0032  0.9922 -0.4467
  149MOL0     O20483  11.254   1.888   2.525  0.0655  0.5395 -0.6512
  149MOL0     C20484  11.295   1.795   2.630  0.2718  1.1798  0.2220
  149MOL0     C20485  11.236   1.657   2.606 -0.4478  0.6113  1.0446
  149MOL0     C20486  11.281   1.559   2.714  0.2337  0.6787 -0.0690
  149MOL0     C20487  11.233   1.410   2.677  0.3421 -0.1880 -0.4195
  149MOL0     C20488  11.093   1.372   2.693 -0.2062 -0.7864 -0.4023
  149MOL0     C20489  10.975   1.338   2.697 -0.5222  0.9213 -0.0454
  149MOL0     C20490  11.349   2.083   2.452  0.3761  0.4043 -0.5368
  149MOL0     C20491  11.385   2.221   2.464 -0.0911  0.1906  1.1478
  149MOL0     C20492  11.452   2.280   2.342  0.1220  0.4894  0.4470
  149MOL0     H20493  11.549   2.656   2.594 -1.1944  2.3336  0.3473
  149MOL0     H20494  11.617   2.864   2.647  0.2801  0.2270  0.1389
  149MOL0     H20495  11.635   2.893   3.066 -4.3789 -0.2130  1.9428
  149MOL0     H20496  11.518   3.017   3.078 -0.7719 -2.4983 -0.2291
  149MOL0     H20497  11.708   3.168   2.996 -2.7916 -0.9656 -0.9000
  149MOL0     H20498  11.751   3.088   3.146  1.1482 -1.6638  0.8700
  149MOL0     H20499  11.807   2.930   2.895  1.6573  1.1260 -1.5401
  149MOL0     H20500  11.869   3.091   2.886 -0.6467  0.0009  0.6475
  149MOL0     H20501  11.982   3.049   3.115  1.0437 -0.5713  0.8898
  149MOL0     H20502  11.959   2.882   3.084 -0.0760 -1.4650 -1.3589
  149MOL0     H20503  12.101   3.071   2.885  2.2854 -1.9815 -2.0724
  149MOL0     H20504  12.087   2.904   2.860 -0.9920 -0.3267 -0.2032
  149MOL0     H20505  12.233   3.041   3.094 -0.6206  2.6731 -1.9611
  149MOL0     H20506  12.232   2.863   3.065  1.4330  0.9497 -0.3598
  149MOL0     H20507  12.328   3.073   2.873 -0.7441  0.0774 -1.0713
  149MOL0     H20508  12.319   2.898   2.833  0.5946  0.4260  0.5024
  149MOL0     H20509  12.448   2.913   3.076 -1.0756 -0.4739 -0.8893
  149MOL0     H20510  12.525   2.870   2.921  0.0386 -1.9527  0.0676
  149MOL0     H20511  12.569   3.138   2.764  0.5504 -1.1115  0.2738
  149MOL0     H20512  12.689   3.461   2.942  2.2224  0.1027 -0.4291
  149MOL0     H20513  12.600   3.412   2.794 -1.4219 -1.9905  0.0211
  149MOL0     H20514  12.889   3.354   2.875  1.1270  0.7516 -1.8126
  149MOL0     H20515  12.813   3.271   2.743 -0.6065  1.6742 -3.3577
  149MOL0     H20516  12.931   3.454   2.657  2.7459 -2.1786  4.3478
  149MOL0     H20517  12.760   3.497   2.636 -0.7022 -2.3606  0.7860
  149MOL0     H20518  12.776   3.628   2.859  0.5377  0.4076  1.0750
  149MOL0     H20519  12.958   3.619   2.835  0.1634  2.7872 -1.9174
  149MOL0     H20520  12.858   3.939   2.526 -0.4437  1.4610 -2.1449
  149MOL0     H20521  12.724   4.152   2.475 -3.3585  0.7295  2.2362
  149MOL0     H20522  12.584   4.127   2.373 -0.9841 -1.4655  1.9439
  149MOL0     H20523  12.732   4.051   2.318 -1.5187  0.3349 -1.2638
  149MOL0     H20524  12.500   3.957   2.196 -1.3106  0.3889 -2.6689
  149MOL0     H20525  12.606   3.793   2.060 -0.3911  2.3618 -0.0618
  149MOL0     H20526  12.698   3.598   1.949  1.3225  0.3980 -1.6830
  149MOL0     H20527  12.680   3.436   1.907  3.1673  1.6422 -0.1847
  149MOL0     H20528  12.486   3.651   1.808 -0.7969 -0.3811 -0.1496
  149MOL0     H20529  12.605   3.572   1.717  2.4955 -1.1463  1.6019
  149MOL0     H20530  12.456   3.353   1.823  0.4975 -0.2619 -1.5596
  149MOL0     H20531  12.493   3.390   1.665 -2.7661 -0.7698 -0.5453
  149MOL0     H20532  12.305   3.581   1.662  3.3388 -0.9283 -1.4183
  149MOL0     H20533  12.261   3.520   1.824  4.6799 -1.1039  1.4544
  149MOL0     H20534  12.259   3.362   1.556 -0.0395 -0.0818 -0.8014
  149MOL0     H20535  12.232   3.286   1.706  0.5694 -1.3969 -2.3666
  149MOL0     H20536  12.054   3.513   1.615  0.5034 -0.3241  0.4841
  149MOL0     H20537  12.019   3.415   1.766  0.1679  0.6846  0.6219
  149MOL0     H20538  12.019   3.315   1.467  1.3446 -1.8650  0.4343
  149MOL0     H20539  11.885   3.346   1.577 -1.4970 -2.3257  0.0698
  149MOL0     H20540  12.097   3.121   1.588  0.8402 -0.3585 -0.8920
  149MOL0     H20541  11.925   3.115   1.568  2.3938 -3.1493  2.7140
  149MOL0     H20542  12.334   3.488   2.189  0.0882 -0.6193  1.9651
  149MOL0     H20543  12.241   3.648   2.355  0.2287  1.1868  2.4456
  149MOL0     H20544  12.422   3.743   2.616  0.3684 -2.3359 -0.9034
  149MOL0     H20545  12.622   3.639   2.720  0.5782  1.8922  2.8757
  149MOL0     H20546  11.327   2.866   2.977 -0.3648 -0.3974 -0.0330
  149MOL0     H20547  11.253   2.636   2.907  1.2939 -0.3346  3.9424
  149MOL0     H20548  11.213   2.286   2.754  2.2731  0.3364  1.5683
  149MOL0     H20549  11.168   2.057   2.741  3.4878  0.3683  3.1986
  149MOL0     H20550  11.401   1.770   2.626 -0.6464 -3.4315 -1.4143
  149MOL0     H20551  11.273   1.819   2.735 -2.2761  0.3606 -0.0511
  149MOL0     H20552  11.250   1.617   2.505 -1.7557  0.7359  0.7961
  149MOL0     H20553  11.129   1.676   2.615 -0.2530  1.1275  2.5887
  149MOL0     H20554  11.389   1.568   2.729  0.2026  0.4290  0.3133
  149MOL0     H20555  11.231   1.585   2.807 -2.0859  1.9603 -1.5624
  149MOL0     H20556  11.284   1.331   2.733  1.2399 -1.7749 -3.2554
  149MOL0     H20557  11.248   1.384   2.572  1.5467 -1.0194 -0.0521
  149MOL0     H20558  10.869   1.322   2.701 -0.1437 -3.1788 -1.4745
  149MOL0     H20559  11.370   2.025   2.363 -0.7120 -1.1483  0.1876
  149MOL0     H20560  11.374   2.304   2.269 -2.3884 -0.3524  2.7018
  149MOL0     H20561  11.512   2.369   2.366  0.9969 -0.0053  0.1269
  149MOL0     H20562  11.518   2.211   2.289 -1.7298  0.1173 -1.5048
  150MOL0     O20563   3.540   0.562   7.579 -0.1715  0.5814 -0.2832
  150MOL0     C20564   3.660   0.557   7.595  0.2837  0.3175 -0.5275
  150MOL0     O20565   3.725   0.564   7.719 -0.0065  0.1311 -0.5817
  150MOL0     C20566   3.643   0.572   7.843 -0.4468  1.0103 -0.1687
  150MOL0     C20567   3.673   0.658   7.952  0.6954 -1.2417 -0.6170
  150MOL0     C20568   3.608   0.653   8.076  0.5031 -0.0795 -0.2913
  150MOL0     C20569   3.508   0.560   8.102 -0.5313 -0.6387 -0.7848
  150MOL0     O20570   3.431   0.558   8.215  0.3103 -0.4218 -0.7434
  150MOL0     C20571   3.423   0.446   8.297  0.1619  0.4613  0.0156
  150MOL0     C20572   3.290   0.405   8.353 -1.1998  0.1371  0.0303
  150MOL0     C20573   3.300   0.278   8.431 -0.7473  1.1071 -0.1237
  150MOL0     C20574   3.315   0.149   8.348  0.4986 -0.1418  0.2781
  150MOL0     C20575   3.293   0.024   8.430  0.8149  0.9279  0.7602
  150MOL0     C20576   3.384  -0.091   8.373  0.3724 -0.4025 -0.3640
  150MOL0     C20577   3.364  -0.227   8.424  0.2904  0.1856  0.5068
  150MOL0     C20578   3.479  -0.319   8.408 -0.3944  0.3199 -0.1488
  150MOL0     N20579   3.439  -0.455   8.462 -0.1182  0.0569 -0.9791
  150MOL0     C20580   3.445  -0.470   8.605 -0.3122  0.7098 -0.0125
  150MOL0     C20581   3.444  -0.605   8.613 -0.3441  1.0098 -0.9167
  150MOL0     C20582   3.444  -0.665   8.755 -0.2112  0.7022  0.3116
  150MOL0     C20583   3.514  -0.793   8.768  0.4574  0.2390 -0.7365
  150MOL0     C20584   3.484  -0.852   8.911 -0.6491  0.4090 -0.2631
  150MOL0     C20585   3.567  -0.975   8.928  0.1920  0.4582 -0.8428
  150MOL0     O20586   3.523  -1.053   9.039 -0.3767  0.3854  0.4593
  150MOL0     C20587   3.428  -1.155   9.039  0.1701 -0.2582  0.9019
  150MOL0     C20588   3.325  -1.155   8.940 -0.1519  0.3479 -0.7561
  150MOL0     C20589   3.243  -1.258   8.929  0.8882  0.1155  0.1147
  150MOL0     C20590   3.137  -1.256   8.811  0.2480  0.1396  0.2107
  150MOL0     C20591   3.236  -1.360   9.029 -0.0507 -0.7819 -0.0610
  150MOL0     C20592   3.138  -1.470   9.009 -1.0006 -0.2017  0.4217
  150MOL0     O20593   3.021  -1.469   9.081 -0.7149 -0.8926  0.6550
  150MOL0     C20594   2.928  -1.571   9.056  1.5893 -0.4721 -0.3729
  150MOL0     C20595   2.805  -1.555   8.991 -0.2693 -0.3540  0.5355
  150MOL0     C20596   2.712  -1.669   8.977 -0.0764 -0.5552 -0.4107
  150MOL0     C20597   2.749  -1.791   9.032  0.2662  1.0600 -0.0263
  150MOL0     O20598   2.657  -1.894   9.016 -1.0574  0.0172 -0.0355
  150MOL0     C20599   2.711  -2.026   9.035  0.7923 -0.4160 -0.9521
  150MOL0     C20600   2.636  -2.138   8.955 -0.4256 -0.1814 -0.6883
  150MOL0     C20601   2.660  -2.128   8.803 -0.5239  0.6699  0.2532
  150MOL0     C20602   2.538  -2.175   8.720 -1.1045 -0.1111 -0.0244
  150MOL0     C20603   2.555  -2.162   8.566  0.5165 -0.4454 -0.1311
  150MOL0     C20604   2.450  -2.236   8.495 -0.5361  0.9003  1.0265
  150MOL0     C20605   2.457  -2.194   8.345 -0.0355 -0.1815 -0.3457
  150MOL0     C20606   2.316  -2.215   8.280 -0.2967 -0.4808  0.3701
  150MOL0    Cl20607   2.182  -2.115   8.342 -0.0664 -0.4527  0.4032
  150MOL0     C20608   2.862  -1.792   9.113 -0.8058 -0.1355 -0.8906
  150MOL0     C20609   2.954  -1.688   9.127  0.2514 -0.8686  0.2047
  150MOL0     O20610   3.166  -1.541   8.913 -0.1767 -0.1782 -0.0762
  150MOL0     C20611   3.334  -1.354   9.128 -0.4058 -0.0510  0.6149
  150MOL0     C20612   3.426  -1.257   9.135 -0.4141  0.4257  0.1761
  150MOL0     N20613   3.429  -0.667   8.493  0.7763 -0.5037  0.3599
  150MOL0     N20614   3.423  -0.573   8.400 -0.0656  0.3118 -0.5561
  150MOL0     C20615   3.481   0.473   7.997 -0.2242  0.1779 -1.0375
  150MOL0     C20616   3.547   0.471   7.873  0.2962 -0.5909 -1.1680
  150MOL0     C20617   3.747   0.543   7.475  0.3492  0.1331 -0.9371
  150MOL0     C20618   3.866   0.469   7.478  0.5420 -0.8740  0.2934
  150MOL0     C20619   3.960   0.447   7.374 -0.4362 -0.2008  0.0804
  150MOL0     C20620   3.934   0.495   7.251 -0.3268 -0.5257  0.0882
  150MOL0     O20621   4.023   0.464   7.152 -0.0517  0.0050 -0.5075
  150MOL0     C20622   3.988   0.497   7.016 -0.0100 -0.1047 -0.1314
  150MOL0     C20623   3.890   0.387   6.966 -1.0893  0.4921  0.3349
  150MOL0     C20624   3.873   0.379   6.808  0.2732  0.4692  0.2600
  150MOL0     C20625   3.987   0.318   6.732 -0.1954  0.2312 -0.0820
  150MOL0     C20626   3.984   0.332   6.586 -0.7050  0.5364  0.9993
  150MOL0     C20627   3.999   0.367   6.473 -0.1430 -0.1049 -0.5113
  150MOL0     C20628   3.819   0.573   7.240  0.7278 -0.1519  0.0026
  150MOL0     C20629   3.719   0.590   7.344  0.6163 -0.3757  0.0198
  150MOL0     C20630   3.595   0.675   7.311  0.3395  0.3037 -0.0971
  150MOL0     H20631   3.732   0.748   7.953  2.5054 -2.3843  0.9321
  150MOL0     H20632   3.626   0.735   8.145  2.4107  0.2713 -1.1599
  150MOL0     H20633   3.488   0.460   8.384 -0.2206 -2.0989  0.8073
  150MOL0     H20634   3.446   0.353   8.246 -2.3041 -0.2628  0.0689
  150MOL0     H20635   3.235   0.480   8.410  0.0107 -1.8630  4.1820
  150MOL0     H20636   3.231   0.375   8.265 -0.8343 -2.5678  0.6171
  150MOL0     H20637   3.393   0.275   8.489 -1.6459  0.1324  1.3280
  150MOL0     H20638   3.221   0.270   8.506  0.2111  0.9584  0.8969
  150MOL0     H20639   3.230   0.145   8.279 -0.0753  0.0153  0.9739
  150MOL0     H20640   3.402   0.138   8.282  0.8918 -2.7642  1.1430
  150MOL0     H20641   3.188  -0.006   8.431  0.2538  2.1696 -3.1729
  150MOL0     H20642   3.320   0.047   8.534 -0.8312  0.1645  1.3938
  150MOL0     H20643   3.376  -0.089   8.264  0.6874  0.9521 -0.3735
  150MOL0     H20644   3.483  -0.055   8.403 -0.1675  1.4952 -0.7208
  150MOL0     H20645   3.271  -0.268   8.385 -1.2765  2.4241  1.6047
  150MOL0     H20646   3.350  -0.216   8.532  1.3699  0.2215  0.6507
  150MOL0     H20647   3.503  -0.322   8.301 -1.4161 -0.3292 -0.3721
  150MOL0     H20648   3.565  -0.279   8.464 -1.6610  1.4783  1.0687
  150MOL0     H20649   3.464  -0.386   8.671 -0.3066  2.6574 -2.3154
  150MOL0     H20650   3.340  -0.692   8.772  0.5807 -3.0059  0.1171
  150MOL0     H20651   3.478  -0.594   8.831 -0.6464  1.1688  0.0769
  150MOL0     H20652   3.469  -0.858   8.693 -1.1372  1.2220 -0.6680
  150MOL0     H20653   3.621  -0.769   8.758  0.4384  2.2430  2.4503
  150MOL0     H20654   3.510  -0.784   8.993 -3.0443  0.2035  0.7596
  150MOL0     H20655   3.380  -0.878   8.935 -0.1375 -0.9398  0.6340
  150MOL0     H20656   3.564  -1.033   8.836 -1.0190  0.8217 -1.0529
  150MOL0     H20657   3.668  -0.940   8.949  1.1442 -2.4401 -0.2090
  150MOL0     H20658   3.333  -1.085   8.858  0.6020  2.9132  1.3744
  150MOL0     H20659   3.166  -1.328   8.733 -0.7753  1.6999 -1.6753
  150MOL0     H20660   3.129  -1.156   8.769  4.6758  0.2425 -0.9632
  150MOL0     H20661   3.044  -1.289   8.858  1.0618  0.2740  2.0078
  150MOL0     H20662   2.777  -1.456   8.957  1.7089 -0.5128 -1.8408
  150MOL0     H20663   2.616  -1.672   8.928 -1.1955 -2.2003  1.7027
  150MOL0     H20664   2.816  -2.021   9.005  0.9434  0.6396 -0.2860
  150MOL0     H20665   2.700  -2.058   9.139 -1.7337 -0.3237 -1.1239
  150MOL0     H20666   2.664  -2.237   8.992  2.5541 -0.7534 -3.8538
  150MOL0     H20667   2.534  -2.108   8.978 -0.7803  0.7784 -3.2246
  150MOL0     H20668   2.753  -2.178   8.776 -0.6296  1.6469 -2.2306
  150MOL0     H20669   2.676  -2.022   8.781 -0.0929  0.7809  1.0578
  150MOL0     H20670   2.450  -2.114   8.740  0.2034  2.3690 -1.2724
  150MOL0     H20671   2.506  -2.272   8.758  2.0298 -1.0246  0.5418
  150MOL0     H20672   2.559  -2.058   8.532 -0.5191 -0.6554 -0.9585
  150MOL0     H20673   2.649  -2.202   8.526  1.8030  2.6722 -0.4927
  150MOL0     H20674   2.352  -2.220   8.540 -0.8418 -1.6400  1.4299
  150MOL0     H20675   2.469  -2.344   8.501  0.5174  0.6451 -3.2797
  150MOL0     H20676   2.532  -2.255   8.295 -0.9811 -1.1738 -0.5862
  150MOL0     H20677   2.496  -2.092   8.335 -0.5214 -0.1194 -1.7660
  150MOL0     H20678   2.280  -2.318   8.288 -0.6127 -0.4844 -0.8667
  150MOL0     H20679   2.319  -2.214   8.171 -0.6255 -2.9660  0.2696
  150MOL0     H20680   2.890  -1.877   9.174 -1.6888  0.3798  0.2743
  150MOL0     H20681   3.040  -1.697   9.192  2.4912 -0.8802 -2.5749
  150MOL0     H20682   3.329  -1.438   9.195 -0.8520 -0.9599 -0.5144
  150MOL0     H20683   3.494  -1.262   9.220 -0.3566 -2.3193  0.0635
  150MOL0     H20684   3.408   0.397   8.023  0.0072  0.1797 -0.3710
  150MOL0     H20685   3.501   0.401   7.804 -4.0700  0.6133  0.2024
  150MOL0     H20686   3.905   0.445   7.577  2.3595  0.6645  0.0066
  150MOL0     H20687   4.046   0.385   7.395  0.5049  1.1229  0.2636
  150MOL0     H20688   3.955   0.600   7.000  0.3505 -0.1231 -1.0813
  150MOL0     H20689   4.081   0.484   6.959 -0.0150  1.7314 -0.6080
  150MOL0     H20690   3.793   0.410   7.011 -2.3396  0.5558 -2.2445
  150MOL0     H20691   3.929   0.292   7.006 -0.2526  1.2957  1.5067
  150MOL0     H20692   3.776   0.329   6.797 -0.1577  0.9172  1.8000
  150MOL0     H20693   3.863   0.483   6.776  0.5905  1.3941  2.9063
  150MOL0     H20694   3.984   0.214   6.766 -0.7068 -0.2410 -1.4787
  150MOL0     H20695   4.082   0.363   6.761 -0.9316  1.3939  0.5893
  150MOL0     H20696   3.997   0.403   6.372  2.0950  3.6520  0.5665
  150MOL0     H20697   3.808   0.627   7.146  0.8098 -3.9049 -2.4074
  150MOL0     H20698   3.568   0.750   7.386 -1.7370  0.4021 -0.8748
  150MOL0     H20699   3.631   0.739   7.230  1.5635  0.5200  0.5901
  150MOL0     H20700   3.503   0.624   7.280  0.2093  0.9454 -0.7876
  151MOL0     O20701   4.725   0.941  11.342 -1.3395  0.1277  0.3285
  151MOL0     C20702   4.636   1.016  11.362 -1.0690 -0.0136  0.4029
  151MOL0     O20703   4.529   0.996  11.448 -0.7886  0.3528 -1.0725
  151MOL0     C20704   4.483   0.870  11.495 -0.3111  0.4503  0.1480
  151MOL0     C20705   4.515   0.742  11.449 -0.1287 -0.3898  0.4208
  151MOL0     C20706   4.453   0.625  11.508  0.2086 -0.2636 -0.1168
  151MOL0     C20707   4.371   0.642  11.621 -0.2489  1.1099  0.1840
  151MOL0     O20708   4.296   0.532  11.671  0.5050  0.1365  0.3082
  151MOL0     C20709   4.329   0.395  11.630  0.0519  0.8322 -0.3677
  151MOL0     C20710   4.228   0.298  11.698 -0.4720 -0.2669 -0.4803
  151MOL0     C20711   4.215   0.166  11.637 -1.2649  0.1431 -0.9345
  151MOL0     C20712   4.187   0.041  11.718 -0.6978  0.1224 -0.7691
  151MOL0     C20713   4.308   0.004  11.812  0.2339 -1.0103  0.8446
  151MOL0     C20714   4.441  -0.005  11.749 -1.1909  1.2208  0.4487
  151MOL0     C20715   4.553  -0.040  11.851 -0.6523  0.9393 -0.7595
  151MOL0     C20716   4.632   0.087  11.905  0.2135 -0.4058  0.0894
  151MOL0     N20717   4.708   0.152  11.794  0.2392  1.1303 -0.3706
  151MOL0     C20718   4.798   0.089  11.711  0.0428  0.5278 -0.1890
  151MOL0     C20719   4.842   0.191  11.635 -0.1764  0.3995 -0.1236
  151MOL0     C20720   4.942   0.184  11.528 -0.2565  0.1382  0.5524
  151MOL0     C20721   4.907   0.079  11.418 -0.1579 -0.3921 -0.7887
  151MOL0     C20722   4.984  -0.055  11.424 -0.1692  0.0302  0.1548
  151MOL0     C20723   5.125  -0.038  11.371 -0.8189  0.0115 -0.5157
  151MOL0     O20724   5.205  -0.155  11.394  0.1793 -0.0921 -0.0291
  151MOL0     C20725   5.339  -0.129  11.377 -0.5101  0.0806 -0.6027
  151MOL0     C20726   5.408  -0.068  11.482 -0.1173  0.4172 -0.5300
  151MOL0     C20727   5.545  -0.057  11.487  0.0611  0.2894 -0.1919
  151MOL0     C20728   5.599   0.018  11.599 -0.4779  0.0116 -0.8761
  151MOL0     C20729   5.627  -0.109  11.380  0.5831 -0.2051 -0.2731
  151MOL0     C20730   5.773  -0.105  11.375  0.4180 -0.2568 -0.3572
  151MOL0     O20731   5.821  -0.126  11.249 -0.1255  0.3771  0.1317
  151MOL0     C20732   5.961  -0.102  11.240 -0.0137  0.3968  0.2267
  151MOL0     C20733   6.057  -0.170  11.322 -0.0985 -0.7226  0.2950
  151MOL0     C20734   6.189  -0.143  11.308 -0.3422 -0.1991  0.2934
  151MOL0     C20735   6.247  -0.061  11.207  0.2076  0.4881 -0.2631
  151MOL0     O20736   6.385  -0.064  11.191 -0.0820 -0.3252  0.5457
  151MOL0     C20737   6.445   0.057  11.127  0.2880 -0.3736 -0.1440
  151MOL0     C20738   6.591   0.041  11.108 -0.8753  0.9551 -0.2599
  151MOL0     C20739   6.643  -0.106  11.089 -0.7858  0.4077  0.4993
  151MOL0     C20740   6.795  -0.111  11.058  0.0136 -0.3511 -0.7149
  151MOL0     C20741   6.824  -0.249  11.004 -0.6260 -0.5181  0.1534
  151MOL0     C20742   6.982  -0.264  10.994 -0.3123  0.1745  1.1915
  151MOL0     C20743   7.048  -0.174  10.884 -0.1581 -0.3816 -0.0480
  151MOL0     C20744   7.173  -0.240  10.836  0.0097  0.3689  0.7829
  151MOL0    Cl20745   7.260  -0.130  10.722 -0.0427  0.0408  0.3468
  151MOL0     C20746   6.158  -0.002  11.123 -0.2860  0.0565 -0.4774
  151MOL0     C20747   6.016  -0.016  11.139  0.2778  0.4973 -0.4441
  151MOL0     O20748   5.836  -0.062  11.468  0.4569  0.9592  0.4338
  151MOL0     C20749   5.551  -0.170  11.271 -0.2131 -0.6270  0.4148
  151MOL0     C20750   5.411  -0.181  11.273  0.0214  0.3008 -0.1268
  151MOL0     N20751   4.765   0.306  11.659  0.3644  0.3514  0.3877
  151MOL0     N20752   4.682   0.277  11.744 -0.7955 -0.5268  0.0119
  151MOL0     C20753   4.331   0.770  11.654 -0.3995  0.0200  0.5001
  151MOL0     C20754   4.384   0.878  11.595 -1.0398  0.4935 -0.1323
  151MOL0     C20755   4.651   1.144  11.293  0.6764  0.5786 -0.3707
  151MOL0     C20756   4.772   1.186  11.236  0.0196 -0.5822 -0.9226
  151MOL0     C20757   4.785   1.303  11.164 -0.2205 -1.1454  0.0327
  151MOL0     C20758   4.676   1.380  11.141 -1.5979  0.4576 -0.8033
  151MOL0     O20759   4.693   1.484  11.049 -0.5338 -0.1499  0.0205
  151MOL0     C20760   4.616   1.598  11.072 -0.2034 -0.7857 -1.1122
  151MOL0     C20761   4.659   1.718  10.982 -0.0561  0.6895  0.3123
  151MOL0     C20762   4.555   1.827  10.947 -0.5567  0.1271  0.1147
  151MOL0     C20763   4.471   1.877  11.062 -0.5089  0.4801  0.3817
  151MOL0     C20764   4.372   1.974  11.007  0.3875 -0.0817 -0.6048
  151MOL0     C20765   4.292   2.050  10.954  0.0607  0.2871 -0.2852
  151MOL0     C20766   4.551   1.341  11.198  0.4004 -0.2933  0.1940
  151MOL0     C20767   4.537   1.227  11.270  0.5141  0.4861  0.2095
  151MOL0     C20768   4.400   1.193  11.321  0.2147 -0.2177  0.1628
  151MOL0     H20769   4.591   0.718  11.375 -1.2981 -2.5620 -0.1703
  151MOL0     H20770   4.488   0.531  11.467  2.5951  1.7334 -3.1632
  151MOL0     H20771   4.428   0.363  11.662 -0.2214  0.4695  0.1368
  151MOL0     H20772   4.315   0.396  11.522  1.3381  1.6251 -0.5523
  151MOL0     H20773   4.268   0.289  11.800  1.2327  2.0728 -0.8721
  151MOL0     H20774   4.131   0.348  11.688 -2.0544 -3.1760 -0.8711
  151MOL0     H20775   4.134   0.167  11.563 -1.6827 -0.3934 -0.4948
  151MOL0     H20776   4.300   0.151  11.569 -0.2759 -0.0430  0.3064
  151MOL0     H20777   4.107   0.061  11.790  1.1931 -1.3836  1.9714
  151MOL0     H20778   4.159  -0.041  11.652  1.6262 -2.7441  1.5183
  151MOL0     H20779   4.287  -0.095  11.852 -2.5537 -2.0614 -2.6402
  151MOL0     H20780   4.316   0.083  11.887 -2.4707  2.6924 -2.3258
  151MOL0     H20781   4.451  -0.077  11.667 -0.3002  2.8362 -0.8916
  151MOL0     H20782   4.465   0.088  11.697 -0.5836  0.4128 -0.7592
  151MOL0     H20783   4.622  -0.116  11.813 -0.3653  1.6632 -1.7257
  151MOL0     H20784   4.499  -0.089  11.933 -2.2337 -0.5085 -2.5701
  151MOL0     H20785   4.564   0.159  11.953 -0.1128  2.3607 -3.9582
  151MOL0     H20786   4.701   0.045  11.979  0.0707  0.4330  0.7191
  151MOL0     H20787   4.840  -0.011  11.704 -0.9416  0.0377  0.7760
  151MOL0     H20788   5.035   0.172  11.584  0.5080 -0.4346 -0.7998
  151MOL0     H20789   4.944   0.284  11.483 -1.8704  0.8434  1.9320
  151MOL0     H20790   4.799   0.059  11.412 -0.4058  0.2891  1.0067
  151MOL0     H20791   4.938   0.133  11.328  2.6115  1.6057  1.2070
  151MOL0     H20792   4.988  -0.095  11.526  0.3178  0.6832  0.3979
  151MOL0     H20793   4.934  -0.131  11.363  0.0448  0.4864 -0.5912
  151MOL0     H20794   5.114  -0.025  11.262 -1.5160 -0.1333 -0.4683
  151MOL0     H20795   5.175   0.049  11.415  1.5041 -2.1633  1.4782
  151MOL0     H20796   5.343  -0.029  11.560 -1.3610 -3.7373  0.7733
  151MOL0     H20797   5.631  -0.040  11.685 -0.0722 -0.8967 -1.6236
  151MOL0     H20798   5.531   0.094  11.639 -1.6597 -0.7003 -1.4796
  151MOL0     H20799   5.688   0.076  11.573  1.5665 -2.8109 -0.5824
  151MOL0     H20800   6.018  -0.239  11.396  2.7607 -1.1767  1.5388
  151MOL0     H20801   6.257  -0.198  11.373  0.9307  0.2914 -0.5893
  151MOL0     H20802   6.408   0.080  11.027 -0.1989 -1.0211 -0.1138
  151MOL0     H20803   6.428   0.140  11.197 -2.0990 -1.1547  0.2673
  151MOL0     H20804   6.619   0.079  11.009 -0.7840 -3.1495 -2.0321
  151MOL0     H20805   6.645   0.090  11.190 -1.2369 -3.0425  2.7053
  151MOL0     H20806   6.599  -0.139  10.995  3.9433  1.5049 -2.4271
  151MOL0     H20807   6.631  -0.169  11.178  0.8360  0.4627  0.7998
  151MOL0     H20808   6.844  -0.083  11.152  0.1092 -1.1793 -0.5093
  151MOL0     H20809   6.820  -0.026  10.994  1.3144 -1.3107 -1.5106
  151MOL0     H20810   6.793  -0.329  11.072  0.6770 -0.0759  1.3203
  151MOL0     H20811   6.779  -0.271  10.907  0.6705  0.1834 -0.6363
  151MOL0     H20812   7.004  -0.362  10.951  2.5014  1.9682 -1.9751
  151MOL0     H20813   7.031  -0.261  11.092 -0.8013 -3.2119  1.6565
  151MOL0     H20814   7.067  -0.072  10.918 -0.6013 -0.2510 -0.1914
  151MOL0     H20815   6.984  -0.164  10.796  1.4038  2.0992 -1.0022
  151MOL0     H20816   7.171  -0.338  10.787 -0.3548  1.0611 -0.6308
  151MOL0     H20817   7.249  -0.254  10.914  0.1169  0.5910  0.7191
  151MOL0     H20818   6.200   0.053  11.039 -2.4293 -1.6400 -2.8001
  151MOL0     H20819   5.946   0.024  11.066  2.7409 -0.7643 -3.7574
  151MOL0     H20820   5.593  -0.232  11.193 -2.5860  0.3321 -1.7651
  151MOL0     H20821   5.364  -0.231  11.189  0.5475  1.2506 -1.0147
  151MOL0     H20822   4.260   0.785  11.735  2.0793 -0.9488  3.0328
  151MOL0     H20823   4.355   0.973  11.640 -0.2638  1.3819 -1.4479
  151MOL0     H20824   4.857   1.120  11.252  0.3225  0.3083  1.6541
  151MOL0     H20825   4.864   1.338  11.098 -1.6438 -0.7329 -1.5124
  151MOL0     H20826   4.512   1.570  11.055 -0.0065 -2.3197  0.0407
  151MOL0     H20827   4.628   1.635  11.174  3.5250  1.9351 -2.3271
  151MOL0     H20828   4.696   1.679  10.886  0.0738  0.0399  0.6216
  151MOL0     H20829   4.735   1.771  11.040 -1.5821  2.2440  0.9718
  151MOL0     H20830   4.613   1.909  10.901  2.9627 -0.0333  3.6992
  151MOL0     H20831   4.480   1.787  10.878 -0.1525 -0.3147 -0.0770
  151MOL0     H20832   4.538   1.937  11.126  0.4297  1.7055 -1.6457
  151MOL0     H20833   4.413   1.805  11.120  0.6220  1.6171  3.0957
  151MOL0     H20834   4.216   2.096  10.895  0.1456 -1.7782 -2.1224
  151MOL0     H20835   4.461   1.398  11.176 -0.2015  0.2349  3.4860
  151MOL0     H20836   4.323   1.264  11.287  2.9159  3.5152  1.1304
  151MOL0     H20837   4.370   1.093  11.289  1.4910 -0.7084  0.4544
  151MOL0     H20838   4.406   1.203  11.429  2.3148 -1.3840  0.2034
  152MOL0     O20839   0.990   3.876   7.933  1.0403 -0.1161 -0.1431
  152MOL0     C20840   0.880   3.904   7.970 -0.3125 -0.5876 -0.4752
  152MOL0     O20841   0.786   3.805   8.008 -0.9972 -0.7399 -0.7607
  152MOL0     C20842   0.789   3.673   7.954 -0.3856 -0.5508 -0.1491
  152MOL0     C20843   0.712   3.572   8.013 -1.1002  0.3755  0.1198
  152MOL0     C20844   0.704   3.441   7.969 -0.2642  0.5195 -0.7636
  152MOL0     C20845   0.779   3.395   7.858 -0.0014  0.2470  0.2361
  152MOL0     O20846   0.766   3.264   7.814  0.3813  0.0832  0.1438
  152MOL0     C20847   0.847   3.210   7.709  0.6625  0.5307 -1.3229
  152MOL0     C20848   0.988   3.209   7.759  0.8339 -0.5670  0.6308
  152MOL0     C20849   1.085   3.150   7.646  1.1294  0.2283 -0.1383
  152MOL0     C20850   1.208   3.223   7.636 -0.2601 -0.0956  0.1584
  152MOL0     C20851   1.296   3.180   7.752 -0.1155 -0.8031 -0.1481
  152MOL0     C20852   1.422   3.260   7.741 -1.3013  0.4392 -0.3832
  152MOL0     C20853   1.536   3.202   7.826  0.2375  0.2652  0.3218
  152MOL0     C20854   1.658   3.302   7.834 -0.6879 -0.3484  0.5395
  152MOL0     N20855   1.749   3.239   7.937 -0.8912  0.2666  0.0409
  152MOL0     C20856   1.857   3.152   7.905  0.7688 -0.4673 -0.3239
  152MOL0     C20857   1.892   3.116   8.030 -0.0334 -0.6751  0.0256
  152MOL0     C20858   2.016   3.036   8.062 -0.9300  0.3585  0.0409
  152MOL0     C20859   2.060   3.049   8.205 -0.2191  0.2344 -0.7758
  152MOL0     C20860   2.165   2.951   8.253 -0.1139 -0.4556  0.7010
  152MOL0     C20861   2.288   2.953   8.176  0.8272  0.0484  1.0810
  152MOL0     O20862   2.282   2.858   8.068 -0.6561 -0.1472  0.1205
  152MOL0     C20863   2.318   2.734   8.104 -0.0502  0.5995  0.4334
  152MOL0     C20864   2.343   2.646   7.997  0.4047 -0.3677 -0.1624
  152MOL0     C20865   2.406   2.521   8.011 -0.5923 -0.6503 -0.9792
  152MOL0     C20866   2.423   2.446   7.887  0.1285  0.1159  0.0107
  152MOL0     C20867   2.434   2.476   8.141  0.0078  0.7841 -0.5104
  152MOL0     C20868   2.504   2.355   8.169  0.5430  0.4762 -0.8969
  152MOL0     O20869   2.476   2.298   8.297 -0.1195 -0.6167  0.8015
  152MOL0     C20870   2.581   2.238   8.353  0.6544 -0.6813 -0.4323
  152MOL0     C20871   2.546   2.129   8.430 -0.1575  0.2089 -0.6760
  152MOL0     C20872   2.644   2.055   8.500  0.0934  0.7861  0.2189
  152MOL0     C20873   2.778   2.077   8.490  0.6636 -1.5442  0.7084
  152MOL0     O20874   2.875   1.999   8.551  0.6843  0.6404  0.2666
  152MOL0     C20875   2.859   1.854   8.548  0.3432  0.5146 -0.0102
  152MOL0     C20876   3.002   1.800   8.529 -0.8150 -0.2172 -0.2106
  152MOL0     C20877   3.003   1.652   8.545 -0.7583 -0.2386  0.4524
  152MOL0     C20878   3.143   1.588   8.536  0.4408 -0.8940 -0.8317
  152MOL0     C20879   3.126   1.432   8.553 -0.0766 -0.1684 -0.0036
  152MOL0     C20880   3.249   1.353   8.587 -0.5391 -0.9223  0.7209
  152MOL0     C20881   3.284   1.359   8.736 -0.2681  0.4328  0.5931
  152MOL0     C20882   3.434   1.348   8.766  0.5050 -0.5956  0.0039
  152MOL0    Cl20883   3.509   1.220   8.661  0.1666 -0.0194  0.4424
  152MOL0     C20884   2.805   2.203   8.422 -0.1923 -0.4974  0.1772
  152MOL0     C20885   2.713   2.279   8.347  0.8822 -0.0839  0.4719
  152MOL0     O20886   2.582   2.310   8.091  0.7097 -0.2494  0.3445
  152MOL0     C20887   2.402   2.557   8.249  0.1224 -0.6176  0.2143
  152MOL0     C20888   2.344   2.687   8.235 -0.5818 -0.4556  0.0045
  152MOL0     N20889   1.810   3.167   8.134  0.0737 -0.8685 -0.2964
  152MOL0     N20890   1.726   3.242   8.071  0.0986 -0.2815 -0.2658
  152MOL0     C20891   0.860   3.496   7.799  0.0567 -0.7800  1.2755
  152MOL0     C20892   0.859   3.638   7.833  0.3561  0.3538 -0.1040
  152MOL0     C20893   0.852   4.049   7.991  0.3044 -0.2382  0.2189
  152MOL0     C20894   0.899   4.149   7.905  1.1811  1.2698  0.3972
  152MOL0     C20895   0.906   4.283   7.937 -1.6070  0.3579  0.0031
  152MOL0     C20896   0.859   4.318   8.063  0.3030 -0.8439  0.8456
  152MOL0     O20897   0.860   4.453   8.102 -0.2747  0.3151  0.1457
  152MOL0     C20898   0.764   4.543   8.042 -0.0074 -0.4145 -0.3286
  152MOL0     C20899   0.829   4.681   8.018 -0.7966  0.5039  0.2329
  152MOL0     C20900   0.970   4.672   7.956 -0.8728 -0.5878 -0.1830
  152MOL0     C20901   1.035   4.812   7.928  0.9624  1.0621 -0.9383
  152MOL0     C20902   0.969   4.891   7.825 -0.8987  0.1875 -0.6035
  152MOL0     C20903   0.916   4.955   7.735 -0.6748 -0.5741  0.1262
  152MOL0     C20904   0.817   4.221   8.157 -0.3145  0.3297 -0.1036
  152MOL0     C20905   0.796   4.091   8.115  0.5454 -0.5571 -0.3478
  152MOL0     C20906   0.729   4.004   8.212 -0.3369  0.6397 -0.7148
  152MOL0     H20907   0.667   3.593   8.109 -1.1910  2.5412 -0.3513
  152MOL0     H20908   0.644   3.365   8.018  0.6045 -0.0953 -0.6317
  152MOL0     H20909   0.830   3.271   7.621 -2.0849 -2.0683 -2.7840
  152MOL0     H20910   0.793   3.115   7.698  2.1370 -0.2675 -2.0532
  152MOL0     H20911   1.026   3.307   7.791 -0.3671  0.7050 -1.5699
  152MOL0     H20912   1.005   3.145   7.845  1.4687  1.7082  2.3087
  152MOL0     H20913   1.091   3.043   7.666  0.1592 -0.0382 -1.1757
  152MOL0     H20914   1.028   3.145   7.552  2.1460 -1.9644 -0.6897
  152MOL0     H20915   1.248   3.182   7.543 -2.6756 -1.1003 -0.5194
  152MOL0     H20916   1.191   3.331   7.631  1.1141  0.1227 -0.1723
  152MOL0     H20917   1.307   3.072   7.740  1.8024 -0.8088  1.1864
  152MOL0     H20918   1.246   3.202   7.847  0.5895 -0.1976  0.0967
  152MOL0     H20919   1.472   3.255   7.644 -0.4904 -0.4026  0.0698
  152MOL0     H20920   1.406   3.361   7.780 -0.5004 -0.3592  2.1935
  152MOL0     H20921   1.554   3.100   7.791 -1.8362  0.4153 -1.3828
  152MOL0     H20922   1.508   3.186   7.931 -1.1581  0.6405  0.0387
  152MOL0     H20923   1.702   3.326   7.737 -0.0810  1.7578  1.2861
  152MOL0     H20924   1.638   3.401   7.878  3.5058  0.9998 -0.1934
  152MOL0     H20925   1.902   3.122   7.812  0.3237  0.7241 -0.9445
  152MOL0     H20926   2.102   3.067   8.003  0.8259 -0.0693  2.2335
  152MOL0     H20927   1.989   2.932   8.042  3.1545 -1.1867  1.5121
  152MOL0     H20928   2.110   3.146   8.213 -1.7143  0.9629  0.2077
  152MOL0     H20929   1.969   3.041   8.265  1.7412  1.4415  2.6117
  152MOL0     H20930   2.187   2.983   8.356  0.5977 -0.9377  0.7054
  152MOL0     H20931   2.120   2.852   8.250 -0.9635 -0.0636  0.1160
  152MOL0     H20932   2.304   3.045   8.118  0.4316  0.2085  1.2213
  152MOL0     H20933   2.368   2.946   8.250 -0.9005 -1.2052  2.9199
  152MOL0     H20934   2.339   2.692   7.898  2.5680 -0.3626 -0.2980
  152MOL0     H20935   2.521   2.472   7.846 -0.4769  2.2705 -0.2034
  152MOL0     H20936   2.352   2.470   7.808  0.8828 -0.5667 -0.9007
  152MOL0     H20937   2.424   2.339   7.911  4.6608 -0.0361  0.0313
  152MOL0     H20938   2.443   2.102   8.449  0.6376 -0.9031  2.5075
  152MOL0     H20939   2.617   1.959   8.544  0.9211 -1.5025 -3.7655
  152MOL0     H20940   2.805   1.823   8.637 -0.9748 -0.3134 -1.0597
  152MOL0     H20941   2.796   1.823   8.465 -0.4608  3.6462 -0.6967
  152MOL0     H20942   3.033   1.835   8.431 -0.6862 -0.2953 -0.1967
  152MOL0     H20943   3.074   1.837   8.603 -0.5692  0.0473 -0.5796
  152MOL0     H20944   2.959   1.620   8.450 -0.9647 -0.8689  0.7617
  152MOL0     H20945   2.950   1.609   8.630  0.8149 -1.4143  0.8742
  152MOL0     H20946   3.194   1.636   8.620 -0.3891 -1.2584 -0.1023
  152MOL0     H20947   3.196   1.615   8.444  3.6342  2.6240  1.7377
  152MOL0     H20948   3.050   1.406   8.626  2.0577 -0.8485  2.1162
  152MOL0     H20949   3.087   1.393   8.458  0.1321  0.1146 -0.2083
  152MOL0     H20950   3.333   1.380   8.523  0.3265 -1.2855  1.6712
  152MOL0     H20951   3.235   1.246   8.569 -0.1151 -1.2278  2.0949
  152MOL0     H20952   3.232   1.279   8.789 -2.7952 -0.5629 -3.0073
  152MOL0     H20953   3.253   1.453   8.782  1.5823  0.8146  1.1496
  152MOL0     H20954   3.467   1.329   8.869  0.6737  0.0072  0.0632
  152MOL0     H20955   3.478   1.445   8.741  0.5493 -0.5168  0.3786
  152MOL0     H20956   2.906   2.242   8.415 -0.1941 -0.7093 -1.5422
  152MOL0     H20957   2.739   2.365   8.286 -3.0362  0.4224 -0.7028
  152MOL0     H20958   2.419   2.525   8.351  1.1604 -1.3222 -0.1594
  152MOL0     H20959   2.326   2.736   8.330 -0.9197 -0.0599 -0.2585
  152MOL0     H20960   0.917   3.481   7.708  0.4485 -0.8418  1.5291
  152MOL0     H20961   0.923   3.708   7.782  0.7221  0.4871  0.5204
  152MOL0     H20962   0.940   4.122   7.808 -4.0313 -1.4638 -1.4438
  152MOL0     H20963   0.961   4.353   7.875  0.3777 -1.0758  0.0694
  152MOL0     H20964   0.732   4.493   7.950 -0.7264 -3.0537  1.2446
  152MOL0     H20965   0.690   4.566   8.119  0.1740 -1.3694  0.1415
  152MOL0     H20966   0.845   4.734   8.113  0.7949 -1.3603  1.0675
  152MOL0     H20967   0.755   4.742   7.965  1.4206 -1.2230 -5.5098
  152MOL0     H20968   1.026   4.626   8.038 -0.5217  1.9926  1.1383
  152MOL0     H20969   0.981   4.617   7.862 -0.1397 -1.9406  0.6712
  152MOL0     H20970   1.134   4.775   7.900  1.3917  0.5611  1.1079
  152MOL0     H20971   1.057   4.859   8.024 -1.5459 -0.4252  0.4630
  152MOL0     H20972   0.860   4.998   7.655 -3.7883 -4.6138 -0.1813
  152MOL0     H20973   0.773   4.271   8.243  1.5018 -0.2024  1.1885
  152MOL0     H20974   0.666   3.933   8.157  1.2359  0.1293 -1.9515
  152MOL0     H20975   0.800   3.967   8.286 -0.8592  4.5839  2.0761
  152MOL0     H20976   0.667   4.057   8.285  0.6563 -0.8648  1.3039
  153MOL0     O20977   9.657   9.046   8.188  0.1054  0.3645  0.3336
  153MOL0     C20978   9.664   9.036   8.065  0.1217 -0.0248 -0.4890
  153MOL0     O20979   9.567   9.095   7.982  0.1472  0.4421 -0.0065
  153MOL0     C20980   9.454   9.146   8.054 -0.2522  0.1893  0.7090
  153MOL0     C20981   9.361   9.070   8.132  0.1339 -0.5186 -0.0366
  153MOL0     C20982   9.246   9.133   8.187  0.3636 -0.6249  0.2053
  153MOL0     C20983   9.228   9.269   8.163  0.6460 -0.2533 -0.2133
  153MOL0     O20984   9.103   9.309   8.193  0.3960 -0.0152  0.4213
  153MOL0     C20985   9.032   9.380   8.088  0.8135  0.0353  0.8670
  153MOL0     C20986   8.887   9.379   8.108 -0.0153  0.8799 -0.7442
  153MOL0     C20987   8.818   9.438   7.990  0.8755 -0.3036  0.3150
  153MOL0     C20988   8.667   9.385   7.983 -0.3484 -0.4201  0.9363
  153MOL0     C20989   8.621   9.426   7.842 -0.4941  0.7318  0.9519
  153MOL0     C20990   8.662   9.325   7.736 -0.7543 -0.3717  0.0884
  153MOL0     C20991   8.630   9.338   7.587 -0.0419  1.2271  0.2269
  153MOL0     C20992   8.665   9.476   7.511 -0.3291  0.3011  0.1419
  153MOL0     N20993   8.604   9.488   7.391  0.1963  0.0242 -0.6075
  153MOL0     C20994   8.599   9.387   7.298 -0.0286 -1.1634 -0.1026
  153MOL0     C20995   8.541   9.426   7.184 -0.5439  1.1673 -0.6142
  153MOL0     C20996   8.511   9.332   7.070 -0.3848  0.1666 -0.7143
  153MOL0     C20997   8.470   9.382   6.936  0.4031 -0.0475  0.8018
  153MOL0     C20998   8.578   9.484   6.885  0.4404  0.0056  0.5852
  153MOL0     C20999   8.561   9.507   6.728 -1.0508 -0.3167  0.4690
  153MOL0     O21000   8.642   9.622   6.698 -0.1676 -0.1793  0.2730
  153MOL0     C21001   8.579   9.737   6.657  0.1549 -0.2722  0.3863
  153MOL0     C21002   8.621   9.803   6.540  1.3390 -0.0387 -1.6538
  153MOL0     C21003   8.551   9.917   6.495 -0.3596  0.0676 -0.4733
  153MOL0     C21004   8.583   9.971   6.354  0.1182  0.2321 -0.3062
  153MOL0     C21005   8.448   9.971   6.578 -0.6936  0.3656  0.0789
  153MOL0     C21006   8.365  10.093   6.541  1.1945 -0.4689  0.4789
  153MOL0     O21007   8.422  10.212   6.484  0.1276 -0.5182  0.4190
  153MOL0     C21008   8.345  10.325   6.448 -0.1370 -0.5432  0.5681
  153MOL0     C21009   8.212  10.306   6.394 -0.3161  0.2738  0.0411
  153MOL0     C21010   8.141  10.411   6.342 -0.8908 -0.2788  0.3310
  153MOL0     C21011   8.204  10.534   6.338  0.2681 -0.2552  1.6235
  153MOL0     O21012   8.159  10.636   6.264 -0.7467  0.1881  0.3724
  153MOL0     C21013   8.072  10.609   6.155 -0.3681  0.4249  0.1239
  153MOL0     C21014   8.051  10.743   6.073  0.8265 -0.1682 -0.0913
  153MOL0     C21015   7.940  10.847   6.119  0.7646 -0.1123  0.1038
  153MOL0     C21016   7.952  10.965   6.028 -0.2038 -0.2926  0.4153
  153MOL0     C21017   7.882  11.082   6.093  0.7514  0.2276 -0.1764
  153MOL0     C21018   7.914  11.205   5.998 -0.6439  0.3572  0.0755
  153MOL0     C21019   7.833  11.204   5.864  0.5138  0.6331  0.0326
  153MOL0     C21020   7.677  11.192   5.881  0.3971 -0.6138  1.2652
  153MOL0    Cl21021   7.611  11.279   5.728  0.4927 -0.2359 -0.3220
  153MOL0     C21022   8.324  10.552   6.399  0.5572  0.0308 -0.4159
  153MOL0     C21023   8.392  10.450   6.457 -0.6804  0.2684  0.7270
  153MOL0     O21024   8.243  10.083   6.572 -0.7371  0.1455 -0.1430
  153MOL0     C21025   8.402   9.892   6.690  1.1599 -1.1043 -0.3463
  153MOL0     C21026   8.476   9.780   6.734 -0.2781 -0.4503  1.0307
  153MOL0     N21027   8.507   9.558   7.213 -0.7368 -0.0468 -0.2683
  153MOL0     N21028   8.558   9.601   7.325  0.3496  0.2803 -0.2508
  153MOL0     C21029   9.318   9.343   8.087  0.1025  0.3022 -0.0274
  153MOL0     C21030   9.427   9.275   8.034  0.2524  0.1066  0.7150
  153MOL0     C21031   9.794   8.986   7.998  0.0994 -0.3037 -0.2468
  153MOL0     C21032   9.847   9.060   7.890  0.2479  0.2751  1.3391
  153MOL0     C21033   9.980   9.037   7.843  0.3228  0.4851  0.1469
  153MOL0     C21034  10.064   8.946   7.904 -1.0778 -0.5235  0.2099
  153MOL0     O21035  10.197   8.921   7.870  0.0503 -0.1711  0.5675
  153MOL0     C21036  10.224   8.920   7.723 -0.1486 -0.0184 -0.4331
  153MOL0     C21037  10.132   8.843   7.628 -1.1857  0.7479  0.4207
  153MOL0     C21038  10.117   8.697   7.650  0.0656 -0.3870 -0.4428
  153MOL0     C21039  10.242   8.606   7.666  0.7312 -0.1946  1.7467
  153MOL0     C21040  10.314   8.584   7.544 -0.1853  1.0095  0.7625
  153MOL0     C21041  10.361   8.581   7.437 -0.1467 -0.6263  0.4927
  153MOL0     C21042  10.009   8.877   8.008  0.1795  0.2415 -0.4364
  153MOL0     C21043   9.875   8.888   8.052  0.1078 -0.2491  1.0818
  153MOL0     C21044   9.830   8.823   8.181  0.0325  1.2275 -0.4223
  153MOL0     H21045   9.365   8.962   8.132 -1.3063 -0.5937  0.3802
  153MOL0     H21046   9.167   9.075   8.233  0.3650  0.1270  1.1902
  153MOL0     H21047   9.051   9.339   7.989 -1.7568  0.9486 -0.0834
  153MOL0     H21048   9.079   9.478   8.093  2.9241 -0.8357 -0.5462
  153MOL0     H21049   8.853   9.278   8.136  3.8671  0.0430  1.8505
  153MOL0     H21050   8.880   9.437   8.201  0.9166  0.8845 -0.6609
  153MOL0     H21051   8.800   9.545   8.003 -2.2374 -0.5866 -0.7530
  153MOL0     H21052   8.873   9.414   7.898 -0.7560  0.1599 -0.8348
  153MOL0     H21053   8.649   9.279   8.004  0.1409 -0.3159  1.9633
  153MOL0     H21054   8.611   9.444   8.056  2.5677  2.8665  0.7832
  153MOL0     H21055   8.654   9.528   7.818 -4.4272  2.1883  1.0222
  153MOL0     H21056   8.512   9.430   7.835 -0.5636 -0.0634  1.5244
  153MOL0     H21057   8.771   9.325   7.751 -0.6968 -4.0506  0.6901
  153MOL0     H21058   8.630   9.222   7.755 -0.8615 -0.4259 -0.3596
  153MOL0     H21059   8.520   9.333   7.585 -0.1604  2.8689 -2.7611
  153MOL0     H21060   8.677   9.255   7.535 -1.4331  0.5254  0.0488
  153MOL0     H21061   8.623   9.554   7.575  0.2135  1.8403 -1.2964
  153MOL0     H21062   8.771   9.495   7.488 -0.9770  1.3194 -2.3110
  153MOL0     H21063   8.640   9.290   7.325 -1.3602 -1.1836  2.0213
  153MOL0     H21064   8.433   9.262   7.104  0.0351  0.7588  1.6489
  153MOL0     H21065   8.599   9.268   7.061  1.1261  2.0637  0.0376
  153MOL0     H21066   8.455   9.302   6.863  3.0248 -0.4903  0.6331
  153MOL0     H21067   8.378   9.439   6.950 -0.5608  0.0638 -4.0976
  153MOL0     H21068   8.561   9.580   6.934 -0.1431 -0.4924  1.3719
  153MOL0     H21069   8.676   9.447   6.914  0.0165 -1.4467  0.2347
  153MOL0     H21070   8.595   9.423   6.667  0.8797 -0.5185  1.7606
  153MOL0     H21071   8.452   9.519   6.725 -1.1188 -1.0621 -0.4952
  153MOL0     H21072   8.706   9.776   6.478  3.1417  2.5555 -0.4928
  153MOL0     H21073   8.490   9.964   6.295 -0.5651 -0.1900  0.7943
  153MOL0     H21074   8.667   9.915   6.313  1.7859 -0.3285  3.4875
  153MOL0     H21075   8.618  10.075   6.357  2.1173 -0.4333  0.3988
  153MOL0     H21076   8.164  10.210   6.386  0.3179  0.0068 -0.7660
  153MOL0     H21077   8.040  10.405   6.302 -2.2238 -3.8854  3.4844
  153MOL0     H21078   8.116  10.537   6.085 -1.1215 -0.4449  0.5300
  153MOL0     H21079   7.978  10.575   6.197  0.3911  0.6981  2.1298
  153MOL0     H21080   8.149  10.791   6.060  1.5164 -0.8324  2.0577
  153MOL0     H21081   8.005  10.707   5.981 -4.2157  1.2061  1.6140
  153MOL0     H21082   7.957  10.881   6.222 -0.7596  1.2372 -0.0459
  153MOL0     H21083   7.843  10.798   6.128  0.5319 -0.0211 -1.6549
  153MOL0     H21084   7.908  10.946   5.930 -1.5183  2.5015  0.3658
  153MOL0     H21085   8.058  10.989   6.016 -0.6828  2.3775  0.7502
  153MOL0     H21086   7.776  11.057   6.102  0.1059  1.7946 -2.5230
  153MOL0     H21087   7.929  11.110   6.188 -0.2550  2.5112 -0.2778
  153MOL0     H21088   8.022  11.204   5.980 -0.7562 -1.2274 -0.7149
  153MOL0     H21089   7.893  11.294   6.058  1.5776 -0.1778  1.7707
  153MOL0     H21090   7.866  11.126   5.795 -1.8984 -1.1554  0.7653
  153MOL0     H21091   7.855  11.302   5.821  0.9085  1.7866  2.7033
  153MOL0     H21092   7.640  11.247   5.968 -1.5658  0.4041 -0.1347
  153MOL0     H21093   7.648  11.087   5.892 -0.5803 -0.4096  0.7362
  153MOL0     H21094   8.371  10.649   6.408 -0.2460  0.2629  1.6740
  153MOL0     H21095   8.489  10.463   6.504 -0.3035 -0.0190  0.0373
  153MOL0     H21096   8.317   9.929   6.745 -0.9741  1.8873 -4.9882
  153MOL0     H21097   8.457   9.725   6.825 -0.8117 -5.3930 -1.7218
  153MOL0     H21098   9.307   9.446   8.053  5.1040  2.0465  2.5677
  153MOL0     H21099   9.485   9.333   7.962 -1.1287 -2.4193 -2.6744
  153MOL0     H21100   9.781   9.123   7.831 -0.9905 -2.3635 -0.2477
  153MOL0     H21101  10.005   9.105   7.762 -1.2364  3.0601  1.6798
  153MOL0     H21102  10.214   9.027   7.699 -0.5812  0.4172  1.5225
  153MOL0     H21103  10.325   8.883   7.706  1.6186  2.8641  2.6345
  153MOL0     H21104  10.166   8.855   7.525  0.9468 -1.3977  0.7966
  153MOL0     H21105  10.028   8.877   7.634 -1.2619  0.9944 -1.7228
  153MOL0     H21106  10.060   8.687   7.743 -4.2645 -3.5786 -3.0277
  153MOL0     H21107  10.058   8.648   7.572 -0.8034 -3.9577  2.2033
  153MOL0     H21108  10.200   8.509   7.696 -2.6410  0.4058 -0.5051
  153MOL0     H21109  10.304   8.627   7.754  1.3138 -1.6756  1.7145
  153MOL0     H21110  10.404   8.577   7.339  5.5143 -0.1389  2.5929
  153MOL0     H21111  10.070   8.802   8.056  1.1997  0.8214 -0.7962
  153MOL0     H21112   9.873   8.726   8.207 -3.2506  0.2256  2.0549
  153MOL0     H21113   9.854   8.886   8.268  0.4182 -1.1530  1.3000
  153MOL0     H21114   9.723   8.798   8.184  0.7822 -2.4812  0.5158
  154MOL0     O21115   2.313   7.821   0.844  0.1897 -0.5074  0.5725
  154MOL0     C21116   2.418   7.813   0.775  0.1261  0.0740 -0.0623
  154MOL0     O21117   2.447   7.895   0.666 -0.1314  0.2650 -0.6850
  154MOL0     C21118   2.366   7.998   0.633  0.4322 -0.8455  1.2370
  154MOL0     C21119   2.431   8.121   0.624 -0.8688 -0.4420  0.0216
  154MOL0     C21120   2.369   8.241   0.578 -2.0504  0.7730 -0.3168
  154MOL0     C21121   2.244   8.236   0.530 -0.1341  0.1358  0.3365
  154MOL0     O21122   2.186   8.336   0.456  0.3144 -0.3053  0.1360
  154MOL0     C21123   2.266   8.442   0.391 -0.4629  0.8886 -0.2538
  154MOL0     C21124   2.207   8.572   0.404 -0.0734  0.0325 -0.5615
  154MOL0     C21125   2.173   8.602   0.555  0.1956  0.0810  0.0525
  154MOL0     C21126   2.114   8.738   0.554  0.1545  0.8945  0.5526
  154MOL0     C21127   1.968   8.744   0.515 -0.3794  0.2166 -0.3597
  154MOL0     C21128   1.900   8.877   0.470  0.8222 -0.4559 -0.2338
  154MOL0     C21129   1.746   8.854   0.448 -0.3223 -0.3018  0.6474
  154MOL0     C21130   1.661   8.830   0.580 -0.5883 -0.6389  0.2550
  154MOL0     N21131   1.683   8.918   0.693  0.2616  0.2996  0.4690
  154MOL0     C21132   1.716   8.870   0.827 -0.2570 -0.7593  0.0601
  154MOL0     C21133   1.716   8.979   0.905 -0.7061  0.8096  0.0084
  154MOL0     C21134   1.736   8.998   1.062 -0.9840  1.3205  0.7774
  154MOL0     C21135   1.603   8.993   1.121  0.3179 -0.9948  1.1031
  154MOL0     C21136   1.597   8.981   1.277 -0.5600  0.0714  0.6496
  154MOL0     C21137   1.461   8.973   1.342  0.2769 -0.5559 -0.2345
  154MOL0     O21138   1.349   8.946   1.258 -0.1156 -0.1488  0.3719
  154MOL0     C21139   1.227   8.928   1.316 -0.0239  0.5371  0.1614
  154MOL0     C21140   1.182   9.015   1.417 -0.0361  0.0498 -0.0359
  154MOL0     C21141   1.048   9.007   1.466 -0.8500 -0.1853 -0.0344
  154MOL0     C21142   0.999   9.126   1.549 -0.0551 -0.2654 -0.5181
  154MOL0     C21143   0.964   8.899   1.424 -0.7534 -0.0810  0.4249
  154MOL0     C21144   0.823   8.888   1.462  0.6617 -0.5143  0.3492
  154MOL0     O21145   0.750   8.813   1.381 -0.0102  0.8006 -0.2443
  154MOL0     C21146   0.615   8.794   1.399 -0.3146  0.0801 -0.3325
  154MOL0     C21147   0.529   8.898   1.429 -0.2963  0.2740  0.1282
  154MOL0     C21148   0.389   8.884   1.431  0.7584 -0.4413 -0.1245
  154MOL0     C21149   0.331   8.750   1.419  0.4543  0.0992  0.2562
  154MOL0     O21150   0.192   8.733   1.439  0.5553 -0.0546 -0.3347
  154MOL0     C21151   0.123   8.623   1.390  0.6884  0.1670 -1.1932
  154MOL0     C21152  -0.025   8.612   1.437 -0.1122  0.3629  0.7845
  154MOL0     C21153  -0.088   8.510   1.346 -0.6629  0.7771 -0.5053
  154MOL0     C21154  -0.227   8.470   1.389  1.0246 -0.3220  0.1238
  154MOL0     C21155  -0.301   8.388   1.277  0.1007  0.1338  0.8289
  154MOL0     C21156  -0.320   8.242   1.311 -0.1666  0.1257 -0.1442
  154MOL0     C21157  -0.347   8.167   1.177  0.4885  0.3915 -0.8445
  154MOL0     C21158  -0.491   8.185   1.127  0.3313 -0.2448 -0.4088
  154MOL0    Cl21159  -0.514   8.086   0.984 -0.1055 -0.8291 -0.4204
  154MOL0     C21160   0.425   8.639   1.396 -0.1682 -0.5062  1.1667
  154MOL0     C21161   0.558   8.667   1.371 -0.1422  0.4522 -0.0872
  154MOL0     O21162   0.786   8.922   1.573 -0.1660  0.2114 -0.1962
  154MOL0     C21163   1.015   8.814   1.324 -0.5351  0.4334 -0.5006
  154MOL0     C21164   1.136   8.829   1.274  1.1600 -0.7920  0.0594
  154MOL0     N21165   1.701   9.085   0.818  0.0195  1.2767 -0.2566
  154MOL0     N21166   1.684   9.057   0.698  0.3021 -0.0486  0.1173
  154MOL0     C21167   2.178   8.115   0.541 -0.5696  0.5914 -0.1429
  154MOL0     C21168   2.229   7.993   0.594  0.0674  0.4946 -0.5578
  154MOL0     C21169   2.513   7.702   0.792  0.5722  1.1846 -0.5046
  154MOL0     C21170   2.474   7.594   0.888 -0.5012 -0.3320 -0.9309
  154MOL0     C21171   2.558   7.492   0.918  0.6730 -0.0758  0.1262
  154MOL0     C21172   2.685   7.494   0.866  0.3459 -0.5486 -0.8051
  154MOL0     O21173   2.780   7.404   0.901  0.0976 -0.3196  0.0880
  154MOL0     C21174   2.808   7.394   1.048  0.3895  0.0826 -0.2775
  154MOL0     C21175   2.855   7.527   1.109 -0.5604 -0.3310  0.3376
  154MOL0     C21176   2.880   7.541   1.264 -0.3592  0.5669 -1.4756
  154MOL0     C21177   2.951   7.417   1.322  0.1133 -0.0773  0.1883
  154MOL0     C21178   3.095   7.407   1.295 -0.6971  0.5933  0.1927
  154MOL0     C21179   3.207   7.373   1.262  0.8380 -0.2086 -1.1725
  154MOL0     C21180   2.732   7.594   0.776  0.4256  0.6243 -0.4930
  154MOL0     C21181   2.652   7.699   0.745 -0.6221  0.3089  1.4985
  154MOL0     C21182   2.708   7.813   0.665  0.6662  0.9913 -0.5427
  154MOL0     H21183   2.536   8.122   0.652 -0.7609  0.5839 -0.3802
  154MOL0     H21184   2.430   8.330   0.571 -2.6525  1.0734 -2.2549
  154MOL0     H21185   2.296   8.433   0.287  2.8937 -0.4015  0.6912
  154MOL0     H21186   2.362   8.450   0.442 -0.6073  4.1858 -0.2652
  154MOL0     H21187   2.280   8.651   0.382  0.6649  0.9714  4.2037
  154MOL0     H21188   2.118   8.583   0.340  1.1906  2.5650 -2.0810
  154MOL0     H21189   2.097   8.529   0.585  0.6588 -1.1667 -1.6686
  154MOL0     H21190   2.265   8.605   0.614  0.3928  2.3865 -0.2727
  154MOL0     H21191   2.127   8.773   0.657 -0.4564 -1.1624  1.3895
  154MOL0     H21192   2.178   8.801   0.492  0.9017  0.2434  0.6340
  154MOL0     H21193   1.908   8.699   0.595  0.6599  1.1265  0.9899
  154MOL0     H21194   1.955   8.682   0.426  0.3734  0.1740 -0.4425
  154MOL0     H21195   1.912   8.960   0.541  1.6541 -0.3838 -0.4474
  154MOL0     H21196   1.950   8.909   0.378  1.5901  0.1494  0.3786
  154MOL0     H21197   1.727   8.764   0.388  2.8054  0.7320 -2.2159
  154MOL0     H21198   1.707   8.946   0.404 -0.0175 -1.2252 -1.7182
  154MOL0     H21199   1.557   8.828   0.546 -0.4132  1.5517 -0.5936
  154MOL0     H21200   1.681   8.731   0.620  1.1841 -0.0737  0.8489
  154MOL0     H21201   1.729   8.768   0.862 -0.1543 -0.0185  2.3412
  154MOL0     H21202   1.788   9.092   1.082  0.9302  0.3446  0.6335
  154MOL0     H21203   1.793   8.916   1.106 -0.5185  1.0471 -0.2994
  154MOL0     H21204   1.556   9.088   1.096 -1.1452 -1.4625  1.9512
  154MOL0     H21205   1.550   8.913   1.067 -1.0545 -0.8950  2.2470
  154MOL0     H21206   1.646   8.894   1.320 -2.0913  0.6746  3.9027
  154MOL0     H21207   1.654   9.070   1.308 -2.2905  1.2675  0.5602
  154MOL0     H21208   1.467   8.903   1.426 -1.7060 -1.4802 -0.8133
  154MOL0     H21209   1.453   9.074   1.383  1.2914 -0.7566  0.5154
  154MOL0     H21210   1.234   9.109   1.432  0.8222 -0.3362 -0.4991
  154MOL0     H21211   0.939   9.193   1.487  1.9669  3.5683  1.3166
  154MOL0     H21212   1.080   9.196   1.569 -1.7784  1.9523 -0.8611
  154MOL0     H21213   0.958   9.105   1.648 -0.0668  2.9396  0.2657
  154MOL0     H21214   0.573   8.995   1.449  0.8531 -0.7120  3.0577
  154MOL0     H21215   0.330   8.975   1.441 -0.3726 -1.0067 -1.3483
  154MOL0     H21216   0.135   8.625   1.281  2.5854  2.0547 -1.0198
  154MOL0     H21217   0.179   8.534   1.420  2.5032  2.2781  2.3354
  154MOL0     H21218  -0.049   8.594   1.542  3.0323 -1.8855  1.2823
  154MOL0     H21219  -0.057   8.712   1.405  2.6067  0.9607 -0.3565
  154MOL0     H21220  -0.027   8.419   1.353 -0.3123  0.8659 -2.0654
  154MOL0     H21221  -0.084   8.547   1.244  4.5362 -0.0459 -0.8851
  154MOL0     H21222  -0.282   8.564   1.401  0.9822 -0.1448 -1.3128
  154MOL0     H21223  -0.233   8.419   1.486 -0.8800  1.4861  1.0340
  154MOL0     H21224  -0.402   8.430   1.273  0.0308 -0.1426 -0.8647
  154MOL0     H21225  -0.254   8.404   1.180 -1.2463  0.0446  0.1448
  154MOL0     H21226  -0.403   8.232   1.383  0.1729  0.4531  0.2969
  154MOL0     H21227  -0.236   8.201   1.368 -0.1893  0.1370 -0.1025
  154MOL0     H21228  -0.320   8.061   1.177 -2.4342 -0.4336 -0.7157
  154MOL0     H21229  -0.282   8.221   1.108 -0.0209  0.6540 -1.1310
  154MOL0     H21230  -0.508   8.292   1.115 -0.9048 -0.3062  0.6242
  154MOL0     H21231  -0.562   8.171   1.209 -1.5107  2.7380 -1.3249
  154MOL0     H21232   0.405   8.533   1.381  1.0521 -0.3134 -2.6640
  154MOL0     H21233   0.623   8.588   1.335  0.0315  0.0948  0.9783
  154MOL0     H21234   0.946   8.736   1.293 -1.8503  1.6817 -0.8366
  154MOL0     H21235   1.168   8.764   1.192 -1.3902  0.9063 -2.4886
  154MOL0     H21236   2.078   8.113   0.500 -0.7746 -0.9674  0.3633
  154MOL0     H21237   2.180   7.897   0.605  1.5108 -0.2069 -0.0499
  154MOL0     H21238   2.371   7.598   0.920  0.1361 -0.1073  1.2236
  154MOL0     H21239   2.522   7.404   0.971 -0.0843 -1.1600 -2.0568
  154MOL0     H21240   2.738   7.329   1.102  1.8405 -1.4011 -0.0912
  154MOL0     H21241   2.902   7.339   1.051  0.0458 -0.6351 -1.6836
  154MOL0     H21242   2.773   7.598   1.092  0.4593  1.2047  1.5324
  154MOL0     H21243   2.948   7.554   1.057  0.3137  0.1262  2.0672
  154MOL0     H21244   2.926   7.629   1.310  1.7072 -2.2804  2.5088
  154MOL0     H21245   2.783   7.552   1.315  1.2311  0.6001  1.7784
  154MOL0     H21246   2.897   7.327   1.294 -1.6646  1.1301 -0.4558
  154MOL0     H21247   2.941   7.434   1.430 -2.0164  0.0800  0.0143
  154MOL0     H21248   3.302   7.356   1.217 -0.0646 -2.4432 -2.4158
  154MOL0     H21249   2.837   7.582   0.751  0.6230 -0.7103  0.8495
  154MOL0     H21250   2.651   7.818   0.571  0.2676 -1.4801 -0.4963
  154MOL0     H21251   2.710   7.906   0.723  3.1415  1.2094 -0.8496
  154MOL0     H21252   2.815   7.799   0.645  0.1361 -0.7120 -2.5628
  155MOL0     O21253   5.350   6.284   5.063  0.7530 -0.3889 -0.0383
  155MOL0     C21254   5.428   6.376   5.075 -0.3334  0.5562  0.3240
  155MOL0     O21255   5.522   6.390   5.179 -0.7985 -0.2578  0.2299
  155MOL0     C21256   5.522   6.295   5.286  0.1145 -1.0548 -0.9031
  155MOL0     C21257   5.525   6.334   5.418  0.2607 -0.0766  0.4896
  155MOL0     C21258   5.536   6.230   5.514  0.0900 -0.6754  0.3917
  155MOL0     C21259   5.523   6.092   5.494 -0.5013 -0.2049  0.0383
  155MOL0     O21260   5.528   5.994   5.590 -0.7174 -0.3745  0.2712
  155MOL0     C21261   5.421   5.895   5.583 -0.8690  0.9489 -0.1625
  155MOL0     C21262   5.281   5.944   5.530  0.9914  0.9031  0.1145
  155MOL0     C21263   5.234   6.052   5.626  0.1132  0.4229  0.1380
  155MOL0     C21264   5.075   6.024   5.651  0.0928  0.2250 -0.3237
  155MOL0     C21265   4.989   6.148   5.674 -0.6286  0.1376  0.6687
  155MOL0     C21266   4.961   6.211   5.530  0.1780  0.4530 -0.0623
  155MOL0     C21267   4.820   6.259   5.513 -0.5547  0.2169  0.2513
  155MOL0     C21268   4.811   6.349   5.395 -0.7036 -0.0109 -0.8724
  155MOL0     N21269   4.676   6.421   5.394 -0.3073 -0.2193  0.0329
  155MOL0     C21270   4.571   6.381   5.472 -0.1250 -0.5902 -0.4854
  155MOL0     C21271   4.474   6.470   5.444 -0.1356 -0.3523  0.0428
  155MOL0     C21272   4.327   6.476   5.491  0.0077  0.3232 -0.5084
  155MOL0     C21273   4.227   6.404   5.401 -0.5467 -0.4099 -0.3471
  155MOL0     C21274   4.234   6.253   5.416 -0.2791 -0.0514 -0.6022
  155MOL0     C21275   4.221   6.179   5.286 -0.4733 -0.1983  0.7086
  155MOL0     O21276   4.208   6.042   5.321 -1.1665 -0.4581  0.5811
  155MOL0     C21277   4.124   5.962   5.245 -0.6626  0.2973  0.1681
  155MOL0     C21278   4.045   5.873   5.314 -0.2242 -0.4211 -0.3609
  155MOL0     C21279   3.974   5.774   5.242  1.1277 -0.5532 -1.0415
  155MOL0     C21280   3.883   5.691   5.342  0.1500 -0.2341 -0.3869
  155MOL0     C21281   3.980   5.754   5.105  0.1241  0.1083  0.0466
  155MOL0     C21282   3.904   5.664   5.032  0.3668  0.0574  0.2844
  155MOL0     O21283   3.950   5.636   4.912 -0.3996  0.5120  0.5064
  155MOL0     C21284   3.899   5.537   4.827 -0.1687 -0.6895  1.4167
  155MOL0     C21285   3.937   5.548   4.689 -0.2020  0.4426 -0.6151
  155MOL0     C21286   3.885   5.461   4.600  1.1776 -0.0950  0.1609
  155MOL0     C21287   3.800   5.356   4.632 -0.1633  0.0288  0.6536
  155MOL0     O21288   3.745   5.262   4.545 -0.0281 -0.0530  0.5066
  155MOL0     C21289   3.814   5.223   4.422  0.1339  0.2694  1.1261
  155MOL0     C21290   3.833   5.076   4.406  0.3071  1.1867 -0.4887
  155MOL0     C21291   3.864   4.992   4.545  0.7682  0.3157 -0.0761
  155MOL0     C21292   3.989   5.025   4.624 -1.3305  0.3625  0.2874
  155MOL0     C21293   3.966   5.011   4.778 -0.7977 -0.1387 -0.5287
  155MOL0     C21294   3.953   4.869   4.826  0.0515  0.8725  0.5907
  155MOL0     C21295   4.068   4.776   4.786 -0.4035 -0.2012 -0.7257
  155MOL0     C21296   4.059   4.640   4.859  1.4838  0.1346  0.7013
  155MOL0    Cl21297   4.193   4.548   4.804 -0.0523  0.1712 -0.2730
  155MOL0     C21298   3.765   5.342   4.765 -0.5857 -0.7814 -1.1746
  155MOL0     C21299   3.806   5.431   4.860 -0.9469  0.6974  0.1052
  155MOL0     O21300   3.796   5.623   5.077 -0.3761  0.9468  0.1897
  155MOL0     C21301   4.056   5.851   5.037 -0.5085 -0.1732  0.1475
  155MOL0     C21302   4.127   5.946   5.109 -0.4992 -0.2062  0.1497
  155MOL0     N21303   4.517   6.563   5.359 -0.5041 -0.4067 -0.5784
  155MOL0     N21304   4.646   6.545   5.346 -0.2122  0.4645  0.5752
  155MOL0     C21305   5.506   6.062   5.359 -1.3417  0.3131 -0.1824
  155MOL0     C21306   5.514   6.156   5.263 -0.0795 -0.5066  0.2452
  155MOL0     C21307   5.423   6.489   4.976  0.3010  0.9106  0.3368
  155MOL0     C21308   5.512   6.596   4.998  0.5747  0.1473 -1.1144
  155MOL0     C21309   5.523   6.696   4.896 -0.4206 -0.2823 -0.2130
  155MOL0     C21310   5.418   6.706   4.801 -0.9390 -0.4346  0.0838
  155MOL0     O21311   5.406   6.803   4.695 -0.0399  0.5268 -0.3011
  155MOL0     C21312   5.476   6.929   4.711  0.1177  0.5582 -0.0067
  155MOL0     C21313   5.424   7.022   4.601 -0.4951  0.2271  0.6190
  155MOL0     C21314   5.275   7.054   4.623 -0.0148 -0.6292 -0.2926
  155MOL0     C21315   5.228   7.163   4.533  0.4602  0.2273 -0.3924
  155MOL0     C21316   5.106   7.217   4.587  1.3358  0.2905 -0.0173
  155MOL0     C21317   5.010   7.260   4.643  0.6860 -0.0246 -0.0137
  155MOL0     C21318   5.326   6.604   4.789  1.5039 -0.3485  0.7073
  155MOL0     C21319   5.332   6.493   4.868  0.2306  0.5102  0.3607
  155MOL0     C21320   5.253   6.372   4.815  0.0926  0.1882  0.4518
  155MOL0     H21321   5.536   6.436   5.453  2.8520 -0.3210  0.6228
  155MOL0     H21322   5.546   6.269   5.615 -0.1659 -0.7997  0.4666
  155MOL0     H21323   5.404   5.851   5.682 -3.7594  1.1194 -0.4990
  155MOL0     H21324   5.450   5.808   5.525 -0.1062 -0.0359  1.6081
  155MOL0     H21325   5.274   5.980   5.427 -1.5575  1.9224  0.5722
  155MOL0     H21326   5.224   5.851   5.536  3.6680 -0.7838  1.8290
  155MOL0     H21327   5.296   6.062   5.716 -0.7794  0.5556  0.7484
  155MOL0     H21328   5.237   6.153   5.586  0.0833  0.3927  0.0598
  155MOL0     H21329   5.033   5.964   5.570 -0.3510  2.9204 -2.2361
  155MOL0     H21330   5.079   5.962   5.741  1.6570 -1.4483 -1.4763
  155MOL0     H21331   5.029   6.215   5.750  1.2045  0.8939 -0.8763
  155MOL0     H21332   4.890   6.107   5.699 -1.1720  1.6639  1.1487
  155MOL0     H21333   5.024   6.300   5.516 -1.3946  1.8701  1.2893
  155MOL0     H21334   4.978   6.139   5.450  0.7708  2.2294 -1.6028
  155MOL0     H21335   4.794   6.323   5.598  1.2881  1.5980 -0.1413
  155MOL0     H21336   4.753   6.174   5.504  2.1643 -2.0910  0.4370
  155MOL0     H21337   4.878   6.435   5.402 -0.3331 -0.3308 -0.4364
  155MOL0     H21338   4.829   6.281   5.312  1.7239  1.5085 -1.6688
  155MOL0     H21339   4.560   6.292   5.533  1.6762  3.2327  6.3598
  155MOL0     H21340   4.297   6.582   5.495  3.0610  1.2453  1.1663
  155MOL0     H21341   4.311   6.421   5.584 -1.3441 -3.5884 -2.8336
  155MOL0     H21342   4.126   6.444   5.411 -0.8066 -0.7193 -1.6022
  155MOL0     H21343   4.259   6.427   5.299 -1.9898  0.6851 -0.5765
  155MOL0     H21344   4.323   6.215   5.466 -0.3060  1.1932  0.4430
  155MOL0     H21345   4.152   6.226   5.484 -0.2893  0.8562 -0.2414
  155MOL0     H21346   4.132   6.213   5.231 -0.3025 -0.2960  0.3701
  155MOL0     H21347   4.312   6.195   5.228 -0.6514 -0.8547  0.2355
  155MOL0     H21348   4.048   5.873   5.423 -2.2146  2.5198 -0.1842
  155MOL0     H21349   3.905   5.584   5.337 -1.5743 -0.6772  0.5854
  155MOL0     H21350   3.780   5.704   5.306 -1.2947 -0.9759  3.0723
  155MOL0     H21351   3.877   5.722   5.447 -4.5129 -1.4482 -0.0514
  155MOL0     H21352   4.013   5.617   4.654  0.4686 -0.6172 -1.3016
  155MOL0     H21353   3.904   5.467   4.494 -2.0717 -1.3378 -0.6001
  155MOL0     H21354   3.766   5.265   4.333  2.3496  2.5829  0.8747
  155MOL0     H21355   3.910   5.276   4.424 -0.7085  1.9521  0.0238
  155MOL0     H21356   3.737   5.038   4.369 -0.9861  1.0013  2.6637
  155MOL0     H21357   3.903   5.048   4.328 -1.9897 -0.9041 -1.9479
  155MOL0     H21358   3.851   4.887   4.518 -2.5480  0.4504  0.5213
  155MOL0     H21359   3.775   5.009   4.607  1.0690  1.2180  0.1202
  155MOL0     H21360   4.009   5.132   4.612  0.6526  0.0956  0.9409
  155MOL0     H21361   4.077   4.973   4.586 -2.1971 -0.8619 -0.1290
  155MOL0     H21362   4.054   5.054   4.826 -2.1663  1.6057  0.5572
  155MOL0     H21363   3.883   5.067   4.823  0.2106  1.8404 -1.0200
  155MOL0     H21364   3.860   4.830   4.782  0.8972 -2.9107  1.7371
  155MOL0     H21365   3.948   4.862   4.935  0.5637  1.4301  0.6509
  155MOL0     H21366   4.162   4.811   4.828 -1.0089 -3.1703  3.9116
  155MOL0     H21367   4.088   4.762   4.679 -2.7951 -0.9519 -1.1497
  155MOL0     H21368   3.973   4.580   4.826  1.1784  1.7035 -1.6335
  155MOL0     H21369   4.061   4.665   4.965  0.7994  2.1176  0.2905
  155MOL0     H21370   3.690   5.265   4.782 -0.6529 -0.3916  0.4250
  155MOL0     H21371   3.755   5.412   4.954 -1.5122  2.8341  0.2937
  155MOL0     H21372   4.059   5.841   4.929  1.0020 -2.8051  0.3571
  155MOL0     H21373   4.185   6.016   5.050  0.3687 -1.2550 -0.2692
  155MOL0     H21374   5.504   5.958   5.328  1.3196  0.6981 -1.9016
  155MOL0     H21375   5.499   6.117   5.163 -1.8846  0.6157  0.0319
  155MOL0     H21376   5.582   6.592   5.081 -2.5982 -3.6049  1.7202
  155MOL0     H21377   5.597   6.775   4.908 -0.7350  0.0342 -0.3384
  155MOL0     H21378   5.465   6.976   4.809  2.1923  0.3046  0.3891
  155MOL0     H21379   5.584   6.916   4.702 -0.1130 -1.0546 -0.7658
  155MOL0     H21380   5.444   6.977   4.504  1.3499  1.5474  0.3244
  155MOL0     H21381   5.483   7.114   4.606  2.0446 -1.2306 -0.5537
  155MOL0     H21382   5.228   6.956   4.607  3.7433 -2.6177 -0.3631
  155MOL0     H21383   5.256   7.075   4.729 -0.2338  1.8894 -0.7728
  155MOL0     H21384   5.222   7.130   4.428  2.6728  0.4727 -0.6432
  155MOL0     H21385   5.304   7.241   4.530 -0.4574  1.1185 -1.4573
  155MOL0     H21386   4.922   7.305   4.683  0.7148  0.5019 -0.5316
  155MOL0     H21387   5.249   6.597   4.712  0.7577 -3.5461  1.6181
  155MOL0     H21388   5.320   6.286   4.800  0.8448  0.9259 -0.5525
  155MOL0     H21389   5.176   6.334   4.883 -1.5801 -0.6399 -1.7919
  155MOL0     H21390   5.203   6.391   4.720  0.5261 -0.1453  0.1530
  156MOL0     O21391   9.125   9.582   9.282 -0.8851 -0.0390  0.5869
  156MOL0     C21392   9.120   9.460   9.286 -0.4358 -0.0211 -0.5423
  156MOL0     O21393   9.191   9.374   9.204 -0.1083  0.4651  0.0490
  156MOL0     C21394   9.277   9.425   9.108 -0.1163  0.3581  0.0962
  156MOL0     C21395   9.272   9.548   9.036 -0.1394 -0.2026 -0.8412
  156MOL0     C21396   9.387   9.570   8.958 -0.9623 -0.1278 -0.1023
  156MOL0     C21397   9.491   9.482   8.934 -0.0158  0.4577  0.0535
  156MOL0     O21398   9.593   9.543   8.866 -0.5050  0.8783 -0.2173
  156MOL0     C21399   9.691   9.455   8.812  0.2458  0.6363 -0.2761
  156MOL0     C21400   9.783   9.532   8.725  0.4218  0.1677 -0.4115
  156MOL0     C21401   9.863   9.644   8.785  0.1074 -0.2049 -0.5979
  156MOL0     C21402   9.995   9.676   8.721 -0.0806 -0.6296 -0.0992
  156MOL0     C21403  10.071   9.806   8.752  0.7050 -0.8265 -0.4872
  156MOL0     C21404  10.116   9.814   8.899 -0.4172 -0.0804 -0.6672
  156MOL0     C21405  10.195   9.946   8.940 -0.1574 -0.4403  0.1601
  156MOL0     C21406  10.285   9.918   9.063 -0.0826 -0.3124  0.2012
  156MOL0     N21407  10.208   9.888   9.184  0.2491  0.2312  0.1565
  156MOL0     C21408  10.138   9.777   9.221  0.3648  0.1597  0.2304
  156MOL0     C21409  10.076   9.805   9.335  0.3027  0.6216  0.7800
  156MOL0     C21410   9.989   9.720   9.420 -1.3550  0.2815  0.2134
  156MOL0     C21411  10.040   9.591   9.475  0.0085 -0.1401  0.6640
  156MOL0     C21412  10.166   9.599   9.567 -0.9928 -0.1629 -0.5305
  156MOL0     C21413  10.223   9.466   9.631 -0.4334 -0.5746  1.1098
  156MOL0     O21414  10.354   9.497   9.652 -0.0034 -0.8037 -0.0159
  156MOL0     C21415  10.448   9.454   9.564 -0.8216  0.3642  0.1369
  156MOL0     C21416  10.578   9.428   9.608  0.3810  0.2938 -0.2892
  156MOL0     C21417  10.673   9.366   9.521  0.2691 -0.3385 -0.1800
  156MOL0     C21418  10.813   9.338   9.572 -0.2756 -0.6174 -0.3655
  156MOL0     C21419  10.640   9.332   9.385  0.0932  0.5940  0.2201
  156MOL0     C21420  10.730   9.285   9.286 -0.8811  0.7684  0.8937
  156MOL0     O21421  10.671   9.204   9.188 -0.5127  0.9571 -0.4713
  156MOL0     C21422  10.741   9.180   9.076 -0.3739  0.1601  0.6756
  156MOL0     C21423  10.700   9.253   8.962  0.5941  0.7049  0.5107
  156MOL0     C21424  10.751   9.214   8.841 -0.1055  0.2455 -0.1179
  156MOL0     C21425  10.867   9.139   8.831  0.0083 -0.3816 -0.1949
  156MOL0     O21426  10.925   9.128   8.708 -1.6611  0.2983 -0.3994
  156MOL0     C21427  10.848   9.083   8.596  0.4071 -0.2875 -0.0495
  156MOL0     C21428  10.936   9.026   8.490 -0.5127  0.3744  0.3072
  156MOL0     C21429  11.048   9.122   8.439 -0.2848 -0.3473 -0.0821
  156MOL0     C21430  11.143   9.041   8.344 -0.3043 -0.0606  0.5913
  156MOL0     C21431  11.285   9.110   8.323 -0.8886 -0.2865  0.5598
  156MOL0     C21432  11.387   9.033   8.243 -0.1999  0.3445  0.5406
  156MOL0     C21433  11.340   8.950   8.124 -0.6647  0.2993  0.0763
  156MOL0     C21434  11.463   8.922   8.028  0.6035 -0.3060  0.5733
  156MOL0    Cl21435  11.501   9.080   7.938 -0.5455 -0.5664 -0.1585
  156MOL0     C21436  10.917   9.073   8.939 -0.0283  0.0526  0.2053
  156MOL0     C21437  10.846   9.090   9.061  0.1721  1.0716  0.1106
  156MOL0     O21438  10.854   9.314   9.294 -0.3932 -0.7984  0.4778
  156MOL0     C21439  10.514   9.352   9.350 -0.5846  0.3382 -0.5918
  156MOL0     C21440  10.420   9.407   9.435 -0.5385 -0.9353  0.3038
  156MOL0     N21441  10.082   9.938   9.353 -0.1540  0.2216 -1.1237
  156MOL0     N21442  10.174   9.985   9.271 -0.5651  0.0625 -0.2321
  156MOL0     C21443   9.482   9.358   8.995  0.1737 -0.7381  0.4186
  156MOL0     C21444   9.378   9.334   9.091 -0.2333  0.7889 -0.0623
  156MOL0     C21445   9.034   9.407   9.397 -0.1299  0.3117 -0.6523
  156MOL0     C21446   9.075   9.286   9.449  0.3749 -0.0554 -0.1371
  156MOL0     C21447   8.998   9.230   9.547  0.6224  0.4016 -0.4015
  156MOL0     C21448   8.883   9.291   9.600 -0.0289 -0.0574  0.2736
  156MOL0     O21449   8.815   9.229   9.700 -0.2413 -0.4204  0.1045
  156MOL0     C21450   8.719   9.126   9.651 -0.7523 -0.6897  0.0525
  156MOL0     C21451   8.731   8.995   9.724 -0.2278 -1.2707  0.6324
  156MOL0     C21452   8.688   9.004   9.866  1.2457  0.3500 -0.2646
  156MOL0     C21453   8.705   8.865   9.945  0.5010  0.0292 -0.3313
  156MOL0     C21454   8.649   8.863  10.072 -0.4967  0.4029  0.0065
  156MOL0     C21455   8.601   8.867  10.182  0.3971  0.5221 -0.0427
  156MOL0     C21456   8.848   9.424   9.561  0.6003  0.8639  0.4520
  156MOL0     C21457   8.925   9.480   9.456  0.3662 -0.2572 -0.1477
  156MOL0     C21458   8.873   9.607   9.408  0.5980 -0.2172  0.8444
  156MOL0     H21459   9.189   9.618   9.041 -1.0949 -1.4221  1.3399
  156MOL0     H21460   9.397   9.666   8.908  0.0735  0.3434  0.9692
  156MOL0     H21461   9.637   9.374   8.763  1.4387 -0.0808 -0.4254
  156MOL0     H21462   9.754   9.408   8.887 -0.7791 -3.2175 -1.5991
  156MOL0     H21463   9.863   9.463   8.696  0.5761  0.8073 -1.5916
  156MOL0     H21464   9.728   9.565   8.636 -1.5608 -0.0861  0.6601
  156MOL0     H21465   9.788   9.723   8.795 -2.4862 -2.8247  4.3183
  156MOL0     H21466   9.889   9.619   8.888 -3.5619 -0.2795  0.4405
  156MOL0     H21467  10.065   9.593   8.734 -1.3095 -1.9096 -1.2982
  156MOL0     H21468   9.979   9.675   8.612 -0.4226 -1.2154 -0.0459
  156MOL0     H21469  10.004   9.889   8.730 -2.3973 -3.4279 -1.6740
  156MOL0     H21470  10.158   9.810   8.686  1.0411  1.6250  0.0395
  156MOL0     H21471  10.032   9.813   8.969 -1.0053 -3.4953 -1.2589
  156MOL0     H21472  10.173   9.721   8.909  0.1401  0.2412 -0.7779
  156MOL0     H21473  10.130  10.033   8.952  3.2129  2.3154  0.0205
  156MOL0     H21474  10.255   9.981   8.856 -0.6661 -0.6033 -0.2802
  156MOL0     H21475  10.355   9.841   9.030 -0.6378  0.4129 -2.9837
  156MOL0     H21476  10.344  10.006   9.091 -2.4835  1.7996 -1.0338
  156MOL0     H21477  10.148   9.681   9.171  4.2801 -0.5471  1.9888
  156MOL0     H21478   9.897   9.698   9.364  0.6094 -2.7584 -2.1565
  156MOL0     H21479   9.960   9.767   9.515 -1.1897 -1.3718  1.1209
  156MOL0     H21480   9.963   9.540   9.533 -1.9537  2.3073  0.3666
  156MOL0     H21481  10.050   9.521   9.392 -0.8496 -1.4096  1.5864
  156MOL0     H21482  10.246   9.658   9.521 -1.3149  0.6014 -0.1312
  156MOL0     H21483  10.131   9.654   9.655 -2.9952 -0.4992 -1.0718
  156MOL0     H21484  10.172   9.438   9.724  0.9101 -1.8021  1.5060
  156MOL0     H21485  10.199   9.386   9.560  1.1725  0.3408 -0.5450
  156MOL0     H21486  10.598   9.455   9.711  1.6546 -1.5699  0.0074
  156MOL0     H21487  10.865   9.251   9.530  2.1025 -1.4388  3.6921
  156MOL0     H21488  10.800   9.312   9.677 -1.9707 -2.3351 -0.9460
  156MOL0     H21489  10.880   9.425   9.573 -2.3518  1.1317  2.5069
  156MOL0     H21490  10.617   9.322   8.958  2.0948  2.5250 -1.9511
  156MOL0     H21491  10.695   9.251   8.756 -3.0426  0.3686  1.7439
  156MOL0     H21492  10.774   9.012   8.633  0.3984  0.8418  2.2870
  156MOL0     H21493  10.800   9.167   8.545 -0.0981  0.1441  1.1067
  156MOL0     H21494  10.996   8.943   8.528  1.4652 -0.1633 -3.5444
  156MOL0     H21495  10.866   8.992   8.414 -2.3438  3.1021  0.6382
  156MOL0     H21496  11.105   9.175   8.517  1.9658  0.1948 -2.0016
  156MOL0     H21497  11.006   9.206   8.383  1.6376  0.5242 -0.2925
  156MOL0     H21498  11.095   9.024   8.247 -0.0401 -1.8629  0.7430
  156MOL0     H21499  11.156   8.937   8.374 -0.9176  0.0426  1.2429
  156MOL0     H21500  11.265   9.206   8.275  0.1201 -0.8567 -1.1096
  156MOL0     H21501  11.338   9.122   8.417  1.1538 -0.2846 -0.5493
  156MOL0     H21502  11.439   8.965   8.311  1.2504  3.2159  2.5256
  156MOL0     H21503  11.445   9.115   8.200 -0.1846  0.4027  0.6706
  156MOL0     H21504  11.261   8.997   8.063 -0.2222  0.3307 -0.4761
  156MOL0     H21505  11.296   8.860   8.166 -1.5602  1.0963  0.9048
  156MOL0     H21506  11.435   8.846   7.955 -0.2542 -0.6991  1.2877
  156MOL0     H21507  11.548   8.891   8.090  1.7936  2.2525  0.3630
  156MOL0     H21508  11.007   9.012   8.942 -0.6837 -1.2030 -2.6389
  156MOL0     H21509  10.873   9.041   9.154 -0.3804 -0.2546 -0.4089
  156MOL0     H21510  10.477   9.342   9.249 -1.1231  1.5551 -0.5296
  156MOL0     H21511  10.333   9.431   9.375 -1.0687  1.9262  2.0412
  156MOL0     H21512   9.551   9.278   8.974 -0.0373 -0.3398 -2.0969
  156MOL0     H21513   9.355   9.237   9.135 -3.1819  2.0871  1.5356
  156MOL0     H21514   9.164   9.231   9.421 -0.7045 -2.4443  0.8545
  156MOL0     H21515   9.017   9.132   9.590  2.6291  1.5075  1.4502
  156MOL0     H21516   8.616   9.160   9.665 -0.4872  0.4420 -0.6138
  156MOL0     H21517   8.736   9.109   9.544 -1.8051 -2.9233  0.1953
  156MOL0     H21518   8.836   8.965   9.718  1.0991  2.8864 -0.5550
  156MOL0     H21519   8.658   8.925   9.682  0.4023 -0.7933 -1.3984
  156MOL0     H21520   8.746   9.073   9.927  0.9656 -1.0833  1.6896
  156MOL0     H21521   8.586   9.043   9.872  0.0296 -2.7568  2.2731
  156MOL0     H21522   8.812   8.845   9.959  1.1266  3.6019  0.9142
  156MOL0     H21523   8.665   8.785   9.882  2.0241  0.9014 -2.5447
  156MOL0     H21524   8.553   8.853  10.276 -0.9499 -0.4952 -0.8521
  156MOL0     H21525   8.755   9.459   9.605 -1.4218 -3.7860  0.4819
  156MOL0     H21526   8.935   9.693   9.434  0.7190  0.4344 -1.3740
  156MOL0     H21527   8.855   9.593   9.301 -2.6776 -0.9897  1.3807
  156MOL0     H21528   8.772   9.640   9.432  0.5591  0.7186 -0.4819
  157MOL0     O21529   5.331   2.446   5.794 -0.2499  0.2801 -0.1835
  157MOL0     C21530   5.425   2.387   5.739  0.6694  0.1335  0.0112
  157MOL0     O21531   5.545   2.348   5.794  0.0165  0.5990  0.5425
  157MOL0     C21532   5.580   2.412   5.907  0.3158  0.3765  1.0159
  157MOL0     C21533   5.636   2.336   6.007  0.2560  0.5632  0.4980
  157MOL0     C21534   5.695   2.399   6.121 -0.0938 -1.0219  1.1358
  157MOL0     C21535   5.688   2.540   6.133  0.5357  0.2927 -0.2317
  157MOL0     O21536   5.718   2.606   6.250 -0.0303  0.1169 -0.8820
  157MOL0     C21537   5.838   2.573   6.323  0.0991  0.4260  0.8033
  157MOL0     C21538   5.960   2.629   6.240  0.5234  0.1330 -0.3282
  157MOL0     C21539   6.084   2.571   6.306 -0.4278 -0.9555 -0.4026
  157MOL0     C21540   6.206   2.653   6.280  0.3435  0.3730 -0.0731
  157MOL0     C21541   6.335   2.583   6.343 -1.2649  0.1679 -0.4777
  157MOL0     C21542   6.464   2.663   6.292  0.5120  0.9837  0.7943
  157MOL0     C21543   6.584   2.600   6.349 -1.0882  0.8332 -0.1555
  157MOL0     C21544   6.714   2.665   6.295 -0.5322 -0.2050  0.1181
  157MOL0     N21545   6.819   2.574   6.261 -0.1501  0.0798 -0.0420
  157MOL0     C21546   6.865   2.470   6.339  0.9696  0.3928  0.4436
  157MOL0     C21547   6.988   2.446   6.279  1.1783  0.8290 -0.5230
  157MOL0     C21548   7.082   2.338   6.312 -0.2003 -0.5015 -0.7709
  157MOL0     C21549   7.203   2.401   6.380 -0.3252  0.0369 -0.1156
  157MOL0     C21550   7.171   2.521   6.465 -0.0669 -1.0429  0.2518
  157MOL0     C21551   7.288   2.571   6.558 -0.6179 -0.3507  0.6639
  157MOL0     O21552   7.269   2.705   6.600 -0.8149  0.3190 -0.1579
  157MOL0     C21553   7.337   2.752   6.706 -0.4070  0.4953 -0.0240
  157MOL0     C21554   7.278   2.861   6.781 -0.2438  0.5679 -0.4756
  157MOL0     C21555   7.351   2.921   6.888  0.5818  0.2683  0.2874
  157MOL0     C21556   7.280   3.030   6.961 -0.2071  0.1113 -0.0664
  157MOL0     C21557   7.477   2.868   6.918  0.4294 -0.3817 -0.3889
  157MOL0     C21558   7.551   2.933   7.029  0.2677 -0.0635 -0.6513
  157MOL0     O21559   7.576   2.870   7.149  0.0106 -0.2069  0.5837
  157MOL0     C21560   7.512   2.753   7.193  0.1836 -0.0072  0.7466
  157MOL0     C21561   7.391   2.696   7.156  0.7812  0.2530 -0.1332
  157MOL0     C21562   7.337   2.582   7.223  0.4571 -1.4315  0.0333
  157MOL0     C21563   7.397   2.523   7.332 -1.1967  0.2458 -0.3730
  157MOL0     O21564   7.340   2.407   7.384 -0.9085 -0.3382  0.6003
  157MOL0     C21565   7.406   2.321   7.485  0.2653 -0.9562  1.1403
  157MOL0     C21566   7.517   2.231   7.423  0.6787  0.2963 -0.3059
  157MOL0     C21567   7.587   2.149   7.532  0.2137 -0.4168 -0.0301
  157MOL0     C21568   7.702   2.082   7.463  0.4059 -0.0284 -0.5536
  157MOL0     C21569   7.832   2.175   7.486 -0.8354  0.4699  0.6579
  157MOL0     C21570   7.944   2.150   7.385 -0.2156 -0.6862 -0.1593
  157MOL0     C21571   8.031   2.027   7.405  0.6572  0.3186 -0.8291
  157MOL0     C21572   8.141   1.984   7.298  0.7457 -0.4677 -1.6469
  157MOL0    Cl21573   8.242   1.858   7.371 -0.3638 -0.0404  0.3735
  157MOL0     C21574   7.522   2.583   7.377 -0.5575 -0.1040  0.6832
  157MOL0     C21575   7.578   2.699   7.303  0.2701  0.3313 -0.3054
  157MOL0     O21576   7.567   3.054   7.022  0.3235 -0.0177 -0.0034
  157MOL0     C21577   7.543   2.773   6.842 -0.2190 -0.7074  0.0416
  157MOL0     C21578   7.472   2.707   6.740  0.4350  0.2894  0.1116
  157MOL0     N21579   7.008   2.523   6.166  0.4454 -0.1246  0.0378
  157MOL0     N21580   6.897   2.592   6.160  0.4212  0.5329 -0.3457
  157MOL0     C21581   5.653   2.615   6.026  0.6404  0.0773  0.3113
  157MOL0     C21582   5.592   2.552   5.910  0.3408  0.5839  0.2513
  157MOL0     C21583   5.407   2.343   5.601 -0.8202  0.3812 -0.8269
  157MOL0     C21584   5.424   2.211   5.565  0.2097 -0.8501 -0.2496
  157MOL0     C21585   5.407   2.164   5.437  0.1591 -0.0564  0.6470
  157MOL0     C21586   5.372   2.253   5.334 -0.3293  1.1128 -1.4098
  157MOL0     O21587   5.340   2.193   5.214  0.0756  0.1653 -0.2123
  157MOL0     C21588   5.267   2.275   5.122 -0.7125  1.3378 -0.1766
  157MOL0     C21589   5.201   2.184   5.011  0.1007  0.0279 -0.1125
  157MOL0     C21590   5.313   2.135   4.924  0.0156 -0.3531  0.2047
  157MOL0     C21591   5.240   2.030   4.823  0.5488 -1.3628  0.5852
  157MOL0     C21592   5.331   1.983   4.720  0.6334 -0.0105 -0.2105
  157MOL0     C21593   5.420   1.962   4.645  1.1475 -0.5317  0.5586
  157MOL0     C21594   5.351   2.387   5.369  0.0776 -0.2272  0.2553
  157MOL0     C21595   5.376   2.430   5.498  0.0175  0.5378 -0.1773
  157MOL0     C21596   5.375   2.566   5.524  1.3644  0.1983 -0.1209
  157MOL0     H21597   5.645   2.228   5.996 -1.0708  0.4924 -0.0774
  157MOL0     H21598   5.724   2.326   6.196  1.0959 -1.2046  0.5227
  157MOL0     H21599   5.851   2.466   6.341  2.4312  0.9806  3.1136
  157MOL0     H21600   5.846   2.621   6.421  0.7086  0.7794  0.5889
  157MOL0     H21601   5.961   2.605   6.134  1.9901 -2.6004  0.2112
  157MOL0     H21602   5.954   2.737   6.256  0.8440 -0.2980  4.0170
  157MOL0     H21603   6.069   2.576   6.414 -4.5793  4.5389 -0.7980
  157MOL0     H21604   6.113   2.473   6.266 -0.4344 -1.7034  1.3193
  157MOL0     H21605   6.213   2.673   6.173 -0.4305  3.8951  0.4104
  157MOL0     H21606   6.206   2.751   6.329  2.1496 -0.0225  0.8250
  157MOL0     H21607   6.351   2.482   6.304 -0.8305 -1.5498  3.5658
  157MOL0     H21608   6.332   2.584   6.453  1.8492  2.3336 -0.2981
  157MOL0     H21609   6.468   2.673   6.183 -2.2754  0.2807  0.5371
  157MOL0     H21610   6.455   2.767   6.325 -3.5410  1.1655 -0.2948
  157MOL0     H21611   6.595   2.495   6.319 -3.0408 -0.3163  2.6826
  157MOL0     H21612   6.576   2.595   6.458  2.4415 -3.5935  0.2000
  157MOL0     H21613   6.699   2.724   6.204 -1.2897  0.1715  0.4706
  157MOL0     H21614   6.751   2.727   6.377 -1.8349 -0.0360  0.6077
  157MOL0     H21615   6.813   2.439   6.429 -1.4597 -2.2281 -1.6638
  157MOL0     H21616   7.113   2.284   6.222  1.7651  0.0970 -0.5127
  157MOL0     H21617   7.053   2.261   6.385  3.1513 -1.3664 -0.1787
  157MOL0     H21618   7.245   2.324   6.446  0.9057 -1.1986 -2.2356
  157MOL0     H21619   7.265   2.439   6.298 -2.2838 -1.8849 -2.6521
  157MOL0     H21620   7.166   2.606   6.396 -2.5057 -0.8321  0.5973
  157MOL0     H21621   7.081   2.503   6.524 -0.5526  1.1513  0.2817
  157MOL0     H21622   7.290   2.513   6.650  0.8972 -2.4830 -0.6171
  157MOL0     H21623   7.379   2.559   6.498 -1.3823  3.3026 -1.5246
  157MOL0     H21624   7.175   2.888   6.759 -0.3251  1.7156  1.0724
  157MOL0     H21625   7.175   3.000   6.969  0.2855 -1.6516  0.1830
  157MOL0     H21626   7.271   3.117   6.895  0.7436  2.2343  2.4478
  157MOL0     H21627   7.324   3.060   7.056  1.9573  2.3822 -1.6630
  157MOL0     H21628   7.332   2.727   7.071 -0.0101 -2.6690 -0.7723
  157MOL0     H21629   7.247   2.533   7.188  1.1286 -1.8281 -1.2224
  157MOL0     H21630   7.447   2.393   7.556 -1.6219 -0.0975  1.4244
  157MOL0     H21631   7.317   2.276   7.529 -2.0634 -0.7938 -2.8558
  157MOL0     H21632   7.471   2.172   7.344  1.0280  0.6749 -0.7944
  157MOL0     H21633   7.589   2.295   7.371  1.7428  1.2593  2.1817
  157MOL0     H21634   7.503   2.084   7.558  0.3100 -0.2574  0.7111
  157MOL0     H21635   7.628   2.201   7.619  1.8172 -1.4112 -0.1555
  157MOL0     H21636   7.689   2.065   7.356 -1.0057  0.0406 -0.4041
  157MOL0     H21637   7.718   1.983   7.507  1.1844  1.2126  2.2015
  157MOL0     H21638   7.807   2.281   7.476  3.2890  1.5817  0.3257
  157MOL0     H21639   7.869   2.175   7.589  1.4172 -0.4737 -0.0964
  157MOL0     H21640   8.009   2.239   7.384  3.2870 -3.0465 -1.3545
  157MOL0     H21641   7.893   2.147   7.288  1.8300 -4.1639 -1.2971
  157MOL0     H21642   7.964   1.941   7.406  0.4850  0.4473  0.1568
  157MOL0     H21643   8.083   2.034   7.501  2.0183  0.6490 -1.5618
  157MOL0     H21644   8.183   2.074   7.253 -2.3949  2.3971  0.6156
  157MOL0     H21645   8.091   1.928   7.219 -1.9422 -1.4150  0.5748
  157MOL0     H21646   7.565   2.537   7.465 -3.5297 -2.2758  1.1453
  157MOL0     H21647   7.680   2.735   7.316 -0.2269  2.9948 -2.8556
  157MOL0     H21648   7.648   2.765   6.868 -0.3034  1.8207  1.4402
  157MOL0     H21649   7.522   2.634   6.677 -2.3493 -2.2128  0.5780
  157MOL0     H21650   5.660   2.723   6.033 -1.5923  0.1998  1.5978
  157MOL0     H21651   5.549   2.613   5.831 -2.4857  0.0732  1.3083
  157MOL0     H21652   5.466   2.139   5.635  0.9913 -1.1707 -1.0194
  157MOL0     H21653   5.396   2.059   5.415 -0.5506  0.3982 -1.3724
  157MOL0     H21654   5.182   2.334   5.159 -0.8485  3.0716 -2.9982
  157MOL0     H21655   5.341   2.339   5.074 -0.1090  0.9200  0.1821
  157MOL0     H21656   5.135   2.252   4.955 -0.0064  0.6065  0.6968
  157MOL0     H21657   5.144   2.105   5.061 -0.1970  1.4947  2.0187
  157MOL0     H21658   5.354   2.211   4.857 -1.3092 -1.1998 -1.6604
  157MOL0     H21659   5.394   2.086   4.978  1.8947  1.9597 -0.3464
  157MOL0     H21660   5.155   2.083   4.780  2.1298  2.6283  1.9242
  157MOL0     H21661   5.214   1.946   4.889 -2.0803  0.4914  2.1107
  157MOL0     H21662   5.499   1.953   4.573 -0.4107 -3.3069 -0.9867
  157MOL0     H21663   5.320   2.472   5.309  0.2839 -0.2897  0.0627
  157MOL0     H21664   5.303   2.580   5.605 -3.6630 -1.7585 -3.7516
  157MOL0     H21665   5.477   2.604   5.534  1.4389  0.5071 -1.6942
  157MOL0     H21666   5.329   2.625   5.444  1.3445  0.7409  0.2815
  158MOL0     O21667   0.293   9.220   7.432 -0.3704  0.2128 -0.7875
  158MOL0     C21668   0.305   9.104   7.471  0.1405 -0.7745  0.0474
  158MOL0     O21669   0.203   9.017   7.469  0.3172  0.1795  0.1901
  158MOL0     C21670   0.079   9.074   7.473  0.4316  0.2476 -0.5265
  158MOL0     C21671   0.004   9.089   7.353 -0.1722 -0.0939 -1.1551
  158MOL0     C21672  -0.129   9.131   7.355 -0.2255 -0.4690 -0.0868
  158MOL0     C21673  -0.182   9.178   7.477 -0.1393  1.2383 -0.4468
  158MOL0     O21674  -0.302   9.229   7.463 -0.6258  0.0241 -0.0786
  158MOL0     C21675  -0.385   9.209   7.574  0.0897  0.0252 -0.9642
  158MOL0     C21676  -0.526   9.247   7.544 -0.0723  0.0515 -0.2040
  158MOL0     C21677  -0.542   9.401   7.529 -0.0041  0.3354  0.3784
  158MOL0     C21678  -0.506   9.479   7.656  0.0374  0.4215  0.6877
  158MOL0     C21679  -0.587   9.610   7.678 -0.2119  1.0918 -0.3637
  158MOL0     C21680  -0.544   9.704   7.570  1.1101 -0.6137  0.5643
  158MOL0     C21681  -0.626   9.837   7.579 -0.2336 -0.2495 -0.1173
  158MOL0     C21682  -0.612   9.907   7.714 -0.1796  0.1120 -0.3555
  158MOL0     N21683  -0.693  10.029   7.727 -0.3196 -0.1506  0.0471
  158MOL0     C21684  -0.693  10.132   7.635 -0.3295  0.3952 -0.3686
  158MOL0     C21685  -0.825  10.177   7.643 -0.3702  0.2622  0.1494
  158MOL0     C21686  -0.890  10.281   7.548 -0.2526 -0.1075  0.3405
  158MOL0     C21687  -0.931  10.399   7.634  0.3675  0.8048  0.1021
  158MOL0     C21688  -0.988  10.505   7.549  0.1599 -0.0278 -0.0231
  158MOL0     C21689  -0.988  10.640   7.613 -0.0998 -1.2256  0.3121
  158MOL0     O21690  -0.856  10.673   7.669 -0.7550 -0.4892 -0.1649
  158MOL0     C21691  -0.846  10.778   7.751  0.2164 -0.6566  0.4073
  158MOL0     C21692  -0.947  10.873   7.758 -0.5599  0.2619 -0.4605
  158MOL0     C21693  -0.925  10.991   7.846 -0.0124 -0.2482  0.8533
  158MOL0     C21694  -1.045  11.070   7.877 -0.0106  0.8322 -0.2168
  158MOL0     C21695  -0.803  11.010   7.915 -0.4171 -0.2486  0.1386
  158MOL0     C21696  -0.764  11.129   7.991  0.5128 -0.4387  0.0787
  158MOL0     O21697  -0.650  11.120   8.072 -0.3249 -0.0483 -0.3410
  158MOL0     C21698  -0.630  11.212   8.179  0.1459  0.5925 -0.0857
  158MOL0     C21699  -0.500  11.243   8.209  0.5291 -0.5462  0.3155
  158MOL0     C21700  -0.483  11.332   8.315 -0.0464  0.5422 -0.0889
  158MOL0     C21701  -0.582  11.397   8.385 -1.0225  0.9855 -0.2847
  158MOL0     O21702  -0.555  11.487   8.487  0.2177 -0.0897  0.3171
  158MOL0     C21703  -0.453  11.439   8.578  0.6970 -0.5967 -0.5900
  158MOL0     C21704  -0.476  11.484   8.725 -0.1397  0.4288 -0.0101
  158MOL0     C21705  -0.591  11.419   8.818 -0.6917  0.1011  0.1856
  158MOL0     C21706  -0.555  11.445   8.968  0.1067  0.1022  0.3532
  158MOL0     C21707  -0.660  11.382   9.073 -1.1825 -1.3076 -0.1280
  158MOL0     C21708  -0.642  11.463   9.202  0.1503 -0.9410 -0.4260
  158MOL0     C21709  -0.762  11.468   9.294 -0.3281  0.4422 -0.5569
  158MOL0     C21710  -0.714  11.493   9.436  1.8663  0.0498  0.0756
  158MOL0    Cl21711  -0.629  11.649   9.442 -0.0354  0.2285 -0.2239
  158MOL0     C21712  -0.713  11.360   8.353  0.8298  0.4200  0.1374
  158MOL0     C21713  -0.731  11.256   8.258 -1.3733 -0.1259  0.1515
  158MOL0     O21714  -0.847  11.214   7.992 -0.7896 -0.8728 -0.2650
  158MOL0     C21715  -0.712  10.901   7.914  0.4261  0.1650 -0.1655
  158MOL0     C21716  -0.727  10.792   7.827  0.3073 -0.5542 -0.3799
  158MOL0     N21717  -0.893  10.108   7.740 -0.2578 -0.5009 -0.1675
  158MOL0     N21718  -0.804  10.035   7.806  0.1055 -0.5009  0.3236
  158MOL0     C21719  -0.104   9.176   7.602  0.3645 -0.5037  1.4244
  158MOL0     C21720   0.024   9.121   7.595 -0.5232 -0.0546  0.5338
  158MOL0     C21721   0.434   9.061   7.530  0.0168  0.9645 -0.4681
  158MOL0     C21722   0.428   8.943   7.609  0.3567  0.0289  0.1401
  158MOL0     C21723   0.540   8.893   7.685 -0.2306 -0.1749 -0.0176
  158MOL0     C21724   0.654   8.971   7.677  0.2581  0.2249  1.0758
  158MOL0     O21725   0.767   8.921   7.737  0.4481 -0.4424  0.4953
  158MOL0     C21726   0.742   8.890   7.877  0.2574 -0.4188 -0.3547
  158MOL0     C21727   0.859   8.927   7.966  0.1636 -0.1934  0.2148
  158MOL0     C21728   0.977   8.828   7.987  0.6525  0.4338  0.0139
  158MOL0     C21729   1.063   8.835   7.857 -0.2852  0.1607  0.0224
  158MOL0     C21730   1.135   8.967   7.849 -0.8748  0.9732  0.9062
  158MOL0     C21731   1.189   9.071   7.850  0.2772 -0.0444 -0.1197
  158MOL0     C21732   0.659   9.083   7.599  1.0556  0.2643 -0.8036
  158MOL0     C21733   0.560   9.123   7.517 -0.1356  0.7574  0.4951
  158MOL0     C21734   0.589   9.244   7.427  0.3354 -0.2827 -0.1979
  158MOL0     H21735   0.054   9.055   7.263  0.3518  0.4316 -1.0683
  158MOL0     H21736  -0.170   9.159   7.259  1.2281 -1.9681 -1.1947
  158MOL0     H21737  -0.347   9.266   7.659 -1.0086 -1.3378  0.5059
  158MOL0     H21738  -0.393   9.104   7.603 -0.2589  0.4867  0.7794
  158MOL0     H21739  -0.553   9.201   7.448  1.2113  2.4583 -1.8104
  158MOL0     H21740  -0.599   9.211   7.617 -0.4053  0.7128 -0.2008
  158MOL0     H21741  -0.474   9.416   7.444  1.6112  1.5801  1.8206
  158MOL0     H21742  -0.637   9.447   7.501  1.7082  1.8966 -3.7087
  158MOL0     H21743  -0.520   9.402   7.733  4.4549 -2.6232 -1.1415
  158MOL0     H21744  -0.402   9.509   7.640 -0.4717  1.0643 -1.9603
  158MOL0     H21745  -0.559   9.663   7.770 -0.4634  2.0788 -0.8452
  158MOL0     H21746  -0.694   9.594   7.695  0.1708 -0.4601  0.8393
  158MOL0     H21747  -0.439   9.732   7.580  0.5347  1.2043  1.9806
  158MOL0     H21748  -0.547   9.662   7.469 -0.9254 -0.7008  0.6187
  158MOL0     H21749  -0.730   9.827   7.548 -0.5260  0.6900  0.5276
  158MOL0     H21750  -0.588   9.898   7.498 -0.5867 -1.5174 -1.2749
  158MOL0     H21751  -0.654   9.835   7.786  0.8306 -0.6656 -0.5208
  158MOL0     H21752  -0.509   9.933   7.742 -0.0378  0.2368 -0.9882
  158MOL0     H21753  -0.612  10.155   7.567 -1.6289  1.0074 -1.7432
  158MOL0     H21754  -0.978  10.231   7.508  0.5055 -0.7231 -0.6162
  158MOL0     H21755  -0.812  10.303   7.474 -0.1352 -1.8632 -0.1182
  158MOL0     H21756  -1.003  10.368   7.710  1.3105 -0.3610  0.5566
  158MOL0     H21757  -0.832  10.424   7.674  0.7541 -2.1013  1.2006
  158MOL0     H21758  -0.935  10.512   7.453  1.3617  1.3238  0.7066
  158MOL0     H21759  -1.090  10.470   7.529 -1.9935  3.0382  4.0113
  158MOL0     H21760  -0.997  10.717   7.537 -1.5908 -0.7537  0.9352
  158MOL0     H21761  -1.070  10.647   7.685  0.2074 -2.8048  0.8696
  158MOL0     H21762  -1.040  10.866   7.702 -0.6293  0.1500 -0.3304
  158MOL0     H21763  -1.131  11.021   7.830  0.7746  0.9505 -1.8156
  158MOL0     H21764  -1.045  11.171   7.836 -0.2648  0.7526 -0.4192
  158MOL0     H21765  -1.066  11.070   7.984 -2.4440 -2.3379 -0.5256
  158MOL0     H21766  -0.413  11.204   8.157  0.2346  0.2391 -0.8031
  158MOL0     H21767  -0.378  11.343   8.342  0.2395 -1.7428  0.0063
  158MOL0     H21768  -0.445  11.330   8.572  0.2135 -0.5967 -1.5279
  158MOL0     H21769  -0.359  11.488   8.553  0.2145  0.8474  0.3176
  158MOL0     H21770  -0.382  11.468   8.779 -0.3630 -1.5148 -0.1314
  158MOL0     H21771  -0.486  11.592   8.720 -3.0576  0.2692  0.5084
  158MOL0     H21772  -0.593  11.314   8.789 -2.5884 -0.1452  1.0591
  158MOL0     H21773  -0.690  11.456   8.791  0.5048  2.2555 -1.5868
  158MOL0     H21774  -0.560  11.553   8.985 -0.1723 -0.0743  1.4933
  158MOL0     H21775  -0.455  11.409   8.994  1.3737  1.5503 -2.0834
  158MOL0     H21776  -0.759  11.389   9.028 -1.5665 -1.8067  0.6260
  158MOL0     H21777  -0.627  11.280   9.094  3.7823 -0.2050 -1.2812
  158MOL0     H21778  -0.616  11.568   9.187 -1.6287  0.4450  4.4609
  158MOL0     H21779  -0.558  11.429   9.262  0.5507  2.6642  1.3071
  158MOL0     H21780  -0.807  11.369   9.285  0.7928 -0.3608  1.7103
  158MOL0     H21781  -0.833  11.541   9.255 -0.0159  1.9488  1.4798
  158MOL0     H21782  -0.647  11.412   9.466  2.0817 -0.1454 -0.9151
  158MOL0     H21783  -0.810  11.486   9.488  2.1120 -0.6833  0.4439
  158MOL0     H21784  -0.803  11.401   8.397  1.2212  1.2584  0.1697
  158MOL0     H21785  -0.834  11.222   8.248 -0.8037 -2.1410  0.8469
  158MOL0     H21786  -0.629  10.892   7.983 -0.8723 -3.1618  1.1465
  158MOL0     H21787  -0.657  10.709   7.822 -0.2489 -1.0029 -0.8413
  158MOL0     H21788  -0.139   9.226   7.691  1.3308  1.8843  0.5512
  158MOL0     H21789   0.085   9.138   7.683 -0.6897  4.1799  0.0367
  158MOL0     H21790   0.333   8.897   7.635  0.6895 -0.8121 -0.0975
  158MOL0     H21791   0.532   8.806   7.750  1.2854  1.0253  1.8652
  158MOL0     H21792   0.666   8.958   7.916  2.0172  2.5630 -1.8359
  158MOL0     H21793   0.702   8.789   7.892 -0.2627 -0.2941 -0.8525
  158MOL0     H21794   0.809   8.929   8.063 -1.2398 -1.5197 -0.4557
  158MOL0     H21795   0.890   9.032   7.952 -0.4192 -0.0545 -0.0547
  158MOL0     H21796   1.039   8.863   8.070 -1.3558  0.6948  1.4759
  158MOL0     H21797   0.927   8.732   8.002 -0.4429  0.1179 -4.2381
  158MOL0     H21798   1.007   8.830   7.763 -1.0751  2.0773  0.3236
  158MOL0     H21799   1.123   8.745   7.866 -3.8299 -2.3077  1.6070
  158MOL0     H21800   1.220   9.172   7.862  2.1242 -0.7834  1.8396
  158MOL0     H21801   0.763   9.117   7.595  3.3324 -5.5748 -0.4562
  158MOL0     H21802   0.541   9.331   7.471 -3.3047 -0.9748 -2.4211
  158MOL0     H21803   0.697   9.253   7.410  0.2763  2.6655  0.4424
  158MOL0     H21804   0.558   9.230   7.323 -0.2730  3.3422 -0.6198
  159MOL0     O21805   7.456   6.391  11.063 -0.0793  0.0511 -0.1043
  159MOL0     C21806   7.512   6.495  11.084 -0.2114 -0.6924 -0.9499
  159MOL0     O21807   7.554   6.543  11.208  0.3105  1.4959  0.3959
  159MOL0     C21808   7.533   6.454  11.311 -0.2028 -0.8620  0.7375
  159MOL0     C21809   7.598   6.331  11.320  0.5627 -0.1200  0.8552
  159MOL0     C21810   7.593   6.260  11.442  0.6829  0.6601  0.2171
  159MOL0     C21811   7.508   6.294  11.545 -0.0772 -0.4978  0.6225
  159MOL0     O21812   7.501   6.236  11.671  0.0409  0.0904  0.1771
  159MOL0     C21813   7.601   6.274  11.759 -0.7674 -0.5697  0.1060
  159MOL0     C21814   7.608   6.178  11.873 -0.0170  0.0736 -0.2139
  159MOL0     C21815   7.465   6.110  11.909 -0.4230 -0.9110 -0.0059
  159MOL0     C21816   7.486   6.016  12.031 -0.7776 -0.4902  0.4082
  159MOL0     C21817   7.369   5.926  12.066 -0.5297  0.2766 -0.5968
  159MOL0     C21818   7.282   5.871  11.938  0.2220  0.0058 -2.3962
  159MOL0     C21819   7.199   5.751  11.978  0.0384  0.5458  0.2911
  159MOL0     C21820   7.278   5.609  11.951  0.1961 -0.2702  0.2917
  159MOL0     N21821   7.254   5.528  12.061 -0.2772 -0.3611 -0.0842
  159MOL0     C21822   7.203   5.401  12.050  0.4519 -0.2935  0.3306
  159MOL0     C21823   7.233   5.332  12.161 -0.1229 -0.5972 -0.5017
  159MOL0     C21824   7.180   5.189  12.194  1.2648  0.4221 -0.4177
  159MOL0     C21825   7.025   5.201  12.194 -0.2134  0.7377  0.1961
  159MOL0     C21826   6.946   5.069  12.233  0.5537 -0.0234  0.3394
  159MOL0     C21827   6.946   5.039  12.383  0.1244 -0.1908 -0.6143
  159MOL0     O21828   6.890   5.151  12.455 -0.9580  0.4172 -0.2611
  159MOL0     C21829   6.757   5.150  12.459  0.6840 -0.0797  0.6809
  159MOL0     C21830   6.677   5.259  12.417 -0.3429 -0.0381 -0.3522
  159MOL0     C21831   6.534   5.247  12.427 -0.7966  0.4775  1.0317
  159MOL0     C21832   6.455   5.377  12.391 -1.0762 -0.0163  0.7547
  159MOL0     C21833   6.470   5.132  12.470  0.4427 -0.0672  0.8997
  159MOL0     C21834   6.323   5.112  12.458 -0.3787 -0.6425  1.0985
  159MOL0     O21835   6.271   4.999  12.512 -0.4596  0.1918  0.1415
  159MOL0     C21836   6.145   4.955  12.467  0.3949  0.2984 -0.5262
  159MOL0     C21837   6.137   4.884  12.353 -0.5162 -0.6192  0.7203
  159MOL0     C21838   6.018   4.836  12.305  0.1369  0.1570 -0.4418
  159MOL0     C21839   5.907   4.829  12.402 -0.2694  1.3218  0.0991
  159MOL0     O21840   5.790   4.769  12.377  0.7169  0.1115 -0.9704
  159MOL0     C21841   5.781   4.654  12.289 -0.0482 -0.6748  1.1897
  159MOL0     C21842   5.641   4.615  12.267  0.1335 -0.2171  1.0899
  159MOL0     C21843   5.619   4.545  12.127 -0.3412 -0.1682  0.0564
  159MOL0     C21844   5.482   4.464  12.111 -0.3619 -0.0106 -0.6068
  159MOL0     C21845   5.450   4.417  11.968  0.0452  0.0722 -0.5874
  159MOL0     C21846   5.537   4.289  11.937 -0.6112  0.6193  0.2057
  159MOL0     C21847   5.513   4.229  11.803  0.4415  0.5866 -1.2938
  159MOL0     C21848   5.496   4.083  11.827  0.3839  0.3805  0.3288
  159MOL0    Cl21849   5.360   4.039  11.930  0.1653  0.0917  0.3939
  159MOL0     C21850   5.919   4.880  12.526 -0.0802 -1.0426  0.1427
  159MOL0     C21851   6.036   4.960  12.550 -0.9540  1.1231 -0.2944
  159MOL0     O21852   6.258   5.187  12.386 -0.3002 -0.9918  0.1236
  159MOL0     C21853   6.550   5.028  12.506 -0.6767  1.3412 -1.9241
  159MOL0     C21854   6.694   5.040  12.502 -0.2122 -0.1847  0.3367
  159MOL0     N21855   7.298   5.429  12.239  0.3275  0.1391 -0.0685
  159MOL0     N21856   7.303   5.544  12.183 -0.1291  0.4999  0.4013
  159MOL0     C21857   7.409   6.394  11.517 -0.3914 -0.1737 -0.8457
  159MOL0     C21858   7.442   6.483  11.415 -0.1428  0.9425  0.0336
  159MOL0     C21859   7.562   6.562  10.965 -0.0604 -0.0023 -0.6068
  159MOL0     C21860   7.625   6.693  10.976 -0.8081  0.5968 -1.2486
  159MOL0     C21861   7.675   6.763  10.870 -0.0489 -1.0579  0.1073
  159MOL0     C21862   7.668   6.715  10.736  0.9173 -0.1370  0.0705
  159MOL0     O21863   7.713   6.779  10.623 -0.1697 -0.0437 -0.3203
  159MOL0     C21864   7.762   6.916  10.633  0.5913  0.7124 -0.0253
  159MOL0     C21865   7.919   6.901  10.614  1.4278  0.5061  0.4274
  159MOL0     C21866   7.978   6.863  10.474 -0.4439  1.1372 -1.0579
  159MOL0     C21867   7.942   6.718  10.428 -0.1673  0.4276 -0.3021
  159MOL0     C21868   8.014   6.614  10.511 -0.0368  0.1517 -0.2320
  159MOL0     C21869   8.075   6.535  10.583 -0.8751 -0.1164 -0.0519
  159MOL0     C21870   7.591   6.601  10.718  0.0880  0.8398  0.2409
  159MOL0     C21871   7.546   6.520  10.826 -0.9789 -0.4533  0.4044
  159MOL0     C21872   7.447   6.416  10.779 -0.5021  0.3223 -0.4838
  159MOL0     H21873   7.662   6.295  11.239  0.7598  0.4943  0.7284
  159MOL0     H21874   7.651   6.170  11.460 -2.7528 -1.5323  1.4345
  159MOL0     H21875   7.580   6.373  11.801 -2.5299 -0.2153 -1.4627
  159MOL0     H21876   7.695   6.263  11.705  0.1821  0.3062  1.5051
  159MOL0     H21877   7.676   6.098  11.842 -1.4987 -0.6913 -1.6425
  159MOL0     H21878   7.650   6.232  11.958 -3.9032 -1.7281  3.1749
  159MOL0     H21879   7.393   6.186  11.941  0.3200 -0.1851 -0.0594
  159MOL0     H21880   7.430   6.047  11.827 -2.8319 -2.2975  1.9219
  159MOL0     H21881   7.573   5.952  12.013 -0.6599 -0.5194  1.0678
  159MOL0     H21882   7.524   6.083  12.108  2.3437  0.6623 -1.9256
  159MOL0     H21883   7.308   5.975  12.143  1.4415  1.3390  0.3636
  159MOL0     H21884   7.406   5.836  12.115 -0.8545 -0.1162 -1.0616
  159MOL0     H21885   7.218   5.945  11.889 -2.1457  0.5981  1.2044
  159MOL0     H21886   7.363   5.846  11.868  1.9795 -0.2444 -0.3842
  159MOL0     H21887   7.113   5.759  11.911 -1.2496 -4.4964  0.9520
  159MOL0     H21888   7.166   5.751  12.082  1.0925  2.4269  0.6675
  159MOL0     H21889   7.237   5.564  11.860 -1.0483  2.6201 -0.7110
  159MOL0     H21890   7.385   5.629  11.943 -0.0310  0.9218 -0.0114
  159MOL0     H21891   7.141   5.368  11.967  1.1113  0.8291 -0.6267
  159MOL0     H21892   7.211   5.155  12.293 -2.8200  0.8510  1.2121
  159MOL0     H21893   7.212   5.115  12.121  0.9405  1.2286 -1.4062
  159MOL0     H21894   6.997   5.279  12.265 -0.5177 -0.1038  1.0185
  159MOL0     H21895   6.983   5.227  12.096 -2.6771 -2.0607  0.3854
  159MOL0     H21896   6.847   5.087  12.192  0.0132  1.2204  2.0984
  159MOL0     H21897   6.995   4.987  12.179  1.7410 -0.7428  2.3859
  159MOL0     H21898   6.911   4.942  12.420 -0.0099  0.1739  0.2382
  159MOL0     H21899   7.050   5.028  12.417 -1.4269 -2.6095  4.3557
  159MOL0     H21900   6.731   5.344  12.376 -0.7676  1.4973  2.1043
  159MOL0     H21901   6.384   5.404  12.469 -0.1765  0.5975  1.3787
  159MOL0     H21902   6.414   5.363  12.291  1.9435 -0.8118 -0.4810
  159MOL0     H21903   6.524   5.460  12.373 -1.0124 -0.2732 -0.2467
  159MOL0     H21904   6.231   4.876  12.299  1.2075  1.2519  3.2050
  159MOL0     H21905   5.999   4.798  12.205 -0.6747 -0.6691  0.0076
  159MOL0     H21906   5.807   4.693  12.190  0.8469 -1.0002  1.2792
  159MOL0     H21907   5.849   4.572  12.314  0.1586 -0.9227 -0.0912
  159MOL0     H21908   5.613   4.550  12.351 -1.8487 -0.8556 -0.0056
  159MOL0     H21909   5.579   4.705  12.262  1.1693  0.4818  0.5877
  159MOL0     H21910   5.687   4.460  12.119  0.4738  0.5470 -0.8169
  159MOL0     H21911   5.637   4.611  12.041  1.6226  0.5854  0.9799
  159MOL0     H21912   5.398   4.530  12.133  1.1826  1.8950 -0.0538
  159MOL0     H21913   5.481   4.389  12.190 -2.3566 -1.6592 -2.0994
  159MOL0     H21914   5.347   4.383  11.957 -0.6360  1.4976  1.0587
  159MOL0     H21915   5.455   4.494  11.890 -0.9794 -0.5087 -1.2583
  159MOL0     H21916   5.531   4.219  12.021 -1.4748  0.5062  0.0484
  159MOL0     H21917   5.644   4.315  11.936 -0.4785  0.2177  1.5887
  159MOL0     H21918   5.601   4.255  11.743  0.8379 -0.2015 -1.0578
  159MOL0     H21919   5.415   4.255  11.763 -0.7371 -3.1446 -1.2426
  159MOL0     H21920   5.584   4.046  11.880  2.0870  0.2338 -2.3927
  159MOL0     H21921   5.493   4.033  11.730 -0.4302 -2.1835  1.5992
  159MOL0     H21922   5.830   4.869  12.588 -0.6663  0.0682 -0.4643
  159MOL0     H21923   6.041   5.002  12.650 -0.9898 -1.2146  0.7730
  159MOL0     H21924   6.498   4.937  12.532  0.2975  1.3233  0.1793
  159MOL0     H21925   6.757   4.962  12.542  1.7078 -0.4004 -2.7495
  159MOL0     H21926   7.352   6.411  11.607  2.1844 -2.3557  1.3835
  159MOL0     H21927   7.384   6.575  11.405 -1.9361 -0.3363 -2.5985
  159MOL0     H21928   7.653   6.755  11.060  1.5076 -2.2862  0.3109
  159MOL0     H21929   7.739   6.845  10.900  2.9045 -2.8069 -0.9763
  159MOL0     H21930   7.723   6.971  10.547  0.8451  1.0799  0.0920
  159MOL0     H21931   7.729   6.966  10.725  1.1954 -0.1790  0.6965
  159MOL0     H21932   7.948   6.828  10.690 -0.6426 -0.5343  0.2981
  159MOL0     H21933   7.955   7.000  10.644  2.3287  0.5763 -0.8339
  159MOL0     H21934   7.940   6.929  10.396 -1.4087  0.1436 -1.4490
  159MOL0     H21935   8.087   6.874  10.471 -0.2992  0.2164  0.0005
  159MOL0     H21936   7.968   6.702  10.324  1.6129 -0.4013  0.2357
  159MOL0     H21937   7.834   6.705  10.443 -0.1367  0.6055  0.1091
  159MOL0     H21938   8.124   6.468  10.651  0.8904  0.5375 -0.6035
  159MOL0     H21939   7.566   6.575  10.615 -0.3236  1.1462  0.2606
  159MOL0     H21940   7.434   6.415  10.670 -2.3754  3.3087 -0.4261
  159MOL0     H21941   7.463   6.312  10.808 -3.5822 -0.4725 -1.3190
  159MOL0     H21942   7.354   6.444  10.830 -1.0123 -1.2582 -0.5014
  160MOL0     O21943   8.808   5.102   5.785  0.1065  0.2176 -0.9334
  160MOL0     C21944   8.748   5.133   5.887  0.5774 -1.0774 -0.4118
  160MOL0     O21945   8.797   5.215   5.977 -0.7915 -0.1503 -0.1793
  160MOL0     C21946   8.898   5.308   5.948 -0.5334 -0.2136 -0.0451
  160MOL0     C21947   8.977   5.341   6.059 -0.1673 -0.1869 -0.0871
  160MOL0     C21948   9.081   5.435   6.042 -0.2130 -1.1363 -0.9188
  160MOL0     C21949   9.110   5.490   5.918 -0.6603  0.0799  0.5091
  160MOL0     O21950   9.218   5.570   5.899 -0.7901  0.6135  0.0163
  160MOL0     C21951   9.181   5.685   5.819  0.5086  0.3336 -0.3138
  160MOL0     C21952   9.211   5.819   5.891  0.8384 -0.2511 -0.8092
  160MOL0     C21953   9.117   5.855   6.003  0.1094  0.3916 -0.0971
  160MOL0     C21954   9.181   5.884   6.141 -0.2579 -1.0869  0.6647
  160MOL0     C21955   9.095   5.864   6.256 -0.4797 -0.9363 -1.1598
  160MOL0     C21956   9.153   5.934   6.377  0.3987  0.2393  0.7170
  160MOL0     C21957   9.074   5.930   6.507 -0.6077  0.2197  0.2158
  160MOL0     C21958   9.077   5.790   6.566  0.4435 -0.4022  0.0884
  160MOL0     N21959   8.968   5.762   6.648  0.4267 -0.6763  0.1528
  160MOL0     C21960   8.959   5.807   6.777  0.6000  0.2056  0.0825
  160MOL0     C21961   8.827   5.772   6.800  0.4816 -0.2825  0.5067
  160MOL0     C21962   8.756   5.790   6.926  0.3005 -0.2022 -0.2074
  160MOL0     C21963   8.819   5.710   7.045 -1.0353  0.0008 -1.2401
  160MOL0     C21964   8.743   5.576   7.056 -1.3724  0.0395  0.0962
  160MOL0     C21965   8.821   5.472   7.149 -0.2778 -0.9089  0.2068
  160MOL0     O21966   8.943   5.441   7.084 -0.2078  0.4085 -0.1982
  160MOL0     C21967   9.032   5.351   7.136  0.2320 -0.9627  0.3089
  160MOL0     C21968   9.037   5.303   7.273  0.0780  1.1143  0.6904
  160MOL0     C21969   9.131   5.215   7.317 -0.5142  1.0839 -0.0037
  160MOL0     C21970   9.106   5.155   7.455 -0.4483 -0.5838  0.3008
  160MOL0     C21971   9.231   5.174   7.228  1.0154 -0.8799 -1.4928
  160MOL0     C21972   9.312   5.057   7.257 -0.2357 -0.1209 -0.0358
  160MOL0     O21973   9.417   5.042   7.176 -0.7634 -0.2294  0.5835
  160MOL0     C21974   9.476   4.917   7.183 -0.0433  0.5344  0.0976
  160MOL0     C21975   9.553   4.892   7.296  0.8074 -0.1957 -0.1859
  160MOL0     C21976   9.620   4.774   7.296 -0.2815  0.7690 -1.0516
  160MOL0     C21977   9.611   4.669   7.202  0.4193 -0.3359 -0.0779
  160MOL0     O21978   9.679   4.555   7.232 -0.5751 -0.8188  0.0112
  160MOL0     C21979   9.678   4.446   7.136 -0.8328  1.1222  0.7643
  160MOL0     C21980   9.766   4.324   7.192 -0.7547 -0.3196  0.3582
  160MOL0     C21981   9.754   4.192   7.110  0.3294  0.5126  0.6843
  160MOL0     C21982   9.745   4.066   7.201  0.4308 -0.4208 -0.1570
  160MOL0     C21983   9.712   3.940   7.113  0.2505  0.1251 -0.6767
  160MOL0     C21984   9.712   3.818   7.214 -0.5918 -0.1332  0.4866
  160MOL0     C21985   9.705   3.691   7.128  0.2126  0.0584 -0.9539
  160MOL0     C21986   9.693   3.565   7.221 -0.0819 -0.2949  0.6294
  160MOL0    Cl21987   9.714   3.422   7.114 -0.1287 -0.1487 -0.3735
  160MOL0     C21988   9.532   4.695   7.088 -0.3848  0.1568 -0.5622
  160MOL0     C21989   9.460   4.818   7.085 -1.0246 -0.3657  0.8701
  160MOL0     O21990   9.283   4.980   7.349  0.0078  0.9229 -0.0641
  160MOL0     C21991   9.236   5.239   7.099  0.1297 -0.0556 -1.2880
  160MOL0     C21992   9.134   5.326   7.055 -0.4420  0.1486  0.2144
  160MOL0     N21993   8.764   5.715   6.694  0.5875  0.8614 -0.2916
  160MOL0     N21994   8.853   5.703   6.599 -0.0664  0.4904 -0.0891
  160MOL0     C21995   9.028   5.452   5.809 -0.3216 -0.4933 -0.6350
  160MOL0     C21996   8.925   5.360   5.820 -0.5267 -1.1974 -0.0648
  160MOL0     C21997   8.618   5.074   5.928 -0.6554  0.9814 -0.1962
  160MOL0     C21998   8.583   5.053   6.069  0.3299 -0.8097  0.0990
  160MOL0     C21999   8.460   4.993   6.113  0.0227  0.6047  0.2325
  160MOL0     C22000   8.365   4.951   6.014  0.2423  0.2694  0.3004
  160MOL0     O22001   8.239   4.918   6.041  0.9910 -0.0309 -0.0775
  160MOL0     C22002   8.163   4.943   6.159  0.4649 -0.0846  0.6678
  160MOL0     C22003   8.137   4.816   6.227  0.2219  1.0143  0.9382
  160MOL0     C22004   8.073   4.842   6.364  0.1816  0.2184  0.8488
  160MOL0     C22005   8.041   4.697   6.430 -0.4478 -0.9150  0.5194
  160MOL0     C22006   7.975   4.735   6.553 -0.0704 -0.1338 -0.7118
  160MOL0     C22007   7.918   4.743   6.660 -0.7019 -0.2534  1.1304
  160MOL0     C22008   8.401   4.968   5.883  0.5491 -0.7920  0.3702
  160MOL0     C22009   8.521   5.028   5.833  0.4121  0.4168 -0.6509
  160MOL0     C22010   8.541   5.046   5.678  0.2845 -0.3358  0.2839
  160MOL0     H22011   8.943   5.294   6.151  1.4452 -1.8745 -0.2833
  160MOL0     H22012   9.138   5.486   6.119  2.5658 -2.6432 -1.8164
  160MOL0     H22013   9.076   5.690   5.789 -0.5316 -0.3786  2.8458
  160MOL0     H22014   9.246   5.665   5.733  0.0688 -3.3609  0.0359
  160MOL0     H22015   9.317   5.818   5.919  0.4552 -3.7020  1.1233
  160MOL0     H22016   9.199   5.895   5.813 -1.4079  3.4598  2.7648
  160MOL0     H22017   9.072   5.953   5.987  0.7788  1.3384  3.0529
  160MOL0     H22018   9.039   5.779   6.009 -0.0861  0.4762 -1.3247
  160MOL0     H22019   9.274   5.828   6.156 -1.2442 -2.5492  1.6471
  160MOL0     H22020   9.206   5.990   6.150 -3.7800 -0.2391  1.9790
  160MOL0     H22021   9.089   5.754   6.260 -0.2285 -0.9989 -2.2556
  160MOL0     H22022   9.003   5.911   6.222  1.2552  3.7873 -0.0435
  160MOL0     H22023   9.251   5.891   6.397 -0.1002 -3.1786 -2.8706
  160MOL0     H22024   9.159   6.040   6.348  3.0839 -0.4037 -1.4215
  160MOL0     H22025   8.971   5.957   6.482 -0.1709  3.5507  1.5572
  160MOL0     H22026   9.106   5.998   6.586 -1.9069 -3.6407  4.4952
  160MOL0     H22027   9.075   5.701   6.502 -2.8088 -1.1970  1.1344
  160MOL0     H22028   9.173   5.796   6.618  1.0960 -1.3332 -0.9644
  160MOL0     H22029   9.033   5.842   6.848  2.6950 -0.7507 -1.5504
  160MOL0     H22030   8.653   5.766   6.901  0.7511 -2.3011 -0.2781
  160MOL0     H22031   8.773   5.897   6.941 -0.8188 -0.1150  0.5084
  160MOL0     H22032   8.924   5.703   7.016  0.2582  1.8140  2.4236
  160MOL0     H22033   8.811   5.769   7.137  2.0879 -0.0873 -0.8254
  160MOL0     H22034   8.640   5.592   7.088 -2.2316 -3.9508 -0.2706
  160MOL0     H22035   8.737   5.523   6.961 -1.1227 -0.2029  0.2141
  160MOL0     H22036   8.839   5.508   7.251  1.2472  0.2247 -0.4228
  160MOL0     H22037   8.759   5.382   7.152 -3.7516  1.1123 -2.3465
  160MOL0     H22038   8.946   5.317   7.330 -1.8938 -0.4649 -1.8592
  160MOL0     H22039   9.082   5.048   7.450  0.4333 -1.1003  3.9458
  160MOL0     H22040   9.019   5.201   7.502 -1.1929 -2.1895  0.5496
  160MOL0     H22041   9.193   5.169   7.520  0.7991 -0.8909 -1.2333
  160MOL0     H22042   9.556   4.966   7.375  1.0899 -0.7813  0.3602
  160MOL0     H22043   9.684   4.761   7.383  0.2830 -0.7341 -1.6595
  160MOL0     H22044   9.575   4.411   7.122 -0.4297  0.0402  0.4085
  160MOL0     H22045   9.714   4.473   7.037  0.7278 -0.8824  0.7154
  160MOL0     H22046   9.873   4.349   7.198 -0.6000 -0.3625 -1.5982
  160MOL0     H22047   9.733   4.315   7.296 -0.3573  0.2845  0.5487
  160MOL0     H22048   9.834   4.182   7.036 -0.3497 -0.1016  0.0143
  160MOL0     H22049   9.657   4.198   7.061  0.0479 -2.0329  0.8188
  160MOL0     H22050   9.652   4.070   7.257  0.3047 -0.7491 -0.3390
  160MOL0     H22051   9.835   4.056   7.263  0.5044  2.1959  0.2531
  160MOL0     H22052   9.620   3.947   7.054  1.1295  0.4883 -2.0439
  160MOL0     H22053   9.796   3.913   7.048 -1.3507 -1.4733 -2.1839
  160MOL0     H22054   9.625   3.840   7.276 -1.1511 -1.3768  0.1729
  160MOL0     H22055   9.795   3.813   7.285  0.6506  1.9639 -0.7315
  160MOL0     H22056   9.784   3.680   7.053  0.6967  0.7287 -0.5418
  160MOL0     H22057   9.617   3.713   7.067 -0.4011 -1.3336 -0.6194
  160MOL0     H22058   9.593   3.572   7.267  1.3993  0.4024  4.0513
  160MOL0     H22059   9.761   3.564   7.306 -2.7373  0.4186  2.9385
  160MOL0     H22060   9.522   4.615   7.015  1.5167 -1.4961  0.8715
  160MOL0     H22061   9.401   4.836   6.996 -1.3318 -2.5123  0.6002
  160MOL0     H22062   9.329   5.228   7.045  2.0836  2.2094  1.3543
  160MOL0     H22063   9.129   5.377   6.959 -2.1552 -0.8554 -0.2658
  160MOL0     H22064   9.042   5.488   5.708  3.0126 -0.0754 -0.1253
  160MOL0     H22065   8.870   5.320   5.735  1.7548 -0.6776 -1.9065
  160MOL0     H22066   8.656   5.078   6.145  0.9050  0.2407 -0.7725
  160MOL0     H22067   8.438   4.978   6.218  3.3793 -2.0239  0.7340
  160MOL0     H22068   8.209   5.023   6.219  1.0154  0.8913 -0.9944
  160MOL0     H22069   8.069   4.985   6.123  3.0158  3.4676 -2.6658
  160MOL0     H22070   8.234   4.769   6.244  0.2699  0.4347 -0.8371
  160MOL0     H22071   8.084   4.737   6.173  0.3742 -0.9930  3.5123
  160MOL0     H22072   8.147   4.904   6.414  0.1425 -2.1508  4.1834
  160MOL0     H22073   7.970   4.878   6.360 -1.2258 -3.4159  0.4054
  160MOL0     H22074   8.126   4.635   6.459 -1.6273 -2.7011  0.3510
  160MOL0     H22075   7.971   4.628   6.380  0.9058 -0.9571 -1.4329
  160MOL0     H22076   7.890   4.767   6.761  0.6951  1.6145  1.1382
  160MOL0     H22077   8.324   4.942   5.810  2.8166 -4.5352 -0.9672
  160MOL0     H22078   8.443   5.059   5.632 -0.3643  1.2100  1.9869
  160MOL0     H22079   8.596   5.141   5.675  1.7186 -1.1479 -1.1814
  160MOL0     H22080   8.598   4.972   5.621  0.4391 -0.6511  0.8465
  161MOL0     O22081   5.808   1.669   3.050  0.7407  0.6748  0.0099
  161MOL0     C22082   5.742   1.758   3.106  0.9068 -0.5738 -0.8305
  161MOL0     O22083   5.797   1.876   3.150 -1.6356 -0.2029  0.5129
  161MOL0     C22084   5.922   1.899   3.099 -0.4625 -1.6581 -0.3217
  161MOL0     C22085   5.974   1.880   2.961  0.0689  0.3807  0.5370
  161MOL0     C22086   6.103   1.910   2.917  0.2200 -0.1527  0.1863
  161MOL0     C22087   6.180   1.981   3.009  0.1736  0.1259 -0.2512
  161MOL0     O22088   6.302   2.033   2.987  0.7112 -0.3131  0.1799
  161MOL0     C22089   6.385   1.990   2.882  0.4767  0.3554  0.7935
  161MOL0     C22090   6.529   2.041   2.907  1.5184 -0.3052 -0.6852
  161MOL0     C22091   6.643   1.961   2.861 -0.8754 -0.2216 -0.4097
  161MOL0     C22092   6.656   1.930   2.717 -0.4381 -0.2060 -1.3777
  161MOL0     C22093   6.794   1.890   2.673 -0.1083  0.7194  0.0853
  161MOL0     C22094   6.856   1.769   2.743 -0.1678 -0.2238  0.6478
  161MOL0     C22095   6.839   1.646   2.656 -0.3198  1.4911 -0.4404
  161MOL0     C22096   6.913   1.526   2.717 -0.8244  0.8303 -0.3333
  161MOL0     N22097   6.906   1.412   2.627  0.4265 -0.2724  0.4237
  161MOL0     C22098   6.995   1.390   2.526 -0.3101  0.9357  0.2916
  161MOL0     C22099   6.926   1.298   2.453 -1.1206 -0.2397  0.1050
  161MOL0     C22100   6.987   1.231   2.333 -0.4956  0.1175 -0.7429
  161MOL0     C22101   6.919   1.265   2.204 -0.0270  0.3265  0.4181
  161MOL0     C22102   7.016   1.260   2.089  0.3709 -0.1536  0.5264
  161MOL0     C22103   7.062   1.115   2.053 -0.0492  0.7696  1.0856
  161MOL0     O22104   7.165   1.118   1.947 -0.0322  0.3594  0.1169
  161MOL0     C22105   7.127   1.113   1.814  0.2248  0.1940  0.8253
  161MOL0     C22106   7.228   1.085   1.726 -1.1508 -0.1203 -0.2848
  161MOL0     C22107   7.215   1.094   1.587  0.3477 -0.5135 -0.3888
  161MOL0     C22108   7.344   1.060   1.506  0.0639 -0.6887  0.5885
  161MOL0     C22109   7.081   1.114   1.533 -0.3415 -0.0694 -0.4351
  161MOL0     C22110   7.054   1.104   1.391  0.4443 -0.0839  0.0971
  161MOL0     O22111   6.923   1.113   1.358 -0.0881 -0.7578  0.3641
  161MOL0     C22112   6.897   1.099   1.224  0.1162 -0.2224  0.8073
  161MOL0     C22113   6.878   1.210   1.134  0.4486 -0.1211 -0.0699
  161MOL0     C22114   6.866   1.193   0.993  0.8810  0.2832 -0.4495
  161MOL0     C22115   6.858   1.065   0.939  0.3678  0.0558 -0.8654
  161MOL0     O22116   6.837   1.058   0.808 -0.0647 -0.2892  0.4142
  161MOL0     C22117   6.862   0.923   0.753 -0.1556 -0.8668  0.2721
  161MOL0     C22118   6.840   0.957   0.605 -0.6874  0.7184  0.6952
  161MOL0     C22119   6.963   1.028   0.553 -0.6945  0.1571  1.1066
  161MOL0     C22120   6.962   1.047   0.409  0.7015 -1.3564 -0.2463
  161MOL0     C22121   7.086   1.114   0.355 -0.8748 -0.6824 -0.8292
  161MOL0     C22122   7.133   1.249   0.413  0.3545 -0.2147 -0.5798
  161MOL0     C22123   7.277   1.296   0.370  0.1323  0.9403 -0.4411
  161MOL0     C22124   7.396   1.192   0.351  0.0201 -0.1382 -0.0566
  161MOL0    Cl22125   7.434   1.087   0.481  0.1994  0.1051  0.9446
  161MOL0     C22126   6.882   0.958   1.027 -0.6890  0.5435  0.7927
  161MOL0     C22127   6.900   0.974   1.160 -0.0070  0.2024 -0.9183
  161MOL0     O22128   7.138   1.062   1.316 -0.3303 -0.0606  0.4745
  161MOL0     C22129   6.981   1.138   1.626  0.7844  0.6813 -0.3452
  161MOL0     C22130   6.999   1.140   1.765  0.0414  0.5674  1.4762
  161MOL0     N22131   6.818   1.244   2.520 -0.1013  0.8071  0.2298
  161MOL0     N22132   6.806   1.314   2.625 -0.0898  0.2318 -0.5677
  161MOL0     C22133   6.124   2.011   3.134 -0.1754 -0.2215 -0.0247
  161MOL0     C22134   6.007   1.972   3.181 -0.4490 -0.7563  0.4100
  161MOL0     C22135   5.607   1.722   3.146 -0.6697  0.4264  0.0168
  161MOL0     C22136   5.539   1.809   3.232  0.0148  0.6641  0.2699
  161MOL0     C22137   5.405   1.778   3.267 -0.6863 -0.6028 -0.0224
  161MOL0     C22138   5.326   1.670   3.218  0.7264 -0.3266 -0.4064
  161MOL0     O22139   5.194   1.652   3.244  0.1092 -0.2852 -0.0962
  161MOL0     C22140   5.126   1.533   3.209 -0.8340 -0.6831  0.2319
  161MOL0     C22141   4.999   1.501   3.293 -0.3593 -0.3039  0.2766
  161MOL0     C22142   4.891   1.410   3.229 -0.6438  0.4858  0.3531
  161MOL0     C22143   4.794   1.472   3.112  0.4010  0.4373  0.1240
  161MOL0     C22144   4.870   1.499   2.993  0.3645 -1.2299  0.4824
  161MOL0     C22145   4.935   1.517   2.885  0.0961  0.8317 -0.3921
  161MOL0     C22146   5.398   1.593   3.125 -0.2185 -0.1433 -0.3207
  161MOL0     C22147   5.533   1.605   3.102  0.1823 -0.2064  0.4342
  161MOL0     C22148   5.597   1.492   3.012 -0.2200 -0.5341 -0.8169
  161MOL0     H22149   5.900   1.831   2.898 -0.3965 -1.6537  2.5096
  161MOL0     H22150   6.141   1.906   2.815 -2.4995 -2.0429 -0.8754
  161MOL0     H22151   6.351   2.037   2.789  1.8196 -1.8777 -0.9247
  161MOL0     H22152   6.391   1.881   2.882  0.2836  0.3365 -0.0686
  161MOL0     H22153   6.535   2.142   2.864  2.0553  0.3331  0.8167
  161MOL0     H22154   6.538   2.065   3.014 -1.9044 -0.4558 -0.2421
  161MOL0     H22155   6.727   2.028   2.881 -0.1631 -0.5559 -2.0989
  161MOL0     H22156   6.650   1.871   2.922 -1.1705 -0.6363 -0.9855
  161MOL0     H22157   6.593   1.846   2.686  1.4140 -0.9081 -3.5094
  161MOL0     H22158   6.630   2.015   2.652 -1.8801 -1.2902 -2.2957
  161MOL0     H22159   6.861   1.973   2.698 -2.2585  2.5704  0.0911
  161MOL0     H22160   6.801   1.879   2.564 -3.4919 -0.7561 -0.1079
  161MOL0     H22161   6.964   1.785   2.754 -0.0357 -0.7391  0.1282
  161MOL0     H22162   6.818   1.762   2.845  0.5957 -2.8279  0.8176
  161MOL0     H22163   6.890   1.666   2.561 -0.8343 -0.4813 -1.1826
  161MOL0     H22164   6.739   1.609   2.635 -0.1715  0.8283  0.0141
  161MOL0     H22165   7.020   1.550   2.728 -0.0618 -1.8081 -1.3085
  161MOL0     H22166   6.877   1.499   2.816  0.7758  1.7914  0.5689
  161MOL0     H22167   7.088   1.434   2.492  0.5097 -1.9652 -1.6944
  161MOL0     H22168   7.001   1.124   2.353  2.0932  0.3121 -1.0776
  161MOL0     H22169   7.087   1.275   2.322 -1.8724  3.5981 -0.3312
  161MOL0     H22170   6.854   1.181   2.179  0.6973 -0.1692  0.1716
  161MOL0     H22171   6.859   1.355   2.222  0.1684  0.2463  1.4858
  161MOL0     H22172   6.972   1.317   2.008  2.0053  2.1609  1.1674
  161MOL0     H22173   7.105   1.318   2.114 -0.2431 -0.4698  3.8972
  161MOL0     H22174   7.099   1.062   2.141  0.1870  0.6720  0.9283
  161MOL0     H22175   6.976   1.056   2.020  0.6912  1.3966 -2.3813
  161MOL0     H22176   7.327   1.060   1.762 -2.2833 -2.1663  1.6197
  161MOL0     H22177   7.324   0.959   1.469 -0.6041 -0.4850  0.3696
  161MOL0     H22178   7.440   1.068   1.558 -0.3289  3.1314  1.0490
  161MOL0     H22179   7.349   1.133   1.425  4.4311 -0.3558  0.9508
  161MOL0     H22180   6.876   1.310   1.176 -1.5994  0.7522 -2.0570
  161MOL0     H22181   6.834   1.268   0.921  0.5942 -0.3420 -0.9808
  161MOL0     H22182   6.965   0.888   0.761  1.7863  3.1422 -3.2838
  161MOL0     H22183   6.786   0.849   0.778  0.8966 -2.7135 -1.7469
  161MOL0     H22184   6.813   0.869   0.546 -3.2053  1.3376  0.8257
  161MOL0     H22185   6.752   1.022   0.595  0.4956  2.1969 -0.8653
  161MOL0     H22186   7.053   0.969   0.577 -0.6115  1.5712  5.0399
  161MOL0     H22187   6.976   1.126   0.601  5.2354  1.6738 -2.5822
  161MOL0     H22188   6.870   1.104   0.390  0.2836 -0.4315  3.7155
  161MOL0     H22189   6.947   0.957   0.347 -0.6295  0.9043 -3.4723
  161MOL0     H22190   7.171   1.046   0.347  1.0877  1.5161  0.5133
  161MOL0     H22191   7.068   1.130   0.248 -1.5952  1.5132 -0.4220
  161MOL0     H22192   7.134   1.253   0.522 -2.0210  0.9469 -0.5533
  161MOL0     H22193   7.055   1.316   0.376  0.6067  0.2706 -0.2448
  161MOL0     H22194   7.306   1.364   0.451  2.0647  0.1106 -0.3871
  161MOL0     H22195   7.275   1.362   0.283 -2.6721 -0.3699 -1.5226
  161MOL0     H22196   7.486   1.250   0.328 -0.6208  1.3912  1.1220
  161MOL0     H22197   7.371   1.120   0.272 -1.2886 -0.8662  0.9870
  161MOL0     H22198   6.899   0.862   0.980  1.5347  1.7589 -1.1214
  161MOL0     H22199   6.918   0.882   1.214 -3.5183 -2.1868 -3.3963
  161MOL0     H22200   6.875   1.154   1.606  0.6222  1.6640  1.1451
  161MOL0     H22201   6.912   1.155   1.828 -1.4050 -4.0898  0.9803
  161MOL0     H22202   6.171   2.079   3.204  0.4819 -1.5056  0.8256
  161MOL0     H22203   5.978   2.000   3.282 -1.8394  0.8580 -0.3972
  161MOL0     H22204   5.586   1.898   3.273  0.5748  2.0260 -3.0112
  161MOL0     H22205   5.364   1.849   3.338  0.6772 -2.4080  2.7612
  161MOL0     H22206   5.109   1.538   3.101 -0.7457 -0.3800  0.2324
  161MOL0     H22207   5.191   1.446   3.225 -1.4652 -0.9447  1.4642
  161MOL0     H22208   4.942   1.594   3.306 -1.9014 -1.0832 -0.5836
  161MOL0     H22209   5.021   1.461   3.392  0.9946 -2.8864 -0.9831
  161MOL0     H22210   4.949   1.327   3.188 -0.0313  1.8465 -1.7009
  161MOL0     H22211   4.839   1.375   3.318 -2.0629 -0.4324 -0.7998
  161MOL0     H22212   4.771   1.573   3.148 -2.3278  0.7418 -2.1798
  161MOL0     H22213   4.697   1.424   3.099 -0.0064  1.3544 -0.3285
  161MOL0     H22214   4.983   1.517   2.789 -0.7240  0.1186 -0.8161
  161MOL0     H22215   5.335   1.516   3.082 -3.2340  0.9762  1.7426
  161MOL0     H22216   5.646   1.544   2.930  0.4721  2.9660  1.5708
  161MOL0     H22217   5.672   1.435   3.067 -0.3992 -0.3201 -0.3412
  161MOL0     H22218   5.518   1.433   2.964 -0.0745 -1.2419 -0.2056
  162MOL0     O22219   2.382   2.599   9.434 -0.1529  0.1084 -0.0390
  162MOL0     C22220   2.421   2.495   9.381  0.3583 -0.8425 -0.5086
  162MOL0     O22221   2.338   2.408   9.323 -0.3916  0.3867 -0.5177
  162MOL0     C22222   2.204   2.444   9.327 -0.2048  1.1018 -0.5165
  162MOL0     C22223   2.159   2.530   9.228  0.5237 -0.6117  0.3324
  162MOL0     C22224   2.023   2.575   9.222 -0.0758 -0.7380  0.2626
  162MOL0     C22225   1.942   2.530   9.327  0.5462  1.1099 -0.6639
  162MOL0     O22226   1.815   2.574   9.330  0.7179 -0.2192  0.7347
  162MOL0     C22227   1.800   2.713   9.359 -0.2656 -1.1001  0.3315
  162MOL0     C22228   1.684   2.778   9.282  0.6505  0.1435 -0.0134
  162MOL0     C22229   1.606   2.897   9.350 -0.6222 -0.5104 -0.4701
  162MOL0     C22230   1.701   3.020   9.350 -0.3230  0.0567  0.1934
  162MOL0     C22231   1.610   3.134   9.413  0.5262  0.1016  0.6052
  162MOL0     C22232   1.692   3.248   9.479 -0.1905 -0.3877  0.7188
  162MOL0     C22233   1.594   3.327   9.560 -0.0686  0.0226 -0.9478
  162MOL0     C22234   1.653   3.436   9.652 -0.5928 -0.6582  0.1440
  162MOL0     N22235   1.797   3.452   9.628  0.1481 -0.2480  0.7970
  162MOL0     C22236   1.899   3.401   9.715 -0.3238  0.2639  0.2981
  162MOL0     C22237   2.012   3.441   9.660 -0.5710  0.1445 -0.0439
  162MOL0     C22238   2.155   3.434   9.723  0.4763  0.1880  0.3854
  162MOL0     C22239   2.248   3.538   9.679 -0.8841 -0.1180 -0.0189
  162MOL0     C22240   2.395   3.485   9.709 -0.2424 -0.3673 -1.5807
  162MOL0     C22241   2.418   3.476   9.868 -0.2899  0.2168  0.7193
  162MOL0     O22242   2.556   3.445   9.901 -0.5647  0.4315 -0.3977
  162MOL0     C22243   2.603   3.331   9.854 -0.2596  0.9181  0.0353
  162MOL0     C22244   2.528   3.226   9.808  0.3069  0.1621  0.1799
  162MOL0     C22245   2.597   3.108   9.757 -0.0055 -0.8411 -0.2378
  162MOL0     C22246   2.498   3.007   9.714 -0.6580  0.8112 -0.2481
  162MOL0     C22247   2.737   3.098   9.767  0.0595 -1.0269 -0.3950
  162MOL0     C22248   2.814   2.982   9.705 -0.0138 -0.5888  0.5324
  162MOL0     O22249   2.953   3.002   9.717 -0.3006  0.2226  0.4439
  162MOL0     C22250   3.053   2.918   9.691  1.0186 -0.8076  0.8576
  162MOL0     C22251   3.178   2.975   9.707 -0.7285  0.3152 -0.5722
  162MOL0     C22252   3.290   2.903   9.678 -0.0635  0.7737 -0.2025
  162MOL0     C22253   3.290   2.774   9.617  0.7922 -1.4566 -0.1143
  162MOL0     O22254   3.412   2.717   9.590 -0.2234 -0.3536 -0.4046
  162MOL0     C22255   3.411   2.609   9.492 -0.0592  0.1392 -0.2049
  162MOL0     C22256   3.553   2.564   9.470  0.5415 -0.9750  0.5788
  162MOL0     C22257   3.637   2.675   9.401  0.4828  1.2194  0.0417
  162MOL0     C22258   3.776   2.636   9.366 -0.2950 -0.4565  0.4195
  162MOL0     C22259   3.797   2.549   9.244 -0.4989  0.2366  0.4351
  162MOL0     C22260   3.729   2.584   9.113 -0.7951  1.1768  0.7613
  162MOL0     C22261   3.772   2.716   9.046 -0.6576  0.4744  0.3419
  162MOL0     C22262   3.915   2.709   8.994 -0.3657 -0.0239 -0.2627
  162MOL0    Cl22263   3.940   2.599   8.855  0.3043 -0.0746  0.1981
  162MOL0     C22264   3.161   2.714   9.603 -0.9803  0.3556  0.2567
  162MOL0     C22265   3.042   2.788   9.641 -0.4627  0.0541  0.0042
  162MOL0     O22266   2.757   2.889   9.652 -0.0739 -0.1662  0.9562
  162MOL0     C22267   2.808   3.202   9.828  0.5524 -0.6525  0.1299
  162MOL0     C22268   2.739   3.319   9.866  0.1186  0.1606 -0.1287
  162MOL0     N22269   1.976   3.509   9.540 -0.8834  0.6562 -0.0017
  162MOL0     N22270   1.852   3.524   9.530 -0.3200 -0.1233 -0.0664
  162MOL0     C22271   1.987   2.436   9.430  0.6868 -0.6634  0.7817
  162MOL0     C22272   2.119   2.385   9.421 -0.1199  0.1966  0.5649
  162MOL0     C22273   2.568   2.465   9.379  0.1554 -0.3160 -0.0650
  162MOL0     C22274   2.616   2.379   9.276  0.4968  0.3599 -0.3810
  162MOL0     C22275   2.748   2.344   9.254 -1.3814 -0.2665  1.2115
  162MOL0     C22276   2.845   2.394   9.341  0.3981  0.1846  0.1389
  162MOL0     O22277   2.972   2.359   9.322  0.8551 -0.5347 -1.3211
  162MOL0     C22278   3.015   2.256   9.241  0.5766 -0.6888  0.0097
  162MOL0     C22279   3.168   2.251   9.237 -0.6038 -0.8386 -0.3091
  162MOL0     C22280   3.228   2.383   9.183  0.3319  0.2583  0.1877
  162MOL0     C22281   3.386   2.374   9.165  0.1210  0.3759 -0.4995
  162MOL0     C22282   3.415   2.263   9.074  0.0422  0.2663  1.0601
  162MOL0     C22283   3.446   2.171   8.992  1.2666 -1.0495 -0.1887
  162MOL0     C22284   2.803   2.478   9.445  0.1694  0.2334  0.7683
  162MOL0     C22285   2.667   2.514   9.473 -0.3360  0.1190 -0.0790
  162MOL0     C22286   2.645   2.580   9.603  0.6937 -0.3347 -0.4212
  162MOL0     H22287   2.233   2.563   9.156 -2.3035 -1.0790 -3.0841
  162MOL0     H22288   1.973   2.637   9.147 -0.2959 -2.6053 -1.2140
  162MOL0     H22289   1.887   2.774   9.332 -0.6976 -0.3488  0.6177
  162MOL0     H22290   1.781   2.728   9.466 -1.5454 -3.7536  0.5506
  162MOL0     H22291   1.725   2.817   9.189  2.6147 -0.8600  0.3896
  162MOL0     H22292   1.617   2.693   9.268 -0.2462  1.2252 -3.0227
  162MOL0     H22293   1.528   2.934   9.282  0.3462 -1.7530 -2.3162
  162MOL0     H22294   1.566   2.874   9.449  0.7959  1.6940  0.7064
  162MOL0     H22295   1.794   3.008   9.406 -0.6645  1.4875  1.1145
  162MOL0     H22296   1.736   3.039   9.248  1.6843  1.5131  1.0929
  162MOL0     H22297   1.545   3.092   9.491 -0.1915 -2.4579 -1.2227
  162MOL0     H22298   1.544   3.166   9.332 -1.2561 -3.2608  0.5439
  162MOL0     H22299   1.775   3.203   9.535 -1.0535 -0.7010  1.7825
  162MOL0     H22300   1.736   3.311   9.402 -0.5638 -2.9186 -1.7270
  162MOL0     H22301   1.540   3.260   9.629 -0.0533 -1.4984 -2.3583
  162MOL0     H22302   1.524   3.358   9.482 -0.6570  0.3679 -0.3005
  162MOL0     H22303   1.610   3.530   9.618 -0.9910 -1.3787 -1.4427
  162MOL0     H22304   1.630   3.428   9.758 -2.9984 -0.9122 -0.3371
  162MOL0     H22305   1.889   3.356   9.814 -1.6138 -0.5094 -0.1650
  162MOL0     H22306   2.205   3.338   9.705 -0.7075 -0.4750  0.5649
  162MOL0     H22307   2.128   3.437   9.829 -2.7769 -5.8923  0.1672
  162MOL0     H22308   2.244   3.546   9.570  3.3844  6.7824 -0.2112
  162MOL0     H22309   2.234   3.634   9.730  1.3067  0.3361 -0.1775
  162MOL0     H22310   2.406   3.390   9.656 -4.8281 -0.8818 -2.0057
  162MOL0     H22311   2.473   3.547   9.665 -0.3657 -0.9367 -2.6387
  162MOL0     H22312   2.387   3.565   9.923  2.2441  0.2405  2.2896
  162MOL0     H22313   2.346   3.398   9.896  0.2420 -1.5812 -2.4660
  162MOL0     H22314   2.420   3.220   9.815  0.4672 -1.1239  2.4176
  162MOL0     H22315   2.395   3.012   9.751 -1.0979  1.2812 -1.4595
  162MOL0     H22316   2.528   2.904   9.736 -2.8850  0.8647  3.9390
  162MOL0     H22317   2.486   3.014   9.605 -4.0439  3.6712  0.1292
  162MOL0     H22318   3.169   3.078   9.740 -0.4012  0.5471 -1.1912
  162MOL0     H22319   3.384   2.955   9.694  0.7542  1.2971 -5.1150
  162MOL0     H22320   3.374   2.520   9.543  2.2758 -0.1992  1.0579
  162MOL0     H22321   3.359   2.637   9.400  1.7980  0.4068 -1.2126
  162MOL0     H22322   3.604   2.549   9.566  0.8679  0.6132  0.6772
  162MOL0     H22323   3.564   2.474   9.409 -0.1402 -0.8067  0.2039
  162MOL0     H22324   3.639   2.759   9.471  0.8340 -0.7269  2.5273
  162MOL0     H22325   3.590   2.705   9.307 -3.3024  0.2381  1.4188
  162MOL0     H22326   3.808   2.590   9.460  1.2388 -1.2891 -0.4672
  162MOL0     H22327   3.834   2.727   9.346  1.4116 -1.1253  2.0009
  162MOL0     H22328   3.905   2.547   9.227 -0.7064  3.0671 -2.1094
  162MOL0     H22329   3.771   2.446   9.270  3.0881 -1.1849 -0.9944
  162MOL0     H22330   3.621   2.583   9.131 -1.5589 -3.0641 -2.6031
  162MOL0     H22331   3.754   2.500   9.049  0.7976  1.5204  0.8920
  162MOL0     H22332   3.760   2.791   9.125 -0.8923  0.1716  0.5959
  162MOL0     H22333   3.708   2.750   8.964  0.4212  1.4511 -0.1368
  162MOL0     H22334   3.986   2.685   9.074 -1.3919 -0.0349  0.6755
  162MOL0     H22335   3.948   2.808   8.962 -0.9199  0.0652 -0.5786
  162MOL0     H22336   3.159   2.608   9.577  2.3061 -0.1320  1.4886
  162MOL0     H22337   2.942   2.746   9.644 -0.8488  0.9030 -0.3837
  162MOL0     H22338   2.916   3.203   9.839  0.2778 -1.4832  4.6839
  162MOL0     H22339   2.796   3.396   9.916  2.9065 -1.5765 -0.3912
  162MOL0     H22340   1.917   2.412   9.509  0.3511 -0.4079  0.5643
  162MOL0     H22341   2.158   2.309   9.488 -0.8994  0.8942  1.8728
  162MOL0     H22342   2.540   2.357   9.202 -1.1402 -0.2847  1.4370
  162MOL0     H22343   2.764   2.269   9.178  0.4379 -0.4549  1.7475
  162MOL0     H22344   2.978   2.166   9.290 -3.6129  2.2705  2.8972
  162MOL0     H22345   2.974   2.264   9.140  1.4503 -3.9263 -0.7209
  162MOL0     H22346   3.196   2.160   9.183 -2.4615 -3.0536  2.1754
  162MOL0     H22347   3.197   2.244   9.343 -0.6975  1.7682 -0.0523
  162MOL0     H22348   3.198   2.401   9.079  1.6511  3.2145  0.2262
  162MOL0     H22349   3.193   2.471   9.237 -0.6953 -1.1715  1.9583
  162MOL0     H22350   3.428   2.354   9.264 -1.8613 -2.7618 -0.1386
  162MOL0     H22351   3.420   2.471   9.128 -0.8335  0.9850  0.1555
  162MOL0     H22352   3.479   2.099   8.920 -0.4505  0.6257 -2.7809
  162MOL0     H22353   2.888   2.521   9.497 -0.0077 -0.4115  1.6232
  162MOL0     H22354   2.733   2.644   9.607 -0.8697  1.8402  2.0145
  162MOL0     H22355   2.550   2.630   9.627  0.0671 -2.0485  0.9241
  162MOL0     H22356   2.649   2.495   9.672 -1.5833 -1.6265 -1.7585
  163MOL0     O22357   1.070   7.103   8.223 -0.9514 -0.0079 -0.3401
  163MOL0     C22358   1.061   7.222   8.225  0.1722 -0.8909  0.1391
  163MOL0     O22359   1.056   7.298   8.340  1.3833  0.0249  0.6493
  163MOL0     C22360   1.023   7.241   8.463  0.1715 -0.3889 -0.0118
  163MOL0     C22361   0.967   7.111   8.490 -0.0512 -1.2331 -0.5184
  163MOL0     C22362   0.920   7.077   8.619 -0.1539 -0.1781  0.6186
  163MOL0     C22363   0.940   7.154   8.732  0.2493 -0.1916 -0.1034
  163MOL0     O22364   0.887   7.125   8.854 -0.3588  0.6379 -0.3171
  163MOL0     C22365   0.957   7.160   8.973  0.0296  0.4034 -0.3835
  163MOL0     C22366   0.926   7.058   9.088  0.2735 -0.4976  0.3763
  163MOL0     C22367   0.976   6.917   9.073  0.0134  0.3589 -0.1525
  163MOL0     C22368   1.123   6.896   9.109  0.1450 -0.1036 -0.7171
  163MOL0     C22369   1.156   6.770   9.041  0.5763  0.9565  0.5830
  163MOL0     C22370   1.297   6.732   9.064  0.1382  1.2162 -0.2023
  163MOL0     C22371   1.327   6.615   8.971 -0.4646  1.2296  0.3766
  163MOL0     C22372   1.467   6.554   8.988 -0.0359  0.5349  0.2423
  163MOL0     N22373   1.569   6.655   8.957 -0.1641  0.9121 -0.0534
  163MOL0     C22374   1.605   6.764   9.043 -0.7188 -0.7747 -0.0407
  163MOL0     C22375   1.694   6.832   8.965  0.1364  0.5785 -0.8162
  163MOL0     C22376   1.754   6.963   9.012  0.2988  0.1379  1.0975
  163MOL0     C22377   1.852   6.950   9.123  0.0311 -0.8259 -0.9677
  163MOL0     C22378   1.967   6.866   9.079 -0.6578  0.3366  0.3266
  163MOL0     C22379   2.095   6.904   9.157  0.3569 -0.4405 -0.1251
  163MOL0     O22380   2.157   7.019   9.099  0.7767 -0.0466 -0.2727
  163MOL0     C22381   2.290   7.038   9.113 -0.1131 -0.2969 -0.0748
  163MOL0     C22382   2.380   6.958   9.178  1.1127 -0.1549 -0.1168
  163MOL0     C22383   2.510   6.979   9.192  0.3940 -1.2631 -0.5759
  163MOL0     C22384   2.589   6.900   9.291  0.3766  0.9063  0.2966
  163MOL0     C22385   2.562   7.102   9.133 -0.1169 -0.0063  0.0494
  163MOL0     C22386   2.707   7.145   9.157  0.6433 -0.7329 -1.1435
  163MOL0     O22387   2.806   7.053   9.140 -0.1184 -0.5547  0.0622
  163MOL0     C22388   2.939   7.100   9.153 -0.2562  0.3144  0.1196
  163MOL0     C22389   3.022   7.103   9.040  0.4112  0.5000 -0.3050
  163MOL0     C22390   3.158   7.143   9.049 -0.4920  0.4112 -0.9240
  163MOL0     C22391   3.203   7.173   9.176 -0.7625 -0.6836 -0.9011
  163MOL0     O22392   3.334   7.218   9.188  0.0808  0.1051  0.1350
  163MOL0     C22393   3.399   7.202   9.314  0.3055 -0.7412  0.4627
  163MOL0     C22394   3.550   7.209   9.272  0.7776 -0.0326  1.0209
  163MOL0     C22395   3.567   7.078   9.184  0.2702  0.3883 -1.0810
  163MOL0     C22396   3.720   7.037   9.182 -0.9299  0.1685 -0.8601
  163MOL0     C22397   3.733   6.886   9.151 -0.0922  0.4625 -0.2313
  163MOL0     C22398   3.872   6.834   9.158 -0.0774  0.2907  1.0158
  163MOL0     C22399   3.884   6.694   9.114  0.5269  0.5007  0.8705
  163MOL0     C22400   4.000   6.612   9.174 -0.3630 -0.6645  0.6182
  163MOL0    Cl22401   4.148   6.703   9.184 -0.0542 -0.6122  0.3426
  163MOL0     C22402   3.118   7.183   9.285  0.0331  0.7003 -0.0721
  163MOL0     C22403   2.986   7.143   9.270 -0.0844 -0.0655 -0.0726
  163MOL0     O22404   2.721   7.266   9.190 -0.1999  0.0534 -0.4964
  163MOL0     C22405   2.466   7.188   9.066 -0.1305  0.4566  0.3081
  163MOL0     C22406   2.334   7.159   9.061 -0.1409 -0.1801  0.6772
  163MOL0     N22407   1.702   6.766   8.838 -0.4134 -0.1691 -0.0227
  163MOL0     N22408   1.634   6.660   8.838  0.0022  0.9672  0.2459
  163MOL0     C22409   0.992   7.285   8.707  0.4432 -0.6818 -0.5289
  163MOL0     C22410   1.037   7.322   8.577 -0.1133 -0.9419  0.0909
  163MOL0     C22411   1.089   7.285   8.093  0.1825 -0.2718  0.5513
  163MOL0     C22412   1.164   7.402   8.086  0.8376  0.3292  0.5399
  163MOL0     C22413   1.172   7.483   7.971  0.4881 -0.1291  0.2831
  163MOL0     C22414   1.086   7.469   7.863 -0.0053  0.6540  0.6882
  163MOL0     O22415   1.096   7.572   7.774  1.3993  0.5655  0.0615
  163MOL0     C22416   1.035   7.555   7.648 -0.1007 -0.5643  0.2168
  163MOL0     C22417   1.015   7.686   7.576  0.4611  0.0250  0.2771
  163MOL0     C22418   0.966   7.663   7.430 -0.1362  0.0431 -0.0689
  163MOL0     C22419   0.897   7.792   7.389 -0.0775 -0.4042  0.5498
  163MOL0     C22420   0.957   7.914   7.447 -0.0612 -0.5244  0.3881
  163MOL0     C22421   1.002   8.023   7.474  0.3550  0.5826 -0.7262
  163MOL0     C22422   1.017   7.336   7.864 -0.8338  0.2444  1.1156
  163MOL0     C22423   1.032   7.238   7.969  0.5549 -0.4248  0.0396
  163MOL0     C22424   0.977   7.102   7.940 -0.1090 -0.4350  0.0042
  163MOL0     H22425   0.929   7.053   8.407 -5.1507  0.1425  0.5148
  163MOL0     H22426   0.879   6.978   8.637 -1.1789 -0.3273 -2.1564
  163MOL0     H22427   0.932   7.262   9.006 -0.3186 -0.0307  0.7500
  163MOL0     H22428   1.066   7.150   8.970  0.1288 -1.3486  3.3671
  163MOL0     H22429   0.957   7.103   9.183  1.9229 -2.9202  1.0670
  163MOL0     H22430   0.816   7.062   9.091  0.3151  1.9287  1.2984
  163MOL0     H22431   0.933   6.845   9.143  0.1542 -0.2516 -0.6868
  163MOL0     H22432   0.945   6.888   8.972 -1.3227  0.9010  0.0789
  163MOL0     H22433   1.191   6.969   9.064 -1.5477  4.2794  3.0193
  163MOL0     H22434   1.134   6.907   9.218 -2.8413  1.0574 -0.4542
  163MOL0     H22435   1.132   6.787   8.935 -0.0959 -0.7816  0.4366
  163MOL0     H22436   1.094   6.690   9.080  3.3327 -0.1256  3.0779
  163MOL0     H22437   1.365   6.815   9.045  1.5870 -0.3066 -1.9849
  163MOL0     H22438   1.301   6.688   9.164 -1.1504  0.4310 -0.4628
  163MOL0     H22439   1.316   6.657   8.871 -0.2042  1.2155  0.3390
  163MOL0     H22440   1.260   6.530   8.984  0.5409  0.2694 -0.4170
  163MOL0     H22441   1.488   6.520   9.090  3.9847  0.5102 -0.4214
  163MOL0     H22442   1.484   6.474   8.916 -1.1782 -2.7122  3.2642
  163MOL0     H22443   1.567   6.795   9.139  4.7702  1.3869  1.7970
  163MOL0     H22444   1.671   7.028   9.040  0.5164  0.3214  1.3109
  163MOL0     H22445   1.804   7.006   8.925 -0.1604  0.7617  1.1348
  163MOL0     H22446   1.887   7.052   9.142  0.7423 -1.1440 -0.5480
  163MOL0     H22447   1.808   6.904   9.212  0.5434  0.1848 -0.1830
  163MOL0     H22448   1.936   6.763   9.102 -1.1076  0.8076  1.9876
  163MOL0     H22449   1.990   6.860   8.973 -1.0439 -3.8695  0.3030
  163MOL0     H22450   2.071   6.898   9.263 -0.6206 -1.4126 -0.3742
  163MOL0     H22451   2.164   6.821   9.139  2.2533  1.4728 -2.4114
  163MOL0     H22452   2.330   6.882   9.237 -1.7107  2.4056  1.0839
  163MOL0     H22453   2.521   6.843   9.354  1.4181 -2.9307 -1.6665
  163MOL0     H22454   2.655   6.965   9.348  4.1904 -1.1115 -1.3845
  163MOL0     H22455   2.648   6.828   9.233 -5.0726 -2.6392 -1.5890
  163MOL0     H22456   2.981   7.079   8.943 -2.9738  1.8911  0.6467
  163MOL0     H22457   3.224   7.134   8.963  1.7305 -2.2134  0.8824
  163MOL0     H22458   3.395   7.300   9.363  4.1244  0.7562 -1.7111
  163MOL0     H22459   3.375   7.117   9.379 -1.7607 -1.5111 -1.2175
  163MOL0     H22460   3.556   7.300   9.212  0.9396 -2.6793 -3.4208
  163MOL0     H22461   3.616   7.212   9.359  2.8496  2.7028 -0.4776
  163MOL0     H22462   3.532   7.094   9.081 -0.0627  1.7768 -0.7785
  163MOL0     H22463   3.515   6.996   9.235  0.2368 -1.5501 -3.9878
  163MOL0     H22464   3.760   7.056   9.282 -1.9560 -1.4659 -0.1015
  163MOL0     H22465   3.763   7.102   9.106 -2.5848  3.5007  0.7770
  163MOL0     H22466   3.688   6.826   9.231 -1.9611  0.0063 -1.5474
  163MOL0     H22467   3.691   6.853   9.055  1.3412 -0.5858 -0.5324
  163MOL0     H22468   3.908   6.835   9.261 -0.8097  0.9978  1.2755
  163MOL0     H22469   3.942   6.883   9.090 -0.8450 -2.1175 -1.6881
  163MOL0     H22470   3.891   6.689   9.005 -2.4560 -0.1902  0.6348
  163MOL0     H22471   3.792   6.642   9.140 -0.4071  0.2903 -2.3907
  163MOL0     H22472   4.011   6.526   9.107 -1.0342 -0.9789  0.9035
  163MOL0     H22473   3.976   6.569   9.271  4.3221 -2.0763  1.3807
  163MOL0     H22474   3.154   7.199   9.386 -0.6136 -1.1386  0.4837
  163MOL0     H22475   2.916   7.159   9.352  0.4661  0.7322  0.2514
  163MOL0     H22476   2.505   7.277   9.018  0.5900 -0.7591 -1.4577
  163MOL0     H22477   2.278   7.236   9.009  3.0967  0.8111 -1.6338
  163MOL0     H22478   1.015   7.356   8.785 -0.1316  0.8177 -1.6836
  163MOL0     H22479   1.085   7.419   8.564 -0.1157 -0.8505  0.7256
  163MOL0     H22480   1.207   7.434   8.180  0.8985 -1.5090  1.1914
  163MOL0     H22481   1.237   7.569   7.959 -0.1094  0.0193 -2.2733
  163MOL0     H22482   1.099   7.480   7.600  0.5396 -1.5079  2.4223
  163MOL0     H22483   0.937   7.508   7.652 -0.4837  0.1605 -0.3205
  163MOL0     H22484   1.113   7.735   7.573  1.1638 -1.3656 -0.8860
  163MOL0     H22485   0.937   7.747   7.623  1.1633  0.9711  0.2601
  163MOL0     H22486   1.049   7.624   7.371  0.4244  0.2363  0.5733
  163MOL0     H22487   0.889   7.585   7.435 -0.5485  0.4898  1.0523
  163MOL0     H22488   0.795   7.807   7.426  0.3933 -3.2581  3.5379
  163MOL0     H22489   0.898   7.788   7.280  0.8724 -5.1631  0.5059
  163MOL0     H22490   1.032   8.117   7.517  1.0717  1.2673 -2.6443
  163MOL0     H22491   0.965   7.305   7.774  1.6453 -2.1975  0.4031
  163MOL0     H22492   0.902   7.091   7.861 -1.4417 -3.0907  1.4764
  163MOL0     H22493   1.062   7.040   7.910 -1.2164 -2.3851  0.7390
  163MOL0     H22494   0.932   7.047   8.023  1.1459 -1.6708 -0.0986
  164MOL0     O22495   0.787   2.398  11.113 -0.2692  0.7936  0.6433
  164MOL0     C22496   0.676   2.380  11.060  0.3461 -0.1173 -1.2711
  164MOL0     O22497   0.652   2.387  10.923 -0.0827 -1.0012  0.1316
  164MOL0     C22498   0.764   2.387  10.840  0.1594 -0.7260  0.2644
  164MOL0     C22499   0.848   2.273  10.821  1.5308 -0.1530 -0.6684
  164MOL0     C22500   0.947   2.273  10.724  0.3739 -0.3785  0.2618
  164MOL0     C22501   0.951   2.374  10.626  0.6777 -0.1419 -0.1431
  164MOL0     O22502   1.047   2.370  10.524  0.2354 -0.1724 -0.0937
  164MOL0     C22503   1.148   2.274  10.509  0.8324 -0.1408 -0.0055
  164MOL0     C22504   1.246   2.311  10.396 -0.0053 -0.0312  0.5748
  164MOL0     C22505   1.320   2.441  10.401  0.0400  0.6893  0.0591
  164MOL0     C22506   1.455   2.433  10.320  0.3231 -0.0579 -0.6467
  164MOL0     C22507   1.537   2.565  10.330  0.1137  0.5736  0.3452
  164MOL0     C22508   1.657   2.539  10.244  0.0330 -0.1024 -0.0313
  164MOL0     C22509   1.729   2.675  10.227 -0.1123 -0.0543 -0.0392
  164MOL0     C22510   1.859   2.653  10.147  0.6100 -0.0176 -0.0349
  164MOL0     N22511   1.931   2.777  10.146 -0.1225  0.6936 -1.3002
  164MOL0     C22512   1.897   2.892  10.080 -0.3499 -0.3131 -0.4496
  164MOL0     C22513   1.991   2.991  10.107  0.0428  0.2181  0.1307
  164MOL0     C22514   1.988   3.128  10.033 -0.2812 -0.6553  0.4450
  164MOL0     C22515   1.934   3.241  10.124 -0.1536  0.4128 -0.3616
  164MOL0     C22516   1.780   3.245  10.115  0.2259 -0.1160 -0.6883
  164MOL0     C22517   1.716   3.330  10.224  0.1893  0.5573 -0.5487
  164MOL0     O22518   1.760   3.470  10.221  0.1956  0.7585  0.2892
  164MOL0     C22519   1.729   3.541  10.112  0.4923  0.5303  0.2737
  164MOL0     C22520   1.594   3.539  10.077 -0.9374  0.2316 -0.5588
  164MOL0     C22521   1.535   3.631   9.982 -0.3658 -0.4122  0.3379
  164MOL0     C22522   1.386   3.618   9.957  0.6546 -0.2104 -0.8060
  164MOL0     C22523   1.625   3.716   9.909  0.3572 -0.3150 -0.4411
  164MOL0     C22524   1.589   3.802   9.789 -0.4057 -0.0566 -0.4448
  164MOL0     O22525   1.700   3.861   9.730  0.0030 -0.1037  0.8261
  164MOL0     C22526   1.671   3.924   9.615 -0.0522  0.6676 -0.7556
  164MOL0     C22527   1.624   4.054   9.615  0.2505 -0.1633  0.0043
  164MOL0     C22528   1.597   4.114   9.495 -0.2526  0.5113 -0.0864
  164MOL0     C22529   1.625   4.050   9.371 -0.0026  0.1176 -0.3140
  164MOL0     O22530   1.596   4.120   9.254  0.4294  1.1058  0.4178
  164MOL0     C22531   1.454   4.133   9.244 -0.4355 -0.1446 -0.4568
  164MOL0     C22532   1.412   4.209   9.112  1.1579  0.4244  0.0173
  164MOL0     C22533   1.492   4.348   9.109 -0.0903  0.0404  0.2156
  164MOL0     C22534   1.497   4.409   8.967 -0.1642  0.5352 -0.1679
  164MOL0     C22535   1.601   4.321   8.894 -0.6035  0.0805 -0.8601
  164MOL0     C22536   1.654   4.392   8.775 -0.4188 -0.1233  0.8928
  164MOL0     C22537   1.781   4.324   8.718 -0.0903 -0.8557 -0.5280
  164MOL0     C22538   1.869   4.439   8.645  0.4871  0.0941  0.2789
  164MOL0    Cl22539   1.777   4.528   8.512  0.1946 -0.1185 -0.2076
  164MOL0     C22540   1.684   3.919   9.375 -0.7678  0.7124 -0.2989
  164MOL0     C22541   1.709   3.859   9.500 -0.1466 -0.1166 -0.1578
  164MOL0     O22542   1.474   3.805   9.744 -0.2054 -0.2734 -0.2074
  164MOL0     C22543   1.760   3.724   9.950 -0.0541 -0.4357 -0.0707
  164MOL0     C22544   1.811   3.630  10.043 -0.2137 -0.0981 -0.2180
  164MOL0     N22545   2.075   2.928  10.201  0.5173 -0.5711  1.4277
  164MOL0     N22546   2.039   2.801  10.219 -0.1351 -0.7493  0.5496
  164MOL0     C22547   0.864   2.496  10.645  0.0099 -0.2632  0.2670
  164MOL0     C22548   0.769   2.500  10.752 -0.2413 -0.1711 -0.2384
  164MOL0     C22549   0.564   2.375  11.155 -0.7553 -0.9229  0.2362
  164MOL0     C22550   0.431   2.383  11.107 -0.2060 -0.1889 -0.1341
  164MOL0     C22551   0.334   2.372  11.194 -0.0299  0.4532 -0.3187
  164MOL0     C22552   0.349   2.364  11.327 -0.2398  0.1597 -0.5345
  164MOL0     O22553   0.233   2.362  11.396 -0.0179  0.1639 -0.1783
  164MOL0     C22554   0.241   2.369  11.534 -0.5959  1.0174 -0.1775
  164MOL0     C22555   0.105   2.391  11.608 -0.2260  0.7561  0.2733
  164MOL0     C22556   0.017   2.274  11.662 -0.4678  0.7301  0.0686
  164MOL0     C22557  -0.014   2.179  11.547  0.6097 -0.2137  1.0321
  164MOL0     C22558  -0.099   2.062  11.581  0.3515  0.0679 -0.1584
  164MOL0     C22559  -0.147   1.963  11.617  0.1780  0.4075  0.8391
  164MOL0     C22560   0.474   2.345  11.377  0.3688 -0.1053  0.0905
  164MOL0     C22561   0.592   2.359  11.297 -0.0133  0.6102 -0.4728
  164MOL0     C22562   0.727   2.333  11.372 -0.7063  0.8102  0.4768
  164MOL0     H22563   0.836   2.201  10.902  0.5671  1.1123  0.3593
  164MOL0     H22564   1.014   2.187  10.723  0.9526  0.0707 -0.2465
  164MOL0     H22565   1.107   2.177  10.481 -1.1758 -0.4959  3.6550
  164MOL0     H22566   1.203   2.273  10.603  1.0045  2.5556  0.0126
  164MOL0     H22567   1.320   2.232  10.410 -0.5554 -0.2030  3.1221
  164MOL0     H22568   1.197   2.312  10.299  2.6051 -1.8382 -0.8906
  164MOL0     H22569   1.267   2.523  10.354  1.8126  3.6740  2.8570
  164MOL0     H22570   1.355   2.470  10.501  1.4313  1.7334 -0.7005
  164MOL0     H22571   1.525   2.363  10.365 -1.4836 -1.4727  0.0741
  164MOL0     H22572   1.429   2.408  10.217 -0.2208  3.1521 -1.4187
  164MOL0     H22573   1.557   2.580  10.436 -2.5628  0.1460  0.9787
  164MOL0     H22574   1.485   2.655  10.295 -0.4105 -0.0853 -0.6057
  164MOL0     H22575   1.710   2.459  10.297 -2.4556 -0.8511  1.5173
  164MOL0     H22576   1.632   2.505  10.143  2.8612 -0.3608 -0.7257
  164MOL0     H22577   1.757   2.696  10.331 -1.1879 -4.0847  1.2585
  164MOL0     H22578   1.667   2.755  10.185 -0.1980 -1.3901 -2.6414
  164MOL0     H22579   1.920   2.573  10.191  0.9988  1.4572  2.2589
  164MOL0     H22580   1.836   2.617  10.046  1.9792  1.3991 -0.8898
  164MOL0     H22581   1.812   2.895  10.012 -0.8376  0.2490  0.1755
  164MOL0     H22582   1.925   3.119   9.945  0.2396  2.5254 -0.3866
  164MOL0     H22583   2.091   3.146  10.000 -0.3026 -1.3100 -0.0007
  164MOL0     H22584   1.967   3.227  10.227  0.4027  0.4759 -0.5292
  164MOL0     H22585   1.974   3.338  10.093  3.9026 -0.9759 -0.0801
  164MOL0     H22586   1.752   3.289  10.019 -2.2946  1.2971  0.5913
  164MOL0     H22587   1.736   3.145  10.121  0.7226 -0.2903  0.0974
  164MOL0     H22588   1.607   3.316  10.224  0.2005  0.4327 -1.7368
  164MOL0     H22589   1.736   3.279  10.319 -0.8437 -0.5904 -0.9204
  164MOL0     H22590   1.527   3.480  10.138  0.8302  0.2166  1.5182
  164MOL0     H22591   1.342   3.716   9.974 -0.3117 -1.0147  1.7369
  164MOL0     H22592   1.343   3.540  10.020  1.7449 -3.0299 -3.2406
  164MOL0     H22593   1.375   3.582   9.854  1.3270  0.0009 -0.9550
  164MOL0     H22594   1.615   4.107   9.709  1.7307  1.8671 -0.9215
  164MOL0     H22595   1.572   4.219   9.488 -0.3505  0.4217 -1.3288
  164MOL0     H22596   1.405   4.036   9.235  0.5574 -0.4890 -2.8213
  164MOL0     H22597   1.409   4.200   9.318 -4.3189 -1.4523 -1.4093
  164MOL0     H22598   1.436   4.160   9.017  4.2032  1.7197  0.0099
  164MOL0     H22599   1.304   4.201   9.125  1.4273 -3.1420  1.4089
  164MOL0     H22600   1.591   4.353   9.154  0.2164  1.3879 -0.5736
  164MOL0     H22601   1.438   4.409   9.182 -2.7311  1.1247 -2.4438
  164MOL0     H22602   1.516   4.517   8.975 -1.1526  0.6870  0.1714
  164MOL0     H22603   1.408   4.391   8.908 -0.6412  2.5290 -0.1271
  164MOL0     H22604   1.676   4.305   8.972 -2.8060  2.7193  2.0866
  164MOL0     H22605   1.563   4.225   8.861  3.5082 -1.5449 -1.4840
  164MOL0     H22606   1.686   4.491   8.810  0.4857  0.0002 -0.2366
  164MOL0     H22607   1.577   4.411   8.699 -2.1966 -1.4152  2.2889
  164MOL0     H22608   1.762   4.239   8.652 -1.9991 -0.8999  0.0239
  164MOL0     H22609   1.848   4.273   8.788  0.0263 -0.6075 -0.4590
  164MOL0     H22610   1.954   4.396   8.591  0.5324  2.1696 -1.4630
  164MOL0     H22611   1.911   4.511   8.716  0.0647  2.8575 -2.0436
  164MOL0     H22612   1.696   3.878   9.275 -2.5739 -0.7533  0.0208
  164MOL0     H22613   1.760   3.764   9.511  0.4694  0.1806 -0.4257
  164MOL0     H22614   1.831   3.793   9.906  0.3649 -0.1271  1.0669
  164MOL0     H22615   1.917   3.625  10.069 -0.3802 -0.6901  0.3902
  164MOL0     H22616   0.877   2.584  10.583  0.7896 -1.9730 -2.1649
  164MOL0     H22617   0.703   2.584  10.772 -0.8043 -0.9336  1.2418
  164MOL0     H22618   0.404   2.388  11.002  1.1856 -0.1337 -0.5086
  164MOL0     H22619   0.234   2.384  11.151  0.1286 -1.6332 -1.3826
  164MOL0     H22620   0.278   2.272  11.569 -2.3565  0.0325 -0.9520
  164MOL0     H22621   0.320   2.444  11.551  0.1706  0.8041 -2.4535
  164MOL0     H22622   0.041   2.434  11.531  0.7345 -1.4963 -1.9237
  164MOL0     H22623   0.117   2.460  11.692  1.8537 -1.3878  1.9204
  164MOL0     H22624   0.081   2.211  11.725 -0.5895  0.2219 -0.3139
  164MOL0     H22625  -0.077   2.301  11.711 -0.5385  1.1937 -0.3178
  164MOL0     H22626   0.077   2.138  11.503 -0.1698 -2.2367  1.1960
  164MOL0     H22627  -0.076   2.233  11.475  0.4100  2.1280  2.8225
  164MOL0     H22628  -0.187   1.871  11.654  0.7170  0.0538  0.5579
  164MOL0     H22629   0.491   2.330  11.483 -1.6155 -0.0228  0.4613
  164MOL0     H22630   0.697   2.272  11.458 -2.5621 -1.7301 -1.7890
  164MOL0     H22631   0.789   2.271  11.307 -3.0876  2.3544 -3.6791
  164MOL0     H22632   0.774   2.427  11.401  3.3604 -0.7831 -0.2491
  165MOL0     O22633   1.037   5.609   3.494  0.3606 -0.1920 -0.3654
  165MOL0     C22634   0.980   5.674   3.400 -0.3086  0.2043 -1.2889
  165MOL0     O22635   0.915   5.790   3.426  0.3364  0.9916  0.3980
  165MOL0     C22636   0.948   5.851   3.539  0.3215  0.2287 -0.9746
  165MOL0     C22637   0.869   5.859   3.647  0.0610  0.3119 -0.1314
  165MOL0     C22638   0.904   5.930   3.763  1.6282 -0.0028  0.1320
  165MOL0     C22639   1.016   6.010   3.765 -0.7000  0.1271 -0.1470
  165MOL0     O22640   1.046   6.092   3.871  0.1555 -0.3966  0.1690
  165MOL0     C22641   0.998   6.090   4.001  0.7257  0.9448  0.1033
  165MOL0     C22642   1.101   6.151   4.090 -0.0511  0.3704  0.5387
  165MOL0     C22643   1.084   6.145   4.240  0.4624  0.2528  0.0265
  165MOL0     C22644   1.075   6.285   4.295  0.1104 -0.8322  0.3094
  165MOL0     C22645   1.105   6.274   4.441 -0.7175  0.1532 -0.3371
  165MOL0     C22646   1.251   6.245   4.484  0.5108 -0.2213 -0.2166
  165MOL0     C22647   1.267   6.231   4.639  0.6631  0.0726  0.4189
  165MOL0     C22648   1.209   6.343   4.722 -0.4256  0.3357 -0.3008
  165MOL0     N22649   1.288   6.463   4.706  0.3421 -0.4852  0.0965
  165MOL0     C22650   1.248   6.579   4.634  0.1885  0.2240  0.1651
  165MOL0     C22651   1.358   6.660   4.630  0.4026  0.5498  0.5069
  165MOL0     C22652   1.370   6.797   4.553  0.0857  1.1157 -0.2669
  165MOL0     C22653   1.489   6.793   4.460  0.1777 -0.0283 -0.8012
  165MOL0     C22654   1.490   6.665   4.378  0.2428  1.1620 -0.0864
  165MOL0     C22655   1.591   6.676   4.264  1.2044 -0.0075  0.3326
  165MOL0     O22656   1.541   6.758   4.159  0.4378 -0.6298  0.1641
  165MOL0     C22657   1.620   6.794   4.055 -0.3146  0.1262  0.2487
  165MOL0     C22658   1.553   6.813   3.932  0.5044  0.1744 -0.0948
  165MOL0     C22659   1.615   6.847   3.811 -0.4384  0.1647 -0.1582
  165MOL0     C22660   1.539   6.841   3.673 -0.4344 -0.1350 -0.7632
  165MOL0     C22661   1.758   6.865   3.820  0.3049  0.6125  0.2124
  165MOL0     C22662   1.822   6.907   3.705 -1.2637 -0.2168  1.5212
  165MOL0     O22663   1.930   6.836   3.664  0.3947 -0.1564 -0.5981
  165MOL0     C22664   2.004   6.862   3.554  0.7649 -0.8207 -0.3573
  165MOL0     C22665   2.018   6.752   3.466  0.0906  0.2456  0.3815
  165MOL0     C22666   2.096   6.767   3.353 -0.9655 -0.6026  0.8774
  165MOL0     C22667   2.147   6.889   3.320 -0.2730 -0.1653 -0.0936
  165MOL0     O22668   2.237   6.888   3.206 -0.2071  0.4445 -0.2534
  165MOL0     C22669   2.206   6.990   3.106 -0.1029  0.5543  0.2501
  165MOL0     C22670   2.300   6.967   2.988  1.1243  0.7093 -0.3596
  165MOL0     C22671   2.260   7.048   2.871 -0.8658  0.8167 -0.0613
  165MOL0     C22672   2.306   6.974   2.739  0.1810 -1.0781 -0.1205
  165MOL0     C22673   2.457   6.972   2.707  0.0457 -0.7113 -1.1990
  165MOL0     C22674   2.494   6.892   2.584  0.1877 -0.0979 -0.7182
  165MOL0     C22675   2.644   6.886   2.557 -0.4688  0.6631  0.0135
  165MOL0     C22676   2.678   6.874   2.409 -0.2250 -0.7425 -0.7152
  165MOL0    Cl22677   2.856   6.840   2.404  0.0648 -0.1286 -0.4280
  165MOL0     C22678   2.129   7.008   3.401  0.1356  0.3026 -0.3671
  165MOL0     C22679   2.052   6.993   3.520  0.2370 -0.2686  0.2899
  165MOL0     O22680   1.783   7.007   3.645 -0.4849 -0.5616  0.7231
  165MOL0     C22681   1.821   6.846   3.949 -0.2081 -1.1165  0.7185
  165MOL0     C22682   1.756   6.812   4.063  0.5535 -1.0109 -0.3412
  165MOL0     N22683   1.460   6.601   4.694  0.1334 -0.3473 -0.0919
  165MOL0     N22684   1.419   6.480   4.742 -0.4707 -0.5843  0.0351
  165MOL0     C22685   1.095   6.016   3.651  0.1457  0.7850  0.0527
  165MOL0     C22686   1.067   5.933   3.543  0.1923  0.5050 -0.0498
  165MOL0     C22687   0.984   5.625   3.258 -0.6110  0.2851 -0.2226
  165MOL0     C22688   0.927   5.716   3.162 -0.2017 -1.4736  0.2030
  165MOL0     C22689   0.921   5.693   3.028 -0.9294 -0.4427  0.0749
  165MOL0     C22690   0.975   5.572   2.977 -0.0360  0.1164  1.2130
  165MOL0     O22691   0.951   5.563   2.839 -0.4693 -0.2279 -0.8460
  165MOL0     C22692   1.010   5.466   2.756  0.4796  0.8130 -0.1858
  165MOL0     C22693   0.919   5.343   2.733  0.0351 -0.8736 -0.0390
  165MOL0     C22694   0.929   5.244   2.845 -0.4963 -0.5914  0.1250
  165MOL0     C22695   0.826   5.242   2.955 -0.0284 -0.3460 -1.5596
  165MOL0     C22696   0.887   5.200   3.079  0.7984 -0.5288  0.3968
  165MOL0     C22697   0.927   5.148   3.181  0.2290 -0.8321 -0.5643
  165MOL0     C22698   1.040   5.482   3.063 -0.4089  0.0511 -0.5431
  165MOL0     C22699   1.039   5.507   3.206 -0.5187  0.5952 -0.5007
  165MOL0     C22700   1.114   5.411   3.300 -0.1095 -0.2414  0.3785
  165MOL0     H22701   0.772   5.810   3.641 -0.3447  1.0504  0.2383
  165MOL0     H22702   0.829   5.940   3.841  0.9622  0.3655 -0.5377
  165MOL0     H22703   0.968   5.986   4.016 -0.2048  1.3150  0.9067
  165MOL0     H22704   0.903   6.145   3.996 -0.4177 -1.0453 -2.5935
  165MOL0     H22705   1.200   6.108   4.076  0.6343  1.8644  0.6349
  165MOL0     H22706   1.118   6.255   4.061 -0.1157 -0.3416 -2.3837
  165MOL0     H22707   0.998   6.085   4.270  1.6522 -0.2914  2.5990
  165MOL0     H22708   1.180   6.106   4.273  0.5606  1.6726  1.5242
  165MOL0     H22709   1.136   6.354   4.237 -0.9389  0.5547  0.7977
  165MOL0     H22710   0.976   6.329   4.280  1.0087  1.4872  0.8213
  165MOL0     H22711   1.040   6.192   4.470  0.7130 -1.1039 -0.5433
  165MOL0     H22712   1.077   6.373   4.478  0.0770  1.1252 -2.2225
  165MOL0     H22713   1.294   6.155   4.440  0.5250 -1.3624  2.0127
  165MOL0     H22714   1.312   6.327   4.443  0.6290 -1.0254 -1.6949
  165MOL0     H22715   1.374   6.234   4.665  0.2943  3.0778  2.0484
  165MOL0     H22716   1.223   6.133   4.657  0.9194 -1.5163 -5.5526
  165MOL0     H22717   1.106   6.356   4.687 -1.0709 -3.0830 -0.0470
  165MOL0     H22718   1.219   6.313   4.826  0.8930  0.7772 -0.2796
  165MOL0     H22719   1.150   6.592   4.589 -1.4731 -2.2254  2.7047
  165MOL0     H22720   1.386   6.875   4.628 -1.2509 -0.8810  2.2650
  165MOL0     H22721   1.271   6.826   4.517 -3.1549 -2.0957  4.8583
  165MOL0     H22722   1.490   6.887   4.404  0.0596  1.3240  1.3376
  165MOL0     H22723   1.575   6.793   4.528 -0.1892 -0.5996 -0.3339
  165MOL0     H22724   1.527   6.575   4.429  2.6048  0.9475 -1.9900
  165MOL0     H22725   1.389   6.654   4.337  0.9561 -3.0576 -1.2651
  165MOL0     H22726   1.691   6.713   4.291  1.6914  1.7356 -3.1393
  165MOL0     H22727   1.601   6.576   4.222  1.3128  0.2595 -0.3061
  165MOL0     H22728   1.445   6.816   3.928  0.4478  2.7542  1.7558
  165MOL0     H22729   1.449   6.779   3.678  0.9713 -2.4215 -2.1179
  165MOL0     H22730   1.601   6.795   3.595  0.7664  1.6484 -0.9187
  165MOL0     H22731   1.512   6.941   3.638 -0.2706 -0.9308 -3.4105
  165MOL0     H22732   1.988   6.658   3.511 -0.0226 -0.6474 -1.4560
  165MOL0     H22733   2.112   6.693   3.275  2.8677  0.2887  0.6113
  165MOL0     H22734   2.104   6.960   3.081  0.4402 -0.3766 -0.9301
  165MOL0     H22735   2.200   7.096   3.135 -1.4308  0.2209  1.2817
  165MOL0     H22736   2.404   6.986   3.018  1.1431 -0.6308  0.5599
  165MOL0     H22737   2.301   6.859   2.970 -1.6501  0.0911  2.2264
  165MOL0     H22738   2.301   7.150   2.875  2.3113 -0.3869  1.9584
  165MOL0     H22739   2.152   7.066   2.875 -0.7719  1.4234 -0.0757
  165MOL0     H22740   2.253   7.027   2.659  0.6400 -0.9251 -0.3267
  165MOL0     H22741   2.264   6.873   2.742 -1.7802 -0.2917  1.1858
  165MOL0     H22742   2.496   7.073   2.690 -3.4689  0.8174 -1.0764
  165MOL0     H22743   2.512   6.918   2.785  0.4828 -2.0926 -2.4137
  165MOL0     H22744   2.437   6.946   2.508 -0.0767 -0.6614 -0.9276
  165MOL0     H22745   2.455   6.790   2.594  1.6273 -0.7208 -1.2091
  165MOL0     H22746   2.682   6.799   2.613  0.4918 -0.1081 -1.7664
  165MOL0     H22747   2.699   6.972   2.596 -3.2852  2.7817 -0.3738
  165MOL0     H22748   2.663   6.959   2.342  1.8137  0.6984  0.5713
  165MOL0     H22749   2.637   6.778   2.373  1.3247 -1.4884 -0.5650
  165MOL0     H22750   2.183   7.100   3.381 -1.5122  1.1317 -1.2245
  165MOL0     H22751   2.032   7.075   3.589  2.1637 -1.4112  2.3132
  165MOL0     H22752   1.927   6.869   3.961 -0.5199 -0.3546  2.2475
  165MOL0     H22753   1.810   6.807   4.157  2.7761 -2.1828 -1.5995
  165MOL0     H22754   1.191   6.068   3.649 -0.0702  1.1748 -0.3912
  165MOL0     H22755   1.124   5.948   3.452 -1.9189  0.1144 -1.5195
  165MOL0     H22756   0.869   5.797   3.204  0.2387 -1.8915  1.6863
  165MOL0     H22757   0.863   5.748   2.954 -2.3749  0.4598  1.7935
  165MOL0     H22758   1.002   5.511   2.656 -3.0113  0.3213 -0.2525
  165MOL0     H22759   1.112   5.448   2.791  0.2446 -2.0310 -0.7940
  165MOL0     H22760   0.952   5.284   2.647 -0.1692 -1.9104  0.5908
  165MOL0     H22761   0.814   5.373   2.729  0.4254  0.6857  0.7047
  165MOL0     H22762   0.920   5.144   2.801  1.3103 -1.6132  1.9311
  165MOL0     H22763   1.030   5.248   2.886 -1.3786  2.7017  2.4210
  165MOL0     H22764   0.747   5.169   2.931  1.2198 -1.7640 -1.5453
  165MOL0     H22765   0.780   5.340   2.971 -1.3875 -1.3519  1.5410
  165MOL0     H22766   0.968   5.123   3.276 -1.0441 -4.6931 -0.8660
  165MOL0     H22767   1.082   5.395   3.013 -1.9987  0.1940 -2.2547
  165MOL0     H22768   1.153   5.328   3.240 -6.0873 -3.8628  0.6793
  165MOL0     H22769   1.193   5.469   3.348 -1.3946  3.8037 -1.9074
  165MOL0     H22770   1.050   5.375   3.382  0.9799 -0.9435  0.9396
  166MOL0     O22771  11.117  10.103   1.286 -0.0224 -0.2188 -0.1370
  166MOL0     C22772  11.063  10.159   1.385 -0.6141  0.6729  0.0983
  166MOL0     O22773  11.121  10.157   1.509  0.4864 -0.3684  0.6176
  166MOL0     C22774  11.237  10.090   1.547  1.0077  0.0451 -0.1043
  166MOL0     C22775  11.228  10.054   1.674 -0.8897 -0.4267 -0.3022
  166MOL0     C22776  11.338   9.992   1.741  0.2308  0.4358 -0.6690
  166MOL0     C22777  11.452   9.972   1.666  0.0249 -0.1981 -0.2116
  166MOL0     O22778  11.563   9.901   1.703  0.6917  0.0935 -0.0394
  166MOL0     C22779  11.588   9.870   1.844 -0.1186  0.0495 -0.0859
  166MOL0     C22780  11.677   9.752   1.841  0.0877  0.7433 -0.2951
  166MOL0     C22781  11.828   9.783   1.818 -0.2785  0.2848  0.2134
  166MOL0     C22782  11.854   9.744   1.667  0.4691  0.5995 -0.1036
  166MOL0     C22783  11.986   9.792   1.624 -0.7091 -1.2190  0.5679
  166MOL0     C22784  12.012   9.748   1.478  0.3762 -0.6431 -0.3982
  166MOL0     C22785  12.128   9.821   1.418  0.4763 -0.2833  0.4682
  166MOL0     C22786  12.149   9.784   1.276  0.2043  0.4459  0.1416
  166MOL0     N22787  12.044   9.845   1.186 -0.0338  1.2475 -0.0209
  166MOL0     C22788  12.064   9.967   1.132  0.6295 -0.1709  0.7671
  166MOL0     C22789  11.946   9.991   1.068  0.5236  0.4935  0.4379
  166MOL0     C22790  11.932  10.107   0.972 -0.4915  1.5809 -0.5186
  166MOL0     C22791  11.899  10.058   0.832  0.4333  0.5227 -0.0848
  166MOL0     C22792  11.977   9.927   0.776  0.4083 -0.2394 -0.0239
  166MOL0     C22793  12.130   9.935   0.786  1.4181  0.4038 -0.5473
  166MOL0     O22794  12.182   9.797   0.781  0.4727  0.5047  0.4403
  166MOL0     C22795  12.285   9.747   0.863 -0.1311  0.3688 -0.6685
  166MOL0     C22796  12.399   9.815   0.895 -0.8930 -1.2546 -0.2367
  166MOL0     C22797  12.521   9.754   0.936 -0.6120 -0.5939  0.3172
  166MOL0     C22798  12.639   9.842   0.958 -0.5891 -0.3351  0.4712
  166MOL0     C22799  12.526   9.616   0.967  0.4692 -0.0034  0.1101
  166MOL0     C22800  12.638   9.537   1.027  0.0865 -0.2115 -1.2539
  166MOL0     O22801  12.733   9.605   1.104  0.0254 -0.4052  0.1368
  166MOL0     C22802  12.846   9.539   1.161  0.4179 -0.5876  0.6159
  166MOL0     C22803  12.963   9.616   1.175  0.0411 -0.6399 -0.8257
  166MOL0     C22804  13.090   9.550   1.207  0.7043 -0.3704 -0.7888
  166MOL0     C22805  13.086   9.413   1.240 -0.2067  1.5818 -0.5143
  166MOL0     O22806  13.199   9.339   1.254 -0.5611 -0.0078  0.2514
  166MOL0     C22807  13.321   9.392   1.316  0.5209 -0.0446 -0.2310
  166MOL0     C22808  13.315   9.400   1.470 -0.4482 -0.2480 -0.2648
  166MOL0     C22809  13.341   9.257   1.530 -0.0442  0.5264 -0.9880
  166MOL0     C22810  13.435   9.266   1.653  0.1102  0.4433  0.2044
  166MOL0     C22811  13.481   9.130   1.692 -0.4381  0.1590  0.2057
  166MOL0     C22812  13.586   9.148   1.797 -0.7666 -0.5228 -0.3331
  166MOL0     C22813  13.598   9.022   1.880 -0.8083  0.0555  0.0292
  166MOL0     C22814  13.490   9.014   1.979  0.5383 -0.0497 -0.5050
  166MOL0    Cl22815  13.516   8.882   2.081 -0.2441 -0.3203  0.1182
  166MOL0     C22816  12.968   9.343   1.238 -0.6644  1.2179  0.3285
  166MOL0     C22817  12.849   9.404   1.192 -0.4210  0.2380  0.4095
  166MOL0     O22818  12.642   9.418   0.999 -0.3418  0.0553 -0.3225
  166MOL0     C22819  12.410   9.543   0.931  0.6456 -0.4892 -0.1724
  166MOL0     C22820  12.292   9.607   0.882 -0.1230  0.7951 -0.7908
  166MOL0     N22821  11.847   9.896   1.102  0.4938 -0.0219  0.7567
  166MOL0     N22822  11.912   9.808   1.172 -0.5076 -0.8129  0.6755
  166MOL0     C22823  11.460  10.018   1.533 -0.3930 -1.2172 -0.0151
  166MOL0     C22824  11.351  10.079   1.467  0.5093  0.5044  1.2265
  166MOL0     C22825  10.934  10.216   1.367  0.4757 -0.6247 -0.1796
  166MOL0     C22826  10.837  10.200   1.474  0.0755  0.7156 -0.2068
  166MOL0     C22827  10.708  10.249   1.457  0.8537  0.5331 -0.8377
  166MOL0     C22828  10.676  10.330   1.348  0.1414  1.1000 -0.4555
  166MOL0     O22829  10.567  10.410   1.330  0.3587  0.0236 -1.0764
  166MOL0     C22830  10.446  10.394   1.411 -0.5671 -0.2500 -0.0096
  166MOL0     C22831  10.358  10.297   1.332  0.9116  0.4420 -1.1344
  166MOL0     C22832  10.216  10.314   1.380 -0.5396  0.0527  0.9234
  166MOL0     C22833  10.126  10.253   1.266 -0.6956 -0.1013 -0.0288
  166MOL0     C22834  10.113  10.333   1.143 -0.4674 -0.6915 -0.2569
  166MOL0     C22835  10.107  10.391   1.039  0.8356  0.2572 -0.1648
  166MOL0     C22836  10.772  10.351   1.247  0.1027 -0.1781  0.5475
  166MOL0     C22837  10.902  10.302   1.258 -0.4000  0.0996  0.4033
  166MOL0     C22838  10.996  10.328   1.144  0.5765  0.0810  0.5074
  166MOL0     H22839  11.136  10.055   1.732  0.2998  1.2152  1.6896
  166MOL0     H22840  11.332   9.967   1.846 -2.8413  1.9263 -0.3939
  166MOL0     H22841  11.498   9.837   1.897  0.7312 -0.0346  1.3702
  166MOL0     H22842  11.635   9.943   1.910 -0.4720 -1.5688  2.0908
  166MOL0     H22843  11.665   9.705   1.940 -4.2605 -0.9652 -1.4115
  166MOL0     H22844  11.641   9.674   1.773 -1.8464 -0.2365  1.7255
  166MOL0     H22845  11.859   9.888   1.819  2.1118 -0.3523  0.5204
  166MOL0     H22846  11.882   9.730   1.898 -1.1759 -1.6094 -0.3917
  166MOL0     H22847  11.838   9.637   1.651  0.7101  0.6895 -0.9729
  166MOL0     H22848  11.775   9.792   1.607  0.1650  2.1301  1.4374
  166MOL0     H22849  12.065   9.760   1.693  2.3228  0.4268 -1.8593
  166MOL0     H22850  11.998   9.901   1.624  0.5262 -1.3307  1.3460
  166MOL0     H22851  12.029   9.640   1.470  0.7704 -0.5035 -1.7146
  166MOL0     H22852  11.917   9.767   1.427 -1.7821 -2.1168  2.7704
  166MOL0     H22853  12.220   9.794   1.470  2.6541 -1.9725 -3.7805
  166MOL0     H22854  12.121   9.930   1.428  1.5781  0.1609 -2.5432
  166MOL0     H22855  12.243   9.821   1.234  0.5775  0.4097  0.9233
  166MOL0     H22856  12.147   9.677   1.259  2.1701  0.2899  0.6267
  166MOL0     H22857  12.156  10.024   1.126  1.5936 -1.6777  0.6687
  166MOL0     H22858  12.025  10.164   0.969 -0.1163  1.2834  2.6535
  166MOL0     H22859  11.848  10.169   1.006  0.3453  2.6589 -0.3427
  166MOL0     H22860  11.793  10.032   0.825 -0.4047  3.9769 -2.6264
  166MOL0     H22861  11.912  10.149   0.773  0.8473 -0.5123 -1.6523
  166MOL0     H22862  11.931   9.846   0.834 -1.4102  1.4697  1.0277
  166MOL0     H22863  11.951   9.919   0.670 -0.0220  0.4276  0.0287
  166MOL0     H22864  12.161  10.002   0.705 -0.6875  0.1110 -1.6409
  166MOL0     H22865  12.155   9.982   0.882  2.9242  0.2900 -0.8646
  166MOL0     H22866  12.388   9.923   0.892 -0.8093 -1.2617 -0.7730
  166MOL0     H22867  12.728   9.790   0.922 -2.7464 -2.6657 -1.9804
  166MOL0     H22868  12.648   9.857   1.066 -1.5406 -0.2548  0.5461
  166MOL0     H22869  12.620   9.935   0.905 -0.3182 -1.0286 -0.8887
  166MOL0     H22870  12.966   9.723   1.157 -2.8972 -0.6057 -1.6493
  166MOL0     H22871  13.179   9.612   1.215 -0.9843  1.9980  1.8070
  166MOL0     H22872  13.405   9.326   1.294  0.2191 -0.3320 -0.5297
  166MOL0     H22873  13.355   9.489   1.280  1.5746 -0.4092 -0.2575
  166MOL0     H22874  13.393   9.467   1.505  0.7225 -1.5657 -0.2510
  166MOL0     H22875  13.219   9.438   1.504  0.8122 -0.0568  3.4689
  166MOL0     H22876  13.388   9.196   1.453 -2.1307 -0.8810 -1.2126
  166MOL0     H22877  13.246   9.211   1.559  1.3459 -0.1729  3.0817
  166MOL0     H22878  13.386   9.315   1.737  1.8001  1.4339  0.6459
  166MOL0     H22879  13.525   9.321   1.625  0.4660 -0.0736  0.3274
  166MOL0     H22880  13.399   9.069   1.729 -0.0622  0.0853  0.9443
  166MOL0     H22881  13.528   9.078   1.608  2.1686 -0.5627  1.9560
  166MOL0     H22882  13.570   9.236   1.861 -1.3388  0.2773 -1.5221
  166MOL0     H22883  13.683   9.172   1.754  0.4765  0.9759  2.9502
  166MOL0     H22884  13.693   9.042   1.931 -0.9968  1.7374 -0.2226
  166MOL0     H22885  13.602   8.928   1.824  0.2583 -0.9361  1.6711
  166MOL0     H22886  13.387   9.009   1.941 -0.7421 -0.2270  2.6532
  166MOL0     H22887  13.493   9.101   2.044 -1.3204  0.8655 -1.5431
  166MOL0     H22888  12.957   9.238   1.264  0.1779  0.5055 -1.9943
  166MOL0     H22889  12.759   9.342   1.196  0.5130 -1.3364 -1.3362
  166MOL0     H22890  12.416   9.436   0.948 -0.2788 -0.2515  2.0266
  166MOL0     H22891  12.207   9.559   0.835 -0.4052  2.6601 -2.3096
  166MOL0     H22892  11.550   9.999   1.475  0.4252 -0.8934  1.1083
  166MOL0     H22893  11.359  10.105   1.362  0.5822 -1.2311  0.7594
  166MOL0     H22894  10.852  10.116   1.542  2.5775  0.4655 -0.9767
  166MOL0     H22895  10.626  10.205   1.514  0.3008  2.0753 -0.4109
  166MOL0     H22896  10.469  10.362   1.513  0.4710  1.0683  0.2007
  166MOL0     H22897  10.397  10.492   1.415 -4.2036 -1.8868 -0.6794
  166MOL0     H22898  10.389  10.198   1.367  2.4871  1.9313  2.1508
  166MOL0     H22899  10.368  10.313   1.224  0.2022 -3.4389 -1.9240
  166MOL0     H22900  10.200  10.258   1.472  4.7235  0.9648  2.7198
  166MOL0     H22901  10.196  10.420   1.395  1.4764  0.6757 -0.4063
  166MOL0     H22902  10.024  10.254   1.305 -0.4967  2.1013  0.5642
  166MOL0     H22903  10.174  10.156   1.249  2.8641  1.7038 -1.3181
  166MOL0     H22904  10.105  10.455   0.953  1.2080 -0.7507 -0.9389
  166MOL0     H22905  10.759  10.425   1.168 -0.5664 -0.4623  0.3905
  166MOL0     H22906  10.984  10.258   1.061 -0.3587  3.3753 -2.3930
  166MOL0     H22907  10.976  10.419   1.086  0.8970 -0.3250 -0.2600
  166MOL0     H22908  11.098  10.324   1.182  1.1203  2.3146 -0.5413
  167MOL0     O22909   9.474   8.182  11.217 -0.7598 -0.7865 -0.2133
  167MOL0     C22910   9.358   8.144  11.228 -0.0839 -0.2816  0.1346
  167MOL0     O22911   9.283   8.125  11.115 -0.4723 -0.2925 -0.3871
  167MOL0     C22912   9.330   8.146  10.989 -0.0102 -0.3927 -0.1591
  167MOL0     C22913   9.292   8.270  10.936  0.1700 -0.5644 -0.6963
  167MOL0     C22914   9.346   8.321  10.823 -0.4784 -0.8583  0.2912
  167MOL0     C22915   9.432   8.241  10.739  0.2557 -0.0302 -0.5143
  167MOL0     O22916   9.481   8.282  10.617  0.3714  0.4942 -0.6085
  167MOL0     C22917   9.475   8.416  10.584 -0.2907 -0.2953 -0.3557
  167MOL0     C22918   9.549   8.451  10.455  0.5443  0.5730  0.5293
  167MOL0     C22919   9.527   8.587  10.384  0.3889 -0.2831 -0.0974
  167MOL0     C22920   9.551   8.701  10.487  0.1151  0.6405  0.5057
  167MOL0     C22921   9.427   8.751  10.566 -0.7072 -0.7071 -0.3743
  167MOL0     C22922   9.459   8.864  10.668 -0.9067  1.5323 -0.5404
  167MOL0     C22923   9.489   8.994  10.599 -0.6841 -0.0195  0.5438
  167MOL0     C22924   9.483   9.099  10.713 -0.6006  0.0393  0.7116
  167MOL0     N22925   9.611   9.119  10.777  0.2501 -0.4873 -0.4330
  167MOL0     C22926   9.659   9.051  10.891  0.0937 -0.5643 -0.4738
  167MOL0     C22927   9.793   9.084  10.890 -0.5265  0.6187 -0.6850
  167MOL0     C22928   9.879   9.047  11.004 -0.1389 -0.2564  0.4558
  167MOL0     C22929   9.921   8.899  10.994  0.3329 -0.0721  0.0572
  167MOL0     C22930  10.022   8.837  10.891 -0.0598 -0.0062 -0.6114
  167MOL0     C22931   9.994   8.874  10.740  0.1126  0.6725  0.6721
  167MOL0     O22932  10.104   8.828  10.662 -0.5315  1.4817 -0.2445
  167MOL0     C22933  10.078   8.733  10.568 -0.0049 -0.0574  0.3003
  167MOL0     C22934  10.146   8.748  10.440 -0.4412  0.3148 -0.2962
  167MOL0     C22935  10.105   8.674  10.325  0.0538 -0.2779 -0.3395
  167MOL0     C22936  10.179   8.696  10.204  1.1999  0.4891 -0.5854
  167MOL0     C22937  10.016   8.569  10.342  0.4707 -0.7796  0.4388
  167MOL0     C22938   9.970   8.476  10.237  0.3219  0.0429 -0.1522
  167MOL0     O22939   9.844   8.406  10.254  0.5068  0.0734 -0.3756
  167MOL0     C22940   9.839   8.276  10.200 -0.5812  1.0618 -0.0530
  167MOL0     C22941   9.948   8.183  10.207 -1.0981 -0.2308 -0.2102
  167MOL0     C22942   9.938   8.063  10.141 -0.3383  0.8184 -0.5589
  167MOL0     C22943   9.837   8.034  10.054  1.2999  0.2428 -0.2785
  167MOL0     O22944   9.836   7.923   9.973 -0.0361  0.1601  0.1712
  167MOL0     C22945   9.965   7.855   9.955 -0.6429 -0.3727  0.4961
  167MOL0     C22946   9.975   7.788   9.819 -0.2531  0.0195 -0.7194
  167MOL0     C22947  10.074   7.870   9.718  0.0699  0.1602 -0.3752
  167MOL0     C22948  10.058   8.021   9.713  0.0902 -0.3217 -0.9349
  167MOL0     C22949   9.914   8.079   9.699 -0.4334  0.1942  0.6383
  167MOL0     C22950   9.925   8.228   9.721 -0.0993 -0.2780  0.0986
  167MOL0     C22951   9.814   8.293   9.635 -0.1605 -0.3084 -0.1802
  167MOL0     C22952   9.842   8.445   9.639 -0.0100 -0.1924  0.0019
  167MOL0    Cl22953   9.708   8.552   9.585 -0.1248  0.3168  0.2926
  167MOL0     C22954   9.722   8.115  10.044  0.2253 -0.2262 -0.3284
  167MOL0     C22955   9.730   8.240  10.117  0.4861 -0.0392  1.0527
  167MOL0     O22956  10.051   8.447  10.146 -0.0895  0.7516  0.9942
  167MOL0     C22957   9.935   8.565  10.458  1.1674 -0.3054 -0.9178
  167MOL0     C22958   9.971   8.647  10.570  0.1001  1.1442 -0.2836
  167MOL0     N22959   9.818   9.169  10.789  0.1810 -0.4387 -0.6276
  167MOL0     N22960   9.711   9.182  10.721  0.2819  0.3217 -0.6838
  167MOL0     C22961   9.477   8.121  10.799 -0.2703  0.0475 -0.2432
  167MOL0     C22962   9.424   8.074  10.922  1.1314  0.5237 -0.0864
  167MOL0     C22963   9.293   8.124  11.359 -0.0522  0.3012  1.0821
  167MOL0     C22964   9.193   8.022  11.369 -0.6729 -0.3196  0.1630
  167MOL0     C22965   9.115   7.995  11.483  0.1563  0.2902 -0.9173
  167MOL0     C22966   9.144   8.076  11.594  0.2361  1.1237  0.1432
  167MOL0     O22967   9.050   8.060  11.697 -1.2361  0.5990  0.1787
  167MOL0     C22968   9.079   7.972  11.813 -0.0761  0.5464  0.2424
  167MOL0     C22969   8.972   7.865  11.845 -0.4214 -0.2213  0.5007
  167MOL0     C22970   8.828   7.907  11.802 -0.3238  0.6128 -1.0694
  167MOL0     C22971   8.722   7.847  11.899 -0.1152  0.2657  0.2067
  167MOL0     C22972   8.745   7.899  12.032  0.2582  0.3796  0.1748
  167MOL0     C22973   8.756   7.932  12.143  0.0899 -0.8662  0.1348
  167MOL0     C22974   9.237   8.181  11.593  0.0320  0.0844  0.3865
  167MOL0     C22975   9.324   8.199  11.474  1.1008 -0.0866 -0.2151
  167MOL0     C22976   9.408   8.328  11.468 -0.3682 -0.3464 -0.2702
  167MOL0     H22977   9.233   8.340  10.994  2.5239  0.2950  0.8253
  167MOL0     H22978   9.329   8.424  10.794  1.8620 -1.0187 -2.0663
  167MOL0     H22979   9.515   8.475  10.667  1.9501  1.2788 -2.4045
  167MOL0     H22980   9.374   8.447  10.558 -0.0214 -0.6291 -1.9043
  167MOL0     H22981   9.655   8.435  10.476  0.6386  0.5673  0.0450
  167MOL0     H22982   9.515   8.374  10.386  2.7125 -0.9827  1.1009
  167MOL0     H22983   9.595   8.598  10.300 -0.8550  0.3207 -1.0538
  167MOL0     H22984   9.426   8.588  10.341 -0.3560  1.3463  1.5567
  167MOL0     H22985   9.631   8.663  10.551  0.4667 -1.1258 -0.9076
  167MOL0     H22986   9.596   8.777  10.422  2.6323 -2.3637 -1.5053
  167MOL0     H22987   9.387   8.672  10.631  0.6038  0.2192  1.6821
  167MOL0     H22988   9.352   8.784  10.494  0.4634  1.2157 -0.7723
  167MOL0     H22989   9.368   8.878  10.728 -0.8559 -0.5444  0.0968
  167MOL0     H22990   9.550   8.840  10.723  0.0183  1.1015 -2.1881
  167MOL0     H22991   9.415   9.024  10.524  3.3840  1.4675 -3.3372
  167MOL0     H22992   9.586   8.997  10.549 -0.9700 -1.5939 -0.1969
  167MOL0     H22993   9.464   9.199  10.672  1.9041  0.0704 -0.5765
  167MOL0     H22994   9.407   9.080  10.789 -3.5331 -0.3410 -2.0812
  167MOL0     H22995   9.611   8.985  10.962 -1.2582  0.4044 -0.4624
  167MOL0     H22996   9.808   9.065  11.086 -3.0796  1.4401 -2.2374
  167MOL0     H22997   9.976   9.097  11.008 -0.2860  0.1479 -0.6911
  167MOL0     H22998   9.944   8.860  11.094 -4.1101  0.3320  1.4255
  167MOL0     H22999   9.827   8.844  10.992  0.1246 -0.0353  3.3364
  167MOL0     H23000  10.116   8.884  10.922  0.1315  1.6679 -3.3244
  167MOL0     H23001  10.027   8.728  10.892  1.5961  0.0078 -2.2915
  167MOL0     H23002   9.896   8.838  10.709 -0.8481  1.5025  2.6018
  167MOL0     H23003   9.985   8.980  10.718  1.2285  0.0452 -3.8400
  167MOL0     H23004  10.215   8.827  10.413 -0.2550 -0.5354 -2.5077
  167MOL0     H23005  10.116   8.680  10.116 -2.7081 -0.7681  2.1927
  167MOL0     H23006  10.251   8.614  10.201  0.3341 -0.2928 -0.0604
  167MOL0     H23007  10.218   8.799  10.203 -0.4377  1.2353  2.3913
  167MOL0     H23008  10.037   8.210  10.263  1.3962 -0.8481 -3.5514
  167MOL0     H23009  10.022   7.996  10.158 -0.7898 -0.2342 -2.3302
  167MOL0     H23010  10.040   7.934   9.963 -1.4194  0.6846 -1.7789
  167MOL0     H23011   9.975   7.777  10.031  0.9196 -2.2300 -1.4513
  167MOL0     H23012  10.021   7.689   9.831 -0.2017  0.2287  1.0455
  167MOL0     H23013   9.877   7.779   9.772 -1.1148  1.1060  0.8046
  167MOL0     H23014  10.053   7.833   9.617 -0.8265 -0.5873  0.0670
  167MOL0     H23015  10.174   7.837   9.748  1.0214  2.9218 -0.2179
  167MOL0     H23016  10.122   8.061   9.634  0.6071  0.7973  0.0158
  167MOL0     H23017  10.092   8.065   9.808 -2.3340 -0.3756  0.0346
  167MOL0     H23018   9.880   8.063   9.596 -1.2076 -0.2174  0.9503
  167MOL0     H23019   9.848   8.042   9.778 -2.6754  1.0481 -0.7289
  167MOL0     H23020  10.021   8.264   9.682 -0.8571 -0.1734 -1.7542
  167MOL0     H23021   9.913   8.239   9.829 -0.6345 -1.0816  0.1317
  167MOL0     H23022   9.713   8.274   9.671 -0.3875  1.7059  0.4106
  167MOL0     H23023   9.809   8.262   9.531 -0.8040  0.1973 -0.3082
  167MOL0     H23024   9.932   8.469   9.582  1.0435 -2.1485  0.7449
  167MOL0     H23025   9.860   8.465   9.745 -1.6178 -0.1611  0.2862
  167MOL0     H23026   9.631   8.092   9.991 -2.1021 -0.2696  3.3016
  167MOL0     H23027   9.656   8.318  10.101  0.9572  0.3229  0.6431
  167MOL0     H23028   9.857   8.489  10.461  0.3718  0.4155 -2.5078
  167MOL0     H23029   9.906   8.629  10.656 -0.4476 -1.0368 -1.0847
  167MOL0     H23030   9.531   8.050  10.737 -3.8852 -2.4069 -0.9445
  167MOL0     H23031   9.445   7.975  10.961 -2.7467  0.4132  2.2391
  167MOL0     H23032   9.190   7.954  11.284  2.0310  2.8711 -2.7916
  167MOL0     H23033   9.036   7.921  11.489  0.2913  0.2612  1.5331
  167MOL0     H23034   9.173   7.918  11.796 -0.4327 -0.5616  1.6099
  167MOL0     H23035   9.089   8.041  11.897 -3.6059  1.7982 -0.2195
  167MOL0     H23036   8.969   7.861  11.955 -1.4832  5.3236  0.9661
  167MOL0     H23037   9.002   7.766  11.809 -0.8319 -0.5618  1.0768
  167MOL0     H23038   8.805   8.014  11.797 -1.4540  0.3853 -1.0670
  167MOL0     H23039   8.809   7.854  11.709 -0.6983 -3.3499  1.0320
  167MOL0     H23040   8.733   7.738  11.910  2.0434  0.3869 -0.3368
  167MOL0     H23041   8.624   7.873  11.859 -0.3945  0.3991  0.9665
  167MOL0     H23042   8.753   7.951  12.248  1.3287  0.3566 -0.0095
  167MOL0     H23043   9.237   8.253  11.674 -0.2094  0.9127 -0.3295
  167MOL0     H23044   9.472   8.351  11.383  2.1862 -2.9698  0.7868
  167MOL0     H23045   9.351   8.421  11.480 -0.6242  0.8456 -7.0325
  167MOL0     H23046   9.474   8.323  11.555  0.4098 -2.4326 -0.9274
  168MOL0     O23047   7.605  10.193   8.890 -0.5873  0.9908  0.3401
  168MOL0     C23048   7.712  10.211   8.837  0.1860  0.4122  0.3552
  168MOL0     O23049   7.764  10.163   8.716 -0.2998  0.0353  0.3805
  168MOL0     C23050   7.695  10.080   8.634  0.4682 -0.0879  0.0739
  168MOL0     C23051   7.714  10.088   8.496 -0.2637 -0.6107  0.8840
  168MOL0     C23052   7.653  10.019   8.389 -0.0955  0.5488  1.0606
  168MOL0     C23053   7.552   9.934   8.421 -0.8371  0.2423  0.9720
  168MOL0     O23054   7.483   9.873   8.317  0.3896 -0.2608 -0.2890
  168MOL0     C23055   7.342   9.879   8.333  0.4159 -0.8596 -0.6162
  168MOL0     C23056   7.299  10.025   8.315  0.1339  1.1118 -0.4818
  168MOL0     C23057   7.147  10.036   8.328  0.0826  1.1399 -0.7664
  168MOL0     C23058   7.070  10.008   8.202 -0.6626  0.5558 -0.3672
  168MOL0     C23059   7.088  10.105   8.088 -0.4653 -0.4508  1.1907
  168MOL0     C23060   7.025  10.245   8.101  0.1155  0.9422 -0.0589
  168MOL0     C23061   6.978  10.301   7.965  0.9080  0.7678  0.3942
  168MOL0     C23062   6.922  10.440   7.965  0.3057  0.0018  0.1866
  168MOL0     N23063   6.818  10.469   8.059  0.2840  1.2621  0.0235
  168MOL0     C23064   6.683  10.430   8.042 -0.1828 -1.1383 -0.0565
  168MOL0     C23065   6.619  10.521   8.128 -0.7669 -0.1124 -1.2776
  168MOL0     C23066   6.474  10.541   8.157  0.2521 -0.1381  0.3736
  168MOL0     C23067   6.420  10.522   8.294  0.3942  0.7198 -0.9808
  168MOL0     C23068   6.403  10.656   8.366  1.1481  0.9539  0.2435
  168MOL0     C23069   6.349  10.631   8.502  0.9146  0.4605  0.7116
  168MOL0     O23070   6.210  10.571   8.494 -1.0523 -0.0435 -0.4006
  168MOL0     C23071   6.187  10.449   8.552 -0.0361  0.9564 -0.1160
  168MOL0     C23072   6.257  10.383   8.653 -0.9034 -0.3274  0.1060
  168MOL0     C23073   6.247  10.251   8.700  0.1786  0.9760  0.7743
  168MOL0     C23074   6.350  10.202   8.788  0.2958 -0.4969  0.3297
  168MOL0     C23075   6.148  10.181   8.636 -0.1383 -0.0380 -0.2692
  168MOL0     C23076   6.136  10.026   8.646  0.5344 -0.5353  0.6837
  168MOL0     O23077   6.131   9.973   8.765  0.3142 -0.3533 -0.0111
  168MOL0     C23078   6.177   9.844   8.787  0.1708 -0.2447  0.5419
  168MOL0     C23079   6.205   9.814   8.917  1.1454  0.1090  1.0611
  168MOL0     C23080   6.256   9.686   8.948  0.3393  0.2923 -0.3041
  168MOL0     C23081   6.297   9.590   8.849 -1.4413  1.3113  0.0748
  168MOL0     O23082   6.351   9.471   8.896 -0.4002  0.0132  1.2169
  168MOL0     C23083   6.318   9.348   8.822 -0.4699 -0.5211 -0.1509
  168MOL0     C23084   6.354   9.236   8.919 -0.9419 -0.6866 -1.1624
  168MOL0     C23085   6.299   9.253   9.064  0.5893  0.0299 -0.3421
  168MOL0     C23086   6.295   9.123   9.149  0.5128  0.0137 -1.0978
  168MOL0     C23087   6.223   9.155   9.273  0.1978  0.2252  0.5324
  168MOL0     C23088   6.173   9.044   9.361  0.6069  0.6444  0.9828
  168MOL0     C23089   6.064   9.097   9.458  0.1100 -0.5459 -0.2904
  168MOL0     C23090   6.002   8.970   9.527  0.7814 -0.5527 -0.3939
  168MOL0    Cl23091   5.874   9.032   9.645 -0.3695 -0.0185 -0.3891
  168MOL0     C23092   6.280   9.629   8.717 -0.6815  0.1698  0.2418
  168MOL0     C23093   6.216   9.754   8.686  0.7761  0.1639 -0.1165
  168MOL0     O23094   6.123   9.971   8.534 -0.2315  0.7431  0.6345
  168MOL0     C23095   6.063  10.240   8.549 -0.2826 -0.0574 -0.4087
  168MOL0     C23096   6.082  10.375   8.507 -0.7601  0.0257  0.0312
  168MOL0     N23097   6.705  10.594   8.208 -0.3989  0.0556 -0.3673
  168MOL0     N23098   6.824  10.560   8.168 -0.3909  1.3492 -0.1213
  168MOL0     C23099   7.536   9.910   8.564 -0.8879 -0.1002  0.1640
  168MOL0     C23100   7.607   9.979   8.664  0.3340 -0.5123 -0.1889
  168MOL0     C23101   7.809  10.298   8.912 -0.4319 -1.1501 -0.6773
  168MOL0     C23102   7.931  10.333   8.843 -0.0385 -0.9470  1.3101
  168MOL0     C23103   8.026  10.421   8.896 -0.2065 -0.1213  0.2414
  168MOL0     C23104   8.017  10.472   9.017  0.3954  0.2143 -0.7929
  168MOL0     O23105   8.118  10.545   9.062 -0.7713  0.4677 -0.6391
  168MOL0     C23106   8.135  10.616   9.193  0.1495  0.0153  0.4970
  168MOL0     C23107   8.064  10.753   9.197  0.0064  0.2696 -0.1840
  168MOL0     C23108   8.091  10.823   9.330  0.9498  0.2741 -0.0345
  168MOL0     C23109   8.048  10.969   9.306 -0.2648 -0.1223 -0.5745
  168MOL0     C23110   8.055  11.045   9.435  0.6070  0.3237  0.1697
  168MOL0     C23111   8.048  11.075   9.555  0.0224  0.2588  1.1130
  168MOL0     C23112   7.899  10.442   9.087  0.0190  0.6321  0.1701
  168MOL0     C23113   7.794  10.360   9.038  0.3913  0.5315  0.1160
  168MOL0     C23114   7.670  10.350   9.122 -1.1679  0.2937  0.4223
  168MOL0     H23115   7.794  10.153   8.462 -0.8254  0.4757  1.5767
  168MOL0     H23116   7.672  10.041   8.285 -4.5275 -1.5112 -0.4560
  168MOL0     H23117   7.306   9.828   8.423 -0.0933 -0.8747 -0.8256
  168MOL0     H23118   7.304   9.817   8.251 -2.4143 -3.2866  2.2373
  168MOL0     H23119   7.352  10.098   8.376  1.8369  0.9725 -1.7133
  168MOL0     H23120   7.334  10.054   8.215  1.5730  2.8295  0.4863
  168MOL0     H23121   7.109   9.963   8.400  2.2269 -2.6467 -3.1496
  168MOL0     H23122   7.122  10.137   8.362 -1.9395  0.0342  1.3485
  168MOL0     H23123   7.112   9.913   8.169  2.7405  0.8699  2.4371
  168MOL0     H23124   6.964   9.991   8.223 -0.0101 -2.3535  1.1281
  168MOL0     H23125   7.056  10.070   7.989  1.3448  1.4816 -0.1935
  168MOL0     H23126   7.196  10.124   8.079 -0.7850  2.3814  2.4411
  168MOL0     H23127   6.951  10.228   8.179  2.1923  3.7507  2.7558
  168MOL0     H23128   7.102  10.299   8.157  3.2893 -1.4101 -1.7701
  168MOL0     H23129   6.898  10.229   7.946 -0.9106  2.2386  2.0640
  168MOL0     H23130   7.065  10.277   7.903  0.4447  0.1127 -0.0226
  168MOL0     H23131   7.003  10.513   7.978  0.1307  0.4645 -1.1319
  168MOL0     H23132   6.875  10.449   7.866  2.3485 -0.8268 -0.9212
  168MOL0     H23133   6.642  10.372   7.961  2.3629 -1.5210 -1.1726
  168MOL0     H23134   6.419  10.474   8.090 -0.3327 -0.3163  1.0151
  168MOL0     H23135   6.458  10.643   8.122 -1.3478 -0.5142 -0.0735
  168MOL0     H23136   6.320  10.478   8.291  0.4344  0.6554 -1.4413
  168MOL0     H23137   6.482  10.467   8.365 -3.1789 -0.0517  1.8347
  168MOL0     H23138   6.505  10.696   8.378  0.5912  2.9155 -1.1155
  168MOL0     H23139   6.341  10.727   8.310  1.7996 -0.6768 -2.7423
  168MOL0     H23140   6.419  10.561   8.549 -0.8416  0.0171  2.8813
  168MOL0     H23141   6.343  10.724   8.560  0.4878  0.5779  0.4827
  168MOL0     H23142   6.331  10.442   8.706  0.0286 -1.4380  0.0866
  168MOL0     H23143   6.309  10.199   8.889  3.8693  1.8474  2.0687
  168MOL0     H23144   6.441  10.263   8.787  0.2228 -0.3901 -0.1720
  168MOL0     H23145   6.375  10.097   8.772  0.0665 -0.6033  0.6836
  168MOL0     H23146   6.175   9.876   9.000 -0.6578  0.1890  0.4041
  168MOL0     H23147   6.254   9.665   9.054 -0.7956  6.0464  1.1496
  168MOL0     H23148   6.209   9.349   8.817 -0.5948  2.6057  0.9305
  168MOL0     H23149   6.375   9.347   8.728 -1.6205  4.2062 -1.1555
  168MOL0     H23150   6.327   9.140   8.874 -0.8980 -1.2209 -0.1031
  168MOL0     H23151   6.463   9.227   8.918 -0.5903  2.5252 -1.2905
  168MOL0     H23152   6.194   9.283   9.053 -0.4736 -2.3739  1.9861
  168MOL0     H23153   6.360   9.326   9.117  0.4416 -2.0453  2.9912
  168MOL0     H23154   6.399   9.092   9.165 -0.5810 -2.4912  2.4378
  168MOL0     H23155   6.250   9.058   9.073 -1.6102  2.5435 -2.1498
  168MOL0     H23156   6.265   9.236   9.333 -1.5365  1.1064  0.6100
  168MOL0     H23157   6.133   9.207   9.240 -0.8329 -3.0148 -2.3443
  168MOL0     H23158   6.266   9.001   9.400  1.9401  2.6299  0.1624
  168MOL0     H23159   6.121   8.985   9.285  5.1088 -1.0308 -1.2220
  168MOL0     H23160   5.991   9.151   9.397  2.9707  0.2794 -3.3350
  168MOL0     H23161   6.100   9.167   9.534 -0.6947 -2.1495  1.6464
  168MOL0     H23162   6.076   8.912   9.582  0.4218 -1.3288 -0.7102
  168MOL0     H23163   5.960   8.897   9.457 -4.7442 -1.0537  2.9191
  168MOL0     H23164   6.326   9.575   8.636 -0.8832 -2.2296  1.6324
  168MOL0     H23165   6.203   9.773   8.580  1.5388  0.3158 -0.1916
  168MOL0     H23166   5.985  10.175   8.510 -0.4455 -0.3497  0.3727
  168MOL0     H23167   6.016  10.420   8.433 -0.4191 -0.5964 -0.6745
  168MOL0     H23168   7.475   9.822   8.583 -0.2223 -0.3633  1.1312
  168MOL0     H23169   7.584   9.935   8.761  1.1183 -3.2321 -1.1525
  168MOL0     H23170   7.960  10.300   8.744  1.9405  3.2660  0.2426
  168MOL0     H23171   8.118  10.450   8.846  1.5049 -0.6035  2.9215
  168MOL0     H23172   8.101  10.551   9.273  1.1382 -0.3628  0.6293
  168MOL0     H23173   8.242  10.632   9.211 -0.3322  1.3335  2.5988
  168MOL0     H23174   7.954  10.751   9.191  0.0659 -0.5468 -4.2265
  168MOL0     H23175   8.096  10.823   9.119 -1.8395  2.0861  0.5839
  168MOL0     H23176   8.044  10.770   9.414 -1.6028  0.7370 -1.0674
  168MOL0     H23177   8.200  10.827   9.340  1.0605  0.4532 -1.2017
  168MOL0     H23178   7.948  10.986   9.266 -1.2078  1.1036  2.0263
  168MOL0     H23179   8.107  11.018   9.228 -1.3881  0.7895 -0.8745
  168MOL0     H23180   8.048  11.096   9.660 -4.0283 -0.2760  1.3726
  168MOL0     H23181   7.877  10.491   9.181 -1.3614  0.3679  0.0095
  168MOL0     H23182   7.681  10.386   9.224 -2.3011 -0.7526  0.9327
  168MOL0     H23183   7.591  10.404   9.069 -1.7362 -0.7265  0.1913
  168MOL0     H23184   7.625  10.250   9.125 -3.8208  1.3555 -0.2788
  169MOL0     O23185  10.918   8.983  11.019  0.0855  0.2149  0.0636
  169MOL0     C23186  10.968   9.093  10.987 -0.3437  0.5209  0.1240
  169MOL0     O23187  11.068   9.102  10.894  0.0326 -0.8100 -0.5879
  169MOL0     C23188  11.138   8.991  10.857 -1.1331  0.3502 -0.3213
  169MOL0     C23189  11.119   8.923  10.737  0.6123  0.2602  0.3713
  169MOL0     C23190  11.202   8.817  10.703  0.2941 -1.2154 -0.1894
  169MOL0     C23191  11.296   8.765  10.792 -0.0942  0.0529 -1.0787
  169MOL0     O23192  11.365   8.647  10.760 -0.0246  0.3639  0.3611
  169MOL0     C23193  11.422   8.561  10.855 -0.6254  0.0731  0.6971
  169MOL0     C23194  11.468   8.434  10.780 -0.3477  0.8046  0.0058
  169MOL0     C23195  11.535   8.470  10.646 -0.2161  0.2623  0.1985
  169MOL0     C23196  11.615   8.342  10.600 -1.7259  1.1007  0.0221
  169MOL0     C23197  11.688   8.357  10.465 -0.3779 -0.0041  0.0963
  169MOL0     C23198  11.798   8.464  10.466 -0.0644  0.1940 -0.5638
  169MOL0     C23199  11.874   8.481  10.333 -0.3286 -0.1673  0.6189
  169MOL0     C23200  11.802   8.595  10.248  0.7115 -0.0319 -0.2527
  169MOL0     N23201  11.862   8.634  10.122 -0.2296  0.0698  0.1849
  169MOL0     C23202  11.982   8.688  10.101 -0.7233  0.9007  0.9856
  169MOL0     C23203  11.989   8.743   9.971  0.8583  1.1273 -0.4515
  169MOL0     C23204  12.104   8.823   9.922  1.0605  0.1803 -1.5251
  169MOL0     C23205  12.244   8.759   9.913  0.9689  0.1737  0.1045
  169MOL0     C23206  12.241   8.653   9.810  0.9598  0.3705  0.6319
  169MOL0     C23207  12.373   8.588   9.762  0.1680  1.0767  0.0420
  169MOL0     O23208  12.449   8.491   9.850 -0.7221 -0.1149  0.1530
  169MOL0     C23209  12.567   8.532   9.905 -0.9621 -0.8077  0.5306
  169MOL0     C23210  12.572   8.559  10.040  0.1104  0.5878  0.0956
  169MOL0     C23211  12.695   8.599  10.102  1.0360  0.4682  0.3615
  169MOL0     C23212  12.680   8.644  10.244  0.4088 -0.7062  0.5584
  169MOL0     C23213  12.814   8.602  10.033 -0.0934 -0.2444 -0.5035
  169MOL0     C23214  12.942   8.641  10.093 -0.5718  0.8053  0.4806
  169MOL0     O23215  13.049   8.648  10.003  0.1401 -0.0452 -1.3903
  169MOL0     C23216  13.145   8.742  10.047  0.6678  0.8820  0.0104
  169MOL0     C23217  13.104   8.854  10.127  0.0987  0.1423  0.2996
  169MOL0     C23218  13.199   8.950  10.153 -0.2533  1.1578  0.1770
  169MOL0     C23219  13.327   8.943  10.109 -0.1252 -0.4915  0.2500
  169MOL0     O23220  13.393   9.056  10.131 -1.0839  0.8165  0.3102
  169MOL0     C23221  13.530   9.054  10.087  0.1059  0.2997 -0.0145
  169MOL0     C23222  13.597   9.186  10.119 -0.4664 -0.0921 -0.5682
  169MOL0     C23223  13.551   9.305  10.031  1.1741 -0.4784  0.6403
  169MOL0     C23224  13.625   9.421  10.081 -0.8228 -0.0180  0.7581
  169MOL0     C23225  13.635   9.546   9.986 -0.2139 -0.1697 -0.7589
  169MOL0     C23226  13.499   9.604   9.942 -0.4349 -0.4091  0.0488
  169MOL0     C23227  13.423   9.660  10.060 -0.9829  0.2304  0.2908
  169MOL0     C23228  13.309   9.726   9.995  0.4399 -0.8213 -0.2417
  169MOL0    Cl23229  13.237   9.837  10.128 -0.1159  0.2300 -0.0187
  169MOL0     C23230  13.363   8.836  10.030 -0.3146  0.0670 -0.3690
  169MOL0     C23231  13.266   8.744   9.999  0.4263 -0.0460  0.3832
  169MOL0     O23232  12.960   8.633  10.212 -0.6186  0.3034  0.1457
  169MOL0     C23233  12.814   8.569   9.901  0.4735  0.0900  0.2041
  169MOL0     C23234  12.694   8.538   9.838 -0.0484 -0.6681  0.1103
  169MOL0     N23235  11.860   8.727   9.910  0.7290  0.0872 -0.0974
  169MOL0     N23236  11.797   8.655   9.996 -0.1796 -0.2377  0.6429
  169MOL0     C23237  11.321   8.832  10.915 -0.8622  0.2655  0.2754
  169MOL0     C23238  11.240   8.936  10.948 -0.2996 -0.5855  0.4677
  169MOL0     C23239  10.904   9.218  11.042 -0.2952 -0.9089  0.6531
  169MOL0     C23240  10.778   9.211  11.102  0.0712  0.9331  0.0404
  169MOL0     C23241  10.710   9.332  11.127  1.5196  0.0664 -0.5353
  169MOL0     C23242  10.757   9.461  11.093 -0.3115 -0.2259 -0.0046
  169MOL0     O23243  10.680   9.575  11.094  0.0536 -0.2571 -0.7391
  169MOL0     C23244  10.532   9.585  11.102 -0.4437 -0.0811  1.3829
  169MOL0     C23245  10.489   9.708  11.021  0.3075 -0.4951 -0.2582
  169MOL0     C23246  10.474   9.819  11.126 -0.5459 -0.0653  0.8732
  169MOL0     C23247  10.447   9.953  11.045  0.6348  0.1032 -0.1153
  169MOL0     C23248  10.405  10.073  11.133 -0.0415 -0.4870  1.3577
  169MOL0     C23249  10.368  10.170  11.200  0.2596  0.0631  0.3255
  169MOL0     C23250  10.883   9.463  11.050 -0.6408  0.0124  0.4097
  169MOL0     C23251  10.962   9.346  11.014 -0.2405  0.3839 -1.4155
  169MOL0     C23252  11.106   9.374  10.977 -0.4400  0.0308  1.0684
  169MOL0     H23253  11.040   8.960  10.673  1.6284 -0.2826 -1.2662
  169MOL0     H23254  11.192   8.764  10.609 -1.3202 -5.1496  1.9845
  169MOL0     H23255  11.361   8.546  10.945  0.2129 -0.1184  1.2474
  169MOL0     H23256  11.510   8.622  10.882 -0.2279  0.5902 -1.5798
  169MOL0     H23257  11.535   8.379  10.847 -2.0065  1.6003  2.4893
  169MOL0     H23258  11.374   8.385  10.753 -0.2701 -1.9244  3.8736
  169MOL0     H23259  11.466   8.483  10.562  1.7575 -3.9369 -2.4204
  169MOL0     H23260  11.612   8.548  10.654  0.3026 -0.1137 -0.9036
  169MOL0     H23261  11.690   8.308  10.673 -0.0263  1.6267 -1.4218
  169MOL0     H23262  11.537   8.265  10.606 -0.3300 -0.4779 -0.8812
  169MOL0     H23263  11.614   8.372  10.386  0.1705  0.9023 -0.2527
  169MOL0     H23264  11.743   8.265  10.442  1.8752  0.5276  2.7449
  169MOL0     H23265  11.757   8.556  10.508 -1.8299 -0.8933  0.2235
  169MOL0     H23266  11.873   8.420  10.532 -3.0048 -0.7568  2.4274
  169MOL0     H23267  11.871   8.385  10.280 -0.3944 -0.0447  0.4031
  169MOL0     H23268  11.977   8.515  10.342 -0.2989 -0.2034  0.4180
  169MOL0     H23269  11.697   8.565  10.243  0.2793  1.3012  0.4065
  169MOL0     H23270  11.803   8.682  10.314  0.8032 -0.0875 -0.1811
  169MOL0     H23271  12.067   8.702  10.168 -0.5611  0.1153  0.9538
  169MOL0     H23272  12.115   8.903   9.995  2.1474  1.2687 -2.8166
  169MOL0     H23273  12.072   8.869   9.827 -0.8489 -1.5309 -1.7959
  169MOL0     H23274  12.319   8.829   9.877  1.4750 -1.5547 -2.4455
  169MOL0     H23275  12.290   8.732  10.008 -1.4859  1.3218  1.7437
  169MOL0     H23276  12.176   8.576   9.854  0.5539 -0.6244 -1.5811
  169MOL0     H23277  12.191   8.685   9.718  0.9897 -0.0299  0.4734
  169MOL0     H23278  12.351   8.534   9.669 -3.4112  3.3078 -0.5841
  169MOL0     H23279  12.442   8.671   9.745  1.8019  0.0010  1.0395
  169MOL0     H23280  12.483   8.551  10.102  1.4140  1.3100  2.1572
  169MOL0     H23281  12.734   8.574  10.309  0.4496  0.8561  2.2890
  169MOL0     H23282  12.574   8.656  10.270 -0.8471  1.1805 -4.3307
  169MOL0     H23283  12.734   8.738  10.255  3.2944 -1.9857 -1.3847
  169MOL0     H23284  13.004   8.877  10.163  0.1303  2.2053 -0.7687
  169MOL0     H23285  13.179   9.029  10.225  2.2756  1.3908  0.7219
  169MOL0     H23286  13.582   8.970  10.135  0.0270 -0.8281 -1.8203
  169MOL0     H23287  13.531   9.026   9.982 -2.2144  0.7986 -0.2170
  169MOL0     H23288  13.576   9.219  10.221 -1.4957  0.1232 -0.8307
  169MOL0     H23289  13.701   9.153  10.114 -0.2840  0.2523  0.6910
  169MOL0     H23290  13.443   9.316  10.044  1.2509 -1.2011  2.0660
  169MOL0     H23291  13.565   9.282   9.925 -2.5536 -0.3360 -0.0084
  169MOL0     H23292  13.728   9.398  10.110 -0.8538 -0.2440  0.6887
  169MOL0     H23293  13.581   9.448  10.177 -0.5661 -1.3468  1.2745
  169MOL0     H23294  13.692   9.617  10.046  0.4021 -0.5236 -0.9255
  169MOL0     H23295  13.688   9.508   9.898  0.6493 -2.8958  0.8512
  169MOL0     H23296  13.435   9.524   9.904 -4.0616  2.0576  0.4539
  169MOL0     H23297  13.516   9.683   9.868 -1.5565  0.1291  0.3356
  169MOL0     H23298  13.478   9.726  10.127  0.2551 -2.1529  1.7866
  169MOL0     H23299  13.390   9.584  10.131 -1.0263  0.6470  0.7150
  169MOL0     H23300  13.223   9.666   9.965 -1.1498  0.3060  1.7708
  169MOL0     H23301  13.338   9.795   9.915  1.3550  0.6133  1.2514
  169MOL0     H23302  13.458   8.825   9.979  0.6298 -1.4870  1.5577
  169MOL0     H23303  13.267   8.666   9.923  0.7758  2.0853 -1.9180
  169MOL0     H23304  12.908   8.577   9.848  0.4209 -1.9260 -0.2933
  169MOL0     H23305  12.695   8.510   9.733 -3.2342 -0.4075 -0.1036
  169MOL0     H23306  11.415   8.814  10.966  1.5807  0.3889 -3.7771
  169MOL0     H23307  11.265   8.987  11.040  1.8831  2.5588 -1.6749
  169MOL0     H23308  10.745   9.112  11.133  1.5056 -0.9212 -3.7857
  169MOL0     H23309  10.614   9.328  11.179 -0.1511 -1.2942 -3.4645
  169MOL0     H23310  10.487   9.499  11.052  2.6620  0.4770 -3.0066
  169MOL0     H23311  10.506   9.589  11.208  2.1571 -1.7783  2.1792
  169MOL0     H23312  10.400   9.692  10.960 -0.0486  0.4178  0.0096
  169MOL0     H23313  10.568   9.733  10.949 -1.5440 -0.1422 -2.2830
  169MOL0     H23314  10.400   9.810  11.206  0.2140 -0.2709  1.5684
  169MOL0     H23315  10.568   9.829  11.180  0.5264  4.7458 -1.3311
  169MOL0     H23316  10.369   9.944  10.970 -2.5757  1.1637  2.8034
  169MOL0     H23317  10.544   9.976  11.001  1.9588 -1.0502  1.9857
  169MOL0     H23318  10.323  10.248  11.258 -0.6846 -1.0586  1.1674
  169MOL0     H23319  10.922   9.560  11.020  1.6649 -1.6263 -2.3101
  169MOL0     H23320  11.126   9.331  10.879 -2.2224  3.3931 -0.9740
  169MOL0     H23321  11.127   9.481  10.969 -0.2195 -0.1299 -4.1927
  169MOL0     H23322  11.172   9.325  11.048  1.5327 -0.2605 -0.8608
  170MOL0     O23323   0.456   0.757   4.154 -1.3740 -0.4669  0.2611
  170MOL0     C23324   0.410   0.855   4.101 -0.3513 -0.1530 -0.4787
  170MOL0     O23325   0.449   0.920   3.995  0.6550  0.6833  0.7056
  170MOL0     C23326   0.554   0.880   3.924  0.3182  0.0834  0.2020
  170MOL0     C23327   0.663   0.965   3.927  0.0203  0.3400  1.0027
  170MOL0     C23328   0.777   0.915   3.863 -0.2639 -0.1431 -0.8103
  170MOL0     C23329   0.783   0.783   3.802  0.2960 -0.1888  0.0491
  170MOL0     O23330   0.894   0.730   3.734  0.5037  0.2868 -0.0374
  170MOL0     C23331   1.018   0.796   3.746 -0.0762 -0.7123 -0.8741
  170MOL0     C23332   1.092   0.760   3.616  0.4201  0.0737 -0.2597
  170MOL0     C23333   1.221   0.841   3.611 -0.7386  0.8339  0.8021
  170MOL0     C23334   1.332   0.761   3.532  0.1678  0.3555 -0.6129
  170MOL0     C23335   1.478   0.821   3.549 -0.3351 -1.0351  0.0346
  170MOL0     C23336   1.494   0.977   3.543  0.1022 -0.4177  0.2435
  170MOL0     C23337   1.483   1.017   3.392  0.1317 -0.4602  0.5437
  170MOL0     C23338   1.561   1.151   3.365  0.5473  0.3983  0.4560
  170MOL0     N23339   1.514   1.267   3.436 -0.4068 -0.4815  0.0080
  170MOL0     C23340   1.546   1.295   3.559  0.1930  0.0479 -0.4559
  170MOL0     C23341   1.474   1.403   3.587 -0.0994  0.8852  0.0349
  170MOL0     C23342   1.462   1.456   3.726 -0.2975  0.6183  0.6977
  170MOL0     C23343   1.338   1.398   3.784 -0.1101 -0.2977 -0.0040
  170MOL0     C23344   1.332   1.424   3.934 -0.9657  0.1583 -0.5283
  170MOL0     C23345   1.434   1.359   4.033 -0.2131  0.0354 -0.0980
  170MOL0     O23346   1.432   1.223   4.011  1.1193 -0.3924 -0.0120
  170MOL0     C23347   1.453   1.132   4.115 -0.2157  0.5231 -0.8737
  170MOL0     C23348   1.512   1.159   4.236 -0.0126  0.6498 -0.3660
  170MOL0     C23349   1.534   1.062   4.343  1.1212 -0.2237  0.6534
  170MOL0     C23350   1.612   1.109   4.467 -0.5053 -0.2566 -0.9806
  170MOL0     C23351   1.496   0.921   4.305 -0.5810 -0.2031 -0.9514
  170MOL0     C23352   1.541   0.799   4.385 -0.9498 -0.1990  0.0700
  170MOL0     O23353   1.515   0.670   4.343 -0.0984 -0.4078 -0.4634
  170MOL0     C23354   1.553   0.579   4.440  0.1722  0.0756  0.8335
  170MOL0     C23355   1.626   0.454   4.416  0.4440  0.0657 -0.2857
  170MOL0     C23356   1.651   0.364   4.516  0.3029  1.2436 -0.9819
  170MOL0     C23357   1.603   0.382   4.644  0.0712  0.0565 -1.3287
  170MOL0     O23358   1.634   0.281   4.741 -0.4986 -0.1514  0.2739
  170MOL0     C23359   1.630   0.318   4.883 -0.1103  0.7344 -0.5938
  170MOL0     C23360   1.682   0.192   4.973  0.1069 -0.6664  0.6377
  170MOL0     C23361   1.648   0.203   5.119  0.0144 -0.6163  0.2806
  170MOL0     C23362   1.493   0.162   5.143 -1.0195  0.0655  0.2113
  170MOL0     C23363   1.480   0.194   5.291  0.9075 -0.1464  1.1278
  170MOL0     C23364   1.331   0.222   5.333  0.1383  0.8428 -0.0802
  170MOL0     C23365   1.303   0.357   5.300  0.1184  1.0663 -0.6177
  170MOL0     C23366   1.165   0.386   5.354  0.9620  0.0216 -0.4613
  170MOL0    Cl23367   1.168   0.547   5.426 -0.1787  0.1914 -0.4136
  170MOL0     C23368   1.525   0.492   4.673  0.0538  0.4445 -0.1194
  170MOL0     C23369   1.488   0.588   4.567  0.4887  0.4055 -0.8177
  170MOL0     O23370   1.610   0.825   4.488 -0.0391 -0.0074 -0.1258
  170MOL0     C23371   1.418   0.895   4.187 -0.2089 -0.2838  0.6208
  170MOL0     C23372   1.396   1.005   4.091 -0.6374  0.5661 -0.3124
  170MOL0     N23373   1.399   1.446   3.471  1.2362 -0.0368  0.3116
  170MOL0     N23374   1.432   1.359   3.382  0.0888  0.3568 -0.4748
  170MOL0     C23375   0.669   0.705   3.798  0.3684 -0.4199  0.2841
  170MOL0     C23376   0.553   0.752   3.865  0.1293  0.3183 -0.1874
  170MOL0     C23377   0.297   0.917   4.173 -0.5461 -0.0078 -0.1802
  170MOL0     C23378   0.266   1.044   4.141 -0.1868  0.1311 -0.3313
  170MOL0     C23379   0.152   1.112   4.189  0.0041 -0.2520 -0.4945
  170MOL0     C23380   0.085   1.070   4.303 -0.5221  0.7852 -0.7482
  170MOL0     O23381  -0.010   1.138   4.370  0.8195 -0.4655 -0.7559
  170MOL0     C23382  -0.082   1.234   4.286 -0.0049  0.3195  0.2450
  170MOL0     C23383  -0.192   1.302   4.378 -0.0491  1.1049  0.2919
  170MOL0     C23384  -0.287   1.410   4.323 -1.3489  0.6141  0.5813
  170MOL0     C23385  -0.232   1.481   4.203  0.5817 -0.5355  0.7312
  170MOL0     C23386  -0.111   1.568   4.209  0.1251 -0.1836 -0.1861
  170MOL0     C23387  -0.020   1.641   4.235  0.3655 -0.6033  0.1292
  170MOL0     C23388   0.136   0.945   4.359  0.7498 -0.2768  0.3489
  170MOL0     C23389   0.231   0.869   4.289  1.0109 -0.0581  0.2051
  170MOL0     C23390   0.285   0.744   4.363 -0.3738 -0.1626  0.3027
  170MOL0     H23391   0.660   1.059   3.980  0.0272  1.2979 -0.6392
  170MOL0     H23392   0.867   0.976   3.861  1.1145 -1.9325  1.7929
  170MOL0     H23393   1.078   0.767   3.833  0.0075  0.0370 -0.6755
  170MOL0     H23394   1.009   0.904   3.734  3.3194  0.1732  2.6457
  170MOL0     H23395   1.109   0.652   3.622  1.5977  0.2077 -0.7929
  170MOL0     H23396   1.029   0.787   3.531 -0.4531 -1.2577 -0.0648
  170MOL0     H23397   1.192   0.937   3.568  1.0241  1.9451  1.9680
  170MOL0     H23398   1.267   0.862   3.708  0.6014  1.1917  0.1102
  170MOL0     H23399   1.327   0.659   3.572  0.8429 -0.8266 -3.2848
  170MOL0     H23400   1.289   0.765   3.431 -3.0837  0.4559  0.6452
  170MOL0     H23401   1.545   0.783   3.472  0.1234  1.4132 -0.8568
  170MOL0     H23402   1.528   0.793   3.642  3.9019 -0.6909 -1.9363
  170MOL0     H23403   1.414   1.020   3.603  0.3946  0.4861  0.0061
  170MOL0     H23404   1.579   1.013   3.600  0.1839  2.9997 -1.7736
  170MOL0     H23405   1.378   1.042   3.376  0.6456  0.9082 -0.9603
  170MOL0     H23406   1.520   0.941   3.322  2.9377  0.2765  1.0966
  170MOL0     H23407   1.663   1.134   3.402 -0.4410 -0.5918  2.9642
  170MOL0     H23408   1.558   1.169   3.257  1.6550  2.4723  0.7316
  170MOL0     H23409   1.607   1.229   3.619 -1.1044 -0.0936  0.7595
  170MOL0     H23410   1.453   1.565   3.715  3.7584  0.9157 -1.6625
  170MOL0     H23411   1.551   1.437   3.787  0.2936 -3.8895 -1.2256
  170MOL0     H23412   1.253   1.431   3.725 -0.8984  0.4662  1.5129
  170MOL0     H23413   1.345   1.289   3.776  1.0174 -0.2416  0.0058
  170MOL0     H23414   1.342   1.533   3.946 -1.1196  0.0867  0.2837
  170MOL0     H23415   1.231   1.399   3.967 -0.7951  1.1647  0.8290
  170MOL0     H23416   1.538   1.387   4.012 -1.3090  4.5045 -0.6338
  170MOL0     H23417   1.401   1.390   4.133 -1.3966  1.2401 -0.8182
  170MOL0     H23418   1.540   1.263   4.249 -0.3099  0.5653  1.1307
  170MOL0     H23419   1.635   1.214   4.451 -2.9245  0.6059  0.5865
  170MOL0     H23420   1.701   1.046   4.475 -1.3047 -1.3247 -0.1520
  170MOL0     H23421   1.548   1.100   4.555  1.4029 -3.8443  0.2511
  170MOL0     H23422   1.654   0.431   4.313  2.3107 -2.0862  0.6041
  170MOL0     H23423   1.721   0.283   4.499  0.7830  0.9851  1.7118
  170MOL0     H23424   1.694   0.403   4.904  1.8354 -0.6208 -0.7426
  170MOL0     H23425   1.527   0.347   4.907 -0.0222  2.7219 -2.3840
  170MOL0     H23426   1.637   0.099   4.936  0.3905 -0.9349  0.9550
  170MOL0     H23427   1.790   0.183   4.960  0.0930  0.0519 -0.0437
  170MOL0     H23428   1.657   0.309   5.146  2.3141 -1.0410  1.4379
  170MOL0     H23429   1.704   0.139   5.188  0.1230  1.5636  2.3644
  170MOL0     H23430   1.464   0.061   5.110  1.8731 -1.5716  2.2454
  170MOL0     H23431   1.435   0.228   5.078  1.9041 -0.5859 -3.3824
  170MOL0     H23432   1.520   0.102   5.335  2.6226 -0.0864 -0.1938
  170MOL0     H23433   1.539   0.281   5.319  2.1313  1.9365 -5.9722
  170MOL0     H23434   1.317   0.206   5.440  1.0815  0.8760  0.0602
  170MOL0     H23435   1.260   0.158   5.281  0.3598 -1.3100  2.0858
  170MOL0     H23436   1.313   0.374   5.192 -3.1772  1.9976 -0.8950
  170MOL0     H23437   1.370   0.430   5.347  0.1424  0.3593  0.4663
  170MOL0     H23438   1.137   0.317   5.435  1.4383 -0.1357 -0.4260
  170MOL0     H23439   1.077   0.387   5.289 -1.2456  0.8892  2.3471
  170MOL0     H23440   1.475   0.533   4.760  0.9509 -0.7927  0.9998
  170MOL0     H23441   1.409   0.658   4.592 -2.0130 -2.2776 -0.7277
  170MOL0     H23442   1.380   0.797   4.161  0.1031  0.3390 -2.6122
  170MOL0     H23443   1.333   0.980   4.006  0.1813 -0.7211 -0.5608
  170MOL0     H23444   0.659   0.614   3.741 -1.3871 -0.1125  0.0233
  170MOL0     H23445   0.459   0.700   3.852  1.1237 -0.9809 -2.9607
  170MOL0     H23446   0.319   1.093   4.060 -1.4072  1.2800 -0.4783
  170MOL0     H23447   0.121   1.202   4.137 -0.5309 -0.3653 -0.3729
  170MOL0     H23448  -0.006   1.312   4.278 -1.7811  2.8997  4.7608
  170MOL0     H23449  -0.123   1.188   4.195  2.9370  0.6107 -1.3494
  170MOL0     H23450  -0.129   1.337   4.459  0.9708  1.7399 -0.7473
  170MOL0     H23451  -0.249   1.222   4.427 -0.6861  1.9583  0.9656
  170MOL0     H23452  -0.383   1.363   4.302  1.0013 -4.6771  0.1358
  170MOL0     H23453  -0.297   1.478   4.408  1.7040 -1.1574  2.5484
  170MOL0     H23454  -0.313   1.540   4.160 -0.2391 -2.8010 -1.0366
  170MOL0     H23455  -0.210   1.397   4.137 -1.8318 -2.3845  2.0995
  170MOL0     H23456   0.063   1.705   4.252 -0.2571  0.8781 -1.9307
  170MOL0     H23457   0.077   0.917   4.445 -1.8783  1.1773 -0.8532
  170MOL0     H23458   0.386   0.752   4.403 -1.2922 -2.2382  3.4144
  170MOL0     H23459   0.220   0.722   4.449 -2.1833  0.6549 -0.7958
  170MOL0     H23460   0.287   0.655   4.299  0.2236 -0.3482  0.5752
  171MOL0     O23461   9.160   5.486   6.663  0.0489 -0.3946  0.3749
  171MOL0     C23462   9.127   5.420   6.563  0.4582 -0.2954 -0.1182
  171MOL0     O23463   9.190   5.418   6.433  0.4507 -0.0033 -0.8800
  171MOL0     C23464   9.318   5.472   6.433 -0.3320  1.0485 -0.6767
  171MOL0     C23465   9.364   5.547   6.321 -0.1155  0.2218 -0.2201
  171MOL0     C23466   9.497   5.580   6.300  0.0536  0.5850  0.4718
  171MOL0     C23467   9.593   5.537   6.397  0.4357  0.1495  1.4665
  171MOL0     O23468   9.723   5.580   6.393 -0.4829 -1.2531  0.1892
  171MOL0     C23469   9.786   5.580   6.265 -0.4666 -0.8345 -0.5025
  171MOL0     C23470   9.930   5.552   6.294  0.2664 -0.2078 -0.3498
  171MOL0     C23471   9.998   5.513   6.158  0.3776 -0.0294 -0.0550
  171MOL0     C23472  10.149   5.464   6.175 -1.4484  0.8750 -0.1167
  171MOL0     C23473  10.159   5.309   6.214  0.7535  0.4087 -0.2764
  171MOL0     C23474  10.304   5.260   6.231 -0.4342 -0.7966  0.2085
  171MOL0     C23475  10.309   5.121   6.299  0.4166  0.6127  0.0589
  171MOL0     C23476  10.455   5.060   6.317  0.3461 -0.7592 -0.8707
  171MOL0     N23477  10.483   4.956   6.420  0.1438  0.0646  0.0879
  171MOL0     C23478  10.406   4.841   6.435 -0.6343  0.3794 -0.8039
  171MOL0     C23479  10.470   4.783   6.539 -0.8058  0.0524  0.4840
  171MOL0     C23480  10.452   4.657   6.601  0.7046  0.3516  0.1394
  171MOL0     C23481  10.414   4.549   6.498 -0.2476  0.2853 -0.6375
  171MOL0     C23482  10.431   4.400   6.554 -0.8621  1.1912 -0.1833
  171MOL0     C23483  10.366   4.374   6.696 -0.5923  1.2847 -0.2996
  171MOL0     O23484  10.425   4.243   6.742  0.0718 -0.4378 -0.4821
  171MOL0     C23485  10.353   4.124   6.728  0.2962  0.9161 -0.1632
  171MOL0     C23486  10.416   4.010   6.782  0.5365  0.2855 -0.5158
  171MOL0     C23487  10.357   3.888   6.784  0.6360 -0.3776 -0.1883
  171MOL0     C23488  10.439   3.765   6.825  0.5199  0.0022 -0.3017
  171MOL0     C23489  10.224   3.871   6.720  0.9235  0.2354  1.1020
  171MOL0     C23490  10.154   3.737   6.702 -0.4539  0.0193 -0.1586
  171MOL0     O23491  10.029   3.748   6.677  0.0718  0.0477 -0.5523
  171MOL0     C23492   9.957   3.634   6.649  0.2670  0.6873 -1.5389
  171MOL0     C23493   9.982   3.548   6.545  0.1496 -0.0262  0.0536
  171MOL0     C23494   9.884   3.438   6.522  0.2893 -0.0586  0.1623
  171MOL0     C23495   9.777   3.414   6.612  0.5256  0.5084 -0.5322
  171MOL0     O23496   9.710   3.294   6.610  0.8945 -0.1964 -0.2998
  171MOL0     C23497   9.569   3.300   6.589  0.0185  0.2401 -0.2594
  171MOL0     C23498   9.531   3.182   6.501 -0.2216  0.2650  0.4536
  171MOL0     C23499   9.608   3.160   6.361 -0.1377 -0.5420  0.0881
  171MOL0     C23500   9.707   3.045   6.361 -0.1452 -0.0649  0.0899
  171MOL0     C23501   9.664   2.895   6.362 -0.1020  0.0316 -0.2485
  171MOL0     C23502   9.547   2.857   6.274 -0.3673 -1.1479 -0.4078
  171MOL0     C23503   9.574   2.844   6.122  1.2363  0.1557 -0.9503
  171MOL0     C23504   9.448   2.794   6.047  0.2436  0.6609  0.1147
  171MOL0    Cl23505   9.320   2.926   6.044  0.0921  0.0623 -0.1245
  171MOL0     C23506   9.756   3.500   6.724  0.5558  0.3137  0.2155
  171MOL0     C23507   9.845   3.604   6.736 -0.8279  0.3835  0.2402
  171MOL0     O23508  10.212   3.631   6.708 -0.7894 -1.2325  0.0684
  171MOL0     C23509  10.161   3.993   6.670  0.9688  0.3109 -0.5630
  171MOL0     C23510  10.226   4.115   6.677 -0.6564 -0.7790  0.9298
  171MOL0     N23511  10.580   4.856   6.579  0.3910  0.1422  0.2410
  171MOL0     N23512  10.588   4.963   6.509  0.2811 -0.6102  0.4013
  171MOL0     C23513   9.548   5.459   6.500  0.0608 -0.6844 -0.6781
  171MOL0     C23514   9.417   5.416   6.524  0.1554  0.3122  0.9393
  171MOL0     C23515   9.012   5.323   6.574 -0.4492  0.7286  0.5363
  171MOL0     C23516   8.896   5.377   6.636 -0.8806  0.5522  0.1097
  171MOL0     C23517   8.783   5.293   6.660  0.1870  0.9910  0.8941
  171MOL0     C23518   8.791   5.157   6.628  0.4403  0.3314  0.1750
  171MOL0     O23519   8.667   5.102   6.627  0.1226 -0.1491  0.6103
  171MOL0     C23520   8.651   4.964   6.585  0.3879 -0.5694 -0.2507
  171MOL0     C23521   8.501   4.950   6.608 -0.0567  0.3730  0.3491
  171MOL0     C23522   8.460   4.809   6.569 -0.1116 -0.3386  1.0432
  171MOL0     C23523   8.378   4.742   6.680  0.6992  0.2335 -0.0297
  171MOL0     C23524   8.468   4.704   6.792  0.3656  0.1644  0.2539
  171MOL0     C23525   8.544   4.691   6.883 -0.8168  0.3335  0.4304
  171MOL0     C23526   8.910   5.100   6.574 -0.0092 -0.4205 -0.5297
  171MOL0     C23527   9.024   5.186   6.550  0.9673 -0.9848  0.6479
  171MOL0     C23528   9.132   5.117   6.474 -0.1132  0.0230 -0.2965
  171MOL0     H23529   9.285   5.571   6.250 -0.1096 -3.4939 -1.6817
  171MOL0     H23530   9.530   5.650   6.223  1.2879 -1.4370 -0.9301
  171MOL0     H23531   9.780   5.683   6.230  0.4641 -0.5510  0.1284
  171MOL0     H23532   9.747   5.504   6.197 -0.6153 -0.6400 -0.6375
  171MOL0     H23533   9.987   5.632   6.343 -0.9164  0.2009  0.3893
  171MOL0     H23534   9.926   5.463   6.357 -0.4154 -0.1086 -0.2444
  171MOL0     H23535   9.938   5.432   6.115 -0.0869 -0.9271  2.1034
  171MOL0     H23536  10.010   5.596   6.088 -0.4021  0.2524  0.1361
  171MOL0     H23537  10.212   5.477   6.086 -0.3812  1.2403  0.6760
  171MOL0     H23538  10.198   5.524   6.252  1.6792 -0.1129 -1.1885
  171MOL0     H23539  10.115   5.243   6.138  2.2015 -3.3208  1.8538
  171MOL0     H23540  10.104   5.289   6.306  0.2917 -1.1800 -0.8619
  171MOL0     H23541  10.365   5.264   6.140  0.6977 -1.4093  0.9286
  171MOL0     H23542  10.354   5.332   6.296  0.2680 -2.4180  1.5383
  171MOL0     H23543  10.261   5.048   6.234  1.2569 -0.0919  0.2205
  171MOL0     H23544  10.263   5.122   6.399 -2.1423 -0.0771 -1.0444
  171MOL0     H23545  10.493   5.017   6.224 -1.8591 -0.9972 -1.7269
  171MOL0     H23546  10.521   5.147   6.326  0.0306 -0.6417  0.4591
  171MOL0     H23547  10.316   4.811   6.382 -0.7111  0.8891 -0.9762
  171MOL0     H23548  10.382   4.665   6.685 -0.1735  0.9566 -0.6278
  171MOL0     H23549  10.549   4.622   6.637  1.4059 -0.4426 -2.3241
  171MOL0     H23550  10.307   4.567   6.480 -0.1104  1.5303 -0.3368
  171MOL0     H23551  10.462   4.551   6.400  0.7741 -3.1833 -0.3135
  171MOL0     H23552  10.388   4.321   6.492  0.8861 -1.1660  1.4449
  171MOL0     H23553  10.538   4.391   6.573 -0.9843  0.2249  0.0902
  171MOL0     H23554  10.407   4.452   6.761  0.1037  2.6825 -2.3000
  171MOL0     H23555  10.258   4.374   6.710 -0.3684 -0.0489  1.8150
  171MOL0     H23556  10.505   4.001   6.842 -1.1144 -2.5529  1.7470
  171MOL0     H23557  10.382   3.711   6.902 -1.3821 -1.3796 -2.5525
  171MOL0     H23558  10.530   3.794   6.877 -0.5681  0.8699  1.2087
  171MOL0     H23559  10.458   3.704   6.737  0.2765 -0.2194 -0.2026
  171MOL0     H23560  10.071   3.541   6.483  2.4468  0.0756  3.0937
  171MOL0     H23561   9.895   3.355   6.453 -1.0508  0.3212 -0.5492
  171MOL0     H23562   9.509   3.287   6.680 -1.0755  3.1626 -0.4744
  171MOL0     H23563   9.544   3.395   6.541  0.4635  0.6314  0.2645
  171MOL0     H23564   9.542   3.095   6.566 -0.2188 -1.3127 -1.5607
  171MOL0     H23565   9.429   3.209   6.472  0.9980  1.9030 -2.8929
  171MOL0     H23566   9.660   3.250   6.327  1.6383 -0.4252  2.7630
  171MOL0     H23567   9.541   3.142   6.277  2.2158  3.9025 -3.2097
  171MOL0     H23568   9.764   3.049   6.455  2.0131 -3.4583 -0.8985
  171MOL0     H23569   9.786   3.055   6.286 -0.1511  0.1648  0.1141
  171MOL0     H23570   9.749   2.840   6.321 -3.1952 -2.9899 -3.2454
  171MOL0     H23571   9.642   2.861   6.464 -6.3675  0.2290 -1.1351
  171MOL0     H23572   9.452   2.907   6.295  0.2654  1.7183 -3.5039
  171MOL0     H23573   9.527   2.754   6.305 -0.8789 -0.8409  0.3277
  171MOL0     H23574   9.647   2.764   6.116  0.7071 -0.5793  1.4699
  171MOL0     H23575   9.609   2.939   6.079  2.3484 -0.1732 -0.7933
  171MOL0     H23576   9.409   2.709   6.102 -2.7875  1.9115  0.0971
  171MOL0     H23577   9.486   2.759   5.951  3.2885  0.2269  1.3591
  171MOL0     H23578   9.676   3.483   6.796 -0.7147  1.4938 -0.8567
  171MOL0     H23579   9.833   3.684   6.808 -2.8048 -0.1760  0.5763
  171MOL0     H23580  10.063   3.993   6.625 -0.7123  1.0706  2.7362
  171MOL0     H23581  10.177   4.205   6.640 -1.1362 -0.8083  1.4721
  171MOL0     H23582   9.626   5.434   6.571  0.7017  0.5907 -0.9041
  171MOL0     H23583   9.388   5.345   6.601 -0.3491  0.2089  0.6545
  171MOL0     H23584   8.903   5.483   6.660  1.3234  0.1924  1.2944
  171MOL0     H23585   8.688   5.329   6.697 -0.3718  1.5240 -0.9508
  171MOL0     H23586   8.679   4.946   6.481  1.8655  2.4080 -0.4410
  171MOL0     H23587   8.704   4.905   6.660 -3.0431 -0.0179  2.8769
  171MOL0     H23588   8.440   5.017   6.546  0.1166  0.6115  0.4328
  171MOL0     H23589   8.483   4.975   6.714 -2.3000  0.1701  0.0558
  171MOL0     H23590   8.408   4.814   6.473 -1.8606 -2.3210  1.8093
  171MOL0     H23591   8.549   4.748   6.551 -1.1289 -1.4990 -0.2889
  171MOL0     H23592   8.330   4.659   6.626  1.5719 -0.7946  0.7327
  171MOL0     H23593   8.299   4.805   6.721 -1.6438 -3.4861  1.7525
  171MOL0     H23594   8.617   4.673   6.960  1.7458 -0.1528 -1.9395
  171MOL0     H23595   8.913   4.994   6.551 -2.5991 -1.0733  1.6186
  171MOL0     H23596   9.099   5.016   6.446  0.7943 -2.0784  5.0355
  171MOL0     H23597   9.178   5.159   6.384  1.0004 -1.1062 -0.2824
  171MOL0     H23598   9.219   5.116   6.540 -0.3257 -1.0548 -0.0211
  172MOL0     O23599  10.076  11.516   1.667 -0.0985  0.5196 -0.4300
  172MOL0     C23600  10.084  11.392   1.668  0.8368  0.1021  0.1647
  172MOL0     O23601  10.109  11.315   1.778 -0.2129 -0.9846 -0.5338
  172MOL0     C23602  10.120  11.392   1.892  0.0207 -0.4132 -0.1085
  172MOL0     C23603  10.243  11.396   1.961  0.9257  0.6859  1.1017
  172MOL0     C23604  10.253  11.469   2.078  0.8779  0.4998 -0.1698
  172MOL0     C23605  10.145  11.534   2.133  0.8343 -0.0126  0.5098
  172MOL0     O23606  10.158  11.615   2.239  0.0126  0.1874 -0.5863
  172MOL0     C23607  10.146  11.546   2.371  0.7827 -0.3748 -0.0961
  172MOL0     C23608  10.035  11.605   2.449  0.6464 -0.1379 -0.6814
  172MOL0     C23609  10.026  11.534   2.586  0.1237  0.0639  1.0410
  172MOL0     C23610   9.908  11.601   2.667 -0.3038 -0.1431  1.2430
  172MOL0     C23611   9.891  11.569   2.814  0.3751 -0.4251 -0.2526
  172MOL0     C23612   9.944  11.688   2.897  0.1117  0.7205 -0.3784
  172MOL0     C23613   9.939  11.642   3.039  0.3442 -0.0884  0.1725
  172MOL0     C23614   9.954  11.757   3.139 -0.0861 -0.3318  0.2854
  172MOL0     N23615  10.043  11.868   3.110  0.2654 -0.4889  0.2973
  172MOL0     C23616   9.997  11.990   3.052 -0.4939 -0.1809  0.7369
  172MOL0     C23617  10.104  12.070   3.073  0.3619 -1.1711 -0.2499
  172MOL0     C23618  10.139  12.202   3.010  1.4016  0.1880 -0.1883
  172MOL0     C23619  10.029  12.250   2.908  0.9031  0.0766 -0.7779
  172MOL0     C23620  10.034  12.390   2.857 -1.2498  0.0757  1.3249
  172MOL0     C23621   9.994  12.497   2.960 -0.7185  0.3482 -0.3915
  172MOL0     O23622   9.857  12.466   3.001 -0.2236 -0.4888  0.9056
  172MOL0     C23623   9.786  12.552   3.081  0.0204  0.5736  0.3498
  172MOL0     C23624   9.848  12.658   3.142  0.4557 -0.6728  0.3389
  172MOL0     C23625   9.769  12.749   3.219  0.0061  0.4091  0.0845
  172MOL0     C23626   9.852  12.854   3.280  0.3680  0.2121 -1.0845
  172MOL0     C23627   9.629  12.728   3.228  0.0513  0.5058 -0.3051
  172MOL0     C23628   9.539  12.821   3.297 -0.4261 -0.0244  1.5437
  172MOL0     O23629   9.563  12.961   3.293 -0.3086 -0.4019 -0.3620
  172MOL0     C23630   9.462  13.031   3.363  0.2288  1.1678 -0.4573
  172MOL0     C23631   9.349  13.066   3.284  0.0757 -0.1463  0.7447
  172MOL0     C23632   9.247  13.148   3.341 -1.0588 -0.0433  0.4114
  172MOL0     C23633   9.253  13.174   3.481 -0.1280  0.1785  0.1743
  172MOL0     O23634   9.140  13.240   3.525  0.4136  0.6512  0.2593
  172MOL0     C23635   9.067  13.165   3.631  0.3086  0.3937  0.4982
  172MOL0     C23636   8.936  13.108   3.578 -0.9492 -0.0486 -0.0370
  172MOL0     C23637   8.851  13.189   3.480  0.0130 -0.0919  0.4980
  172MOL0     C23638   8.825  13.329   3.529 -0.1790 -0.1301  0.0043
  172MOL0     C23639   8.740  13.405   3.428  0.5763 -0.7193 -0.0796
  172MOL0     C23640   8.724  13.556   3.464  0.1115  0.0144  0.2606
  172MOL0     C23641   8.637  13.590   3.587 -0.9133  0.6208  0.4384
  172MOL0     C23642   8.569  13.726   3.578  0.3332  0.5785 -0.3410
  172MOL0    Cl23643   8.493  13.764   3.738 -0.0960  0.5150  0.3309
  172MOL0     C23644   9.357  13.125   3.561  0.1698  0.3942 -0.1550
  172MOL0     C23645   9.464  13.058   3.498  0.0692 -0.4407  1.0362
  172MOL0     O23646   9.449  12.762   3.363 -0.1253 -0.1147 -0.1064
  172MOL0     C23647   9.574  12.621   3.156  0.5525 -0.1543  0.2658
  172MOL0     C23648   9.650  12.533   3.081  0.0624  0.0727 -0.3172
  172MOL0     N23649  10.198  12.008   3.154  0.4306  0.3244  0.4328
  172MOL0     N23650  10.170  11.879   3.155 -0.7976 -0.0602  0.3534
  172MOL0     C23651  10.017  11.526   2.070  0.0585 -0.7099 -0.5713
  172MOL0     C23652  10.006  11.452   1.949  0.5549  0.5188  0.3588
  172MOL0     C23653  10.078  11.329   1.535  0.5762 -0.1810  0.4393
  172MOL0     C23654  10.137  11.209   1.512  0.0048  0.0837 -0.0090
  172MOL0     C23655  10.126  11.135   1.390 -0.1221  0.2380  0.7563
  172MOL0     C23656  10.049  11.191   1.291 -0.0256 -0.4406 -0.2103
  172MOL0     O23657  10.010  11.108   1.187 -0.6227 -0.1948  0.0193
  172MOL0     C23658  10.047  11.154   1.051 -0.2324 -0.7623  0.6012
  172MOL0     C23659   9.927  11.206   0.976 -0.1774 -0.3117  0.4387
  172MOL0     C23660   9.825  11.095   0.946  0.8915 -0.6116 -0.0443
  172MOL0     C23661   9.877  11.007   0.828 -0.2715  0.6337 -0.0320
  172MOL0     C23662   9.881  11.072   0.690 -0.4396  0.1785  0.2678
  172MOL0     C23663   9.899  11.128   0.582 -0.6030  0.8267 -0.5433
  172MOL0     C23664   9.990  11.312   1.309 -0.8139  0.6873 -0.0978
  172MOL0     C23665   9.995  11.376   1.429 -0.0251  0.2355 -0.5940
  172MOL0     C23666   9.893  11.492   1.427 -0.0602 -1.1162 -0.5375
  172MOL0     H23667  10.324  11.343   1.912  0.1272  1.3572 -1.0635
  172MOL0     H23668  10.344  11.482   2.136 -1.0134  2.3860  2.6051
  172MOL0     H23669  10.242  11.552   2.421 -0.0139  2.4837  1.3098
  172MOL0     H23670  10.135  11.439   2.348  2.3988 -0.5244 -0.3015
  172MOL0     H23671  10.058  11.711   2.457  1.2737 -0.3906  1.3386
  172MOL0     H23672   9.941  11.595   2.394 -0.0173 -4.1154  0.8563
  172MOL0     H23673  10.004  11.427   2.572  2.2885 -0.6402  2.4808
  172MOL0     H23674  10.125  11.533   2.633  1.3959  1.6427 -1.3704
  172MOL0     H23675   9.908  11.708   2.647  1.3142 -0.1558  1.0375
  172MOL0     H23676   9.823  11.555   2.616 -1.0870  0.7877  1.6888
  172MOL0     H23677   9.945  11.476   2.832 -2.0746 -1.8821  0.0366
  172MOL0     H23678   9.783  11.560   2.828 -0.2278 -0.3297 -3.9446
  172MOL0     H23679  10.046  11.708   2.862 -0.0493  1.6239 -0.3433
  172MOL0     H23680   9.874  11.769   2.875 -0.0899  0.5492 -0.3768
  172MOL0     H23681  10.013  11.566   3.069 -1.6186 -1.8236  0.8592
  172MOL0     H23682   9.842  11.595   3.056  0.5788 -0.8106 -0.4459
  172MOL0     H23683   9.855  11.799   3.162 -0.0657 -0.2539  0.2339
  172MOL0     H23684  10.001  11.706   3.223  0.2447 -3.2916 -1.5490
  172MOL0     H23685   9.900  12.008   3.007 -1.9229 -3.3493  2.2186
  172MOL0     H23686  10.230  12.195   2.950 -0.0004 -0.3244 -2.3438
  172MOL0     H23687  10.152  12.276   3.090  1.0789  0.5243 -0.4433
  172MOL0     H23688  10.034  12.180   2.824  1.9241 -1.3972  0.4349
  172MOL0     H23689   9.931  12.235   2.954 -0.4323 -0.3695 -3.5587
  172MOL0     H23690  10.138  12.408   2.831 -1.3669 -2.6357 -1.6325
  172MOL0     H23691   9.971  12.407   2.769 -1.0151  1.3390  1.3858
  172MOL0     H23692  10.068  12.481   3.039 -2.1160 -2.7116  0.4601
  172MOL0     H23693   9.993  12.603   2.936 -2.7209  1.3835  3.4360
  172MOL0     H23694   9.955  12.673   3.134  0.6734 -1.9034  0.7068
  172MOL0     H23695   9.801  12.914   3.356  1.8995  1.5385 -1.0308
  172MOL0     H23696   9.870  12.936   3.210 -2.8185  3.3994  1.4440
  172MOL0     H23697   9.943  12.810   3.324  0.6027  1.2020 -0.5479
  172MOL0     H23698   9.342  13.042   3.179  1.3418  0.7065  0.4391
  172MOL0     H23699   9.163  13.180   3.281  0.0911 -3.3678 -3.4725
  172MOL0     H23700   9.131  13.084   3.667  1.7583  0.9603 -0.7267
  172MOL0     H23701   9.056  13.227   3.721  0.2971 -0.2727  0.9639
  172MOL0     H23702   8.963  13.013   3.531 -3.3966 -1.5182  1.3174
  172MOL0     H23703   8.878  13.067   3.661  1.1748 -3.0057  0.1450
  172MOL0     H23704   8.755  13.144   3.455  0.4881 -2.0930  2.0113
  172MOL0     H23705   8.902  13.194   3.383 -0.6780 -2.1784 -0.0201
  172MOL0     H23706   8.919  13.384   3.531 -1.3336  1.9968 -1.1492
  172MOL0     H23707   8.768  13.321   3.622  1.5902 -1.9646  1.0292
  172MOL0     H23708   8.788  13.408   3.329 -2.3808  2.7643 -1.6458
  172MOL0     H23709   8.642  13.357   3.423  0.4163 -0.4150  0.0772
  172MOL0     H23710   8.684  13.606   3.375  0.4287 -2.4802 -1.3764
  172MOL0     H23711   8.819  13.602   3.490  0.3428 -1.4162  2.1440
  172MOL0     H23712   8.696  13.581   3.679 -1.1143 -0.9694  0.4361
  172MOL0     H23713   8.558  13.515   3.596 -1.9362  1.6723  0.3117
  172MOL0     H23714   8.491  13.735   3.502 -1.3999 -1.9275  0.9767
  172MOL0     H23715   8.637  13.808   3.553 -0.0281  1.2517  0.8238
  172MOL0     H23716   9.356  13.133   3.669 -0.1417 -2.1699  0.1018
  172MOL0     H23717   9.558  13.037   3.546  2.4731  4.3359 -0.9075
  172MOL0     H23718   9.467  12.602   3.168  0.6011  1.1829  4.2270
  172MOL0     H23719   9.598  12.443   3.052  2.0460 -0.5894 -1.9778
  172MOL0     H23720   9.935  11.583   2.111 -0.2974 -2.2230  0.9375
  172MOL0     H23721   9.909  11.438   1.903  2.1947 -0.0047 -3.3376
  172MOL0     H23722  10.189  11.172   1.600  0.8262  2.5090  0.5993
  172MOL0     H23723  10.151  11.029   1.391 -4.2967 -0.9348  0.4957
  172MOL0     H23724  10.119  11.235   1.066 -1.0498 -0.1556  1.3821
  172MOL0     H23725  10.101  11.083   0.988  0.5699  1.0619 -0.8527
  172MOL0     H23726   9.965  11.247   0.882 -2.0101  3.7131  1.2485
  172MOL0     H23727   9.891  11.296   1.027  1.0370  1.1681 -1.1706
  172MOL0     H23728   9.802  11.044   1.040  1.7966  1.0674  1.1472
  172MOL0     H23729   9.730  11.144   0.924  0.1684 -2.6654 -1.7862
  172MOL0     H23730   9.806  10.926   0.847 -3.0688  2.9435  0.1359
  172MOL0     H23731   9.979  10.972   0.844  0.2787  1.9113 -0.6099
  172MOL0     H23732   9.914  11.179   0.489 -0.1710 -0.0848 -0.9870
  172MOL0     H23733   9.922  11.340   1.229 -0.5249  2.7386  0.3146
  172MOL0     H23734   9.835  11.483   1.519  2.1456  1.2691  1.2275
  172MOL0     H23735   9.947  11.588   1.433  3.5297 -2.8162 -2.2974
  172MOL0     H23736   9.822  11.486   1.344  0.5100 -2.0949 -0.9685
  173MOL0     O23737   0.902   4.585   5.157  0.6173 -0.1274  0.0812
  173MOL0     C23738   0.928   4.704   5.127  0.0948  0.9388  0.8884
  173MOL0     O23739   0.831   4.800   5.126  0.5959 -0.1853  0.0180
  173MOL0     C23740   0.700   4.763   5.128 -0.2391  0.2969 -0.4009
  173MOL0     C23741   0.637   4.755   5.009  0.4266  0.3101 -0.2098
  173MOL0     C23742   0.518   4.694   4.998 -0.0633  0.5378  0.6198
  173MOL0     C23743   0.446   4.653   5.113 -0.1922 -0.1175  0.1020
  173MOL0     O23744   0.318   4.610   5.117 -0.0222  0.1830  0.0807
  173MOL0     C23745   0.244   4.583   5.002  0.1369 -0.3132  0.9461
  173MOL0     C23746   0.125   4.504   5.030 -0.5315  1.0153 -0.9133
  173MOL0     C23747   0.029   4.557   5.132  0.2859 -0.1799 -0.4287
  173MOL0     C23748  -0.040   4.447   5.216  0.6847 -0.1041  0.3396
  173MOL0     C23749  -0.127   4.502   5.333 -0.6873 -0.1809 -0.1770
  173MOL0     C23750  -0.250   4.414   5.367  0.1631  0.7448 -0.2325
  173MOL0     C23751  -0.201   4.279   5.429  0.4567 -0.0258 -0.3067
  173MOL0     C23752  -0.320   4.180   5.457  0.7695 -0.1928  0.0734
  173MOL0     N23753  -0.274   4.069   5.534  0.3382 -0.9325  0.4941
  173MOL0     C23754  -0.210   4.086   5.659  0.0604  0.3199 -0.5735
  173MOL0     C23755  -0.170   3.963   5.693  0.5629  0.8740  0.3568
  173MOL0     C23756  -0.095   3.940   5.822  0.2373  0.0003  0.1949
  173MOL0     C23757   0.039   3.881   5.773 -0.8002  0.4835  0.1251
  173MOL0     C23758   0.133   3.851   5.891  0.6381 -0.5503 -0.3864
  173MOL0     C23759   0.275   3.806   5.848 -1.0943  0.7172  0.7575
  173MOL0     O23760   0.358   3.898   5.780  0.2532 -0.2984 -0.0607
  173MOL0     C23761   0.490   3.873   5.735  1.0326 -0.1232  1.2372
  173MOL0     C23762   0.547   3.913   5.618 -0.2696 -0.5739 -0.1823
  173MOL0     C23763   0.675   3.873   5.579 -0.9393 -0.0775  0.0936
  173MOL0     C23764   0.706   3.922   5.436 -0.7768  0.0217  0.8310
  173MOL0     C23765   0.745   3.787   5.654 -0.7940 -0.3585 -0.0469
  173MOL0     C23766   0.874   3.727   5.618 -0.6263 -0.3592  0.6683
  173MOL0     O23767   0.970   3.816   5.576 -0.2743  0.3787 -0.8194
  173MOL0     C23768   1.090   3.767   5.541 -0.5458  0.5204  0.9548
  173MOL0     C23769   1.123   3.774   5.410 -0.1070 -0.5636  0.2325
  173MOL0     C23770   1.252   3.726   5.369  0.6230 -0.2149 -0.4827
  173MOL0     C23771   1.336   3.651   5.452 -0.8289 -0.7749  0.6503
  173MOL0     O23772   1.449   3.604   5.383 -0.1134  0.1792 -0.2651
  173MOL0     C23773   1.553   3.536   5.459  0.6155 -0.3417 -0.2897
  173MOL0     C23774   1.615   3.420   5.384  0.8948  0.4822  0.3822
  173MOL0     C23775   1.700   3.330   5.471  0.6633  0.1493 -0.1907
  173MOL0     C23776   1.762   3.216   5.394 -0.0399  0.0760  0.6904
  173MOL0     C23777   1.880   3.137   5.472 -0.2988 -0.0972  0.3558
  173MOL0     C23778   1.838   3.080   5.606 -0.0566  0.8443 -0.3978
  173MOL0     C23779   1.948   2.991   5.681 -0.3106  0.5196 -0.7377
  173MOL0     C23780   2.004   3.056   5.807 -0.0675 -0.3375  0.3847
  173MOL0    Cl23781   2.063   3.216   5.764 -0.0339 -0.0395 -0.2580
  173MOL0     C23782   1.304   3.641   5.588 -0.7979  0.3103  0.1850
  173MOL0     C23783   1.179   3.697   5.635  0.5720 -0.9376  0.4984
  173MOL0     O23784   0.896   3.611   5.662  0.0140 -1.0949  0.0791
  173MOL0     C23785   0.680   3.735   5.768 -0.6043 -1.0135 -0.4745
  173MOL0     C23786   0.562   3.790   5.815 -0.8508 -0.1565 -0.0293
  173MOL0     N23787  -0.204   3.874   5.593 -0.1297 -0.3700 -0.4922
  173MOL0     N23788  -0.274   3.937   5.500 -1.1602  0.7406  0.4842
  173MOL0     C23789   0.509   4.664   5.236 -0.2931  1.3619  0.5168
  173MOL0     C23790   0.634   4.723   5.243 -0.3771 -1.6304  0.0078
  173MOL0     C23791   1.067   4.742   5.100  0.1901 -0.0973  0.2031
  173MOL0     C23792   1.124   4.866   5.129 -0.1847  0.0250 -0.2076
  173MOL0     C23793   1.252   4.910   5.102  0.9313  1.1236 -0.1062
  173MOL0     C23794   1.347   4.829   5.039  1.0764  0.0429  0.1523
  173MOL0     O23795   1.471   4.877   5.015 -0.2250 -0.9600 -1.3553
  173MOL0     C23796   1.571   4.784   4.967 -0.0072 -0.4670 -0.1012
  173MOL0     C23797   1.562   4.771   4.810 -0.5675  0.0419 -0.0832
  173MOL0     C23798   1.698   4.733   4.753  0.1674 -0.8207 -0.1252
  173MOL0     C23799   1.714   4.583   4.757  0.4857  0.5165 -0.1453
  173MOL0     C23800   1.850   4.549   4.782 -0.2464  0.0128  0.3916
  173MOL0     C23801   1.967   4.525   4.797  0.1870 -0.6053 -0.7845
  173MOL0     C23802   1.300   4.693   5.012  0.5905 -0.5437 -1.3748
  173MOL0     C23803   1.164   4.654   5.044 -0.0996  0.0845 -0.4587
  173MOL0     C23804   1.139   4.514   5.002 -0.1592 -0.8168  0.0477
  173MOL0     H23805   0.697   4.779   4.921 -0.8800  0.2245 -1.1556
  173MOL0     H23806   0.467   4.677   4.903  4.0935 -2.5225 -1.3640
  173MOL0     H23807   0.290   4.516   4.929 -1.0114 -0.3804  0.2675
  173MOL0     H23808   0.205   4.671   4.950 -2.5314 -2.6877 -1.3366
  173MOL0     H23809   0.073   4.475   4.938 -0.0587  1.6742 -1.3977
  173MOL0     H23810   0.160   4.405   5.062 -0.6234  0.5617 -2.1528
  173MOL0     H23811   0.074   4.620   5.210  0.4489 -2.3156  1.2960
  173MOL0     H23812  -0.044   4.624   5.085 -1.2492 -0.8052  0.9738
  173MOL0     H23813  -0.108   4.386   5.155  1.2267 -1.0329  0.6421
  173MOL0     H23814   0.034   4.373   5.247  2.8593  1.7430 -0.1482
  173MOL0     H23815  -0.157   4.607   5.321 -2.8903 -0.9215 -1.9244
  173MOL0     H23816  -0.062   4.501   5.420 -0.8987  3.5610  0.1967
  173MOL0     H23817  -0.313   4.470   5.437 -0.8234  1.9340 -1.9859
  173MOL0     H23818  -0.312   4.393   5.279 -3.6150 -0.8841  2.5490
  173MOL0     H23819  -0.138   4.301   5.515 -0.9105  1.1081  0.4520
  173MOL0     H23820  -0.138   4.230   5.354  1.4306  0.1795  0.3667
  173MOL0     H23821  -0.393   4.230   5.520  5.0215  0.8076  4.8829
  173MOL0     H23822  -0.363   4.147   5.362  1.4024  0.1719 -0.3453
  173MOL0     H23823  -0.187   4.180   5.709  0.6188 -0.8190  1.4750
  173MOL0     H23824  -0.149   3.860   5.874 -0.7602  0.8160  0.4376
  173MOL0     H23825  -0.090   4.020   5.895  1.9483  0.0607  0.0507
  173MOL0     H23826   0.013   3.789   5.718 -1.0484  0.3761  0.4233
  173MOL0     H23827   0.092   3.947   5.703  0.5015 -1.0563 -0.4223
  173MOL0     H23828   0.150   3.946   5.943 -0.1994 -1.6878  2.0724
  173MOL0     H23829   0.089   3.784   5.965 -0.0426  1.7065  1.3758
  173MOL0     H23830   0.325   3.763   5.935  0.2383 -4.9921 -2.3795
  173MOL0     H23831   0.275   3.720   5.781  3.5788  0.5462  0.6695
  173MOL0     H23832   0.491   3.973   5.547  2.8056  0.6147 -1.7666
  173MOL0     H23833   0.616   3.945   5.378 -2.0740 -3.6511  1.1484
  173MOL0     H23834   0.780   3.860   5.386 -0.8719 -0.4715  1.2912
  173MOL0     H23835   0.769   4.010   5.447 -2.7275  2.2052 -3.1588
  173MOL0     H23836   1.056   3.828   5.344  2.2624 -0.5557 -2.3326
  173MOL0     H23837   1.282   3.735   5.265 -1.8151 -1.2259 -1.3407
  173MOL0     H23838   1.633   3.608   5.478  0.8680  0.1292 -2.7898
  173MOL0     H23839   1.518   3.502   5.557  1.1761  1.8633  0.7489
  173MOL0     H23840   1.529   3.366   5.343  0.9950  0.1550  0.6052
  173MOL0     H23841   1.685   3.452   5.306 -1.4985  1.4581 -1.4826
  173MOL0     H23842   1.639   3.274   5.542  1.1171  1.4643  1.2796
  173MOL0     H23843   1.782   3.385   5.518 -0.4141 -0.4591  2.5322
  173MOL0     H23844   1.804   3.257   5.301  2.5184 -1.4481  1.0697
  173MOL0     H23845   1.690   3.138   5.366  0.4603  0.1467 -0.8973
  173MOL0     H23846   1.928   3.077   5.394  0.4937  1.8043 -0.6750
  173MOL0     H23847   1.951   3.217   5.493 -0.6253 -0.0048  1.1392
  173MOL0     H23848   1.750   3.016   5.592  1.6243 -1.6592 -0.0854
  173MOL0     H23849   1.785   3.154   5.666  0.1682  2.5105 -2.1633
  173MOL0     H23850   2.026   2.973   5.606 -1.0402  1.7711 -1.8481
  173MOL0     H23851   1.909   2.891   5.703 -0.0137  1.0348  2.5699
  173MOL0     H23852   2.090   2.995   5.838  0.6767  1.2433  1.6043
  173MOL0     H23853   1.935   3.062   5.892  1.8113 -1.4631  2.1002
  173MOL0     H23854   1.363   3.594   5.666  4.0023  0.1874 -3.0652
  173MOL0     H23855   1.146   3.674   5.736 -3.2165 -1.5089 -0.7228
  173MOL0     H23856   0.735   3.672   5.836 -1.5049 -1.0255  0.2661
  173MOL0     H23857   0.527   3.755   5.912 -1.0972 -0.3661 -0.1922
  173MOL0     H23858   0.467   4.623   5.327 -1.4514 -0.3943 -0.7414
  173MOL0     H23859   0.689   4.736   5.336  0.3295 -1.3460 -0.4424
  173MOL0     H23860   1.067   4.937   5.187  0.0933 -0.6258  0.8945
  173MOL0     H23861   1.273   5.015   5.120 -3.2195  2.3685 -1.5043
  173MOL0     H23862   1.669   4.825   4.992  0.3227 -1.2152 -0.1203
  173MOL0     H23863   1.572   4.691   5.025  1.8708  0.1228  0.8865
  173MOL0     H23864   1.554   4.875   4.777 -0.2993 -0.1596 -0.8027
  173MOL0     H23865   1.486   4.708   4.764  3.0053 -3.7701 -1.4253
  173MOL0     H23866   1.729   4.777   4.658 -0.4291 -3.2289 -1.5069
  173MOL0     H23867   1.765   4.787   4.820  0.1360 -0.5526 -0.3093
  173MOL0     H23868   1.668   4.547   4.664  1.2520  0.5531 -0.5448
  173MOL0     H23869   1.655   4.543   4.840  2.4462  0.8471  1.4944
  173MOL0     H23870   2.068   4.511   4.831  1.4849  0.7944 -3.7669
  173MOL0     H23871   1.366   4.627   4.957 -2.0059 -2.1778 -2.7174
  173MOL0     H23872   1.151   4.441   5.082  0.4375  1.9176  2.6609
  173MOL0     H23873   1.041   4.498   4.956 -0.2100  1.5693 -0.8329
  173MOL0     H23874   1.199   4.476   4.919  0.5436  2.9013 -1.3473
  174MOL0     O23875   6.303  10.794   2.602  0.9564 -0.2255  0.0157
  174MOL0     C23876   6.273  10.752   2.488  0.2182 -0.3561  0.3396
  174MOL0     O23877   6.216  10.820   2.379 -0.3350  0.2658 -0.0530
  174MOL0     C23878   6.164  10.941   2.402  0.4517 -0.7395 -0.2426
  174MOL0     C23879   6.100  10.986   2.528 -0.1026 -0.0258  1.6017
  174MOL0     C23880   6.072  11.123   2.544  0.5933  0.4340  0.3007
  174MOL0     C23881   6.087  11.215   2.439  0.4944  0.8851  0.1394
  174MOL0     O23882   6.072  11.344   2.453  0.4913 -0.4924  0.0061
  174MOL0     C23883   6.178  11.430   2.421  0.1011 -0.4294  0.4173
  174MOL0     C23884   6.160  11.580   2.450 -0.4015  0.4036  0.0364
  174MOL0     C23885   6.179  11.610   2.599  0.2977  0.0887  0.7113
  174MOL0     C23886   6.064  11.557   2.684  0.2134 -0.1861 -0.7300
  174MOL0     C23887   6.113  11.461   2.787  0.6530 -0.7096 -0.0551
  174MOL0     C23888   6.001  11.385   2.871 -0.1906 -1.5653 -0.5947
  174MOL0     C23889   6.057  11.268   2.945  0.7291 -0.2596  0.5981
  174MOL0     C23890   5.938  11.198   3.020  0.7453 -0.4610  0.1712
  174MOL0     N23891   5.836  11.135   2.932  0.3543 -0.4218  0.0703
  174MOL0     C23892   5.843  11.006   2.885 -0.1951  0.0094  0.5168
  174MOL0     C23893   5.733  10.990   2.810 -0.1004  0.1154  1.4715
  174MOL0     C23894   5.689  10.875   2.727  0.8161 -0.3176  0.1712
  174MOL0     C23895   5.578  10.794   2.803 -0.8966 -0.2198 -0.3265
  174MOL0     C23896   5.542  10.659   2.737  0.3361 -0.0467 -1.2614
  174MOL0     C23897   5.459  10.646   2.608 -0.3455 -0.0606 -0.1733
  174MOL0     O23898   5.441  10.515   2.555 -0.0861 -0.4247  0.1807
  174MOL0     C23899   5.558  10.444   2.542  1.0669 -0.1771  0.5193
  174MOL0     C23900   5.680  10.492   2.480  0.5380  0.3819 -0.4881
  174MOL0     C23901   5.792  10.406   2.455 -0.0218 -0.5403 -0.8710
  174MOL0     C23902   5.922  10.467   2.410 -0.6128 -0.6830 -0.0836
  174MOL0     C23903   5.769  10.270   2.475 -0.8803 -0.5313 -1.6313
  174MOL0     C23904   5.871  10.168   2.446 -0.0580  0.0217 -0.1276
  174MOL0     O23905   5.906  10.089   2.555  0.1893  0.3133  0.2640
  174MOL0     C23906   6.001   9.997   2.540  0.2461 -0.1046 -0.0779
  174MOL0     C23907   6.133  10.036   2.561  0.4094 -0.1781 -1.1385
  174MOL0     C23908   6.241   9.948   2.547  0.4840 -0.3288 -0.0661
  174MOL0     C23909   6.213   9.813   2.506  0.3743  0.4496 -0.0042
  174MOL0     O23910   6.305   9.713   2.495 -1.7113  0.2036 -0.2550
  174MOL0     C23911   6.445   9.728   2.533  0.2574 -0.0705  0.5764
  174MOL0     C23912   6.533   9.613   2.499 -0.0402  0.1214  0.0363
  174MOL0     C23913   6.485   9.491   2.579 -0.8394 -0.9223 -0.0722
  174MOL0     C23914   6.526   9.484   2.723  0.2129  0.3118  0.8117
  174MOL0     C23915   6.436   9.369   2.798  0.5487  0.0414 -0.0005
  174MOL0     C23916   6.453   9.362   2.954 -1.6045 -0.3915  0.5229
  174MOL0     C23917   6.391   9.489   3.012 -0.6378 -0.5429 -0.0812
  174MOL0     C23918   6.412   9.505   3.163 -0.3076  0.5498  0.1983
  174MOL0    Cl23919   6.299   9.426   3.266  0.0268  0.3406 -0.2227
  174MOL0     C23920   6.080   9.783   2.467  0.2242  0.0028  0.0221
  174MOL0     C23921   5.976   9.873   2.489 -0.4682 -0.3787  0.7015
  174MOL0     O23922   5.917  10.161   2.336 -0.3911 -0.3591 -1.0960
  174MOL0     C23923   5.656  10.221   2.531  0.5149 -0.4454  0.1242
  174MOL0     C23924   5.548  10.303   2.570  0.2688 -1.0537  0.5564
  174MOL0     N23925   5.656  11.102   2.818 -0.0175 -0.5956  0.0665
  174MOL0     N23926   5.726  11.195   2.879  0.8871 -0.3513  0.1986
  174MOL0     C23927   6.124  11.171   2.313 -0.0654 -0.0040  0.1040
  174MOL0     C23928   6.167  11.036   2.294  0.2389 -0.3631  0.6775
  174MOL0     C23929   6.312  10.612   2.441 -0.5282 -0.2025  0.1515
  174MOL0     C23930   6.230  10.544   2.345  0.1543  0.3779  0.3213
  174MOL0     C23931   6.243  10.416   2.310 -0.7046  0.9623  0.3778
  174MOL0     C23932   6.349  10.338   2.367  0.2311  0.0155 -0.7050
  174MOL0     O23933   6.372  10.203   2.350  0.0208  0.7806 -0.7668
  174MOL0     C23934   6.290  10.140   2.255  0.5954 -0.1587  0.4330
  174MOL0     C23935   6.331  10.006   2.194 -0.3469  0.0246  0.0158
  174MOL0     C23936   6.451  10.026   2.105  0.7491 -0.4162 -0.5260
  174MOL0     C23937   6.524   9.902   2.061  0.0410 -0.4359  0.2387
  174MOL0     C23938   6.614   9.835   2.150  0.7478  0.7283 -0.2018
  174MOL0     C23939   6.680   9.792   2.238 -0.6759  0.6569  0.1512
  174MOL0     C23940   6.436  10.404   2.454  0.2390  0.9385 -0.0487
  174MOL0     C23941   6.414  10.537   2.496 -0.3196  0.5118  0.2327
  174MOL0     C23942   6.521  10.610   2.583 -0.4177 -0.1279  0.9605
  174MOL0     H23943   6.080  10.915   2.607 -0.9362 -1.7459 -0.0781
  174MOL0     H23944   6.026  11.159   2.636 -0.1613  3.8517 -1.2749
  174MOL0     H23945   6.200  11.409   2.316  1.7363  0.1377  0.6160
  174MOL0     H23946   6.259  11.382   2.477 -1.8822 -3.8013  0.6895
  174MOL0     H23947   6.232  11.632   2.386 -1.0371 -1.1820 -2.1187
  174MOL0     H23948   6.065  11.612   2.404  1.6540  4.3553 -1.9374
  174MOL0     H23949   6.272  11.564   2.634  1.2455  3.3483  3.0015
  174MOL0     H23950   6.191  11.718   2.616  0.5435  0.1462  0.1729
  174MOL0     H23951   6.001  11.630   2.737 -0.3294 -1.1807  0.0398
  174MOL0     H23952   5.990  11.502   2.625 -0.3122 -4.2555  3.1002
  174MOL0     H23953   6.171  11.512   2.864  1.1429  2.4888 -2.3656
  174MOL0     H23954   6.180  11.384   2.747  0.8447 -0.9826  0.7727
  174MOL0     H23955   5.962  11.458   2.942  1.3149 -0.9302 -0.3661
  174MOL0     H23956   5.914  11.362   2.809 -1.6301  2.3480 -0.3187
  174MOL0     H23957   6.126  11.302   3.022  0.6036 -0.5561  0.8424
  174MOL0     H23958   6.105  11.196   2.878 -0.7888 -0.8874  0.1383
  174MOL0     H23959   5.971  11.126   3.096 -1.7791 -1.5518  0.3302
  174MOL0     H23960   5.884  11.275   3.075 -0.4112 -2.0390  1.3271
  174MOL0     H23961   5.918  10.931   2.909 -2.5392 -3.5548 -2.3100
  174MOL0     H23962   5.775  10.808   2.715  0.6469 -0.4532 -0.2897
  174MOL0     H23963   5.653  10.911   2.630 -2.2560  0.8394  1.6231
  174MOL0     H23964   5.624  10.777   2.901  2.1735  0.5828 -1.5373
  174MOL0     H23965   5.495  10.864   2.819  0.1843  1.4142 -1.6525
  174MOL0     H23966   5.638  10.609   2.719 -1.1198 -3.3031 -0.6914
  174MOL0     H23967   5.489  10.600   2.813 -0.5350  0.4587 -1.4761
  174MOL0     H23968   5.362  10.697   2.614  0.0080  0.7906 -1.3464
  174MOL0     H23969   5.515  10.716   2.545  1.3067 -0.5589  0.6729
  174MOL0     H23970   5.694  10.598   2.459 -0.2492  0.8110  1.0042
  174MOL0     H23971   5.991  10.452   2.494 -1.5139  1.3586  1.1057
  174MOL0     H23972   5.903  10.574   2.396 -0.1543 -0.7229 -1.0693
  174MOL0     H23973   5.962  10.428   2.316 -1.3606 -3.9803  0.8170
  174MOL0     H23974   6.139  10.131   2.614 -4.6983 -0.7519  1.1052
  174MOL0     H23975   6.344   9.976   2.565  0.7433  0.6519 -2.7051
  174MOL0     H23976   6.491   9.816   2.488 -0.7674 -0.7209 -1.9355
  174MOL0     H23977   6.437   9.743   2.641 -1.8917 -0.1248  0.4761
  174MOL0     H23978   6.533   9.610   2.389 -0.6736  0.8828  0.0057
  174MOL0     H23979   6.636   9.639   2.527 -0.4213  3.5706 -1.1628
  174MOL0     H23980   6.525   9.404   2.527  3.3614  0.4403  0.5288
  174MOL0     H23981   6.375   9.483   2.579 -0.7697 -2.1447  1.5775
  174MOL0     H23982   6.521   9.579   2.777  0.4902  1.0609 -0.4205
  174MOL0     H23983   6.632   9.455   2.730  0.5293  1.2521  0.1409
  174MOL0     H23984   6.330   9.387   2.777  0.1879  2.4810  3.1078
  174MOL0     H23985   6.459   9.278   2.741  0.1200  0.5541 -1.0162
  174MOL0     H23986   6.562   9.360   2.965 -1.3802 -1.7901 -1.3645
  174MOL0     H23987   6.412   9.271   2.998  2.2080 -2.2671  0.6219
  174MOL0     H23988   6.287   9.496   2.980  0.6110  1.5368 -4.3914
  174MOL0     H23989   6.444   9.574   2.968  1.1894 -0.5064  1.9861
  174MOL0     H23990   6.396   9.611   3.184  1.0026  0.5105  1.5818
  174MOL0     H23991   6.514   9.482   3.197  1.1365  2.2847 -2.6498
  174MOL0     H23992   6.067   9.679   2.439 -1.4142 -0.3867  2.0046
  174MOL0     H23993   5.879   9.830   2.466  0.2043 -0.1047 -3.2887
  174MOL0     H23994   5.640  10.117   2.556  0.4173 -0.4594  0.0068
  174MOL0     H23995   5.462  10.266   2.624 -0.6122  1.1287  0.7702
  174MOL0     H23996   6.137  11.232   2.224  1.3041 -1.6461 -0.9072
  174MOL0     H23997   6.200  10.996   2.199  1.4285 -0.7296  1.2296
  174MOL0     H23998   6.140  10.594   2.311 -0.1638 -0.9814 -0.9064
  174MOL0     H23999   6.171  10.375   2.241 -0.8141 -1.5599  1.8598
  174MOL0     H24000   6.199  10.115   2.309 -0.8102 -1.5657 -2.3636
  174MOL0     H24001   6.262  10.209   2.175 -1.8971 -1.8760 -0.2801
  174MOL0     H24002   6.245   9.958   2.147  0.3802  0.8016 -2.2163
  174MOL0     H24003   6.372   9.954   2.281  0.8763  0.8268 -0.0476
  174MOL0     H24004   6.410  10.071   2.014 -4.3737 -2.4795  0.3962
  174MOL0     H24005   6.530  10.084   2.153  0.0489  0.6621 -0.6529
  174MOL0     H24006   6.572   9.898   1.963  0.6792 -1.2755  0.5685
  174MOL0     H24007   6.446   9.827   2.044 -0.9114  0.5883 -0.0640
  174MOL0     H24008   6.733   9.763   2.327  0.5694  1.3878 -0.3248
  174MOL0     H24009   6.525  10.347   2.480 -0.0024  0.7093  0.2984
  174MOL0     H24010   6.492  10.627   2.687  0.1547 -1.9273  1.4442
  174MOL0     H24011   6.601  10.536   2.590 -3.4574 -3.7122  0.7763
  174MOL0     H24012   6.558  10.702   2.536  2.5205 -2.0231 -0.7578
  175MOL0     O24013   3.526   9.138   4.639  0.6459 -0.8316 -0.6468
  175MOL0     C24014   3.604   9.100   4.549 -0.0285 -0.5467 -0.0175
  175MOL0     O24015   3.720   9.165   4.514 -0.0191  0.1061 -0.9626
  175MOL0     C24016   3.769   9.265   4.590 -1.2369 -0.1249 -0.4526
  175MOL0     C24017   3.715   9.393   4.565  0.5382 -0.3615  0.5090
  175MOL0     C24018   3.744   9.505   4.642  0.1278 -0.9356  0.0521
  175MOL0     C24019   3.847   9.498   4.737  0.7208  0.2064 -0.3263
  175MOL0     O24020   3.881   9.591   4.828  0.0559 -0.2084  0.1875
  175MOL0     C24021   3.801   9.688   4.884  0.8024  0.4839 -0.3142
  175MOL0     C24022   3.858   9.824   4.833  0.0083  0.5468  0.0983
  175MOL0     C24023   4.006   9.855   4.858  0.3550 -0.1819  0.4750
  175MOL0     C24024   4.031   9.859   5.014  0.3701 -0.3046 -0.0918
  175MOL0     C24025   4.177   9.872   5.058  0.5435 -0.2378 -0.3828
  175MOL0     C24026   4.264   9.781   4.971  0.0923  0.0895  0.4198
  175MOL0     C24027   4.221   9.632   4.990 -0.0608  0.4485 -0.1284
  175MOL0     C24028   4.325   9.546   4.918 -0.5368  0.1088 -0.8613
  175MOL0     N24029   4.310   9.398   4.927  0.4546 -0.0274 -0.2129
  175MOL0     C24030   4.331   9.321   5.039  0.1000 -0.1107 -0.6398
  175MOL0     C24031   4.264   9.202   5.010 -0.2236  0.2327 -0.2503
  175MOL0     C24032   4.245   9.087   5.104 -0.1226  0.1309  0.0760
  175MOL0     C24033   4.332   8.974   5.057  0.3806 -0.2108  0.1273
  175MOL0     C24034   4.306   8.848   5.145  0.1688  0.2378 -1.1171
  175MOL0     C24035   4.170   8.783   5.145 -0.1582 -0.0109  0.0258
  175MOL0     O24036   4.134   8.729   5.009  0.1492  0.8219  0.3922
  175MOL0     C24037   4.029   8.636   5.005 -1.1542 -0.2720  0.1210
  175MOL0     C24038   3.911   8.651   5.071  0.6140 -1.5006  0.3144
  175MOL0     C24039   3.816   8.556   5.072  0.7292 -0.3851 -0.5091
  175MOL0     C24040   3.683   8.578   5.153 -0.4222  0.0797 -0.6473
  175MOL0     C24041   3.826   8.447   4.987  0.4472  0.0727  0.0017
  175MOL0     C24042   3.711   8.348   4.962 -0.1847 -0.0698  0.7104
  175MOL0     O24043   3.578   8.391   4.945 -0.2694  0.2566  0.7892
  175MOL0     C24044   3.484   8.301   4.891 -0.0855 -0.8806 -1.0803
  175MOL0     C24045   3.383   8.251   4.976  0.3039  0.3220 -0.0916
  175MOL0     C24046   3.272   8.179   4.924 -0.4025  0.5830 -0.2530
  175MOL0     C24047   3.268   8.153   4.788 -0.5624  0.0711  0.1515
  175MOL0     O24048   3.180   8.077   4.720  0.8384  0.3573  0.2565
  175MOL0     C24049   3.077   8.012   4.793  0.8920 -0.4289  1.2217
  175MOL0     C24050   2.970   8.126   4.811  0.9871  1.0543  0.0616
  175MOL0     C24051   2.897   8.187   4.690 -0.0825  0.0878  0.1933
  175MOL0     C24052   2.773   8.099   4.653 -0.2377  0.1210  0.3803
  175MOL0     C24053   2.688   8.172   4.554 -0.5150 -0.8112 -0.2960
  175MOL0     C24054   2.603   8.085   4.462  0.0101 -0.5923  0.3283
  175MOL0     C24055   2.522   8.166   4.356 -0.5904  0.3068  0.8536
  175MOL0     C24056   2.588   8.179   4.221  0.2845 -0.0414 -0.5026
  175MOL0    Cl24057   2.493   8.304   4.132 -0.0790 -0.1606  0.1908
  175MOL0     C24058   3.371   8.210   4.706  0.1256  0.6537 -0.9743
  175MOL0     C24059   3.471   8.281   4.758 -0.1761  0.4223  0.4559
  175MOL0     O24060   3.744   8.229   4.955 -0.0255 -0.4024 -0.3725
  175MOL0     C24061   3.952   8.436   4.919  0.5301  0.9666 -0.4879
  175MOL0     C24062   4.045   8.531   4.914  0.1768  0.0252  0.5602
  175MOL0     N24063   4.207   9.209   4.884 -0.5565 -0.7738 -0.0946
  175MOL0     N24064   4.241   9.324   4.832 -0.2352 -0.1864 -0.2909
  175MOL0     C24065   3.906   9.377   4.754  0.4677 -0.9415 -0.3490
  175MOL0     C24066   3.876   9.269   4.675  0.0787  0.4912  0.6294
  175MOL0     C24067   3.585   8.972   4.478 -0.4218  0.4675  0.0272
  175MOL0     C24068   3.690   8.923   4.394  0.4355 -0.5021 -0.3777
  175MOL0     C24069   3.675   8.818   4.305 -0.6316  0.5618  0.0757
  175MOL0     C24070   3.554   8.746   4.314  0.7720 -1.0656  0.7073
  175MOL0     O24071   3.537   8.635   4.233  0.1242  0.3639 -0.1279
  175MOL0     C24072   3.415   8.607   4.168  0.1332  0.7625  0.5713
  175MOL0     C24073   3.438   8.567   4.029 -0.6270 -0.3895 -0.6344
  175MOL0     C24074   3.511   8.669   3.944  0.2817 -0.1878 -0.5551
  175MOL0     C24075   3.505   8.621   3.799 -0.0404  0.2089  0.3648
  175MOL0     C24076   3.386   8.690   3.739  0.5616 -0.4578  1.5720
  175MOL0     C24077   3.276   8.751   3.713 -0.6717 -0.6402  0.2584
  175MOL0     C24078   3.450   8.782   4.410  0.8166  0.1679 -0.5538
  175MOL0     C24079   3.471   8.895   4.492 -0.6924  0.9131 -0.4961
  175MOL0     C24080   3.361   8.921   4.593 -0.5528  0.9994  0.6378
  175MOL0     H24081   3.652   9.406   4.478  1.0043  2.5404  0.5091
  175MOL0     H24082   3.691   9.596   4.615  1.7541 -0.0179 -0.1415
  175MOL0     H24083   3.813   9.683   4.993  0.8678 -0.3332 -0.3509
  175MOL0     H24084   3.696   9.672   4.858  0.4916  2.3832 -0.3713
  175MOL0     H24085   3.852   9.827   4.724  0.5310 -1.2884 -0.0089
  175MOL0     H24086   3.801   9.909   4.872 -2.9919 -2.3859  2.8545
  175MOL0     H24087   4.061   9.774   4.810  2.0208 -1.1332  3.7073
  175MOL0     H24088   4.045   9.945   4.810  0.0581  1.7872  3.6372
  175MOL0     H24089   3.975   9.943   5.054 -1.3976 -1.4294 -0.0772
  175MOL0     H24090   3.999   9.765   5.059  1.6278 -0.9656 -0.5134
  175MOL0     H24091   4.179   9.831   5.159  0.0568 -2.1843 -1.1224
  175MOL0     H24092   4.210   9.976   5.046 -1.3860  0.3299 -1.0334
  175MOL0     H24093   4.260   9.802   4.863 -2.2808 -2.0579 -0.0090
  175MOL0     H24094   4.368   9.802   4.996 -0.2460  1.2014  0.9534
  175MOL0     H24095   4.123   9.620   4.943  0.8180  1.0835 -2.2712
  175MOL0     H24096   4.213   9.594   5.092  1.9354  0.1521 -0.0341
  175MOL0     H24097   4.321   9.575   4.812 -1.2642 -1.4725 -1.2925
  175MOL0     H24098   4.421   9.579   4.957 -0.3545 -0.3422 -0.9229
  175MOL0     H24099   4.387   9.365   5.120 -1.7460 -0.7761  1.0650
  175MOL0     H24100   4.139   9.062   5.110 -0.1557  0.2408 -0.0377
  175MOL0     H24101   4.275   9.129   5.200  2.0589  2.1071 -1.3279
  175MOL0     H24102   4.307   8.940   4.956  0.2315 -4.7533  1.4758
  175MOL0     H24103   4.437   9.005   5.065  0.0922  0.9560 -0.4643
  175MOL0     H24104   4.373   8.763   5.129 -0.8981 -1.7771  3.4353
  175MOL0     H24105   4.330   8.873   5.249  1.0656 -1.1204 -0.9723
  175MOL0     H24106   4.195   8.705   5.217  2.7733  0.7906 -0.0178
  175MOL0     H24107   4.082   8.834   5.185 -2.7553 -1.4493 -3.3061
  175MOL0     H24108   3.886   8.743   5.122  2.1057  1.3554 -3.5332
  175MOL0     H24109   3.593   8.534   5.109  0.2893 -2.9923  0.6919
  175MOL0     H24110   3.667   8.677   5.197 -1.1691 -0.3023 -0.0289
  175MOL0     H24111   3.686   8.523   5.247  0.0163  2.0737  0.5512
  175MOL0     H24112   3.377   8.269   5.083 -0.3382 -0.5942  0.0304
  175MOL0     H24113   3.200   8.140   4.994 -0.3949 -1.2778 -1.2117
  175MOL0     H24114   3.040   7.930   4.732 -1.3248  1.0193  0.5287
  175MOL0     H24115   3.116   7.966   4.885  1.6043 -1.9606  0.1885
  175MOL0     H24116   2.894   8.094   4.882 -0.6521  2.1381 -1.1277
  175MOL0     H24117   3.014   8.209   4.867  1.0299 -0.2063  1.9963
  175MOL0     H24118   2.972   8.190   4.611  1.8247 -4.1527  1.5361
  175MOL0     H24119   2.866   8.289   4.714  0.0043  0.1970 -0.1500
  175MOL0     H24120   2.702   8.071   4.732  0.5286 -0.6069  0.8292
  175MOL0     H24121   2.814   8.011   4.603  1.8909  2.1187 -1.6140
  175MOL0     H24122   2.623   8.241   4.609  0.1097 -0.1317 -0.3920
  175MOL0     H24123   2.749   8.233   4.487 -1.9050  3.2941  1.8444
  175MOL0     H24124   2.532   8.033   4.528  1.6194 -3.3937  0.0312
  175MOL0     H24125   2.654   8.006   4.405 -0.4254  0.1132 -1.0854
  175MOL0     H24126   2.513   8.267   4.396 -3.5129 -0.2921  1.9553
  175MOL0     H24127   2.428   8.111   4.342 -1.0771  1.5674 -1.2794
  175MOL0     H24128   2.579   8.084   4.168  1.0953 -0.9959  1.0012
  175MOL0     H24129   2.695   8.202   4.227  0.2165  0.0592  0.4596
  175MOL0     H24130   3.368   8.199   4.598 -0.4087  0.5944 -0.9530
  175MOL0     H24131   3.545   8.329   4.695  2.3139 -2.1801  1.2110
  175MOL0     H24132   3.951   8.360   4.842 -0.3967  1.5983 -1.1320
  175MOL0     H24133   4.131   8.517   4.849 -0.7144 -0.3747 -0.5630
  175MOL0     H24134   3.961   9.346   4.842 -0.8429  1.1675  1.3120
  175MOL0     H24135   3.922   9.177   4.709  1.8200  1.4088  0.8517
  175MOL0     H24136   3.772   8.993   4.385 -0.1728  0.1133 -1.4005
  175MOL0     H24137   3.745   8.794   4.226 -1.9572  0.8467 -1.2143
  175MOL0     H24138   3.359   8.525   4.215  2.3727 -1.0496  0.2401
  175MOL0     H24139   3.355   8.699   4.178 -0.5897  0.2825  0.7199
  175MOL0     H24140   3.334   8.554   3.997 -0.7368 -0.5438 -0.2098
  175MOL0     H24141   3.491   8.471   4.033  0.8139  0.4240  1.9121
  175MOL0     H24142   3.464   8.767   3.954  1.0382  0.3803 -2.2845
  175MOL0     H24143   3.613   8.691   3.979  0.0244  1.4742 -0.7797
  175MOL0     H24144   3.489   8.516   3.771 -0.7653  0.7328 -1.3467
  175MOL0     H24145   3.598   8.647   3.746 -0.1367  0.5166  0.3466
  175MOL0     H24146   3.183   8.803   3.707 -0.2983 -0.1324 -2.9598
  175MOL0     H24147   3.360   8.721   4.416  2.2884 -2.4156 -2.4627
  175MOL0     H24148   3.278   8.850   4.582 -2.0033  2.8265 -1.0659
  175MOL0     H24149   3.407   8.900   4.690  1.6734  1.3380 -0.2899
  175MOL0     H24150   3.331   9.025   4.584  0.1400  1.4713  2.9894
  176MOL0     O24151   6.028   4.765   3.887  0.0202  0.8766  0.1514
  176MOL0     C24152   5.970   4.852   3.832  0.2332 -0.8633 -0.1701
  176MOL0     O24153   6.026   4.942   3.745 -0.0991  0.0099  0.0159
  176MOL0     C24154   6.146   4.922   3.690 -0.7462 -0.5047  0.5014
  176MOL0     C24155   6.200   4.799   3.655  0.0096 -0.3657 -0.1040
  176MOL0     C24156   6.325   4.788   3.591 -0.2132 -0.0340 -0.8401
  176MOL0     C24157   6.398   4.895   3.542  1.0512  1.0617 -0.7484
  176MOL0     O24158   6.519   4.887   3.480 -0.8604 -0.0293 -0.2369
  176MOL0     C24159   6.537   4.774   3.396 -1.2986  0.3211 -0.5286
  176MOL0     C24160   6.647   4.799   3.291  0.7497 -0.3753 -0.8159
  176MOL0     C24161   6.652   4.701   3.173  0.6580 -0.7862 -0.3392
  176MOL0     C24162   6.757   4.748   3.072 -0.6026 -0.0573  0.7446
  176MOL0     C24163   6.772   4.662   2.943 -0.0313 -0.7506  0.1504
  176MOL0     C24164   6.843   4.731   2.822  0.3245 -0.1778  0.1744
  176MOL0     C24165   6.841   4.647   2.687  0.0287 -0.3242  0.1108
  176MOL0     C24166   6.889   4.496   2.685 -0.0256 -0.3336  0.4517
  176MOL0     N24167   6.847   4.426   2.562 -0.6276  0.3934 -0.6563
  176MOL0     C24168   6.791   4.298   2.555  0.2414  0.0808  0.5196
  176MOL0     C24169   6.809   4.263   2.426 -0.9141  0.1973  0.4527
  176MOL0     C24170   6.787   4.126   2.367 -0.5649 -0.4775  0.1095
  176MOL0     C24171   6.916   4.058   2.314  0.4859 -0.6302  0.2454
  176MOL0     C24172   6.893   3.908   2.294  0.1351 -0.4479  0.0157
  176MOL0     C24173   6.834   3.863   2.158  0.0935  0.3423  0.9025
  176MOL0     O24174   6.909   3.936   2.058  0.1864 -0.1039 -0.5113
  176MOL0     C24175   6.861   3.935   1.929 -0.4744  0.7657 -0.0020
  176MOL0     C24176   6.915   4.035   1.854  0.2943 -0.3729  0.0390
  176MOL0     C24177   6.894   4.037   1.714 -0.3554 -1.0671  0.3784
  176MOL0     C24178   6.963   4.149   1.646  1.2708 -0.8197  0.3887
  176MOL0     C24179   6.818   3.937   1.651  0.9115  0.2101 -0.4873
  176MOL0     C24180   6.810   3.923   1.503  0.2808 -0.3436 -1.1041
  176MOL0     O24181   6.919   3.864   1.442 -0.4608  0.2394  1.1010
  176MOL0     C24182   6.898   3.843   1.303 -0.5844  0.1736  0.2173
  176MOL0     C24183   6.951   3.917   1.205  0.4807  0.8337  0.0049
  176MOL0     C24184   6.946   3.873   1.065 -0.5081  0.2964 -0.0913
  176MOL0     C24185   6.905   3.743   1.030 -0.5591  1.1976  0.0334
  176MOL0     O24186   6.905   3.686   0.900 -0.1052 -0.0546 -0.0717
  176MOL0     C24187   6.881   3.778   0.797  0.9202 -0.5188  0.0476
  176MOL0     C24188   6.892   3.704   0.661 -1.4559 -0.5352 -0.8369
  176MOL0     C24189   7.034   3.645   0.636  0.7015  0.1883 -1.1094
  176MOL0     C24190   7.019   3.495   0.643  0.0878 -0.1315  0.3248
  176MOL0     C24191   7.151   3.410   0.624  0.0798  0.4770 -0.0780
  176MOL0     C24192   7.135   3.262   0.668 -0.1597 -0.3814 -0.3486
  176MOL0     C24193   7.267   3.179   0.667 -0.2652  0.0717  0.0892
  176MOL0     C24194   7.256   3.032   0.690 -0.1742 -0.3063 -0.6375
  176MOL0    Cl24195   7.093   2.976   0.741 -0.4799  0.6042 -0.0812
  176MOL0     C24196   6.847   3.664   1.133  0.2871  0.1743  0.2093
  176MOL0     C24197   6.846   3.716   1.263  1.3703 -0.9173  0.0941
  176MOL0     O24198   6.713   3.970   1.450  0.1425 -0.1018 -0.7286
  176MOL0     C24199   6.748   3.850   1.734 -0.5843 -0.0291  0.6906
  176MOL0     C24200   6.770   3.844   1.872 -0.1107  0.1611 -0.3970
  176MOL0     N24201   6.889   4.363   2.369  0.2163  0.0356 -0.3183
  176MOL0     N24202   6.915   4.460   2.451 -0.1498  0.0176 -0.2171
  176MOL0     C24203   6.347   5.024   3.583  0.2994  0.5332  0.1833
  176MOL0     C24204   6.226   5.033   3.660 -0.0570 -0.4269  0.1382
  176MOL0     C24205   5.839   4.902   3.890  0.0068  0.2506 -0.0098
  176MOL0     C24206   5.751   4.809   3.941 -0.3163 -0.1687 -0.8511
  176MOL0     C24207   5.627   4.839   3.996 -0.9010 -0.8268  0.2282
  176MOL0     C24208   5.580   4.968   4.008 -1.2934 -1.2321 -0.9895
  176MOL0     O24209   5.451   4.986   4.051 -0.8255 -0.3438 -0.6802
  176MOL0     C24210   5.403   5.118   4.039  0.0488  0.8015  0.4119
  176MOL0     C24211   5.253   5.124   4.089 -0.4565 -0.2719  0.3006
  176MOL0     C24212   5.206   5.268   4.052  1.0204  0.7863 -0.0851
  176MOL0     C24213   5.096   5.317   4.150 -0.0307  0.2308  0.3093
  176MOL0     C24214   5.161   5.358   4.274 -0.8435 -0.0521  0.0648
  176MOL0     C24215   5.208   5.391   4.382 -0.5840  0.0276  0.2546
  176MOL0     C24216   5.674   5.071   3.973  0.8652 -0.3414  0.1861
  176MOL0     C24217   5.807   5.044   3.913  0.3213 -0.4043 -0.3275
  176MOL0     C24218   5.898   5.164   3.890  0.5130 -0.3892  1.2852
  176MOL0     H24219   6.141   4.709   3.673 -0.4131  0.0640  0.7327
  176MOL0     H24220   6.371   4.689   3.584 -0.7642 -0.8847  4.0414
  176MOL0     H24221   6.441   4.761   3.345 -1.0220  1.2741 -1.3266
  176MOL0     H24222   6.556   4.687   3.459 -4.0117 -0.8521 -1.1772
  176MOL0     H24223   6.647   4.905   3.266 -0.9392 -0.6195 -2.0624
  176MOL0     H24224   6.736   4.778   3.350 -0.6856 -0.3727  1.4541
  176MOL0     H24225   6.666   4.598   3.209 -1.7560 -1.2547 -0.5599
  176MOL0     H24226   6.557   4.710   3.121 -1.3025  1.8257  3.2270
  176MOL0     H24227   6.726   4.850   3.048 -0.1683 -0.1473 -0.2430
  176MOL0     H24228   6.846   4.752   3.135 -0.5519  3.3241  0.6214
  176MOL0     H24229   6.674   4.625   2.913 -0.8908  1.1733  0.4002
  176MOL0     H24230   6.828   4.569   2.957  0.8041 -0.2911 -0.0121
  176MOL0     H24231   6.787   4.822   2.798 -3.4660 -2.2823  0.1536
  176MOL0     H24232   6.941   4.758   2.860  0.4721  3.0923 -2.0820
  176MOL0     H24233   6.921   4.689   2.626  4.3260 -5.9636  1.0689
  176MOL0     H24234   6.745   4.658   2.636 -0.2785  4.3077  1.1880
  176MOL0     H24235   6.998   4.496   2.699  0.0372  2.9252  0.7125
  176MOL0     H24236   6.856   4.446   2.777  1.3374 -0.3505  0.9544
  176MOL0     H24237   6.745   4.232   2.629  0.1218 -0.2817  0.1225
  176MOL0     H24238   6.717   4.143   2.284 -1.1179  0.4349  0.7475
  176MOL0     H24239   6.727   4.066   2.436  1.1593 -0.2223  1.9315
  176MOL0     H24240   6.943   4.113   2.224 -0.3251  0.9719  0.9472
  176MOL0     H24241   7.001   4.075   2.381  0.7991 -1.7544  0.1691
  176MOL0     H24242   6.987   3.851   2.298 -0.0102 -1.0366 -2.8663
  176MOL0     H24243   6.837   3.874   2.381  1.2604  1.6901  1.6819
  176MOL0     H24244   6.827   3.755   2.142  0.3401  0.3955  0.4181
  176MOL0     H24245   6.730   3.897   2.161 -0.6426 -1.6316 -0.4804
  176MOL0     H24246   6.984   4.112   1.888  0.6163  0.0641 -1.5166
  176MOL0     H24247   7.029   4.123   1.563 -0.0947 -0.6092 -0.7924
  176MOL0     H24248   7.013   4.223   1.709  3.1171  0.4299 -2.3767
  176MOL0     H24249   6.888   4.203   1.588 -0.4772 -1.7968  1.6503
  176MOL0     H24250   6.999   4.011   1.231 -2.4416  2.1435  1.0889
  176MOL0     H24251   6.985   3.945   0.994 -1.3131  0.3101 -0.5396
  176MOL0     H24252   6.778   3.814   0.800  0.2950 -2.2305  2.6529
  176MOL0     H24253   6.944   3.867   0.789 -0.1583  0.4717  1.8082
  176MOL0     H24254   6.811   3.631   0.659 -0.8408 -1.3361  0.8603
  176MOL0     H24255   6.871   3.771   0.578 -0.2415  1.6877  0.5650
  176MOL0     H24256   7.103   3.686   0.710 -0.5381 -0.5551  0.5219
  176MOL0     H24257   7.063   3.665   0.532  2.9198 -1.3735 -0.8622
  176MOL0     H24258   6.936   3.466   0.578 -2.7496  1.5328  2.9413
  176MOL0     H24259   6.985   3.470   0.744 -1.7785  0.8972  0.0042
  176MOL0     H24260   7.182   3.411   0.519  1.0920  0.1963  0.1998
  176MOL0     H24261   7.229   3.459   0.683 -1.0067  0.7279  1.1923
  176MOL0     H24262   7.061   3.227   0.596 -0.7184  3.2422 -1.7668
  176MOL0     H24263   7.093   3.266   0.769  1.5851  2.4237  0.3784
  176MOL0     H24264   7.345   3.230   0.723  0.1441 -1.3291  0.8531
  176MOL0     H24265   7.305   3.180   0.564  1.1380 -3.4314  0.4070
  176MOL0     H24266   7.307   3.013   0.784 -3.9261  0.2617  1.6992
  176MOL0     H24267   7.301   2.974   0.608  0.5168 -0.2851 -0.2801
  176MOL0     H24268   6.791   3.574   1.111 -2.5215  2.3166 -2.3643
  176MOL0     H24269   6.817   3.645   1.341 -1.7302 -0.0696 -0.1506
  176MOL0     H24270   6.687   3.773   1.687 -2.7054  0.8857  1.8068
  176MOL0     H24271   6.701   3.782   1.929  1.5240 -0.2515  1.2343
  176MOL0     H24272   6.405   5.115   3.570  2.0853  0.0519  3.5574
  176MOL0     H24273   6.200   5.135   3.687  0.9759  0.1643 -1.0129
  176MOL0     H24274   5.778   4.704   3.937  0.5925 -0.1955  2.7431
  176MOL0     H24275   5.553   4.767   4.029 -2.3359  1.9416  3.8144
  176MOL0     H24276   5.463   5.186   4.101  1.0906  0.0723  0.2182
  176MOL0     H24277   5.413   5.131   3.931  0.6455  0.5852  0.4401
  176MOL0     H24278   5.243   5.110   4.197 -1.1741 -2.6349 -0.0265
  176MOL0     H24279   5.189   5.046   4.048 -0.5083  0.1193 -0.3702
  176MOL0     H24280   5.273   5.353   4.036 -2.9210  4.1003 -0.8501
  176MOL0     H24281   5.154   5.247   3.958  0.5851 -2.3819  0.7383
  176MOL0     H24282   5.017   5.242   4.158  1.6666 -2.0057 -1.9952
  176MOL0     H24283   5.040   5.408   4.124  0.1863  0.2440 -0.1226
  176MOL0     H24284   5.252   5.429   4.472 -0.2199 -0.5590  0.3300
  176MOL0     H24285   5.640   5.174   3.984 -0.9416 -0.8270 -0.5521
  176MOL0     H24286   5.851   5.261   3.906 -1.8818 -0.8381 -1.9919
  176MOL0     H24287   5.987   5.157   3.953  1.7361 -2.7044 -0.5273
  176MOL0     H24288   5.920   5.186   3.785  1.2050  2.4255  1.9461
  177MOL0     O24289   4.348   4.271   5.624  0.3177  0.3097  0.3235
  177MOL0     C24290   4.452   4.315   5.576  0.0035 -0.5410  0.3033
  177MOL0     O24291   4.572   4.278   5.612  0.2993  0.0434  0.0775
  177MOL0     C24292   4.599   4.157   5.673  0.5374 -0.5503 -0.8009
  177MOL0     C24293   4.724   4.147   5.733 -0.9437  0.3890  0.3235
  177MOL0     C24294   4.774   4.022   5.771  0.9121  0.4589 -1.0245
  177MOL0     C24295   4.696   3.904   5.770  1.1976  0.2016  0.3015
  177MOL0     O24296   4.719   3.780   5.809  0.1392 -0.0042 -0.2493
  177MOL0     C24297   4.828   3.757   5.899  0.2555 -0.2445  0.3682
  177MOL0     C24298   4.850   3.614   5.955  0.4628  0.1802 -0.6184
  177MOL0     C24299   4.735   3.555   6.041 -0.2760  0.2062  0.3771
  177MOL0     C24300   4.687   3.665   6.132  0.2750  0.5170 -0.2153
  177MOL0     C24301   4.607   3.605   6.248 -0.2445  0.7692  0.3231
  177MOL0     C24302   4.562   3.710   6.360  0.4993  0.8069 -1.0285
  177MOL0     C24303   4.472   3.645   6.458  0.7215  0.5805  0.3625
  177MOL0     C24304   4.421   3.733   6.571  0.7924  0.5211 -0.0257
  177MOL0     N24305   4.322   3.830   6.523 -0.0659  1.6116 -0.0333
  177MOL0     C24306   4.202   3.807   6.467  0.2899  0.7563 -0.3504
  177MOL0     C24307   4.145   3.929   6.448 -0.3108  0.4107 -0.7237
  177MOL0     C24308   3.997   3.948   6.413 -0.8285 -1.1385  0.8631
  177MOL0     C24309   3.911   3.962   6.544 -0.8799  0.4345  0.2451
  177MOL0     C24310   3.764   3.955   6.498 -0.3636 -0.2624 -1.1978
  177MOL0     C24311   3.670   4.006   6.601 -0.8154  0.3785 -0.0978
  177MOL0     O24312   3.550   3.942   6.579  0.7337  0.1890  0.3683
  177MOL0     C24313   3.445   3.944   6.676 -0.8413  0.8561  0.2158
  177MOL0     C24314   3.454   4.011   6.795  0.3116  0.0967  0.0460
  177MOL0     C24315   3.346   4.005   6.879 -0.5518  0.8314 -0.0590
  177MOL0     C24316   3.345   4.092   7.002  0.6354  0.8498  0.3933
  177MOL0     C24317   3.236   3.932   6.851  0.0220 -0.1058  0.3409
  177MOL0     C24318   3.119   3.901   6.949 -0.7068 -0.2405  1.0557
  177MOL0     O24319   3.008   3.844   6.901 -0.5035  0.3959 -0.1435
  177MOL0     C24320   2.939   3.762   6.989  0.4182 -1.3142  0.5964
  177MOL0     C24321   2.997   3.653   7.060  0.1222  0.1730 -0.1545
  177MOL0     C24322   2.916   3.578   7.148 -0.8768  0.2178 -0.2582
  177MOL0     C24323   2.778   3.594   7.169  0.3807 -0.0749  0.0631
  177MOL0     O24324   2.706   3.520   7.258 -0.2401  0.4393  0.1733
  177MOL0     C24325   2.616   3.431   7.190 -0.4097  0.2356  0.7271
  177MOL0     C24326   2.467   3.478   7.185 -0.2534  1.2283  0.6391
  177MOL0     C24327   2.407   3.542   7.318  0.1333 -1.0321  0.3142
  177MOL0     C24328   2.251   3.586   7.299 -0.2392  0.5985 -0.4652
  177MOL0     C24329   2.200   3.645   7.438  0.6891  0.6331  0.0674
  177MOL0     C24330   2.052   3.620   7.455 -0.0954  0.4161 -0.7836
  177MOL0     C24331   1.986   3.628   7.591 -0.1686  0.3844  0.2569
  177MOL0     C24332   1.961   3.497   7.654 -0.6245 -0.3418  0.5639
  177MOL0    Cl24333   2.125   3.402   7.644  0.1022 -0.6544 -0.1267
  177MOL0     C24334   2.722   3.701   7.103  0.9983 -0.4452  1.5898
  177MOL0     C24335   2.798   3.776   7.008  0.6763 -0.8450 -0.2904
  177MOL0     O24336   3.140   3.918   7.069 -0.0032 -0.0051 -0.6441
  177MOL0     C24337   3.235   3.855   6.733 -0.1079 -0.3896 -0.5188
  177MOL0     C24338   3.339   3.860   6.648  0.2375 -0.4216 -1.1143
  177MOL0     N24339   4.237   4.026   6.489 -0.1764 -0.1791 -0.2583
  177MOL0     N24340   4.341   3.960   6.537 -0.1916 -0.4702 -0.0628
  177MOL0     C24341   4.565   3.920   5.720 -0.7958  0.1418  0.1147
  177MOL0     C24342   4.522   4.038   5.674  0.8194 -0.5352 -0.0017
  177MOL0     C24343   4.438   4.429   5.485 -0.4851  0.2486 -0.6117
  177MOL0     C24344   4.558   4.465   5.425  0.5246  0.0882 -1.0494
  177MOL0     C24345   4.554   4.563   5.331 -0.5159  0.4011 -0.5583
  177MOL0     C24346   4.442   4.620   5.288 -1.4650 -0.3185  0.8183
  177MOL0     O24347   4.472   4.719   5.191  0.1479  0.3194  0.4301
  177MOL0     C24348   4.367   4.807   5.153  1.0829  0.2551  0.0858
  177MOL0     C24349   4.416   4.947   5.140 -0.2143  0.0503  0.3863
  177MOL0     C24350   4.316   5.029   5.057 -0.6950  0.0727 -0.5086
  177MOL0     C24351   4.180   5.028   5.131 -0.0473 -0.8607  0.1978
  177MOL0     C24352   4.097   5.143   5.101  0.2834  0.0236  0.5335
  177MOL0     C24353   4.020   5.231   5.072  0.7709 -0.3891 -0.0483
  177MOL0     C24354   4.321   4.573   5.334 -0.4381 -0.9518  1.0985
  177MOL0     C24355   4.318   4.483   5.435 -0.2972 -0.4747 -0.6521
  177MOL0     C24356   4.184   4.458   5.499  0.2346  0.2172 -1.2471
  177MOL0     H24357   4.783   4.238   5.738 -0.7953  0.4467 -1.7488
  177MOL0     H24358   4.872   4.029   5.819 -0.0850 -2.7241  1.9215
  177MOL0     H24359   4.827   3.843   5.966  1.7414 -0.1342  0.2817
  177MOL0     H24360   4.919   3.763   5.839 -0.2398  1.0764 -0.2956
  177MOL0     H24361   4.869   3.535   5.883 -0.1355 -0.9023  0.3863
  177MOL0     H24362   4.937   3.620   6.022  1.0730  1.7100 -1.4910
  177MOL0     H24363   4.658   3.506   5.980  1.5542  1.7562 -3.5367
  177MOL0     H24364   4.781   3.470   6.092  0.8943 -0.7522 -2.1260
  177MOL0     H24365   4.778   3.711   6.173 -1.0985  0.4364  3.2421
  177MOL0     H24366   4.614   3.725   6.078 -0.7483 -1.9263 -1.7087
  177MOL0     H24367   4.667   3.522   6.288  1.0303  0.9413 -1.1324
  177MOL0     H24368   4.525   3.556   6.196 -0.1881  1.2093 -0.1834
  177MOL0     H24369   4.645   3.758   6.413  0.5576 -0.8757  0.4725
  177MOL0     H24370   4.504   3.786   6.307  0.7789  2.7755  1.3195
  177MOL0     H24371   4.520   3.552   6.492 -2.7541 -0.6001  2.6067
  177MOL0     H24372   4.381   3.616   6.404  2.0521 -1.2750 -1.0365
  177MOL0     H24373   4.363   3.667   6.636  0.1618  0.5550 -0.5452
  177MOL0     H24374   4.500   3.786   6.626 -0.4379  1.6754  0.6779
  177MOL0     H24375   4.149   3.713   6.458  0.6105  0.1033  2.9951
  177MOL0     H24376   3.968   3.863   6.352  2.7806 -1.8785 -0.0699
  177MOL0     H24377   3.980   4.043   6.361 -1.8434 -2.3813 -1.2112
  177MOL0     H24378   3.946   3.876   6.602 -1.6007 -0.4983 -0.6655
  177MOL0     H24379   3.926   4.053   6.602  1.8328 -1.4519  2.8173
  177MOL0     H24380   3.753   4.014   6.407 -1.5048 -1.4675 -1.8856
  177MOL0     H24381   3.751   3.854   6.459  0.8582 -0.7202 -0.4777
  177MOL0     H24382   3.711   3.967   6.695 -1.4472 -3.7124 -1.3572
  177MOL0     H24383   3.658   4.115   6.603  1.2027  0.6561  2.4632
  177MOL0     H24384   3.542   4.066   6.828  0.3464 -1.2357  2.3536
  177MOL0     H24385   3.242   4.125   7.021  0.0305  0.1634 -1.4765
  177MOL0     H24386   3.416   4.175   6.994  0.5708  0.7305 -3.5318
  177MOL0     H24387   3.365   4.037   7.094 -3.6945 -0.8413  0.5726
  177MOL0     H24388   3.101   3.622   7.056  0.5459  1.5626 -0.7200
  177MOL0     H24389   2.966   3.491   7.190 -2.4143 -0.4026  0.3731
  177MOL0     H24390   2.647   3.397   7.091 -0.4003 -0.7441  1.0574
  177MOL0     H24391   2.614   3.346   7.258  1.0482  0.7866  1.5263
  177MOL0     H24392   2.466   3.554   7.105  0.0777 -1.8599 -2.5652
  177MOL0     H24393   2.420   3.389   7.144 -0.1228  1.2457  0.4472
  177MOL0     H24394   2.468   3.626   7.351  2.4428 -2.3743 -0.2924
  177MOL0     H24395   2.419   3.470   7.399  0.0604  0.3729  1.6008
  177MOL0     H24396   2.194   3.499   7.265  0.3790  1.3956 -3.8500
  177MOL0     H24397   2.237   3.658   7.219 -1.8504 -0.2743 -1.0169
  177MOL0     H24398   2.244   3.595   7.525 -2.0407 -3.4544 -0.6363
  177MOL0     H24399   2.227   3.750   7.456 -0.1576  0.8087  0.3385
  177MOL0     H24400   2.016   3.526   7.413 -0.6117 -0.0695  0.6934
  177MOL0     H24401   2.012   3.699   7.391 -2.5950  0.7337  1.0145
  177MOL0     H24402   1.892   3.683   7.576  0.2968  1.8973  2.4420
  177MOL0     H24403   2.050   3.690   7.655  0.0686  0.9299 -0.4969
  177MOL0     H24404   1.878   3.452   7.599 -1.3085 -0.6266  1.7949
  177MOL0     H24405   1.933   3.511   7.758 -0.4780 -0.0665  0.5692
  177MOL0     H24406   2.618   3.731   7.114  1.3180  0.9410  1.0909
  177MOL0     H24407   2.753   3.863   6.960 -3.1299 -2.1767  0.5418
  177MOL0     H24408   3.152   3.788   6.711  0.1300 -0.2091 -2.0525
  177MOL0     H24409   3.337   3.801   6.557 -0.5093 -0.1800 -1.2650
  177MOL0     H24410   4.494   3.838   5.717  0.9537 -1.4144 -0.7815
  177MOL0     H24411   4.424   4.027   5.630  1.3426 -0.5991 -1.1951
  177MOL0     H24412   4.657   4.426   5.449  1.2345  1.9856 -0.7043
  177MOL0     H24413   4.644   4.587   5.276  0.3008 -2.9288 -0.8711
  177MOL0     H24414   4.304   4.774   5.070 -0.8035  0.0559  1.5319
  177MOL0     H24415   4.292   4.808   5.232  1.5113 -1.1073  0.5392
  177MOL0     H24416   4.511   4.947   5.085 -0.2904  3.2252  0.0567
  177MOL0     H24417   4.431   4.993   5.237 -0.6907 -1.2630  1.1071
  177MOL0     H24418   4.351   5.133   5.060  1.2514 -0.5059 -1.6972
  177MOL0     H24419   4.319   5.002   4.951  3.3828  1.3463 -0.9102
  177MOL0     H24420   4.187   5.032   5.240 -0.6522  0.5284  0.2082
  177MOL0     H24421   4.125   4.940   5.096  1.2398 -1.6992  0.2171
  177MOL0     H24422   3.945   5.306   5.058  0.6386 -0.6487 -0.7644
  177MOL0     H24423   4.235   4.620   5.287  0.0610  1.9904  2.8284
  177MOL0     H24424   4.110   4.523   5.451 -0.9080 -0.5384 -0.5596
  177MOL0     H24425   4.153   4.353   5.500 -0.7738  0.4036  2.3449
  177MOL0     H24426   4.180   4.489   5.604  2.1989 -1.2552 -0.6755
  178MOL0     O24427   2.246   1.114   0.298  0.2256 -0.0814  0.6028
  178MOL0     C24428   2.169   1.090   0.198 -0.1095 -0.9428 -0.1233
  178MOL0     O24429   2.173   1.167   0.086  0.1558 -0.0035  0.2153
  178MOL0     C24430   2.268   1.251   0.062  0.7768  0.3698 -0.6213
  178MOL0     C24431   2.255   1.375   0.110  0.5441 -0.2483  0.4717
  178MOL0     C24432   2.365   1.467   0.102  0.4398  0.3437 -0.7245
  178MOL0     C24433   2.472   1.438   0.022  0.6179 -0.5848  0.5211
  178MOL0     O24434   2.576   1.530   0.005 -0.1476  0.2148 -0.2131
  178MOL0     C24435   2.557   1.672   0.010  0.0812  0.3521  0.1429
  178MOL0     C24436   2.693   1.735   0.015  0.1613  0.7228 -0.1302
  178MOL0     C24437   2.680   1.883   0.037  0.5730 -0.8238 -0.3344
  178MOL0     C24438   2.819   1.953   0.062 -0.4552 -0.6238 -0.0428
  178MOL0     C24439   2.904   1.975  -0.065  0.8882  0.5166  0.2125
  178MOL0     C24440   3.025   2.057  -0.020  0.6916  0.0700 -0.5066
  178MOL0     C24441   3.126   2.074  -0.129  0.8518 -0.9885  0.1698
  178MOL0     C24442   3.261   2.077  -0.066 -0.7940 -0.9990  0.2647
  178MOL0     N24443   3.374   2.092  -0.157  0.5627  0.2556 -0.3723
  178MOL0     C24444   3.500   2.110  -0.115 -0.3127 -0.1038  0.0930
  178MOL0     C24445   3.574   2.098  -0.230  0.7688 -0.6964  0.0422
  178MOL0     C24446   3.720   2.124  -0.216  0.3108  0.8104 -0.1602
  178MOL0     C24447   3.790   2.177  -0.344 -0.2033  0.0192  0.1273
  178MOL0     C24448   3.852   2.054  -0.415  0.2198 -0.0235 -0.3093
  178MOL0     C24449   3.937   2.095  -0.536  1.3213  0.0255  0.2112
  178MOL0     O24450   3.866   2.181  -0.634 -0.6670 -0.8719  0.2528
  178MOL0     C24451   3.952   2.254  -0.706 -0.3573  0.3743  0.7156
  178MOL0     C24452   4.053   2.337  -0.662  0.4118 -1.0606 -0.6757
  178MOL0     C24453   4.126   2.421  -0.748  0.3813  0.4205 -0.3621
  178MOL0     C24454   4.202   2.524  -0.690 -0.1149 -0.5318  0.1637
  178MOL0     C24455   4.105   2.406  -0.891  0.0713 -0.0075 -0.2891
  178MOL0     C24456   4.171   2.501  -0.988  1.1395 -0.9180  0.3111
  178MOL0     O24457   4.270   2.580  -0.948  0.3119  0.2185 -1.1714
  178MOL0     C24458   4.312   2.670  -1.040  0.5231  0.8467  0.1821
  178MOL0     C24459   4.424   2.650  -1.114  0.2854  0.3172 -0.7256
  178MOL0     C24460   4.449   2.754  -1.208  0.3808  0.5514  0.1370
  178MOL0     C24461   4.360   2.856  -1.225  0.6258 -0.7495  1.0404
  178MOL0     O24462   4.377   2.962  -1.311  0.0004 -0.9039  0.3906
  178MOL0     C24463   4.499   2.978  -1.384 -0.0973 -0.7737 -0.0890
  178MOL0     C24464   4.621   3.019  -1.294  0.2949  0.1611  0.0732
  178MOL0     C24465   4.599   3.138  -1.209 -0.2537  0.0088  0.0413
  178MOL0     C24466   4.715   3.178  -1.118 -0.0310  0.1039  0.0087
  178MOL0     C24467   4.692   3.324  -1.060  0.0218  0.7955 -0.3820
  178MOL0     C24468   4.813   3.353  -0.972 -0.6802 -0.0875 -0.7400
  178MOL0     C24469   4.811   3.493  -0.917 -0.1671 -0.3212 -0.0282
  178MOL0     C24470   4.936   3.522  -0.832 -0.1832 -0.8831 -0.1726
  178MOL0    Cl24471   4.903   3.674  -0.747  0.4347  0.4650  0.1493
  178MOL0     C24472   4.252   2.870  -1.139  0.0163 -0.2798  0.4959
  178MOL0     C24473   4.227   2.781  -1.043  0.6769 -0.3861  0.7164
  178MOL0     O24474   4.129   2.497  -1.103  0.5077  0.0463 -0.7111
  178MOL0     C24475   4.014   2.312  -0.940  0.8049  0.6479 -0.6223
  178MOL0     C24476   3.941   2.234  -0.848  0.4554  0.4369 -0.5965
  178MOL0     N24477   3.494   2.057  -0.331 -0.6358  0.4904  0.0050
  178MOL0     N24478   3.377   2.056  -0.281 -0.4308  0.1819  0.1219
  178MOL0     C24479   2.479   1.315  -0.046  0.1948 -1.3461  0.3459
  178MOL0     C24480   2.384   1.216  -0.012  0.4485  0.5053 -0.0490
  178MOL0     C24481   2.078   0.981   0.190  0.6778  0.7331 -0.5078
  178MOL0     C24482   2.004   0.949   0.077 -0.2233 -0.7002 -0.1548
  178MOL0     C24483   1.913   0.856   0.067  0.5749  0.8356  0.4348
  178MOL0     C24484   1.878   0.779   0.178  0.4154  0.9211  0.5467
  178MOL0     O24485   1.775   0.695   0.173 -0.1817  0.0227  0.1450
  178MOL0     C24486   1.721   0.629   0.047  0.0098 -0.0969 -1.2028
  178MOL0     C24487   1.813   0.559  -0.049 -0.0270  0.9702 -0.2219
  178MOL0     C24488   1.884   0.436   0.005  0.1479  0.1330 -0.0036
  178MOL0     C24489   1.956   0.457   0.142 -0.2763 -0.3256 -0.0553
  178MOL0     C24490   2.018   0.325   0.179  0.5141  0.0780  0.6868
  178MOL0     C24491   2.057   0.215   0.215 -1.3263  0.4035  0.2314
  178MOL0     C24492   1.948   0.802   0.297  0.5444  0.1792  0.4084
  178MOL0     C24493   2.046   0.896   0.305  0.4309 -0.8794 -0.7637
  178MOL0     C24494   2.113   0.902   0.442 -0.7863  1.4789 -0.0066
  178MOL0     H24495   2.166   1.410   0.162 -1.4021  1.7197 -3.6856
  178MOL0     H24496   2.348   1.560   0.154 -2.6345 -0.7632  0.4676
  178MOL0     H24497   2.487   1.698   0.090 -0.6685 -1.2459  0.0537
  178MOL0     H24498   2.511   1.717  -0.078 -1.9023  2.0729  1.9152
  178MOL0     H24499   2.751   1.686   0.093 -2.6448 -2.4601  0.1969
  178MOL0     H24500   2.726   1.720  -0.089 -2.3519 -1.7167 -0.6955
  178MOL0     H24501   2.620   1.925  -0.044 -0.3382 -0.5520  0.4723
  178MOL0     H24502   2.626   1.909   0.128  1.5694 -0.5216  0.1836
  178MOL0     H24503   2.797   2.052   0.101  1.0034  0.4153 -1.6948
  178MOL0     H24504   2.878   1.900   0.138 -1.4920 -0.9229  0.5633
  178MOL0     H24505   2.852   2.024  -0.148  1.3816  0.0590 -0.3869
  178MOL0     H24506   2.936   1.876  -0.099  1.8216  0.4483  1.2341
  178MOL0     H24507   2.978   2.145   0.025 -2.7415 -1.9526  0.1761
  178MOL0     H24508   3.070   2.009   0.067 -0.6412 -1.6682 -0.7186
  178MOL0     H24509   3.102   2.168  -0.180 -3.0298 -1.3652  0.9855
  178MOL0     H24510   3.123   1.996  -0.206  1.1258  0.6516 -1.5723
  178MOL0     H24511   3.260   2.162   0.004 -2.3604  1.0943 -2.1358
  178MOL0     H24512   3.268   1.983  -0.011 -0.2665 -1.8009 -1.1408
  178MOL0     H24513   3.538   2.133  -0.016  0.1269 -3.6014  0.8692
  178MOL0     H24514   3.775   2.042  -0.169 -1.9607 -0.8096 -0.1697
  178MOL0     H24515   3.733   2.210  -0.149  4.7516  2.5351 -2.7447
  178MOL0     H24516   3.717   2.230  -0.405  0.3812 -0.1875 -0.7670
  178MOL0     H24517   3.871   2.246  -0.316  0.5744 -0.8207  0.0092
  178MOL0     H24518   3.904   1.984  -0.350 -1.4159 -1.7409 -0.7703
  178MOL0     H24519   3.771   1.991  -0.453  0.5880  0.5440 -2.1419
  178MOL0     H24520   4.027   2.141  -0.494  0.4604  1.5179  0.5044
  178MOL0     H24521   3.968   2.010  -0.597  5.3831  2.2199 -1.1085
  178MOL0     H24522   4.072   2.354  -0.556  0.3599  2.2299 -1.0925
  178MOL0     H24523   4.173   2.625  -0.720  1.9200 -0.2072 -0.8950
  178MOL0     H24524   4.308   2.513  -0.713  0.6218 -1.1119  3.3949
  178MOL0     H24525   4.189   2.521  -0.582  0.5434 -0.7231  0.2425
  178MOL0     H24526   4.492   2.567  -1.099  0.1308  0.2163 -0.5755
  178MOL0     H24527   4.542   2.756  -1.264  0.5004  3.3019  0.3040
  178MOL0     H24528   4.525   2.884  -1.434 -1.0264 -1.0687 -0.0524
  178MOL0     H24529   4.476   3.058  -1.455  0.7008 -1.2035 -0.8501
  178MOL0     H24530   4.649   2.929  -1.238  1.1142 -0.5447 -1.4138
  178MOL0     H24531   4.708   3.060  -1.346  0.2510  1.8296  1.2536
  178MOL0     H24532   4.508   3.125  -1.149 -1.1176  4.2956 -0.0184
  178MOL0     H24533   4.568   3.218  -1.277 -1.1611 -1.4558 -1.3324
  178MOL0     H24534   4.809   3.171  -1.174 -0.3097 -1.7619 -0.2857
  178MOL0     H24535   4.729   3.110  -1.034  3.1531 -1.2900 -1.4621
  178MOL0     H24536   4.691   3.396  -1.142  4.1671  1.1205 -0.3233
  178MOL0     H24537   4.591   3.321  -1.018 -0.3116  1.3709 -1.1110
  178MOL0     H24538   4.907   3.338  -1.026 -1.3187 -0.1741 -1.8615
  178MOL0     H24539   4.814   3.284  -0.887 -0.4787  1.4108  0.5226
  178MOL0     H24540   4.726   3.510  -0.851 -0.7095  2.9868 -1.3694
  178MOL0     H24541   4.812   3.572  -0.993 -1.4977 -0.1386  0.1265
  178MOL0     H24542   5.029   3.528  -0.890 -0.5424  2.5887 -0.6138
  178MOL0     H24543   4.951   3.441  -0.760 -1.3076 -0.6989  0.2834
  178MOL0     H24544   4.181   2.951  -1.152  0.3504  0.2130  1.5890
  178MOL0     H24545   4.144   2.790  -0.974 -1.1326 -0.8750 -1.2809
  178MOL0     H24546   3.993   2.299  -1.046 -0.4434  3.3466 -0.7779
  178MOL0     H24547   3.869   2.161  -0.884  2.4071 -1.4605 -0.8089
  178MOL0     H24548   2.563   1.289  -0.110  2.9227  1.3606  2.5159
  178MOL0     H24549   2.403   1.123  -0.065 -1.0993  1.4463 -2.3835
  178MOL0     H24550   2.018   1.003  -0.016  1.4315 -1.9010 -0.6341
  178MOL0     H24551   1.851   0.840  -0.021 -0.2942 -0.6789  1.2920
  178MOL0     H24552   1.657   0.545   0.078  1.5566 -1.1284 -0.6996
  178MOL0     H24553   1.656   0.699  -0.006 -0.0428  2.2714  1.6812
  178MOL0     H24554   1.885   0.632  -0.088  2.7496 -0.3301  2.1158
  178MOL0     H24555   1.749   0.523  -0.130 -1.3773 -0.0262  1.2321
  178MOL0     H24556   1.811   0.356   0.019 -0.1201  0.1204 -1.2951
  178MOL0     H24557   1.958   0.406  -0.069 -1.4095 -1.1832 -1.0919
  178MOL0     H24558   1.908   0.497   0.231  2.5566  2.3714  0.4237
  178MOL0     H24559   2.038   0.525   0.115  0.6546 -1.8191 -1.1689
  178MOL0     H24560   2.075   0.117   0.253 -1.0938 -0.3921 -1.7852
  178MOL0     H24561   1.941   0.728   0.376 -0.0830 -0.7578 -0.5015
  178MOL0     H24562   2.075   0.830   0.516  0.5830  1.5049  0.7528
  178MOL0     H24563   2.218   0.880   0.422 -1.8591 -1.9669 -2.9976
  178MOL0     H24564   2.092   0.998   0.490 -3.1134  0.3995  1.3697
  179MOL0     O24565   9.948   1.924   5.757 -0.0181  0.0483 -0.2641
  179MOL0     C24566   9.981   1.825   5.686  0.3958 -0.7665  0.1349
  179MOL0     O24567  10.077   1.735   5.732 -0.7112 -0.3785  0.1577
  179MOL0     C24568  10.145   1.750   5.852 -0.0802  0.3833 -0.7367
  179MOL0     C24569  10.155   1.859   5.943 -0.8840 -0.3126  0.1264
  179MOL0     C24570  10.215   1.832   6.070 -0.3143  1.0659 -1.1672
  179MOL0     C24571  10.252   1.703   6.112 -0.2463  0.6640  0.3603
  179MOL0     O24572  10.279   1.698   6.246  0.3646  0.5436  0.8867
  179MOL0     C24573  10.419   1.689   6.280  0.7760  0.0008 -0.0591
  179MOL0     C24574  10.423   1.683   6.434  0.7417  1.0590  0.8187
  179MOL0     C24575  10.343   1.551   6.487  0.0379  0.6437 -0.1229
  179MOL0     C24576  10.370   1.540   6.636 -0.8434 -0.6130  0.3454
  179MOL0     C24577  10.316   1.425   6.706 -0.0466  0.8269  0.6076
  179MOL0     C24578  10.397   1.287   6.691 -0.3479 -0.0138  0.2275
  179MOL0     C24579  10.302   1.169   6.704 -0.1153 -0.9254  0.0989
  179MOL0     C24580  10.367   1.031   6.715 -0.1606  0.6975 -0.1571
  179MOL0     N24581  10.373   0.972   6.576 -0.2850 -0.9298  0.0874
  179MOL0     C24582  10.485   0.945   6.507 -0.1134 -0.0209  0.6918
  179MOL0     C24583  10.433   0.878   6.396  0.1501 -0.0898  0.0642
  179MOL0     C24584  10.504   0.800   6.294 -0.4581  0.7802  0.8750
  179MOL0     C24585  10.555   0.656   6.338 -0.8426 -0.5643  0.4093
  179MOL0     C24586  10.702   0.670   6.393  0.1618 -0.4300  0.4041
  179MOL0     C24587  10.803   0.579   6.312 -0.3637 -1.4320  0.2245
  179MOL0     O24588  10.846   0.664   6.205  0.6141  0.2114  0.3407
  179MOL0     C24589  10.943   0.624   6.111  0.8206  0.3800  0.1271
  179MOL0     C24590  11.002   0.496   6.106 -0.7294  0.2626 -0.2669
  179MOL0     C24591  11.109   0.461   6.017  0.5396 -0.2599  0.0610
  179MOL0     C24592  11.169   0.325   6.026  0.4357  0.4306 -0.5696
  179MOL0     C24593  11.173   0.565   5.941 -0.2829  0.5718 -0.5609
  179MOL0     C24594  11.301   0.547   5.878 -0.7329  0.0401  0.4472
  179MOL0     O24595  11.400   0.503   5.952  0.3010  0.1791  0.0250
  179MOL0     C24596  11.527   0.492   5.905 -0.2428  0.7690  0.5095
  179MOL0     C24597  11.566   0.555   5.790 -0.0704 -0.4103  0.4720
  179MOL0     C24598  11.692   0.557   5.741 -0.2479  0.1391  0.0890
  179MOL0     C24599  11.790   0.486   5.808  0.3085 -0.0166  0.2475
  179MOL0     O24600  11.926   0.469   5.770 -0.5269  0.4658  0.1017
  179MOL0     C24601  11.989   0.587   5.726  0.2644  0.3336  0.1734
  179MOL0     C24602  12.149   0.575   5.714  0.8815  0.0110  0.4016
  179MOL0     C24603  12.197   0.470   5.622 -0.0059  0.7465 -0.5663
  179MOL0     C24604  12.353   0.498   5.621  1.2224 -0.6649  0.0100
  179MOL0     C24605  12.442   0.405   5.528  0.4272 -0.7899  0.1199
  179MOL0     C24606  12.454   0.254   5.577  0.0163 -0.4586 -1.0634
  179MOL0     C24607  12.548   0.228   5.698 -0.3498 -0.0585  0.4295
  179MOL0     C24608  12.611   0.088   5.696 -0.3421 -0.9270  0.2982
  179MOL0    Cl24609  12.786   0.097   5.652 -0.2766 -0.0574  0.3222
  179MOL0     C24610  11.758   0.414   5.925 -0.6967  0.1631 -0.1889
  179MOL0     C24611  11.625   0.413   5.977 -0.1311  0.2285 -0.1064
  179MOL0     O24612  11.292   0.557   5.752 -0.1381 -0.2196 -0.3165
  179MOL0     C24613  11.102   0.691   5.938 -0.7270  0.0191  0.0683
  179MOL0     C24614  10.993   0.725   6.027 -0.9234  0.6209 -0.7609
  179MOL0     N24615  10.297   0.883   6.394  0.5885 -0.1136 -0.2281
  179MOL0     N24616  10.266   0.939   6.503  0.0062  0.4176 -0.4575
  179MOL0     C24617  10.237   1.599   6.025 -0.2093  0.5423 -0.2755
  179MOL0     C24618  10.184   1.619   5.892  0.1109 -0.4198 -0.2049
  179MOL0     C24619   9.907   1.813   5.553  1.0920  0.1470 -0.0989
  179MOL0     C24620   9.794   1.897   5.526  0.0589  0.2735 -0.3877
  179MOL0     C24621   9.742   1.880   5.400  0.0718 -0.2540  0.1582
  179MOL0     C24622   9.790   1.802   5.305  0.6182 -0.4234 -0.3784
  179MOL0     O24623   9.737   1.793   5.175 -0.1265  0.4117 -0.3992
  179MOL0     C24624   9.703   1.912   5.102  0.1135  0.9794 -0.6276
  179MOL0     C24625   9.772   1.907   4.968 -0.6339  0.0713 -0.4892
  179MOL0     C24626   9.751   2.048   4.906  0.6247 -0.7580 -0.6208
  179MOL0     C24627   9.850   2.085   4.796 -0.8280 -0.0926 -0.0137
  179MOL0     C24628   9.846   2.229   4.761  0.8352 -0.7797  1.2459
  179MOL0     C24629   9.846   2.344   4.721  0.2199 -0.2048 -0.0859
  179MOL0     C24630   9.886   1.717   5.342  1.0335 -0.1895  0.0437
  179MOL0     C24631   9.949   1.715   5.462  0.8929 -0.4552 -0.3809
  179MOL0     C24632  10.070   1.623   5.471 -0.4893 -0.4428 -0.4574
  179MOL0     H24633  10.125   1.960   5.917  1.0674 -0.3623 -2.6338
  179MOL0     H24634  10.225   1.908   6.147  0.5285 -0.6742  0.5286
  179MOL0     H24635  10.473   1.776   6.241 -0.5642  0.3699 -1.1614
  179MOL0     H24636  10.452   1.592   6.243 -0.9761 -1.0295  0.9557
  179MOL0     H24637  10.528   1.676   6.460  0.0830 -0.4535  3.3743
  179MOL0     H24638  10.373   1.774   6.471  0.1312  0.6490  1.0266
  179MOL0     H24639  10.234   1.554   6.475  0.0169  4.0232 -0.0792
  179MOL0     H24640  10.389   1.464   6.440  1.0696  1.0027  0.1863
  179MOL0     H24641  10.477   1.548   6.656 -0.8289 -1.9752  0.9505
  179MOL0     H24642  10.324   1.632   6.671 -0.0403 -0.2649  0.5124
  179MOL0     H24643  10.211   1.422   6.675 -0.8159  0.0680  3.0430
  179MOL0     H24644  10.307   1.437   6.815 -0.7540 -1.7599  0.9097
  179MOL0     H24645  10.448   1.274   6.595 -0.4452  0.3806  0.1177
  179MOL0     H24646  10.474   1.281   6.768  0.9849  1.7475 -0.8805
  179MOL0     H24647  10.240   1.170   6.614  0.2621  0.8971 -0.1785
  179MOL0     H24648  10.215   1.177   6.769 -1.9780 -0.9471 -2.2584
  179MOL0     H24649  10.470   1.054   6.745  0.3607  3.9850 -3.7380
  179MOL0     H24650  10.304   0.963   6.773  0.2500  0.2341 -0.2456
  179MOL0     H24651  10.586   0.966   6.543 -0.2584 -1.7498  2.2588
  179MOL0     H24652  10.584   0.862   6.253  0.9903 -0.8126  1.1724
  179MOL0     H24653  10.434   0.790   6.210 -0.7567 -0.6682  1.2726
  179MOL0     H24654  10.482   0.614   6.407  0.3473 -0.8752  1.5100
  179MOL0     H24655  10.556   0.591   6.250  1.1835  0.8842 -0.7363
  179MOL0     H24656  10.724   0.778   6.396 -0.3888 -0.3283  2.2745
  179MOL0     H24657  10.681   0.630   6.493 -1.3596  1.6888  1.0090
  179MOL0     H24658  10.895   0.548   6.363  0.3409 -3.1376 -1.9301
  179MOL0     H24659  10.758   0.484   6.282 -2.2878 -0.6461  0.4559
  179MOL0     H24660  10.970   0.413   6.168  4.6531 -1.4993  0.6074
  179MOL0     H24661  11.105   0.253   6.079  1.1020 -2.8685 -3.8234
  179MOL0     H24662  11.276   0.324   6.051  0.1595  0.0239  0.6830
  179MOL0     H24663  11.164   0.273   5.930 -0.9959  0.5948 -0.6021
  179MOL0     H24664  11.498   0.628   5.747 -0.9919 -0.5977  1.5475
  179MOL0     H24665  11.716   0.610   5.649  0.8645 -0.2775  0.1286
  179MOL0     H24666  11.942   0.633   5.640  0.9075  0.8850  0.1071
  179MOL0     H24667  11.970   0.663   5.803  2.0650 -0.8873  1.9613
  179MOL0     H24668  12.185   0.674   5.686  0.6501 -0.7564 -3.0443
  179MOL0     H24669  12.183   0.565   5.818 -0.6532 -1.6308  0.8023
  179MOL0     H24670  12.139   0.475   5.529 -1.3926  1.5283  0.3053
  179MOL0     H24671  12.176   0.376   5.675 -1.1899  0.7952 -0.9239
  179MOL0     H24672  12.393   0.494   5.723 -2.4054 -0.4756  1.6050
  179MOL0     H24673  12.369   0.598   5.578 -2.1750 -0.1194 -0.2837
  179MOL0     H24674  12.394   0.411   5.430 -0.6557 -1.3958  0.5885
  179MOL0     H24675  12.540   0.452   5.539  0.6371 -1.4801  1.4697
  179MOL0     H24676  12.500   0.198   5.494 -0.1643  1.4054 -2.4929
  179MOL0     H24677  12.354   0.221   5.604  1.1355 -1.5994  2.1044
  179MOL0     H24678  12.497   0.264   5.787 -4.7758 -0.3861 -1.6914
  179MOL0     H24679  12.629   0.301   5.685 -2.0098  1.6706 -0.7803
  179MOL0     H24680  12.558   0.035   5.616  0.5439 -3.2784  1.1719
  179MOL0     H24681  12.613   0.031   5.789 -1.8090 -0.1445  0.8528
  179MOL0     H24682  11.826   0.341   5.967 -3.2980 -0.5184  3.3303
  179MOL0     H24683  11.592   0.358   6.064 -0.9823  1.8491  0.6302
  179MOL0     H24684  11.145   0.770   5.878  1.2544  0.8261  2.4088
  179MOL0     H24685  10.946   0.822   6.037  1.2843  1.9735 -2.5480
  179MOL0     H24686  10.256   1.498   6.062  0.9045  1.0735  0.6652
  179MOL0     H24687  10.194   1.530   5.832  0.7847 -1.1966  1.0261
  179MOL0     H24688   9.761   1.975   5.594  2.5948  1.6193 -0.5836
  179MOL0     H24689   9.664   1.937   5.351  2.8936  1.2630 -2.9476
  179MOL0     H24690   9.595   1.907   5.086  0.3476 -0.1200 -2.0053
  179MOL0     H24691   9.733   1.998   5.162  0.4564  0.0339  0.5863
  179MOL0     H24692   9.735   1.835   4.894 -2.2108  0.3106  0.0233
  179MOL0     H24693   9.880   1.900   4.980 -0.3177  0.8858 -2.4836
  179MOL0     H24694   9.645   2.055   4.879 -0.1778 -0.0254  2.4033
  179MOL0     H24695   9.758   2.125   4.983  0.4061 -0.2424 -1.1138
  179MOL0     H24696   9.831   2.023   4.708  2.1135  0.3197 -1.0395
  179MOL0     H24697   9.942   2.050   4.843 -1.5934  1.3752  2.8640
  179MOL0     H24698   9.842   2.444   4.684  2.1756  0.2608  0.8154
  179MOL0     H24699   9.923   1.651   5.264 -2.7184  1.2550 -3.2994
  179MOL0     H24700  10.086   1.583   5.370  1.5960 -0.9390  0.0348
  179MOL0     H24701  10.156   1.675   5.512 -1.9609  2.6914 -1.0532
  179MOL0     H24702  10.055   1.537   5.537 -0.3232 -0.5427 -0.5485
  180MOL0     O24703   8.679   7.401  11.119  0.3867  0.7059  0.2129
  180MOL0     C24704   8.606   7.428  11.219  0.7152 -0.1019 -0.5950
  180MOL0     O24705   8.502   7.518  11.232  0.0789 -0.1302  0.3026
  180MOL0     C24706   8.467   7.581  11.114 -0.4616 -0.2169  0.8940
  180MOL0     C24707   8.534   7.692  11.049  0.8218 -0.6677 -0.1804
  180MOL0     C24708   8.491   7.738  10.925  0.2756 -0.4958  1.2457
  180MOL0     C24709   8.374   7.689  10.868  0.2485  0.4247  0.7550
  180MOL0     O24710   8.335   7.745  10.743 -0.2153  0.5146  0.5136
  180MOL0     C24711   8.240   7.681  10.664  0.5699 -0.7600  0.6891
  180MOL0     C24712   8.101   7.747  10.672  0.0721 -0.3776  0.7523
  180MOL0     C24713   8.086   7.875  10.586 -0.3953 -0.1604 -0.6527
  180MOL0     C24714   8.103   8.000  10.681  0.4006 -0.0060  0.2710
  180MOL0     C24715   8.080   8.129  10.588 -0.3314  0.9344 -0.9383
  180MOL0     C24716   8.120   8.266  10.668  0.8595 -0.0685 -0.6999
  180MOL0     C24717   8.016   8.375  10.643 -0.3979  0.0080  0.0657
  180MOL0     C24718   8.055   8.511  10.717  0.8878 -0.4154  0.1596
  180MOL0     N24719   7.954   8.552  10.815  0.5509 -0.3842 -0.3676
  180MOL0     C24720   7.902   8.678  10.804  0.4968 -0.0304  0.5676
  180MOL0     C24721   7.832   8.697  10.923 -0.0815  0.3337 -0.4687
  180MOL0     C24722   7.754   8.811  10.982  0.2875  0.7749  0.6066
  180MOL0     C24723   7.609   8.818  10.942  0.3939 -0.2960 -1.2447
  180MOL0     C24724   7.581   8.895  10.810  1.6324 -0.8090 -0.0685
  180MOL0     C24725   7.428   8.897  10.785  0.0956  0.4419 -0.2398
  180MOL0     O24726   7.375   9.001  10.869  0.1620 -0.8313  0.4500
  180MOL0     C24727   7.296   9.097  10.801  0.2377 -0.8337 -0.1412
  180MOL0     C24728   7.244   9.098  10.671 -0.0519 -0.7306  0.7822
  180MOL0     C24729   7.187   9.213  10.606  0.1108 -0.4371 -0.6370
  180MOL0     C24730   7.179   9.189  10.459 -0.1049 -0.4085 -0.2242
  180MOL0     C24731   7.153   9.326  10.685 -0.4616 -0.7173 -0.3381
  180MOL0     C24732   7.095   9.444  10.622  0.3626  0.5154  0.6179
  180MOL0     O24733   7.040   9.536  10.712  0.1893 -0.1152 -0.1724
  180MOL0     C24734   7.008   9.665  10.665 -1.4906 -1.1175 -0.0853
  180MOL0     C24735   6.883   9.715  10.631 -0.0030  0.5104 -1.0658
  180MOL0     C24736   6.864   9.844  10.579 -0.7668 -0.6864  0.4324
  180MOL0     C24737   6.972   9.933  10.568  0.2735  0.3008 -0.5513
  180MOL0     O24738   6.935  10.067  10.553  0.2503  0.9534  0.1959
  180MOL0     C24739   7.032  10.172  10.512 -0.1044  0.6197  0.4057
  180MOL0     C24740   6.943  10.279  10.436  0.2464 -0.0865 -0.7950
  180MOL0     C24741   6.896  10.241  10.293 -1.2526  0.0190  0.1257
  180MOL0     C24742   6.842  10.357  10.213  0.1676  0.3046  0.3910
  180MOL0     C24743   6.708  10.409  10.258  1.0596  0.5258 -0.4788
  180MOL0     C24744   6.682  10.561  10.239  0.0843 -0.2586  0.1956
  180MOL0     C24745   6.561  10.610  10.319 -0.3278 -1.0385  0.1113
  180MOL0     C24746   6.575  10.765  10.336  0.1616  0.0806 -0.4540
  180MOL0    Cl24747   6.443  10.836  10.440  0.3460 -0.8930 -0.4487
  180MOL0     C24748   7.099   9.893  10.602 -0.3720  0.4029 -0.0417
  180MOL0     C24749   7.121   9.758  10.644  0.3372  0.2779  0.1582
  180MOL0     O24750   7.094   9.459  10.497  0.8428 -0.0386  0.2662
  180MOL0     C24751   7.202   9.330  10.818  0.2523  0.2885  0.6688
  180MOL0     C24752   7.275   9.220  10.874  0.3861 -0.3064 -0.0214
  180MOL0     N24753   7.848   8.581  11.000  0.1126  0.9375 -0.4249
  180MOL0     N24754   7.914   8.492  10.931  0.1363  0.0529 -0.1665
  180MOL0     C24755   8.307   7.592  10.937 -0.6267 -0.2674 -0.2411
  180MOL0     C24756   8.358   7.528  11.053  0.3440  0.3768  0.0946
  180MOL0     C24757   8.628   7.349  11.346  0.2646  0.4723  0.3226
  180MOL0     C24758   8.757   7.295  11.350 -0.6924 -0.0583  0.1680
  180MOL0     C24759   8.794   7.215  11.456  0.6357  0.0108  0.1046
  180MOL0     C24760   8.708   7.185  11.566  0.9846  0.2028  0.7374
  180MOL0     O24761   8.755   7.083  11.646 -0.4736 -0.9017  0.3404
  180MOL0     C24762   8.667   7.041  11.751  0.6783  0.3386 -0.1534
  180MOL0     C24763   8.726   6.928  11.836 -0.0272  0.1919  0.4017
  180MOL0     C24764   8.655   6.904  11.974  1.6251  0.0180  0.5350
  180MOL0     C24765   8.720   6.823  12.081  0.7295 -0.1268 -0.3110
  180MOL0     C24766   8.765   6.692  12.024  0.5211 -1.0052 -0.6618
  180MOL0     C24767   8.808   6.585  11.975  0.2581 -0.3681  1.0928
  180MOL0     C24768   8.575   7.230  11.555 -0.5433  0.5357  0.3167
  180MOL0     C24769   8.539   7.316  11.450  0.5633 -0.4102  0.2041
  180MOL0     C24770   8.386   7.356  11.444 -0.4803  0.2987  0.2527
  180MOL0     H24771   8.629   7.731  11.085 -0.3225  3.7890 -1.4093
  180MOL0     H24772   8.547   7.824  10.892 -2.0897  1.1386  1.2157
  180MOL0     H24773   8.241   7.574  10.685  0.2678 -0.4613  2.3526
  180MOL0     H24774   8.269   7.692  10.559 -0.7616 -3.4341 -0.0427
  180MOL0     H24775   8.026   7.677  10.635 -1.5816  0.9343  1.5072
  180MOL0     H24776   8.087   7.776  10.776  0.4072  2.1517  0.1589
  180MOL0     H24777   8.165   7.878  10.511 -2.0426 -0.6427 -2.5057
  180MOL0     H24778   7.989   7.871  10.535 -1.0529 -1.4334  0.6485
  180MOL0     H24779   8.028   7.999  10.761  1.4702 -1.3679  1.3208
  180MOL0     H24780   8.204   7.997  10.723  1.4566 -0.6633 -2.1434
  180MOL0     H24781   7.971   8.131  10.575 -0.5324  0.6828  0.5965
  180MOL0     H24782   8.130   8.115  10.491  1.2371 -0.5575  0.0461
  180MOL0     H24783   8.123   8.254  10.777 -0.3120  0.9825 -0.5193
  180MOL0     H24784   8.219   8.303  10.642  0.7742  1.9254  1.4713
  180MOL0     H24785   7.915   8.346  10.674  0.1467 -0.3035  1.6512
  180MOL0     H24786   8.009   8.399  10.537  3.5214  1.6839  0.0133
  180MOL0     H24787   8.147   8.503  10.776 -0.3304  2.4664  2.6930
  180MOL0     H24788   8.073   8.588  10.641  2.7427 -3.6707 -3.0507
  180MOL0     H24789   7.908   8.737  10.713  0.1228 -0.1937  0.4365
  180MOL0     H24790   7.804   8.906  10.957 -1.3929  1.1701 -1.5214
  180MOL0     H24791   7.759   8.792  11.090 -3.6143 -0.6217  0.6953
  180MOL0     H24792   7.567   8.718  10.932 -0.8814  0.2083 -1.1104
  180MOL0     H24793   7.573   8.874  11.028  3.9028 -0.9714  0.8619
  180MOL0     H24794   7.609   9.000  10.822  2.2421 -0.8608 -0.9127
  180MOL0     H24795   7.633   8.850  10.725 -0.3212 -2.2673 -0.5645
  180MOL0     H24796   7.396   8.898  10.680 -1.3692  3.7987  0.0794
  180MOL0     H24797   7.371   8.810  10.818 -0.9930  1.2742  0.1522
  180MOL0     H24798   7.251   9.009  10.609  1.2942 -0.4198  0.4393
  180MOL0     H24799   7.089   9.232  10.414  0.4696  1.8763  0.6708
  180MOL0     H24800   7.187   9.085  10.425 -0.7803 -0.1925 -1.0692
  180MOL0     H24801   7.266   9.237  10.413 -1.1185  1.5406 -0.1999
  180MOL0     H24802   6.793   9.658  10.650  1.1085 -0.8138  0.4669
  180MOL0     H24803   6.765   9.880  10.551 -1.3771  0.1456  3.3516
  180MOL0     H24804   7.075  10.210  10.604  2.1271 -1.8881  0.5172
  180MOL0     H24805   7.110  10.144  10.441 -0.5941  1.0655 -0.3274
  180MOL0     H24806   6.862  10.309  10.502 -1.1219  0.5811 -2.6869
  180MOL0     H24807   7.007  10.367  10.425 -0.8715  1.3368  2.6996
  180MOL0     H24808   6.815  10.168  10.302 -0.3920 -0.6673  3.7774
  180MOL0     H24809   6.981  10.197  10.241 -3.1203 -2.7110 -0.8196
  180MOL0     H24810   6.824  10.328  10.109 -0.4219  1.9885  0.0020
  180MOL0     H24811   6.921  10.432  10.202 -0.1306  0.4876 -0.6886
  180MOL0     H24812   6.624  10.352  10.215  1.8602 -0.1551 -1.1794
  180MOL0     H24813   6.692  10.392  10.365  0.1401 -0.8730 -0.8152
  180MOL0     H24814   6.666  10.582  10.133 -1.0802  1.4574  0.6701
  180MOL0     H24815   6.763  10.621  10.282 -0.7056  2.7357 -2.2281
  180MOL0     H24816   6.555  10.553  10.412 -0.2696  2.9485  2.8002
  180MOL0     H24817   6.485  10.582  10.245  1.1852 -2.2603 -1.0351
  180MOL0     H24818   6.581  10.825  10.244 -0.3896  0.6619 -0.1214
  180MOL0     H24819   6.668  10.797  10.384 -1.7840  5.1853  0.6021
  180MOL0     H24820   7.179   9.966  10.593  0.2336 -0.3968 -1.3203
  180MOL0     H24821   7.216   9.726  10.687  0.5684  1.8476  0.8858
  180MOL0     H24822   7.186   9.414  10.884 -0.8467 -1.2811  2.4884
  180MOL0     H24823   7.325   9.216  10.971 -2.4316  0.7483  1.6130
  180MOL0     H24824   8.221   7.538  10.898 -1.2573  1.2223 -1.0357
  180MOL0     H24825   8.305   7.442  11.092 -0.3552  0.0900 -1.3922
  180MOL0     H24826   8.836   7.318  11.280  1.3842 -0.5940  2.2126
  180MOL0     H24827   8.879   7.149  11.437 -1.9352 -2.7856 -2.7301
  180MOL0     H24828   8.659   7.132  11.811 -0.9053  1.3345 -1.7849
  180MOL0     H24829   8.568   7.011  11.713  0.5906  0.8223 -0.3090
  180MOL0     H24830   8.826   6.962  11.866  0.0252  2.6554 -2.1054
  180MOL0     H24831   8.735   6.843  11.768  1.6739  0.6542 -0.0055
  180MOL0     H24832   8.624   7.001  12.014  0.8034  0.4136 -0.9976
  180MOL0     H24833   8.564   6.851  11.946 -0.0613  2.5626  0.9414
  180MOL0     H24834   8.646   6.820  12.162  1.5913  0.6090  0.5187
  180MOL0     H24835   8.794   6.890  12.126 -1.1887  1.2184  1.0086
  180MOL0     H24836   8.855   6.497  11.935  3.1540  1.5941 -0.1718
  180MOL0     H24837   8.494   7.192  11.617 -3.0603 -1.8032 -3.8662
  180MOL0     H24838   8.379   7.451  11.497  2.9653  1.0252 -0.3589
  180MOL0     H24839   8.356   7.357  11.338  1.5494 -1.8964 -0.4307
  180MOL0     H24840   8.315   7.288  11.492  0.3798 -2.1736 -1.7230
  181MOL0     O24841   2.927   2.355  11.482 -0.1858  0.4778 -0.4094
  181MOL0     C24842   2.988   2.427  11.557 -0.6576 -0.3428 -1.0313
  181MOL0     O24843   3.110   2.498  11.528  0.4663  0.1910  0.5385
  181MOL0     C24844   3.174   2.467  11.411  1.0866  0.0546 -0.4325
  181MOL0     C24845   3.123   2.495  11.285  1.2156  0.1290 -0.2208
  181MOL0     C24846   3.206   2.466  11.165 -0.3154 -0.0632  0.2213
  181MOL0     C24847   3.342   2.440  11.187  0.0118 -0.1933 -0.0606
  181MOL0     O24848   3.432   2.444  11.087 -0.6647  0.4724 -0.1066
  181MOL0     C24849   3.407   2.384  10.954  0.9320  0.9972 -0.4278
  181MOL0     C24850   3.512   2.279  10.930  0.8331 -0.0105  0.7875
  181MOL0     C24851   3.529   2.250  10.784 -0.0479 -0.2616  0.3626
  181MOL0     C24852   3.572   2.111  10.756 -0.9707  0.0722  0.2095
  181MOL0     C24853   3.568   2.069  10.604  0.2277 -0.6519  0.7896
  181MOL0     C24854   3.424   2.098  10.541 -0.4229  0.5524 -0.6320
  181MOL0     C24855   3.409   2.009  10.413  0.2356 -0.7201 -0.2871
  181MOL0     C24856   3.288   2.055  10.322  0.1147  0.6418 -0.7857
  181MOL0     N24857   3.330   2.166  10.243 -0.6839 -0.7468  0.0922
  181MOL0     C24858   3.317   2.300  10.280 -0.8008 -0.4457 -0.2260
  181MOL0     C24859   3.410   2.360  10.193  0.1980 -0.5970 -0.9214
  181MOL0     C24860   3.455   2.510  10.177  0.3743  0.3017 -0.2841
  181MOL0     C24861   3.469   2.572  10.044  0.7055  0.2967 -0.1458
  181MOL0     C24862   3.519   2.710  10.052 -0.1738 -0.2643  0.6819
  181MOL0     C24863   3.545   2.754   9.906 -0.2894 -0.0663 -0.0984
  181MOL0     O24864   3.668   2.704   9.848  1.7247 -0.4767 -0.6871
  181MOL0     C24865   3.774   2.783   9.814  1.0744 -0.6813 -0.3577
  181MOL0     C24866   3.894   2.722   9.796  0.1236  0.7516  0.6255
  181MOL0     C24867   4.001   2.781   9.721 -0.0728 -0.4122 -0.7631
  181MOL0     C24868   4.119   2.690   9.698  0.4914  0.7146 -0.3986
  181MOL0     C24869   3.986   2.917   9.677  0.0473  0.3124 -0.5387
  181MOL0     C24870   4.108   2.990   9.622  0.8501  0.6767  0.1039
  181MOL0     O24871   4.097   3.118   9.637  0.5142  0.6593 -0.0427
  181MOL0     C24872   4.187   3.207   9.587  0.3040  0.4449 -0.7151
  181MOL0     C24873   4.143   3.344   9.597  0.8449  0.8733 -0.4513
  181MOL0     C24874   4.226   3.434   9.527 -0.5581 -0.1778 -0.6748
  181MOL0     C24875   4.354   3.406   9.476  0.3144  0.3772  0.0188
  181MOL0     O24876   4.428   3.518   9.444 -0.7912  0.0027 -0.2731
  181MOL0     C24877   4.425   3.553   9.302  0.5688 -0.0635 -0.4811
  181MOL0     C24878   4.546   3.485   9.238  0.0796  0.5033 -0.2013
  181MOL0     C24879   4.569   3.549   9.093 -1.3189 -0.6357 -0.2652
  181MOL0     C24880   4.703   3.515   9.042  0.5753 -1.0810  0.4269
  181MOL0     C24881   4.732   3.605   8.920  0.6352  0.0007  0.0721
  181MOL0     C24882   4.866   3.563   8.855  0.6319 -0.0955  0.4125
  181MOL0     C24883   4.908   3.677   8.760 -0.0331  0.8389  1.0366
  181MOL0     C24884   5.046   3.648   8.703  0.1952 -1.3398  0.0738
  181MOL0    Cl24885   5.162   3.663   8.848  0.1165  0.4278  0.4539
  181MOL0     C24886   4.403   3.276   9.494  0.8363 -0.2995  0.5063
  181MOL0     C24887   4.318   3.182   9.550 -0.0841  0.3000 -0.4608
  181MOL0     O24888   4.176   2.927   9.547 -1.3179 -0.7274 -0.1057
  181MOL0     C24889   3.863   2.976   9.694 -0.1222 -0.7840  0.8235
  181MOL0     C24890   3.756   2.911   9.757 -0.0946 -0.9467  0.3299
  181MOL0     N24891   3.471   2.261  10.112 -0.5395 -0.5326  0.2001
  181MOL0     N24892   3.423   2.146  10.142  0.3879 -0.4097 -0.2952
  181MOL0     C24893   3.400   2.431  11.310  0.5568 -0.7365 -1.0624
  181MOL0     C24894   3.311   2.432  11.424 -0.5650  0.2277  0.9242
  181MOL0     C24895   2.915   2.463  11.681 -0.5731  0.0384 -0.6058
  181MOL0     C24896   2.806   2.387  11.712  0.9222 -0.1157  0.4596
  181MOL0     C24897   2.735   2.394  11.835  0.3136  0.4765  1.2022
  181MOL0     C24898   2.759   2.505  11.915  0.3016  0.0862  0.3378
  181MOL0     O24899   2.701   2.529  12.037 -0.4216 -0.2252  0.6243
  181MOL0     C24900   2.588   2.457  12.081  0.0277 -0.1166  0.3894
  181MOL0     C24901   2.639   2.359  12.187  0.4150  0.2584  0.2330
  181MOL0     C24902   2.651   2.430  12.320 -0.5099 -0.3784  0.0257
  181MOL0     C24903   2.667   2.336  12.446 -0.2483 -0.2399 -0.1874
  181MOL0     C24904   2.784   2.248  12.445 -0.2478  0.6767  0.4398
  181MOL0     C24905   2.884   2.176  12.464  0.4488 -0.2516  0.3075
  181MOL0     C24906   2.873   2.587  11.886  0.1281  0.0704  0.0333
  181MOL0     C24907   2.949   2.569  11.774 -0.5843  0.0021  0.3722
  181MOL0     C24908   3.061   2.669  11.750 -1.3928  0.5020  0.5216
  181MOL0     H24909   3.016   2.510  11.280  0.6346 -2.8755  0.7237
  181MOL0     H24910   3.173   2.485  11.064 -0.9421  0.1717  0.4605
  181MOL0     H24911   3.423   2.459  10.877  0.7311 -0.4333 -1.9317
  181MOL0     H24912   3.309   2.334  10.959  1.4192  0.1395  2.5058
  181MOL0     H24913   3.611   2.305  10.967  2.1122 -1.0187 -1.6922
  181MOL0     H24914   3.496   2.184  10.981 -1.3737 -0.2763 -0.2898
  181MOL0     H24915   3.435   2.274  10.734  1.2910  0.7944 -1.8549
  181MOL0     H24916   3.603   2.312  10.730 -1.3806  1.7727  0.7599
  181MOL0     H24917   3.677   2.094  10.783 -0.2213 -0.1911 -2.6188
  181MOL0     H24918   3.520   2.033  10.813  1.6415 -1.4843  0.6514
  181MOL0     H24919   3.575   1.960  10.605  0.8496 -0.6471 -0.5054
  181MOL0     H24920   3.659   2.098  10.550  1.5581 -3.1264  1.5555
  181MOL0     H24921   3.349   2.071  10.616  0.9283 -0.7046  0.3468
  181MOL0     H24922   3.400   2.202  10.517  2.1749  1.1886 -0.8160
  181MOL0     H24923   3.403   1.903  10.440  1.4330 -0.3789  1.4955
  181MOL0     H24924   3.505   2.015  10.359  1.6961  0.3544  2.2599
  181MOL0     H24925   3.254   1.974  10.256  0.4677 -1.2006  1.2165
  181MOL0     H24926   3.198   2.078  10.379 -1.8984  0.6612 -3.7081
  181MOL0     H24927   3.245   2.341  10.350 -2.9592 -3.4670 -0.4758
  181MOL0     H24928   3.547   2.508  10.236  0.0491 -2.0891  0.2266
  181MOL0     H24929   3.389   2.568  10.241  0.0999 -1.0738  0.7133
  181MOL0     H24930   3.543   2.514   9.989  2.5148  3.5859 -1.4598
  181MOL0     H24931   3.367   2.576  10.003  0.0169 -0.2206  1.4189
  181MOL0     H24932   3.444   2.761  10.113 -0.6656 -2.3601  1.9181
  181MOL0     H24933   3.612   2.724  10.107 -1.1211  4.8901  1.4460
  181MOL0     H24934   3.459   2.727   9.844  0.4733 -2.2520 -0.3040
  181MOL0     H24935   3.538   2.863   9.902  0.3304 -0.0287 -0.2845
  181MOL0     H24936   3.897   2.624   9.843  2.0496  0.6899  0.4502
  181MOL0     H24937   4.221   2.727   9.713  1.8613 -2.5711 -0.6379
  181MOL0     H24938   4.096   2.645   9.601 -1.4848  0.9141 -0.0490
  181MOL0     H24939   4.101   2.605   9.764  0.5267 -0.9741 -2.4526
  181MOL0     H24940   4.055   3.388   9.641  2.0125  3.5986 -0.6679
  181MOL0     H24941   4.192   3.537   9.514 -0.3675 -0.3385 -2.9015
  181MOL0     H24942   4.330   3.527   9.253  0.9834  0.9465 -1.8997
  181MOL0     H24943   4.428   3.662   9.287 -1.7852  0.3323  1.2951
  181MOL0     H24944   4.635   3.503   9.297 -0.2088  1.8340 -0.1466
  181MOL0     H24945   4.528   3.378   9.223 -2.7446  0.8597  0.1386
  181MOL0     H24946   4.559   3.655   9.118  0.3700 -0.4016 -0.4587
  181MOL0     H24947   4.486   3.528   9.025 -1.2309  0.0934 -0.6023
  181MOL0     H24948   4.714   3.409   9.018  1.7698 -0.8611 -0.0822
  181MOL0     H24949   4.775   3.534   9.122  0.8497  0.8149 -0.2073
  181MOL0     H24950   4.651   3.585   8.849 -0.9226  0.0192  1.7384
  181MOL0     H24951   4.733   3.711   8.946  0.8744 -0.1436  0.6772
  181MOL0     H24952   4.860   3.468   8.801 -1.7858  0.5490 -0.6073
  181MOL0     H24953   4.942   3.558   8.933 -1.9982 -0.0312  3.1681
  181MOL0     H24954   4.923   3.773   8.813 -1.7293  0.5902  2.0325
  181MOL0     H24955   4.841   3.684   8.674  0.4655 -0.4330  0.5309
  181MOL0     H24956   5.069   3.723   8.626  1.3882 -0.6498  1.0648
  181MOL0     H24957   5.051   3.545   8.665  0.6375 -1.3492  0.1493
  181MOL0     H24958   4.499   3.241   9.459  0.5666 -3.7380  2.7025
  181MOL0     H24959   4.352   3.080   9.561 -1.4925 -0.0122  1.6547
  181MOL0     H24960   3.843   3.078   9.663  0.8833 -0.7428  0.2784
  181MOL0     H24961   3.660   2.961   9.753  0.4481  0.0084 -2.7171
  181MOL0     H24962   3.506   2.411  11.307  0.5182 -1.1237 -0.1298
  181MOL0     H24963   3.363   2.429  11.519  1.2392  1.2262  0.0296
  181MOL0     H24964   2.773   2.301  11.655  0.0007  2.3568 -3.0799
  181MOL0     H24965   2.663   2.318  11.865  0.2800  0.7879  1.9390
  181MOL0     H24966   2.513   2.527  12.117 -0.4784  0.6982 -2.0789
  181MOL0     H24967   2.536   2.407  11.999 -3.2895  1.9442  1.0484
  181MOL0     H24968   2.730   2.309  12.153 -0.4632 -1.7510  0.7329
  181MOL0     H24969   2.568   2.276  12.195  3.5258 -2.5942  0.4636
  181MOL0     H24970   2.735   2.499  12.308  1.0979 -1.9096  1.7828
  181MOL0     H24971   2.557   2.486  12.324  0.2273  0.8485  0.7779
  181MOL0     H24972   2.589   2.262  12.463 -0.3359 -0.4459 -1.4310
  181MOL0     H24973   2.679   2.398  12.536  2.0041 -0.1915 -0.4664
  181MOL0     H24974   2.973   2.119  12.481 -0.5923 -1.5206  1.7571
  181MOL0     H24975   2.900   2.664  11.957 -0.9217  1.0832 -0.6338
  181MOL0     H24976   3.071   2.760  11.811  0.1149  1.0139 -0.4258
  181MOL0     H24977   3.159   2.620  11.756 -1.3105  0.5825 -0.1408
  181MOL0     H24978   3.038   2.704  11.649 -2.0619 -0.1070  0.4596
  182MOL0     O24979   5.561   8.450   9.292 -0.5030 -0.3571 -0.0007
  182MOL0     C24980   5.590   8.382   9.194  1.1362  0.0826 -0.8370
  182MOL0     O24981   5.700   8.403   9.109 -0.8328 -0.0485 -0.8553
  182MOL0     C24982   5.767   8.523   9.117  0.3922  0.0335 -0.4507
  182MOL0     C24983   5.738   8.615   9.013 -0.5594  0.0877  0.1162
  182MOL0     C24984   5.792   8.746   9.017  0.5117  0.2296 -0.7915
  182MOL0     C24985   5.875   8.782   9.117 -0.4654  0.5835 -0.0180
  182MOL0     O24986   5.936   8.914   9.122  0.4665  0.1092  0.6703
  182MOL0     C24987   5.962   8.996   9.005  0.5086  0.1921  0.2412
  182MOL0     C24988   5.904   9.137   9.026  0.1496  0.1558  0.6644
  182MOL0     C24989   5.940   9.221   8.910 -0.4586  0.1569 -0.3433
  182MOL0     C24990   5.905   9.361   8.959  0.9517  0.6705 -0.9885
  182MOL0     C24991   5.916   9.475   8.856 -0.6898 -0.1623  0.6849
  182MOL0     C24992   5.845   9.606   8.886 -1.0084 -0.1749 -0.6358
  182MOL0     C24993   5.815   9.696   8.761  0.4216 -0.0995  0.4062
  182MOL0     C24994   5.744   9.832   8.800  0.3290  0.4349  0.0256
  182MOL0     N24995   5.685   9.902   8.681 -0.4893 -0.5046 -0.0239
  182MOL0     C24996   5.567   9.877   8.627  0.1851  0.2017 -0.3441
  182MOL0     C24997   5.553   9.973   8.533  0.3618 -0.3710  0.6600
  182MOL0     C24998   5.447   9.991   8.432  1.0026  1.1185  0.2488
  182MOL0     C24999   5.306   9.930   8.472 -0.2847 -0.2117  0.1915
  182MOL0     C25000   5.196   9.952   8.370  0.2973  0.1620  1.1199
  182MOL0     C25001   5.056   9.900   8.416  0.0753 -0.0801  0.2568
  182MOL0     O25002   5.007   9.822   8.305 -0.1763  0.2781 -0.2158
  182MOL0     C25003   4.875   9.796   8.299 -0.5157 -0.1777  0.1839
  182MOL0     C25004   4.771   9.845   8.384 -0.2771  0.4494  0.8433
  182MOL0     C25005   4.636   9.809   8.367 -0.1990 -0.0241  0.3388
  182MOL0     C25006   4.533   9.889   8.439 -0.1391 -0.1674  0.0792
  182MOL0     C25007   4.602   9.719   8.262 -0.1058 -0.2844  0.6603
  182MOL0     C25008   4.449   9.680   8.237 -0.6470  0.2557  0.0452
  182MOL0     O25009   4.434   9.614   8.118 -1.4891  0.6386  0.4005
  182MOL0     C25010   4.313   9.585   8.069  1.0671  1.0355  0.2666
  182MOL0     C25011   4.301   9.458   8.007 -0.1884  0.3065  0.0611
  182MOL0     C25012   4.184   9.427   7.939 -0.7475 -0.2171  0.2699
  182MOL0     C25013   4.072   9.502   7.952  0.2409 -0.2063 -0.4089
  182MOL0     O25014   3.953   9.450   7.886 -0.1679  0.2756 -0.0491
  182MOL0     C25015   3.836   9.429   7.972 -0.2060  0.9985  0.8760
  182MOL0     C25016   3.715   9.435   7.892  0.4151 -0.5922  0.7149
  182MOL0     C25017   3.673   9.301   7.846 -0.7442 -0.0036 -0.8784
  182MOL0     C25018   3.584   9.316   7.727  0.2068  0.7840 -0.8595
  182MOL0     C25019   3.513   9.177   7.705  0.4477  0.5577  0.5747
  182MOL0     C25020   3.411   9.121   7.813  0.4034  1.0699  0.3677
  182MOL0     C25021   3.276   9.204   7.842 -0.0629 -0.0618  0.4080
  182MOL0     C25022   3.191   9.206   7.715 -0.2101  0.5315 -0.0376
  182MOL0    Cl25023   3.023   9.271   7.765  0.4026  0.0309 -0.2552
  182MOL0     C25024   4.072   9.625   8.020 -0.1055  0.2626 -1.0164
  182MOL0     C25025   4.198   9.667   8.072  1.3544  0.1000  0.0648
  182MOL0     O25026   4.356   9.693   8.323  0.0863 -0.1075 -0.9345
  182MOL0     C25027   4.705   9.682   8.174  0.0717  1.0801 -0.1418
  182MOL0     C25028   4.836   9.715   8.199 -0.5324  0.1762  0.6613
  182MOL0     N25029   5.651  10.065   8.541  0.3018  0.4284 -0.3224
  182MOL0     N25030   5.732  10.029   8.637 -0.0819  0.0752 -0.3200
  182MOL0     C25031   5.905   8.696   9.226  0.4889 -0.4764  0.7525
  182MOL0     C25032   5.842   8.565   9.229  0.8555  0.5353  0.5819
  182MOL0     C25033   5.502   8.259   9.164 -0.1232  0.2426 -0.4396
  182MOL0     C25034   5.500   8.215   9.026 -0.1264  0.5666 -0.0884
  182MOL0     C25035   5.406   8.123   8.981 -0.4651 -0.7924  0.3966
  182MOL0     C25036   5.315   8.069   9.063 -0.2951 -0.6441 -0.0145
  182MOL0     O25037   5.214   7.984   9.027  0.3738  1.1103 -0.1611
  182MOL0     C25038   5.267   7.865   8.954  0.3402  0.5133 -0.3217
  182MOL0     C25039   5.153   7.763   8.918 -0.2598 -1.1380 -0.1515
  182MOL0     C25040   5.107   7.691   9.051  0.0934 -0.2817  0.7652
  182MOL0     C25041   4.980   7.619   9.024  0.8478  0.7748  0.0936
  182MOL0     C25042   4.967   7.544   8.903 -0.4988 -0.3062  0.4282
  182MOL0     C25043   4.966   7.489   8.797 -0.6710 -0.3976 -0.2410
  182MOL0     C25044   5.316   8.113   9.201  0.4065 -0.1947  0.3105
  182MOL0     C25045   5.406   8.205   9.249 -0.0251  0.6524  0.2062
  182MOL0     C25046   5.389   8.233   9.399 -1.9966  0.3462  0.3555
  182MOL0     H25047   5.688   8.567   8.930  0.9276 -1.9267  0.3009
  182MOL0     H25048   5.753   8.817   8.944 -1.8455 -0.2336 -0.0856
  182MOL0     H25049   5.909   8.958   8.917 -4.9060  0.6906  2.8736
  182MOL0     H25050   6.070   8.983   8.992  0.3562 -2.2847  0.9447
  182MOL0     H25051   5.796   9.121   9.028  0.2962 -0.9492  0.2658
  182MOL0     H25052   5.942   9.177   9.121  0.1791  2.0914 -0.1023
  182MOL0     H25053   6.046   9.223   8.881  0.4452 -0.9267  2.5266
  182MOL0     H25054   5.870   9.202   8.828 -0.9847  0.5920  0.0028
  182MOL0     H25055   5.798   9.368   8.985  1.6553  2.2352  2.0450
  182MOL0     H25056   5.953   9.392   9.053 -1.3898  0.7538  0.2645
  182MOL0     H25057   5.869   9.451   8.760 -0.6335  3.4767 -0.3884
  182MOL0     H25058   6.022   9.498   8.844 -0.7651 -0.4612 -0.6657
  182MOL0     H25059   5.748   9.602   8.936 -0.7412 -2.2007 -0.1860
  182MOL0     H25060   5.908   9.667   8.952 -0.9209  1.6821 -2.3483
  182MOL0     H25061   5.752   9.637   8.693  1.0175 -1.1486  0.7494
  182MOL0     H25062   5.915   9.706   8.718  0.3743 -1.3984 -0.0695
  182MOL0     H25063   5.653   9.802   8.853 -1.2102  0.9149 -2.1893
  182MOL0     H25064   5.804   9.893   8.868  0.6560  0.1840 -0.0313
  182MOL0     H25065   5.512   9.784   8.637  1.0540 -0.0761  3.0748
  182MOL0     H25066   5.472   9.949   8.334 -1.4280  1.6470 -0.6787
  182MOL0     H25067   5.429  10.096   8.409 -6.2395  0.4182  0.4971
  182MOL0     H25068   5.317   9.823   8.491 -2.5816 -0.7820 -1.2449
  182MOL0     H25069   5.281   9.988   8.561  3.4223  0.9570  0.6554
  182MOL0     H25070   5.193  10.052   8.326  0.2257 -1.0500 -1.8309
  182MOL0     H25071   5.227   9.883   8.291  0.0240  1.4710 -0.1731
  182MOL0     H25072   5.070   9.840   8.506  1.1718  0.8378  0.7223
  182MOL0     H25073   4.991   9.978   8.456 -3.2946 -3.2726  1.5912
  182MOL0     H25074   4.791   9.914   8.465  1.3176 -2.2140  2.9021
  182MOL0     H25075   4.493   9.826   8.518 -0.7868  1.4364  1.0678
  182MOL0     H25076   4.443   9.914   8.382 -0.7578 -0.5864  0.8530
  182MOL0     H25077   4.565   9.983   8.485 -0.3021 -0.8622  1.6826
  182MOL0     H25078   4.394   9.403   7.997  0.5878  1.2639  1.5749
  182MOL0     H25079   4.178   9.339   7.876  0.7096  0.0781 -0.3303
  182MOL0     H25080   3.839   9.327   8.009 -1.1311  0.6294 -0.0231
  182MOL0     H25081   3.837   9.504   8.051  2.1132  0.3676  1.5320
  182MOL0     H25082   3.636   9.490   7.944  2.6373  4.3145 -0.5124
  182MOL0     H25083   3.741   9.494   7.803  0.1343 -1.5845 -0.0422
  182MOL0     H25084   3.640   9.246   7.934 -0.2320  1.9773  0.6402
  182MOL0     H25085   3.755   9.247   7.799  1.0242  2.3783 -0.7321
  182MOL0     H25086   3.636   9.342   7.634  2.2333  4.0577  0.9582
  182MOL0     H25087   3.520   9.405   7.734  0.3672  1.0047 -1.9742
  182MOL0     H25088   3.453   9.185   7.613 -0.4321 -3.4630  0.6215
  182MOL0     H25089   3.588   9.101   7.683  0.0036  0.8976 -2.6366
  182MOL0     H25090   3.466   9.112   7.908  4.0498 -1.1933 -1.7312
  182MOL0     H25091   3.381   9.021   7.782 -1.6381  1.6263  0.4142
  182MOL0     H25092   3.297   9.307   7.872 -3.1223  0.4119  1.1884
  182MOL0     H25093   3.227   9.168   7.933 -1.5979  2.1113  0.4909
  182MOL0     H25094   3.194   9.101   7.684  3.7906 -1.0046  4.2748
  182MOL0     H25095   3.235   9.274   7.641  3.3608  0.8513  2.1183
  182MOL0     H25096   3.982   9.684   8.025  0.3607  0.8773  0.7872
  182MOL0     H25097   4.204   9.757   8.132 -0.3479 -2.2472  4.1363
  182MOL0     H25098   4.675   9.609   8.099  1.9139  1.5780 -1.4305
  182MOL0     H25099   4.902   9.663   8.130 -1.0488 -0.2516  0.4813
  182MOL0     H25100   5.972   8.721   9.308  2.4688  0.2278 -1.0093
  182MOL0     H25101   5.854   8.488   9.304  0.6949  0.2314  0.2972
  182MOL0     H25102   5.577   8.258   8.964  2.2620 -2.1302  0.7943
  182MOL0     H25103   5.394   8.107   8.874 -2.9124  5.2724 -0.6089
  182MOL0     H25104   5.314   7.898   8.861  3.3274  0.3098  0.9964
  182MOL0     H25105   5.356   7.823   9.003 -0.2241  1.0795  1.2450
  182MOL0     H25106   5.200   7.688   8.852  1.6814  0.9999 -1.3628
  182MOL0     H25107   5.060   7.805   8.880 -0.9631 -1.8273  0.7594
  182MOL0     H25108   5.172   7.608   9.079 -0.1129 -0.8435 -0.3504
  182MOL0     H25109   5.105   7.759   9.136  1.6422 -0.3176  0.8635
  182MOL0     H25110   4.896   7.689   9.026 -0.6602 -0.9246 -0.8336
  182MOL0     H25111   4.968   7.544   9.104 -0.7599 -1.4642 -2.0835
  182MOL0     H25112   4.944   7.442   8.703 -0.0155  0.2126 -0.7020
  182MOL0     H25113   5.233   8.070   9.256 -0.5202  0.1381 -0.7964
  182MOL0     H25114   5.311   8.174   9.448 -0.1209 -2.8459 -0.2006
  182MOL0     H25115   5.487   8.216   9.445 -1.5508  0.3573 -0.5526
  182MOL0     H25116   5.364   8.338   9.416 -0.4720  0.7021  0.6210
  183MOL0     O25117   7.758   7.326   3.567  0.4084  0.0883  0.4258
  183MOL0     C25118   7.748   7.270   3.458 -0.3606 -0.0672 -0.1326
  183MOL0     O25119   7.681   7.325   3.351 -0.5993  0.1717 -0.2615
  183MOL0     C25120   7.602   7.438   3.368  0.8475  0.5490  0.8707
  183MOL0     C25121   7.662   7.570   3.362 -0.4164 -0.7120  0.3660
  183MOL0     C25122   7.596   7.676   3.415  0.5245 -0.6252  0.6063
  183MOL0     C25123   7.465   7.661   3.464 -0.1114  1.0159 -1.3113
  183MOL0     O25124   7.394   7.755   3.533  0.3414  0.0948  0.2849
  183MOL0     C25125   7.342   7.861   3.452  0.4153 -0.1184  0.2015
  183MOL0     C25126   7.270   7.962   3.539 -0.8466 -0.8252 -0.1969
  183MOL0     C25127   7.152   7.908   3.617 -0.1049  0.3694 -0.0923
  183MOL0     C25128   7.076   8.012   3.704  0.3784  0.2171  1.4498
  183MOL0     C25129   7.163   8.085   3.804  1.3520 -0.8090 -0.3514
  183MOL0     C25130   7.067   8.172   3.877 -0.1301 -0.5513  0.1063
  183MOL0     C25131   7.140   8.243   3.992  1.1850  0.2760  0.8029
  183MOL0     C25132   7.251   8.341   3.963 -0.3511 -0.7109  0.9681
  183MOL0     N25133   7.377   8.280   4.004 -0.5669  0.2970 -0.2450
  183MOL0     C25134   7.400   8.250   4.134 -0.4532  1.1241 -0.0345
  183MOL0     C25135   7.527   8.214   4.141  0.1035  0.0193 -0.4227
  183MOL0     C25136   7.600   8.172   4.272  0.3698 -0.8002  0.2198
  183MOL0     C25137   7.679   8.289   4.299  0.4066 -1.6885 -0.1974
  183MOL0     C25138   7.803   8.248   4.387  1.0032 -0.3596  0.2565
  183MOL0     C25139   7.942   8.330   4.363  0.7311  0.5572  0.0277
  183MOL0     O25140   8.050   8.260   4.429 -0.6716 -0.2762  0.6184
  183MOL0     C25141   8.071   8.135   4.389  0.4787 -0.4434  0.9464
  183MOL0     C25142   8.049   8.032   4.474  0.5515  0.2281  0.7625
  183MOL0     C25143   8.082   7.892   4.446  0.2458 -0.4582  0.2666
  183MOL0     C25144   8.049   7.793   4.556  0.3872 -0.3310  0.6405
  183MOL0     C25145   8.120   7.855   4.314  0.6056  0.2110 -0.6115
  183MOL0     C25146   8.138   7.716   4.272 -0.7329  0.4669  0.2131
  183MOL0     O25147   8.141   7.690   4.141 -0.4817  0.5378 -0.0399
  183MOL0     C25148   8.167   7.558   4.090  0.4631 -0.3271  0.4483
  183MOL0     C25149   8.247   7.457   4.141  0.7316  0.3154  0.2746
  183MOL0     C25150   8.247   7.323   4.089  0.2768 -0.0381  0.2435
  183MOL0     C25151   8.160   7.285   3.987  0.3731  0.3600  0.2081
  183MOL0     O25152   8.126   7.162   3.934 -1.0678  0.5548  0.0570
  183MOL0     C25153   8.212   7.052   3.960 -0.1205 -1.0283 -0.0423
  183MOL0     C25154   8.180   6.930   3.885  0.0204  0.3719 -0.0517
  183MOL0     C25155   8.281   6.812   3.891  0.1667 -0.3290  0.0152
  183MOL0     C25156   8.210   6.682   3.890 -0.5563  0.0611  0.3389
  183MOL0     C25157   8.303   6.569   3.928  0.0447  0.4523 -0.2568
  183MOL0     C25158   8.241   6.431   3.964 -0.8663 -0.6725  0.0790
  183MOL0     C25159   8.216   6.351   3.841 -0.0512 -0.0635  0.4432
  183MOL0     C25160   8.134   6.229   3.889 -0.7684 -1.5581  0.2040
  183MOL0    Cl25161   8.209   6.136   4.017 -0.0134 -0.3360  0.0015
  183MOL0     C25162   8.081   7.388   3.931 -0.0528  0.0976  0.1311
  183MOL0     C25163   8.090   7.523   3.982 -0.2243 -0.1931  0.1051
  183MOL0     O25164   8.139   7.626   4.360  0.2772  0.6580  0.1536
  183MOL0     C25165   8.133   7.957   4.219  0.4298 -0.0629  0.3653
  183MOL0     C25166   8.113   8.094   4.259  0.1831 -0.1746  0.6010
  183MOL0     N25167   7.576   8.223   4.016  0.5738 -0.0118 -0.0338
  183MOL0     N25168   7.487   8.268   3.926 -0.2289  0.7339 -1.1777
  183MOL0     C25169   7.404   7.533   3.457  0.7498 -0.6565  0.9912
  183MOL0     C25170   7.473   7.420   3.414  0.2960 -0.9596  0.2978
  183MOL0     C25171   7.807   7.128   3.448  0.3091 -0.2199 -0.3953
  183MOL0     C25172   7.890   7.074   3.549 -0.5388  0.1197  0.0705
  183MOL0     C25173   7.964   6.953   3.540 -0.8039 -0.7534  0.4436
  183MOL0     C25174   7.962   6.879   3.414 -0.0947  0.3962 -0.2660
  183MOL0     O25175   8.044   6.773   3.394 -0.6252  0.2719 -0.3707
  183MOL0     C25176   8.172   6.765   3.446 -0.4622  0.6213  0.6428
  183MOL0     C25177   8.257   6.671   3.378 -0.2101 -0.1845 -0.2776
  183MOL0     C25178   8.217   6.516   3.381 -0.7273 -0.3393  0.0400
  183MOL0     C25179   8.167   6.470   3.519 -0.4153 -0.9707  0.1354
  183MOL0     C25180   8.096   6.343   3.518  0.3386  0.6636  0.2037
  183MOL0     C25181   8.050   6.223   3.518 -0.0673 -0.1951 -0.7924
  183MOL0     C25182   7.870   6.926   3.318  0.5961  0.2037  0.4126
  183MOL0     C25183   7.793   7.043   3.333 -0.7247 -0.1219 -0.4087
  183MOL0     C25184   7.700   7.068   3.217  0.2805  0.4397 -0.3652
  183MOL0     H25185   7.763   7.586   3.327 -0.3762 -1.8516 -0.0821
  183MOL0     H25186   7.634   7.775   3.438 -2.1748  0.1062  2.3674
  183MOL0     H25187   7.270   7.820   3.381  1.5065 -1.3396 -0.2505
  183MOL0     H25188   7.418   7.907   3.388  0.1029 -0.8909 -0.7593
  183MOL0     H25189   7.341   8.007   3.609 -0.1611  0.0431 -1.4055
  183MOL0     H25190   7.244   8.044   3.471  1.6319 -0.3170 -0.6343
  183MOL0     H25191   7.077   7.866   3.549 -1.3289  1.6967  0.3962
  183MOL0     H25192   7.176   7.832   3.692 -1.4153  1.6371  1.7193
  183MOL0     H25193   7.039   8.080   3.626 -2.6335 -1.0325  1.6600
  183MOL0     H25194   6.987   7.969   3.750 -0.6648 -2.6237 -2.6611
  183MOL0     H25195   7.245   8.147   3.765  2.1967 -1.8149 -0.1925
  183MOL0     H25196   7.215   8.017   3.872 -0.2596 -1.8930 -0.1482
  183MOL0     H25197   7.027   8.246   3.807  1.5379 -0.2944 -0.6450
  183MOL0     H25198   6.978   8.124   3.918  0.3844  0.4455  2.5518
  183MOL0     H25199   7.162   8.169   4.069 -0.0141 -0.8274  0.1120
  183MOL0     H25200   7.059   8.305   4.032 -0.6441 -0.6385 -1.2973
  183MOL0     H25201   7.240   8.380   3.862 -0.0009  1.0753  1.5872
  183MOL0     H25202   7.252   8.439   4.012  0.2484  0.0986 -0.6145
  183MOL0     H25203   7.333   8.251   4.219 -0.0311 -0.4856  0.3528
  183MOL0     H25204   7.664   8.084   4.257 -2.0329 -2.7166  0.7036
  183MOL0     H25205   7.527   8.161   4.352 -0.8798  3.6619 -0.0533
  183MOL0     H25206   7.718   8.335   4.207  0.0868  1.2682  1.0156
  183MOL0     H25207   7.625   8.367   4.353  2.0419 -1.0694  0.6163
  183MOL0     H25208   7.775   8.263   4.492 -2.0246  1.2480 -0.6644
  183MOL0     H25209   7.826   8.142   4.378 -1.1710 -0.9753  1.2054
  183MOL0     H25210   7.961   8.331   4.255  0.7383 -1.8845 -0.0500
  183MOL0     H25211   7.931   8.433   4.399 -0.0995 -0.1367  1.9076
  183MOL0     H25212   8.015   8.063   4.573 -0.2034 -1.6433  1.1298
  183MOL0     H25213   8.014   7.854   4.639  1.5071  1.8957 -0.4369
  183MOL0     H25214   8.136   7.732   4.581  0.4121 -1.8705 -2.6355
  183MOL0     H25215   7.965   7.727   4.529  0.2987 -0.3435  0.9461
  183MOL0     H25216   8.313   7.479   4.224  0.4310  2.8002 -0.0765
  183MOL0     H25217   8.297   7.246   4.146 -1.3972 -0.6275  0.9709
  183MOL0     H25218   8.311   7.074   3.920 -0.2319 -1.5314 -0.6083
  183MOL0     H25219   8.230   7.035   4.067  4.9027 -0.8509 -0.6068
  183MOL0     H25220   8.080   6.906   3.924 -0.7588  1.4746 -1.2605
  183MOL0     H25221   8.183   6.954   3.778  1.1387  2.7996  0.4679
  183MOL0     H25222   8.336   6.819   3.985 -0.5662  1.3372  0.3711
  183MOL0     H25223   8.357   6.824   3.813 -2.5106  2.3459 -2.4840
  183MOL0     H25224   8.168   6.660   3.791 -2.6676  0.5929  1.0586
  183MOL0     H25225   8.119   6.677   3.950  1.2935  0.3759  3.3485
  183MOL0     H25226   8.374   6.558   3.845 -1.2532 -0.8125 -1.2395
  183MOL0     H25227   8.368   6.597   4.012 -1.2556 -2.6221  1.9615
  183MOL0     H25228   8.156   6.440   4.031 -0.3314 -0.6790  0.7742
  183MOL0     H25229   8.317   6.380   4.024 -2.2298 -2.2536  0.5441
  183MOL0     H25230   8.311   6.333   3.790  1.4366  2.4651  2.0551
  183MOL0     H25231   8.155   6.412   3.773  0.4378  1.1731  1.0678
  183MOL0     H25232   8.117   6.157   3.808  1.7505 -0.3961 -1.4670
  183MOL0     H25233   8.038   6.265   3.927  0.0730 -0.5875  1.4823
  183MOL0     H25234   8.025   7.360   3.842  1.2015  0.4083 -0.7965
  183MOL0     H25235   8.030   7.592   3.924 -1.4010 -0.3032  1.1485
  183MOL0     H25236   8.153   7.929   4.116  1.6607 -0.3659  0.6749
  183MOL0     H25237   8.121   8.171   4.183  0.6759 -2.0492 -1.3429
  183MOL0     H25238   7.313   7.517   3.514  2.3346 -2.4590  3.1923
  183MOL0     H25239   7.438   7.318   3.423 -2.4780 -0.3236 -1.8855
  183MOL0     H25240   7.886   7.141   3.634 -1.4829  1.7537 -1.1987
  183MOL0     H25241   8.042   6.929   3.611  3.1216 -0.7060 -3.3861
  183MOL0     H25242   8.226   6.858   3.425  1.5464 -0.6019  0.1670
  183MOL0     H25243   8.171   6.748   3.554  4.0777  0.9094  0.9041
  183MOL0     H25244   8.353   6.692   3.426 -2.0527  4.0789  2.1312
  183MOL0     H25245   8.257   6.698   3.272  4.2187 -0.4587 -0.4933
  183MOL0     H25246   8.151   6.491   3.298 -0.7656  0.1187 -0.0671
  183MOL0     H25247   8.317   6.473   3.372 -0.4504  0.2748  0.1798
  183MOL0     H25248   8.084   6.528   3.559 -0.3245 -0.2568 -0.6836
  183MOL0     H25249   8.247   6.483   3.591 -1.3651  0.5129  0.9745
  183MOL0     H25250   8.012   6.123   3.521 -0.5981 -0.0193 -1.4275
  183MOL0     H25251   7.866   6.859   3.233 -1.5873  0.4784  0.2484
  183MOL0     H25252   7.598   7.101   3.240 -0.0525 -1.2464  0.7780
  183MOL0     H25253   7.728   7.159   3.162 -3.5051  1.1686 -1.3361
  183MOL0     H25254   7.692   6.974   3.161  0.0941  0.3418 -0.1742
  184MOL0     O25255   1.579   3.441   6.685 -0.5328  0.2046 -0.5535
  184MOL0     C25256   1.657   3.509   6.747  0.3945 -0.8844  0.2978
  184MOL0     O25257   1.659   3.646   6.726 -0.8783  0.0449  0.0408
  184MOL0     C25258   1.592   3.728   6.810  0.5550  0.1452  0.4466
  184MOL0     C25259   1.497   3.686   6.898  0.2181  0.2795  0.4922
  184MOL0     C25260   1.442   3.772   6.998 -0.9092  0.7493  0.3765
  184MOL0     C25261   1.470   3.903   6.994  0.0204 -1.2576 -0.2428
  184MOL0     O25262   1.402   3.979   7.086  0.2643 -1.1117 -0.7449
  184MOL0     C25263   1.441   4.116   7.115 -0.4623 -0.1562  0.1034
  184MOL0     C25264   1.345   4.183   7.211  0.2534 -0.0393 -0.1647
  184MOL0     C25265   1.414   4.235   7.347 -0.0136  0.0576 -0.1810
  184MOL0     C25266   1.553   4.287   7.314 -0.2145 -0.1699 -0.4530
  184MOL0     C25267   1.611   4.372   7.433  0.6563  0.0931  0.2374
  184MOL0     C25268   1.536   4.498   7.466 -0.3193 -0.8732  0.2300
  184MOL0     C25269   1.604   4.588   7.573  0.1393 -0.8632 -0.1927
  184MOL0     C25270   1.615   4.526   7.713  0.0211 -0.2243  0.9231
  184MOL0     N25271   1.495   4.529   7.790 -0.6855 -0.3379 -0.3950
  184MOL0     C25272   1.423   4.425   7.850  0.4164 -0.5024  0.2429
  184MOL0     C25273   1.322   4.484   7.922 -0.5411 -0.1801  0.2776
  184MOL0     C25274   1.237   4.402   8.020 -0.0212 -0.3180  0.2373
  184MOL0     C25275   1.237   4.253   8.006 -0.1392 -0.5978 -0.1954
  184MOL0     C25276   1.360   4.186   8.065  0.0929 -0.3423 -0.3132
  184MOL0     C25277   1.360   4.037   8.027  0.9030 -0.7053 -0.0375
  184MOL0     O25278   1.378   4.034   7.886 -0.1073 -0.6739  0.1996
  184MOL0     C25279   1.314   3.946   7.813 -0.9910  0.5313  0.7605
  184MOL0     C25280   1.272   3.985   7.687  0.4392  0.2277 -0.1479
  184MOL0     C25281   1.232   3.904   7.585 -0.4816  0.1110  1.0792
  184MOL0     C25282   1.216   3.960   7.448 -0.3717  0.3884 -1.1302
  184MOL0     C25283   1.212   3.762   7.616  0.2426  0.0401 -0.0346
  184MOL0     C25284   1.175   3.659   7.511 -0.3492 -0.2334  0.5330
  184MOL0     O25285   1.082   3.568   7.553  0.5826  0.5310  0.5953
  184MOL0     C25286   1.019   3.497   7.445 -0.0883  0.4548 -0.4608
  184MOL0     C25287   0.889   3.534   7.412  0.1032 -0.0131 -0.2336
  184MOL0     C25288   0.825   3.447   7.312 -0.1483 -0.0583  0.4705
  184MOL0     C25289   0.893   3.346   7.249  1.1965  0.0876 -0.3780
  184MOL0     O25290   0.825   3.284   7.146  0.3970  0.1331  0.0641
  184MOL0     C25291   0.850   3.138   7.120  0.1170  0.2346 -0.7925
  184MOL0     C25292   0.780   3.043   7.223 -0.1994  0.2624 -0.9319
  184MOL0     C25293   0.645   3.102   7.275 -1.1361 -0.7541  0.2189
  184MOL0     C25294   0.542   3.093   7.159  0.3875 -1.2000 -0.5278
  184MOL0     C25295   0.495   2.944   7.129 -0.0805  0.2583  0.4213
  184MOL0     C25296   0.353   2.946   7.057  0.2101  0.1897  0.2424
  184MOL0     C25297   0.347   3.042   6.936  0.8687 -0.5803  1.2752
  184MOL0     C25298   0.461   3.047   6.832 -0.0993  0.1273  1.2352
  184MOL0    Cl25299   0.448   2.898   6.723 -0.4163 -0.3893 -0.3429
  184MOL0     C25300   1.022   3.316   7.287  0.6855  0.1918  0.3541
  184MOL0     C25301   1.091   3.391   7.381  0.4133  0.4964 -1.6483
  184MOL0     O25302   1.220   3.677   7.390  0.9355 -0.1957 -0.5104
  184MOL0     C25303   1.245   3.724   7.746 -1.0106  0.3427 -0.1180
  184MOL0     C25304   1.302   3.811   7.848  0.1312 -0.1024 -0.3816
  184MOL0     N25305   1.348   4.619   7.908  0.0694  0.1453 -0.1896
  184MOL0     N25306   1.434   4.646   7.828 -0.0927  0.4297  0.2622
  184MOL0     C25307   1.559   3.954   6.904 -0.3183  0.2263  0.3307
  184MOL0     C25308   1.630   3.866   6.820  0.4797  1.2158  0.2667
  184MOL0     C25309   1.772   3.448   6.836 -0.0112  0.2357 -0.2789
  184MOL0     C25310   1.846   3.537   6.924  0.1746 -0.5589 -0.0778
  184MOL0     C25311   1.935   3.489   7.013 -0.2015  0.4685  0.2137
  184MOL0     C25312   1.973   3.358   7.010 -0.2115 -0.2307 -1.0948
  184MOL0     O25313   2.066   3.323   7.110  0.7043 -0.1025  0.7095
  184MOL0     C25314   2.051   3.182   7.144  0.5894  0.5487 -0.1805
  184MOL0     C25315   2.151   3.135   7.246 -0.5713 -0.9026 -0.0134
  184MOL0     C25316   2.113   3.161   7.396  0.8085  0.7087  0.5403
  184MOL0     C25317   2.039   3.042   7.461 -0.1885 -0.1319 -0.0532
  184MOL0     C25318   2.076   3.030   7.602 -0.1349 -1.1795  0.2148
  184MOL0     C25319   2.126   3.004   7.710 -0.7186 -0.1124 -0.7152
  184MOL0     C25320   1.907   3.268   6.921  0.3839  0.5994 -0.0126
  184MOL0     C25321   1.802   3.313   6.838 -0.7670 -0.1733 -0.9687
  184MOL0     C25322   1.737   3.211   6.744  0.3815  0.1724  0.5013
  184MOL0     H25323   1.466   3.583   6.909  2.1191 -0.0424  6.0086
  184MOL0     H25324   1.370   3.737   7.072 -1.3503 -0.7955 -0.7165
  184MOL0     H25325   1.443   4.166   7.017 -1.3379 -1.2165 -0.4754
  184MOL0     H25326   1.544   4.111   7.153 -0.3053  0.3861 -0.2355
  184MOL0     H25327   1.322   4.281   7.168 -4.0557 -0.5544  0.5443
  184MOL0     H25328   1.255   4.126   7.235 -1.5777  3.6930  3.1645
  184MOL0     H25329   1.345   4.308   7.391 -0.9052 -1.3601  0.8506
  184MOL0     H25330   1.427   4.163   7.429  3.8309 -0.0657 -0.7242
  184MOL0     H25331   1.631   4.211   7.308  1.6386  1.5569  0.3767
  184MOL0     H25332   1.543   4.347   7.223 -0.8489 -1.4910 -1.2734
  184MOL0     H25333   1.713   4.395   7.399  1.5940 -0.6715  2.3804
  184MOL0     H25334   1.631   4.311   7.522 -3.4636 -2.3733 -0.2862
  184MOL0     H25335   1.521   4.556   7.374  0.0191  2.5827  2.1977
  184MOL0     H25336   1.435   4.482   7.507  0.1572 -0.7285  1.4947
  184MOL0     H25337   1.550   4.683   7.581  2.4921  0.6647 -1.2254
  184MOL0     H25338   1.702   4.622   7.537 -0.8160  0.0843 -2.0165
  184MOL0     H25339   1.649   4.422   7.701  0.8662  0.0146  1.1790
  184MOL0     H25340   1.699   4.576   7.762 -0.9574  0.0219  2.3931
  184MOL0     H25341   1.435   4.318   7.845 -2.3334 -1.2728  4.5309
  184MOL0     H25342   1.135   4.440   8.027  1.1193  3.2412 -0.3820
  184MOL0     H25343   1.291   4.420   8.114  0.7975  3.5671 -0.7951
  184MOL0     H25344   1.152   4.211   8.059  1.6470 -2.0615  1.6822
  184MOL0     H25345   1.225   4.230   7.900  4.2392  1.5795 -1.4165
  184MOL0     H25346   1.460   4.217   8.033  0.3419 -1.1474 -0.3368
  184MOL0     H25347   1.357   4.209   8.172 -1.5954  0.1898 -0.4399
  184MOL0     H25348   1.443   3.981   8.070  0.0773 -1.1522  1.0212
  184MOL0     H25349   1.259   4.009   8.058  0.6600  2.0196  2.0713
  184MOL0     H25350   1.284   4.088   7.656  2.8846  1.5929  4.3901
  184MOL0     H25351   1.303   3.943   7.384  0.9437  1.4018  0.2971
  184MOL0     H25352   1.193   4.067   7.460  0.0075  0.3929 -0.3189
  184MOL0     H25353   1.123   3.920   7.409 -1.8269  2.1987  0.3057
  184MOL0     H25354   0.831   3.602   7.474  1.0649 -1.3478  2.2827
  184MOL0     H25355   0.724   3.468   7.277  0.7549  0.3629 -2.0716
  184MOL0     H25356   0.818   3.110   7.020 -0.5448 -0.3766 -0.4117
  184MOL0     H25357   0.954   3.107   7.107  0.1635  0.6885 -1.5677
  184MOL0     H25358   0.773   2.939   7.190 -1.1116  0.5753 -1.7905
  184MOL0     H25359   0.841   3.052   7.313  0.1084  0.0056 -1.1141
  184MOL0     H25360   0.646   3.208   7.301 -0.4486 -0.9513  1.0277
  184MOL0     H25361   0.613   3.058   7.369  1.4058  2.1380  2.6713
  184MOL0     H25362   0.580   3.143   7.069 -0.2637 -1.6072 -1.0367
  184MOL0     H25363   0.454   3.147   7.194 -0.0586 -0.6594 -2.3653
  184MOL0     H25364   0.569   2.906   7.058  0.0525  0.4536  0.4545
  184MOL0     H25365   0.497   2.893   7.226  1.5924 -0.0968  0.2286
  184MOL0     H25366   0.298   2.999   7.135  1.5746 -0.6901  1.8600
  184MOL0     H25367   0.312   2.847   7.038  0.1318  0.5056 -1.3491
  184MOL0     H25368   0.336   3.146   6.969 -0.9428  0.8787 -3.1856
  184MOL0     H25369   0.262   3.020   6.870  0.9207 -2.2386  1.7142
  184MOL0     H25370   0.561   3.052   6.876  0.8992  1.0630 -0.9557
  184MOL0     H25371   0.443   3.132   6.764  1.7847 -0.0857  0.4104
  184MOL0     H25372   1.067   3.231   7.237 -0.5485  0.5491 -1.4522
  184MOL0     H25373   1.196   3.375   7.403  0.2661  1.6458  0.1569
  184MOL0     H25374   1.244   3.617   7.766  2.6094  0.1012 -0.5821
  184MOL0     H25375   1.320   3.771   7.947  0.8778 -1.3363 -0.9905
  184MOL0     H25376   1.602   4.054   6.913 -0.0382 -0.0065  2.0309
  184MOL0     H25377   1.706   3.898   6.749  1.3086 -0.5675  0.2924
  184MOL0     H25378   1.826   3.644   6.919 -2.4679 -1.0273 -0.4597
  184MOL0     H25379   1.976   3.532   7.104 -0.4984  1.1907  0.0138
  184MOL0     H25380   1.952   3.164   7.185  0.5043  0.8344 -0.2570
  184MOL0     H25381   2.077   3.113   7.064  0.4825  1.0170 -0.6214
  184MOL0     H25382   2.248   3.182   7.225  0.0174 -2.2331 -0.3803
  184MOL0     H25383   2.169   3.028   7.232  1.5660 -0.9313  2.2189
  184MOL0     H25384   2.209   3.178   7.447  0.3411 -4.5839  3.8692
  184MOL0     H25385   2.046   3.247   7.399 -1.8478 -1.1323 -1.3538
  184MOL0     H25386   2.078   2.952   7.412  0.5293  0.3030 -0.3016
  184MOL0     H25387   1.931   3.058   7.455  0.1208  1.8490 -1.3661
  184MOL0     H25388   2.180   2.983   7.800 -2.6799 -1.5436  0.2132
  184MOL0     H25389   1.918   3.160   6.927 -3.5190  0.0040 -0.8776
  184MOL0     H25390   1.786   3.114   6.743 -0.3857 -0.2662 -2.0087
  184MOL0     H25391   1.634   3.207   6.778 -0.8035  3.4169 -2.1323
  184MOL0     H25392   1.732   3.241   6.639 -2.4732 -1.9163 -0.0593
  185MOL0     O25393   5.482   0.891   0.275  0.6124  0.2571  0.4422
  185MOL0     C25394   5.420   0.802   0.332  0.8417 -0.2114 -0.5179
  185MOL0     O25395   5.451   0.740   0.453  0.6951 -0.8091 -0.2537
  185MOL0     C25396   5.555   0.779   0.524  0.5973 -0.6055 -0.2459
  185MOL0     C25397   5.526   0.823   0.657 -0.5768 -0.5059 -0.4775
  185MOL0     C25398   5.620   0.859   0.756 -0.1468 -0.4555 -0.4129
  185MOL0     C25399   5.754   0.878   0.718 -0.1324 -0.3120 -0.5437
  185MOL0     O25400   5.840   0.927   0.822 -0.3546  0.1170 -0.2182
  185MOL0     C25401   5.969   0.876   0.833 -0.2259 -0.6604 -0.3839
  185MOL0     C25402   5.970   0.724   0.853  0.1160 -0.3309 -0.1343
  185MOL0     C25403   6.102   0.666   0.903 -0.4715 -0.2989  0.0162
  185MOL0     C25404   6.113   0.519   0.885  0.5355  0.7442 -0.2690
  185MOL0     C25405   6.237   0.459   0.963 -0.2164  0.6933 -0.0959
  185MOL0     C25406   6.281   0.322   0.905  0.0484  0.1685 -0.5319
  185MOL0     C25407   6.422   0.291   0.959 -0.6883 -0.8063 -0.6299
  185MOL0     C25408   6.474   0.179   0.876  0.0660 -0.3149 -0.2076
  185MOL0     N25409   6.514   0.195   0.732  0.1161 -0.0930  0.2445
  185MOL0     C25410   6.447   0.132   0.632 -0.1133  0.1729  0.1667
  185MOL0     C25411   6.483   0.187   0.518 -0.1824  0.4065  0.3436
  185MOL0     C25412   6.440   0.126   0.380 -0.1979  0.0575 -0.0909
  185MOL0     C25413   6.320   0.022   0.385 -0.0649 -0.3159  0.3400
  185MOL0     C25414   6.187   0.082   0.432 -0.1405 -0.7256  0.5225
  185MOL0     C25415   6.079  -0.027   0.426  0.5532  0.7084 -0.9569
  185MOL0     O25416   6.105  -0.135   0.516 -0.1106 -0.0935 -0.0068
  185MOL0     C25417   6.114  -0.107   0.649 -0.3983  0.8317 -0.9984
  185MOL0     C25418   6.202  -0.186   0.721 -1.2350  0.1651  0.3486
  185MOL0     C25419   6.231  -0.166   0.855  0.2912  0.4087  0.3877
  185MOL0     C25420   6.334  -0.261   0.918 -0.7680 -0.7639  0.1090
  185MOL0     C25421   6.167  -0.062   0.925 -0.0394  0.7153 -0.0021
  185MOL0     C25422   6.184  -0.020   1.066 -0.2254  0.6015  0.0570
  185MOL0     O25423   6.293  -0.041   1.139 -0.1058 -0.4132  0.6229
  185MOL0     C25424   6.293  -0.009   1.275  0.0301 -0.1390  0.1550
  185MOL0     C25425   6.350   0.118   1.317  0.1306 -0.0031 -0.2777
  185MOL0     C25426   6.347   0.151   1.446  0.1718 -0.2988  1.4112
  185MOL0     C25427   6.304   0.063   1.542  0.5596  0.9437 -0.2318
  185MOL0     O25428   6.315   0.123   1.658 -0.8733 -0.1723 -0.6875
  185MOL0     C25429   6.305   0.039   1.775 -0.2723 -0.4339 -0.5241
  185MOL0     C25430   6.393   0.091   1.889  0.7261  1.0172  0.1439
  185MOL0     C25431   6.396   0.000   2.007  1.0605  0.0620  0.5842
  185MOL0     C25432   6.490   0.037   2.115 -0.1977  0.3690  0.2912
  185MOL0     C25433   6.517  -0.086   2.202 -0.8697 -0.4299  0.1131
  185MOL0     C25434   6.590  -0.050   2.330 -0.0680 -0.1176 -0.5784
  185MOL0     C25435   6.600  -0.184   2.406  0.7614  0.1548 -0.6374
  185MOL0     C25436   6.649  -0.166   2.549 -0.7387 -0.0313 -0.1128
  185MOL0    Cl25437   6.526  -0.097   2.667 -0.2427 -0.0964 -0.5307
  185MOL0     C25438   6.256  -0.060   1.508  0.3130  0.1968  0.2223
  185MOL0     C25439   6.247  -0.095   1.369 -0.5349  0.6947  0.5923
  185MOL0     O25440   6.080   0.020   1.110 -0.3291  0.1958 -0.6185
  185MOL0     C25441   6.073   0.019   0.854  0.1471 -0.0636  1.0181
  185MOL0     C25442   6.055  -0.002   0.716  0.9700 -1.2087  0.3881
  185MOL0     N25443   6.586   0.280   0.545 -0.0861  0.9135 -0.9166
  185MOL0     N25444   6.606   0.281   0.678 -0.1966 -0.7191  0.0223
  185MOL0     C25445   5.785   0.841   0.582 -0.9738 -0.4340 -0.0313
  185MOL0     C25446   5.689   0.776   0.495  0.0684 -0.3750  0.6104
  185MOL0     C25447   5.284   0.769   0.278  0.8234 -0.5326 -0.6040
  185MOL0     C25448   5.195   0.701   0.362 -0.2940  0.3082 -0.2915
  185MOL0     C25449   5.064   0.666   0.327  0.9036  0.4199 -0.3590
  185MOL0     C25450   5.023   0.678   0.201  0.7660 -0.5674  0.2367
  185MOL0     O25451   4.895   0.626   0.180 -0.8587 -0.1745  0.1196
  185MOL0     C25452   4.798   0.724   0.143 -0.0180 -1.2867 -0.0920
  185MOL0     C25453   4.669   0.682   0.213  0.0299 -0.2688  0.9578
  185MOL0     C25454   4.673   0.688   0.364  0.2085  0.6942  0.5015
  185MOL0     C25455   4.541   0.611   0.423 -0.2932  0.0202 -0.3639
  185MOL0     C25456   4.421   0.685   0.411 -0.4131  0.3461 -0.7433
  185MOL0     C25457   4.320   0.752   0.396 -0.0065  0.0712  0.2721
  185MOL0     C25458   5.114   0.733   0.107  0.3493  0.5829  0.0072
  185MOL0     C25459   5.243   0.785   0.146 -0.1609  0.7719 -1.2228
  185MOL0     C25460   5.330   0.824   0.043 -0.2271  0.1982 -0.2773
  185MOL0     H25461   5.422   0.842   0.683  0.6632  2.5439  3.3008
  185MOL0     H25462   5.587   0.881   0.856 -1.2359 -0.4845 -0.7551
  185MOL0     H25463   6.007   0.924   0.924 -0.6814  1.9880 -1.5001
  185MOL0     H25464   6.038   0.904   0.753  1.3162  2.9644  1.9842
  185MOL0     H25465   5.895   0.679   0.919 -0.2519 -0.0854 -0.3788
  185MOL0     H25466   5.952   0.688   0.750  0.8935 -0.5761 -0.1900
  185MOL0     H25467   6.182   0.709   0.843 -0.2530 -2.7543 -1.5535
  185MOL0     H25468   6.104   0.694   1.009 -1.5870 -0.0938  0.0003
  185MOL0     H25469   6.023   0.468   0.922  1.8753 -3.5237 -2.2562
  185MOL0     H25470   6.127   0.491   0.780  2.5999  0.6271 -0.0059
  185MOL0     H25471   6.217   0.455   1.071  2.0519 -1.6078  0.3367
  185MOL0     H25472   6.322   0.528   0.967  0.0601  0.3555 -0.0925
  185MOL0     H25473   6.220   0.236   0.935 -0.1498  0.0073 -1.3628
  185MOL0     H25474   6.270   0.335   0.797  1.4528 -0.2900 -0.7493
  185MOL0     H25475   6.418   0.251   1.061  1.5732  0.3832 -0.0204
  185MOL0     H25476   6.491   0.376   0.957  1.8190 -2.7008  0.1003
  185MOL0     H25477   6.572   0.159   0.922  0.9143 -0.3098 -1.9430
  185MOL0     H25478   6.408   0.094   0.894  2.0583 -1.4602  2.4819
  185MOL0     H25479   6.382   0.047   0.647  1.5607 -1.4763 -1.4632
  185MOL0     H25480   6.526   0.067   0.347  0.2629 -0.6134  2.1286
  185MOL0     H25481   6.432   0.210   0.310  1.0531  0.2640 -0.0153
  185MOL0     H25482   6.308  -0.036   0.293  1.4576  2.4721 -1.7553
  185MOL0     H25483   6.357  -0.054   0.455 -0.2107  0.2621  1.0547
  185MOL0     H25484   6.185   0.134   0.528 -1.8737  1.1324 -0.4320
  185MOL0     H25485   6.168   0.163   0.360  0.3739  1.7418  2.9793
  185MOL0     H25486   5.986   0.025   0.452  0.8097 -0.1633  2.0518
  185MOL0     H25487   6.065  -0.074   0.328 -2.5672 -3.4882  1.1896
  185MOL0     H25488   6.255  -0.267   0.673  0.5021  1.2037  0.4212
  185MOL0     H25489   6.285  -0.332   0.986  1.8230 -2.7914  0.0066
  185MOL0     H25490   6.416  -0.205   0.965 -1.3931 -0.7807  1.2649
  185MOL0     H25491   6.382  -0.329   0.848  0.7148 -0.1974  0.5269
  185MOL0     H25492   6.382   0.185   1.239  0.5923  0.1924  0.0757
  185MOL0     H25493   6.377   0.254   1.464  1.0962 -0.5948  1.6255
  185MOL0     H25494   6.203   0.041   1.814 -0.0466  0.9516  0.0586
  185MOL0     H25495   6.319  -0.069   1.760  1.1027 -0.4785  0.8725
  185MOL0     H25496   6.495   0.087   1.849 -0.1480 -1.7482 -2.0577
  185MOL0     H25497   6.363   0.191   1.923  0.0310  1.2048 -1.0032
  185MOL0     H25498   6.406  -0.099   1.962 -1.6860  0.0267 -0.1189
  185MOL0     H25499   6.299  -0.003   2.058  0.3565  0.5149 -0.6816
  185MOL0     H25500   6.443   0.120   2.169  0.3627 -1.2461  3.4544
  185MOL0     H25501   6.587   0.062   2.072  1.7909 -0.6401  3.8736
  185MOL0     H25502   6.420  -0.130   2.229 -0.1679 -0.4147  2.9371
  185MOL0     H25503   6.586  -0.148   2.143  2.0319  2.9873 -0.4259
  185MOL0     H25504   6.525   0.023   2.379  2.1439  0.0677  2.3165
  185MOL0     H25505   6.689  -0.006   2.316 -1.7784  3.7165 -1.7852
  185MOL0     H25506   6.670  -0.251   2.355 -1.4488 -2.0819 -0.9412
  185MOL0     H25507   6.508  -0.245   2.409  0.3178  0.8518  0.6223
  185MOL0     H25508   6.738  -0.102   2.543  1.4932 -3.0151 -1.7665
  185MOL0     H25509   6.669  -0.264   2.593 -2.4608 -0.7407 -0.8503
  185MOL0     H25510   6.233  -0.133   1.586  2.4048 -2.2474 -1.2958
  185MOL0     H25511   6.220  -0.194   1.333 -1.2814  0.8456  0.7401
  185MOL0     H25512   6.019   0.101   0.899  2.4411  0.7361  2.5055
  185MOL0     H25513   5.978   0.047   0.658  1.1794 -1.1173  0.1860
  185MOL0     H25514   5.886   0.861   0.548 -1.4694  2.0453 -0.2325
  185MOL0     H25515   5.732   0.730   0.406 -1.0463 -0.3981  0.0665
  185MOL0     H25516   5.216   0.690   0.468  0.6909  3.2082 -0.1124
  185MOL0     H25517   5.001   0.641   0.412  1.3062 -0.1325 -0.2203
  185MOL0     H25518   4.830   0.819   0.184  0.9247 -1.0769 -1.2476
  185MOL0     H25519   4.780   0.728   0.035  0.6724 -2.4678 -0.2649
  185MOL0     H25520   4.641   0.580   0.185  0.2957 -0.0934  0.0114
  185MOL0     H25521   4.587   0.746   0.180 -1.3720 -2.1450  0.6367
  185MOL0     H25522   4.768   0.651   0.406  0.9582  0.6472 -1.1749
  185MOL0     H25523   4.659   0.792   0.395 -0.7164 -0.3035  3.9845
  185MOL0     H25524   4.562   0.591   0.528  3.0580  0.3400 -0.8658
  185MOL0     H25525   4.537   0.509   0.383  3.1426 -0.3467 -0.0539
  185MOL0     H25526   4.235   0.815   0.377 -0.8254 -0.9625  0.3910
  185MOL0     H25527   5.086   0.753   0.005 -0.1405  0.2274  0.0715
  185MOL0     H25528   5.355   0.930   0.053 -0.3964  0.1004  1.5422
  185MOL0     H25529   5.422   0.765   0.040 -1.9209 -3.4767  5.3240
  185MOL0     H25530   5.294   0.803  -0.059  1.2701 -1.8294 -0.4548
  186MOL0     O25531   0.117   5.916   6.310 -0.1164 -0.2494 -0.1740
  186MOL0     C25532  -0.006   5.922   6.291 -0.4129  0.8990 -0.0707
  186MOL0     O25533  -0.070   5.895   6.179 -0.0998 -0.0434 -0.2494
  186MOL0     C25534   0.004   5.852   6.074  0.0711  0.4293  0.7988
  186MOL0     C25535   0.044   5.717   6.064  1.1575  0.0823 -0.4583
  186MOL0     C25536   0.128   5.677   5.955  0.3999 -0.3257  0.0453
  186MOL0     C25537   0.153   5.763   5.853 -0.7554 -0.1839 -0.1637
  186MOL0     O25538   0.223   5.745   5.741 -0.2690  0.3435 -0.1836
  186MOL0     C25539   0.332   5.649   5.733  0.4313  0.1493  0.0465
  186MOL0     C25540   0.361   5.619   5.582  0.2690  0.1397 -0.5952
  186MOL0     C25541   0.443   5.733   5.524  0.5613 -0.5496 -0.7847
  186MOL0     C25542   0.588   5.722   5.562  0.6980  0.5901 -0.3400
  186MOL0     C25543   0.681   5.848   5.555  1.4205  0.3356  0.3175
  186MOL0     C25544   0.700   5.880   5.409 -0.2288  0.5189  1.1462
  186MOL0     C25545   0.806   5.989   5.392  0.0247 -1.1355  0.2763
  186MOL0     C25546   0.938   5.965   5.465  0.3361  1.0215  0.3685
  186MOL0     N25547   1.010   5.865   5.392  0.7289  0.1664  0.6203
  186MOL0     C25548   1.088   5.884   5.278  0.7691 -1.1444 -0.1154
  186MOL0     C25549   1.160   5.775   5.262  0.1491 -0.1311  0.8734
  186MOL0     C25550   1.221   5.744   5.126 -0.4651 -0.3039 -0.4374
  186MOL0     C25551   1.255   5.591   5.115 -0.7270  0.0653 -0.2427
  186MOL0     C25552   1.346   5.569   4.982  0.1527  0.2333 -0.4319
  186MOL0     C25553   1.359   5.416   4.960 -0.6565  0.3951 -0.0305
  186MOL0     O25554   1.236   5.353   4.918 -0.4474  0.4715  0.1534
  186MOL0     C25555   1.158   5.391   4.818  0.6621 -0.9188 -0.4986
  186MOL0     C25556   1.026   5.360   4.840 -0.0496 -0.4801  0.6479
  186MOL0     C25557   0.923   5.394   4.751 -0.4126  0.3269  0.6936
  186MOL0     C25558   0.786   5.350   4.781  0.4652 -0.4950  0.4737
  186MOL0     C25559   0.961   5.464   4.627 -0.0412  0.1000  0.7556
  186MOL0     C25560   0.875   5.501   4.521 -0.5293  0.1488 -0.4551
  186MOL0     O25561   0.930   5.575   4.425 -0.0590 -0.1415 -0.2649
  186MOL0     C25562   0.848   5.609   4.315 -0.0846  0.9264 -0.1679
  186MOL0     C25563   0.773   5.725   4.323  0.5645  0.5938  0.2334
  186MOL0     C25564   0.706   5.774   4.209  0.6010 -0.3093 -0.0641
  186MOL0     C25565   0.717   5.693   4.099  0.1140 -0.7641  0.0002
  186MOL0     O25566   0.659   5.748   3.984 -0.0716  0.2527 -0.4148
  186MOL0     C25567   0.518   5.735   3.986 -0.2288  0.7487 -0.0290
  186MOL0     C25568   0.451   5.747   3.847  0.0617  0.0478  0.9336
  186MOL0     C25569   0.414   5.612   3.777  0.1346  0.6812  0.6623
  186MOL0     C25570   0.545   5.533   3.761 -0.6426  0.1928  0.4570
  186MOL0     C25571   0.526   5.413   3.670  0.0307 -0.3728 -0.7510
  186MOL0     C25572   0.489   5.432   3.525 -0.5064  0.4528  0.0077
  186MOL0     C25573   0.552   5.544   3.439  0.7481 -0.7196 -0.2157
  186MOL0     C25574   0.627   5.494   3.316  0.2812  0.3877 -0.5338
  186MOL0    Cl25575   0.519   5.396   3.219 -0.4505 -0.5835 -0.2492
  186MOL0     C25576   0.794   5.581   4.085 -0.4322  0.3728 -0.0771
  186MOL0     C25577   0.858   5.532   4.200 -0.3099 -0.1460  0.4932
  186MOL0     O25578   0.752   5.474   4.530 -0.4913  0.5515 -0.1088
  186MOL0     C25579   1.094   5.500   4.599 -0.7557  0.5437  0.0795
  186MOL0     C25580   1.196   5.462   4.701 -0.2910  0.1890  0.9577
  186MOL0     N25581   1.124   5.684   5.363 -0.4753 -0.2130  0.3030
  186MOL0     N25582   1.027   5.738   5.435 -0.3349  0.1430  0.5096
  186MOL0     C25583   0.106   5.897   5.855 -0.1647  0.4438 -0.1661
  186MOL0     C25584   0.038   5.941   5.970  0.0407 -0.4431  0.6259
  186MOL0     C25585  -0.107   5.958   6.407  0.4071  0.1457  0.3157
  186MOL0     C25586  -0.238   6.002   6.380 -0.3313  0.9045 -0.8669
  186MOL0     C25587  -0.328   6.021   6.490 -1.3558 -0.3594  1.0100
  186MOL0     C25588  -0.293   5.990   6.621 -0.2129 -0.0452 -0.4945
  186MOL0     O25589  -0.380   5.991   6.728 -0.4801 -0.2084  0.4057
  186MOL0     C25590  -0.524   6.016   6.718  0.3725  0.5539 -0.4839
  186MOL0     C25591  -0.565   6.101   6.847  0.2840 -0.0598 -0.5219
  186MOL0     C25592  -0.510   6.238   6.837  0.9566 -0.2462  0.3179
  186MOL0     C25593  -0.573   6.323   6.946  0.6560  0.5658  0.1107
  186MOL0     C25594  -0.508   6.454   6.945  0.0080  0.0269 -0.2163
  186MOL0     C25595  -0.449   6.556   6.961  0.6782 -1.0304 -0.2510
  186MOL0     C25596  -0.162   5.948   6.649  0.4198 -0.7071  0.4625
  186MOL0     C25597  -0.064   5.932   6.546  0.0704  0.1742  0.0096
  186MOL0     C25598   0.069   5.876   6.584 -0.4293 -0.3401  0.1305
  186MOL0     H25599   0.012   5.647   6.140 -2.9454  3.1584  0.9949
  186MOL0     H25600   0.162   5.574   5.954  2.2671  0.2456 -0.4474
  186MOL0     H25601   0.297   5.552   5.770  1.9131 -0.7213 -0.7723
  186MOL0     H25602   0.416   5.679   5.797  0.4447  1.4014 -0.5291
  186MOL0     H25603   0.412   5.523   5.579  2.0698  0.9470  1.7963
  186MOL0     H25604   0.275   5.607   5.515  1.7793  0.1599 -2.6542
  186MOL0     H25605   0.432   5.740   5.416 -3.1933  1.1491 -0.4641
  186MOL0     H25606   0.408   5.833   5.552  3.5163  0.8378 -1.6793
  186MOL0     H25607   0.585   5.679   5.663  0.5899  0.7871 -0.2607
  186MOL0     H25608   0.632   5.646   5.497 -0.9994 -1.1583  0.4580
  186MOL0     H25609   0.780   5.829   5.598  1.6996 -0.4987 -0.6529
  186MOL0     H25610   0.617   5.923   5.603 -2.4641 -2.4631 -0.0241
  186MOL0     H25611   0.746   5.797   5.355  1.4221  2.8168 -1.2842
  186MOL0     H25612   0.609   5.915   5.360  1.6105  4.0281 -0.1234
  186MOL0     H25613   0.761   6.080   5.433  0.6256 -1.1082  0.9022
  186MOL0     H25614   0.826   6.017   5.289  0.6209  2.6481  1.2799
  186MOL0     H25615   0.986   6.063   5.469 -3.9513  3.6823 -3.2320
  186MOL0     H25616   0.933   5.945   5.572  4.2921  2.0136  0.9021
  186MOL0     H25617   1.081   5.968   5.209 -2.3228 -1.2333 -0.0626
  186MOL0     H25618   1.315   5.798   5.107 -0.1239 -0.8232 -0.2398
  186MOL0     H25619   1.157   5.767   5.040 -0.9178  0.2014  0.0207
  186MOL0     H25620   1.308   5.567   5.207 -0.9285  3.4475  0.8550
  186MOL0     H25621   1.165   5.529   5.108  0.1601 -1.2834 -0.3183
  186MOL0     H25622   1.312   5.622   4.893  1.6520  0.8595 -0.6647
  186MOL0     H25623   1.446   5.610   5.001  1.0301 -1.9588  0.0194
  186MOL0     H25624   1.435   5.406   4.882  1.8276  2.2360  1.9954
  186MOL0     H25625   1.395   5.362   5.048  2.3726  1.8668 -0.2635
  186MOL0     H25626   1.008   5.291   4.921  2.1911 -3.9546 -1.5142
  186MOL0     H25627   0.716   5.433   4.771 -1.3584 -2.2441 -3.3092
  186MOL0     H25628   0.781   5.301   4.879  0.4946 -4.0408 -1.1527
  186MOL0     H25629   0.761   5.273   4.708  0.9892 -0.2014 -0.0295
  186MOL0     H25630   0.766   5.773   4.420 -3.0993  1.1418 -0.1665
  186MOL0     H25631   0.671   5.875   4.194  3.9871  0.6938 -2.6513
  186MOL0     H25632   0.490   5.655   4.055 -0.0974  1.9320  1.4402
  186MOL0     H25633   0.491   5.823   4.045  3.5605  1.1420  1.3992
  186MOL0     H25634   0.351   5.792   3.855 -0.0288  0.4331 -1.5825
  186MOL0     H25635   0.499   5.813   3.775 -0.0966  0.7428  1.4522
  186MOL0     H25636   0.359   5.633   3.685  2.2508 -3.1126 -1.7428
  186MOL0     H25637   0.359   5.546   3.844  1.2721 -1.0963 -0.0698
  186MOL0     H25638   0.595   5.499   3.852  1.6582  1.8919 -0.0758
  186MOL0     H25639   0.616   5.605   3.719 -0.2801 -0.6649 -0.4557
  186MOL0     H25640   0.621   5.362   3.654  0.0006 -0.1641 -1.6339
  186MOL0     H25641   0.462   5.338   3.719  1.6171 -2.1341 -1.2719
  186MOL0     H25642   0.386   5.468   3.516  0.0861  1.5911 -5.2509
  186MOL0     H25643   0.515   5.338   3.477 -3.0243  0.1532 -0.9098
  186MOL0     H25644   0.625   5.597   3.501  3.9136 -1.0573 -3.3492
  186MOL0     H25645   0.477   5.620   3.416  0.5679 -0.9909 -0.5390
  186MOL0     H25646   0.713   5.433   3.346  0.5535  0.1322 -1.8094
  186MOL0     H25647   0.669   5.580   3.263 -3.4494  2.7105 -0.1252
  186MOL0     H25648   0.802   5.533   3.988  0.1224  0.1543  0.0702
  186MOL0     H25649   0.909   5.437   4.202 -3.3746 -1.8963  1.9563
  186MOL0     H25650   1.151   5.549   4.521  1.2844  2.5777  2.6532
  186MOL0     H25651   1.298   5.496   4.684 -0.0941 -0.7083  0.2882
  186MOL0     H25652   0.139   5.969   5.780  1.4702 -0.5642 -0.4667
  186MOL0     H25653   0.014   6.047   5.979  0.9383 -0.3852  2.9039
  186MOL0     H25654  -0.273   6.001   6.277 -2.7871  0.0331 -0.1013
  186MOL0     H25655  -0.426   6.060   6.462 -0.7399 -0.2919 -1.2326
  186MOL0     H25656  -0.557   6.089   6.643  2.5704  1.7422 -0.3867
  186MOL0     H25657  -0.570   5.919   6.697  0.3323  0.0868  1.6319
  186MOL0     H25658  -0.531   6.057   6.941  2.5133  0.9409 -0.8007
  186MOL0     H25659  -0.674   6.107   6.835  0.4204  0.6192 -1.6051
  186MOL0     H25660  -0.404   6.221   6.856  0.2513 -4.5469  1.3574
  186MOL0     H25661  -0.529   6.282   6.738  0.7881 -0.0295  0.4451
  186MOL0     H25662  -0.561   6.276   7.044 -1.3988 -0.0613  0.1083
  186MOL0     H25663  -0.681   6.320   6.928 -0.1533 -2.6502  4.0008
  186MOL0     H25664  -0.392   6.646   6.971  1.5608 -1.7659  1.8482
  186MOL0     H25665  -0.146   5.931   6.755 -0.6988 -2.0155  0.4565
  186MOL0     H25666   0.147   5.946   6.552 -0.4800 -0.2250  0.2572
  186MOL0     H25667   0.075   5.869   6.693 -1.2500  0.7584  0.2562
  186MOL0     H25668   0.090   5.785   6.528  3.0375  1.6334 -2.1808
  187MOL0     O25669   0.180   8.501   8.280  0.4261 -0.6524 -0.0902
  187MOL0     C25670   0.073   8.564   8.301 -0.8555  0.6130  0.2875
  187MOL0     O25671   0.031   8.608   8.421  1.0168 -0.4991  0.8363
  187MOL0     C25672   0.102   8.589   8.534  0.6601  1.3005  0.0540
  187MOL0     C25673   0.186   8.473   8.566 -0.1130  0.7794 -0.2823
  187MOL0     C25674   0.243   8.470   8.688 -0.3807  0.1582  0.6724
  187MOL0     C25675   0.228   8.580   8.775 -0.2635 -0.2830 -0.2978
  187MOL0     O25676   0.294   8.562   8.895 -0.0196  0.2888  0.3553
  187MOL0     C25677   0.335   8.676   8.978  0.9077 -0.1532 -0.3698
  187MOL0     C25678   0.479   8.707   8.964  0.0120 -1.4362 -0.3129
  187MOL0     C25679   0.530   8.741   8.825 -0.7305  0.4397  0.7986
  187MOL0     C25680   0.581   8.613   8.755 -0.8057  0.5592 -0.1750
  187MOL0     C25681   0.580   8.623   8.603 -0.1922  0.5195 -0.1518
  187MOL0     C25682   0.572   8.490   8.537  0.1762 -0.1500  0.1587
  187MOL0     C25683   0.532   8.519   8.388  0.0180 -0.9368  0.1818
  187MOL0     C25684   0.518   8.400   8.301  0.6900  0.2614  0.6473
  187MOL0     N25685   0.641   8.382   8.215  0.6641  0.0916 -0.0178
  187MOL0     C25686   0.662   8.463   8.106 -0.2796  0.0743 -0.3381
  187MOL0     C25687   0.758   8.402   8.039 -0.1879 -0.2760 -0.4531
  187MOL0     C25688   0.804   8.436   7.897 -0.0342  0.5398 -0.3976
  187MOL0     C25689   0.783   8.304   7.810 -0.5401  0.1237 -0.2201
  187MOL0     C25690   0.636   8.264   7.819  0.0128  0.4319 -0.6457
  187MOL0     C25691   0.597   8.158   7.714 -0.3618  0.1450 -0.0907
  187MOL0     O25692   0.613   8.216   7.585 -0.2707 -1.1373  0.4228
  187MOL0     C25693   0.622   8.135   7.478 -1.0087 -0.2717  0.1827
  187MOL0     C25694   0.655   8.195   7.351 -0.6850  0.4918 -0.5049
  187MOL0     C25695   0.638   8.117   7.229 -0.0530  0.0866 -0.7146
  187MOL0     C25696   0.688   8.178   7.098 -0.4008  0.0882  0.0487
  187MOL0     C25697   0.600   7.983   7.235  0.4086 -1.3358 -1.4011
  187MOL0     C25698   0.579   7.885   7.127 -0.1252 -0.1760 -0.4094
  187MOL0     O25699   0.511   7.923   7.016  0.1339  1.3924 -0.9256
  187MOL0     C25700   0.495   7.841   6.906 -0.4835 -0.2575  0.5499
  187MOL0     C25701   0.505   7.902   6.783 -0.8813 -0.0957  0.1822
  187MOL0     C25702   0.496   7.827   6.670  0.5080 -0.5331 -0.5013
  187MOL0     C25703   0.481   7.688   6.670 -0.3888 -0.0392  0.4598
  187MOL0     O25704   0.490   7.606   6.558  0.0194 -0.8124 -0.3556
  187MOL0     C25705   0.507   7.660   6.429 -0.2535  0.6593  0.9936
  187MOL0     C25706   0.655   7.709   6.395 -0.1017  0.1546  0.2914
  187MOL0     C25707   0.738   7.631   6.287  0.1609  0.2153 -0.8004
  187MOL0     C25708   0.833   7.534   6.356 -0.1193  0.5236 -0.9815
  187MOL0     C25709   0.920   7.446   6.253 -0.5278  0.1531 -0.3285
  187MOL0     C25710   1.022   7.537   6.173 -0.4033 -0.1436 -0.0181
  187MOL0     C25711   1.110   7.450   6.078 -0.1613 -0.2677 -0.3783
  187MOL0     C25712   1.181   7.537   5.970 -0.3210 -0.4704 -0.0836
  187MOL0    Cl25713   1.308   7.639   6.034  0.4186  0.4719 -0.2775
  187MOL0     C25714   0.474   7.628   6.791 -0.1524 -0.0754  0.3027
  187MOL0     C25715   0.477   7.708   6.915  0.3466  0.4738  0.6428
  187MOL0     O25716   0.624   7.776   7.163  0.3667  0.3203  0.4345
  187MOL0     C25717   0.540   7.939   7.361  0.0037  0.0126  0.1267
  187MOL0     C25718   0.570   8.005   7.476 -0.2990 -0.5480 -0.5306
  187MOL0     N25719   0.801   8.288   8.115  0.3491  0.3670  0.2411
  187MOL0     N25720   0.716   8.272   8.214 -0.4308 -0.2289 -0.7365
  187MOL0     C25721   0.158   8.693   8.734 -0.7664 -0.4871 -0.0433
  187MOL0     C25722   0.086   8.690   8.625  0.8932 -0.0624  0.5355
  187MOL0     C25723  -0.025   8.557   8.189 -0.5542 -0.4740  0.3023
  187MOL0     C25724   0.024   8.549   8.062  0.1159 -0.2794  0.2468
  187MOL0     C25725  -0.054   8.560   7.948 -0.0814  0.1414  0.8202
  187MOL0     C25726  -0.193   8.578   7.962  0.1527  0.3385 -0.5898
  187MOL0     O25727  -0.279   8.566   7.854 -0.6803 -0.8530  0.1944
  187MOL0     C25728  -0.218   8.561   7.722  0.3788  0.2893  0.1387
  187MOL0     C25729  -0.195   8.697   7.681  0.7914 -0.0340 -0.3578
  187MOL0     C25730  -0.186   8.712   7.525  1.0486 -0.9043 -0.5385
  187MOL0     C25731  -0.295   8.809   7.464 -0.8611 -0.1629  0.0788
  187MOL0     C25732  -0.260   8.816   7.322  0.0911 -0.1045  0.7558
  187MOL0     C25733  -0.235   8.803   7.210 -0.3009  0.1598 -0.2523
  187MOL0     C25734  -0.247   8.586   8.089 -0.7733  0.8988 -0.0332
  187MOL0     C25735  -0.163   8.591   8.198  0.2890  0.1373  0.3054
  187MOL0     C25736  -0.230   8.609   8.333 -1.3065 -0.0259  0.3011
  187MOL0     H25737   0.200   8.385   8.504  2.7948  2.2313 -1.9013
  187MOL0     H25738   0.297   8.382   8.720 -1.1714 -0.7248 -0.3370
  187MOL0     H25739   0.317   8.637   9.078 -2.5516  1.4706 -0.2456
  187MOL0     H25740   0.261   8.756   8.982  0.0544 -0.9642  0.4922
  187MOL0     H25741   0.499   8.798   9.022 -3.5357 -1.0848  0.6146
  187MOL0     H25742   0.539   8.642   9.028  5.2200  3.7509  0.9136
  187MOL0     H25743   0.452   8.776   8.756 -2.6377 -4.0698  0.3065
  187MOL0     H25744   0.614   8.811   8.818 -1.1962  1.0939  1.5867
  187MOL0     H25745   0.687   8.606   8.780 -1.0552  0.3916  0.9139
  187MOL0     H25746   0.527   8.525   8.791  0.4527 -1.4427 -2.9022
  187MOL0     H25747   0.669   8.679   8.571  1.1683 -1.2112  0.4509
  187MOL0     H25748   0.494   8.677   8.562  0.3726  1.0616 -0.6516
  187MOL0     H25749   0.662   8.430   8.552  2.1147  2.3032 -0.8110
  187MOL0     H25750   0.488   8.429   8.571  1.5796 -2.0490  0.3433
  187MOL0     H25751   0.617   8.575   8.349 -2.0384 -0.5036 -4.3574
  187MOL0     H25752   0.445   8.586   8.385 -0.3339 -1.3097  1.3894
  187MOL0     H25753   0.498   8.310   8.359 -1.3933 -1.4796 -2.4472
  187MOL0     H25754   0.436   8.422   8.231  0.0722  1.7518  1.7844
  187MOL0     H25755   0.610   8.558   8.093 -0.4673 -0.1033 -0.9264
  187MOL0     H25756   0.911   8.458   7.890  1.2426 -4.5953 -0.4363
  187MOL0     H25757   0.755   8.523   7.852  2.4673  3.6216  2.2819
  187MOL0     H25758   0.817   8.304   7.706  3.9310 -5.3919  0.7233
  187MOL0     H25759   0.849   8.222   7.842  2.3487  0.6901 -3.9950
  187MOL0     H25760   0.603   8.232   7.918 -4.3016  1.9315 -1.3977
  187MOL0     H25761   0.588   8.360   7.799  0.5268  0.5846 -1.1826
  187MOL0     H25762   0.646   8.060   7.724 -3.4805 -1.3684  2.6741
  187MOL0     H25763   0.491   8.149   7.740 -0.1121  0.4513  1.0993
  187MOL0     H25764   0.695   8.295   7.336  0.6422 -0.1425 -1.2722
  187MOL0     H25765   0.608   8.190   7.024  0.2791  1.3754 -0.5096
  187MOL0     H25766   0.762   8.112   7.052 -0.0806  0.8241 -0.5129
  187MOL0     H25767   0.728   8.279   7.113 -0.9616  0.4187 -0.6039
  187MOL0     H25768   0.534   8.007   6.789  0.5468 -0.5131  1.1563
  187MOL0     H25769   0.526   7.886   6.584 -1.4208  1.5065  0.1344
  187MOL0     H25770   0.485   7.585   6.352  1.4416 -0.3967  1.5043
  187MOL0     H25771   0.442   7.748   6.435  1.1826  1.6401  2.9884
  187MOL0     H25772   0.633   7.808   6.353  0.6255  1.0312  1.8945
  187MOL0     H25773   0.714   7.722   6.486  1.6956 -1.4543 -0.5699
  187MOL0     H25774   0.800   7.689   6.218  2.4229 -3.9165 -2.5996
  187MOL0     H25775   0.668   7.575   6.224 -1.0370  1.6973 -0.8514
  187MOL0     H25776   0.772   7.473   6.423  1.8622  1.6490  2.0232
  187MOL0     H25777   0.896   7.595   6.421 -0.5888 -0.0270  0.0001
  187MOL0     H25778   0.974   7.379   6.320 -3.4936 -0.1072  1.9905
  187MOL0     H25779   0.861   7.379   6.190 -0.3934 -0.9977  0.7269
  187MOL0     H25780   1.082   7.594   6.244  0.0742  0.3744 -0.8218
  187MOL0     H25781   0.958   7.604   6.115 -0.6639 -0.3396  0.0419
  187MOL0     H25782   1.035   7.384   6.033  0.3131 -0.5479 -0.7651
  187MOL0     H25783   1.177   7.384   6.134 -0.3542 -0.5850 -0.5167
  187MOL0     H25784   1.101   7.600   5.930  0.3790  0.2717 -0.3496
  187MOL0     H25785   1.226   7.471   5.895  0.9084 -1.7489  1.7146
  187MOL0     H25786   0.467   7.521   6.804  0.9617 -0.0633  1.1459
  187MOL0     H25787   0.457   7.648   7.003 -6.7820  0.6066 -0.2616
  187MOL0     H25788   0.494   7.841   7.369  1.2644 -0.6187 -0.0470
  187MOL0     H25789   0.531   7.967   7.570  0.6274  1.0530  0.5415
  187MOL0     H25790   0.167   8.783   8.793  2.0842  0.8412 -2.2210
  187MOL0     H25791   0.017   8.767   8.593  3.0300  0.3354 -3.7586
  187MOL0     H25792   0.131   8.528   8.054 -0.5397 -4.3444  0.1481
  187MOL0     H25793   0.009   8.555   7.860 -0.1822 -0.4737  0.7789
  187MOL0     H25794  -0.131   8.497   7.704  0.9427  0.6800  1.3782
  187MOL0     H25795  -0.298   8.513   7.665  0.1238 -1.8716  2.1511
  187MOL0     H25796  -0.108   8.740   7.731 -0.5073  1.0215  1.0761
  187MOL0     H25797  -0.269   8.767   7.722  0.6238  0.3501 -1.2828
  187MOL0     H25798  -0.082   8.742   7.506  0.5125  0.2413 -1.7435
  187MOL0     H25799  -0.197   8.622   7.465  1.2725  0.5771 -2.9088
  187MOL0     H25800  -0.287   8.905   7.516 -0.0658 -0.6131  0.8040
  187MOL0     H25801  -0.397   8.774   7.479 -1.0031 -0.1319 -0.7350
  187MOL0     H25802  -0.201   8.780   7.111 -0.2255 -3.1999  0.4516
  187MOL0     H25803  -0.349   8.612   8.114 -0.6373  0.4928  0.9961
  187MOL0     H25804  -0.185   8.665   8.415  0.8434 -3.9588  2.0949
  187MOL0     H25805  -0.326   8.659   8.321  0.9677  5.5443  1.9211
  187MOL0     H25806  -0.233   8.510   8.378  0.1821  0.8251  2.4123
  188MOL0     O25807   3.116   3.680   2.931 -0.1625 -0.2208 -0.6281
  188MOL0     C25808   3.192   3.750   2.873 -0.4882  0.5093  0.2572
  188MOL0     O25809   3.313   3.704   2.830  0.1307 -0.3149  0.3132
  188MOL0     C25810   3.364   3.570   2.848 -0.3163 -0.1745 -0.1010
  188MOL0     C25811   3.504   3.573   2.873  0.5811  0.3025  0.9058
  188MOL0     C25812   3.571   3.446   2.895  0.3478 -0.6626  1.1308
  188MOL0     C25813   3.498   3.325   2.872 -0.3445  0.8396 -0.5126
  188MOL0     O25814   3.554   3.202   2.872  1.3845  0.2262  0.4068
  188MOL0     C25815   3.699   3.187   2.888  0.1369 -0.0867 -1.3216
  188MOL0     C25816   3.756   3.052   2.858  0.0874  0.0915  0.2947
  188MOL0     C25817   3.897   3.038   2.914 -0.9401 -0.1054 -0.4721
  188MOL0     C25818   3.932   2.884   2.910 -0.0175  0.4651  0.1094
  188MOL0     C25819   4.081   2.880   2.946  0.0656  0.6294 -0.3057
  188MOL0     C25820   4.097   2.918   3.098 -0.4382  1.0368 -0.7142
  188MOL0     C25821   4.238   2.885   3.156  0.6443 -0.7791  0.4038
  188MOL0     C25822   4.268   2.741   3.186 -0.7519  0.9066  0.1592
  188MOL0     N25823   4.165   2.668   3.251 -0.2706  0.4828  0.5779
  188MOL0     C25824   4.119   2.683   3.379  0.7139 -0.0666 -0.7619
  188MOL0     C25825   4.046   2.570   3.405  0.2024 -0.1414  0.1510
  188MOL0     C25826   3.977   2.545   3.532 -0.1617  0.7706  0.6182
  188MOL0     C25827   4.067   2.510   3.653 -0.6605  0.3539 -0.5180
  188MOL0     C25828   3.969   2.475   3.762  0.0290 -0.2595 -0.1961
  188MOL0     C25829   4.018   2.500   3.905 -0.2638 -0.5709  0.2857
  188MOL0     O25830   4.153   2.458   3.918  0.2815 -0.9438 -0.0671
  188MOL0     C25831   4.213   2.451   4.042 -0.5179 -0.0497  0.3347
  188MOL0     C25832   4.346   2.394   4.039 -0.5856 -0.6696 -0.8179
  188MOL0     C25833   4.419   2.387   4.156 -0.4484  0.5326  0.6333
  188MOL0     C25834   4.567   2.335   4.141 -0.2122  0.0287 -0.6728
  188MOL0     C25835   4.371   2.430   4.284 -0.5207 -0.1162  0.0171
  188MOL0     C25836   4.457   2.444   4.405  0.1733 -0.7934  0.1662
  188MOL0     O25837   4.566   2.368   4.430 -0.2735  0.6434  0.1604
  188MOL0     C25838   4.647   2.407   4.531 -0.6456 -0.5928  0.8403
  188MOL0     C25839   4.676   2.322   4.635  0.0351 -0.4996 -0.3326
  188MOL0     C25840   4.769   2.360   4.727 -0.4152  0.5138 -0.7385
  188MOL0     C25841   4.841   2.483   4.719  0.9339  0.1516  0.8390
  188MOL0     O25842   4.946   2.501   4.800  0.3462  0.1673 -0.2784
  188MOL0     C25843   5.050   2.595   4.771 -0.8439 -0.3374 -0.1255
  188MOL0     C25844   5.162   2.557   4.872  0.1067 -0.4768 -0.0355
  188MOL0     C25845   5.277   2.658   4.873 -0.5073 -0.5939  0.4574
  188MOL0     C25846   5.374   2.632   4.988  0.1436  0.3894 -0.0555
  188MOL0     C25847   5.502   2.720   4.962  0.2221  0.3268 -0.2898
  188MOL0     C25848   5.607   2.692   5.073  0.3024  0.1577  0.7174
  188MOL0     C25849   5.558   2.720   5.208  0.2461  0.1162  0.0019
  188MOL0     C25850   5.660   2.781   5.300 -0.4266  0.2312 -0.1761
  188MOL0    Cl25851   5.691   2.950   5.256  0.0549  0.1684 -0.4009
  188MOL0     C25852   4.802   2.575   4.628 -0.2714 -0.2044  0.5097
  188MOL0     C25853   4.709   2.535   4.526  0.2059 -0.3237  0.2170
  188MOL0     O25854   4.414   2.544   4.475 -0.3051 -0.4029  0.1415
  188MOL0     C25855   4.234   2.468   4.281 -0.0017 -0.9184 -1.1789
  188MOL0     C25856   4.160   2.494   4.159 -0.4623  0.8860 -0.6345
  188MOL0     N25857   4.044   2.491   3.290 -0.1980  0.5601 -0.8176
  188MOL0     N25858   4.118   2.553   3.198  0.7421  0.9551 -0.6724
  188MOL0     C25859   3.365   3.321   2.831 -0.3218  0.4254 -0.3660
  188MOL0     C25860   3.298   3.446   2.814  0.0343 -0.0497  0.2257
  188MOL0     C25861   3.158   3.902   2.875 -0.4144 -0.0877 -0.9355
  188MOL0     C25862   3.268   3.984   2.894 -0.3946 -0.1928  0.0662
  188MOL0     C25863   3.249   4.113   2.892 -0.6802 -0.6058 -0.7722
  188MOL0     C25864   3.125   4.172   2.864  0.1183 -1.0735  0.3597
  188MOL0     O25865   3.123   4.306   2.869 -0.5900  0.5814 -0.1902
  188MOL0     C25866   3.169   4.369   2.985 -0.0534  0.1495 -0.6179
  188MOL0     C25867   3.075   4.483   3.012 -0.0374  0.1214 -0.5122
  188MOL0     C25868   3.064   4.598   2.910  0.3563  0.6148  0.7075
  188MOL0     C25869   2.988   4.721   2.947  0.2271 -0.3489 -0.9327
  188MOL0     C25870   3.004   4.805   2.828 -0.1869 -0.8914 -1.3847
  188MOL0     C25871   3.023   4.881   2.739  0.3061  0.3794 -0.0727
  188MOL0     C25872   3.010   4.093   2.847 -0.6812 -0.4685 -0.6237
  188MOL0     C25873   3.033   3.952   2.844  0.1835 -0.3732 -1.5602
  188MOL0     C25874   2.916   3.872   2.797 -0.4449 -0.2446 -0.5000
  188MOL0     H25875   3.565   3.661   2.891  1.7928 -0.7453  2.1708
  188MOL0     H25876   3.673   3.441   2.931  0.8538 -1.5896 -0.3409
  188MOL0     H25877   3.726   3.205   2.993 -1.4708 -2.6596 -0.3949
  188MOL0     H25878   3.744   3.264   2.824 -3.1760  1.2840 -2.2002
  188MOL0     H25879   3.693   2.974   2.903  1.8586  0.2269  3.2833
  188MOL0     H25880   3.769   3.039   2.751 -1.7574 -1.2494  0.1730
  188MOL0     H25881   3.976   3.089   2.858 -0.5725  1.9557  1.7492
  188MOL0     H25882   3.893   3.080   3.015 -0.4309  1.8442 -1.2241
  188MOL0     H25883   3.870   2.833   2.983 -0.0657  1.5532  0.8629
  188MOL0     H25884   3.910   2.851   2.808 -3.0299  0.5507  0.6431
  188MOL0     H25885   4.140   2.940   2.875  1.6695 -1.0631 -0.4799
  188MOL0     H25886   4.110   2.776   2.931 -0.2458  0.3161  1.1031
  188MOL0     H25887   4.096   3.024   3.121 -2.1103  0.5962  1.5085
  188MOL0     H25888   4.019   2.866   3.154 -0.9528  3.3136  0.8283
  188MOL0     H25889   4.248   2.943   3.248 -2.3189  0.8412 -0.1418
  188MOL0     H25890   4.307   2.933   3.086 -0.3344  1.9325  1.1345
  188MOL0     H25891   4.286   2.694   3.089 -1.0156  2.3489 -0.6168
  188MOL0     H25892   4.363   2.741   3.241  0.4425  1.1502 -1.8141
  188MOL0     H25893   4.138   2.775   3.433  0.0741 -0.7921  0.7660
  188MOL0     H25894   3.900   2.469   3.516  0.2156  0.8121 -1.8804
  188MOL0     H25895   3.916   2.634   3.553 -1.2986  0.0350  0.4648
  188MOL0     H25896   4.151   2.441   3.638  0.6593  1.4753  1.3131
  188MOL0     H25897   4.115   2.604   3.682  1.8884 -0.8719 -0.4958
  188MOL0     H25898   3.877   2.530   3.743  0.3885  0.4566  0.0720
  188MOL0     H25899   3.941   2.369   3.761 -1.1415  0.0401 -1.3108
  188MOL0     H25900   4.017   2.607   3.928 -0.7585 -0.5240  0.0530
  188MOL0     H25901   3.956   2.454   3.982  2.9535 -2.6414  1.8616
  188MOL0     H25902   4.384   2.365   3.941 -0.4361  0.6558 -1.1832
  188MOL0     H25903   4.587   2.320   4.035  2.5628 -1.2580 -0.0724
  188MOL0     H25904   4.573   2.241   4.196 -3.5381 -0.2126 -0.5307
  188MOL0     H25905   4.639   2.412   4.173 -0.3305  0.7308 -2.0206
  188MOL0     H25906   4.628   2.225   4.650  0.7534 -0.7398  0.5432
  188MOL0     H25907   4.788   2.309   4.821 -1.0235  3.1382  0.9021
  188MOL0     H25908   5.081   2.589   4.666  1.0137 -0.6498  0.4053
  188MOL0     H25909   5.014   2.697   4.787  0.5678  0.5579 -2.2311
  188MOL0     H25910   5.126   2.558   4.976 -0.9446 -0.8679 -0.3749
  188MOL0     H25911   5.205   2.457   4.857 -0.6021 -0.7824 -0.0868
  188MOL0     H25912   5.232   2.758   4.870  0.9636  0.0783 -1.5065
  188MOL0     H25913   5.333   2.667   4.779  0.3727  2.3772  1.1639
  188MOL0     H25914   5.402   2.527   4.986  1.2997  0.6599  1.2721
  188MOL0     H25915   5.322   2.655   5.081 -0.9827 -1.8289 -0.0767
  188MOL0     H25916   5.549   2.708   4.864  1.7787 -1.0773  0.5921
  188MOL0     H25917   5.444   2.812   4.974 -0.4017 -0.1504  0.4288
  188MOL0     H25918   5.691   2.759   5.052 -0.0645  1.3894  2.8789
  188MOL0     H25919   5.643   2.589   5.062  1.4461  0.2751  2.9981
  188MOL0     H25920   5.515   2.625   5.241 -0.1104  0.2572 -0.0529
  188MOL0     H25921   5.470   2.785   5.198 -0.2781 -0.7601 -1.5210
  188MOL0     H25922   5.757   2.731   5.306 -1.1169 -1.3052 -1.0990
  188MOL0     H25923   5.633   2.775   5.406  2.2269  1.5081  0.6637
  188MOL0     H25924   4.862   2.665   4.637  1.3263 -1.1857  0.0989
  188MOL0     H25925   4.684   2.609   4.451  2.9581  1.4364  0.8939
  188MOL0     H25926   4.177   2.492   4.370  3.4399  0.4051  0.8577
  188MOL0     H25927   4.057   2.525   4.176 -0.4478  0.3410  0.6038
  188MOL0     H25928   3.311   3.228   2.824 -3.4887  2.1154 -0.0220
  188MOL0     H25929   3.194   3.440   2.785 -0.8813 -0.8221  3.2777
  188MOL0     H25930   3.365   3.952   2.932  0.3509  0.1214 -1.4642
  188MOL0     H25931   3.334   4.179   2.896  0.4346 -2.0467  0.5463
  188MOL0     H25932   3.171   4.294   3.064  3.0744 -0.1293 -0.8528
  188MOL0     H25933   3.271   4.406   2.972 -0.1700  0.3140 -1.0907
  188MOL0     H25934   3.092   4.524   3.112  0.4029  0.4686 -0.7287
  188MOL0     H25935   2.975   4.440   3.026  0.5206 -1.0104  0.1665
  188MOL0     H25936   3.167   4.631   2.895  0.7121 -0.5784  0.3674
  188MOL0     H25937   3.022   4.555   2.820  0.3886 -1.7851  1.7607
  188MOL0     H25938   3.044   4.768   3.029 -0.3209 -0.2357 -0.6173
  188MOL0     H25939   2.884   4.702   2.973  0.5487  0.3885  1.1087
  188MOL0     H25940   3.039   4.950   2.659  3.6632 -0.1736 -0.0333
  188MOL0     H25941   2.908   4.128   2.838 -0.6758  1.5577  4.4061
  188MOL0     H25942   2.881   3.818   2.885  1.0814 -0.5949 -0.0733
  188MOL0     H25943   2.830   3.927   2.758 -2.4711 -1.7273  1.6188
  188MOL0     H25944   2.937   3.789   2.728 -2.9642 -1.5062  0.1352
  189MOL0     O25945  11.203   2.823   8.809  0.2269  0.6674  0.6684
  189MOL0     C25946  11.093   2.849   8.760  0.4062 -0.3009 -0.7014
  189MOL0     O25947  11.024   2.967   8.773  0.1484  0.2378  0.5256
  189MOL0     C25948  11.086   3.065   8.849  0.4144 -0.2060  0.7587
  189MOL0     C25949  11.090   3.054   8.992  0.8664 -0.1685 -0.6941
  189MOL0     C25950  11.135   3.169   9.063  0.2799 -0.0447 -0.6508
  189MOL0     C25951  11.185   3.285   8.992  0.1234 -0.8771 -0.5431
  189MOL0     O25952  11.241   3.401   9.047  1.0678 -0.3457 -1.2039
  189MOL0     C25953  11.239   3.437   9.187  0.1322  0.5680 -1.2681
  189MOL0     C25954  11.319   3.570   9.198 -0.8086  0.0831  0.7668
  189MOL0     C25955  11.311   3.629   9.336  0.0638 -0.7297 -0.1964
  189MOL0     C25956  11.276   3.778   9.324  1.5503  0.1139  0.1431
  189MOL0     C25957  11.121   3.802   9.350  0.1351 -0.0328 -0.4035
  189MOL0     C25958  11.077   3.949   9.381  0.1790 -0.5847  0.1741
  189MOL0     C25959  10.943   3.960   9.467 -1.2189  0.1164  0.7691
  189MOL0     C25960  10.837   3.866   9.412 -0.1519 -0.1777 -0.1939
  189MOL0     N25961  10.704   3.933   9.440 -0.2978 -0.6429  0.6961
  189MOL0     C25962  10.634   3.916   9.556 -0.1514  0.3353  0.6702
  189MOL0     C25963  10.539   4.012   9.550  0.1164 -0.5796  0.2355
  189MOL0     C25964  10.430   4.023   9.644  0.1473  0.2713 -0.5585
  189MOL0     C25965  10.297   3.972   9.588 -0.1488 -0.1840 -0.3753
  189MOL0     C25966  10.200   3.938   9.687  1.6062  0.5045  0.0862
  189MOL0     C25967  10.123   4.059   9.739 -1.1544  0.0496  0.7151
  189MOL0     O25968  10.042   4.015   9.849  0.1161  0.6092  0.3417
  189MOL0     C25969   9.925   3.947   9.816  0.3223 -0.2862  0.3713
  189MOL0     C25970   9.824   3.999   9.744 -0.6933  0.4494 -0.7719
  189MOL0     C25971   9.703   3.934   9.726 -0.5523 -0.5818  0.3869
  189MOL0     C25972   9.594   4.012   9.653 -1.4580  1.1345 -0.0308
  189MOL0     C25973   9.687   3.803   9.779  0.0367 -0.2210  0.1064
  189MOL0     C25974   9.562   3.720   9.781  0.1302  0.1458  0.2117
  189MOL0     O25975   9.548   3.618   9.870  0.8173 -0.0329 -1.2415
  189MOL0     C25976   9.444   3.524   9.856 -0.2646  0.1969  0.3580
  189MOL0     C25977   9.413   3.450   9.966  0.3474  0.2636 -0.7626
  189MOL0     C25978   9.306   3.352   9.949  0.0474  1.0696 -0.6789
  189MOL0     C25979   9.255   3.316   9.828 -0.6321 -0.5745 -0.1321
  189MOL0     O25980   9.174   3.209   9.826  0.3412  0.0785  0.6531
  189MOL0     C25981   9.095   3.187   9.709  0.5415  0.6366  0.0242
  189MOL0     C25982   9.170   3.105   9.602  0.0570 -0.8165  0.8332
  189MOL0     C25983   9.157   2.960   9.640  0.1823  0.9722 -0.2141
  189MOL0     C25984   9.251   2.865   9.564 -0.6715  0.2179 -0.2889
  189MOL0     C25985   9.255   2.719   9.616  0.3325 -1.2630  0.4572
  189MOL0     C25986   9.349   2.706   9.728  0.0797 -0.8500 -0.3669
  189MOL0     C25987   9.370   2.564   9.783  0.5996 -0.2545  0.1455
  189MOL0     C25988   9.461   2.537   9.909  0.3369 -0.2651  0.1271
  189MOL0    Cl25989   9.522   2.366   9.923 -0.0265  0.0026  0.1485
  189MOL0     C25990   9.305   3.378   9.715  0.3730  0.0722  0.0806
  189MOL0     C25991   9.392   3.490   9.731  1.0324  0.4757  0.3006
  189MOL0     O25992   9.476   3.757   9.701 -0.5474 -0.4136  0.0150
  189MOL0     C25993   9.794   3.739   9.848  0.0770  0.3210 -0.5341
  189MOL0     C25994   9.907   3.818   9.866  0.0571 -0.7190 -1.0065
  189MOL0     N25995  10.547   4.083   9.431 -0.4996 -0.3761  0.5374
  189MOL0     N25996  10.641   4.035   9.368  0.4765 -0.9020  0.5057
  189MOL0     C25997  11.177   3.289   8.864  0.0592  0.1196  0.4638
  189MOL0     C25998  11.127   3.182   8.786  0.0991  0.2158  0.3303
  189MOL0     C25999  11.018   2.758   8.687 -1.2858 -0.1799  0.5107
  189MOL0     C26000  11.011   2.774   8.543  0.4862 -0.3024 -0.8699
  189MOL0     C26001  10.948   2.683   8.469  0.5899  0.1286  1.0002
  189MOL0     C26002  10.913   2.563   8.523 -0.1259  0.2685  0.0235
  189MOL0     O26003  10.859   2.468   8.442  0.2876  0.3565 -0.1382
  189MOL0     C26004  10.781   2.511   8.330  0.5871  0.8014  0.0556
  189MOL0     C26005  10.781   2.397   8.229 -0.2370 -0.6150 -0.2766
  189MOL0     C26006  10.689   2.424   8.105 -0.5345  0.0387 -0.1132
  189MOL0     C26007  10.718   2.322   8.002 -0.0466  0.1939  0.2716
  189MOL0     C26008  10.625   2.343   7.892  0.1983  0.3512  0.7566
  189MOL0     C26009  10.553   2.341   7.794 -0.1060 -0.3512  0.3791
  189MOL0     C26010  10.941   2.531   8.657 -0.0391  0.4388 -0.0834
  189MOL0     C26011  10.985   2.637   8.742 -0.6240  0.6273  0.4709
  189MOL0     C26012  11.030   2.576   8.873  0.2413 -0.8715 -0.7875
  189MOL0     H26013  11.054   2.962   9.037  1.8655 -0.4995 -0.5547
  189MOL0     H26014  11.134   3.162   9.172 -0.2514  1.8839 -0.4923
  189MOL0     H26015  11.282   3.361   9.253  2.3841  2.4927 -0.3943
  189MOL0     H26016  11.133   3.456   9.208  0.0714  1.8256 -2.5253
  189MOL0     H26017  11.419   3.542   9.163 -0.2451 -1.4477  3.3514
  189MOL0     H26018  11.293   3.646   9.124 -1.2989  0.4895  1.3465
  189MOL0     H26019  11.243   3.578   9.405 -1.3894  1.9142  0.4608
  189MOL0     H26020  11.416   3.630   9.365 -0.2428  1.4780  1.0465
  189MOL0     H26021  11.336   3.829   9.400  2.8120 -0.4444 -0.4454
  189MOL0     H26022  11.305   3.825   9.229  1.6645 -1.1675 -0.4794
  189MOL0     H26023  11.088   3.750   9.441 -2.3159  2.2882  0.1723
  189MOL0     H26024  11.076   3.755   9.262  2.1363 -4.6090  0.7338
  189MOL0     H26025  11.157   3.991   9.443 -0.3838 -0.4739  0.8231
  189MOL0     H26026  11.074   4.008   9.289 -2.6442 -0.2595  0.3924
  189MOL0     H26027  10.913   4.064   9.481  0.4049  1.0624 -1.9151
  189MOL0     H26028  10.975   3.918   9.563  2.1282  0.3678 -0.0998
  189MOL0     H26029  10.852   3.842   9.306 -0.4545 -1.1106 -0.0368
  189MOL0     H26030  10.846   3.776   9.474 -1.1251  0.7413  1.3596
  189MOL0     H26031  10.649   3.837   9.629 -1.2165 -0.1425  0.3858
  189MOL0     H26032  10.420   4.130   9.667  0.3149 -0.3863  3.2757
  189MOL0     H26033  10.449   3.977   9.742 -2.8396  0.7050  0.3461
  189MOL0     H26034  10.259   4.048   9.519 -3.0400  0.8148  2.1323
  189MOL0     H26035  10.310   3.889   9.518  0.7291 -0.3080 -0.0727
  189MOL0     H26036  10.125   3.874   9.639  2.2265  0.4818 -0.8942
  189MOL0     H26037  10.250   3.886   9.769 -2.4388  0.1425  2.5905
  189MOL0     H26038  10.196   4.138   9.762 -1.5142  1.8160 -3.4237
  189MOL0     H26039  10.048   4.089   9.666 -1.0026  2.0751  1.3236
  189MOL0     H26040   9.844   4.096   9.701 -1.0018  1.2363  0.7960
  189MOL0     H26041   9.573   3.963   9.558  0.3325 -1.5911  0.8800
  189MOL0     H26042   9.627   4.115   9.634  0.1909  0.5255 -0.6946
  189MOL0     H26043   9.496   4.009   9.700 -1.0209 -2.5231  0.8742
  189MOL0     H26044   9.460   3.472  10.062  0.0124  2.9896 -1.1424
  189MOL0     H26045   9.272   3.289  10.030  0.1674 -0.1379 -1.5253
  189MOL0     H26046   8.995   3.151   9.735 -0.5352  2.0499 -1.8638
  189MOL0     H26047   9.072   3.282   9.660  2.6501  1.1508 -0.0731
  189MOL0     H26048   9.129   3.113   9.501  2.8435 -1.4207 -0.4326
  189MOL0     H26049   9.276   3.126   9.586  0.4597 -2.7410  0.7346
  189MOL0     H26050   9.053   2.929   9.637 -0.4829  3.0285 -0.2090
  189MOL0     H26051   9.194   2.965   9.744  1.9809  1.0286 -0.8128
  189MOL0     H26052   9.355   2.897   9.558  0.5949 -3.4952 -1.3179
  189MOL0     H26053   9.220   2.861   9.459 -2.1140 -0.5102  0.1349
  189MOL0     H26054   9.157   2.680   9.648  0.9901 -0.4986  3.7843
  189MOL0     H26055   9.305   2.655   9.543  2.1190  1.2902 -0.7057
  189MOL0     H26056   9.315   2.763   9.814  3.2125 -0.3551  0.6954
  189MOL0     H26057   9.451   2.742   9.711 -0.7489  1.2650 -1.1758
  189MOL0     H26058   9.415   2.514   9.697 -3.9355 -2.6818 -1.1761
  189MOL0     H26059   9.276   2.509   9.795  0.8959 -0.5821  1.0833
  189MOL0     H26060   9.400   2.559   9.997 -1.5750 -2.4282 -0.5589
  189MOL0     H26061   9.543   2.609   9.899  0.5648 -0.0616  2.7711
  189MOL0     H26062   9.274   3.351   9.615 -1.4579  1.0804  0.3330
  189MOL0     H26063   9.417   3.547   9.642  2.3578  1.6763  1.3738
  189MOL0     H26064   9.788   3.636   9.881 -0.5919  0.8807  1.1840
  189MOL0     H26065   9.996   3.775   9.912 -0.2579 -1.9059 -1.4701
  189MOL0     H26066  11.227   3.374   8.818  1.7317  0.2820  2.4876
  189MOL0     H26067  11.139   3.193   8.679  0.8194  2.3603  0.5764
  189MOL0     H26068  11.044   2.864   8.493 -2.2653  0.6533 -1.1620
  189MOL0     H26069  10.955   2.701   8.363  2.3965 -3.2186  0.4103
  189MOL0     H26070  10.675   2.517   8.355 -0.6113 -4.1553 -2.4248
  189MOL0     H26071  10.807   2.609   8.289 -4.5452  2.3176 -0.2282
  189MOL0     H26072  10.743   2.308   8.281  1.3414 -1.1960 -0.0627
  189MOL0     H26073  10.879   2.393   8.182  1.6042  1.0630  3.0407
  189MOL0     H26074  10.588   2.431   8.145 -0.3442 -0.2550  0.4408
  189MOL0     H26075  10.715   2.518   8.054 -0.9561  0.9741  1.3367
  189MOL0     H26076  10.718   2.219   8.040  1.8000  0.3515  0.7521
  189MOL0     H26077  10.820   2.336   7.967  1.6545 -3.5286  3.1148
  189MOL0     H26078  10.502   2.333   7.700 -1.0456  2.0494  0.6087
  189MOL0     H26079  10.922   2.431   8.695 -1.8450  1.6850  2.6451
  189MOL0     H26080  11.120   2.514   8.865  2.4532  2.2384 -2.1314
  189MOL0     H26081  11.068   2.660   8.932  3.9345 -1.1189 -2.5044
  189MOL0     H26082  10.950   2.526   8.927  0.4078  0.1946  0.5141
  190MOL0     O26083   3.948   3.030   1.006  0.0542  0.7417 -0.2563
  190MOL0     C26084   3.852   3.050   1.073 -0.3325 -0.4926 -0.7971
  190MOL0     O26085   3.846   3.141   1.180 -0.1949  0.7785  0.5234
  190MOL0     C26086   3.945   3.229   1.208 -0.9442 -0.9065  1.0789
  190MOL0     C26087   3.966   3.327   1.098 -0.1258  0.4057 -0.0748
  190MOL0     C26088   4.073   3.403   1.098 -0.9579 -0.6694  0.4178
  190MOL0     C26089   4.158   3.401   1.206 -0.6856 -0.1044 -0.7615
  190MOL0     O26090   4.268   3.486   1.201  0.1484  0.9014 -0.1667
  190MOL0     C26091   4.305   3.557   1.319 -0.4246  0.6937 -0.9496
  190MOL0     C26092   4.435   3.626   1.293 -0.2660  0.8580  0.1972
  190MOL0     C26093   4.451   3.708   1.161  0.1819 -0.4341 -0.0112
  190MOL0     C26094   4.365   3.833   1.174 -0.4465 -0.2465  0.3192
  190MOL0     C26095   4.430   3.949   1.092  1.0318  1.0556 -0.0785
  190MOL0     C26096   4.535   4.021   1.177 -0.4216 -0.3493  1.2695
  190MOL0     C26097   4.624   4.121   1.093  0.1045 -0.2597  0.1797
  190MOL0     C26098   4.754   4.137   1.174 -1.0944 -0.0400 -1.0136
  190MOL0     N26099   4.827   4.249   1.127  0.4236  0.6704  0.0891
  190MOL0     C26100   4.819   4.386   1.156 -0.1667  0.0919 -0.7977
  190MOL0     C26101   4.937   4.442   1.120  0.9175 -0.0289 -0.5394
  190MOL0     C26102   4.982   4.587   1.137  0.0717  0.4077 -0.2394
  190MOL0     C26103   4.948   4.666   1.006 -0.0894 -0.2223  0.4188
  190MOL0     C26104   5.044   4.631   0.893 -0.4734 -0.6029 -0.2173
  190MOL0     C26105   5.041   4.743   0.786 -0.4529  0.0865  0.4154
  190MOL0     O26106   5.121   4.862   0.822  0.4653  0.1024 -0.3097
  190MOL0     C26107   5.172   4.934   0.714 -0.2996 -0.9312  0.5563
  190MOL0     C26108   5.244   4.869   0.617  0.4037 -0.1455 -0.9690
  190MOL0     C26109   5.284   4.923   0.500 -0.6961 -0.0900 -0.5037
  190MOL0     C26110   5.386   4.841   0.423 -0.3952 -0.3732 -0.8406
  190MOL0     C26111   5.239   5.057   0.459 -0.6889 -0.1480  0.1566
  190MOL0     C26112   5.256   5.131   0.330 -0.4740 -0.0551  0.8976
  190MOL0     O26113   5.198   5.252   0.317 -0.2179  0.3566  0.4573
  190MOL0     C26114   5.218   5.331   0.209  0.1486 -1.1042 -0.4607
  190MOL0     C26115   5.102   5.396   0.150  0.6636 -0.3549  0.5166
  190MOL0     C26116   5.127   5.502   0.063  0.5393  0.9085 -0.4269
  190MOL0     C26117   5.250   5.539   0.015 -0.7174 -0.0316  0.1870
  190MOL0     O26118   5.275   5.645  -0.068 -0.7628 -0.9630 -0.4670
  190MOL0     C26119   5.175   5.707  -0.141 -0.8691  0.3799  1.1644
  190MOL0     C26120   5.252   5.814  -0.212  0.0190  1.1656 -0.0878
  190MOL0     C26121   5.168   5.888  -0.307  0.4308  0.3520  0.3313
  190MOL0     C26122   5.255   5.990  -0.393  0.6379 -1.2149  0.4749
  190MOL0     C26123   5.164   6.072  -0.488 -0.8018 -0.6046  0.2810
  190MOL0     C26124   5.254   6.165  -0.569  0.4913 -0.9761  0.4224
  190MOL0     C26125   5.342   6.262  -0.487  0.4652 -0.9668  0.7821
  190MOL0     C26126   5.388   6.386  -0.566  0.6472  0.9632  1.3586
  190MOL0    Cl26127   5.246   6.513  -0.578 -0.1432 -0.2226 -0.5349
  190MOL0     C26128   5.359   5.463   0.056 -0.6119  0.3882 -0.3989
  190MOL0     C26129   5.344   5.360   0.155  0.9884  0.3909  0.1895
  190MOL0     O26130   5.326   5.071   0.247  0.1599  0.0793 -0.7334
  190MOL0     C26131   5.157   5.120   0.554  0.4891 -0.3074 -0.9203
  190MOL0     C26132   5.143   5.066   0.685  0.6124  0.5296 -0.7387
  190MOL0     N26133   5.011   4.350   1.056 -0.0608  0.2841  0.3053
  190MOL0     N26134   4.944   4.240   1.060 -0.8232 -0.2963 -0.2794
  190MOL0     C26135   4.132   3.320   1.319  0.3406 -0.2263  0.4894
  190MOL0     C26136   4.033   3.231   1.318  0.3492 -0.5690 -0.6614
  190MOL0     C26137   3.717   3.005   1.027  0.2751 -0.0919  0.4732
  190MOL0     C26138   3.607   3.096   1.054 -0.1683 -0.7250 -0.3385
  190MOL0     C26139   3.472   3.073   1.023  0.0351 -1.1851 -0.3370
  190MOL0     C26140   3.440   2.955   0.957 -0.6857 -0.0745  0.1445
  190MOL0     O26141   3.317   2.932   0.905 -1.0160  0.3055 -0.1042
  190MOL0     C26142   3.204   3.012   0.955  0.1454 -0.2565  0.1599
  190MOL0     C26143   3.065   2.967   0.887  0.0569 -0.2961  0.1509
  190MOL0     C26144   2.944   3.067   0.899 -0.7131  0.3114  0.2306
  190MOL0     C26145   2.815   3.004   0.851 -0.3959 -0.3085  0.2059
  190MOL0     C26146   2.821   2.933   0.722 -0.1762  0.2921  0.0819
  190MOL0     C26147   2.787   2.862   0.631 -0.1034  0.0701 -0.0617
  190MOL0     C26148   3.537   2.860   0.931 -1.0282 -0.1662 -0.4145
  190MOL0     C26149   3.677   2.885   0.962  0.3357  0.1659 -0.0130
  190MOL0     C26150   3.759   2.772   0.918  1.0516  0.3453 -0.3325
  190MOL0     H26151   3.895   3.334   1.016  0.1641  1.9538 -0.2263
  190MOL0     H26152   4.084   3.476   1.017 -0.8710 -2.6057 -1.4105
  190MOL0     H26153   4.312   3.488   1.403  2.6986  2.2092  0.1686
  190MOL0     H26154   4.243   3.642   1.348 -2.2958 -1.3205  1.3564
  190MOL0     H26155   4.452   3.689   1.381  0.5592  1.8952 -0.6728
  190MOL0     H26156   4.511   3.547   1.295 -1.8381 -0.7169  1.7816
  190MOL0     H26157   4.558   3.732   1.155  0.9600 -3.5684 -0.1946
  190MOL0     H26158   4.433   3.654   1.068 -2.2733 -1.2231  0.8590
  190MOL0     H26159   4.260   3.825   1.143 -0.3902 -0.1055  0.0818
  190MOL0     H26160   4.353   3.880   1.272  0.9764  1.8798 -0.4742
  190MOL0     H26161   4.344   4.012   1.068 -0.2380 -0.5115  0.2189
  190MOL0     H26162   4.477   3.905   1.004 -1.6527 -1.3493 -0.4323
  190MOL0     H26163   4.504   4.065   1.272  4.6094  2.8558  1.8031
  190MOL0     H26164   4.605   3.941   1.201  0.8475  0.8222  1.5968
  190MOL0     H26165   4.575   4.216   1.069 -0.3923 -0.3261  0.9023
  190MOL0     H26166   4.645   4.084   0.992  0.1767  0.3475 -0.0352
  190MOL0     H26167   4.737   4.145   1.282 -1.4771  2.6823 -1.2067
  190MOL0     H26168   4.799   4.039   1.156  0.1903  0.6981 -1.9590
  190MOL0     H26169   4.750   4.453   1.207  3.1334  2.0554  1.4187
  190MOL0     H26170   5.090   4.597   1.153 -0.0975  1.7262  0.1391
  190MOL0     H26171   4.938   4.637   1.223 -2.2282 -0.7159 -0.6974
  190MOL0     H26172   4.846   4.641   0.975  0.2983  0.6721 -1.7501
  190MOL0     H26173   4.954   4.771   1.036 -0.0123 -0.6928  2.1714
  190MOL0     H26174   5.146   4.618   0.931  0.4206 -2.0521 -2.8548
  190MOL0     H26175   5.012   4.534   0.855 -2.7698  0.1141 -0.2358
  190MOL0     H26176   5.062   4.696   0.689 -2.1473 -1.1147  0.5786
  190MOL0     H26177   4.940   4.785   0.779 -0.3242  0.6840  1.8872
  190MOL0     H26178   5.272   4.771   0.654 -1.5539  0.2648  1.9302
  190MOL0     H26179   5.459   4.909   0.379  1.7151 -2.0866 -0.2082
  190MOL0     H26180   5.337   4.783   0.344 -1.3359 -0.3966 -0.2529
  190MOL0     H26181   5.445   4.776   0.490  1.1285  0.4078 -1.3836
  190MOL0     H26182   4.998   5.377   0.174  0.1096  0.9673 -0.7027
  190MOL0     H26183   5.038   5.548   0.020  0.3560  1.7317  0.7869
  190MOL0     H26184   5.140   5.643  -0.223 -0.7422  2.2138 -0.3797
  190MOL0     H26185   5.103   5.763  -0.080  0.9052  0.8486  2.9451
  190MOL0     H26186   5.294   5.878  -0.134  0.0958  0.4595  0.4642
  190MOL0     H26187   5.332   5.767  -0.269 -2.3183 -2.2363 -0.9168
  190MOL0     H26188   5.092   5.945  -0.252  0.4008  1.5449 -0.8860
  190MOL0     H26189   5.109   5.817  -0.366 -2.6772 -1.0545  4.5906
  190MOL0     H26190   5.330   5.928  -0.442 -0.4225 -1.3865 -1.0108
  190MOL0     H26191   5.310   6.056  -0.326  2.6938 -0.8498 -1.4746
  190MOL0     H26192   5.104   6.010  -0.554 -2.5005  0.9545  0.2774
  190MOL0     H26193   5.092   6.130  -0.430 -2.4927  1.3931 -3.4982
  190MOL0     H26194   5.178   6.217  -0.627 -0.1174 -0.0484  2.0052
  190MOL0     H26195   5.318   6.112  -0.641  1.4134  0.2377  0.3147
  190MOL0     H26196   5.427   6.212  -0.439 -1.0337 -1.1403  3.4393
  190MOL0     H26197   5.284   6.301  -0.403 -1.7917  2.3392 -2.0128
  190MOL0     H26198   5.425   6.348  -0.662 -0.0514 -1.7988  2.0922
  190MOL0     H26199   5.463   6.439  -0.507  0.9603  1.1582  0.8011
  190MOL0     H26200   5.452   5.488   0.007  0.1059 -0.9559  0.2341
  190MOL0     H26201   5.432   5.301   0.182  0.4366 -0.1954  0.7518
  190MOL0     H26202   5.102   5.212   0.534 -3.0128 -2.0258 -0.0250
  190MOL0     H26203   5.074   5.115   0.753  0.6265 -0.5176  0.0657
  190MOL0     H26204   4.202   3.309   1.401  0.2959 -2.0285  0.3336
  190MOL0     H26205   4.023   3.156   1.396 -2.1987 -0.8194 -1.1567
  190MOL0     H26206   3.614   3.182   1.120 -2.2856 -1.7891  1.3896
  190MOL0     H26207   3.395   3.138   1.062  1.0268  0.5056 -1.0732
  190MOL0     H26208   3.193   2.997   1.062 -1.3530 -0.8875 -0.0540
  190MOL0     H26209   3.214   3.120   0.940 -1.3850  0.1754  1.9618
  190MOL0     H26210   3.044   2.864   0.917 -2.0741  0.4429  1.3400
  190MOL0     H26211   3.096   2.979   0.783 -0.3731 -0.8834 -0.0510
  190MOL0     H26212   2.946   3.111   0.999  1.6810 -5.2917  3.1336
  190MOL0     H26213   2.962   3.154   0.835  2.5748 -1.2733 -1.2907
  190MOL0     H26214   2.738   3.079   0.831  0.5549 -0.3331 -4.9704
  190MOL0     H26215   2.773   2.940   0.928 -0.4633 -1.3122 -0.6471
  190MOL0     H26216   2.757   2.802   0.548  0.1374  1.4831 -1.2185
  190MOL0     H26217   3.513   2.767   0.879  0.5284  0.4104 -2.2942
  190MOL0     H26218   3.866   2.779   0.938  1.7809 -2.9375 -2.2853
  190MOL0     H26219   3.716   2.675   0.944 -0.8531 -0.2915 -4.9254
  190MOL0     H26220   3.766   2.778   0.809  1.6259  0.0395 -0.3173
  191MOL0     O26221   1.825   4.358  11.333  0.3746  0.3140  0.1337
  191MOL0     C26222   1.815   4.236  11.356  0.4262  0.0496 -0.3606
  191MOL0     O26223   1.733   4.156  11.281 -0.7386 -0.1696 -0.0039
  191MOL0     C26224   1.675   4.214  11.167  0.0734  0.1261 -0.4023
  191MOL0     C26225   1.534   4.244  11.166 -0.3906 -0.4628  1.0622
  191MOL0     C26226   1.477   4.304  11.049  1.1537 -0.0002  0.0060
  191MOL0     C26227   1.548   4.311  10.930  0.1489  0.3416  0.0743
  191MOL0     O26228   1.473   4.322  10.816  0.1108  0.5776  0.1075
  191MOL0     C26229   1.424   4.458  10.780  0.3912 -0.0790 -0.2469
  191MOL0     C26230   1.467   4.478  10.631 -0.1716  0.1471  1.2369
  191MOL0     C26231   1.618   4.493  10.614 -1.0149  0.8039  0.3676
  191MOL0     C26232   1.660   4.541  10.470  0.9800  0.5308  0.1045
  191MOL0     C26233   1.805   4.547  10.423 -0.4792 -0.0703 -0.7654
  191MOL0     C26234   1.818   4.528  10.279 -0.6304  0.3324 -0.2967
  191MOL0     C26235   1.811   4.656  10.188 -0.2736  0.2827  0.2546
  191MOL0     C26236   1.946   4.732  10.175 -0.7246  0.1615  0.3285
  191MOL0     N26237   2.037   4.639  10.099 -0.9678 -0.2522  0.4682
  191MOL0     C26238   2.015   4.584   9.971  0.2153 -0.2878 -1.4277
  191MOL0     C26239   2.114   4.489   9.969  0.0576 -0.1337  0.5384
  191MOL0     C26240   2.128   4.385   9.868  0.2929  0.6139  1.2483
  191MOL0     C26241   2.004   4.303   9.864  0.2967 -0.1888 -0.1801
  191MOL0     C26242   1.990   4.217   9.739  0.1550  0.7115  0.1865
  191MOL0     C26243   2.110   4.127   9.712 -0.4692  0.0495 -0.0806
  191MOL0     O26244   2.093   4.053   9.590  0.4136 -0.4288 -0.3448
  191MOL0     C26245   2.190   3.964   9.552 -0.6229 -0.1107  1.2685
  191MOL0     C26246   2.154   3.893   9.440  0.4259 -0.7444  0.9497
  191MOL0     C26247   2.237   3.806   9.372 -0.3913  0.0531  0.3400
  191MOL0     C26248   2.181   3.749   9.250  0.0673  0.0160 -0.2384
  191MOL0     C26249   2.372   3.783   9.427 -0.1504 -0.4517  0.2955
  191MOL0     C26250   2.479   3.717   9.351  0.4671 -0.1774 -0.8761
  191MOL0     O26251   2.584   3.673   9.421 -0.2728 -0.3650 -0.7987
  191MOL0     C26252   2.674   3.594   9.353 -0.4719 -0.2754  0.7231
  191MOL0     C26253   2.773   3.645   9.267  1.3120  0.4940  0.4596
  191MOL0     C26254   2.862   3.550   9.214 -0.6075 -0.3995 -0.3850
  191MOL0     C26255   2.853   3.412   9.233  0.8299 -0.5601  0.0023
  191MOL0     O26256   2.930   3.329   9.174 -0.3601 -0.5029 -0.5763
  191MOL0     C26257   3.052   3.352   9.108  0.7373 -0.3548  0.5596
  191MOL0     C26258   3.050   3.400   8.962 -0.6325 -0.0352 -0.3193
  191MOL0     C26259   3.197   3.390   8.911  0.4344 -0.9813  0.9953
  191MOL0     C26260   3.188   3.392   8.751 -0.3133  0.7269  0.4629
  191MOL0     C26261   3.326   3.419   8.679  1.5775  0.0509 -0.3505
  191MOL0     C26262   3.453   3.345   8.713  0.3524 -0.1662 -0.4663
  191MOL0     C26263   3.452   3.203   8.655 -0.0579 -0.1197 -0.0345
  191MOL0     C26264   3.580   3.128   8.712  0.4295 -0.2508 -0.4926
  191MOL0    Cl26265   3.547   3.015   8.841 -0.4521 -0.1267  0.1020
  191MOL0     C26266   2.745   3.367   9.313 -0.4847  0.0340 -0.0759
  191MOL0     C26267   2.655   3.458   9.380 -0.3982 -0.9247  0.1488
  191MOL0     O26268   2.469   3.707   9.228  0.4715 -0.7582  0.2178
  191MOL0     C26269   2.407   3.858   9.547  0.7082 -0.0081  0.4393
  191MOL0     C26270   2.321   3.947   9.607 -0.9183 -0.9925  0.0107
  191MOL0     N26271   2.199   4.500  10.076 -0.0581  0.8052  0.5345
  191MOL0     N26272   2.160   4.593  10.149  0.6906  0.2332  0.2673
  191MOL0     C26273   1.682   4.270  10.925  0.0049  0.3794 -0.1602
  191MOL0     C26274   1.749   4.234  11.051 -0.3051 -0.3493  0.4739
  191MOL0     C26275   1.886   4.176  11.477 -0.0632  0.4094  0.4794
  191MOL0     C26276   2.000   4.246  11.510  0.6897 -0.7344 -0.9023
  191MOL0     C26277   2.081   4.205  11.619  0.3177 -0.6472  0.2288
  191MOL0     C26278   2.048   4.082  11.679  0.6452 -0.2543 -0.4528
  191MOL0     O26279   2.122   4.024  11.777 -0.0566 -0.1703 -0.1913
  191MOL0     C26280   2.258   4.009  11.750  0.4398 -0.2451  0.2291
  191MOL0     C26281   2.287   3.870  11.682 -0.5430  0.7073  0.1512
  191MOL0     C26282   2.267   3.748  11.767  0.6380 -0.5160 -0.1142
  191MOL0     C26283   2.301   3.749  11.918  0.2086  0.1003 -0.7107
  191MOL0     C26284   2.435   3.726  11.956 -0.9901  0.0703 -0.7086
  191MOL0     C26285   2.550   3.699  11.982 -0.9213  0.9239 -0.9949
  191MOL0     C26286   1.931   4.011  11.638 -0.4510  0.6482 -0.2688
  191MOL0     C26287   1.846   4.065  11.549  0.5509 -0.1778 -0.2158
  191MOL0     C26288   1.702   3.999  11.545 -1.0450 -0.6398  0.8351
  191MOL0     H26289   1.473   4.223  11.253 -0.7468  1.4329  1.3196
  191MOL0     H26290   1.370   4.324  11.048  1.7293  4.3665 -3.1601
  191MOL0     H26291   1.475   4.537  10.837  1.6020  0.6747 -2.2566
  191MOL0     H26292   1.316   4.472  10.794  0.3900  0.1080 -0.4349
  191MOL0     H26293   1.430   4.391  10.576  1.8394 -0.7402  1.1898
  191MOL0     H26294   1.425   4.568  10.585  2.8630  1.4679  0.7397
  191MOL0     H26295   1.653   4.575  10.676 -0.5685  0.5999  0.3880
  191MOL0     H26296   1.676   4.406  10.644 -0.4953 -0.1276 -2.9068
  191MOL0     H26297   1.603   4.469  10.410 -0.4110  1.4638  0.2677
  191MOL0     H26298   1.611   4.635  10.444  3.5732  1.5575 -1.4738
  191MOL0     H26299   1.865   4.474  10.478  2.0932  1.6558 -1.1077
  191MOL0     H26300   1.852   4.644  10.443  1.2995 -1.0552  0.0719
  191MOL0     H26301   1.882   4.447  10.242 -0.7590 -0.9120  2.0486
  191MOL0     H26302   1.727   4.480  10.240  0.2073  1.5857 -4.3029
  191MOL0     H26303   1.732   4.720  10.230 -0.9659  1.4297 -2.5013
  191MOL0     H26304   1.778   4.635  10.085  0.1897  0.2824  0.1050
  191MOL0     H26305   1.931   4.814  10.105  1.3833  1.6675  1.5270
  191MOL0     H26306   1.987   4.773  10.268 -0.8769  3.9410 -1.0883
  191MOL0     H26307   1.924   4.591   9.913 -0.1407 -0.5448 -0.9148
  191MOL0     H26308   2.219   4.335   9.901  0.7651  2.1666  2.4540
  191MOL0     H26309   2.137   4.442   9.774 -0.2194 -1.8783 -0.4102
  191MOL0     H26310   2.021   4.239   9.951 -1.0658 -0.0492  0.2092
  191MOL0     H26311   1.915   4.362   9.888  0.5065 -0.7711  2.1870
  191MOL0     H26312   1.895   4.163   9.744 -1.8489  4.0648  2.7869
  191MOL0     H26313   1.989   4.283   9.652 -0.3784  1.4347  0.7251
  191MOL0     H26314   2.199   4.191   9.699 -1.3270  0.9172 -2.2632
  191MOL0     H26315   2.118   4.056   9.794 -1.1578  0.0032 -0.0503
  191MOL0     H26316   2.054   3.917   9.405  1.5751  1.0479 -1.4046
  191MOL0     H26317   2.179   3.639   9.246  0.9231 -0.1822  2.5457
  191MOL0     H26318   2.237   3.781   9.162  1.3122 -0.3507  0.3861
  191MOL0     H26319   2.079   3.786   9.239 -0.3799 -1.7925 -3.3280
  191MOL0     H26320   2.792   3.751   9.254 -0.1348  0.8097  0.6802
  191MOL0     H26321   2.947   3.580   9.153  2.0368 -1.5732  2.4433
  191MOL0     H26322   3.101   3.431   9.166 -1.8146  2.2413 -0.5688
  191MOL0     H26323   3.112   3.260   9.109  0.0459 -0.8086  0.6444
  191MOL0     H26324   2.989   3.333   8.902 -0.0092 -1.2191  0.3451
  191MOL0     H26325   3.011   3.501   8.942  0.3618  0.0718 -1.8605
  191MOL0     H26326   3.244   3.294   8.932 -0.0778 -2.0802 -2.3090
  191MOL0     H26327   3.266   3.473   8.930 -0.8157  0.3032  0.1074
  191MOL0     H26328   3.108   3.461   8.724  1.3998  2.5726 -0.1426
  191MOL0     H26329   3.157   3.294   8.713  1.2730 -0.2017  1.4267
  191MOL0     H26330   3.312   3.396   8.573  1.1750  0.6164 -0.4219
  191MOL0     H26331   3.326   3.528   8.679  0.4675  0.1377  2.5413
  191MOL0     H26332   3.450   3.356   8.822 -3.3644  0.3304 -0.4872
  191MOL0     H26333   3.544   3.398   8.683  0.0616  0.7380  0.1883
  191MOL0     H26334   3.462   3.211   8.546 -3.0275 -1.6222 -0.5244
  191MOL0     H26335   3.366   3.143   8.684  1.1715 -1.5341  0.8527
  191MOL0     H26336   3.662   3.198   8.729  0.0722  0.8940 -3.0858
  191MOL0     H26337   3.625   3.064   8.636 -1.8867  0.4635 -2.6054
  191MOL0     H26338   2.724   3.261   9.317 -0.3769  0.0283  0.4014
  191MOL0     H26339   2.580   3.419   9.448 -0.9515 -1.0560 -0.5240
  191MOL0     H26340   2.506   3.859   9.591 -0.4755  0.9858  3.3285
  191MOL0     H26341   2.355   4.017   9.682 -3.9575  1.0748 -0.3855
  191MOL0     H26342   1.722   4.270  10.824 -1.1569 -0.7389 -0.6495
  191MOL0     H26343   1.854   4.207  11.048 -1.0021 -3.3696 -0.9948
  191MOL0     H26344   2.041   4.330  11.455  0.3257  0.4066  0.5214
  191MOL0     H26345   2.161   4.274  11.644  1.1261 -1.4960  0.0471
  191MOL0     H26346   2.306   4.096  11.704 -1.3591  0.1020 -1.1167
  191MOL0     H26347   2.314   4.010  11.844 -0.6724  0.6918  0.9199
  191MOL0     H26348   2.386   3.871  11.636 -0.7342 -0.5481 -0.3350
  191MOL0     H26349   2.225   3.855  11.593  1.9191 -1.2275 -1.3426
  191MOL0     H26350   2.162   3.725  11.744  1.0191 -0.0128 -2.6215
  191MOL0     H26351   2.329   3.675  11.715 -1.5446  0.0407 -3.9225
  191MOL0     H26352   2.243   3.675  11.975 -1.0231  0.0601 -1.9473
  191MOL0     H26353   2.267   3.842  11.965 -2.3711 -2.6305  3.6241
  191MOL0     H26354   2.653   3.679  12.001 -1.4188 -0.8843  0.0075
  191MOL0     H26355   1.894   3.927  11.696 -0.7374 -0.0292 -1.3989
  191MOL0     H26356   1.658   3.992  11.645 -2.8388  0.2321  0.1468
  191MOL0     H26357   1.635   4.059  11.484 -0.0064  1.7428  1.9258
  191MOL0     H26358   1.722   3.896  11.514  2.3464 -0.1981  1.2369
  192MOL0     O26359   3.842   4.794   0.480  1.2258  0.2624 -1.3656
  192MOL0     C26360   3.720   4.774   0.466 -0.6219  0.0154  0.5596
  192MOL0     O26361   3.665   4.684   0.378  0.3951  0.2657  0.0797
  192MOL0     C26362   3.747   4.614   0.287  0.3243 -0.2225  0.4856
  192MOL0     C26363   3.816   4.688   0.196 -1.0315  0.1873 -0.4599
  192MOL0     C26364   3.901   4.644   0.095 -0.0974 -0.0834  0.6194
  192MOL0     C26365   3.904   4.503   0.077 -0.4937  0.1471  0.0293
  192MOL0     O26366   3.964   4.431  -0.032 -1.0004  0.0790 -0.5187
  192MOL0     C26367   4.012   4.526  -0.134  0.4253 -0.0344  0.8801
  192MOL0     C26368   4.027   4.452  -0.274  0.3136  0.8099  0.5946
  192MOL0     C26369   4.142   4.360  -0.274  0.1495 -0.5493  0.2921
  192MOL0     C26370   4.170   4.291  -0.409  0.2426 -0.9318  0.6343
  192MOL0     C26371   4.310   4.230  -0.411  0.1299  0.2148  0.1870
  192MOL0     C26372   4.364   4.201  -0.549  0.0346  1.3122 -0.4796
  192MOL0     C26373   4.325   4.050  -0.591  0.2544 -0.1414  0.9901
  192MOL0     C26374   4.282   4.066  -0.737  0.0445 -0.1941 -0.5402
  192MOL0     N26375   4.250   3.944  -0.810  0.4491 -0.4176  0.4287
  192MOL0     C26376   4.343   3.858  -0.861 -0.0195 -1.0329 -0.5602
  192MOL0     C26377   4.274   3.786  -0.952  0.1938 -0.4010 -0.9341
  192MOL0     C26378   4.350   3.694  -1.023 -0.4831 -0.1555 -0.0070
  192MOL0     C26379   4.393   3.764  -1.151 -0.9459 -0.0151  0.5562
  192MOL0     C26380   4.441   3.664  -1.259 -0.4155 -0.2244 -0.1353
  192MOL0     C26381   4.593   3.665  -1.263  0.5708 -0.8743 -0.6944
  192MOL0     O26382   4.635   3.800  -1.292  0.1896  0.3038  0.8262
  192MOL0     C26383   4.778   3.811  -1.280  0.8809 -0.3046  0.2065
  192MOL0     C26384   4.872   3.708  -1.258  0.1889  0.1368 -0.1824
  192MOL0     C26385   5.005   3.740  -1.248 -0.8939 -0.1063  0.8905
  192MOL0     C26386   5.104   3.628  -1.225 -0.4060 -0.6381  0.8598
  192MOL0     C26387   5.048   3.873  -1.254 -0.0873 -0.3852 -1.2201
  192MOL0     C26388   5.189   3.903  -1.231  0.4013  0.1583 -1.6863
  192MOL0     O26389   5.253   3.979  -1.328  0.2854  0.4199  1.8649
  192MOL0     C26390   5.379   4.035  -1.313 -1.2731 -0.1151  0.9591
  192MOL0     C26391   5.429   4.137  -1.403 -0.4559  0.1084  0.7315
  192MOL0     C26392   5.558   4.194  -1.397 -0.2665  0.4711 -0.1823
  192MOL0     C26393   5.649   4.129  -1.311 -0.1254  0.0420  0.8954
  192MOL0     O26394   5.778   4.174  -1.296 -0.0008 -0.0293 -0.1610
  192MOL0     C26395   5.855   4.120  -1.403 -0.2989  0.3836  0.0420
  192MOL0     C26396   5.996   4.172  -1.400  0.1855  0.7130  0.8591
  192MOL0     C26397   6.079   4.124  -1.523  0.6403  0.0507  0.6573
  192MOL0     C26398   6.227   4.137  -1.508 -0.0566  0.0504 -0.5568
  192MOL0     C26399   6.326   4.071  -1.607 -0.4310 -0.9199  1.0505
  192MOL0     C26400   6.293   4.078  -1.760 -0.7898 -0.7788  2.0464
  192MOL0     C26401   6.402   4.013  -1.846  0.8246 -0.5596 -0.5523
  192MOL0     C26402   6.401   3.864  -1.823  0.2770  0.5214  0.1401
  192MOL0    Cl26403   6.242   3.780  -1.801  0.4496 -0.2007 -0.3180
  192MOL0     C26404   5.609   4.023  -1.237  0.2194 -0.4852  0.4164
  192MOL0     C26405   5.484   3.976  -1.230 -0.6329  0.5739  0.7444
  192MOL0     O26406   5.231   3.878  -1.119  0.1638  0.0527 -0.1085
  192MOL0     C26407   4.959   3.975  -1.287 -0.0212 -0.2795  0.8485
  192MOL0     C26408   4.821   3.945  -1.292  1.2061  0.9751 -0.2671
  192MOL0     N26409   4.143   3.819  -0.953 -0.0760 -0.4034 -0.4710
  192MOL0     N26410   4.129   3.912  -0.860  0.3343 -0.4310  0.5065
  192MOL0     C26411   3.831   4.424   0.176  0.8122 -0.7844  0.9028
  192MOL0     C26412   3.752   4.479   0.279 -0.3401 -0.1446  0.5615
  192MOL0     C26413   3.637   4.863   0.550 -1.1838  0.9576 -0.5762
  192MOL0     C26414   3.503   4.819   0.562  0.2161  0.1856  1.3924
  192MOL0     C26415   3.413   4.878   0.651  0.1527  0.1429 -0.8544
  192MOL0     C26416   3.459   4.961   0.751  0.3546  0.3988 -1.1418
  192MOL0     O26417   3.376   5.019   0.838  0.1028 -0.0835  0.2555
  192MOL0     C26418   3.404   4.993   0.970 -0.8572  0.4616  0.9959
  192MOL0     C26419   3.395   4.849   1.004 -0.5321 -0.4976 -0.3147
  192MOL0     C26420   3.407   4.821   1.156 -0.5517  0.5401 -0.6919
  192MOL0     C26421   3.281   4.842   1.225  0.0401 -0.4014  0.2541
  192MOL0     C26422   3.285   4.775   1.360  0.5777 -0.6462  0.2771
  192MOL0     C26423   3.256   4.724   1.464 -0.7039 -0.7924 -0.3337
  192MOL0     C26424   3.595   5.003   0.743  0.1009  0.3574  0.2800
  192MOL0     C26425   3.684   4.962   0.642  0.9087 -0.2266  0.1471
  192MOL0     C26426   3.821   5.029   0.651  0.0479 -0.0164 -0.5424
  192MOL0     H26427   3.799   4.795   0.199  1.9077  0.7530  1.9663
  192MOL0     H26428   3.948   4.706   0.020 -2.1730 -0.9753 -1.5739
  192MOL0     H26429   4.103   4.581  -0.106 -0.2928  2.1970 -0.9275
  192MOL0     H26430   3.932   4.598  -0.152  1.3398  0.2389 -2.8427
  192MOL0     H26431   3.937   4.393  -0.292  0.9507 -2.2909  5.6671
  192MOL0     H26432   4.043   4.526  -0.354 -2.0851  0.3790 -0.3776
  192MOL0     H26433   4.227   4.424  -0.250 -0.2259  1.5730 -3.3052
  192MOL0     H26434   4.126   4.284  -0.197  1.1550 -2.1266 -0.9791
  192MOL0     H26435   4.102   4.208  -0.427 -0.0700 -0.9546  1.7863
  192MOL0     H26436   4.156   4.357  -0.495  2.4258  1.0418  1.6807
  192MOL0     H26437   4.313   4.137  -0.353 -5.4651 -1.6032 -1.7811
  192MOL0     H26438   4.378   4.305  -0.369  0.3243 -0.4065  1.0130
  192MOL0     H26439   4.326   4.277  -0.618 -2.2954 -0.9949 -1.9572
  192MOL0     H26440   4.473   4.196  -0.544 -0.0571 -0.2862  1.3158
  192MOL0     H26441   4.242   4.014  -0.529  0.0163  0.9418  1.3297
  192MOL0     H26442   4.405   3.976  -0.591 -2.4719 -3.4538 -1.5946
  192MOL0     H26443   4.189   4.123  -0.730 -0.1696 -0.6737  1.0621
  192MOL0     H26444   4.359   4.114  -0.797  1.0375 -2.1485 -0.9091
  192MOL0     H26445   4.452   3.861  -0.859  0.0791  3.9788  0.2496
  192MOL0     H26446   4.293   3.603  -1.045  0.7063 -0.7759 -0.6402
  192MOL0     H26447   4.438   3.665  -0.964  0.5161  1.7051 -0.4751
  192MOL0     H26448   4.310   3.815  -1.201 -0.2913 -2.6621 -3.7437
  192MOL0     H26449   4.466   3.842  -1.131 -0.7302  0.8396 -2.9384
  192MOL0     H26450   4.404   3.563  -1.238  0.2635 -0.8452 -1.7929
  192MOL0     H26451   4.402   3.694  -1.357  0.9248 -3.3243 -1.7538
  192MOL0     H26452   4.634   3.632  -1.167 -1.3969  1.7896  1.2001
  192MOL0     H26453   4.638   3.600  -1.339  4.3720  2.1888 -1.4087
  192MOL0     H26454   4.839   3.606  -1.246  1.1225 -0.6117 -3.0965
  192MOL0     H26455   5.197   3.637  -1.282 -1.8770 -0.1187 -1.6212
  192MOL0     H26456   5.066   3.533  -1.263 -2.2259  1.7244 -4.2295
  192MOL0     H26457   5.134   3.626  -1.120 -1.3263 -2.6111  1.1338
  192MOL0     H26458   5.348   4.177  -1.463  0.7364 -0.4439 -1.3559
  192MOL0     H26459   5.593   4.278  -1.455 -0.0257 -0.8701 -2.0816
  192MOL0     H26460   5.852   4.011  -1.412 -1.2760  0.4494 -0.5775
  192MOL0     H26461   5.811   4.149  -1.499 -1.2254 -1.1838 -0.0401
  192MOL0     H26462   6.003   4.278  -1.377 -0.1303  0.5612  1.6672
  192MOL0     H26463   6.057   4.125  -1.322  0.6537  2.9406  1.9256
  192MOL0     H26464   6.048   4.181  -1.611  0.5573 -2.3998 -1.0305
  192MOL0     H26465   6.059   4.023  -1.562  0.4406  0.0147  0.8492
  192MOL0     H26466   6.264   4.100  -1.412  1.7499 -1.9728 -1.9267
  192MOL0     H26467   6.238   4.246  -1.506  1.2917  0.0661  4.1159
  192MOL0     H26468   6.420   4.122  -1.583  1.1165 -3.0740 -0.0866
  192MOL0     H26469   6.331   3.967  -1.575  2.5478 -1.3171 -0.3297
  192MOL0     H26470   6.280   4.180  -1.796  0.3701 -1.3555 -0.1985
  192MOL0     H26471   6.200   4.026  -1.785 -1.6255  0.6330  2.0858
  192MOL0     H26472   6.504   4.050  -1.830  0.0531  1.4061  0.0213
  192MOL0     H26473   6.385   4.020  -1.954 -2.6945  2.0666  0.0099
  192MOL0     H26474   6.447   3.843  -1.726 -1.7775 -2.0951  0.6781
  192MOL0     H26475   6.451   3.826  -1.912  0.9727  1.0210  0.3142
  192MOL0     H26476   5.685   3.991  -1.166  1.0416  1.5365  0.5053
  192MOL0     H26477   5.465   3.891  -1.165 -0.9190  2.8138  3.8026
  192MOL0     H26478   4.991   4.078  -1.292  1.9855 -0.9268 -1.2104
  192MOL0     H26479   4.741   4.018  -1.299  1.0938  0.7410 -1.6567
  192MOL0     H26480   3.832   4.315   0.170  1.6691 -0.7200 -0.7183
  192MOL0     H26481   3.696   4.420   0.351 -2.4422  1.2368  0.1541
  192MOL0     H26482   3.466   4.745   0.492 -2.4467  1.6435  1.1250
  192MOL0     H26483   3.306   4.864   0.658  0.1339  1.1368  1.9999
  192MOL0     H26484   3.497   5.033   1.011  0.1031 -1.4061  0.7163
  192MOL0     H26485   3.318   5.030   1.027 -2.3566 -2.2893  0.6592
  192MOL0     H26486   3.475   4.791   0.957 -1.1281 -3.5140  2.0998
  192MOL0     H26487   3.302   4.814   0.960 -0.9975  2.4360 -1.9240
  192MOL0     H26488   3.428   4.715   1.173 -3.0281  0.2259  0.8646
  192MOL0     H26489   3.487   4.886   1.194 -1.6467  1.1366  0.6570
  192MOL0     H26490   3.197   4.802   1.167 -0.2870 -1.1076  1.1875
  192MOL0     H26491   3.276   4.949   1.244  3.3416 -0.1371  0.1013
  192MOL0     H26492   3.239   4.689   1.564  2.9727 -1.3029  0.2403
  192MOL0     H26493   3.617   5.078   0.818 -1.5924  0.3182  0.8638
  192MOL0     H26494   3.821   5.093   0.562 -1.5628 -1.1217 -1.3883
  192MOL0     H26495   3.833   5.096   0.736 -0.8480  0.1081 -0.5007
  192MOL0     H26496   3.910   4.966   0.645  1.5121  1.8596  0.5461
  193MOL0     O26497   4.920   3.535   9.393  0.6816  0.9559 -0.1693
  193MOL0     C26498   4.956   3.636   9.455  0.6816  0.3104 -0.1568
  193MOL0     O26499   4.966   3.644   9.588 -0.0627  0.6419 -0.7177
  193MOL0     C26500   4.867   3.581   9.660  1.4519 -0.2411  0.5093
  193MOL0     C26501   4.734   3.575   9.615 -1.1839  0.2594  0.4122
  193MOL0     C26502   4.636   3.515   9.710  0.5228  0.0157 -0.2151
  193MOL0     C26503   4.675   3.445   9.825  0.0115 -0.0487 -0.4371
  193MOL0     O26504   4.588   3.385   9.916 -0.4891  0.1993 -0.2399
  193MOL0     C26505   4.452   3.404   9.882  0.7921  0.4703 -0.1025
  193MOL0     C26506   4.371   3.325   9.980 -0.4999  0.3630 -0.2023
  193MOL0     C26507   4.233   3.318   9.924  0.2106  0.2191 -0.3060
  193MOL0     C26508   4.130   3.290  10.034 -0.0983  0.8000 -0.7209
  193MOL0     C26509   4.023   3.195   9.978 -0.8329 -0.3115  0.3997
  193MOL0     C26510   3.894   3.223  10.061 -0.2652 -0.3080 -0.9328
  193MOL0     C26511   3.796   3.113  10.016  0.1531  0.4064 -0.6102
  193MOL0     C26512   3.676   3.086  10.110 -0.3821  0.6719  0.1619
  193MOL0     N26513   3.605   3.212  10.126  0.1609 -1.0953  0.3881
  193MOL0     C26514   3.622   3.307  10.229 -0.7298  0.2206  0.6561
  193MOL0     C26515   3.540   3.410  10.198  0.1596 -0.2896 -0.0017
  193MOL0     C26516   3.539   3.526  10.291 -0.5029 -0.6258 -0.4132
  193MOL0     C26517   3.437   3.633  10.245 -0.9395 -0.5864  0.9904
  193MOL0     C26518   3.475   3.775  10.276 -0.4387  0.2016 -0.4882
  193MOL0     C26519   3.603   3.833  10.205  0.7061  0.3084  0.4117
  193MOL0     O26520   3.550   3.890  10.083 -0.0513  0.4662  0.4855
  193MOL0     C26521   3.624   3.863   9.973 -0.5512 -0.0139  0.5299
  193MOL0     C26522   3.631   3.736   9.912  0.0021  0.1310 -0.0719
  193MOL0     C26523   3.736   3.699   9.820  0.1763  0.2128  0.6867
  193MOL0     C26524   3.737   3.552   9.771 -0.7017  0.3542  0.2459
  193MOL0     C26525   3.797   3.806   9.756  0.1040  0.6398  0.6348
  193MOL0     C26526   3.899   3.789   9.638  0.9049  0.2690 -1.1406
  193MOL0     O26527   3.908   3.898   9.555  0.7355 -0.3638 -0.3247
  193MOL0     C26528   3.994   3.877   9.448  0.0398 -0.3794 -0.0192
  193MOL0     C26529   3.972   3.787   9.343  0.2577 -0.1915 -0.1732
  193MOL0     C26530   4.060   3.770   9.235 -0.4307 -0.3697  0.2842
  193MOL0     C26531   4.182   3.841   9.240  0.3837  0.1852 -0.7181
  193MOL0     O26532   4.283   3.825   9.152 -0.4430 -0.0638  0.2516
  193MOL0     C26533   4.259   3.866   9.014 -0.5502 -0.0391  0.5606
  193MOL0     C26534   4.375   3.816   8.932 -0.1492  0.9245 -0.3779
  193MOL0     C26535   4.348   3.827   8.775  0.1966  0.6012 -0.0139
  193MOL0     C26536   4.452   3.747   8.701  0.1387  1.1762 -0.1388
  193MOL0     C26537   4.430   3.762   8.550 -0.4244 -0.6041 -0.1919
  193MOL0     C26538   4.536   3.688   8.471 -0.3716 -0.2374 -0.7969
  193MOL0     C26539   4.526   3.725   8.326  0.3684  0.1714  0.4062
  193MOL0     C26540   4.633   3.654   8.237 -0.0242  0.3037 -0.4387
  193MOL0    Cl26541   4.586   3.498   8.175  0.2794  0.0679  0.5464
  193MOL0     C26542   4.209   3.937   9.344  0.3098  0.4145 -0.8989
  193MOL0     C26543   4.115   3.950   9.448 -0.9955  0.5069  0.5133
  193MOL0     O26544   3.956   3.681   9.631  0.2525 -0.4613 -0.0745
  193MOL0     C26545   3.780   3.937   9.811  0.0126  0.4505  0.6798
  193MOL0     C26546   3.707   3.957   9.928 -0.4996  0.5456 -0.7223
  193MOL0     N26547   3.476   3.384  10.082  0.4991 -0.1415 -0.1097
  193MOL0     N26548   3.513   3.261  10.041 -0.3618 -0.7886  0.5315
  193MOL0     C26549   4.815   3.451   9.860  0.1562 -0.0389  0.3912
  193MOL0     C26550   4.909   3.523   9.775  1.1726  0.3924 -0.6713
  193MOL0     C26551   5.004   3.760   9.381  0.1104  0.8705  0.3011
  193MOL0     C26552   4.948   3.890   9.402 -0.3883  0.1324  0.2307
  193MOL0     C26553   4.995   4.000   9.323 -0.3389 -0.3307 -0.5387
  193MOL0     C26554   5.092   3.993   9.231  0.0102 -0.2620 -0.1646
  193MOL0     O26555   5.118   4.102   9.147  0.4160  0.4310 -0.3668
  193MOL0     C26556   5.159   4.063   9.008  0.2569  0.3539 -0.3672
  193MOL0     C26557   5.158   4.182   8.903  0.1146  0.0207 -0.4497
  193MOL0     C26558   5.019   4.231   8.915 -1.0080  0.1785 -0.2571
  193MOL0     C26559   4.990   4.318   8.790  0.0341  0.2047 -0.1324
  193MOL0     C26560   5.046   4.453   8.797  0.7533 -0.1353  1.2557
  193MOL0     C26561   5.074   4.569   8.793 -0.9685 -0.1938  0.1475
  193MOL0     C26562   5.152   3.863   9.213  0.1387 -1.6554  0.0492
  193MOL0     C26563   5.110   3.748   9.285  0.7357 -0.7842 -0.0129
  193MOL0     C26564   5.190   3.623   9.270  0.3013  0.8686  0.2553
  193MOL0     H26565   4.695   3.611   9.520  1.4047 -0.8553 -1.1907
  193MOL0     H26566   4.535   3.515   9.672 -0.1706 -3.4876  1.2067
  193MOL0     H26567   4.437   3.371   9.779  2.9862  0.3568 -0.4366
  193MOL0     H26568   4.427   3.511   9.877  0.2840  0.3068 -1.6265
  193MOL0     H26569   4.415   3.225   9.990  0.4551  0.7853 -0.1350
  193MOL0     H26570   4.367   3.380  10.074 -0.0773  3.7190 -1.9917
  193MOL0     H26571   4.194   3.411   9.883 -0.7040 -1.0338 -2.4443
  193MOL0     H26572   4.232   3.248   9.840  2.0072  0.2989 -0.4247
  193MOL0     H26573   4.162   3.246  10.129 -4.3706 -1.3901 -0.0310
  193MOL0     H26574   4.088   3.388  10.057  0.5529  0.5068  2.1299
  193MOL0     H26575   4.058   3.092   9.987  0.8917  0.2226  0.0697
  193MOL0     H26576   3.999   3.219   9.873 -3.2946  0.2263  1.0190
  193MOL0     H26577   3.916   3.210  10.168 -3.0365 -0.8703 -0.3462
  193MOL0     H26578   3.838   3.315  10.042 -2.0990 -1.1634 -0.0265
  193MOL0     H26579   3.842   3.014  10.009 -1.1609 -0.3093  0.4754
  193MOL0     H26580   3.761   3.138   9.915 -3.3557  2.8895  1.0558
  193MOL0     H26581   3.615   3.003  10.076  0.7071 -1.3100  2.7037
  193MOL0     H26582   3.698   3.050  10.211 -2.2994 -2.4249 -0.3986
  193MOL0     H26583   3.701   3.297  10.302  0.5115 -0.9928 -0.7811
  193MOL0     H26584   3.640   3.568  10.287 -1.1657  0.9750 -3.4536
  193MOL0     H26585   3.510   3.490  10.390  0.5357  1.7576  0.8253
  193MOL0     H26586   3.411   3.626  10.139  0.8617  0.9507  0.3737
  193MOL0     H26587   3.348   3.618  10.306 -0.0624 -1.9247  2.0114
  193MOL0     H26588   3.392   3.839  10.247  0.8626  0.6819 -3.5687
  193MOL0     H26589   3.505   3.787  10.380 -0.6061 -0.9158 -0.2980
  193MOL0     H26590   3.646   3.917  10.260 -0.8435  3.2058 -2.4461
  193MOL0     H26591   3.670   3.747  10.198 -3.9382 -3.7186 -0.0166
  193MOL0     H26592   3.581   3.659   9.969  0.3536  0.0531  0.1342
  193MOL0     H26593   3.753   3.524   9.667  0.5925 -4.3213  1.4236
  193MOL0     H26594   3.652   3.490   9.801 -1.2749  1.8796  1.9570
  193MOL0     H26595   3.820   3.505   9.825  2.6961  0.1301 -4.5153
  193MOL0     H26596   3.896   3.709   9.339  0.1835 -0.0527 -2.8422
  193MOL0     H26597   4.061   3.680   9.174 -1.8284 -1.0763  1.2465
  193MOL0     H26598   4.166   3.830   8.969  0.3521 -1.7238 -0.0424
  193MOL0     H26599   4.267   3.975   9.012  0.1246 -0.0172 -2.8118
  193MOL0     H26600   4.466   3.872   8.954 -0.0924  0.2474  1.2443
  193MOL0     H26601   4.372   3.709   8.954 -3.3541  0.2084 -3.3528
  193MOL0     H26602   4.359   3.934   8.757  0.2081  0.8046  1.1225
  193MOL0     H26603   4.244   3.798   8.758  0.0059  0.4660  1.3190
  193MOL0     H26604   4.452   3.646   8.745 -1.7501  2.0846  2.1866
  193MOL0     H26605   4.555   3.782   8.710  0.2696  0.6347  0.6025
  193MOL0     H26606   4.332   3.722   8.523 -0.1673 -0.7037 -0.9820
  193MOL0     H26607   4.453   3.864   8.519  0.5983 -1.4753 -2.4924
  193MOL0     H26608   4.532   3.579   8.477 -0.5552 -0.5201 -4.2761
  193MOL0     H26609   4.629   3.728   8.514 -2.2691  1.7733  1.7916
  193MOL0     H26610   4.531   3.834   8.316 -0.1882  0.3117  1.4700
  193MOL0     H26611   4.425   3.691   8.301  0.2989 -1.1465  2.2720
  193MOL0     H26612   4.721   3.637   8.301  0.5582 -5.0763 -2.2216
  193MOL0     H26613   4.646   3.731   8.161  0.0331  1.5089  0.7407
  193MOL0     H26614   4.304   3.989   9.345 -0.6623  2.2902 -1.1819
  193MOL0     H26615   4.145   4.016   9.529  0.8751 -0.9670  1.1100
  193MOL0     H26616   3.824   4.030   9.775  1.3254  1.0991  3.6763
  193MOL0     H26617   3.710   4.060   9.962  0.1305  0.8327 -1.6096
  193MOL0     H26618   4.852   3.421   9.957  1.6157  1.8364  0.4610
  193MOL0     H26619   5.011   3.516   9.809  0.6726  2.2655  1.3779
  193MOL0     H26620   4.870   3.904   9.476  0.2146  2.4995  0.5252
  193MOL0     H26621   4.942   4.093   9.343 -1.7168 -1.2141  0.0695
  193MOL0     H26622   5.261   4.025   9.005 -0.1397 -0.8732  0.7099
  193MOL0     H26623   5.090   3.983   8.978  1.5365 -0.9156 -0.0354
  193MOL0     H26624   5.187   4.137   8.808  1.7601  0.0303  0.0163
  193MOL0     H26625   5.237   4.243   8.948 -2.8233  1.2306  3.6988
  193MOL0     H26626   4.953   4.144   8.917  1.4196 -1.8249 -1.0496
  193MOL0     H26627   5.003   4.288   9.007  0.7785  2.4418 -1.2369
  193MOL0     H26628   4.883   4.334   8.775 -0.2075 -3.3564 -3.8076
  193MOL0     H26629   5.031   4.266   8.703 -2.3166  1.1514 -1.9137
  193MOL0     H26630   5.128   4.659   8.771 -0.0111 -1.3470 -2.7564
  193MOL0     H26631   5.228   3.843   9.138  0.0032 -0.0514 -0.5621
  193MOL0     H26632   5.286   3.629   9.218  1.1142  1.1840  1.7195
  193MOL0     H26633   5.213   3.594   9.373 -2.2848 -0.6297  0.4926
  193MOL0     H26634   5.134   3.536   9.236 -1.8881  1.9404  0.8905
  194MOL0     O26635   3.836   8.791   8.956  0.7815 -0.0441 -0.0403
  194MOL0     C26636   3.926   8.738   9.022  0.6395 -0.0009  0.4522
  194MOL0     O26637   4.035   8.678   8.973 -0.0989  0.3163 -0.9302
  194MOL0     C26638   4.051   8.692   8.840  0.2059  0.3656 -1.3314
  194MOL0     C26639   4.025   8.600   8.739  0.1081  0.1732  0.5662
  194MOL0     C26640   4.035   8.629   8.606 -0.0242  0.7291 -0.0165
  194MOL0     C26641   4.092   8.753   8.563  0.2768  0.0859  0.1435
  194MOL0     O26642   4.120   8.769   8.427  0.6455 -0.3684 -0.7802
  194MOL0     C26643   4.237   8.698   8.385  1.1724  0.6428 -0.0341
  194MOL0     C26644   4.287   8.764   8.252  0.3067  0.0091 -0.6384
  194MOL0     C26645   4.329   8.911   8.275 -0.1612  0.0579  0.2043
  194MOL0     C26646   4.232   9.018   8.208  0.3939  0.6485  0.2787
  194MOL0     C26647   4.281   9.171   8.224 -0.3564  0.5501 -1.0213
  194MOL0     C26648   4.288   9.233   8.377  0.1829 -0.6529  0.0239
  194MOL0     C26649   4.148   9.225   8.440 -0.6002  0.1527  0.3689
  194MOL0     C26650   4.155   9.260   8.589 -0.6941  0.2439  0.1911
  194MOL0     N26651   4.024   9.276   8.646  0.4500  0.0089  0.3247
  194MOL0     C26652   3.945   9.175   8.659 -0.0558  0.2581 -0.3927
  194MOL0     C26653   3.834   9.221   8.729  0.3714 -0.6087 -0.4380
  194MOL0     C26654   3.717   9.154   8.804 -0.3701 -1.1585 -0.0169
  194MOL0     C26655   3.683   9.010   8.751 -0.4219  0.2442  0.0476
  194MOL0     C26656   3.609   9.001   8.615 -0.3145 -0.2721  1.3907
  194MOL0     C26657   3.466   9.058   8.631  0.3331 -0.3187 -0.1467
  194MOL0     O26658   3.405   9.059   8.512 -0.0862 -0.1593  0.8051
  194MOL0     C26659   3.366   8.948   8.441 -1.1227  0.5399 -0.7661
  194MOL0     C26660   3.316   8.977   8.314 -0.2099 -0.4508  0.1802
  194MOL0     C26661   3.251   8.881   8.234 -0.2919  0.6913  0.1229
  194MOL0     C26662   3.205   8.932   8.099 -0.2156  0.1069  0.2380
  194MOL0     C26663   3.247   8.740   8.289  0.9350 -0.3283  0.7090
  194MOL0     C26664   3.187   8.638   8.196  0.1772 -0.4593  0.1128
  194MOL0     O26665   3.174   8.517   8.257 -0.2766  0.6102 -0.1686
  194MOL0     C26666   3.197   8.397   8.189  0.4735  0.3658 -0.5288
  194MOL0     C26667   3.166   8.273   8.264 -0.3882 -0.0004 -0.2130
  194MOL0     C26668   3.187   8.148   8.203 -0.7254  0.7016 -0.6542
  194MOL0     C26669   3.231   8.133   8.076  0.7092 -0.2302  0.7815
  194MOL0     O26670   3.242   8.013   8.017 -0.4949 -0.5562 -0.5123
  194MOL0     C26671   3.197   7.991   7.885  0.3725 -0.1297  0.3194
  194MOL0     C26672   3.116   7.862   7.898  0.2207  0.6533 -0.3855
  194MOL0     C26673   3.048   7.813   7.776  0.6922  0.4314  0.4271
  194MOL0     C26674   3.155   7.790   7.663  1.0955 -0.4104 -0.1261
  194MOL0     C26675   3.094   7.713   7.542  1.0027  0.3204 -0.4102
  194MOL0     C26676   3.166   7.746   7.421  0.3146 -0.7534 -0.1971
  194MOL0     C26677   3.318   7.727   7.420 -0.3059 -1.1038 -0.0984
  194MOL0     C26678   3.377   7.731   7.280  0.0876 -0.0128 -1.0840
  194MOL0    Cl26679   3.536   7.642   7.288  0.1370  0.3977 -0.0343
  194MOL0     C26680   3.242   8.256   8.003  0.2440 -0.0838 -0.2067
  194MOL0     C26681   3.215   8.380   8.054  0.2411  0.3621 -0.4308
  194MOL0     O26682   3.111   8.670   8.099  0.0211  0.1245 -0.3907
  194MOL0     C26683   3.309   8.717   8.410  0.0314 -0.0997  0.7176
  194MOL0     C26684   3.360   8.819   8.490  0.3041 -1.0389 -0.5697
  194MOL0     N26685   3.851   9.357   8.746 -0.0846  0.0531 -0.5840
  194MOL0     N26686   3.961   9.386   8.703  0.1152  0.9568 -0.1841
  194MOL0     C26687   4.127   8.842   8.666  0.5979 -0.0983 -0.9389
  194MOL0     C26688   4.116   8.808   8.806  0.2090 -0.6613 -0.0159
  194MOL0     C26689   3.902   8.728   9.166  0.8089 -0.2813 -0.0830
  194MOL0     C26690   3.885   8.855   9.237 -0.4928 -1.3469  0.0038
  194MOL0     C26691   3.879   8.851   9.373  0.6253 -0.7139  0.6275
  194MOL0     C26692   3.881   8.736   9.446 -0.7367  1.1460 -0.0798
  194MOL0     O26693   3.853   8.722   9.585  0.9422 -0.2322  0.5371
  194MOL0     C26694   3.960   8.761   9.668 -0.7717 -0.8711 -1.3128
  194MOL0     C26695   3.919   8.740   9.822 -0.5283 -1.3173  0.5025
  194MOL0     C26696   4.021   8.829   9.911  0.4111  0.7809 -0.0992
  194MOL0     C26697   4.157   8.775   9.900 -0.5084 -0.9386 -0.3415
  194MOL0     C26698   4.237   8.817  10.016 -0.2390 -0.8691 -0.6176
  194MOL0     C26699   4.304   8.857  10.114  1.4352 -0.3988  0.5600
  194MOL0     C26700   3.895   8.614   9.379 -0.0377 -0.7268  0.7833
  194MOL0     C26701   3.926   8.611   9.243 -0.3701  0.1693 -0.1762
  194MOL0     C26702   3.961   8.483   9.177  0.0842 -0.1614 -0.3621
  194MOL0     H26703   3.989   8.503   8.770 -0.5734 -0.5560 -2.2549
  194MOL0     H26704   4.003   8.554   8.534 -2.1424  2.6163 -1.1948
  194MOL0     H26705   4.204   8.598   8.358  3.1631  0.9608 -4.4703
  194MOL0     H26706   4.312   8.701   8.466 -0.7052 -1.2990  1.8892
  194MOL0     H26707   4.376   8.718   8.208 -0.0196  1.1175 -2.5375
  194MOL0     H26708   4.212   8.744   8.175  0.3953 -1.0329 -0.4643
  194MOL0     H26709   4.335   8.939   8.381 -3.0059  0.1776  0.4186
  194MOL0     H26710   4.418   8.931   8.215  0.2653 -0.6032  0.5957
  194MOL0     H26711   4.220   9.002   8.101 -0.3560  1.8076  0.1733
  194MOL0     H26712   4.132   9.016   8.250 -1.0407 -0.7870 -2.8714
  194MOL0     H26713   4.213   9.237   8.171 -2.1530 -0.3955  0.0234
  194MOL0     H26714   4.375   9.198   8.174  0.4551 -0.3709 -0.0712
  194MOL0     H26715   4.358   9.180   8.443 -1.0364  1.5968  3.3804
  194MOL0     H26716   4.337   9.331   8.375  0.3803 -0.6794  1.8891
  194MOL0     H26717   4.108   9.123   8.432 -4.4424  1.4494  0.8819
  194MOL0     H26718   4.073   9.287   8.391  0.7424  0.0126 -1.9969
  194MOL0     H26719   4.215   9.188   8.645  1.8450  2.2586  0.2175
  194MOL0     H26720   4.201   9.356   8.611 -1.0042  0.5088 -0.3035
  194MOL0     H26721   3.968   9.069   8.647  0.0908  0.3048 -0.5261
  194MOL0     H26722   3.625   9.213   8.800  0.0522 -0.4864  0.1237
  194MOL0     H26723   3.733   9.156   8.912 -0.5590  0.7126 -0.0003
  194MOL0     H26724   3.777   8.955   8.737  0.8111  2.3520 -0.3900
  194MOL0     H26725   3.634   8.956   8.832  2.8531 -0.1002  1.9673
  194MOL0     H26726   3.674   9.053   8.545 -2.9569  0.2047 -0.8904
  194MOL0     H26727   3.610   8.904   8.564  1.2508 -0.0908  1.0168
  194MOL0     H26728   3.399   8.996   8.692 -1.3075  0.3780 -1.1697
  194MOL0     H26729   3.472   9.163   8.663  2.2563 -1.1250  2.5425
  194MOL0     H26730   3.327   9.079   8.279  2.4635 -0.3442  1.1113
  194MOL0     H26731   3.102   8.901   8.076 -0.8400  0.8912  1.8609
  194MOL0     H26732   3.268   8.886   8.022  0.7986  0.5355  0.7983
  194MOL0     H26733   3.216   9.041   8.095  3.1121 -0.1326  0.0471
  194MOL0     H26734   3.141   8.280   8.369  0.3435  0.4537 -0.0658
  194MOL0     H26735   3.192   8.050   8.248 -0.4428 -1.1820 -4.4272
  194MOL0     H26736   3.127   8.073   7.865 -1.6060 -2.0908 -1.3435
  194MOL0     H26737   3.278   7.990   7.811  0.7654  0.1069  0.7392
  194MOL0     H26738   3.189   7.783   7.916  4.2079  3.9560 -0.4259
  194MOL0     H26739   3.040   7.864   7.977 -0.8995  1.4660 -1.4564
  194MOL0     H26740   2.975   7.889   7.747 -1.6237 -2.4875 -2.0738
  194MOL0     H26741   2.985   7.725   7.788  1.7009 -0.3041  0.4722
  194MOL0     H26742   3.230   7.718   7.699 -1.9926 -4.9604 -1.8181
  194MOL0     H26743   3.213   7.879   7.636 -1.1100  0.1259 -3.6818
  194MOL0     H26744   3.095   7.605   7.562 -0.9641  0.0197 -1.6185
  194MOL0     H26745   2.990   7.746   7.537  0.4513 -0.8248  1.8979
  194MOL0     H26746   3.162   7.853   7.396  0.0452 -0.9602 -1.0593
  194MOL0     H26747   3.105   7.697   7.345  0.6034 -0.6675 -0.4834
  194MOL0     H26748   3.345   7.642   7.484 -1.3353  0.3197  2.3898
  194MOL0     H26749   3.361   7.807   7.482  0.8929  0.0533 -2.3254
  194MOL0     H26750   3.400   7.835   7.255  0.0537  0.4803  0.7321
  194MOL0     H26751   3.305   7.682   7.214 -0.9551 -0.9461  0.6473
  194MOL0     H26752   3.290   8.256   7.906  5.6363  0.2084  2.1123
  194MOL0     H26753   3.214   8.467   7.989  4.5281 -0.4211 -1.8435
  194MOL0     H26754   3.322   8.613   8.435  2.5401 -0.1097 -0.3357
  194MOL0     H26755   3.405   8.808   8.588  3.1407  4.4451 -0.8188
  194MOL0     H26756   4.165   8.941   8.643 -1.6982  0.5454 -2.2060
  194MOL0     H26757   4.155   8.875   8.883 -0.2358  0.0761 -0.4211
  194MOL0     H26758   3.883   8.952   9.187  4.4970 -0.9283  0.0754
  194MOL0     H26759   3.854   8.939   9.430  2.1056 -1.2730  2.2068
  194MOL0     H26760   4.053   8.714   9.637 -1.1739 -0.9499 -2.4292
  194MOL0     H26761   3.971   8.867   9.647 -0.1198 -1.1865 -2.6503
  194MOL0     H26762   3.916   8.640   9.866 -0.6881 -1.8534 -0.6741
  194MOL0     H26763   3.824   8.791   9.840 -0.4752 -1.7557  2.1401
  194MOL0     H26764   4.029   8.933   9.878  3.9115  0.2363 -1.4057
  194MOL0     H26765   3.977   8.828  10.012  0.5813  1.5512 -0.0161
  194MOL0     H26766   4.196   8.816   9.806  1.0646 -2.1192 -0.2338
  194MOL0     H26767   4.170   8.667   9.899  3.5045 -0.5763 -0.3108
  194MOL0     H26768   4.361   8.880  10.201 -1.3993  0.5640  2.3107
  194MOL0     H26769   3.883   8.518   9.429 -2.3085 -1.0604 -0.2771
  194MOL0     H26770   3.913   8.473   9.080  0.0915 -1.5444 -0.2404
  194MOL0     H26771   4.070   8.483   9.178  0.0916  0.4706  0.5941
  194MOL0     H26772   3.920   8.398   9.232 -1.2048 -1.0592 -2.6089
  195MOL0     O26773   6.686   3.335   6.253  0.1025  0.2210 -0.1036
  195MOL0     C26774   6.740   3.221   6.255 -0.1290  0.6785  0.0422
  195MOL0     O26775   6.685   3.104   6.207  0.8084  0.0545 -0.2606
  195MOL0     C26776   6.550   3.102   6.166 -0.1717 -0.7382 -0.2617
  195MOL0     C26777   6.521   3.130   6.037 -0.4252 -0.0795 -0.1900
  195MOL0     C26778   6.385   3.147   6.000 -0.8985  0.1401  0.1107
  195MOL0     C26779   6.281   3.110   6.093 -0.3140 -0.2197  0.2617
  195MOL0     O26780   6.151   3.090   6.052  0.5075  0.2036 -0.2302
  195MOL0     C26781   6.142   2.992   5.943  0.4327  0.0586  0.2423
  195MOL0     C26782   6.030   2.893   5.980  0.3179  0.8403  0.1581
  195MOL0     C26783   5.990   2.781   5.878  0.2402  0.2903 -0.2579
  195MOL0     C26784   6.110   2.702   5.822  0.4330 -0.3232  0.1393
  195MOL0     C26785   6.065   2.575   5.743 -0.0225 -0.1475 -0.5335
  195MOL0     C26786   6.019   2.467   5.837 -0.1972  0.0732  0.7952
  195MOL0     C26787   5.998   2.332   5.760  0.0864 -0.7178  0.0763
  195MOL0     C26788   5.857   2.317   5.702 -0.4467  0.5754 -0.3506
  195MOL0     N26789   5.821   2.380   5.572 -0.2732  0.1724  0.3677
  195MOL0     C26790   5.828   2.310   5.453  0.3238 -0.8996  0.3181
  195MOL0     C26791   5.770   2.391   5.361 -0.3945  0.0212 -0.0951
  195MOL0     C26792   5.724   2.374   5.220 -0.6455 -0.5268  0.4698
  195MOL0     C26793   5.692   2.226   5.183  0.6583  0.0882  0.1655
  195MOL0     C26794   5.648   2.216   5.032  0.0547  0.0649 -0.2690
  195MOL0     C26795   5.664   2.073   4.979 -0.0683 -0.5657 -0.2599
  195MOL0     O26796   5.805   2.052   4.955 -0.8305 -1.3971 -0.5349
  195MOL0     C26797   5.859   2.087   4.836  0.3971  0.3757  0.3629
  195MOL0     C26798   5.994   2.057   4.796  0.4091 -0.4364 -0.3912
  195MOL0     C26799   6.039   2.077   4.668  0.0828  0.3456 -0.0313
  195MOL0     C26800   6.179   2.035   4.636  0.8028 -0.1963 -0.6598
  195MOL0     C26801   5.962   2.138   4.565  0.6050  0.1539 -0.1078
  195MOL0     C26802   6.014   2.191   4.441 -0.2760  0.2944 -0.3784
  195MOL0     O26803   5.925   2.258   4.365 -0.7002 -0.6621  0.4898
  195MOL0     C26804   5.952   2.324   4.250 -0.1210 -0.3144 -0.0653
  195MOL0     C26805   5.923   2.280   4.119 -0.0122  0.0088 -0.3889
  195MOL0     C26806   5.974   2.342   4.004 -0.1663  0.3630 -0.0801
  195MOL0     C26807   6.072   2.445   4.022  0.3614 -0.2925 -0.8889
  195MOL0     O26808   6.125   2.512   3.921  0.3103  0.1425  0.2433
  195MOL0     C26809   6.245   2.450   3.869 -0.1779  0.2794  0.3492
  195MOL0     C26810   6.289   2.517   3.737 -0.2395 -0.5788  0.1266
  195MOL0     C26811   6.414   2.587   3.742  0.4267  0.5773 -0.3127
  195MOL0     C26812   6.446   2.659   3.612 -0.4934  0.0456  0.3973
  195MOL0     C26813   6.533   2.584   3.508  0.6280 -0.0986 -0.1082
  195MOL0     C26814   6.590   2.686   3.404  0.3150  0.0528 -0.8546
  195MOL0     C26815   6.654   2.617   3.287  0.5828  0.5598  0.3905
  195MOL0     C26816   6.724   2.487   3.319 -0.3157  0.8338 -0.3461
  195MOL0    Cl26817   6.870   2.521   3.419  0.0297  0.1107 -0.0998
  195MOL0     C26818   6.087   2.496   4.146 -0.4056  0.4416  0.1700
  195MOL0     C26819   6.033   2.436   4.257  0.1504  0.5154  0.0199
  195MOL0     O26820   6.127   2.179   4.409  0.1609 -0.0692 -0.7596
  195MOL0     C26821   5.830   2.155   4.603  0.6367  0.6797  0.4552
  195MOL0     C26822   5.776   2.141   4.734 -0.4378  0.4184 -0.4338
  195MOL0     N26823   5.738   2.506   5.430  0.0435 -0.9288 -0.1222
  195MOL0     N26824   5.757   2.506   5.557  0.0438  0.8308 -0.6188
  195MOL0     C26825   6.321   3.077   6.225 -0.3525  0.4253  0.0310
  195MOL0     C26826   6.456   3.085   6.264  0.2524  0.3512  0.8134
  195MOL0     C26827   6.865   3.202   6.323  0.4464  0.6918  0.2052
  195MOL0     C26828   6.920   3.073   6.324 -1.2634  1.2368 -0.7002
  195MOL0     C26829   7.051   3.051   6.358 -0.4096  0.7426 -0.4109
  195MOL0     C26830   7.124   3.152   6.422 -0.4332 -0.0971  0.3629
  195MOL0     O26831   7.258   3.144   6.470 -0.1561 -0.2469  0.2145
  195MOL0     C26832   7.319   3.016   6.455 -0.3995 -0.3913  0.3497
  195MOL0     C26833   7.452   3.020   6.518 -0.7300  0.5740  0.4865
  195MOL0     C26834   7.562   3.088   6.428  0.2153 -0.4417 -0.1173
  195MOL0     C26835   7.659   2.985   6.348  0.4490 -0.0881 -0.0325
  195MOL0     C26836   7.757   2.933   6.433  1.2143 -0.4270  0.9145
  195MOL0     C26837   7.845   2.872   6.486  0.8725  0.0873  0.3745
  195MOL0     C26838   7.068   3.279   6.437  0.0497  0.0252  0.4888
  195MOL0     C26839   6.939   3.311   6.382 -0.3947  0.2144  1.0898
  195MOL0     C26840   6.896   3.456   6.389  0.3803 -0.1448  0.6590
  195MOL0     H26841   6.606   3.145   5.971  0.7905 -1.3816  0.9955
  195MOL0     H26842   6.352   3.181   5.903 -3.5513 -2.3673 -0.0014
  195MOL0     H26843   6.239   2.951   5.914  0.6317  1.2496 -0.9372
  195MOL0     H26844   6.104   3.041   5.852 -2.2899 -1.2882  0.5351
  195MOL0     H26845   6.068   2.849   6.073 -2.6960  2.5502  2.3822
  195MOL0     H26846   5.940   2.951   6.003 -0.4914  1.1206 -3.2079
  195MOL0     H26847   5.914   2.719   5.927  0.1983 -0.6483 -1.4381
  195MOL0     H26848   5.927   2.819   5.798 -2.6160 -2.1996  0.6218
  195MOL0     H26849   6.183   2.761   5.767 -0.6500  0.2884 -0.7001
  195MOL0     H26850   6.160   2.661   5.910 -0.5458 -4.4094 -0.9819
  195MOL0     H26851   6.140   2.537   5.673 -0.5785 -1.5203 -0.4136
  195MOL0     H26852   5.979   2.605   5.683 -0.9850 -1.2778  0.2454
  195MOL0     H26853   6.101   2.448   5.907  0.3793  1.6719  0.6032
  195MOL0     H26854   5.928   2.503   5.886 -2.7075 -1.0134 -2.6712
  195MOL0     H26855   6.023   2.253   5.830 -2.8446 -0.3205  1.7401
  195MOL0     H26856   6.070   2.309   5.681 -1.4865 -2.6168 -0.8923
  195MOL0     H26857   5.819   2.214   5.702  2.0644 -0.4187  0.2991
  195MOL0     H26858   5.799   2.382   5.768  1.1508  0.5481  1.1471
  195MOL0     H26859   5.875   2.214   5.432 -0.3181 -0.5591 -3.2691
  195MOL0     H26860   5.798   2.409   5.147 -1.9309 -2.9475 -2.1867
  195MOL0     H26861   5.634   2.434   5.208  0.7724  1.6552  0.2342
  195MOL0     H26862   5.783   2.166   5.188 -0.7322 -2.8117 -4.0210
  195MOL0     H26863   5.622   2.176   5.251  0.1418  2.2011  1.2741
  195MOL0     H26864   5.544   2.252   5.032  0.5028  1.4866 -2.0890
  195MOL0     H26865   5.710   2.273   4.964 -0.0667  0.9257  0.3246
  195MOL0     H26866   5.644   1.996   5.055 -2.0050  0.4156  0.2820
  195MOL0     H26867   5.601   2.057   4.891 -0.2420  0.3911 -0.3205
  195MOL0     H26868   6.066   2.037   4.875 -1.0551  1.1077  1.4300
  195MOL0     H26869   6.177   1.993   4.535 -5.2542  2.3640 -2.0762
  195MOL0     H26870   6.214   1.960   4.708  0.0857  0.8178  0.8040
  195MOL0     H26871   6.241   2.124   4.633  0.0366  0.3970  0.3021
  195MOL0     H26872   5.857   2.193   4.119 -1.6977  1.2395 -1.0740
  195MOL0     H26873   5.942   2.293   3.912  1.5415 -3.6926  1.2549
  195MOL0     H26874   6.323   2.471   3.943  0.5424  1.0308 -0.5881
  195MOL0     H26875   6.231   2.343   3.851  0.0025 -0.2566  3.0206
  195MOL0     H26876   6.305   2.437   3.664 -3.4335 -0.6348 -0.6741
  195MOL0     H26877   6.219   2.593   3.700  0.7628  0.2709 -0.0884
  195MOL0     H26878   6.495   2.514   3.755 -0.7854 -0.7008  0.2959
  195MOL0     H26879   6.419   2.664   3.820  2.8710  0.4797 -0.2873
  195MOL0     H26880   6.508   2.743   3.642  0.0339 -1.0769  2.6497
  195MOL0     H26881   6.348   2.696   3.580 -0.1041 -0.8466 -2.0609
  195MOL0     H26882   6.616   2.534   3.560  0.8234 -1.7645 -1.9321
  195MOL0     H26883   6.477   2.505   3.456  4.9155 -2.5779 -1.5029
  195MOL0     H26884   6.667   2.747   3.454  1.0817  1.7621 -3.8470
  195MOL0     H26885   6.518   2.757   3.364  0.6218  0.7988 -0.1238
  195MOL0     H26886   6.716   2.683   3.226 -0.8049  0.6124 -1.0330
  195MOL0     H26887   6.571   2.590   3.221  1.4394 -0.1296 -0.4454
  195MOL0     H26888   6.756   2.440   3.225 -2.8989 -1.6532 -0.1298
  195MOL0     H26889   6.658   2.424   3.378  2.4338 -1.8843  0.0975
  195MOL0     H26890   6.157   2.576   4.166  0.1545 -0.3520  1.5771
  195MOL0     H26891   6.086   2.480   4.342  0.1411  1.5669 -0.5112
  195MOL0     H26892   5.767   2.196   4.524  0.8701 -0.4742 -0.3607
  195MOL0     H26893   5.677   2.186   4.734  0.1048  1.7690  1.9227
  195MOL0     H26894   6.248   3.042   6.297 -0.2982 -1.5638 -0.7994
  195MOL0     H26895   6.472   3.049   6.365  1.3669 -0.9788  0.1837
  195MOL0     H26896   6.869   2.985   6.288 -1.4832  0.9405  0.2992
  195MOL0     H26897   7.084   2.948   6.354 -0.9760  0.5731 -0.6846
  195MOL0     H26898   7.250   2.947   6.505 -2.2980  1.8772  1.0679
  195MOL0     H26899   7.327   2.991   6.349  1.0933 -0.7247  0.5265
  195MOL0     H26900   7.482   2.919   6.547  2.7787  2.0477  2.6596
  195MOL0     H26901   7.443   3.079   6.610  1.6782 -0.8893  1.7716
  195MOL0     H26902   7.516   3.153   6.353  0.9388 -2.2337 -2.2281
  195MOL0     H26903   7.643   3.143   6.479  0.5616 -2.2978  1.4389
  195MOL0     H26904   7.710   3.036   6.266  0.5859 -2.5722 -1.6071
  195MOL0     H26905   7.601   2.903   6.303  0.1680 -0.1243  0.3938
  195MOL0     H26906   7.932   2.824   6.525  0.7598 -0.9263 -0.5662
  195MOL0     H26907   7.128   3.357   6.483 -2.0692  1.5237  0.8623
  195MOL0     H26908   6.792   3.472   6.417  0.3619  0.8418  0.0971
  195MOL0     H26909   6.968   3.510   6.451  0.6572  0.9005 -0.5304
  195MOL0     H26910   6.903   3.483   6.283  0.7091 -1.9231  0.1898
  196MOL0     O26911   5.477   7.446   5.572  0.3096  0.2678 -0.1812
  196MOL0     C26912   5.431   7.461   5.461  0.3061 -0.6188 -1.0552
  196MOL0     O26913   5.301   7.503   5.443  0.6018 -0.2073  0.1982
  196MOL0     C26914   5.216   7.496   5.548  0.0972 -0.7299 -0.0145
  196MOL0     C26915   5.201   7.588   5.652 -0.1318  0.3175  0.0186
  196MOL0     C26916   5.109   7.562   5.757  0.1379 -0.2196  0.4027
  196MOL0     C26917   5.027   7.445   5.752  0.5710 -1.5612 -0.5214
  196MOL0     O26918   4.929   7.428   5.847  0.5861  0.8068 -0.2052
  196MOL0     C26919   4.891   7.289   5.881  0.5523  0.2272  0.0486
  196MOL0     C26920   4.747   7.275   5.828 -0.3732 -0.2515 -0.1263
  196MOL0     C26921   4.711   7.135   5.783  0.3527 -0.0980 -0.3692
  196MOL0     C26922   4.617   7.133   5.656 -0.4466  0.4878  0.6500
  196MOL0     C26923   4.582   6.996   5.607  0.4906 -1.3249  0.4798
  196MOL0     C26924   4.486   7.008   5.486 -0.3300  0.1523 -0.5338
  196MOL0     C26925   4.415   6.878   5.456 -0.4210  0.2782  0.0278
  196MOL0     C26926   4.306   6.880   5.348 -0.4283 -0.0069 -0.4822
  196MOL0     N26927   4.374   6.922   5.231 -0.9772  0.6766  1.0149
  196MOL0     C26928   4.462   6.845   5.148  0.4705  0.0094 -0.1193
  196MOL0     C26929   4.486   6.909   5.032  0.3189 -0.7259 -0.1393
  196MOL0     C26930   4.605   6.864   4.951 -0.1672 -0.2583 -0.0400
  196MOL0     C26931   4.726   6.959   4.954  0.4851  0.0017  0.7561
  196MOL0     C26932   4.813   6.948   5.078  0.1227  0.1177  0.2561
  196MOL0     C26933   4.760   7.021   5.205 -0.5553 -0.4369  0.3376
  196MOL0     O26934   4.851   7.056   5.305 -0.6323  0.8999 -0.3630
  196MOL0     C26935   4.875   6.960   5.396  0.0044 -0.4113  0.2939
  196MOL0     C26936   4.964   7.000   5.492 -0.6095  0.0364  0.2048
  196MOL0     C26937   4.995   6.926   5.605  0.0054  0.3332  0.8599
  196MOL0     C26938   5.092   6.977   5.697 -0.2064  0.0773  0.3686
  196MOL0     C26939   4.952   6.785   5.602  0.0193  0.3494 -0.8739
  196MOL0     C26940   4.989   6.681   5.706  0.1818  0.1141  0.1408
  196MOL0     O26941   4.952   6.706   5.833 -0.0786 -0.3837 -0.0092
  196MOL0     C26942   4.950   6.611   5.929 -0.0704 -0.3283 -0.6662
  196MOL0     C26943   4.918   6.665   6.057 -0.8476  0.6468 -0.8496
  196MOL0     C26944   4.924   6.576   6.176 -0.9339 -0.9287 -0.2655
  196MOL0     C26945   4.948   6.446   6.163 -0.0217  0.4660  0.3620
  196MOL0     O26946   4.952   6.351   6.264  0.0659 -0.8024  0.6809
  196MOL0     C26947   4.979   6.412   6.392  0.2600  0.8246 -0.4364
  196MOL0     C26948   4.986   6.309   6.509  0.6277 -1.0292  0.7948
  196MOL0     C26949   5.130   6.243   6.511  0.1675 -0.7650 -0.2361
  196MOL0     C26950   5.154   6.179   6.649  0.1177 -0.0546  0.6807
  196MOL0     C26951   5.275   6.070   6.659  0.7073 -0.2213  1.1057
  196MOL0     C26952   5.402   6.140   6.604  0.4325 -0.4505 -0.2842
  196MOL0     C26953   5.531   6.067   6.645  0.7734  0.7404  0.2205
  196MOL0     C26954   5.554   5.926   6.595 -0.0270  0.5701 -0.7026
  196MOL0    Cl26955   5.589   5.940   6.418  0.1741 -0.0132 -0.2989
  196MOL0     C26956   4.964   6.396   6.033  0.2696 -0.1978 -0.1588
  196MOL0     C26957   4.968   6.470   5.920 -0.3539 -0.1283  0.4631
  196MOL0     O26958   5.031   6.576   5.662  0.8453 -0.1876 -0.6551
  196MOL0     C26959   4.858   6.737   5.506 -0.6921  0.7385 -0.2847
  196MOL0     C26960   4.822   6.826   5.400  0.5643 -0.2872  0.0408
  196MOL0     N26961   4.405   7.021   5.029  0.4727 -0.1269  0.1501
  196MOL0     N26962   4.344   7.030   5.154 -0.5927 -0.3001  0.0344
  196MOL0     C26963   5.040   7.361   5.647 -0.2644 -0.1006  0.2270
  196MOL0     C26964   5.137   7.384   5.552  0.1393 -0.8900 -0.0186
  196MOL0     C26965   5.522   7.493   5.343  0.0445  0.3327 -1.2357
  196MOL0     C26966   5.518   7.611   5.261  0.1061  0.2001 -0.7355
  196MOL0     C26967   5.585   7.625   5.145  0.1261  0.5001 -0.1663
  196MOL0     C26968   5.677   7.535   5.102  0.8673  0.3889 -0.0613
  196MOL0     O26969   5.757   7.574   4.998  0.7411  0.1888 -0.0034
  196MOL0     C26970   5.885   7.518   4.967  0.1382 -0.4686  0.7511
  196MOL0     C26971   5.934   7.594   4.837  0.0945 -0.2573  0.5416
  196MOL0     C26972   5.950   7.742   4.834 -0.2680  0.8208 -0.2706
  196MOL0     C26973   5.815   7.804   4.841 -0.0255  0.2283  0.1548
  196MOL0     C26974   5.807   7.939   4.776 -0.7254 -0.3784 -0.2607
  196MOL0     C26975   5.796   8.053   4.725 -0.4181  0.5709 -0.3355
  196MOL0     C26976   5.696   7.425   5.181 -1.3591  0.1638 -0.2677
  196MOL0     C26977   5.622   7.403   5.302  0.4713  0.3913  0.4979
  196MOL0     C26978   5.638   7.276   5.384  0.3008 -0.2863  0.3118
  196MOL0     H26979   5.268   7.673   5.649 -0.5977  0.7803  1.7416
  196MOL0     H26980   5.091   7.636   5.834 -1.7205  0.4201 -0.5978
  196MOL0     H26981   4.875   7.273   5.988  0.3367  0.5804  0.0732
  196MOL0     H26982   4.952   7.209   5.839 -0.7704 -0.7296 -0.1104
  196MOL0     H26983   4.672   7.300   5.903 -0.6494  1.9345 -1.0561
  196MOL0     H26984   4.741   7.347   5.746 -0.0725  2.4537  2.0954
  196MOL0     H26985   4.808   7.089   5.762  0.3291  0.6701 -2.3947
  196MOL0     H26986   4.669   7.072   5.862 -0.3317 -1.2496 -1.6023
  196MOL0     H26987   4.524   7.190   5.665 -0.4650  0.8242 -1.3479
  196MOL0     H26988   4.673   7.183   5.576 -0.2205 -0.2803  0.3241
  196MOL0     H26989   4.533   6.944   5.690 -0.8128 -0.8744  0.0096
  196MOL0     H26990   4.668   6.937   5.575  1.4041 -0.6976  1.6797
  196MOL0     H26991   4.407   7.079   5.515 -0.8460 -0.5257 -0.2611
  196MOL0     H26992   4.541   7.044   5.399  2.0590  3.2785  2.0183
  196MOL0     H26993   4.377   6.843   5.553  5.0736 -2.6224  1.5579
  196MOL0     H26994   4.496   6.808   5.434  0.6166  1.5703 -0.4204
  196MOL0     H26995   4.248   6.788   5.347 -0.3361 -0.0924  0.7598
  196MOL0     H26996   4.235   6.958   5.378 -0.1268  0.1009 -0.0250
  196MOL0     H26997   4.507   6.756   5.190  2.2568  1.0061  0.2082
  196MOL0     H26998   4.568   6.842   4.851  0.1567  2.1736 -0.7598
  196MOL0     H26999   4.649   6.770   4.987 -1.2508 -0.3040  1.2623
  196MOL0     H27000   4.781   6.927   4.865 -3.5740 -0.7149 -1.7784
  196MOL0     H27001   4.701   7.062   4.928  0.1074  0.5492  3.0253
  196MOL0     H27002   4.834   6.846   5.113 -0.1550  0.2857  0.9262
  196MOL0     H27003   4.911   6.986   5.047  2.4431 -4.5442  0.9172
  196MOL0     H27004   4.734   7.122   5.171 -0.2616 -0.1388  0.9731
  196MOL0     H27005   4.662   6.990   5.243 -1.7678  1.7612 -0.7597
  196MOL0     H27006   5.009   7.097   5.475 -0.3398 -0.1140  0.0652
  196MOL0     H27007   5.059   6.974   5.801 -0.6053  0.8147  0.2740
  196MOL0     H27008   5.131   7.075   5.666  2.0241 -0.7347  0.4126
  196MOL0     H27009   5.183   6.916   5.691 -0.8839 -0.9518  0.3831
  196MOL0     H27010   4.891   6.770   6.069 -1.5614  0.1042  3.9953
  196MOL0     H27011   4.901   6.612   6.276  0.9377 -0.3650 -0.0051
  196MOL0     H27012   5.067   6.477   6.381  1.4899 -0.5451  0.8243
  196MOL0     H27013   4.894   6.473   6.423  0.2680  0.1620  0.9770
  196MOL0     H27014   4.963   6.374   6.594 -1.8162  1.9615 -1.8766
  196MOL0     H27015   4.906   6.235   6.504 -0.0656 -0.2309 -0.5511
  196MOL0     H27016   5.204   6.323   6.499 -1.9881  1.1824 -1.4311
  196MOL0     H27017   5.119   6.172   6.428 -5.0749  3.0820 -3.4621
  196MOL0     H27018   5.066   6.127   6.687 -1.0203  1.7397  0.6008
  196MOL0     H27019   5.176   6.259   6.720  0.0810 -1.4557  2.3213
  196MOL0     H27020   5.294   6.040   6.762 -3.8362 -0.4486  2.0906
  196MOL0     H27021   5.247   5.983   6.599  1.2934  1.5534 -1.9506
  196MOL0     H27022   5.395   6.243   6.638 -3.6511 -1.2996  2.2142
  196MOL0     H27023   5.405   6.126   6.495  0.7780 -1.0002 -0.2083
  196MOL0     H27024   5.543   6.073   6.753 -0.6085  1.5451  0.3587
  196MOL0     H27025   5.607   6.132   6.600 -0.6506  2.3931  0.1024
  196MOL0     H27026   5.460   5.870   6.606 -0.2530  0.4161 -2.9021
  196MOL0     H27027   5.628   5.872   6.655  1.2072 -0.9524 -3.3775
  196MOL0     H27028   4.976   6.288   6.026 -3.0746 -0.6323 -1.0325
  196MOL0     H27029   4.970   6.432   5.819  0.5433 -1.6889  1.0349
  196MOL0     H27030   4.810   6.639   5.508  2.3948 -0.8959  2.5830
  196MOL0     H27031   4.754   6.797   5.321  1.7372  0.3723 -1.2623
  196MOL0     H27032   4.965   7.282   5.639  0.1591 -0.8025  2.5126
  196MOL0     H27033   5.151   7.298   5.487  2.6722 -0.6450  0.1085
  196MOL0     H27034   5.454   7.690   5.299 -2.3169 -1.1570 -1.7668
  196MOL0     H27035   5.563   7.720   5.097 -4.2321 -1.4407 -2.5202
  196MOL0     H27036   5.944   7.523   5.059 -1.2797 -2.3561  1.8237
  196MOL0     H27037   5.894   7.411   4.944  4.2525  0.6517 -5.0486
  196MOL0     H27038   5.896   7.550   4.744  1.5432  0.4753 -0.4392
  196MOL0     H27039   6.036   7.555   4.838 -0.1320 -0.8643  1.8040
  196MOL0     H27040   6.018   7.772   4.913  0.3360 -1.4276  0.1474
  196MOL0     H27041   5.993   7.771   4.738  0.6622 -1.9544 -0.7750
  196MOL0     H27042   5.797   7.813   4.948  0.8588 -0.9051  0.4091
  196MOL0     H27043   5.741   7.740   4.791  0.7258  0.4261 -1.2701
  196MOL0     H27044   5.785   8.142   4.665  1.3573  1.9889  1.2996
  196MOL0     H27045   5.770   7.354   5.146 -0.8076  1.0541 -0.9548
  196MOL0     H27046   5.544   7.219   5.381 -0.9042  1.6633 -1.7602
  196MOL0     H27047   5.727   7.221   5.354  2.6321  1.7150  3.0334
  196MOL0     H27048   5.634   7.301   5.490 -2.3211 -0.1930  0.2637
  197MOL0     O27049   3.328   4.219   1.465  0.3267 -0.6078 -0.7055
  197MOL0     C27050   3.263   4.240   1.360 -0.5702  0.2117 -0.0870
  197MOL0     O27051   3.323   4.287   1.238  0.2276  0.2307 -0.2248
  197MOL0     C27052   3.448   4.350   1.257  0.2124  0.1037 -0.1388
  197MOL0     C27053   3.534   4.333   1.151 -0.5342  0.1107  0.3046
  197MOL0     C27054   3.663   4.386   1.150 -0.1081  1.0642 -0.4466
  197MOL0     C27055   3.713   4.455   1.260  0.0264 -0.4217 -1.6653
  197MOL0     O27056   3.833   4.524   1.253  0.3271  0.2686  0.4566
  197MOL0     C27057   3.848   4.609   1.150  0.0387  0.0372  0.3672
  197MOL0     C27058   3.933   4.726   1.189 -0.6668 -0.4093 -0.4773
  197MOL0     C27059   3.916   4.847   1.088 -0.3972 -0.1882  0.2103
  197MOL0     C27060   3.937   4.809   0.936 -0.0592 -0.8883  0.1603
  197MOL0     C27061   4.089   4.780   0.902 -0.2573  0.0308 -1.0439
  197MOL0     C27062   4.122   4.803   0.760  0.3032  0.1833  0.6510
  197MOL0     C27063   4.277   4.795   0.728 -1.5088  0.0819  0.8534
  197MOL0     C27064   4.319   4.781   0.579  0.7256 -0.1141  0.5006
  197MOL0     N27065   4.265   4.896   0.499  0.3508  0.3358 -0.6660
  197MOL0     C27066   4.144   4.896   0.438 -0.6653  0.1346  0.6683
  197MOL0     C27067   4.146   5.009   0.359 -0.8381 -0.1539 -1.3570
  197MOL0     C27068   4.050   5.041   0.256 -0.4047  0.1709  0.2455
  197MOL0     C27069   4.091   4.949   0.139  0.2979 -0.1680  0.3610
  197MOL0     C27070   4.220   4.993   0.062 -0.3994 -0.2733 -0.4188
  197MOL0     C27071   4.263   4.902  -0.063  0.3260  0.3331 -0.3639
  197MOL0     O27072   4.140   4.885  -0.141 -1.1456 -0.0523  0.6672
  197MOL0     C27073   4.163   4.827  -0.268 -0.1382  0.3799  0.1797
  197MOL0     C27074   4.059   4.831  -0.357 -0.3851 -0.2231 -0.0065
  197MOL0     C27075   4.062   4.786  -0.489  0.2798 -0.6229  0.1904
  197MOL0     C27076   3.938   4.798  -0.567  0.3721  1.0343 -0.4425
  197MOL0     C27077   4.173   4.709  -0.529  0.8394  0.8195 -0.3794
  197MOL0     C27078   4.184   4.638  -0.664 -0.1074 -0.5281 -0.5023
  197MOL0     O27079   4.275   4.539  -0.666  0.3230 -0.1685  0.8805
  197MOL0     C27080   4.299   4.468  -0.790  0.2426 -0.8283 -0.1423
  197MOL0     C27081   4.429   4.472  -0.830 -0.3883  0.0860  0.3442
  197MOL0     C27082   4.466   4.419  -0.955  1.0512  0.2430  0.3396
  197MOL0     C27083   4.371   4.361  -1.038  0.1822 -0.6994 -0.1277
  197MOL0     O27084   4.420   4.324  -1.152  0.7097 -0.1671  0.5402
  197MOL0     C27085   4.338   4.219  -1.219 -0.3274 -0.2041  0.5079
  197MOL0     C27086   4.416   4.170  -1.347  0.6675 -1.0769 -0.8559
  197MOL0     C27087   4.431   4.295  -1.434 -0.1852 -0.1502 -0.1785
  197MOL0     C27088   4.448   4.270  -1.584  0.0422 -0.4328 -0.6907
  197MOL0     C27089   4.579   4.204  -1.630 -0.7618 -0.7335  0.0631
  197MOL0     C27090   4.704   4.275  -1.580  0.5519  0.1084  0.7357
  197MOL0     C27091   4.837   4.193  -1.607 -0.4075 -0.2019 -0.0536
  197MOL0     C27092   4.955   4.280  -1.576  0.5640 -0.7291 -0.5955
  197MOL0    Cl27093   4.969   4.317  -1.411 -0.0835 -0.4284  0.0928
  197MOL0     C27094   4.235   4.366  -1.001  0.0730  1.2231 -0.2273
  197MOL0     C27095   4.200   4.419  -0.874  0.2213  0.3380  0.0362
  197MOL0     O27096   4.124   4.684  -0.758 -0.8125 -0.2165  0.2543
  197MOL0     C27097   4.284   4.700  -0.442 -0.3471 -0.5777  0.2687
  197MOL0     C27098   4.274   4.755  -0.309 -0.9563  0.3146 -0.1526
  197MOL0     N27099   4.263   5.078   0.389  0.1143  0.5456 -0.1727
  197MOL0     N27100   4.339   5.009   0.482  0.4092  0.3774  0.4635
  197MOL0     C27101   3.627   4.464   1.371 -0.4134  0.3706  0.5452
  197MOL0     C27102   3.500   4.417   1.368 -0.7676  0.5678 -0.6714
  197MOL0     C27103   3.123   4.208   1.366  0.3080  0.5920  0.7453
  197MOL0     C27104   3.046   4.285   1.454 -1.3616  0.5171 -0.3099
  197MOL0     C27105   2.906   4.290   1.446 -0.1712  0.3116 -0.7030
  197MOL0     C27106   2.838   4.216   1.353  0.0939 -0.4217 -0.7367
  197MOL0     O27107   2.693   4.220   1.348 -0.8804 -0.4951  0.0139
  197MOL0     C27108   2.610   4.251   1.462 -0.7498  0.2003  0.0928
  197MOL0     C27109   2.552   4.391   1.455  0.3106  0.1630  0.5680
  197MOL0     C27110   2.629   4.508   1.496  0.1887  0.3491 -0.7326
  197MOL0     C27111   2.536   4.635   1.493 -0.5437  0.2210  0.0176
  197MOL0     C27112   2.439   4.638   1.600 -0.5009  0.7504 -0.2233
  197MOL0     C27113   2.346   4.641   1.673 -0.1867  0.1333 -0.5345
  197MOL0     C27114   2.903   4.134   1.261  0.0301 -0.1073  0.7568
  197MOL0     C27115   3.050   4.132   1.264 -0.4097 -0.1424 -0.4476
  197MOL0     C27116   3.130   4.047   1.171 -0.0632 -0.1304  0.7308
  197MOL0     H27117   3.506   4.263   1.073  0.5070 -0.7707  0.7057
  197MOL0     H27118   3.726   4.378   1.062  0.8991  2.8614  0.0621
  197MOL0     H27119   3.754   4.661   1.131 -0.4622  0.2628  3.1103
  197MOL0     H27120   3.895   4.573   1.058 -0.8112  1.6177 -0.7285
  197MOL0     H27121   3.885   4.748   1.285 -0.6883 -2.2318 -0.0377
  197MOL0     H27122   4.041   4.709   1.201 -0.3592  1.8152  0.5167
  197MOL0     H27123   3.820   4.895   1.108 -0.4843  0.3421 -1.2939
  197MOL0     H27124   3.982   4.933   1.105 -2.5749  1.2286  2.0802
  197MOL0     H27125   3.873   4.723   0.913  0.0080 -0.8230 -0.2930
  197MOL0     H27126   3.898   4.895   0.882  1.4230 -0.6374 -0.5698
  197MOL0     H27127   4.106   4.673   0.914  1.5056  0.4409  0.6841
  197MOL0     H27128   4.146   4.837   0.977 -2.1391  1.6299 -0.7342
  197MOL0     H27129   4.064   4.726   0.708 -0.2985  0.1653  1.3159
  197MOL0     H27130   4.084   4.899   0.722  0.6185 -0.0155 -0.1807
  197MOL0     H27131   4.315   4.703   0.774 -0.2995 -0.2280 -0.6857
  197MOL0     H27132   4.341   4.869   0.777  4.6625 -1.3467 -3.7507
  197MOL0     H27133   4.427   4.790   0.564  0.6151  1.0645  0.3171
  197MOL0     H27134   4.286   4.684   0.542  1.6040 -2.6082  5.5217
  197MOL0     H27135   4.074   4.812   0.439  0.3213 -0.9503 -3.2223
  197MOL0     H27136   4.042   5.147   0.233 -1.7232  0.8886  3.3725
  197MOL0     H27137   3.952   5.019   0.300  0.4537  2.1912  3.5551
  197MOL0     H27138   4.097   4.840   0.150  1.1339 -0.0095  1.6172
  197MOL0     H27139   4.012   4.970   0.066  1.0579 -3.0642 -1.4724
  197MOL0     H27140   4.212   5.102   0.049  0.5688 -0.1207  0.1460
  197MOL0     H27141   4.300   4.980   0.135 -3.6580  0.5500  3.6810
  197MOL0     H27142   4.333   4.950  -0.132  0.5010 -0.0680 -0.4691
  197MOL0     H27143   4.304   4.809  -0.024 -1.1963  1.1528  3.6803
  197MOL0     H27144   3.968   4.883  -0.327  1.6379  2.5065  1.9585
  197MOL0     H27145   3.853   4.830  -0.507  0.0546  2.4412 -1.5666
  197MOL0     H27146   3.902   4.704  -0.608 -0.4288  1.7762 -1.5086
  197MOL0     H27147   3.943   4.873  -0.647 -3.7044  3.0592  0.8985
  197MOL0     H27148   4.508   4.501  -0.760 -0.2182 -1.5823  0.8840
  197MOL0     H27149   4.569   4.415  -0.988  1.3788  1.8056  1.0885
  197MOL0     H27150   4.320   4.133  -1.154  0.1052 -0.2942  0.5136
  197MOL0     H27151   4.239   4.256  -1.246 -0.0181  2.4729  2.5828
  197MOL0     H27152   4.521   4.149  -1.323  1.0407 -1.0892 -2.4080
  197MOL0     H27153   4.384   4.081  -1.402 -0.8862 -0.2668 -1.3033
  197MOL0     H27154   4.518   4.350  -1.397 -0.0210 -0.1785 -0.5186
  197MOL0     H27155   4.341   4.356  -1.425 -2.4971 -3.5389  2.0369
  197MOL0     H27156   4.434   4.359  -1.645 -1.8654 -0.3252 -0.1668
  197MOL0     H27157   4.371   4.196  -1.608 -1.1639 -0.7968  3.4842
  197MOL0     H27158   4.578   4.100  -1.595  1.4919 -1.1664 -0.9757
  197MOL0     H27159   4.572   4.202  -1.739 -1.7162  0.3905  0.0846
  197MOL0     H27160   4.689   4.299  -1.475 -2.6664  0.4792  0.2828
  197MOL0     H27161   4.712   4.359  -1.650 -1.1975 -0.3799 -0.1183
  197MOL0     H27162   4.848   4.161  -1.711 -0.0654 -1.2515  0.2940
  197MOL0     H27163   4.841   4.107  -1.539  2.3270  2.8405  4.0673
  197MOL0     H27164   4.945   4.375  -1.630 -1.9454  0.0579  1.0345
  197MOL0     H27165   5.043   4.225  -1.608  0.1981  0.7806 -4.8683
  197MOL0     H27166   4.160   4.335  -1.073  2.3486 -0.1031 -2.2093
  197MOL0     H27167   4.097   4.424  -0.838  0.5283  0.2912  0.9418
  197MOL0     H27168   4.373   4.651  -0.480 -0.7248 -1.3834  0.4121
  197MOL0     H27169   4.343   4.733  -0.228 -2.7639 -0.2437  1.2907
  197MOL0     H27170   3.661   4.514   1.461  0.3760 -1.4790  1.3126
  197MOL0     H27171   3.446   4.427   1.461 -1.7414  4.2995 -1.4639
  197MOL0     H27172   3.103   4.348   1.521 -1.5790 -0.2757  0.6377
  197MOL0     H27173   2.846   4.347   1.517  1.0406  2.2355 -1.1227
  197MOL0     H27174   2.528   4.180   1.444  1.3240 -1.3503 -5.0195
  197MOL0     H27175   2.657   4.222   1.557 -0.1660 -0.6351 -0.4317
  197MOL0     H27176   2.457   4.390   1.510  0.5899  2.1996  1.1805
  197MOL0     H27177   2.519   4.414   1.354  1.2085 -0.7473  0.0535
  197MOL0     H27178   2.674   4.510   1.596 -1.3228  0.1290 -0.0218
  197MOL0     H27179   2.716   4.521   1.431 -0.6841 -0.6410 -2.1366
  197MOL0     H27180   2.477   4.633   1.401 -2.4160 -2.8018  1.1313
  197MOL0     H27181   2.587   4.732   1.503 -0.7598  0.1927  1.8247
  197MOL0     H27182   2.257   4.642   1.732 -0.1503 -3.4851 -0.1689
  197MOL0     H27183   2.854   4.072   1.186  1.6850  0.1781 -0.6443
  197MOL0     H27184   3.155   4.100   1.079 -2.1634 -0.0195  0.1836
  197MOL0     H27185   3.211   3.995   1.224 -0.1772 -2.1661 -0.9637
  197MOL0     H27186   3.061   3.966   1.145 -0.0257 -0.1894  0.8119
  198MOL0     O27187   2.947   7.388   7.663 -0.2318  0.0899 -0.2464
  198MOL0     C27188   2.976   7.424   7.779  0.0216 -0.7244 -0.3763
  198MOL0     O27189   3.099   7.413   7.839 -0.1103  0.6218 -0.3928
  198MOL0     C27190   3.215   7.390   7.767  0.1447  0.0251 -0.3601
  198MOL0     C27191   3.234   7.392   7.632  0.4324 -0.7118 -0.5024
  198MOL0     C27192   3.371   7.392   7.584 -0.9634  0.5543  0.1472
  198MOL0     C27193   3.488   7.382   7.666  0.1424  0.5773  0.6065
  198MOL0     O27194   3.614   7.368   7.623  0.2384 -0.2372  0.7036
  198MOL0     C27195   3.638   7.402   7.485  1.0394 -0.1544  0.4296
  198MOL0     C27196   3.772   7.349   7.432 -0.2098  0.6026 -0.6597
  198MOL0     C27197   3.801   7.404   7.289  0.3237  0.0819  1.7023
  198MOL0     C27198   3.907   7.322   7.218 -0.6956  0.4777  0.3186
  198MOL0     C27199   3.930   7.379   7.079  0.3978  0.0038  0.6774
  198MOL0     C27200   4.038   7.479   7.058 -1.1037  0.6416 -0.1683
  198MOL0     C27201   4.022   7.554   6.920  0.8514 -0.5243 -0.5023
  198MOL0     C27202   4.137   7.656   6.890 -0.6073  0.3584  0.6094
  198MOL0     N27203   4.121   7.794   6.946  0.2892  0.7338 -0.0870
  198MOL0     C27204   4.112   7.906   6.862 -0.0225 -0.0291 -0.1957
  198MOL0     C27205   4.129   8.006   6.940 -0.1168 -0.1918 -0.1338
  198MOL0     C27206   4.133   8.157   6.906 -0.8897  0.3116  0.6315
  198MOL0     C27207   4.279   8.218   6.905 -0.3396 -0.4668  0.0733
  198MOL0     C27208   4.264   8.365   6.950 -0.9107 -1.0236 -0.2650
  198MOL0     C27209   4.387   8.453   6.894 -0.0950  0.4220 -0.1647
  198MOL0     O27210   4.365   8.595   6.879  0.0761 -0.2558  0.6128
  198MOL0     C27211   4.277   8.642   6.785 -0.7206 -0.1657  0.0956
  198MOL0     C27212   4.231   8.773   6.778  0.3448 -0.3459  0.1730
  198MOL0     C27213   4.129   8.825   6.691  0.9683  0.2599 -0.8642
  198MOL0     C27214   4.097   8.974   6.692  0.7267 -0.8354  0.7072
  198MOL0     C27215   4.065   8.738   6.602  1.0242 -0.0409 -1.3657
  198MOL0     C27216   3.938   8.766   6.521  0.4455 -0.5053 -0.9594
  198MOL0     O27217   3.863   8.876   6.541 -0.0002 -0.2116 -0.6788
  198MOL0     C27218   3.753   8.904   6.474  0.2952  0.0205  0.6720
  198MOL0     C27219   3.689   9.015   6.531 -0.6982 -0.5577  0.4323
  198MOL0     C27220   3.556   9.036   6.490 -0.0887 -0.4814  0.1207
  198MOL0     C27221   3.493   8.961   6.387 -0.5771  0.2509  0.1540
  198MOL0     O27222   3.361   8.974   6.356 -0.3897  0.4347 -0.6285
  198MOL0     C27223   3.274   8.858   6.353 -0.9191  0.0113 -0.0848
  198MOL0     C27224   3.130   8.893   6.365 -0.5976 -0.1614  0.3519
  198MOL0     C27225   3.094   9.005   6.271  0.2360  0.1214  0.8073
  198MOL0     C27226   2.947   9.040   6.295 -0.1742  0.2228  0.0699
  198MOL0     C27227   2.896   9.137   6.182 -0.5942  0.8336 -1.2946
  198MOL0     C27228   2.978   9.269   6.175  0.8243 -0.7091 -0.8225
  198MOL0     C27229   2.956   9.356   6.306 -0.4514  0.7909  1.0723
  198MOL0     C27230   3.003   9.498   6.289 -0.4486 -0.3085  0.5538
  198MOL0    Cl27231   2.938   9.615   6.415 -0.5792 -0.0101 -0.3603
  198MOL0     C27232   3.564   8.867   6.314 -0.9190  0.6989 -0.2387
  198MOL0     C27233   3.705   8.837   6.355  0.1549 -0.8235  0.1398
  198MOL0     O27234   3.909   8.672   6.444 -0.4872 -0.2522 -0.4110
  198MOL0     C27235   4.119   8.614   6.599 -0.0048 -0.8493 -0.5257
  198MOL0     C27236   4.223   8.569   6.683 -0.5235 -0.1043 -0.0192
  198MOL0     N27237   4.163   7.964   7.072 -0.0235 -0.8357  0.5132
  198MOL0     N27238   4.162   7.838   7.069  0.7578 -0.2843 -0.2874
  198MOL0     C27239   3.455   7.361   7.797 -1.0546 -0.2037 -0.4508
  198MOL0     C27240   3.326   7.357   7.841  0.3688 -0.8285  0.1863
  198MOL0     C27241   2.871   7.466   7.864 -0.2683 -0.1332  0.2019
  198MOL0     C27242   2.912   7.495   7.996 -0.6814 -0.3469  0.4742
  198MOL0     C27243   2.837   7.558   8.094  1.7274 -0.9765 -0.2633
  198MOL0     C27244   2.707   7.607   8.057  0.0135 -0.0453 -0.5022
  198MOL0     O27245   2.623   7.694   8.125  0.5466 -0.5476 -0.1116
  198MOL0     C27246   2.665   7.717   8.264 -0.4933 -0.0435  0.4134
  198MOL0     C27247   2.540   7.770   8.345 -0.5290 -1.0370 -0.7392
  198MOL0     C27248   2.503   7.917   8.316 -0.5060  0.3454  0.0157
  198MOL0     C27249   2.604   8.019   8.358  1.1534 -0.5937  0.4676
  198MOL0     C27250   2.589   8.142   8.277  0.5617  0.2236  0.1648
  198MOL0     C27251   2.576   8.234   8.201  0.1203 -0.6139  0.3663
  198MOL0     C27252   2.661   7.571   7.930 -1.2958 -0.6184  0.4731
  198MOL0     C27253   2.736   7.498   7.835  0.2386 -0.3635 -0.1085
  198MOL0     C27254   2.668   7.463   7.697  0.1002  0.6424  0.5804
  198MOL0     H27255   3.152   7.411   7.564 -0.1282  1.4560  0.6908
  198MOL0     H27256   3.377   7.385   7.476 -2.3893 -0.0374  0.0791
  198MOL0     H27257   3.644   7.510   7.473 -0.0413 -0.3882 -3.1135
  198MOL0     H27258   3.569   7.353   7.416  0.4276  0.3499  0.6773
  198MOL0     H27259   3.850   7.379   7.502 -0.8581  2.2558 -0.6091
  198MOL0     H27260   3.761   7.240   7.438  3.3428  0.1108 -0.9655
  198MOL0     H27261   3.709   7.395   7.231  0.8045  0.7938  0.8136
  198MOL0     H27262   3.831   7.509   7.296  4.4214 -0.7784  0.0103
  198MOL0     H27263   3.994   7.309   7.283  0.8855  0.7505 -1.6640
  198MOL0     H27264   3.865   7.222   7.202 -0.6749  0.7337 -1.4913
  198MOL0     H27265   3.837   7.428   7.048  1.0031  0.4610 -0.4872
  198MOL0     H27266   3.946   7.298   7.007  1.6154 -0.2331  1.1930
  198MOL0     H27267   4.030   7.554   7.137 -1.1032 -2.2498  2.8089
  198MOL0     H27268   4.137   7.434   7.074 -0.1396  1.7261 -2.5977
  198MOL0     H27269   3.921   7.596   6.915  0.3438 -1.5393  0.7439
  198MOL0     H27270   4.030   7.480   6.840  0.7122 -0.4129 -0.6198
  198MOL0     H27271   4.236   7.614   6.910 -0.3704 -1.8282 -3.9824
  198MOL0     H27272   4.139   7.658   6.781 -3.7256 -2.2083  0.3336
  198MOL0     H27273   4.099   7.910   6.754  2.1903  1.2817 -0.4800
  198MOL0     H27274   4.093   8.204   6.996  1.1953  0.0944  1.7396
  198MOL0     H27275   4.064   8.185   6.825 -2.3404  1.8209  2.3181
  198MOL0     H27276   4.348   8.171   6.976 -0.0628 -0.4994 -0.2139
  198MOL0     H27277   4.318   8.210   6.803 -1.1607 -0.8680 -0.2205
  198MOL0     H27278   4.180   8.418   6.907 -0.9469 -1.0664 -0.2460
  198MOL0     H27279   4.253   8.365   7.059  0.6308 -2.1990 -0.0693
  198MOL0     H27280   4.444   8.457   6.988 -0.1333  1.9005 -0.1914
  198MOL0     H27281   4.441   8.414   6.808  2.9315  1.8552  0.9439
  198MOL0     H27282   4.263   8.842   6.856 -0.9755  0.6460 -0.1333
  198MOL0     H27283   4.188   9.032   6.704 -0.1585  1.1237 -1.3930
  198MOL0     H27284   4.030   9.007   6.772  1.2541  1.6228  0.1921
  198MOL0     H27285   4.044   8.999   6.599 -0.3287 -0.8291  1.2904
  198MOL0     H27286   3.743   9.068   6.608 -1.7241  0.4712  0.4813
  198MOL0     H27287   3.498   9.104   6.552 -0.2766 -2.6740  2.5294
  198MOL0     H27288   3.291   8.830   6.248  0.0277  3.4585 -0.9782
  198MOL0     H27289   3.295   8.778   6.425  0.1032 -0.4207 -0.8350
  198MOL0     H27290   3.069   8.805   6.343 -0.4777 -1.0634  3.2197
  198MOL0     H27291   3.117   8.937   6.464  0.3026 -0.8727  0.8063
  198MOL0     H27292   3.109   8.963   6.171 -2.2597 -0.7855  0.7359
  198MOL0     H27293   3.160   9.089   6.295 -0.3390  0.2326  2.0536
  198MOL0     H27294   2.924   9.079   6.395  1.8436  1.4195  0.1293
  198MOL0     H27295   2.890   8.947   6.290  0.3929 -0.4313  3.1594
  198MOL0     H27296   2.892   9.072   6.093 -5.3162  0.4237 -1.0098
  198MOL0     H27297   2.793   9.165   6.202  0.4690  3.5467  0.8726
  198MOL0     H27298   2.932   9.319   6.089 -0.5545 -0.8091 -0.1776
  198MOL0     H27299   3.087   9.267   6.169  0.7536 -1.8125 -2.2326
  198MOL0     H27300   3.007   9.310   6.391  0.5169 -0.5414 -0.1848
  198MOL0     H27301   2.848   9.353   6.325 -0.6639  0.2179 -0.1501
  198MOL0     H27302   2.965   9.536   6.194  0.0734  1.9557  1.2020
  198MOL0     H27303   3.112   9.502   6.287 -0.4011 -1.4142  0.0274
  198MOL0     H27304   3.524   8.820   6.225 -3.6054 -1.2578  1.8309
  198MOL0     H27305   3.770   8.772   6.298  0.5939  0.3591 -0.7520
  198MOL0     H27306   4.057   8.544   6.542  1.4573 -2.3033 -0.4063
  198MOL0     H27307   4.250   8.464   6.672  0.3523  0.0874  0.2325
  198MOL0     H27308   3.522   7.321   7.873 -4.3596 -1.8285  1.8829
  198MOL0     H27309   3.310   7.339   7.947  1.4862 -1.4922  0.2555
  198MOL0     H27310   3.013   7.485   8.033 -1.0468  0.6717  1.8322
  198MOL0     H27311   2.875   7.596   8.188  0.6119 -4.3822  1.7335
  198MOL0     H27312   2.707   7.626   8.309  0.9780  0.9588  1.1835
  198MOL0     H27313   2.740   7.797   8.269 -1.6804  1.0200  2.1752
  198MOL0     H27314   2.562   7.755   8.451  1.5083 -1.2028 -1.1331
  198MOL0     H27315   2.448   7.718   8.318 -2.3230  3.5351 -5.1482
  198MOL0     H27316   2.470   7.916   8.211  1.5423 -0.6532 -0.6634
  198MOL0     H27317   2.416   7.936   8.380  1.7169 -0.5302  3.6055
  198MOL0     H27318   2.703   7.977   8.335 -0.5308 -3.0887 -3.2409
  198MOL0     H27319   2.601   8.032   8.467 -1.3721  0.0595  0.3762
  198MOL0     H27320   2.570   8.323   8.141  0.9308  0.0213  1.2032
  198MOL0     H27321   2.564   7.609   7.902 -0.3687  0.9109 -0.7891
  198MOL0     H27322   2.680   7.549   7.631 -0.9448  1.1795  1.0665
  198MOL0     H27323   2.689   7.371   7.642 -3.0314 -0.6850  1.3804
  198MOL0     H27324   2.562   7.443   7.712  0.0053  0.5686 -0.1627
  199MOL0     O27325   9.236   2.976  11.266 -0.9662 -0.3766 -0.0681
  199MOL0     C27326   9.202   2.891  11.349 -0.7598  0.6434  0.2289
  199MOL0     O27327   9.105   2.798  11.338 -0.6298  0.2188 -0.1274
  199MOL0     C27328   9.099   2.746  11.216  0.4504  0.3780  0.5259
  199MOL0     C27329   8.982   2.739  11.143  0.4891 -0.6753 -0.0462
  199MOL0     C27330   8.974   2.679  11.019  0.1877 -0.5533  0.1106
  199MOL0     C27331   9.086   2.624  10.959  0.1250 -0.3568 -0.1818
  199MOL0     O27332   9.064   2.570  10.834  0.1644 -0.1748 -0.0582
  199MOL0     C27333   9.168   2.560  10.738 -0.9369 -0.1892 -0.5262
  199MOL0     C27334   9.202   2.413  10.704  0.4760 -0.3586  0.3130
  199MOL0     C27335   9.267   2.351  10.824 -0.6934 -0.2717  0.6141
  199MOL0     C27336   9.423   2.374  10.837 -0.3822 -0.5985  0.2003
  199MOL0     C27337   9.488   2.273  10.944  0.3792  0.9047  0.4775
  199MOL0     C27338   9.428   2.283  11.083 -0.6646 -0.4025 -0.6424
  199MOL0     C27339   9.502   2.200  11.193 -0.2496  0.8016  0.6306
  199MOL0     C27340   9.639   2.246  11.235 -0.0617 -0.4710  0.6834
  199MOL0     N27341   9.636   2.392  11.253  0.8094 -0.4037  0.1007
  199MOL0     C27342   9.550   2.462  11.328 -0.0074  0.6253 -0.0422
  199MOL0     C27343   9.603   2.589  11.319 -0.3480 -0.1201 -0.4876
  199MOL0     C27344   9.561   2.714  11.387  0.3138 -0.4275  0.2708
  199MOL0     C27345   9.656   2.756  11.496  0.2672  1.4158 -0.6590
  199MOL0     C27346   9.648   2.680  11.629  0.1215  0.0573  0.0071
  199MOL0     C27347   9.735   2.754  11.731  0.3668 -0.0964  0.5136
  199MOL0     O27348   9.787   2.648  11.810 -0.2276  0.4958 -0.4045
  199MOL0     C27349   9.802   2.680  11.942 -0.8378 -0.2099 -0.4440
  199MOL0     C27350   9.715   2.631  12.037  0.4646 -1.2803  0.0003
  199MOL0     C27351   9.716   2.683  12.167  0.0797  1.2571  0.4466
  199MOL0     C27352   9.603   2.640  12.264 -0.6142 -0.6846  0.4911
  199MOL0     C27353   9.821   2.759  12.216 -0.7115  0.1528 -0.1981
  199MOL0     C27354   9.844   2.823  12.349  1.1961  0.8297 -0.1411
  199MOL0     O27355   9.776   2.776  12.462 -0.6208 -0.1456  0.0695
  199MOL0     C27356   9.840   2.775  12.589  0.0855 -0.7351 -0.0187
  199MOL0     C27357   9.983   2.778  12.607  1.1749 -0.1279  0.0263
  199MOL0     C27358  10.040   2.761  12.729  0.3215  0.0560 -0.4956
  199MOL0     C27359   9.955   2.737  12.843 -0.0756 -0.1574 -1.1953
  199MOL0     O27360  10.015   2.700  12.964  0.2590  0.6206 -0.3668
  199MOL0     C27361   9.949   2.736  13.087  0.3895 -0.6842 -0.9155
  199MOL0     C27362  10.059   2.765  13.195  0.3493 -0.0415  0.2512
  199MOL0     C27363  10.034   2.884  13.295  0.3108 -0.3520 -0.4850
  199MOL0     C27364   9.904   2.847  13.370 -0.2121 -0.2298  0.2856
  199MOL0     C27365   9.884   2.939  13.490  0.2878 -0.9751 -0.2927
  199MOL0     C27366   9.747   2.913  13.562 -0.8857  0.2260 -0.1970
  199MOL0     C27367   9.726   2.772  13.611 -0.5844  0.2243 -0.3143
  199MOL0     C27368   9.601   2.750  13.687  0.9281 -0.3710  0.8975
  199MOL0    Cl27369   9.611   2.809  13.859 -0.0384  0.1039 -0.0318
  199MOL0     C27370   9.821   2.758  12.829 -0.2372 -0.9005  0.0463
  199MOL0     C27371   9.762   2.774  12.699 -0.2945 -0.1833  0.7959
  199MOL0     O27372   9.927   2.908  12.349 -0.0005 -0.2796 -0.1029
  199MOL0     C27373   9.924   2.791  12.113  0.1748 -0.4989 -0.4098
  199MOL0     C27374   9.919   2.748  11.985  0.0242  0.3261  0.1861
  199MOL0     N27375   9.707   2.590  11.236  0.1296 -0.9516  0.2634
  199MOL0     N27376   9.722   2.474  11.180  0.5078 -0.0457  0.0885
  199MOL0     C27377   9.209   2.645  11.023 -0.1611 -0.3260 -0.3146
  199MOL0     C27378   9.212   2.687  11.156 -0.3654 -0.2272  0.1323
  199MOL0     C27379   9.263   2.916  11.486  0.3129  1.0851  0.2195
  199MOL0     C27380   9.229   2.817  11.580  0.7171 -1.1890  0.0158
  199MOL0     C27381   9.272   2.817  11.717  0.6945 -0.3821 -0.1042
  199MOL0     C27382   9.348   2.930  11.756  0.4247 -0.4279 -0.6388
  199MOL0     O27383   9.393   2.964  11.883  0.4793 -0.2428  0.8082
  199MOL0     C27384   9.339   2.891  12.000  0.1745 -0.4391  0.1359
  199MOL0     C27385   9.226   2.981  12.070  0.2767 -0.2643  0.3147
  199MOL0     C27386   9.093   3.001  11.994 -1.0663 -0.5201 -0.3637
  199MOL0     C27387   8.997   3.117  12.040  1.0218  0.1231  0.0737
  199MOL0     C27388   9.047   3.256  12.050 -0.4500  0.7495  0.1497
  199MOL0     C27389   9.080   3.366  12.080  0.1935 -0.7000 -0.1584
  199MOL0     C27390   9.397   3.017  11.659  0.1954  0.0233 -0.3856
  199MOL0     C27391   9.353   3.016  11.524  0.1901  0.3758 -0.1299
  199MOL0     C27392   9.411   3.126  11.437 -0.1449 -0.6574  1.0474
  199MOL0     H27393   8.886   2.777  11.179  0.5040  1.8772 -2.3686
  199MOL0     H27394   8.885   2.692  10.959 -0.4456 -0.9882  0.9359
  199MOL0     H27395   9.253   2.623  10.766 -1.0212 -0.2473 -0.1401
  199MOL0     H27396   9.126   2.603  10.646  2.2863  1.3495 -1.4298
  199MOL0     H27397   9.114   2.350  10.685  2.0760 -2.4906 -0.4200
  199MOL0     H27398   9.271   2.407  10.619  0.5513  3.0187 -0.0017
  199MOL0     H27399   9.220   2.392  10.914 -0.3431  0.3627  0.5116
  199MOL0     H27400   9.243   2.244  10.817 -0.8131 -0.1591 -1.1434
  199MOL0     H27401   9.466   2.351  10.739 -2.3096  0.4562 -0.9496
  199MOL0     H27402   9.443   2.478  10.862 -1.8169  0.0583 -1.2447
  199MOL0     H27403   9.596   2.285  10.933  1.4904 -2.6298  4.6236
  199MOL0     H27404   9.454   2.179  10.901  0.4968  0.8609  0.4783
  199MOL0     H27405   9.429   2.389  11.106  2.2582 -0.5697  0.5179
  199MOL0     H27406   9.321   2.262  11.082 -1.0265  1.3099 -0.1246
  199MOL0     H27407   9.509   2.095  11.164 -1.4996  0.2751  2.0947
  199MOL0     H27408   9.433   2.200  11.278  1.7283 -0.1117  2.3429
  199MOL0     H27409   9.660   2.208  11.336  0.0504 -1.6754  0.2245
  199MOL0     H27410   9.710   2.195  11.168 -0.6365 -0.0673 -0.2480
  199MOL0     H27411   9.465   2.415  11.377 -0.0036 -0.9812 -1.5168
  199MOL0     H27412   9.461   2.703  11.432 -0.2178 -1.3043 -1.0726
  199MOL0     H27413   9.556   2.794  11.312  0.8597 -1.1252 -0.5184
  199MOL0     H27414   9.759   2.742  11.462  0.3261 -1.7465  0.4968
  199MOL0     H27415   9.641   2.864  11.507 -0.5106  1.5902 -2.9750
  199MOL0     H27416   9.543   2.673  11.660  0.0774  0.0899 -0.1385
  199MOL0     H27417   9.684   2.577  11.615 -3.0897 -1.2600  0.6040
  199MOL0     H27418   9.819   2.795  11.674  0.4694 -2.1089 -0.8724
  199MOL0     H27419   9.678   2.837  11.774 -5.6389 -3.9178  1.1695
  199MOL0     H27420   9.635   2.568  12.000 -0.6920  1.3578 -2.2929
  199MOL0     H27421   9.639   2.585  12.351 -1.7562 -3.0535 -0.4472
  199MOL0     H27422   9.532   2.567  12.223 -3.3749  0.6707  2.5333
  199MOL0     H27423   9.544   2.724  12.301  0.9289  0.8845 -0.4642
  199MOL0     H27424  10.043   2.790  12.518  0.2610  0.1487 -0.5613
  199MOL0     H27425  10.148   2.771  12.739  0.5260 -3.3882  2.3000
  199MOL0     H27426   9.885   2.824  13.077  2.0094  1.1168  2.6635
  199MOL0     H27427   9.875   2.658  13.111 -1.8152  1.5933  0.1878
  199MOL0     H27428  10.057   2.664  13.239 -2.6109  1.0424  3.0136
  199MOL0     H27429  10.152   2.796  13.147  1.3117 -1.5936  1.0123
  199MOL0     H27430  10.013   2.979  13.245 -0.5621  0.9390  2.1710
  199MOL0     H27431  10.123   2.903  13.354  1.5384  1.9154 -2.8600
  199MOL0     H27432   9.909   2.739  13.390 -0.2582  0.0346  1.8269
  199MOL0     H27433   9.817   2.862  13.306  0.1460  1.6853  0.1998
  199MOL0     H27434   9.970   2.922  13.556  0.4170 -0.4676 -0.3254
  199MOL0     H27435   9.890   3.043  13.458  0.8915 -0.7807  0.4065
  199MOL0     H27436   9.673   2.932  13.484 -0.3404 -1.2316 -1.1079
  199MOL0     H27437   9.734   2.991  13.638 -2.1240 -1.0137  0.9198
  199MOL0     H27438   9.809   2.733  13.670 -0.8547 -0.8502 -0.6214
  199MOL0     H27439   9.729   2.708  13.522 -1.7728 -0.3083 -0.0013
  199MOL0     H27440   9.574   2.644  13.686  1.7077 -0.5752  1.0139
  199MOL0     H27441   9.517   2.802  13.639  0.4600 -1.1200  0.8909
  199MOL0     H27442   9.752   2.752  12.913 -0.9049  1.8886 -0.1894
  199MOL0     H27443   9.655   2.773  12.677 -0.1963 -0.0131  0.3060
  199MOL0     H27444  10.010   2.855  12.129  0.3067 -0.6439 -0.5409
  199MOL0     H27445  10.000   2.765  11.916 -2.2043  4.7772 -1.7184
  199MOL0     H27446   9.301   2.614  10.974 -0.1282 -0.3749 -0.2214
  199MOL0     H27447   9.315   2.695  11.190  0.9478 -0.5507 -3.3376
  199MOL0     H27448   9.163   2.732  11.565  0.2101 -0.7140 -0.4536
  199MOL0     H27449   9.228   2.761  11.798 -3.2165  2.1943 -0.1551
  199MOL0     H27450   9.282   2.801  11.976 -0.3062  0.0159 -0.4615
  199MOL0     H27451   9.427   2.871  12.062  0.6278 -2.6495 -1.1164
  199MOL0     H27452   9.273   3.080  12.075 -1.7645  0.7395  0.9257
  199MOL0     H27453   9.210   2.959  12.176  1.7460  2.5379  1.2360
  199MOL0     H27454   9.126   3.039  11.897  1.3092 -0.5189  0.3790
  199MOL0     H27455   9.042   2.904  11.999  0.1326 -1.1136  0.9321
  199MOL0     H27456   8.951   3.077  12.131 -5.6653  2.5995 -1.6219
  199MOL0     H27457   8.911   3.120  11.973 -0.5588  1.0480  2.0240
  199MOL0     H27458   9.107   3.469  12.095 -0.0813 -0.3933 -1.5865
  199MOL0     H27459   9.477   3.083  11.690 -0.8420 -0.5718  4.3957
  199MOL0     H27460   9.333   3.201  11.455 -1.7437 -1.0604 -3.0686
  199MOL0     H27461   9.512   3.155  11.464  0.1936 -0.4325 -0.4258
  199MOL0     H27462   9.411   3.103  11.330 -1.0215  0.8028  0.7064
  200MOL0     O27463   6.627   6.125   5.121  0.5848 -0.5475  0.1807
  200MOL0     C27464   6.557   6.025   5.123 -0.3797 -0.7429 -0.6644
  200MOL0     O27465   6.455   6.012   5.203 -0.9374  0.4539 -0.2142
  200MOL0     C27466   6.443   6.099   5.308 -0.0254 -0.0487  1.3348
  200MOL0     C27467   6.425   6.236   5.289  0.6313 -0.2116  0.4762
  200MOL0     C27468   6.402   6.326   5.389  0.2408  0.2191  0.3286
  200MOL0     C27469   6.382   6.285   5.519  0.3448 -0.0572  0.8090
  200MOL0     O27470   6.341   6.366   5.622  0.4770  0.4218  0.0329
  200MOL0     C27471   6.385   6.505   5.624 -0.9148 -0.1139 -0.5093
  200MOL0     C27472   6.488   6.525   5.739 -0.4222 -0.0990  0.2539
  200MOL0     C27473   6.431   6.462   5.870  1.0673 -0.1158  0.1702
  200MOL0     C27474   6.520   6.503   5.993  0.4525  0.4032 -0.9767
  200MOL0     C27475   6.465   6.451   6.122  0.5145  0.6301  0.0399
  200MOL0     C27476   6.559   6.464   6.227 -0.7042  0.6930 -0.7937
  200MOL0     C27477   6.513   6.397   6.357 -0.0810  0.4337  0.0732
  200MOL0     C27478   6.391   6.474   6.415 -0.1244  0.0855  0.5371
  200MOL0     N27479   6.356   6.450   6.561  1.3196 -0.3608  0.2492
  200MOL0     C27480   6.362   6.331   6.632  0.0171 -0.5125 -0.5702
  200MOL0     C27481   6.282   6.355   6.742 -0.5531  0.6730  0.1130
  200MOL0     C27482   6.247   6.258   6.853 -0.2560 -0.0234 -0.0099
  200MOL0     C27483   6.370   6.183   6.889 -0.8087  0.8339  0.1744
  200MOL0     C27484   6.340   6.028   6.884  0.0080  0.4026  0.0735
  200MOL0     C27485   6.472   5.950   6.898  0.2112  0.1882  0.2377
  200MOL0     O27486   6.556   5.985   6.792 -1.0560 -0.6615 -0.3649
  200MOL0     C27487   6.673   6.053   6.802 -0.0939 -0.6715  0.0692
  200MOL0     C27488   6.719   6.118   6.684 -0.4738  0.3406  1.0100
  200MOL0     C27489   6.844   6.175   6.671 -1.3453  0.6477  0.0877
  200MOL0     C27490   6.886   6.226   6.536 -0.6074 -0.0332  0.8277
  200MOL0     C27491   6.927   6.176   6.782 -0.4072 -0.6341 -0.5818
  200MOL0     C27492   7.062   6.241   6.775 -1.1982 -0.0514  0.1946
  200MOL0     O27493   7.153   6.204   6.870 -0.4795  0.0931  0.1217
  200MOL0     C27494   7.292   6.217   6.845  0.6811 -0.3803 -0.3659
  200MOL0     C27495   7.373   6.214   6.952  0.5680 -0.1574  0.4791
  200MOL0     C27496   7.512   6.215   6.953 -0.4717  1.3418 -0.1278
  200MOL0     C27497   7.571   6.203   6.823  0.0992 -0.6179  0.5735
  200MOL0     O27498   7.705   6.189   6.808 -0.4466  0.8972  0.4309
  200MOL0     C27499   7.793   6.245   6.903 -0.8022 -1.0706 -0.5654
  200MOL0     C27500   7.924   6.241   6.824 -0.6412  0.1908 -0.4912
  200MOL0     C27501   7.948   6.318   6.705  0.4534 -0.0362  0.7541
  200MOL0     C27502   7.986   6.255   6.577 -0.6003  0.6041 -0.6624
  200MOL0     C27503   7.872   6.175   6.520  0.0501  0.0123  0.2461
  200MOL0     C27504   7.921   6.093   6.394  0.5522  0.6051  0.4996
  200MOL0     C27505   8.033   5.993   6.436  0.3466 -0.5852 -0.7054
  200MOL0     C27506   8.046   5.886   6.332 -0.2854 -0.1997 -1.0185
  200MOL0    Cl27507   7.884   5.811   6.304  0.2431  0.1526 -0.1425
  200MOL0     C27508   7.486   6.209   6.705  0.1816  1.3329  0.0860
  200MOL0     C27509   7.349   6.203   6.718 -0.7472 -0.5883  0.1490
  200MOL0     O27510   7.079   6.338   6.694 -0.1105 -0.5691 -0.3562
  200MOL0     C27511   6.879   6.132   6.906 -0.3058 -0.4630  1.0301
  200MOL0     C27512   6.757   6.061   6.913 -0.4169 -0.6509  0.3107
  200MOL0     N27513   6.236   6.477   6.744 -1.5612  0.1862  1.0228
  200MOL0     N27514   6.291   6.537   6.642  0.3038 -0.1720 -0.2320
  200MOL0     C27515   6.378   6.149   5.544 -0.3823  0.3511  0.1413
  200MOL0     C27516   6.426   6.062   5.444 -0.5453  0.5677  0.1886
  200MOL0     C27517   6.564   5.944   4.996  0.3164 -0.5333 -0.4372
  200MOL0     C27518   6.460   5.852   4.972  0.5875  0.4420  0.2147
  200MOL0     C27519   6.462   5.773   4.858 -0.1595 -0.2290 -0.8620
  200MOL0     C27520   6.554   5.786   4.765  0.7170 -0.8540  0.7759
  200MOL0     O27521   6.543   5.700   4.657  0.1290 -0.9143  0.8212
  200MOL0     C27522   6.629   5.704   4.542 -0.0956  0.1004  0.7335
  200MOL0     C27523   6.589   5.601   4.438 -0.2232  0.6735  0.2313
  200MOL0     C27524   6.629   5.459   4.467 -0.5611 -0.4584 -0.2167
  200MOL0     C27525   6.765   5.426   4.436  0.4591 -0.6862  0.4738
  200MOL0     C27526   6.786   5.376   4.292  0.2884  0.9488 -1.0351
  200MOL0     C27527   6.801   5.345   4.180 -1.0605  1.0280 -0.1317
  200MOL0     C27528   6.650   5.890   4.775  0.0895  0.9561  0.9524
  200MOL0     C27529   6.667   5.956   4.899  0.3789  0.3018  0.1994
  200MOL0     C27530   6.787   6.034   4.923 -0.7539 -0.7562 -0.3874
  200MOL0     H27531   6.433   6.276   5.189 -0.3640  0.0473  0.4894
  200MOL0     H27532   6.387   6.428   5.357  0.5284  0.5161  1.1203
  200MOL0     H27533   6.294   6.563   5.642 -0.4860  1.0136 -1.7793
  200MOL0     H27534   6.424   6.546   5.531 -0.7474  1.4944  0.2359
  200MOL0     H27535   6.581   6.470   5.724 -2.3184 -2.8732 -2.4694
  200MOL0     H27536   6.504   6.633   5.746  1.9894 -0.2512 -1.6344
  200MOL0     H27537   6.332   6.503   5.893 -0.6988 -3.7183 -0.3411
  200MOL0     H27538   6.434   6.353   5.871  0.0914 -0.1854 -1.6107
  200MOL0     H27539   6.613   6.446   5.984  1.7205  2.1565  0.2407
  200MOL0     H27540   6.547   6.609   5.994  2.1791  0.0395  1.4858
  200MOL0     H27541   6.439   6.346   6.108  0.3258  0.8436 -1.3324
  200MOL0     H27542   6.377   6.512   6.143 -0.3763 -0.7784  0.4634
  200MOL0     H27543   6.652   6.409   6.208 -0.7256 -1.3786  3.7429
  200MOL0     H27544   6.596   6.564   6.252  1.5835 -0.6860  2.0673
  200MOL0     H27545   6.593   6.389   6.432 -0.5609  2.6272  0.9059
  200MOL0     H27546   6.483   6.295   6.329  1.4266 -0.9156  2.9164
  200MOL0     H27547   6.395   6.579   6.384  0.9151 -0.7646 -2.5423
  200MOL0     H27548   6.299   6.438   6.367 -1.1124 -0.2323  2.5586
  200MOL0     H27549   6.391   6.234   6.591 -0.9741 -1.9711  1.9768
  200MOL0     H27550   6.162   6.194   6.826  1.3243 -1.7788 -0.9984
  200MOL0     H27551   6.215   6.313   6.942  1.5804  0.3876  0.4276
  200MOL0     H27552   6.456   6.212   6.827 -0.9641  0.2014 -0.3533
  200MOL0     H27553   6.419   6.209   6.983 -2.6021  2.0096  0.8181
  200MOL0     H27554   6.260   5.992   6.950  0.6987  1.4799  1.5476
  200MOL0     H27555   6.320   5.994   6.782  2.5685  0.1670 -0.4236
  200MOL0     H27556   6.511   5.969   6.998 -1.5778 -1.2873  1.2754
  200MOL0     H27557   6.453   5.844   6.881 -0.1453  0.1291  0.9859
  200MOL0     H27558   6.658   6.125   6.595 -1.3344 -0.3678  1.5182
  200MOL0     H27559   6.976   6.178   6.496 -2.1984 -1.5061 -1.1911
  200MOL0     H27560   6.890   6.335   6.529 -0.8998 -0.0469  0.4289
  200MOL0     H27561   6.805   6.209   6.465 -0.6800 -0.1891  0.9481
  200MOL0     H27562   7.333   6.225   7.053  0.6796 -1.5240  0.6980
  200MOL0     H27563   7.582   6.223   7.035 -1.5852  1.6046  0.8191
  200MOL0     H27564   7.772   6.347   6.935  1.5277 -1.0287  1.0415
  200MOL0     H27565   7.806   6.178   6.988  0.9676 -1.3016 -0.9913
  200MOL0     H27566   7.998   6.284   6.892  0.4908  1.8466 -2.6829
  200MOL0     H27567   7.938   6.134   6.804 -3.3361 -0.2930 -0.1139
  200MOL0     H27568   8.028   6.387   6.733 -0.7042  2.2692 -1.2348
  200MOL0     H27569   7.857   6.374   6.679 -0.0609 -1.3358 -0.3311
  200MOL0     H27570   8.076   6.195   6.593 -1.4413 -0.1180  1.9557
  200MOL0     H27571   8.007   6.329   6.499  1.6240 -0.2878 -0.9735
  200MOL0     H27572   7.820   6.119   6.599 -4.1331  1.2935 -1.3382
  200MOL0     H27573   7.793   6.242   6.486 -0.6470 -1.4510 -1.1505
  200MOL0     H27574   7.974   6.148   6.316  0.3744 -0.9755 -0.7772
  200MOL0     H27575   7.845   6.036   6.340  2.7335 -1.8538 -0.1845
  200MOL0     H27576   8.020   5.945   6.533 -1.9223  1.0267 -0.1517
  200MOL0     H27577   8.130   6.043   6.441 -0.6342  1.2787  1.2851
  200MOL0     H27578   8.113   5.806   6.367 -0.0779  1.2278  2.2810
  200MOL0     H27579   8.081   5.933   6.240 -0.3567  1.1279 -0.3855
  200MOL0     H27580   7.531   6.211   6.607 -0.7071  0.1363 -0.3644
  200MOL0     H27581   7.285   6.202   6.630  0.1153 -1.6324 -0.4800
  200MOL0     H27582   6.925   6.158   7.001 -0.3246  2.6511  0.2785
  200MOL0     H27583   6.726   6.024   7.011  0.0590  1.4621  1.3091
  200MOL0     H27584   6.341   6.106   5.636 -1.3388 -4.4857 -2.1551
  200MOL0     H27585   6.436   5.958   5.475 -0.0639  0.6097  0.1843
  200MOL0     H27586   6.372   5.830   5.033  0.5848  3.4024  1.4295
  200MOL0     H27587   6.391   5.693   4.840  1.5037 -1.3154 -3.0073
  200MOL0     H27588   6.624   5.801   4.493  0.7017 -0.0252  0.3973
  200MOL0     H27589   6.734   5.696   4.572 -0.1413 -0.4423  0.7592
  200MOL0     H27590   6.648   5.640   4.355 -0.3465  0.0749 -0.1494
  200MOL0     H27591   6.489   5.599   4.394  0.0545 -2.1563 -0.4696
  200MOL0     H27592   6.614   5.430   4.571 -0.4976 -0.8153 -0.3046
  200MOL0     H27593   6.548   5.407   4.414 -0.3274 -2.0668  0.9100
  200MOL0     H27594   6.787   5.337   4.497 -1.4765 -0.0831  2.1508
  200MOL0     H27595   6.841   5.500   4.462  1.9061 -2.8298  2.8964
  200MOL0     H27596   6.821   5.302   4.084 -1.5953  0.0449  0.1841
  200MOL0     H27597   6.725   5.898   4.696 -1.9900 -2.8079 -1.7860
  200MOL0     H27598   6.871   5.980   4.877  0.6229  1.9067 -1.2431
  200MOL0     H27599   6.779   6.134   4.881  1.9780  0.3388  1.3816
  200MOL0     H27600   6.820   6.045   5.027 -0.3944  1.3121 -0.6834
  201MOL0     O27601   2.638   7.995   8.697  0.7226  0.8916  0.8749
  201MOL0     C27602   2.706   7.991   8.798 -1.1850  0.3271 -0.3477
  201MOL0     O27603   2.832   7.932   8.804 -0.2563 -0.2700 -0.1753
  201MOL0     C27604   2.871   7.875   8.687 -0.4225 -0.9057  0.4645
  201MOL0     C27605   2.828   7.748   8.646 -0.5775  0.0826 -1.2834
  201MOL0     C27606   2.883   7.689   8.532  0.4826 -0.8808  0.5581
  201MOL0     C27607   3.000   7.753   8.464  0.5950  0.2626 -0.0668
  201MOL0     O27608   3.073   7.677   8.370  0.2373 -0.2940  0.0677
  201MOL0     C27609   3.147   7.752   8.267 -0.4245  0.3467  0.1153
  201MOL0     C27610   3.256   7.662   8.201  0.1798 -0.3542  0.3710
  201MOL0     C27611   3.356   7.618   8.311  0.2931 -0.4524 -0.9370
  201MOL0     C27612   3.484   7.545   8.245  0.6045  0.8274 -0.8192
  201MOL0     C27613   3.505   7.418   8.333 -0.2095  1.0553 -1.2335
  201MOL0     C27614   3.619   7.318   8.289  0.3819 -0.0090 -0.9512
  201MOL0     C27615   3.756   7.375   8.315 -0.0482  0.0600  0.0013
  201MOL0     C27616   3.790   7.371   8.465  0.2177  0.4440 -0.1015
  201MOL0     N27617   3.928   7.395   8.496 -0.2344 -0.8985  0.1051
  201MOL0     C27618   4.028   7.311   8.439  1.1090  0.0216  0.1171
  201MOL0     C27619   4.135   7.326   8.516 -0.8686 -0.2460 -0.0239
  201MOL0     C27620   4.272   7.266   8.494 -0.3948  0.2303 -0.7357
  201MOL0     C27621   4.338   7.336   8.376  0.1128  0.7936  0.0285
  201MOL0     C27622   4.456   7.246   8.319 -0.3914  0.2952  0.5320
  201MOL0     C27623   4.529   7.323   8.209  0.0598 -0.6316  0.1484
  201MOL0     O27624   4.437   7.367   8.108 -0.5336  0.1927  0.2981
  201MOL0     C27625   4.509   7.435   8.008  0.1590 -0.1370  0.1745
  201MOL0     C27626   4.508   7.388   7.871  0.9857  0.0535 -0.1813
  201MOL0     C27627   4.579   7.455   7.781 -0.1188 -0.6826  0.3430
  201MOL0     C27628   4.585   7.398   7.640  0.2466  0.4733  0.4306
  201MOL0     C27629   4.630   7.586   7.813  0.0145 -0.9263  0.3518
  201MOL0     C27630   4.685   7.684   7.706  0.4642 -0.8899 -0.4736
  201MOL0     O27631   4.808   7.746   7.739 -0.1354  0.4341  0.9445
  201MOL0     C27632   4.855   7.847   7.650 -0.0681 -0.4012 -0.0050
  201MOL0     C27633   4.893   7.814   7.521 -0.3847 -0.2232 -0.7667
  201MOL0     C27634   4.946   7.912   7.439  0.0619  0.8088  0.2941
  201MOL0     C27635   4.964   8.043   7.488 -0.0148 -0.7497 -0.8333
  201MOL0     O27636   5.029   8.140   7.415 -0.3776 -0.1664 -0.2576
  201MOL0     C27637   5.088   8.112   7.286 -0.3320  0.4438 -0.5935
  201MOL0     C27638   5.228   8.048   7.301  0.3291  0.9154 -0.3538
  201MOL0     C27639   5.320   8.061   7.182 -0.5149  0.5046 -0.9089
  201MOL0     C27640   5.367   8.208   7.144  1.0995  0.7888 -1.4433
  201MOL0     C27641   5.454   8.213   7.015  1.0831  0.0819 -0.1546
  201MOL0     C27642   5.534   8.340   6.993 -0.2334 -0.5836 -1.1781
  201MOL0     C27643   5.427   8.457   6.981 -0.2751 -1.3312  0.1237
  201MOL0     C27644   5.493   8.588   6.976  0.1971 -1.1371 -0.0714
  201MOL0    Cl27645   5.560   8.639   6.823  0.5917 -0.3335  0.2833
  201MOL0     C27646   4.936   8.073   7.620 -0.5843 -0.0124 -0.8124
  201MOL0     C27647   4.883   7.971   7.704  0.3198 -0.0118  0.5195
  201MOL0     O27648   4.616   7.707   7.608 -0.3127  0.0660 -0.0963
  201MOL0     C27649   4.621   7.639   7.938  0.3872  0.0972  0.3289
  201MOL0     C27650   4.564   7.560   8.036 -0.2001 -0.1978 -0.3144
  201MOL0     N27651   4.100   7.400   8.627  0.6735 -0.1022  0.1683
  201MOL0     N27652   3.974   7.434   8.617  0.1856  0.3832 -0.5927
  201MOL0     C27653   3.022   7.883   8.495  0.0453 -0.2524  0.7633
  201MOL0     C27654   2.960   7.948   8.605  0.6630 -0.1471  0.9990
  201MOL0     C27655   2.632   8.036   8.917 -0.8809  0.7089 -0.1301
  201MOL0     C27656   2.529   8.131   8.900 -0.3167 -0.4756 -0.7480
  201MOL0     C27657   2.473   8.179   9.013  0.2076 -0.3485  0.3307
  201MOL0     C27658   2.502   8.144   9.139 -0.0084  0.7060 -0.6272
  201MOL0     O27659   2.429   8.214   9.233  0.2641 -0.8696 -0.0273
  201MOL0     C27660   2.421   8.155   9.364 -0.0492 -0.2003 -0.9024
  201MOL0     C27661   2.311   8.232   9.435  0.9108 -0.4163  0.4137
  201MOL0     C27662   2.326   8.211   9.587  0.0038 -0.3707  0.2420
  201MOL0     C27663   2.200   8.224   9.658  1.1530 -0.3371 -0.6209
  201MOL0     C27664   2.144   8.357   9.638  0.3522  0.7153  0.2696
  201MOL0     C27665   2.086   8.457   9.621  0.5939 -0.8974  0.4554
  201MOL0     C27666   2.605   8.046   9.159  0.3449  0.2613 -0.7876
  201MOL0     C27667   2.663   7.979   9.045 -0.4616  0.8027  0.3946
  201MOL0     C27668   2.757   7.866   9.072 -0.2667  0.3002  0.1521
  201MOL0     H27669   2.751   7.697   8.703  0.3136 -0.1046 -0.2245
  201MOL0     H27670   2.847   7.588   8.514 -2.4818  0.3674 -1.2745
  201MOL0     H27671   3.205   7.831   8.316 -2.3778 -0.4816  4.2009
  201MOL0     H27672   3.085   7.803   8.193  1.9216  0.5068 -1.8584
  201MOL0     H27673   3.221   7.574   8.146  0.9891  1.4315 -3.3427
  201MOL0     H27674   3.313   7.716   8.125  1.7579 -1.9540  0.3602
  201MOL0     H27675   3.398   7.701   8.368 -3.0531 -0.8647  2.6211
  201MOL0     H27676   3.304   7.551   8.380  0.2169  1.4563  0.9513
  201MOL0     H27677   3.466   7.522   8.140  1.3130 -1.6830 -0.4678
  201MOL0     H27678   3.573   7.609   8.251  1.4464 -0.2492 -1.4404
  201MOL0     H27679   3.410   7.363   8.330  0.2413 -0.3122  2.8368
  201MOL0     H27680   3.514   7.444   8.439 -1.0192 -0.3486 -0.7935
  201MOL0     H27681   3.612   7.219   8.335 -0.8122  0.1390 -0.7645
  201MOL0     H27682   3.607   7.300   8.182  0.0381  1.0946 -1.1196
  201MOL0     H27683   3.751   7.480   8.288 -3.4779 -0.2208 -0.9147
  201MOL0     H27684   3.830   7.311   8.266 -1.1851 -1.4098  0.1121
  201MOL0     H27685   3.719   7.433   8.521 -0.0848  0.9374 -1.0076
  201MOL0     H27686   3.779   7.266   8.495  1.5668 -0.7081 -3.2473
  201MOL0     H27687   4.017   7.263   8.343  2.2409 -0.6829  0.3175
  201MOL0     H27688   4.270   7.158   8.480  0.1590 -0.4382  3.1869
  201MOL0     H27689   4.333   7.277   8.584  1.9216  0.4484 -2.2629
  201MOL0     H27690   4.271   7.337   8.289 -0.5807  1.8839  0.5486
  201MOL0     H27691   4.366   7.440   8.396 -0.9145  0.9501  0.7284
  201MOL0     H27692   4.521   7.212   8.400 -0.4678  2.1544  1.4177
  201MOL0     H27693   4.418   7.150   8.282 -4.3906  1.1378  1.9907
  201MOL0     H27694   4.567   7.407   8.268 -1.4045  1.5783 -1.8486
  201MOL0     H27695   4.613   7.261   8.179 -1.2575 -2.0914 -0.6985
  201MOL0     H27696   4.459   7.297   7.840 -1.7640  1.4517 -0.2429
  201MOL0     H27697   4.491   7.348   7.617  1.8217 -2.2525 -0.6110
  201MOL0     H27698   4.654   7.315   7.624 -0.0739  0.2690  0.0978
  201MOL0     H27699   4.604   7.468   7.558 -1.1456 -1.2237 -1.4234
  201MOL0     H27700   4.876   7.712   7.488 -1.9218  0.5448 -2.5010
  201MOL0     H27701   4.969   7.875   7.339  0.6519 -3.0217  1.6811
  201MOL0     H27702   5.026   8.042   7.230 -1.6770 -0.1804  1.5642
  201MOL0     H27703   5.093   8.212   7.242 -0.6505 -0.2866 -2.3596
  201MOL0     H27704   5.281   8.093   7.386  0.8122 -0.2429 -0.0109
  201MOL0     H27705   5.232   7.942   7.327  0.0528  0.3650 -2.4383
  201MOL0     H27706   5.255   8.030   7.100 -1.8014 -1.5350  0.7687
  201MOL0     H27707   5.397   7.984   7.179 -1.0390 -0.0065 -1.8884
  201MOL0     H27708   5.430   8.241   7.226 -3.6059  0.4142  2.7865
  201MOL0     H27709   5.279   8.272   7.136 -0.6843 -1.0908  1.2988
  201MOL0     H27710   5.531   8.137   7.006  1.9340  0.5500  2.3601
  201MOL0     H27711   5.381   8.193   6.936 -0.3437 -0.3971  1.2234
  201MOL0     H27712   5.577   8.323   6.894  2.6700  0.6266 -0.2272
  201MOL0     H27713   5.613   8.355   7.067  0.1317 -4.0222 -0.6930
  201MOL0     H27714   5.361   8.463   7.069 -0.7851 -0.1020 -0.3122
  201MOL0     H27715   5.351   8.437   6.905 -2.7478 -2.1190  2.6106
  201MOL0     H27716   5.581   8.584   7.041  0.1156 -0.1874  0.1198
  201MOL0     H27717   5.417   8.650   7.025  3.1439  0.1124  3.3662
  201MOL0     H27718   4.960   8.171   7.659 -0.4150 -0.2875 -0.2042
  201MOL0     H27719   4.869   7.986   7.811  0.4874 -0.6072  0.6294
  201MOL0     H27720   4.659   7.740   7.956 -0.3226  0.3017  0.7140
  201MOL0     H27721   4.531   7.602   8.130  2.1112  0.4633  0.2722
  201MOL0     H27722   3.100   7.939   8.444 -0.9980 -1.3047 -2.2785
  201MOL0     H27723   2.974   8.054   8.626  0.3658  0.0924  0.0509
  201MOL0     H27724   2.505   8.160   8.799 -0.9288 -1.5442 -0.9252
  201MOL0     H27725   2.396   8.256   9.011  0.1043 -0.4532  0.2481
  201MOL0     H27726   2.391   8.050   9.359 -0.4904 -0.1856  0.8078
  201MOL0     H27727   2.525   8.160   9.399 -0.9633  0.5656  1.9356
  201MOL0     H27728   2.212   8.197   9.404 -0.4368  1.6930  2.0400
  201MOL0     H27729   2.313   8.339   9.416  1.3857 -0.5403 -0.2709
  201MOL0     H27730   2.377   8.118   9.615  1.2643  1.0127  2.9604
  201MOL0     H27731   2.381   8.296   9.628  0.3027  0.3006 -1.4859
  201MOL0     H27732   2.199   8.217   9.767 -1.5869  0.3572 -0.5252
  201MOL0     H27733   2.122   8.158   9.620 -1.0201  0.9366  1.3203
  201MOL0     H27734   2.032   8.544   9.588 -0.9957 -1.5521  1.2305
  201MOL0     H27735   2.614   8.020   9.264 -0.3789  1.0811 -0.5159
  201MOL0     H27736   2.728   7.777   9.016 -1.5736  1.1981 -0.6487
  201MOL0     H27737   2.862   7.880   9.044 -0.1381 -3.2316 -1.6230
  201MOL0     H27738   2.773   7.834   9.175  0.6666  1.7755  0.5036
  202MOL0     O27739   7.109   5.209   8.882 -0.0237 -0.9837 -0.1931
  202MOL0     C27740   7.089   5.147   8.983  0.1934 -0.4345  0.0847
  202MOL0     O27741   7.134   5.176   9.114 -0.2185 -0.4069 -0.4877
  202MOL0     C27742   7.196   5.297   9.127  0.3707 -0.5315  0.9132
  202MOL0     C27743   7.126   5.410   9.089  0.1074  0.0496  0.3803
  202MOL0     C27744   7.168   5.542   9.109 -1.3138 -0.0784 -0.6687
  202MOL0     C27745   7.297   5.556   9.160 -0.2377  0.2002  1.6415
  202MOL0     O27746   7.360   5.678   9.183  0.3976  0.1118 -0.2133
  202MOL0     C27747   7.274   5.793   9.209  0.0471  0.2196 -0.4135
  202MOL0     C27748   7.230   5.864   9.091 -0.6979  0.0533  0.0056
  202MOL0     C27749   7.318   5.985   9.061 -0.2170 -0.0570  0.6964
  202MOL0     C27750   7.241   6.118   9.072  0.4554  0.9192 -0.1171
  202MOL0     C27751   7.160   6.156   8.945  0.3747  0.2775  0.0274
  202MOL0     C27752   7.023   6.087   8.929  0.2014  0.6060 -0.0235
  202MOL0     C27753   6.961   6.123   8.792 -0.5909 -0.7455 -0.2504
  202MOL0     C27754   7.007   6.048   8.667  0.0948 -0.5399 -0.4003
  202MOL0     N27755   7.007   5.901   8.693 -0.4778  0.3591  1.2025
  202MOL0     C27756   7.124   5.828   8.710 -0.1667 -1.0759 -0.0683
  202MOL0     C27757   7.076   5.698   8.723 -0.5588 -0.7290  0.1387
  202MOL0     C27758   7.177   5.583   8.737 -0.9628 -0.7734  0.0124
  202MOL0     C27759   7.276   5.596   8.609  0.2817  0.3532  0.1513
  202MOL0     C27760   7.372   5.479   8.595  0.7594  0.2660 -0.6405
  202MOL0     C27761   7.463   5.423   8.707  0.7739 -0.1156  1.1504
  202MOL0     O27762   7.501   5.521   8.798  0.1722  0.1732  0.0442
  202MOL0     C27763   7.618   5.597   8.785  0.4009 -0.5943  0.4539
  202MOL0     C27764   7.709   5.584   8.683  0.9332  0.0014  0.1370
  202MOL0     C27765   7.825   5.656   8.664 -0.5490  0.2089 -0.4013
  202MOL0     C27766   7.899   5.636   8.535  0.2429 -0.8921  1.0901
  202MOL0     C27767   7.870   5.739   8.771 -0.1906 -0.1317  0.1780
  202MOL0     C27768   8.002   5.808   8.771  0.7524  0.4805 -1.2659
  202MOL0     O27769   8.077   5.800   8.656  0.2901 -0.4575  0.2768
  202MOL0     C27770   8.211   5.854   8.657  0.2950  0.4608 -0.8486
  202MOL0     C27771   8.293   5.851   8.771 -0.8867  0.7446 -0.1987
  202MOL0     C27772   8.423   5.893   8.772  0.4780  0.6538  0.7418
  202MOL0     C27773   8.479   5.937   8.651  0.9729 -0.6756 -0.4242
  202MOL0     O27774   8.610   5.975   8.652 -0.2274 -0.6989  0.1012
  202MOL0     C27775   8.683   5.968   8.782 -0.3575 -0.8890 -0.3508
  202MOL0     C27776   8.821   6.041   8.784 -0.2458 -0.0849  0.7195
  202MOL0     C27777   8.911   5.957   8.686 -0.7583 -0.5179  0.8356
  202MOL0     C27778   9.050   6.010   8.682 -0.7310 -0.3821 -0.3207
  202MOL0     C27779   9.067   6.147   8.617  0.1667 -0.5414  0.0541
  202MOL0     C27780   9.216   6.185   8.630 -0.0572  0.1293  0.0085
  202MOL0     C27781   9.308   6.076   8.561  0.9500  0.7775  0.3065
  202MOL0     C27782   9.448   6.114   8.535 -1.1934  0.3996 -0.4220
  202MOL0    Cl27783   9.442   6.228   8.396  0.1665 -0.0768  0.3175
  202MOL0     C27784   8.391   5.951   8.536  0.1451  0.0084 -0.0641
  202MOL0     C27785   8.254   5.916   8.544  0.4584 -0.5530 -0.4323
  202MOL0     O27786   8.026   5.882   8.867 -0.5580 -0.2111 -0.4154
  202MOL0     C27787   7.776   5.756   8.879  0.8221  0.0435 -0.4622
  202MOL0     C27788   7.649   5.687   8.890 -0.1256 -0.8204  0.8639
  202MOL0     N27789   6.935   5.697   8.708  0.9180  0.1601  0.2734
  202MOL0     N27790   6.894   5.820   8.687 -0.8713 -0.6893  0.5002
  202MOL0     C27791   7.376   5.444   9.188  0.7896 -0.1919  0.4523
  202MOL0     C27792   7.316   5.311   9.188 -0.1207  0.0082 -0.6087
  202MOL0     C27793   7.000   5.025   8.960  0.2217 -0.4529 -0.0767
  202MOL0     C27794   6.963   4.955   9.073 -0.2787 -0.5249 -0.9594
  202MOL0     C27795   6.899   4.832   9.060  0.2707 -0.0067 -0.1851
  202MOL0     C27796   6.845   4.784   8.933  0.4246  0.0501  0.2597
  202MOL0     O27797   6.773   4.678   8.909  0.9254 -0.5711  0.0060
  202MOL0     C27798   6.729   4.591   9.011  0.0340 -1.3317  0.1481
  202MOL0     C27799   6.580   4.602   9.030  0.1499  0.4348  0.6419
  202MOL0     C27800   6.501   4.566   8.905  0.9345  0.0589  0.2297
  202MOL0     C27801   6.352   4.541   8.927 -0.9370 -0.4109 -0.3788
  202MOL0     C27802   6.320   4.405   8.977  0.4431  0.4110 -0.1739
  202MOL0     C27803   6.279   4.294   9.016  0.1788  0.1625 -1.4091
  202MOL0     C27804   6.887   4.856   8.827 -0.1022  0.8200  0.6436
  202MOL0     C27805   6.951   4.984   8.836 -0.2972  0.2946  0.4579
  202MOL0     C27806   6.982   5.045   8.699 -0.5666  0.5748 -0.4579
  202MOL0     H27807   7.031   5.394   9.039  0.1877  0.2370  0.1667
  202MOL0     H27808   7.113   5.630   9.080  0.1882  0.4094 -2.1805
  202MOL0     H27809   7.336   5.851   9.276  1.6437 -1.1680 -0.6262
  202MOL0     H27810   7.185   5.758   9.262  1.5202 -2.2105  0.6093
  202MOL0     H27811   7.245   5.794   9.008  2.0624  0.9956 -0.3942
  202MOL0     H27812   7.128   5.900   9.109 -0.9042 -0.2511 -0.5428
  202MOL0     H27813   7.404   5.998   9.127  1.3832  1.7489 -1.5634
  202MOL0     H27814   7.356   5.979   8.958 -0.1258 -1.4090  0.7971
  202MOL0     H27815   7.176   6.125   9.160  0.1246  3.0571 -0.4702
  202MOL0     H27816   7.313   6.198   9.091 -1.3293  2.4690  0.5277
  202MOL0     H27817   7.215   6.129   8.854  0.2448  1.3193 -0.3723
  202MOL0     H27818   7.162   6.265   8.943 -0.2515  0.2905 -0.0546
  202MOL0     H27819   7.039   5.979   8.939 -1.0525  0.3093 -1.0135
  202MOL0     H27820   6.949   6.120   9.003 -3.1204 -3.5259 -1.0958
  202MOL0     H27821   6.950   6.231   8.778 -0.1024 -0.8484 -1.6116
  202MOL0     H27822   6.856   6.094   8.795 -0.9382  0.5163  2.4630
  202MOL0     H27823   6.945   6.079   8.582  0.0380  2.1615  0.5299
  202MOL0     H27824   7.110   6.070   8.637  0.8603 -2.1340  0.9421
  202MOL0     H27825   7.230   5.847   8.720  0.1567 -0.0212 -3.8253
  202MOL0     H27826   7.126   5.486   8.743  0.4188 -1.4921  4.4131
  202MOL0     H27827   7.239   5.586   8.827  0.2576  2.2406 -0.8262
  202MOL0     H27828   7.214   5.609   8.520  0.3256 -0.4986 -0.0086
  202MOL0     H27829   7.346   5.679   8.626 -3.1508  4.1326 -2.3558
  202MOL0     H27830   7.299   5.402   8.571 -1.9038  2.4478  0.0418
  202MOL0     H27831   7.425   5.488   8.499  3.7666  0.5058  0.9222
  202MOL0     H27832   7.404   5.358   8.772  1.6214 -0.3999  1.6492
  202MOL0     H27833   7.552   5.381   8.659  1.5491  3.1401 -0.5864
  202MOL0     H27834   7.671   5.527   8.599 -1.3406  1.8234 -0.1961
  202MOL0     H27835   7.900   5.727   8.475  1.6978 -2.3570 -1.2906
  202MOL0     H27836   7.846   5.566   8.470  1.2653  0.8497 -1.8191
  202MOL0     H27837   8.003   5.604   8.545  0.6092  0.7274  2.9689
  202MOL0     H27838   8.242   5.806   8.855 -3.5868  1.1142 -1.5113
  202MOL0     H27839   8.474   5.871   8.865 -0.5586  0.0781  1.2000
  202MOL0     H27840   8.632   6.020   8.864  0.6818  1.1008 -0.8992
  202MOL0     H27841   8.712   5.867   8.811  1.5778 -0.2504  0.0998
  202MOL0     H27842   8.814   6.142   8.741 -0.5699 -0.2204  0.4429
  202MOL0     H27843   8.848   6.044   8.889 -4.7717  0.1937  2.0948
  202MOL0     H27844   8.875   5.960   8.583 -0.2104  4.4226  0.5776
  202MOL0     H27845   8.925   5.854   8.722  2.2022 -0.2660  0.5996
  202MOL0     H27846   9.108   5.929   8.637  0.1283  0.2663 -0.4082
  202MOL0     H27847   9.075   6.035   8.786  1.5184  1.4552 -1.1950
  202MOL0     H27848   9.029   6.144   8.515  3.1002 -1.6006 -1.1239
  202MOL0     H27849   9.010   6.226   8.667 -0.4724 -1.3493  0.6384
  202MOL0     H27850   9.245   6.218   8.731  1.8643 -0.2650 -0.3756
  202MOL0     H27851   9.234   6.276   8.571 -3.7567 -0.2471 -1.9864
  202MOL0     H27852   9.261   6.038   8.470  2.6843 -1.5728  0.2866
  202MOL0     H27853   9.332   5.984   8.615 -0.5272 -0.7938 -1.5555
  202MOL0     H27854   9.508   6.028   8.506 -1.4278  0.3437 -0.7553
  202MOL0     H27855   9.485   6.168   8.622 -0.9861  2.1912 -1.5616
  202MOL0     H27856   8.434   5.963   8.437  2.1318 -5.4994 -0.2171
  202MOL0     H27857   8.190   5.921   8.456 -0.5142 -2.2927  0.1151
  202MOL0     H27858   7.796   5.832   8.954  2.2193 -0.6746 -0.0618
  202MOL0     H27859   7.579   5.723   8.965  0.4888  0.6820  0.7543
  202MOL0     H27860   7.482   5.452   9.213  1.0535 -2.8213  0.5335
  202MOL0     H27861   7.366   5.222   9.224 -1.9683 -0.2350  1.5933
  202MOL0     H27862   6.983   4.980   9.176 -2.1440  0.2766 -0.7438
  202MOL0     H27863   6.872   4.775   9.148 -2.5224  0.3334 -0.7068
  202MOL0     H27864   6.762   4.493   8.977  2.2269 -0.8865  0.8163
  202MOL0     H27865   6.780   4.614   9.105  0.6206 -0.5852 -0.3453
  202MOL0     H27866   6.551   4.702   9.064 -1.2052  0.1245  0.4539
  202MOL0     H27867   6.572   4.532   9.114  2.6630 -0.6336  0.0819
  202MOL0     H27868   6.514   4.646   8.832 -2.6096  2.7870  2.2603
  202MOL0     H27869   6.545   4.479   8.856 -2.4927 -1.1970 -0.8349
  202MOL0     H27870   6.307   4.549   8.827 -0.5147 -0.6365 -0.5861
  202MOL0     H27871   6.300   4.625   8.975 -2.0961 -0.6391 -1.1896
  202MOL0     H27872   6.231   4.202   9.044 -1.3909  0.5062 -2.7721
  202MOL0     H27873   6.854   4.826   8.729 -2.7701  2.0646  1.0701
  202MOL0     H27874   6.935   4.992   8.615  0.9427 -1.9797  0.2193
  202MOL0     H27875   6.955   5.150   8.714 -0.7960  0.2803  1.3914
  202MOL0     H27876   7.089   5.045   8.679 -0.4337  1.5329  0.2026
  203MOL0     O27877   4.950   8.841   5.050  0.0235 -0.5119  0.6489
  203MOL0     C27878   4.918   8.922   4.966  0.7417 -0.7458 -0.6860
  203MOL0     O27879   4.950   8.919   4.837  0.2903  0.2286  0.5354
  203MOL0     C27880   4.960   8.803   4.768 -0.1950 -0.2262 -0.0320
  203MOL0     C27881   5.083   8.788   4.700  0.3726 -0.1440  1.3413
  203MOL0     C27882   5.100   8.662   4.635 -0.1516  0.3079 -0.5004
  203MOL0     C27883   4.992   8.561   4.631 -0.6483 -0.0298  0.3334
  203MOL0     O27884   5.031   8.442   4.572 -0.2185 -0.6042  0.2632
  203MOL0     C27885   4.974   8.310   4.595  0.7300  0.4878 -0.2019
  203MOL0     C27886   5.042   8.201   4.525 -0.0650 -0.4898 -0.4553
  203MOL0     C27887   5.193   8.206   4.555 -0.1423 -0.7796 -0.1450
  203MOL0     C27888   5.228   8.188   4.694 -0.3935  1.3221 -0.3445
  203MOL0     C27889   5.379   8.194   4.722 -0.0187  0.5041 -0.0626
  203MOL0     C27890   5.416   8.081   4.817 -0.6163 -0.6636 -1.1676
  203MOL0     C27891   5.339   8.092   4.946 -0.7632 -0.7747 -0.1486
  203MOL0     C27892   5.390   7.984   5.044  0.6031 -0.5043  0.4282
  203MOL0     N27893   5.314   7.976   5.168 -0.0713  0.1343  1.0165
  203MOL0     C27894   5.338   8.066   5.271  0.8688  0.5910 -0.0956
  203MOL0     C27895   5.275   8.011   5.376 -0.0748 -0.2408  0.4350
  203MOL0     C27896   5.251   8.064   5.513  0.1386  0.3802 -0.3337
  203MOL0     C27897   5.345   8.015   5.625 -0.1642 -0.0067 -0.3381
  203MOL0     C27898   5.305   8.064   5.761 -0.0125 -0.6329  0.4342
  203MOL0     C27899   5.235   7.968   5.858 -0.1760  0.1489  1.4269
  203MOL0     O27900   5.211   8.046   5.971  0.1726 -0.5307  0.0621
  203MOL0     C27901   5.106   8.019   6.056 -0.5645 -0.2313  0.5820
  203MOL0     C27902   5.052   7.892   6.076 -1.0679  0.3358  1.1891
  203MOL0     C27903   4.939   7.867   6.156 -0.5267  0.5985  0.1361
  203MOL0     C27904   4.882   7.726   6.179 -0.1622  0.1089 -0.8041
  203MOL0     C27905   4.878   7.977   6.225 -1.0265 -0.1936  0.8587
  203MOL0     C27906   4.762   7.968   6.324  0.0011 -0.8229 -0.1356
  203MOL0     O27907   4.780   8.025   6.439 -0.2010 -0.2309  0.2344
  203MOL0     C27908   4.694   8.010   6.542 -0.4126  0.0216  0.1835
  203MOL0     C27909   4.645   7.884   6.581 -0.5160 -0.4238 -0.4678
  203MOL0     C27910   4.569   7.879   6.697  0.3106 -0.4585 -0.2638
  203MOL0     C27911   4.537   7.996   6.780 -0.8430 -0.2160  1.7017
  203MOL0     O27912   4.457   7.994   6.885 -0.5210  0.4081 -0.8492
  203MOL0     C27913   4.519   7.923   7.000  0.1062 -0.3609 -0.2715
  203MOL0     C27914   4.511   8.012   7.124  0.2722 -0.0736 -0.3188
  203MOL0     C27915   4.614   7.964   7.216  0.4048 -0.3966 -0.0179
  203MOL0     C27916   4.644   8.042   7.340 -0.0061 -0.2530 -0.6060
  203MOL0     C27917   4.545   8.133   7.401 -0.7159 -0.2911 -0.9432
  203MOL0     C27918   4.593   8.174   7.546  0.1697  0.9837  0.0106
  203MOL0     C27919   4.516   8.308   7.581  0.2034 -0.0285  0.4493
  203MOL0     C27920   4.499   8.331   7.740  0.9546  0.1145 -0.7849
  203MOL0    Cl27921   4.515   8.499   7.778 -0.0893 -0.4171  0.0110
  203MOL0     C27922   4.595   8.115   6.738  0.8363  0.0479  0.4663
  203MOL0     C27923   4.676   8.119   6.622  0.2288 -0.7261 -0.2389
  203MOL0     O27924   4.655   7.909   6.293 -0.2278 -0.1861  0.5514
  203MOL0     C27925   4.955   8.102   6.226 -0.2345  0.7911 -0.7886
  203MOL0     C27926   5.065   8.121   6.143 -0.0517  0.1757 -0.5322
  203MOL0     N27927   5.228   7.890   5.334 -0.0235 -0.0591  0.0581
  203MOL0     N27928   5.249   7.870   5.205 -0.7994  0.4985  0.2933
  203MOL0     C27929   4.871   8.590   4.694 -0.0644  0.1355 -0.4333
  203MOL0     C27930   4.859   8.706   4.771  0.1171  0.2262 -0.7029
  203MOL0     C27931   4.835   9.039   5.011  0.2375  1.0647  0.3369
  203MOL0     C27932   4.858   9.163   4.948  0.1980  0.0806  0.5458
  203MOL0     C27933   4.814   9.289   5.002 -0.1919 -0.3491 -0.2391
  203MOL0     C27934   4.732   9.285   5.116  0.4051  0.5839  0.4983
  203MOL0     O27935   4.703   9.412   5.155 -0.1305  0.4600  0.5781
  203MOL0     C27936   4.636   9.440   5.279  1.2268  0.0041  0.4116
  203MOL0     C27937   4.615   9.596   5.295  0.2639  0.6737 -0.1550
  203MOL0     C27938   4.747   9.673   5.327 -1.3043 -0.9107  0.3917
  203MOL0     C27939   4.711   9.816   5.370  1.3437 -0.2740 -0.4828
  203MOL0     C27940   4.827   9.902   5.370  0.1321 -0.6042 -0.1128
  203MOL0     C27941   4.929   9.974   5.359 -1.1939 -0.5083  0.2052
  203MOL0     C27942   4.693   9.163   5.171 -0.4380 -0.7662 -0.3569
  203MOL0     C27943   4.752   9.040   5.128 -1.1990  1.2765  0.1206
  203MOL0     C27944   4.725   8.917   5.211  0.2617  0.6240 -0.0728
  203MOL0     H27945   5.147   8.874   4.708  0.5603 -0.1622  0.2206
  203MOL0     H27946   5.190   8.628   4.586 -0.7727  2.5363 -3.5242
  203MOL0     H27947   4.866   8.310   4.577  0.5602 -0.0980  0.7114
  203MOL0     H27948   4.979   8.291   4.703 -0.8054 -2.1470 -0.5191
  203MOL0     H27949   5.009   8.100   4.552  0.7585 -0.4693  0.7481
  203MOL0     H27950   5.039   8.207   4.416  2.0630  0.9377 -0.4945
  203MOL0     H27951   5.249   8.133   4.496  0.0173 -0.2254 -0.6938
  203MOL0     H27952   5.224   8.307   4.529 -1.1593 -0.3710  0.1866
  203MOL0     H27953   5.173   8.263   4.751 -0.5478 -1.0325  2.8511
  203MOL0     H27954   5.190   8.091   4.729  0.2415  1.5803  1.1452
  203MOL0     H27955   5.400   8.285   4.780 -0.4158 -0.7626  2.1952
  203MOL0     H27956   5.439   8.195   4.631  1.2496  0.8311  0.7465
  203MOL0     H27957   5.384   7.988   4.771 -3.4514  0.4515 -1.6958
  203MOL0     H27958   5.522   8.077   4.842 -0.8619  1.4570  0.5863
  203MOL0     H27959   5.234   8.062   4.942 -1.3938  1.2948 -0.1930
  203MOL0     H27960   5.344   8.192   4.988  0.3816 -1.1836  0.7470
  203MOL0     H27961   5.365   7.891   4.992 -1.1930 -1.4383  2.7877
  203MOL0     H27962   5.498   7.996   5.057  1.2452 -2.7439 -1.9989
  203MOL0     H27963   5.379   8.165   5.258  1.5072  0.3268 -0.1927
  203MOL0     H27964   5.146   8.047   5.539 -0.2170  1.6925 -0.7981
  203MOL0     H27965   5.267   8.172   5.518  5.9763 -0.2018  0.6304
  203MOL0     H27966   5.344   7.905   5.621 -3.7367 -0.1220  0.4329
  203MOL0     H27967   5.442   8.051   5.590  0.2399 -1.6689 -1.0454
  203MOL0     H27968   5.402   8.096   5.801  0.5732  1.8656 -2.5277
  203MOL0     H27969   5.246   8.156   5.759  1.6100  0.4803  1.2840
  203MOL0     H27970   5.147   7.927   5.807  1.8640 -1.8246 -0.7069
  203MOL0     H27971   5.303   7.889   5.890  0.4369  1.3691  3.2890
  203MOL0     H27972   5.114   7.813   6.034 -0.8087  1.8051 -1.3715
  203MOL0     H27973   4.921   7.648   6.113 -0.5543  0.2818 -1.2473
  203MOL0     H27974   4.775   7.716   6.159 -0.9340 -0.9590  2.9551
  203MOL0     H27975   4.903   7.688   6.280  1.3874  0.9043 -0.8068
  203MOL0     H27976   4.667   7.794   6.526 -3.6805 -1.6871  0.1019
  203MOL0     H27977   4.543   7.779   6.730  1.4151 -0.7464 -0.2310
  203MOL0     H27978   4.458   7.835   7.021 -0.3286  0.0520  0.2175
  203MOL0     H27979   4.621   7.886   6.984 -0.6864 -3.2201  0.7070
  203MOL0     H27980   4.527   8.111   7.080  0.3125  0.1935  0.2832
  203MOL0     H27981   4.420   8.001   7.183  1.1041 -1.0363  0.8484
  203MOL0     H27982   4.717   7.954   7.181  1.0554 -1.1724  1.9545
  203MOL0     H27983   4.579   7.869   7.257 -1.1201  1.9519  4.8064
  203MOL0     H27984   4.720   8.118   7.317  0.4602 -0.0728  1.3143
  203MOL0     H27985   4.689   7.972   7.412  1.6217  0.0888 -1.2318
  203MOL0     H27986   4.537   8.214   7.329  1.5775 -2.0490 -3.3844
  203MOL0     H27987   4.454   8.073   7.409  0.5843 -2.6127 -2.4086
  203MOL0     H27988   4.699   8.180   7.568  1.1226 -2.1256 -2.9022
  203MOL0     H27989   4.556   8.100   7.617 -2.1230  1.6386 -0.4022
  203MOL0     H27990   4.425   8.313   7.519 -0.7365 -2.8989  1.4206
  203MOL0     H27991   4.588   8.387   7.557  1.3267 -0.3317  2.5672
  203MOL0     H27992   4.565   8.268   7.801  0.2598  1.0871  1.0530
  203MOL0     H27993   4.400   8.292   7.763  0.8880  0.6052 -0.2079
  203MOL0     H27994   4.581   8.208   6.790 -0.3634  0.1323  0.0333
  203MOL0     H27995   4.722   8.215   6.601 -1.2842  0.8844  2.9478
  203MOL0     H27996   4.931   8.175   6.302  1.1835  0.7018 -0.2405
  203MOL0     H27997   5.125   8.212   6.143  3.5518 -1.9440  2.1236
  203MOL0     H27998   4.795   8.513   4.686 -1.6445  1.7880 -2.0936
  203MOL0     H27999   4.771   8.709   4.834 -0.3328 -2.8402 -1.0463
  203MOL0     H28000   4.927   9.175   4.864 -1.8272  0.3761 -1.1416
  203MOL0     H28001   4.847   9.380   4.954  1.4576  0.0098  1.4514
  203MOL0     H28002   4.544   9.381   5.283  0.1806  1.3761 -1.5802
  203MOL0     H28003   4.686   9.405   5.370 -1.1835 -1.7567  1.1707
  203MOL0     H28004   4.543   9.612   5.376  1.3125  0.0382  0.9528
  203MOL0     H28005   4.563   9.621   5.202  0.0969 -1.3270 -0.6478
  203MOL0     H28006   4.807   9.631   5.409 -1.5986 -1.3912  0.3707
  203MOL0     H28007   4.797   9.667   5.230 -0.8122  0.0951  0.5750
  203MOL0     H28008   4.673   9.821   5.473  1.5001  0.6096 -0.4548
  203MOL0     H28009   4.629   9.851   5.308 -1.3729 -0.8009  2.5529
  203MOL0     H28010   5.025  10.020   5.347 -1.2677 -0.1899  0.8185
  203MOL0     H28011   4.632   9.163   5.261 -1.4967  1.7068 -0.9808
  203MOL0     H28012   4.816   8.860   5.229 -0.8793 -2.1671 -2.3013
  203MOL0     H28013   4.671   8.953   5.299 -1.5736  0.7260 -1.1637
  203MOL0     H28014   4.652   8.863   5.150  1.8514  0.1363 -1.6064
  204MOL0     O28015   7.849   7.072   2.413 -0.6889  0.4470 -0.0601
  204MOL0     C28016   7.747   7.009   2.447 -0.3458  0.1703 -0.0397
  204MOL0     O28017   7.742   6.872   2.479  0.5825  0.2896  0.3356
  204MOL0     C28018   7.868   6.815   2.504 -0.1718 -0.1327 -0.3401
  204MOL0     C28019   7.957   6.868   2.598 -0.0197  0.2300  0.1471
  204MOL0     C28020   8.074   6.798   2.630 -0.3969 -0.3298 -0.0802
  204MOL0     C28021   8.104   6.673   2.574  0.3727  0.7552  0.3124
  204MOL0     O28022   8.208   6.595   2.622  0.1343 -0.6686  0.3890
  204MOL0     C28023   8.303   6.533   2.541 -0.6250  0.0439  0.5598
  204MOL0     C28024   8.414   6.466   2.633  0.6513 -0.3909  0.3965
  204MOL0     C28025   8.418   6.317   2.622  0.2099  0.5036  0.3977
  204MOL0     C28026   8.500   6.265   2.503  0.9250 -0.0900  0.2916
  204MOL0     C28027   8.653   6.304   2.501 -1.3298  0.9518  0.5640
  204MOL0     C28028   8.738   6.238   2.609 -0.4033  0.6807 -0.8912
  204MOL0     C28029   8.893   6.262   2.603  0.1799  0.3760  0.2223
  204MOL0     C28030   8.932   6.400   2.665  0.5576  0.6669  0.5014
  204MOL0     N28031   9.076   6.421   2.662 -0.0210  0.7749 -0.4076
  204MOL0     C28032   9.161   6.351   2.742  0.8800 -0.1446  0.5043
  204MOL0     C28033   9.279   6.367   2.689 -0.4288 -0.5607  0.2422
  204MOL0     C28034   9.417   6.323   2.744  1.1634  0.2355 -0.2693
  204MOL0     C28035   9.482   6.213   2.647  0.3423 -1.4355 -0.0384
  204MOL0     C28036   9.600   6.136   2.708  0.2778 -0.0146 -0.1559
  204MOL0     C28037   9.638   6.024   2.607  0.5808 -0.3960 -0.9078
  204MOL0     O28038   9.676   6.090   2.482 -0.5101 -0.0111 -0.0176
  204MOL0     C28039   9.643   6.037   2.362  0.0217 -0.6851 -0.1078
  204MOL0     C28040   9.579   5.906   2.340 -0.8509  0.0664 -0.0182
  204MOL0     C28041   9.535   5.868   2.210 -0.3561  0.3893  0.5326
  204MOL0     C28042   9.443   5.752   2.205  0.5872 -0.0943  0.3106
  204MOL0     C28043   9.570   5.953   2.102 -0.2734  0.8047 -0.6125
  204MOL0     C28044   9.526   5.915   1.962  0.5517  0.1354 -0.3113
  204MOL0     O28045   9.488   5.790   1.935  0.0643 -0.3718 -0.7726
  204MOL0     C28046   9.438   5.760   1.811  0.1014 -0.1959  0.1607
  204MOL0     C28047   9.297   5.755   1.797  0.4242  0.2145  1.2237
  204MOL0     C28048   9.235   5.730   1.674  0.5901 -0.7027 -0.2248
  204MOL0     C28049   9.321   5.698   1.566 -0.7675 -0.3380  0.7059
  204MOL0     O28050   9.273   5.669   1.445 -0.3785 -0.4904  0.6262
  204MOL0     C28051   9.139   5.623   1.424 -0.1403  1.0653 -0.3322
  204MOL0     C28052   9.130   5.575   1.286  1.5467  0.7575  0.8038
  204MOL0     C28053   8.983   5.521   1.272  0.1080 -0.0717  1.1419
  204MOL0     C28054   8.931   5.483   1.130  0.3536  0.2636 -0.3262
  204MOL0     C28055   9.004   5.360   1.065  0.7650  0.9865 -0.5156
  204MOL0     C28056   8.982   5.232   1.141  0.1800  0.4294  0.3562
  204MOL0     C28057   9.052   5.119   1.066 -0.7872 -0.0091  0.3991
  204MOL0     C28058   9.020   4.984   1.132 -0.6805 -0.1985  0.5660
  204MOL0    Cl28059   8.845   4.952   1.128  0.2500 -0.2648 -0.0523
  204MOL0     C28060   9.459   5.709   1.579 -0.4406 -0.3310 -0.2250
  204MOL0     C28061   9.519   5.738   1.698  0.6966 -0.1664 -0.1405
  204MOL0     O28062   9.528   6.007   1.884 -0.1112  0.2015 -0.2616
  204MOL0     C28063   9.637   6.079   2.122 -0.2931 -0.1690 -0.2377
  204MOL0     C28064   9.678   6.116   2.250  0.0138  0.0371 -0.4431
  204MOL0     N28065   9.273   6.447   2.579 -0.4254  0.4212  0.7986
  204MOL0     N28066   9.146   6.469   2.563 -0.3203 -0.1312 -0.1185
  204MOL0     C28067   8.014   6.616   2.484  0.7290 -0.0590  1.3510
  204MOL0     C28068   7.891   6.679   2.453 -0.0148 -0.2444  0.5869
  204MOL0     C28069   7.614   7.080   2.437 -0.0030  0.3275  0.0254
  204MOL0     C28070   7.517   7.035   2.523  1.0076 -0.7728  0.4615
  204MOL0     C28071   7.379   7.081   2.517  0.1811 -0.5793 -0.5876
  204MOL0     C28072   7.341   7.157   2.411  0.3842 -0.0406 -0.3003
  204MOL0     O28073   7.210   7.178   2.404  0.2772  0.1068  0.6862
  204MOL0     C28074   7.113   7.068   2.388  0.6258  0.0078 -0.5202
  204MOL0     C28075   6.965   7.121   2.407 -0.1369  0.0996  0.2176
  204MOL0     C28076   6.925   7.202   2.293 -0.7777 -0.2801 -0.1490
  204MOL0     C28077   6.778   7.238   2.301  0.8185  0.8230 -0.0358
  204MOL0     C28078   6.688   7.123   2.284 -0.1096  0.1023  1.0637
  204MOL0     C28079   6.623   7.020   2.307 -1.1078  0.9920  0.3809
  204MOL0     C28080   7.445   7.211   2.321 -0.3505  0.2418  0.1456
  204MOL0     C28081   7.576   7.175   2.337  0.9708  1.2111  0.0062
  204MOL0     C28082   7.680   7.250   2.253  0.5308  1.1497 -0.0293
  204MOL0     H28083   7.924   6.961   2.642 -1.6928  1.1602 -2.7965
  204MOL0     H28084   8.148   6.852   2.689 -0.5314  0.9597 -1.0247
  204MOL0     H28085   8.357   6.603   2.476 -0.6533 -1.4737 -1.2016
  204MOL0     H28086   8.252   6.468   2.469  2.4175  0.5204 -2.2875
  204MOL0     H28087   8.510   6.517   2.621  0.7077  0.1469  2.7664
  204MOL0     H28088   8.384   6.500   2.732 -1.8056  1.0785 -0.7449
  204MOL0     H28089   8.445   6.272   2.718 -0.6796  0.2691  0.5468
  204MOL0     H28090   8.313   6.288   2.622  0.0042  1.1830  1.5954
  204MOL0     H28091   8.494   6.156   2.502 -1.7090 -0.0039 -0.8975
  204MOL0     H28092   8.462   6.310   2.410 -0.3861 -3.9746 -1.2404
  204MOL0     H28093   8.665   6.413   2.490 -2.0250  0.8250 -2.2130
  204MOL0     H28094   8.692   6.253   2.413 -3.8477 -0.2637  0.0724
  204MOL0     H28095   8.709   6.278   2.707 -1.3639  1.2876 -1.4017
  204MOL0     H28096   8.719   6.131   2.617 -0.8464  0.7273 -1.2684
  204MOL0     H28097   8.924   6.254   2.498 -2.5132 -0.2155 -0.6126
  204MOL0     H28098   8.942   6.190   2.669  2.0596  0.3977 -1.0769
  204MOL0     H28099   8.878   6.478   2.611 -0.8416 -1.4204 -1.2913
  204MOL0     H28100   8.899   6.411   2.769 -0.4522  2.5068  0.0233
  204MOL0     H28101   9.139   6.299   2.835  1.1954 -1.9792 -0.4069
  204MOL0     H28102   9.400   6.263   2.834  0.9575 -0.2059 -0.5955
  204MOL0     H28103   9.478   6.411   2.765 -0.5153  1.0288  1.7296
  204MOL0     H28104   9.412   6.146   2.597  1.4882 -0.0632 -3.8753
  204MOL0     H28105   9.513   6.276   2.563 -3.6056  0.6151 -0.1994
  204MOL0     H28106   9.680   6.202   2.739  0.4618  0.0906 -0.8465
  204MOL0     H28107   9.565   6.084   2.798 -0.6298  0.8471  0.0090
  204MOL0     H28108   9.710   5.953   2.649 -0.3305 -1.5342 -1.2250
  204MOL0     H28109   9.547   5.967   2.589 -1.3731  1.7133  1.5666
  204MOL0     H28110   9.559   5.844   2.427 -2.2202 -0.0441 -0.3912
  204MOL0     H28111   9.416   5.719   2.306 -0.0414 -1.6828 -0.3403
  204MOL0     H28112   9.493   5.670   2.152  0.3273  1.8976 -3.3353
  204MOL0     H28113   9.347   5.770   2.156  1.3770  1.8364 -0.6380
  204MOL0     H28114   9.235   5.770   1.886  0.3848  1.1660  1.0461
  204MOL0     H28115   9.126   5.729   1.675  0.5887 -0.1709  0.2584
  204MOL0     H28116   9.121   5.539   1.491 -1.3537  0.9723 -0.7309
  204MOL0     H28117   9.070   5.704   1.453 -0.1253  0.8883  0.2054
  204MOL0     H28118   9.140   5.668   1.229  1.0498 -0.3679 -1.2106
  204MOL0     H28119   9.204   5.498   1.264  0.5261 -0.6009  1.9257
  204MOL0     H28120   8.906   5.586   1.314  0.6652  1.2221  0.2182
  204MOL0     H28121   8.970   5.423   1.319 -1.6091 -0.5470 -0.2097
  204MOL0     H28122   8.930   5.572   1.066 -1.9339  1.0947  0.7584
  204MOL0     H28123   8.824   5.471   1.147 -0.1085  0.5418 -2.6868
  204MOL0     H28124   8.958   5.352   0.966 -0.2766  2.2398 -0.1614
  204MOL0     H28125   9.111   5.374   1.052  0.8891  1.4926  0.8861
  204MOL0     H28126   8.873   5.231   1.128  0.2476  1.4372 -0.4815
  204MOL0     H28127   9.020   5.242   1.243  1.5148  1.6448 -0.2227
  204MOL0     H28128   9.160   5.139   1.071 -0.8250  2.0244 -3.3817
  204MOL0     H28129   9.018   5.120   0.962  0.6176  1.1123 -0.0858
  204MOL0     H28130   9.063   4.993   1.233 -0.6938  2.1186  0.4076
  204MOL0     H28131   9.080   4.904   1.088  3.3801  1.3275  2.7837
  204MOL0     H28132   9.536   5.692   1.504  3.7997  1.1182  3.3621
  204MOL0     H28133   9.627   5.751   1.700  0.5531  1.0658  1.7526
  204MOL0     H28134   9.654   6.141   2.035 -3.2978 -0.9424 -1.5304
  204MOL0     H28135   9.742   6.201   2.268 -2.0155  1.0747  2.7137
  204MOL0     H28136   8.027   6.513   2.452  3.1180 -0.1538  2.4426
  204MOL0     H28137   7.808   6.625   2.411 -0.9698  0.0801  1.9794
  204MOL0     H28138   7.547   6.967   2.603 -1.3247 -0.5653  1.5932
  204MOL0     H28139   7.302   7.038   2.580  1.6861 -1.2563  0.8811
  204MOL0     H28140   7.130   7.021   2.291  2.4954  1.4113 -0.9305
  204MOL0     H28141   7.126   6.986   2.460  2.2838 -0.4733 -1.3273
  204MOL0     H28142   6.961   7.182   2.498 -0.3302  0.9774 -0.3745
  204MOL0     H28143   6.909   7.029   2.427  1.9782 -0.8780  2.1898
  204MOL0     H28144   6.976   7.298   2.304 -1.4197 -0.2356  3.2548
  204MOL0     H28145   6.953   7.156   2.197 -1.2748  0.4282 -0.6462
  204MOL0     H28146   6.758   7.312   2.223 -1.0418 -1.1452 -1.5522
  204MOL0     H28147   6.757   7.270   2.403  1.5513  0.8092  0.1302
  204MOL0     H28148   6.581   6.923   2.325  1.7887 -0.4248  0.1605
  204MOL0     H28149   7.399   7.284   2.255 -1.6109  0.9557  1.7500
  204MOL0     H28150   7.635   7.309   2.173 -0.2932  0.3441 -0.1714
  204MOL0     H28151   7.718   7.316   2.332 -2.2858  1.2587  1.3479
  204MOL0     H28152   7.769   7.202   2.212  1.3963 -1.7236  4.5207
  205MOL0     O28153   2.672   2.581   4.851 -0.4843  0.2075 -0.1625
  205MOL0     C28154   2.648   2.697   4.872 -0.1178 -0.8424  0.4375
  205MOL0     O28155   2.659   2.760   4.991 -0.7061  0.1684  0.1705
  205MOL0     C28156   2.693   2.680   5.096  0.1740  0.1163  0.1071
  205MOL0     C28157   2.601   2.595   5.151 -0.4705 -0.0696 -0.7504
  205MOL0     C28158   2.646   2.507   5.254  0.9731  0.7803  1.0667
  205MOL0     C28159   2.779   2.514   5.297  0.4165 -0.6013  0.4071
  205MOL0     O28160   2.831   2.420   5.387 -0.2866  0.4388 -0.0404
  205MOL0     C28161   2.756   2.385   5.508 -0.6195 -0.0074 -0.1408
  205MOL0     C28162   2.839   2.288   5.589 -1.2096 -0.0080  0.3756
  205MOL0     C28163   2.782   2.261   5.722  0.4955  0.6146 -0.2468
  205MOL0     C28164   2.865   2.166   5.804 -0.1855  0.4771  0.2689
  205MOL0     C28165   2.794   2.122   5.944  0.5994 -1.2404  0.1412
  205MOL0     C28166   2.886   2.037   6.035 -0.1363 -0.8782  0.3676
  205MOL0     C28167   2.815   2.000   6.164 -0.0079 -0.9351 -0.5339
  205MOL0     C28168   2.691   1.905   6.153 -0.1838 -0.0368 -0.2308
  205MOL0     N28169   2.654   1.853   6.287 -0.2625  0.8909  0.0859
  205MOL0     C28170   2.627   1.718   6.314  0.2526  0.7776 -0.6370
  205MOL0     C28171   2.586   1.717   6.442  0.4905  0.4170 -0.2575
  205MOL0     C28172   2.537   1.593   6.513 -0.0330  1.1496  0.4107
  205MOL0     C28173   2.617   1.464   6.484  0.1642  0.5666 -0.4870
  205MOL0     C28174   2.557   1.347   6.560 -0.2595 -1.1010  0.2613
  205MOL0     C28175   2.662   1.236   6.576  0.6238 -0.3825 -0.0582
  205MOL0     O28176   2.770   1.287   6.660 -0.5913 -0.0167 -0.1889
  205MOL0     C28177   2.818   1.197   6.751 -0.2856  0.4073  0.0192
  205MOL0     C28178   2.779   1.199   6.880  0.0423 -0.8133 -0.6311
  205MOL0     C28179   2.817   1.099   6.970  0.2984  0.1063  0.1453
  205MOL0     C28180   2.750   1.104   7.106  0.6702  1.1525 -0.0771
  205MOL0     C28181   2.896   0.994   6.924  0.3633 -0.0956  0.6875
  205MOL0     C28182   2.952   0.881   7.010  0.8055 -0.7276 -0.0706
  205MOL0     O28183   3.016   0.784   6.942  1.1370 -0.2899 -0.3806
  205MOL0     C28184   3.058   0.677   7.017  0.7577 -0.4761 -0.4808
  205MOL0     C28185   2.996   0.552   7.004  0.0646 -0.1029 -1.1789
  205MOL0     C28186   3.028   0.455   7.093  0.3236 -0.0638  0.2111
  205MOL0     C28187   3.112   0.473   7.207  0.9145  0.3216  0.3498
  205MOL0     O28188   3.114   0.375   7.305  0.2359  0.3900 -0.3694
  205MOL0     C28189   3.229   0.362   7.393  0.2090  0.6645 -0.2749
  205MOL0     C28190   3.188   0.300   7.530 -0.4747  0.7292 -0.6782
  205MOL0     C28191   3.310   0.264   7.614 -0.4607  0.6841 -1.7539
  205MOL0     C28192   3.270   0.178   7.744  0.4052 -0.0287 -0.0284
  205MOL0     C28193   3.398   0.103   7.803  0.1000  0.4050 -0.4889
  205MOL0     C28194   3.373   0.063   7.947 -0.3689  0.3754 -0.0671
  205MOL0     C28195   3.294  -0.071   7.951  0.6526  0.6273 -0.8148
  205MOL0     C28196   3.369  -0.193   7.909  0.1643  0.1458  0.0427
  205MOL0    Cl28197   3.507  -0.215   8.027 -0.0381 -0.3999  0.8907
  205MOL0     C28198   3.177   0.599   7.217 -0.3904  0.6039  0.6550
  205MOL0     C28199   3.150   0.701   7.118  0.5915 -0.4724  0.7139
  205MOL0     O28200   2.922   0.880   7.126  0.0923 -0.0365  0.4920
  205MOL0     C28201   2.929   0.983   6.785  0.5722 -0.1235 -1.4801
  205MOL0     C28202   2.886   1.084   6.704  0.4087 -0.3408  0.2131
  205MOL0     N28203   2.603   1.843   6.495 -0.5695  0.9665 -0.8908
  205MOL0     N28204   2.638   1.927   6.406  0.2658  0.6735 -0.0379
  205MOL0     C28205   2.873   2.582   5.222  0.3296 -0.3126  0.0745
  205MOL0     C28206   2.824   2.673   5.126 -0.1235  0.7725  0.7346
  205MOL0     C28207   2.621   2.785   4.755 -0.4929 -1.4369  0.9118
  205MOL0     C28208   2.723   2.879   4.710 -0.1269 -0.0625 -0.1256
  205MOL0     C28209   2.696   2.968   4.612  1.5505 -0.2473 -0.5503
  205MOL0     C28210   2.571   2.986   4.565  0.5806  0.3587  0.2558
  205MOL0     O28211   2.522   3.077   4.483 -0.5052  0.0487  0.4186
  205MOL0     C28212   2.588   3.202   4.470 -0.1574  0.0957  0.3082
  205MOL0     C28213   2.479   3.306   4.457 -1.0163  0.2769  0.1019
  205MOL0     C28214   2.402   3.320   4.592  0.2751 -0.1880 -0.0867
  205MOL0     C28215   2.255   3.283   4.567  1.0441 -0.1954 -0.3317
  205MOL0     C28216   2.153   3.331   4.662  0.5781 -0.6314 -0.0875
  205MOL0     C28217   2.074   3.351   4.755 -0.1472 -0.9576  0.0246
  205MOL0     C28218   2.461   2.903   4.605  1.1490  0.4780  0.2168
  205MOL0     C28219   2.490   2.795   4.692 -0.0860  0.2403 -0.6961
  205MOL0     C28220   2.372   2.718   4.753 -0.2662 -1.3252  0.4805
  205MOL0     H28221   2.500   2.589   5.113 -1.1844  0.7109  0.9241
  205MOL0     H28222   2.571   2.444   5.300  0.9931  0.9187  1.2922
  205MOL0     H28223   2.664   2.333   5.482 -1.1717 -0.3935  2.3311
  205MOL0     H28224   2.733   2.479   5.559  0.3252  0.7274 -1.0059
  205MOL0     H28225   2.831   2.202   5.523 -1.2865 -0.9261  1.5499
  205MOL0     H28226   2.939   2.331   5.602  0.0565 -2.7578  0.4735
  205MOL0     H28227   2.762   2.355   5.774  1.0928 -0.1002  1.3381
  205MOL0     H28228   2.679   2.226   5.713  0.4930 -0.1693  2.1400
  205MOL0     H28229   2.879   2.074   5.747  0.1568 -0.1116  1.2790
  205MOL0     H28230   2.968   2.197   5.824 -0.1163 -0.5592  1.6989
  205MOL0     H28231   2.700   2.076   5.915 -2.4559  2.5627  2.9830
  205MOL0     H28232   2.742   2.210   5.981  1.6165 -1.0045  1.0790
  205MOL0     H28233   2.920   1.948   5.982  0.6817 -2.1711  2.8733
  205MOL0     H28234   2.974   2.090   6.072 -2.3511  1.2611  3.1602
  205MOL0     H28235   2.801   2.093   6.220  1.3368  0.8795 -3.0044
  205MOL0     H28236   2.892   1.951   6.224  0.3528  1.3755  1.0280
  205MOL0     H28237   2.611   1.954   6.097  0.5259 -0.0629 -1.2732
  205MOL0     H28238   2.717   1.816   6.095 -2.2228 -1.5408  0.9982
  205MOL0     H28239   2.648   1.640   6.242 -0.7056  0.0450 -0.1467
  205MOL0     H28240   2.434   1.573   6.483 -0.1653 -2.6255  2.7493
  205MOL0     H28241   2.548   1.608   6.621 -2.3922 -0.6220  0.9815
  205MOL0     H28242   2.640   1.433   6.381  1.9780 -1.0006  0.3119
  205MOL0     H28243   2.719   1.488   6.515  0.2138 -1.3691  1.1058
  205MOL0     H28244   2.524   1.375   6.660  1.1823  0.0955  0.4315
  205MOL0     H28245   2.480   1.307   6.493  3.6813 -0.8529 -5.0885
  205MOL0     H28246   2.626   1.140   6.614  0.4329 -1.4524 -2.7750
  205MOL0     H28247   2.705   1.222   6.477 -1.9497 -0.9164 -1.1697
  205MOL0     H28248   2.717   1.281   6.915  1.2209 -1.2349  2.7788
  205MOL0     H28249   2.841   1.121   7.164  1.5186  1.4857 -1.4545
  205MOL0     H28250   2.694   1.015   7.136 -1.4538  1.2679 -3.1554
  205MOL0     H28251   2.668   1.176   7.114  1.1964  1.6524  0.9515
  205MOL0     H28252   2.933   0.513   6.925 -0.3655 -1.6735 -0.0964
  205MOL0     H28253   2.976   0.360   7.080 -0.9083  0.7602 -1.2030
  205MOL0     H28254   3.309   0.304   7.346 -1.0161 -0.0740 -1.5147
  205MOL0     H28255   3.261   0.463   7.420 -1.0453  1.1267 -0.4485
  205MOL0     H28256   3.133   0.375   7.587  3.1973  2.2971  1.1700
  205MOL0     H28257   3.124   0.212   7.525  1.1644 -0.5260 -0.6309
  205MOL0     H28258   3.361   0.355   7.646  0.1738 -0.0638 -0.5134
  205MOL0     H28259   3.378   0.200   7.556 -2.0142 -4.9667  1.8211
  205MOL0     H28260   3.202   0.095   7.720 -0.2757  0.2834  0.7792
  205MOL0     H28261   3.218   0.240   7.818 -0.4299 -1.0534  0.2714
  205MOL0     H28262   3.436   0.023   7.739 -2.9055 -0.2511 -1.6399
  205MOL0     H28263   3.472   0.183   7.816 -1.2846  1.5057  1.0737
  205MOL0     H28264   3.322   0.139   8.007 -1.6609 -0.7598  0.3357
  205MOL0     H28265   3.470   0.049   7.995  0.4813  1.4531 -1.4078
  205MOL0     H28266   3.209  -0.072   7.882  0.9525 -0.6705 -1.1896
  205MOL0     H28267   3.251  -0.093   8.049 -2.6157  2.3874 -1.7260
  205MOL0     H28268   3.397  -0.202   7.804  0.8010 -2.1400  0.3521
  205MOL0     H28269   3.301  -0.277   7.929  2.2168 -1.3115  1.3872
  205MOL0     H28270   3.255   0.624   7.289  1.5814 -0.8221 -0.8891
  205MOL0     H28271   3.201   0.791   7.151  2.3433  0.6027 -4.0705
  205MOL0     H28272   2.983   0.902   6.737  0.3796 -0.9180 -0.3873
  205MOL0     H28273   2.910   1.074   6.598 -0.4686  0.0202 -0.0295
  205MOL0     H28274   2.977   2.591   5.253  0.3371  4.8463 -0.4827
  205MOL0     H28275   2.882   2.750   5.078 -0.3615 -0.0661 -0.9857
  205MOL0     H28276   2.828   2.875   4.736 -0.6883  1.4317  2.7752
  205MOL0     H28277   2.771   3.039   4.578  1.2870 -0.5835 -1.8701
  205MOL0     H28278   2.647   3.224   4.560 -0.7836  2.1156  0.2712
  205MOL0     H28279   2.654   3.200   4.384  0.7073 -2.0608  0.9627
  205MOL0     H28280   2.418   3.275   4.372  2.3946 -2.1408 -1.7297
  205MOL0     H28281   2.523   3.402   4.431  0.5228  0.0373  1.6382
  205MOL0     H28282   2.437   3.261   4.677 -1.6477 -2.4709 -0.7566
  205MOL0     H28283   2.416   3.416   4.642  0.8635  0.0760 -0.7445
  205MOL0     H28284   2.251   3.174   4.559 -0.6908 -0.3787  1.9070
  205MOL0     H28285   2.215   3.320   4.472  1.8228  3.0726  0.4758
  205MOL0     H28286   2.011   3.364   4.841 -0.2030 -1.5527  0.0786
  205MOL0     H28287   2.364   2.938   4.572 -0.1648 -2.4206  0.6734
  205MOL0     H28288   2.395   2.614   4.778 -2.4571 -2.1006 -0.4227
  205MOL0     H28289   2.335   2.774   4.839  3.0442  4.3739 -1.2738
  205MOL0     H28290   2.289   2.706   4.681  2.2121 -2.5779 -2.4006
  206MOL0     O28291  10.686   6.747   8.340 -0.6010 -0.1009  0.0640
  206MOL0     C28292  10.681   6.659   8.429  0.6147 -0.2406  0.2768
  206MOL0     O28293  10.577   6.576   8.450  0.5136 -0.4817  0.4812
  206MOL0     C28294  10.461   6.593   8.379  0.1147  0.5342  0.1231
  206MOL0     C28295  10.432   6.550   8.241  0.2265  0.4728 -0.3873
  206MOL0     C28296  10.302   6.538   8.188 -0.1636  0.2666  0.6386
  206MOL0     C28297  10.192   6.569   8.277  0.3055  0.0206  0.8453
  206MOL0     O28298  10.071   6.530   8.220 -0.7810  0.1574 -0.1690
  206MOL0     C28299   9.952   6.500   8.286 -0.2988 -1.1819  0.8158
  206MOL0     C28300   9.957   6.348   8.335  0.7691  0.0917 -0.7533
  206MOL0     C28301   9.965   6.252   8.209 -0.1215  0.4171 -1.0460
  206MOL0     C28302   9.969   6.103   8.249 -0.4873 -0.3538  0.0041
  206MOL0     C28303  10.008   6.026   8.129  0.3308 -0.6824 -0.1258
  206MOL0     C28304   9.923   6.050   7.999  0.7530 -0.4887  0.0649
  206MOL0     C28305   9.963   5.959   7.879 -0.2065  0.4444  0.2670
  206MOL0     C28306   9.921   5.807   7.906 -0.0015  0.5821  0.4349
  206MOL0     N28307   9.778   5.779   7.877  0.5799 -0.6731 -1.1101
  206MOL0     C28308   9.669   5.786   7.957  0.7791 -1.0875 -1.6231
  206MOL0     C28309   9.561   5.787   7.873  0.3592 -0.1055 -0.6465
  206MOL0     C28310   9.419   5.813   7.917  0.4985  0.7111  0.3555
  206MOL0     C28311   9.405   5.951   7.976 -0.5301 -0.1130 -0.2359
  206MOL0     C28312   9.417   6.058   7.865 -0.6297  1.0729  0.6425
  206MOL0     C28313   9.343   6.185   7.918 -0.5985  0.1162  0.5658
  206MOL0     O28314   9.204   6.173   7.929  0.8142  0.6645  0.6762
  206MOL0     C28315   9.125   6.148   7.817 -0.1037 -0.3442 -0.0355
  206MOL0     C28316   9.002   6.104   7.847  0.7495 -0.0162  0.6365
  206MOL0     C28317   8.902   6.092   7.745  0.6829  0.8297  0.9552
  206MOL0     C28318   8.770   6.028   7.788  0.2814  1.1710  0.1801
  206MOL0     C28319   8.931   6.121   7.609  0.8038 -0.4363  0.4642
  206MOL0     C28320   8.832   6.093   7.500  0.7730 -0.6683 -0.3713
  206MOL0     O28321   8.814   6.192   7.405  0.6494  0.6246  0.0023
  206MOL0     C28322   8.704   6.171   7.327  0.3850 -0.5903 -0.1908
  206MOL0     C28323   8.687   6.052   7.247 -0.6655  0.1610 -1.2446
  206MOL0     C28324   8.579   6.024   7.162  0.4225 -0.5211 -0.5549
  206MOL0     C28325   8.479   6.123   7.148 -0.2247 -0.4851 -0.4286
  206MOL0     O28326   8.354   6.114   7.085  0.2958 -0.2409 -0.2388
  206MOL0     C28327   8.310   5.996   7.032 -0.4301  1.0534  0.1445
  206MOL0     C28328   8.159   5.988   7.021  0.6750  0.0895 -0.0959
  206MOL0     C28329   8.113   5.902   7.146  1.0625  0.1372  0.3678
  206MOL0     C28330   7.966   5.846   7.133 -0.0291 -0.2006  0.5187
  206MOL0     C28331   7.923   5.761   7.258 -0.8302  0.2421  1.0952
  206MOL0     C28332   7.786   5.693   7.220  0.9064 -0.0008 -0.4697
  206MOL0     C28333   7.665   5.798   7.241 -0.4746 -0.7358 -0.6960
  206MOL0     C28334   7.553   5.792   7.134  0.5153  0.0976 -0.0630
  206MOL0    Cl28335   7.481   5.633   7.143 -0.1728  0.0564 -0.3484
  206MOL0     C28336   8.497   6.247   7.226  1.8609  0.8399 -1.3352
  206MOL0     C28337   8.606   6.266   7.316 -0.3923 -0.3718  0.5007
  206MOL0     O28338   8.765   5.990   7.510  0.2126 -0.2724  0.1778
  206MOL0     C28339   9.060   6.167   7.580  0.7179 -0.4077 -0.0673
  206MOL0     C28340   9.157   6.175   7.684 -0.5655  0.2332 -0.3307
  206MOL0     N28341   9.603   5.775   7.743  0.1875 -0.7682 -0.0438
  206MOL0     N28342   9.730   5.774   7.748 -0.0852 -0.4547  0.1988
  206MOL0     C28343  10.215   6.604   8.409 -0.0147  0.8107  0.2099
  206MOL0     C28344  10.350   6.609   8.459  0.1653 -1.2591 -0.0763
  206MOL0     C28345  10.803   6.646   8.513 -0.3598  0.1982  0.5275
  206MOL0     C28346  10.788   6.578   8.637 -0.0855 -0.3294 -0.3354
  206MOL0     C28347  10.887   6.571   8.737 -0.2402 -0.2519 -0.7984
  206MOL0     C28348  11.013   6.626   8.711  0.0081  0.9656 -1.3375
  206MOL0     O28349  11.124   6.628   8.792  0.0317 -0.3511  0.4110
  206MOL0     C28350  11.105   6.633   8.932 -0.0513  0.6950 -0.0035
  206MOL0     C28351  11.071   6.772   8.983 -0.8584  0.2106  0.0891
  206MOL0     C28352  10.928   6.822   8.945 -1.0214  0.3826  0.1827
  206MOL0     C28353  10.877   6.931   9.034  0.5435  0.2453 -0.2728
  206MOL0     C28354  10.757   6.908   9.116 -0.7082 -0.6066 -0.2099
  206MOL0     C28355  10.647   6.912   9.163  0.8972 -1.0517  1.3584
  206MOL0     C28356  11.042   6.669   8.584  0.2677 -0.0312 -0.1028
  206MOL0     C28357  10.937   6.685   8.488  0.5821  0.0066 -0.0859
  206MOL0     C28358  10.990   6.727   8.351 -0.3815 -0.4850  0.0179
  206MOL0     H28359  10.515   6.505   8.186  1.1349  0.8755  0.6208
  206MOL0     H28360  10.285   6.507   8.086  0.8991 -1.5462  0.9663
  206MOL0     H28361   9.875   6.513   8.210  1.2585 -0.4478 -0.7236
  206MOL0     H28362   9.927   6.564   8.371 -0.6148  1.9425 -1.4488
  206MOL0     H28363  10.038   6.328   8.406  1.1262  2.6631 -0.3228
  206MOL0     H28364   9.866   6.326   8.392 -0.7996 -2.7098 -4.0140
  206MOL0     H28365   9.874   6.271   8.151 -0.8618  0.4991  0.1113
  206MOL0     H28366  10.054   6.269   8.148 -0.4319  0.1018 -1.5923
  206MOL0     H28367  10.033   6.087   8.336  0.7450  2.9421 -0.1872
  206MOL0     H28368   9.866   6.072   8.272 -0.9480  0.5083 -0.8304
  206MOL0     H28369  10.006   5.919   8.149  1.9454 -0.1822  3.5769
  206MOL0     H28370  10.114   6.049   8.115  0.1998  0.5782  0.8225
  206MOL0     H28371   9.817   6.040   8.024  0.8547  0.4144  0.9023
  206MOL0     H28372   9.927   6.156   7.972  0.8452 -0.4937  0.0576
  206MOL0     H28373  10.071   5.970   7.868  0.0280  2.9824  3.5338
  206MOL0     H28374   9.928   5.987   7.779  1.8706 -0.1324 -0.6724
  206MOL0     H28375   9.987   5.753   7.838  1.4071  0.6834  1.6914
  206MOL0     H28376   9.942   5.777   8.009 -1.5853  0.7552  0.8432
  206MOL0     H28377   9.677   5.792   8.065  0.3414 -2.9454 -1.4502
  206MOL0     H28378   9.384   5.733   7.984 -1.7612 -0.3775 -1.9827
  206MOL0     H28379   9.353   5.800   7.831  0.5120 -1.4570  0.6233
  206MOL0     H28380   9.314   5.958   8.036  0.0155  1.8836  0.4415
  206MOL0     H28381   9.478   5.962   8.057 -0.2935  0.7391 -0.5398
  206MOL0     H28382   9.523   6.076   7.846 -0.0021 -0.9181  1.8296
  206MOL0     H28383   9.379   6.010   7.774  0.2179  1.4411  0.0810
  206MOL0     H28384   9.382   6.219   8.015  3.9125 -1.7188 -0.4048
  206MOL0     H28385   9.367   6.265   7.847  0.4830 -0.2087  0.5530
  206MOL0     H28386   8.971   6.109   7.951 -1.9819  1.2977 -0.1421
  206MOL0     H28387   8.690   6.094   7.753 -2.5205 -1.6990  0.7380
  206MOL0     H28388   8.755   6.015   7.896 -2.3953  2.0911  0.0026
  206MOL0     H28389   8.747   5.927   7.752 -0.3714  2.2037 -2.5220
  206MOL0     H28390   8.771   5.983   7.249 -0.4902  0.3842  1.0366
  206MOL0     H28391   8.584   5.925   7.118  2.3697 -1.0830  0.7571
  206MOL0     H28392   8.345   6.000   6.929 -0.9813  0.0021 -0.0961
  206MOL0     H28393   8.356   5.915   7.089 -0.2124  0.9455 -0.1858
  206MOL0     H28394   8.113   6.086   7.038  2.9625  1.3028 -0.5076
  206MOL0     H28395   8.130   5.949   6.923 -1.8210 -2.0447  1.3608
  206MOL0     H28396   8.115   5.960   7.239 -1.2386 -0.2268  0.7020
  206MOL0     H28397   8.186   5.823   7.164  4.0936  2.4539 -0.8465
  206MOL0     H28398   7.947   5.778   7.049  0.5937  0.1625  0.0797
  206MOL0     H28399   7.900   5.933   7.121  1.4836  1.1705  1.7601
  206MOL0     H28400   7.994   5.686   7.295 -0.3048 -0.6327 -1.5038
  206MOL0     H28401   7.902   5.831   7.340 -1.0594  0.6068  0.7279
  206MOL0     H28402   7.753   5.616   7.290 -2.0777 -0.0573 -1.7890
  206MOL0     H28403   7.797   5.647   7.122 -1.3816 -1.7862  0.0202
  206MOL0     H28404   7.707   5.898   7.257 -2.7074  0.6132 -2.6103
  206MOL0     H28405   7.614   5.774   7.334  0.9953  4.5538  1.8959
  206MOL0     H28406   7.582   5.809   7.030  1.4935  2.4491  0.5366
  206MOL0     H28407   7.477   5.867   7.156 -0.3722 -0.7828 -0.0290
  206MOL0     H28408   8.424   6.328   7.218  1.9056  0.8479 -1.6870
  206MOL0     H28409   8.610   6.358   7.374 -0.4441  0.8459 -1.3444
  206MOL0     H28410   9.083   6.187   7.476  3.4791  3.4728  1.0776
  206MOL0     H28411   9.256   6.204   7.651 -0.1210  2.1972  2.4003
  206MOL0     H28412  10.125   6.616   8.468 -0.8390 -0.1195 -0.8101
  206MOL0     H28413  10.351   6.603   8.568 -1.5684 -1.1091 -0.0292
  206MOL0     H28414  10.693   6.536   8.668 -1.0508 -1.1830 -3.9353
  206MOL0     H28415  10.879   6.517   8.831  0.3859 -2.0312 -1.7313
  206MOL0     H28416  11.025   6.567   8.967 -0.7398  0.7617 -1.3898
  206MOL0     H28417  11.195   6.591   8.978  0.7926  0.6079 -1.6671
  206MOL0     H28418  11.152   6.838   8.950 -0.6657 -1.6123 -3.5930
  206MOL0     H28419  11.070   6.765   9.092  0.8628  1.1790  0.1946
  206MOL0     H28420  10.920   6.850   8.840  0.8126  3.2665  0.6944
  206MOL0     H28421  10.864   6.733   8.947  2.7549 -2.5906  0.9309
  206MOL0     H28422  10.842   7.021   8.983 -3.8175 -1.5921 -1.0256
  206MOL0     H28423  10.957   6.954   9.105  0.0698  1.0067  0.0272
  206MOL0     H28424  10.552   6.894   9.208  0.6995  1.5504  2.1614
  206MOL0     H28425  11.147   6.690   8.563  0.1904  0.6782  0.1884
  206MOL0     H28426  10.905   6.766   8.294  0.0024  0.7591  0.2598
  206MOL0     H28427  11.059   6.810   8.366  2.4898 -2.9241  1.0931
  206MOL0     H28428  11.042   6.644   8.302  2.8323  1.6349 -0.4444
  207MOL0     O28429   1.374   9.668   6.327 -0.4936  0.3018  0.8559
  207MOL0     C28430   1.421   9.583   6.396  0.4935  0.2020  0.0740
  207MOL0     O28431   1.529   9.600   6.474  0.5341 -0.0941  0.2468
  207MOL0     C28432   1.610   9.705   6.455  0.0973  0.5864  0.3491
  207MOL0     C28433   1.569   9.834   6.505 -0.3513  0.4943 -0.4491
  207MOL0     C28434   1.665   9.935   6.501  0.4562  0.6266 -0.8979
  207MOL0     C28435   1.782   9.920   6.438 -0.1940  0.0773  0.1650
  207MOL0     O28436   1.858  10.034   6.421  0.4610 -0.1648 -0.0325
  207MOL0     C28437   1.975  10.015   6.338  0.2552 -0.3662  0.3415
  207MOL0     C28438   2.056  10.136   6.308  1.5138 -0.3257 -0.1202
  207MOL0     C28439   2.108  10.191   6.438 -0.2224  0.1789  0.1091
  207MOL0     C28440   2.176  10.325   6.419 -0.2138 -0.3988 -0.0803
  207MOL0     C28441   2.074  10.435   6.421  0.2983  0.3583 -0.0621
  207MOL0     C28442   2.024  10.486   6.563 -1.3672  0.7096  0.6255
  207MOL0     C28443   1.928  10.599   6.553  0.8003 -0.2688  0.0066
  207MOL0     C28444   1.875  10.655   6.685 -0.0726 -0.2739  0.5357
  207MOL0     N28445   1.975  10.742   6.751 -0.3690 -0.3493  0.5934
  207MOL0     C28446   1.946  10.866   6.791 -0.6670 -0.3420 -0.4035
  207MOL0     C28447   2.047  10.913   6.867 -0.1982 -0.3679  0.5009
  207MOL0     C28448   2.060  11.042   6.930  0.2868 -1.0876  0.0194
  207MOL0     C28449   2.186  11.127   6.906 -0.1535  0.4464 -0.0515
  207MOL0     C28450   2.200  11.170   6.756 -1.0403  0.8911  0.8871
  207MOL0     C28451   2.307  11.285   6.740  0.5420  0.9917 -0.3093
  207MOL0     O28452   2.414  11.284   6.840  0.3709  0.9821  0.1888
  207MOL0     C28453   2.442  11.399   6.898  0.0429  0.1952  1.1393
  207MOL0     C28454   2.423  11.413   7.041 -0.3478 -0.6203 -0.4756
  207MOL0     C28455   2.454  11.533   7.106  0.7631  0.0128  0.0380
  207MOL0     C28456   2.422  11.524   7.253  1.3540  0.3453 -0.5869
  207MOL0     C28457   2.508  11.643   7.028 -0.9050 -0.3320  0.9200
  207MOL0     C28458   2.549  11.775   7.080  0.4532 -0.7937 -0.2940
  207MOL0     O28459   2.618  11.856   7.007  0.1126  0.3439 -0.1981
  207MOL0     C28460   2.608  11.994   7.016  0.3977  0.2987 -0.5822
  207MOL0     C28461   2.693  12.074   7.096  0.8504  0.4231 -1.0950
  207MOL0     C28462   2.691  12.211   7.079  0.6832 -0.7143 -0.2377
  207MOL0     C28463   2.595  12.278   7.008  1.2741  0.0315  0.3906
  207MOL0     O28464   2.583  12.415   7.011  0.6072  0.3493 -0.3095
  207MOL0     C28465   2.457  12.456   7.061 -0.3486 -1.1086  0.6351
  207MOL0     C28466   2.404  12.560   6.954  0.2509  0.5821 -0.3164
  207MOL0     C28467   2.287  12.659   6.974 -0.0637 -0.4922 -0.4462
  207MOL0     C28468   2.248  12.736   6.848 -0.3446  0.2290 -0.1424
  207MOL0     C28469   2.140  12.846   6.871  0.7497  0.8107 -0.2114
  207MOL0     C28470   2.151  12.936   6.741 -0.2622 -0.8527  0.6663
  207MOL0     C28471   2.033  13.047   6.758 -0.2058  0.0869 -0.1512
  207MOL0     C28472   2.025  13.154   6.649  0.2603  0.9063  0.3573
  207MOL0    Cl28473   2.181  13.212   6.610 -0.1664  0.3635 -0.1661
  207MOL0     C28474   2.502  12.202   6.931 -0.4922 -0.3522 -0.0590
  207MOL0     C28475   2.516  12.060   6.925  0.3269  0.1779 -0.7730
  207MOL0     O28476   2.491  11.809   7.185  0.2231 -0.4744  0.3259
  207MOL0     C28477   2.524  11.624   6.883 -0.3069  0.2474 -0.7863
  207MOL0     C28478   2.494  11.509   6.819  1.1315 -0.0595  0.2642
  207MOL0     N28479   2.147  10.810   6.857  0.8362  0.2258  0.1469
  207MOL0     N28480   2.098  10.704   6.802  0.3524 -1.3579 -0.3131
  207MOL0     C28481   1.816   9.792   6.391 -0.5514 -0.6819  0.4586
  207MOL0     C28482   1.735   9.689   6.402  0.5816  0.8493  0.6045
  207MOL0     C28483   1.343   9.452   6.415 -0.5424 -1.1527  0.2442
  207MOL0     C28484   1.205   9.467   6.447 -0.3544 -0.1160 -0.5417
  207MOL0     C28485   1.131   9.351   6.469  0.2728  0.3719  0.3831
  207MOL0     C28486   1.189   9.217   6.463  0.0809  0.3548 -0.2143
  207MOL0     O28487   1.127   9.092   6.472 -0.1321 -0.3691 -0.3735
  207MOL0     C28488   0.981   9.089   6.475  0.5898  0.0893  0.3787
  207MOL0     C28489   0.904   8.947   6.473  0.4100 -0.4599  0.3674
  207MOL0     C28490   0.768   8.948   6.538  0.1722  0.6404  0.2900
  207MOL0     C28491   0.692   8.816   6.510  0.1503  0.6896  0.5377
  207MOL0     C28492   0.557   8.828   6.571  0.0415 -0.8738 -0.5473
  207MOL0     C28493   0.450   8.854   6.623 -0.0514 -0.2405 -0.6244
  207MOL0     C28494   1.323   9.209   6.438  0.2760  0.0219  0.5730
  207MOL0     C28495   1.400   9.324   6.413  0.5451  0.2336  0.6341
  207MOL0     C28496   1.554   9.318   6.393  0.1520 -0.4161  0.2342
  207MOL0     H28497   1.465   9.851   6.531  0.3736  3.7756  0.7707
  207MOL0     H28498   1.651  10.023   6.562 -1.4893  1.1593 -2.0117
  207MOL0     H28499   1.951   9.963   6.245  2.0767  1.4343 -1.2278
  207MOL0     H28500   2.042   9.950   6.395  2.1660 -0.2359 -1.6644
  207MOL0     H28501   2.145  10.112   6.248  1.2598 -0.5873 -0.3952
  207MOL0     H28502   2.004  10.204   6.240  3.0206 -0.3044 -1.3166
  207MOL0     H28503   2.033  10.191   6.518 -2.9479 -0.8718 -2.2986
  207MOL0     H28504   2.187  10.120   6.466  1.0644  0.1702 -3.1182
  207MOL0     H28505   2.248  10.351   6.497  1.1422 -1.1648 -1.0102
  207MOL0     H28506   2.235  10.326   6.326 -1.3176  1.5226 -0.8118
  207MOL0     H28507   1.987  10.409   6.360  0.1333  2.7537 -0.9717
  207MOL0     H28508   2.119  10.520   6.369 -0.5440  1.9177  1.6503
  207MOL0     H28509   1.982  10.394   6.605 -0.9377  0.3839  0.3475
  207MOL0     H28510   2.110  10.522   6.621 -0.5250 -1.0635  0.5428
  207MOL0     H28511   1.842  10.586   6.487  0.6011  1.5459 -0.1524
  207MOL0     H28512   1.980  10.686   6.511 -1.4418  1.4902  0.6802
  207MOL0     H28513   1.789  10.713   6.653 -0.1480 -0.9260 -0.4849
  207MOL0     H28514   1.839  10.582   6.759  1.3778  0.4514  2.0341
  207MOL0     H28515   1.855  10.924   6.783 -2.1000 -2.1330  1.6747
  207MOL0     H28516   2.057  11.024   7.038  0.3341 -1.7723 -0.0892
  207MOL0     H28517   1.975  11.108   6.913  3.2594  2.4261 -2.8221
  207MOL0     H28518   2.169  11.218   6.965 -1.4175  0.7853 -0.8903
  207MOL0     H28519   2.262  11.056   6.938 -3.2361 -2.2156  1.9797
  207MOL0     H28520   2.225  11.082   6.696 -3.7159  0.4055  0.3358
  207MOL0     H28521   2.107  11.213   6.717 -0.4115  1.8932  0.4373
  207MOL0     H28522   2.346  11.270   6.639  0.0682 -0.3623 -0.3035
  207MOL0     H28523   2.264  11.386   6.738  3.2621  2.2456 -2.8740
  207MOL0     H28524   2.399  11.320   7.092  2.0895  0.1098  2.2253
  207MOL0     H28525   2.344  11.450   7.274  0.0299  1.6609 -0.7288
  207MOL0     H28526   2.360  11.612   7.274 -0.0575 -1.0777  1.6766
  207MOL0     H28527   2.504  11.513   7.324  1.8992 -1.2023 -1.3980
  207MOL0     H28528   2.766  12.021   7.156  0.6465  1.7796  0.4333
  207MOL0     H28529   2.743  12.284   7.140 -0.2789 -1.1147  1.1219
  207MOL0     H28530   2.385  12.381   7.095  1.8790 -3.0818  1.3262
  207MOL0     H28531   2.480  12.526   7.143  1.5228  0.4522 -1.1025
  207MOL0     H28532   2.491  12.621   6.926  0.6147 -0.6355 -2.0114
  207MOL0     H28533   2.384  12.495   6.868 -1.3709 -0.9347  1.1472
  207MOL0     H28534   2.337  12.730   7.041  0.4493 -2.7740  1.7276
  207MOL0     H28535   2.208  12.603   7.024  1.3079  0.8288  3.5912
  207MOL0     H28536   2.200  12.675   6.772 -3.3676  0.6760  1.2653
  207MOL0     H28537   2.333  12.785   6.800  0.1403 -0.9820 -0.5497
  207MOL0     H28538   2.043  12.798   6.889  0.3203  1.8635  0.3946
  207MOL0     H28539   2.166  12.899   6.963  0.3727 -1.4492  1.2828
  207MOL0     H28540   2.141  12.874   6.652  1.0975 -2.3236  1.4921
  207MOL0     H28541   2.255  12.970   6.735 -0.1688 -0.5546  3.0327
  207MOL0     H28542   2.042  13.109   6.848  0.4917  2.8883 -2.0140
  207MOL0     H28543   1.940  12.990   6.744  1.0996 -2.0157 -0.6941
  207MOL0     H28544   1.954  13.235   6.670 -1.1692  0.2836 -1.7919
  207MOL0     H28545   1.988  13.092   6.567  0.3454  0.1071  0.9084
  207MOL0     H28546   2.423  12.255   6.880 -0.8535  2.3962  3.0066
  207MOL0     H28547   2.449  12.003   6.862 -0.8707 -1.3856  1.7668
  207MOL0     H28548   2.561  11.704   6.820 -2.6206 -0.2445 -2.9453
  207MOL0     H28549   2.512  11.499   6.712 -2.4112 -0.8625 -0.3840
  207MOL0     H28550   1.904   9.764   6.334 -1.0438  1.6206 -1.5552
  207MOL0     H28551   1.757   9.593   6.358 -2.5353 -0.8403  2.3761
  207MOL0     H28552   1.163   9.564   6.469 -0.6147 -0.9520  3.3372
  207MOL0     H28553   1.025   9.366   6.483 -0.2349 -2.6502  0.4168
  207MOL0     H28554   0.943   9.131   6.568  2.6558  2.8816  0.0881
  207MOL0     H28555   0.944   9.152   6.393  0.7749  0.6009  0.6821
  207MOL0     H28556   0.966   8.881   6.534  0.9284 -0.5790 -0.2712
  207MOL0     H28557   0.895   8.924   6.367 -1.4384  1.2767  0.0877
  207MOL0     H28558   0.771   8.971   6.645 -0.4011 -0.2047  0.4953
  207MOL0     H28559   0.724   9.038   6.493  0.1571 -0.1532 -1.3570
  207MOL0     H28560   0.754   8.737   6.554 -1.0477  0.6913  2.2991
  207MOL0     H28561   0.671   8.798   6.404 -2.1861 -0.4596  1.1140
  207MOL0     H28562   0.364   8.875   6.683  0.8244 -0.5282  0.7891
  207MOL0     H28563   1.365   9.109   6.432  3.0437  1.1783 -2.5504
  207MOL0     H28564   1.613   9.407   6.373 -0.2279 -0.1976  0.0664
  207MOL0     H28565   1.598   9.268   6.480  3.2327  0.7868 -0.5063
  207MOL0     H28566   1.567   9.253   6.306  4.1417  3.1122 -2.1431
  208MOL0     O28567  11.058   5.025  11.160  0.0628 -0.2103 -0.3945
  208MOL0     C28568  10.979   5.016  11.255  0.5842  0.4201 -0.2176
  208MOL0     O28569  10.851   4.960  11.239  0.7223 -0.1209 -0.8417
  208MOL0     C28570  10.818   4.883  11.129 -0.0952 -0.1073 -0.9031
  208MOL0     C28571  10.916   4.789  11.088  0.3966 -0.3957 -0.1496
  208MOL0     C28572  10.878   4.689  11.001 -0.5175  0.4401  0.2665
  208MOL0     C28573  10.753   4.695  10.934  1.3049  0.3763  0.4247
  208MOL0     O28574  10.728   4.600  10.837 -0.8922  0.0379 -0.5353
  208MOL0     C28575  10.809   4.614  10.720 -0.1987  1.3577 -0.2872
  208MOL0     C28576  10.731   4.577  10.591 -0.3894 -0.9996 -1.0374
  208MOL0     C28577  10.700   4.427  10.574 -0.1914 -0.3542  0.0059
  208MOL0     C28578  10.664   4.389  10.433  0.2431 -0.2940  0.1579
  208MOL0     C28579  10.584   4.261  10.437  1.0266  0.9890 -0.0633
  208MOL0     C28580  10.652   4.126  10.490 -0.2019  0.0616  0.3046
  208MOL0     C28581  10.560   4.000  10.487  0.0505  1.1647  0.1082
  208MOL0     C28582  10.560   3.922  10.359 -0.0635  0.6009 -0.5173
  208MOL0     N28583  10.678   3.847  10.339 -0.2130  0.4679  0.4127
  208MOL0     C28584  10.711   3.718  10.384 -0.4805  0.5516  0.7347
  208MOL0     C28585  10.831   3.696  10.325  0.7822  0.3609 -0.0109
  208MOL0     C28586  10.896   3.560  10.345 -0.6624  0.1029 -0.3446
  208MOL0     C28587  10.913   3.480  10.212 -1.4667 -0.5413 -0.4018
  208MOL0     C28588  10.778   3.458  10.144 -0.7148  0.2145  1.1023
  208MOL0     C28589  10.795   3.391  10.010  0.2349  0.4655  0.1733
  208MOL0     O28590  10.821   3.249  10.022 -0.6246 -0.0069  0.3344
  208MOL0     C28591  10.713   3.157  10.023  0.7050  0.0775 -0.8691
  208MOL0     C28592  10.574   3.184  10.030 -0.0965  0.9032 -0.6872
  208MOL0     C28593  10.476   3.085  10.031 -0.3176 -0.8613  0.4822
  208MOL0     C28594  10.337   3.138  10.040 -0.4696  0.7625  0.0678
  208MOL0     C28595  10.507   2.956  10.000 -1.0424 -0.0901 -0.2296
  208MOL0     C28596  10.415   2.851   9.957 -0.6873 -1.0105  0.3486
  208MOL0     O28597  10.305   2.891   9.890  0.8089 -0.4057  0.1126
  208MOL0     C28598  10.224   2.792   9.830  0.1990  0.0066  0.0466
  208MOL0     C28599  10.266   2.674   9.774 -0.8204  0.8195 -1.4617
  208MOL0     C28600  10.180   2.574   9.734 -0.0845  1.1117  0.4067
  208MOL0     C28601  10.043   2.592   9.748 -0.6814  0.0273  0.4808
  208MOL0     O28602   9.960   2.480   9.716  0.5418  0.2938  0.2480
  208MOL0     C28603   9.829   2.502   9.652 -0.0494 -0.3216 -0.8335
  208MOL0     C28604   9.758   2.362   9.647 -0.1763 -0.9626  0.6182
  208MOL0     C28605   9.832   2.278   9.541  0.6104  0.1635 -0.3027
  208MOL0     C28606   9.772   2.127   9.555  0.8252 -1.0335 -0.6072
  208MOL0     C28607   9.801   2.042   9.430 -0.0689  0.1549 -0.6349
  208MOL0     C28608   9.721   1.904   9.434  0.9503  0.1474 -1.1477
  208MOL0     C28609   9.572   1.929   9.476 -0.1207 -0.3990  0.0509
  208MOL0     C28610   9.493   1.818   9.416  0.7703  0.6613 -1.2698
  208MOL0    Cl28611   9.565   1.668   9.470 -0.3610  0.1700 -0.4990
  208MOL0     C28612  10.003   2.718   9.796  0.0514  0.0528 -0.7505
  208MOL0     C28613  10.089   2.813   9.848  0.2589  0.3436  0.3392
  208MOL0     O28614  10.449   2.737   9.984  0.1266  0.3766  0.2221
  208MOL0     C28615  10.646   2.925  10.001 -0.5878 -0.5383  0.8496
  208MOL0     C28616  10.751   3.020  10.010 -0.0784  0.4803  0.0439
  208MOL0     N28617  10.869   3.805  10.251  0.0757  0.8807  0.7379
  208MOL0     N28618  10.772   3.891  10.260  1.1772 -0.4488 -0.9168
  208MOL0     C28619  10.658   4.800  10.970  0.6335  1.7588 -0.6688
  208MOL0     C28620  10.693   4.892  11.063  0.4130 -0.4383 -0.1814
  208MOL0     C28621  11.029   5.050  11.388  0.2919 -0.0262 -0.0672
  208MOL0     C28622  10.931   5.122  11.472 -0.4350  0.0722 -0.0418
  208MOL0     C28623  10.966   5.172  11.589 -0.2363 -0.3043  0.0507
  208MOL0     C28624  11.097   5.140  11.647 -0.0254  0.4561  1.1212
  208MOL0     O28625  11.140   5.178  11.775  0.0801  0.2690 -0.1004
  208MOL0     C28626  11.057   5.263  11.860  0.0909  0.6920 -0.0784
  208MOL0     C28627  11.145   5.341  11.954  0.7650  0.0040 -0.4575
  208MOL0     C28628  11.220   5.265  12.059 -0.8279 -0.4598 -0.2171
  208MOL0     C28629  11.129   5.219  12.165 -0.2336  0.2577  0.3454
  208MOL0     C28630  11.206   5.153  12.271  0.1084 -0.5027 -0.0402
  208MOL0     C28631  11.256   5.088  12.361  0.0752 -0.0626  0.0563
  208MOL0     C28632  11.186   5.063  11.573  0.3298  0.4844 -0.1730
  208MOL0     C28633  11.158   5.012  11.447 -0.2506 -0.7126 -0.1360
  208MOL0     C28634  11.248   4.912  11.378  0.4383 -0.5280 -0.1789
  208MOL0     H28635  11.017   4.779  11.127  0.1148 -1.3415  0.3782
  208MOL0     H28636  10.949   4.609  10.984  0.1180  0.9518  0.4385
  208MOL0     H28637  10.891   4.542  10.728  1.0945  2.7876  0.0174
  208MOL0     H28638  10.846   4.717  10.724  0.9701  0.9595 -0.3084
  208MOL0     H28639  10.639   4.636  10.589 -1.5423 -2.6802 -0.0548
  208MOL0     H28640  10.792   4.621  10.512  0.5966  2.7083  1.5054
  208MOL0     H28641  10.787   4.366  10.599 -0.5686 -2.3079 -2.9879
  208MOL0     H28642  10.615   4.404  10.638  0.5171 -1.6921  0.5103
  208MOL0     H28643  10.607   4.466  10.380  2.7064  0.6229 -1.3258
  208MOL0     H28644  10.748   4.381  10.364 -1.6826 -1.3327 -2.2419
  208MOL0     H28645  10.547   4.231  10.338  1.0769 -1.2182  0.5458
  208MOL0     H28646  10.494   4.275  10.498  1.9566  2.1827  1.0816
  208MOL0     H28647  10.746   4.106  10.436  0.0471  1.5500  0.1547
  208MOL0     H28648  10.685   4.144  10.592  0.8568 -2.3375  0.4716
  208MOL0     H28649  10.457   4.020  10.516  0.5151  2.2109  1.1089
  208MOL0     H28650  10.587   3.928  10.564 -2.9394 -1.7458 -1.3170
  208MOL0     H28651  10.473   3.856  10.351  0.8793 -0.7448 -0.0944
  208MOL0     H28652  10.544   3.997  10.280 -1.1739  0.7090 -0.2075
  208MOL0     H28653  10.652   3.641  10.433  0.8934 -1.7779 -1.0150
  208MOL0     H28654  10.844   3.494  10.415 -2.3285 -1.8903 -3.2195
  208MOL0     H28655  10.994   3.568  10.391 -0.9852  1.5418  0.1438
  208MOL0     H28656  10.977   3.538  10.146 -3.4098  2.5696  0.2565
  208MOL0     H28657  10.971   3.390  10.235  3.4689  2.1301 -1.0305
  208MOL0     H28658  10.719   3.382  10.195 -1.2030 -1.0332 -1.1646
  208MOL0     H28659  10.712   3.545  10.137 -0.2100  0.6536  1.7783
  208MOL0     H28660  10.705   3.402   9.949  0.3086  2.1414  0.3160
  208MOL0     H28661  10.880   3.431   9.953 -0.0925  0.5657 -0.2551
  208MOL0     H28662  10.544   3.286  10.050 -1.1797 -0.0689  3.6947
  208MOL0     H28663  10.271   3.063  10.085 -0.6833  1.0385  0.2178
  208MOL0     H28664  10.296   3.171   9.944 -1.5338  1.2092  0.6571
  208MOL0     H28665  10.342   3.217  10.116 -1.8061  0.6338  0.3052
  208MOL0     H28666  10.372   2.652   9.765 -1.0758  0.1324 -3.2614
  208MOL0     H28667  10.222   2.482   9.693 -1.1309 -0.4861  2.7065
  208MOL0     H28668   9.764   2.563   9.716 -0.1174 -1.6899  0.4690
  208MOL0     H28669   9.836   2.551   9.555  1.9724  3.0136  0.8168
  208MOL0     H28670   9.760   2.316   9.746 -1.7953  0.5208  1.3879
  208MOL0     H28671   9.652   2.383   9.628  0.1218 -1.1026 -1.3798
  208MOL0     H28672   9.938   2.284   9.568  0.2054  1.0048  1.2402
  208MOL0     H28673   9.818   2.311   9.438  1.6986 -0.0094 -0.5091
  208MOL0     H28674   9.664   2.131   9.572  1.2488 -1.3811  2.7250
  208MOL0     H28675   9.808   2.080   9.647 -1.2330 -0.9647  0.2693
  208MOL0     H28676   9.765   2.092   9.340  1.0642 -1.6132 -2.1508
  208MOL0     H28677   9.907   2.017   9.420 -0.0103  0.0472  0.1445
  208MOL0     H28678   9.782   1.863   9.515 -0.5424  0.0523 -0.0276
  208MOL0     H28679   9.741   1.859   9.336  2.5344 -2.2329  0.1598
  208MOL0     H28680   9.520   2.014   9.431  1.5198  1.8367  2.1056
  208MOL0     H28681   9.557   1.915   9.583 -5.5799 -3.8049 -0.7904
  208MOL0     H28682   9.492   1.832   9.308  1.0225  1.0556 -1.2232
  208MOL0     H28683   9.394   1.828   9.461  2.4210 -3.7175  4.6727
  208MOL0     H28684   9.897   2.738   9.812  0.1598 -1.5740  3.5545
  208MOL0     H28685  10.059   2.905   9.898  2.3231  0.2069  1.9515
  208MOL0     H28686  10.682   2.826   9.977 -1.8536 -0.9124  0.4535
  208MOL0     H28687  10.848   2.978   9.985  0.8004  2.5780 -0.2042
  208MOL0     H28688  10.564   4.799  10.915  0.1650  2.9484  0.0727
  208MOL0     H28689  10.618   4.970  11.079  0.4754  0.0252 -1.9675
  208MOL0     H28690  10.830   5.126  11.433 -0.6697 -1.3973  0.3864
  208MOL0     H28691  10.894   5.224  11.651  1.6236  6.5307 -2.5613
  208MOL0     H28692  11.005   5.329  11.790  0.8912 -0.1043 -1.4718
  208MOL0     H28693  10.980   5.202  11.909 -2.2447  1.6396 -2.3430
  208MOL0     H28694  11.091   5.419  12.008  0.7176 -0.0488 -0.4271
  208MOL0     H28695  11.221   5.382  11.888  2.1630 -1.0097  0.4608
  208MOL0     H28696  11.280   5.187  12.013  1.0070 -1.3313  3.3369
  208MOL0     H28697  11.298   5.327  12.105 -0.3564 -0.4173 -1.0492
  208MOL0     H28698  11.051   5.157  12.121  0.6521  0.2988 -1.4153
  208MOL0     H28699  11.085   5.305  12.217 -0.1744  1.3818 -1.3731
  208MOL0     H28700  11.308   5.018  12.423 -0.8911  0.4355  1.4774
  208MOL0     H28701  11.279   5.035  11.621 -0.7421  0.3123  1.8898
  208MOL0     H28702  11.195   4.836  11.320  2.2607 -0.9972 -1.3032
  208MOL0     H28703  11.312   4.955  11.300 -2.5062  1.5163 -1.6786
  208MOL0     H28704  11.308   4.861  11.453 -1.0613 -3.0060 -0.5489
  209MOL0     O28705   7.758   5.020   2.943  0.0847  0.2000  0.5509
  209MOL0     C28706   7.755   5.045   3.061 -0.7783  0.6483 -0.1669
  209MOL0     O28707   7.716   4.965   3.158  0.2495  0.2616  0.2766
  209MOL0     C28708   7.669   4.843   3.134 -0.0152 -0.7983  0.0256
  209MOL0     C28709   7.578   4.802   3.225  0.0402  0.1746 -0.1785
  209MOL0     C28710   7.518   4.680   3.223  0.1187 -0.1663 -0.2348
  209MOL0     C28711   7.545   4.593   3.123  0.5440 -0.2994  0.3323
  209MOL0     O28712   7.513   4.459   3.109 -0.1839  0.5542 -0.5188
  209MOL0     C28713   7.436   4.404   3.210 -0.8614  0.5510  0.2869
  209MOL0     C28714   7.373   4.262   3.164  0.6877 -0.2238  0.2354
  209MOL0     C28715   7.471   4.146   3.136  0.5881  0.0098  0.3267
  209MOL0     C28716   7.532   4.083   3.257  0.6277 -0.3472 -0.3607
  209MOL0     C28717   7.602   3.943   3.237 -0.4291  0.5299  0.0851
  209MOL0     C28718   7.662   3.881   3.365 -0.4301  0.0414 -0.1797
  209MOL0     C28719   7.761   3.762   3.340 -0.8199 -1.4311  1.0343
  209MOL0     C28720   7.697   3.661   3.243  0.4780 -0.4062  0.0482
  209MOL0     N28721   7.796   3.551   3.253 -0.1040  0.3536 -0.5942
  209MOL0     C28722   7.793   3.443   3.337 -0.7784  0.2272  0.1536
  209MOL0     C28723   7.890   3.348   3.295  0.1291 -0.1222  0.0107
  209MOL0     C28724   7.905   3.210   3.353 -0.2763 -0.1517  0.9199
  209MOL0     C28725   7.947   3.225   3.494  0.0326  1.0144  1.2339
  209MOL0     C28726   8.009   3.097   3.554 -0.5455  0.9413 -0.7190
  209MOL0     C28727   8.120   3.128   3.658 -0.0664 -0.0882  0.4082
  209MOL0     O28728   8.060   3.209   3.766 -0.0292 -0.6395 -0.1056
  209MOL0     C28729   8.130   3.269   3.863 -0.7104 -1.6402  0.6092
  209MOL0     C28730   8.270   3.313   3.862 -0.1757  0.5819  0.2408
  209MOL0     C28731   8.325   3.396   3.968  0.1961  0.6301 -0.2270
  209MOL0     C28732   8.470   3.445   3.961 -0.0211  0.1421 -0.1962
  209MOL0     C28733   8.244   3.418   4.082  0.5602 -0.0448  0.2978
  209MOL0     C28734   8.303   3.479   4.207 -0.7322 -0.0428 -0.1975
  209MOL0     O28735   8.401   3.575   4.203 -0.2906 -0.3114  0.5455
  209MOL0     C28736   8.466   3.623   4.316  0.2065  0.9495  0.9915
  209MOL0     C28737   8.401   3.669   4.425 -1.6568  0.4067 -0.7094
  209MOL0     C28738   8.462   3.711   4.545  0.3690  0.8519  0.5570
  209MOL0     C28739   8.602   3.694   4.559  1.0999 -0.9033 -0.6344
  209MOL0     O28740   8.661   3.730   4.679 -0.3470 -0.1732 -0.1399
  209MOL0     C28741   8.705   3.614   4.752 -0.3273 -0.4243  0.0501
  209MOL0     C28742   8.862   3.622   4.767  1.0969  0.2149  0.0032
  209MOL0     C28743   8.904   3.731   4.864  0.1906 -0.4601  0.2274
  209MOL0     C28744   9.048   3.767   4.855 -0.3972  0.1039 -0.0606
  209MOL0     C28745   9.097   3.849   4.978  1.7956  0.0986  0.5412
  209MOL0     C28746   9.245   3.896   4.953 -0.0972 -0.0604 -0.3976
  209MOL0     C28747   9.308   3.996   5.064 -0.2449 -0.2959 -0.4148
  209MOL0     C28748   9.372   3.923   5.178  0.4645  0.1834 -0.4291
  209MOL0    Cl28749   9.233   3.850   5.275 -0.0110  0.0345 -0.4119
  209MOL0     C28750   8.675   3.648   4.446 -0.3236 -0.4595  0.8776
  209MOL0     C28751   8.607   3.622   4.328 -0.0521  0.0966  0.7115
  209MOL0     O28752   8.243   3.448   4.307 -0.1895  0.0631 -0.1570
  209MOL0     C28753   8.113   3.375   4.077  0.3030  0.0937  0.4508
  209MOL0     C28754   8.054   3.302   3.967 -0.0005  0.8986 -0.1686
  209MOL0     N28755   7.948   3.394   3.187  0.6407 -0.1403 -0.6904
  209MOL0     N28756   7.892   3.516   3.164 -0.7931 -0.0692  0.2031
  209MOL0     C28757   7.632   4.639   3.022 -0.1376 -0.0661  0.0447
  209MOL0     C28758   7.704   4.751   3.036 -0.2278 -0.1577 -0.3871
  209MOL0     C28759   7.789   5.178   3.099  0.9412  0.2501 -0.9586
  209MOL0     C28760   7.714   5.247   3.199 -0.4730  1.2615 -0.8349
  209MOL0     C28761   7.736   5.383   3.228 -0.6076 -0.1205  1.1449
  209MOL0     C28762   7.848   5.448   3.182 -0.4250  0.3203  0.3141
  209MOL0     O28763   7.870   5.566   3.231 -0.2235 -0.2721 -0.0326
  209MOL0     C28764   7.957   5.655   3.155  0.8597 -0.7452 -1.0439
  209MOL0     C28765   7.912   5.676   3.011  0.3278  0.1743 -0.0267
  209MOL0     C28766   7.802   5.779   3.009 -0.0895  0.0851 -0.2823
  209MOL0     C28767   7.770   5.828   2.871  0.5519  0.5234 -0.1227
  209MOL0     C28768   7.754   5.716   2.780  0.2303  0.4661 -0.3878
  209MOL0     C28769   7.753   5.625   2.692 -0.5375 -1.3181  0.3735
  209MOL0     C28770   7.943   5.372   3.106  0.5801 -0.9201 -0.2527
  209MOL0     C28771   7.907   5.244   3.061 -0.0509 -0.1634 -1.2541
  209MOL0     C28772   7.999   5.174   2.971  1.1320 -0.3446 -0.5102
  209MOL0     H28773   7.547   4.874   3.300 -1.4770 -1.2390  0.6049
  209MOL0     H28774   7.446   4.651   3.299  0.0956 -0.9279 -0.5336
  209MOL0     H28775   7.357   4.470   3.246 -0.8466  0.6016  0.2253
  209MOL0     H28776   7.491   4.384   3.302  1.3980  2.7353 -0.4831
  209MOL0     H28777   7.305   4.230   3.243  0.4090  0.2927  0.2101
  209MOL0     H28778   7.316   4.283   3.073  1.2074  1.4579  0.2664
  209MOL0     H28779   7.424   4.068   3.075 -0.8918  2.5882 -2.0678
  209MOL0     H28780   7.549   4.180   3.067  0.6188 -1.4637 -0.4017
  209MOL0     H28781   7.601   4.159   3.294  0.3311 -1.8564  3.7875
  209MOL0     H28782   7.452   4.071   3.331 -1.8621  1.9116 -2.4735
  209MOL0     H28783   7.682   3.956   3.164 -0.6246 -1.7106 -0.6165
  209MOL0     H28784   7.528   3.873   3.197  0.1588 -0.2363  0.2888
  209MOL0     H28785   7.719   3.955   3.421 -0.6789  2.5693 -3.0259
  209MOL0     H28786   7.573   3.840   3.414 -2.2834  0.2017 -3.1869
  209MOL0     H28787   7.788   3.720   3.437  0.3751  1.1805  1.9442
  209MOL0     H28788   7.853   3.802   3.296 -1.7159 -1.3315 -0.8495
  209MOL0     H28789   7.602   3.625   3.283  1.7567 -2.5336  1.3596
  209MOL0     H28790   7.686   3.699   3.141 -1.2542 -3.0760 -0.8689
  209MOL0     H28791   7.721   3.425   3.416 -0.7317  0.6074  0.2849
  209MOL0     H28792   7.975   3.145   3.299 -1.1542  0.8082 -1.5075
  209MOL0     H28793   7.805   3.167   3.355 -0.4613  0.2877  1.4078
  209MOL0     H28794   8.031   3.294   3.479 -0.5631  1.3536 -0.8749
  209MOL0     H28795   7.870   3.280   3.548 -1.7534  1.5182 -1.5930
  209MOL0     H28796   7.935   3.039   3.609  2.4265 -0.2472  2.3884
  209MOL0     H28797   8.059   3.038   3.477 -0.1686 -0.7242  0.7237
  209MOL0     H28798   8.150   3.033   3.702 -0.8853 -0.2290  0.6781
  209MOL0     H28799   8.206   3.171   3.606 -0.1166  0.8633  1.0786
  209MOL0     H28800   8.327   3.291   3.772  1.4284  1.8245  0.9137
  209MOL0     H28801   8.478   3.553   3.976  0.6915  0.2674 -1.3754
  209MOL0     H28802   8.503   3.417   3.860 -4.2648  1.0457 -2.0542
  209MOL0     H28803   8.517   3.383   4.038 -1.4706  1.1298  1.5664
  209MOL0     H28804   8.292   3.668   4.432 -1.6082 -1.7573  0.6605
  209MOL0     H28805   8.395   3.753   4.620 -0.8102  0.8953 -0.4813
  209MOL0     H28806   8.651   3.610   4.847 -0.6687  1.2594 -0.0350
  209MOL0     H28807   8.691   3.523   4.693  0.3706 -1.1522  0.9698
  209MOL0     H28808   8.903   3.525   4.799 -2.0953 -1.8456 -1.7072
  209MOL0     H28809   8.918   3.632   4.674 -1.1915  1.1781 -1.3425
  209MOL0     H28810   8.902   3.699   4.969  5.4243 -0.2754  0.6651
  209MOL0     H28811   8.860   3.828   4.841 -1.1667 -1.1434 -0.1448
  209MOL0     H28812   9.070   3.817   4.760  0.7225  0.4752  0.3765
  209MOL0     H28813   9.099   3.670   4.863 -0.3682  0.1027 -0.2303
  209MOL0     H28814   9.031   3.937   4.972  0.2723 -1.0804 -0.9175
  209MOL0     H28815   9.072   3.800   5.073 -2.6283  2.5434  0.9650
  209MOL0     H28816   9.253   3.948   4.857 -1.9476  0.1765 -0.4576
  209MOL0     H28817   9.304   3.804   4.960 -1.0155 -0.9131 -2.8880
  209MOL0     H28818   9.236   4.066   5.107  2.1486  0.8968  1.9283
  209MOL0     H28819   9.383   4.057   5.012  2.7541 -2.0668  1.5452
  209MOL0     H28820   9.440   3.992   5.229  0.1370 -1.9251  3.2481
  209MOL0     H28821   9.441   3.842   5.154  3.2669  1.4362  2.5774
  209MOL0     H28822   8.782   3.634   4.459 -0.3909 -1.1554  0.7460
  209MOL0     H28823   8.660   3.579   4.244  2.0852  2.5288  0.6760
  209MOL0     H28824   8.057   3.412   4.163 -4.2753  1.7499 -2.8748
  209MOL0     H28825   7.946   3.290   3.957 -0.1485  1.4766  0.6690
  209MOL0     H28826   7.663   4.578   2.937  1.0269 -0.1795  0.5383
  209MOL0     H28827   7.779   4.772   2.961 -1.7742 -3.2514 -3.0319
  209MOL0     H28828   7.627   5.202   3.246 -0.3152 -0.3712 -2.0247
  209MOL0     H28829   7.670   5.445   3.289  1.2798  2.1815  1.0009
  209MOL0     H28830   7.951   5.747   3.213  1.6786 -0.1662 -1.8564
  209MOL0     H28831   8.055   5.607   3.152  0.5124 -1.4943 -0.8493
  209MOL0     H28832   7.889   5.581   2.962  2.2939 -0.1159 -0.4521
  209MOL0     H28833   7.990   5.734   2.962  0.4670  0.6763  0.7649
  209MOL0     H28834   7.716   5.738   3.065  1.6120  0.5552  2.9309
  209MOL0     H28835   7.830   5.865   3.070 -0.1261 -1.4864  2.0870
  209MOL0     H28836   7.858   5.886   2.841  0.8240 -0.6080 -1.6393
  209MOL0     H28837   7.684   5.895   2.876  2.0102  2.4175  1.0044
  209MOL0     H28838   7.746   5.551   2.616 -1.7283 -0.7878 -0.0535
  209MOL0     H28839   8.035   5.413   3.065  0.0204 -1.0969 -1.7460
  209MOL0     H28840   8.017   5.071   3.003 -0.0331 -0.7101 -0.9748
  209MOL0     H28841   7.978   5.180   2.864  0.7986 -1.0892 -0.4950
  209MOL0     H28842   8.098   5.215   2.993  1.0407 -1.2826  1.9792
  210MOL0     O28843   3.496   7.555  10.372 -0.5237 -0.7564 -0.1956
  210MOL0     C28844   3.522   7.534  10.261 -0.0771 -0.5599  0.5853
  210MOL0     O28845   3.498   7.623  10.161 -0.2820  0.0284 -0.0517
  210MOL0     C28846   3.469   7.746  10.206 -0.1665 -0.0797 -1.0000
  210MOL0     C28847   3.339   7.777  10.261 -0.1303 -0.3191  0.1397
  210MOL0     C28848   3.311   7.899  10.324 -0.2959 -0.8401  0.1596
  210MOL0     C28849   3.408   7.994  10.334 -0.0532 -0.4988 -0.1297
  210MOL0     O28850   3.393   8.098  10.424 -0.0963  0.0639 -0.2926
  210MOL0     C28851   3.363   8.061  10.557  0.4097 -0.0968 -0.0114
  210MOL0     C28852   3.458   8.139  10.646  0.0099 -0.6176 -0.3034
  210MOL0     C28853   3.436   8.295  10.651 -0.3963 -0.2184 -0.3258
  210MOL0     C28854   3.507   8.349  10.774 -0.3217  0.6474 -0.0010
  210MOL0     C28855   3.512   8.506  10.750  0.0354  0.8525  1.0987
  210MOL0     C28856   3.381   8.575  10.772 -0.1657 -1.0930 -0.4012
  210MOL0     C28857   3.411   8.719  10.741  0.0559 -0.3823 -0.2902
  210MOL0     C28858   3.409   8.760  10.599 -0.2937  0.0123  0.2657
  210MOL0     N28859   3.280   8.782  10.540  0.1237 -0.0725  0.1381
  210MOL0     C28860   3.197   8.677  10.510 -0.1535 -0.6770  0.6131
  210MOL0     C28861   3.081   8.748  10.486  0.0435 -0.4204  0.4633
  210MOL0     C28862   2.949   8.683  10.446 -0.0657  0.2693  0.2878
  210MOL0     C28863   2.920   8.673  10.294  0.2309 -0.0448  1.1574
  210MOL0     C28864   2.812   8.768  10.246 -0.3095 -0.7338  0.5354
  210MOL0     C28865   2.755   8.737  10.105  0.2202 -0.3566 -1.1610
  210MOL0     O28866   2.688   8.609  10.079 -0.7000  0.1651 -0.5891
  210MOL0     C28867   2.649   8.596   9.944  1.0696 -1.0761  0.0193
  210MOL0     C28868   2.523   8.660   9.911 -0.9055 -0.1629 -0.0682
  210MOL0     C28869   2.482   8.655   9.784 -0.0831  0.5531 -0.1153
  210MOL0     C28870   2.349   8.732   9.772 -1.1371 -0.6143  0.4992
  210MOL0     C28871   2.552   8.594   9.682 -0.1298  0.7406  0.3528
  210MOL0     C28872   2.507   8.600   9.540 -0.3587  0.3109  0.5239
  210MOL0     O28873   2.612   8.589   9.447  0.0174 -0.0037 -0.1763
  210MOL0     C28874   2.583   8.592   9.313 -0.0030 -1.0604 -0.8790
  210MOL0     C28875   2.493   8.689   9.264  1.0856 -0.0274  0.1265
  210MOL0     C28876   2.468   8.690   9.131  0.2820 -0.3818 -0.3310
  210MOL0     C28877   2.533   8.609   9.033 -0.4949 -0.8315 -0.6779
  210MOL0     O28878   2.510   8.632   8.898  0.1160  0.1355 -0.4076
  210MOL0     C28879   2.496   8.769   8.857  0.8240 -0.1090  0.0925
  210MOL0     C28880   2.521   8.770   8.701 -0.1590  0.7325 -0.6650
  210MOL0     C28881   2.417   8.689   8.623  0.1370  0.5809 -0.1087
  210MOL0     C28882   2.421   8.715   8.476  0.4515  0.9295 -1.0916
  210MOL0     C28883   2.352   8.602   8.393 -0.4149  0.5826 -0.3871
  210MOL0     C28884   2.197   8.602   8.406  0.3392  0.7637  0.1577
  210MOL0     C28885   2.131   8.472   8.349  0.0467 -0.6554  0.1499
  210MOL0     C28886   1.986   8.448   8.391  0.7321  0.2360  1.0853
  210MOL0    Cl28887   1.885   8.573   8.325  0.0760  0.1685 -0.0606
  210MOL0     C28888   2.615   8.509   9.076  0.3681  0.4435 -0.9997
  210MOL0     C28889   2.640   8.502   9.217  0.8894  0.0634  1.0147
  210MOL0     O28890   2.389   8.605   9.514 -0.6004  0.2260  0.1050
  210MOL0     C28891   2.674   8.529   9.713  0.5288 -0.2100 -0.3755
  210MOL0     C28892   2.718   8.530   9.845  0.3065  0.2170 -0.2924
  210MOL0     N28893   3.099   8.885  10.474 -0.7413 -0.6618  0.1672
  210MOL0     N28894   3.224   8.905  10.512 -0.2167 -0.8061  0.9794
  210MOL0     C28895   3.540   7.961  10.293 -0.3536  0.1877  0.0556
  210MOL0     C28896   3.569   7.840  10.224  0.2542  0.7573  0.8899
  210MOL0     C28897   3.563   7.398  10.221 -0.2026  0.3629  1.3612
  210MOL0     C28898   3.570   7.371  10.081 -0.2641 -1.2120  0.7911
  210MOL0     C28899   3.615   7.243  10.024  0.4365  0.2657 -0.4924
  210MOL0     C28900   3.637   7.142  10.125  0.6004 -0.3408 -0.7299
  210MOL0     O28901   3.674   7.014  10.103  0.0820 -0.4817  0.4559
  210MOL0     C28902   3.643   6.968   9.974 -0.0469  0.1903 -0.5293
  210MOL0     C28903   3.642   6.812   9.963  0.3650 -0.1605  0.6928
  210MOL0     C28904   3.522   6.755  10.053 -0.1223 -0.0561  0.0100
  210MOL0     C28905   3.487   6.615  10.015  0.4255  0.0372  0.2079
  210MOL0     C28906   3.602   6.528   9.996 -0.5251  1.4256 -0.2879
  210MOL0     C28907   3.694   6.448   9.960 -0.1237 -0.0183 -1.3374
  210MOL0     C28908   3.619   7.174  10.264  0.7920  0.1685 -1.0530
  210MOL0     C28909   3.586   7.299  10.308  1.8685 -0.2869  0.1115
  210MOL0     C28910   3.571   7.311  10.457 -0.3644 -0.0510  0.5428
  210MOL0     H28911   3.272   7.693  10.270  0.3510 -0.6683  0.5313
  210MOL0     H28912   3.208   7.911  10.354 -0.7145  1.2927 -1.8431
  210MOL0     H28913   3.388   7.957  10.581 -1.0687 -0.3850  0.3831
  210MOL0     H28914   3.258   8.072  10.586 -0.1124 -2.7783 -0.6162
  210MOL0     H28915   3.439   8.109  10.750  3.3878  0.7640  0.8804
  210MOL0     H28916   3.561   8.110  10.620 -0.7955 -4.5629  0.3282
  210MOL0     H28917   3.476   8.340  10.559  2.3891 -0.0588  0.8634
  210MOL0     H28918   3.329   8.317  10.663  0.5171  4.1225  2.0105
  210MOL0     H28919   3.462   8.314  10.868  1.6159 -1.2516  0.2842
  210MOL0     H28920   3.610   8.317  10.791 -0.9580 -0.7237  1.5966
  210MOL0     H28921   3.548   8.520  10.648 -0.8449  0.3965  0.7186
  210MOL0     H28922   3.587   8.529  10.826  0.9766 -2.5411  1.3892
  210MOL0     H28923   3.296   8.538  10.715  0.1449  1.5794 -2.8657
  210MOL0     H28924   3.345   8.564  10.875  1.7659 -2.1874  0.2190
  210MOL0     H28925   3.505   8.750  10.788  0.2033  2.2182 -2.1221
  210MOL0     H28926   3.327   8.767  10.793  1.8377 -0.7292  3.1952
  210MOL0     H28927   3.455   8.860  10.603 -1.6623  0.6075  2.3122
  210MOL0     H28928   3.478   8.703  10.535 -0.1765  0.5533 -0.0966
  210MOL0     H28929   3.209   8.569  10.521  4.4218 -0.6230 -1.5498
  210MOL0     H28930   2.861   8.722  10.497  1.0347  0.0370  2.4968
  210MOL0     H28931   2.960   8.583  10.489 -0.0590 -0.7488 -1.9839
  210MOL0     H28932   3.013   8.695  10.241  1.2864 -1.8141  2.1885
  210MOL0     H28933   2.896   8.568  10.277  2.1557 -0.3693  0.1999
  210MOL0     H28934   2.723   8.787  10.306 -2.2424 -0.3757 -2.2266
  210MOL0     H28935   2.863   8.864  10.235 -2.1473  0.1566 -0.6899
  210MOL0     H28936   2.685   8.818  10.085 -2.1091 -1.7195  0.9216
  210MOL0     H28937   2.834   8.762  10.034 -0.8778 -0.0720 -2.3151
  210MOL0     H28938   2.471   8.709   9.993  2.4695  0.6807  1.7432
  210MOL0     H28939   2.383   8.818   9.714  1.5873 -0.7336  1.7562
  210MOL0     H28940   2.294   8.761   9.862 -3.4483 -0.2459 -0.9536
  210MOL0     H28941   2.269   8.679   9.720 -0.5227  0.3592 -1.5417
  210MOL0     H28942   2.432   8.765   9.312  0.9102  2.0184 -2.9865
  210MOL0     H28943   2.389   8.758   9.099 -0.0810 -1.1026 -0.9922
  210MOL0     H28944   2.398   8.812   8.878  0.2500 -0.9670 -0.7620
  210MOL0     H28945   2.574   8.832   8.902  2.4285 -2.3943  0.6910
  210MOL0     H28946   2.530   8.871   8.662  1.7460  0.3735 -1.2466
  210MOL0     H28947   2.611   8.709   8.705 -0.0114  1.0130  1.8776
  210MOL0     H28948   2.318   8.712   8.664  0.9898 -3.2203  5.1875
  210MOL0     H28949   2.443   8.587   8.653 -0.9390  0.9361  2.2411
  210MOL0     H28950   2.523   8.733   8.442  0.2565  0.1461 -2.1698
  210MOL0     H28951   2.365   8.807   8.456  1.6492  2.2250  1.2328
  210MOL0     H28952   2.379   8.616   8.288 -0.5034 -1.3304 -0.6869
  210MOL0     H28953   2.388   8.505   8.427  1.3438  0.4367 -2.4768
  210MOL0     H28954   2.171   8.694   8.354  0.5644 -0.9307 -3.2489
  210MOL0     H28955   2.165   8.607   8.510 -3.1899  2.4656 -0.8478
  210MOL0     H28956   2.192   8.392   8.392 -1.7144 -1.1487  1.8878
  210MOL0     H28957   2.148   8.480   8.241  1.2110  0.1660  0.3687
  210MOL0     H28958   1.981   8.461   8.499 -0.4394 -0.4278  1.1313
  210MOL0     H28959   1.947   8.348   8.367 -1.0940  0.9658  0.8322
  210MOL0     H28960   2.659   8.437   9.008 -2.7742 -0.7962 -1.8813
  210MOL0     H28961   2.718   8.429   9.234  1.5149  0.5458  0.3426
  210MOL0     H28962   2.729   8.467   9.642 -1.6773 -2.5477 -0.2009
  210MOL0     H28963   2.818   8.493   9.867  0.3866 -0.8804 -2.2952
  210MOL0     H28964   3.617   8.034  10.311 -0.1692  0.6283 -2.2353
  210MOL0     H28965   3.664   7.829  10.174  0.1418  0.6509  0.6982
  210MOL0     H28966   3.533   7.446  10.012 -0.0549 -1.7081  0.1300
  210MOL0     H28967   3.624   7.225   9.917  1.0100  1.4652 -0.6603
  210MOL0     H28968   3.542   6.996   9.942 -0.3595 -0.0464  0.2271
  210MOL0     H28969   3.721   7.003   9.907  0.8207  0.2048  0.4674
  210MOL0     H28970   3.734   6.763   9.996  1.3924  1.9386  1.1791
  210MOL0     H28971   3.628   6.774   9.862 -0.3978  0.3249  0.6055
  210MOL0     H28972   3.558   6.771  10.155 -0.8213  1.2303  0.0677
  210MOL0     H28973   3.428   6.811  10.050 -1.3855 -2.1027 -0.8485
  210MOL0     H28974   3.447   6.620   9.913 -0.7880 -2.7850  0.4544
  210MOL0     H28975   3.407   6.581  10.081 -2.8953  2.2595 -2.3283
  210MOL0     H28976   3.755   6.369   9.921  1.2553  0.8877 -1.0965
  210MOL0     H28977   3.642   7.095  10.334 -1.0497  1.2816  0.9042
  210MOL0     H28978   3.605   7.218  10.504 -0.4039  1.0900  2.9912
  210MOL0     H28979   3.626   7.394  10.504 -0.6839  0.5071 -0.0480
  210MOL0     H28980   3.465   7.314  10.484 -0.7049 -1.9576 -0.4299
  211MOL0     O28981  10.622   0.327   8.693 -0.4600  0.6631  0.3775
  211MOL0     C28982  10.657   0.217   8.660  1.2951 -0.1965  0.1346
  211MOL0     O28983  10.743   0.136   8.722  0.3196 -0.3309  0.0398
  211MOL0     C28984  10.785   0.165   8.847  0.1720 -0.0783  0.8423
  211MOL0     C28985  10.914   0.204   8.860 -1.1073 -0.0014 -0.2489
  211MOL0     C28986  10.953   0.268   8.977 -0.8790  0.7141 -0.5205
  211MOL0     C28987  10.881   0.253   9.096  0.7079 -0.0350  1.0757
  211MOL0     O28988  10.926   0.291   9.219  0.4904 -0.3570  0.3002
  211MOL0     C28989  10.906   0.436   9.245 -0.3585  0.6640  1.0292
  211MOL0     C28990  10.759   0.468   9.270 -0.3690 -0.1543 -0.9669
  211MOL0     C28991  10.724   0.454   9.415 -1.1719  0.0176  0.2371
  211MOL0     C28992  10.580   0.498   9.441  0.0181 -0.3348 -0.8833
  211MOL0     C28993  10.569   0.535   9.591 -0.1739 -0.5530  0.1675
  211MOL0     C28994  10.548   0.414   9.678 -0.0023  0.3495  0.8243
  211MOL0     C28995  10.569   0.456   9.825  0.1899 -0.3709  0.1969
  211MOL0     C28996  10.532   0.332   9.914  0.8467 -1.0488  0.1643
  211MOL0     N28997  10.538   0.380  10.051 -0.4697 -0.2750 -0.5386
  211MOL0     C28998  10.653   0.403  10.122 -0.8587  0.3156 -0.1256
  211MOL0     C28999  10.629   0.485  10.230 -0.2529  0.0186  0.0581
  211MOL0     C29000  10.727   0.529  10.339 -0.6956  0.7509  0.3527
  211MOL0     C29001  10.828   0.641  10.286  1.4103  0.5342  0.6368
  211MOL0     C29002  10.750   0.781  10.264 -0.5331 -0.8495 -0.4168
  211MOL0     C29003  10.838   0.877  10.192  0.3985 -0.0866 -0.0590
  211MOL0     O29004  10.746   0.992  10.172  0.2245 -0.1936  0.2446
  211MOL0     C29005  10.793   1.083  10.081 -0.1001 -0.7270 -1.0180
  211MOL0     C29006  10.703   1.194  10.065  0.1483  0.0118 -0.2308
  211MOL0     C29007  10.731   1.310   9.993 -0.4388  0.2355  0.0853
  211MOL0     C29008  10.637   1.430  10.010  0.1116 -0.6167  0.9582
  211MOL0     C29009  10.850   1.308   9.912 -0.9575  0.7234  0.0668
  211MOL0     C29010  10.889   1.414   9.812  0.5331  0.6808 -0.5718
  211MOL0     O29011  10.805   1.528   9.803 -0.0294  0.7204 -0.1571
  211MOL0     C29012  10.832   1.616   9.694  0.3356 -0.1939  0.3156
  211MOL0     C29013  10.906   1.734   9.717 -0.0716  0.2044 -0.8098
  211MOL0     C29014  10.954   1.810   9.607  0.2444 -0.5533 -0.3769
  211MOL0     C29015  10.946   1.760   9.477  0.0148 -0.1196  0.9099
  211MOL0     O29016  11.011   1.840   9.378 -0.4960 -0.3663 -0.2551
  211MOL0     C29017  11.033   1.813   9.244 -0.5020  0.3613 -0.9115
  211MOL0     C29018  11.119   1.916   9.186 -1.0497  0.4760  0.5250
  211MOL0     C29019  11.255   1.908   9.250 -0.8612  0.1890  0.7878
  211MOL0     C29020  11.363   1.958   9.163  0.5557 -0.2815  0.5643
  211MOL0     C29021  11.338   2.103   9.101 -0.2412  0.4677 -0.3448
  211MOL0     C29022  11.302   2.212   9.192 -1.0820  0.4616  0.5257
  211MOL0     C29023  11.415   2.247   9.297 -0.7279  0.0221 -1.2424
  211MOL0     C29024  11.534   2.315   9.233 -0.6071  0.0534  0.0641
  211MOL0    Cl29025  11.470   2.479   9.176 -0.7630  0.1141 -0.3252
  211MOL0     C29026  10.877   1.636   9.456 -0.4079 -0.5253 -0.5671
  211MOL0     C29027  10.802   1.575   9.560 -0.4001  0.5259  0.4213
  211MOL0     O29028  10.980   1.380   9.733  0.4731 -0.2865 -0.2404
  211MOL0     C29029  10.945   1.202   9.939  0.0134  0.0862  0.2055
  211MOL0     C29030  10.912   1.090  10.014 -1.0644 -0.0102  0.4213
  211MOL0     N29031  10.494   0.497  10.242 -0.5230 -0.3530  1.0831
  211MOL0     N29032  10.447   0.449  10.122  0.3560 -0.0026  0.2046
  211MOL0     C29033  10.757   0.181   9.081  0.1886  0.0031 -0.5077
  211MOL0     C29034  10.703   0.149   8.959  0.1969 -0.3436 -0.0007
  211MOL0     C29035  10.639   0.173   8.522  1.1492  1.2999 -0.5015
  211MOL0     C29036  10.731   0.087   8.450  0.3474 -0.7576  0.3424
  211MOL0     C29037  10.718   0.056   8.314 -0.1699  0.2981  0.3357
  211MOL0     C29038  10.618   0.102   8.239 -0.2717  0.2022 -0.1058
  211MOL0     O29039  10.602   0.078   8.103 -0.2809 -0.1816 -0.1560
  211MOL0     C29040  10.687  -0.017   8.041  0.6314  0.0260  0.1461
  211MOL0     C29041  10.619  -0.070   7.912 -0.4180  0.6919 -0.4477
  211MOL0     C29042  10.606   0.029   7.800  0.3798 -0.0021 -0.2068
  211MOL0     C29043  10.556  -0.031   7.672  0.4449 -0.4281  0.0022
  211MOL0     C29044  10.663  -0.068   7.573 -0.3512 -0.5145 -0.2944
  211MOL0     C29045  10.751  -0.072   7.488 -0.0513  0.7475  0.6280
  211MOL0     C29046  10.521   0.184   8.304  0.3020 -0.3918 -0.6006
  211MOL0     C29047  10.529   0.212   8.443 -0.4297 -0.0616  0.9058
  211MOL0     C29048  10.403   0.259   8.496  0.3659 -0.8591  0.2004
  211MOL0     H29049  10.988   0.197   8.781  0.2160 -0.2799  0.9732
  211MOL0     H29050  11.053   0.310   8.970 -0.5577  0.1601  0.4554
  211MOL0     H29051  10.948   0.500   9.166 -3.2864 -0.1296 -1.3470
  211MOL0     H29052  10.965   0.461   9.334 -1.8897 -2.4651  3.0617
  211MOL0     H29053  10.728   0.571   9.248 -0.3132  0.2214  0.6152
  211MOL0     H29054  10.693   0.396   9.221 -2.2636  1.3361 -0.7307
  211MOL0     H29055  10.737   0.347   9.438  1.0727  0.9135  4.0779
  211MOL0     H29056  10.794   0.507   9.479  0.4721 -3.6568  1.7892
  211MOL0     H29057  10.546   0.589   9.391 -4.6900  0.5089  3.0377
  211MOL0     H29058  10.516   0.418   9.404  1.8587 -0.4201 -4.3245
  211MOL0     H29059  10.478   0.596   9.595  0.2899  0.1359  0.3290
  211MOL0     H29060  10.652   0.599   9.619 -1.2895  1.6319 -1.2397
  211MOL0     H29061  10.462   0.348   9.674  0.0347  0.3765 -1.2614
  211MOL0     H29062  10.638   0.353   9.662 -1.2408 -1.3919  0.2518
  211MOL0     H29063  10.501   0.541   9.839  0.3860  0.1355 -1.5646
  211MOL0     H29064  10.675   0.482   9.838  0.8432  0.7991 -5.0780
  211MOL0     H29065  10.428   0.305   9.892 -0.0628  0.8870  1.7622
  211MOL0     H29066  10.581   0.234   9.903 -0.1354 -1.6979  1.3546
  211MOL0     H29067  10.749   0.363  10.091 -0.7930 -0.7853  1.3859
  211MOL0     H29068  10.772   0.439  10.382  0.3949  0.3299 -1.5341
  211MOL0     H29069  10.663   0.574  10.415 -2.7850 -1.1492 -0.1668
  211MOL0     H29070  10.925   0.643  10.338  0.4354  0.6344  2.5459
  211MOL0     H29071  10.851   0.607  10.185  1.0108  1.0619  0.3626
  211MOL0     H29072  10.654   0.755  10.218 -0.4313 -1.5172 -0.2547
  211MOL0     H29073  10.723   0.823  10.361  1.9751  0.3495 -0.1693
  211MOL0     H29074  10.930   0.895  10.249  1.0606 -2.0343 -0.4422
  211MOL0     H29075  10.875   0.833  10.099  0.7131  0.8524 -0.4019
  211MOL0     H29076  10.610   1.202  10.120 -1.4969  0.9022 -2.9411
  211MOL0     H29077  10.582   1.445   9.917  1.5892 -0.1710  0.1191
  211MOL0     H29078  10.695   1.520  10.029 -2.0318  0.9019  0.6106
  211MOL0     H29079  10.572   1.422  10.097 -1.6676 -0.1781 -0.2913
  211MOL0     H29080  10.930   1.778   9.813 -0.5669  2.1515 -1.5318
  211MOL0     H29081  11.011   1.902   9.618  0.6302 -0.9649  1.1916
  211MOL0     H29082  11.059   1.707   9.233 -2.0456  0.0925 -2.3922
  211MOL0     H29083  10.933   1.828   9.202 -1.9409 -0.0538  2.0752
  211MOL0     H29084  11.123   1.884   9.081 -0.3367 -2.3984  1.3371
  211MOL0     H29085  11.086   2.020   9.194  3.3713  2.2479 -1.0707
  211MOL0     H29086  11.271   1.803   9.273 -4.2636 -0.4838  0.6124
  211MOL0     H29087  11.257   1.966   9.342 -0.3583  0.4065  0.6426
  211MOL0     H29088  11.367   1.888   9.078 -0.1281 -0.1924  0.4516
  211MOL0     H29089  11.457   1.949   9.217  0.3435 -1.5154  0.7663
  211MOL0     H29090  11.428   2.123   9.042 -1.0078  2.3107 -0.9652
  211MOL0     H29091  11.253   2.097   9.032 -2.1468  1.7964  1.7302
  211MOL0     H29092  11.205   2.187   9.236 -0.8517 -5.3618 -1.3927
  211MOL0     H29093  11.284   2.301   9.131 -1.1815 -0.6273 -1.0865
  211MOL0     H29094  11.440   2.159   9.357 -2.5486  2.0783  2.9265
  211MOL0     H29095  11.380   2.319   9.371  4.2697  1.1120  0.4734
  211MOL0     H29096  11.572   2.254   9.150 -1.9917  1.4719 -1.7159
  211MOL0     H29097  11.619   2.324   9.301 -1.2625  4.0978  0.5658
  211MOL0     H29098  10.886   1.600   9.354 -1.3942 -0.7312 -0.5918
  211MOL0     H29099  10.768   1.474   9.541  2.1861 -0.1814 -0.9770
  211MOL0     H29100  11.037   1.181   9.886 -1.6358 -2.0211 -2.1163
  211MOL0     H29101  10.978   1.005  10.006  1.8838  2.0255  1.3498
  211MOL0     H29102  10.691   0.157   9.163  1.1516 -5.0431 -0.9056
  211MOL0     H29103  10.604   0.104   8.953 -0.9812  2.1421 -0.2919
  211MOL0     H29104  10.826   0.079   8.501 -0.9576  1.1824  3.3818
  211MOL0     H29105  10.804   0.013   8.263  0.6762  2.5814 -0.2942
  211MOL0     H29106  10.786   0.022   8.018  1.0302 -2.2069 -2.5541
  211MOL0     H29107  10.703  -0.099   8.112  0.9500  1.9378  2.3859
  211MOL0     H29108  10.524  -0.112   7.946 -0.3592  1.1201  0.2413
  211MOL0     H29109  10.677  -0.158   7.881 -0.0119  0.1035  1.7882
  211MOL0     H29110  10.533   0.102   7.835  1.7046  0.8190  0.9502
  211MOL0     H29111  10.697   0.086   7.783 -0.7123  2.0315  0.5011
  211MOL0     H29112  10.490   0.036   7.616 -1.1308 -2.3701 -0.5826
  211MOL0     H29113  10.496  -0.121   7.691 -1.0314  0.6311  0.5882
  211MOL0     H29114  10.818  -0.066   7.404 -0.0486  0.8054  0.6350
  211MOL0     H29115  10.435   0.213   8.244 -1.5811 -2.5852  0.8757
  211MOL0     H29116  10.377   0.203   8.586  0.3054 -0.8126  0.2130
  211MOL0     H29117  10.410   0.367   8.511 -2.7494 -0.7901  2.0218
  211MOL0     H29118  10.317   0.253   8.429 -0.0158  0.5606  0.5273
  212MOL0     O29119   1.751   1.949  11.403 -0.3816 -0.1628 -0.1754
  212MOL0     C29120   1.646   2.007  11.381  0.2049  0.5124 -0.8965
  212MOL0     O29121   1.567   1.979  11.271 -0.4451 -0.6993  0.1616
  212MOL0     C29122   1.599   1.929  11.148  0.5693  0.2873  0.0677
  212MOL0     C29123   1.726   1.932  11.099  0.0846  0.8778  0.5448
  212MOL0     C29124   1.773   1.862  10.986  1.5834 -0.2250 -0.8250
  212MOL0     C29125   1.674   1.791  10.911 -0.1051  0.0801  0.2704
  212MOL0     O29126   1.725   1.735  10.792  0.2691  0.7612  0.3905
  212MOL0     C29127   1.661   1.605  10.746 -0.5315  0.0152 -0.4824
  212MOL0     C29128   1.682   1.493  10.852 -0.2519  0.3215 -0.1194
  212MOL0     C29129   1.826   1.436  10.861 -0.0701  0.6792  0.1234
  212MOL0     C29130   1.840   1.343  10.983  0.1819 -0.1370  0.5847
  212MOL0     C29131   1.971   1.270  10.982  0.0963 -0.6920  0.7944
  212MOL0     C29132   1.969   1.188  11.109 -0.1295  1.1062 -0.1694
  212MOL0     C29133   2.097   1.111  11.136  0.4805 -0.6523 -0.0764
  212MOL0     C29134   2.102   1.075  11.279 -0.7135  0.0346 -0.1634
  212MOL0     N29135   2.161   0.945  11.306  0.0248 -0.3495 -0.2449
  212MOL0     C29136   2.111   0.828  11.272  0.6885 -1.0354 -0.9835
  212MOL0     C29137   2.191   0.735  11.314 -0.4787 -0.0010  0.3464
  212MOL0     C29138   2.157   0.590  11.315  0.4343 -0.0327 -1.5273
  212MOL0     C29139   2.226   0.524  11.189  0.1210 -0.9556  0.2388
  212MOL0     C29140   2.163   0.556  11.053  0.3421 -0.7918  0.6263
  212MOL0     C29141   2.242   0.510  10.931  0.3551  0.4569 -0.5710
  212MOL0     O29142   2.365   0.575  10.905  0.1680  0.9883 -0.7613
  212MOL0     C29143   2.366   0.703  10.872 -0.6181 -0.1613 -0.6172
  212MOL0     C29144   2.333   0.740  10.747 -1.0474 -0.0482 -1.1632
  212MOL0     C29145   2.328   0.874  10.706 -0.7502  0.0340 -1.2854
  212MOL0     C29146   2.301   0.891  10.561 -0.8159 -0.3929 -0.8643
  212MOL0     C29147   2.357   0.974  10.801  0.7830 -0.0459  0.4669
  212MOL0     C29148   2.372   1.120  10.749  0.9674 -0.2868 -0.9338
  212MOL0     O29149   2.272   1.172  10.664 -0.1241  0.0881  0.2245
  212MOL0     C29150   2.282   1.303  10.629  0.9396  1.0221 -1.0842
  212MOL0     C29151   2.380   1.332  10.535 -0.5063 -1.5595 -0.1878
  212MOL0     C29152   2.411   1.471  10.513 -0.6554 -0.2934  0.4916
  212MOL0     C29153   2.340   1.570  10.577  0.0049 -0.8700 -0.2415
  212MOL0     O29154   2.362   1.706  10.565  0.1350  0.7472  0.1727
  212MOL0     C29155   2.479   1.743  10.486  1.4652 -0.5629  0.9833
  212MOL0     C29156   2.477   1.896  10.449  0.3786 -0.4700 -0.2424
  212MOL0     C29157   2.426   1.998  10.558  0.1613 -1.2489 -1.1602
  212MOL0     C29158   2.457   2.149  10.527  0.6770  0.4939 -1.1939
  212MOL0     C29159   2.370   2.204  10.410  0.1016  0.4410  0.7240
  212MOL0     C29160   2.227   2.256  10.453 -0.9916  0.3486 -0.4924
  212MOL0     C29161   2.236   2.404  10.483  0.5380 -0.3749 -1.2055
  212MOL0     C29162   2.097   2.437  10.544  0.4372  1.1345  0.3720
  212MOL0    Cl29163   1.960   2.427  10.429 -0.4317 -0.0337  0.1649
  212MOL0     C29164   2.245   1.542  10.678 -0.5138  0.1503  0.2610
  212MOL0     C29165   2.213   1.407  10.698  0.6618 -0.5025  0.6536
  212MOL0     O29166   2.451   1.189  10.809 -0.1332 -0.2084 -0.1284
  212MOL0     C29167   2.379   0.933  10.934  0.2586  0.3497 -0.1115
  212MOL0     C29168   2.392   0.796  10.968 -0.7387 -0.4950  0.0830
  212MOL0     N29169   2.303   0.790  11.362  0.1633 -0.9631 -0.0698
  212MOL0     N29170   2.287   0.921  11.350  0.8419 -0.1025  0.0768
  212MOL0     C29171   1.539   1.800  10.947 -0.6089 -0.1019  0.6436
  212MOL0     C29172   1.501   1.874  11.063  0.0205 -0.1221  0.5397
  212MOL0     C29173   1.606   2.098  11.488 -0.3442 -0.3027 -0.3801
  212MOL0     C29174   1.677   2.087  11.618  0.0196 -0.2994 -0.4781
  212MOL0     C29175   1.634   2.152  11.731  0.8757  1.0926 -0.5716
  212MOL0     C29176   1.523   2.237  11.721  1.0837 -0.9318 -0.4250
  212MOL0     O29177   1.470   2.321  11.822  0.3769 -0.0994 -0.2227
  212MOL0     C29178   1.545   2.343  11.946  0.4425 -0.5700 -0.4738
  212MOL0     C29179   1.520   2.228  12.038  0.0584 -0.0831  0.0563
  212MOL0     C29180   1.634   2.208  12.140  1.8496  0.6991 -0.5088
  212MOL0     C29181   1.641   2.331  12.230  0.2268 -0.1338  0.1341
  212MOL0     C29182   1.725   2.433  12.168 -0.5438 -1.0801 -0.3627
  212MOL0     C29183   1.791   2.518  12.115  0.4539  0.5153 -0.4316
  212MOL0     C29184   1.462   2.258  11.598 -0.0592  0.1133 -0.2292
  212MOL0     C29185   1.499   2.192  11.478  0.1481  0.4163 -0.0644
  212MOL0     C29186   1.417   2.228  11.361 -0.7817 -0.3927 -0.2274
  212MOL0     H29187   1.803   1.988  11.152 -0.7702  3.2859 -0.6296
  212MOL0     H29188   1.878   1.855  10.959  1.3571 -1.8337 -1.4251
  212MOL0     H29189   1.708   1.579  10.651  4.3350 -1.3387  1.9914
  212MOL0     H29190   1.552   1.613  10.732 -0.5960  0.8953  0.4231
  212MOL0     H29191   1.641   1.523  10.948  1.7442 -3.5809  2.2075
  212MOL0     H29192   1.617   1.410  10.823  0.4574 -0.4207  0.3683
  212MOL0     H29193   1.862   1.402  10.764 -1.5490  2.3133 -1.0731
  212MOL0     H29194   1.886   1.521  10.894  1.8418  0.3880 -2.3413
  212MOL0     H29195   1.825   1.399  11.076 -0.6063 -3.1458  2.3776
  212MOL0     H29196   1.755   1.275  10.987 -0.2058  0.1822 -1.2276
  212MOL0     H29197   2.054   1.341  10.984 -2.3267  2.4889  4.8788
  212MOL0     H29198   1.983   1.215  10.888 -1.0868  1.2305 -0.5556
  212MOL0     H29199   1.957   1.267  11.183 -0.3409  2.8436 -1.9834
  212MOL0     H29200   1.880   1.124  11.105  0.7972 -0.2204 -3.2087
  212MOL0     H29201   2.177   1.184  11.117 -1.0430  0.7191 -1.6323
  212MOL0     H29202   2.100   1.024  11.070 -1.1491 -1.5002  0.9299
  212MOL0     H29203   2.154   1.148  11.342  2.1921 -3.7276  2.2131
  212MOL0     H29204   2.001   1.066  11.320  0.5390 -1.0194  2.9297
  212MOL0     H29205   2.020   0.820  11.214  0.7845  1.8449 -1.6870
  212MOL0     H29206   2.049   0.577  11.325  0.2995  1.6394 -0.1903
  212MOL0     H29207   2.200   0.538  11.401 -1.9935  0.5489  0.1582
  212MOL0     H29208   2.334   0.544  11.191  0.0338 -0.4697  0.1389
  212MOL0     H29209   2.215   0.418  11.214  2.7194 -1.5016 -0.6009
  212MOL0     H29210   2.058   0.526  11.049  0.1281 -0.0975 -3.3037
  212MOL0     H29211   2.153   0.665  11.053  0.0685 -0.7517  3.0714
  212MOL0     H29212   2.250   0.402  10.946 -0.1925  0.6132  1.0362
  212MOL0     H29213   2.177   0.525  10.844 -2.1733  0.0457  1.1412
  212MOL0     H29214   2.287   0.670  10.678 -1.3985 -0.6608 -0.3329
  212MOL0     H29215   2.222   0.817  10.546  0.0140 -1.5040  0.0509
  212MOL0     H29216   2.400   0.870  10.520  0.1142  0.6495  0.7019
  212MOL0     H29217   2.268   0.988  10.521  2.3234  1.5873  0.9061
  212MOL0     H29218   2.435   1.246  10.498  0.3967 -0.6787 -0.9237
  212MOL0     H29219   2.492   1.501  10.448 -1.1168 -2.1726 -1.0437
  212MOL0     H29220   2.570   1.716  10.539  1.8762  1.2321  1.2328
  212MOL0     H29221   2.479   1.703  10.384  0.2387 -1.0535  1.1542
  212MOL0     H29222   2.578   1.932  10.425 -1.0621  3.5515 -1.0319
  212MOL0     H29223   2.422   1.914  10.356  0.9582 -0.6453 -0.6251
  212MOL0     H29224   2.470   1.986  10.657 -0.3990  2.8220 -0.2472
  212MOL0     H29225   2.318   1.985  10.563  0.1930 -2.1274 -2.2632
  212MOL0     H29226   2.566   2.155  10.515  1.0938  1.3727  2.0899
  212MOL0     H29227   2.444   2.194  10.625  1.4732 -2.1268  0.2230
  212MOL0     H29228   2.435   2.283  10.371  0.4270  0.0853  0.5321
  212MOL0     H29229   2.360   2.135  10.326  1.3673 -0.9120  1.6325
  212MOL0     H29230   2.195   2.192  10.536 -0.1624  0.2207 -0.2515
  212MOL0     H29231   2.160   2.245  10.367  1.4504  0.3314 -2.5166
  212MOL0     H29232   2.249   2.463  10.392 -1.1591  1.1276 -0.5173
  212MOL0     H29233   2.324   2.438  10.539 -0.7613 -0.2683  0.8773
  212MOL0     H29234   2.106   2.538  10.585  1.2220  0.2482  2.5225
  212MOL0     H29235   2.052   2.374  10.621  1.5664 -0.5283 -0.2714
  212MOL0     H29236   2.200   1.627  10.728  2.3677  0.7706  2.0221
  212MOL0     H29237   2.140   1.374  10.771 -0.0705 -1.5415 -0.5010
  212MOL0     H29238   2.409   1.004  11.010 -0.8422 -0.5536  1.2125
  212MOL0     H29239   2.400   0.774  11.074  0.7400 -1.4687 -0.2103
  212MOL0     H29240   1.460   1.757  10.886 -1.1285 -1.5894  2.2945
  212MOL0     H29241   1.394   1.879  11.076 -0.6165 -2.6639 -2.4813
  212MOL0     H29242   1.768   2.028  11.628 -0.8341 -1.2433  3.3354
  212MOL0     H29243   1.702   2.155  11.816  0.2941 -2.3875  0.1780
  212MOL0     H29244   1.646   2.361  11.908  0.5695  0.6427  0.3582
  212MOL0     H29245   1.511   2.432  12.000  2.7414 -0.2420  0.5697
  212MOL0     H29246   1.540   2.143  11.973  2.6561  0.8754 -0.4996
  212MOL0     H29247   1.416   2.229  12.073 -1.0455 -0.6656 -2.8624
  212MOL0     H29248   1.611   2.116  12.195  3.3737 -0.1406 -1.2239
  212MOL0     H29249   1.736   2.196  12.103  1.4696 -0.6404 -1.1859
  212MOL0     H29250   1.689   2.311  12.326 -0.4191 -0.9910  0.2892
  212MOL0     H29251   1.544   2.380  12.244  0.3525 -0.0423  0.7210
  212MOL0     H29252   1.833   2.595  12.054 -1.1892  0.6199 -1.4971
  212MOL0     H29253   1.379   2.328  11.590  0.6929  1.2999  1.5944
  212MOL0     H29254   1.467   2.279  11.279 -3.0198 -0.9952 -2.0787
  212MOL0     H29255   1.366   2.138  11.325 -2.6367  0.2072  0.7991
  212MOL0     H29256   1.332   2.292  11.385  1.7658  2.4585  2.0463
  213MOL0     O29257   6.866   6.334   9.976 -0.7889  0.2825 -0.4477
  213MOL0     C29258   6.892   6.437   9.917  0.2657 -0.0379  1.2989
  213MOL0     O29259   7.022   6.473   9.878 -0.0344  0.4847 -0.4728
  213MOL0     C29260   7.126   6.394   9.922 -0.3188 -0.3535 -0.0529
  213MOL0     C29261   7.194   6.428  10.035 -0.5046 -0.2634  0.3608
  213MOL0     C29262   7.302   6.357  10.086 -0.5241 -0.1801  0.9349
  213MOL0     C29263   7.332   6.233  10.027  0.5211 -0.9163 -0.1652
  213MOL0     O29264   7.425   6.145  10.075 -0.1482 -0.0447  0.0036
  213MOL0     C29265   7.511   6.184  10.190 -0.6904 -1.1089  0.2134
  213MOL0     C29266   7.590   6.068  10.257 -0.0484 -0.4348 -0.1734
  213MOL0     C29267   7.730   6.099  10.314 -0.1049 -0.0934 -0.6145
  213MOL0     C29268   7.717   6.125  10.464 -0.6741  0.2185  0.8135
  213MOL0     C29269   7.738   5.994  10.550  0.5891  1.1933  0.5666
  213MOL0     C29270   7.886   5.962  10.548  0.6173  0.6327  0.4931
  213MOL0     C29271   7.989   6.048  10.638 -0.0311 -0.4955  0.7771
  213MOL0     C29272   7.960   6.061  10.785 -0.2797  0.2287 -0.1028
  213MOL0     N29273   8.013   6.196  10.833  0.2911 -0.2790 -0.2330
  213MOL0     C29274   7.928   6.286  10.890 -0.1605 -0.2549 -0.3478
  213MOL0     C29275   8.019   6.358  10.961  0.3972  0.0874 -0.2071
  213MOL0     C29276   7.983   6.472  11.050  0.3661 -0.2301 -0.6166
  213MOL0     C29277   7.981   6.445  11.199  0.6068 -0.0234 -0.2836
  213MOL0     C29278   8.125   6.460  11.268  0.1856  0.1601  0.4834
  213MOL0     C29279   8.138   6.434  11.416  0.8136 -0.2525 -1.1769
  213MOL0     O29280   8.029   6.352  11.461 -0.8052 -0.2237 -0.3681
  213MOL0     C29281   7.993   6.383  11.588  0.7256 -0.0665  0.7635
  213MOL0     C29282   8.057   6.318  11.689  0.1180  0.3790 -0.1006
  213MOL0     C29283   8.025   6.350  11.823 -0.2839  0.5126  0.5563
  213MOL0     C29284   8.101   6.264  11.923 -0.8921 -0.6626  0.2690
  213MOL0     C29285   7.929   6.443  11.852  0.7774 -0.2184 -0.0298
  213MOL0     C29286   7.875   6.469  11.981 -0.9176  0.2258  0.3198
  213MOL0     O29287   7.840   6.598  12.013  0.2708 -1.0680  0.9242
  213MOL0     C29288   7.835   6.642  12.141  0.1073  0.3083 -0.6999
  213MOL0     C29289   7.936   6.604  12.230  0.1775  0.1631  0.1539
  213MOL0     C29290   7.943   6.656  12.360 -0.6748 -1.2371 -0.3587
  213MOL0     C29291   7.839   6.740  12.410  1.1200  0.7964 -0.2287
  213MOL0     O29292   7.826   6.796  12.530  0.4137 -0.3187 -0.2113
  213MOL0     C29293   7.888   6.731  12.647  0.8376 -0.0269  1.5877
  213MOL0     C29294   7.813   6.762  12.777 -0.3411 -0.5818 -0.0979
  213MOL0     C29295   7.865   6.688  12.892 -0.2165 -0.4413 -0.4350
  213MOL0     C29296   7.802   6.739  13.021 -1.1718  0.2910  0.1414
  213MOL0     C29297   7.869   6.668  13.133  0.2493  0.0073 -0.0092
  213MOL0     C29298   7.858   6.723  13.272  0.8322 -0.5241  0.1833
  213MOL0     C29299   7.713   6.744  13.310  0.9262 -0.1314  0.3608
  213MOL0     C29300   7.628   6.621  13.325 -0.4527  0.1287  1.0160
  213MOL0    Cl29301   7.457   6.664  13.358 -0.5707 -0.1187  0.0183
  213MOL0     C29302   7.741   6.784  12.316  1.2463 -0.1822  0.8743
  213MOL0     C29303   7.739   6.738  12.181 -0.3944  0.7776 -0.6046
  213MOL0     O29304   7.860   6.369  12.046  0.0744  0.0501 -0.9068
  213MOL0     C29305   7.866   6.505  11.747 -0.3212  0.6695 -0.4348
  213MOL0     C29306   7.891   6.475  11.614  0.1931  0.2641  0.6677
  213MOL0     N29307   8.150   6.317  10.938  0.7706 -0.1633  0.5321
  213MOL0     N29308   8.145   6.216  10.853  0.5259 -0.5177 -0.6707
  213MOL0     C29309   7.254   6.187   9.918 -0.2204  0.0952  0.2128
  213MOL0     C29310   7.154   6.266   9.868  0.2560 -0.2113 -0.0083
  213MOL0     C29311   6.781   6.531   9.875 -0.1585  1.0406  0.1294
  213MOL0     C29312   6.817   6.660   9.878 -1.3823  0.0350 -1.0811
  213MOL0     C29313   6.725   6.763   9.873 -0.7395  0.3584  0.6669
  213MOL0     C29314   6.584   6.736   9.856 -0.4689 -0.1300 -0.6699
  213MOL0     O29315   6.506   6.850   9.848 -0.1234 -0.9199 -0.3258
  213MOL0     C29316   6.365   6.839   9.851 -0.4077  1.0770 -0.1195
  213MOL0     C29317   6.312   6.983   9.824 -0.4183 -0.5468  0.1588
  213MOL0     C29318   6.330   7.020   9.669 -0.3713  0.3996 -0.7606
  213MOL0     C29319   6.351   7.173   9.640  0.3770 -0.1758  0.1462
  213MOL0     C29320   6.387   7.188   9.500 -1.2926  0.3320  0.1275
  213MOL0     C29321   6.436   7.199   9.384 -0.7457 -0.9061 -0.1933
  213MOL0     C29322   6.555   6.604   9.830  0.3138  0.3137 -1.2765
  213MOL0     C29323   6.650   6.497   9.847 -0.3615 -1.1399 -0.3533
  213MOL0     C29324   6.614   6.352   9.822 -0.1100  0.8604  0.6519
  213MOL0     H29325   7.170   6.520  10.087  0.5703 -0.5420  1.3953
  213MOL0     H29326   7.355   6.394  10.173  1.0122  0.9785 -0.4193
  213MOL0     H29327   7.464   6.232  10.276  0.9260 -1.4493  1.3362
  213MOL0     H29328   7.589   6.249  10.149  0.2030 -2.7822 -0.8630
  213MOL0     H29329   7.524   6.020  10.329 -2.3488  1.6339 -0.7434
  213MOL0     H29330   7.611   6.004  10.170 -2.2624  0.3905 -1.3898
  213MOL0     H29331   7.791   6.010  10.299  0.5515 -0.0737  1.5559
  213MOL0     H29332   7.778   6.180  10.258 -0.2069  2.2129  2.3567
  213MOL0     H29333   7.797   6.195  10.490 -0.6654  0.3954  0.3218
  213MOL0     H29334   7.619   6.169  10.482  0.0518  4.5026 -3.6927
  213MOL0     H29335   7.680   5.908  10.514  3.2118 -1.0190  1.2086
  213MOL0     H29336   7.710   5.999  10.655  2.0823  1.3383  0.9863
  213MOL0     H29337   7.895   5.860  10.585 -3.0099  0.6548  1.9190
  213MOL0     H29338   7.916   5.962  10.443  0.4192  1.4294  0.4290
  213MOL0     H29339   7.989   6.142  10.581  3.4343 -1.2613 -0.7327
  213MOL0     H29340   8.094   6.017  10.636  1.5366  3.9385 -2.4463
  213MOL0     H29341   7.855   6.047  10.809 -1.4340  2.2542 -3.3865
  213MOL0     H29342   8.023   5.982  10.827  0.8955  1.6401  0.9327
  213MOL0     H29343   7.820   6.292  10.888 -0.2091 -0.7977 -2.7230
  213MOL0     H29344   7.880   6.499  11.026 -0.8974 -3.8246  0.1052
  213MOL0     H29345   8.050   6.556  11.030  0.3635 -0.0725  0.0181
  213MOL0     H29346   7.916   6.519  11.246  0.6798  1.1906 -2.0163
  213MOL0     H29347   7.929   6.350  11.217  2.8407 -1.5529 -1.3862
  213MOL0     H29348   8.193   6.409  11.200  0.1454  1.2441 -0.4079
  213MOL0     H29349   8.149   6.567  11.258  2.7418 -0.3158  0.7282
  213MOL0     H29350   8.229   6.378  11.440 -1.4202 -2.4872  3.2199
  213MOL0     H29351   8.143   6.533  11.462 -0.9785 -1.3139  1.5543
  213MOL0     H29352   8.114   6.230  11.658  0.0196  0.5202 -0.6786
  213MOL0     H29353   8.191   6.221  11.878  0.8300  0.7120  2.1850
  213MOL0     H29354   8.044   6.176  11.955  0.5735 -0.9964  2.1610
  213MOL0     H29355   8.130   6.327  12.008 -3.1905  1.8550 -0.6704
  213MOL0     H29356   8.016   6.537  12.198  0.4418 -1.1802  3.3001
  213MOL0     H29357   8.016   6.633  12.437  0.0985  1.9044 -0.0176
  213MOL0     H29358   7.893   6.621  12.651 -4.1606 -0.5964 -0.3090
  213MOL0     H29359   7.990   6.769  12.660  0.0749  2.1137  1.6112
  213MOL0     H29360   7.816   6.871  12.792 -3.4395 -0.6666  1.9399
  213MOL0     H29361   7.707   6.741  12.762 -0.2611 -0.5956 -0.6823
  213MOL0     H29362   7.974   6.702  12.890  0.2214 -3.2116 -1.4641
  213MOL0     H29363   7.845   6.581  12.882  0.8803 -0.7402  0.2897
  213MOL0     H29364   7.693   6.731  13.019 -1.4027  2.0006  2.3328
  213MOL0     H29365   7.823   6.846  13.030 -3.0583  0.9241 -1.9733
  213MOL0     H29366   7.834   6.564  13.138  1.6074 -0.4823 -0.4186
  213MOL0     H29367   7.974   6.674  13.103 -0.3755 -0.6878 -2.4978
  213MOL0     H29368   7.909   6.819  13.286  0.0762 -0.0950  0.0748
  213MOL0     H29369   7.910   6.655  13.339  0.5883  0.0468  0.9667
  213MOL0     H29370   7.662   6.803  13.233 -1.6940 -3.8248 -1.0380
  213MOL0     H29371   7.722   6.799  13.404  3.3729 -0.0985  0.1545
  213MOL0     H29372   7.667   6.553  13.402  0.0753 -2.0839 -1.0649
  213MOL0     H29373   7.621   6.577  13.225 -1.9123  2.3115  0.0750
  213MOL0     H29374   7.667   6.850  12.358  1.7964  0.7266  0.4411
  213MOL0     H29375   7.663   6.770  12.111  1.8928  1.8225 -2.7810
  213MOL0     H29376   7.788   6.574  11.774 -0.4205 -0.5799  3.0151
  213MOL0     H29377   7.830   6.516  11.534 -1.5124 -0.2938  1.6111
  213MOL0     H29378   7.282   6.097   9.864 -1.8194  0.0757 -0.6778
  213MOL0     H29379   7.096   6.228   9.784 -0.1620 -1.1458  0.6720
  213MOL0     H29380   6.921   6.690   9.885 -0.9896 -1.5377  1.1870
  213MOL0     H29381   6.751   6.868   9.876  0.4482  0.1993 -1.7035
  213MOL0     H29382   6.337   6.768   9.773 -0.5973  1.7789 -0.7013
  213MOL0     H29383   6.329   6.789   9.942 -1.3180 -1.7981 -1.9391
  213MOL0     H29384   6.369   7.046   9.893 -1.9830  0.7018  0.3583
  213MOL0     H29385   6.205   6.996   9.840 -1.0358 -2.3975 -1.9566
  213MOL0     H29386   6.414   6.962   9.629 -1.0857  0.8567 -3.0753
  213MOL0     H29387   6.243   6.982   9.614  0.0123 -0.5843 -0.7192
  213MOL0     H29388   6.425   7.222   9.704 -0.8772  0.2305  1.3540
  213MOL0     H29389   6.255   7.224   9.656 -0.8105 -2.7540  2.0283
  213MOL0     H29390   6.454   7.215   9.280 -0.3698 -2.3011 -0.3639
  213MOL0     H29391   6.452   6.573   9.816  0.3179 -1.3565  1.6420
  213MOL0     H29392   6.655   6.313   9.729  3.6545  2.4009  1.4811
  213MOL0     H29393   6.651   6.285   9.900  0.5516  1.4913  0.8922
  213MOL0     H29394   6.505   6.340   9.827 -0.0071 -0.6247 -0.1112
  214MOL0     O29395   4.385   5.023   7.405 -0.0785 -0.7401  0.2575
  214MOL0     C29396   4.378   5.128   7.334  0.0692  0.1884 -0.3524
  214MOL0     O29397   4.446   5.244   7.353  0.1896 -0.6717 -0.2185
  214MOL0     C29398   4.565   5.236   7.432  0.2865  0.1829  0.9089
  214MOL0     C29399   4.675   5.152   7.397  0.4558 -0.7008 -0.3997
  214MOL0     C29400   4.789   5.136   7.484 -0.6417  0.7811 -0.4870
  214MOL0     C29401   4.797   5.198   7.602 -0.5417 -0.4236 -0.3247
  214MOL0     O29402   4.909   5.210   7.682  0.3067  0.1933  0.0126
  214MOL0     C29403   4.910   5.136   7.804  0.2089  0.6559 -0.2905
  214MOL0     C29404   5.027   5.173   7.892  0.9599 -0.8456  0.4702
  214MOL0     C29405   5.137   5.064   7.890 -0.0074 -0.2265 -0.1793
  214MOL0     C29406   5.263   5.116   7.970 -0.4779  1.5265 -0.4176
  214MOL0     C29407   5.369   5.003   7.978  0.2846  0.0351 -0.6266
  214MOL0     C29408   5.505   5.055   8.035 -0.5941 -0.9656  0.3232
  214MOL0     C29409   5.506   5.086   8.187 -0.3487 -0.2256  0.2187
  214MOL0     C29410   5.642   5.079   8.248  0.2466 -0.5876 -0.7042
  214MOL0     N29411   5.654   5.111   8.392 -0.0785  0.7765  0.0032
  214MOL0     C29412   5.771   5.115   8.464 -0.5255  0.2794 -0.2820
  214MOL0     C29413   5.729   5.107   8.592  0.7236  1.1507 -0.2425
  214MOL0     C29414   5.817   5.107   8.718  0.2293 -0.4801 -0.6372
  214MOL0     C29415   5.947   5.022   8.703  0.5545 -1.0767 -0.2056
  214MOL0     C29416   6.076   5.099   8.670  0.0121  0.0718 -0.8420
  214MOL0     C29417   6.168   5.044   8.568 -0.6581  0.1551  0.0576
  214MOL0     O29418   6.112   5.047   8.430  0.8168 -1.5272 -0.6032
  214MOL0     C29419   6.193   5.081   8.324  0.0182 -0.5169  0.6824
  214MOL0     C29420   6.141   5.144   8.208  0.5518 -0.1357  0.6546
  214MOL0     C29421   6.217   5.157   8.084 -0.7513  0.5528  0.0068
  214MOL0     C29422   6.158   5.238   7.973 -0.2966  0.2974  0.8831
  214MOL0     C29423   6.348   5.092   8.085 -1.1965  0.3696 -0.0572
  214MOL0     C29424   6.438   5.103   7.967  0.2329  0.4229  0.2713
  214MOL0     O29425   6.522   4.991   7.957  0.5980  0.0771  0.7670
  214MOL0     C29426   6.623   4.996   7.873 -0.6127 -0.0605 -0.2483
  214MOL0     C29427   6.697   5.104   7.808 -0.0945 -0.5989 -1.0031
  214MOL0     C29428   6.790   5.075   7.710 -1.1579  0.3886  0.7117
  214MOL0     C29429   6.836   4.940   7.697 -1.2357  0.2900  0.7483
  214MOL0     O29430   6.933   4.904   7.610 -0.7402  0.7065 -0.0395
  214MOL0     C29431   7.017   5.003   7.556  0.5910 -0.9052 -0.1538
  214MOL0     C29432   7.155   4.953   7.503 -0.1906  0.5544  1.2675
  214MOL0     C29433   7.236   4.887   7.611 -0.5131  0.5150  0.2408
  214MOL0     C29434   7.348   4.790   7.569 -0.0889 -0.3890  0.7725
  214MOL0     C29435   7.442   4.746   7.684 -0.3226 -0.4996 -0.2131
  214MOL0     C29436   7.597   4.737   7.634 -0.1446 -0.5467 -0.3191
  214MOL0     C29437   7.691   4.682   7.747 -0.6647 -0.1037 -0.3456
  214MOL0     C29438   7.816   4.618   7.690  0.2471  0.3979  1.0555
  214MOL0    Cl29439   7.922   4.730   7.597  0.1634  0.1987 -0.4224
  214MOL0     C29440   6.774   4.841   7.768 -0.9664 -0.8852  0.0934
  214MOL0     C29441   6.667   4.867   7.844  0.1890 -0.0355 -0.1704
  214MOL0     O29442   6.422   5.201   7.889 -0.5989  0.0129 -0.1221
  214MOL0     C29443   6.409   5.034   8.202 -0.0844 -0.8340  0.0460
  214MOL0     C29444   6.330   5.034   8.322 -0.2928  0.6251  0.1115
  214MOL0     N29445   5.588   5.097   8.602 -0.9098 -0.0918 -0.0742
  214MOL0     N29446   5.549   5.099   8.479  0.6498  0.5840 -1.0116
  214MOL0     C29447   4.686   5.288   7.644 -1.0790  0.2978  0.4008
  214MOL0     C29448   4.571   5.305   7.559  0.3870  0.4906  0.3532
  214MOL0     C29449   4.269   5.126   7.233 -1.2277 -0.2277 -0.0731
  214MOL0     C29450   4.297   5.155   7.099  0.4063  0.2838  1.1854
  214MOL0     C29451   4.187   5.166   7.006 -0.1294 -0.3059  1.4014
  214MOL0     C29452   4.057   5.150   7.042  0.1699 -0.1310  0.6805
  214MOL0     O29453   3.957   5.160   6.952  0.6571 -0.4445 -0.3562
  214MOL0     C29454   3.903   5.029   6.927 -0.4267 -0.2296  0.2209
  214MOL0     C29455   3.933   5.003   6.779  0.7587 -0.3199 -0.2390
  214MOL0     C29456   3.836   4.897   6.740 -0.4513  0.2626 -0.0824
  214MOL0     C29457   3.808   4.894   6.595 -0.1403  0.3681  0.1871
  214MOL0     C29458   3.692   4.977   6.569  0.4349  0.4229  0.8018
  214MOL0     C29459   3.603   5.064   6.555 -0.6082 -0.1720  0.3802
  214MOL0     C29460   4.033   5.105   7.178  0.5053 -1.0392  0.8679
  214MOL0     C29461   4.135   5.102   7.275  0.0630 -1.1218 -0.5196
  214MOL0     C29462   4.093   5.079   7.421 -0.9208 -0.1608 -0.5198
  214MOL0     H29463   4.671   5.109   7.297 -1.2681  1.2795 -1.2744
  214MOL0     H29464   4.882   5.094   7.445  0.6090 -3.0593  5.3279
  214MOL0     H29465   4.907   5.035   7.761 -0.2254  0.9357 -0.9361
  214MOL0     H29466   4.815   5.149   7.855  1.3209  2.3963  1.4382
  214MOL0     H29467   5.070   5.268   7.859  0.5159  1.2556  5.1526
  214MOL0     H29468   4.993   5.186   7.995  0.6651 -0.6575  0.3492
  214MOL0     H29469   5.096   4.976   7.940  1.1531 -1.9326 -2.0872
  214MOL0     H29470   5.149   5.038   7.785  2.1823  1.1007 -0.3222
  214MOL0     H29471   5.303   5.203   7.917 -0.7137  1.9093  0.0274
  214MOL0     H29472   5.250   5.143   8.075 -0.2571  0.5322 -0.1181
  214MOL0     H29473   5.381   4.946   7.886  0.0330  0.1670 -0.7428
  214MOL0     H29474   5.333   4.931   8.053 -2.0322  1.7445  0.0121
  214MOL0     H29475   5.578   4.975   8.027  0.0873 -0.1864 -2.3173
  214MOL0     H29476   5.541   5.145   7.983  0.8889  1.7223  5.3385
  214MOL0     H29477   5.442   5.020   8.246 -0.7610  0.4070  0.4852
  214MOL0     H29478   5.466   5.187   8.195 -0.8370 -0.2884 -1.1489
  214MOL0     H29479   5.696   4.986   8.227  1.5335  0.0472 -0.3022
  214MOL0     H29480   5.702   5.153   8.194  0.6020  2.1879  3.0732
  214MOL0     H29481   5.870   5.125   8.420  0.1781 -2.9410  0.2904
  214MOL0     H29482   5.754   5.077   8.802  1.4565 -0.9344  0.1418
  214MOL0     H29483   5.845   5.212   8.727 -0.7655 -0.2366 -0.2889
  214MOL0     H29484   5.963   4.982   8.803  0.6997  3.3549  1.7445
  214MOL0     H29485   5.922   4.938   8.637 -1.9955  1.3945 -2.6974
  214MOL0     H29486   6.048   5.203   8.646 -0.1797 -0.3054 -2.3768
  214MOL0     H29487   6.142   5.106   8.757  1.1372 -2.1781 -1.4393
  214MOL0     H29488   6.269   5.086   8.571 -0.9941  0.9650  3.0072
  214MOL0     H29489   6.201   4.947   8.608  2.8593  1.0232 -0.3991
  214MOL0     H29490   6.037   5.175   8.214  0.5964  1.1890 -2.8320
  214MOL0     H29491   6.051   5.252   7.991 -0.2443  1.2669  0.4640
  214MOL0     H29492   6.170   5.193   7.874 -0.2161  3.3652 -0.5945
  214MOL0     H29493   6.206   5.336   7.973 -0.7348  0.5147  1.3875
  214MOL0     H29494   6.669   5.209   7.814 -2.3200 -1.1081 -1.5776
  214MOL0     H29495   6.838   5.158   7.661 -1.8854  0.6801  0.4844
  214MOL0     H29496   6.974   5.049   7.467  0.3405 -2.1293 -0.6794
  214MOL0     H29497   7.030   5.087   7.625  1.4376 -1.3421  0.2301
  214MOL0     H29498   7.132   4.873   7.431  0.5673  3.0666 -1.9916
  214MOL0     H29499   7.218   5.025   7.451 -2.6936  1.4258 -0.8103
  214MOL0     H29500   7.162   4.829   7.667 -0.6252 -1.4327 -1.7363
  214MOL0     H29501   7.288   4.960   7.673  2.3820  0.3974 -1.8518
  214MOL0     H29502   7.407   4.842   7.493 -2.0811  0.6196 -0.1741
  214MOL0     H29503   7.296   4.704   7.526 -0.5002  1.1802 -2.1831
  214MOL0     H29504   7.434   4.815   7.768  1.5909 -1.9946  1.2873
  214MOL0     H29505   7.402   4.648   7.713  1.0325 -1.1228 -0.4023
  214MOL0     H29506   7.617   4.843   7.622 -1.0825 -0.3166  0.0864
  214MOL0     H29507   7.606   4.694   7.533 -0.2442 -1.9222  0.2254
  214MOL0     H29508   7.634   4.627   7.823 -1.8611  1.1238 -0.3158
  214MOL0     H29509   7.731   4.765   7.805 -1.7065 -2.0800  3.5119
  214MOL0     H29510   7.783   4.532   7.630 -2.7432  2.9964 -1.3873
  214MOL0     H29511   7.864   4.566   7.774 -1.3606  0.3156  1.9733
  214MOL0     H29512   6.829   4.749   7.748 -0.0960 -0.3233 -0.1904
  214MOL0     H29513   6.632   4.783   7.904  2.8522  0.0143  1.6320
  214MOL0     H29514   6.507   4.991   8.190  1.0358  1.9244 -2.0023
  214MOL0     H29515   6.358   4.972   8.407 -0.8617  1.3350  0.8372
  214MOL0     H29516   4.697   5.349   7.733  0.1454  2.9579 -1.4125
  214MOL0     H29517   4.486   5.364   7.591 -1.6597 -1.6223 -0.8340
  214MOL0     H29518   4.399   5.160   7.061  1.6695  1.1182  4.3429
  214MOL0     H29519   4.203   5.208   6.908 -0.7148 -0.7670  1.0974
  214MOL0     H29520   3.948   4.946   6.982  0.2647 -0.2409 -0.3488
  214MOL0     H29521   3.795   5.031   6.945 -0.6524  0.2333 -1.0682
  214MOL0     H29522   4.038   4.979   6.764  0.7116 -0.4930 -0.3022
  214MOL0     H29523   3.929   5.094   6.719  2.9785  1.3165  1.9387
  214MOL0     H29524   3.889   4.807   6.772  0.9339  0.8988 -0.4868
  214MOL0     H29525   3.745   4.916   6.797  0.9385  0.4035  2.2261
  214MOL0     H29526   3.801   4.793   6.553 -0.0978  0.4212  0.0503
  214MOL0     H29527   3.893   4.944   6.546  0.5611  0.7441  1.7043
  214MOL0     H29528   3.516   5.126   6.551 -1.4586 -0.9671  3.3879
  214MOL0     H29529   3.934   5.093   7.220 -1.0316  1.0190 -1.8036
  214MOL0     H29530   4.115   4.974   7.443 -0.2075 -0.2781 -1.7395
  214MOL0     H29531   4.162   5.129   7.491  0.8127 -0.5930 -1.8565
  214MOL0     H29532   3.993   5.113   7.450  0.6686  2.7482  2.2212
  215MOL0     O29533   7.725   4.026   0.404 -0.1282 -0.2641 -0.6251
  215MOL0     C29534   7.734   3.996   0.520 -0.0199  1.0960  0.0482
  215MOL0     O29535   7.710   3.869   0.575 -0.2293  0.0822  0.0117
  215MOL0     C29536   7.711   3.762   0.483  0.4822  0.4173 -0.7880
  215MOL0     C29537   7.589   3.720   0.426 -0.1162  0.1340 -0.1048
  215MOL0     C29538   7.573   3.605   0.345 -0.3971  0.4030 -0.0895
  215MOL0     C29539   7.693   3.531   0.313 -0.2273 -0.2070  0.2737
  215MOL0     O29540   7.673   3.413   0.233  0.3397 -1.0076 -0.5503
  215MOL0     C29541   7.790   3.363   0.172 -0.4216 -0.0016 -0.2326
  215MOL0     C29542   7.752   3.226   0.104  0.9787  0.7852 -0.9806
  215MOL0     C29543   7.662   3.121   0.192 -0.2774  0.4074  0.2992
  215MOL0     C29544   7.726   3.084   0.331 -0.2660 -0.0866  0.0900
  215MOL0     C29545   7.875   3.028   0.334 -0.1922 -0.2798 -0.7193
  215MOL0     C29546   7.886   2.895   0.273 -0.7670  0.3905  0.5587
  215MOL0     C29547   7.819   2.775   0.343 -1.1198 -0.7543  0.1236
  215MOL0     C29548   7.685   2.741   0.283  1.0644  1.0288 -0.4993
  215MOL0     N29549   7.633   2.601   0.319 -0.3368  0.1694 -0.2729
  215MOL0     C29550   7.652   2.486   0.240 -0.3887  0.6011  0.1546
  215MOL0     C29551   7.593   2.385   0.314  0.4111  0.9681  0.1368
  215MOL0     C29552   7.601   2.234   0.299 -0.4474  0.5473  0.2738
  215MOL0     C29553   7.708   2.165   0.401  0.1243  0.0105  0.4932
  215MOL0     C29554   7.718   2.018   0.358 -0.2903  0.0421 -1.1284
  215MOL0     C29555   7.829   1.948   0.441  0.1665  0.7054 -0.6223
  215MOL0     O29556   7.964   1.985   0.427 -0.7013 -0.7943  0.6628
  215MOL0     C29557   8.050   1.890   0.465 -0.0906  0.9312 -0.5817
  215MOL0     C29558   8.038   1.819   0.582 -0.2806 -0.1226  0.0239
  215MOL0     C29559   8.129   1.715   0.622  1.0263  0.1525 -0.2027
  215MOL0     C29560   8.114   1.638   0.753 -0.3967 -1.2922 -0.1929
  215MOL0     C29561   8.245   1.698   0.537 -0.5765  0.0454 -1.3218
  215MOL0     C29562   8.357   1.595   0.559  0.6429 -0.3102  0.0030
  215MOL0     O29563   8.460   1.610   0.471  0.4194  0.1917 -0.3586
  215MOL0     C29564   8.581   1.548   0.474 -0.1320 -0.2831 -0.1772
  215MOL0     C29565   8.639   1.506   0.355 -0.2186  0.8231 -0.1621
  215MOL0     C29566   8.758   1.430   0.358  1.1757 -0.4467  0.4164
  215MOL0     C29567   8.816   1.394   0.477  1.0218  1.2914 -0.1083
  215MOL0     O29568   8.921   1.308   0.490  0.5936  0.3159  1.2673
  215MOL0     C29569   9.009   1.298   0.375  0.3161  0.4193 -0.0660
  215MOL0     C29570   9.093   1.430   0.347  1.3004  0.0928  0.0380
  215MOL0     C29571   9.170   1.472   0.479 -0.4704  0.3324 -0.0090
  215MOL0     C29572   9.284   1.573   0.444  0.4742  0.1689  0.8448
  215MOL0     C29573   9.386   1.533   0.343 -0.0307 -0.6987  0.1945
  215MOL0     C29574   9.450   1.392   0.355 -0.2008 -0.8131  0.9175
  215MOL0     C29575   9.566   1.386   0.253 -0.3660  0.1451 -0.3281
  215MOL0     C29576   9.644   1.246   0.271 -0.6142  0.5724  0.0804
  215MOL0    Cl29577   9.540   1.115   0.207  0.5556 -0.7044 -0.2602
  215MOL0     C29578   8.744   1.419   0.595 -0.1089 -0.0405  0.2660
  215MOL0     C29579   8.632   1.493   0.596  0.8820 -0.3400  0.8793
  215MOL0     O29580   8.353   1.514   0.645  0.4121 -0.0822 -0.3044
  215MOL0     C29581   8.250   1.770   0.413 -0.0634  0.1772  0.7648
  215MOL0     C29582   8.160   1.873   0.388  0.1600 -0.3954  1.0056
  215MOL0     N29583   7.551   2.431   0.435  0.0702  0.0564  0.1645
  215MOL0     N29584   7.583   2.561   0.442 -0.1116  0.1602 -0.4122
  215MOL0     C29585   7.816   3.583   0.360 -0.8917 -0.9420 -0.3355
  215MOL0     C29586   7.826   3.693   0.448 -0.2136  0.1139 -0.3169
  215MOL0     C29587   7.766   4.105   0.612 -0.1066  0.0769  0.3670
  215MOL0     C29588   7.718   4.238   0.586 -0.9338 -0.3048  1.5002
  215MOL0     C29589   7.741   4.347   0.670 -0.2784 -0.4307 -0.7702
  215MOL0     C29590   7.819   4.322   0.786 -0.4555  0.3206 -1.1643
  215MOL0     O29591   7.843   4.416   0.878 -0.8783  0.2941  0.4339
  215MOL0     C29592   7.887   4.544   0.832  0.4081 -0.5098  0.7937
  215MOL0     C29593   7.823   4.654   0.933 -0.2054  0.5315  0.5484
  215MOL0     C29594   7.925   4.732   1.018 -0.2276  0.7961  1.3981
  215MOL0     C29595   8.016   4.825   0.932  0.3447  0.7359 -0.1424
  215MOL0     C29596   7.949   4.927   0.856  0.5857  0.7234 -0.1370
  215MOL0     C29597   7.895   5.000   0.778 -0.0547  0.1612 -0.3965
  215MOL0     C29598   7.852   4.200   0.816  0.3403  0.4693 -1.6304
  215MOL0     C29599   7.828   4.088   0.733 -0.0764  1.0879 -0.2487
  215MOL0     C29600   7.869   3.956   0.786  0.3816 -0.1127  0.7489
  215MOL0     H29601   7.509   3.792   0.443  2.4599  3.3886 -0.6053
  215MOL0     H29602   7.486   3.569   0.292  1.9319 -2.2049 -2.4649
  215MOL0     H29603   7.872   3.353   0.243  0.2189  4.2757 -0.0884
  215MOL0     H29604   7.811   3.434   0.091 -1.5983  2.7200  1.6972
  215MOL0     H29605   7.696   3.247   0.012 -1.1485 -1.6814 -0.3788
  215MOL0     H29606   7.843   3.168   0.084  0.4497 -1.2420  1.8885
  215MOL0     H29607   7.559   3.158   0.198  0.5570  3.0283 -0.5068
  215MOL0     H29608   7.663   3.034   0.126  0.2329 -0.9694  2.0298
  215MOL0     H29609   7.729   3.178   0.386  0.9827 -2.0594  3.7595
  215MOL0     H29610   7.662   3.016   0.388  1.2644  0.7502  3.0345
  215MOL0     H29611   7.902   3.012   0.439  0.4672 -0.8778 -0.9729
  215MOL0     H29612   7.939   3.105   0.290 -0.5249  2.7832  3.5161
  215MOL0     H29613   7.881   2.900   0.164  3.2398  0.3025  0.2128
  215MOL0     H29614   7.994   2.876   0.272 -0.5267  1.6652  0.4603
  215MOL0     H29615   7.825   2.782   0.452  0.4263 -3.1252  0.2437
  215MOL0     H29616   7.886   2.695   0.312 -1.1002  0.1005 -2.2471
  215MOL0     H29617   7.600   2.799   0.320 -0.5729 -2.1877  1.1796
  215MOL0     H29618   7.691   2.746   0.174 -2.4988 -2.4280 -1.0654
  215MOL0     H29619   7.695   2.494   0.141  0.1975 -2.0118  0.1300
  215MOL0     H29620   7.633   2.212   0.197 -1.0308  1.7464 -0.1788
  215MOL0     H29621   7.503   2.185   0.305  0.5456 -1.5107  0.7411
  215MOL0     H29622   7.803   2.211   0.373 -1.1760  1.8549 -1.1887
  215MOL0     H29623   7.687   2.172   0.508  1.1044 -0.6852  0.7409
  215MOL0     H29624   7.622   1.966   0.372 -0.2980 -0.1856 -1.9709
  215MOL0     H29625   7.747   2.009   0.253 -0.0886 -4.0644 -0.9007
  215MOL0     H29626   7.797   1.969   0.544  1.5035 -1.3082  0.2900
  215MOL0     H29627   7.819   1.839   0.436  1.5268  0.5083  0.4094
  215MOL0     H29628   7.960   1.844   0.652 -0.9211  1.5074 -1.1978
  215MOL0     H29629   8.082   1.534   0.751 -0.9820 -1.1566  1.3619
  215MOL0     H29630   8.045   1.698   0.813  1.8343  0.5735  0.6667
  215MOL0     H29631   8.212   1.635   0.800 -1.4245 -1.4695  2.0557
  215MOL0     H29632   8.593   1.528   0.259 -1.0572  1.1519  0.3075
  215MOL0     H29633   8.805   1.398   0.265  0.6450  2.0564 -0.8031
  215MOL0     H29634   9.095   1.233   0.395 -0.7491 -0.5662  1.4545
  215MOL0     H29635   8.956   1.259   0.287  1.4201 -0.1761 -0.4937
  215MOL0     H29636   9.158   1.405   0.263  0.2056 -4.7814  0.3790
  215MOL0     H29637   9.032   1.514   0.312  0.0141 -1.9279 -3.0283
  215MOL0     H29638   9.214   1.384   0.527 -2.5608 -0.5578  0.3866
  215MOL0     H29639   9.090   1.507   0.544 -2.9573 -2.6858 -1.1830
  215MOL0     H29640   9.337   1.593   0.538  0.0106  1.3834  0.8708
  215MOL0     H29641   9.240   1.671   0.421 -1.4541 -0.7143  0.6660
  215MOL0     H29642   9.344   1.545   0.242  1.1790 -1.5921 -0.4344
  215MOL0     H29643   9.460   1.614   0.349 -0.8847  0.0265  1.2605
  215MOL0     H29644   9.383   1.308   0.336 -1.8597  0.6964 -0.1982
  215MOL0     H29645   9.484   1.391   0.459 -1.7352 -0.9620  1.4455
  215MOL0     H29646   9.634   1.471   0.267 -1.2534  0.5130  2.2891
  215MOL0     H29647   9.529   1.398   0.151  0.5872  1.9212 -0.5101
  215MOL0     H29648   9.682   1.231   0.372  1.0975 -2.9186 -0.8983
  215MOL0     H29649   9.735   1.247   0.210 -0.0419  3.6100  0.8593
  215MOL0     H29650   8.790   1.397   0.691 -1.5333  0.0293  0.9969
  215MOL0     H29651   8.580   1.523   0.686  0.3876  0.6618  0.2705
  215MOL0     H29652   8.331   1.764   0.341 -2.1741  2.3412 -2.0178
  215MOL0     H29653   8.166   1.933   0.298  0.4414 -2.1598 -0.2096
  215MOL0     H29654   7.915   3.541   0.346 -0.3762 -0.4869  1.6448
  215MOL0     H29655   7.916   3.732   0.494 -1.6042  2.1474  0.8505
  215MOL0     H29656   7.649   4.243   0.502 -0.7198  1.4329  1.3873
  215MOL0     H29657   7.698   4.443   0.643  0.7653  0.6822  1.3171
  215MOL0     H29658   7.993   4.555   0.811  0.2299 -0.7940 -0.2754
  215MOL0     H29659   7.848   4.576   0.736  3.3457 -1.2680 -0.7695
  215MOL0     H29660   7.758   4.604   1.005  0.7247  0.9061  1.6909
  215MOL0     H29661   7.756   4.718   0.875 -0.7222 -1.0568 -0.6733
  215MOL0     H29662   7.882   4.780   1.107  2.3979  3.7990  1.2159
  215MOL0     H29663   7.989   4.654   1.061 -1.8203 -1.6223 -0.3579
  215MOL0     H29664   8.066   4.752   0.867 -4.3796 -2.5558 -0.5793
  215MOL0     H29665   8.093   4.876   0.992 -0.1356  1.2461  0.0437
  215MOL0     H29666   7.865   5.064   0.698  2.3472  1.5927 -0.2752
  215MOL0     H29667   7.884   4.190   0.919 -1.3271  1.1113 -1.0072
  215MOL0     H29668   7.784   3.889   0.803 -0.2765  0.3117 -0.7805
  215MOL0     H29669   7.937   3.896   0.725 -0.8787 -0.1967 -0.6319
  215MOL0     H29670   7.940   3.968   0.868  2.1063  0.9892 -0.8314
  216MOL0     O29671   2.584   1.246   2.686  0.4309 -0.5841  0.5409
  216MOL0     C29672   2.621   1.137   2.737 -0.3184  0.5823  0.5673
  216MOL0     O29673   2.620   1.107   2.871 -0.1224  0.9989 -0.1228
  216MOL0     C29674   2.589   1.218   2.950 -0.7368 -0.4767 -0.9904
  216MOL0     C29675   2.456   1.247   2.981 -0.2672  0.0579 -0.3790
  216MOL0     C29676   2.433   1.371   3.049  0.0888 -0.4967  0.2331
  216MOL0     C29677   2.550   1.452   3.075  0.3379 -0.6965  0.2103
  216MOL0     O29678   2.537   1.583   3.124 -0.6328 -0.0050 -0.0514
  216MOL0     C29679   2.415   1.638   3.181 -0.3986  0.2631  0.0607
  216MOL0     C29680   2.441   1.789   3.202 -0.9934  0.6776 -0.6633
  216MOL0     C29681   2.582   1.818   3.264 -0.7408 -0.5894 -0.4848
  216MOL0     C29682   2.590   1.963   3.306 -0.9671 -0.5312  0.8521
  216MOL0     C29683   2.736   2.002   3.327 -0.3320 -0.5404 -1.2485
  216MOL0     C29684   2.735   2.152   3.382 -0.2702  0.5729 -0.2547
  216MOL0     C29685   2.877   2.205   3.421  0.3207 -0.0074 -0.2595
  216MOL0     C29686   2.862   2.341   3.474 -0.1016 -0.0667  0.5359
  216MOL0     N29687   2.991   2.411   3.487  0.1443 -0.0500  0.2311
  216MOL0     C29688   3.019   2.466   3.606 -1.1127  0.4025  0.0629
  216MOL0     C29689   3.120   2.557   3.577  0.9454  0.8410 -0.1963
  216MOL0     C29690   3.204   2.639   3.676  0.8896  0.4892 -0.0594
  216MOL0     C29691   3.327   2.707   3.607 -0.5822 -0.1754 -0.2750
  216MOL0     C29692   3.425   2.610   3.522 -0.3051  0.0870  0.1600
  216MOL0     C29693   3.521   2.541   3.612  0.7822 -0.2846 -0.2911
  216MOL0     O29694   3.612   2.453   3.538 -0.2723  0.7831  0.3807
  216MOL0     C29695   3.560   2.336   3.482  0.3510  0.2162 -0.8247
  216MOL0     C29696   3.630   2.265   3.395  0.0994 -0.4964 -0.4906
  216MOL0     C29697   3.593   2.135   3.353 -1.0089 -0.0731 -0.4224
  216MOL0     C29698   3.697   2.062   3.270  0.4845 -0.4645 -0.7932
  216MOL0     C29699   3.466   2.085   3.389  0.2837 -1.0123 -0.5705
  216MOL0     C29700   3.399   1.958   3.342  0.5053  0.8858 -0.0815
  216MOL0     O29701   3.276   1.935   3.384 -0.0299  0.2968  0.4814
  216MOL0     C29702   3.204   1.816   3.357 -0.3653  0.0338  0.3609
  216MOL0     C29703   3.266   1.697   3.308 -0.6695 -0.2352  0.2934
  216MOL0     C29704   3.183   1.581   3.283 -1.4191 -0.0903 -0.6788
  216MOL0     C29705   3.044   1.586   3.293  0.7202  0.1246  0.1680
  216MOL0     O29706   2.958   1.484   3.248 -0.6476  0.5234  0.2245
  216MOL0     C29707   2.986   1.350   3.301  0.4395  0.1340 -0.1133
  216MOL0     C29708   2.912   1.330   3.436 -0.0066 -0.2839 -0.2158
  216MOL0     C29709   2.892   1.177   3.459  0.3603  0.6270 -0.2290
  216MOL0     C29710   2.747   1.168   3.510 -0.4147 -0.6007 -0.0048
  216MOL0     C29711   2.701   1.038   3.569  0.9318 -0.7927 -0.5453
  216MOL0     C29712   2.806   0.983   3.674 -0.5354 -0.2459 -0.2145
  216MOL0     C29713   2.754   0.861   3.748 -0.3084  0.5466 -0.0450
  216MOL0     C29714   2.865   0.757   3.785  0.8453  0.6453 -0.1943
  216MOL0    Cl29715   2.791   0.610   3.833 -0.3133  0.0148 -0.0072
  216MOL0     C29716   2.987   1.711   3.326 -0.6974  0.0870  0.4515
  216MOL0     C29717   3.067   1.824   3.370 -0.3524 -0.1217 -0.9987
  216MOL0     O29718   3.467   1.875   3.282 -0.2083  0.2639  0.2042
  216MOL0     C29719   3.389   2.166   3.478  0.3636  0.3968  0.3293
  216MOL0     C29720   3.434   2.292   3.528  0.2060  0.1536 -0.2174
  216MOL0     N29721   3.106   2.586   3.445 -0.2650  0.1066  0.3062
  216MOL0     N29722   3.032   2.501   3.393  0.4519  0.0349  0.1432
  216MOL0     C29723   2.677   1.408   3.072 -0.1135 -0.0689  0.1964
  216MOL0     C29724   2.698   1.292   2.999  0.4394 -0.3118  0.7467
  216MOL0     C29725   2.656   1.027   2.639 -0.3285  0.5407 -0.2520
  216MOL0     C29726   2.671   0.896   2.692  0.3298  0.1998 -0.4669
  216MOL0     C29727   2.689   0.784   2.607 -0.3354  0.6348 -0.3994
  216MOL0     C29728   2.707   0.799   2.467  0.6096 -0.5084 -0.3430
  216MOL0     O29729   2.704   0.688   2.386  0.7454  0.1759  0.5766
  216MOL0     C29730   2.701   0.700   2.240  0.3251  0.3956  0.0162
  216MOL0     C29731   2.553   0.730   2.190 -0.5472  0.5990 -0.5183
  216MOL0     C29732   2.492   0.582   2.165  0.2962 -0.6792  0.4931
  216MOL0     C29733   2.459   0.516   2.296  0.3318  0.0592  0.0573
  216MOL0     C29734   2.351   0.573   2.376  0.3816 -0.6537  0.2879
  216MOL0     C29735   2.259   0.616   2.449 -0.4417 -0.3777 -0.2806
  216MOL0     C29736   2.701   0.934   2.418 -0.4845 -0.0853 -0.1544
  216MOL0     C29737   2.669   1.041   2.496  0.1169  0.0931 -1.2086
  216MOL0     C29738   2.676   1.183   2.430  0.0311  0.9611 -0.5690
  216MOL0     H29739   2.378   1.187   2.935 -1.8782  1.3301  0.5642
  216MOL0     H29740   2.334   1.409   3.071  0.9081  2.0198 -0.0853
  216MOL0     H29741   2.395   1.583   3.274 -1.3124  0.3051 -0.1050
  216MOL0     H29742   2.334   1.622   3.110 -0.0672 -0.8572 -0.0949
  216MOL0     H29743   2.443   1.838   3.105 -1.3798 -1.3573 -1.7554
  216MOL0     H29744   2.370   1.833   3.273  0.7837  3.0703 -0.2338
  216MOL0     H29745   2.598   1.767   3.360 -0.2229  1.2801  0.4741
  216MOL0     H29746   2.662   1.786   3.196 -0.0276 -0.6281  0.3566
  216MOL0     H29747   2.557   2.027   3.224 -0.0364  0.2217  1.0554
  216MOL0     H29748   2.515   1.977   3.384 -1.5801 -0.3383  0.2428
  216MOL0     H29749   2.788   1.994   3.232  2.4954 -0.4939  0.1883
  216MOL0     H29750   2.784   1.934   3.398 -2.6679 -0.4948  0.5139
  216MOL0     H29751   2.688   2.228   3.320 -0.7153  1.7937  1.5080
  216MOL0     H29752   2.675   2.146   3.474  1.7413  1.6423  1.2042
  216MOL0     H29753   2.938   2.194   3.330 -0.4234 -3.5309 -0.4800
  216MOL0     H29754   2.911   2.141   3.503  0.2355 -1.3679 -1.2443
  216MOL0     H29755   2.806   2.396   3.399  0.9043 -0.3666 -0.4637
  216MOL0     H29756   2.806   2.335   3.568 -1.7148 -0.3576 -0.4110
  216MOL0     H29757   3.000   2.438   3.709 -2.2838 -2.6493 -0.8481
  216MOL0     H29758   3.237   2.569   3.753  0.5348  3.5890  3.1855
  216MOL0     H29759   3.155   2.720   3.731  0.3579  0.0322  0.1357
  216MOL0     H29760   3.299   2.789   3.539  2.6842  0.5217 -0.9425
  216MOL0     H29761   3.385   2.760   3.682  2.4870  0.5404 -2.9257
  216MOL0     H29762   3.358   2.544   3.468 -3.7442  0.7396  3.2497
  216MOL0     H29763   3.487   2.676   3.459  3.7360 -0.0716  3.4938
  216MOL0     H29764   3.578   2.618   3.665 -2.6142  3.4822 -1.5539
  216MOL0     H29765   3.465   2.489   3.691  0.4398  0.8644  0.2446
  216MOL0     H29766   3.733   2.294   3.374 -0.3840 -0.0976 -2.4515
  216MOL0     H29767   3.691   1.954   3.287  0.8224 -0.4946 -0.8770
  216MOL0     H29768   3.801   2.085   3.294 -0.0893  2.0364 -0.5040
  216MOL0     H29769   3.684   2.089   3.165  3.0610  4.9640 -0.0138
  216MOL0     H29770   3.374   1.688   3.312 -0.3530 -0.3773 -4.0440
  216MOL0     H29771   3.248   1.510   3.232  1.3288  3.4736 -2.5478
  216MOL0     H29772   2.935   1.282   3.232  1.8545 -3.1797  1.8946
  216MOL0     H29773   3.092   1.327   3.294  0.9906  2.4973 -0.6012
  216MOL0     H29774   2.968   1.372   3.520  0.2513 -0.9472 -0.0455
  216MOL0     H29775   2.818   1.385   3.427 -1.5262 -2.5084  1.0261
  216MOL0     H29776   2.958   1.146   3.540 -0.4225  0.9961  0.5633
  216MOL0     H29777   2.916   1.120   3.369 -0.3221 -1.3859  0.8079
  216MOL0     H29778   2.674   1.197   3.435 -0.2541 -2.1937 -0.8368
  216MOL0     H29779   2.735   1.239   3.592  4.2371  0.7653 -0.2336
  216MOL0     H29780   2.609   1.054   3.625  3.0144  3.0112  2.3106
  216MOL0     H29781   2.684   0.962   3.492 -1.3755 -0.3120 -0.5612
  216MOL0     H29782   2.827   1.066   3.742 -0.2968  0.5451 -1.2101
  216MOL0     H29783   2.901   0.952   3.630 -2.1417 -1.0389 -3.4788
  216MOL0     H29784   2.676   0.819   3.684 -1.7163 -0.6454  2.2863
  216MOL0     H29785   2.710   0.890   3.844  0.0852 -0.0141  0.3136
  216MOL0     H29786   2.937   0.792   3.860  0.0830  3.2782 -0.5875
  216MOL0     H29787   2.927   0.730   3.699  0.6211  1.6271 -0.6702
  216MOL0     H29788   2.879   1.716   3.325 -0.6647  1.5386  1.0113
  216MOL0     H29789   3.023   1.916   3.406  2.6425  0.3591  1.9108
  216MOL0     H29790   3.283   2.149   3.495 -0.4834  3.7831 -0.7531
  216MOL0     H29791   3.363   2.348   3.589  0.8108  1.8283 -0.9847
  216MOL0     H29792   2.761   1.472   3.097  0.2580  0.9137 -3.1391
  216MOL0     H29793   2.799   1.254   2.988 -0.0464 -1.8534  1.3981
  216MOL0     H29794   2.666   0.875   2.798  1.1905 -2.5989 -0.9007
  216MOL0     H29795   2.683   0.683   2.647  1.1832  0.5592 -0.3151
  216MOL0     H29796   2.776   0.771   2.203  0.7300  0.5205  1.0603
  216MOL0     H29797   2.720   0.603   2.194  0.4250  0.9377 -1.1479
  216MOL0     H29798   2.561   0.778   2.092 -0.8903  0.9287 -0.3890
  216MOL0     H29799   2.496   0.789   2.262 -0.2389  0.4937 -0.1873
  216MOL0     H29800   2.394   0.586   2.115 -0.3588 -1.0994  1.6946
  216MOL0     H29801   2.557   0.520   2.103 -1.5679 -2.7584  0.5179
  216MOL0     H29802   2.550   0.492   2.352 -0.3051 -2.1578  0.2322
  216MOL0     H29803   2.430   0.418   2.257 -0.3789 -1.6899  4.4361
  216MOL0     H29804   2.174   0.648   2.506 -1.3327  0.6353 -2.0779
  216MOL0     H29805   2.725   0.961   2.316 -0.2139  0.4651  0.0492
  216MOL0     H29806   2.735   1.186   2.338 -1.7767 -4.5007 -2.2458
  216MOL0     H29807   2.576   1.225   2.414 -0.1351  0.3348 -1.2091
  216MOL0     H29808   2.724   1.252   2.501  1.9196  0.8227 -1.6379
  217MOL0     O29809   7.157   2.297   1.166  0.1611  0.2932  0.0377
  217MOL0     C29810   7.229   2.203   1.130  0.3775  0.2067  0.5844
  217MOL0     O29811   7.335   2.160   1.203  0.7898  0.4158  0.3199
  217MOL0     C29812   7.326   2.175   1.336 -0.7627  0.7509 -0.7926
  217MOL0     C29813   7.418   2.263   1.404 -0.1633  0.2899 -0.5654
  217MOL0     C29814   7.408   2.292   1.541  0.7083  0.3525  0.5543
  217MOL0     C29815   7.308   2.227   1.617 -0.9617  0.1781 -0.8767
  217MOL0     O29816   7.301   2.250   1.751 -0.2922  0.4815 -0.5880
  217MOL0     C29817   7.225   2.172   1.846  0.2893 -0.3590  1.0109
  217MOL0     C29818   7.262   2.235   1.980 -0.7777 -0.0992 -0.0864
  217MOL0     C29819   7.165   2.203   2.097 -0.5322 -0.6856  0.2914
  217MOL0     C29820   7.145   2.050   2.119  0.8154 -0.4940  0.8429
  217MOL0     C29821   7.062   2.030   2.241 -0.1100  0.3826 -0.7326
  217MOL0     C29822   7.148   2.033   2.371 -0.3681  0.3083  0.4972
  217MOL0     C29823   7.097   1.944   2.494 -0.5931 -0.0709 -0.2111
  217MOL0     C29824   7.209   1.929   2.599 -0.6244  0.3226 -1.6921
  217MOL0     N29825   7.289   1.809   2.572  0.1987  0.5719 -0.0243
  217MOL0     C29826   7.368   1.802   2.456  0.5118  0.8127 -0.9471
  217MOL0     C29827   7.396   1.673   2.448 -0.9830  0.9518 -0.0805
  217MOL0     C29828   7.455   1.607   2.320  0.3055  0.6097  0.4557
  217MOL0     C29829   7.358   1.563   2.204 -1.2054 -0.5547  0.0886
  217MOL0     C29830   7.275   1.686   2.145 -0.2484 -1.2156  0.2042
  217MOL0     C29831   7.188   1.626   2.039 -0.6204  0.0171 -0.2394
  217MOL0     O29832   7.066   1.578   2.091  0.0921  0.3132  0.1561
  217MOL0     C29833   6.963   1.666   2.123 -0.3238  0.4993 -0.3395
  217MOL0     C29834   6.906   1.756   2.030 -0.2657  0.1015 -0.1952
  217MOL0     C29835   6.791   1.831   2.063 -0.4089 -0.3425 -0.6990
  217MOL0     C29836   6.732   1.921   1.959  0.1484 -0.9141 -0.0046
  217MOL0     C29837   6.734   1.819   2.194  0.0277  0.4194 -1.4783
  217MOL0     C29838   6.607   1.888   2.241 -0.3972  0.2794 -0.1749
  217MOL0     O29839   6.579   1.871   2.375  0.1535 -0.5730  0.6202
  217MOL0     C29840   6.451   1.910   2.421 -0.1532 -0.4855  0.2194
  217MOL0     C29841   6.385   2.028   2.396  0.0178 -0.4006  0.3478
  217MOL0     C29842   6.265   2.055   2.457  0.1757 -0.8120  0.4077
  217MOL0     C29843   6.191   1.966   2.536 -0.5364 -0.4676  0.3688
  217MOL0     O29844   6.069   1.981   2.597 -0.2599 -0.5787 -0.3590
  217MOL0     C29845   5.972   2.089   2.558 -0.2070  0.1340  0.1604
  217MOL0     C29846   5.845   2.062   2.626  0.7317 -0.7346 -0.5699
  217MOL0     C29847   5.777   1.927   2.595 -0.2365  0.0761  0.4430
  217MOL0     C29848   5.665   1.895   2.697 -0.1447 -0.7764 -0.0145
  217MOL0     C29849   5.557   2.002   2.719 -0.5644 -0.3737  0.0974
  217MOL0     C29850   5.445   2.032   2.630 -0.0412  0.2189  1.0300
  217MOL0     C29851   5.317   2.079   2.700 -0.0504  0.2864 -0.6379
  217MOL0     C29852   5.221   2.146   2.602  0.6023 -0.0327  1.0892
  217MOL0    Cl29853   5.174   2.025   2.469 -0.1182  0.7133  0.4521
  217MOL0     C29854   6.258   1.847   2.556  0.2438  0.4504 -0.0628
  217MOL0     C29855   6.380   1.818   2.493 -0.4870 -0.2176 -0.1412
  217MOL0     O29856   6.558   1.972   2.177 -0.0812 -0.2203  0.3570
  217MOL0     C29857   6.793   1.734   2.282  0.0891  0.6057 -0.3986
  217MOL0     C29858   6.902   1.663   2.248 -0.5396 -0.7931 -0.0319
  217MOL0     N29859   7.355   1.604   2.557  0.0108 -0.9207 -0.3341
  217MOL0     N29860   7.283   1.686   2.627 -0.9518 -0.1254  0.3303
  217MOL0     C29861   7.228   2.138   1.555  1.6173  0.2274 -0.4007
  217MOL0     C29862   7.234   2.110   1.417  0.7134 -1.3770  0.2646
  217MOL0     C29863   7.207   2.166   0.989  0.4884  0.2007 -0.3625
  217MOL0     C29864   7.076   2.167   0.941 -0.8252  0.0691  0.6029
  217MOL0     C29865   7.044   2.119   0.816  0.2754  1.0003  0.1431
  217MOL0     C29866   7.144   2.085   0.728  0.1055  0.3896 -0.3475
  217MOL0     O29867   7.109   2.027   0.610 -0.0435  0.7841  0.3758
  217MOL0     C29868   7.183   2.058   0.492  0.2581 -0.2892  0.9636
  217MOL0     C29869   7.196   2.207   0.458  0.2679 -0.6755  0.4429
  217MOL0     C29870   7.050   2.272   0.454 -0.9871 -0.3329 -0.1849
  217MOL0     C29871   7.060   2.401   0.371 -0.3987 -1.1409  0.1087
  217MOL0     C29872   7.159   2.507   0.411  0.6034 -0.4963  0.3049
  217MOL0     C29873   7.244   2.598   0.416  0.5745 -0.1042 -0.2166
  217MOL0     C29874   7.279   2.092   0.777  0.7472  0.3484  0.5058
  217MOL0     C29875   7.310   2.147   0.902  0.6263  0.5705  1.0047
  217MOL0     C29876   7.453   2.193   0.932  1.2389 -0.1302 -0.5610
  217MOL0     H29877   7.503   2.309   1.354  2.3599 -0.8541  2.3030
  217MOL0     H29878   7.463   2.371   1.591  0.9468  0.6075 -0.0930
  217MOL0     H29879   7.253   2.066   1.847 -1.4649 -0.9874 -2.1401
  217MOL0     H29880   7.127   2.202   1.807  1.9086  3.2012 -0.7303
  217MOL0     H29881   7.353   2.188   2.018  0.4871  2.9546  0.9403
  217MOL0     H29882   7.259   2.344   1.975 -1.2823 -0.1397 -0.7993
  217MOL0     H29883   7.214   2.247   2.185 -0.2679 -2.0192  0.8413
  217MOL0     H29884   7.072   2.260   2.095 -0.7925 -1.0006  1.8875
  217MOL0     H29885   7.093   1.999   2.037  0.8405 -0.9495  1.1076
  217MOL0     H29886   7.240   1.995   2.126  2.3750  1.5391 -2.0367
  217MOL0     H29887   7.025   1.927   2.237 -0.5386  0.4028  1.5792
  217MOL0     H29888   6.967   2.083   2.253 -2.0459 -2.7961 -0.9351
  217MOL0     H29889   7.242   1.991   2.334  2.4468  2.8699  4.0367
  217MOL0     H29890   7.146   2.137   2.405 -3.1954  0.7964 -0.9213
  217MOL0     H29891   7.068   1.844   2.459  1.6640 -0.2403 -1.8205
  217MOL0     H29892   7.018   1.998   2.547 -0.9645 -0.2717 -0.5557
  217MOL0     H29893   7.276   2.015   2.602 -0.9910  0.5895  0.9795
  217MOL0     H29894   7.159   1.914   2.695  1.2939  0.4073 -0.6271
  217MOL0     H29895   7.391   1.870   2.375  3.1523 -2.0615 -2.8837
  217MOL0     H29896   7.509   1.515   2.345  2.5399  1.7982  0.1817
  217MOL0     H29897   7.526   1.677   2.276 -0.3057  1.6474  1.0621
  217MOL0     H29898   7.410   1.516   2.121 -1.7009 -4.9432  1.9946
  217MOL0     H29899   7.292   1.496   2.260 -1.6263  2.0867  3.0648
  217MOL0     H29900   7.207   1.740   2.212 -4.0064 -0.9822 -3.4026
  217MOL0     H29901   7.353   1.750   2.104 -2.3756  1.1380 -0.4072
  217MOL0     H29902   7.162   1.701   1.964 -3.7833 -1.3182 -0.6077
  217MOL0     H29903   7.251   1.556   1.984  3.2174  1.7333  1.5439
  217MOL0     H29904   6.946   1.746   1.930  3.8012 -1.8474  1.4255
  217MOL0     H29905   6.631   1.894   1.924  0.1870  0.1654 -1.0387
  217MOL0     H29906   6.787   1.922   1.864 -1.8466  4.2403 -1.4410
  217MOL0     H29907   6.728   2.023   1.998 -2.5466 -1.1525  0.6025
  217MOL0     H29908   6.436   2.097   2.329 -0.9814 -2.3085 -2.5543
  217MOL0     H29909   6.222   2.151   2.430  0.4773  0.2451  3.3159
  217MOL0     H29910   6.011   2.188   2.583 -0.7784 -0.0517  1.9168
  217MOL0     H29911   5.949   2.087   2.451 -1.1135  2.4688  0.2494
  217MOL0     H29912   5.858   2.066   2.735 -2.0706 -1.0332 -0.1378
  217MOL0     H29913   5.769   2.135   2.596  0.6282 -0.9947 -0.9314
  217MOL0     H29914   5.847   1.848   2.621  2.1586 -0.5720 -6.1134
  217MOL0     H29915   5.754   1.930   2.488 -1.3835  0.4049  0.6861
  217MOL0     H29916   5.708   1.881   2.796  0.4419  0.7978 -0.0215
  217MOL0     H29917   5.619   1.797   2.678 -4.3805  1.3993 -2.5711
  217MOL0     H29918   5.509   1.970   2.812  0.2789  0.9443  1.0275
  217MOL0     H29919   5.608   2.093   2.751  1.0893 -1.2631  0.0911
  217MOL0     H29920   5.421   1.932   2.592 -3.6116  0.2124  2.9636
  217MOL0     H29921   5.467   2.095   2.543 -0.9666  2.5581  2.4081
  217MOL0     H29922   5.339   2.149   2.781 -0.8483  1.8363 -1.6988
  217MOL0     H29923   5.267   1.995   2.749 -0.5427 -0.2741 -2.0313
  217MOL0     H29924   5.270   2.232   2.554 -2.3970  1.4386  0.4076
  217MOL0     H29925   5.127   2.167   2.655 -2.5448 -0.8528 -3.5651
  217MOL0     H29926   6.207   1.772   2.616  2.4506 -0.2996  0.9519
  217MOL0     H29927   6.422   1.719   2.501 -1.5934 -1.0618 -3.2580
  217MOL0     H29928   6.764   1.721   2.386 -0.9942  2.7361 -0.3763
  217MOL0     H29929   6.955   1.604   2.322  1.1100 -1.5159 -1.7219
  217MOL0     H29930   7.144   2.085   1.598  1.7034 -0.9246 -1.6153
  217MOL0     H29931   7.165   2.042   1.367 -0.8036  0.2301  0.0801
  217MOL0     H29932   6.989   2.176   1.005 -2.9431 -5.4082 -0.9598
  217MOL0     H29933   6.940   2.110   0.784  0.2794  1.0340  0.1206
  217MOL0     H29934   7.284   2.016   0.493  0.0036 -0.9069  1.7587
  217MOL0     H29935   7.119   2.022   0.411 -3.1932  1.0080  2.8865
  217MOL0     H29936   7.240   2.204   0.358  1.4747  0.6513  0.9141
  217MOL0     H29937   7.268   2.265   0.515 -0.8132  3.7295 -2.1637
  217MOL0     H29938   6.966   2.203   0.437  1.2716 -3.3346  0.0999
  217MOL0     H29939   7.037   2.311   0.555  1.0508 -3.6483  1.5139
  217MOL0     H29940   6.962   2.449   0.360  0.0221 -0.2016  0.3129
  217MOL0     H29941   7.084   2.359   0.272  1.1147 -4.5665  1.7717
  217MOL0     H29942   7.326   2.667   0.410 -1.0862  2.0067  0.3319
  217MOL0     H29943   7.363   2.064   0.714  0.2474 -0.9765  0.3882
  217MOL0     H29944   7.497   2.125   1.005 -0.8330 -2.1125 -1.0433
  217MOL0     H29945   7.519   2.186   0.845 -0.2794  1.4008 -1.9050
  217MOL0     H29946   7.458   2.295   0.973  3.0084 -0.3425 -0.1663
  218MOL0     O29947  11.318  11.260   9.115  0.6833 -0.4562  0.3393
  218MOL0     C29948  11.406  11.320   9.050  0.8126 -0.3404  0.2348
  218MOL0     O29949  11.418  11.461   9.057  0.8169  0.5279 -0.7068
  218MOL0     C29950  11.379  11.526   9.171 -0.8642 -1.4097  0.4471
  218MOL0     C29951  11.276  11.618   9.185  0.3158  1.0619 -0.0394
  218MOL0     C29952  11.244  11.693   9.299 -0.1682  0.2459  0.2914
  218MOL0     C29953  11.331  11.677   9.411  0.2697  0.4578 -0.2227
  218MOL0     O29954  11.318  11.763   9.519 -0.2795  0.0779  0.7561
  218MOL0     C29955  11.274  11.900   9.518  0.4197 -0.3930 -0.8656
  218MOL0     C29956  11.349  11.971   9.643 -0.0055 -0.1990 -0.4982
  218MOL0     C29957  11.337  11.907   9.783 -0.1488 -1.1800  0.8530
  218MOL0     C29958  11.416  11.784   9.800 -0.3785  0.3869 -0.5340
  218MOL0     C29959  11.487  11.755   9.938  0.1193 -0.4890  0.5187
  218MOL0     C29960  11.625  11.812   9.947 -1.5978  0.5256 -0.3496
  218MOL0     C29961  11.618  11.965   9.967  0.7576 -0.1615 -0.2622
  218MOL0     C29962  11.740  12.020  10.044 -0.2375 -0.0895 -0.2002
  218MOL0     N29963  11.860  11.955   9.988 -0.3645  1.0538  0.0622
  218MOL0     C29964  11.964  11.921  10.073  0.3530  0.1431  0.0341
  218MOL0     C29965  12.073  11.906   9.995 -0.8784  0.5980  0.1856
  218MOL0     C29966  12.211  11.875  10.038 -1.3968 -0.4662 -0.0589
  218MOL0     C29967  12.325  11.971   9.997  0.1128 -0.3028  0.4014
  218MOL0     C29968  12.471  11.934  10.034 -0.1952  0.0987 -0.0845
  218MOL0     C29969  12.543  12.060  10.064 -0.9692 -1.0191  0.3057
  218MOL0     O29970  12.500  12.129  10.181 -0.4185  0.1467  0.5142
  218MOL0     C29971  12.580  12.208  10.258  1.0900 -0.4250  0.1696
  218MOL0     C29972  12.533  12.261  10.372  0.6716 -0.2920 -0.0302
  218MOL0     C29973  12.609  12.332  10.469  0.2911 -0.0472 -0.0548
  218MOL0     C29974  12.537  12.390  10.592 -0.2617  0.0419 -0.4993
  218MOL0     C29975  12.744  12.362  10.439 -0.7713 -0.5247 -0.1051
  218MOL0     C29976  12.831  12.448  10.516  0.1372  0.2005 -1.5431
  218MOL0     O29977  12.842  12.412  10.647  0.4968  0.0545 -0.4146
  218MOL0     C29978  12.915  12.480  10.737 -0.2375 -0.1805 -0.0590
  218MOL0     C29979  12.922  12.427  10.866  0.7521 -0.4093  0.3724
  218MOL0     C29980  12.991  12.488  10.966  0.2991 -0.1840  0.4051
  218MOL0     C29981  13.058  12.611  10.946  0.3005  0.2662  0.5278
  218MOL0     O29982  13.116  12.678  11.051  0.1943  0.3160  0.1397
  218MOL0     C29983  13.045  12.798  11.096  0.1693  0.6942  0.0823
  218MOL0     C29984  13.118  12.855  11.220  0.6073  0.4029  0.4373
  218MOL0     C29985  13.087  12.757  11.338  0.0880  0.8336 -0.1642
  218MOL0     C29986  12.936  12.767  11.375 -0.1369 -0.3555 -0.0408
  218MOL0     C29987  12.875  12.629  11.332 -0.2760  0.0192 -0.1617
  218MOL0     C29988  12.725  12.620  11.350  0.7198 -0.5942 -0.6384
  218MOL0     C29989  12.659  12.674  11.485 -0.4910 -0.3398 -0.6145
  218MOL0     C29990  12.701  12.595  11.608  0.1703  0.2008 -0.3370
  218MOL0    Cl29991  12.616  12.650  11.767 -0.6016 -0.2551 -0.0500
  218MOL0     C29992  13.057  12.668  10.817  0.4070 -0.8505 -0.0902
  218MOL0     C29993  12.984  12.608  10.721  0.5473  0.3606  0.1121
  218MOL0     O29994  12.909  12.510  10.451 -0.4138  0.7334 -0.3635
  218MOL0     C29995  12.802  12.290  10.333  0.9260 -0.3001  0.5289
  218MOL0     C29996  12.720  12.224  10.240 -0.4063  0.1472 -0.3231
  218MOL0     N29997  12.036  11.917   9.862 -0.2932  0.0734  0.2066
  218MOL0     N29998  11.908  11.943   9.855 -0.9575  0.6053 -1.0139
  218MOL0     C29999  11.433  11.591   9.402 -0.4098  0.1964 -0.2093
  218MOL0     C30000  11.462  11.528   9.285 -0.2626 -0.5422  0.7134
  218MOL0     C30001  11.493  11.258   8.948  0.2850 -0.6517 -0.2320
  218MOL0     C30002  11.605  11.341   8.890  0.3484  0.4830  0.8460
  218MOL0     C30003  11.700  11.286   8.806  0.0976 -0.7095  0.1541
  218MOL0     C30004  11.682  11.154   8.758 -0.5424 -0.5752 -0.5958
  218MOL0     O30005  11.752  11.097   8.662 -0.8555 -0.1514  0.4929
  218MOL0     C30006  11.870  11.160   8.622  0.9882 -1.1234 -0.2858
  218MOL0     C30007  11.909  11.093   8.489  0.1261  0.7754  0.1819
  218MOL0     C30008  12.011  11.169   8.404  0.4287  0.7488 -0.5310
  218MOL0     C30009  11.957  11.291   8.361 -0.8922 -0.4952  0.5867
  218MOL0     C30010  11.959  11.299   8.217 -0.3885 -1.0731  0.6412
  218MOL0     C30011  11.948  11.320   8.095  0.1250  0.6831  0.1791
  218MOL0     C30012  11.579  11.078   8.808 -0.4147  0.1880 -0.0860
  218MOL0     C30013  11.479  11.134   8.888  0.0122  0.9848  0.0448
  218MOL0     C30014  11.387  11.041   8.947  0.3204 -0.5219  0.3344
  218MOL0     H30015  11.235  11.641   9.087  3.0016 -2.1786 -2.1805
  218MOL0     H30016  11.170  11.773   9.298  0.1795  0.6420  2.2658
  218MOL0     H30017  11.166  11.895   9.533  0.2730  0.9117 -1.4210
  218MOL0     H30018  11.296  11.955   9.426  1.4232  0.3385 -0.2102
  218MOL0     H30019  11.457  11.978   9.627  0.5559 -0.5183  2.5836
  218MOL0     H30020  11.307  12.072   9.648  0.1707 -0.1955  2.1048
  218MOL0     H30021  11.367  11.990   9.849 -1.2093 -0.0990  0.0132
  218MOL0     H30022  11.235  11.877   9.807 -1.8615  3.4091  0.3982
  218MOL0     H30023  11.347  11.703   9.774  1.1377 -1.7243  1.5740
  218MOL0     H30024  11.503  11.771   9.735 -0.4289 -3.2862 -0.0927
  218MOL0     H30025  11.505  11.649   9.960  2.2339  0.1498  2.2096
  218MOL0     H30026  11.428  11.795  10.021  1.7368  2.0737  0.5542
  218MOL0     H30027  11.677  11.762  10.030 -3.4693  0.5255  0.8907
  218MOL0     H30028  11.677  11.778   9.857 -3.9668 -0.8342 -1.2816
  218MOL0     H30029  11.528  12.008  10.011  0.1640  1.6861 -3.0285
  218MOL0     H30030  11.613  12.019   9.872  2.3586  0.3033 -0.1252
  218MOL0     H30031  11.753  12.128  10.038 -2.4433  0.1563 -3.6162
  218MOL0     H30032  11.731  12.001  10.151 -0.0106  0.7719 -0.0225
  218MOL0     H30033  11.952  11.909  10.180 -2.6668 -2.0400 -0.4457
  218MOL0     H30034  12.235  11.776   9.997 -1.5771 -0.3103 -0.5428
  218MOL0     H30035  12.216  11.860  10.146  2.0326 -1.2225 -0.2169
  218MOL0     H30036  12.320  11.978   9.888 -1.5333  1.2335  0.5327
  218MOL0     H30037  12.293  12.069  10.034  1.3495 -0.0440  0.8329
  218MOL0     H30038  12.479  11.859  10.113  1.8937 -0.7270 -1.0070
  218MOL0     H30039  12.512  11.888   9.944 -1.7056 -3.2900  0.8049
  218MOL0     H30040  12.650  12.042  10.053 -1.0355 -0.3203 -1.9017
  218MOL0     H30041  12.517  12.128   9.983  0.8154 -0.0161  0.5388
  218MOL0     H30042  12.427  12.243  10.388  0.4876 -1.6985 -2.3516
  218MOL0     H30043  12.544  12.500  10.589  0.2853  0.0057 -3.0887
  218MOL0     H30044  12.574  12.351  10.687  0.7534  0.5799 -0.6530
  218MOL0     H30045  12.436  12.348  10.589 -0.9633  1.5509  0.6475
  218MOL0     H30046  12.859  12.339  10.878  0.8076 -0.1409  3.3720
  218MOL0     H30047  13.010  12.449  11.065  1.7335  2.5931  1.3443
  218MOL0     H30048  13.047  12.875  11.018 -1.0307  0.0993 -0.5769
  218MOL0     H30049  12.943  12.765  11.120 -0.0896  3.2453  2.9841
  218MOL0     H30050  13.220  12.867  11.181 -0.0745 -0.9759 -2.0149
  218MOL0     H30051  13.072  12.953  11.237  0.9783  0.6931 -0.1915
  218MOL0     H30052  13.148  12.782  11.425  0.7465  0.0777 -0.3918
  218MOL0     H30053  13.115  12.657  11.302 -1.1849  0.2290  0.4544
  218MOL0     H30054  12.897  12.853  11.319 -0.6391 -1.1855 -1.0076
  218MOL0     H30055  12.913  12.790  11.479  3.1571  1.4355  0.4236
  218MOL0     H30056  12.888  12.610  11.225  1.3703 -2.9171  0.4489
  218MOL0     H30057  12.913  12.549  11.395 -2.3867  0.1276  1.3654
  218MOL0     H30058  12.674  12.529  11.316 -1.8836  1.4520 -2.7129
  218MOL0     H30059  12.684  12.694  11.281  0.5596 -1.8289 -1.9047
  218MOL0     H30060  12.550  12.678  11.480 -0.5552  0.5995  0.8630
  218MOL0     H30061  12.681  12.781  11.492 -0.9950 -0.0511 -2.6808
  218MOL0     H30062  12.807  12.616  11.622  0.0795  0.1331  0.5344
  218MOL0     H30063  12.669  12.491  11.603 -1.8924  0.6652  1.4394
  218MOL0     H30064  13.099  12.766  10.798  1.7029 -1.1576  1.0047
  218MOL0     H30065  12.994  12.672  10.634  1.8064 -1.7392 -1.3800
  218MOL0     H30066  12.908  12.291  10.312  1.2742  2.5974  1.9704
  218MOL0     H30067  12.774  12.197  10.150  0.1361 -1.2981  0.4033
  218MOL0     H30068  11.498  11.584   9.488  3.0434  0.0586 -2.6343
  218MOL0     H30069  11.543  11.456   9.283  0.7921  0.6002 -2.1882
  218MOL0     H30070  11.613  11.444   8.923  0.0051  2.1003 -3.5154
  218MOL0     H30071  11.777  11.356   8.775  1.3257 -1.7062  0.8247
  218MOL0     H30072  11.850  11.265   8.595 -1.5726 -1.7052 -0.9155
  218MOL0     H30073  11.951  11.144   8.693  1.6351 -1.2873 -1.0418
  218MOL0     H30074  11.820  11.079   8.428  0.5270 -0.3490 -0.1709
  218MOL0     H30075  11.952  10.999   8.524  1.5494  0.9905 -0.8853
  218MOL0     H30076  12.104  11.190   8.458  1.3361 -3.0242 -0.3875
  218MOL0     H30077  12.047  11.108   8.321  1.7081  1.9142 -0.8759
  218MOL0     H30078  12.019  11.375   8.392 -0.8953  0.4650 -1.8186
  218MOL0     H30079  11.854  11.312   8.392 -1.6599 -0.9562 -1.4861
  218MOL0     H30080  11.937  11.337   7.990 -2.7311 -0.2876  0.2273
  218MOL0     H30081  11.568  10.977   8.771 -2.2111  0.9659 -1.8764
  218MOL0     H30082  11.285  11.080   8.943  1.0838  1.5128 -0.7859
  218MOL0     H30083  11.369  10.957   8.880 -0.2233 -2.0373  2.2723
  218MOL0     H30084  11.418  11.011   9.048  0.8227 -4.1893 -0.7754
  219MOL0     O30085   9.828   7.444  11.380 -0.9486  0.3752 -0.5290
  219MOL0     C30086   9.735   7.412  11.452 -0.3293 -0.1492 -0.5264
  219MOL0     O30087   9.740   7.397  11.586  0.2629 -0.3213 -0.5333
  219MOL0     C30088   9.840   7.464  11.654  0.4064 -0.7117 -0.0291
  219MOL0     C30089   9.846   7.607  11.664 -0.0527  0.1503 -0.4812
  219MOL0     C30090   9.950   7.677  11.727 -0.0289  0.7917 -0.1136
  219MOL0     C30091  10.060   7.610  11.775  0.0098 -0.1866  0.1391
  219MOL0     O30092  10.151   7.690  11.839 -0.1968 -0.2211 -0.2529
  219MOL0     C30093  10.287   7.640  11.846  0.1388  0.6590 -0.6768
  219MOL0     C30094  10.392   7.752  11.864  0.9917  0.2158  1.1387
  219MOL0     C30095  10.374   7.832  11.992  0.6571  0.7200 -0.2052
  219MOL0     C30096  10.466   7.955  11.996  0.5369  1.0989 -0.1609
  219MOL0     C30097  10.481   8.005  12.134  0.1804 -0.6151 -0.0415
  219MOL0     C30098  10.526   7.911  12.249  0.4989 -0.3603 -0.2853
  219MOL0     C30099  10.636   7.810  12.203 -0.6030 -0.5945  0.1497
  219MOL0     C30100  10.780   7.873  12.173  0.0986  0.4071 -0.2963
  219MOL0     N30101  10.889   7.780  12.172 -0.9104  0.4983  0.4210
  219MOL0     C30102  10.986   7.771  12.272 -0.1937 -0.2798  0.4209
  219MOL0     C30103  11.073   7.678  12.228  0.3303 -0.5793 -0.1367
  219MOL0     C30104  11.202   7.645  12.292 -0.3307  0.2421  0.6020
  219MOL0     C30105  11.313   7.736  12.239 -0.7423 -0.6085  0.2821
  219MOL0     C30106  11.451   7.714  12.299 -0.3659 -0.2359 -0.0791
  219MOL0     C30107  11.542   7.622  12.224 -0.5101 -0.3196 -0.8634
  219MOL0     O30108  11.630   7.700  12.133 -0.6597  0.2074 -0.6728
  219MOL0     C30109  11.756   7.728  12.190  0.9165  0.4005  0.6741
  219MOL0     C30110  11.781   7.742  12.326 -0.5749  0.1277  0.3696
  219MOL0     C30111  11.902   7.786  12.374 -0.2152 -0.2701  0.1215
  219MOL0     C30112  11.913   7.801  12.525 -0.7282  0.1483 -0.2211
  219MOL0     C30113  12.006   7.824  12.292 -0.2322 -0.7880  0.3132
  219MOL0     C30114  12.143   7.883  12.321 -0.0609  0.3501 -1.1756
  219MOL0     O30115  12.232   7.869  12.225  0.2947  0.2325  0.7575
  219MOL0     C30116  12.348   7.940  12.236 -0.5584 -0.1051  1.2263
  219MOL0     C30117  12.469   7.865  12.220 -0.5088  0.4078 -0.7543
  219MOL0     C30118  12.587   7.931  12.206  0.2319 -0.4736 -0.2397
  219MOL0     C30119  12.597   8.071  12.227  0.1224  0.0852  0.2359
  219MOL0     O30120  12.717   8.137  12.218 -0.2172  0.1859  0.0788
  219MOL0     C30121  12.821   8.092  12.298 -0.1656  0.6430  0.1262
  219MOL0     C30122  12.935   8.182  12.264  0.6732 -0.2182 -0.5963
  219MOL0     C30123  13.063   8.159  12.343  0.5720  0.0815  1.1691
  219MOL0     C30124  13.181   8.239  12.281 -0.2954  0.2363 -0.6985
  219MOL0     C30125  13.302   8.207  12.359 -0.6546  0.2573 -0.0166
  219MOL0     C30126  13.342   8.064  12.370  0.2165 -0.0852  0.3173
  219MOL0     C30127  13.490   8.057  12.395 -0.1918 -0.3176  0.3169
  219MOL0     C30128  13.532   7.927  12.475 -0.1504 -0.5614  0.0266
  219MOL0    Cl30129  13.568   7.949  12.649  0.2653 -0.3561 -0.1019
  219MOL0     C30130  12.478   8.150  12.234 -0.2157  0.2609 -0.2352
  219MOL0     C30131  12.355   8.081  12.232  0.5608 -0.0359 -0.6301
  219MOL0     O30132  12.161   7.956  12.419  0.6498  0.4387  0.4618
  219MOL0     C30133  11.977   7.807  12.154  0.4151 -0.3470  0.1341
  219MOL0     C30134  11.860   7.766  12.107  0.2949  0.3133  0.5041
  219MOL0     N30135  11.035   7.616  12.116  0.3675  0.4215 -0.4481
  219MOL0     N30136  10.928   7.683  12.074  0.0921 -0.3464 -0.4588
  219MOL0     C30137  10.063   7.472  11.758 -1.1633  0.4701 -0.0402
  219MOL0     C30138   9.959   7.397  11.701  0.3325 -0.0067 -0.3838
  219MOL0     C30139   9.601   7.383  11.380  0.1997 -0.2567 -0.0843
  219MOL0     C30140   9.481   7.410  11.445 -0.5774 -0.6889 -0.2930
  219MOL0     C30141   9.358   7.393  11.386 -0.7829  0.2670 -1.4804
  219MOL0     C30142   9.350   7.320  11.267 -0.3875 -0.0991 -0.1304
  219MOL0     O30143   9.233   7.283  11.197  0.2512 -0.4915  0.3811
  219MOL0     C30144   9.117   7.237  11.276 -0.0039 -1.7254  0.1706
  219MOL0     C30145   9.054   7.122  11.197  0.9784 -0.1550 -0.3217
  219MOL0     C30146   9.128   6.997  11.234  0.6661  0.5990 -0.0206
  219MOL0     C30147   9.051   6.859  11.210 -0.8776 -0.2661  0.5823
  219MOL0     C30148   8.977   6.821  11.325  0.9701 -0.0669  0.5257
  219MOL0     C30149   8.914   6.797  11.428 -0.2340  0.6727 -0.1691
  219MOL0     C30150   9.469   7.287  11.200 -0.6522  0.0524  0.0732
  219MOL0     C30151   9.595   7.321  11.252 -0.0933 -0.7462 -0.4250
  219MOL0     C30152   9.705   7.289  11.166 -0.9838  0.2733  0.4039
  219MOL0     H30153   9.765   7.665  11.621  0.4546  2.7165  1.7557
  219MOL0     H30154   9.940   7.785  11.730  0.0382  0.8849 -1.9269
  219MOL0     H30155  10.312   7.588  11.753 -0.7671  0.9559 -1.1038
  219MOL0     H30156  10.296   7.568  11.928  3.4999  2.2253  0.5338
  219MOL0     H30157  10.491   7.712  11.839  2.2498  3.9410 -0.7008
  219MOL0     H30158  10.368   7.824  11.785 -2.5744 -0.1170  1.7554
  219MOL0     H30159  10.270   7.861  12.010  0.8202  4.5378 -3.8382
  219MOL0     H30160  10.391   7.782  12.088 -2.6539  1.4282  0.8923
  219MOL0     H30161  10.567   7.935  11.961  0.1934  3.0133 -2.4611
  219MOL0     H30162  10.415   8.027  11.932  1.4520 -0.0915 -2.3204
  219MOL0     H30163  10.380   8.041  12.155  0.0567 -0.0537 -1.4884
  219MOL0     H30164  10.557   8.084  12.129  0.5443 -0.7850  1.9410
  219MOL0     H30165  10.573   7.979  12.321  1.0287 -1.6518  0.6386
  219MOL0     H30166  10.453   7.840  12.290 -0.0533 -2.3932 -4.3479
  219MOL0     H30167  10.595   7.748  12.123 -1.3084  2.5079 -2.0569
  219MOL0     H30168  10.656   7.739  12.284 -0.3255 -1.6059 -0.7753
  219MOL0     H30169  10.787   7.940  12.087  2.0599  1.1138  0.3478
  219MOL0     H30170  10.814   7.939  12.254 -0.0770  2.6566 -1.9551
  219MOL0     H30171  10.994   7.846  12.350  2.7020 -1.7716  1.7190
  219MOL0     H30172  11.218   7.537  12.289 -0.1806  0.1807  2.5443
  219MOL0     H30173  11.180   7.660  12.398 -0.5049  1.6508  0.3888
  219MOL0     H30174  11.313   7.734  12.129 -1.0375  2.9102  0.1194
  219MOL0     H30175  11.275   7.835  12.266 -0.4327 -0.8869  1.8425
  219MOL0     H30176  11.505   7.808  12.306 -0.0799 -0.4566  0.7369
  219MOL0     H30177  11.441   7.684  12.404 -0.5650  1.6419  0.4607
  219MOL0     H30178  11.601   7.561  12.293  1.0822 -1.3167 -2.9971
  219MOL0     H30179  11.484   7.544  12.175  1.3738 -2.9892  0.9025
  219MOL0     H30180  11.702   7.742  12.400  0.5516 -0.5712  1.6305
  219MOL0     H30181  11.881   7.898  12.563  0.8543  0.7486 -0.3591
  219MOL0     H30182  12.014   7.783  12.563 -0.5765  0.7649 -0.3245
  219MOL0     H30183  11.855   7.723  12.574  1.3940 -0.2653  1.7932
  219MOL0     H30184  12.472   7.758  12.201 -0.1955  0.1378  0.6798
  219MOL0     H30185  12.670   7.879  12.160  0.7938 -1.1275  1.4488
  219MOL0     H30186  12.800   8.122  12.400 -3.7833 -0.1063 -0.2792
  219MOL0     H30187  12.845   7.985  12.291 -1.9277  0.2897 -1.2207
  219MOL0     H30188  12.956   8.157  12.160 -1.7113  3.7509 -2.3000
  219MOL0     H30189  12.902   8.287  12.271  1.0161 -0.1216 -0.4360
  219MOL0     H30190  13.081   8.051  12.340 -1.2648 -0.2799  1.9355
  219MOL0     H30191  13.046   8.180  12.449 -0.0554 -0.1898  1.1283
  219MOL0     H30192  13.158   8.345  12.297 -1.4357  0.2012 -1.9633
  219MOL0     H30193  13.187   8.213  12.175  5.1776 -2.5442 -0.0824
  219MOL0     H30194  13.389   8.257  12.315  1.5569 -3.5536 -0.3862
  219MOL0     H30195  13.281   8.244  12.460 -0.3321 -0.6960  0.4034
  219MOL0     H30196  13.336   8.007  12.276  1.1646 -2.3234  1.5263
  219MOL0     H30197  13.288   8.009  12.447  0.1810 -1.4898 -0.6659
  219MOL0     H30198  13.517   8.145  12.453 -1.6354  0.1996  0.2554
  219MOL0     H30199  13.549   8.051  12.303  1.1841  1.0042  1.0792
  219MOL0     H30200  13.620   7.886  12.425  0.2590 -0.3827  0.5744
  219MOL0     H30201  13.446   7.861  12.464  1.7664 -3.4449  1.2735
  219MOL0     H30202  12.482   8.258  12.237  0.5801  0.2131  2.8873
  219MOL0     H30203  12.270   8.148  12.241  2.0519  2.0157 -0.9756
  219MOL0     H30204  12.051   7.831  12.078 -0.6907  0.3193 -0.7688
  219MOL0     H30205  11.847   7.761  12.000  2.5613 -2.6312  0.2342
  219MOL0     H30206  10.148   7.426  11.807 -0.9195  1.4618  0.4991
  219MOL0     H30207   9.963   7.289  11.685 -5.9233 -0.4162 -2.0407
  219MOL0     H30208   9.493   7.477  11.530  3.3332  4.5335 -4.2621
  219MOL0     H30209   9.280   7.435  11.449  0.9840  1.5926 -0.0566
  219MOL0     H30210   9.141   7.203  11.377  1.9258  1.1126  0.7974
  219MOL0     H30211   9.056   7.326  11.291  2.4261  0.3312 -1.2121
  219MOL0     H30212   9.053   7.126  11.088 -2.4528 -1.7866 -0.5091
  219MOL0     H30213   8.947   7.126  11.222  1.1782 -3.0360  1.5032
  219MOL0     H30214   9.212   6.995  11.163 -1.2549  0.3906 -2.4053
  219MOL0     H30215   9.166   6.995  11.337  0.2277  3.0830  0.2496
  219MOL0     H30216   9.128   6.782  11.202  0.2811  1.0291 -1.4455
  219MOL0     H30217   8.988   6.850  11.122 -1.6966 -1.6015  1.2584
  219MOL0     H30218   8.864   6.766  11.517 -0.4785  0.7526 -0.2805
  219MOL0     H30219   9.466   7.230  11.107  0.9807 -0.9042  0.5613
  219MOL0     H30220   9.793   7.261  11.224 -0.9925  1.8048  1.2252
  219MOL0     H30221   9.683   7.208  11.096  1.9324  1.7639 -2.5361
  219MOL0     H30222   9.728   7.373  11.099  1.6113 -2.4477 -2.4746
  220MOL0     O30223   0.354   6.541  10.952 -0.1677 -0.0735 -0.0479
  220MOL0     C30224   0.254   6.567  10.879  0.5330 -0.1377 -1.0649
  220MOL0     O30225   0.246   6.675  10.799  0.7525  0.5200  0.1321
  220MOL0     C30226   0.358   6.746  10.758  0.7045  0.3250 -0.6621
  220MOL0     C30227   0.457   6.793  10.848  0.8288 -0.0892 -0.2644
  220MOL0     C30228   0.545   6.890  10.816 -0.0671 -0.0945  0.2397
  220MOL0     C30229   0.551   6.943  10.692  0.3225 -0.1320  0.9407
  220MOL0     O30230   0.647   7.039  10.680  0.1279 -0.2823  0.4035
  220MOL0     C30231   0.699   7.090  10.553 -0.3369  0.1914 -0.4214
  220MOL0     C30232   0.831   7.163  10.602 -0.0889  0.1613 -0.6593
  220MOL0     C30233   0.857   7.297  10.539  0.2284 -0.6632 -0.2189
  220MOL0     C30234   1.002   7.331  10.562  0.0992 -0.1597  0.2986
  220MOL0     C30235   1.050   7.472  10.513  0.0596 -0.2221  0.2607
  220MOL0     C30236   1.038   7.486  10.355 -1.1191 -0.9653 -0.5654
  220MOL0     C30237   1.097   7.624  10.320  0.5636 -0.4120  0.1774
  220MOL0     C30238   1.082   7.668  10.172  0.0035  0.0979 -0.6513
  220MOL0     N30239   1.139   7.564  10.080 -0.5728  0.2858 -0.1298
  220MOL0     C30240   1.267   7.522  10.065 -1.1560 -0.2763  0.3228
  220MOL0     C30241   1.259   7.436   9.965  0.4564  1.4018 -0.1540
  220MOL0     C30242   1.373   7.346   9.918  0.1602  0.3469  0.2412
  220MOL0     C30243   1.335   7.203   9.944  0.2923  0.3555  0.5582
  220MOL0     C30244   1.458   7.130   9.900 -0.1801 -0.1428  0.6711
  220MOL0     C30245   1.471   6.983   9.946  0.2077  0.2369 -0.4679
  220MOL0     O30246   1.402   6.906   9.850  0.4553 -0.2733  0.6538
  220MOL0     C30247   1.465   6.842   9.743 -0.3619 -0.1244  0.7350
  220MOL0     C30248   1.596   6.856   9.705 -0.4972 -0.6012  0.4901
  220MOL0     C30249   1.665   6.793   9.604  0.4700  0.9155 -0.2060
  220MOL0     C30250   1.810   6.807   9.581 -0.4476  0.5496 -0.2526
  220MOL0     C30251   1.586   6.707   9.523  0.3364  0.1419  1.1999
  220MOL0     C30252   1.632   6.631   9.404 -0.2206  1.2138 -0.2221
  220MOL0     O30253   1.763   6.650   9.374  0.5380  0.4649 -0.0760
  220MOL0     C30254   1.824   6.544   9.322 -0.1755  0.0186  0.7076
  220MOL0     C30255   1.901   6.465   9.412  0.5699  0.1356 -0.4586
  220MOL0     C30256   1.972   6.352   9.365 -0.1028 -0.3691 -0.3354
  220MOL0     C30257   1.976   6.322   9.231  0.0109 -0.5075 -0.1478
  220MOL0     O30258   2.036   6.208   9.173 -0.3502 -0.5190  0.3670
  220MOL0     C30259   2.156   6.160   9.230 -0.3907  0.0749 -0.0034
  220MOL0     C30260   2.182   6.012   9.211  0.8683  1.1122  0.1619
  220MOL0     C30261   2.189   5.968   9.061 -0.0359 -0.0248  0.0887
  220MOL0     C30262   2.202   5.813   9.028 -0.1607 -0.5348  0.1800
  220MOL0     C30263   2.179   5.781   8.878  0.1397 -0.5555  0.2520
  220MOL0     C30264   2.186   5.625   8.870  0.8876 -0.4771  0.4795
  220MOL0     C30265   2.219   5.577   8.722 -0.4883 -0.8978 -0.0070
  220MOL0     C30266   2.260   5.435   8.710  0.5223 -0.2510 -0.1915
  220MOL0    Cl30267   2.135   5.333   8.771  0.2920 -0.1510 -0.1858
  220MOL0     C30268   1.892   6.396   9.142  0.7141  0.2992 -0.5246
  220MOL0     C30269   1.826   6.515   9.185 -0.4968  0.7388  0.0743
  220MOL0     O30270   1.565   6.546   9.347  0.4568  0.1917 -0.5963
  220MOL0     C30271   1.446   6.690   9.556  0.6562 -0.0969 -0.1777
  220MOL0     C30272   1.388   6.758   9.660  0.0083 -0.3025  0.6592
  220MOL0     N30273   1.126   7.430   9.921 -0.7805  0.5718  0.2472
  220MOL0     N30274   1.050   7.504   9.994 -0.1691  0.4997 -0.1267
  220MOL0     C30275   0.463   6.892  10.596 -0.0932 -0.6196  1.1900
  220MOL0     C30276   0.357   6.802  10.627 -1.2021  0.5591  0.7954
  220MOL0     C30277   0.126   6.484  10.880  0.2296 -0.0962 -0.6376
  220MOL0     C30278   0.030   6.511  10.779 -1.4268  1.8889 -0.8439
  220MOL0     C30279  -0.091   6.444  10.772 -0.7631 -0.2085 -0.4263
  220MOL0     C30280  -0.110   6.326  10.855  0.0600 -0.7986  0.0673
  220MOL0     O30281  -0.229   6.265  10.861 -0.8888 -0.3098 -0.1712
  220MOL0     C30282  -0.294   6.269  10.733  0.1400 -0.3304 -0.2740
  220MOL0     C30283  -0.409   6.161  10.742 -0.2351 -0.0394 -0.3715
  220MOL0     C30284  -0.382   6.007  10.732 -0.1566  0.4972 -0.7031
  220MOL0     C30285  -0.256   5.960  10.811 -0.9701  0.2237  1.0659
  220MOL0     C30286  -0.243   5.819  10.821 -0.6923  0.4401  0.4521
  220MOL0     C30287  -0.231   5.698  10.835  0.3444  0.6156 -1.6409
  220MOL0     C30288  -0.032   6.306  10.965  1.0076  0.4036 -1.0215
  220MOL0     C30289   0.079   6.386  10.982 -0.4270  0.6148 -0.6855
  220MOL0     C30290   0.156   6.370  11.110  0.6698  0.9256 -0.5432
  220MOL0     H30291   0.478   6.752  10.947  6.2958 -1.2736 -1.5785
  220MOL0     H30292   0.622   6.917  10.887  4.6401 -2.5460 -3.2958
  220MOL0     H30293   0.624   7.164  10.521 -1.4048  0.4373  2.4183
  220MOL0     H30294   0.725   7.022  10.471  0.4591 -1.9571  1.5177
  220MOL0     H30295   0.817   7.183  10.708  1.9523 -6.6650  1.4334
  220MOL0     H30296   0.920   7.102  10.586  1.7944  2.2224  1.3585
  220MOL0     H30297   0.825   7.293  10.435  0.4111  1.1287 -0.3715
  220MOL0     H30298   0.782   7.372  10.566  3.0526  2.7229 -1.0628
  220MOL0     H30299   1.030   7.319  10.667 -0.6752  0.7498  0.6288
  220MOL0     H30300   1.044   7.256  10.494 -2.7587  0.2993 -2.2124
  220MOL0     H30301   1.152   7.488  10.548 -0.1297  0.5580  0.4791
  220MOL0     H30302   0.987   7.551  10.556 -0.2696  0.0339 -0.6536
  220MOL0     H30303   1.076   7.398  10.302 -0.2034 -3.7334  4.0744
  220MOL0     H30304   0.932   7.493  10.330 -1.3257  0.2962  0.5484
  220MOL0     H30305   1.199   7.591  10.344  0.6039 -0.9140 -0.6601
  220MOL0     H30306   1.052   7.701  10.383 -0.6631 -2.2091  1.6152
  220MOL0     H30307   0.977   7.686  10.144  0.2749  2.8083 -0.2202
  220MOL0     H30308   1.137   7.761  10.157 -0.2390  0.1671 -1.1467
  220MOL0     H30309   1.352   7.567  10.114 -0.5012  1.0585 -1.9226
  220MOL0     H30310   1.473   7.373   9.952  0.2041 -1.0783  1.3534
  220MOL0     H30311   1.362   7.350   9.809 -1.8491  1.2685  0.4353
  220MOL0     H30312   1.308   7.177  10.047 -0.0547 -1.7170 -0.0053
  220MOL0     H30313   1.248   7.169   9.887  0.0507  1.3319  0.3238
  220MOL0     H30314   1.474   7.144   9.793  1.1254  1.9696  1.0955
  220MOL0     H30315   1.533   7.177   9.965 -1.1025  0.6997  1.1620
  220MOL0     H30316   1.577   6.962   9.958  0.2878  0.6638 -0.4013
  220MOL0     H30317   1.428   6.974  10.046 -2.9803  1.8974 -1.5414
  220MOL0     H30318   1.653   6.924   9.768 -5.3116  1.1349  3.5222
  220MOL0     H30319   1.820   6.850   9.481  0.1255  1.1521  0.0558
  220MOL0     H30320   1.867   6.715   9.590  0.3030  1.1236  1.2604
  220MOL0     H30321   1.846   6.875   9.660 -2.0510 -0.1645  1.1721
  220MOL0     H30322   1.899   6.479   9.520  0.5001  2.8616 -0.7331
  220MOL0     H30323   2.019   6.293   9.443 -0.3131 -0.9247 -0.6239
  220MOL0     H30324   2.243   6.209   9.187 -0.2610 -0.0946  0.0666
  220MOL0     H30325   2.165   6.182   9.336  1.3931  1.3918 -0.3879
  220MOL0     H30326   2.267   5.980   9.271  0.2389 -0.4149  0.3041
  220MOL0     H30327   2.108   5.943   9.253  2.7871 -3.1376 -2.6207
  220MOL0     H30328   2.264   6.029   9.009 -0.8018 -0.5321 -1.6634
  220MOL0     H30329   2.103   6.007   9.006  1.0673  2.7574  0.1685
  220MOL0     H30330   2.134   5.748   9.084 -0.5508 -1.4343 -1.2940
  220MOL0     H30331   2.307   5.793   9.051 -0.0139  1.1828  1.2528
  220MOL0     H30332   2.092   5.829   8.834  2.0151  1.3198 -1.6130
  220MOL0     H30333   2.261   5.826   8.822  0.2020 -0.6528  0.2649
  220MOL0     H30334   2.093   5.587   8.914 -0.1963 -0.3858 -1.5964
  220MOL0     H30335   2.263   5.570   8.925 -0.9635 -3.6369  0.1708
  220MOL0     H30336   2.303   5.641   8.696  0.1011 -1.1720  1.1690
  220MOL0     H30337   2.140   5.598   8.649  0.6817  4.4440 -0.0917
  220MOL0     H30338   2.342   5.437   8.784  1.1638 -0.3487 -0.8865
  220MOL0     H30339   2.308   5.419   8.613  1.7993  2.0131 -0.0248
  220MOL0     H30340   1.880   6.348   9.046 -1.2824 -1.3480  0.4818
  220MOL0     H30341   1.760   6.571   9.118 -2.5154  0.9054  2.0787
  220MOL0     H30342   1.394   6.605   9.512 -0.3490  0.5352 -0.2419
  220MOL0     H30343   1.282   6.737   9.674  0.1261  0.5201  3.3351
  220MOL0     H30344   0.463   6.945  10.500 -0.9033 -0.1474  1.4404
  220MOL0     H30345   0.280   6.786  10.552  0.7680 -0.4023 -1.1563
  220MOL0     H30346   0.055   6.589  10.708  0.9342  2.2563  0.2947
  220MOL0     H30347  -0.149   6.482  10.689  0.9111  3.4297 -0.1433
  220MOL0     H30348  -0.345   6.365  10.713  4.0798  1.7935 -1.1662
  220MOL0     H30349  -0.229   6.247  10.648  1.3694 -0.7048  0.7367
  220MOL0     H30350  -0.474   6.183  10.658 -0.8680 -0.1639  0.0777
  220MOL0     H30351  -0.462   6.187  10.835  2.6136 -0.0619  1.3962
  220MOL0     H30352  -0.473   5.959  10.769 -0.4292  0.8252 -0.9359
  220MOL0     H30353  -0.362   5.980  10.628 -0.5260  1.5987 -1.0761
  220MOL0     H30354  -0.242   6.011  10.906 -0.4995 -0.9920  1.6705
  220MOL0     H30355  -0.167   5.993  10.756 -0.6097  0.5444  1.8277
  220MOL0     H30356  -0.244   5.592  10.840 -1.4641  0.8690  0.2471
  220MOL0     H30357  -0.076   6.233  11.033  0.1967  1.7904 -0.0069
  220MOL0     H30358   0.255   6.330  11.085  0.8683  1.1755 -0.1656
  220MOL0     H30359   0.181   6.456  11.172 -0.4093 -0.4594  1.9863
  220MOL0     H30360   0.110   6.305  11.185 -0.3539  1.4120 -0.7417
  221MOL0     O30361   3.511   2.963   4.041  0.3687  0.4719 -0.0876
  221MOL0     C30362   3.422   2.984   3.963  0.1252  0.2904 -0.0569
  221MOL0     O30363   3.307   2.913   3.956  0.4093  0.3708 -0.5100
  221MOL0     C30364   3.301   2.795   4.024 -1.0089  0.1362 -0.1667
  221MOL0     C30365   3.217   2.780   4.138 -0.2688 -0.5045 -0.8584
  221MOL0     C30366   3.205   2.662   4.205  0.5936 -0.1812  0.2031
  221MOL0     C30367   3.275   2.548   4.151  0.0263  0.3012 -0.2523
  221MOL0     O30368   3.261   2.428   4.222  1.8525 -0.3249  0.5408
  221MOL0     C30369   3.350   2.411   4.324 -0.6093 -0.4070  0.9839
  221MOL0     C30370   3.357   2.261   4.365  0.3091 -0.7380 -0.2934
  221MOL0     C30371   3.384   2.170   4.242 -0.8088 -1.0510 -0.6165
  221MOL0     C30372   3.423   2.029   4.279 -0.5187  0.4209 -0.5689
  221MOL0     C30373   3.451   1.957   4.147 -0.2215 -0.8100 -0.1776
  221MOL0     C30374   3.518   1.824   4.180 -0.1972 -0.2970  0.1854
  221MOL0     C30375   3.583   1.762   4.052  0.4635  0.5292  0.1973
  221MOL0     C30376   3.604   1.618   4.064  0.0257  0.9886 -1.0332
  221MOL0     N30377   3.731   1.571   4.002 -0.3657 -0.1888 -1.0662
  221MOL0     C30378   3.795   1.612   3.891 -0.2033  0.3600 -1.0418
  221MOL0     C30379   3.892   1.525   3.864 -0.8217  0.4954  0.0613
  221MOL0     C30380   3.998   1.514   3.756 -0.4166 -0.3036  0.2966
  221MOL0     C30381   3.957   1.432   3.630  0.1345  0.1000  0.5014
  221MOL0     C30382   4.080   1.399   3.543 -1.2049 -0.8607 -0.1546
  221MOL0     C30383   4.156   1.514   3.473  0.6519  0.9710  0.9928
  221MOL0     O30384   4.219   1.603   3.567 -0.9339 -0.3510  1.2152
  221MOL0     C30385   4.335   1.662   3.523 -0.0805  0.8226 -0.5766
  221MOL0     C30386   4.454   1.599   3.513 -0.1002 -0.0434  0.3688
  221MOL0     C30387   4.573   1.669   3.491  0.4697 -0.4659  0.2040
  221MOL0     C30388   4.704   1.582   3.502  1.0314 -0.4100  0.0495
  221MOL0     C30389   4.568   1.809   3.458 -0.1634 -0.3450  0.1001
  221MOL0     C30390   4.688   1.888   3.420 -0.5242 -0.9024  0.6337
  221MOL0     O30391   4.744   1.859   3.297  0.0706 -0.1174  0.2647
  221MOL0     C30392   4.837   1.945   3.251 -0.5805  1.0894 -0.7790
  221MOL0     C30393   4.806   2.050   3.168  0.7482  0.4078 -0.5171
  221MOL0     C30394   4.907   2.133   3.121 -0.0584 -0.8548  0.1606
  221MOL0     C30395   5.043   2.101   3.150 -0.7054  0.2771  0.7420
  221MOL0     O30396   5.139   2.158   3.076  0.3420 -0.6072  0.8335
  221MOL0     C30397   5.127   2.295   3.042 -0.0973  0.6737 -0.6121
  221MOL0     C30398   5.264   2.352   3.016 -0.2940 -0.0556  0.1824
  221MOL0     C30399   5.280   2.507   3.033  0.1658 -0.5547 -0.3059
  221MOL0     C30400   5.426   2.552   3.054 -0.0267  0.1979 -0.6528
  221MOL0     C30401   5.464   2.695   3.033 -0.4589 -0.5056 -0.0042
  221MOL0     C30402   5.616   2.716   2.982  0.2630 -0.5794 -0.4846
  221MOL0     C30403   5.630   2.863   2.930  0.1378  0.3448  0.1857
  221MOL0     C30404   5.599   2.969   3.034  0.6705  0.1607  0.4033
  221MOL0    Cl30405   5.629   3.137   2.970  0.3176 -0.3832 -0.2347
  221MOL0     C30406   5.077   1.994   3.234  0.8564  0.3211  0.1786
  221MOL0     C30407   4.972   1.916   3.289  1.0719 -0.1018  0.0028
  221MOL0     O30408   4.711   1.993   3.478 -0.3268 -0.0645  0.6176
  221MOL0     C30409   4.438   1.875   3.474 -0.8036 -0.3200 -0.0258
  221MOL0     C30410   4.329   1.798   3.516 -0.3265  0.0534  0.5235
  221MOL0     N30411   3.884   1.424   3.956 -0.3484  0.3618 -0.3163
  221MOL0     N30412   3.780   1.447   4.030 -0.4962  0.2188  0.5000
  221MOL0     C30413   3.365   2.554   4.042  0.5419 -0.7548  0.7386
  221MOL0     C30414   3.370   2.677   3.975  0.2602  0.0358 -0.5267
  221MOL0     C30415   3.434   3.086   3.857  0.6966 -0.0129 -0.1629
  221MOL0     C30416   3.352   3.076   3.740 -0.2939  0.1144 -0.2040
  221MOL0     C30417   3.356   3.174   3.643 -0.5575  0.2755  0.2940
  221MOL0     C30418   3.437   3.285   3.658  0.2317  0.0711  0.4707
  221MOL0     O30419   3.429   3.397   3.587 -0.1296  0.1297  0.8595
  221MOL0     C30420   3.403   3.405   3.452  0.0609 -0.5204 -0.1773
  221MOL0     C30421   3.507   3.341   3.363 -0.2906 -0.9057 -0.0629
  221MOL0     C30422   3.463   3.342   3.206 -0.8961  0.0842  0.5270
  221MOL0     C30423   3.330   3.288   3.177  1.0441  0.6817  0.2693
  221MOL0     C30424   3.320   3.154   3.221  0.3890 -0.8959 -0.6761
  221MOL0     C30425   3.330   3.049   3.279  0.7034  0.6484  1.7339
  221MOL0     C30426   3.522   3.303   3.762  0.5820  0.3794  0.1178
  221MOL0     C30427   3.527   3.203   3.865  0.7356  0.2314  0.0516
  221MOL0     C30428   3.615   3.223   3.984 -0.4764  0.2338  1.1320
  221MOL0     H30429   3.165   2.868   4.174  0.9585 -0.4156  0.8149
  221MOL0     H30430   3.141   2.659   4.293 -2.9331  0.6583 -2.1298
  221MOL0     H30431   3.329   2.474   4.411 -1.0189  0.0637  0.5488
  221MOL0     H30432   3.449   2.434   4.283 -1.7072 -1.6825 -2.7738
  221MOL0     H30433   3.439   2.246   4.436  1.4240 -2.8801 -1.8960
  221MOL0     H30434   3.265   2.223   4.410 -0.4965  0.1570 -1.1546
  221MOL0     H30435   3.299   2.176   4.173  0.4617  2.9121 -2.1586
  221MOL0     H30436   3.461   2.226   4.187 -0.7294 -2.0706 -1.5802
  221MOL0     H30437   3.505   2.031   4.351  0.5706  2.9517 -1.7389
  221MOL0     H30438   3.339   1.984   4.333  1.3030 -0.2138  1.9088
  221MOL0     H30439   3.520   2.024   4.095 -1.5017  1.1733  0.5721
  221MOL0     H30440   3.362   1.934   4.089  0.5559  0.5255 -1.9722
  221MOL0     H30441   3.596   1.846   4.253 -0.9900 -0.1899  1.0046
  221MOL0     H30442   3.442   1.754   4.214 -2.4598  0.7077 -2.3845
  221MOL0     H30443   3.674   1.816   4.024  1.6115 -1.9831 -1.2153
  221MOL0     H30444   3.503   1.777   3.979  0.5091  1.2565  0.2883
  221MOL0     H30445   3.595   1.578   4.165 -1.7744 -0.2867 -1.6351
  221MOL0     H30446   3.518   1.567   4.019 -0.3139  0.7963 -0.1870
  221MOL0     H30447   3.755   1.700   3.842  0.8206  1.4915  0.0981
  221MOL0     H30448   4.087   1.474   3.806  0.3672  2.5379  1.3649
  221MOL0     H30449   4.021   1.619   3.733 -1.9439  0.5240  2.2329
  221MOL0     H30450   3.904   1.345   3.668 -0.5168  1.2301  2.3331
  221MOL0     H30451   3.894   1.496   3.568  2.3196  0.8902 -1.0424
  221MOL0     H30452   4.156   1.363   3.614 -0.7244 -0.9727 -0.7158
  221MOL0     H30453   4.053   1.328   3.464 -2.2810 -0.6124 -0.0316
  221MOL0     H30454   4.237   1.455   3.430  0.1203  0.8242  0.1601
  221MOL0     H30455   4.116   1.556   3.380  1.6763  0.7276  0.4233
  221MOL0     H30456   4.460   1.495   3.545  0.1495 -0.3521 -0.6566
  221MOL0     H30457   4.795   1.634   3.472 -0.2990  1.5736 -0.7952
  221MOL0     H30458   4.697   1.494   3.438 -1.2439 -0.4280  0.2184
  221MOL0     H30459   4.709   1.538   3.602 -1.9016 -2.7745 -0.6813
  221MOL0     H30460   4.703   2.068   3.139 -0.8561  1.0624  4.6103
  221MOL0     H30461   4.889   2.210   3.047 -0.5408  0.3186  1.4611
  221MOL0     H30462   5.074   2.298   2.946  0.3140  2.3412 -0.8160
  221MOL0     H30463   5.067   2.326   3.127 -2.8439 -3.0841 -0.9029
  221MOL0     H30464   5.325   2.308   3.096 -0.2759 -1.8210 -0.7421
  221MOL0     H30465   5.301   2.322   2.917  2.7131  1.2488  0.7860
  221MOL0     H30466   5.211   2.535   3.113  0.1175  1.0783 -0.8809
  221MOL0     H30467   5.247   2.554   2.940 -2.7603 -2.9327 -0.6022
  221MOL0     H30468   5.495   2.483   3.004  0.5232 -0.7402  1.2881
  221MOL0     H30469   5.447   2.543   3.161 -1.7537 -1.5118 -0.3818
  221MOL0     H30470   5.403   2.742   2.956  0.3850  0.1715 -0.2772
  221MOL0     H30471   5.440   2.758   3.120 -1.3639  2.0611 -1.9831
  221MOL0     H30472   5.621   2.647   2.898  1.7361 -0.4336 -0.5412
  221MOL0     H30473   5.686   2.692   3.062  0.0864 -1.0708 -0.4765
  221MOL0     H30474   5.569   2.876   2.841 -0.2142  0.2166  0.4060
  221MOL0     H30475   5.736   2.869   2.904  0.1172  0.3655  0.1068
  221MOL0     H30476   5.660   2.943   3.122 -1.7648 -2.9676  1.3421
  221MOL0     H30477   5.493   2.962   3.060  0.2520 -0.9056 -1.4340
  221MOL0     H30478   5.183   1.977   3.254  0.5067  0.1699  2.1795
  221MOL0     H30479   4.982   1.829   3.354  0.4706  2.1197  3.3656
  221MOL0     H30480   4.430   1.983   3.462 -3.0262 -0.4033  0.2986
  221MOL0     H30481   4.229   1.838   3.527 -0.5751 -0.7805  1.4117
  221MOL0     H30482   3.420   2.463   4.019  0.2525 -1.3505  2.2742
  221MOL0     H30483   3.436   2.682   3.889  0.3167  1.9807 -0.4156
  221MOL0     H30484   3.291   2.988   3.723 -1.6636  1.4060 -2.3684
  221MOL0     H30485   3.302   3.156   3.550  0.7539  0.4294 -0.5153
  221MOL0     H30486   3.312   3.344   3.443 -1.3276  1.7003 -2.4785
  221MOL0     H30487   3.384   3.510   3.426  0.7041 -0.5790 -0.9283
  221MOL0     H30488   3.526   3.236   3.388 -0.2653 -0.1527  3.7637
  221MOL0     H30489   3.597   3.400   3.383 -0.1408 -2.3787  4.9064
  221MOL0     H30490   3.467   3.447   3.175 -3.1525  0.6202  1.8095
  221MOL0     H30491   3.523   3.274   3.144 -0.5009  0.4072  0.5521
  221MOL0     H30492   3.321   3.279   3.068  1.8579 -1.6226  0.3259
  221MOL0     H30493   3.247   3.338   3.227 -3.1199 -2.7598 -2.3936
  221MOL0     H30494   3.353   2.960   3.335  3.4002 -0.9929 -1.5489
  221MOL0     H30495   3.574   3.398   3.764  1.3348 -0.0102  2.5686
  221MOL0     H30496   3.689   3.143   3.995 -1.8916 -1.3337 -0.0880
  221MOL0     H30497   3.675   3.313   3.970  0.9200 -0.8025  0.1482
  221MOL0     H30498   3.555   3.231   4.075  0.6302  0.2917  1.8790
  222MOL0     O30499   8.369   0.110  10.269  0.3367 -0.6752  0.6397
  222MOL0     C30500   8.333   0.221  10.306  0.0833 -0.8045 -0.3457
  222MOL0     O30501   8.352   0.277  10.425 -0.8356 -0.1259  0.5879
  222MOL0     C30502   8.436   0.225  10.521 -0.4523  0.3764  0.2628
  222MOL0     C30503   8.405   0.240  10.662  0.6925  0.0584  1.5730
  222MOL0     C30504   8.476   0.161  10.748 -0.2691 -0.9481 -0.0985
  222MOL0     C30505   8.583   0.075  10.715 -0.1429 -0.6544  0.4260
  222MOL0     O30506   8.652   0.004  10.805  0.1445 -0.0279 -0.0459
  222MOL0     C30507   8.797   0.003  10.800 -0.5866  0.1982 -0.5363
  222MOL0     C30508   8.838  -0.029  10.948 -0.7910 -0.4166 -0.0641
  222MOL0     C30509   8.835   0.094  11.034 -0.6700  0.8563 -0.1629
  222MOL0     C30510   8.952   0.084  11.141 -0.8327 -0.7533 -0.7447
  222MOL0     C30511   8.986   0.215  11.216  0.7842 -0.1925  0.4680
  222MOL0     C30512   9.067   0.183  11.346  0.4340 -0.5007  0.8043
  222MOL0     C30513   9.119   0.316  11.405 -0.5892  0.1669 -0.1706
  222MOL0     C30514   9.219   0.270  11.512  0.0215 -0.5255  0.0112
  222MOL0     N30515   9.294   0.391  11.558 -1.2830  0.2140  0.3825
  222MOL0     C30516   9.361   0.482  11.488 -0.5409  0.5796 -0.7702
  222MOL0     C30517   9.377   0.578  11.577  0.0125  0.3499 -0.5459
  222MOL0     C30518   9.424   0.714  11.555  0.1873 -0.2196 -1.1046
  222MOL0     C30519   9.493   0.783  11.673 -0.1656  0.4873 -0.8031
  222MOL0     C30520   9.601   0.687  11.734 -0.9768  0.5513  0.6836
  222MOL0     C30521   9.692   0.764  11.833  0.6606  0.4698  0.3540
  222MOL0     O30522   9.798   0.824  11.757 -0.1274  0.7945 -0.1498
  222MOL0     C30523   9.860   0.929  11.816  0.0001 -0.6480 -0.2298
  222MOL0     C30524   9.972   0.975  11.756 -0.1820 -0.0330 -0.5906
  222MOL0     C30525  10.055   1.074  11.806 -0.0576 -0.1094  0.6153
  222MOL0     C30526  10.148   1.139  11.703 -1.1355  1.1592 -0.3162
  222MOL0     C30527  10.029   1.124  11.935  0.2179 -0.6795  0.3231
  222MOL0     C30528  10.123   1.220  11.997  0.5534 -0.5401  0.2451
  222MOL0     O30529  10.230   1.273  11.930 -0.9495 -0.6436  0.8204
  222MOL0     C30530  10.286   1.395  11.954  0.0739 -1.1435  0.6626
  222MOL0     C30531  10.263   1.484  12.064 -0.0817 -0.1583 -1.3664
  222MOL0     C30532  10.303   1.616  12.065 -0.2670 -0.5884  0.0779
  222MOL0     C30533  10.391   1.669  11.966 -0.5395  0.1806  0.0996
  222MOL0     O30534  10.432   1.797  11.989  0.6316 -0.2749  0.0889
  222MOL0     C30535  10.507   1.859  11.880 -1.2295  1.1863 -0.4537
  222MOL0     C30536  10.523   2.013  11.886 -0.1042 -0.0904 -0.4818
  222MOL0     C30537  10.386   2.081  11.853  0.0985  0.8478 -0.5694
  222MOL0     C30538  10.391   2.232  11.862 -0.3852  0.6228 -0.5612
  222MOL0     C30539  10.509   2.296  11.781  0.7080 -0.5772  0.1699
  222MOL0     C30540  10.489   2.445  11.749 -0.0682 -0.6783  0.5218
  222MOL0     C30541  10.548   2.532  11.855 -0.0674  0.9224  0.3922
  222MOL0     C30542  10.529   2.681  11.825 -0.0749  0.5127 -1.5567
  222MOL0    Cl30543  10.355   2.722  11.820  0.0173  0.0234  0.2211
  222MOL0     C30544  10.429   1.581  11.859 -0.8998 -0.0296 -0.4080
  222MOL0     C30545  10.376   1.451  11.850  0.1576  0.1348  0.4730
  222MOL0     O30546  10.104   1.239  12.114 -0.5560  0.0598  0.0369
  222MOL0     C30547   9.920   1.069  11.999 -0.4753  0.0925  0.0126
  222MOL0     C30548   9.840   0.973  11.945  0.9200 -0.7586 -0.0789
  222MOL0     N30549   9.312   0.551  11.697  0.3825  0.1550  0.1510
  222MOL0     N30550   9.267   0.431  11.687  0.6651 -0.4765  0.0489
  222MOL0     C30551   8.616   0.067  10.581 -0.6193  0.3711 -0.5014
  222MOL0     C30552   8.550   0.141  10.485  0.2426  0.1068 -0.3474
  222MOL0     C30553   8.267   0.308  10.203 -0.6496  0.6648  0.0882
  222MOL0     C30554   8.169   0.392  10.247 -0.7203  0.1180  0.6415
  222MOL0     C30555   8.116   0.494  10.161 -0.9073 -0.1810  1.1371
  222MOL0     C30556   8.155   0.514  10.028  0.1439  0.5036 -0.1191
  222MOL0     O30557   8.108   0.612   9.950 -0.4058 -0.7430 -0.6843
  222MOL0     C30558   8.094   0.596   9.806 -0.3920  0.2810 -0.4746
  222MOL0     C30559   8.210   0.643   9.720  0.8456 -0.4459 -0.4012
  222MOL0     C30560   8.241   0.792   9.744 -0.5104  0.6770  0.7598
  222MOL0     C30561   8.384   0.822   9.710 -0.0505  0.3379  0.2640
  222MOL0     C30562   8.415   0.961   9.739 -0.6160 -1.1151  0.1771
  222MOL0     C30563   8.448   1.074   9.775  0.2712 -0.0822 -0.1701
  222MOL0     C30564   8.245   0.420   9.986 -0.3550  0.4530 -0.6182
  222MOL0     C30565   8.300   0.321  10.064 -0.8562 -0.3748  0.1226
  222MOL0     C30566   8.423   0.249  10.005 -0.5158  0.3807  0.7231
  222MOL0     H30567   8.319   0.300  10.689 -0.5854 -0.8287 -0.2912
  222MOL0     H30568   8.441   0.159  10.851  1.8123 -2.5379  0.6326
  222MOL0     H30569   8.842   0.095  10.763  4.9777 -2.3716 -1.1147
  222MOL0     H30570   8.844  -0.061  10.725 -0.5215 -2.6047  1.6853
  222MOL0     H30571   8.792  -0.114  10.999 -2.4163  0.8079  0.6096
  222MOL0     H30572   8.942  -0.065  10.948 -0.9966 -1.0481 -1.1188
  222MOL0     H30573   8.861   0.177  10.967  0.8111  3.2805  3.1500
  222MOL0     H30574   8.736   0.123  11.069 -1.7798 -0.6404 -1.8511
  222MOL0     H30575   8.942   0.008  11.220  2.5067  1.4950  2.1363
  222MOL0     H30576   9.049   0.050  11.103  1.0301  1.6547  1.4790
  222MOL0     H30577   8.899   0.275  11.246  0.1102  0.0340 -1.8047
  222MOL0     H30578   9.049   0.283  11.159 -3.6177  2.5025 -1.7488
  222MOL0     H30579   9.014   0.120  11.419  1.0556 -0.2381  1.4914
  222MOL0     H30580   9.147   0.118  11.310  1.3375  1.2300 -0.4527
  222MOL0     H30581   9.045   0.384  11.448 -0.6810  2.7838 -3.9833
  222MOL0     H30582   9.177   0.368  11.329  1.7043 -0.8666  0.7730
  222MOL0     H30583   9.166   0.219  11.593  1.4674  0.2670  1.5110
  222MOL0     H30584   9.294   0.206  11.465 -0.3947 -1.4762  0.6036
  222MOL0     H30585   9.388   0.468  11.384 -2.8097  1.1363 -1.4818
  222MOL0     H30586   9.342   0.776  11.516 -0.5852 -2.3411 -3.0929
  222MOL0     H30587   9.492   0.716  11.469 -0.4198  1.8744 -1.5907
  222MOL0     H30588   9.534   0.876  11.633 -0.8545  2.0491  1.8495
  222MOL0     H30589   9.411   0.804  11.743 -1.8838 -1.7366 -2.0439
  222MOL0     H30590   9.557   0.607  11.794  1.9177 -0.0201  2.2473
  222MOL0     H30591   9.660   0.630  11.661  0.1529 -2.2108  3.5145
  222MOL0     H30592   9.630   0.837  11.886 -0.0253 -0.2483  0.5589
  222MOL0     H30593   9.733   0.691  11.903  0.5595 -0.5257 -0.5937
  222MOL0     H30594  10.002   0.935  11.659  1.1801 -1.6751  0.4547
  222MOL0     H30595  10.134   1.099  11.602  0.2858  1.7796 -0.7807
  222MOL0     H30596  10.252   1.115  11.727 -1.8753 -0.7969  1.2612
  222MOL0     H30597  10.127   1.246  11.698 -0.2226  1.4271  1.0271
  222MOL0     H30598  10.203   1.460  12.151 -0.0906 -1.1338 -1.6287
  222MOL0     H30599  10.280   1.668  12.157 -2.3041  0.4417 -0.9553
  222MOL0     H30600  10.609   1.820  11.885 -1.4945  0.6238  2.9243
  222MOL0     H30601  10.466   1.835  11.782  0.5690 -0.0852 -0.9516
  222MOL0     H30602  10.554   2.039  11.987  2.1556 -4.3236  0.1209
  222MOL0     H30603  10.590   2.059  11.812 -0.3314  1.4214  0.2198
  222MOL0     H30604  10.322   2.046  11.935  1.7583 -2.5833 -0.5587
  222MOL0     H30605  10.356   2.044  11.755 -0.1733 -5.1749  1.4120
  222MOL0     H30606  10.409   2.260  11.966 -2.5684 -1.5760  0.5090
  222MOL0     H30607  10.293   2.272  11.837 -1.1836  0.4665  2.0146
  222MOL0     H30608  10.603   2.290  11.838  1.5202  0.9563 -0.9481
  222MOL0     H30609  10.527   2.230  11.696 -1.7316 -2.3546  0.9396
  222MOL0     H30610  10.381   2.455  11.734 -0.5031 -2.0026  2.4133
  222MOL0     H30611  10.540   2.451  11.652 -1.6818 -1.1952 -0.3927
  222MOL0     H30612  10.656   2.517  11.863 -0.0460  1.6935  2.0914
  222MOL0     H30613  10.509   2.513  11.956  2.3448  0.0269  1.2410
  222MOL0     H30614  10.577   2.718  11.734  0.9081  0.6389 -0.9989
  222MOL0     H30615  10.581   2.728  11.909  1.4724 -0.7373 -1.7741
  222MOL0     H30616  10.492   1.620  11.780 -2.2902 -2.1156 -2.7019
  222MOL0     H30617  10.395   1.383  11.768 -1.6950 -0.2759  0.3260
  222MOL0     H30618   9.904   1.105  12.100  0.4162  0.3423  0.0668
  222MOL0     H30619   9.760   0.944  12.012  1.5286 -0.1091  0.9733
  222MOL0     H30620   8.692  -0.004  10.551 -2.0234 -1.7254  0.6331
  222MOL0     H30621   8.574   0.129  10.380 -1.1019 -2.1317 -0.4734
  222MOL0     H30622   8.134   0.393  10.350 -0.8418 -1.2170  0.6309
  222MOL0     H30623   8.038   0.561  10.195 -1.6710 -1.4321  1.9663
  222MOL0     H30624   8.076   0.492   9.778  1.1114  0.3828 -1.9752
  222MOL0     H30625   8.005   0.649   9.772 -1.7619 -1.1281  0.7419
  222MOL0     H30626   8.191   0.623   9.615 -0.9828 -0.5712 -0.0755
  222MOL0     H30627   8.296   0.581   9.746  0.1067 -0.4807  2.2604
  222MOL0     H30628   8.183   0.853   9.675  0.6623 -0.8726 -1.7468
  222MOL0     H30629   8.218   0.817   9.848  3.8180 -1.1107  2.4122
  222MOL0     H30630   8.406   0.803   9.605 -0.8579  2.9178 -0.4423
  222MOL0     H30631   8.452   0.760   9.769  2.1764  1.4311 -1.0039
  222MOL0     H30632   8.469   1.175   9.805 -1.3987  1.4508 -3.6161
  222MOL0     H30633   8.286   0.424   9.886  0.9752  2.9581 -0.0645
  222MOL0     H30634   8.385   0.148   9.988  1.8287 -0.2429 -1.3745
  222MOL0     H30635   8.450   0.285   9.906 -0.3797 -2.8970 -0.5407
  222MOL0     H30636   8.503   0.245  10.080  0.9293 -1.3962 -0.8291
  223MOL0     O30637   4.573   4.692   9.614 -0.4349  0.3678 -0.6019
  223MOL0     C30638   4.676   4.631   9.642 -0.8084  1.0079 -0.4806
  223MOL0     O30639   4.720   4.601   9.770  0.4882  0.0016 -0.3392
  223MOL0     C30640   4.633   4.629   9.878  0.5812  0.1780 -0.0527
  223MOL0     C30641   4.698   4.659   9.995  0.2618  0.1758 -0.0628
  223MOL0     C30642   4.627   4.692  10.116 -0.5354  0.0400 -0.2193
  223MOL0     C30643   4.489   4.694  10.121  1.2649 -1.1717 -0.2809
  223MOL0     O30644   4.426   4.734  10.234  0.7674 -0.5869  0.7078
  223MOL0     C30645   4.389   4.628  10.319 -0.7077  1.5470 -0.3141
  223MOL0     C30646   4.336   4.687  10.450 -0.4885  0.4901  1.1258
  223MOL0     C30647   4.438   4.785  10.513  0.0822  0.0112 -0.3462
  223MOL0     C30648   4.392   4.822  10.654  0.3037  0.0170 -1.0913
  223MOL0     C30649   4.504   4.899  10.723 -0.3745 -0.1267  0.6993
  223MOL0     C30650   4.449   4.968  10.850 -0.3699  0.6797 -0.8309
  223MOL0     C30651   4.553   5.065  10.893  0.2231  0.3165  0.2259
  223MOL0     C30652   4.511   5.103  11.032 -0.9979 -0.3644  0.3708
  223MOL0     N30653   4.586   5.203  11.103 -0.2406 -0.0454  0.7275
  223MOL0     C30654   4.723   5.207  11.127  0.2015 -0.4461  0.5956
  223MOL0     C30655   4.742   5.318  11.194 -0.7476 -0.5075  0.1448
  223MOL0     C30656   4.878   5.368  11.243 -0.0870  0.1399 -0.5317
  223MOL0     C30657   4.917   5.303  11.378  0.3916  0.1305  0.0192
  223MOL0     C30658   4.969   5.155  11.364  0.2551  0.2266  0.3719
  223MOL0     C30659   5.005   5.087  11.491  0.1640 -0.1773  0.1953
  223MOL0     O30660   5.068   4.958  11.477  1.0130  0.6336  0.5934
  223MOL0     C30661   5.190   4.932  11.441 -0.8378 -0.1017  0.3030
  223MOL0     C30662   5.301   5.012  11.490 -0.6547 -0.3754 -0.4401
  223MOL0     C30663   5.429   4.962  11.446 -0.4745 -1.6983  0.5652
  223MOL0     C30664   5.546   5.039  11.494  0.7019  0.4429 -0.1336
  223MOL0     C30665   5.451   4.846  11.373  0.6612 -0.5748 -1.4132
  223MOL0     C30666   5.586   4.790  11.334  0.4679 -0.1272  0.8116
  223MOL0     O30667   5.702   4.845  11.395  0.7689  0.7990 -1.6981
  223MOL0     C30668   5.828   4.821  11.347  0.3483  0.1707  0.7438
  223MOL0     C30669   5.926   4.874  11.427  0.2347  0.1348  1.6110
  223MOL0     C30670   6.067   4.862  11.391 -0.3278  0.2038 -0.2433
  223MOL0     C30671   6.105   4.794  11.276  1.3473  0.2566  0.3558
  223MOL0     O30672   6.240   4.784  11.246  0.1850 -0.2132  0.3082
  223MOL0     C30673   6.267   4.773  11.105  0.6730 -0.5876 -0.2101
  223MOL0     C30674   6.403   4.829  11.079  0.6907 -0.3609  0.2641
  223MOL0     C30675   6.525   4.747  11.117  0.1399  0.8421 -0.3806
  223MOL0     C30676   6.648   4.760  11.021 -0.7230  0.2712 -0.4086
  223MOL0     C30677   6.710   4.894  11.045  0.8041 -0.0283 -0.0857
  223MOL0     C30678   6.820   4.908  10.935  0.2789 -0.5587  0.7995
  223MOL0     C30679   6.897   5.042  10.955 -0.2356  0.0722  0.3673
  223MOL0     C30680   6.812   5.158  10.939  0.0657  0.6334 -0.4518
  223MOL0    Cl30681   6.950   5.285  10.963 -0.4563 -0.1612 -0.4092
  223MOL0     C30682   6.002   4.730  11.200  0.3909  0.8075 -0.1363
  223MOL0     C30683   5.871   4.748  11.234  0.8159 -0.0173  0.0633
  223MOL0     O30684   5.581   4.706  11.243  0.8875 -0.7054 -0.2820
  223MOL0     C30685   5.337   4.777  11.338  0.7201  0.4120 -0.1004
  223MOL0     C30686   5.209   4.815  11.364  0.4011  0.1004 -0.2256
  223MOL0     N30687   4.621   5.378  11.221 -0.1653 -0.0320 -0.4003
  223MOL0     N30688   4.531   5.303  11.169 -0.2141  0.5787 -0.0891
  223MOL0     C30689   4.420   4.657  10.006  0.5160  0.1952 -0.7943
  223MOL0     C30690   4.489   4.625   9.885  0.0981  0.0549  0.1044
  223MOL0     C30691   4.773   4.589   9.541  0.3212 -0.3483  0.4696
  223MOL0     C30692   4.781   4.676   9.422  0.1167 -0.2197 -1.1973
  223MOL0     C30693   4.875   4.654   9.324  0.4387 -0.5404  0.1764
  223MOL0     C30694   4.973   4.550   9.347  0.1024  0.0290  0.7549
  223MOL0     O30695   5.066   4.511   9.250  0.4072 -0.4206 -0.4520
  223MOL0     C30696   5.099   4.601   9.144  0.5723  0.4535 -0.1903
  223MOL0     C30697   5.249   4.556   9.099 -0.2629 -0.6715 -0.7908
  223MOL0     C30698   5.345   4.564   9.227  0.6156  0.3322  0.2175
  223MOL0     C30699   5.332   4.689   9.312 -0.4517 -0.3688  0.1699
  223MOL0     C30700   5.362   4.803   9.222 -0.1557  0.4254  0.3745
  223MOL0     C30701   5.380   4.888   9.142  0.9131  0.3717  0.7311
  223MOL0     C30702   4.963   4.471   9.461  0.4038 -0.7179  0.5296
  223MOL0     C30703   4.866   4.488   9.558 -0.3133  0.6121  1.0966
  223MOL0     C30704   4.859   4.383   9.657 -0.5244  1.1524 -0.2282
  223MOL0     H30705   4.806   4.664   9.984  0.1586  2.1868 -0.5261
  223MOL0     H30706   4.681   4.708  10.208 -2.8919  1.1762  1.0637
  223MOL0     H30707   4.473   4.564  10.346 -0.8714  2.6485  3.2490
  223MOL0     H30708   4.310   4.570  10.271  0.0793  0.9898 -0.9613
  223MOL0     H30709   4.250   4.749  10.423  0.8371  1.7792 -0.3486
  223MOL0     H30710   4.318   4.612  10.527  2.8733 -0.8366  0.7931
  223MOL0     H30711   4.538   4.741  10.504 -1.3975 -3.4146 -1.8660
  223MOL0     H30712   4.426   4.878  10.458 -0.2266 -1.1816 -2.3972
  223MOL0     H30713   4.304   4.887  10.650 -0.2103 -0.6881 -1.3495
  223MOL0     H30714   4.379   4.738  10.721  0.4509  1.4540  0.8235
  223MOL0     H30715   4.533   4.978  10.653 -2.9716 -1.4002 -2.0079
  223MOL0     H30716   4.597   4.841  10.734  0.1171  0.2472 -1.1724
  223MOL0     H30717   4.351   5.014  10.833  0.4425  2.9266  0.2064
  223MOL0     H30718   4.431   4.893  10.927 -1.6276  3.0150  1.2817
  223MOL0     H30719   4.543   5.155  10.831 -0.3337  1.0150  1.2829
  223MOL0     H30720   4.650   5.016  10.896 -0.5074 -1.1212  1.1849
  223MOL0     H30721   4.413   5.148  11.016 -0.8009 -0.1433 -0.2825
  223MOL0     H30722   4.501   5.009  11.086  2.9215 -1.0218  0.2615
  223MOL0     H30723   4.794   5.136  11.087  0.4679 -0.5933  1.3126
  223MOL0     H30724   4.865   5.476  11.257 -0.8321 -0.3550  4.4525
  223MOL0     H30725   4.960   5.341  11.178  0.2372 -1.2602  0.4233
  223MOL0     H30726   5.000   5.368  11.408  0.4473  0.5384 -0.9770
  223MOL0     H30727   4.844   5.312  11.459 -0.7639  0.3768 -1.0086
  223MOL0     H30728   4.889   5.099  11.314  0.7709 -1.6833  1.6081
  223MOL0     H30729   5.048   5.149  11.288  1.0336  0.8937  1.1054
  223MOL0     H30730   5.072   5.157  11.542 -0.1846  0.0206  0.3816
  223MOL0     H30731   4.918   5.079  11.557  0.0343 -2.5737 -0.1698
  223MOL0     H30732   5.294   5.094  11.562 -1.8406  1.0709 -2.1064
  223MOL0     H30733   5.616   4.983  11.557  0.1812 -0.6028 -0.4496
  223MOL0     H30734   5.518   5.125  11.556 -1.1836  0.0029 -0.3158
  223MOL0     H30735   5.590   5.072  11.400 -1.5499  0.9797 -1.0548
  223MOL0     H30736   5.898   4.931  11.515  0.4792  0.8198  1.2514
  223MOL0     H30737   6.142   4.924  11.439  0.9568 -1.2365 -0.3235
  223MOL0     H30738   6.263   4.672  11.062 -0.1784 -0.4270 -0.5310
  223MOL0     H30739   6.196   4.828  11.043 -1.0150 -1.2490  1.0839
  223MOL0     H30740   6.415   4.835  10.970 -0.9812 -1.1925  0.0108
  223MOL0     H30741   6.402   4.931  11.119 -1.8357  0.0712 -0.6987
  223MOL0     H30742   6.507   4.639  11.117  0.3859  0.7980 -0.5399
  223MOL0     H30743   6.554   4.762  11.222 -0.6274 -0.3201  0.0156
  223MOL0     H30744   6.613   4.750  10.918 -2.0125  0.0561  0.0384
  223MOL0     H30745   6.720   4.679  11.038 -2.1450 -0.7958  0.7749
  223MOL0     H30746   6.632   4.970  11.046  1.3280  0.5553 -1.2318
  223MOL0     H30747   6.762   4.901  11.141 -1.1322 -0.8673  1.0762
  223MOL0     H30748   6.777   4.903  10.835 -1.7258 -0.4529  1.6114
  223MOL0     H30749   6.890   4.824  10.940  0.8746 -0.4470 -2.9814
  223MOL0     H30750   6.971   5.050  10.875  1.5089 -4.2835  1.2871
  223MOL0     H30751   6.948   5.045  11.052  2.4234  2.0473 -0.9725
  223MOL0     H30752   6.742   5.154  11.022 -0.9305 -0.3424 -1.3087
  223MOL0     H30753   6.769   5.180  10.841 -1.8478  1.7599  0.5840
  223MOL0     H30754   6.040   4.676  11.114 -2.1906 -1.6902  0.1504
  223MOL0     H30755   5.810   4.697  11.160 -1.0349 -2.6579  3.0780
  223MOL0     H30756   5.337   4.682  11.285 -4.3547  0.9196 -1.5213
  223MOL0     H30757   5.119   4.762  11.336  1.7575 -2.6260  0.2156
  223MOL0     H30758   4.312   4.646  10.010  0.2788  1.9201 -1.8316
  223MOL0     H30759   4.429   4.594   9.800 -0.0190  0.8002 -0.0911
  223MOL0     H30760   4.699   4.747   9.411 -0.5965 -1.1714 -2.2478
  223MOL0     H30761   4.882   4.727   9.244 -1.2812 -1.4707 -0.8845
  223MOL0     H30762   5.034   4.587   9.057  1.1827  2.1926 -0.9891
  223MOL0     H30763   5.076   4.706   9.162 -4.5756 -0.2082 -1.3300
  223MOL0     H30764   5.282   4.632   9.027  0.6542  1.1893  1.4404
  223MOL0     H30765   5.240   4.461   9.047 -0.9883 -0.9769 -0.1372
  223MOL0     H30766   5.335   4.482   9.299 -1.0748  1.9542  1.9352
  223MOL0     H30767   5.443   4.532   9.189 -0.0980 -3.0299  0.8140
  223MOL0     H30768   5.404   4.674   9.394 -1.3522 -0.3810  0.9713
  223MOL0     H30769   5.232   4.696   9.355  0.0822 -0.1848  1.4395
  223MOL0     H30770   5.404   4.968   9.075 -0.5576  0.6068  0.4379
  223MOL0     H30771   5.024   4.382   9.465  2.0378  0.3629  0.7273
  223MOL0     H30772   4.933   4.392   9.737  0.0272 -1.5515 -0.3328
  223MOL0     H30773   4.764   4.385   9.710 -1.8008 -1.1304 -2.2419
  223MOL0     H30774   4.874   4.285   9.610 -0.8175  1.4032 -0.8615
  224MOL0     O30775   3.331   4.257  11.307 -0.9699 -0.3601 -0.0696
  224MOL0     C30776   3.266   4.207  11.398  0.2617 -0.3534  0.6857
  224MOL0     O30777   3.138   4.171  11.377  0.1275 -0.0609  0.0043
  224MOL0     C30778   3.099   4.125  11.249  0.1709  0.9529 -0.6428
  224MOL0     C30779   2.982   4.180  11.194 -0.2252 -0.5373 -0.7526
  224MOL0     C30780   2.932   4.129  11.067 -0.6950 -0.4138 -0.5547
  224MOL0     C30781   2.998   4.022  11.002  0.6300  0.7739 -0.0474
  224MOL0     O30782   2.940   3.954  10.899  0.8013 -0.1310  0.3215
  224MOL0     C30783   2.798   3.968  10.858 -0.1813 -0.6993 -0.3417
  224MOL0     C30784   2.794   3.939  10.713 -0.5585  0.4444  0.1848
  224MOL0     C30785   2.651   3.931  10.660 -0.9451  0.9169  0.9939
  224MOL0     C30786   2.650   3.867  10.519  0.0055 -0.1157 -0.1913
  224MOL0     C30787   2.514   3.789  10.502  0.0695  0.0535  0.4574
  224MOL0     C30788   2.515   3.706  10.367  0.5100  0.3859 -0.0796
  224MOL0     C30789   2.528   3.794  10.253  0.9026 -0.4082 -0.5779
  224MOL0     C30790   2.483   3.719  10.118  0.2847 -0.1598 -1.0485
  224MOL0     N30791   2.539   3.780  10.001 -0.8983  0.5927  0.3720
  224MOL0     C30792   2.671   3.756   9.953  0.4284 -0.0593 -0.0767
  224MOL0     C30793   2.690   3.844   9.845  0.8806 -0.5016  0.6061
  224MOL0     C30794   2.802   3.873   9.751 -0.6014 -0.1629  1.3248
  224MOL0     C30795   2.898   3.760   9.736  0.0380 -0.4122  0.0567
  224MOL0     C30796   2.820   3.633   9.695 -0.7522 -0.5766  0.1441
  224MOL0     C30797   2.911   3.539   9.615  0.1283 -0.4393 -0.5428
  224MOL0     O30798   3.034   3.519   9.685 -0.4094  0.3163 -0.4628
  224MOL0     C30799   3.128   3.429   9.649  0.6744 -0.0189  0.5713
  224MOL0     C30800   3.112   3.341   9.549  0.0372  0.0331 -0.2356
  224MOL0     C30801   3.225   3.260   9.506  0.1091  1.0237 -0.4188
  224MOL0     C30802   3.208   3.191   9.370  0.5175  0.6153  0.9334
  224MOL0     C30803   3.344   3.266   9.580 -0.7550  0.3735  0.5981
  224MOL0     C30804   3.470   3.179   9.549 -0.2684 -0.7223  0.5086
  224MOL0     O30805   3.503   3.166   9.413  0.3694 -0.1108 -1.1364
  224MOL0     C30806   3.630   3.163   9.360 -0.5233 -0.6629 -0.4989
  224MOL0     C30807   3.731   3.239   9.418  0.1640 -0.0911  0.6284
  224MOL0     C30808   3.861   3.251   9.373 -0.1028  0.6015  0.3595
  224MOL0     C30809   3.902   3.176   9.253 -0.5102  0.2393 -0.6044
  224MOL0     O30810   4.021   3.186   9.173  1.0495  0.3618 -1.0506
  224MOL0     C30811   4.124   3.280   9.199  0.1363 -0.3965  0.0163
  224MOL0     C30812   4.181   3.332   9.069 -0.6625  0.5328 -0.0522
  224MOL0     C30813   4.286   3.235   9.013  0.1040 -0.8314  0.4393
  224MOL0     C30814   4.333   3.260   8.870 -0.5337 -0.4672 -0.2273
  224MOL0     C30815   4.456   3.178   8.831 -0.4921 -0.6471 -0.0259
  224MOL0     C30816   4.441   3.033   8.790 -0.0622  0.1010  0.0357
  224MOL0     C30817   4.582   2.975   8.761  0.1778 -0.0672 -0.3681
  224MOL0     C30818   4.584   2.839   8.696  0.2488  0.7748 -0.6245
  224MOL0    Cl30819   4.747   2.781   8.686  0.3090  0.4854 -0.0039
  224MOL0     C30820   3.796   3.106   9.193  0.2978  0.1108  0.2066
  224MOL0     C30821   3.664   3.102   9.246 -0.2215  0.2688  0.0949
  224MOL0     O30822   3.550   3.157   9.638 -1.5005  0.2773  0.1302
  224MOL0     C30823   3.357   3.346   9.696  0.7659 -0.1497 -0.3321
  224MOL0     C30824   3.246   3.424   9.725 -0.2479 -0.2768  0.2344
  224MOL0     N30825   2.571   3.910   9.831  0.9008  0.0653  0.1965
  224MOL0     N30826   2.488   3.880   9.920  0.2277 -0.1064 -0.3172
  224MOL0     C30827   3.117   3.970  11.060  0.6146  1.2617 -0.4662
  224MOL0     C30828   3.164   4.015  11.184 -0.1459 -0.5165 -0.4216
  224MOL0     C30829   3.315   4.224  11.534  0.0972  0.4229 -0.2396
  224MOL0     C30830   3.213   4.210  11.636 -0.0309  1.1572  0.5069
  224MOL0     C30831   3.248   4.174  11.760  0.4658 -0.0730 -0.0510
  224MOL0     C30832   3.381   4.166  11.803  0.5765  0.4563 -0.9076
  224MOL0     O30833   3.421   4.136  11.933 -0.1785 -0.7951 -0.4105
  224MOL0     C30834   3.319   4.096  12.025 -1.4179  0.2374  0.3806
  224MOL0     C30835   3.392   4.061  12.158  0.4244  0.3757  0.2481
  224MOL0     C30836   3.432   3.915  12.159 -0.7136 -0.6161  0.2340
  224MOL0     C30837   3.560   3.897  12.240  1.0815 -0.0823  0.5401
  224MOL0     C30838   3.580   3.749  12.266  0.3071  0.0042 -0.5842
  224MOL0     C30839   3.600   3.635  12.314  0.0688 -0.0503 -0.4240
  224MOL0     C30840   3.481   4.194  11.713 -0.3475  0.0868 -0.3920
  224MOL0     C30841   3.456   4.216  11.578  0.2637 -0.1039 -0.7413
  224MOL0     C30842   3.585   4.199  11.491 -0.3379 -0.3689 -0.3034
  224MOL0     H30843   2.938   4.267  11.241  1.5704 -0.8148  1.6324
  224MOL0     H30844   2.838   4.174  11.037 -0.6515 -0.5090 -0.8313
  224MOL0     H30845   2.759   4.067  10.883  2.6945  0.5661 -0.3615
  224MOL0     H30846   2.739   3.890  10.905  2.4144 -1.1162  2.5271
  224MOL0     H30847   2.861   4.011  10.666  2.5049 -1.4955  1.2768
  224MOL0     H30848   2.836   3.839  10.695  0.3318  0.6790  0.9276
  224MOL0     H30849   2.585   3.878  10.730 -1.8339  0.3569 -0.2171
  224MOL0     H30850   2.605   4.029  10.648 -4.5114 -0.6508  0.4401
  224MOL0     H30851   2.662   3.955  10.456  0.7729 -0.9899 -1.3124
  224MOL0     H30852   2.733   3.799  10.496  0.2959 -2.4682  5.8621
  224MOL0     H30853   2.427   3.854  10.510 -0.2749 -0.3401 -0.0605
  224MOL0     H30854   2.507   3.717  10.584 -0.8798 -2.3365 -1.5900
  224MOL0     H30855   2.599   3.635  10.368 -0.3923 -0.7419 -1.2936
  224MOL0     H30856   2.426   3.647  10.349  1.4807 -1.3364  0.5872
  224MOL0     H30857   2.635   3.815  10.243  1.5118 -3.5914 -1.9702
  224MOL0     H30858   2.469   3.885  10.259 -0.4638 -1.3635  1.7170
  224MOL0     H30859   2.520   3.616  10.126 -1.4245 -0.6484  1.5068
  224MOL0     H30860   2.375   3.703  10.109 -0.2871  2.3581  0.3877
  224MOL0     H30861   2.738   3.677   9.986  2.4523  0.8946 -1.6633
  224MOL0     H30862   2.861   3.962   9.774  1.7311 -1.0032 -0.8852
  224MOL0     H30863   2.752   3.897   9.656  0.4390  1.0086  1.0385
  224MOL0     H30864   2.963   3.781   9.651 -1.6388  0.4969 -1.0480
  224MOL0     H30865   2.963   3.750   9.824 -0.1084  0.7418  0.3183
  224MOL0     H30866   2.795   3.571   9.782  1.2705 -1.7224 -0.0193
  224MOL0     H30867   2.737   3.664   9.630 -0.6193  1.0162  0.6978
  224MOL0     H30868   2.849   3.449   9.605  0.6032 -0.7578 -0.6777
  224MOL0     H30869   2.930   3.590   9.520  1.1758  0.6299  0.1996
  224MOL0     H30870   3.017   3.330   9.496 -0.5790  0.2227  0.7915
  224MOL0     H30871   3.116   3.227   9.323  1.3924  0.1516 -1.2737
  224MOL0     H30872   3.209   3.082   9.372  1.1106  0.6186  0.9919
  224MOL0     H30873   3.287   3.233   9.308  0.5855  0.5989  1.0081
  224MOL0     H30874   3.712   3.286   9.514 -1.4802 -0.9249  0.7395
  224MOL0     H30875   3.937   3.302   9.431  5.3143 -2.9393 -2.5864
  224MOL0     H30876   4.074   3.363   9.250  1.6541  0.1262  0.7195
  224MOL0     H30877   4.199   3.234   9.264 -2.3317 -1.0206  2.6461
  224MOL0     H30878   4.112   3.347   8.985 -1.0429 -2.2170 -0.3188
  224MOL0     H30879   4.233   3.426   9.090 -0.9126  0.5133  0.6822
  224MOL0     H30880   4.235   3.139   9.005  1.7392 -1.7172  0.1997
  224MOL0     H30881   4.378   3.222   9.070  1.0858  1.7986 -0.3852
  224MOL0     H30882   4.354   3.365   8.852 -0.1416 -0.9766 -3.2720
  224MOL0     H30883   4.251   3.236   8.802 -1.4956 -0.2872  0.8531
  224MOL0     H30884   4.517   3.230   8.756  1.0299  1.9987  2.7891
  224MOL0     H30885   4.522   3.187   8.918  0.0586 -1.2400 -0.3741
  224MOL0     H30886   4.383   3.033   8.698 -0.0083  4.1304 -0.1710
  224MOL0     H30887   4.385   2.978   8.866  1.9717  0.1892  1.7162
  224MOL0     H30888   4.642   2.974   8.853 -1.3436  3.9262  0.8926
  224MOL0     H30889   4.637   3.048   8.700 -0.6182 -0.0074 -1.0366
  224MOL0     H30890   4.541   2.850   8.596  0.2471 -1.6627 -0.9496
  224MOL0     H30891   4.519   2.767   8.747 -1.1975  1.9415 -0.7370
  224MOL0     H30892   3.821   3.058   9.099 -1.4053 -2.4070  0.9494
  224MOL0     H30893   3.584   3.059   9.187 -1.6927  3.4853 -0.4701
  224MOL0     H30894   3.433   3.341   9.773  2.0703 -1.5809 -1.6447
  224MOL0     H30895   3.248   3.484   9.816 -3.5189  0.2151  0.1189
  224MOL0     H30896   3.178   3.888  11.024 -2.5522 -1.9780  0.9280
  224MOL0     H30897   3.256   3.973  11.225 -0.0194  1.0521  0.9804
  224MOL0     H30898   3.107   4.220  11.619  0.1238 -0.1708 -1.5705
  224MOL0     H30899   3.175   4.151  11.837  2.6022  0.0333  2.1429
  224MOL0     H30900   3.240   4.172  12.027 -2.4568 -0.6442 -2.1942
  224MOL0     H30901   3.268   4.005  11.991  0.5943 -1.5830  1.9614
  224MOL0     H30902   3.322   4.082  12.240 -0.7142  3.5893 -1.3488
  224MOL0     H30903   3.478   4.128  12.162  1.7489 -1.3079  1.8302
  224MOL0     H30904   3.349   3.854  12.194 -1.4838  2.1011  3.7697
  224MOL0     H30905   3.453   3.885  12.056  1.3931  0.3370  0.3156
  224MOL0     H30906   3.552   3.957  12.331  3.2393 -1.0530  1.4656
  224MOL0     H30907   3.646   3.933  12.182  0.7244 -0.0807  0.0067
  224MOL0     H30908   3.620   3.539  12.359  2.5328  1.3874  1.8441
  224MOL0     H30909   3.585   4.193  11.744  0.2183 -2.8092 -2.0166
  224MOL0     H30910   3.659   4.278  11.512  0.6037 -1.8872  2.5513
  224MOL0     H30911   3.638   4.104  11.500  1.4277  0.7077  1.3180
  224MOL0     H30912   3.560   4.201  11.384 -1.2321  0.5372 -0.0926
  225MOL0     O30913   1.318   5.008   1.859 -0.1476 -0.2478  0.1475
  225MOL0     C30914   1.415   5.034   1.930  0.3086  0.3290 -0.1169
  225MOL0     O30915   1.432   5.144   2.005  0.1470  0.1857 -0.0445
  225MOL0     C30916   1.359   5.254   1.976 -0.6460 -0.8727  0.3975
  225MOL0     C30917   1.334   5.305   1.843 -0.0557  0.1660  0.0628
  225MOL0     C30918   1.247   5.417   1.837  0.3358  0.6394 -0.1949
  225MOL0     C30919   1.191   5.478   1.944  0.2591  0.8750 -0.5508
  225MOL0     O30920   1.099   5.584   1.920 -0.7898  0.2262  0.0781
  225MOL0     C30921   1.043   5.660   2.021  0.8543 -0.8541  0.4794
  225MOL0     C30922   0.979   5.787   1.961 -0.3839  0.4095  0.2315
  225MOL0     C30923   1.072   5.894   1.914  0.0945  0.3400 -0.0984
  225MOL0     C30924   0.996   6.026   1.875 -0.3455  0.2194 -0.0616
  225MOL0     C30925   1.082   6.146   1.847  0.3823 -0.3136  0.3872
  225MOL0     C30926   1.000   6.262   1.818  1.2335 -1.0807 -0.8248
  225MOL0     C30927   0.907   6.248   1.693 -0.3211 -0.1385 -0.2691
  225MOL0     C30928   0.868   6.384   1.652 -0.4282  0.8840  0.1040
  225MOL0     N30929   0.757   6.372   1.553  0.5207  0.1663  0.2429
  225MOL0     C30930   0.773   6.342   1.417  0.8178 -0.1219  0.0388
  225MOL0     C30931   0.659   6.292   1.369 -0.4861 -0.9248  0.0721
  225MOL0     C30932   0.632   6.265   1.227  0.4362 -0.7645 -0.6240
  225MOL0     C30933   0.628   6.118   1.207 -0.2254  1.1105  0.6449
  225MOL0     C30934   0.544   6.090   1.081 -0.5229  0.1545 -0.2941
  225MOL0     C30935   0.520   5.940   1.084 -0.4624 -0.9408 -0.2734
  225MOL0     O30936   0.630   5.864   1.035 -0.7249 -0.2552 -1.0005
  225MOL0     C30937   0.620   5.725   1.052 -0.2040  0.5083  0.2041
  225MOL0     C30938   0.500   5.662   1.059  0.7448  0.7202  1.0055
  225MOL0     C30939   0.492   5.525   1.058  0.2402 -0.1714 -0.3714
  225MOL0     C30940   0.355   5.467   1.048  0.0051 -0.4884 -0.5426
  225MOL0     C30941   0.612   5.443   1.061 -0.8590  0.5439  0.1925
  225MOL0     C30942   0.618   5.292   1.060  0.0021  0.6281  0.5240
  225MOL0     O30943   0.512   5.214   1.104 -0.8915 -0.3897  0.3019
  225MOL0     C30944   0.480   5.088   1.061 -0.8976  0.0860  0.2761
  225MOL0     C30945   0.546   5.004   0.968 -0.3673  0.3607 -0.2626
  225MOL0     C30946   0.506   4.875   0.925 -0.5116 -0.6289  0.1416
  225MOL0     C30947   0.387   4.820   0.969  0.3595  0.0729 -0.1314
  225MOL0     O30948   0.354   4.692   0.940 -0.4850  0.5466 -0.1006
  225MOL0     C30949   0.307   4.672   0.809 -0.7637  0.1315  0.2607
  225MOL0     C30950   0.269   4.528   0.778 -0.7984  0.2587 -0.5329
  225MOL0     C30951   0.131   4.487   0.837  0.6594  0.2160  0.5661
  225MOL0     C30952   0.086   4.333   0.828  0.8496  1.0376 -0.8340
  225MOL0     C30953  -0.052   4.301   0.884  0.5080  0.0250 -0.0513
  225MOL0     C30954  -0.120   4.164   0.823  0.0293 -1.0454  0.8139
  225MOL0     C30955  -0.260   4.178   0.785  0.0914  1.1444 -0.2466
  225MOL0     C30956  -0.315   4.047   0.754 -0.0856  0.1599 -0.2267
  225MOL0    Cl30957  -0.377   3.966   0.910  0.1407 -0.3188  0.2009
  225MOL0     C30958   0.336   4.884   1.082  0.0849  0.4754 -0.3457
  225MOL0     C30959   0.377   5.019   1.123 -0.6754  0.2889 -0.3419
  225MOL0     O30960   0.724   5.241   1.015  0.5273  0.0605 -0.2455
  225MOL0     C30961   0.732   5.520   1.066  0.1475  1.0024  0.4920
  225MOL0     C30962   0.728   5.650   1.050 -0.4114  0.2576  0.2899
  225MOL0     N30963   0.567   6.288   1.470 -0.5723 -0.0850 -0.3186
  225MOL0     N30964   0.621   6.336   1.583 -0.3151  0.4169 -0.1570
  225MOL0     C30965   1.245   5.448   2.069  0.1015  0.0138 -0.4373
  225MOL0     C30966   1.320   5.330   2.091  0.1631 -0.5062  0.4466
  225MOL0     C30967   1.510   4.919   1.934 -0.8780 -0.8211  0.3273
  225MOL0     C30968   1.619   4.929   2.031  0.4586  0.0554 -0.2579
  225MOL0     C30969   1.704   4.823   2.057  0.3390 -0.5606 -0.1436
  225MOL0     C30970   1.690   4.702   1.989 -0.1958  0.1852 -0.6754
  225MOL0     O30971   1.777   4.597   2.004 -0.5811  0.2727  0.6407
  225MOL0     C30972   1.869   4.596   2.111 -0.0405 -0.4480 -0.4868
  225MOL0     C30973   1.917   4.457   2.141 -0.9165  0.1008  0.5418
  225MOL0     C30974   2.067   4.448   2.143 -0.1138  0.8008 -0.1159
  225MOL0     C30975   2.147   4.508   2.028  1.1431 -1.0018  0.4638
  225MOL0     C30976   2.277   4.438   2.020 -0.8609  0.1411  0.3083
  225MOL0     C30977   2.376   4.366   1.998  0.9859 -0.6505 -0.7450
  225MOL0     C30978   1.599   4.697   1.884 -0.0430  0.3605 -0.3938
  225MOL0     C30979   1.508   4.806   1.853 -0.6289 -1.1471 -0.0428
  225MOL0     C30980   1.410   4.778   1.746  0.7602  1.1940  0.2848
  225MOL0     H30981   1.382   5.248   1.764 -0.0942 -2.5806  1.9015
  225MOL0     H30982   1.222   5.458   1.740  0.5055 -1.5311 -1.2324
  225MOL0     H30983   1.123   5.688   2.091  0.9040  1.8435 -0.5422
  225MOL0     H30984   0.965   5.592   2.057 -0.7634  1.7062  2.1558
  225MOL0     H30985   0.919   5.756   1.875 -1.3157  3.6873 -0.4366
  225MOL0     H30986   0.897   5.819   2.026 -1.4282 -0.0397 -0.8304
  225MOL0     H30987   1.150   5.923   1.985  2.1095  0.3192 -2.1903
  225MOL0     H30988   1.135   5.864   1.829  2.3136  1.3555  1.0917
  225MOL0     H30989   0.923   6.007   1.796 -0.7872 -2.1894  0.8434
  225MOL0     H30990   0.937   6.049   1.965  1.7316 -0.4326  1.5411
  225MOL0     H30991   1.142   6.119   1.760 -0.0727 -1.3940  0.3894
  225MOL0     H30992   1.157   6.173   1.922 -1.9298  0.4870  2.5240
  225MOL0     H30993   0.939   6.274   1.908  4.2361 -0.1927  1.2223
  225MOL0     H30994   1.059   6.352   1.803 -0.6845 -0.0178 -2.5296
  225MOL0     H30995   0.815   6.193   1.715 -1.5781  2.4297  1.3852
  225MOL0     H30996   0.961   6.196   1.613  1.0080 -0.8853  1.0626
  225MOL0     H30997   0.821   6.441   1.732 -1.1198  1.0893 -0.4287
  225MOL0     H30998   0.955   6.431   1.604 -0.3253  1.6950  1.0626
  225MOL0     H30999   0.871   6.358   1.373  1.4710 -0.5891  1.2587
  225MOL0     H31000   0.705   6.313   1.161  0.3192  1.3473  0.6975
  225MOL0     H31001   0.537   6.313   1.199  1.1503 -0.6242 -3.1226
  225MOL0     H31002   0.728   6.073   1.201 -0.8314 -0.2152 -0.0210
  225MOL0     H31003   0.585   6.083   1.301 -2.3330  2.0621  0.0851
  225MOL0     H31004   0.454   6.152   1.086 -0.2810  0.4110  1.5975
  225MOL0     H31005   0.584   6.115   0.982 -1.1250  2.0826 -0.0883
  225MOL0     H31006   0.485   5.904   1.182 -1.9116 -1.7970 -1.0666
  225MOL0     H31007   0.429   5.919   1.027 -1.0121 -0.3083  0.3461
  225MOL0     H31008   0.405   5.712   1.038  0.2536 -0.5327  0.1423
  225MOL0     H31009   0.294   5.450   1.137 -0.6505 -0.5993 -0.9964
  225MOL0     H31010   0.357   5.370   0.998 -0.5134 -1.3748  1.1115
  225MOL0     H31011   0.298   5.537   0.986 -1.8558 -0.5022  1.0470
  225MOL0     H31012   0.638   5.038   0.922 -0.0685  0.7414  0.5949
  225MOL0     H31013   0.560   4.820   0.848 -0.6928 -2.9449  1.5680
  225MOL0     H31014   0.217   4.732   0.795 -1.5103 -0.4327  2.3293
  225MOL0     H31015   0.382   4.697   0.733  0.8025  0.5454  1.8785
  225MOL0     H31016   0.252   4.511   0.672  4.4782  2.5408 -2.0888
  225MOL0     H31017   0.349   4.459   0.806  1.0210  2.6205  0.4928
  225MOL0     H31018   0.055   4.549   0.788 -1.5118 -0.6684  2.5755
  225MOL0     H31019   0.125   4.519   0.942 -3.1363 -1.0428  0.8769
  225MOL0     H31020   0.157   4.280   0.892  0.1468  1.2076  0.1138
  225MOL0     H31021   0.098   4.286   0.730  1.7934  3.1906 -1.8239
  225MOL0     H31022  -0.049   4.285   0.992  2.5703 -2.6850 -0.4088
  225MOL0     H31023  -0.119   4.384   0.858 -0.4404 -1.1666 -1.6491
  225MOL0     H31024  -0.106   4.086   0.899 -0.9546 -0.0256  2.0817
  225MOL0     H31025  -0.059   4.141   0.735  0.3301  0.9985  0.4355
  225MOL0     H31026  -0.262   4.241   0.696  0.6824  1.4002 -0.0849
  225MOL0     H31027  -0.325   4.226   0.859 -0.7492 -0.0987 -0.1439
  225MOL0     H31028  -0.235   3.983   0.716  0.5782 -0.3809  1.9086
  225MOL0     H31029  -0.404   4.053   0.691 -0.3446 -1.6456 -0.1047
  225MOL0     H31030   0.262   4.823   1.133  1.0871 -2.9854 -2.6831
  225MOL0     H31031   0.338   5.062   1.214 -2.6496 -2.5892  0.3333
  225MOL0     H31032   0.828   5.472   1.086 -0.8605 -1.2420  0.2899
  225MOL0     H31033   0.824   5.699   1.058  0.5503 -1.5505  0.2216
  225MOL0     H31034   1.215   5.501   2.159  2.0660 -0.3248  0.4723
  225MOL0     H31035   1.338   5.287   2.190  4.1355  2.6082  1.3180
  225MOL0     H31036   1.639   5.025   2.077  0.7231 -2.2392  5.2613
  225MOL0     H31037   1.787   4.844   2.124  0.0649 -1.6232  0.5388
  225MOL0     H31038   1.951   4.665   2.089 -1.9598  2.5424  1.0674
  225MOL0     H31039   1.821   4.637   2.200 -0.4953 -1.0049 -0.4671
  225MOL0     H31040   1.886   4.394   2.057 -2.4273  0.3137  0.9233
  225MOL0     H31041   1.880   4.424   2.238  1.8898  0.7263  1.9478
  225MOL0     H31042   2.095   4.487   2.241  1.1021 -0.8789  0.2572
  225MOL0     H31043   2.085   4.340   2.150 -3.6802  0.1457  1.1243
  225MOL0     H31044   2.164   4.616   2.041 -0.9911 -0.5345 -0.2671
  225MOL0     H31045   2.090   4.490   1.936  0.3214  2.2053  0.2217
  225MOL0     H31046   2.467   4.322   1.963 -0.1960 -3.1462 -0.8939
  225MOL0     H31047   1.602   4.600   1.836 -1.1848 -0.4247  1.0378
  225MOL0     H31048   1.420   4.850   1.665  2.4941 -0.1519 -0.7638
  225MOL0     H31049   1.433   4.678   1.710 -2.5573  0.3944  0.0833
  225MOL0     H31050   1.315   4.760   1.797  1.4504 -3.8220  0.2295
  226MOL0     O31051   9.509   7.579   0.278 -0.2777  0.4554 -0.0499
  226MOL0     C31052   9.493   7.681   0.348 -0.0799  0.3372 -0.8713
  226MOL0     O31053   9.449   7.794   0.303  0.5615 -0.2495 -0.0245
  226MOL0     C31054   9.481   7.814   0.173  1.3867  0.7131  0.5618
  226MOL0     C31055   9.398   7.759   0.078  1.4671 -0.2561 -0.3028
  226MOL0     C31056   9.431   7.766  -0.061 -0.5511 -0.5365 -1.0462
  226MOL0     C31057   9.551   7.828  -0.093 -0.7598 -0.0966  0.0606
  226MOL0     O31058   9.569   7.827  -0.227  0.1402 -0.1073 -0.0120
  226MOL0     C31059   9.631   7.703  -0.276 -0.2643 -0.4836 -0.2924
  226MOL0     C31060   9.677   7.742  -0.414 -0.7412 -0.6384 -0.8420
  226MOL0     C31061   9.789   7.852  -0.396 -0.1067  0.2344 -0.6252
  226MOL0     C31062   9.850   7.886  -0.530 -0.1038 -0.4920  0.2078
  226MOL0     C31063   9.960   7.997  -0.490  0.5868 -0.2292  0.3666
  226MOL0     C31064   9.964   8.132  -0.576 -0.1081  0.4409 -0.0009
  226MOL0     C31065   9.839   8.225  -0.569  0.3133  1.2572  0.1391
  226MOL0     C31066   9.854   8.354  -0.642  0.8395 -0.2266  0.3849
  226MOL0     N31067   9.723   8.417  -0.670  0.7391  0.2098 -0.3309
  226MOL0     C31068   9.638   8.447  -0.560 -0.1500 -0.2430 -0.2621
  226MOL0     C31069   9.574   8.557  -0.599 -0.4722 -0.3307  0.5966
  226MOL0     C31070   9.466   8.643  -0.527  0.6944 -0.1248  0.3401
  226MOL0     C31071   9.531   8.734  -0.421  1.3702  0.9386 -0.2174
  226MOL0     C31072   9.428   8.802  -0.331 -0.1173  0.5263  0.9019
  226MOL0     C31073   9.503   8.916  -0.256 -0.3811 -0.8641 -0.7669
  226MOL0     O31074   9.417   8.969  -0.152  0.2596 -0.5487 -0.5600
  226MOL0     C31075   9.386   8.905  -0.032  0.8861 -0.7641 -0.2391
  226MOL0     C31076   9.419   8.775  -0.002  0.2881 -0.8500 -0.6928
  226MOL0     C31077   9.384   8.723   0.124 -1.2872 -0.1047 -0.0779
  226MOL0     C31078   9.418   8.582   0.159  0.6135  0.2987  0.2055
  226MOL0     C31079   9.333   8.812   0.221 -0.4574 -0.3961 -0.7548
  226MOL0     C31080   9.338   8.793   0.374  0.2109 -0.3793 -0.1194
  226MOL0     O31081   9.251   8.864   0.453  0.2871  0.8036  0.7099
  226MOL0     C31082   9.265   8.843   0.591  0.1826  0.4856  0.2426
  226MOL0     C31083   9.381   8.889   0.654 -0.6148  0.5234  0.6523
  226MOL0     C31084   9.410   8.864   0.794 -0.2346  0.1480  0.3733
  226MOL0     C31085   9.309   8.799   0.868 -0.7388 -0.6622  0.8575
  226MOL0     O31086   9.345   8.777   0.995  0.2918 -0.1287  0.6578
  226MOL0     C31087   9.340   8.897   1.083  0.0340 -0.6769  0.4103
  226MOL0     C31088   9.258   8.863   1.208 -0.4818 -0.2688  0.2409
  226MOL0     C31089   9.145   8.759   1.194 -0.3941 -0.8878 -0.2837
  226MOL0     C31090   9.063   8.735   1.321  0.6115  0.8447 -0.1991
  226MOL0     C31091   9.144   8.668   1.429 -0.2609  0.3181 -0.1904
  226MOL0     C31092   9.037   8.651   1.544 -0.1058 -0.7557  0.4815
  226MOL0     C31093   9.080   8.578   1.678 -0.3866 -0.0465  0.7355
  226MOL0     C31094   9.096   8.430   1.673 -0.7633 -0.2919 -0.4492
  226MOL0    Cl31095   8.931   8.340   1.655 -0.1942  0.2427  0.3332
  226MOL0     C31096   9.196   8.743   0.802 -0.3850 -0.1750 -0.2705
  226MOL0     C31097   9.171   8.771   0.668 -0.0527  0.1572  1.6544
  226MOL0     O31098   9.410   8.710   0.416  0.2064  0.3004  0.4252
  226MOL0     C31099   9.290   8.940   0.182  0.1542  0.6104  0.7989
  226MOL0     C31100   9.317   8.989   0.058 -0.0631  0.0447 -0.1843
  226MOL0     N31101   9.634   8.599  -0.720  0.4119  0.5251 -0.6979
  226MOL0     N31102   9.715   8.515  -0.760 -1.3044  0.6553  0.4316
  226MOL0     C31103   9.632   7.893   0.001  0.3931  0.0935  0.3539
  226MOL0     C31104   9.596   7.883   0.137  1.2615  0.6472  0.6781
  226MOL0     C31105   9.531   7.679   0.494 -1.4695  1.4083 -0.0781
  226MOL0     C31106   9.444   7.753   0.574 -0.3430 -0.3041  0.7616
  226MOL0     C31107   9.469   7.764   0.715  0.2138  0.5818 -0.6516
  226MOL0     C31108   9.574   7.695   0.778 -0.9355  1.0410  1.1259
  226MOL0     O31109   9.605   7.693   0.913  0.3686 -0.1013  0.1538
  226MOL0     C31110   9.510   7.766   1.004 -0.8318  0.5827  0.0160
  226MOL0     C31111   9.558   7.753   1.147 -0.2978  0.9283 -1.2000
  226MOL0     C31112   9.486   7.830   1.258  0.3416 -0.4302  0.2033
  226MOL0     C31113   9.326   7.829   1.260  0.1455 -1.0009  0.5416
  226MOL0     C31114   9.279   7.921   1.370  0.2744  0.0882 -0.2797
  226MOL0     C31115   9.221   7.972   1.461 -0.3304 -0.6157  0.4965
  226MOL0     C31116   9.658   7.617   0.695 -0.0974 -0.1803 -0.0478
  226MOL0     C31117   9.634   7.610   0.561  0.7686  0.6977  0.8738
  226MOL0     C31118   9.734   7.533   0.475  0.1649 -0.6835  0.4736
  226MOL0     H31119   9.312   7.699   0.108  1.0314 -0.3992 -1.7484
  226MOL0     H31120   9.362   7.717  -0.129 -1.7440 -1.0086  0.4576
  226MOL0     H31121   9.557   7.622  -0.284  0.7132 -1.5422  0.9212
  226MOL0     H31122   9.712   7.674  -0.209  0.1876  0.4586 -0.4149
  226MOL0     H31123   9.733   7.661  -0.463  1.4681 -1.4511  2.6388
  226MOL0     H31124   9.590   7.785  -0.465 -1.7110 -0.4356  0.9096
  226MOL0     H31125   9.756   7.944  -0.348  2.9397 -0.5669  3.5455
  226MOL0     H31126   9.868   7.826  -0.325 -0.1059  0.7332 -0.4384
  226MOL0     H31127   9.893   7.794  -0.572 -1.1366 -0.7868 -0.2257
  226MOL0     H31128   9.774   7.931  -0.594  1.7032 -0.7194 -2.2792
  226MOL0     H31129  10.055   7.944  -0.494  0.6382 -0.0869 -1.1427
  226MOL0     H31130   9.953   8.021  -0.384 -0.5396 -1.8752  0.6891
  226MOL0     H31131  10.061   8.180  -0.558  0.9761 -0.8697 -1.9507
  226MOL0     H31132   9.985   8.093  -0.676  4.5819  0.7982  0.6063
  226MOL0     H31133   9.829   8.245  -0.462 -1.3659 -1.6929  0.6404
  226MOL0     H31134   9.750   8.170  -0.600  2.0245 -0.8203 -1.4398
  226MOL0     H31135   9.941   8.404  -0.599  2.1633 -2.4704  0.5229
  226MOL0     H31136   9.896   8.323  -0.738 -0.2191  1.9706 -0.8584
  226MOL0     H31137   9.628   8.393  -0.466  0.4817  0.4700  0.2214
  226MOL0     H31138   9.403   8.569  -0.478 -0.1881 -2.1113 -3.4252
  226MOL0     H31139   9.402   8.696  -0.598  0.1650 -0.7144  0.3776
  226MOL0     H31140   9.580   8.669  -0.349 -0.8298  0.5394  1.0095
  226MOL0     H31141   9.581   8.812  -0.480 -1.4857  3.5166  0.5271
  226MOL0     H31142   9.356   8.851  -0.397  2.2255  1.8679 -0.7720
  226MOL0     H31143   9.371   8.733  -0.267 -2.1022  1.7097  0.5029
  226MOL0     H31144   9.599   8.881  -0.216  1.3306  0.9210 -3.0319
  226MOL0     H31145   9.532   9.003  -0.316  1.3683 -1.6597 -1.1503
  226MOL0     H31146   9.468   8.713  -0.077  0.0239 -1.2420 -0.5458
  226MOL0     H31147   9.440   8.523   0.070 -2.4537 -1.1286  0.2602
  226MOL0     H31148   9.332   8.533   0.208 -1.0692 -0.6620 -3.3629
  226MOL0     H31149   9.505   8.590   0.224  4.0248 -2.4115 -3.5495
  226MOL0     H31150   9.451   8.950   0.596  1.6415 -2.9139 -0.5684
  226MOL0     H31151   9.491   8.918   0.842 -1.1719  2.1423 -0.2076
  226MOL0     H31152   9.439   8.929   1.115  0.0010 -0.3455  0.1875
  226MOL0     H31153   9.286   8.979   1.033  2.6003  0.7690 -0.1494
  226MOL0     H31154   9.336   8.832   1.279  3.1211  2.8600 -1.9477
  226MOL0     H31155   9.227   8.956   1.255  2.2737  2.4083 -2.7114
  226MOL0     H31156   9.178   8.658   1.166  0.2971 -1.3066  1.8618
  226MOL0     H31157   9.079   8.780   1.109 -0.3638  0.6095  0.0383
  226MOL0     H31158   8.974   8.679   1.291 -0.3462  2.1846  0.0848
  226MOL0     H31159   9.007   8.826   1.340  0.7327  1.1115 -1.0520
  226MOL0     H31160   9.181   8.568   1.403  3.7301  0.7860  2.7860
  226MOL0     H31161   9.238   8.715   1.460  1.3176 -1.0065 -2.6160
  226MOL0     H31162   8.942   8.614   1.504  0.8897 -1.4558 -1.4009
  226MOL0     H31163   9.014   8.754   1.571 -0.6571 -0.8002  0.2053
  226MOL0     H31164   8.992   8.588   1.743 -2.0053 -0.5144 -1.2824
  226MOL0     H31165   9.169   8.626   1.720  0.6470  0.9797 -2.3253
  226MOL0     H31166   9.141   8.413   1.772  0.7582 -1.4702 -1.2902
  226MOL0     H31167   9.168   8.398   1.597 -0.4356  2.3939 -1.3680
  226MOL0     H31168   9.131   8.678   0.859  0.5179  2.7023  4.5767
  226MOL0     H31169   9.092   8.724   0.610  1.9290  0.3825 -1.4318
  226MOL0     H31170   9.246   9.013   0.249  1.7518  1.9286  0.4603
  226MOL0     H31171   9.287   9.090   0.032 -0.8817  0.4122  1.9502
  226MOL0     H31172   9.722   7.948  -0.023  1.2227 -0.8886  1.1236
  226MOL0     H31173   9.656   7.912   0.222  1.8290 -2.4097  1.4469
  226MOL0     H31174   9.356   7.793   0.526 -0.6356 -0.2459  1.3364
  226MOL0     H31175   9.429   7.840   0.782  2.6394 -1.0263  2.9225
  226MOL0     H31176   9.501   7.870   0.974  1.2633  0.5185 -1.0964
  226MOL0     H31177   9.412   7.723   0.981 -0.9329  0.3837  0.7816
  226MOL0     H31178   9.658   7.794   1.158 -0.3409  0.9073 -0.7329
  226MOL0     H31179   9.558   7.648   1.180 -2.2677  1.6200  1.3501
  226MOL0     H31180   9.526   7.804   1.356  0.1211  1.8382  0.9495
  226MOL0     H31181   9.508   7.935   1.233 -1.1271  0.2410  1.5238
  226MOL0     H31182   9.298   7.724   1.268 -4.3517 -0.4066 -3.2735
  226MOL0     H31183   9.304   7.870   1.161  0.1265 -1.0627  0.5208
  226MOL0     H31184   9.159   7.997   1.544 -0.7313  1.2998 -0.3255
  226MOL0     H31185   9.740   7.567   0.747 -0.7944  0.5421  1.8312
  226MOL0     H31186   9.788   7.470   0.545 -1.0205 -2.6078 -0.2444
  226MOL0     H31187   9.675   7.459   0.419 -2.9713  1.1343  1.0813
  226MOL0     H31188   9.806   7.597   0.422  0.7343 -0.3876  1.5882
  227MOL0     O31189   8.034   9.106   1.637 -0.8706 -0.2695 -0.3769
  227MOL0     C31190   8.096   9.165   1.547  0.4749  0.7420 -0.0290
  227MOL0     O31191   8.150   9.292   1.560  0.2229  0.1851  0.0927
  227MOL0     C31192   8.155   9.337   1.688 -0.6069 -0.9884 -0.2251
  227MOL0     C31193   8.252   9.285   1.771 -0.4642  0.4640 -0.4300
  227MOL0     C31194   8.247   9.319   1.903  0.5196  0.2846  0.2252
  227MOL0     C31195   8.144   9.392   1.962  0.4576 -0.3035  0.0967
  227MOL0     O31196   8.154   9.399   2.098  0.1288 -0.0308  0.4912
  227MOL0     C31197   8.070   9.494   2.167  0.8774  0.9028  0.4931
  227MOL0     C31198   8.136   9.521   2.310 -0.3776  0.3821 -0.2937
  227MOL0     C31199   8.134   9.396   2.401 -0.6315 -0.0265 -0.6151
  227MOL0     C31200   8.000   9.373   2.458  0.2738  0.2966 -0.3849
  227MOL0     C31201   8.011   9.291   2.591 -0.2814  0.7780  0.5685
  227MOL0     C31202   7.881   9.260   2.674  0.4271  0.5799  0.1006
  227MOL0     C31203   7.900   9.136   2.763  0.4363 -0.5346  0.2670
  227MOL0     C31204   8.005   9.155   2.871  0.6149 -0.2954  0.0647
  227MOL0     N31205   8.039   9.026   2.924  0.1513  0.8915  1.1206
  227MOL0     C31206   8.138   8.947   2.868  0.5169  0.6260  0.6126
  227MOL0     C31207   8.155   8.839   2.955  0.7139 -0.6190  0.6093
  227MOL0     C31208   8.256   8.729   2.943 -0.8310  0.5419  0.5685
  227MOL0     C31209   8.397   8.773   2.891 -0.0607  0.1609 -0.6873
  227MOL0     C31210   8.484   8.860   2.982 -0.1680  0.4268  0.6969
  227MOL0     C31211   8.628   8.882   2.934  0.1695 -0.1659 -0.4730
  227MOL0     O31212   8.690   8.753   2.922  0.7960  0.3900  0.2284
  227MOL0     C31213   8.790   8.707   2.997  0.6855  0.7963  0.0175
  227MOL0     C31214   8.814   8.741   3.130 -0.4115 -0.2291  0.4494
  227MOL0     C31215   8.928   8.688   3.198 -0.3904  0.4975 -0.9357
  227MOL0     C31216   8.958   8.755   3.333 -0.2616  0.6187  0.3195
  227MOL0     C31217   9.007   8.594   3.131  0.4307 -0.8184 -0.2942
  227MOL0     C31218   9.121   8.524   3.188 -0.3203  0.5199 -0.5650
  227MOL0     O31219   9.187   8.424   3.116  0.2008 -0.4685  0.2926
  227MOL0     C31220   9.255   8.321   3.182 -0.0352  0.1389  0.0158
  227MOL0     C31221   9.371   8.278   3.126 -0.3069 -0.2246  0.5108
  227MOL0     C31222   9.446   8.177   3.190 -0.0883  0.4512  0.1959
  227MOL0     C31223   9.417   8.127   3.317  1.0480 -0.1240 -0.4811
  227MOL0     O31224   9.497   8.026   3.371  0.1037 -0.3439  0.5907
  227MOL0     C31225   9.630   8.071   3.381 -0.8319 -0.6188  0.5780
  227MOL0     C31226   9.671   8.066   3.523 -0.3318 -1.6915 -0.8501
  227MOL0     C31227   9.810   8.125   3.567 -0.7032 -0.9765  0.0232
  227MOL0     C31228   9.820   8.141   3.725  0.0557 -0.0721  0.7847
  227MOL0     C31229   9.960   8.173   3.774 -0.0915 -0.7296  0.5627
  227MOL0     C31230   9.963   8.211   3.922  0.4485 -0.1751  0.5428
  227MOL0     C31231  10.099   8.281   3.953 -0.1960  0.1480  0.1447
  227MOL0     C31232  10.146   8.244   4.096  0.4136 -0.6743  0.6751
  227MOL0    Cl31233  10.029   8.322   4.205  0.0430 -0.1929 -0.0471
  227MOL0     C31234   9.294   8.167   3.373 -0.4997 -0.4932  0.5568
  227MOL0     C31235   9.214   8.260   3.303  0.1958  0.6056 -0.7963
  227MOL0     O31236   9.169   8.566   3.292 -0.5723 -0.7599 -0.2515
  227MOL0     C31237   8.962   8.551   3.005  0.6949 -0.2362  0.4286
  227MOL0     C31238   8.862   8.615   2.927  0.5211 -0.3971 -0.2746
  227MOL0     N31239   8.066   8.859   3.060  0.3590 -0.0463  0.5832
  227MOL0     N31240   7.997   8.959   3.034  0.7989 -0.0847 -0.6289
  227MOL0     C31241   8.047   9.452   1.879 -0.5799 -0.7945  0.3416
  227MOL0     C31242   8.061   9.419   1.742 -0.0560  0.4585  0.3546
  227MOL0     C31243   8.079   9.114   1.412  0.3507 -0.0845 -0.2145
  227MOL0     C31244   8.014   9.196   1.326 -0.8536  0.6283  0.2515
  227MOL0     C31245   7.989   9.159   1.195 -0.3776  0.4282 -0.0919
  227MOL0     C31246   8.033   9.039   1.152  0.3191  0.0775 -0.0759
  227MOL0     O31247   8.006   9.007   1.015 -0.1914 -0.0290  0.3348
  227MOL0     C31248   8.100   8.925   0.937  0.8929  0.2801  0.5605
  227MOL0     C31249   8.044   8.780   0.923  0.4053  0.9732 -0.1325
  227MOL0     C31250   8.160   8.708   0.855 -0.2292 -0.7302  0.2596
  227MOL0     C31251   8.143   8.555   0.869  0.5975 -0.8853  0.4951
  227MOL0     C31252   8.129   8.482   0.992 -0.8236 -0.0613 -0.0626
  227MOL0     C31253   8.124   8.400   1.090 -0.6254 -0.3870  0.3362
  227MOL0     C31254   8.096   8.945   1.241  0.0995  0.7497 -0.1846
  227MOL0     C31255   8.118   8.979   1.374  0.1592 -0.4051 -0.7798
  227MOL0     C31256   8.191   8.883   1.465  0.1182 -0.7244  0.4095
  227MOL0     H31257   8.327   9.217   1.734 -1.7006 -0.5223 -1.2284
  227MOL0     H31258   8.326   9.276   1.964  0.2597  0.1017  0.4406
  227MOL0     H31259   7.964   9.466   2.173  0.6050  1.8216  0.1316
  227MOL0     H31260   8.074   9.587   2.110  0.5358  1.0641  0.7317
  227MOL0     H31261   8.242   9.543   2.293 -0.3445  0.5159  0.0837
  227MOL0     H31262   8.079   9.605   2.352  1.4442  1.8430 -0.6161
  227MOL0     H31263   8.180   9.313   2.345 -0.8396  0.7858 -2.0542
  227MOL0     H31264   8.196   9.422   2.487 -1.4324 -1.4278  0.4210
  227MOL0     H31265   7.947   9.468   2.468  0.3528  0.2069  1.2438
  227MOL0     H31266   7.942   9.308   2.392 -0.2704 -0.3976  0.7364
  227MOL0     H31267   8.087   9.343   2.651  1.0028 -0.1215 -0.2256
  227MOL0     H31268   8.055   9.192   2.573  0.3397  1.1735 -0.1653
  227MOL0     H31269   7.843   9.343   2.734 -3.7372 -0.7817 -0.3270
  227MOL0     H31270   7.799   9.232   2.607 -0.7540  0.1529  1.6598
  227MOL0     H31271   7.926   9.046   2.707 -0.8246 -0.7642  0.0315
  227MOL0     H31272   7.803   9.132   2.813 -0.7546  1.9691 -1.6130
  227MOL0     H31273   8.087   9.219   2.839 -1.5958  2.4664 -0.4695
  227MOL0     H31274   7.947   9.203   2.951  0.3589  1.4386 -1.1118
  227MOL0     H31275   8.184   8.960   2.771 -0.5841 -2.9583 -0.5356
  227MOL0     H31276   8.220   8.660   2.866 -0.8850  1.1695  0.0278
  227MOL0     H31277   8.267   8.674   3.038 -2.6224 -1.2918 -0.2188
  227MOL0     H31278   8.448   8.680   2.864 -4.0562 -3.2458  2.1034
  227MOL0     H31279   8.379   8.839   2.806  1.7690  0.5007 -0.8295
  227MOL0     H31280   8.444   8.962   2.985 -0.8199  0.1857  0.3628
  227MOL0     H31281   8.479   8.815   3.082 -1.4636 -1.4670 -0.1695
  227MOL0     H31282   8.626   8.928   2.835 -2.7739 -2.7002 -1.7770
  227MOL0     H31283   8.685   8.948   3.000 -0.8358  1.2014 -0.9251
  227MOL0     H31284   8.764   8.814   3.193  1.1607 -1.9785  4.0035
  227MOL0     H31285   9.052   8.809   3.322 -0.1709  0.4930  0.4846
  227MOL0     H31286   8.960   8.693   3.423 -1.9733  1.4849  1.0059
  227MOL0     H31287   8.890   8.841   3.343 -0.7721  0.2871 -0.2219
  227MOL0     H31288   9.417   8.327   3.041 -1.1185  0.8891  0.6879
  227MOL0     H31289   9.533   8.121   3.158 -0.3565 -1.4001  2.4700
  227MOL0     H31290   9.707   8.018   3.325  1.5152  1.4264  1.6802
  227MOL0     H31291   9.635   8.180   3.367  0.0628 -0.7084  0.1125
  227MOL0     H31292   9.599   8.116   3.589 -0.1729 -0.1964 -1.7524
  227MOL0     H31293   9.665   7.958   3.536 -0.5620 -1.9056 -2.5898
  227MOL0     H31294   9.824   8.226   3.528 -1.6532 -0.5145  0.8587
  227MOL0     H31295   9.888   8.058   3.528  0.5552 -0.9803  2.3859
  227MOL0     H31296   9.792   8.041   3.759  0.8821  0.5170  3.4999
  227MOL0     H31297   9.745   8.210   3.766  2.7072  2.6736  1.3021
  227MOL0     H31298  10.038   8.102   3.748  2.3753  2.1603 -0.5180
  227MOL0     H31299   9.996   8.260   3.718  1.0392 -1.4495  0.1505
  227MOL0     H31300   9.967   8.108   3.959  0.6981 -0.0853  0.7654
  227MOL0     H31301   9.875   8.262   3.961 -1.7009 -4.4344  1.8834
  227MOL0     H31302  10.085   8.389   3.955  0.5791  0.2559  2.3481
  227MOL0     H31303  10.174   8.256   3.878 -1.2429 -4.9840  0.4074
  227MOL0     H31304  10.250   8.269   4.120  1.6679 -1.2371 -3.3836
  227MOL0     H31305  10.132   8.135   4.096 -1.6357 -0.4921 -1.8859
  227MOL0     H31306   9.258   8.127   3.467 -0.5621 -0.5969  0.4893
  227MOL0     H31307   9.123   8.302   3.344 -0.0878  1.9748 -2.6789
  227MOL0     H31308   9.012   8.470   2.953  1.8499  1.2937 -0.9571
  227MOL0     H31309   8.824   8.595   2.827 -2.2170  2.2045  0.0938
  227MOL0     H31310   7.961   9.516   1.897 -1.5480 -0.7144 -3.6906
  227MOL0     H31311   7.983   9.458   1.677 -2.0067 -2.5369  0.6955
  227MOL0     H31312   7.978   9.294   1.354  2.9303  1.5130  2.7447
  227MOL0     H31313   7.942   9.225   1.123  0.0706 -0.6085 -1.3770
  227MOL0     H31314   8.114   8.959   0.834  3.1714  1.5230  1.2279
  227MOL0     H31315   8.194   8.922   0.992 -0.4360 -0.7902  2.9866
  227MOL0     H31316   7.944   8.781   0.879  0.8756  1.6621 -1.2282
  227MOL0     H31317   8.036   8.751   1.029  1.2227  0.5374 -0.1794
  227MOL0     H31318   8.167   8.732   0.749  1.9433 -4.4480 -0.6409
  227MOL0     H31319   8.264   8.724   0.885 -0.0890  0.2723 -0.7128
  227MOL0     H31320   8.232   8.523   0.814  1.0192  1.4666 -0.2695
  227MOL0     H31321   8.057   8.527   0.807  0.6195 -1.8112  0.8598
  227MOL0     H31322   8.109   8.354   1.185 -0.5545 -2.2082 -0.5005
  227MOL0     H31323   8.106   8.841   1.214  2.2893  0.1770  2.4200
  227MOL0     H31324   8.147   8.788   1.432  1.8690 -0.6232 -2.6311
  227MOL0     H31325   8.299   8.884   1.447  0.2329  0.1022  1.0894
  227MOL0     H31326   8.172   8.905   1.570 -0.8551  1.9971 -0.2462
  228MOL0     O31327   7.757   9.365   7.803  0.4325 -0.1093  0.5815
  228MOL0     C31328   7.747   9.483   7.842 -0.4615  0.3858  0.3460
  228MOL0     O31329   7.688   9.574   7.767  0.3247 -0.2946  0.2796
  228MOL0     C31330   7.651   9.556   7.633 -0.1453 -0.4976  0.1109
  228MOL0     C31331   7.547   9.627   7.563  0.6059 -0.2483  0.1075
  228MOL0     C31332   7.525   9.617   7.421 -0.1610  0.1550 -0.2132
  228MOL0     C31333   7.616   9.545   7.339 -0.6534  0.0501 -0.7066
  228MOL0     O31334   7.599   9.560   7.209 -0.0027  0.0152  0.6438
  228MOL0     C31335   7.682   9.488   7.118 -0.0867 -0.8085 -1.1126
  228MOL0     C31336   7.600   9.482   6.990  0.4017 -0.2360 -0.0789
  228MOL0     C31337   7.568   9.618   6.934 -0.2431 -1.3119  0.6945
  228MOL0     C31338   7.492   9.624   6.800  0.3840  0.2880  0.2258
  228MOL0     C31339   7.482   9.757   6.746 -0.3039  0.4992 -0.5323
  228MOL0     C31340   7.406   9.766   6.618 -0.4313 -0.5199 -0.1206
  228MOL0     C31341   7.386   9.918   6.580 -0.8397 -0.0267  0.5735
  228MOL0     C31342   7.273   9.994   6.642  0.1134  0.1626  0.4085
  228MOL0     N31343   7.301  10.134   6.611  0.1818 -0.4157  0.3000
  228MOL0     C31344   7.314  10.190   6.479 -0.7396  0.2623 -0.1178
  228MOL0     C31345   7.391  10.302   6.509  0.3049  0.0637  1.1828
  228MOL0     C31346   7.443  10.399   6.400  0.4816  0.1189 -0.9068
  228MOL0     C31347   7.513  10.337   6.279 -0.2627 -0.9554  0.4874
  228MOL0     C31348   7.625  10.446   6.231  0.9931  0.0874  0.0730
  228MOL0     C31349   7.707  10.399   6.108  0.4110 -0.7772  0.7631
  228MOL0     O31350   7.785  10.273   6.124 -0.8464 -1.0396 -0.9478
  228MOL0     C31351   7.912  10.271   6.078  0.4971 -0.4167 -0.2461
  228MOL0     C31352   8.006  10.175   6.124  0.4910  0.3818 -0.3907
  228MOL0     C31353   8.131  10.160   6.070  0.2908 -0.6125  1.1834
  228MOL0     C31354   8.216  10.047   6.123  0.8386 -0.2505 -0.3681
  228MOL0     C31355   8.175  10.238   5.956 -0.8626 -0.2650 -0.2297
  228MOL0     C31356   8.302  10.218   5.881  0.5162  0.1237 -1.3054
  228MOL0     O31357   8.357  10.096   5.887  0.3814 -0.6391  0.7299
  228MOL0     C31358   8.454  10.069   5.794 -0.1399  0.6159  0.2530
  228MOL0     C31359   8.585  10.105   5.809 -0.7474  0.0895 -0.7597
  228MOL0     C31360   8.697  10.049   5.732 -0.8070 -0.7822 -1.0435
  228MOL0     C31361   8.658   9.980   5.618  0.1911  0.2465  0.6485
  228MOL0     O31362   8.757   9.965   5.524 -0.1279 -0.4910  0.2851
  228MOL0     C31363   8.726   9.913   5.400 -0.7065  0.2195  0.5568
  228MOL0     C31364   8.658  10.017   5.306 -0.3492  0.0932  0.6193
  228MOL0     C31365   8.642   9.956   5.158 -0.2546  1.4144 -0.6782
  228MOL0     C31366   8.773   9.972   5.083  0.8474  0.1152  0.9504
  228MOL0     C31367   8.741   9.915   4.935 -0.3055 -0.3618 -0.4232
  228MOL0     C31368   8.845   9.957   4.828 -0.1598 -1.6921  0.2605
  228MOL0     C31369   8.829   9.869   4.699  0.2916  0.2742  0.4420
  228MOL0     C31370   8.905   9.941   4.579  0.3981 -0.8543 -0.2704
  228MOL0    Cl31371   8.797  10.083   4.522 -0.3369  0.1908  0.2104
  228MOL0     C31372   8.521   9.942   5.599 -0.7834  0.3621 -0.2646
  228MOL0     C31373   8.420   9.985   5.683 -0.5113  0.5884 -0.9013
  228MOL0     O31374   8.344  10.314   5.815 -0.0617  0.4528  0.1019
  228MOL0     C31375   8.086  10.334   5.916 -0.2981 -0.1223 -0.4970
  228MOL0     C31376   7.957  10.358   5.972  0.3510  1.3954 -0.1101
  228MOL0     N31377   7.405  10.317   6.647  1.1746  0.0235  0.4401
  228MOL0     N31378   7.353  10.216   6.702 -0.8931  0.1333  0.1242
  228MOL0     C31379   7.730   9.491   7.407  0.0382  0.9585 -0.2440
  228MOL0     C31380   7.739   9.497   7.546  0.3626  0.5463  1.8198
  228MOL0     C31381   7.789   9.500   7.976  0.2460  0.2659 -0.5316
  228MOL0     C31382   7.748   9.621   8.044 -0.5916  0.9233 -0.0808
  228MOL0     C31383   7.773   9.632   8.186  0.8882  0.3204 -0.0078
  228MOL0     C31384   7.855   9.552   8.265 -0.1817 -0.7314  1.1193
  228MOL0     O31385   7.888   9.574   8.396  0.2513  0.2251  0.1891
  228MOL0     C31386   7.865   9.706   8.445  0.1471 -1.2887  0.2098
  228MOL0     C31387   7.951   9.718   8.571 -1.1236 -0.8207 -0.0329
  228MOL0     C31388   7.997   9.870   8.577  0.1785  1.3019 -0.0766
  228MOL0     C31389   8.052   9.907   8.713  0.7020 -0.5706 -0.4820
  228MOL0     C31390   7.950   9.911   8.815 -0.3587  0.9747 -0.0915
  228MOL0     C31391   7.867   9.901   8.904 -0.4479  0.1512  0.2990
  228MOL0     C31392   7.898   9.436   8.194  0.5720 -0.0819 -0.0768
  228MOL0     C31393   7.873   9.406   8.054  1.4127  0.5302  0.4948
  228MOL0     C31394   7.947   9.289   7.995  0.8821  0.6042  0.0556
  228MOL0     H31395   7.489   9.694   7.626 -2.1688 -0.9316 -1.5531
  228MOL0     H31396   7.451   9.686   7.382 -0.5701  0.3704  0.9074
  228MOL0     H31397   7.702   9.390   7.161 -0.3096 -0.3555  0.0748
  228MOL0     H31398   7.777   9.539   7.100 -1.5509  2.4064 -0.4388
  228MOL0     H31399   7.653   9.415   6.922 -0.1059 -2.1420  1.2974
  228MOL0     H31400   7.509   9.424   7.010  0.9638 -0.6422  1.4178
  228MOL0     H31401   7.501   9.674   6.999 -1.3593  1.5862 -2.5941
  228MOL0     H31402   7.663   9.672   6.942 -0.5837 -0.9269  2.6756
  228MOL0     H31403   7.553   9.562   6.735  2.5457  3.0534 -0.5647
  228MOL0     H31404   7.394   9.575   6.811  1.3593 -1.6124  0.8586
  228MOL0     H31405   7.581   9.796   6.724  0.0364  1.0417  1.7473
  228MOL0     H31406   7.423   9.811   6.821 -1.5718 -1.1553 -0.2589
  228MOL0     H31407   7.469   9.724   6.539 -0.0507  2.7770 -1.7439
  228MOL0     H31408   7.311   9.711   6.616 -1.3447  0.9471 -2.9573
  228MOL0     H31409   7.354   9.920   6.476  3.6420 -0.9142 -1.0010
  228MOL0     H31410   7.484   9.966   6.587 -0.4142 -0.2949 -2.3385
  228MOL0     H31411   7.185   9.944   6.599 -1.0961  1.5566  1.1778
  228MOL0     H31412   7.274   9.978   6.750 -1.9711 -0.8842  0.3251
  228MOL0     H31413   7.276  10.164   6.381 -0.9603  1.8236 -0.4776
  228MOL0     H31414   7.506  10.472   6.451  0.2209 -0.0626 -0.3123
  228MOL0     H31415   7.361  10.465   6.370 -0.5292  0.1550  1.6471
  228MOL0     H31416   7.568  10.248   6.312  1.4361  0.2579  1.0740
  228MOL0     H31417   7.448  10.315   6.194 -2.3105  3.7592  0.5139
  228MOL0     H31418   7.585  10.546   6.213 -3.2736 -0.8943  2.5606
  228MOL0     H31419   7.688  10.450   6.320 -0.1736 -0.1354  0.9466
  228MOL0     H31420   7.632  10.388   6.029 -0.5758 -0.1335  1.5766
  228MOL0     H31421   7.772  10.486   6.092 -0.8220  0.5024  2.3258
  228MOL0     H31422   7.976  10.114   6.209  4.8083  0.6896  1.6297
  228MOL0     H31423   8.212   9.956   6.062  1.1132  0.2755 -1.1841
  228MOL0     H31424   8.199  10.013   6.225 -0.7520 -0.1755 -0.5866
  228MOL0     H31425   8.321  10.077   6.130  0.7648  0.9489 -3.1273
  228MOL0     H31426   8.606  10.164   5.898 -2.5864  0.6348 -0.6436
  228MOL0     H31427   8.791  10.102   5.750 -0.3523 -1.5140 -1.2260
  228MOL0     H31428   8.816   9.874   5.351 -0.1968  1.0468  0.8271
  228MOL0     H31429   8.663   9.825   5.418 -0.5923  0.5422  2.7554
  228MOL0     H31430   8.560  10.050   5.340 -1.5695 -3.1358  0.5097
  228MOL0     H31431   8.716  10.108   5.286  0.3996 -0.8236 -1.6460
  228MOL0     H31432   8.553  10.009   5.123 -2.2709 -0.5335  1.2394
  228MOL0     H31433   8.613   9.852   5.173 -1.5849  1.7174 -1.0019
  228MOL0     H31434   8.855   9.927   5.140 -0.3313  0.0245  2.6430
  228MOL0     H31435   8.799  10.078   5.069  2.0850 -0.5326 -3.0258
  228MOL0     H31436   8.737   9.806   4.948  0.7897 -0.3131  0.5207
  228MOL0     H31437   8.641   9.946   4.906  0.2922 -0.0185 -2.2149
  228MOL0     H31438   8.949   9.964   4.860  0.8163  2.1512 -3.0130
  228MOL0     H31439   8.816  10.059   4.803  3.2463 -0.1861  1.8098
  228MOL0     H31440   8.724   9.845   4.680  0.6649 -2.2403  1.1682
  228MOL0     H31441   8.885   9.775   4.708 -1.3731 -0.6343  1.9670
  228MOL0     H31442   8.927   9.868   4.500  0.0883  1.7315 -2.9398
  228MOL0     H31443   9.000   9.982   4.613 -0.2523  2.1222 -1.6593
  228MOL0     H31444   8.497   9.884   5.511 -0.5191  1.9349 -1.4202
  228MOL0     H31445   8.330   9.924   5.676  0.4140 -1.2149  1.6369
  228MOL0     H31446   8.112  10.398   5.831 -2.1786 -0.0309 -1.0358
  228MOL0     H31447   7.883  10.418   5.919  0.0251 -1.3244 -3.0366
  228MOL0     H31448   7.812   9.449   7.350 -0.4229  0.4518 -0.5480
  228MOL0     H31449   7.824   9.437   7.577 -0.1099 -1.9786 -1.2542
  228MOL0     H31450   7.687   9.692   7.989 -2.9010 -1.5083 -0.8655
  228MOL0     H31451   7.745   9.732   8.219  2.7726  0.7495  0.3931
  228MOL0     H31452   7.884   9.787   8.374 -3.3246 -0.3557  0.1529
  228MOL0     H31453   7.763   9.727   8.478  1.0436 -0.5058  2.7474
  228MOL0     H31454   8.041   9.660   8.548 -1.1288 -0.2112 -1.6774
  228MOL0     H31455   7.915   9.674   8.665 -4.6404 -0.4717 -1.0887
  228MOL0     H31456   8.081   9.876   8.507  2.4035 -0.6386  2.2334
  228MOL0     H31457   7.906   9.923   8.551 -2.3470 -1.3701  2.5090
  228MOL0     H31458   8.092  10.009   8.707 -0.6691  0.1416  1.4582
  228MOL0     H31459   8.131   9.839   8.747 -2.2298 -5.4462 -2.3362
  228MOL0     H31460   7.810   9.896   8.994 -1.3260 -2.4691 -0.3193
  228MOL0     H31461   7.965   9.369   8.247 -1.4162 -0.7417  1.7359
  228MOL0     H31462   7.888   9.202   8.025  0.3033  0.9550 -0.0510
  228MOL0     H31463   7.954   9.287   7.886 -0.8718  1.0042 -0.0940
  228MOL0     H31464   8.048   9.265   8.031 -0.1315 -0.7192  2.1761
  229MOL0     O31465   9.401   0.264   2.358  0.1195 -0.0069 -0.1236
  229MOL0     C31466   9.472   0.162   2.337  0.0772  0.3470 -0.6777
  229MOL0     O31467   9.500   0.064   2.427 -1.4300 -0.2464 -0.2597
  229MOL0     C31468   9.445   0.068   2.551 -0.2336 -0.7142 -0.6147
  229MOL0     C31469   9.526   0.035   2.655 -0.0116  0.6713 -0.4924
  229MOL0     C31470   9.494   0.039   2.793 -0.9608 -0.5415 -0.6001
  229MOL0     C31471   9.362   0.065   2.826  0.5767 -0.5801  0.0405
  229MOL0     O31472   9.330   0.052   2.962  0.4312 -0.1330 -0.0788
  229MOL0     C31473   9.218   0.132   3.003 -0.2402  0.3492  0.1375
  229MOL0     C31474   9.181   0.094   3.153 -0.5073 -0.1500 -0.4047
  229MOL0     C31475   9.044   0.153   3.199 -1.1964  0.6299 -1.2057
  229MOL0     C31476   9.042   0.303   3.210  0.2129 -0.1657  0.8066
  229MOL0     C31477   8.919   0.356   3.284 -0.4592  0.1718  0.3623
  229MOL0     C31478   8.785   0.341   3.206  0.4520  0.4518  0.4765
  229MOL0     C31479   8.770   0.439   3.092 -0.5226 -0.4654 -0.0668
  229MOL0     C31480   8.722   0.372   2.962  0.0836 -0.1564  0.3703
  229MOL0     N31481   8.774   0.254   2.918 -0.3209  0.3957  0.4510
  229MOL0     C31482   8.718   0.131   2.941 -0.1450  1.2659  0.4635
  229MOL0     C31483   8.808   0.044   2.895  0.1388  0.4087 -0.7294
  229MOL0     C31484   8.787  -0.098   2.898  0.6394 -0.8957  0.4938
  229MOL0     C31485   8.661  -0.154   2.809  1.0140  0.0263  0.4077
  229MOL0     C31486   8.685  -0.131   2.661  0.1812  0.1363 -0.2060
  229MOL0     C31487   8.615  -0.222   2.576 -0.1087 -0.8000  0.3124
  229MOL0     O31488   8.627  -0.196   2.429 -0.6070 -0.2277 -0.3731
  229MOL0     C31489   8.514  -0.142   2.371  0.2593  1.0077 -0.5425
  229MOL0     C31490   8.477  -0.201   2.250 -0.1236 -0.2522  0.3449
  229MOL0     C31491   8.361  -0.162   2.177  0.5402  0.5596 -0.4684
  229MOL0     C31492   8.333  -0.236   2.045 -0.9665 -0.0825  0.0812
  229MOL0     C31493   8.276  -0.052   2.234 -0.1528 -0.3775  0.9052
  229MOL0     C31494   8.142  -0.010   2.171 -0.5658  0.7592 -0.5262
  229MOL0     O31495   8.097  -0.056   2.052 -0.3363 -1.0832 -0.1195
  229MOL0     C31496   7.987   0.010   1.997  0.0589 -0.1143  0.3372
  229MOL0     C31497   7.875  -0.066   1.950 -0.2075  0.6683  0.3905
  229MOL0     C31498   7.767  -0.012   1.887 -0.9235  0.4682 -0.0777
  229MOL0     C31499   7.756   0.125   1.866 -1.1541 -0.0900 -0.0791
  229MOL0     O31500   7.636   0.176   1.820 -0.3080  0.3526 -0.0152
  229MOL0     C31501   7.591   0.136   1.685  0.7915  0.6459  0.1107
  229MOL0     C31502   7.696   0.159   1.578 -0.4814 -0.0008 -0.0797
  229MOL0     C31503   7.733   0.307   1.552 -0.3673  0.8268  0.2106
  229MOL0     C31504   7.633   0.401   1.498  0.6217  0.9965  1.2956
  229MOL0     C31505   7.690   0.536   1.450 -0.0693 -0.2982 -0.4197
  229MOL0     C31506   7.753   0.532   1.308 -0.5101 -0.2500 -0.4526
  229MOL0     C31507   7.850   0.655   1.281  0.1054  0.4110 -0.7834
  229MOL0     C31508   7.788   0.795   1.253 -0.3860  0.1269 -0.3089
  229MOL0    Cl31509   7.767   0.875   1.412 -0.0739 -0.1167 -0.2799
  229MOL0     C31510   7.872   0.198   1.905 -0.5601 -0.0533 -1.1103
  229MOL0     C31511   7.980   0.151   1.985 -0.1000 -0.3188 -0.5001
  229MOL0     O31512   8.083   0.074   2.239  0.3769  0.1595  0.1921
  229MOL0     C31513   8.321   0.003   2.356  0.7272 -0.1879 -0.0340
  229MOL0     C31514   8.428  -0.043   2.420  0.1710 -0.0214 -0.8212
  229MOL0     N31515   8.912   0.115   2.833  0.2296  0.1887  0.6645
  229MOL0     N31516   8.892   0.242   2.850 -0.0281  0.0181 -0.1176
  229MOL0     C31517   9.272   0.102   2.721  0.2916  0.1694  0.2235
  229MOL0     C31518   9.314   0.092   2.584  0.1635 -1.0012  0.3643
  229MOL0     C31519   9.536   0.135   2.198  0.1798  0.8156 -0.2251
  229MOL0     C31520   9.590   0.002   2.176  0.2854 -0.1769 -0.0921
  229MOL0     C31521   9.653  -0.022   2.055 -0.4442  0.9154 -0.1275
  229MOL0     C31522   9.667   0.069   1.944  0.4014  0.4435  0.6512
  229MOL0     O31523   9.738   0.026   1.832  0.5275 -0.8511  0.0067
  229MOL0     C31524   9.773   0.118   1.713  0.4071 -0.0809 -0.1134
  229MOL0     C31525   9.655   0.166   1.632  0.1127 -0.2594  0.5045
  229MOL0     C31526   9.711   0.257   1.514  0.1198 -0.3487 -0.4964
  229MOL0     C31527   9.604   0.298   1.416  0.1707 -0.0424 -0.0212
  229MOL0     C31528   9.568   0.177   1.344  0.3053 -0.6627  0.8358
  229MOL0     C31529   9.573   0.067   1.290 -0.3088  0.3149  0.5042
  229MOL0     C31530   9.614   0.192   1.966  0.7305  0.0693 -0.4127
  229MOL0     C31531   9.549   0.233   2.091  0.1463 -0.2361  0.5657
  229MOL0     C31532   9.493   0.369   2.089  0.4759  0.1610  0.3540
  229MOL0     H31533   9.618  -0.008   2.619  1.3636  2.8296  0.2202
  229MOL0     H31534   9.554  -0.013   2.868  0.6388 -0.3032 -1.6572
  229MOL0     H31535   9.131   0.086   2.955 -0.0245  0.8726 -0.7717
  229MOL0     H31536   9.242   0.238   2.998  4.0994 -0.2418  2.7449
  229MOL0     H31537   9.171  -0.014   3.166  2.8829 -0.4621  0.6720
  229MOL0     H31538   9.261   0.127   3.220 -2.0622 -0.1150  1.5113
  229MOL0     H31539   8.964   0.115   3.134 -0.8558  0.3528 -1.4636
  229MOL0     H31540   9.017   0.114   3.298  1.6928  0.2626 -0.4704
  229MOL0     H31541   9.132   0.321   3.270  0.2911 -0.9723  0.9347
  229MOL0     H31542   9.051   0.351   3.112 -2.0150 -1.4196 -0.0770
  229MOL0     H31543   8.934   0.464   3.293  1.8294 -0.1309  0.8760
  229MOL0     H31544   8.908   0.316   3.385 -2.0913  3.5232  1.6584
  229MOL0     H31545   8.775   0.238   3.174  2.8441  0.3100 -0.0471
  229MOL0     H31546   8.707   0.372   3.276  1.9715  3.1685  1.1400
  229MOL0     H31547   8.863   0.495   3.078 -2.6313  3.7421  0.9005
  229MOL0     H31548   8.693   0.513   3.117  0.5826  0.8625 -0.4803
  229MOL0     H31549   8.614   0.367   2.982 -0.4425  2.6007 -1.2956
  229MOL0     H31550   8.728   0.435   2.873 -1.6458  0.2619  0.5053
  229MOL0     H31551   8.619   0.113   2.981 -0.5692 -0.5360 -1.2747
  229MOL0     H31552   8.779  -0.127   3.004 -3.1321  0.3310  0.6854
  229MOL0     H31553   8.878  -0.136   2.851 -0.7962  0.4789 -3.8022
  229MOL0     H31554   8.649  -0.262   2.817 -3.3779  0.0103 -2.7782
  229MOL0     H31555   8.566  -0.104   2.831  0.4055 -0.1181 -1.7090
  229MOL0     H31556   8.640  -0.032   2.645 -0.9062 -0.0779  1.2720
  229MOL0     H31557   8.789  -0.146   2.633 -0.0861 -0.6951 -0.7741
  229MOL0     H31558   8.642  -0.328   2.589  2.0436 -0.8256 -3.1368
  229MOL0     H31559   8.512  -0.203   2.607 -0.8308 -2.4909 -0.8681
  229MOL0     H31560   8.542  -0.280   2.213  0.2983 -0.1977  0.9642
  229MOL0     H31561   8.240  -0.289   2.067 -1.7352  0.6596 -1.2597
  229MOL0     H31562   8.412  -0.307   2.018 -0.6841  0.7889 -1.5072
  229MOL0     H31563   8.320  -0.166   1.963 -0.0401 -0.9125 -0.7962
  229MOL0     H31564   7.880  -0.173   1.965  0.1050  0.8095  1.3277
  229MOL0     H31565   7.687  -0.079   1.857 -0.4521  0.8090 -2.2736
  229MOL0     H31566   7.562   0.032   1.696  1.5766  0.4417  0.3355
  229MOL0     H31567   7.511   0.209   1.669  0.9627  1.2270  1.6967
  229MOL0     H31568   7.789   0.111   1.608 -1.7450 -2.0179  0.8263
  229MOL0     H31569   7.671   0.121   1.478  0.7380 -0.0051 -0.3968
  229MOL0     H31570   7.813   0.299   1.478 -1.2654 -2.8087 -0.5751
  229MOL0     H31571   7.766   0.342   1.650  1.9520  0.0399 -0.2215
  229MOL0     H31572   7.560   0.424   1.576  1.3574  3.8433  1.2352
  229MOL0     H31573   7.587   0.361   1.407 -1.4029  4.0164  0.8461
  229MOL0     H31574   7.609   0.609   1.438  0.2988  0.1667 -0.0977
  229MOL0     H31575   7.761   0.565   1.528 -1.7929 -3.0296  2.3829
  229MOL0     H31576   7.675   0.521   1.232 -0.3725 -0.6410 -0.5332
  229MOL0     H31577   7.823   0.450   1.294 -1.5117 -1.3964  0.9380
  229MOL0     H31578   7.891   0.612   1.189  2.0736 -1.2835  0.7938
  229MOL0     H31579   7.927   0.652   1.359  0.3865  0.8113 -1.0418
  229MOL0     H31580   7.694   0.794   1.197 -0.0386  1.0896 -0.9454
  229MOL0     H31581   7.856   0.866   1.204 -1.0440  1.0081  0.0247
  229MOL0     H31582   7.877   0.302   1.875 -2.7246  0.1886 -0.8052
  229MOL0     H31583   8.062   0.203   2.033 -0.3236 -1.2155  0.9321
  229MOL0     H31584   8.260   0.074   2.410  0.2525 -0.5418 -0.0981
  229MOL0     H31585   8.467   0.002   2.511  0.5590  0.5671 -1.2696
  229MOL0     H31586   9.168   0.124   2.742 -1.0344 -1.8237 -3.3092
  229MOL0     H31587   9.236   0.103   2.510 -1.5616 -1.9579  1.9462
  229MOL0     H31588   9.585  -0.080   2.246  5.5228 -0.0809  0.8012
  229MOL0     H31589   9.685  -0.124   2.033 -1.7410 -0.0406  2.1154
  229MOL0     H31590   9.827   0.205   1.752  0.3385  1.5710 -3.3504
  229MOL0     H31591   9.848   0.073   1.646  1.6822  3.1589 -1.0860
  229MOL0     H31592   9.590   0.230   1.692  3.1566  2.7158  0.9317
  229MOL0     H31593   9.595   0.085   1.590  0.1230 -0.4199  0.7974
  229MOL0     H31594   9.752   0.352   1.548  0.6963 -0.2629 -1.3997
  229MOL0     H31595   9.792   0.198   1.471  0.3848 -3.2249  3.4054
  229MOL0     H31596   9.657   0.368   1.351  1.4669 -1.1082 -0.1499
  229MOL0     H31597   9.515   0.337   1.467 -0.1739  0.1954 -0.7877
  229MOL0     H31598   9.571  -0.038   1.269  2.1334  0.6394 -1.8807
  229MOL0     H31599   9.627   0.272   1.894  1.5376 -0.5397 -0.9724
  229MOL0     H31600   9.517   0.410   2.187  3.2940 -0.0820 -0.1584
  229MOL0     H31601   9.557   0.427   2.022 -2.3835  0.9325 -1.9559
  229MOL0     H31602   9.386   0.374   2.065  0.6864 -1.2787 -1.0414
  230MOL0     O31603  11.066   9.215   0.856 -0.8158  0.1088  0.6168
  230MOL0     C31604  11.065   9.323   0.794 -0.2036 -0.7998 -0.5483
  230MOL0     O31605  11.158   9.360   0.693  0.5734 -1.0537 -0.4886
  230MOL0     C31606  11.278   9.300   0.715 -0.1006 -0.0363 -0.5744
  230MOL0     C31607  11.306   9.176   0.649  0.3290 -0.2641 -0.3002
  230MOL0     C31608  11.432   9.124   0.651 -0.3676  0.6586 -1.3769
  230MOL0     C31609  11.540   9.190   0.708  0.4806  0.1316  0.0475
  230MOL0     O31610  11.672   9.177   0.685  0.4064 -0.2866 -0.2574
  230MOL0     C31611  11.716   9.041   0.661  1.0778  0.2237  0.2728
  230MOL0     C31612  11.868   9.028   0.673  0.5014 -0.6788 -0.8097
  230MOL0     C31613  11.941   9.135   0.580 -0.3190  1.4091 -0.1342
  230MOL0     C31614  12.069   9.075   0.520  0.4504  0.4218 -0.7857
  230MOL0     C31615  12.151   9.181   0.427  0.3487  1.2406 -1.0479
  230MOL0     C31616  12.098   9.183   0.287 -0.2772  0.4315 -0.0089
  230MOL0     C31617  12.186   9.259   0.179 -0.4888  0.8704  0.2272
  230MOL0     C31618  12.201   9.409   0.207  0.6005 -0.0420 -0.5362
  230MOL0     N31619  12.256   9.469   0.083 -0.0745 -1.1529 -0.1849
  230MOL0     C31620  12.391   9.485   0.053 -0.5629 -0.6140  0.6033
  230MOL0     C31621  12.388   9.568  -0.054 -1.2405 -0.0498  0.1703
  230MOL0     C31622  12.512   9.637  -0.104  0.2653  0.5212 -0.5462
  230MOL0     C31623  12.467   9.776  -0.143 -0.4079 -0.0521  0.1110
  230MOL0     C31624  12.589   9.858  -0.178  0.7202 -0.0219  0.2401
  230MOL0     C31625  12.551  10.000  -0.225 -0.0807 -1.0160 -0.9939
  230MOL0     O31626  12.472   9.973  -0.343 -0.6503 -0.1932 -0.2448
  230MOL0     C31627  12.408  10.067  -0.410 -0.9853 -0.3534  0.4873
  230MOL0     C31628  12.371  10.187  -0.355  0.1976  0.2035 -0.3896
  230MOL0     C31629  12.295  10.280  -0.426 -0.1732  0.1961 -0.4506
  230MOL0     C31630  12.266  10.415  -0.363 -0.6948 -0.2091 -1.0118
  230MOL0     C31631  12.265  10.264  -0.561 -1.0113 -0.1139 -0.2400
  230MOL0     C31632  12.174  10.344  -0.638 -0.0582 -0.0407  0.8916
  230MOL0     O31633  12.191  10.322  -0.774 -0.2243 -0.4157  1.1959
  230MOL0     C31634  12.123  10.402  -0.861 -0.2916 -0.0072 -0.2062
  230MOL0     C31635  11.985  10.421  -0.845 -0.5337  0.7653 -0.1864
  230MOL0     C31636  11.905  10.485  -0.943  0.9534 -0.5212 -0.4213
  230MOL0     C31637  11.971  10.544  -1.050 -0.1676  0.6837 -0.2172
  230MOL0     O31638  11.895  10.615  -1.146 -0.0800 -0.9579 -1.1654
  230MOL0     C31639  11.900  10.756  -1.114  0.1353 -0.5132 -0.6683
  230MOL0     C31640  11.778  10.830  -1.178  0.3860  0.0867 -0.1000
  230MOL0     C31641  11.781  10.986  -1.174 -0.0655  0.3222 -0.4299
  230MOL0     C31642  11.633  11.044  -1.185  0.0289  0.4357 -0.5153
  230MOL0     C31643  11.645  11.188  -1.224 -0.8650  0.2287  0.2725
  230MOL0     C31644  11.501  11.251  -1.238 -0.9655  0.2079 -0.2976
  230MOL0     C31645  11.520  11.386  -1.318 -0.5319  0.5694 -0.2823
  230MOL0     C31646  11.420  11.498  -1.273  0.1574 -0.4553 -0.1844
  230MOL0    Cl31647  11.255  11.434  -1.297  0.4936  0.0057 -0.0843
  230MOL0     C31648  12.105  10.527  -1.071 -0.5061 -0.2103 -0.3823
  230MOL0     C31649  12.180  10.449  -0.978  0.5435 -0.2632 -0.3206
  230MOL0     O31650  12.094  10.422  -0.587 -0.1319 -0.1352 -0.2287
  230MOL0     C31651  12.300  10.142  -0.612  0.2183 -0.7737  0.0338
  230MOL0     C31652  12.375  10.053  -0.547 -0.7073 -0.5805  0.3672
  230MOL0     N31653  12.260   9.599  -0.083  0.4915  0.2756 -0.1508
  230MOL0     N31654  12.181   9.547   0.002  0.2592  0.0706  0.2744
  230MOL0     C31655  11.514   9.306   0.775 -0.1595 -0.3119  0.5877
  230MOL0     C31656  11.381   9.359   0.786 -0.1365  0.1415  0.8792
  230MOL0     C31657  10.956   9.417   0.816  0.6651  0.5969  0.3553
  230MOL0     C31658  10.979   9.528   0.901 -0.2690 -0.7479  1.6809
  230MOL0     C31659  10.880   9.625   0.915 -0.2450  0.2535 -0.6661
  230MOL0     C31660  10.758   9.611   0.858 -0.7658  1.2422  0.7105
  230MOL0     O31661  10.660   9.691   0.908 -0.1648  0.5298 -1.3896
  230MOL0     C31662  10.522   9.654   0.893 -0.6764 -1.0544 -0.6742
  230MOL0     C31663  10.444   9.771   0.954  0.8311  0.8468 -0.0726
  230MOL0     C31664  10.444   9.757   1.112 -0.6743 -0.3154  0.7525
  230MOL0     C31665  10.376   9.874   1.180  0.1860 -0.6140 -0.1431
  230MOL0     C31666  10.330   9.847   1.315 -0.3781  0.6329 -0.5457
  230MOL0     C31667  10.303   9.830   1.429  0.2161 -0.4341 -0.9384
  230MOL0     C31668  10.730   9.498   0.772 -0.0051 -0.0553  0.0344
  230MOL0     C31669  10.834   9.397   0.752  0.3329  0.0333  0.3321
  230MOL0     C31670  10.820   9.284   0.653  1.1300 -0.2187 -0.3245
  230MOL0     H31671  11.227   9.125   0.595  1.0074  0.0869 -1.6707
  230MOL0     H31672  11.453   9.021   0.622 -2.5031 -0.5902  1.0992
  230MOL0     H31673  11.694   9.010   0.559  3.2437 -2.6986  0.5465
  230MOL0     H31674  11.668   8.976   0.735  1.1663 -0.8758 -0.6193
  230MOL0     H31675  11.902   9.061   0.771  2.1239  0.9039 -1.8207
  230MOL0     H31676  11.892   8.925   0.646  1.2349 -0.1574 -2.2557
  230MOL0     H31677  11.880   9.156   0.492  2.8153 -1.5025 -3.2798
  230MOL0     H31678  11.963   9.232   0.627 -1.3458  1.6510 -0.1270
  230MOL0     H31679  12.135   9.057   0.606 -0.7535  2.9246  0.7789
  230MOL0     H31680  12.039   8.983   0.469 -0.9816  0.9684 -0.9693
  230MOL0     H31681  12.255   9.147   0.429 -0.1486 -0.3822 -0.9045
  230MOL0     H31682  12.155   9.282   0.468  0.7989  0.9874 -0.4400
  230MOL0     H31683  12.083   9.078   0.261  0.8798 -0.4101  2.4373
  230MOL0     H31684  12.000   9.231   0.286  0.1884  1.4181  0.5392
  230MOL0     H31685  12.157   9.227   0.078  1.4886 -2.3973  0.5583
  230MOL0     H31686  12.287   9.219   0.186 -0.7816  0.4036  3.6787
  230MOL0     H31687  12.110   9.463   0.236  0.9744 -0.2761  1.1739
  230MOL0     H31688  12.278   9.416   0.284  1.0476  0.7525 -1.0356
  230MOL0     H31689  12.483   9.449   0.099 -1.3417 -2.3567  0.8665
  230MOL0     H31690  12.562   9.589  -0.188 -1.3176  2.7644 -2.9127
  230MOL0     H31691  12.570   9.655  -0.013  2.5145  1.0360 -2.0209
  230MOL0     H31692  12.407   9.776  -0.234  0.1888 -0.3581 -0.2891
  230MOL0     H31693  12.412   9.821  -0.061  0.7390  2.3279 -0.3404
  230MOL0     H31694  12.653   9.852  -0.090  1.5528  1.0765 -0.2630
  230MOL0     H31695  12.629   9.795  -0.259 -1.4890 -3.3200  1.4896
  230MOL0     H31696  12.502  10.054  -0.144  2.4298 -1.5525  1.0141
  230MOL0     H31697  12.646  10.050  -0.244 -0.5404  1.0824  1.6181
  230MOL0     H31698  12.389  10.191  -0.248  0.7671 -0.1887 -0.4660
  230MOL0     H31699  12.163  10.421  -0.328 -0.2227  2.5058  0.1702
  230MOL0     H31700  12.276  10.503  -0.429 -1.1838 -0.8649 -1.9859
  230MOL0     H31701  12.334  10.432  -0.279 -0.6692 -0.4441 -0.9855
  230MOL0     H31702  11.924  10.399  -0.758 -1.1456  1.9905 -0.2745
  230MOL0     H31703  11.799  10.497  -0.922  1.2092  1.2819  0.0130
  230MOL0     H31704  11.905  10.767  -1.006 -1.3391 -1.0096 -0.5278
  230MOL0     H31705  11.990  10.797  -1.162 -0.7815  2.2201 -0.2340
  230MOL0     H31706  11.769  10.795  -1.282  2.2911 -1.2881  0.1362
  230MOL0     H31707  11.694  10.795  -1.117  0.4587  0.2836  0.1136
  230MOL0     H31708  11.837  11.017  -1.262 -2.7317 -0.8759 -2.7249
  230MOL0     H31709  11.820  11.015  -1.076  0.3596  2.3729 -1.1601
  230MOL0     H31710  11.571  11.035  -1.096  0.0310  0.9574 -0.4553
  230MOL0     H31711  11.580  10.986  -1.260  0.2019  1.5728 -1.5541
  230MOL0     H31712  11.703  11.243  -1.149 -1.0834  2.7415 -1.2874
  230MOL0     H31713  11.709  11.197  -1.312  1.3792 -2.1101  1.5258
  230MOL0     H31714  11.463  11.281  -1.139 -1.1822 -0.8942 -0.0295
  230MOL0     H31715  11.439  11.176  -1.288 -0.9487  0.7106 -1.0712
  230MOL0     H31716  11.490  11.366  -1.421 -4.3223  0.0540  0.7862
  230MOL0     H31717  11.626  11.412  -1.308  1.2879 -3.9815 -4.0587
  230MOL0     H31718  11.441  11.586  -1.336 -0.2924  0.7410  1.2816
  230MOL0     H31719  11.429  11.532  -1.169 -1.4729  2.9353 -1.0128
  230MOL0     H31720  12.159  10.559  -1.159  1.2283 -0.9483  0.3625
  230MOL0     H31721  12.276  10.424  -1.020  0.0290 -1.1994 -0.9817
  230MOL0     H31722  12.262  10.111  -0.708  1.6339 -0.9865 -0.4855
  230MOL0     H31723  12.383   9.956  -0.595  0.2729 -0.4435  0.2355
  230MOL0     H31724  11.599   9.356   0.820  0.9215 -2.3703  0.9711
  230MOL0     H31725  11.372   9.457   0.831  2.4294  0.5815  0.5722
  230MOL0     H31726  11.079   9.542   0.940  0.5494 -0.8806 -0.2719
  230MOL0     H31727  10.886   9.715   0.975  1.4773  0.5221 -1.1852
  230MOL0     H31728  10.493   9.641   0.789  2.8695 -0.9538 -1.8187
  230MOL0     H31729  10.506   9.564   0.953  0.0080 -0.6833  0.0886
  230MOL0     H31730  10.338   9.758   0.930  0.9129  0.7481 -0.3817
  230MOL0     H31731  10.475   9.866   0.910 -0.7548  1.0898 -0.7350
  230MOL0     H31732  10.393   9.669   1.154 -1.1632  1.6804  4.8223
  230MOL0     H31733  10.546   9.750   1.149  0.1382 -0.2487 -1.3298
  230MOL0     H31734  10.287   9.897   1.120  0.9443  1.5303 -0.5431
  230MOL0     H31735  10.443   9.960   1.180  1.5128 -1.5949  0.9842
  230MOL0     H31736  10.269   9.781   1.518  0.8222  1.5613  0.4698
  230MOL0     H31737  10.632   9.481   0.729 -0.2145 -3.1483  1.4873
  230MOL0     H31738  10.903   9.264   0.585  0.0641  1.2317 -2.1517
  230MOL0     H31739  10.795   9.188   0.700 -0.3060 -0.0862 -0.7639
  230MOL0     H31740  10.735   9.312   0.590 -0.8549 -0.8994  1.9202
  231MOL0     O31741   3.026   3.096   6.483  0.1224  0.1071 -0.2780
  231MOL0     C31742   3.041   2.984   6.432 -0.0289 -0.6359 -0.4995
  231MOL0     O31743   3.009   2.950   6.304 -0.3200 -0.2733  1.0352
  231MOL0     C31744   2.962   3.051   6.226 -0.4844 -0.0947  1.1500
  231MOL0     C31745   3.056   3.141   6.156  0.9132  0.3589 -0.1946
  231MOL0     C31746   3.001   3.241   6.071 -0.3881  0.7113 -1.1104
  231MOL0     C31747   2.865   3.274   6.072 -0.3137 -0.6393  0.2757
  231MOL0     O31748   2.798   3.382   6.011  0.5397 -0.6107 -0.2223
  231MOL0     C31749   2.873   3.481   5.949  0.1288 -0.3775 -0.2094
  231MOL0     C31750   2.789   3.604   5.916  0.9927 -0.5006 -0.0172
  231MOL0     C31751   2.656   3.585   5.839  0.8693 -0.0782  1.4386
  231MOL0     C31752   2.685   3.525   5.700 -0.2712 -0.8209 -0.2612
  231MOL0     C31753   2.578   3.459   5.617  0.4382  0.6686 -0.2181
  231MOL0     C31754   2.451   3.532   5.632  0.5248  0.0588  0.1547
  231MOL0     C31755   2.321   3.437   5.655 -0.0955  0.2333 -0.1332
  231MOL0     C31756   2.300   3.341   5.537 -0.6283 -0.2303  0.0868
  231MOL0     N31757   2.248   3.393   5.408 -0.2428 -0.8191 -0.2533
  231MOL0     C31758   2.200   3.521   5.386  0.1023 -0.4511 -0.1880
  231MOL0     C31759   2.156   3.535   5.254 -1.0464 -1.3321  0.8711
  231MOL0     C31760   2.088   3.667   5.199  0.1232 -0.3838  0.3871
  231MOL0     C31761   2.188   3.789   5.194 -0.1283 -0.0466  0.3250
  231MOL0     C31762   2.239   3.806   5.054 -0.2192 -0.7671  0.0247
  231MOL0     C31763   2.372   3.734   5.034  0.1357 -0.6150  0.4893
  231MOL0     O31764   2.443   3.774   4.913 -0.1943  0.4611 -0.4076
  231MOL0     C31765   2.421   3.731   4.788 -0.3766  0.5530  0.2265
  231MOL0     C31766   2.527   3.751   4.693 -0.1800 -0.4936 -0.2170
  231MOL0     C31767   2.518   3.720   4.557  0.2120  0.4769  0.7967
  231MOL0     C31768   2.636   3.762   4.472  0.1612  0.4465  0.1973
  231MOL0     C31769   2.395   3.665   4.507 -0.4777 -0.7776 -0.7065
  231MOL0     C31770   2.360   3.637   4.367  0.4875  0.3905  0.3696
  231MOL0     O31771   2.221   3.617   4.338 -0.3642 -0.4729 -0.7956
  231MOL0     C31772   2.187   3.587   4.214 -0.0413 -0.3828  0.4404
  231MOL0     C31773   2.205   3.464   4.151 -0.2200  0.3226 -0.9439
  231MOL0     C31774   2.145   3.441   4.024  0.3063 -0.7456 -0.1044
  231MOL0     C31775   2.076   3.542   3.956  0.3243 -0.0325  0.4358
  231MOL0     O31776   2.044   3.512   3.825 -0.3221 -0.1624 -0.0897
  231MOL0     C31777   1.974   3.612   3.752  1.1267 -0.3975 -0.1952
  231MOL0     C31778   1.986   3.584   3.602  0.0084  0.6648 -0.1427
  231MOL0     C31779   1.856   3.620   3.525 -0.3617  1.1161  0.1093
  231MOL0     C31780   1.802   3.756   3.549  0.2861 -0.1313  0.2241
  231MOL0     C31781   1.686   3.798   3.451  0.0480  0.9421 -0.6925
  231MOL0     C31782   1.643   3.941   3.476  0.2349  0.5237 -0.5703
  231MOL0     C31783   1.544   3.979   3.371  0.0702 -0.1125  0.9647
  231MOL0     C31784   1.547   4.131   3.346 -0.4487  1.0645  0.0624
  231MOL0    Cl31785   1.572   4.219   3.498  0.0248 -0.1993 -0.5166
  231MOL0     C31786   2.064   3.668   4.018  1.1725 -0.2454 -0.4581
  231MOL0     C31787   2.119   3.691   4.142 -0.4645 -0.3428 -0.4810
  231MOL0     O31788   2.449   3.626   4.282  0.4638  0.1468 -0.1458
  231MOL0     C31789   2.293   3.664   4.598  0.5011  0.4969 -0.7847
  231MOL0     C31790   2.306   3.687   4.735  0.0923 -0.4515  0.2902
  231MOL0     N31791   2.149   3.404   5.213 -0.0717 -0.2188  0.1407
  231MOL0     N31792   2.208   3.327   5.297 -0.0485  0.0370 -0.5027
  231MOL0     C31793   2.788   3.187   6.139  0.4931  0.1344  0.1082
  231MOL0     C31794   2.825   3.076   6.218 -0.2890 -0.5453  0.4995
  231MOL0     C31795   3.114   2.879   6.503 -0.0166 -0.5604  0.1705
  231MOL0     C31796   3.088   2.876   6.637 -0.5648  0.9089 -0.8050
  231MOL0     C31797   3.169   2.794   6.721  0.8312  0.3071  0.0222
  231MOL0     C31798   3.270   2.710   6.671 -0.3748 -0.8821  0.2249
  231MOL0     O31799   3.360   2.656   6.760 -0.2276  0.3496  0.0335
  231MOL0     C31800   3.494   2.644   6.706 -0.2214  0.7130 -0.0045
  231MOL0     C31801   3.590   2.645   6.832 -0.5462  0.6629  0.2376
  231MOL0     C31802   3.581   2.763   6.925  0.1926 -0.8760 -0.1285
  231MOL0     C31803   3.643   2.898   6.878 -0.3746  0.1198  0.7407
  231MOL0     C31804   3.535   2.991   6.830  0.0993 -0.4451 -0.1562
  231MOL0     C31805   3.447   3.060   6.781  0.2199 -0.3545  0.1640
  231MOL0     C31806   3.280   2.703   6.531  0.3774  0.6143  0.1465
  231MOL0     C31807   3.214   2.796   6.443  0.0348 -0.2862 -0.2555
  231MOL0     C31808   3.252   2.790   6.298 -0.0273  0.7135 -0.0828
  231MOL0     H31809   3.164   3.136   6.155  1.1048  2.8160  0.9532
  231MOL0     H31810   3.067   3.295   6.005  0.4087  3.6116  1.7929
  231MOL0     H31811   2.922   3.444   5.858  3.1116  0.9531  0.7275
  231MOL0     H31812   2.952   3.513   6.017  0.0906 -2.6860  1.0278
  231MOL0     H31813   2.777   3.657   6.010  1.1780 -1.4279  0.5372
  231MOL0     H31814   2.848   3.674   5.855  0.0188  0.1402 -0.2430
  231MOL0     H31815   2.586   3.518   5.889 -0.5113 -0.0337 -0.3273
  231MOL0     H31816   2.600   3.679   5.836 -1.3106 -1.2412 -3.3344
  231MOL0     H31817   2.722   3.612   5.645 -1.6269 -0.9819 -1.4814
  231MOL0     H31818   2.773   3.460   5.702  0.8539  0.6088 -1.6989
  231MOL0     H31819   2.570   3.360   5.663 -1.9520 -0.1899 -2.2626
  231MOL0     H31820   2.609   3.454   5.512  3.0167  1.5664  0.4128
  231MOL0     H31821   2.443   3.613   5.704 -1.0903 -1.3723  1.6688
  231MOL0     H31822   2.451   3.582   5.535  1.1868  0.5007  0.3792
  231MOL0     H31823   2.229   3.492   5.675  0.5355  2.2804 -2.3072
  231MOL0     H31824   2.329   3.369   5.740  3.4043 -0.7382 -1.0667
  231MOL0     H31825   2.393   3.286   5.520 -0.5965 -0.1050 -0.1553
  231MOL0     H31826   2.217   3.277   5.567 -1.1454 -0.0068 -0.8128
  231MOL0     H31827   2.192   3.601   5.459 -0.3120  0.7387 -1.4809
  231MOL0     H31828   2.013   3.688   5.276 -0.9177 -4.6404  0.8029
  231MOL0     H31829   2.047   3.664   5.098 -1.1454 -0.4086  0.8839
  231MOL0     H31830   2.120   3.873   5.211 -2.1020 -1.8483  1.9371
  231MOL0     H31831   2.270   3.781   5.266 -0.5060  2.4329  1.1305
  231MOL0     H31832   2.169   3.775   4.976  1.0051 -0.4517 -1.2385
  231MOL0     H31833   2.254   3.910   5.025  1.8776 -1.7239 -2.7993
  231MOL0     H31834   2.444   3.756   5.114  0.6487  3.1871 -0.8390
  231MOL0     H31835   2.344   3.629   5.022  0.3608 -0.4997 -1.2794
  231MOL0     H31836   2.614   3.796   4.742 -0.5337 -0.1331  0.0893
  231MOL0     H31837   2.606   3.787   4.370 -1.1431 -0.2704  0.3871
  231MOL0     H31838   2.708   3.679   4.469  0.2762  0.5768 -1.2641
  231MOL0     H31839   2.676   3.856   4.510  1.7874 -0.4146  0.7135
  231MOL0     H31840   2.252   3.378   4.198  0.0420  0.8270 -0.2545
  231MOL0     H31841   2.160   3.337   3.997  3.2251 -0.7064  0.9498
  231MOL0     H31842   1.869   3.618   3.783  0.9082  1.2543 -1.1181
  231MOL0     H31843   2.018   3.711   3.769 -4.2755  2.1670  0.8699
  231MOL0     H31844   2.076   3.626   3.556 -0.2960  0.1112 -1.2739
  231MOL0     H31845   1.996   3.475   3.600 -2.1464  0.3070  2.3803
  231MOL0     H31846   1.782   3.542   3.543  1.4424 -0.4140  1.3080
  231MOL0     H31847   1.878   3.618   3.418 -1.3927  1.3830 -0.1181
  231MOL0     H31848   1.873   3.838   3.533 -1.7712  1.4873 -1.1306
  231MOL0     H31849   1.769   3.762   3.653 -0.2240 -0.1551  0.0642
  231MOL0     H31850   1.724   3.799   3.349 -1.8092  1.1052 -1.4192
  231MOL0     H31851   1.601   3.729   3.457  0.1096  0.8107 -1.2813
  231MOL0     H31852   1.730   4.007   3.483 -1.5863  3.0482 -0.3112
  231MOL0     H31853   1.592   3.950   3.572  0.0494 -0.0608 -0.6149
  231MOL0     H31854   1.445   3.949   3.407 -0.1174 -0.3674  0.2540
  231MOL0     H31855   1.565   3.916   3.284 -0.2814 -0.8981  1.4285
  231MOL0     H31856   1.446   4.158   3.313 -0.4520  0.9020 -0.0680
  231MOL0     H31857   1.626   4.166   3.279 -1.0842  0.0071 -1.2843
  231MOL0     H31858   2.007   3.754   3.985  3.5059  3.6014  4.1328
  231MOL0     H31859   2.101   3.780   4.201 -1.3597 -1.8307  1.6116
  231MOL0     H31860   2.192   3.640   4.568  1.1543 -1.1675 -1.7368
  231MOL0     H31861   2.224   3.674   4.805  0.4732  0.4249  0.9083
  231MOL0     H31862   2.682   3.210   6.136  0.9960  2.6023 -1.5174
  231MOL0     H31863   2.761   3.004   6.267 -0.1384 -1.0719 -0.0577
  231MOL0     H31864   3.023   2.945   6.689 -0.9048 -0.4062  0.5887
  231MOL0     H31865   3.133   2.791   6.824 -2.7398 -1.5030 -1.0901
  231MOL0     H31866   3.507   2.546   6.660  3.2083  1.3452 -0.6386
  231MOL0     H31867   3.514   2.732   6.645 -1.3369  0.3748 -0.8825
  231MOL0     H31868   3.687   2.648   6.780 -0.5299  1.5556  0.2956
  231MOL0     H31869   3.566   2.551   6.882 -0.4184 -0.2308 -1.3161
  231MOL0     H31870   3.477   2.773   6.955 -0.6343 -0.5043 -2.8083
  231MOL0     H31871   3.629   2.730   7.018 -3.2276 -0.8954  1.7774
  231MOL0     H31872   3.710   2.875   6.795  0.3142 -0.0808  1.3424
  231MOL0     H31873   3.694   2.956   6.955  0.0421  1.0908 -0.2385
  231MOL0     H31874   3.358   3.102   6.739 -0.4433 -1.3695  0.5222
  231MOL0     H31875   3.361   2.645   6.489  1.5084  1.4179  1.1292
  231MOL0     H31876   3.293   2.886   6.266 -0.6542  1.7413  2.0404
  231MOL0     H31877   3.334   2.721   6.274  0.2296  1.5383 -1.7497
  231MOL0     H31878   3.161   2.760   6.245 -1.4609  2.0335  1.5554
  232MOL0     O31879   3.041   9.464   3.233 -0.4187 -0.7897  0.7110
  232MOL0     C31880   3.046   9.470   3.109 -0.2317  0.3687  0.1672
  232MOL0     O31881   2.939   9.428   3.032 -0.0224 -0.4705 -0.2815
  232MOL0     C31882   2.814   9.406   3.091  0.3996 -0.2226  0.9792
  232MOL0     C31883   2.758   9.494   3.196 -0.2971 -0.1192 -1.3976
  232MOL0     C31884   2.630   9.476   3.248 -0.6133  0.0831 -0.1008
  232MOL0     C31885   2.549   9.371   3.200 -0.0447 -0.2165  0.8529
  232MOL0     O31886   2.442   9.335   3.272  0.6576 -0.0041 -0.2441
  232MOL0     C31887   2.485   9.305   3.406  0.3577  0.5806 -0.1321
  232MOL0     C31888   2.391   9.191   3.460  0.1062  0.3368  0.2078
  232MOL0     C31889   2.250   9.247   3.465  0.0169 -0.5643  0.4974
  232MOL0     C31890   2.143   9.147   3.533 -0.1336  0.0759  0.3111
  232MOL0     C31891   2.005   9.201   3.561  0.1141 -0.5791  0.1865
  232MOL0     C31892   1.937   9.303   3.454 -0.7217  1.1560  0.1575
  232MOL0     C31893   1.928   9.245   3.308 -0.5694 -0.0154 -0.3306
  232MOL0     C31894   1.809   9.178   3.274  0.2811 -0.1039  0.1403
  232MOL0     N31895   1.764   9.068   3.358  0.4068  0.2257 -0.2814
  232MOL0     C31896   1.804   8.939   3.338 -0.2993  0.7847 -0.2050
  232MOL0     C31897   1.732   8.860   3.421  0.2589  0.1707 -0.0355
  232MOL0     C31898   1.754   8.710   3.433  0.0564  1.1711  0.0795
  232MOL0     C31899   1.753   8.671   3.579  0.5727 -0.4381  0.3794
  232MOL0     C31900   1.884   8.685   3.647 -0.8814 -0.1798 -0.6290
  232MOL0     C31901   1.926   8.827   3.689 -0.4368  0.5010 -0.4323
  232MOL0     O31902   1.830   8.894   3.772  0.0305 -0.1317 -0.6103
  232MOL0     C31903   1.790   8.824   3.880  0.1075 -0.3191 -0.7241
  232MOL0     C31904   1.875   8.772   3.974  0.0194  0.0744 -0.1562
  232MOL0     C31905   1.832   8.692   4.077  0.7754  0.1139 -0.9885
  232MOL0     C31906   1.939   8.614   4.161 -0.2602 -0.5325  0.5371
  232MOL0     C31907   1.696   8.676   4.099  0.4727 -0.2546  0.2568
  232MOL0     C31908   1.630   8.601   4.197  0.1367  0.2422  0.1016
  232MOL0     O31909   1.513   8.550   4.165  1.0824  0.1665 -0.1346
  232MOL0     C31910   1.421   8.495   4.256 -0.1831  0.3689 -0.2510
  232MOL0     C31911   1.397   8.351   4.232  0.4414 -0.6434  0.0741
  232MOL0     C31912   1.295   8.281   4.300  0.4518 -0.5511  0.0903
  232MOL0     C31913   1.230   8.339   4.411 -0.8944 -0.3021 -0.1659
  232MOL0     O31914   1.131   8.268   4.473 -0.7723 -0.7427  0.3005
  232MOL0     C31915   1.118   8.268   4.618 -0.1836  0.1246  0.0678
  232MOL0     C31916   1.013   8.169   4.666  0.2856 -0.1839 -1.8407
  232MOL0     C31917   0.873   8.218   4.627 -0.1324  0.4836 -0.2734
  232MOL0     C31918   0.769   8.143   4.691  0.5163 -0.7857 -0.0138
  232MOL0     C31919   0.640   8.171   4.619  0.1058  0.2692  0.1016
  232MOL0     C31920   0.532   8.066   4.673 -0.1783 -0.5453 -0.2596
  232MOL0     C31921   0.477   8.089   4.808 -0.1527 -0.1085  0.3562
  232MOL0     C31922   0.425   7.966   4.880 -0.0701  0.6796 -0.0932
  232MOL0    Cl31923   0.561   7.897   4.974  0.2041  0.8581  0.2801
  232MOL0     C31924   1.263   8.476   4.440  0.2645 -0.1584  0.6442
  232MOL0     C31925   1.347   8.558   4.359 -0.4340 -0.2207  0.2432
  232MOL0     O31926   1.688   8.579   4.306 -0.2507 -0.2508 -0.4114
  232MOL0     C31927   1.612   8.737   4.008 -0.3073  0.5410 -0.1224
  232MOL0     C31928   1.651   8.801   3.894  0.3923  0.1811  0.0937
  232MOL0     N31929   1.643   8.950   3.487  0.0842  0.8555  0.1511
  232MOL0     N31930   1.656   9.073   3.447 -0.1015  0.5074 -0.2146
  232MOL0     C31931   2.593   9.300   3.082  0.4249  0.1236 -0.3061
  232MOL0     C31932   2.728   9.315   3.032  0.3386 -0.5275  0.2857
  232MOL0     C31933   3.170   9.510   3.027  0.3090  0.2946 -0.6888
  232MOL0     C31934   3.137   9.555   2.896  0.5128 -0.6300  0.3803
  232MOL0     C31935   3.240   9.587   2.810  0.5322 -0.9103 -0.2569
  232MOL0     C31936   3.370   9.589   2.849 -0.8712  0.4204 -1.4678
  232MOL0     O31937   3.459   9.647   2.764 -0.3079  0.0220  0.5348
  232MOL0     C31938   3.558   9.568   2.705 -0.5382  0.2364  0.0294
  232MOL0     C31939   3.552   9.568   2.552  0.0079  0.3613  0.7072
  232MOL0     C31940   3.665   9.503   2.486 -0.0482 -0.5710  0.1991
  232MOL0     C31941   3.806   9.552   2.523  0.2438 -0.9369  0.0060
  232MOL0     C31942   3.840   9.691   2.546 -1.5636 -1.3772 -0.1965
  232MOL0     C31943   3.871   9.808   2.569  0.5593 -0.1444  0.5081
  232MOL0     C31944   3.400   9.556   2.978  0.5868 -0.8946  0.2504
  232MOL0     C31945   3.302   9.508   3.069  0.8797 -0.0323  0.9116
  232MOL0     C31946   3.332   9.458   3.201  0.1051  0.7610 -0.5092
  232MOL0     H31947   2.825   9.570   3.235  0.0455 -1.5188  0.8925
  232MOL0     H31948   2.578   9.525   3.330 -2.1320 -0.8807 -0.4462
  232MOL0     H31949   2.472   9.384   3.481 -0.9469 -1.5277  2.0306
  232MOL0     H31950   2.583   9.257   3.398 -0.0539 -0.1892 -0.7011
  232MOL0     H31951   2.397   9.105   3.393  0.3323  1.2751 -1.0006
  232MOL0     H31952   2.419   9.159   3.561 -0.0958  4.1333  1.6289
  232MOL0     H31953   2.243   9.336   3.529  1.0111 -1.1363  1.4365
  232MOL0     H31954   2.219   9.253   3.361 -3.0151 -2.9342  1.1216
  232MOL0     H31955   2.138   9.062   3.464  3.0542  0.8758 -1.1138
  232MOL0     H31956   2.188   9.105   3.623  1.1838  0.7832  0.0035
  232MOL0     H31957   2.020   9.261   3.652  1.9095 -1.5954  0.5995
  232MOL0     H31958   1.930   9.129   3.594 -1.1980  1.3168  1.5844
  232MOL0     H31959   1.837   9.329   3.488 -1.0005 -2.9591  3.2308
  232MOL0     H31960   2.004   9.389   3.447 -0.2130  0.6289 -2.3093
  232MOL0     H31961   2.016   9.183   3.295 -0.1188  0.3403  0.8780
  232MOL0     H31962   1.934   9.322   3.231 -3.7666  0.4103 -0.3215
  232MOL0     H31963   1.730   9.252   3.281 -1.9802 -2.5065  3.5959
  232MOL0     H31964   1.821   9.145   3.170 -1.4219  0.1894 -0.1687
  232MOL0     H31965   1.868   8.903   3.258 -0.2372 -1.9851  0.9762
  232MOL0     H31966   1.847   8.674   3.388 -0.1136 -1.3417  1.5358
  232MOL0     H31967   1.667   8.663   3.387  0.2439  2.7494 -2.0156
  232MOL0     H31968   1.669   8.713   3.636  0.0014  0.2486 -0.9256
  232MOL0     H31969   1.738   8.563   3.589 -0.3837 -0.3165  0.3849
  232MOL0     H31970   1.888   8.626   3.739 -2.4420  0.3688 -0.1914
  232MOL0     H31971   1.950   8.637   3.573 -0.0922  0.9444 -0.6872
  232MOL0     H31972   2.020   8.824   3.745 -0.9694  0.9041  0.5077
  232MOL0     H31973   1.943   8.888   3.600 -0.1935  1.4543  0.2549
  232MOL0     H31974   1.980   8.779   3.948  0.8772  1.5430  3.1954
  232MOL0     H31975   1.939   8.507   4.137  6.1030 -0.5587 -0.9110
  232MOL0     H31976   1.928   8.641   4.267 -4.4324  1.8882 -0.2697
  232MOL0     H31977   2.037   8.650   4.129 -0.0193 -0.2661  1.5437
  232MOL0     H31978   1.440   8.294   4.150 -2.0405 -1.9348 -0.4229
  232MOL0     H31979   1.258   8.184   4.267  0.2492  0.3921 -2.7017
  232MOL0     H31980   1.214   8.256   4.670 -2.8577 -3.3904  5.0099
  232MOL0     H31981   1.084   8.370   4.638 -2.6682 -1.0784  2.5714
  232MOL0     H31982   1.030   8.066   4.633  1.3660 -1.4279  2.0783
  232MOL0     H31983   1.013   8.178   4.775 -1.3595 -1.4411 -1.6980
  232MOL0     H31984   0.862   8.223   4.518  0.4001  4.2498 -0.2603
  232MOL0     H31985   0.868   8.323   4.657  0.6367  0.0517  1.4994
  232MOL0     H31986   0.760   8.155   4.800  0.8496  1.1352 -0.1575
  232MOL0     H31987   0.795   8.039   4.669  4.0563  0.5569 -3.4349
  232MOL0     H31988   0.611   8.275   4.637  2.8690  1.0791  0.3956
  232MOL0     H31989   0.660   8.158   4.512  3.6733 -0.9414  0.7762
  232MOL0     H31990   0.590   7.973   4.664  0.2160 -0.1466 -2.7554
  232MOL0     H31991   0.440   8.071   4.615  0.0601  3.6078 -0.5366
  232MOL0     H31992   0.405   8.170   4.796  0.3641  0.3357  0.1851
  232MOL0     H31993   0.550   8.133   4.877  0.2489 -1.1120  0.5928
  232MOL0     H31994   0.402   7.889   4.805  2.5641  3.2207 -3.8580
  232MOL0     H31995   0.344   8.002   4.942 -0.0274  2.3458 -0.9592
  232MOL0     H31996   1.205   8.521   4.520 -0.5945  1.8188 -0.9741
  232MOL0     H31997   1.375   8.653   4.404  1.8108 -2.1038  3.2098
  232MOL0     H31998   1.504   8.743   4.021 -0.2029  1.5764  0.4118
  232MOL0     H31999   1.587   8.857   3.826  1.7027 -0.0924 -1.4251
  232MOL0     H32000   2.539   9.211   3.051 -2.5738  1.6556  0.1030
  232MOL0     H32001   2.773   9.265   2.947  0.2431  0.5861 -0.4390
  232MOL0     H32002   3.033   9.552   2.863 -0.5106  0.3984  3.1741
  232MOL0     H32003   3.200   9.602   2.710 -2.1918  1.7300  1.0858
  232MOL0     H32004   3.657   9.605   2.734 -1.8186  5.3853 -1.1114
  232MOL0     H32005   3.547   9.466   2.743  2.0834 -0.8342 -1.8313
  232MOL0     H32006   3.541   9.672   2.519 -1.8641 -0.4791 -1.6370
  232MOL0     H32007   3.459   9.520   2.519 -0.4680  0.1672  2.2329
  232MOL0     H32008   3.667   9.397   2.511  3.0885 -0.2574  1.7825
  232MOL0     H32009   3.645   9.526   2.381  0.9726  1.4302  0.3858
  232MOL0     H32010   3.871   9.508   2.447  0.8062 -0.6355  0.3081
  232MOL0     H32011   3.836   9.514   2.621 -2.6575 -0.5374  1.1447
  232MOL0     H32012   3.901   9.907   2.597  5.5261 -1.9348  2.7520
  232MOL0     H32013   3.504   9.565   3.008  0.6847 -0.4326 -0.2176
  232MOL0     H32014   3.441   9.446   3.209  0.6434  5.2039  2.6446
  232MOL0     H32015   3.306   9.517   3.289  0.8932  0.5210 -0.1007
  232MOL0     H32016   3.300   9.353   3.207  2.1409  0.0994 -0.0502
  233MOL0     O32017  11.453   9.602   8.424  0.1420  0.0205 -0.3854
  233MOL0     C32018  11.369   9.515   8.425  0.0562  0.3656 -0.0657
  233MOL0     O32019  11.403   9.388   8.398 -0.4288 -0.0366 -0.0558
  233MOL0     C32020  11.524   9.356   8.349  0.1968 -0.7055  0.4392
  233MOL0     C32021  11.621   9.300   8.431 -0.0814  1.1255  0.2210
  233MOL0     C32022  11.751   9.282   8.385 -0.0925 -0.1378 -0.2909
  233MOL0     C32023  11.786   9.326   8.256  0.1186 -0.4015 -1.0581
  233MOL0     O32024  11.911   9.297   8.216  0.5341 -0.4108  0.0366
  233MOL0     C32025  11.904   9.187   8.126 -0.0051  0.0277  0.3606
  233MOL0     C32026  12.050   9.172   8.072  0.3240 -0.1330 -0.8102
  233MOL0     C32027  12.096   9.290   7.989 -0.2424 -1.1375 -0.2372
  233MOL0     C32028  12.243   9.296   7.946 -0.1998  0.7673  0.1624
  233MOL0     C32029  12.266   9.407   7.848  0.1139  0.5288 -0.2496
  233MOL0     C32030  12.416   9.391   7.809  0.0116 -1.0264  0.6710
  233MOL0     C32031  12.479   9.503   7.731  0.1458 -0.7408 -0.2326
  233MOL0     C32032  12.389   9.556   7.619  0.1503  0.0086 -0.7321
  233MOL0     N32033  12.453   9.636   7.509  0.2673  0.2996  0.3580
  233MOL0     C32034  12.462   9.774   7.506  0.3578  0.1682  0.7110
  233MOL0     C32035  12.515   9.801   7.384 -0.8987 -0.3098 -0.6715
  233MOL0     C32036  12.573   9.917   7.310  0.2040 -0.7473 -0.2319
  233MOL0     C32037  12.648  10.008   7.407 -1.0170 -0.7460 -0.8800
  233MOL0     C32038  12.776   9.946   7.460 -0.0323 -0.6447  0.6254
  233MOL0     C32039  12.863  10.031   7.567  0.4357  0.4293  0.7384
  233MOL0     O32040  12.788  10.085   7.676 -0.3745  0.2472  0.7390
  233MOL0     C32041  12.854  10.173   7.764  0.1250 -0.1443 -0.3251
  233MOL0     C32042  12.769  10.224   7.862  0.3092  0.2007 -0.2484
  233MOL0     C32043  12.826  10.302   7.964  0.3721 -0.3189 -0.2969
  233MOL0     C32044  12.735  10.352   8.068  0.4873  0.2349  0.6980
  233MOL0     C32045  12.957  10.343   7.957  0.1352  0.0466 -0.7701
  233MOL0     C32046  13.018  10.436   8.055  0.1136 -0.1666 -0.0734
  233MOL0     O32047  12.991  10.431   8.196 -0.0169  0.0705  0.3275
  233MOL0     C32048  13.023  10.536   8.285  0.4116 -0.8984  0.5765
  233MOL0     C32049  13.099  10.650   8.247  0.6919 -0.2764 -0.0181
  233MOL0     C32050  13.114  10.757   8.342 -0.8222  1.1255 -0.3182
  233MOL0     C32051  13.062  10.754   8.471 -0.2357  0.7164 -0.0398
  233MOL0     O32052  13.080  10.858   8.559 -0.7260  0.4919 -0.6089
  233MOL0     C32053  13.123  10.829   8.697 -0.6182  0.0598  0.4055
  233MOL0     C32054  13.160  10.966   8.764  0.4721 -1.4396  0.7083
  233MOL0     C32055  13.247  11.073   8.673  0.4907  0.2036  0.6105
  233MOL0     C32056  13.239  11.220   8.724 -0.7380 -0.0411 -0.4199
  233MOL0     C32057  13.310  11.322   8.634  0.3555 -0.0360 -0.2474
  233MOL0     C32058  13.456  11.323   8.664 -0.0727  0.0333 -0.4187
  233MOL0     C32059  13.531  11.420   8.576  0.3651 -0.6777  0.6202
  233MOL0     C32060  13.677  11.416   8.609 -0.3650 -0.1398 -0.1684
  233MOL0    Cl32061  13.759  11.257   8.549  0.0215 -0.5735  0.2775
  233MOL0     C32062  12.989  10.638   8.500  0.6774  0.3556  0.4999
  233MOL0     C32063  12.964  10.532   8.411  0.4088 -0.4352 -0.3733
  233MOL0     O32064  13.108  10.503   8.001  0.1607  0.2044 -0.9427
  233MOL0     C32065  13.041  10.283   7.866 -0.2309 -0.1232  0.0682
  233MOL0     C32066  12.991  10.200   7.775 -0.7770  0.3952  1.0609
  233MOL0     N32067  12.510   9.684   7.311  0.1765  0.5232 -0.0738
  233MOL0     N32068  12.472   9.588   7.385 -0.8403 -0.1420 -0.3026
  233MOL0     C32069  11.685   9.387   8.176 -0.8778 -0.3361  0.6717
  233MOL0     C32070  11.554   9.398   8.222  0.0940 -0.1145 -0.2646
  233MOL0     C32071  11.227   9.552   8.475 -0.5126 -0.3074  0.3678
  233MOL0     C32072  11.160   9.462   8.558 -0.1191 -0.1533  0.0630
  233MOL0     C32073  11.028   9.493   8.605  0.1085 -0.0424  0.3342
  233MOL0     C32074  10.969   9.611   8.555 -0.4885 -0.0169 -1.1132
  233MOL0     O32075  10.848   9.650   8.612 -0.2996  0.3839 -0.6794
  233MOL0     C32076  10.787   9.571   8.714  0.3575 -0.7579 -0.9114
  233MOL0     C32077  10.644   9.630   8.736  0.0878  0.3187 -0.3844
  233MOL0     C32078  10.544   9.600   8.620 -0.4354 -0.1781  0.1441
  233MOL0     C32079  10.408   9.640   8.668  0.2940 -0.4028  0.5606
  233MOL0     C32080  10.313   9.645   8.556  0.2552  0.6100 -0.8103
  233MOL0     C32081  10.241   9.624   8.457  0.0257  1.0873  0.8467
  233MOL0     C32082  11.032   9.690   8.464 -0.2547 -0.0077 -0.4266
  233MOL0     C32083  11.163   9.671   8.427 -0.1747 -0.4479 -0.0001
  233MOL0     C32084  11.222   9.771   8.334 -1.0200 -0.1771 -0.2361
  233MOL0     H32085  11.598   9.263   8.530  0.0817  0.7858  0.1338
  233MOL0     H32086  11.826   9.239   8.451  3.5957  2.2897 -2.5440
  233MOL0     H32087  11.827   9.211   8.052 -1.6646  0.9206  2.2526
  233MOL0     H32088  11.867   9.100   8.183 -0.8278  1.3046  1.8784
  233MOL0     H32089  12.126   9.164   8.150 -0.4050 -2.7128 -0.2636
  233MOL0     H32090  12.049   9.081   8.011 -0.5964  0.7317 -2.1483
  233MOL0     H32091  12.048   9.292   7.891  1.3200  1.1152 -1.0599
  233MOL0     H32092  12.071   9.387   8.034 -1.1975 -0.9420 -1.1624
  233MOL0     H32093  12.310   9.297   8.033 -0.1545 -0.5191  0.1634
  233MOL0     H32094  12.281   9.211   7.889 -1.6178  1.5648 -2.0899
  233MOL0     H32095  12.243   9.499   7.904 -0.7488 -0.2687  0.7657
  233MOL0     H32096  12.211   9.390   7.755  1.4397 -2.1708 -0.6292
  233MOL0     H32097  12.485   9.376   7.892 -0.0887  1.7133  1.3282
  233MOL0     H32098  12.427   9.297   7.754 -1.9701 -1.5524  1.0656
  233MOL0     H32099  12.570   9.461   7.689  0.4997 -0.3268  0.1137
  233MOL0     H32100  12.498   9.576   7.811 -2.9864  1.2576 -1.1135
  233MOL0     H32101  12.335   9.468   7.583  2.3780 -2.8186  2.2598
  233MOL0     H32102  12.310   9.623   7.652  2.0534  2.7185 -1.2850
  233MOL0     H32103  12.489   9.842   7.586  1.2080  0.1842  0.4196
  233MOL0     H32104  12.490   9.978   7.271  0.9694 -0.5047 -1.5451
  233MOL0     H32105  12.625   9.885   7.219  0.8073  0.8250 -0.4818
  233MOL0     H32106  12.688  10.100   7.362  1.5401 -0.3374  1.9104
  233MOL0     H32107  12.594  10.044   7.495  1.7717  0.2679  0.5589
  233MOL0     H32108  12.745   9.850   7.502 -0.9850 -0.7482 -0.2961
  233MOL0     H32109  12.840   9.918   7.376  0.3670 -0.7002  0.9434
  233MOL0     H32110  12.950   9.978   7.608  0.3817 -0.6671 -0.4976
  233MOL0     H32111  12.908  10.121   7.524 -0.6943  0.8407  0.3781
  233MOL0     H32112  12.664  10.197   7.875  0.6203 -0.5407  0.7831
  233MOL0     H32113  12.698  10.453   8.049 -0.7319  0.1391  2.3135
  233MOL0     H32114  12.783  10.360   8.166  1.8444 -2.0066  0.2782
  233MOL0     H32115  12.653  10.279   8.070  0.3402  0.2662 -1.5047
  233MOL0     H32116  13.150  10.676   8.154  1.7016 -2.6932 -0.2063
  233MOL0     H32117  13.181  10.840   8.319  3.1210 -1.1072  2.0333
  233MOL0     H32118  13.031  10.794   8.744 -0.7684 -1.4393 -0.9324
  233MOL0     H32119  13.200  10.752   8.695 -1.9159 -1.2854 -1.8522
  233MOL0     H32120  13.069  11.023   8.786  1.6453  2.0141 -2.2433
  233MOL0     H32121  13.212  10.943   8.857 -0.5486  1.2912  2.0722
  233MOL0     H32122  13.219  11.073   8.567  0.0817  1.5604  0.6982
  233MOL0     H32123  13.353  11.048   8.677  0.5045 -0.3562 -1.6148
  233MOL0     H32124  13.280  11.226   8.826 -0.8385 -0.5184 -0.3507
  233MOL0     H32125  13.136  11.258   8.730 -0.1005  1.6781  0.2766
  233MOL0     H32126  13.281  11.310   8.530 -1.5736  1.2549  0.0846
  233MOL0     H32127  13.267  11.419   8.662 -4.4370 -2.8121  3.5419
  233MOL0     H32128  13.514  11.233   8.645 -0.0760  0.3526 -2.1518
  233MOL0     H32129  13.464  11.353   8.769  1.1811 -0.8470 -0.2333
  233MOL0     H32130  13.498  11.523   8.590  0.4141 -0.7287  1.1273
  233MOL0     H32131  13.514  11.392   8.471 -0.1597 -0.2910  0.5989
  233MOL0     H32132  13.698  11.436   8.714  1.9847  1.1833 -0.8171
  233MOL0     H32133  13.712  11.507   8.559  0.1865 -0.2010  0.1026
  233MOL0     H32134  12.951  10.635   8.602  2.2524  2.2507  1.2005
  233MOL0     H32135  12.913  10.439   8.431  0.6869 -0.4076  0.4789
  233MOL0     H32136  13.149  10.299   7.872  0.2900 -2.7840 -0.6953
  233MOL0     H32137  13.062  10.146   7.713 -4.0835 -0.9085 -1.9402
  233MOL0     H32138  11.708   9.416   8.074 -3.5021 -0.5338 -0.0617
  233MOL0     H32139  11.471   9.440   8.165  0.5428  0.3565 -0.5864
  233MOL0     H32140  11.212   9.372   8.588 -3.2044 -2.2457 -0.3404
  233MOL0     H32141  10.980   9.418   8.666 -1.9454 -1.5051 -2.8108
  233MOL0     H32142  10.775   9.465   8.688  0.1717 -0.5244 -1.7874
  233MOL0     H32143  10.844   9.576   8.807 -1.9113  2.4358  0.4949
  233MOL0     H32144  10.655   9.738   8.745 -0.4573  0.6093 -2.4850
  233MOL0     H32145  10.604   9.588   8.828 -0.6112  0.7790 -0.4736
  233MOL0     H32146  10.569   9.660   8.532 -2.5019 -1.7822 -1.6261
  233MOL0     H32147  10.548   9.494   8.596 -0.6266  0.6233 -4.1834
  233MOL0     H32148  10.404   9.743   8.703  1.4167 -0.3646  0.6087
  233MOL0     H32149  10.375   9.570   8.746 -1.0366  0.5347  0.8682
  233MOL0     H32150  10.180   9.607   8.371  0.8030 -1.1108  0.6725
  233MOL0     H32151  10.983   9.779   8.426  2.4088  0.4641 -3.1717
  233MOL0     H32152  11.141   9.831   8.290 -1.4074 -0.7141 -0.2574
  233MOL0     H32153  11.285   9.838   8.393 -0.4577 -0.5305 -0.4264
  233MOL0     H32154  11.280   9.715   8.260  0.8864 -1.6324  2.2136
  234MOL0     O32155   1.941   1.531   1.955 -0.0469 -0.0090 -0.3611
  234MOL0     C32156   2.051   1.550   1.999  0.6875  0.2691  0.4511
  234MOL0     O32157   2.113   1.460   2.077  0.0819  0.1984 -0.1758
  234MOL0     C32158   2.048   1.353   2.138 -0.5963 -0.4538 -0.9945
  234MOL0     C32159   1.972   1.387   2.252 -0.6329  0.2860 -0.5607
  234MOL0     C32160   1.917   1.280   2.313 -0.1584  0.0335 -1.5691
  234MOL0     C32161   1.929   1.141   2.279  0.0260  0.8046  0.0125
  234MOL0     O32162   1.885   1.034   2.356 -0.9359  0.3756  0.4078
  234MOL0     C32163   1.745   1.027   2.366  0.6038 -0.0048 -0.1269
  234MOL0     C32164   1.694   0.897   2.428  0.1915 -0.0616  0.2890
  234MOL0     C32165   1.745   0.775   2.347  1.2317 -0.4888  0.2831
  234MOL0     C32166   1.864   0.705   2.419 -0.4592  0.0957  0.3228
  234MOL0     C32167   1.906   0.568   2.383  0.2497  0.4502 -1.0410
  234MOL0     C32168   1.911   0.539   2.235 -0.1295  0.4415 -0.4207
  234MOL0     C32169   1.995   0.422   2.209 -0.2320 -0.0452  0.5720
  234MOL0     C32170   1.919   0.288   2.219 -0.5415  0.4324  0.7340
  234MOL0     N32171   2.020   0.177   2.213 -0.2848  0.0229  0.0289
  234MOL0     C32172   2.117   0.149   2.124 -0.7958  0.4290 -0.4754
  234MOL0     C32173   2.159   0.023   2.159  0.4790 -0.5670  0.0309
  234MOL0     C32174   2.283  -0.041   2.105  0.0397 -0.0575 -0.1421
  234MOL0     C32175   2.375   0.046   2.033  0.2907  0.3986  1.0975
  234MOL0     C32176   2.518  -0.010   1.999  0.6275 -0.8482  1.0342
  234MOL0     C32177   2.623   0.015   2.108  0.1387  0.9525 -0.2622
  234MOL0     O32178   2.652   0.157   2.136  0.3764 -0.3336 -0.3846
  234MOL0     C32179   2.753   0.223   2.074  0.4969  0.0283 -1.2528
  234MOL0     C32180   2.827   0.318   2.144  0.2517 -0.8272  0.7946
  234MOL0     C32181   2.932   0.388   2.084 -0.6971 -0.6974  0.5942
  234MOL0     C32182   2.996   0.495   2.168 -0.1211  1.0166  0.0987
  234MOL0     C32183   2.986   0.337   1.963  0.7238 -0.3308  0.3294
  234MOL0     C32184   3.108   0.404   1.913 -0.2135 -0.6829 -0.4730
  234MOL0     O32185   3.136   0.546   1.942  0.1358  0.3613  0.4949
  234MOL0     C32186   3.246   0.614   1.900 -0.3493  0.0386  0.9378
  234MOL0     C32187   3.231   0.750   1.847  0.4832 -0.3207  0.5033
  234MOL0     C32188   3.337   0.821   1.790 -0.0699 -0.1957 -0.6403
  234MOL0     C32189   3.470   0.766   1.786 -0.2865  0.3838  0.5185
  234MOL0     O32190   3.578   0.845   1.754 -0.0155  0.1597 -0.3460
  234MOL0     C32191   3.557   0.964   1.670 -0.4381 -0.3784 -0.2597
  234MOL0     C32192   3.547   1.088   1.755  0.1649 -0.4777  0.4125
  234MOL0     C32193   3.680   1.137   1.808 -0.0162 -0.5778  0.2664
  234MOL0     C32194   3.685   1.268   1.893  0.3847 -0.4543 -0.0041
  234MOL0     C32195   3.813   1.274   1.971  0.1165 -0.8028 -0.0549
  234MOL0     C32196   3.828   1.409   2.044 -1.1570  0.9106 -0.6237
  234MOL0     C32197   3.977   1.423   2.106  1.0255  0.7367  0.1092
  234MOL0     C32198   4.005   1.348   2.244  0.0434  0.6227 -0.0361
  234MOL0    Cl32199   4.172   1.366   2.288  0.1472  0.4231  0.2071
  234MOL0     C32200   3.477   0.627   1.839 -0.7103 -0.1972 -0.5227
  234MOL0     C32201   3.369   0.556   1.892  0.1337 -0.7590  0.1470
  234MOL0     O32202   3.180   0.334   1.846 -0.2582 -0.1067 -0.3299
  234MOL0     C32203   2.920   0.227   1.902  0.4209 -0.3415  0.3265
  234MOL0     C32204   2.811   0.173   1.958  0.5268  0.2240  0.4649
  234MOL0     N32205   2.096  -0.011   2.279 -0.3059 -0.2033 -0.5680
  234MOL0     N32206   2.017   0.083   2.311 -0.3082  0.6839  0.2730
  234MOL0     C32207   1.998   1.114   2.163 -0.2772 -0.0096  0.3383
  234MOL0     C32208   2.057   1.220   2.096  0.2976 -0.1309  1.4213
  234MOL0     C32209   2.120   1.688   1.980  1.7486  0.3858  0.9077
  234MOL0     C32210   2.255   1.699   1.992  0.2219  0.9269 -0.0377
  234MOL0     C32211   2.321   1.824   2.002  0.4840 -0.8572  0.0705
  234MOL0     C32212   2.250   1.940   1.974  0.6599  0.4685  0.0868
  234MOL0     O32213   2.299   2.066   1.991  0.1225 -0.3179  1.0804
  234MOL0     C32214   2.430   2.090   1.947 -1.1332  0.7864  0.0714
  234MOL0     C32215   2.441   2.235   1.910 -0.2007  0.4556  1.2706
  234MOL0     C32216   2.323   2.301   1.841  0.5814 -1.5190 -0.6262
  234MOL0     C32217   2.311   2.259   1.702 -0.3487 -0.3865  0.9272
  234MOL0     C32218   2.191   2.299   1.630  0.0387  0.5551 -0.4449
  234MOL0     C32219   2.103   2.321   1.550  0.5583  0.1293  0.1244
  234MOL0     C32220   2.120   1.918   1.945  0.4794 -1.2953  0.0927
  234MOL0     C32221   2.054   1.804   1.951 -0.1258 -0.1334 -0.3346
  234MOL0     C32222   1.901   1.818   1.929 -0.6170  0.3810  0.5092
  234MOL0     H32223   1.951   1.488   2.285 -1.1093 -0.1500  0.5047
  234MOL0     H32224   1.845   1.304   2.391  2.5409 -2.2961  1.9161
  234MOL0     H32225   1.713   1.037   2.262  2.8124 -1.5801 -1.0239
  234MOL0     H32226   1.701   1.109   2.424 -0.4452 -0.2610 -0.5251
  234MOL0     H32227   1.718   0.888   2.535  0.4489  2.1567  0.4646
  234MOL0     H32228   1.585   0.910   2.425  0.0757 -0.7467  1.0052
  234MOL0     H32229   1.660   0.705   2.348  0.6188  0.2328  1.3621
  234MOL0     H32230   1.774   0.808   2.247 -0.7228 -1.5168 -0.6791
  234MOL0     H32231   1.954   0.762   2.396 -0.9416  0.8805  0.3464
  234MOL0     H32232   1.851   0.710   2.527  0.4128 -0.5883  0.4756
  234MOL0     H32233   1.825   0.503   2.415  0.1819  0.6668 -0.7681
  234MOL0     H32234   1.999   0.545   2.435 -0.4124 -1.3662 -0.5895
  234MOL0     H32235   1.809   0.527   2.197 -1.1066 -0.1065  2.1303
  234MOL0     H32236   1.958   0.628   2.193 -1.7475  1.2232 -0.6645
  234MOL0     H32237   2.083   0.431   2.273  0.7608  1.0589 -0.8683
  234MOL0     H32238   2.038   0.429   2.108 -3.5161 -0.9885 -1.0322
  234MOL0     H32239   1.862   0.270   2.311  0.2663 -0.7231  1.0293
  234MOL0     H32240   1.854   0.273   2.133  2.7456 -3.4519 -1.4293
  234MOL0     H32241   2.140   0.212   2.039  1.2340  3.0017  1.8144
  234MOL0     H32242   2.245  -0.128   2.052 -1.4752 -0.3101  1.2334
  234MOL0     H32243   2.334  -0.074   2.196 -0.6628  3.0733  1.5694
  234MOL0     H32244   2.332   0.077   1.937  0.1743 -3.1637 -0.1783
  234MOL0     H32245   2.388   0.134   2.095  0.2439  1.5250 -0.4261
  234MOL0     H32246   2.498  -0.117   1.991  1.5900 -1.0011  0.4879
  234MOL0     H32247   2.555   0.029   1.904 -4.1415  2.1669  0.0800
  234MOL0     H32248   2.580  -0.030   2.198  0.8374  1.8816  0.5646
  234MOL0     H32249   2.721  -0.029   2.089 -0.8628 -0.5785 -2.1672
  234MOL0     H32250   2.798   0.344   2.245  0.3846  3.8810 -0.1491
  234MOL0     H32251   2.980   0.590   2.117 -2.2551  1.6244  1.7534
  234MOL0     H32252   3.103   0.471   2.178  0.3269  2.1294 -1.5179
  234MOL0     H32253   2.945   0.498   2.265 -0.8781 -1.3772 -0.1603
  234MOL0     H32254   3.137   0.797   1.874  0.9052  0.7135  0.2432
  234MOL0     H32255   3.317   0.922   1.755 -1.2209 -1.0715 -2.6553
  234MOL0     H32256   3.640   0.967   1.599 -0.3797 -0.5145 -0.1971
  234MOL0     H32257   3.464   0.954   1.612 -1.9523 -0.0139  1.9793
  234MOL0     H32258   3.492   1.167   1.704 -2.4646 -0.3031  3.2621
  234MOL0     H32259   3.485   1.062   1.841  1.2545  3.2694  2.5586
  234MOL0     H32260   3.755   1.138   1.728 -2.6908 -2.2586 -2.4632
  234MOL0     H32261   3.714   1.061   1.880  2.8335  2.4579  2.4151
  234MOL0     H32262   3.599   1.274   1.961  2.9428  1.2741  3.3893
  234MOL0     H32263   3.678   1.350   1.822 -0.5183  0.4666  1.1041
  234MOL0     H32264   3.814   1.193   2.045  2.5896  0.7360  1.7544
  234MOL0     H32265   3.902   1.272   1.908  0.1735  0.5555 -0.0321
  234MOL0     H32266   3.753   1.415   2.124  1.5169 -3.5520  2.6927
  234MOL0     H32267   3.811   1.486   1.968 -5.0168 -1.6441 -2.7261
  234MOL0     H32268   3.988   1.530   2.120 -0.6935  0.8357  1.0166
  234MOL0     H32269   4.045   1.374   2.036  2.2477 -1.3520  2.5731
  234MOL0     H32270   3.974   1.243   2.239  0.6326  0.3429  1.5553
  234MOL0     H32271   3.943   1.377   2.329  0.4272 -2.5424  1.4868
  234MOL0     H32272   3.581   0.595   1.843  0.7058  3.7205 -1.2037
  234MOL0     H32273   3.382   0.455   1.929 -3.1376 -0.8505  1.3541
  234MOL0     H32274   2.964   0.174   1.818 -1.2678  0.8285 -1.4069
  234MOL0     H32275   2.762   0.088   1.911 -0.8702  0.7245  0.9761
  234MOL0     H32276   2.019   1.013   2.131 -0.7502  0.4886 -1.7093
  234MOL0     H32277   2.117   1.193   2.010  0.7459 -0.4152  1.8204
  234MOL0     H32278   2.318   1.612   2.006  1.2394  1.8279  1.1037
  234MOL0     H32279   2.423   1.825   2.040  0.7148 -2.0882 -0.4658
  234MOL0     H32280   2.514   2.067   2.014  0.1766 -1.5453 -2.1584
  234MOL0     H32281   2.450   2.037   1.853  0.9488  3.4232 -1.0986
  234MOL0     H32282   2.539   2.250   1.864 -0.9043  0.9085 -0.1215
  234MOL0     H32283   2.467   2.289   2.002  0.2882 -0.2076  1.5337
  234MOL0     H32284   2.230   2.265   1.885  0.1580 -2.5208 -2.2664
  234MOL0     H32285   2.341   2.409   1.845  2.9790 -1.7070 -3.1383
  234MOL0     H32286   2.327   2.151   1.695  3.2004  0.1604 -1.7477
  234MOL0     H32287   2.399   2.306   1.658  0.3476 -0.3724  2.2613
  234MOL0     H32288   2.023   2.334   1.479  0.1675 -0.7602  0.3881
  234MOL0     H32289   2.068   2.010   1.923 -0.9015 -1.6149  1.7849
  234MOL0     H32290   1.877   1.924   1.917  1.7824  1.0360  0.9603
  234MOL0     H32291   1.863   1.766   1.841 -0.0058 -2.7693  1.9735
  234MOL0     H32292   1.850   1.778   2.017  0.7208 -2.6049  0.0438
  235MOL0     O32293   7.703   6.548   5.192  0.6568  0.3010 -0.2877
  235MOL0     C32294   7.650   6.634   5.123  0.5306  0.8240  0.6770
  235MOL0     O32295   7.681   6.760   5.119 -0.0543  0.5054 -0.4240
  235MOL0     C32296   7.773   6.812   5.208  0.6182 -0.5953 -0.0068
  235MOL0     C32297   7.749   6.803   5.344 -0.1414  0.7454  1.4264
  235MOL0     C32298   7.844   6.840   5.440  0.1655  0.3029  0.4956
  235MOL0     C32299   7.970   6.890   5.403  0.1412  0.6795  0.2046
  235MOL0     O32300   8.067   6.925   5.501  0.0793 -0.1517  0.6998
  235MOL0     C32301   8.194   6.987   5.468 -1.1502  0.9424  0.0140
  235MOL0     C32302   8.193   7.124   5.423 -0.2988 -0.7894  0.5207
  235MOL0     C32303   8.331   7.205   5.436 -0.6479  0.3212  0.2313
  235MOL0     C32304   8.357   7.261   5.575  0.4532  0.3405  0.1629
  235MOL0     C32305   8.495   7.304   5.601 -0.8080  0.5180 -0.2434
  235MOL0     C32306   8.545   7.422   5.513 -0.5172  1.0462  0.0149
  235MOL0     C32307   8.679   7.482   5.560  0.1252  0.7491 -0.2806
  235MOL0     C32308   8.729   7.593   5.471 -0.5742  0.0375  0.0716
  235MOL0     N32309   8.858   7.640   5.520 -0.2181 -0.2851  0.0906
  235MOL0     C32310   8.981   7.607   5.479  0.1623 -0.3443  0.7234
  235MOL0     C32311   9.064   7.649   5.575 -0.0213  0.3279  0.2836
  235MOL0     C32312   9.214   7.663   5.579  0.1235 -0.0110 -0.5241
  235MOL0     C32313   9.267   7.809   5.557  0.1895  0.0545 -0.1290
  235MOL0     C32314   9.423   7.807   5.528 -0.3735 -0.1818  0.1684
  235MOL0     C32315   9.509   7.708   5.609  0.9363  0.3833 -0.4231
  235MOL0     O32316   9.482   7.573   5.571 -0.2398 -0.2822 -0.2175
  235MOL0     C32317   9.513   7.473   5.667 -0.0366 -0.3276  0.5530
  235MOL0     C32318   9.608   7.483   5.773  0.8643 -1.4081 -0.2304
  235MOL0     C32319   9.631   7.382   5.866  0.5763 -0.6623  0.1325
  235MOL0     C32320   9.708   7.405   5.986  0.1614  0.1702 -0.0794
  235MOL0     C32321   9.561   7.255   5.850 -0.3451 -0.3643  0.4364
  235MOL0     C32322   9.575   7.133   5.946  0.4455  0.5428 -0.1225
  235MOL0     O32323   9.505   7.023   5.912 -0.9833  0.3612 -0.4838
  235MOL0     C32324   9.511   6.917   6.002  0.9426  0.1591 -0.1031
  235MOL0     C32325   9.626   6.847   6.039  0.5367  0.4091 -0.1576
  235MOL0     C32326   9.617   6.735   6.120  0.7342  0.4304  0.3429
  235MOL0     C32327   9.494   6.688   6.169 -0.7846  0.2604 -0.1514
  235MOL0     O32328   9.500   6.586   6.260  0.2541  0.0304 -0.7745
  235MOL0     C32329   9.481   6.631   6.393  1.1466 -0.1248 -0.5973
  235MOL0     C32330   9.355   6.545   6.452  0.1478  0.0615  0.3750
  235MOL0     C32331   9.314   6.573   6.595 -0.3939 -0.8780  0.1319
  235MOL0     C32332   9.180   6.502   6.631 -0.2609 -0.1967  0.0079
  235MOL0     C32333   9.148   6.542   6.775  0.3205  0.6109  0.2832
  235MOL0     C32334   9.026   6.482   6.842  0.0542 -0.6826  0.8595
  235MOL0     C32335   9.049   6.336   6.848  0.4110  0.1720 -0.7832
  235MOL0     C32336   8.966   6.272   6.960 -0.5990  1.3833  0.3589
  235MOL0    Cl32337   9.025   6.322   7.120 -0.6710  0.3501 -0.9375
  235MOL0     C32338   9.375   6.751   6.125 -0.3474 -0.4834 -0.3669
  235MOL0     C32339   9.380   6.867   6.045 -0.4387 -0.7910  0.5020
  235MOL0     O32340   9.622   7.156   6.056  0.0426 -0.4126 -0.0084
  235MOL0     C32341   9.480   7.246   5.740  1.7745 -0.8461  0.2795
  235MOL0     C32342   9.454   7.351   5.650  0.3369 -0.3548 -0.4664
  235MOL0     N32343   8.979   7.711   5.673 -1.4292  0.0499 -0.2441
  235MOL0     N32344   8.864   7.718   5.625  0.4201 -0.1518  0.4126
  235MOL0     C32345   8.000   6.901   5.265 -0.1151  0.1084  0.2954
  235MOL0     C32346   7.898   6.872   5.172  0.0341  0.4894  0.5345
  235MOL0     C32347   7.562   6.586   5.021  0.2619  0.4249 -0.0750
  235MOL0     C32348   7.643   6.547   4.905  1.1598 -1.0136 -0.4175
  235MOL0     C32349   7.572   6.485   4.803  0.2667 -0.8293 -0.4266
  235MOL0     C32350   7.430   6.466   4.809 -0.6944  0.8756  0.3935
  235MOL0     O32351   7.373   6.433   4.689  0.3414 -0.6351 -0.4176
  235MOL0     C32352   7.277   6.326   4.695 -0.1815 -1.3990 -0.5247
  235MOL0     C32353   7.337   6.205   4.775 -0.2165  0.0326  0.5750
  235MOL0     C32354   7.256   6.076   4.742  0.2197  0.1045 -0.3541
  235MOL0     C32355   7.326   5.940   4.754  0.2328 -0.0882 -0.0398
  235MOL0     C32356   7.402   5.927   4.882  0.0378 -0.2075 -0.8253
  235MOL0     C32357   7.452   5.932   4.999  0.1539  0.2256 -0.6690
  235MOL0     C32358   7.363   6.525   4.914  0.5955  0.3075 -0.0546
  235MOL0     C32359   7.425   6.582   5.022 -0.0470 -0.1264 -0.0592
  235MOL0     C32360   7.348   6.646   5.127  0.4489 -0.1921  0.3879
  235MOL0     H32361   7.658   6.758   5.382 -0.4569  0.4426  0.3636
  235MOL0     H32362   7.815   6.833   5.545 -1.0249 -0.2269  0.1506
  235MOL0     H32363   8.239   6.930   5.386 -0.0717  2.2790 -0.3446
  235MOL0     H32364   8.248   6.975   5.563 -4.4067 -1.0770  1.8209
  235MOL0     H32365   8.172   7.121   5.315 -0.8242 -1.5799  0.6368
  235MOL0     H32366   8.109   7.178   5.468 -1.3733  1.1052 -3.3089
  235MOL0     H32367   8.417   7.142   5.414 -0.6166  0.0892  0.9954
  235MOL0     H32368   8.324   7.284   5.360  1.0413  1.5316  1.2821
  235MOL0     H32369   8.303   7.354   5.593  1.3478  1.0208 -0.5352
  235MOL0     H32370   8.313   7.194   5.649  2.8001 -1.2848  0.2067
  235MOL0     H32371   8.549   7.210   5.586  1.4567  1.1750  2.8562
  235MOL0     H32372   8.521   7.347   5.698 -0.7146  0.1132 -0.0884
  235MOL0     H32373   8.542   7.395   5.407  4.3538  0.6217 -0.2635
  235MOL0     H32374   8.486   7.514   5.517  0.4071  1.9380 -3.1693
  235MOL0     H32375   8.760   7.409   5.561 -0.2811  0.2896  0.8659
  235MOL0     H32376   8.657   7.529   5.657 -2.9830 -0.0755 -0.4928
  235MOL0     H32377   8.749   7.542   5.376 -0.9417  0.7312 -0.3812
  235MOL0     H32378   8.667   7.682   5.459  0.4363  0.7001 -0.4637
  235MOL0     H32379   9.009   7.535   5.403  0.4229  1.1608 -0.6595
  235MOL0     H32380   9.250   7.600   5.497 -1.7641 -1.0722 -0.5918
  235MOL0     H32381   9.253   7.617   5.671  3.2700  0.9865 -1.2075
  235MOL0     H32382   9.218   7.852   5.469 -1.4835  0.6000  1.0274
  235MOL0     H32383   9.251   7.865   5.649  0.1560 -1.4022  0.7914
  235MOL0     H32384   9.454   7.794   5.424  2.7427 -2.0769  1.1642
  235MOL0     H32385   9.456   7.910   5.544 -1.1735  0.2540 -0.8823
  235MOL0     H32386   9.614   7.721   5.581  0.9579 -0.4089 -0.7440
  235MOL0     H32387   9.486   7.734   5.713 -0.5566  5.1634 -1.6888
  235MOL0     H32388   9.663   7.575   5.788  3.0864 -2.0352 -3.4856
  235MOL0     H32389   9.788   7.331   5.996  1.1266  1.3855  1.7555
  235MOL0     H32390   9.650   7.428   6.076  1.4081  2.0807  0.3001
  235MOL0     H32391   9.760   7.501   5.974 -2.0146  1.6934  1.9106
  235MOL0     H32392   9.718   6.892   6.003 -0.3841  1.5343 -1.2060
  235MOL0     H32393   9.704   6.676   6.146  0.5744  0.9836  2.3095
  235MOL0     H32394   9.569   6.620   6.458 -0.8338  0.3236  2.3578
  235MOL0     H32395   9.459   6.737   6.381  1.8531 -0.1163 -1.9743
  235MOL0     H32396   9.268   6.540   6.385  0.8251 -0.0341 -0.5233
  235MOL0     H32397   9.377   6.438   6.451 -2.6764 -0.6205 -1.9605
  235MOL0     H32398   9.313   6.682   6.604  4.4574 -0.5049 -0.8161
  235MOL0     H32399   9.394   6.537   6.660  0.1511 -0.9433 -0.5616
  235MOL0     H32400   9.177   6.397   6.602 -2.5940 -0.3582  0.6585
  235MOL0     H32401   9.097   6.542   6.572 -0.7923  1.9319  2.0163
  235MOL0     H32402   9.233   6.513   6.836  2.3306  0.5908 -2.3518
  235MOL0     H32403   9.147   6.650   6.789 -0.9516  0.6941 -0.2812
  235MOL0     H32404   8.929   6.505   6.798 -0.1167 -2.6873  0.0621
  235MOL0     H32405   9.016   6.530   6.940 -0.8458  0.2945  0.3073
  235MOL0     H32406   9.152   6.303   6.865  0.5352 -0.7135 -2.9185
  235MOL0     H32407   9.017   6.283   6.758  1.3468 -2.9508  0.6014
  235MOL0     H32408   8.968   6.163   6.971  0.1321  1.3987  0.4020
  235MOL0     H32409   8.866   6.314   6.945 -0.6953  0.5707 -1.5456
  235MOL0     H32410   9.281   6.728   6.174 -0.9133  4.9959  1.8125
  235MOL0     H32411   9.288   6.915   6.015  1.4191  1.5308 -1.9556
  235MOL0     H32412   9.422   7.160   5.711 -0.2546  0.9521 -1.3385
  235MOL0     H32413   9.392   7.348   5.561 -0.2392 -0.7452 -0.0524
  235MOL0     H32414   8.090   6.938   5.218 -0.8023 -0.8553 -1.9048
  235MOL0     H32415   7.904   6.891   5.065  0.2926  3.2771  0.9525
  235MOL0     H32416   7.752   6.548   4.902  1.1480 -0.8135 -0.9559
  235MOL0     H32417   7.626   6.478   4.709 -2.7385  0.3304 -2.3968
  235MOL0     H32418   7.192   6.362   4.754  0.2272  2.8192 -2.2077
  235MOL0     H32419   7.244   6.317   4.592 -2.9463  0.5650  0.0813
  235MOL0     H32420   7.329   6.225   4.882 -2.0912  0.8467  0.3190
  235MOL0     H32421   7.443   6.193   4.750 -0.8506 -1.5320 -1.6274
  235MOL0     H32422   7.162   6.079   4.798  0.9183 -0.3385  0.8692
  235MOL0     H32423   7.214   6.080   4.641 -1.4132 -0.9217  0.2492
  235MOL0     H32424   7.386   5.926   4.664 -1.5029 -0.2384 -1.2091
  235MOL0     H32425   7.243   5.869   4.758 -2.4651  2.8838  0.7572
  235MOL0     H32426   7.506   5.953   5.089 -0.4690  2.6085 -0.7933
  235MOL0     H32427   7.255   6.520   4.910  0.6449 -1.0744 -4.0232
  235MOL0     H32428   7.245   6.625   5.095  1.2969 -1.2108 -1.9091
  235MOL0     H32429   7.356   6.616   5.232 -2.2557  0.9150  1.0051
  235MOL0     H32430   7.372   6.752   5.138  0.4853 -0.4327  3.3984
  236MOL0     O32431   1.900   4.729  10.776 -0.2619  0.0377 -0.7591
  236MOL0     C32432   1.822   4.809  10.816 -0.2640  0.4255  0.4531
  236MOL0     O32433   1.795   4.925  10.764  0.6895 -1.2790 -1.0140
  236MOL0     C32434   1.894   4.972  10.675  0.8162  0.2033  0.2394
  236MOL0     C32435   2.000   5.046  10.735  0.7335  0.5674  0.2587
  236MOL0     C32436   2.105   5.091  10.655 -1.0247 -0.0358 -1.0622
  236MOL0     C32437   2.106   5.062  10.517  0.3583 -1.1598  0.7474
  236MOL0     O32438   2.214   5.100  10.442 -0.1057 -0.4178 -0.7102
  236MOL0     C32439   2.210   5.125  10.300 -0.4240 -0.5263  0.0285
  236MOL0     C32440   2.330   5.209  10.254  0.7296 -0.0892  0.1874
  236MOL0     C32441   2.472   5.153  10.294  0.6270 -0.0419 -0.1153
  236MOL0     C32442   2.575   5.271  10.296 -1.0728  0.3090  0.2133
  236MOL0     C32443   2.710   5.234  10.354 -0.3516  1.0972  0.4813
  236MOL0     C32444   2.809   5.350  10.358  0.7361  0.4972  0.7695
  236MOL0     C32445   2.943   5.320  10.437 -0.4721  0.7900 -0.3932
  236MOL0     C32446   3.046   5.439  10.447  0.1919 -0.5335  0.0815
  236MOL0     N32447   2.975   5.555  10.503  0.0975 -0.2363  0.5415
  236MOL0     C32448   2.947   5.573  10.635  0.8580 -0.2741  0.1895
  236MOL0     C32449   2.911   5.699  10.656 -0.5783  0.6397  0.8545
  236MOL0     C32450   2.888   5.760  10.788 -0.2081 -1.5734 -0.3154
  236MOL0     C32451   2.975   5.881  10.808 -0.3570 -0.2199  0.3187
  236MOL0     C32452   2.938   5.944  10.943 -0.9371 -0.3299  0.8715
  236MOL0     C32453   2.788   5.971  10.952 -0.5550  0.1346 -1.1317
  236MOL0     O32454   2.762   6.049  11.074  0.1550  0.1733  0.0817
  236MOL0     C32455   2.632   6.115  11.084 -0.3928  0.1509 -0.8322
  236MOL0     C32456   2.513   6.069  11.013 -0.2653 -0.3933 -0.2381
  236MOL0     C32457   2.385   6.115  11.026  0.3732  0.1556 -0.6714
  236MOL0     C32458   2.279   6.062  10.938 -0.0105 -0.2171  0.4944
  236MOL0     C32459   2.366   6.219  11.126 -0.5418  0.5314  0.0195
  236MOL0     C32460   2.239   6.290  11.148 -0.9152 -0.0957  0.6284
  236MOL0     O32461   2.121   6.218  11.135  0.4322  0.2195  0.0630
  236MOL0     C32462   1.992   6.273  11.119 -0.2528  0.2154  0.7241
  236MOL0     C32463   1.966   6.357  11.006  0.4032 -0.1172  0.4911
  236MOL0     C32464   1.841   6.425  10.993 -0.0337  0.6965  0.2888
  236MOL0     C32465   1.755   6.424  11.099  0.2895 -0.4878 -0.9990
  236MOL0     O32466   1.656   6.520  11.089 -0.8948 -0.2585 -0.2852
  236MOL0     C32467   1.539   6.482  11.170  0.2090  0.1776  0.0154
  236MOL0     C32468   1.466   6.360  11.104  0.4197 -0.4163 -0.1044
  236MOL0     C32469   1.342   6.323  11.193 -0.0617 -0.2947 -0.2821
  236MOL0     C32470   1.268   6.222  11.106  0.5031  0.3202  0.0549
  236MOL0     C32471   1.196   6.123  11.199 -0.1909 -0.0103  0.6752
  236MOL0     C32472   1.123   6.006  11.132  0.1871 -0.0445 -0.7427
  236MOL0     C32473   1.009   6.054  11.034 -0.5723  0.5145  0.8559
  236MOL0     C32474   1.078   6.073  10.897  0.1166 -0.3987 -0.2204
  236MOL0    Cl32475   0.952   6.097  10.774 -0.0993  0.0544  0.1619
  236MOL0     C32476   1.780   6.340  11.204  0.0887  0.3183 -0.9559
  236MOL0     C32477   1.903   6.266  11.222  0.6641 -0.1200 -0.4215
  236MOL0     O32478   2.249   6.411  11.171  0.7556 -0.1464  0.3122
  236MOL0     C32479   2.480   6.260  11.200  0.5669  0.2073 -0.6442
  236MOL0     C32480   2.613   6.210  11.184  1.0766 -1.2010 -0.6218
  236MOL0     N32481   2.920   5.758  10.532 -0.8693  0.3952 -0.1637
  236MOL0     N32482   2.953   5.673  10.441 -0.2624 -0.7490 -0.4802
  236MOL0     C32483   2.005   4.990  10.460  0.4291 -0.8775 -0.5335
  236MOL0     C32484   1.886   4.959  10.531 -0.1691 -0.0231 -0.0016
  236MOL0     C32485   1.743   4.768  10.939 -0.1517  0.2580  0.8120
  236MOL0     C32486   1.638   4.848  10.970  0.8344  0.0380 -0.1163
  236MOL0     C32487   1.552   4.820  11.069 -0.0420  0.5680  0.5351
  236MOL0     C32488   1.578   4.712  11.151 -0.4262 -0.6908 -0.3780
  236MOL0     O32489   1.490   4.680  11.255 -0.2650  0.2282 -0.4077
  236MOL0     C32490   1.542   4.608  11.371 -0.4096 -1.1027 -0.4374
  236MOL0     C32491   1.457   4.635  11.492  0.2985 -0.0049 -0.0370
  236MOL0     C32492   1.315   4.588  11.480 -0.1625  0.6042 -0.1819
  236MOL0     C32493   1.299   4.443  11.453  0.1174  0.6718 -0.4945
  236MOL0     C32494   1.328   4.361  11.570 -0.2731 -0.3840  0.4642
  236MOL0     C32495   1.340   4.267  11.649 -0.2251 -0.6132  0.7060
  236MOL0     C32496   1.684   4.632  11.123  1.0091 -0.1645 -0.5586
  236MOL0     C32497   1.767   4.653  11.018 -0.6680  0.1523 -0.6123
  236MOL0     C32498   1.897   4.577  11.013 -0.8505  0.3458  0.1151
  236MOL0     H32499   1.991   5.046  10.844  0.3507 -5.2294  0.5560
  236MOL0     H32500   2.182   5.155  10.696  1.1564 -1.1902 -3.1118
  236MOL0     H32501   2.123   5.187  10.275 -0.7299 -0.8827  0.1924
  236MOL0     H32502   2.218   5.037  10.236  2.0366  0.8196 -1.6299
  236MOL0     H32503   2.318   5.221  10.146  0.1364  2.1187  0.4433
  236MOL0     H32504   2.311   5.305  10.304 -0.7443 -2.1281  3.9324
  236MOL0     H32505   2.475   5.097  10.388  1.8345 -0.1564 -0.2015
  236MOL0     H32506   2.479   5.084  10.209 -2.5783 -1.4430  0.6049
  236MOL0     H32507   2.585   5.312  10.195 -1.1985 -1.2849 -0.4794
  236MOL0     H32508   2.536   5.352  10.359  1.7603  2.6454 -0.8158
  236MOL0     H32509   2.743   5.145  10.299 -0.3140 -0.7244  3.2665
  236MOL0     H32510   2.699   5.200  10.457 -2.0715 -0.1322 -0.0655
  236MOL0     H32511   2.831   5.381  10.255  0.5208  2.2331  1.2111
  236MOL0     H32512   2.749   5.425  10.411 -0.2931 -0.3769  0.8893
  236MOL0     H32513   2.989   5.241  10.377 -1.6993 -1.1669  1.1187
  236MOL0     H32514   2.934   5.284  10.540  3.5773  1.4684  0.3366
  236MOL0     H32515   3.121   5.395  10.514  1.4464  1.0814 -0.2014
  236MOL0     H32516   3.076   5.455  10.343 -1.4911 -1.1155 -0.5149
  236MOL0     H32517   2.967   5.504  10.716  1.1254  2.2981  2.4338
  236MOL0     H32518   2.918   5.688  10.865  0.4385 -1.1252 -0.1430
  236MOL0     H32519   2.780   5.775  10.800 -0.1067 -2.1623  1.7843
  236MOL0     H32520   3.078   5.842  10.810 -0.8944 -1.6904  1.1195
  236MOL0     H32521   2.959   5.941  10.718  3.9972 -0.7800 -1.0636
  236MOL0     H32522   2.975   5.881  11.025  1.8215 -0.3000 -0.2332
  236MOL0     H32523   2.979   6.045  10.945 -2.5712  0.5377 -2.2041
  236MOL0     H32524   2.756   6.036  10.870 -1.2647 -0.0554 -1.0100
  236MOL0     H32525   2.727   5.881  10.949  1.6339 -1.5253  0.8262
  236MOL0     H32526   2.525   5.987  10.943  2.5653  0.3080 -0.6794
  236MOL0     H32527   2.206   6.005  10.997 -0.3693  0.6463  0.9025
  236MOL0     H32528   2.310   6.004  10.850  0.3960  0.5059  0.1512
  236MOL0     H32529   2.219   6.140  10.890 -1.5697 -1.5850  0.1046
  236MOL0     H32530   2.042   6.351  10.929  1.8338 -2.1321  1.9856
  236MOL0     H32531   1.819   6.480  10.902 -0.1034  0.4092  0.1312
  236MOL0     H32532   1.569   6.459  11.273 -0.4128 -1.1528 -0.0851
  236MOL0     H32533   1.474   6.570  11.173 -2.8654 -1.5620 -4.4208
  236MOL0     H32534   1.440   6.391  11.003  1.3430 -0.8845 -0.5035
  236MOL0     H32535   1.536   6.275  11.099  1.1651  0.0407  1.6749
  236MOL0     H32536   1.287   6.415  11.213  4.0797  2.0046  1.8187
  236MOL0     H32537   1.368   6.279  11.289 -1.9735  2.9495  1.8957
  236MOL0     H32538   1.337   6.167  11.042  3.4116  0.5006  2.8065
  236MOL0     H32539   1.189   6.278  11.055 -1.6704 -0.9991  1.7660
  236MOL0     H32540   1.264   6.071  11.266  1.4640 -1.9638 -2.2795
  236MOL0     H32541   1.128   6.181  11.262 -0.8160 -1.3010  1.2212
  236MOL0     H32542   1.062   5.961  11.211 -0.7196  1.0336 -0.7912
  236MOL0     H32543   1.196   5.936  11.091  1.0723 -0.4474  1.3877
  236MOL0     H32544   0.961   6.145  11.072  0.5794  0.5652  2.2786
  236MOL0     H32545   0.924   5.989  11.013  0.2455 -0.5805  0.8519
  236MOL0     H32546   1.137   5.981  10.885  1.3807  0.0566  2.1083
  236MOL0     H32547   1.148   6.157  10.897  0.0004 -0.1798 -3.0265
  236MOL0     H32548   1.701   6.326  11.277 -1.8244 -0.4632 -3.0888
  236MOL0     H32549   1.927   6.210  11.312  1.4008  0.0389 -0.5133
  236MOL0     H32550   2.464   6.339  11.272 -2.3921 -0.9923  0.1758
  236MOL0     H32551   2.692   6.247  11.249 -1.0282  1.2513  0.6992
  236MOL0     H32552   2.007   4.971  10.354 -1.2274  0.4552 -0.8373
  236MOL0     H32553   1.798   4.916  10.485 -2.3262  3.8377  0.1201
  236MOL0     H32554   1.604   4.939  10.921 -2.4017 -1.1882 -0.3952
  236MOL0     H32555   1.463   4.875  11.097  0.2654  1.1122  0.4493
  236MOL0     H32556   1.552   4.503  11.341  3.0714 -0.6689 -1.2418
  236MOL0     H32557   1.641   4.641  11.402 -1.8388  0.7206  2.5961
  236MOL0     H32558   1.462   4.742  11.515  0.1899  0.1215 -0.5800
  236MOL0     H32559   1.511   4.578  11.568 -0.2165  0.8914  1.0183
  236MOL0     H32560   1.268   4.617  11.575  1.8363 -0.1254  1.0839
  236MOL0     H32561   1.277   4.661  11.407 -0.0268  3.9388  2.7702
  236MOL0     H32562   1.355   4.418  11.362 -2.1313  1.1801 -2.1064
  236MOL0     H32563   1.192   4.441  11.431  0.1050 -4.3274 -1.2140
  236MOL0     H32564   1.360   4.185  11.715  0.4588 -1.2550 -0.2721
  236MOL0     H32565   1.701   4.547  11.189  0.8352 -0.6138 -1.0822
  236MOL0     H32566   1.902   4.503  10.934  0.3945  1.2612 -0.7016
  236MOL0     H32567   1.989   4.637  11.013 -0.3668 -0.3438  1.4315
  236MOL0     H32568   1.902   4.521  11.107  0.3734 -1.9495 -1.2369
  237MOL0     O32569  10.072  11.215   7.594  0.4651  0.5404 -0.4804
  237MOL0     C32570  10.182  11.244   7.640  0.2715  0.1694  0.1120
  237MOL0     O32571  10.304  11.182   7.606  0.0837  0.9409  0.0393
  237MOL0     C32572  10.306  11.055   7.549 -0.7054  0.1310  0.0554
  237MOL0     C32573  10.268  10.938   7.626 -0.2766  0.0822 -1.2973
  237MOL0     C32574  10.255  10.812   7.569 -0.5447  1.1450 -0.8178
  237MOL0     C32575  10.304  10.791   7.443 -0.9049 -0.3474 -0.2805
  237MOL0     O32576  10.288  10.663   7.390 -0.8398 -0.3942  0.6295
  237MOL0     C32577  10.276  10.664   7.249  0.4206  0.5823  0.3722
  237MOL0     C32578  10.228  10.521   7.211  0.3877  0.6154 -0.6224
  237MOL0     C32579  10.182  10.492   7.068 -0.2795  0.7469  1.0462
  237MOL0     C32580  10.155  10.339   7.040 -0.9626  0.7122 -0.4046
  237MOL0     C32581  10.062  10.264   7.135 -0.1656 -1.0964  0.2969
  237MOL0     C32582  10.050  10.118   7.086 -0.2772  1.2418 -0.7432
  237MOL0     C32583   9.988  10.026   7.194 -0.6667 -0.2058 -0.5467
  237MOL0     C32584  10.085   9.997   7.318  0.4594  0.2884  0.4481
  237MOL0     N32585  10.003   9.920   7.415  1.3154 -0.2264  0.0197
  237MOL0     C32586   9.923   9.990   7.510 -0.9266  1.2698 -0.6254
  237MOL0     C32587   9.896   9.891   7.597 -0.2531  0.1132  0.3025
  237MOL0     C32588   9.836   9.898   7.731 -0.4447 -0.2753 -0.4015
  237MOL0     C32589   9.727  10.002   7.737 -0.1916  1.0262 -0.0731
  237MOL0     C32590   9.670   9.990   7.879  0.2522  0.2769 -0.4253
  237MOL0     C32591   9.558  10.100   7.895  0.0667  0.0267 -1.2097
  237MOL0     O32592   9.446  10.065   7.815 -0.1523  0.0036 -0.3791
  237MOL0     C32593   9.318  10.106   7.849 -0.3394 -0.6837  0.1748
  237MOL0     C32594   9.213  10.078   7.759 -0.2757  0.3105 -0.5978
  237MOL0     C32595   9.084  10.104   7.790  1.2419  0.3977  0.1502
  237MOL0     C32596   8.988  10.063   7.681 -0.0190  0.1003 -0.0808
  237MOL0     C32597   9.047  10.157   7.913  0.5683 -0.1460 -0.6340
  237MOL0     C32598   8.913  10.208   7.958 -0.1724  0.2700  0.2860
  237MOL0     O32599   8.892  10.249   8.088  0.0855  0.3445  0.5318
  237MOL0     C32600   8.778  10.330   8.104  0.0417  0.2790 -0.4256
  237MOL0     C32601   8.803  10.469   8.084 -0.8250  0.3012 -0.1452
  237MOL0     C32602   8.701  10.559   8.114  0.3253 -0.3755 -0.3980
  237MOL0     C32603   8.573  10.516   8.155  0.3158 -0.1168 -0.1974
  237MOL0     O32604   8.488  10.607   8.193  0.6148 -0.1436  0.1695
  237MOL0     C32605   8.395  10.650   8.077 -0.8458  0.6165 -0.3206
  237MOL0     C32606   8.275  10.721   8.152  0.4430  0.5447  0.4845
  237MOL0     C32607   8.174  10.798   8.069  0.0945  0.1185 -0.0209
  237MOL0     C32608   8.160  10.951   8.096  0.4341 -0.2486  0.2580
  237MOL0     C32609   8.043  11.023   8.029  0.7501  1.0465  0.8789
  237MOL0     C32610   8.039  11.170   8.058 -0.3202  0.0580  0.1949
  237MOL0     C32611   7.901  11.224   8.084  0.4278  0.3168 -0.7146
  237MOL0     C32612   7.890  11.338   8.188  0.3616  0.2394  0.4241
  237MOL0    Cl32613   7.760  11.291   8.301 -0.3947  0.1204  0.4871
  237MOL0     C32614   8.556  10.379   8.183  0.5277 -0.8383  0.2732
  237MOL0     C32615   8.653  10.284   8.159 -0.6321 -0.8039 -0.5534
  237MOL0     O32616   8.831  10.213   7.872 -0.0885 -0.4934  0.3877
  237MOL0     C32617   9.151  10.195   7.999  0.2738  0.0880 -0.5800
  237MOL0     C32618   9.292  10.174   7.966  0.0273  0.2414 -0.9979
  237MOL0     N32619   9.937   9.772   7.541  0.5632 -0.7395 -0.1133
  237MOL0     N32620  10.006   9.793   7.433  0.8424 -0.3410 -0.3300
  237MOL0     C32621  10.353  10.900   7.368  0.7900 -0.2051  0.4579
  237MOL0     C32622  10.348  11.026   7.413  0.2318 -1.0587 -0.0483
  237MOL0     C32623  10.190  11.362   7.737 -0.5231 -0.1855 -0.1859
  237MOL0     C32624  10.187  11.492   7.690 -0.0091  0.3743  1.3980
  237MOL0     C32625  10.197  11.607   7.772  0.2660  0.4441  0.0068
  237MOL0     C32626  10.202  11.586   7.908 -0.4168  1.2921  0.3326
  237MOL0     O32627  10.204  11.684   8.002 -0.3139  0.3495  0.1509
  237MOL0     C32628  10.140  11.811   7.977 -0.2723  0.1002  0.9403
  237MOL0     C32629  10.141  11.895   8.104  1.0236  0.5069  0.2965
  237MOL0     C32630  10.060  12.024   8.087  0.0680  0.0423 -0.3634
  237MOL0     C32631  10.086  12.123   8.199  0.3192  0.0736  0.4292
  237MOL0     C32632  10.063  12.063   8.328 -0.2438  1.0889  0.9573
  237MOL0     C32633  10.052  12.027   8.443 -0.2598  0.4894 -0.1597
  237MOL0     C32634  10.206  11.457   7.955 -0.1423  0.6249 -0.0303
  237MOL0     C32635  10.200  11.347   7.877  0.6863 -0.5938  0.6492
  237MOL0     C32636  10.195  11.212   7.946 -0.2443  0.0581  0.5542
  237MOL0     H32637  10.229  10.953   7.727  0.6406 -0.3592 -0.8677
  237MOL0     H32638  10.228  10.718   7.616  0.4065  0.8589 -0.8086
  237MOL0     H32639  10.376  10.690   7.213  1.0571  0.9480  2.2805
  237MOL0     H32640  10.201  10.737   7.217 -0.2563  0.4342  1.5582
  237MOL0     H32641  10.314  10.455   7.228  0.1063  0.9821  3.0187
  237MOL0     H32642  10.150  10.484   7.278  1.0213 -0.5001 -0.4759
  237MOL0     H32643  10.089  10.549   7.057 -0.9167 -0.2709  1.0258
  237MOL0     H32644  10.241  10.533   6.986 -1.1441  0.8428  0.4640
  237MOL0     H32645  10.127  10.328   6.935  2.1036  0.6731 -1.3239
  237MOL0     H32646  10.245  10.277   7.045 -0.3667  1.4160 -1.8283
  237MOL0     H32647   9.964  10.313   7.129 -0.2696 -1.2959  0.3673
  237MOL0     H32648  10.095  10.273   7.238 -1.0563  2.4734  0.4252
  237MOL0     H32649   9.994  10.118   6.992  0.4099 -1.5763 -1.2315
  237MOL0     H32650  10.146  10.075   7.058 -0.0089  1.0778  0.3514
  237MOL0     H32651   9.967   9.926   7.154  0.1588 -1.1872  1.3433
  237MOL0     H32652   9.900  10.080   7.230  0.8846  0.2617  2.9319
  237MOL0     H32653  10.180   9.949   7.291  0.9236  1.1442  0.5453
  237MOL0     H32654  10.113  10.090   7.368  3.2534 -1.2722  1.9883
  237MOL0     H32655   9.920  10.097   7.528  4.1796  1.4262  0.9256
  237MOL0     H32656   9.914   9.931   7.800 -2.4782  0.6409  1.5822
  237MOL0     H32657   9.806   9.798   7.765  1.9479 -0.7974  0.3181
  237MOL0     H32658   9.770  10.101   7.723  1.5569  0.5732  1.6180
  237MOL0     H32659   9.648   9.985   7.663 -1.0364  0.6863  0.8661
  237MOL0     H32660   9.633   9.890   7.903  0.9250  0.7862  3.3830
  237MOL0     H32661   9.746  10.004   7.956  0.8783 -1.3947 -0.6876
  237MOL0     H32662   9.533  10.100   8.001  0.5063  0.1052 -1.1067
  237MOL0     H32663   9.614  10.185   7.855  0.0651 -0.6886 -2.8131
  237MOL0     H32664   9.232  10.012   7.675 -3.0896 -1.3292 -0.0981
  237MOL0     H32665   8.896  10.022   7.725 -1.0062  2.4739  0.2597
  237MOL0     H32666   9.034   9.990   7.614  0.5670  1.2969 -1.0103
  237MOL0     H32667   8.966  10.156   7.627  1.3432  0.7624  0.4787
  237MOL0     H32668   8.902  10.492   8.045 -1.4675 -1.1589 -2.9272
  237MOL0     H32669   8.721  10.663   8.089 -0.4234 -0.5511 -1.7931
  237MOL0     H32670   8.462  10.710   8.014  0.7875  0.0705  0.8072
  237MOL0     H32671   8.354  10.571   8.014 -3.4172  1.5179  0.1050
  237MOL0     H32672   8.218  10.640   8.199 -3.1188  1.8776 -1.1552
  237MOL0     H32673   8.305  10.785   8.236  2.5422  2.6570 -1.7338
  237MOL0     H32674   8.073  10.755   8.069  0.9231 -2.0530 -1.5905
  237MOL0     H32675   8.194  10.790   7.962 -0.1400 -1.2995  0.0228
  237MOL0     H32676   8.255  10.990   8.059 -0.2091  0.6849 -0.4708
  237MOL0     H32677   8.141  10.959   8.203  0.3041 -0.5420  0.2568
  237MOL0     H32678   8.025  11.020   7.921 -0.6489  1.1595  1.0881
  237MOL0     H32679   7.957  10.970   8.072 -0.0913  2.4031  0.9092
  237MOL0     H32680   8.090  11.210   7.969  0.9703 -1.9355 -0.0518
  237MOL0     H32681   8.098  11.199   8.145 -1.1749  0.8141  0.5382
  237MOL0     H32682   7.852  11.137   8.128  3.1527 -0.6334  0.6851
  237MOL0     H32683   7.843  11.259   7.998 -3.6242  0.2007  1.7080
  237MOL0     H32684   7.884  11.437   8.143  1.7048 -1.1450 -3.1081
  237MOL0     H32685   7.981  11.343   8.248 -0.7447 -1.4231  2.3983
  237MOL0     H32686   8.456  10.371   8.225 -0.0480  0.0284 -0.8763
  237MOL0     H32687   8.639  10.183   8.195 -0.0286 -0.2536  1.3303
  237MOL0     H32688   9.145  10.240   8.098  1.1829 -0.2803 -0.3489
  237MOL0     H32689   9.359  10.202   8.047 -0.3949 -2.9766  0.6246
  237MOL0     H32690  10.400  10.881   7.272  1.5620 -1.1730  1.0100
  237MOL0     H32691  10.376  11.103   7.342 -2.0762 -1.0144 -0.9980
  237MOL0     H32692  10.181  11.512   7.583  3.9020  0.0870  0.9869
  237MOL0     H32693  10.191  11.700   7.718  0.8584  1.1943  1.1760
  237MOL0     H32694  10.184  11.864   7.892 -0.6249 -0.4026  0.4359
  237MOL0     H32695  10.040  11.778   7.951  0.5388 -1.9187  0.1687
  237MOL0     H32696  10.243  11.915   8.137  0.8908 -0.3068  1.2590
  237MOL0     H32697  10.099  11.832   8.183  0.4794 -0.4986 -0.7569
  237MOL0     H32698  10.096  12.068   7.993  1.1369 -1.2084 -0.5580
  237MOL0     H32699   9.953  12.004   8.077  0.4465 -0.9531 -3.7524
  237MOL0     H32700  10.022  12.208   8.175  0.5295  0.2325  0.4287
  237MOL0     H32701  10.192  12.151   8.199  0.3489  0.3411 -2.5695
  237MOL0     H32702  10.038  11.989   8.543  0.5748 -1.3759 -0.6967
  237MOL0     H32703  10.207  11.444   8.063 -0.9507 -1.6862 -0.2590
  237MOL0     H32704  10.113  11.151   7.906 -2.1020  3.3808 -1.1062
  237MOL0     H32705  10.287  11.153   7.938 -1.6447 -2.4563  1.5138
  237MOL0     H32706  10.187  11.233   8.053 -0.0022  1.4088  0.3164
  238MOL0     O32707  10.858   9.339   5.664  0.7513  0.3405 -0.6341
  238MOL0     C32708  10.929   9.361   5.759 -0.9667  0.2188  0.1135
  238MOL0     O32709  11.062   9.379   5.754  0.0034 -0.3392  0.8348
  238MOL0     C32710  11.121   9.425   5.634  0.7748 -0.3510  0.1767
  238MOL0     C32711  11.144   9.563   5.607  0.8220 -0.6747  0.6937
  238MOL0     C32712  11.208   9.607   5.486  0.1249  0.0000 -0.5832
  238MOL0     C32713  11.258   9.503   5.405  0.6575  0.3419 -0.3087
  238MOL0     O32714  11.335   9.520   5.290 -0.3427 -0.5145  0.4514
  238MOL0     C32715  11.355   9.648   5.229 -0.1002 -0.8049  0.1296
  238MOL0     C32716  11.446   9.750   5.314  1.1502  0.5003  0.4501
  238MOL0     C32717  11.454   9.894   5.248 -0.2755  0.3931 -1.2681
  238MOL0     C32718  11.475   9.897   5.099  0.1430 -0.2295 -0.5101
  238MOL0     C32719  11.465  10.035   5.048 -0.5145 -0.6340 -0.3791
  238MOL0     C32720  11.491  10.038   4.895  0.6280 -0.2831  1.1605
  238MOL0     C32721  11.646  10.026   4.856  0.0458  0.8269 -0.1020
  238MOL0     C32722  11.640   9.989   4.703 -0.6992  0.6222 -0.4700
  238MOL0     N32723  11.596   9.849   4.681 -0.1352  0.0474  0.2798
  238MOL0     C32724  11.689   9.751   4.662  0.0285 -0.0653 -0.0067
  238MOL0     C32725  11.629   9.631   4.647 -0.2805 -0.1325 -0.3721
  238MOL0     C32726  11.701   9.503   4.616  0.1661  0.1774  0.4228
  238MOL0     C32727  11.680   9.452   4.473  0.0768  0.4482 -0.3732
  238MOL0     C32728  11.747   9.317   4.444 -0.7967  0.6912 -0.8461
  238MOL0     C32729  11.727   9.256   4.303  0.0193 -0.3836  0.1919
  238MOL0     O32730  11.592   9.240   4.249 -0.3703 -0.4629  0.1222
  238MOL0     C32731  11.560   9.255   4.118 -0.3055 -0.6575 -0.3642
  238MOL0     C32732  11.423   9.258   4.086 -0.4222 -1.1514  0.1984
  238MOL0     C32733  11.378   9.275   3.955 -0.7093  0.1843 -0.6992
  238MOL0     C32734  11.229   9.306   3.923  0.1373  0.0585 -0.0381
  238MOL0     C32735  11.478   9.270   3.851  0.5964  0.0188 -0.2144
  238MOL0     C32736  11.439   9.300   3.715  0.4034 -0.6576 -0.0089
  238MOL0     O32737  11.340   9.223   3.656  0.0468 -0.8026  0.3156
  238MOL0     C32738  11.270   9.257   3.540  1.2184 -0.4323 -0.6531
  238MOL0     C32739  11.257   9.389   3.485 -0.5068  0.6196  0.0445
  238MOL0     C32740  11.154   9.413   3.395  0.0379  0.6246 -0.0668
  238MOL0     C32741  11.063   9.321   3.353 -0.1226 -0.2462 -0.1881
  238MOL0     O32742  10.948   9.367   3.300  0.6857  0.0930 -0.4693
  238MOL0     C32743  10.854   9.266   3.255 -0.1188 -0.1507 -0.3316
  238MOL0     C32744  10.735   9.340   3.194  0.0197  0.3535  0.3926
  238MOL0     C32745  10.664   9.428   3.302 -0.4529  0.4136 -0.5655
  238MOL0     C32746  10.549   9.507   3.242 -0.0536  0.4275 -0.5499
  238MOL0     C32747  10.415   9.419   3.255 -0.4669  0.5409 -0.8176
  238MOL0     C32748  10.351   9.381   3.388 -0.3195  0.1816 -0.2765
  238MOL0     C32749  10.327   9.475   3.509 -0.1127  0.6371  0.6681
  238MOL0     C32750  10.233   9.592   3.461 -0.6545 -0.2505 -0.4005
  238MOL0    Cl32751  10.069   9.563   3.403 -0.6011  0.2749  0.0394
  238MOL0     C32752  11.093   9.189   3.389 -0.1155  0.3905 -0.1696
  238MOL0     C32753  11.192   9.152   3.485 -0.7400 -0.2706 -1.1481
  238MOL0     O32754  11.507   9.393   3.659  0.3707 -0.9840  0.8258
  238MOL0     C32755  11.607   9.237   3.884 -0.3188 -0.0084  0.1886
  238MOL0     C32756  11.655   9.249   4.016 -0.7436  0.6937 -0.1491
  238MOL0     N32757  11.493   9.662   4.631  0.0400 -0.0632  0.1779
  238MOL0     N32758  11.477   9.787   4.652  0.0308 -0.3196  0.4485
  238MOL0     C32759  11.237   9.367   5.429 -0.0854  0.7657 -0.7255
  238MOL0     C32760  11.156   9.330   5.542 -0.7352  0.5307  0.5724
  238MOL0     C32761  10.863   9.383   5.893  0.1073 -0.5183 -0.1549
  238MOL0     C32762  10.952   9.378   5.997 -0.4591 -0.7457  0.7684
  238MOL0     C32763  10.901   9.385   6.124  0.2699 -0.3795 -0.1053
  238MOL0     C32764  10.765   9.389   6.152  0.5180  0.3519 -0.7039
  238MOL0     O32765  10.734   9.371   6.286 -0.8442  0.0590 -0.5160
  238MOL0     C32766  10.595   9.394   6.329 -0.8204  0.5813  1.7295
  238MOL0     C32767  10.592   9.433   6.466 -1.1622  0.7817  0.0289
  238MOL0     C32768  10.650   9.581   6.478  0.7098 -0.0295  0.3250
  238MOL0     C32769  10.620   9.642   6.618 -1.0765  0.7438 -0.3019
  238MOL0     C32770  10.722   9.752   6.638  0.8964 -0.2786  0.6561
  238MOL0     C32771  10.804   9.828   6.681 -0.3059  0.1399  0.0834
  238MOL0     C32772  10.669   9.403   6.045 -1.2628 -0.7042  1.1407
  238MOL0     C32773  10.716   9.390   5.911 -0.3208 -0.3493  0.9611
  238MOL0     C32774  10.613   9.392   5.800  0.1225 -0.5787 -0.2824
  238MOL0     H32775  11.095   9.625   5.682 -1.7289 -1.3849 -0.2746
  238MOL0     H32776  11.223   9.709   5.454  1.7649 -0.3453 -1.0221
  238MOL0     H32777  11.259   9.698   5.216 -1.1980 -2.3665  1.8031
  238MOL0     H32778  11.413   9.633   5.137 -1.4496 -0.8734 -0.7388
  238MOL0     H32779  11.417   9.739   5.419 -3.4360  0.0530 -0.6325
  238MOL0     H32780  11.546   9.706   5.302  0.1041 -1.7917 -0.5116
  238MOL0     H32781  11.367   9.949   5.284  0.1745 -0.7837  1.9346
  238MOL0     H32782  11.543   9.935   5.298 -1.6223  1.7478  0.1240
  238MOL0     H32783  11.576   9.862   5.078  0.7460  2.2434 -2.2762
  238MOL0     H32784  11.403   9.829   5.052 -0.1043 -0.0558 -0.3857
  238MOL0     H32785  11.536  10.107   5.089 -0.0678 -1.2162 -0.0988
  238MOL0     H32786  11.370  10.079   5.077 -1.2838 -2.6192  0.3007
  238MOL0     H32787  11.438   9.959   4.841  4.2095 -2.5050  0.5544
  238MOL0     H32788  11.438  10.123   4.851 -0.5198 -1.6009 -0.1411
  238MOL0     H32789  11.688   9.942   4.912 -2.1638  0.4974  1.2040
  238MOL0     H32790  11.713  10.110   4.877  0.8812  0.6017 -1.7442
  238MOL0     H32791  11.569  10.051   4.647 -0.5836  2.4335  1.3060
  238MOL0     H32792  11.737   9.986   4.653 -0.1431 -1.8647  0.6164
  238MOL0     H32793  11.797   9.763   4.652 -0.1535  1.4283 -0.4407
  238MOL0     H32794  11.668   9.428   4.688 -3.4871  1.0912 -0.0898
  238MOL0     H32795  11.808   9.502   4.638  0.5436  1.2787 -1.1767
  238MOL0     H32796  11.577   9.447   4.438  0.9739  2.5909 -3.7159
  238MOL0     H32797  11.720   9.532   4.411  0.9596  0.2541 -0.0713
  238MOL0     H32798  11.855   9.328   4.449 -1.0791  4.3149  0.6796
  238MOL0     H32799  11.728   9.248   4.527 -1.6793 -1.0389 -2.4249
  238MOL0     H32800  11.777   9.324   4.233 -0.7658  1.6789  1.5527
  238MOL0     H32801  11.775   9.158   4.293  1.6992  0.2090  1.8717
  238MOL0     H32802  11.340   9.252   4.156 -1.9627 -2.0453 -1.5827
  238MOL0     H32803  11.203   9.406   3.889 -5.2274 -1.2985 -0.7794
  238MOL0     H32804  11.169   9.280   4.011  0.0894 -0.2653 -0.1667
  238MOL0     H32805  11.190   9.242   3.844  0.1023  1.1020 -0.8827
  238MOL0     H32806  11.342   9.454   3.499  1.2612 -1.0519 -2.1348
  238MOL0     H32807  11.136   9.517   3.371 -0.7049  0.2591 -1.1681
  238MOL0     H32808  10.905   9.205   3.179  2.7801 -1.0189  2.1134
  238MOL0     H32809  10.820   9.202   3.337  2.8482 -4.1692 -1.8985
  238MOL0     H32810  10.767   9.398   3.107 -0.6065 -0.7299 -0.5965
  238MOL0     H32811  10.658   9.267   3.167  1.0709 -0.4851 -0.4255
  238MOL0     H32812  10.731   9.505   3.342 -1.5638  1.5260 -0.7714
  238MOL0     H32813  10.624   9.373   3.387 -1.5197  2.4695  0.3321
  238MOL0     H32814  10.567   9.524   3.135 -1.4324 -0.6101 -0.9713
  238MOL0     H32815  10.527   9.600   3.294  2.7601  0.1947  1.2342
  238MOL0     H32816  10.334   9.464   3.197 -2.1832  0.6911  1.5586
  238MOL0     H32817  10.447   9.324   3.211 -0.0854  1.1168 -1.8174
  238MOL0     H32818  10.414   9.301   3.428 -0.6299 -0.7132 -1.5178
  238MOL0     H32819  10.257   9.331   3.363 -1.0407  1.3352  0.0690
  238MOL0     H32820  10.423   9.513   3.545  1.6631  3.0418 -5.3174
  238MOL0     H32821  10.275   9.417   3.586 -0.6743  0.4203  0.1286
  238MOL0     H32822  10.280   9.664   3.394 -2.4168 -0.4293 -1.9150
  238MOL0     H32823  10.212   9.641   3.557  0.2625 -2.8143  1.2052
  238MOL0     H32824  11.035   9.103   3.358  1.2967 -0.9282  0.7056
  238MOL0     H32825  11.199   9.053   3.530 -0.4717 -0.0373 -0.6762
  238MOL0     H32826  11.685   9.237   3.809 -0.4313  0.4433  0.0670
  238MOL0     H32827  11.761   9.267   4.027 -0.2921 -1.8114  0.2356
  238MOL0     H32828  11.273   9.294   5.358  0.5223 -0.6166  0.9307
  238MOL0     H32829  11.140   9.223   5.550  1.2083  0.0522 -1.1173
  238MOL0     H32830  11.058   9.355   5.993  0.6257  3.3238  1.7621
  238MOL0     H32831  10.964   9.360   6.208 -0.1261 -2.0295 -0.2670
  238MOL0     H32832  10.551   9.469   6.262 -1.0761 -0.4140  0.7481
  238MOL0     H32833  10.539   9.301   6.318 -1.7094  1.0568  2.1907
  238MOL0     H32834  10.656   9.374   6.532 -0.6367  1.5980  0.2647
  238MOL0     H32835  10.491   9.435   6.508 -0.1250  2.6033  2.6920
  238MOL0     H32836  10.758   9.579   6.463  0.8028  0.0434  0.9604
  238MOL0     H32837  10.604   9.648   6.405  2.0072  0.5841  0.0393
  238MOL0     H32838  10.639   9.568   6.696  0.2098  0.2681 -1.0188
  238MOL0     H32839  10.520   9.685   6.630 -0.8029  0.8584  1.8212
  238MOL0     H32840  10.877   9.897   6.718 -1.1414 -0.1811  2.5131
  238MOL0     H32841  10.561   9.408   6.057 -1.5224  0.6079 -1.1418
  238MOL0     H32842  10.612   9.293   5.753  1.5829 -1.2317  0.9840
  238MOL0     H32843  10.521   9.419   5.851  0.1531  1.9312 -1.4331
  238MOL0     H32844  10.631   9.474   5.730 -0.9010  0.3738  0.5566
  239MOL0     O32845   6.452   3.784   5.075 -0.3223 -0.3482  0.1786
  239MOL0     C32846   6.344   3.838   5.079  0.5247 -0.9027 -0.4845
  239MOL0     O32847   6.330   3.967   5.130 -0.2031  0.3622  0.0817
  239MOL0     C32848   6.440   4.024   5.184  0.0905 -0.4135 -0.4429
  239MOL0     C32849   6.528   3.968   5.279 -0.1479  0.2548 -0.0192
  239MOL0     C32850   6.648   4.034   5.309 -0.1150  0.4227 -0.3218
  239MOL0     C32851   6.684   4.164   5.264 -0.1012  0.6771  0.3225
  239MOL0     O32852   6.799   4.232   5.282 -0.4535  0.0299 -0.1779
  239MOL0     C32853   6.911   4.151   5.227  0.1344  0.0612 -0.1536
  239MOL0     C32854   7.024   4.247   5.174 -0.0416 -0.8205 -0.3030
  239MOL0     C32855   7.112   4.196   5.064  0.1904  0.4985  0.0034
  239MOL0     C32856   7.224   4.300   5.026 -0.0494  0.2349 -0.7544
  239MOL0     C32857   7.183   4.401   4.923  0.0243  0.5187  1.3199
  239MOL0     C32858   7.272   4.522   4.918 -0.2372  0.7536 -0.6473
  239MOL0     C32859   7.238   4.616   4.802  0.4384  0.1830  0.8832
  239MOL0     C32860   7.339   4.728   4.800 -0.5606 -0.1345 -0.0017
  239MOL0     N32861   7.322   4.830   4.902 -0.4230  0.1363 -0.0423
  239MOL0     C32862   7.233   4.935   4.907  0.1486  0.5698  0.1754
  239MOL0     C32863   7.252   4.993   5.031  0.7556  1.2796  0.0660
  239MOL0     C32864   7.175   5.106   5.092  1.2269  0.6414  0.5005
  239MOL0     C32865   7.025   5.098   5.084 -0.1645 -0.4288 -0.6595
  239MOL0     C32866   6.958   5.228   5.139  0.5980 -0.8305  0.5782
  239MOL0     C32867   7.007   5.272   5.278  0.0330  0.0799  0.1450
  239MOL0     O32868   6.980   5.172   5.379  0.2509  0.2264  0.5318
  239MOL0     C32869   7.051   5.188   5.498 -0.3409 -0.0412  0.2705
  239MOL0     C32870   7.034   5.089   5.587  0.0174 -0.0496 -0.2398
  239MOL0     C32871   7.108   5.091   5.713  0.1508 -0.3935 -0.1662
  239MOL0     C32872   7.084   4.963   5.800 -0.0415 -0.4918  0.3105
  239MOL0     C32873   7.188   5.198   5.746  0.1755  0.9754  0.2181
  239MOL0     C32874   7.262   5.203   5.882  0.0076 -0.5920 -0.1830
  239MOL0     O32875   7.229   5.117   5.984  0.0724  0.0012  0.1609
  239MOL0     C32876   7.295   5.131   6.102 -0.2338  0.6911 -0.1431
  239MOL0     C32877   7.261   5.219   6.194 -0.1209 -0.0506 -0.2803
  239MOL0     C32878   7.327   5.243   6.311 -0.2744  0.0982  0.1809
  239MOL0     C32879   7.448   5.165   6.341  0.4432 -0.4312 -0.0622
  239MOL0     O32880   7.507   5.175   6.462 -0.2191  0.5611  0.4138
  239MOL0     C32881   7.627   5.102   6.485 -0.0500 -0.3283  0.4118
  239MOL0     C32882   7.696   5.168   6.604  0.2915 -0.7073  0.6307
  239MOL0     C32883   7.853   5.147   6.586 -0.4336 -0.3929  0.8132
  239MOL0     C32884   7.942   5.163   6.712  0.2109 -1.1209  0.3619
  239MOL0     C32885   8.089   5.121   6.695 -0.2173  1.2355 -0.1412
  239MOL0     C32886   8.174   5.129   6.822 -0.1691 -0.0407  0.8241
  239MOL0     C32887   8.156   5.018   6.923  0.3115  0.6992 -0.6926
  239MOL0     C32888   8.269   5.022   7.032  0.5957 -0.0270  0.1544
  239MOL0    Cl32889   8.261   5.159   7.154 -0.3847 -0.1743 -0.2186
  239MOL0     C32890   7.487   5.067   6.243  0.3023  0.3549 -0.7523
  239MOL0     C32891   7.409   5.047   6.123  0.0591  0.2365 -0.3274
  239MOL0     O32892   7.358   5.281   5.891  0.1257 -0.1160  0.1324
  239MOL0     C32893   7.213   5.292   5.642  0.3037 -0.0186  0.4953
  239MOL0     C32894   7.148   5.284   5.522  0.7725  0.4079  0.4065
  239MOL0     N32895   7.357   4.923   5.095 -0.6589  0.5957 -1.4283
  239MOL0     N32896   7.383   4.821   5.023 -1.0451  0.7073 -0.0915
  239MOL0     C32897   6.585   4.222   5.184  0.3635 -0.3582 -0.6818
  239MOL0     C32898   6.463   4.162   5.144 -0.8314  0.0509 -0.3567
  239MOL0     C32899   6.233   3.756   5.034 -0.0022 -0.6455 -0.3953
  239MOL0     C32900   6.209   3.644   5.108  0.5464 -0.4769  0.6911
  239MOL0     C32901   6.101   3.561   5.071  0.3082 -0.2223 -0.2614
  239MOL0     C32902   6.027   3.586   4.951  1.0367  0.0655  0.2314
  239MOL0     O32903   5.929   3.494   4.908  0.1018  0.7516 -0.8362
  239MOL0     C32904   5.836   3.520   4.801 -0.9559  0.2265 -0.0790
  239MOL0     C32905   5.757   3.397   4.778  0.1043  0.9387  0.1631
  239MOL0     C32906   5.697   3.347   4.909 -0.4699 -0.5207 -0.0006
  239MOL0     C32907   5.668   3.199   4.923 -0.0181  0.6201  0.3939
  239MOL0     C32908   5.552   3.171   4.841  0.6694  0.0011  0.3672
  239MOL0     C32909   5.470   3.151   4.754  0.2051 -0.5030  0.4289
  239MOL0     C32910   6.056   3.708   4.876  0.1703  0.0673 -0.7128
  239MOL0     C32911   6.167   3.792   4.911  0.9216 -0.7053  0.5410
  239MOL0     C32912   6.202   3.902   4.810  0.3401 -0.2509 -0.7704
  239MOL0     H32913   6.525   3.865   5.313  1.9625 -0.2173 -1.0490
  239MOL0     H32914   6.708   3.976   5.378  1.4322  4.3049  1.9450
  239MOL0     H32915   6.873   4.084   5.150  1.4257 -1.6378  0.6033
  239MOL0     H32916   6.953   4.089   5.307  3.7775  0.5925 -1.4415
  239MOL0     H32917   6.966   4.333   5.140 -2.7123 -1.0601  3.0757
  239MOL0     H32918   7.087   4.278   5.258 -3.1660 -0.9423  2.2789
  239MOL0     H32919   7.164   4.101   5.080  0.8458  0.7876 -0.3838
  239MOL0     H32920   7.053   4.186   4.972 -0.4236  1.5823  0.2592
  239MOL0     H32921   7.251   4.357   5.115  2.6659 -2.2600  0.1763
  239MOL0     H32922   7.318   4.253   4.993 -0.2044 -0.7033  0.1101
  239MOL0     H32923   7.082   4.436   4.945 -0.3558 -0.3573  1.0015
  239MOL0     H32924   7.189   4.356   4.823  2.0380 -2.3981  2.6184
  239MOL0     H32925   7.260   4.564   5.019  0.4728  0.4107 -0.4096
  239MOL0     H32926   7.379   4.505   4.905 -0.4200 -0.4466 -0.7248
  239MOL0     H32927   7.141   4.660   4.825 -1.7346 -4.4708  1.8441
  239MOL0     H32928   7.232   4.564   4.706  2.3594  1.8329 -0.1934
  239MOL0     H32929   7.438   4.681   4.805 -1.1235 -1.1767  2.7398
  239MOL0     H32930   7.330   4.783   4.706 -0.5875  2.7506  1.5584
  239MOL0     H32931   7.159   4.969   4.834  2.1918  1.2336 -1.7094
  239MOL0     H32932   7.212   5.186   5.027 -0.4301  0.1012 -1.1998
  239MOL0     H32933   7.195   5.113   5.199 -0.5960 -0.8692  1.0041
  239MOL0     H32934   6.981   5.076   4.986  0.1986 -0.1000 -0.8993
  239MOL0     H32935   6.999   5.020   5.157 -1.3675 -0.3341 -0.9607
  239MOL0     H32936   6.975   5.316   5.077 -1.9690 -0.4514  0.3172
  239MOL0     H32937   6.850   5.213   5.133  0.7236 -1.0729 -3.2802
  239MOL0     H32938   7.115   5.285   5.275  0.0240  0.2125  0.3955
  239MOL0     H32939   6.962   5.370   5.299  2.3704  1.2090  0.1743
  239MOL0     H32940   6.953   5.017   5.578  1.2290 -1.8087  1.8710
  239MOL0     H32941   7.174   4.909   5.829  0.2256  1.2739  3.3227
  239MOL0     H32942   7.018   4.895   5.746 -1.7964  1.3661 -0.0324
  239MOL0     H32943   7.029   4.998   5.888 -0.3661 -0.9280  0.2820
  239MOL0     H32944   7.171   5.276   6.176  0.0710 -0.3844 -2.4829
  239MOL0     H32945   7.277   5.314   6.376  0.6440  1.7529 -0.8569
  239MOL0     H32946   7.605   4.996   6.497 -0.2644 -0.3657 -0.2716
  239MOL0     H32947   7.699   5.112   6.403 -0.2340 -0.8675  0.1828
  239MOL0     H32948   7.664   5.272   6.602  1.0653 -0.3454 -4.2318
  239MOL0     H32949   7.659   5.119   6.695  0.1242  3.1998  2.8778
  239MOL0     H32950   7.899   5.213   6.512 -2.0364  0.7858  0.8214
  239MOL0     H32951   7.876   5.046   6.550  2.5179  1.1935 -2.2797
  239MOL0     H32952   7.905   5.101   6.795  1.3615 -2.7264 -0.2590
  239MOL0     H32953   7.935   5.262   6.758 -0.4125 -1.0157  0.0508
  239MOL0     H32954   8.102   5.016   6.665  1.1424  0.6455  2.2631
  239MOL0     H32955   8.131   5.176   6.610  1.4027 -0.9897 -0.8958
  239MOL0     H32956   8.144   5.223   6.869 -0.1549  1.4641 -1.9743
  239MOL0     H32957   8.279   5.144   6.794  0.2680  0.9180  2.8099
  239MOL0     H32958   8.153   4.919   6.877  0.9072  0.6773 -0.6855
  239MOL0     H32959   8.067   5.019   6.987  1.2622  3.3022  0.7258
  239MOL0     H32960   8.362   5.027   6.975  0.6114  0.1311  0.1942
  239MOL0     H32961   8.270   4.931   7.092  1.0481  0.4263  0.8367
  239MOL0     H32962   7.575   5.006   6.258 -1.3654 -1.5386  2.7296
  239MOL0     H32963   7.437   4.983   6.040 -0.0013 -0.9062  0.5148
  239MOL0     H32964   7.285   5.370   5.664  3.5931 -2.9428  0.8923
  239MOL0     H32965   7.163   5.357   5.442 -1.8820  0.1389 -0.4257
  239MOL0     H32966   6.607   4.317   5.136 -1.7770 -1.2843 -3.7586
  239MOL0     H32967   6.414   4.203   5.057  1.2168  0.5005 -1.3791
  239MOL0     H32968   6.267   3.632   5.199  0.8300 -0.5667  0.5022
  239MOL0     H32969   6.087   3.473   5.131 -1.5842  1.2998  1.6809
  239MOL0     H32970   5.767   3.601   4.825 -1.2999  0.7221 -2.4459
  239MOL0     H32971   5.884   3.554   4.708 -1.3154  1.2976  0.1113
  239MOL0     H32972   5.821   3.319   4.736 -1.5116  0.1172 -0.8285
  239MOL0     H32973   5.675   3.424   4.712 -1.9919 -1.2018  1.7157
  239MOL0     H32974   5.758   3.373   4.996 -1.5888 -1.1424  1.0010
  239MOL0     H32975   5.606   3.408   4.920  1.1750  2.2642 -0.7665
  239MOL0     H32976   5.636   3.182   5.026 -0.4767 -0.1574  0.1279
  239MOL0     H32977   5.748   3.128   4.899 -0.2120  0.0827  1.3292
  239MOL0     H32978   5.401   3.113   4.681  1.3659 -4.7868  1.2673
  239MOL0     H32979   5.998   3.737   4.789  0.4138  1.7913 -0.3303
  239MOL0     H32980   6.299   3.889   4.760  0.7417  0.7214 -0.2734
  239MOL0     H32981   6.124   3.907   4.733 -0.4477 -0.8468 -0.0240
  239MOL0     H32982   6.197   3.998   4.863  0.4962 -1.1947  1.0171
  240MOL0     O32983  10.643   9.112   7.657  0.2663  0.3112 -0.3720
  240MOL0     C32984  10.677   9.206   7.735 -0.3413  0.6740 -0.4686
  240MOL0     O32985  10.776   9.191   7.821 -0.5375  0.0778 -0.7956
  240MOL0     C32986  10.813   9.071   7.861  0.5489 -0.4534  0.0259
  240MOL0     C32987  10.949   9.035   7.863 -0.1690 -0.1197  1.3751
  240MOL0     C32988  10.987   8.914   7.919  0.8629  0.7345  0.5726
  240MOL0     C32989  10.892   8.829   7.972  0.1788  0.9605 -1.3274
  240MOL0     O32990  10.944   8.706   8.008  0.7641  0.3250 -0.0884
  240MOL0     C32991  10.869   8.590   7.965 -1.5466 -0.1200  0.3482
  240MOL0     C32992  10.957   8.471   7.943 -1.2273 -0.3057 -0.8682
  240MOL0     C32993  10.985   8.401   8.074  0.1528  0.3875 -1.4557
  240MOL0     C32994  11.068   8.274   8.050 -0.0527 -0.3883 -0.0518
  240MOL0     C32995  11.064   8.182   8.176 -1.1074 -0.9988  0.1069
  240MOL0     C32996  11.091   8.041   8.131  0.0148 -0.6171 -0.1364
  240MOL0     C32997  10.984   7.944   8.180 -0.1051 -0.1954  0.6997
  240MOL0     C32998  10.985   7.915   8.330  0.7354  0.4879 -0.8843
  240MOL0     N32999  11.109   7.828   8.352 -0.1507  0.3863 -0.1946
  240MOL0     C33000  11.094   7.689   8.353 -0.6656  0.3725  1.0521
  240MOL0     C33001  11.210   7.635   8.387  0.3124  1.0794 -0.3610
  240MOL0     C33002  11.228   7.488   8.418 -0.1209 -0.2188 -0.0036
  240MOL0     C33003  11.251   7.476   8.573  0.0119 -0.4701  0.1811
  240MOL0     C33004  11.280   7.331   8.607  0.1716  0.1485 -0.2553
  240MOL0     C33005  11.166   7.227   8.608 -0.1655  0.1642 -0.1258
  240MOL0     O33006  11.063   7.257   8.705 -0.3046 -0.1174  0.0809
  240MOL0     C33007  10.947   7.184   8.687 -0.5889 -0.7990 -0.7863
  240MOL0     C33008  10.838   7.251   8.751 -0.2198 -0.1559  1.1157
  240MOL0     C33009  10.706   7.199   8.745  0.5326 -0.5527  0.9788
  240MOL0     C33010  10.601   7.295   8.796 -0.0032 -0.5028 -0.2259
  240MOL0     C33011  10.687   7.079   8.690 -0.1601 -0.1866  0.0968
  240MOL0     C33012  10.547   7.014   8.649 -0.7516 -0.3212  0.1771
  240MOL0     O33013  10.447   7.096   8.604 -0.6243 -0.5059 -0.0077
  240MOL0     C33014  10.368   7.029   8.525  0.4924 -0.6028 -0.4955
  240MOL0     C33015  10.408   6.960   8.400  0.1793  0.1342 -1.3202
  240MOL0     C33016  10.311   6.909   8.318  0.8859 -0.9079  0.3739
  240MOL0     C33017  10.167   6.935   8.333 -0.3581  0.8540  0.8827
  240MOL0     O33018  10.091   6.874   8.237  1.4175 -0.8162  0.2461
  240MOL0     C33019   9.953   6.910   8.231  0.9167 -0.1890  0.1544
  240MOL0     C33020   9.905   6.909   8.078 -0.7508  0.1939  0.5387
  240MOL0     C33021   9.929   6.767   8.017 -0.5634  0.0573  0.2856
  240MOL0     C33022   9.870   6.774   7.871 -0.0045 -0.2575 -0.4140
  240MOL0     C33023   9.852   6.634   7.831  0.2923  0.0706  0.1668
  240MOL0     C33024   9.809   6.639   7.681  0.1144  0.1441  0.2072
  240MOL0     C33025   9.817   6.507   7.605 -0.4720 -0.4218 -0.7292
  240MOL0     C33026   9.761   6.377   7.662 -0.2836 -0.3855 -0.0850
  240MOL0    Cl33027   9.611   6.406   7.753 -0.1977  0.3060  0.0176
  240MOL0     C33028  10.136   6.998   8.449  0.1865  0.4385  0.2008
  240MOL0     C33029  10.228   7.046   8.540  0.0624  0.2133 -0.0251
  240MOL0     O33030  10.536   6.902   8.679 -0.2817 -0.2871  0.4586
  240MOL0     C33031  10.797   7.007   8.641 -0.5211  1.0161 -0.7342
  240MOL0     C33032  10.931   7.053   8.648 -0.9098 -0.7896  0.5908
  240MOL0     N33033  11.294   7.750   8.397  0.0645 -0.1988 -0.7815
  240MOL0     N33034  11.236   7.860   8.388 -0.3733  0.0482 -0.1686
  240MOL0     C33035  10.759   8.873   7.976  0.3742  0.1232 -1.4055
  240MOL0     C33036  10.716   8.991   7.919  0.6198 -0.0944 -0.6859
  240MOL0     C33037  10.617   9.338   7.731 -0.3906  0.1547  0.6581
  240MOL0     C33038  10.655   9.423   7.831 -0.5128 -0.9427 -1.4171
  240MOL0     C33039  10.591   9.549   7.847  1.0310  0.3659  0.0955
  240MOL0     C33040  10.490   9.588   7.763  0.4047 -0.1334 -0.5624
  240MOL0     O33041  10.425   9.711   7.767 -0.6163 -0.3816  0.3117
  240MOL0     C33042  10.452   9.804   7.876 -0.3218  0.8345 -0.1135
  240MOL0     C33043  10.336   9.905   7.864 -0.0617 -0.1734 -1.1470
  240MOL0     C33044  10.331   9.995   7.737  1.2082 -0.4228 -0.0523
  240MOL0     C33045  10.322  10.143   7.770  0.0681 -0.1182  0.1023
  240MOL0     C33046  10.318  10.233   7.652 -0.0613 -0.1940  0.0173
  240MOL0     C33047  10.296  10.295   7.548  0.8329  0.9358  0.7289
  240MOL0     C33048  10.450   9.508   7.652 -0.3908  0.8648 -0.6471
  240MOL0     C33049  10.512   9.378   7.640 -0.4066  0.0815  0.0610
  240MOL0     C33050  10.458   9.292   7.521  0.4443 -0.5880  0.4071
  240MOL0     H33051  11.029   9.106   7.845 -0.8149  0.8981  2.4548
  240MOL0     H33052  11.090   8.882   7.932  0.3939  0.2976  4.6256
  240MOL0     H33053  10.812   8.611   7.874 -0.6093 -1.5658 -0.5957
  240MOL0     H33054  10.792   8.564   8.039 -0.8970 -2.2783  0.3333
  240MOL0     H33055  10.888   8.407   7.887 -4.7984  3.2189 -0.9539
  240MOL0     H33056  11.052   8.500   7.896  0.8818  2.1987  4.1423
  240MOL0     H33057  11.055   8.459   8.135  0.2410  0.1122 -1.2936
  240MOL0     H33058  10.899   8.372   8.136 -0.5548  2.7273 -1.2453
  240MOL0     H33059  11.026   8.221   7.965 -0.2403  1.0417 -0.8623
  240MOL0     H33060  11.175   8.293   8.034 -0.2767  1.8925  0.8807
  240MOL0     H33061  10.971   8.196   8.231 -0.9018 -1.0236  0.4600
  240MOL0     H33062  11.136   8.219   8.249  0.4592 -2.3226 -0.7148
  240MOL0     H33063  11.101   8.030   8.023  1.7450 -0.6944  0.0130
  240MOL0     H33064  11.188   8.011   8.171 -0.6522  1.8384  3.9048
  240MOL0     H33065  11.004   7.847   8.133  1.0938  1.3479 -2.2642
  240MOL0     H33066  10.884   7.971   8.145 -0.1616 -1.3203 -0.0634
  240MOL0     H33067  10.991   8.018   8.368  1.3074 -0.0688  0.5718
  240MOL0     H33068  10.896   7.868   8.372  1.1695  1.1410  0.8667
  240MOL0     H33069  11.003   7.635   8.330  0.2538 -1.4938  1.5364
  240MOL0     H33070  11.322   7.465   8.366  0.6811 -0.6286  1.5605
  240MOL0     H33071  11.142   7.424   8.395  0.6275 -1.1587 -0.2588
  240MOL0     H33072  11.332   7.541   8.607  1.3072 -0.8791 -1.9196
  240MOL0     H33073  11.164   7.512   8.630 -1.6932  0.6674 -2.8716
  240MOL0     H33074  11.369   7.299   8.552  2.5356  1.7902  2.3228
  240MOL0     H33075  11.330   7.330   8.705  1.6726 -0.6762 -0.9893
  240MOL0     H33076  11.122   7.201   8.512  0.6556  0.7555 -0.6695
  240MOL0     H33077  11.227   7.141   8.637 -2.0904 -0.7714  1.3578
  240MOL0     H33078  10.863   7.343   8.803  1.5783 -1.2388  2.2567
  240MOL0     H33079  10.533   7.237   8.859  1.1603 -1.0068  0.5937
  240MOL0     H33080  10.547   7.347   8.716  0.8458  0.4768 -0.1798
  240MOL0     H33081  10.638   7.379   8.855 -2.4492  0.6702 -0.2512
  240MOL0     H33082  10.510   6.937   8.370  1.1644  1.0526  1.0523
  240MOL0     H33083  10.320   6.865   8.220 -1.4768  0.4396 -0.5268
  240MOL0     H33084   9.895   6.831   8.280 -0.1950 -1.2100 -2.6261
  240MOL0     H33085   9.928   7.007   8.274 -2.2833  0.3506 -2.5725
  240MOL0     H33086   9.799   6.935   8.080 -1.5677 -2.5741 -1.2407
  240MOL0     H33087   9.949   6.988   8.016  0.4029 -0.3230  0.6774
  240MOL0     H33088   9.873   6.695   8.077 -1.3570  1.3956  1.2067
  240MOL0     H33089  10.033   6.735   8.008 -1.1999 -1.5045 -3.2238
  240MOL0     H33090   9.947   6.817   7.807  0.7280  0.5669  0.9675
  240MOL0     H33091   9.770   6.819   7.873 -0.1598 -0.6016 -0.4158
  240MOL0     H33092   9.941   6.572   7.848 -0.7264 -0.8830  2.4427
  240MOL0     H33093   9.769   6.595   7.891 -1.4023  3.9532  0.6685
  240MOL0     H33094   9.869   6.710   7.624 -1.0962  2.7218  1.9438
  240MOL0     H33095   9.705   6.673   7.683  0.3714  0.9480  0.1419
  240MOL0     H33096   9.924   6.490   7.591 -0.3812  0.5901 -1.3869
  240MOL0     H33097   9.795   6.514   7.498  0.8338 -1.0802 -1.0705
  240MOL0     H33098   9.833   6.339   7.736 -0.6041 -0.9299 -0.0451
  240MOL0     H33099   9.728   6.307   7.584  0.1984 -1.2004  0.4261
  240MOL0     H33100  10.029   6.995   8.468  0.2040 -2.3823  0.3131
  240MOL0     H33101  10.195   7.084   8.637  1.1638  2.6927 -0.5291
  240MOL0     H33102  10.771   6.907   8.609 -0.0072 -0.6375  3.3939
  240MOL0     H33103  11.019   6.993   8.626 -1.5166 -1.3997 -0.2180
  240MOL0     H33104  10.691   8.803   8.025  1.1891  0.9717  1.0967
  240MOL0     H33105  10.612   9.021   7.913  0.5714 -0.3055 -0.9093
  240MOL0     H33106  10.735   9.408   7.903 -1.5521  2.5085  0.6552
  240MOL0     H33107  10.631   9.620   7.919 -0.9129  0.6485  0.9560
  240MOL0     H33108  10.459   9.749   7.970  2.7359  2.6024  0.8140
  240MOL0     H33109  10.542   9.864   7.862  1.3839 -1.5021  0.2803
  240MOL0     H33110  10.343   9.974   7.949 -0.2790  1.1685 -2.1769
  240MOL0     H33111  10.242   9.852   7.872 -0.4574  0.5269 -1.0589
  240MOL0     H33112  10.407   9.980   7.660 -0.2891 -1.5158 -1.4063
  240MOL0     H33113  10.235   9.978   7.686  0.9338  1.9664 -0.4572
  240MOL0     H33114  10.405  10.167   7.836  1.1947 -1.3324 -0.8027
  240MOL0     H33115  10.232  10.163   7.829 -0.8825 -0.0454 -1.3065
  240MOL0     H33116  10.282  10.356   7.460 -0.5937 -2.5672 -1.7377
  240MOL0     H33117  10.373   9.550   7.589 -0.1472  2.1383 -0.1327
  240MOL0     H33118  10.533   9.256   7.450 -2.5309 -2.2426 -2.1521
  240MOL0     H33119  10.383   9.218   7.550  0.1322 -0.9572 -1.2561
  240MOL0     H33120  10.401   9.358   7.455 -1.5841  0.3715  2.9552
  241MOL0     O33121   8.203   5.848  10.159 -0.3941 -0.1245 -0.3028
  241MOL0     C33122   8.247   5.731  10.151  0.8817 -0.0984  0.4860
  241MOL0     O33123   8.161   5.630  10.127  0.8206  0.4421 -0.5335
  241MOL0     C33124   8.022   5.632  10.115  0.0856 -0.1427 -0.0851
  241MOL0     C33125   7.933   5.721  10.179  0.8483 -0.9947 -0.7072
  241MOL0     C33126   7.793   5.717  10.148 -0.1841 -0.0050 -0.5647
  241MOL0     C33127   7.740   5.615  10.077 -0.3392 -0.1087 -0.0541
  241MOL0     O33128   7.607   5.594  10.049  0.8480 -0.3152 -0.9116
  241MOL0     C33129   7.507   5.681  10.109  0.8271 -0.5783  0.7059
  241MOL0     C33130   7.383   5.593  10.111 -0.2920  0.1512 -0.8006
  241MOL0     C33131   7.254   5.662  10.141  0.1417 -0.6089  0.0225
  241MOL0     C33132   7.206   5.758  10.029 -0.5827 -0.2890 -0.0305
  241MOL0     C33133   7.069   5.822  10.067 -0.6345  0.6728 -0.6859
  241MOL0     C33134   6.985   5.881   9.953 -0.1611 -0.3269  0.0692
  241MOL0     C33135   6.856   5.949  10.010 -0.1609 -0.8392 -0.4089
  241MOL0     C33136   6.731   5.865  10.024 -0.6614 -0.4432  0.9823
  241MOL0     N33137   6.720   5.787   9.904  0.2461  0.0882 -0.3843
  241MOL0     C33138   6.774   5.663   9.879  0.8091 -0.7434  0.4804
  241MOL0     C33139   6.766   5.653   9.741 -1.5412  0.2642 -0.3283
  241MOL0     C33140   6.835   5.540   9.665  0.2259  0.6250 -0.0772
  241MOL0     C33141   6.938   5.598   9.560  0.5634 -0.2456 -0.7011
  241MOL0     C33142   6.996   5.506   9.470  0.0494 -0.4270 -0.2555
  241MOL0     C33143   7.128   5.451   9.510  0.2121 -0.0660  0.5117
  241MOL0     O33144   7.145   5.430   9.651  0.8005  0.2927  0.3602
  241MOL0     C33145   7.263   5.382   9.701  1.4215 -0.0044  0.3134
  241MOL0     C33146   7.379   5.367   9.626 -0.4222  0.2034  0.8202
  241MOL0     C33147   7.499   5.311   9.677 -0.0540  0.0661  0.7498
  241MOL0     C33148   7.615   5.300   9.571  0.2391  0.4767 -0.2707
  241MOL0     C33149   7.506   5.261   9.803  0.6259 -0.3296 -1.2278
  241MOL0     C33150   7.622   5.196   9.860  0.2340  0.6581  0.4577
  241MOL0     O33151   7.710   5.125   9.783 -0.3834  0.0213 -0.5136
  241MOL0     C33152   7.815   5.076   9.860  0.3776  0.1572 -0.0105
  241MOL0     C33153   7.804   4.944   9.914  0.3123 -1.1429  0.3772
  241MOL0     C33154   7.916   4.888   9.971 -0.1540 -0.2385 -0.5210
  241MOL0     C33155   8.035   4.964   9.996  0.2354  0.8262  0.2345
  241MOL0     O33156   8.142   4.927  10.074  0.2027  0.6409  1.0350
  241MOL0     C33157   8.197   4.804  10.021  0.5100 -0.1698 -0.5746
  241MOL0     C33158   8.344   4.788  10.053 -0.3883 -0.3273 -0.0489
  241MOL0     C33159   8.394   4.652  10.016  0.3619 -0.4945 -0.7606
  241MOL0     C33160   8.520   4.625  10.103 -0.3013  0.0325  0.1191
  241MOL0     C33161   8.555   4.479  10.067 -0.0798 -0.2012  1.2732
  241MOL0     C33162   8.704   4.472  10.109 -0.5231  1.1876 -0.3914
  241MOL0     C33163   8.757   4.322  10.104 -1.1152 -0.2321  0.2636
  241MOL0     C33164   8.902   4.316  10.134 -0.2742 -0.3306 -0.5327
  241MOL0    Cl33165   8.920   4.341  10.301  0.2470  0.0871 -0.0943
  241MOL0     C33166   8.051   5.083   9.933  0.8942  0.3003  0.9210
  241MOL0     C33167   7.937   5.145   9.876 -0.1862 -0.5229 -0.5797
  241MOL0     O33168   7.630   5.210   9.986 -0.0016 -0.3112 -0.3935
  241MOL0     C33169   7.371   5.262   9.876 -1.2063 -0.7046 -0.1543
  241MOL0     C33170   7.260   5.339   9.838  0.5571  0.9492  0.1725
  241MOL0     N33171   6.705   5.760   9.687  0.4650  0.6119 -0.1820
  241MOL0     N33172   6.687   5.844   9.780  0.3702  0.6460  0.3807
  241MOL0     C33173   7.828   5.525  10.031 -0.7836 -0.0100  1.0585
  241MOL0     C33174   7.966   5.523  10.045  0.8505 -1.7041 -0.9307
  241MOL0     C33175   8.392   5.695  10.161 -0.1044 -0.3543 -0.3585
  241MOL0     C33176   8.429   5.572  10.214 -0.4467 -1.5849  0.5618
  241MOL0     C33177   8.559   5.536  10.239 -0.5611  0.4310 -0.7129
  241MOL0     C33178   8.662   5.621  10.208  0.7192  1.6463  0.1897
  241MOL0     O33179   8.787   5.570  10.236  0.4739  0.1041 -0.7517
  241MOL0     C33180   8.901   5.662  10.239  0.8918  0.6979  0.2733
  241MOL0     C33181   9.013   5.574  10.184 -0.0999  0.0466 -0.4742
  241MOL0     C33182   9.053   5.458  10.278  0.0303 -0.0929 -0.0336
  241MOL0     C33183   9.103   5.504  10.409 -0.3844 -0.3843 -0.5732
  241MOL0     C33184   9.205   5.602  10.403 -0.5115  0.3132  0.3420
  241MOL0     C33185   9.275   5.701  10.402  0.1416  0.9606  0.0724
  241MOL0     C33186   8.631   5.732  10.135  0.0935  0.4506 -0.4061
  241MOL0     C33187   8.494   5.773  10.109 -0.3659  0.5154 -0.0491
  241MOL0     C33188   8.470   5.896  10.034 -0.3387 -0.6666  0.6840
  241MOL0     H33189   7.969   5.806  10.237  2.2534 -3.2028  1.9086
  241MOL0     H33190   7.740   5.805  10.184  0.9385  0.9686 -1.2347
  241MOL0     H33191   7.497   5.763  10.038  3.7189 -2.5883 -2.3422
  241MOL0     H33192   7.530   5.710  10.212 -1.7497  3.3200  0.3757
  241MOL0     H33193   7.378   5.538  10.017 -0.6274  0.9369 -1.2550
  241MOL0     H33194   7.396   5.518  10.189 -0.5338 -0.6543 -1.5265
  241MOL0     H33195   7.184   5.581  10.163  1.6914 -2.7452 -2.3283
  241MOL0     H33196   7.290   5.720  10.227  2.1411 -0.3743 -0.9060
  241MOL0     H33197   7.273   5.839   9.997 -0.8846  0.1327  0.3933
  241MOL0     H33198   7.185   5.697   9.940  1.5956 -2.6864  0.9731
  241MOL0     H33199   7.100   5.895  10.142  0.5256 -0.7353  0.2540
  241MOL0     H33200   7.004   5.743  10.105 -1.7193  0.5698 -2.5998
  241MOL0     H33201   7.057   5.956   9.917 -0.3026  0.7319  1.8470
  241MOL0     H33202   6.974   5.803   9.877 -1.5374 -1.5170  1.4253
  241MOL0     H33203   6.830   6.037   9.951  0.7716 -0.8807 -0.9105
  241MOL0     H33204   6.880   5.984  10.111  0.0968 -0.9274 -0.4381
  241MOL0     H33205   6.719   5.807  10.116  1.3307 -0.6614  1.1351
  241MOL0     H33206   6.650   5.939  10.023 -0.1641  0.2935 -3.5006
  241MOL0     H33207   6.795   5.587   9.953  0.6370 -0.6367  0.6381
  241MOL0     H33208   6.757   5.483   9.612 -2.7283  3.3449  1.0087
  241MOL0     H33209   6.887   5.479   9.739 -0.7799  0.3742  0.4468
  241MOL0     H33210   6.886   5.675   9.502 -1.3066 -1.1446 -0.2921
  241MOL0     H33211   7.020   5.648   9.612  0.2107 -2.4901  2.2602
  241MOL0     H33212   6.924   5.425   9.452 -0.5652  0.0377  0.1239
  241MOL0     H33213   7.002   5.560   9.375 -3.3100  0.5371 -0.0207
  241MOL0     H33214   7.157   5.367   9.446 -3.3056 -0.6807 -0.4665
  241MOL0     H33215   7.194   5.533   9.482  0.1219  0.1886  1.0264
  241MOL0     H33216   7.396   5.403   9.525 -0.7818  1.0479  1.0531
  241MOL0     H33217   7.693   5.225   9.589  1.7288  1.5705 -1.8596
  241MOL0     H33218   7.667   5.391   9.541  2.5764 -0.9631 -0.8443
  241MOL0     H33219   7.572   5.264   9.477 -0.8237  0.2114  0.2991
  241MOL0     H33220   7.707   4.897   9.907  1.0992 -3.0725  1.6998
  241MOL0     H33221   7.899   4.789  10.012  2.8343  0.0539  1.8292
  241MOL0     H33222   8.154   4.729  10.089  3.8837  0.3178  2.4195
  241MOL0     H33223   8.176   4.791   9.915 -3.8298  5.1294 -0.8026
  241MOL0     H33224   8.409   4.863  10.006  0.9552  0.9831  3.5258
  241MOL0     H33225   8.366   4.803  10.159  2.1006 -0.0369 -0.5256
  241MOL0     H33226   8.401   4.643   9.907 -0.1135 -3.9858 -0.6224
  241MOL0     H33227   8.317   4.582  10.048 -2.2170  3.5584  3.1032
  241MOL0     H33228   8.496   4.630  10.210 -0.4852 -0.9259  0.1274
  241MOL0     H33229   8.597   4.701  10.088 -1.3640  1.6523  2.3086
  241MOL0     H33230   8.489   4.409  10.119 -1.2425 -1.4917 -1.7474
  241MOL0     H33231   8.570   4.471   9.959  1.4657 -0.6926  1.4943
  241MOL0     H33232   8.727   4.513  10.208 -1.5575  1.3733 -0.2156
  241MOL0     H33233   8.767   4.524  10.036 -0.6796  1.1372 -0.5626
  241MOL0     H33234   8.751   4.274  10.006 -0.2351 -1.8434  0.9511
  241MOL0     H33235   8.696   4.255  10.165  0.0233 -2.4376 -0.8752
  241MOL0     H33236   8.967   4.390  10.087  1.2800  1.1520  3.5518
  241MOL0     H33237   8.935   4.212  10.124 -1.1458 -1.0470  2.9469
  241MOL0     H33238   8.147   5.134   9.933  1.1072 -0.0791  0.2282
  241MOL0     H33239   7.954   5.247   9.843  1.2188 -0.0450  1.4355
  241MOL0     H33240   7.367   5.228   9.979  0.7191  0.3447  0.3116
  241MOL0     H33241   7.167   5.336   9.893  0.8146 -5.8959  1.0642
  241MOL0     H33242   7.779   5.446   9.975 -0.9892  0.2307  0.8944
  241MOL0     H33243   8.043   5.457  10.007 -0.7052 -2.9059 -2.1386
  241MOL0     H33244   8.349   5.507  10.247 -0.6086 -2.1013 -0.7874
  241MOL0     H33245   8.568   5.442  10.293 -0.3642  1.1204  0.4936
  241MOL0     H33246   8.898   5.755  10.181 -0.6493  1.8624  2.1004
  241MOL0     H33247   8.933   5.695  10.338 -1.0123  1.2630  0.7307
  241MOL0     H33248   9.099   5.639  10.166 -0.7496  0.8522 -0.7243
  241MOL0     H33249   8.984   5.518  10.095 -1.8705  0.2127 -0.0346
  241MOL0     H33250   8.971   5.386  10.282 -1.2673  1.3669  0.4967
  241MOL0     H33251   9.135   5.400  10.234  0.2680  1.1013 -1.2071
  241MOL0     H33252   9.153   5.420  10.457  0.9829  1.8467  2.1905
  241MOL0     H33253   9.021   5.538  10.473  0.7719 -1.5473  1.6145
  241MOL0     H33254   9.341   5.786  10.405  2.9847 -1.0983  0.3789
  241MOL0     H33255   8.715   5.795  10.106  0.7337 -0.9095 -1.5780
  241MOL0     H33256   8.456   5.863   9.930  0.7956  3.5788 -1.0132
  241MOL0     H33257   8.380   5.951  10.066  1.0517  1.8807  0.4520
  241MOL0     H33258   8.556   5.963  10.035 -0.3916 -0.5982  1.5920
  242MOL0     O33259   3.640   7.387   6.195  0.2809 -0.1850  0.4670
  242MOL0     C33260   3.670   7.288   6.261  0.1297  0.7903  0.6137
  242MOL0     O33261   3.768   7.293   6.352 -0.7250  0.3558 -0.7716
  242MOL0     C33262   3.842   7.405   6.378 -0.6499 -0.6358 -0.0431
  242MOL0     C33263   3.977   7.412   6.362 -0.4151 -0.9251  0.6232
  242MOL0     C33264   4.054   7.522   6.399 -0.0516 -0.1099 -0.0071
  242MOL0     C33265   3.995   7.631   6.460 -0.5211  0.1805  0.0573
  242MOL0     O33266   4.049   7.748   6.508  0.1044 -0.2480 -0.4231
  242MOL0     C33267   4.153   7.799   6.433  0.1731 -0.8457  0.6076
  242MOL0     C33268   4.214   7.930   6.491  0.5048  0.0654 -0.3161
  242MOL0     C33269   4.320   8.012   6.409 -0.1700  0.8567  0.6215
  242MOL0     C33270   4.322   8.163   6.428 -1.3787 -0.4775  0.0830
  242MOL0     C33271   4.416   8.216   6.311  0.4554  0.6034  0.1244
  242MOL0     C33272   4.492   8.348   6.337  0.0108 -0.6323 -0.1319
  242MOL0     C33273   4.631   8.359   6.255  0.3089 -0.5162  0.8755
  242MOL0     C33274   4.595   8.382   6.102 -0.1412 -0.1941 -0.5765
  242MOL0     N33275   4.715   8.405   6.023  0.5217  0.1736  0.6981
  242MOL0     C33276   4.803   8.322   5.969  0.7288  0.4301 -0.8193
  242MOL0     C33277   4.905   8.401   5.927  0.4028 -0.6480 -0.5805
  242MOL0     C33278   5.030   8.359   5.853  0.6538 -0.0929 -1.0654
  242MOL0     C33279   5.023   8.365   5.697  0.4507  0.3062 -0.5814
  242MOL0     C33280   4.935   8.242   5.662  0.3470 -0.3453  0.0793
  242MOL0     C33281   4.901   8.239   5.515  0.1992 -0.6312  0.4815
  242MOL0     O33282   4.868   8.100   5.483  0.1585 -0.3473  0.3545
  242MOL0     C33283   4.793   8.071   5.365 -0.8990  0.2353 -0.7198
  242MOL0     C33284   4.857   8.062   5.234 -0.7492 -0.7021 -0.1950
  242MOL0     C33285   4.785   8.052   5.118  0.7318  0.1157  0.0357
  242MOL0     C33286   4.865   8.028   4.987  0.1029 -1.2108 -0.4055
  242MOL0     C33287   4.644   8.036   5.126  0.2483 -0.5058  0.1178
  242MOL0     C33288   4.555   8.022   5.000 -1.3423 -0.3198 -0.7848
  242MOL0     O33289   4.610   8.050   4.871 -0.2466 -0.1726 -0.5706
  242MOL0     C33290   4.546   7.993   4.750  0.1914  0.0554  0.4489
  242MOL0     C33291   4.501   7.860   4.757  0.5133 -0.2311 -0.1548
  242MOL0     C33292   4.448   7.806   4.641 -0.2256 -0.1201 -0.4232
  242MOL0     C33293   4.461   7.861   4.509  0.1945 -0.5002 -0.2216
  242MOL0     O33294   4.432   7.807   4.388  0.0892  0.4744  0.3786
  242MOL0     C33295   4.305   7.740   4.373  0.0773 -0.2310 -0.1760
  242MOL0     C33296   4.277   7.677   4.233 -0.0620 -0.6384  0.3182
  242MOL0     C33297   4.303   7.766   4.113 -0.3818  0.2206  0.1362
  242MOL0     C33298   4.282   7.684   3.989  0.2590  0.6694  0.6279
  242MOL0     C33299   4.368   7.741   3.868 -0.0579 -0.8882 -0.6298
  242MOL0     C33300   4.343   7.652   3.754  0.2113 -0.5917  0.0544
  242MOL0     C33301   4.422   7.523   3.755  0.4521 -0.7718  0.6244
  242MOL0     C33302   4.395   7.440   3.628 -0.2296 -0.0378  1.5793
  242MOL0    Cl33303   4.395   7.532   3.476 -0.6485 -0.0849  0.0681
  242MOL0     C33304   4.508   7.999   4.504 -0.3486 -0.1866 -0.7265
  242MOL0     C33305   4.559   8.057   4.627  0.5865 -0.7396  0.9247
  242MOL0     O33306   4.440   7.976   5.015 -0.3913  0.1693 -0.3134
  242MOL0     C33307   4.579   8.034   5.252 -1.3682 -0.8140 -0.2550
  242MOL0     C33308   4.654   8.054   5.367  0.5580 -0.8880 -0.0350
  242MOL0     N33309   4.867   8.530   5.947  0.2601 -0.5402  0.1285
  242MOL0     N33310   4.755   8.537   5.999 -0.2093  0.5212 -0.1831
  242MOL0     C33311   3.857   7.619   6.482 -0.0907  0.9020  0.6868
  242MOL0     C33312   3.779   7.510   6.438  0.4281  0.9269  0.4137
  242MOL0     C33313   3.597   7.163   6.249  0.5413 -0.8572  0.2770
  242MOL0     C33314   3.645   7.045   6.288 -0.1398 -0.2852  0.3241
  242MOL0     C33315   3.576   6.925   6.260 -1.6230  0.3316 -0.2607
  242MOL0     C33316   3.447   6.930   6.211 -0.6179 -0.6272 -0.1692
  242MOL0     O33317   3.400   6.808   6.174 -0.8139 -0.2537 -0.1685
  242MOL0     C33318   3.255   6.801   6.146 -0.0595  0.2097 -0.0338
  242MOL0     C33319   3.227   6.649   6.159  0.3360 -0.0113  0.2027
  242MOL0     C33320   3.075   6.613   6.158 -0.6666  0.0930  0.1680
  242MOL0     C33321   3.054   6.468   6.204  0.0750 -0.3732  0.5851
  242MOL0     C33322   2.920   6.441   6.242  0.7473  0.0363  0.0217
  242MOL0     C33323   2.814   6.411   6.298 -0.8135 -0.5386 -0.1547
  242MOL0     C33324   3.387   7.056   6.192  0.8205 -0.1113 -0.3466
  242MOL0     C33325   3.463   7.170   6.202 -0.1590 -0.3729  0.2884
  242MOL0     C33326   3.389   7.285   6.155 -0.2383 -0.3423 -0.2134
  242MOL0     H33327   4.025   7.329   6.312  1.3512  0.4660 -0.0918
  242MOL0     H33328   4.160   7.526   6.373  0.1297 -2.0133  0.2866
  242MOL0     H33329   4.113   7.818   6.333  1.6644 -1.1431 -0.0757
  242MOL0     H33330   4.233   7.725   6.422 -0.5307 -1.5314  0.0065
  242MOL0     H33331   4.128   7.978   6.538  2.4165  2.0771  1.3001
  242MOL0     H33332   4.258   7.896   6.585  2.3601 -2.5581 -1.9937
  242MOL0     H33333   4.419   7.967   6.419  0.0348  1.4777  1.6573
  242MOL0     H33334   4.283   7.993   6.308 -0.7471  1.1571  0.7717
  242MOL0     H33335   4.222   8.206   6.428 -2.6116 -3.0953 -1.4361
  242MOL0     H33336   4.362   8.183   6.528 -0.3453 -3.4146  0.3677
  242MOL0     H33337   4.350   8.234   6.226 -0.2089  0.0645  0.5077
  242MOL0     H33338   4.487   8.137   6.286  1.6706  1.4795  0.7239
  242MOL0     H33339   4.412   8.422   6.328  0.4644  0.0876  1.4294
  242MOL0     H33340   4.514   8.353   6.444  0.8790  3.1523 -0.3395
  242MOL0     H33341   4.688   8.267   6.266  2.0541  0.4096 -0.0445
  242MOL0     H33342   4.694   8.444   6.282  0.2757  0.0088 -0.6038
  242MOL0     H33343   4.526   8.305   6.067 -0.0192  0.5167 -2.5254
  242MOL0     H33344   4.542   8.477   6.098  1.5386  0.8074 -4.7953
  242MOL0     H33345   4.806   8.216   5.993 -1.0900  0.3698 -0.7292
  242MOL0     H33346   5.070   8.261   5.878  1.7714  0.9148  1.4564
  242MOL0     H33347   5.109   8.425   5.889 -0.9109  0.5477  1.4497
  242MOL0     H33348   4.970   8.456   5.668 -1.9134 -1.2716 -1.4483
  242MOL0     H33349   5.122   8.362   5.650  0.0096 -0.7564 -1.4878
  242MOL0     H33350   4.986   8.151   5.695 -0.2179 -1.1451 -1.1856
  242MOL0     H33351   4.840   8.256   5.714 -0.2607  1.9592 -1.5170
  242MOL0     H33352   4.826   8.308   5.477  1.1798  0.0234 -0.3374
  242MOL0     H33353   4.989   8.268   5.457  0.5265 -0.5648  1.0043
  242MOL0     H33354   4.965   8.072   5.226 -0.6843 -0.0797  1.1517
  242MOL0     H33355   4.843   7.932   4.940  0.1455 -1.6960  0.5472
  242MOL0     H33356   4.966   8.015   5.026  0.2221  0.7277  0.0217
  242MOL0     H33357   4.847   8.100   4.906 -2.0564 -1.4081 -0.1658
  242MOL0     H33358   4.483   7.805   4.849 -1.4741  2.4474  1.2018
  242MOL0     H33359   4.391   7.714   4.634 -0.3550 -0.2122  1.4539
  242MOL0     H33360   4.278   7.660   4.442  1.1010 -0.2957  0.1700
  242MOL0     H33361   4.233   7.822   4.376 -0.8360 -1.0662  1.5427
  242MOL0     H33362   4.342   7.590   4.218  3.8104  2.1040 -0.2329
  242MOL0     H33363   4.174   7.642   4.245  0.1616 -1.0845  0.9901
  242MOL0     H33364   4.407   7.797   4.123 -0.7890  1.6505  0.1966
  242MOL0     H33365   4.227   7.844   4.098 -4.1472 -3.4541 -2.4137
  242MOL0     H33366   4.177   7.697   3.961  0.1911 -1.1757 -0.1026
  242MOL0     H33367   4.306   7.579   4.005  0.1376  0.7153  1.1276
  242MOL0     H33368   4.329   7.838   3.838 -1.2971 -1.4708 -0.9901
  242MOL0     H33369   4.471   7.745   3.903 -0.5826 -2.7595  1.4381
  242MOL0     H33370   4.376   7.710   3.667  0.7153 -0.3892  0.3740
  242MOL0     H33371   4.236   7.632   3.748 -0.0172  0.6061 -0.0219
  242MOL0     H33372   4.402   7.464   3.845  1.0930 -2.3796 -0.2644
  242MOL0     H33373   4.526   7.558   3.752 -0.1907  1.1906 -0.9574
  242MOL0     H33374   4.293   7.403   3.641  0.2708 -1.1016  2.6238
  242MOL0     H33375   4.458   7.351   3.632  0.6067  0.4858  0.4832
  242MOL0     H33376   4.505   8.049   4.408 -3.5789  0.9116 -0.1661
  242MOL0     H33377   4.599   8.157   4.611 -0.5606 -0.5985 -1.4744
  242MOL0     H33378   4.471   8.025   5.255 -1.7066 -3.2047 -6.4468
  242MOL0     H33379   4.610   8.059   5.466  3.5097 -1.0691  1.4101
  242MOL0     H33380   3.800   7.693   6.537 -2.7521 -1.7996  1.8923
  242MOL0     H33381   3.672   7.526   6.451  0.6236  0.9891  2.3074
  242MOL0     H33382   3.727   7.042   6.359 -0.9838  0.0022  1.3438
  242MOL0     H33383   3.633   6.836   6.287  3.1455  3.7013  2.0860
  242MOL0     H33384   3.196   6.859   6.218  0.0831 -2.0023  1.9862
  242MOL0     H33385   3.235   6.837   6.045 -1.2255  1.1421  0.5057
  242MOL0     H33386   3.259   6.624   6.261  0.4510 -2.8221 -0.4499
  242MOL0     H33387   3.279   6.591   6.083 -1.0002 -0.6809 -0.2265
  242MOL0     H33388   3.023   6.676   6.230 -0.3068  0.4286  0.1405
  242MOL0     H33389   3.036   6.607   6.055  1.5019 -1.1057 -0.6582
  242MOL0     H33390   3.122   6.443   6.286  3.1988  1.0780 -1.3467
  242MOL0     H33391   3.094   6.414   6.117 -0.3798 -0.9842  0.7525
  242MOL0     H33392   2.721   6.401   6.350 -0.9351 -2.2065 -0.6284
  242MOL0     H33393   3.283   7.046   6.165  0.9979  1.1752 -1.5924
  242MOL0     H33394   3.296   7.272   6.099 -2.0194  3.9777  1.2599
  242MOL0     H33395   3.355   7.341   6.243  3.3703  0.7862  0.6257
  242MOL0     H33396   3.446   7.347   6.085  3.0847 -1.8889  0.9229
  243MOL0     O33397   6.424  10.625   3.388  0.3527 -0.1540  0.2456
  243MOL0     C33398   6.551  10.634   3.367 -0.1479 -0.3566 -0.2266
  243MOL0     O33399   6.655  10.672   3.446  0.0464 -0.3615  0.3741
  243MOL0     C33400   6.635  10.708   3.570 -0.0120 -0.1229 -0.5497
  243MOL0     C33401   6.735  10.700   3.664  0.6157 -0.2545  0.4165
  243MOL0     C33402   6.722  10.741   3.797 -0.6251 -0.7659  0.9973
  243MOL0     C33403   6.614  10.827   3.823 -0.5831  1.2066 -0.2198
  243MOL0     O33404   6.610  10.890   3.951  0.0223 -0.1653  0.1435
  243MOL0     C33405   6.722  10.891   4.037  0.3905 -0.5812  0.3241
  243MOL0     C33406   6.692  10.965   4.166 -0.0308 -0.2343 -0.2646
  243MOL0     C33407   6.813  10.965   4.264 -0.2519 -0.0722 -0.0968
  243MOL0     C33408   6.776  11.065   4.372 -0.2278  0.4823 -0.5447
  243MOL0     C33409   6.873  11.065   4.494  0.1665 -0.1950  1.0462
  243MOL0     C33410   7.006  11.132   4.451 -0.6961 -0.8939  0.5975
  243MOL0     C33411   7.121  11.129   4.549  0.0255 -1.0508 -1.0059
  243MOL0     C33412   7.084  11.156   4.701 -0.0058  0.9858 -0.2881
  243MOL0     N33413   7.024  11.286   4.743  0.4268  0.2383 -0.5986
  243MOL0     C33414   7.066  11.414   4.734 -0.2022  0.2481 -0.3261
  243MOL0     C33415   6.979  11.485   4.807  0.1108 -0.5216  0.7029
  243MOL0     C33416   6.990  11.635   4.821 -0.2590  0.0602 -0.0244
  243MOL0     C33417   6.890  11.713   4.737 -0.1453 -0.7836 -0.1908
  243MOL0     C33418   6.869  11.856   4.789 -0.1014  0.2815 -0.3104
  243MOL0     C33419   6.760  11.865   4.888  1.0807 -0.1092 -0.0932
  243MOL0     O33420   6.730  12.005   4.915 -0.1429  1.0075  0.0326
  243MOL0     C33421   6.641  12.075   4.842  0.4673 -0.1073 -1.3258
  243MOL0     C33422   6.615  12.206   4.878  0.1222 -0.3879 -0.3737
  243MOL0     C33423   6.520  12.281   4.818  0.3205 -0.6318  0.6459
  243MOL0     C33424   6.506  12.414   4.895 -0.6837  0.1455  0.4204
  243MOL0     C33425   6.450  12.237   4.704  0.4084 -0.8415  0.3731
  243MOL0     C33426   6.354  12.312   4.616  0.4270  0.4599 -0.7468
  243MOL0     O33427   6.312  12.438   4.655 -0.3502  0.0386  0.2924
  243MOL0     C33428   6.190  12.484   4.617 -0.4381 -0.2805  0.4192
  243MOL0     C33429   6.180  12.576   4.509 -0.8397 -0.5312 -0.4059
  243MOL0     C33430   6.055  12.633   4.470 -0.1075  0.9896 -0.1965
  243MOL0     C33431   5.940  12.597   4.541  0.8307 -0.3459 -0.4768
  243MOL0     O33432   5.815  12.657   4.529  0.1347  0.8614  0.1342
  243MOL0     C33433   5.794  12.728   4.399  0.6884  1.0275 -1.3827
  243MOL0     C33434   5.698  12.853   4.422  0.3650 -0.8504  0.3495
  243MOL0     C33435   5.755  12.954   4.522 -0.2123  0.3014 -0.3512
  243MOL0     C33436   5.874  13.032   4.461 -0.7115 -0.4736  0.3927
  243MOL0     C33437   5.925  13.153   4.546  1.0368  0.9107 -0.2456
  243MOL0     C33438   6.007  13.103   4.666 -0.1589  0.4479 -0.3296
  243MOL0     C33439   6.080  13.206   4.754 -0.6929 -0.8627 -0.4999
  243MOL0     C33440   5.983  13.312   4.798 -0.3183  0.3121 -0.3756
  243MOL0    Cl33441   5.885  13.251   4.928  0.0578 -0.1146 -0.4816
  243MOL0     C33442   5.960  12.510   4.648 -0.0641  0.0644  0.3366
  243MOL0     C33443   6.081  12.456   4.686  0.1957 -1.3224  0.3642
  243MOL0     O33444   6.312  12.260   4.509 -1.1036 -0.9974 -0.2687
  243MOL0     C33445   6.480  12.102   4.669 -1.3696  0.6624 -0.5893
  243MOL0     C33446   6.577  12.022   4.740 -0.9353  0.2511 -0.2600
  243MOL0     N33447   6.886  11.404   4.870 -0.1462 -0.2075  0.0508
  243MOL0     N33448   6.917  11.283   4.830 -0.0111  0.2442  0.3043
  243MOL0     C33449   6.504  10.825   3.740 -0.5550  0.7699  0.2694
  243MOL0     C33450   6.514  10.771   3.609  0.5213  0.9477 -1.4295
  243MOL0     C33451   6.593  10.590   3.238  0.9759  0.1461  0.7235
  243MOL0     C33452   6.547  10.674   3.127 -0.7721  1.1608 -0.0807
  243MOL0     C33453   6.596  10.645   2.997 -0.2765  0.1265  0.7850
  243MOL0     C33454   6.683  10.540   2.977  0.5162  0.7704  0.6633
  243MOL0     O33455   6.724  10.508   2.844  0.9102  0.6739 -0.2028
  243MOL0     C33456   6.844  10.579   2.826 -0.3979  1.0236  0.0825
  243MOL0     C33457   6.867  10.607   2.673  0.1785  0.2899 -0.4443
  243MOL0     C33458   6.990  10.686   2.654  0.7631 -0.0182 -1.4118
  243MOL0     C33459   7.019  10.704   2.501  0.7843  0.4856  0.1471
  243MOL0     C33460   7.129  10.791   2.463 -0.7606 -0.4203  0.4243
  243MOL0     C33461   7.234  10.863   2.439  0.2220  0.4857 -0.8235
  243MOL0     C33462   6.711  10.449   3.084 -0.0382  0.4835 -0.1028
  243MOL0     C33463   6.674  10.478   3.216  0.1067 -0.2299  0.8219
  243MOL0     C33464   6.719  10.387   3.327  0.5020  0.0705  0.4867
  243MOL0     H33465   6.831  10.657   3.638 -0.1210 -2.1060  0.6255
  243MOL0     H33466   6.795  10.716   3.873 -1.9808 -2.5399  1.7622
  243MOL0     H33467   6.805  10.924   3.975 -0.6502 -0.7005 -1.1732
  243MOL0     H33468   6.752  10.788   4.063  2.8565  0.8422  3.9827
  243MOL0     H33469   6.672  11.066   4.130  0.9267 -1.4695 -5.0201
  243MOL0     H33470   6.598  10.923   4.205 -0.0307 -2.2305 -2.2021
  243MOL0     H33471   6.836  10.864   4.298 -2.0522  0.7812  4.4254
  243MOL0     H33472   6.902  10.991   4.207  1.7337 -3.4323  1.1882
  243MOL0     H33473   6.780  11.168   4.336  3.0677  1.7600  2.8178
  243MOL0     H33474   6.677  11.048   4.415  0.3475  0.8215  0.9787
  243MOL0     H33475   6.897  10.963   4.526  3.0065  0.6593  1.9878
  243MOL0     H33476   6.826  11.119   4.575 -2.1414 -0.6753  0.1025
  243MOL0     H33477   7.059  11.079   4.372 -0.5290 -0.6587  0.5505
  243MOL0     H33478   6.989  11.235   4.418  1.9599 -0.0393  1.6729
  243MOL0     H33479   7.193  11.207   4.521 -1.5807  1.8496  2.1363
  243MOL0     H33480   7.169  11.032   4.538 -3.0755 -2.6584 -1.5770
  243MOL0     H33481   7.019  11.076   4.738  1.5251  0.3351  1.1034
  243MOL0     H33482   7.177  11.139   4.757 -0.9756 -1.2644  0.7462
  243MOL0     H33483   7.147  11.444   4.670 -0.5035 -0.7598 -1.2087
  243MOL0     H33484   7.095  11.666   4.814  0.8743 -0.9529  6.2966
  243MOL0     H33485   6.969  11.656   4.927  0.0976 -1.1492  0.2983
  243MOL0     H33486   6.936  11.716   4.638  0.5534  0.0658  0.1381
  243MOL0     H33487   6.794  11.662   4.733 -1.4624  1.3067  2.0576
  243MOL0     H33488   6.962  11.892   4.836 -0.9562 -0.8221  2.3879
  243MOL0     H33489   6.849  11.925   4.707  2.3061 -0.4995 -1.6840
  243MOL0     H33490   6.669  11.810   4.860 -0.3431  1.3295  1.4658
  243MOL0     H33491   6.793  11.820   4.983  0.6542 -0.8377 -0.2779
  243MOL0     H33492   6.672  12.244   4.962  1.4222 -1.5598 -0.6846
  243MOL0     H33493   6.406  12.458   4.906  0.6030  2.9806  2.0599
  243MOL0     H33494   6.569  12.492   4.852 -2.1412  0.9205 -0.4032
  243MOL0     H33495   6.531  12.392   5.000 -1.1857 -0.4938  0.4145
  243MOL0     H33496   6.267  12.594   4.447 -1.9968  1.3509 -1.5722
  243MOL0     H33497   6.069  12.704   4.389  0.1075  3.0611  1.5464
  243MOL0     H33498   5.889  12.769   4.362  0.3171  1.5630 -1.7483
  243MOL0     H33499   5.764  12.650   4.329 -1.0631 -0.9234  1.3441
  243MOL0     H33500   5.678  12.889   4.321  0.2664 -0.2068  0.5885
  243MOL0     H33501   5.598  12.826   4.458  1.3235 -0.7636  3.3477
  243MOL0     H33502   5.797  12.895   4.604  2.3844  1.2554 -0.8922
  243MOL0     H33503   5.666  13.015   4.538  0.3684  1.0302  0.1547
  243MOL0     H33504   5.824  13.075   4.374 -0.4783 -1.0927 -0.0490
  243MOL0     H33505   5.956  12.971   4.423  1.5259  1.9056  1.0770
  243MOL0     H33506   5.991  13.217   4.487  1.0849 -0.7210 -2.0614
  243MOL0     H33507   5.834  13.206   4.575 -0.1041 -0.9709 -0.1702
  243MOL0     H33508   6.084  13.031   4.636 -2.4648 -2.1247 -0.4852
  243MOL0     H33509   5.951  13.045   4.740 -0.7304 -0.2878 -1.3233
  243MOL0     H33510   6.160  13.249   4.692  1.1070 -0.6438  1.8277
  243MOL0     H33511   6.120  13.155   4.842 -1.2329  0.9317  0.8241
  243MOL0     H33512   5.921  13.363   4.723  0.5866  1.7710 -0.1688
  243MOL0     H33513   6.029  13.395   4.852  2.6466 -0.8820 -0.9076
  243MOL0     H33514   5.872  12.514   4.712  0.5772  2.5965  1.1435
  243MOL0     H33515   6.088  12.413   4.785 -1.0697  3.9320  3.0831
  243MOL0     H33516   6.422  12.062   4.587  0.4647 -1.3470 -0.9645
  243MOL0     H33517   6.606  11.923   4.705  2.5792 -0.2601  3.3954
  243MOL0     H33518   6.409  10.873   3.759 -1.7163 -2.1713  2.8727
  243MOL0     H33519   6.428  10.790   3.546 -1.9829  0.3298  1.5996
  243MOL0     H33520   6.482  10.760   3.142  1.0594  2.4974  0.5419
  243MOL0     H33521   6.589  10.716   2.916  0.9654 -0.1815  0.3773
  243MOL0     H33522   6.842  10.672   2.883 -2.5430  1.3434 -0.4449
  243MOL0     H33523   6.928  10.516   2.857 -2.6273 -1.8777  0.5908
  243MOL0     H33524   6.785  10.670   2.639  0.7779  1.1676 -0.3181
  243MOL0     H33525   6.855  10.512   2.619 -3.2400  0.1862  0.3338
  243MOL0     H33526   6.981  10.784   2.702  4.2622 -1.5009  2.9930
  243MOL0     H33527   7.078  10.636   2.697 -1.7290 -3.0776  0.5387
  243MOL0     H33528   6.926  10.749   2.464 -0.8797 -3.0291 -0.3674
  243MOL0     H33529   7.042  10.607   2.456  2.2887  1.0687 -0.4058
  243MOL0     H33530   7.320  10.919   2.408  0.5985 -1.3558 -3.4231
  243MOL0     H33531   6.776  10.370   3.048 -2.3120 -1.7684  0.4383
  243MOL0     H33532   6.828  10.393   3.332  0.4519 -0.1542  2.5101
  243MOL0     H33533   6.687  10.417   3.427 -0.5448 -3.8387  1.5224
  243MOL0     H33534   6.685  10.287   3.297  3.3624 -0.7080 -0.4912
  244MOL0     O33535  10.071   5.487   1.221  0.4009  0.5222  0.3296
  244MOL0     C33536  10.070   5.584   1.146 -1.0753 -0.5386 -0.3671
  244MOL0     O33537  10.185   5.661   1.118  0.6465  0.7972  0.2563
  244MOL0     C33538  10.292   5.655   1.195  0.0714 -0.1450  0.5930
  244MOL0     C33539  10.296   5.653   1.336 -0.0860 -0.3276 -0.5589
  244MOL0     C33540  10.419   5.627   1.398  0.8509 -0.6997 -0.7731
  244MOL0     C33541  10.546   5.631   1.335 -0.1573 -0.0154 -0.4147
  244MOL0     O33542  10.667   5.610   1.397  0.0159 -0.2635  0.1375
  244MOL0     C33543  10.765   5.724   1.375 -0.0588 -0.3807 -0.5024
  244MOL0     C33544  10.857   5.739   1.497 -0.5393  0.3945 -0.0912
  244MOL0     C33545  10.968   5.842   1.473 -0.2524 -0.0844  0.5511
  244MOL0     C33546  11.096   5.776   1.424 -0.3904 -0.0395  0.4885
  244MOL0     C33547  11.209   5.870   1.372  0.5636 -0.0245 -0.2779
  244MOL0     C33548  11.262   5.953   1.479 -0.4740 -0.5172 -0.6602
  244MOL0     C33549  11.389   6.028   1.440 -0.8361  0.8925 -0.8934
  244MOL0     C33550  11.447   6.110   1.552 -0.4538 -0.8810 -0.3065
  244MOL0     N33551  11.355   6.187   1.632  0.3125 -0.8053 -0.0274
  244MOL0     C33552  11.331   6.160   1.762  0.7833  0.1039 -0.2145
  244MOL0     C33553  11.236   6.247   1.795  0.2011  0.7542 -0.9139
  244MOL0     C33554  11.157   6.270   1.924 -0.4545 -0.1770 -0.0957
  244MOL0     C33555  11.148   6.135   1.985  0.8353 -0.3310 -0.1462
  244MOL0     C33556  11.069   6.154   2.113  0.5902  0.3185 -0.5196
  244MOL0     C33557  11.011   6.013   2.146  0.6864  0.2040 -0.7712
  244MOL0     O33558  10.914   6.019   2.253 -0.0112  0.0877  0.0980
  244MOL0     C33559  10.858   5.898   2.288 -0.1080 -0.2609 -0.4278
  244MOL0     C33560  10.824   5.893   2.426 -1.1315  0.1085  0.8284
  244MOL0     C33561  10.765   5.779   2.486  0.3556  0.4818  0.4298
  244MOL0     C33562  10.732   5.778   2.635  0.2401  1.0240 -0.2265
  244MOL0     C33563  10.733   5.671   2.392 -0.2608  0.4833 -0.5905
  244MOL0     C33564  10.673   5.543   2.448  0.4701 -0.4578 -0.4916
  244MOL0     O33565  10.662   5.444   2.353  0.0702 -0.5150 -0.9172
  244MOL0     C33566  10.566   5.352   2.378  0.7517  0.2485  0.2934
  244MOL0     C33567  10.600   5.236   2.447  0.3352  0.1831 -0.1509
  244MOL0     C33568  10.507   5.141   2.472  0.2476  0.0066 -0.4520
  244MOL0     C33569  10.377   5.159   2.427  0.2112 -0.2443 -0.1244
  244MOL0     O33570  10.285   5.054   2.432 -0.5222 -0.2947 -0.3195
  244MOL0     C33571  10.323   4.919   2.416 -0.6984  0.3082  0.2273
  244MOL0     C33572  10.199   4.829   2.417 -0.1595  0.3675 -0.1128
  244MOL0     C33573  10.105   4.849   2.539 -0.4415 -0.9518  0.0964
  244MOL0     C33574  10.010   4.739   2.581  0.6187 -0.6096 -0.9932
  244MOL0     C33575   9.973   4.769   2.725 -0.1769  1.2542 -0.3156
  244MOL0     C33576   9.849   4.684   2.770  0.2919  0.1719 -0.5573
  244MOL0     C33577   9.821   4.701   2.922  1.2646  0.8429  0.9517
  244MOL0     C33578   9.691   4.767   2.950  0.8305  1.0933 -0.8474
  244MOL0    Cl33579   9.549   4.670   2.905 -0.0453 -0.0896  0.0752
  244MOL0     C33580  10.344   5.276   2.356  0.1022 -0.2477  0.2935
  244MOL0     C33581  10.439   5.378   2.330 -0.7780  0.3196 -0.4460
  244MOL0     O33582  10.643   5.530   2.567  0.4905  0.6178  0.9285
  244MOL0     C33583  10.767   5.679   2.255  0.8092  0.3838  0.4493
  244MOL0     C33584  10.824   5.796   2.194  1.0501 -0.0257 -0.5747
  244MOL0     N33585  11.216   6.324   1.689  0.1731  0.5028  0.8604
  244MOL0     N33586  11.286   6.285   1.585  0.0835 -0.7789 -0.2649
  244MOL0     C33587  10.544   5.649   1.197  0.6650  0.3720  0.3526
  244MOL0     C33588  10.418   5.654   1.132 -0.3915  0.0138  0.4561
  244MOL0     C33589   9.942   5.618   1.085 -0.4240 -0.0734 -1.6109
  244MOL0     C33590   9.946   5.690   0.968 -0.4241 -0.8987  0.3505
  244MOL0     C33591   9.834   5.732   0.894  0.6452  0.6482 -0.8649
  244MOL0     C33592   9.711   5.703   0.951  0.4348 -0.2304  1.0929
  244MOL0     O33593   9.602   5.748   0.879  0.1657  0.1689  0.5248
  244MOL0     C33594   9.485   5.684   0.908 -0.0882 -0.0895 -0.1537
  244MOL0     C33595   9.494   5.531   0.859  0.2565  1.0030  0.0262
  244MOL0     C33596   9.550   5.534   0.713  0.2921 -1.0450 -0.7495
  244MOL0     C33597   9.533   5.407   0.640  0.4754 -0.9344  0.7039
  244MOL0     C33598   9.554   5.416   0.490  0.3725 -0.4202  0.0354
  244MOL0     C33599   9.580   5.418   0.372 -0.4810 -0.1534 -0.4312
  244MOL0     C33600   9.704   5.625   1.066 -0.0665  0.5807 -0.8504
  244MOL0     C33601   9.818   5.584   1.143 -0.8556 -0.6452  0.4199
  244MOL0     C33602   9.799   5.519   1.278 -0.0594 -1.0445 -0.0527
  244MOL0     H33603  10.203   5.643   1.392  0.8227  0.8036  1.2404
  244MOL0     H33604  10.414   5.611   1.505 -1.8244  1.9293 -0.3507
  244MOL0     H33605  10.702   5.813   1.374 -4.1087 -2.9677  0.4932
  244MOL0     H33606  10.842   5.707   1.299  3.0069  1.6511  1.8659
  244MOL0     H33607  10.801   5.771   1.585  3.7578  2.8868  2.0935
  244MOL0     H33608  10.886   5.636   1.516 -0.2358  0.7364  1.4271
  244MOL0     H33609  10.924   5.915   1.404  1.2129 -2.0347 -2.6688
  244MOL0     H33610  10.992   5.890   1.568 -0.8001 -1.4182  1.3877
  244MOL0     H33611  11.133   5.727   1.515 -1.4798 -2.4160 -0.2580
  244MOL0     H33612  11.078   5.703   1.344  1.5199  1.0955 -1.0676
  244MOL0     H33613  11.174   5.919   1.281  1.0102 -4.7735 -3.3620
  244MOL0     H33614  11.294   5.807   1.343  0.7015  0.0256  0.0112
  244MOL0     H33615  11.193   6.029   1.515  2.1169  1.8849 -0.3894
  244MOL0     H33616  11.286   5.899   1.572  2.0019 -0.2299 -1.0593
  244MOL0     H33617  11.371   6.095   1.356 -1.1685 -0.5174 -1.9971
  244MOL0     H33618  11.469   5.959   1.411 -0.1347  0.4232  1.8451
  244MOL0     H33619  11.515   6.045   1.608  1.1208 -1.7475 -3.0195
  244MOL0     H33620  11.510   6.189   1.509 -0.8908 -0.5972 -0.4262
  244MOL0     H33621  11.374   6.089   1.831 -2.0129 -1.3973  0.1220
  244MOL0     H33622  11.057   6.310   1.904 -0.2654  2.0453  2.8191
  244MOL0     H33623  11.211   6.343   1.984 -0.7925  0.9317 -1.0863
  244MOL0     H33624  11.103   6.059   1.919  0.1915 -0.2608  0.2075
  244MOL0     H33625  11.246   6.092   2.008  0.2724 -2.1642 -0.8952
  244MOL0     H33626  11.137   6.181   2.194 -1.3228  1.1441  0.8590
  244MOL0     H33627  10.985   6.224   2.112 -1.8114 -2.3021  1.9178
  244MOL0     H33628  10.960   5.977   2.055 -2.0537  1.5446  0.1203
  244MOL0     H33629  11.091   5.951   2.187 -1.7728  0.5412  5.7156
  244MOL0     H33630  10.857   5.981   2.481 -1.3606 -0.2591  1.5530
  244MOL0     H33631  10.626   5.756   2.651  0.3334  1.4990  1.2616
  244MOL0     H33632  10.762   5.868   2.691 -1.6602  0.7405  1.3744
  244MOL0     H33633  10.792   5.700   2.682 -0.7212  1.7093  2.3211
  244MOL0     H33634  10.693   5.223   2.502  0.3824 -0.0544 -0.2876
  244MOL0     H33635  10.540   5.055   2.530  0.4597 -0.4822 -1.2808
  244MOL0     H33636  10.375   4.914   2.320  0.5483 -0.2864  0.9151
  244MOL0     H33637  10.388   4.887   2.498  0.3864  3.0080  0.5194
  244MOL0     H33638  10.152   4.853   2.321  3.6089 -0.1871 -2.2895
  244MOL0     H33639  10.224   4.722   2.418 -2.8166 -0.5081  5.2051
  244MOL0     H33640  10.048   4.941   2.522  1.2367  0.5044  1.9400
  244MOL0     H33641  10.176   4.867   2.620 -0.8118  0.8021  0.0611
  244MOL0     H33642  10.051   4.638   2.568 -0.3213 -1.0439 -0.6906
  244MOL0     H33643   9.921   4.750   2.518  0.1346  2.2454  0.0295
  244MOL0     H33644  10.057   4.732   2.785 -0.7032 -0.0760 -0.3608
  244MOL0     H33645   9.960   4.876   2.738 -2.3682  0.9442  0.3823
  244MOL0     H33646   9.866   4.580   2.739 -1.5279 -0.4864  0.5065
  244MOL0     H33647   9.761   4.724   2.718  0.4067  1.5957  0.2931
  244MOL0     H33648   9.897   4.753   2.981  0.3362  4.1995 -0.5675
  244MOL0     H33649   9.808   4.602   2.965 -1.3648  1.0291  0.7699
  244MOL0     H33650   9.687   4.865   2.902  0.9535  2.4448  1.7368
  244MOL0     H33651   9.687   4.783   3.058 -0.3885 -2.5885 -0.1917
  244MOL0     H33652  10.245   5.300   2.317  0.5952  0.8196 -0.3647
  244MOL0     H33653  10.413   5.448   2.252 -0.5365 -0.0971 -0.9020
  244MOL0     H33654  10.738   5.607   2.180  0.8401  0.1861  0.6260
  244MOL0     H33655  10.836   5.802   2.087 -0.4301 -1.6361 -0.8644
  244MOL0     H33656  10.640   5.653   1.146  1.1666  0.3539  1.2732
  244MOL0     H33657  10.412   5.666   1.024  0.3129 -1.0352  0.2900
  244MOL0     H33658  10.040   5.713   0.919  0.7888  0.1943  3.0248
  244MOL0     H33659   9.841   5.782   0.797  0.7917  1.5259 -0.4131
  244MOL0     H33660   9.457   5.690   1.013 -0.4827 -0.6888 -0.2165
  244MOL0     H33661   9.407   5.726   0.843 -0.2206 -0.2901 -0.1256
  244MOL0     H33662   9.390   5.496   0.858  0.9128 -1.0700 -0.6979
  244MOL0     H33663   9.559   5.478   0.929 -0.4345  1.6402  1.1761
  244MOL0     H33664   9.495   5.614   0.662 -0.9146 -0.8030  0.8638
  244MOL0     H33665   9.657   5.559   0.708  0.1161 -0.5748 -3.6112
  244MOL0     H33666   9.432   5.373   0.665  0.4938 -0.1186  1.9667
  244MOL0     H33667   9.603   5.332   0.678  0.7868 -1.0266 -0.0182
  244MOL0     H33668   9.585   5.412   0.265  2.5304 -1.1065 -0.3305
  244MOL0     H33669   9.615   5.611   1.126  2.0511  0.9947  2.6080
  244MOL0     H33670   9.796   5.410   1.270 -0.6953 -0.9017 -2.5297
  244MOL0     H33671   9.879   5.549   1.346 -0.1164 -3.3775  1.1399
  244MOL0     H33672   9.706   5.558   1.321  0.5067  0.9025 -0.4869
  245MOL0     O33673   8.097   9.326  10.491  0.3837  0.1169 -0.7774
  245MOL0     C33674   7.998   9.328  10.418 -0.4675 -0.2455  0.8833
  245MOL0     O33675   7.963   9.233  10.327  0.0683  0.1525 -0.7605
  245MOL0     C33676   8.039   9.121  10.290 -0.1788 -0.6252  0.1413
  245MOL0     C33677   7.985   9.050  10.182 -0.9107  1.4365 -0.6319
  245MOL0     C33678   8.041   8.943  10.128  0.4839 -0.0159 -0.4357
  245MOL0     C33679   8.166   8.901  10.185  0.9469  0.5814 -0.7609
  245MOL0     O33680   8.235   8.791  10.144 -0.6830  0.6489  0.0460
  245MOL0     C33681   8.167   8.706  10.053  0.1363 -0.4565 -1.2320
  245MOL0     C33682   8.244   8.576  10.042  0.3086  0.0222 -0.5779
  245MOL0     C33683   8.248   8.494  10.171 -0.1520 -0.0046  0.4533
  245MOL0     C33684   8.341   8.537  10.277 -0.9699 -0.4573  0.1860
  245MOL0     C33685   8.338   8.452  10.405  0.0565 -0.7741 -0.0899
  245MOL0     C33686   8.411   8.524  10.520 -0.9222 -0.6232  0.2144
  245MOL0     C33687   8.569   8.545  10.478 -0.9379 -0.4719 -0.0280
  245MOL0     C33688   8.639   8.659  10.563 -0.4454  1.1635 -0.3694
  245MOL0     N33689   8.631   8.641  10.712 -0.2702  0.7632  0.3594
  245MOL0     C33690   8.643   8.523  10.784  0.0790 -0.0872 -0.1379
  245MOL0     C33691   8.599   8.563  10.909  0.7328  1.0118  0.0667
  245MOL0     C33692   8.603   8.474  11.031 -0.0278 -0.5777  0.4068
  245MOL0     C33693   8.614   8.563  11.152 -0.1357 -0.1129 -1.2215
  245MOL0     C33694   8.609   8.503  11.287 -0.4325 -0.3356  0.4204
  245MOL0     C33695   8.641   8.608  11.392 -0.4689  0.7478 -0.1416
  245MOL0     O33696   8.667   8.558  11.522 -0.0692  0.8764 -0.0389
  245MOL0     C33697   8.566   8.599  11.601 -0.5746 -0.3592  0.4171
  245MOL0     C33698   8.433   8.544  11.608  0.0898  0.6878 -0.5122
  245MOL0     C33699   8.347   8.585  11.709  0.5922  0.4651 -0.3402
  245MOL0     C33700   8.221   8.500  11.712 -0.7844 -0.4059  0.8987
  245MOL0     C33701   8.388   8.667  11.818  1.5439 -0.4968 -0.0495
  245MOL0     C33702   8.312   8.696  11.937  1.0677 -0.2915 -0.7731
  245MOL0     O33703   8.219   8.787  11.922 -0.1352 -0.9964 -0.0379
  245MOL0     C33704   8.119   8.804  12.017 -0.0288 -0.3647  0.3151
  245MOL0     C33705   8.039   8.703  12.071  0.4075  0.2247 -0.3243
  245MOL0     C33706   7.932   8.743  12.161 -1.9748  0.1847  0.4345
  245MOL0     C33707   7.913   8.883  12.191  0.0920 -0.1090  0.6897
  245MOL0     O33708   7.811   8.914  12.276 -0.6111 -0.5930  0.6620
  245MOL0     C33709   7.756   9.052  12.267 -0.0614  0.3357  0.8192
  245MOL0     C33710   7.639   9.064  12.353  0.2196  0.4933  0.4212
  245MOL0     C33711   7.526   8.980  12.299  0.1808 -0.9511  0.1684
  245MOL0     C33712   7.404   8.986  12.390  0.6267 -0.5143  0.2716
  245MOL0     C33713   7.281   8.929  12.309  0.3994 -0.1150  0.0191
  245MOL0     C33714   7.158   8.927  12.402 -0.1807  0.3803  0.4527
  245MOL0     C33715   7.028   8.874  12.329  0.0444  0.3285 -0.2929
  245MOL0     C33716   6.913   8.919  12.409 -0.2900 -0.6417 -1.4798
  245MOL0    Cl33717   6.883   9.092  12.366 -0.3444 -0.6500  0.0795
  245MOL0     C33718   8.004   8.978  12.137 -0.1441  0.5193  0.6959
  245MOL0     C33719   8.115   8.935  12.061  1.0650 -0.7199  0.1208
  245MOL0     O33720   8.333   8.630  12.030 -0.5893 -0.1745 -0.1683
  245MOL0     C33721   8.514   8.726  11.800  0.1161 -0.3396 -0.4337
  245MOL0     C33722   8.599   8.692  11.701  0.3329  1.3995  0.7343
  245MOL0     N33723   8.539   8.696  10.899  0.3262  0.3289  0.6050
  245MOL0     N33724   8.560   8.731  10.778  0.2637  0.4644 -0.5203
  245MOL0     C33725   8.215   8.967  10.289  0.7635  0.3573  0.1415
  245MOL0     C33726   8.154   9.072  10.343 -0.0848 -0.3429 -0.1074
  245MOL0     C33727   7.926   9.458  10.426 -0.2762  0.1693  0.2589
  245MOL0     C33728   7.943   9.537  10.545  0.4031  0.1375  1.2658
  245MOL0     C33729   7.887   9.659  10.558  0.0590 -0.0075  0.6505
  245MOL0     C33730   7.817   9.723  10.456  0.0648 -0.3810 -0.2234
  245MOL0     O33731   7.763   9.851  10.484 -0.4624 -0.0353 -0.6071
  245MOL0     C33732   7.689   9.919  10.387  0.3593  0.0477 -0.2319
  245MOL0     C33733   7.682  10.069  10.425  0.7113 -0.3360 -0.3724
  245MOL0     C33734   7.634  10.090  10.569 -0.3252 -0.7196  0.7729
  245MOL0     C33735   7.482  10.060  10.582  0.3668 -0.4153 -0.2433
  245MOL0     C33736   7.432  10.053  10.719 -0.7055  0.5204  0.2493
  245MOL0     C33737   7.399  10.034  10.831  0.0095 -0.1779  1.1827
  245MOL0     C33738   7.782   9.640  10.355  0.1904 -0.2955  0.5060
  245MOL0     C33739   7.829   9.502  10.338  0.8390  0.0569  0.7845
  245MOL0     C33740   7.787   9.416  10.224  0.1074 -0.7576  0.3777
  245MOL0     H33741   7.900   9.104  10.141 -1.9518  1.2884  1.2105
  245MOL0     H33742   7.996   8.907  10.036  1.4889  0.5003 -1.1507
  245MOL0     H33743   8.161   8.753   9.954  1.7399  2.5927  0.0123
  245MOL0     H33744   8.072   8.683  10.102  1.0946  0.0114  0.9597
  245MOL0     H33745   8.182   8.514   9.976  0.5184  0.0492 -0.7982
  245MOL0     H33746   8.342   8.593   9.999 -0.7681  1.4886 -2.5756
  245MOL0     H33747   8.150   8.501  10.218  0.1068 -0.3648  1.0556
  245MOL0     H33748   8.277   8.391  10.148  6.4082  1.8558 -1.6876
  245MOL0     H33749   8.444   8.532  10.239 -1.5005  3.7789 -2.4481
  245MOL0     H33750   8.313   8.638  10.306  0.9917  0.2893 -0.3939
  245MOL0     H33751   8.380   8.354  10.378  2.8327  0.6733 -1.4080
  245MOL0     H33752   8.237   8.443  10.446  0.8789  0.7501  2.4752
  245MOL0     H33753   8.374   8.625  10.541  2.4607  1.0988 -1.2948
  245MOL0     H33754   8.404   8.476  10.618  0.3116 -1.7434 -0.2044
  245MOL0     H33755   8.582   8.580  10.376  0.8512 -2.3089 -0.4932
  245MOL0     H33756   8.623   8.450  10.474 -0.1731 -0.0679 -4.5161
  245MOL0     H33757   8.745   8.653  10.536 -0.8179  1.2169 -1.9404
  245MOL0     H33758   8.608   8.761  10.539 -0.7467  2.2981  4.1079
  245MOL0     H33759   8.681   8.432  10.738 -1.0777 -0.6473 -0.0056
  245MOL0     H33760   8.685   8.404  11.013  1.7682  1.5057  0.1305
  245MOL0     H33761   8.513   8.414  11.044 -0.4926 -0.0807 -0.4496
  245MOL0     H33762   8.711   8.614  11.145 -0.1500  0.1797  0.3606
  245MOL0     H33763   8.535   8.637  11.138 -0.2850 -0.4054 -1.9641
  245MOL0     H33764   8.507   8.461  11.290 -1.2911  1.2368 -2.5489
  245MOL0     H33765   8.683   8.424  11.299  1.3841  1.2991  0.3888
  245MOL0     H33766   8.745   8.634  11.372 -0.4973  0.2661 -0.9885
  245MOL0     H33767   8.573   8.693  11.396 -1.6321 -0.0780 -1.3214
  245MOL0     H33768   8.395   8.480  11.528 -0.2526 -0.5840  0.6341
  245MOL0     H33769   8.215   8.429  11.629  0.2311 -2.2792  2.3387
  245MOL0     H33770   8.133   8.565  11.718 -0.4428  0.5587 -2.3404
  245MOL0     H33771   8.227   8.438  11.802  0.8233 -0.2889  0.9096
  245MOL0     H33772   8.063   8.600  12.046  0.8969 -1.0072  4.3679
  245MOL0     H33773   7.878   8.669  12.218 -0.9928 -0.1876  0.9073
  245MOL0     H33774   7.829   9.129  12.293  1.1708 -0.4982 -0.0257
  245MOL0     H33775   7.728   9.076  12.164  2.2237 -0.5684 -0.0806
  245MOL0     H33776   7.669   9.032  12.453 -0.3383 -2.7289 -0.3343
  245MOL0     H33777   7.612   9.169  12.364  6.1528  2.3423  0.9194
  245MOL0     H33778   7.552   8.876  12.281 -2.1435 -1.0095 -3.9993
  245MOL0     H33779   7.493   9.017  12.202 -1.2416 -1.5220  0.4086
  245MOL0     H33780   7.375   9.087  12.423 -0.9263 -0.5613 -0.8242
  245MOL0     H33781   7.428   8.926  12.479 -0.0117 -0.2818  0.6119
  245MOL0     H33782   7.259   8.991  12.221 -3.6018 -0.9744  0.2068
  245MOL0     H33783   7.302   8.824  12.286 -0.6895 -1.1244  3.1282
  245MOL0     H33784   7.141   9.033  12.424  0.3135  0.1772  1.9525
  245MOL0     H33785   7.181   8.869  12.492 -0.1832  1.4828  1.1818
  245MOL0     H33786   7.031   8.765  12.321  0.6264  0.3486 -0.4238
  245MOL0     H33787   7.021   8.919  12.230 -0.0620 -0.5125 -0.6769
  245MOL0     H33788   6.935   8.898  12.514 -1.3600 -1.3795 -1.3867
  245MOL0     H33789   6.825   8.859  12.383 -2.0540  2.5726 -3.7656
  245MOL0     H33790   7.989   9.084  12.151  0.1757  0.5167  1.0755
  245MOL0     H33791   8.184   9.011  12.024 -0.8469  1.3925  0.6850
  245MOL0     H33792   8.545   8.792  11.880  1.8366  0.0636 -1.3851
  245MOL0     H33793   8.705   8.712  11.709  1.5869 -4.1856  3.8044
  245MOL0     H33794   8.307   8.935  10.336  1.0780  1.8453  0.5759
  245MOL0     H33795   8.199   9.124  10.428  2.0650  1.1022 -2.0180
  245MOL0     H33796   8.003   9.500  10.627  2.6695 -1.9368 -1.1561
  245MOL0     H33797   7.894   9.718  10.649  0.0174 -0.0493  0.6818
  245MOL0     H33798   7.752   9.912  10.297  2.7351  0.0966  1.3273
  245MOL0     H33799   7.591   9.877  10.362 -0.1244  0.7943  0.3613
  245MOL0     H33800   7.624  10.114  10.344  1.7995  0.5853 -0.6676
  245MOL0     H33801   7.776  10.123  10.411  0.7611  0.7829  3.3497
  245MOL0     H33802   7.688  10.024  10.637 -0.7888 -0.7565  1.1175
  245MOL0     H33803   7.644  10.199  10.577 -1.9655 -0.2274 -2.3412
  245MOL0     H33804   7.451   9.975  10.521 -0.6571 -1.1201  1.2155
  245MOL0     H33805   7.435  10.146  10.534  1.0886 -0.6639 -1.4462
  245MOL0     H33806   7.379  10.020  10.936 -0.7280  3.1401  1.6023
  245MOL0     H33807   7.710   9.681  10.285  0.9723  2.0715  0.9876
  245MOL0     H33808   7.734   9.477  10.150  0.8955  0.1811  0.5704
  245MOL0     H33809   7.870   9.365  10.173 -0.6569  0.6653 -2.5319
  245MOL0     H33810   7.716   9.340  10.258 -2.3131  0.8621 -0.7903
  246MOL0     O33811   9.519  10.335   0.186 -0.2494  0.2266 -0.3243
  246MOL0     C33812   9.560  10.217   0.211 -0.2969 -1.2849  0.0673
  246MOL0     O33813   9.602  10.131   0.116  0.7163  0.3487  0.3778
  246MOL0     C33814   9.580  10.160  -0.018  0.0330  1.4744 -0.3992
  246MOL0     C33815   9.451  10.198  -0.074 -0.4686  0.3049 -1.1359
  246MOL0     C33816   9.433  10.220  -0.207  0.0637  0.3649  1.0012
  246MOL0     C33817   9.543  10.214  -0.296 -0.5782  0.6241  0.1203
  246MOL0     O33818   9.533  10.258  -0.430  0.5005 -0.1266 -0.1429
  246MOL0     C33819   9.635  10.346  -0.474 -0.6670 -0.0461 -0.0745
  246MOL0     C33820   9.584  10.469  -0.522 -0.1812 -0.6075  0.1960
  246MOL0     C33821   9.513  10.471  -0.652 -1.2390  0.5730 -0.4454
  246MOL0     C33822   9.599  10.443  -0.769  0.2750 -0.9850  0.7830
  246MOL0     C33823   9.538  10.501  -0.898  1.1075  0.8231 -0.8192
  246MOL0     C33824   9.599  10.454  -1.027  0.3338  0.1426 -1.3528
  246MOL0     C33825   9.756  10.460  -1.029  1.1382  1.0728  0.2849
  246MOL0     C33826   9.796  10.603  -1.067  0.0679 -0.2693  0.5620
  246MOL0     N33827   9.935  10.610  -1.039 -0.4291 -0.6141 -0.4378
  246MOL0     C33828  10.035  10.645  -1.132  0.8774 -0.8211 -0.2038
  246MOL0     C33829  10.149  10.674  -1.065 -0.8654 -0.7537 -0.5939
  246MOL0     C33830  10.276  10.723  -1.138  0.3128 -0.6333  0.4549
  246MOL0     C33831  10.402  10.728  -1.041  0.1495  0.0189 -0.6009
  246MOL0     C33832  10.529  10.733  -1.127  0.1996 -0.5364 -0.0586
  246MOL0     C33833  10.648  10.686  -1.028 -0.0626  0.0390  0.5960
  246MOL0     O33834  10.768  10.665  -1.117  0.3695 -0.1006 -0.2792
  246MOL0     C33835  10.894  10.689  -1.070 -1.3692 -1.0616 -0.6355
  246MOL0     C33836  11.002  10.681  -1.155 -0.4016 -0.9699  0.2710
  246MOL0     C33837  11.133  10.700  -1.106  0.1593 -0.6240  0.7873
  246MOL0     C33838  11.238  10.694  -1.204  0.6821  0.4173  1.0912
  246MOL0     C33839  11.157  10.731  -0.974  0.0946  0.2195  0.1532
  246MOL0     C33840  11.295  10.752  -0.914  0.1744  0.0396  0.3087
  246MOL0     O33841  11.305  10.738  -0.774 -0.2017  0.1192 -0.6464
  246MOL0     C33842  11.434  10.752  -0.726  1.1220 -0.2693 -0.4671
  246MOL0     C33843  11.466  10.876  -0.681 -1.3240 -0.8057 -0.8240
  246MOL0     C33844  11.602  10.906  -0.668 -0.5214  0.2299  0.4286
  246MOL0     C33845  11.706  10.812  -0.680  1.2143  1.0692 -0.5358
  246MOL0     O33846  11.833  10.849  -0.672  0.0145 -0.9716  0.5773
  246MOL0     C33847  11.941  10.757  -0.660 -0.2895 -0.1981 -0.1197
  246MOL0     C33848  12.073  10.829  -0.666  1.0177  0.0920 -0.8275
  246MOL0     C33849  12.099  10.888  -0.797 -0.3077  0.5354  0.0484
  246MOL0     C33850  12.228  10.958  -0.816 -0.4644 -2.0635  0.1247
  246MOL0     C33851  12.252  11.076  -0.717 -0.4794 -0.8963  0.1610
  246MOL0     C33852  12.322  11.199  -0.777 -0.5017  0.3093  0.5495
  246MOL0     C33853  12.246  11.288  -0.878  0.5088  0.2731 -0.5312
  246MOL0     C33854  12.347  11.402  -0.928  0.0560 -0.0001  0.4519
  246MOL0    Cl33855  12.402  11.520  -0.792 -0.5760  0.2555 -0.1521
  246MOL0     C33856  11.669  10.677  -0.700 -0.2303 -0.2021 -0.1389
  246MOL0     C33857  11.530  10.652  -0.734  0.0382 -0.3240 -0.3082
  246MOL0     O33858  11.389  10.785  -0.986 -0.8594 -0.5739 -0.0858
  246MOL0     C33859  11.049  10.724  -0.883  0.5727 -0.2258  0.4211
  246MOL0     C33860  10.916  10.701  -0.929 -0.3431 -0.3739  0.3135
  246MOL0     N33861  10.109  10.663  -0.928 -0.1397 -0.0417  1.0695
  246MOL0     N33862   9.988  10.628  -0.920  0.4511 -0.3973 -0.3175
  246MOL0     C33863   9.665  10.172  -0.246  0.5962 -0.5775  0.1508
  246MOL0     C33864   9.686  10.141  -0.108 -0.0380  0.6972  0.6567
  246MOL0     C33865   9.565  10.173   0.356  0.4062 -0.3052 -0.3550
  246MOL0     C33866   9.656  10.072   0.390 -0.1600  0.1591  1.1021
  246MOL0     C33867   9.642  10.005   0.513  0.0425 -0.9310  0.2855
  246MOL0     C33868   9.544  10.038   0.607 -1.1275  1.1287 -0.1404
  246MOL0     O33869   9.560   9.973   0.729  0.5397 -0.3345 -0.5785
  246MOL0     C33870   9.470  10.015   0.835  0.6591 -0.4106  0.0945
  246MOL0     C33871   9.482   9.934   0.966  0.1034 -1.1204 -0.7205
  246MOL0     C33872   9.599   9.963   1.059 -0.5422  0.2936  0.9472
  246MOL0     C33873   9.608  10.111   1.127 -0.4757 -0.8749  0.4679
  246MOL0     C33874   9.693  10.189   1.036 -0.3142  0.0527  0.0238
  246MOL0     C33875   9.760  10.253   0.957 -0.4650 -0.1641 -0.5483
  246MOL0     C33876   9.456  10.143   0.578 -0.5968  0.2289 -0.7737
  246MOL0     C33877   9.467  10.222   0.454 -0.4423  0.9217 -0.6077
  246MOL0     C33878   9.377  10.335   0.438 -0.3160 -0.2782  0.7940
  246MOL0     H33879   9.372  10.213  -0.002 -0.4444 -1.3737 -0.7210
  246MOL0     H33880   9.339  10.259  -0.243  0.2354  1.5985  1.8417
  246MOL0     H33881   9.701  10.291  -0.541  1.8464  0.7840  1.5563
  246MOL0     H33882   9.688  10.373  -0.381 -2.6436 -3.1824  2.1400
  246MOL0     H33883   9.510  10.487  -0.443 -0.3253 -0.6176  0.0647
  246MOL0     H33884   9.663  10.545  -0.520 -0.9537  0.4927 -3.2255
  246MOL0     H33885   9.438  10.392  -0.662 -0.2580 -0.0604 -4.2498
  246MOL0     H33886   9.470  10.571  -0.662  0.9349  1.5288 -0.9107
  246MOL0     H33887   9.693  10.499  -0.761  0.4573 -1.0159 -0.8727
  246MOL0     H33888   9.616  10.337  -0.786  2.4478 -0.5580 -0.0646
  246MOL0     H33889   9.553  10.610  -0.896  1.6213  0.7576 -0.8922
  246MOL0     H33890   9.432  10.476  -0.904  1.3771 -0.2041 -1.6959
  246MOL0     H33891   9.571  10.348  -1.027  0.5490  0.0730 -0.3240
  246MOL0     H33892   9.554  10.507  -1.110 -0.5275  0.8877 -0.4328
  246MOL0     H33893   9.790  10.400  -1.114 -0.9691 -0.0840  0.1740
  246MOL0     H33894   9.796  10.413  -0.939 -1.6575  0.3715  1.2759
  246MOL0     H33895   9.790  10.632  -1.172  1.2796  0.3406  0.6418
  246MOL0     H33896   9.742  10.676  -1.006  1.2637  0.8468  0.3252
  246MOL0     H33897  10.020  10.642  -1.239  1.8296  0.9301 -0.4240
  246MOL0     H33898  10.255  10.819  -1.184  0.2901 -1.5111 -1.4396
  246MOL0     H33899  10.299  10.647  -1.213  2.3904 -0.3570  0.7640
  246MOL0     H33900  10.390  10.811  -0.971  2.5567  0.5673 -0.7612
  246MOL0     H33901  10.395  10.643  -0.972  2.0303  0.4858  0.2349
  246MOL0     H33902  10.525  10.662  -1.210  3.2306 -0.7344 -0.1532
  246MOL0     H33903  10.545  10.837  -1.157 -2.9243  0.2745  0.7335
  246MOL0     H33904  10.655  10.759  -0.947  0.2204  0.8731 -0.1620
  246MOL0     H33905  10.631  10.589  -0.980  2.7608 -0.3503  0.9445
  246MOL0     H33906  10.998  10.663  -1.262  2.7778  2.8622 -0.7189
  246MOL0     H33907  11.268  10.795  -1.232  0.1368  1.3728  3.6208
  246MOL0     H33908  11.202  10.632  -1.286 -2.9706 -0.1456  2.8793
  246MOL0     H33909  11.321  10.633  -1.168 -0.0312 -2.0076 -1.1061
  246MOL0     H33910  11.396  10.959  -0.675 -1.9514 -1.3915  0.1862
  246MOL0     H33911  11.630  11.009  -0.646 -0.8326  0.2883  0.5548
  246MOL0     H33912  11.947  10.687  -0.576  0.5458 -0.4009 -0.3458
  246MOL0     H33913  11.934  10.688  -0.745  0.6667 -0.4191 -0.0329
  246MOL0     H33914  12.084  10.903  -0.586  2.2255  1.0136 -1.8176
  246MOL0     H33915  12.151  10.753  -0.650 -2.1360 -3.9545 -2.8277
  246MOL0     H33916  12.013  10.948  -0.829 -0.6165 -1.2816 -2.8584
  246MOL0     H33917  12.098  10.809  -0.872 -0.5211  2.0981 -1.6456
  246MOL0     H33918  12.233  11.001  -0.917  0.7904 -0.2091  0.9260
  246MOL0     H33919  12.313  10.889  -0.808  3.7045  2.5172 -0.1875
  246MOL0     H33920  12.158  11.116  -0.678 -2.1248  2.5707 -6.0388
  246MOL0     H33921  12.311  11.047  -0.630  2.9149  2.3084 -0.8459
  246MOL0     H33922  12.414  11.158  -0.819 -1.4760 -1.4515  0.0250
  246MOL0     H33923  12.348  11.268  -0.697  2.6512  1.8553 -1.6182
  246MOL0     H33924  12.157  11.343  -0.847  0.4249 -0.0521 -0.1904
  246MOL0     H33925  12.212  11.231  -0.965  2.3319 -2.7048  0.5513
  246MOL0     H33926  12.291  11.465  -0.998  3.1301  0.0731 -2.1536
  246MOL0     H33927  12.430  11.359  -0.985  2.3788  4.0179  0.4737
  246MOL0     H33928  11.748  10.602  -0.699  1.0357  1.0962 -0.1020
  246MOL0     H33929  11.504  10.552  -0.767 -0.6698 -0.2731  0.0748
  246MOL0     H33930  11.066  10.745  -0.778 -3.1472  1.2527  0.8931
  246MOL0     H33931  10.846  10.693  -0.847 -1.3831  2.2313 -0.2068
  246MOL0     H33932   9.749  10.166  -0.315 -0.1934 -0.5401 -0.8389
  246MOL0     H33933   9.784  10.107  -0.077 -1.6118 -3.1621  2.1107
  246MOL0     H33934   9.729  10.033   0.320 -0.4436 -1.1799  1.5277
  246MOL0     H33935   9.709   9.925   0.541  1.5734 -0.3485 -1.4770
  246MOL0     H33936   9.495  10.122   0.840  3.4809 -0.6775 -3.5458
  246MOL0     H33937   9.368   9.996   0.800  0.1431  1.1422  0.6653
  246MOL0     H33938   9.480   9.829   0.938  0.0759 -1.3946  0.2569
  246MOL0     H33939   9.390   9.960   1.020  1.4691 -1.5353  1.9623
  246MOL0     H33940   9.573   9.894   1.139 -2.3898 -1.1729 -0.8079
  246MOL0     H33941   9.693   9.931   1.013 -0.0320 -0.2086  2.2818
  246MOL0     H33942   9.655  10.099   1.226 -0.7841  1.6533  1.0033
  246MOL0     H33943   9.513  10.164   1.142 -0.8709 -1.3537 -0.3178
  246MOL0     H33944   9.809  10.315   0.884 -1.0331  3.2290  1.7082
  246MOL0     H33945   9.385  10.178   0.652  1.2261 -0.2324  1.3014
  246MOL0     H33946   9.295  10.337   0.510 -2.5087 -0.1490 -1.5742
  246MOL0     H33947   9.435  10.424   0.464  1.3256 -1.1764  0.3861
  246MOL0     H33948   9.336  10.354   0.338  2.8449  0.7965 -0.4108
  247MOL0     O33949   6.633   6.217   3.211 -0.3171  0.3057  1.5164
  247MOL0     C33950   6.611   6.125   3.133 -0.0592 -0.9774 -0.5257
  247MOL0     O33951   6.486   6.070   3.116 -0.0769  0.5136 -1.2300
  247MOL0     C33952   6.374   6.133   3.163 -0.8114 -0.1778 -1.1685
  247MOL0     C33953   6.326   6.131   3.305 -0.5609  0.1523 -0.7598
  247MOL0     C33954   6.209   6.202   3.344 -1.0031 -0.1954  0.1271
  247MOL0     C33955   6.139   6.276   3.247  0.2297 -1.0874  0.2106
  247MOL0     O33956   6.034   6.360   3.292 -0.6412 -0.0825  0.1106
  247MOL0     C33957   5.970   6.459   3.215 -0.4104  0.9500 -0.4195
  247MOL0     C33958   5.892   6.558   3.298 -0.4571  0.0506  0.5087
  247MOL0     C33959   5.854   6.696   3.231  0.5719  0.1110  0.3344
  247MOL0     C33960   5.764   6.668   3.112  0.1104 -0.9164  0.5542
  247MOL0     C33961   5.753   6.794   3.016  1.1331 -0.1453 -1.3326
  247MOL0     C33962   5.655   6.774   2.899 -0.6660  0.1526 -0.1650
  247MOL0     C33963   5.552   6.882   2.913 -0.1849  0.3074 -0.6168
  247MOL0     C33964   5.433   6.850   2.817 -0.9041 -0.2854  0.3574
  247MOL0     N33965   5.476   6.825   2.683 -0.0894  0.6894  0.8921
  247MOL0     C33966   5.531   6.928   2.615 -0.0658 -0.2400 -0.5358
  247MOL0     C33967   5.568   6.875   2.499  0.7017 -1.1059  0.1516
  247MOL0     C33968   5.640   6.951   2.390  0.0271 -0.3825  0.2653
  247MOL0     C33969   5.592   6.908   2.257 -0.4445 -1.3731 -0.2157
  247MOL0     C33970   5.678   6.801   2.196 -0.1800  1.2811 -0.8412
  247MOL0     C33971   5.690   6.830   2.053 -0.0506  0.3896  0.4351
  247MOL0     O33972   5.727   6.717   1.989 -0.0410  0.1450  0.0211
  247MOL0     C33973   5.642   6.609   1.964 -0.0339  0.9735 -0.1513
  247MOL0     C33974   5.710   6.497   1.911  0.4166  0.4873 -0.0639
  247MOL0     C33975   5.639   6.385   1.871  1.1098 -0.0833 -0.7619
  247MOL0     C33976   5.708   6.272   1.803 -0.0719  0.3361  0.6633
  247MOL0     C33977   5.493   6.388   1.882 -0.2635  0.4457  0.8891
  247MOL0     C33978   5.400   6.267   1.840 -0.9516  0.1378 -0.1576
  247MOL0     O33979   5.452   6.159   1.773  0.0762 -0.1401 -0.4459
  247MOL0     C33980   5.374   6.086   1.699  0.5113  0.7758 -0.2543
  247MOL0     C33981   5.431   5.978   1.638 -0.9270 -0.7069  1.3721
  247MOL0     C33982   5.370   5.900   1.538  0.7255 -0.6217 -0.0596
  247MOL0     C33983   5.238   5.920   1.506 -0.4034  0.6761 -0.1020
  247MOL0     O33984   5.184   5.821   1.437 -0.4393 -0.0399 -0.0344
  247MOL0     C33985   5.049   5.832   1.387  0.3587  0.9478 -0.0368
  247MOL0     C33986   5.032   5.929   1.267 -0.3075 -0.4725 -0.1114
  247MOL0     C33987   5.114   5.900   1.137  0.1824  0.9079  0.1786
  247MOL0     C33988   5.035   5.963   1.030 -0.5025 -0.4003 -0.2174
  247MOL0     C33989   5.111   5.954   0.894  0.4066 -0.1760  0.5386
  247MOL0     C33990   5.024   6.018   0.785 -0.6299  0.2369  0.0278
  247MOL0     C33991   4.899   5.939   0.753 -0.0315  0.5227 -0.0233
  247MOL0     C33992   4.827   5.981   0.630  0.2422 -1.1720 -0.0520
  247MOL0    Cl33993   4.667   5.893   0.615  0.1533  0.0600 -0.2290
  247MOL0     C33994   5.169   6.022   1.572  0.0287 -0.2608  0.7542
  247MOL0     C33995   5.234   6.104   1.664  0.3486  0.3463 -0.1487
  247MOL0     O33996   5.280   6.280   1.868 -0.7320 -0.4373  0.3835
  247MOL0     C33997   5.431   6.504   1.933 -0.0680 -0.5723  0.7245
  247MOL0     C33998   5.504   6.614   1.961 -1.1699  0.0630 -0.1079
  247MOL0     N33999   5.537   6.743   2.496  0.4277 -0.5641 -0.8478
  247MOL0     N34000   5.475   6.715   2.600  0.9083 -0.3010 -0.7066
  247MOL0     C34001   6.181   6.271   3.110  0.7408 -0.2778  0.9482
  247MOL0     C34002   6.292   6.209   3.077 -0.1674  0.9860  0.7727
  247MOL0     C34003   6.723   6.052   3.053 -0.1896  0.1300  0.0874
  247MOL0     C34004   6.689   5.959   2.950  0.4672  0.8903  1.2215
  247MOL0     C34005   6.777   5.906   2.852  0.4583 -0.2566  0.3753
  247MOL0     C34006   6.908   5.929   2.866 -0.3949  0.1496  0.1234
  247MOL0     O34007   7.008   5.877   2.788  0.4953 -0.3778  0.8020
  247MOL0     C34008   6.978   5.847   2.646  0.8828 -0.5354  0.0179
  247MOL0     C34009   6.942   5.981   2.567 -0.3343  0.4507  0.5132
  247MOL0     C34010   7.063   6.048   2.489 -1.0505  0.2799 -0.0341
  247MOL0     C34011   7.044   6.169   2.400 -0.6516 -0.4175 -0.1857
  247MOL0     C34012   6.946   6.141   2.298 -0.3710 -0.2433  0.1840
  247MOL0     C34013   6.858   6.134   2.207 -0.9783 -0.4694  0.0980
  247MOL0     C34014   6.950   6.006   2.977  0.1332  0.2578 -0.9742
  247MOL0     C34015   6.862   6.063   3.073 -1.3424  0.2701 -0.2489
  247MOL0     C34016   6.923   6.122   3.192 -0.0486 -0.2608 -1.1262
  247MOL0     H34017   6.374   6.078   3.387  0.6825  4.1935  1.3689
  247MOL0     H34018   6.161   6.205   3.441 -2.2029  2.1433 -0.4444
  247MOL0     H34019   5.903   6.410   3.144 -0.9259  0.7091  0.2298
  247MOL0     H34020   6.046   6.504   3.150 -0.2428  0.2309 -0.7380
  247MOL0     H34021   5.797   6.517   3.332 -1.2334  0.4381 -1.1020
  247MOL0     H34022   5.960   6.580   3.381  0.0335 -2.7915  0.9642
  247MOL0     H34023   5.798   6.767   3.293  0.7109  0.4523  0.0703
  247MOL0     H34024   5.939   6.753   3.194 -0.7205  1.2528 -1.0468
  247MOL0     H34025   5.813   6.590   3.052  0.3044 -1.1908  1.0587
  247MOL0     H34026   5.666   6.628   3.137 -0.7181 -0.4828 -1.7956
  247MOL0     H34027   5.850   6.829   2.980  1.2434  0.1536 -0.7505
  247MOL0     H34028   5.712   6.873   3.078 -0.5562 -1.5053 -0.6438
  247MOL0     H34029   5.709   6.773   2.804  0.6366  2.0464  0.4965
  247MOL0     H34030   5.603   6.680   2.917 -1.0318  0.6213  1.4657
  247MOL0     H34031   5.598   6.977   2.886  1.0952  0.1270  0.8039
  247MOL0     H34032   5.505   6.888   3.012  0.4907 -1.2648 -0.1685
  247MOL0     H34033   5.368   6.771   2.856 -2.7591  0.6758 -0.6646
  247MOL0     H34034   5.377   6.943   2.816  0.6251  0.7147  2.2121
  247MOL0     H34035   5.547   7.034   2.631 -3.0965  0.0594  1.4469
  247MOL0     H34036   5.749   6.938   2.399 -0.1808 -1.1924  1.9642
  247MOL0     H34037   5.622   7.058   2.392  0.2079 -0.3581  0.9574
  247MOL0     H34038   5.489   6.872   2.257 -0.5192 -1.1907  0.9128
  247MOL0     H34039   5.598   6.995   2.191  0.0540 -1.0362  0.2601
  247MOL0     H34040   5.777   6.800   2.243 -0.4669 -0.5774 -0.1899
  247MOL0     H34041   5.620   6.710   2.215  0.3663  1.2963  1.1281
  247MOL0     H34042   5.596   6.865   2.010  0.2900 -0.3829 -0.9927
  247MOL0     H34043   5.763   6.908   2.030  0.0022 -0.0844 -1.1166
  247MOL0     H34044   5.818   6.512   1.913  0.4455  0.2295  1.1723
  247MOL0     H34045   5.662   6.239   1.709 -0.3759 -1.4366  1.3791
  247MOL0     H34046   5.704   6.185   1.870  2.1951  0.9171  1.6258
  247MOL0     H34047   5.811   6.296   1.777 -0.0681 -0.4949 -0.1466
  247MOL0     H34048   5.535   5.952   1.656 -0.3351  1.0553  0.7353
  247MOL0     H34049   5.429   5.820   1.496  1.1640  0.2114 -1.0740
  247MOL0     H34050   5.018   5.733   1.353  0.6751  1.0453 -0.6198
  247MOL0     H34051   4.975   5.852   1.466  0.4988  0.4656  0.2196
  247MOL0     H34052   4.925   5.942   1.250 -0.3163  0.3770  0.4996
  247MOL0     H34053   5.071   6.029   1.292  0.9403 -1.5022  2.4596
  247MOL0     H34054   5.120   5.792   1.124 -2.1717  1.0027 -2.5865
  247MOL0     H34055   5.214   5.944   1.144  0.7625 -0.4811  1.1819
  247MOL0     H34056   5.015   6.069   1.050  0.8928  1.0618 -5.1727
  247MOL0     H34057   4.936   5.916   1.027 -1.5037  1.2179  2.9709
  247MOL0     H34058   5.200   6.016   0.886  0.3927 -0.1044  0.9389
  247MOL0     H34059   5.133   5.849   0.870  0.0577  0.2235 -1.7205
  247MOL0     H34060   5.073   6.027   0.688 -0.0127 -0.3417  0.2769
  247MOL0     H34061   4.993   6.111   0.834  1.0650  0.4950  0.6886
  247MOL0     H34062   4.825   5.938   0.835  1.0811 -2.6714  1.1078
  247MOL0     H34063   4.933   5.835   0.754 -1.9968 -0.1806  1.7501
  247MOL0     H34064   4.889   5.958   0.544 -1.7082  1.7587 -2.4537
  247MOL0     H34065   4.815   6.090   0.640 -3.4193 -1.6413  3.1036
  247MOL0     H34066   5.063   6.043   1.571 -0.2240 -1.2090  2.7293
  247MOL0     H34067   5.169   6.175   1.715 -0.0040 -0.5441  0.6918
  247MOL0     H34068   5.325   6.515   1.957  0.0701  2.3589  0.3051
  247MOL0     H34069   5.444   6.693   2.004  0.5074  0.3707  1.7976
  247MOL0     H34070   6.124   6.321   3.032 -0.7491 -0.4742  1.8578
  247MOL0     H34071   6.321   6.199   2.973  1.7724 -1.8134  1.4613
  247MOL0     H34072   6.583   5.944   2.931  0.3727  3.4997 -0.7553
  247MOL0     H34073   6.741   5.838   2.775  0.1315  2.2964 -1.8906
  247MOL0     H34074   7.057   5.788   2.598 -0.1396 -0.8874 -1.3096
  247MOL0     H34075   6.889   5.783   2.644  0.3840  0.1210  0.7067
  247MOL0     H34076   6.889   6.055   2.628  0.5028  2.1083 -0.7159
  247MOL0     H34077   6.869   5.963   2.487  0.7670  0.6550 -0.5684
  247MOL0     H34078   7.137   6.081   2.563 -0.7617 -1.6099  0.5651
  247MOL0     H34079   7.122   5.975   2.434  1.2351  0.9429  1.3779
  247MOL0     H34080   7.137   6.197   2.350 -1.9351  0.0537 -2.4520
  247MOL0     H34081   7.000   6.258   2.446 -2.3697 -1.1662 -0.2881
  247MOL0     H34082   6.786   6.152   2.130  0.4299  0.3123 -1.0939
  247MOL0     H34083   7.057   6.024   2.988  0.2373 -0.7564 -0.0623
  247MOL0     H34084   6.856   6.116   3.279 -1.4549  0.1625 -2.1461
  247MOL0     H34085   7.014   6.065   3.213  2.4358  3.1295 -1.8242
  247MOL0     H34086   6.949   6.228   3.187 -0.5787  0.0192  0.9364
  248MOL0     O34087   2.527   5.356   5.553 -0.5133  0.1471 -0.4667
  248MOL0     C34088   2.555   5.460   5.598 -0.2649 -0.8401 -1.1075
  248MOL0     O34089   2.684   5.505   5.600 -0.4941 -0.4001 -0.7873
  248MOL0     C34090   2.787   5.467   5.521  0.4027 -0.6336  0.0326
  248MOL0     C34091   2.767   5.457   5.382  0.4414 -0.1095  0.0483
  248MOL0     C34092   2.879   5.448   5.302  0.6275 -0.3077 -0.4390
  248MOL0     C34093   3.004   5.426   5.367 -0.4181 -0.7679  1.2357
  248MOL0     O34094   3.122   5.417   5.297 -0.0487 -0.7121 -0.2138
  248MOL0     C34095   3.132   5.409   5.154  0.9167  0.9504  0.0898
  248MOL0     C34096   3.277   5.416   5.131 -0.6459  0.4319 -0.3874
  248MOL0     C34097   3.357   5.293   5.161 -0.1560 -0.2762 -0.7073
  248MOL0     C34098   3.390   5.224   5.033 -0.3218 -0.4753 -1.0232
  248MOL0     C34099   3.437   5.081   5.052 -0.0313  0.0907  0.3631
  248MOL0     C34100   3.585   5.060   5.086  0.8609  0.3128  1.0662
  248MOL0     C34101   3.616   4.911   5.126 -0.9406  0.0393 -1.3111
  248MOL0     C34102   3.764   4.914   5.177  0.1077  0.0207 -0.0406
  248MOL0     N34103   3.820   4.780   5.197 -0.0536  1.2575 -0.0156
  248MOL0     C34104   3.739   4.680   5.249 -0.2509 -0.1650  0.1486
  248MOL0     C34105   3.825   4.583   5.276 -0.8138 -0.2418  0.1731
  248MOL0     C34106   3.804   4.448   5.337  0.5490  0.7167  0.1464
  248MOL0     C34107   3.795   4.350   5.216 -1.2260  0.2430  0.2984
  248MOL0     C34108   3.667   4.383   5.133  0.2741 -0.4316  0.3420
  248MOL0     C34109   3.634   4.261   5.039 -0.7694  0.1575 -0.3954
  248MOL0     O34110   3.636   4.137   5.106 -0.8116  0.1814 -0.1305
  248MOL0     C34111   3.539   4.035   5.107 -0.3058 -0.0256 -0.4977
  248MOL0     C34112   3.407   4.058   5.075 -0.5094 -0.1584 -0.1332
  248MOL0     C34113   3.309   3.971   5.112 -0.2740  0.6027 -0.1531
  248MOL0     C34114   3.165   4.012   5.074  0.2056 -0.3952  0.3558
  248MOL0     C34115   3.348   3.846   5.170 -0.0612  0.2753  1.3418
  248MOL0     C34116   3.258   3.727   5.201 -0.1013  0.3925  1.1507
  248MOL0     O34117   3.318   3.607   5.233 -0.7037 -1.0459  0.0487
  248MOL0     C34118   3.224   3.515   5.268 -0.3467  0.0433  0.0457
  248MOL0     C34119   3.182   3.421   5.177  1.2003  0.0460  0.6870
  248MOL0     C34120   3.073   3.337   5.220  0.0977 -0.2248 -0.1512
  248MOL0     C34121   3.020   3.347   5.353  0.1806  0.6701 -0.6563
  248MOL0     O34122   2.909   3.281   5.408  0.1731  0.0397  0.0073
  248MOL0     C34123   2.815   3.235   5.306 -0.8788 -0.2578 -0.5464
  248MOL0     C34124   2.825   3.083   5.304  0.0187 -0.4425 -0.2130
  248MOL0     C34125   2.703   3.027   5.246 -0.5657 -0.3001  0.2276
  248MOL0     C34126   2.597   2.991   5.344  1.5961 -0.9297  0.0476
  248MOL0     C34127   2.482   2.920   5.276  0.4741 -0.2862  0.1257
  248MOL0     C34128   2.350   2.893   5.350 -0.4449 -1.3461 -0.4794
  248MOL0     C34129   2.370   2.770   5.436  0.3391 -0.1743  1.5892
  248MOL0     C34130   2.275   2.779   5.566 -0.7668  0.3994  0.7076
  248MOL0    Cl34131   2.315   2.655   5.681  0.3714 -0.2325  0.4652
  248MOL0     C34132   3.075   3.438   5.443 -0.1944  0.0827  0.1839
  248MOL0     C34133   3.170   3.522   5.395 -0.9986 -0.4697  0.4200
  248MOL0     O34134   3.139   3.737   5.180 -0.0442 -0.4121 -0.0612
  248MOL0     C34135   3.481   3.817   5.184 -0.0189 -1.0278  0.1226
  248MOL0     C34136   3.577   3.921   5.167  1.0788 -0.1713  0.1778
  248MOL0     N34137   3.952   4.633   5.236  0.6925  0.5580 -1.0225
  248MOL0     N34138   3.950   4.752   5.192 -0.5064 -1.1311  0.0163
  248MOL0     C34139   3.017   5.418   5.510  0.6584  0.7561 -0.2326
  248MOL0     C34140   2.907   5.440   5.585 -0.3945 -0.3948 -0.2468
  248MOL0     C34141   2.460   5.532   5.681 -0.6895  0.3564  0.1583
  248MOL0     C34142   2.475   5.671   5.692  0.5021  0.7883 -0.5878
  248MOL0     C34143   2.379   5.744   5.767 -0.3629 -0.2538 -1.0085
  248MOL0     C34144   2.264   5.687   5.823 -0.5120 -0.3666 -0.4105
  248MOL0     O34145   2.181   5.758   5.902  0.4707 -0.1929  1.0081
  248MOL0     C34146   2.042   5.716   5.920  0.4157  0.1806 -0.0269
  248MOL0     C34147   1.960   5.794   6.020 -0.7047 -0.4472  0.0406
  248MOL0     C34148   2.004   5.778   6.166 -0.1584 -0.0320  0.3525
  248MOL0     C34149   2.010   5.630   6.214  0.3619  0.6654  0.0947
  248MOL0     C34150   2.010   5.604   6.358  1.0000 -0.6328  0.4533
  248MOL0     C34151   2.012   5.594   6.482 -0.2211  1.8649  0.3001
  248MOL0     C34152   2.240   5.549   5.787  0.3238 -0.2881 -0.5627
  248MOL0     C34153   2.343   5.469   5.737  0.5229  0.3876  0.3454
  248MOL0     C34154   2.303   5.329   5.729  0.2854  1.0100  0.2880
  248MOL0     H34155   2.668   5.477   5.341  0.4292  0.4348  0.3436
  248MOL0     H34156   2.875   5.457   5.194 -0.0126  0.3267 -0.3715
  248MOL0     H34157   3.078   5.492   5.108 -0.1010 -0.8815 -2.2589
  248MOL0     H34158   3.110   5.315   5.102  0.6376  1.5971 -0.9997
  248MOL0     H34159   3.304   5.452   5.031 -0.9261 -2.1044 -1.4627
  248MOL0     H34160   3.306   5.492   5.204 -2.8557 -1.1230  2.3077
  248MOL0     H34161   3.452   5.319   5.208 -2.0449 -0.9459  4.0161
  248MOL0     H34162   3.308   5.235   5.240  0.3154 -0.7309 -0.7426
  248MOL0     H34163   3.301   5.217   4.970 -0.7638  1.1446 -0.6278
  248MOL0     H34164   3.468   5.277   4.978 -2.5435  1.1909 -2.7810
  248MOL0     H34165   3.418   5.027   4.959 -1.1080 -1.3070  1.3420
  248MOL0     H34166   3.373   5.036   5.129  0.3144 -0.0191  0.5913
  248MOL0     H34167   3.637   5.080   4.992 -1.2114  1.6195  0.1181
  248MOL0     H34168   3.627   5.136   5.151  1.8184  0.6783  0.0355
  248MOL0     H34169   3.606   4.838   5.045  0.2568 -3.3805  1.3687
  248MOL0     H34170   3.550   4.890   5.211  0.4038 -0.2596 -0.3052
  248MOL0     H34171   3.810   4.965   5.091 -1.8138  2.6589  0.3917
  248MOL0     H34172   3.769   4.980   5.264 -4.1768 -1.0476  1.2286
  248MOL0     H34173   3.633   4.682   5.275 -0.0637 -1.8896  1.1873
  248MOL0     H34174   3.703   4.447   5.378  0.5751 -0.6914  0.2345
  248MOL0     H34175   3.885   4.431   5.409  2.1577  2.7110 -1.1013
  248MOL0     H34176   3.887   4.354   5.157 -1.4947  0.9085 -0.0822
  248MOL0     H34177   3.783   4.247   5.251 -3.1412 -0.6866 -2.7192
  248MOL0     H34178   3.586   4.397   5.205 -1.1080 -0.2371 -1.1888
  248MOL0     H34179   3.686   4.468   5.066  1.1158 -0.8812 -0.0020
  248MOL0     H34180   3.544   4.296   4.987  0.7582  3.2995 -1.1823
  248MOL0     H34181   3.707   4.261   4.958  0.8299  2.1855  0.9593
  248MOL0     H34182   3.373   4.150   5.029  0.9658  1.0603  1.1237
  248MOL0     H34183   3.168   4.116   5.042 -3.9566 -0.8157 -2.1643
  248MOL0     H34184   3.097   4.015   5.159  0.1773  0.5315  0.3058
  248MOL0     H34185   3.114   3.958   4.994 -0.5810  0.8102  0.0247
  248MOL0     H34186   3.225   3.419   5.077 -1.7220  0.5155 -0.6823
  248MOL0     H34187   3.038   3.263   5.149  1.2162  0.2870 -1.2720
  248MOL0     H34188   2.713   3.264   5.333 -1.5017 -2.3171 -0.5095
  248MOL0     H34189   2.829   3.282   5.208  0.4069 -2.4971 -1.5125
  248MOL0     H34190   2.904   3.047   5.237 -0.4026  0.6754 -1.3630
  248MOL0     H34191   2.835   3.033   5.401 -0.5778 -1.6965 -0.7751
  248MOL0     H34192   2.734   2.937   5.192 -0.2978 -1.0349  1.5832
  248MOL0     H34193   2.662   3.090   5.166 -1.2865 -0.7623  0.2190
  248MOL0     H34194   2.566   3.082   5.396  3.4697 -0.3672  0.2244
  248MOL0     H34195   2.621   2.915   5.418 -1.6015 -2.1273  0.0316
  248MOL0     H34196   2.451   2.985   5.193  1.8194  1.6636  1.0672
  248MOL0     H34197   2.532   2.829   5.242  0.4068 -0.0409 -0.6689
  248MOL0     H34198   2.267   2.888   5.279  1.7642  0.5229 -3.5209
  248MOL0     H34199   2.322   2.982   5.407  1.0007 -0.7455 -0.6418
  248MOL0     H34200   2.472   2.776   5.475  0.6582  0.0594  0.7423
  248MOL0     H34201   2.362   2.676   5.381 -2.0323  0.4391  0.7384
  248MOL0     H34202   2.170   2.758   5.544 -0.4254 -0.6686  0.0373
  248MOL0     H34203   2.287   2.881   5.604  0.1258  1.7098 -2.7609
  248MOL0     H34204   3.028   3.458   5.538 -1.4984 -0.6584 -0.2869
  248MOL0     H34205   3.213   3.600   5.457  5.3227 -0.9752 -2.4805
  248MOL0     H34206   3.526   3.724   5.216  1.4364 -0.6915 -0.8576
  248MOL0     H34207   3.677   3.912   5.207  2.2716  0.6782 -2.3831
  248MOL0     H34208   3.117   5.415   5.553  1.2485  4.0405 -1.1456
  248MOL0     H34209   2.906   5.426   5.692  0.8650 -1.0745 -0.3035
  248MOL0     H34210   2.557   5.720   5.641  2.5689 -2.2813 -0.4873
  248MOL0     H34211   2.399   5.846   5.796  3.0394 -0.0873 -3.2791
  248MOL0     H34212   1.994   5.735   5.824 -1.0540  2.3640  1.0529
  248MOL0     H34213   2.026   5.609   5.940 -1.6453  0.5995  0.7815
  248MOL0     H34214   1.859   5.751   6.015 -0.0817 -2.1630  1.3179
  248MOL0     H34215   1.967   5.899   5.990  0.3603 -1.3507 -3.3102
  248MOL0     H34216   2.105   5.810   6.193 -0.6461  0.9923  1.0304
  248MOL0     H34217   1.940   5.832   6.236  2.5845 -0.3775  3.3737
  248MOL0     H34218   2.093   5.577   6.166  0.8651  0.3401  1.2957
  248MOL0     H34219   1.925   5.573   6.176 -0.0702  2.8180 -2.5783
  248MOL0     H34220   2.020   5.590   6.589 -0.5781 -0.2649  0.2799
  248MOL0     H34221   2.142   5.506   5.806  0.6718 -1.0981 -0.5732
  248MOL0     H34222   2.391   5.264   5.732 -1.4746 -1.7057 -1.4241
  248MOL0     H34223   2.258   5.308   5.826  5.4444  1.7165  3.2115
  248MOL0     H34224   2.246   5.310   5.637  1.9779 -0.3918 -0.5395
  249MOL0     O34225   9.333   3.892   4.578  0.2472  0.5646  0.7648
  249MOL0     C34226   9.337   3.764   4.575  0.9210 -0.3264 -0.2231
  249MOL0     O34227   9.429   3.690   4.641  0.0155  0.5218 -0.0807
  249MOL0     C34228   9.514   3.747   4.731  1.1531 -0.1270  0.3784
  249MOL0     C34229   9.543   3.661   4.841 -1.0373  0.3872  0.0330
  249MOL0     C34230   9.641   3.707   4.930 -1.3806  0.1709  0.3795
  249MOL0     C34231   9.693   3.835   4.922  0.3298  0.0395 -0.3071
  249MOL0     O34232   9.775   3.888   5.029  1.0156  0.2638  0.2014
  249MOL0     C34233   9.768   4.024   5.063 -0.3216  0.2762 -0.8044
  249MOL0     C34234   9.788   4.039   5.216 -0.4858 -0.9861  0.3113
  249MOL0     C34235   9.794   4.185   5.253 -0.9734  0.5551  0.1781
  249MOL0     C34236   9.813   4.200   5.407  0.0312  0.2434 -0.3316
  249MOL0     C34237   9.943   4.274   5.443 -0.1550  0.0633 -0.1641
  249MOL0     C34238  10.065   4.185   5.458 -1.5400 -0.0794  0.2586
  249MOL0     C34239  10.199   4.254   5.500 -0.2807  0.0270 -0.3341
  249MOL0     C34240  10.263   4.328   5.380  0.2116 -0.1814  1.1250
  249MOL0     N34241  10.358   4.421   5.419 -0.5861 -0.1589  0.4707
  249MOL0     C34242  10.494   4.390   5.403 -0.1952  0.2860 -0.3646
  249MOL0     C34243  10.553   4.497   5.459 -1.0068  0.8437 -0.1750
  249MOL0     C34244  10.706   4.519   5.474 -0.1887  0.1694  0.4529
  249MOL0     C34245  10.751   4.531   5.627  0.4805  0.1521 -0.5444
  249MOL0     C34246  10.731   4.669   5.679 -0.5077 -0.0925  1.3140
  249MOL0     C34247  10.829   4.711   5.781  0.8936  0.8652 -1.2105
  249MOL0     O34248  10.967   4.706   5.738 -0.1146  0.2369  0.4692
  249MOL0     C34249  11.067   4.737   5.826 -0.6689 -1.0831 -0.2898
  249MOL0     C34250  11.205   4.696   5.803  0.2771  0.8161  0.7006
  249MOL0     C34251  11.302   4.688   5.903  0.5383  0.0761  0.0094
  249MOL0     C34252  11.419   4.599   5.882 -0.2733 -1.2299  0.4916
  249MOL0     C34253  11.271   4.745   6.025  0.4307 -0.0307 -0.5064
  249MOL0     C34254  11.359   4.736   6.139  0.0374  0.0233 -0.3243
  249MOL0     O34255  11.328   4.645   6.221 -0.0122  0.5499 -0.2563
  249MOL0     C34256  11.372   4.649   6.351 -0.3101  0.2071  0.2558
  249MOL0     C34257  11.507   4.623   6.379  0.0804  0.4211  0.3808
  249MOL0     C34258  11.560   4.629   6.505 -0.2062  0.5770 -0.3049
  249MOL0     C34259  11.474   4.644   6.620  0.6471 -0.2494  0.4096
  249MOL0     O34260  11.510   4.643   6.753  0.2848 -0.0957 -0.1244
  249MOL0     C34261  11.648   4.605   6.784  0.7649 -0.0500  0.1704
  249MOL0     C34262  11.642   4.563   6.927  0.7172  0.6314 -0.2239
  249MOL0     C34263  11.623   4.688   7.017  0.7091 -0.0238  0.4519
  249MOL0     C34264  11.482   4.702   7.068 -0.2088 -1.0682  1.0125
  249MOL0     C34265  11.481   4.816   7.167 -0.0104  0.0731  0.9966
  249MOL0     C34266  11.335   4.868   7.179 -0.7766  0.4413 -0.9873
  249MOL0     C34267  11.328   4.986   7.280 -0.8525 -0.1522 -0.6905
  249MOL0     C34268  11.207   5.084   7.273 -0.7436  1.5270 -0.2115
  249MOL0    Cl34269  11.051   4.988   7.289 -0.5105 -0.2406 -0.0767
  249MOL0     C34270  11.337   4.664   6.589 -1.2438  0.4517 -0.3395
  249MOL0     C34271  11.284   4.669   6.462  1.1043 -0.5748  0.3607
  249MOL0     O34272  11.450   4.813   6.140  0.2494 -0.2098  0.6046
  249MOL0     C34273  11.148   4.814   6.051 -0.5543  0.0148 -0.4135
  249MOL0     C34274  11.045   4.805   5.954 -0.2042  0.3967 -0.0627
  249MOL0     N34275  10.455   4.586   5.497 -0.6632 -0.3515  0.6312
  249MOL0     N34276  10.338   4.544   5.473 -0.0961 -0.0597 -0.0231
  249MOL0     C34277   9.660   3.914   4.813  0.4539  0.7774  0.1250
  249MOL0     C34278   9.579   3.865   4.713 -0.1197 -0.0397 -0.0919
  249MOL0     C34279   9.239   3.697   4.495 -1.2959  0.8822  0.1105
  249MOL0     C34280   9.192   3.765   4.382  0.1993  0.3636  0.4806
  249MOL0     C34281   9.106   3.696   4.294  0.9117  0.2076 -0.9870
  249MOL0     C34282   9.068   3.560   4.316  0.2896 -0.3100  0.5821
  249MOL0     O34283   8.987   3.478   4.242  0.8872 -0.0369 -0.5721
  249MOL0     C34284   8.958   3.514   4.105 -0.1508 -0.0777 -1.3082
  249MOL0     C34285   9.077   3.488   4.011 -0.3476  0.2251 -1.2039
  249MOL0     C34286   9.138   3.344   4.028  0.1694 -0.0559 -0.9206
  249MOL0     C34287   9.262   3.342   4.119 -0.2118 -1.8614 -0.9186
  249MOL0     C34288   9.333   3.219   4.113 -0.1407  0.0469 -0.6574
  249MOL0     C34289   9.400   3.117   4.094 -0.0535  0.4210  0.7708
  249MOL0     C34290   9.113   3.495   4.429 -1.1904 -1.4103 -0.2019
  249MOL0     C34291   9.199   3.556   4.515  0.4704  0.2442 -0.0502
  249MOL0     C34292   9.261   3.462   4.612 -0.2048  0.0227  0.0800
  249MOL0     H34293   9.492   3.568   4.862  1.9558 -1.3985 -0.0727
  249MOL0     H34294   9.683   3.649   5.011 -0.1268  1.9981  1.0934
  249MOL0     H34295   9.672   4.070   5.035 -0.4155  0.6324  0.0748
  249MOL0     H34296   9.838   4.074   4.995 -1.0526  0.6847 -1.2699
  249MOL0     H34297   9.709   3.996   5.278 -1.7548 -0.8726 -1.1688
  249MOL0     H34298   9.881   3.985   5.240  0.2961  0.3329  0.3806
  249MOL0     H34299   9.869   4.240   5.195  0.2164 -0.6501  0.5252
  249MOL0     H34300   9.691   4.219   5.240 -1.1666  0.7165  1.8916
  249MOL0     H34301   9.725   4.249   5.449  1.0793  3.7280 -1.8936
  249MOL0     H34302   9.825   4.100   5.450  1.8900 -0.4305 -2.2571
  249MOL0     H34303   9.942   4.338   5.531 -0.8138 -0.8628  0.5159
  249MOL0     H34304   9.963   4.348   5.365 -3.6493  2.0314  0.6326
  249MOL0     H34305  10.049   4.117   5.543  1.9303 -0.9266  0.3806
  249MOL0     H34306  10.076   4.123   5.369 -0.5005 -0.1151  0.3930
  249MOL0     H34307  10.270   4.178   5.535 -0.8327 -1.0308 -1.4413
  249MOL0     H34308  10.167   4.319   5.582 -1.0159 -1.6838  0.8067
  249MOL0     H34309  10.299   4.252   5.310 -4.2521 -0.8780 -0.7646
  249MOL0     H34310  10.186   4.384   5.326  1.0101 -1.2762 -1.2961
  249MOL0     H34311  10.537   4.299   5.364  1.9593 -1.0389  4.3515
  249MOL0     H34312  10.728   4.611   5.418 -4.4652  2.6605  2.3448
  249MOL0     H34313  10.758   4.433   5.431  3.0247  1.5399  1.2930
  249MOL0     H34314  10.695   4.459   5.687 -1.8484  1.9060 -0.4884
  249MOL0     H34315  10.857   4.509   5.642 -0.1740 -2.4065  0.8920
  249MOL0     H34316  10.745   4.733   5.591 -3.7847 -1.0714 -0.0619
  249MOL0     H34317  10.626   4.674   5.712 -1.3193  0.9098 -1.1944
  249MOL0     H34318  10.802   4.811   5.814  0.0617  0.7730 -1.5837
  249MOL0     H34319  10.807   4.653   5.871  4.0874  0.9321 -0.2781
  249MOL0     H34320  11.205   4.638   5.712  0.2154 -0.6826  1.6322
  249MOL0     H34321  11.404   4.532   5.797  2.8007 -3.1907  1.3004
  249MOL0     H34322  11.432   4.535   5.970  2.5971 -1.3778  0.0744
  249MOL0     H34323  11.507   4.661   5.862 -0.3124 -1.8413 -1.7903
  249MOL0     H34324  11.575   4.615   6.295  0.7238  2.4802  0.6527
  249MOL0     H34325  11.664   4.602   6.512 -0.4148 -0.7794 -1.8714
  249MOL0     H34326  11.683   4.520   6.724  0.4043 -1.8420  2.4023
  249MOL0     H34327  11.721   4.685   6.772  2.4083 -1.4636  0.4308
  249MOL0     H34328  11.558   4.493   6.926 -0.1537  1.5873 -2.5562
  249MOL0     H34329  11.737   4.515   6.953  0.6152 -0.2632 -1.4213
  249MOL0     H34330  11.652   4.778   6.963 -2.5004 -1.6682 -4.8030
  249MOL0     H34331  11.682   4.685   7.109 -0.2237  2.2346  1.1884
  249MOL0     H34332  11.446   4.608   7.111 -2.0976 -0.1775  1.4832
  249MOL0     H34333  11.419   4.730   6.983  0.3272  2.2914  1.5802
  249MOL0     H34334  11.541   4.785   7.254  0.5736 -0.5903  0.3689
  249MOL0     H34335  11.534   4.899   7.119  0.4572  0.2870  1.8382
  249MOL0     H34336  11.268   4.789   7.213  0.4060 -0.4723 -0.7343
  249MOL0     H34337  11.299   4.902   7.081  0.2828  0.8167 -1.2602
  249MOL0     H34338  11.417   5.049   7.289  0.3706 -1.7931 -0.9183
  249MOL0     H34339  11.340   4.937   7.378 -0.2625 -1.6813 -1.4948
  249MOL0     H34340  11.212   5.125   7.171 -1.6670 -1.5703 -1.6203
  249MOL0     H34341  11.206   5.160   7.352 -1.1912  0.6300  0.6625
  249MOL0     H34342  11.279   4.680   6.679 -1.8184 -0.8001 -0.4658
  249MOL0     H34343  11.178   4.671   6.440  1.2664 -0.4037 -0.4319
  249MOL0     H34344  11.118   4.860   6.145  2.7981 -1.0999  1.3689
  249MOL0     H34345  10.946   4.833   5.989 -0.7123 -0.6560 -0.6405
  249MOL0     H34346   9.708   4.011   4.813  0.7762  0.6587 -1.8637
  249MOL0     H34347   9.574   3.918   4.619 -3.0933 -1.3610 -0.8058
  249MOL0     H34348   9.219   3.869   4.368  2.1635 -0.3320 -1.5762
  249MOL0     H34349   9.067   3.733   4.200 -0.3805  0.8949 -0.2148
  249MOL0     H34350   8.869   3.455   4.077 -2.2021  0.9934  2.3438
  249MOL0     H34351   8.926   3.619   4.106  1.2117  0.3719  1.1515
  249MOL0     H34352   9.163   3.555   4.023  0.7338 -1.4432  1.4461
  249MOL0     H34353   9.047   3.487   3.906 -1.9150 -1.6899 -0.7742
  249MOL0     H34354   9.056   3.279   4.060 -2.6713  3.2203 -0.9475
  249MOL0     H34355   9.176   3.303   3.934  1.6026 -1.9125  0.4186
  249MOL0     H34356   9.238   3.337   4.225 -0.5455 -1.0238 -0.9510
  249MOL0     H34357   9.329   3.424   4.092 -4.2492  1.0881 -3.0320
  249MOL0     H34358   9.470   3.037   4.079 -1.3737 -0.9994  1.9707
  249MOL0     H34359   9.087   3.390   4.439  3.7794 -3.3987 -3.9739
  249MOL0     H34360   9.242   3.483   4.718 -2.7452 -2.6279  0.2665
  249MOL0     H34361   9.231   3.358   4.594  0.1471 -0.0465 -0.1116
  249MOL0     H34362   9.368   3.448   4.590 -0.0557  0.0703  0.7540
  250MOL0     O34363   1.061   7.030   3.592 -0.2692  0.0923  0.9540
  250MOL0     C34364   0.960   7.094   3.583  0.3042  0.3096 -0.2905
  250MOL0     O34365   0.879   7.100   3.478 -0.5399  0.1308  0.6410
  250MOL0     C34366   0.899   7.018   3.377 -0.4348 -0.8378  0.8911
  250MOL0     C34367   0.902   6.878   3.379  0.0887  0.1540 -0.4254
  250MOL0     C34368   0.918   6.804   3.264 -0.6202  0.3333  0.2642
  250MOL0     C34369   0.940   6.869   3.144 -0.3237 -0.2192 -0.0255
  250MOL0     O34370   0.938   6.797   3.027 -0.2256  0.1281  0.0820
  250MOL0     C34371   0.831   6.706   2.997  0.4250 -0.1858  0.1358
  250MOL0     C34372   0.796   6.729   2.845 -0.8207 -1.2110 -0.6462
  250MOL0     C34373   0.706   6.627   2.792  0.5710 -0.1891  0.0329
  250MOL0     C34374   0.780   6.508   2.732 -0.1381  0.3883  0.4681
  250MOL0     C34375   0.703   6.422   2.634 -1.0441 -0.4602  0.2769
  250MOL0     C34376   0.712   6.459   2.491 -0.6359  0.4642  0.1956
  250MOL0     C34377   0.832   6.414   2.411  0.2297 -0.6004 -0.3670
  250MOL0     C34378   0.851   6.268   2.407 -0.9496  0.4564 -0.0307
  250MOL0     N34379   0.975   6.225   2.343 -0.1549  0.3607 -0.0967
  250MOL0     C34380   1.098   6.185   2.386  0.3209  0.1023 -0.7313
  250MOL0     C34381   1.179   6.154   2.284 -0.9477 -0.0051  0.6090
  250MOL0     C34382   1.324   6.096   2.303  0.3467 -0.3685  0.4268
  250MOL0     C34383   1.431   6.196   2.353 -0.4887  0.2208 -0.5362
  250MOL0     C34384   1.410   6.257   2.496 -0.2285 -0.2623  1.1670
  250MOL0     C34385   1.418   6.169   2.628 -0.4487  0.2354  0.7032
  250MOL0     O34386   1.449   6.252   2.740 -0.5910  0.2858  0.3625
  250MOL0     C34387   1.439   6.193   2.862 -0.6911 -1.2446  0.3257
  250MOL0     C34388   1.506   6.264   2.966  0.4654  0.0764  0.1832
  250MOL0     C34389   1.490   6.218   3.103 -0.3149  0.2105  0.0406
  250MOL0     C34390   1.548   6.293   3.225 -0.8503  0.5270  0.0278
  250MOL0     C34391   1.426   6.096   3.122 -0.0102  0.6408 -0.5089
  250MOL0     C34392   1.405   6.042   3.262 -0.6689  0.6243 -0.0070
  250MOL0     O34393   1.397   5.908   3.277 -0.1280  0.4385  0.0095
  250MOL0     C34394   1.456   5.856   3.389 -0.1302 -0.9306  0.2300
  250MOL0     C34395   1.588   5.895   3.421  0.3693  0.3057 -0.3595
  250MOL0     C34396   1.641   5.830   3.529 -0.7002 -0.0006  0.2037
  250MOL0     C34397   1.577   5.729   3.604  1.1660 -0.9506 -0.9671
  250MOL0     O34398   1.653   5.693   3.708  0.3564 -0.5153 -0.0821
  250MOL0     C34399   1.634   5.559   3.759 -0.7846 -0.7580 -0.0537
  250MOL0     C34400   1.607   5.563   3.913 -0.5932  0.7996  0.1957
  250MOL0     C34401   1.742   5.535   3.996  0.5739  0.2414  1.6707
  250MOL0     C34402   1.741   5.550   4.145  0.3704 -0.2889  0.3009
  250MOL0     C34403   1.880   5.535   4.199 -0.6909  0.3097 -0.6404
  250MOL0     C34404   1.886   5.582   4.348  0.1118  0.0440  0.3516
  250MOL0     C34405   1.906   5.736   4.346  0.5359 -0.5719 -0.6013
  250MOL0     C34406   1.957   5.787   4.476 -0.4336 -0.1769 -0.6752
  250MOL0    Cl34407   2.133   5.757   4.473  0.3019  0.5631 -0.7722
  250MOL0     C34408   1.446   5.697   3.574  0.2701 -0.5004  0.7193
  250MOL0     C34409   1.391   5.755   3.454  0.3012  0.0436 -0.6743
  250MOL0     O34410   1.377   6.119   3.354 -0.0524 -0.0574 -0.0716
  250MOL0     C34411   1.353   6.037   3.021  0.3967 -0.6414  0.3280
  250MOL0     C34412   1.363   6.078   2.882  0.8700  0.0295 -0.1882
  250MOL0     N34413   1.104   6.159   2.178 -0.3451  0.4321 -0.5516
  250MOL0     N34414   0.986   6.204   2.205 -0.0765  0.4004 -0.6580
  250MOL0     C34415   0.952   7.007   3.138 -1.2946 -0.7866  0.4570
  250MOL0     C34416   0.921   7.075   3.253  0.6351 -0.3709 -0.2167
  250MOL0     C34417   0.895   7.151   3.715 -0.6370  0.2406  0.6515
  250MOL0     C34418   0.780   7.235   3.706  0.7154  0.2819  1.7046
  250MOL0     C34419   0.706   7.266   3.817  0.4164 -0.0898 -0.3170
  250MOL0     C34420   0.750   7.234   3.947 -0.1818  1.3870 -0.1055
  250MOL0     O34421   0.687   7.304   4.051  0.4801  0.3801  1.1911
  250MOL0     C34422   0.721   7.282   4.186 -0.5859 -0.0464 -0.0444
  250MOL0     C34423   0.639   7.174   4.253 -0.5032  0.2128 -0.2119
  250MOL0     C34424   0.508   7.231   4.313  0.9377  0.3781  0.0367
  250MOL0     C34425   0.419   7.131   4.384 -0.5693 -0.2172 -0.5699
  250MOL0     C34426   0.475   7.108   4.523  0.9309 -0.2872 -0.1854
  250MOL0     C34427   0.525   7.072   4.628  0.7502  0.4565 -0.1932
  250MOL0     C34428   0.863   7.156   3.960  0.1520  0.5529  0.8931
  250MOL0     C34429   0.935   7.113   3.851  0.2442  0.7870  0.5754
  250MOL0     C34430   1.061   7.039   3.876  0.2935  0.2526 -0.5870
  250MOL0     H34431   0.874   6.839   3.477 -3.4020  2.1019 -0.5098
  250MOL0     H34432   0.932   6.696   3.258 -1.5197  0.1203  1.4473
  250MOL0     H34433   0.741   6.711   3.061  0.1804 -0.3715 -0.1917
  250MOL0     H34434   0.881   6.609   3.003  1.1693  0.0509 -1.7046
  250MOL0     H34435   0.739   6.823   2.843 -0.7694 -1.1186  0.8468
  250MOL0     H34436   0.887   6.742   2.785 -0.9139 -0.7948 -0.6989
  250MOL0     H34437   0.638   6.591   2.870 -0.9733 -1.1361 -1.6787
  250MOL0     H34438   0.635   6.677   2.726  0.7398  0.7586  0.5492
  250MOL0     H34439   0.870   6.548   2.683 -0.4976 -1.0647 -1.4756
  250MOL0     H34440   0.820   6.444   2.811 -4.6020 -0.2319  2.4747
  250MOL0     H34441   0.598   6.427   2.666 -1.2595  0.1519 -0.4986
  250MOL0     H34442   0.753   6.328   2.659  1.5137  0.0670 -2.3158
  250MOL0     H34443   0.628   6.405   2.445 -0.4468 -0.4381  0.8723
  250MOL0     H34444   0.708   6.567   2.478  1.1287  0.5308 -0.0810
  250MOL0     H34445   0.921   6.456   2.460 -2.8399  1.7815  3.8125
  250MOL0     H34446   0.840   6.441   2.305  0.7067 -3.2949 -1.0897
  250MOL0     H34447   0.848   6.225   2.507 -1.4861 -0.4462 -0.4247
  250MOL0     H34448   0.764   6.234   2.349 -0.5371  2.8145 -2.2178
  250MOL0     H34449   1.137   6.184   2.487  1.3011  1.0912 -1.0757
  250MOL0     H34450   1.357   6.047   2.211  0.8290 -1.9511  1.3988
  250MOL0     H34451   1.326   6.004   2.362  2.4630  0.5141  1.8808
  250MOL0     H34452   1.523   6.137   2.352  1.2559  2.7848 -0.3057
  250MOL0     H34453   1.436   6.280   2.285 -3.8951  2.3132  1.5090
  250MOL0     H34454   1.469   6.349   2.500  1.3777 -1.1446 -0.5928
  250MOL0     H34455   1.313   6.307   2.488  0.6018  1.1684 -1.1489
  250MOL0     H34456   1.321   6.120   2.638 -0.8319  0.3350 -1.8530
  250MOL0     H34457   1.488   6.086   2.617  0.3814  0.8783  1.0332
  250MOL0     H34458   1.574   6.346   2.947  1.0500 -0.4588 -0.0375
  250MOL0     H34459   1.618   6.230   3.281  1.1781  3.0933  0.6265
  250MOL0     H34460   1.467   6.329   3.289 -1.3568 -0.8899  0.2157
  250MOL0     H34461   1.609   6.379   3.194  1.6078 -1.7528 -1.8804
  250MOL0     H34462   1.648   5.966   3.366 -0.8799  1.0591 -0.8054
  250MOL0     H34463   1.734   5.863   3.576  0.1431  3.3036 -3.3155
  250MOL0     H34464   1.548   5.507   3.715 -0.3444  0.1822 -2.1368
  250MOL0     H34465   1.713   5.497   3.718 -1.0527 -0.7236 -0.6329
  250MOL0     H34466   1.555   5.652   3.949 -2.7348 -1.0861  2.1200
  250MOL0     H34467   1.539   5.480   3.935  0.1022 -0.2210 -1.3070
  250MOL0     H34468   1.815   5.601   3.948 -0.1359  0.1432  0.4042
  250MOL0     H34469   1.771   5.433   3.968  2.1078  0.9619  0.5082
  250MOL0     H34470   1.678   5.476   4.196  0.2228  0.2796  0.9597
  250MOL0     H34471   1.703   5.649   4.173  2.3547  1.4704 -2.6540
  250MOL0     H34472   1.904   5.429   4.184  2.8540  1.1997 -2.4714
  250MOL0     H34473   1.953   5.594   4.142  0.0181 -1.8217 -2.0865
  250MOL0     H34474   1.961   5.525   4.403  1.2207  1.3274  0.2336
  250MOL0     H34475   1.789   5.573   4.399 -0.7622 -2.7574 -1.5987
  250MOL0     H34476   1.811   5.783   4.318 -0.2330 -2.5880 -1.5018
  250MOL0     H34477   1.979   5.762   4.269 -0.8630 -0.0572 -1.7990
  250MOL0     H34478   1.893   5.734   4.546 -0.4665  0.0703 -0.5174
  250MOL0     H34479   1.945   5.894   4.498 -0.7360 -0.7776  2.6691
  250MOL0     H34480   1.389   5.628   3.635  0.3647  1.0334  2.6602
  250MOL0     H34481   1.303   5.712   3.406  1.6797 -2.5576 -1.0763
  250MOL0     H34482   1.292   5.954   3.056  1.3573 -0.8206  1.6868
  250MOL0     H34483   1.299   6.033   2.808  1.0786  1.8246 -1.5266
  250MOL0     H34484   0.969   7.047   3.038  0.1449  0.5893  1.1864
  250MOL0     H34485   0.913   7.184   3.259 -0.0821 -0.4274 -0.0575
  250MOL0     H34486   0.739   7.263   3.610 -1.0490 -3.3873  1.2298
  250MOL0     H34487   0.628   7.340   3.803  1.7995  2.0211  2.2226
  250MOL0     H34488   0.822   7.240   4.185 -0.4509  0.2659 -1.6382
  250MOL0     H34489   0.722   7.379   4.238  2.0242  1.4803 -2.6299
  250MOL0     H34490   0.691   7.140   4.343 -4.7882  2.1931  3.3915
  250MOL0     H34491   0.621   7.097   4.178  0.4900  0.3488 -0.6037
  250MOL0     H34492   0.528   7.315   4.380  1.9991  0.3843 -0.2610
  250MOL0     H34493   0.448   7.279   4.235  3.0298  0.1016 -1.8482
  250MOL0     H34494   0.421   7.030   4.341 -1.2416  0.5581 -2.5503
  250MOL0     H34495   0.321   7.177   4.371 -0.9201 -1.2905 -1.9854
  250MOL0     H34496   0.560   7.022   4.716  0.6982  2.4374  1.0341
  250MOL0     H34497   0.896   7.119   4.056 -2.9653 -0.9184  1.5130
  250MOL0     H34498   1.047   6.943   3.826 -0.6368  1.5556 -3.0113
  250MOL0     H34499   1.139   7.100   3.828  1.9130 -0.5294  0.9149
  250MOL0     H34500   1.095   7.030   3.980  0.8478 -1.5526 -0.8883
  251MOL0     O34501   8.276   8.310   3.047 -0.2267 -0.3902 -0.8705
  251MOL0     C34502   8.252   8.350   2.938 -0.5874 -0.7707 -0.0194
  251MOL0     O34503   8.131   8.383   2.891  0.3885 -0.3525 -1.1414
  251MOL0     C34504   8.012   8.392   2.964  0.2415  0.1369  0.4960
  251MOL0     C34505   7.956   8.517   3.001 -0.0640  0.4224 -0.0981
  251MOL0     C34506   7.826   8.510   3.060  0.3527 -0.6742  0.2829
  251MOL0     C34507   7.758   8.389   3.076  0.1389 -0.7136 -0.5226
  251MOL0     O34508   7.628   8.409   3.129  0.6991 -0.7038  0.2675
  251MOL0     C34509   7.529   8.312   3.108  0.6736 -0.2090  1.5391
  251MOL0     C34510   7.423   8.312   3.207  0.0052  0.2658 -0.1537
  251MOL0     C34511   7.314   8.420   3.185  0.6524  0.3832 -0.1787
  251MOL0     C34512   7.371   8.537   3.257  0.6138 -1.1188 -0.4828
  251MOL0     C34513   7.264   8.646   3.277  0.6406  0.0591 -0.1368
  251MOL0     C34514   7.314   8.781   3.343  0.5779 -0.3428 -0.8273
  251MOL0     C34515   7.372   8.737   3.485 -0.1638  0.4113 -0.4133
  251MOL0     C34516   7.263   8.666   3.571  0.4082 -0.2092 -0.0901
  251MOL0     N34517   7.278   8.684   3.720 -0.1508  0.6308 -0.4638
  251MOL0     C34518   7.375   8.645   3.803  0.0593  0.5885  1.1514
  251MOL0     C34519   7.347   8.701   3.919 -0.1451 -0.2835  0.6015
  251MOL0     C34520   7.422   8.677   4.045 -0.6179 -0.5177  0.2478
  251MOL0     C34521   7.578   8.661   4.033  0.7206  0.4595 -0.2664
  251MOL0     C34522   7.656   8.660   4.168 -0.0138  0.0234  0.2683
  251MOL0     C34523   7.669   8.802   4.227  0.4370  0.7636 -0.5134
  251MOL0     O34524   7.732   8.894   4.135 -0.4403 -0.3349  0.0133
  251MOL0     C34525   7.781   9.011   4.188  1.4170 -0.3541  0.5926
  251MOL0     C34526   7.715   9.091   4.281  0.4077  1.1228  0.4544
  251MOL0     C34527   7.763   9.206   4.337 -0.2118 -0.0046 -0.2451
  251MOL0     C34528   7.683   9.281   4.439 -0.2316 -0.5038  0.0840
  251MOL0     C34529   7.893   9.246   4.307 -0.8545 -0.2257  0.6501
  251MOL0     C34530   7.965   9.371   4.340  1.0838 -0.2077 -0.4283
  251MOL0     O34531   8.095   9.366   4.321  0.0585  0.1029  0.1190
  251MOL0     C34532   8.160   9.470   4.376  0.4032  0.6797  0.1170
  251MOL0     C34533   8.194   9.588   4.307  0.8670 -0.2844  0.1928
  251MOL0     C34534   8.238   9.701   4.372 -0.4415  0.0720 -0.3411
  251MOL0     C34535   8.257   9.694   4.515 -0.0880  0.4555 -0.1991
  251MOL0     O34536   8.298   9.794   4.599 -0.8048 -0.3635  1.1718
  251MOL0     C34537   8.255   9.935   4.568 -0.6373  0.8106 -0.1211
  251MOL0     C34538   8.317  10.044   4.648 -0.6563  0.0468  0.5719
  251MOL0     C34539   8.464  10.072   4.618  0.0054  0.1620 -0.1818
  251MOL0     C34540   8.505  10.227   4.624  0.7727 -0.6495  0.4022
  251MOL0     C34541   8.471  10.305   4.750  0.2582  0.3764  0.6845
  251MOL0     C34542   8.571  10.288   4.858 -0.5760 -0.2343 -0.1703
  251MOL0     C34543   8.561  10.403   4.963  0.1054 -0.4677 -0.3137
  251MOL0     C34544   8.646  10.361   5.088  0.2428 -0.7605  0.5330
  251MOL0    Cl34545   8.568  10.403   5.240 -0.2728  0.0439 -0.2471
  251MOL0     C34546   8.236   9.576   4.581  0.7594  0.0635  0.2428
  251MOL0     C34547   8.194   9.460   4.514  0.0128 -0.3031  1.0019
  251MOL0     O34548   7.903   9.470   4.390 -0.2850 -0.2197 -0.7199
  251MOL0     C34549   7.958   9.167   4.205 -0.7151 -0.0000 -0.0456
  251MOL0     C34550   7.906   9.049   4.152  0.1298  0.2033 -0.1258
  251MOL0     N34551   7.236   8.772   3.912 -0.8822  0.6376 -0.5468
  251MOL0     N34552   7.206   8.769   3.785 -0.7449 -0.2249 -0.0538
  251MOL0     C34553   7.823   8.269   3.053 -0.0168 -0.4190  0.2240
  251MOL0     C34554   7.944   8.271   2.982 -0.3183 -0.1478  0.1329
  251MOL0     C34555   8.369   8.375   2.853 -1.0755 -0.1192  1.0811
  251MOL0     C34556   8.334   8.414   2.723  0.3910  0.1836 -0.0555
  251MOL0     C34557   8.426   8.426   2.617 -0.2643 -0.1873 -0.7719
  251MOL0     C34558   8.553   8.390   2.631  0.0001 -0.1750  0.3882
  251MOL0     O34559   8.636   8.417   2.524 -0.1186  0.1828  1.1602
  251MOL0     C34560   8.757   8.337   2.511 -0.3697 -0.0020 -0.1189
  251MOL0     C34561   8.716   8.192   2.464 -0.3098 -0.1263  0.4113
  251MOL0     C34562   8.828   8.113   2.406  0.5257  0.4170  0.0056
  251MOL0     C34563   8.929   8.066   2.508  0.0252  0.5146 -0.4595
  251MOL0     C34564   9.035   7.986   2.447 -0.2729 -0.1284 -0.6360
  251MOL0     C34565   9.128   7.928   2.407 -0.2508 -0.1071 -0.2376
  251MOL0     C34566   8.598   8.354   2.759  0.1448  0.5296  0.2902
  251MOL0     C34567   8.511   8.339   2.869  0.5637  0.1270  0.5209
  251MOL0     C34568   8.572   8.282   2.998 -0.1462 -1.5556  0.5853
  251MOL0     H34569   8.003   8.615   2.993 -0.7809  1.1273  3.0447
  251MOL0     H34570   7.781   8.601   3.097  0.5535 -0.9405  1.2122
  251MOL0     H34571   7.546   8.207   3.083 -0.2336  0.2453 -1.5236
  251MOL0     H34572   7.489   8.345   3.012  4.0464  1.5148  0.5749
  251MOL0     H34573   7.368   8.219   3.191  1.6037 -0.5918 -0.8729
  251MOL0     H34574   7.462   8.320   3.309  0.4336  2.5716 -0.4511
  251MOL0     H34575   7.290   8.450   3.082 -1.9875  2.3448  0.8830
  251MOL0     H34576   7.224   8.376   3.228  1.9952 -0.8129  1.5691
  251MOL0     H34577   7.418   8.515   3.353  1.2755 -1.4564 -0.8819
  251MOL0     H34578   7.445   8.589   3.195  1.6214  2.4489  3.2551
  251MOL0     H34579   7.186   8.598   3.337 -1.1463  3.5416  0.5894
  251MOL0     H34580   7.220   8.674   3.181 -0.0424 -0.0154  0.1462
  251MOL0     H34581   7.394   8.825   3.283  1.4076  2.1816  1.8717
  251MOL0     H34582   7.232   8.852   3.361 -0.8115 -1.6596 -1.7836
  251MOL0     H34583   7.419   8.815   3.545  0.2248  0.5989 -0.9496
  251MOL0     H34584   7.461   8.672   3.486  1.8225  2.9663 -0.0899
  251MOL0     H34585   7.165   8.703   3.541  0.0979  0.2080  1.3511
  251MOL0     H34586   7.271   8.563   3.536  0.4177 -1.0446  2.1989
  251MOL0     H34587   7.453   8.574   3.777 -0.1838  0.3467  1.0751
  251MOL0     H34588   7.390   8.585   4.095 -2.9269  0.8171  1.3533
  251MOL0     H34589   7.409   8.767   4.105 -0.4873 -2.7765  3.9775
  251MOL0     H34590   7.592   8.565   3.982  0.5387 -0.2426  0.9781
  251MOL0     H34591   7.619   8.744   3.975 -4.6925  1.2646 -3.7487
  251MOL0     H34592   7.598   8.598   4.237 -0.1802  1.9008  1.8916
  251MOL0     H34593   7.746   8.600   4.150 -1.4218 -1.6172 -1.7644
  251MOL0     H34594   7.571   8.829   4.266 -0.3751 -3.6579  1.1402
  251MOL0     H34595   7.740   8.792   4.309  1.5379  0.2705 -1.4824
  251MOL0     H34596   7.614   9.067   4.313  0.6250 -0.4734  0.0326
  251MOL0     H34597   7.584   9.240   4.459 -1.2647  0.7982 -2.0385
  251MOL0     H34598   7.680   9.385   4.404 -0.5578 -0.1787  1.0492
  251MOL0     H34599   7.737   9.270   4.533  0.2473 -2.4163 -0.3705
  251MOL0     H34600   8.158   9.594   4.205 -1.5076 -0.4579  0.9511
  251MOL0     H34601   8.251   9.793   4.315  0.0229 -0.3815 -0.9873
  251MOL0     H34602   8.278   9.954   4.463  1.2543 -1.9328 -0.3224
  251MOL0     H34603   8.148   9.933   4.591 -0.0914 -0.4294  2.8219
  251MOL0     H34604   8.257  10.134   4.636 -0.0367  0.3707 -0.2609
  251MOL0     H34605   8.330  10.007   4.750 -0.3721 -1.5530 -0.0170
  251MOL0     H34606   8.488  10.028   4.521 -0.6018 -2.4395  0.7544
  251MOL0     H34607   8.525  10.017   4.690 -1.8029 -1.0835  0.4744
  251MOL0     H34608   8.455  10.282   4.543  0.0081  0.2509  1.4482
  251MOL0     H34609   8.612  10.236   4.603  0.7004  2.0094  0.8629
  251MOL0     H34610   8.473  10.406   4.709  1.0317 -0.6371 -2.0507
  251MOL0     H34611   8.372  10.282   4.789  0.6786  0.0161  1.5574
  251MOL0     H34612   8.663  10.298   4.801 -1.9915  0.9873 -2.3645
  251MOL0     H34613   8.562  10.189   4.904  3.2632 -2.5402 -3.7315
  251MOL0     H34614   8.458  10.425   4.993  0.5120  0.3940  0.4843
  251MOL0     H34615   8.611  10.491   4.921  0.9110 -0.9651 -0.4201
  251MOL0     H34616   8.746  10.405   5.094 -0.2803  0.4584  0.5668
  251MOL0     H34617   8.658  10.252   5.084 -2.4359 -1.1813  1.8040
  251MOL0     H34618   8.257   9.568   4.687  2.4775  0.2544 -0.0513
  251MOL0     H34619   8.152   9.377   4.569  1.5301 -1.8482 -0.0430
  251MOL0     H34620   8.057   9.197   4.172 -1.3521  3.4109  0.8347
  251MOL0     H34621   7.964   8.989   4.083  2.5677  1.9634  0.2802
  251MOL0     H34622   7.763   8.179   3.065 -0.8450 -0.0473 -0.9055
  251MOL0     H34623   7.995   8.183   2.944  0.3718  0.6289 -0.7810
  251MOL0     H34624   8.230   8.436   2.697  0.2604 -1.1051 -0.6889
  251MOL0     H34625   8.395   8.459   2.519  1.1080 -1.4666 -1.6725
  251MOL0     H34626   8.821   8.386   2.437  0.1447 -0.6078 -0.0814
  251MOL0     H34627   8.799   8.326   2.611  0.5255  1.7593 -0.2688
  251MOL0     H34628   8.635   8.197   2.391  0.3072  0.1685 -0.2652
  251MOL0     H34629   8.694   8.127   2.549 -2.5277  1.5571  1.2496
  251MOL0     H34630   8.794   8.025   2.349  0.7624  0.2627  0.1023
  251MOL0     H34631   8.887   8.168   2.332  1.6064 -0.1242  0.4452
  251MOL0     H34632   8.877   7.999   2.577 -0.9514  2.3462  0.6497
  251MOL0     H34633   8.970   8.148   2.567  0.0861 -0.9354  1.6371
  251MOL0     H34634   9.230   7.897   2.398 -0.6269 -2.3327  2.0388
  251MOL0     H34635   8.698   8.332   2.793 -0.6203  0.8142  2.9314
  251MOL0     H34636   8.674   8.310   3.023 -0.2431 -0.5994 -0.0329
  251MOL0     H34637   8.522   8.338   3.077 -1.5712 -0.6263 -0.8953
  251MOL0     H34638   8.551   8.175   3.005  1.5083 -1.9672 -0.2464
  252MOL0     O34639   4.078   1.743   5.424  0.4563 -0.1951 -0.4809
  252MOL0     C34640   4.136   1.660   5.351  0.2085  0.3666 -0.3078
  252MOL0     O34641   4.069   1.578   5.268 -0.5099  0.4014  0.6135
  252MOL0     C34642   3.939   1.531   5.273  0.1710 -0.8927  0.3432
  252MOL0     C34643   3.890   1.460   5.159 -0.7398 -0.7167  0.1925
  252MOL0     C34644   3.775   1.397   5.155 -0.3695 -0.0328 -0.2664
  252MOL0     C34645   3.701   1.394   5.275  0.0651  0.4080 -0.0010
  252MOL0     O34646   3.589   1.321   5.279 -0.4007 -0.1329 -0.0797
  252MOL0     C34647   3.578   1.225   5.394  0.7715 -0.4533  0.0902
  252MOL0     C34648   3.486   1.101   5.343  0.3931 -0.8632 -0.9192
  252MOL0     C34649   3.344   1.160   5.302  0.3006 -0.5788 -0.2068
  252MOL0     C34650   3.277   1.065   5.203 -0.7028  0.0876 -0.8856
  252MOL0     C34651   3.138   1.096   5.201  0.3165 -1.1227 -0.8155
  252MOL0     C34652   3.066   0.976   5.145 -0.5185 -0.0790  0.4565
  252MOL0     C34653   2.911   1.016   5.108 -0.5857  0.2023 -0.4603
  252MOL0     C34654   2.892   1.080   4.976 -0.0266  0.1745  0.1131
  252MOL0     N34655   2.753   1.117   4.952 -0.0490  0.0066 -0.2633
  252MOL0     C34656   2.672   1.033   4.885  0.7212  0.3546  0.2544
  252MOL0     C34657   2.555   1.097   4.888  0.3347 -0.4892 -0.0045
  252MOL0     C34658   2.444   1.024   4.817 -0.3166  0.4824 -0.1973
  252MOL0     C34659   2.410   1.095   4.674 -0.0321  0.6460 -0.4883
  252MOL0     C34660   2.353   1.237   4.680  0.1906 -0.1869 -0.7247
  252MOL0     C34661   2.301   1.294   4.549 -0.2326 -0.8041 -1.2785
  252MOL0     O34662   2.223   1.411   4.586  0.7007 -0.2817 -1.2698
  252MOL0     C34663   2.191   1.508   4.489  0.1695  0.2619  0.0825
  252MOL0     C34664   2.225   1.499   4.355 -1.0036 -0.6299  1.2981
  252MOL0     C34665   2.174   1.597   4.259  0.1412  0.0251  0.3973
  252MOL0     C34666   2.208   1.583   4.115  0.0249  0.3704 -0.0050
  252MOL0     C34667   2.112   1.717   4.301 -0.1711 -0.2612 -0.2206
  252MOL0     C34668   2.076   1.840   4.216  0.5232  0.3474  0.2131
  252MOL0     O34669   2.049   1.820   4.081  1.0594 -0.0902  0.0552
  252MOL0     C34670   2.029   1.932   4.004 -0.7738 -0.1080 -1.0279
  252MOL0     C34671   1.904   1.965   3.946 -0.2905  0.3186  0.0099
  252MOL0     C34672   1.883   2.086   3.875  0.7350 -1.1446 -0.6363
  252MOL0     C34673   1.996   2.175   3.856  0.7499 -0.4428 -0.7159
  252MOL0     O34674   1.960   2.292   3.801 -0.4822  0.4512  0.2824
  252MOL0     C34675   2.063   2.388   3.774 -0.0334  0.2990  1.5583
  252MOL0     C34676   2.089   2.481   3.889  0.1243  1.2748 -0.4134
  252MOL0     C34677   2.125   2.620   3.829  0.0978  0.1809  0.4022
  252MOL0     C34678   2.012   2.724   3.847  0.4567  0.8129 -0.3253
  252MOL0     C34679   2.052   2.872   3.831 -0.1786 -0.1612 -0.0393
  252MOL0     C34680   1.926   2.963   3.837  0.8461 -0.2590  0.2470
  252MOL0     C34681   1.878   3.013   3.700 -0.8838 -0.5568 -0.1084
  252MOL0     C34682   1.790   3.131   3.710  0.0824  0.3763 -0.1219
  252MOL0    Cl34683   1.728   3.185   3.547  0.3605 -0.3014 -0.3377
  252MOL0     C34684   2.119   2.141   3.918 -0.3070 -0.9007 -1.0968
  252MOL0     C34685   2.129   2.024   3.988 -1.1615 -0.3109 -0.1083
  252MOL0     O34686   2.060   1.942   4.278 -0.2128 -0.9710  0.2322
  252MOL0     C34687   2.081   1.734   4.438 -0.2015  0.5980  0.2634
  252MOL0     C34688   2.105   1.619   4.522  0.3483 -1.0766  0.0095
  252MOL0     N34689   2.565   1.224   4.947  0.4340 -0.4935  0.1614
  252MOL0     N34690   2.687   1.234   4.983 -0.7033  0.0965  1.3693
  252MOL0     C34691   3.739   1.471   5.383 -0.9503  0.6205 -1.4895
  252MOL0     C34692   3.860   1.538   5.385 -0.5850  0.4540  0.4588
  252MOL0     C34693   4.282   1.645   5.354  1.0412 -0.7648 -0.8763
  252MOL0     C34694   4.344   1.606   5.235 -0.4155 -0.5504 -0.8670
  252MOL0     C34695   4.486   1.593   5.223  1.0234 -0.2715 -0.1378
  252MOL0     C34696   4.569   1.606   5.329  0.3206 -0.0738 -0.2520
  252MOL0     O34697   4.706   1.597   5.331 -0.3605  0.1038  0.8677
  252MOL0     C34698   4.781   1.568   5.208 -0.2134  0.4115  0.5575
  252MOL0     C34699   4.915   1.635   5.196  0.4392  0.0557 -0.2814
  252MOL0     C34700   5.019   1.556   5.282  0.8194 -0.5525  0.3423
  252MOL0     C34701   5.015   1.591   5.429 -0.0595  0.3681  0.3820
  252MOL0     C34702   5.054   1.734   5.455  0.0942  0.2329 -0.2068
  252MOL0     C34703   5.091   1.839   5.488  0.0359  0.2886 -0.6608
  252MOL0     C34704   4.507   1.626   5.458 -0.1365 -0.4307  1.1559
  252MOL0     C34705   4.370   1.655   5.465  0.3485 -0.0026 -0.1532
  252MOL0     C34706   4.310   1.667   5.600 -0.5849 -0.5812  0.3587
  252MOL0     H34707   3.949   1.443   5.070 -2.5653 -1.7796 -0.8818
  252MOL0     H34708   3.752   1.333   5.070  0.0758 -2.3442  1.2452
  252MOL0     H34709   3.522   1.266   5.478  1.1585  1.7852 -0.6935
  252MOL0     H34710   3.675   1.191   5.430 -0.1805 -0.4303  2.9060
  252MOL0     H34711   3.532   1.037   5.268 -0.1558 -3.3621  0.7479
  252MOL0     H34712   3.466   1.036   5.429  0.2570 -4.1375 -3.2699
  252MOL0     H34713   3.291   1.153   5.398  0.3860  1.1284  0.0018
  252MOL0     H34714   3.341   1.262   5.262  0.5449  0.0550  1.3187
  252MOL0     H34715   3.332   1.074   5.109  1.9509  3.4849  0.7464
  252MOL0     H34716   3.305   0.967   5.244 -0.5319 -0.3018 -1.9128
  252MOL0     H34717   3.115   1.191   5.154  1.9834  1.5248  3.1915
  252MOL0     H34718   3.103   1.116   5.302 -0.1349 -1.5527 -0.8782
  252MOL0     H34719   3.105   0.926   5.056 -1.3153  2.1669 -1.2480
  252MOL0     H34720   3.077   0.904   5.227  5.5704  2.6665  2.5861
  252MOL0     H34721   2.876   1.078   5.191  0.3999  0.5665 -0.3103
  252MOL0     H34722   2.847   0.928   5.119  2.5091 -1.9490  1.9833
  252MOL0     H34723   2.966   1.159   4.961  0.1416  0.1718  0.8966
  252MOL0     H34724   2.912   1.001   4.902 -3.0886 -0.4655 -0.2040
  252MOL0     H34725   2.692   0.928   4.866 -0.3679 -0.3844  2.7664
  252MOL0     H34726   2.348   1.012   4.867 -0.4920 -2.6248 -1.0740
  252MOL0     H34727   2.469   0.918   4.807 -2.0370  0.0216  0.0990
  252MOL0     H34728   2.506   1.100   4.621  1.7775 -3.0513  1.9753
  252MOL0     H34729   2.338   1.035   4.618 -0.3134  0.2322  0.3082
  252MOL0     H34730   2.278   1.232   4.759 -0.6845  3.5463 -1.1084
  252MOL0     H34731   2.431   1.303   4.720 -0.6905  0.2626  0.2932
  252MOL0     H34732   2.389   1.316   4.487  0.6517 -1.6944 -0.3775
  252MOL0     H34733   2.237   1.221   4.501 -0.0269 -2.2559  0.5514
  252MOL0     H34734   2.286   1.414   4.323  0.2791  0.7098  0.0206
  252MOL0     H34735   2.115   1.571   4.059  0.7953  2.3302 -1.8458
  252MOL0     H34736   2.275   1.498   4.103  1.0913  1.1106  0.5106
  252MOL0     H34737   2.256   1.677   4.084  0.2536 -0.0629 -0.9898
  252MOL0     H34738   1.823   1.892   3.946 -0.2862  0.3099  0.8049
  252MOL0     H34739   1.783   2.109   3.839 -0.4834 -0.2554  2.8523
  252MOL0     H34740   2.158   2.353   3.732 -1.4991  1.0727 -2.8974
  252MOL0     H34741   2.030   2.451   3.691 -0.4140  0.1553  1.5988
  252MOL0     H34742   1.990   2.482   3.935 -0.0732 -1.7892 -0.6056
  252MOL0     H34743   2.166   2.445   3.957  2.8800 -1.0857 -4.3738
  252MOL0     H34744   2.153   2.624   3.723 -0.2453 -0.1108  0.2958
  252MOL0     H34745   2.206   2.656   3.893 -0.3788 -0.9165  1.6773
  252MOL0     H34746   1.970   2.712   3.947 -1.6363  1.2740 -1.0947
  252MOL0     H34747   1.924   2.708   3.783 -0.3626  0.8005  0.7739
  252MOL0     H34748   2.133   2.906   3.895 -0.0845  0.8054 -0.6540
  252MOL0     H34749   2.088   2.878   3.728 -2.9214 -3.7856 -1.4747
  252MOL0     H34750   1.964   3.050   3.891 -2.0796  1.0034  0.4647
  252MOL0     H34751   1.843   2.915   3.890 -1.0298  0.4552 -1.8982
  252MOL0     H34752   1.839   2.937   3.632 -0.1393 -2.5718  1.5929
  252MOL0     H34753   1.964   3.056   3.648 -1.5871  1.9386  0.6604
  252MOL0     H34754   1.851   3.207   3.759 -2.7618  3.2017 -0.6585
  252MOL0     H34755   1.712   3.101   3.782 -0.3394  0.3220 -0.5933
  252MOL0     H34756   2.203   2.209   3.905  0.0251 -1.1330 -0.2109
  252MOL0     H34757   2.218   1.997   4.045 -2.1296 -0.8361  1.1937
  252MOL0     H34758   2.030   1.824   4.472  1.4438  1.8824 -0.5263
  252MOL0     H34759   2.074   1.625   4.626 -1.2676 -1.1504 -0.4532
  252MOL0     H34760   3.687   1.451   5.476  0.0490 -1.5352 -1.3429
  252MOL0     H34761   3.890   1.582   5.480 -1.6125 -0.0449  1.0266
  252MOL0     H34762   4.288   1.595   5.143 -0.8054 -0.6199 -0.6266
  252MOL0     H34763   4.522   1.578   5.122  0.3353  1.9547 -0.7658
  252MOL0     H34764   4.793   1.459   5.201 -1.5511  0.0633  2.8715
  252MOL0     H34765   4.718   1.600   5.124  0.2530  1.0748  0.4527
  252MOL0     H34766   4.911   1.740   5.227 -0.4252 -0.3213  0.9691
  252MOL0     H34767   4.938   1.614   5.091  3.2299  0.3237  0.2030
  252MOL0     H34768   5.002   1.454   5.247 -2.2880 -1.0444  2.7454
  252MOL0     H34769   5.117   1.591   5.249 -1.0608  2.5722 -2.6198
  252MOL0     H34770   5.098   1.532   5.467  0.6098  1.2857  0.3863
  252MOL0     H34771   4.921   1.561   5.476 -0.4976  2.3936  0.9331
  252MOL0     H34772   5.128   1.937   5.512 -3.8545  1.7465  0.2384
  252MOL0     H34773   4.572   1.657   5.539  0.0869  0.5178  0.6324
  252MOL0     H34774   4.317   1.774   5.624 -3.6620  0.2491 -1.8753
  252MOL0     H34775   4.202   1.655   5.609 -0.8007  2.0178  2.8512
  252MOL0     H34776   4.360   1.596   5.666  2.0686 -0.6156 -1.5511
  253MOL0     O34777   7.051   5.181   8.339 -1.1449 -0.6449  0.4035
  253MOL0     C34778   7.151   5.253   8.334 -0.0774  0.3055  0.3221
  253MOL0     O34779   7.280   5.211   8.319  0.7954  0.2153 -0.2746
  253MOL0     C34780   7.313   5.075   8.347  1.1502  0.0249  0.1294
  253MOL0     C34781   7.360   4.992   8.250 -0.3348 -0.2178  0.1979
  253MOL0     C34782   7.419   4.870   8.287  0.1377  0.5558  0.4878
  253MOL0     C34783   7.426   4.823   8.420 -0.1698 -0.3405 -0.1645
  253MOL0     O34784   7.514   4.717   8.434  0.4993 -0.0560  0.3745
  253MOL0     C34785   7.490   4.641   8.552  0.0612 -0.9491 -0.9636
  253MOL0     C34786   7.586   4.523   8.550  0.7765 -0.4598  0.5588
  253MOL0     C34787   7.733   4.558   8.581 -0.2306 -0.7236 -0.1093
  253MOL0     C34788   7.798   4.420   8.635 -0.5733  0.0162 -0.0519
  253MOL0     C34789   7.949   4.452   8.698  0.6472  0.2675 -0.1015
  253MOL0     C34790   7.999   4.328   8.778 -0.3438  0.1677  0.4857
  253MOL0     C34791   8.146   4.332   8.802 -0.6872 -0.5969 -0.1859
  253MOL0     C34792   8.229   4.293   8.693 -0.0856  0.2308  1.0714
  253MOL0     N34793   8.188   4.171   8.617  0.1529  0.3301 -0.0462
  253MOL0     C34794   8.096   4.184   8.506  0.3511  0.4662  0.4591
  253MOL0     C34795   8.107   4.059   8.453 -0.0496  0.2963  0.3934
  253MOL0     C34796   8.039   4.016   8.327  0.6949 -0.0912  0.2005
  253MOL0     C34797   7.880   4.035   8.333 -0.1308  0.5830 -0.5535
  253MOL0     C34798   7.822   3.933   8.231 -0.5649  0.4214  0.0408
  253MOL0     C34799   7.682   3.965   8.183  0.4506 -0.2736  0.4594
  253MOL0     O34800   7.632   3.878   8.081  0.1454 -0.4658 -0.4681
  253MOL0     C34801   7.521   3.915   8.008 -0.9129 -0.3767 -1.1078
  253MOL0     C34802   7.513   3.850   7.890  0.3479 -0.4449 -0.4173
  253MOL0     C34803   7.423   3.894   7.794  0.2496 -0.1869  0.1678
  253MOL0     C34804   7.434   3.811   7.664  0.1336  0.0515  0.1012
  253MOL0     C34805   7.323   3.997   7.827 -0.7365  0.3945 -0.6027
  253MOL0     C34806   7.223   4.040   7.723 -0.5250  0.3469 -0.4147
  253MOL0     O34807   7.245   4.000   7.588  0.6598 -0.5304 -0.0504
  253MOL0     C34808   7.170   4.064   7.489  0.0494  0.4627 -0.6438
  253MOL0     C34809   7.203   4.182   7.437 -0.0559 -0.6509 -0.1320
  253MOL0     C34810   7.129   4.238   7.323 -0.0671 -0.3106 -0.9516
  253MOL0     C34811   7.024   4.166   7.267  1.0068  1.5237  0.2637
  253MOL0     O34812   6.943   4.203   7.162 -0.2146 -0.8819  0.2020
  253MOL0     C34813   6.983   4.148   7.034  0.1709  0.3119 -0.8579
  253MOL0     C34814   6.878   4.194   6.941 -0.1561  0.1716  0.7780
  253MOL0     C34815   6.918   4.303   6.841 -0.2189 -0.0347  0.6277
  253MOL0     C34816   6.992   4.248   6.725 -1.0125 -0.1711 -0.1538
  253MOL0     C34817   7.074   4.358   6.663  0.4892 -0.1855 -0.7182
  253MOL0     C34818   7.152   4.306   6.543  0.2437 -0.0618 -0.1442
  253MOL0     C34819   7.246   4.406   6.483  0.1464  0.3323  1.2579
  253MOL0     C34820   7.299   4.378   6.334  0.6888  0.4380 -0.7926
  253MOL0    Cl34821   7.357   4.205   6.320  0.1746  0.0009  0.1288
  253MOL0     C34822   6.988   4.046   7.330  0.1447 -0.1741 -0.1054
  253MOL0     C34823   7.057   3.998   7.442 -0.6227 -0.2654 -0.5832
  253MOL0     O34824   7.129   4.106   7.763  0.1633  0.0092  0.6108
  253MOL0     C34825   7.318   4.055   7.958 -0.1588  0.7944 -0.2872
  253MOL0     C34826   7.422   4.010   8.040 -0.0735 -0.2997 -0.3261
  253MOL0     N34827   8.204   3.983   8.507 -0.1831 -0.5453  0.3374
  253MOL0     N34828   8.253   4.047   8.603 -0.3868 -0.9574  0.2903
  253MOL0     C34829   7.366   4.905   8.514  0.0794  0.2346 -1.4765
  253MOL0     C34830   7.305   5.026   8.479 -0.2356 -0.9801  0.8448
  253MOL0     C34831   7.123   5.388   8.296 -1.0650  0.1080 -0.6229
  253MOL0     C34832   7.190   5.457   8.196 -0.0736 -0.2554 -0.1809
  253MOL0     C34833   7.169   5.593   8.169  0.2772  0.0163  0.6922
  253MOL0     C34834   7.087   5.668   8.244  0.0365 -0.3170 -0.1436
  253MOL0     O34835   7.078   5.798   8.206 -0.4866 -0.5393  0.3327
  253MOL0     C34836   6.995   5.890   8.278  0.1853 -0.2881  0.1741
  253MOL0     C34837   6.848   5.908   8.225 -0.4875  0.2050  0.7365
  253MOL0     C34838   6.760   6.003   8.312  0.1268 -0.3984 -0.1165
  253MOL0     C34839   6.619   6.004   8.256 -0.9026  0.2129  0.0565
  253MOL0     C34840   6.567   6.141   8.279 -0.6703 -0.8106 -0.4870
  253MOL0     C34841   6.534   6.258   8.311 -0.1036 -0.9385  0.2712
  253MOL0     C34842   7.014   5.602   8.341  0.2209  0.9643  0.5350
  253MOL0     C34843   7.029   5.465   8.378 -0.0900  0.0503  0.7791
  253MOL0     C34844   6.942   5.415   8.493  0.0739 -0.2443 -0.5584
  253MOL0     H34845   7.362   5.019   8.145 -0.4217 -1.5774 -0.1724
  253MOL0     H34846   7.459   4.811   8.205 -1.0390  0.2888  0.0845
  253MOL0     H34847   7.385   4.613   8.565 -0.8391  3.3356  4.7223
  253MOL0     H34848   7.515   4.698   8.642  0.5559  0.2238 -1.8167
  253MOL0     H34849   7.551   4.461   8.633 -0.9477 -1.6012 -0.9363
  253MOL0     H34850   7.563   4.462   8.462 -0.9330  0.3012  0.4303
  253MOL0     H34851   7.784   4.584   8.488 -2.3807  1.5869 -0.7462
  253MOL0     H34852   7.741   4.635   8.658 -0.3885  2.0429 -2.7030
  253MOL0     H34853   7.737   4.396   8.722  0.8352 -1.1771  0.6605
  253MOL0     H34854   7.793   4.342   8.558 -1.6737 -1.5446  1.5102
  253MOL0     H34855   7.953   4.537   8.767  0.3887  0.4524 -0.3144
  253MOL0     H34856   8.024   4.471   8.621 -2.1828 -1.0564 -3.4469
  253MOL0     H34857   7.949   4.318   8.875 -0.6771 -0.2753  0.2721
  253MOL0     H34858   7.977   4.235   8.726 -2.0045 -0.6229  2.4568
  253MOL0     H34859   8.166   4.266   8.887 -4.1627  1.2387  2.3172
  253MOL0     H34860   8.172   4.432   8.837 -1.7917 -0.7383  1.1005
  253MOL0     H34861   8.243   4.378   8.626  0.0727 -0.6093  0.0086
  253MOL0     H34862   8.333   4.279   8.723  0.9878  4.0405 -0.2926
  253MOL0     H34863   8.049   4.272   8.464  2.4426  0.6021 -1.7704
  253MOL0     H34864   8.056   3.909   8.308 -2.8189 -1.1616  2.3214
  253MOL0     H34865   8.079   4.060   8.235  0.8591 -0.9824 -0.1678
  253MOL0     H34866   7.838   4.007   8.430  2.1819  1.7052  0.8429
  253MOL0     H34867   7.856   4.140   8.318 -1.0233  1.6462  5.6563
  253MOL0     H34868   7.890   3.919   8.146  0.8103 -0.6984  1.2567
  253MOL0     H34869   7.833   3.831   8.268  0.4239 -1.1821 -4.0774
  253MOL0     H34870   7.619   3.957   8.272  1.8418 -1.9134  1.3644
  253MOL0     H34871   7.686   4.070   8.153 -0.7690  0.0263  1.3114
  253MOL0     H34872   7.600   3.790   7.862  0.0685 -0.1038 -2.0979
  253MOL0     H34873   7.515   3.738   7.672  1.0202  0.9885 -0.0425
  253MOL0     H34874   7.444   3.864   7.569  0.8119  0.3015  0.3041
  253MOL0     H34875   7.343   3.751   7.660 -0.8390  1.3978  1.1213
  253MOL0     H34876   7.289   4.232   7.481  2.2487 -4.9406  0.7158
  253MOL0     H34877   7.181   4.325   7.285  2.8104 -0.1662  2.6952
  253MOL0     H34878   7.084   4.185   7.015  0.4382  1.9615  2.8358
  253MOL0     H34879   6.974   4.039   7.038  1.1039  0.2608  1.0003
  253MOL0     H34880   6.847   4.116   6.870  1.9591  0.7656 -0.9157
  253MOL0     H34881   6.783   4.226   6.986  0.2314  3.0640 -0.2583
  253MOL0     H34882   6.988   4.372   6.890  1.1151 -0.7996 -0.1425
  253MOL0     H34883   6.823   4.345   6.807  1.3555  2.1223 -1.4541
  253MOL0     H34884   6.925   4.210   6.647  1.2362 -1.9871 -1.2979
  253MOL0     H34885   7.064   4.172   6.755  1.5244  1.5742 -1.4473
  253MOL0     H34886   7.010   4.446   6.653 -1.3519 -1.3130  0.5976
  253MOL0     H34887   7.139   4.393   6.744 -1.5049  1.0471  0.4341
  253MOL0     H34888   7.091   4.269   6.460 -0.4647  2.7853 -1.0038
  253MOL0     H34889   7.215   4.221   6.571  1.3373  0.3084 -1.3630
  253MOL0     H34890   7.329   4.423   6.553 -1.2761  3.2702  2.3889
  253MOL0     H34891   7.202   4.505   6.471 -3.6368 -1.1241  1.6961
  253MOL0     H34892   7.371   4.453   6.301 -0.7667  1.0312 -2.8212
  253MOL0     H34893   7.217   4.397   6.265  1.7333  0.0673 -2.1791
  253MOL0     H34894   6.908   3.983   7.293 -0.0546 -2.4054  3.5760
  253MOL0     H34895   7.027   3.908   7.493  1.4591  1.9245  5.4140
  253MOL0     H34896   7.249   4.133   7.988  3.7969  4.7719 -0.3644
  253MOL0     H34897   7.423   4.059   8.137 -1.1298  0.8127 -0.8457
  253MOL0     H34898   7.360   4.868   8.616  2.1231  1.3538 -0.9064
  253MOL0     H34899   7.260   5.088   8.556  0.1047  0.6339 -0.2031
  253MOL0     H34900   7.268   5.412   8.135  0.1070  1.2719 -1.1390
  253MOL0     H34901   7.222   5.626   8.080 -0.3779 -1.5566 -0.3184
  253MOL0     H34902   6.986   5.862   8.383  1.5705  0.0504  0.4021
  253MOL0     H34903   7.046   5.986   8.268 -0.8855  0.2972  0.2241
  253MOL0     H34904   6.800   5.812   8.204  2.6613 -1.3006 -0.2687
  253MOL0     H34905   6.857   5.941   8.121  0.4934 -0.4767  0.5879
  253MOL0     H34906   6.761   5.966   8.415  2.9583  2.9271  1.2681
  253MOL0     H34907   6.802   6.104   8.304 -0.2552 -0.0854  1.4314
  253MOL0     H34908   6.554   5.936   8.312 -0.4117 -3.0522 -2.9733
  253MOL0     H34909   6.626   5.976   8.150 -2.6559  0.3433 -0.1146
  253MOL0     H34910   6.509   6.361   8.325 -2.6335 -1.5565  0.8779
  253MOL0     H34911   6.948   5.651   8.413 -3.2879 -1.7291 -0.5521
  253MOL0     H34912   6.985   5.330   8.546 -2.5004 -0.6635  1.0631
  253MOL0     H34913   6.927   5.498   8.562  1.9158 -2.2462  2.4456
  253MOL0     H34914   6.841   5.391   8.456 -0.4125  0.4600  0.2888
  254MOL0     O34915   0.697   9.700   6.018  0.1476  0.1227  0.2878
  254MOL0     C34916   0.730   9.605   5.944 -0.1634 -0.3356 -1.4238
  254MOL0     O34917   0.856   9.589   5.907  0.4141 -0.3723  0.9554
  254MOL0     C34918   0.949   9.678   5.944 -0.4655 -0.2521  0.9322
  254MOL0     C34919   1.049   9.656   6.045 -0.5103 -0.4252  0.9180
  254MOL0     C34920   1.159   9.743   6.048  0.3242 -0.3185  0.0092
  254MOL0     C34921   1.162   9.866   5.969 -0.4830  0.0823 -0.1243
  254MOL0     O34922   1.272   9.946   5.944  0.0311  0.1486 -0.2252
  254MOL0     C34923   1.383   9.911   6.034 -0.2069 -1.2415 -0.9575
  254MOL0     C34924   1.498   9.999   5.982  0.1038  0.7847  0.0108
  254MOL0     C34925   1.635   9.980   6.042  0.0239  0.8194  0.3391
  254MOL0     C34926   1.723  10.101   6.046 -0.4167 -0.6503 -1.2521
  254MOL0     C34927   1.748  10.156   5.905  0.9485 -0.0726 -1.0264
  254MOL0     C34928   1.852  10.263   5.906 -0.1201 -0.8090 -0.6198
  254MOL0     C34929   1.882  10.326   5.764 -0.2840 -0.6171  0.6794
  254MOL0     C34930   1.963  10.224   5.679  0.7386  1.4976 -0.0046
  254MOL0     N34931   1.969  10.262   5.536 -0.3110 -0.0157 -0.3979
  254MOL0     C34932   2.019  10.377   5.486 -0.9337 -0.6686  1.0302
  254MOL0     C34933   1.999  10.363   5.347  0.4944 -0.2473 -0.9479
  254MOL0     C34934   2.035  10.472   5.256  0.5559 -0.1493 -0.5443
  254MOL0     C34935   2.159  10.435   5.176 -1.6519  0.0892  0.0387
  254MOL0     C34936   2.295  10.484   5.244 -0.7361 -0.1946 -0.2925
  254MOL0     C34937   2.330  10.632   5.217 -0.8461 -0.0397 -0.0342
  254MOL0     O34938   2.252  10.722   5.311 -0.4385 -0.1255  0.0291
  254MOL0     C34939   2.314  10.769   5.421 -0.4743  0.0201  1.1527
  254MOL0     C34940   2.265  10.875   5.490  1.0446 -0.7047 -0.5718
  254MOL0     C34941   2.331  10.927   5.601 -0.1294  0.6176  0.0998
  254MOL0     C34942   2.257  11.048   5.658  0.4695 -0.2112  0.4087
  254MOL0     C34943   2.443  10.860   5.653 -0.9409 -1.5492  0.3585
  254MOL0     C34944   2.527  10.905   5.765  0.4943 -0.2075  0.4736
  254MOL0     O34945   2.614  10.819   5.809  1.1019  0.1135 -1.2990
  254MOL0     C34946   2.691  10.857   5.921  0.8973  0.4209 -0.0434
  254MOL0     C34947   2.736  10.975   5.973  0.4800 -0.3061  0.6720
  254MOL0     C34948   2.816  10.971   6.078  0.1119  0.5114 -1.2010
  254MOL0     C34949   2.850  10.857   6.154  0.4333  0.9773  0.3273
  254MOL0     O34950   2.926  10.861   6.271  0.0793  0.3651 -0.2436
  254MOL0     C34951   3.037  10.951   6.274 -0.1354 -0.2949 -0.3399
  254MOL0     C34952   3.137  10.912   6.387 -0.4897  0.0801  0.2996
  254MOL0     C34953   3.099  10.967   6.525 -0.5801 -0.6642 -0.6226
  254MOL0     C34954   3.191  10.910   6.637  0.0758  0.0610 -0.0138
  254MOL0     C34955   3.130  10.946   6.777  0.7321 -0.6705  0.0626
  254MOL0     C34956   3.211  10.891   6.887  0.0025  0.0279  0.5769
  254MOL0     C34957   3.193  10.940   7.029 -0.3572  0.0337  0.2557
  254MOL0     C34958   3.292  10.873   7.125 -0.1306 -0.2659 -0.1667
  254MOL0    Cl34959   3.260  10.938   7.290 -0.5086 -0.3582  0.1639
  254MOL0     C34960   2.802  10.729   6.108 -0.0702 -0.7901 -0.4781
  254MOL0     C34961   2.722  10.733   5.984 -0.3014 -0.0654  0.7562
  254MOL0     O34962   2.503  11.016   5.807 -0.8871 -0.5342 -0.0060
  254MOL0     C34963   2.488  10.747   5.588 -0.1324  0.3762 -0.8695
  254MOL0     C34964   2.418  10.694   5.478 -0.9378  0.7278 -0.2075
  254MOL0     N34965   1.923  10.246   5.327 -0.0340 -0.6818 -0.6148
  254MOL0     N34966   1.902  10.191   5.441 -0.0514 -0.2184  0.2385
  254MOL0     C34967   1.048   9.897   5.897 -1.3843 -0.7399 -0.5838
  254MOL0     C34968   0.957   9.800   5.869 -0.0200 -0.2172  0.4048
  254MOL0     C34969   0.622   9.501   5.900  0.2857 -0.0342  0.5644
  254MOL0     C34970   0.669   9.387   5.835 -1.5293  0.0922  0.6017
  254MOL0     C34971   0.579   9.294   5.776  0.0057 -0.6843  0.8424
  254MOL0     C34972   0.445   9.314   5.783 -0.3855  0.0621  0.3932
  254MOL0     O34973   0.345   9.234   5.732 -0.1106  0.1498 -0.2196
  254MOL0     C34974   0.377   9.132   5.637  0.2897  0.0492  0.5266
  254MOL0     C34975   0.243   9.080   5.579 -0.3689  0.2343 -1.0177
  254MOL0     C34976   0.140   9.023   5.679  0.7963  1.1941  0.5650
  254MOL0     C34977   0.014   8.955   5.614 -0.1223  0.2140  1.1206
  254MOL0     C34978   0.052   8.818   5.551 -0.4081 -0.6287 -0.1349
  254MOL0     C34979   0.081   8.722   5.491  0.6514  0.1266 -0.0219
  254MOL0     C34980   0.399   9.426   5.844 -0.1275 -0.0916 -0.1474
  254MOL0     C34981   0.481   9.519   5.899  0.3726  0.0449  0.2777
  254MOL0     C34982   0.409   9.625   5.973  0.2660 -1.1025 -0.0715
  254MOL0     H34983   1.051   9.573   6.115  1.7831  0.5684  2.1290
  254MOL0     H34984   1.235   9.717   6.121 -0.3870 -0.1573  0.8251
  254MOL0     H34985   1.408   9.807   6.012  0.8263 -0.4289 -4.2215
  254MOL0     H34986   1.365   9.928   6.141 -1.1934  5.9353 -1.7677
  254MOL0     H34987   1.500   9.983   5.874  0.6454  2.0548 -0.1848
  254MOL0     H34988   1.458  10.100   5.994 -0.5095  0.5906 -0.3390
  254MOL0     H34989   1.642   9.918   6.133  0.2207  0.4699  0.0909
  254MOL0     H34990   1.680   9.916   5.966 -1.7069 -0.1399  0.0623
  254MOL0     H34991   1.687  10.176   6.116  0.6000 -0.2005 -1.1966
  254MOL0     H34992   1.824  10.069   6.074 -0.1553 -1.3358 -2.8227
  254MOL0     H34993   1.653  10.193   5.867 -2.2322 -6.9197 -1.2219
  254MOL0     H34994   1.773  10.080   5.830  0.2697  1.4972 -2.9125
  254MOL0     H34995   1.818  10.343   5.972  0.2924 -0.9562 -0.2259
  254MOL0     H34996   1.948  10.229   5.945 -0.4989 -1.5730 -0.3382
  254MOL0     H34997   1.944  10.416   5.754  0.0050 -1.0702 -2.8184
  254MOL0     H34998   1.779  10.350   5.734 -0.3107  0.5940  1.6678
  254MOL0     H34999   2.066  10.232   5.715  0.0595  5.4899  1.5355
  254MOL0     H35000   1.928  10.122   5.699 -0.9481  2.2346  1.0148
  254MOL0     H35001   2.074  10.453   5.541 -0.1461  1.3332 -2.2963
  254MOL0     H35002   2.056  10.563   5.313 -2.2605 -0.1286  0.6284
  254MOL0     H35003   1.947  10.492   5.194  1.1192  3.0801 -0.4585
  254MOL0     H35004   2.169  10.326   5.168 -1.0706  0.0170  1.4353
  254MOL0     H35005   2.157  10.475   5.075 -0.2058 -2.4596 -1.1046
  254MOL0     H35006   2.287  10.476   5.352 -2.9204 -1.4199 -0.4872
  254MOL0     H35007   2.377  10.421   5.209  1.3942  1.0017  2.2312
  254MOL0     H35008   2.439  10.636   5.224 -0.7184 -3.0127  1.2152
  254MOL0     H35009   2.318  10.651   5.110  0.2084 -2.4584 -0.6642
  254MOL0     H35010   2.181  10.924   5.443  1.1826  0.9019  0.7871
  254MOL0     H35011   2.216  11.020   5.755 -0.8373 -0.0785 -0.0845
  254MOL0     H35012   2.179  11.080   5.588 -0.0528  0.5656  1.3328
  254MOL0     H35013   2.312  11.136   5.689 -0.6444  0.0981  1.6226
  254MOL0     H35014   2.697  11.063   5.923  0.1640 -2.2819 -2.8562
  254MOL0     H35015   2.865  11.064   6.105  0.7166  0.1966 -1.2121
  254MOL0     H35016   3.091  10.946   6.179  1.7680 -0.1853  0.6882
  254MOL0     H35017   2.999  11.052   6.294 -0.3496  0.3310 -3.3867
  254MOL0     H35018   3.137  10.804   6.403 -1.3123 -0.0225 -0.3419
  254MOL0     H35019   3.235  10.950   6.355  0.0539 -2.9448 -2.0853
  254MOL0     H35020   2.999  10.928   6.544 -1.2250  0.7092 -1.0801
  254MOL0     H35021   3.099  11.076   6.528 -0.4490 -0.6568 -0.9311
  254MOL0     H35022   3.294  10.947   6.630 -0.3959  1.0838 -2.0656
  254MOL0     H35023   3.189  10.801   6.628  0.0833 -0.3608  3.5157
  254MOL0     H35024   3.132  11.056   6.771 -0.3037 -0.6888 -1.4510
  254MOL0     H35025   3.030  10.907   6.797 -1.4477  2.0864 -3.8582
  254MOL0     H35026   3.307  10.929   6.851 -0.8431 -0.2441 -2.1875
  254MOL0     H35027   3.219  10.782   6.885  0.6724  0.0785 -0.0128
  254MOL0     H35028   3.095  10.913   7.069 -0.6693 -1.6236 -1.5007
  254MOL0     H35029   3.210  11.047   7.010 -0.3871  0.0668  0.4224
  254MOL0     H35030   3.397  10.887   7.097 -0.0368  0.1972  0.4007
  254MOL0     H35031   3.268  10.766   7.117 -0.1554 -0.1715 -1.5799
  254MOL0     H35032   2.816  10.635   6.159  1.2592 -1.6198 -2.2750
  254MOL0     H35033   2.700  10.638   5.937  0.3998 -0.5093  1.3162
  254MOL0     H35034   2.583  10.700   5.614 -0.7882  0.0868  1.2216
  254MOL0     H35035   2.461  10.605   5.434 -4.0273 -0.6494 -0.7207
  254MOL0     H35036   1.055   9.985   5.834  1.6018  0.6061  1.3740
  254MOL0     H35037   0.873   9.822   5.803  0.8683 -2.4398 -1.6637
  254MOL0     H35038   0.776   9.372   5.825 -2.0197 -2.5306 -2.7820
  254MOL0     H35039   0.624   9.215   5.716  0.2448  0.5980 -0.7243
  254MOL0     H35040   0.446   9.158   5.557 -1.2113  0.7408 -0.5937
  254MOL0     H35041   0.426   9.052   5.693  1.1501  0.1969 -0.0046
  254MOL0     H35042   0.279   9.002   5.511 -1.9424 -1.8646  0.4149
  254MOL0     H35043   0.194   9.157   5.519  0.7091  0.4586 -1.6319
  254MOL0     H35044   0.189   8.937   5.726 -0.9126  0.5981  1.3129
  254MOL0     H35045   0.107   9.103   5.746 -2.7761  0.5496 -0.2237
  254MOL0     H35046  -0.022   9.012   5.528  3.3691  2.1245  0.6952
  254MOL0     H35047  -0.062   8.953   5.692 -0.6221  3.3455  0.8655
  254MOL0     H35048   0.117   8.629   5.453 -0.2383 -0.6815  1.0499
  254MOL0     H35049   0.297   9.434   5.880  0.0850  0.3629  0.3664
  254MOL0     H35050   0.444   9.728   5.973 -1.6393 -0.4008  0.8986
  254MOL0     H35051   0.304   9.632   5.942  0.0631 -2.9919  0.0842
  254MOL0     H35052   0.418   9.582   6.073  3.7825 -1.7641 -0.5355
  255MOL0     O35053   7.013   2.680   7.637  0.2515 -0.6523  0.1312
  255MOL0     C35054   7.072   2.747   7.539  0.1597  0.3899  0.5977
  255MOL0     O35055   7.045   2.730   7.403  0.4166  0.4295 -0.4441
  255MOL0     C35056   6.916   2.698   7.372  0.2388 -0.3376  0.4718
  255MOL0     C35057   6.799   2.752   7.439 -0.5316 -0.1528  0.3684
  255MOL0     C35058   6.673   2.725   7.401  0.4600  0.6762 -0.4135
  255MOL0     C35059   6.660   2.644   7.284  0.3558 -0.8020 -0.6492
  255MOL0     O35060   6.539   2.619   7.238 -0.1605  0.1206  0.3045
  255MOL0     C35061   6.517   2.610   7.100  0.0368 -0.0122  0.0615
  255MOL0     C35062   6.366   2.627   7.083  0.3533 -0.2813 -0.3022
  255MOL0     C35063   6.302   2.757   7.120 -0.1159  0.4774  0.0558
  255MOL0     C35064   6.144   2.747   7.097  0.4014 -0.3148  0.2307
  255MOL0     C35065   6.052   2.849   7.173  0.7154  0.7724 -0.2605
  255MOL0     C35066   6.075   2.865   7.322 -0.9181 -0.4996 -0.4698
  255MOL0     C35067   5.953   2.924   7.392  0.8613 -0.3956  0.2415
  255MOL0     C35068   5.960   3.076   7.417 -0.7540 -0.3519 -0.8901
  255MOL0     N35069   6.002   3.108   7.556 -0.4370 -0.4971  0.3664
  255MOL0     C35070   5.940   3.080   7.673 -0.0211  0.4093  0.5679
  255MOL0     C35071   6.013   3.139   7.770  0.6975  0.3425 -0.2788
  255MOL0     C35072   5.985   3.135   7.918  0.7774  0.0722  0.5556
  255MOL0     C35073   5.934   3.267   7.973  0.2821  0.6847 -0.5521
  255MOL0     C35074   6.028   3.383   7.955 -1.2311  0.2225 -0.7331
  255MOL0     C35075   6.160   3.377   8.042  0.2924  0.0400  0.7525
  255MOL0     O35076   6.137   3.358   8.179  0.3661 -0.7495  0.2629
  255MOL0     C35077   6.243   3.305   8.249  0.3264 -0.2599  0.7289
  255MOL0     C35078   6.378   3.323   8.212  0.3438  0.8513 -0.9900
  255MOL0     C35079   6.479   3.268   8.297  0.4940  0.5771  0.4529
  255MOL0     C35080   6.621   3.307   8.260  0.2380  0.4478  0.0502
  255MOL0     C35081   6.449   3.180   8.399  0.7560  0.0639 -0.3163
  255MOL0     C35082   6.542   3.128   8.498 -0.4910 -1.6635 -0.8598
  255MOL0     O35083   6.507   3.007   8.548 -0.3227 -0.0102  0.7145
  255MOL0     C35084   6.601   2.943   8.619  0.6260  0.3221 -0.5317
  255MOL0     C35085   6.555   2.881   8.732  0.8835 -0.5423 -0.3672
  255MOL0     C35086   6.642   2.811   8.821  0.3910  0.7634  0.1757
  255MOL0     C35087   6.778   2.799   8.776 -0.0780 -0.1677  1.3585
  255MOL0     O35088   6.866   2.723   8.852  0.3323 -0.3913 -0.3644
  255MOL0     C35089   6.882   2.781   8.985 -0.3487  0.6414  0.6861
  255MOL0     C35090   7.026   2.786   9.024  0.2380 -0.1155 -0.2277
  255MOL0     C35091   7.089   2.640   9.031 -0.6157 -0.8185  0.0162
  255MOL0     C35092   7.229   2.643   9.092  1.0153  0.8953 -0.0733
  255MOL0     C35093   7.281   2.506   9.133 -0.6016  0.2217 -0.9963
  255MOL0     C35094   7.416   2.512   9.206  0.1644 -0.4871  0.4507
  255MOL0     C35095   7.526   2.554   9.108 -0.6138  0.5722  0.0060
  255MOL0     C35096   7.661   2.487   9.159  0.6211 -0.5141 -0.0270
  255MOL0    Cl35097   7.695   2.539   9.337  0.6653 -0.1752 -0.0876
  255MOL0     C35098   6.816   2.852   8.651 -0.3882  0.6210 -0.0731
  255MOL0     C35099   6.729   2.922   8.578 -0.6288  0.6282 -0.0115
  255MOL0     O35100   6.632   3.194   8.542 -1.0692 -0.7254  0.6115
  255MOL0     C35101   6.314   3.149   8.420  0.0347  0.0483  0.9137
  255MOL0     C35102   6.219   3.215   8.347 -0.3542 -0.6864 -0.6706
  255MOL0     N35103   6.124   3.199   7.714 -0.1195  0.2171 -0.6042
  255MOL0     N35104   6.127   3.175   7.580  0.3702 -0.4584  0.3400
  255MOL0     C35105   6.775   2.596   7.216 -0.3077 -0.0933  0.1653
  255MOL0     C35106   6.905   2.627   7.256 -0.3013  0.0053  0.7229
  255MOL0     C35107   7.196   2.824   7.564 -0.7809  0.1911  0.4691
  255MOL0     C35108   7.298   2.764   7.631 -0.0534  0.1547 -0.2162
  255MOL0     C35109   7.416   2.829   7.660  0.4894 -0.4849 -0.0426
  255MOL0     C35110   7.429   2.968   7.616 -0.3435 -0.0839 -0.7557
  255MOL0     O35111   7.540   3.039   7.647  0.2784  0.5282  0.1318
  255MOL0     C35112   7.670   2.989   7.618 -0.2332 -0.4110 -0.2597
  255MOL0     C35113   7.774   3.086   7.670  1.0410 -0.0690 -0.4027
  255MOL0     C35114   7.908   3.053   7.608 -0.1999  0.6461 -0.0216
  255MOL0     C35115   8.009   3.071   7.719  0.8506 -0.1316  0.2918
  255MOL0     C35116   8.018   3.210   7.763 -0.4351  0.1756  0.1771
  255MOL0     C35117   8.016   3.329   7.798 -1.2064 -0.3174  0.4890
  255MOL0     C35118   7.315   3.032   7.565 -0.4931 -0.2272 -0.4462
  255MOL0     C35119   7.205   2.962   7.523  0.2608  0.0740  0.1574
  255MOL0     C35120   7.092   3.031   7.454 -0.2513  0.3083  0.1190
  255MOL0     H35121   6.812   2.824   7.519  0.6155  1.0787 -0.8680
  255MOL0     H35122   6.589   2.749   7.465  0.6560 -1.6086  0.8221
  255MOL0     H35123   6.550   2.511   7.066 -2.5146  0.0130 -2.9572
  255MOL0     H35124   6.566   2.686   7.038 -2.4214 -0.2062 -2.2868
  255MOL0     H35125   6.350   2.611   6.976  1.7477  0.9614 -0.7358
  255MOL0     H35126   6.316   2.550   7.142 -0.1606  0.6244  0.4649
  255MOL0     H35127   6.326   2.771   7.226  1.1944 -1.5528  0.0870
  255MOL0     H35128   6.359   2.822   7.053 -2.9835  1.3776 -1.6922
  255MOL0     H35129   6.124   2.759   6.990  2.4353  5.1680  0.1384
  255MOL0     H35130   6.112   2.648   7.132  1.2747 -0.3482  0.9793
  255MOL0     H35131   5.951   2.806   7.166  1.8177 -1.9248 -1.0053
  255MOL0     H35132   6.054   2.946   7.123 -2.6062  0.6050 -0.9589
  255MOL0     H35133   6.085   2.760   7.352 -0.9314 -0.5992 -0.8080
  255MOL0     H35134   6.160   2.932   7.337  0.5937 -2.3264 -0.5004
  255MOL0     H35135   5.937   2.884   7.493  2.4156 -1.8671 -0.0737
  255MOL0     H35136   5.858   2.898   7.343  0.8256 -1.7618  0.9932
  255MOL0     H35137   6.018   3.129   7.341 -2.6022  2.1906 -0.6580
  255MOL0     H35138   5.857   3.113   7.410 -0.6138  0.9816  2.5234
  255MOL0     H35139   5.847   3.026   7.686  0.9232 -0.8447  2.7326
  255MOL0     H35140   6.073   3.095   7.969  1.1600 -2.5509 -1.8977
  255MOL0     H35141   5.906   3.060   7.926  1.0514 -0.4616 -1.3443
  255MOL0     H35142   5.843   3.310   7.928  1.4036  3.0101 -0.7553
  255MOL0     H35143   5.929   3.243   8.079  2.0818  0.5825 -0.4597
  255MOL0     H35144   6.053   3.401   7.851  4.5920  1.7654  0.5749
  255MOL0     H35145   5.974   3.475   7.983  2.3149  2.2778  0.0260
  255MOL0     H35146   6.221   3.297   7.999  2.8508  2.8469 -1.2551
  255MOL0     H35147   6.205   3.473   8.015 -2.8630  1.0341 -1.5979
  255MOL0     H35148   6.400   3.391   8.130  0.7965  2.6459  0.5585
  255MOL0     H35149   6.648   3.407   8.294 -0.9698  1.0316 -0.6220
  255MOL0     H35150   6.625   3.313   8.151  0.8131  2.8463  0.1587
  255MOL0     H35151   6.693   3.232   8.296 -0.6233 -0.5692 -0.2792
  255MOL0     H35152   6.451   2.894   8.761  1.5005  1.5635  1.1334
  255MOL0     H35153   6.595   2.775   8.912  0.6133 -2.2898 -0.8061
  255MOL0     H35154   6.839   2.881   8.989  0.9390  1.2428  0.2500
  255MOL0     H35155   6.828   2.733   9.067 -2.5530  0.5455 -0.7339
  255MOL0     H35156   7.079   2.844   8.949  0.4999  0.5044  0.4315
  255MOL0     H35157   7.029   2.835   9.122 -1.1234 -1.6052  0.6187
  255MOL0     H35158   7.090   2.585   8.936 -0.6215  1.9419 -1.6776
  255MOL0     H35159   7.035   2.582   9.106  0.5353 -0.1482  1.4014
  255MOL0     H35160   7.235   2.715   9.174  1.0799  2.9432 -1.7908
  255MOL0     H35161   7.295   2.687   9.017 -0.3246  2.4451 -0.4222
  255MOL0     H35162   7.205   2.477   9.206 -0.9733 -0.4516 -1.6382
  255MOL0     H35163   7.282   2.430   9.054  2.5679 -2.3662  1.2394
  255MOL0     H35164   7.433   2.412   9.246 -0.0882  0.8201  4.2781
  255MOL0     H35165   7.436   2.581   9.288  0.6880 -0.7852  0.5763
  255MOL0     H35166   7.567   2.655   9.115  1.4996 -0.3525  3.1810
  255MOL0     H35167   7.508   2.531   9.002  0.3785 -2.2095  0.3610
  255MOL0     H35168   7.739   2.521   9.091  0.2350 -0.0779 -0.2568
  255MOL0     H35169   7.657   2.378   9.157  1.2202 -0.5353 -0.3831
  255MOL0     H35170   6.919   2.844   8.618  0.2505 -2.1693  2.2027
  255MOL0     H35171   6.771   2.964   8.487  0.4698  0.7037  0.5130
  255MOL0     H35172   6.287   3.081   8.500 -1.9922  2.0269  2.0416
  255MOL0     H35173   6.116   3.192   8.369 -0.6455  0.5692 -0.6369
  255MOL0     H35174   6.758   2.543   7.122  0.3510  2.4176 -1.4520
  255MOL0     H35175   6.985   2.597   7.188 -1.5682 -3.3953  0.5328
  255MOL0     H35176   7.294   2.658   7.658 -1.8587  0.5568  1.3486
  255MOL0     H35177   7.502   2.786   7.710  1.5945  0.1718 -1.3049
  255MOL0     H35178   7.691   2.890   7.660 -2.2913 -0.3752  0.9598
  255MOL0     H35179   7.697   2.979   7.513  3.9625  1.8107  0.3670
  255MOL0     H35180   7.773   3.080   7.779 -0.3769  0.1396 -0.3892
  255MOL0     H35181   7.747   3.189   7.646  0.1942 -0.3604 -0.7297
  255MOL0     H35182   7.908   2.951   7.569 -0.3877  1.0342 -1.0576
  255MOL0     H35183   7.935   3.115   7.522  1.4689  1.0042  0.7035
  255MOL0     H35184   8.107   3.031   7.692  2.0929  1.4865  2.0943
  255MOL0     H35185   7.986   3.006   7.804 -1.3934  2.0982  1.5000
  255MOL0     H35186   8.007   3.435   7.813 -3.1728 -0.1122 -1.5136
  255MOL0     H35187   7.309   3.137   7.541 -2.0099 -0.0602  0.5387
  255MOL0     H35188   6.996   2.998   7.495 -0.0641 -1.8737 -1.0972
  255MOL0     H35189   7.106   3.139   7.468 -2.9565  0.5844  1.4125
  255MOL0     H35190   7.084   2.993   7.352  2.5252 -1.2441  0.3812
  256MOL0     O35191  10.801   1.755   0.855 -0.3091  0.2628  0.2596
  256MOL0     C35192  10.771   1.678   0.944 -0.7609 -1.3010 -0.1843
  256MOL0     O35193  10.827   1.676   1.070 -0.3352  0.6146  0.1837
  256MOL0     C35194  10.916   1.763   1.109 -1.9205 -0.0151 -0.0647
  256MOL0     C35195  10.926   1.902   1.069  0.8081  1.1465  0.1107
  256MOL0     C35196  11.031   1.973   1.109 -0.4377 -1.0159 -0.3060
  256MOL0     C35197  11.138   1.925   1.189  0.6289  0.5285  0.0760
  256MOL0     O35198  11.239   2.014   1.229  0.6806  0.3067  0.8815
  256MOL0     C35199  11.246   2.155   1.196  0.5767  0.7531 -0.9636
  256MOL0     C35200  11.386   2.200   1.231  0.3042  0.2020 -0.3151
  256MOL0     C35201  11.423   2.335   1.175  0.2599 -0.2078 -0.3248
  256MOL0     C35202  11.327   2.441   1.218 -0.4407 -0.5164  0.7681
  256MOL0     C35203  11.366   2.575   1.157  0.1774 -0.1695  0.2882
  256MOL0     C35204  11.510   2.626   1.175 -0.2304 -0.6356 -0.0642
  256MOL0     C35205  11.520   2.771   1.136 -0.3055  0.4537  0.0483
  256MOL0     C35206  11.662   2.804   1.111  0.6905 -0.2878 -0.3297
  256MOL0     N35207  11.685   2.949   1.085  0.6470 -0.3337  0.6082
  256MOL0     C35208  11.651   3.016   0.969 -0.6290  0.2016 -0.1667
  256MOL0     C35209  11.735   3.130   0.972  0.1746 -0.0862 -0.0412
  256MOL0     C35210  11.754   3.223   0.859  0.0984 -0.7083  0.4993
  256MOL0     C35211  11.891   3.229   0.786  0.7401  0.4024 -0.4637
  256MOL0     C35212  11.929   3.112   0.700 -0.1508  1.7369  0.4892
  256MOL0     C35213  12.028   3.022   0.773  1.7738  0.0823  0.1295
  256MOL0     O35214  12.156   3.084   0.762 -0.4929 -0.3183  0.7186
  256MOL0     C35215  12.257   3.007   0.812 -0.7298 -0.3288  0.7909
  256MOL0     C35216  12.378   3.023   0.751  0.6800 -0.7364  0.8275
  256MOL0     C35217  12.485   2.953   0.789 -0.3780 -0.3293  0.0317
  256MOL0     C35218  12.607   2.986   0.709 -0.2933 -0.0152  0.5798
  256MOL0     C35219  12.488   2.863   0.893  0.3952  0.4531 -0.5209
  256MOL0     C35220  12.606   2.787   0.934 -0.2270  0.5495 -0.5932
  256MOL0     O35221  12.604   2.730   1.060  0.3479  0.0603  0.1397
  256MOL0     C35222  12.716   2.739   1.139  1.1459  0.0420 -0.4689
  256MOL0     C35223  12.840   2.805   1.115 -0.1665 -0.5219  0.5943
  256MOL0     C35224  12.945   2.817   1.208 -0.5917 -0.7093  0.5217
  256MOL0     C35225  12.936   2.723   1.317 -0.0115 -1.9038 -0.5440
  256MOL0     O35226  13.027   2.717   1.414 -0.7079  0.3673  0.4208
  256MOL0     C35227  13.163   2.674   1.373 -0.0026  0.3346  0.4793
  256MOL0     C35228  13.168   2.519   1.347  0.3251  0.0753 -0.5660
  256MOL0     C35229  13.187   2.459   1.484 -0.0206  0.0362 -0.4454
  256MOL0     C35230  13.147   2.308   1.491 -0.3800 -0.4527  0.5415
  256MOL0     C35231  13.197   2.248   1.623  0.5030  0.3517  0.2503
  256MOL0     C35232  13.168   2.328   1.739 -0.1572 -0.8027 -0.0687
  256MOL0     C35233  13.158   2.243   1.868  0.4649  0.0175  0.0417
  256MOL0     C35234  13.174   2.308   2.002 -0.6116  0.5913 -0.2500
  256MOL0    Cl35235  13.345   2.359   2.013 -0.3327 -0.2810  0.5067
  256MOL0     C35236  12.829   2.645   1.327  0.8832  0.8339 -0.6428
  256MOL0     C35237  12.716   2.653   1.251  0.0236 -0.7240 -0.6168
  256MOL0     O35238  12.680   2.751   0.839  0.2277  0.0254 -0.5907
  256MOL0     C35239  12.360   2.839   0.956 -0.1644 -0.1356 -0.0150
  256MOL0     C35240  12.251   2.902   0.905  1.1459 -0.4167  0.6328
  256MOL0     N35241  11.797   3.132   1.089  0.5088  1.0222 -0.6385
  256MOL0     N35242  11.773   3.019   1.153 -0.9304 -0.3364 -0.7119
  256MOL0     C35243  11.119   1.799   1.238 -0.6141  1.1032  0.5178
  256MOL0     C35244  11.021   1.717   1.192  0.4306  0.0048  0.0743
  256MOL0     C35245  10.675   1.569   0.914 -0.0457 -0.2744 -1.0854
  256MOL0     C35246  10.628   1.485   1.022 -0.5738  0.0933  0.5512
  256MOL0     C35247  10.541   1.376   1.001  0.3203 -0.0454 -0.5896
  256MOL0     C35248  10.498   1.343   0.870 -0.1673 -0.5093  0.0290
  256MOL0     O35249  10.411   1.246   0.846 -0.3587  0.8141 -0.1505
  256MOL0     C35250  10.286   1.282   0.790  0.4272  0.3617  0.0881
  256MOL0     C35251  10.221   1.415   0.844  0.4122 -1.0806  0.5916
  256MOL0     C35252  10.191   1.409   0.992 -1.0235 -0.5078  0.5471
  256MOL0     C35253  10.100   1.540   1.023  0.7160 -0.1178 -0.2290
  256MOL0     C35254  10.174   1.666   1.041  0.5789 -0.2465 -0.2799
  256MOL0     C35255  10.236   1.771   1.069  1.0032  0.6522  0.3668
  256MOL0     C35256  10.539   1.432   0.770 -0.3321  1.2683  0.0993
  256MOL0     C35257  10.626   1.544   0.786  1.0927  0.2829  0.2153
  256MOL0     C35258  10.685   1.603   0.659  0.3683 -0.2457  0.6087
  256MOL0     H35259  10.849   1.944   1.006  1.0170  0.9293 -0.2916
  256MOL0     H35260  11.022   2.079   1.091  0.9952 -0.5041  1.6492
  256MOL0     H35261  11.175   2.212   1.257 -1.1692 -2.3971  0.1698
  256MOL0     H35262  11.226   2.167   1.089  0.1558  0.1519 -0.9509
  256MOL0     H35263  11.386   2.211   1.340  3.9929  1.6933 -0.3125
  256MOL0     H35264  11.451   2.116   1.204 -2.1022 -1.9421  0.2013
  256MOL0     H35265  11.526   2.350   1.210 -0.5216 -1.1181  2.5977
  256MOL0     H35266  11.427   2.322   1.066  1.8116  1.4351 -0.5260
  256MOL0     H35267  11.239   2.410   1.161  1.7792 -1.3838 -2.4223
  256MOL0     H35268  11.299   2.446   1.324 -2.2473  0.6293  0.2911
  256MOL0     H35269  11.286   2.639   1.194  0.8418  0.5793  0.4553
  256MOL0     H35270  11.359   2.574   1.047  2.0371 -0.5772  0.1414
  256MOL0     H35271  11.534   2.608   1.281 -0.9746  0.5873  0.3279
  256MOL0     H35272  11.578   2.567   1.114 -1.2422 -0.9319 -0.9355
  256MOL0     H35273  11.487   2.829   1.223  0.4314  1.9219 -0.6069
  256MOL0     H35274  11.460   2.798   1.048 -1.1288 -0.6956  0.2235
  256MOL0     H35275  11.723   2.774   1.197  0.4570  3.2585  1.2350
  256MOL0     H35276  11.691   2.753   1.018  0.3502  0.7208 -1.0046
  256MOL0     H35277  11.575   2.991   0.896 -0.4664  1.4093 -0.7845
  256MOL0     H35278  11.740   3.322   0.903 -1.0220  1.7556 -4.7212
  256MOL0     H35279  11.672   3.223   0.787  1.6498  2.4209 -1.4358
  256MOL0     H35280  11.897   3.319   0.724 -1.1941 -0.1363 -1.5282
  256MOL0     H35281  11.966   3.232   0.865  1.5961  1.5969 -1.2809
  256MOL0     H35282  11.841   3.048   0.683  2.5924 -1.8838 -1.5793
  256MOL0     H35283  11.975   3.128   0.602  2.0390  1.4181  1.4070
  256MOL0     H35284  12.013   2.997   0.879  0.3149 -0.4428 -0.1819
  256MOL0     H35285  12.021   2.922   0.729 -0.3337  0.6061 -0.8584
  256MOL0     H35286  12.375   3.090   0.666  1.6912  2.0781  2.8828
  256MOL0     H35287  12.630   2.916   0.629  0.0757  0.6408  0.1091
  256MOL0     H35288  12.696   2.978   0.772  1.1278 -2.2867 -1.5837
  256MOL0     H35289  12.598   3.087   0.670 -1.7973 -0.8104 -1.2778
  256MOL0     H35290  12.854   2.884   1.043  3.5958 -0.6440  0.9843
  256MOL0     H35291  13.022   2.893   1.198 -2.4635  1.3876  0.9122
  256MOL0     H35292  13.183   2.717   1.275  0.4951  4.8381  2.3013
  256MOL0     H35293  13.236   2.708   1.447 -0.6442  0.9702  0.8350
  256MOL0     H35294  13.081   2.494   1.286 -1.6067 -0.8952  2.3400
  256MOL0     H35295  13.251   2.468   1.296  2.5695  0.4323  2.4284
  256MOL0     H35296  13.137   2.525   1.555 -1.5038  1.4980 -2.6867
  256MOL0     H35297  13.294   2.477   1.497 -0.3596  3.8658 -1.6919
  256MOL0     H35298  13.190   2.247   1.410  1.7074  1.6105 -0.0185
  256MOL0     H35299  13.038   2.310   1.491 -0.3732  0.0773  0.0392
  256MOL0     H35300  13.160   2.145   1.628 -0.9405  0.8108 -0.4556
  256MOL0     H35301  13.306   2.246   1.623  0.6080 -2.5316  2.9039
  256MOL0     H35302  13.075   2.385   1.740  0.7416  1.1642 -4.2101
  256MOL0     H35303  13.244   2.407   1.745 -2.1251  1.2255 -0.5428
  256MOL0     H35304  13.238   2.168   1.870  0.4300 -0.0992 -1.5153
  256MOL0     H35305  13.063   2.190   1.862  1.2922 -1.7962  1.7244
  256MOL0     H35306  13.151   2.228   2.073 -1.4210 -0.1971 -1.3633
  256MOL0     H35307  13.110   2.396   2.014 -2.7114 -0.6299 -1.7938
  256MOL0     H35308  12.837   2.580   1.414  0.7753 -0.6325 -1.6789
  256MOL0     H35309  12.643   2.580   1.285  0.4660 -0.6325  0.5658
  256MOL0     H35310  12.360   2.758   1.028  0.1078 -1.8386 -1.8397
  256MOL0     H35311  12.160   2.898   0.965 -2.3726  0.2236 -4.0788
  256MOL0     H35312  11.186   1.747   1.304  1.5497  1.8243 -0.9959
  256MOL0     H35313  11.032   1.613   1.221  1.5000 -0.5998 -2.3236
  256MOL0     H35314  10.651   1.496   1.127 -0.5706 -2.0352  0.8182
  256MOL0     H35315  10.512   1.317   1.088  1.2922  1.6638  0.9679
  256MOL0     H35316  10.293   1.280   0.681  0.5432  0.7775  0.0873
  256MOL0     H35317  10.227   1.194   0.819 -2.6464  2.9594  2.5551
  256MOL0     H35318  10.127   1.446   0.796  1.2404 -1.0980 -1.1108
  256MOL0     H35319  10.286   1.502   0.829 -1.1543 -0.0395 -0.4909
  256MOL0     H35320  10.140   1.314   1.015  0.5122 -1.1083  1.5987
  256MOL0     H35321  10.282   1.427   1.048 -1.3095 -2.1817  1.6213
  256MOL0     H35322  10.051   1.539   1.121 -0.0929  1.1052 -0.5943
  256MOL0     H35323  10.021   1.554   0.949 -0.4895 -1.0978  0.8306
  256MOL0     H35324  10.280   1.866   1.093  1.5969  0.3471  0.5147
  256MOL0     H35325  10.495   1.397   0.677 -0.9049 -1.5937  1.3368
  256MOL0     H35326  10.639   1.559   0.570  1.3973  2.3747 -1.3529
  256MOL0     H35327  10.664   1.710   0.648  0.5320 -0.0312  2.1709
  256MOL0     H35328  10.793   1.585   0.655  0.0124 -2.6253 -1.0314
  257MOL0     O35329  11.088   8.151   0.592 -0.1855  0.1332 -0.4384
  257MOL0     C35330  11.165   8.100   0.514  1.0470 -0.3064 -0.7088
  257MOL0     O35331  11.125   8.027   0.410 -0.0605  0.7070  0.7533
  257MOL0     C35332  11.001   8.061   0.345 -0.6675 -0.0030 -0.2687
  257MOL0     C35333  10.940   8.193   0.327 -0.7410  0.5757 -0.4996
  257MOL0     C35334  10.819   8.198   0.255  0.0858 -0.6917 -0.4034
  257MOL0     C35335  10.755   8.092   0.197  0.0139  1.1315 -0.7808
  257MOL0     O35336  10.625   8.089   0.148  0.6301 -0.8620  0.5189
  257MOL0     C35337  10.600   8.199   0.065  0.0593  0.4506  0.9923
  257MOL0     C35338  10.580   8.150  -0.087 -0.1524  0.2788  0.2634
  257MOL0     C35339  10.699   8.072  -0.143 -0.6744  0.1939 -0.0319
  257MOL0     C35340  10.711   8.064  -0.297 -0.3891  0.2877 -0.1061
  257MOL0     C35341  10.758   8.190  -0.353  0.5346 -0.2706 -0.0063
  257MOL0     C35342  10.803   8.169  -0.497  0.4458  0.0292  0.1708
  257MOL0     C35343  10.957   8.143  -0.521 -0.8047 -0.2014  0.6074
  257MOL0     C35344  11.053   8.253  -0.479  0.2003  0.5585 -0.0824
  257MOL0     N35345  11.190   8.222  -0.516  0.7235 -0.8799  0.0031
  257MOL0     C35346  11.258   8.101  -0.508 -0.3803 -0.8322  0.2954
  257MOL0     C35347  11.385   8.134  -0.536 -0.4149  0.0125 -0.6418
  257MOL0     C35348  11.508   8.045  -0.560  0.3234 -0.4645 -0.3526
  257MOL0     C35349  11.538   7.962  -0.435  0.2447 -1.1167 -0.0776
  257MOL0     C35350  11.667   7.889  -0.462  0.1308 -0.2546  0.5498
  257MOL0     C35351  11.693   7.765  -0.358  0.3136 -0.5023 -0.1170
  257MOL0     O35352  11.702   7.794  -0.217 -0.1113  0.2418 -0.3012
  257MOL0     C35353  11.732   7.687  -0.127 -0.3370 -0.8922 -1.0952
  257MOL0     C35354  11.741   7.552  -0.161 -0.1837  0.6371 -0.2218
  257MOL0     C35355  11.781   7.460  -0.060 -0.8836  0.1755 -0.4145
  257MOL0     C35356  11.809   7.324  -0.098  0.6417 -0.3542 -0.5824
  257MOL0     C35357  11.810   7.498   0.074  0.0684 -0.2416 -0.2794
  257MOL0     C35358  11.860   7.401   0.170 -0.4761  0.6941  0.2169
  257MOL0     O35359  11.769   7.373   0.267  0.1984  0.8378 -0.2453
  257MOL0     C35360  11.805   7.317   0.393 -0.1231  0.0345 -0.9464
  257MOL0     C35361  11.733   7.206   0.435 -0.7182  0.3248 -0.7849
  257MOL0     C35362  11.757   7.134   0.555 -0.5526 -0.4439 -0.1785
  257MOL0     C35363  11.874   7.164   0.625  0.5799  0.5930 -0.4422
  257MOL0     O35364  11.895   7.102   0.745  0.8153  0.5306  0.0099
  257MOL0     C35365  12.022   7.038   0.750  0.1666  0.0688 -0.1287
  257MOL0     C35366  12.096   7.096   0.869 -0.7293  0.2003  0.1013
  257MOL0     C35367  12.231   7.019   0.892 -0.1651  0.1437  0.4005
  257MOL0     C35368  12.342   7.026   0.786 -0.1268  0.6523  0.0684
  257MOL0     C35369  12.356   6.896   0.696  0.6304  0.0381  0.6758
  257MOL0     C35370  12.452   6.912   0.569 -0.2058  0.4751 -0.0764
  257MOL0     C35371  12.603   6.929   0.600  0.8100  0.0408  0.4749
  257MOL0     C35372  12.679   6.871   0.483 -1.1529  0.1024 -0.2741
  257MOL0    Cl35373  12.846   6.937   0.481 -0.1570  0.3486 -0.4104
  257MOL0     C35374  11.961   7.265   0.572  0.2308  0.1580 -1.4294
  257MOL0     C35375  11.921   7.342   0.458 -0.9883 -0.1309 -1.1761
  257MOL0     O35376  11.974   7.352   0.160 -0.6143  0.0242 -0.2319
  257MOL0     C35377  11.776   7.634   0.109 -0.0398  1.7362  0.2648
  257MOL0     C35378  11.743   7.722   0.009  0.1611  0.6425 -0.0157
  257MOL0     N35379  11.390   8.270  -0.549 -0.5607 -0.9518  0.1874
  257MOL0     N35380  11.277   8.311  -0.554  0.6628 -0.7346  0.3602
  257MOL0     C35381  10.816   7.968   0.215 -0.0631 -0.1904  0.1673
  257MOL0     C35382  10.941   7.951   0.281  0.4969 -0.4308  0.7338
  257MOL0     C35383  11.305   8.128   0.530  0.4476  0.5466 -0.2132
  257MOL0     C35384  11.344   8.177   0.653  1.1874  0.3976 -1.7690
  257MOL0     C35385  11.478   8.197   0.680  0.5509  0.2699  0.2292
  257MOL0     C35386  11.577   8.174   0.585  0.1723  0.4367  0.6540
  257MOL0     O35387  11.705   8.199   0.628 -0.6001 -0.0982 -0.4988
  257MOL0     C35388  11.770   8.319   0.578  1.3281  0.6619  1.0004
  257MOL0     C35389  11.922   8.280   0.566  0.2921  1.1576  0.5786
  257MOL0     C35390  12.039   8.380   0.553  0.1459  0.3998 -0.4383
  257MOL0     C35391  12.001   8.469   0.428 -0.2283 -0.5843 -0.0453
  257MOL0     C35392  11.917   8.582   0.469 -0.7300  0.3864  0.3474
  257MOL0     C35393  11.844   8.672   0.503  0.4879 -0.8941  0.0891
  257MOL0     C35394  11.543   8.107   0.469  0.1453  0.6823 -0.0766
  257MOL0     C35395  11.411   8.081   0.445 -0.1400  1.6509  0.7011
  257MOL0     C35396  11.376   7.990   0.322 -0.7071  0.6588 -0.5932
  257MOL0     H35397  10.976   8.289   0.364 -0.6569  0.6087 -0.6667
  257MOL0     H35398  10.770   8.295   0.246  2.0915  0.7054  2.1854
  257MOL0     H35399  10.678   8.275   0.065  1.3455 -0.7666 -1.1580
  257MOL0     H35400  10.512   8.251   0.105 -0.5880  1.4379 -1.5081
  257MOL0     H35401  10.495   8.082  -0.094  0.3936 -0.5997  1.6217
  257MOL0     H35402  10.563   8.244  -0.140 -0.4314 -0.8946 -1.8504
  257MOL0     H35403  10.796   8.112  -0.113 -1.5583  2.5092  0.0074
  257MOL0     H35404  10.689   7.970  -0.107 -1.9752 -1.0185 -3.3934
  257MOL0     H35405  10.783   7.988  -0.330 -1.0242  0.3283 -1.6607
  257MOL0     H35406  10.616   8.037  -0.344 -0.3983 -5.2221  2.2887
  257MOL0     H35407  10.836   8.237  -0.292  0.3366  1.7398 -1.2199
  257MOL0     H35408  10.674   8.259  -0.349  0.6911 -0.1351  1.4396
  257MOL0     H35409  10.737   8.098  -0.549  1.4200  0.6573 -2.0555
  257MOL0     H35410  10.775   8.260  -0.551 -3.4774 -2.8582 -3.3895
  257MOL0     H35411  10.974   8.132  -0.628 -1.1946 -1.6412  0.6842
  257MOL0     H35412  10.990   8.050  -0.473 -3.2157 -0.4338  1.9547
  257MOL0     H35413  11.023   8.345  -0.530  3.3401  1.6818 -0.1533
  257MOL0     H35414  11.048   8.269  -0.371  1.3018  2.0559 -0.2262
  257MOL0     H35415  11.222   8.001  -0.484 -1.4535 -0.0464  2.1756
  257MOL0     H35416  11.599   8.102  -0.582  0.8294  0.9657  4.3044
  257MOL0     H35417  11.482   7.972  -0.638  1.5087 -1.4044  0.0935
  257MOL0     H35418  11.537   8.023  -0.344 -1.2092  1.2759 -1.5956
  257MOL0     H35419  11.449   7.898  -0.427 -0.6673  0.0548 -0.4450
  257MOL0     H35420  11.650   7.844  -0.560 -2.5498  1.5869  0.0710
  257MOL0     H35421  11.754   7.955  -0.452  1.9444 -1.8254 -3.1373
  257MOL0     H35422  11.615   7.689  -0.371  2.3795 -2.5643 -1.2197
  257MOL0     H35423  11.791   7.731  -0.392  1.4603  2.5982 -0.2510
  257MOL0     H35424  11.729   7.519  -0.264 -3.3821  0.0645  0.2308
  257MOL0     H35425  11.766   7.303  -0.196 -3.5867  0.2955  0.9280
  257MOL0     H35426  11.779   7.257  -0.017 -1.6147 -0.0019 -1.0459
  257MOL0     H35427  11.916   7.311  -0.116  0.5396  0.7947 -2.2877
  257MOL0     H35428  11.657   7.158   0.375  0.3283  0.0551 -1.9257
  257MOL0     H35429  11.689   7.061   0.598  0.1454 -0.4499  0.9626
  257MOL0     H35430  12.010   6.932   0.775 -0.5543  0.1310 -0.1890
  257MOL0     H35431  12.082   7.038   0.659  0.8749 -0.1853  0.3320
  257MOL0     H35432  12.120   7.202   0.860  1.0920 -0.0069  1.7685
  257MOL0     H35433  12.040   7.082   0.962  0.3921 -2.4915  0.4580
  257MOL0     H35434  12.210   6.913   0.914 -0.3782  0.1836  0.3889
  257MOL0     H35435  12.281   7.059   0.981  0.2670  0.3190  0.0857
  257MOL0     H35436  12.441   7.020   0.832  0.1855 -0.6602 -0.7428
  257MOL0     H35437  12.338   7.118   0.727  2.0314 -1.7450 -4.2373
  257MOL0     H35438  12.396   6.813   0.755  1.2155 -0.7864 -0.8324
  257MOL0     H35439  12.260   6.863   0.657  1.3762 -1.9064  0.3986
  257MOL0     H35440  12.421   6.997   0.507  1.8027  0.9086 -0.5656
  257MOL0     H35441  12.440   6.823   0.507 -0.5080 -1.1353  2.1906
  257MOL0     H35442  12.629   6.884   0.696 -2.4226 -1.0609  0.9716
  257MOL0     H35443  12.606   7.038   0.606 -3.3682  0.4786 -1.6651
  257MOL0     H35444  12.649   6.879   0.378  2.5640 -4.4458 -2.0280
  257MOL0     H35445  12.677   6.762   0.496 -1.8887  0.3349  1.9737
  257MOL0     H35446  12.053   7.301   0.619 -0.9626  1.7918 -0.2204
  257MOL0     H35447  11.984   7.423   0.423  0.5081 -1.3767 -1.5218
  257MOL0     H35448  11.791   7.661   0.213  0.6092 -1.4774  1.1177
  257MOL0     H35449  11.705   7.820   0.037 -0.2514  0.2860  0.7125
  257MOL0     H35450  10.770   7.875   0.180  0.6365 -1.5928  2.7223
  257MOL0     H35451  10.987   7.853   0.279 -0.8919 -1.0913  0.2011
  257MOL0     H35452  11.265   8.198   0.724  1.5963 -1.8908 -0.5116
  257MOL0     H35453  11.528   8.236   0.768 -0.1007  1.5881  0.0529
  257MOL0     H35454  11.732   8.362   0.485  4.0260  0.8824 -0.0718
  257MOL0     H35455  11.745   8.397   0.651 -5.3700  1.8414 -1.8335
  257MOL0     H35456  11.923   8.222   0.473 -1.6990 -0.6143  1.5887
  257MOL0     H35457  11.934   8.211   0.650  0.0929  2.1387  1.4356
  257MOL0     H35458  12.063   8.433   0.646 -1.2288 -2.3783  1.6352
  257MOL0     H35459  12.129   8.326   0.523 -1.5137 -1.2485 -2.7605
  257MOL0     H35460  11.952   8.413   0.347  2.7756 -1.1496 -1.6110
  257MOL0     H35461  12.086   8.507   0.371 -0.5433 -0.3048 -0.3372
  257MOL0     H35462  11.769   8.748   0.515  1.7192  0.6998 -1.6753
  257MOL0     H35463  11.622   8.094   0.396 -3.0648  2.5617 -4.3162
  257MOL0     H35464  11.297   8.028   0.255 -0.8279  0.2838 -0.6680
  257MOL0     H35465  11.462   7.992   0.254 -0.3142  3.2035 -0.1126
  257MOL0     H35466  11.351   7.889   0.356  1.2718  0.4090  0.2643
  258MOL0     O35467   7.819   9.134   7.119 -0.7229  0.5370 -0.3003
  258MOL0     C35468   7.929   9.081   7.080 -0.7310 -0.3252  0.8401
  258MOL0     O35469   8.018   9.132   6.994 -0.3081 -0.8321  0.1694
  258MOL0     C35470   8.026   9.275   6.987  0.4267 -0.0902 -0.5227
  258MOL0     C35471   7.967   9.346   6.885 -0.1699  0.2405  0.2507
  258MOL0     C35472   8.000   9.477   6.864  0.3837 -0.1245  0.5052
  258MOL0     C35473   8.086   9.554   6.940  0.3226  0.4797  0.1986
  258MOL0     O35474   8.114   9.681   6.909 -0.0945 -0.0821  0.8227
  258MOL0     C35475   8.171   9.772   7.005 -0.4806  0.2687  0.0820
  258MOL0     C35476   8.071   9.823   7.102 -0.6549 -0.6559 -0.8224
  258MOL0     C35477   7.973   9.933   7.063 -0.0401 -0.5352  0.8829
  258MOL0     C35478   7.841   9.894   6.999  0.3378  0.1681 -0.2470
  258MOL0     C35479   7.735  10.011   6.977  0.2331  0.1093  1.2039
  258MOL0     C35480   7.659  10.031   7.104 -0.1128  0.5187 -0.3784
  258MOL0     C35481   7.536  10.128   7.081 -0.8917 -0.4441  0.6063
  258MOL0     C35482   7.438  10.167   7.190  0.2757  0.0208 -0.4165
  258MOL0     N35483   7.321  10.233   7.137 -0.5278  0.4681  0.1032
  258MOL0     C35484   7.225  10.156   7.082  0.4063  0.1008  0.9686
  258MOL0     C35485   7.142  10.239   7.027  0.7834  0.2035 -0.0302
  258MOL0     C35486   7.021  10.205   6.940  0.4184 -0.1580  0.4412
  258MOL0     C35487   6.894  10.220   7.034  0.0038 -0.5599  0.0685
  258MOL0     C35488   6.879  10.360   7.090  0.2816 -1.1084 -0.0579
  258MOL0     C35489   6.837  10.454   6.980 -0.0892 -0.2902  0.3163
  258MOL0     O35490   6.786  10.583   7.032 -0.4171  0.3920  0.3322
  258MOL0     C35491   6.874  10.663   7.103  0.0553 -0.8737 -0.6730
  258MOL0     C35492   7.013  10.675   7.098 -0.6172 -0.1778 -0.8288
  258MOL0     C35493   7.087  10.775   7.171  0.4902 -0.3362 -0.8415
  258MOL0     C35494   7.233  10.767   7.147  0.3492  0.0877 -0.2787
  258MOL0     C35495   7.013  10.866   7.254 -0.1912  0.7651  0.4070
  258MOL0     C35496   7.079  10.987   7.319 -0.4520  0.7921  1.0470
  258MOL0     O35497   7.193  11.031   7.276 -0.1104 -0.1052  0.6820
  258MOL0     C35498   7.241  11.156   7.309 -1.2149  0.0303  0.2656
  258MOL0     C35499   7.240  11.267   7.224 -0.1881  0.0634 -0.5689
  258MOL0     C35500   7.302  11.391   7.257  0.1466 -0.1430 -0.4027
  258MOL0     C35501   7.372  11.403   7.371 -0.2564 -0.5200 -0.1489
  258MOL0     O35502   7.449  11.514   7.402  0.1282 -0.3567 -0.9328
  258MOL0     C35503   7.578  11.512   7.344 -0.7340 -0.4570 -0.2841
  258MOL0     C35504   7.610  11.636   7.250  0.1460  0.0153  0.5656
  258MOL0     C35505   7.603  11.608   7.109 -0.2082 -0.0221 -0.2184
  258MOL0     C35506   7.742  11.547   7.070  0.4559  0.0564 -0.6506
  258MOL0     C35507   7.754  11.499   6.924  1.4187  0.4315 -0.5417
  258MOL0     C35508   7.904  11.460   6.897 -0.0790 -0.0504 -0.2033
  258MOL0     C35509   7.924  11.422   6.748  0.8137 -1.2173 -0.2602
  258MOL0     C35510   8.071  11.425   6.714 -0.3147 -0.7716 -0.2603
  258MOL0    Cl35511   8.143  11.591   6.735  0.1806 -0.2376 -0.4317
  258MOL0     C35512   7.371  11.292   7.458 -0.0387 -0.0809 -0.9054
  258MOL0     C35513   7.317  11.166   7.430  0.8484  0.2166 -0.5328
  258MOL0     O35514   7.021  11.033   7.411 -0.2512 -1.2095 -0.4614
  258MOL0     C35515   6.873  10.859   7.260  0.4694 -0.7643  0.5580
  258MOL0     C35516   6.802  10.758   7.180  0.0810 -0.1173 -0.8080
  258MOL0     N35517   7.188  10.364   7.056 -0.5456  0.8466 -0.4471
  258MOL0     N35518   7.285  10.362   7.129 -0.4405 -0.2645 -0.2170
  258MOL0     C35519   8.124   9.484   7.064 -0.4859 -0.1726  0.5116
  258MOL0     C35520   8.095   9.348   7.082 -0.0146  0.4719  0.5862
  258MOL0     C35521   7.977   8.944   7.132 -0.8751  0.1993 -0.2760
  258MOL0     C35522   8.012   8.840   7.047 -0.0037  0.5369  0.4131
  258MOL0     C35523   8.048   8.712   7.091 -0.2503 -0.0580  0.2512
  258MOL0     C35524   8.043   8.683   7.227  0.6029 -0.0694 -1.1693
  258MOL0     O35525   8.082   8.551   7.264 -0.2392  0.0362  1.0186
  258MOL0     C35526   8.115   8.522   7.396 -0.5358 -0.6231  0.1064
  258MOL0     C35527   8.197   8.395   7.416 -0.1284 -0.3686  0.1570
  258MOL0     C35528   8.327   8.392   7.335 -1.1289 -1.2252 -0.2484
  258MOL0     C35529   8.407   8.264   7.339 -1.1353 -0.0750 -0.2593
  258MOL0     C35530   8.540   8.279   7.282 -0.1753 -0.2288  0.5159
  258MOL0     C35531   8.646   8.309   7.230 -0.4363 -1.1158  0.1639
  258MOL0     C35532   8.008   8.776   7.315 -0.4944 -0.4138  0.2212
  258MOL0     C35533   7.982   8.914   7.271 -0.6886 -0.5405  0.1957
  258MOL0     C35534   7.938   9.010   7.381 -0.0685 -0.5843  0.8905
  258MOL0     H35535   7.900   9.317   6.804 -2.3743  2.8163  0.9923
  258MOL0     H35536   7.952   9.530   6.782 -2.3168 -1.8597  0.8518
  258MOL0     H35537   8.215   9.861   6.958  1.8547 -0.6353  0.4259
  258MOL0     H35538   8.264   9.730   7.045  0.6601  0.3080 -2.3688
  258MOL0     H35539   8.011   9.741   7.142 -0.9781 -0.5189 -1.0230
  258MOL0     H35540   8.129   9.862   7.187  0.2195 -1.7745 -0.8838
  258MOL0     H35541   7.952  10.003   7.145 -2.2343  1.0324 -0.8818
  258MOL0     H35542   8.017   9.997   6.985  1.2988  0.6274  2.5188
  258MOL0     H35543   7.860   9.848   6.901 -1.3079 -2.4965  0.5693
  258MOL0     H35544   7.806   9.802   7.046  1.7148 -0.5956 -0.6359
  258MOL0     H35545   7.666   9.972   6.902  0.7605 -2.0942  1.7851
  258MOL0     H35546   7.789  10.104   6.954 -0.9354  0.0790 -2.2778
  258MOL0     H35547   7.625   9.934   7.143  0.5720  0.7038  0.7236
  258MOL0     H35548   7.735  10.071   7.172  2.4449  2.4651 -4.0361
  258MOL0     H35549   7.489  10.083   6.993  0.0607 -3.5301  1.5229
  258MOL0     H35550   7.579  10.222   7.045 -0.8451 -0.3733  0.8480
  258MOL0     H35551   7.396  10.076   7.235 -3.7045  1.1122 -1.4618
  258MOL0     H35552   7.479  10.230   7.269 -1.4102  0.9975 -0.2694
  258MOL0     H35553   7.222  10.047   7.080  0.9291  0.0493  2.2107
  258MOL0     H35554   7.030  10.104   6.899  1.9365 -0.1560  0.7166
  258MOL0     H35555   7.019  10.268   6.851  1.7176  1.6098  1.6011
  258MOL0     H35556   6.821  10.193   6.958 -0.0330  0.3989 -0.2575
  258MOL0     H35557   6.886  10.164   7.128 -0.7450  1.6904  1.4451
  258MOL0     H35558   6.798  10.341   7.160  0.8041 -1.0183  0.5744
  258MOL0     H35559   6.972  10.396   7.136  0.8398 -1.7658 -0.6284
  258MOL0     H35560   6.922  10.469   6.914  0.3252 -2.7904  0.2033
  258MOL0     H35561   6.748  10.409   6.935  0.2892 -1.0474  0.3230
  258MOL0     H35562   7.063  10.611   7.026  0.1013  0.8333 -1.2481
  258MOL0     H35563   7.271  10.667   7.172 -0.3540 -0.3210 -0.7901
  258MOL0     H35564   7.277  10.827   7.227  0.7079 -1.4131  0.7047
  258MOL0     H35565   7.254  10.802   7.046  0.1502  2.3787  0.4157
  258MOL0     H35566   7.181  11.255   7.133  0.2436  0.8314 -0.9578
  258MOL0     H35567   7.301  11.473   7.186  0.3005  0.0229 -0.2136
  258MOL0     H35568   7.642  11.515   7.433 -1.2637 -0.1397  0.0989
  258MOL0     H35569   7.596  11.419   7.289  2.0386  0.2224 -0.6894
  258MOL0     H35570   7.546  11.718   7.282 -1.6506 -2.0702  2.7842
  258MOL0     H35571   7.714  11.657   7.276  0.1316 -1.5377  2.1348
  258MOL0     H35572   7.581  11.703   7.060 -0.2886 -0.8188 -1.7765
  258MOL0     H35573   7.525  11.537   7.081 -2.7789  2.8163 -0.6547
  258MOL0     H35574   7.776  11.470   7.141 -2.2262 -2.9601 -2.4134
  258MOL0     H35575   7.808  11.634   7.061 -0.5006  0.6741 -1.8957
  258MOL0     H35576   7.684  11.414   6.925 -0.3171  1.7676 -1.8103
  258MOL0     H35577   7.726  11.577   6.853  1.6032 -0.1429 -1.2575
  258MOL0     H35578   7.937  11.375   6.957  1.6821  0.4864 -0.3539
  258MOL0     H35579   7.964  11.546   6.928 -2.2161  0.9794  1.3609
  258MOL0     H35580   7.885  11.498   6.679 -0.5042  1.5015  3.1424
  258MOL0     H35581   7.882  11.323   6.731  1.1472 -1.0315 -2.4289
  258MOL0     H35582   8.080  11.390   6.611  1.8695  0.0004 -0.3844
  258MOL0     H35583   8.136  11.356   6.770  1.5324  0.0046 -1.3546
  258MOL0     H35584   7.423  11.305   7.553  1.3617 -2.6166 -1.2329
  258MOL0     H35585   7.334  11.081   7.496  0.3014  0.5955  0.1151
  258MOL0     H35586   6.829  10.932   7.326  0.4256 -1.6516  1.5443
  258MOL0     H35587   6.699  10.724   7.179  0.1204 -0.4125  1.0565
  258MOL0     H35588   8.182   9.537   7.139 -1.2403  2.1854 -0.4889
  258MOL0     H35589   8.138   9.295   7.166 -0.9442  1.1631  1.5259
  258MOL0     H35590   8.015   8.861   6.941  3.1874 -1.3738 -0.0090
  258MOL0     H35591   8.085   8.640   7.019  3.0564  5.4051 -4.4325
  258MOL0     H35592   8.185   8.599   7.430 -0.9365 -1.3236  2.6741
  258MOL0     H35593   8.030   8.533   7.464  0.9735 -0.7831  2.1052
  258MOL0     H35594   8.120   8.320   7.395 -1.7646  0.2682  3.2229
  258MOL0     H35595   8.219   8.382   7.523  0.9700 -1.6323 -0.2030
  258MOL0     H35596   8.326   8.420   7.230  1.3621  0.8346  0.1804
  258MOL0     H35597   8.394   8.470   7.373  0.2964 -2.6206  0.2588
  258MOL0     H35598   8.356   8.184   7.284  1.9641 -0.8344 -2.3245
  258MOL0     H35599   8.439   8.223   7.435  1.1922 -2.2547 -1.8489
  258MOL0     H35600   8.745   8.336   7.202 -0.8469 -0.5329 -0.7975
  258MOL0     H35601   8.024   8.750   7.419  1.5933 -2.5845 -0.5679
  258MOL0     H35602   7.832   9.024   7.405 -0.1896  0.2245 -0.0440
  258MOL0     H35603   7.987   8.999   7.478  0.8377  1.7928  0.7879
  258MOL0     H35604   7.970   9.109   7.346  0.3577 -1.4121 -1.1849
  259MOL0     O35605   8.277   4.821   4.600  0.6288 -0.2418  0.0261
  259MOL0     C35606   8.292   4.755   4.703 -0.2631  0.6058 -0.0236
  259MOL0     O35607   8.366   4.641   4.706 -1.0227 -0.8062  0.3560
  259MOL0     C35608   8.427   4.604   4.593  0.5038  0.1779  0.4857
  259MOL0     C35609   8.567   4.619   4.585  0.0525 -0.4874 -0.1619
  259MOL0     C35610   8.640   4.563   4.477  0.0848  0.6354 -0.0819
  259MOL0     C35611   8.573   4.512   4.364  0.2567  0.0642 -0.2132
  259MOL0     O35612   8.651   4.478   4.251 -0.0086 -0.1256 -0.0905
  259MOL0     C35613   8.583   4.501   4.130 -0.2236 -0.5171  0.3595
  259MOL0     C35614   8.698   4.474   4.016  0.9703  0.4063 -0.4592
  259MOL0     C35615   8.705   4.332   3.977  0.3708  0.1343  0.9167
  259MOL0     C35616   8.577   4.288   3.892 -0.4624 -0.6310 -0.7518
  259MOL0     C35617   8.605   4.164   3.800  0.2936 -0.3870  0.0184
  259MOL0     C35618   8.659   4.037   3.882 -0.3361 -0.6521  0.4013
  259MOL0     C35619   8.701   3.931   3.793 -0.3653  0.3545  0.5520
  259MOL0     C35620   8.735   3.808   3.877  0.8316 -0.5360  0.2298
  259MOL0     N35621   8.787   3.702   3.782  0.0125 -0.4523 -0.4038
  259MOL0     C35622   8.909   3.705   3.713 -0.9420  0.7595  0.1201
  259MOL0     C35623   8.908   3.585   3.658  0.2485 -0.8261  0.1308
  259MOL0     C35624   9.027   3.514   3.600 -0.1987 -0.0871 -0.2878
  259MOL0     C35625   9.061   3.384   3.671 -0.2554  0.7059 -0.3762
  259MOL0     C35626   9.052   3.261   3.575 -0.5168 -0.8137  0.2075
  259MOL0     C35627   9.075   3.134   3.652  0.4492 -0.2758  0.9252
  259MOL0     O35628   9.006   3.124   3.777  0.9107 -0.0326  1.0318
  259MOL0     C35629   8.865   3.115   3.774 -0.5209 -0.0814  0.6127
  259MOL0     C35630   8.802   3.126   3.897  0.3938  0.0024 -0.8399
  259MOL0     C35631   8.670   3.086   3.923 -0.4638  0.7583 -1.2297
  259MOL0     C35632   8.609   3.095   4.060 -0.1876  0.3525  0.6984
  259MOL0     C35633   8.601   3.027   3.827 -0.6637 -0.0655  0.5573
  259MOL0     C35634   8.471   2.965   3.854 -0.2543 -0.1262  0.0569
  259MOL0     O35635   8.449   2.877   3.958  0.7953 -0.0414 -0.9321
  259MOL0     C35636   8.330   2.811   3.972 -0.4108 -0.8531 -0.2678
  259MOL0     C35637   8.335   2.673   3.970 -0.6576  0.3051 -0.4129
  259MOL0     C35638   8.215   2.601   3.979 -0.7940  0.6639 -0.3458
  259MOL0     C35639   8.097   2.664   4.002 -0.1057  0.3819 -0.0393
  259MOL0     O35640   7.992   2.576   4.026  0.8063  0.6185 -0.6324
  259MOL0     C35641   7.862   2.626   4.000  0.6211 -0.4459  0.7444
  259MOL0     C35642   7.754   2.510   4.001  0.2062 -0.3813  0.1797
  259MOL0     C35643   7.766   2.430   4.125  0.1758  0.3051 -0.8792
  259MOL0     C35644   7.650   2.333   4.120 -1.3440  0.1377  0.3416
  259MOL0     C35645   7.533   2.382   4.197  0.4284  1.0796  0.3905
  259MOL0     C35646   7.545   2.448   4.334  0.8112  0.5610  0.6138
  259MOL0     C35647   7.632   2.349   4.411  0.1973 -0.0754 -1.2143
  259MOL0     C35648   7.665   2.403   4.557 -1.0650 -0.5373  1.1989
  259MOL0    Cl35649   7.750   2.563   4.547  0.4210  0.5847  0.2363
  259MOL0     C35650   8.103   2.806   4.025  1.0498 -0.3193  1.0920
  259MOL0     C35651   8.213   2.884   4.004 -0.0411  0.0313 -0.2030
  259MOL0     O35652   8.385   2.986   3.766 -0.6027 -0.0840  0.3430
  259MOL0     C35653   8.654   3.017   3.698  0.3293 -0.5375 -0.9490
  259MOL0     C35654   8.788   3.052   3.673 -1.5646  0.1291  1.0081
  259MOL0     N35655   8.782   3.530   3.663 -0.0117 -0.2811 -0.4100
  259MOL0     N35656   8.710   3.586   3.754 -0.4941 -0.5182  0.7576
  259MOL0     C35657   8.425   4.508   4.368  0.0761 -0.3294  0.2106
  259MOL0     C35658   8.360   4.537   4.487  0.1819 -0.4954 -1.0537
  259MOL0     C35659   8.194   4.774   4.821 -0.4314 -0.0300  0.2446
  259MOL0     C35660   8.181   4.672   4.916 -0.2804 -0.6711 -0.0376
  259MOL0     C35661   8.101   4.681   5.030 -0.2793  0.1902 -0.9068
  259MOL0     C35662   8.028   4.802   5.042 -0.5279 -0.3477 -0.0624
  259MOL0     O35663   7.953   4.804   5.153 -0.2440 -0.2398 -0.0601
  259MOL0     C35664   7.865   4.918   5.170  0.9371 -0.5696  0.8254
  259MOL0     C35665   7.937   5.044   5.226 -0.9639  0.1721 -0.2850
  259MOL0     C35666   8.049   5.006   5.325 -1.0562 -0.3862  0.6507
  259MOL0     C35667   8.091   5.117   5.426  0.2257  0.4924 -0.1082
  259MOL0     C35668   8.089   5.253   5.370 -0.9844  0.5950 -0.3035
  259MOL0     C35669   8.102   5.365   5.330  0.4603 -0.7145 -0.3078
  259MOL0     C35670   8.036   4.905   4.941 -0.3009 -0.4548 -0.2573
  259MOL0     C35671   8.123   4.893   4.833  0.6280 -0.8109 -0.5523
  259MOL0     C35672   8.132   5.020   4.749 -0.6902  0.7437 -0.0524
  259MOL0     H35673   8.618   4.670   4.666 -0.9207 -1.0608  0.8386
  259MOL0     H35674   8.747   4.551   4.472 -0.1154 -0.9304 -3.5596
  259MOL0     H35675   8.538   4.599   4.112 -1.9318 -1.3592 -0.1203
  259MOL0     H35676   8.496   4.435   4.129  1.9683 -3.5890 -0.4468
  259MOL0     H35677   8.675   4.526   3.922 -0.7356 -0.8735 -0.8041
  259MOL0     H35678   8.799   4.502   4.046  1.4563 -3.4403  2.3498
  259MOL0     H35679   8.791   4.324   3.910  0.2442 -1.4059  0.8992
  259MOL0     H35680   8.711   4.264   4.063 -0.3236 -1.1091  0.0176
  259MOL0     H35681   8.497   4.263   3.962 -1.0478 -2.9558 -2.1562
  259MOL0     H35682   8.536   4.372   3.835 -1.0834 -0.3021  0.1677
  259MOL0     H35683   8.690   4.191   3.737  0.8856 -0.3517  0.8187
  259MOL0     H35684   8.517   4.141   3.740  0.3228 -1.6975  0.4385
  259MOL0     H35685   8.743   4.063   3.947  1.9620 -1.1940 -2.1723
  259MOL0     H35686   8.579   4.000   3.947  0.9837 -0.2454  2.3698
  259MOL0     H35687   8.794   3.951   3.738  0.4140 -0.1425  1.6444
  259MOL0     H35688   8.634   3.896   3.714  2.6737  1.3340 -2.7427
  259MOL0     H35689   8.804   3.835   3.958  3.6575  2.3845 -2.8663
  259MOL0     H35690   8.640   3.769   3.915 -0.4453  1.2171 -1.0262
  259MOL0     H35691   8.988   3.780   3.712  0.4879 -0.6565  1.0737
  259MOL0     H35692   9.109   3.586   3.603  0.1829 -0.4751 -1.2815
  259MOL0     H35693   8.999   3.505   3.495  1.0896 -0.7787 -0.5855
  259MOL0     H35694   9.157   3.389   3.723  0.6938  0.1826 -1.9772
  259MOL0     H35695   8.977   3.358   3.736 -0.4282  1.7556 -0.1709
  259MOL0     H35696   8.954   3.254   3.525 -0.8532 -0.1443  0.7551
  259MOL0     H35697   9.120   3.268   3.490 -0.4316 -4.5302 -0.2113
  259MOL0     H35698   9.051   3.046   3.593  3.1839  0.8147 -2.1011
  259MOL0     H35699   9.181   3.132   3.679  1.5701  3.4141 -2.2464
  259MOL0     H35700   8.852   3.166   3.985 -0.3744 -0.9051  0.0383
  259MOL0     H35701   8.684   3.150   4.118 -2.0532  2.9412  0.8055
  259MOL0     H35702   8.599   3.002   4.116 -0.6865  0.3853  0.6640
  259MOL0     H35703   8.510   3.140   4.058  0.6967  2.4068  0.9057
  259MOL0     H35704   8.425   2.619   3.942  0.7717  3.0727 -1.6365
  259MOL0     H35705   8.214   2.492   3.984 -0.4904  0.6309 -0.9366
  259MOL0     H35706   7.840   2.692   4.085  0.2468  2.1777 -1.2754
  259MOL0     H35707   7.857   2.684   3.908 -1.3502 -1.4318  0.1831
  259MOL0     H35708   7.653   2.550   4.005  0.1098 -0.5597 -0.3243
  259MOL0     H35709   7.760   2.458   3.904 -0.8401  2.0270 -1.2815
  259MOL0     H35710   7.769   2.498   4.210  1.6339  0.5787 -1.1289
  259MOL0     H35711   7.864   2.381   4.132 -0.5637 -1.4061 -1.9546
  259MOL0     H35712   7.691   2.238   4.155  2.6458  1.9478  1.1409
  259MOL0     H35713   7.623   2.317   4.015  1.9989 -0.6531 -0.5228
  259MOL0     H35714   7.489   2.464   4.139 -3.7868 -0.4854  1.0139
  259MOL0     H35715   7.463   2.299   4.214  0.0285  1.5964  1.3514
  259MOL0     H35716   7.446   2.476   4.371  0.7865 -1.2129  1.9987
  259MOL0     H35717   7.602   2.542   4.331  1.4288  0.3258  2.9949
  259MOL0     H35718   7.727   2.321   4.364  0.4231 -1.6383  0.0918
  259MOL0     H35719   7.568   2.261   4.423 -1.7166  1.2406 -1.3102
  259MOL0     H35720   7.729   2.336   4.616 -0.1128  0.7980  1.7445
  259MOL0     H35721   7.567   2.425   4.600  0.0810  1.1030  3.1498
  259MOL0     H35722   8.012   2.862   4.046  0.8160 -0.3579  0.2179
  259MOL0     H35723   8.208   2.992   4.006 -4.2771  0.3382 -5.3583
  259MOL0     H35724   8.594   2.992   3.611  1.3885  2.1203 -2.5752
  259MOL0     H35725   8.813   3.038   3.569 -1.4658  6.0613 -0.0971
  259MOL0     H35726   8.367   4.485   4.280 -2.3810  2.0875  1.0631
  259MOL0     H35727   8.252   4.538   4.494  0.2732 -1.5101  1.8145
  259MOL0     H35728   8.248   4.588   4.900  0.8079 -0.2990  2.1440
  259MOL0     H35729   8.072   4.595   5.090  0.2463 -1.1486 -2.4897
  259MOL0     H35730   7.816   4.933   5.073  0.9820  0.1763  0.9137
  259MOL0     H35731   7.781   4.894   5.236  2.5755 -0.3310  3.1280
  259MOL0     H35732   7.859   5.098   5.281 -1.2691 -1.0371  0.5039
  259MOL0     H35733   7.964   5.098   5.135 -4.2768  2.2837 -0.2066
  259MOL0     H35734   8.010   4.921   5.383  2.9094 -1.1361  2.5678
  259MOL0     H35735   8.140   4.965   5.281  0.0183  1.7996  0.7231
  259MOL0     H35736   8.179   5.092   5.486 -0.4525 -1.2646  0.2115
  259MOL0     H35737   8.009   5.119   5.498  0.7519  2.4093  0.4820
  259MOL0     H35738   8.117   5.462   5.287  1.8106 -1.5351 -1.7930
  259MOL0     H35739   7.978   4.996   4.952  1.0282  0.6360 -1.6995
  259MOL0     H35740   8.226   5.072   4.772 -0.4850  0.9248 -1.2685
  259MOL0     H35741   8.126   4.993   4.644 -2.3061  2.5814 -0.4808
  259MOL0     H35742   8.051   5.083   4.789 -1.8693 -2.4015  3.0474
  260MOL0     O35743   4.314   7.525   6.175 -0.1172  0.1373 -0.6702
  260MOL0     C35744   4.404   7.543   6.095  0.4433  0.6675  1.0546
  260MOL0     O35745   4.539   7.537   6.121 -0.3475 -0.6553 -0.3207
  260MOL0     C35746   4.582   7.491   6.241 -0.1595 -0.1611  0.2126
  260MOL0     C35747   4.654   7.372   6.236  0.1967  0.2681  0.5716
  260MOL0     C35748   4.727   7.330   6.355  0.6488  0.2709 -0.8139
  260MOL0     C35749   4.697   7.403   6.477 -0.4399 -0.8061 -0.4894
  260MOL0     O35750   4.749   7.366   6.598  0.2048 -0.7296 -0.5991
  260MOL0     C35751   4.799   7.464   6.696  0.4500  0.2264 -0.3311
  260MOL0     C35752   4.791   7.396   6.837 -0.8426 -0.2372  0.2696
  260MOL0     C35753   4.929   7.332   6.855 -0.1061  0.6384 -0.7266
  260MOL0     C35754   4.932   7.244   6.982 -0.1093 -0.1289  0.5760
  260MOL0     C35755   5.074   7.182   6.989 -0.5784 -0.2837  0.5936
  260MOL0     C35756   5.096   7.073   6.883  0.1146 -0.6182 -0.2424
  260MOL0     C35757   5.241   7.004   6.891  0.9228 -0.6069 -0.5988
  260MOL0     C35758   5.288   6.914   6.776  0.2448  0.4428 -0.8436
  260MOL0     N35759   5.427   6.877   6.781  0.3773 -0.2075 -0.4557
  260MOL0     C35760   5.540   6.955   6.775  0.9572  0.4884 -0.6975
  260MOL0     C35761   5.640   6.868   6.788  0.3560 -0.5993  0.1529
  260MOL0     C35762   5.784   6.888   6.768 -0.8020  0.8444  1.1505
  260MOL0     C35763   5.866   6.901   6.895 -0.5395 -0.8870 -0.8512
  260MOL0     C35764   6.020   6.860   6.888 -0.0531 -0.5916 -1.0294
  260MOL0     C35765   6.029   6.706   6.863  0.7425  0.3236 -0.2184
  260MOL0     O35766   5.960   6.650   6.983 -0.3529  0.7067 -0.2886
  260MOL0     C35767   5.920   6.518   6.965  0.6228 -0.0410  0.2568
  260MOL0     C35768   5.860   6.473   7.087  0.1451  0.2412 -0.1975
  260MOL0     C35769   5.831   6.338   7.102  0.6277 -0.5407  0.5896
  260MOL0     C35770   5.784   6.287   7.236 -1.0447 -0.2629  0.5793
  260MOL0     C35771   5.855   6.254   6.986  0.2829  0.5741 -0.1785
  260MOL0     C35772   5.842   6.108   6.990  0.3548 -0.0501 -0.4447
  260MOL0     O35773   5.901   6.030   7.092 -0.0480 -0.1317 -0.3886
  260MOL0     C35774   5.859   5.899   7.110 -0.6337  0.3629  0.5082
  260MOL0     C35775   5.728   5.854   7.105 -0.0545  0.1365  0.0174
  260MOL0     C35776   5.691   5.720   7.130 -0.2819 -0.4197  0.1445
  260MOL0     C35777   5.796   5.631   7.154 -0.7682  0.2423  0.2809
  260MOL0     O35778   5.754   5.509   7.211  0.2704 -0.3603 -0.5369
  260MOL0     C35779   5.826   5.391   7.225  0.1983  0.3372  0.9015
  260MOL0     C35780   5.733   5.271   7.248  0.5226  0.0424 -1.0391
  260MOL0     C35781   5.630   5.232   7.137 -1.0503 -0.1187 -0.1167
  260MOL0     C35782   5.650   5.093   7.083 -0.0012  0.7956  0.1167
  260MOL0     C35783   5.539   5.065   6.977  0.8159  0.0712 -0.9387
  260MOL0     C35784   5.536   4.912   6.950 -0.1685 -0.4708  0.6183
  260MOL0     C35785   5.454   4.866   6.833  0.4658  0.1179 -0.1355
  260MOL0     C35786   5.440   4.721   6.850  0.4995 -0.0999  0.8402
  260MOL0    Cl35787   5.329   4.663   6.727  0.0593  0.2284 -0.0501
  260MOL0     C35788   5.932   5.675   7.152 -0.1463  0.2565 -0.6397
  260MOL0     C35789   5.955   5.811   7.135  0.1889  0.4681 -0.8069
  260MOL0     O35790   5.756   6.075   6.909 -0.1451  0.3477 -0.4570
  260MOL0     C35791   5.906   6.307   6.865 -0.3712  0.3557 -0.8765
  260MOL0     C35792   5.933   6.437   6.852  0.1576 -0.4645  0.1021
  260MOL0     N35793   5.597   6.745   6.803 -0.0261 -0.1895  0.4648
  260MOL0     N35794   5.475   6.753   6.788 -0.5386  0.8222  0.7459
  260MOL0     C35795   4.621   7.519   6.474 -0.4100 -0.6553  1.0513
  260MOL0     C35796   4.563   7.571   6.354  0.2140 -0.2413  0.1763
  260MOL0     C35797   4.369   7.579   5.958  0.0115  0.4423  0.5511
  260MOL0     C35798   4.402   7.481   5.858  0.0140 -0.2943 -0.0533
  260MOL0     C35799   4.393   7.527   5.726  0.5837 -0.3293  0.7101
  260MOL0     C35800   4.350   7.648   5.687 -0.3889 -0.3676  0.3936
  260MOL0     O35801   4.345   7.661   5.552 -0.5766  0.8166 -1.1350
  260MOL0     C35802   4.350   7.789   5.492 -0.5322 -0.0892 -0.1490
  260MOL0     C35803   4.227   7.821   5.409  0.1800  0.4658  0.1179
  260MOL0     C35804   4.209   7.976   5.374  0.1250  0.2318  0.3509
  260MOL0     C35805   4.167   7.982   5.224 -0.3959 -0.3500 -0.1228
  260MOL0     C35806   4.085   8.109   5.212 -0.6138  0.4053  1.1211
  260MOL0     C35807   4.014   8.204   5.196 -0.4140  0.3309  0.0273
  260MOL0     C35808   4.313   7.744   5.781  0.6511  0.3952 -0.1910
  260MOL0     C35809   4.326   7.713   5.920 -0.2027 -0.3085 -0.1447
  260MOL0     C35810   4.303   7.825   6.019 -0.4521 -0.0265  0.6133
  260MOL0     H35811   4.654   7.321   6.140 -0.0904 -0.4202  0.9243
  260MOL0     H35812   4.794   7.245   6.349 -2.1055 -2.1929  0.7122
  260MOL0     H35813   4.738   7.553   6.711  0.1015 -0.2634  1.2790
  260MOL0     H35814   4.901   7.489   6.665  0.6395 -0.9779 -0.7113
  260MOL0     H35815   4.769   7.472   6.913  0.4160  1.0835 -0.6330
  260MOL0     H35816   4.718   7.317   6.859 -0.8697  0.6249  3.8963
  260MOL0     H35817   4.946   7.271   6.766  2.2613 -1.4838  1.0479
  260MOL0     H35818   5.006   7.405   6.879 -1.2524  1.3865  0.9065
  260MOL0     H35819   4.911   7.304   7.071  1.1485  0.7858  0.2865
  260MOL0     H35820   4.858   7.164   6.971  1.3883 -1.5434  0.4625
  260MOL0     H35821   5.078   7.144   7.091  0.5896 -4.2571 -0.7579
  260MOL0     H35822   5.155   7.255   6.995 -2.5971  2.0353  1.2297
  260MOL0     H35823   5.022   6.998   6.913  0.1864 -1.7736 -2.7303
  260MOL0     H35824   5.067   7.112   6.785 -0.8872 -0.9274 -0.0861
  260MOL0     H35825   5.235   6.935   6.976 -0.1665  0.4249  0.1940
  260MOL0     H35826   5.304   7.090   6.913 -1.6975  0.8469  1.7395
  260MOL0     H35827   5.220   6.829   6.778  1.1504 -0.5110 -4.1415
  260MOL0     H35828   5.272   6.970   6.683 -1.9140  0.5738 -0.4449
  260MOL0     H35829   5.547   7.062   6.762  0.8985  0.3360 -2.2210
  260MOL0     H35830   5.806   6.968   6.697  2.4148 -2.1725 -1.6772
  260MOL0     H35831   5.810   6.797   6.713 -1.7475  2.1553 -1.6149
  260MOL0     H35832   5.859   7.005   6.927 -0.0573 -0.9728 -0.4632
  260MOL0     H35833   5.821   6.848   6.980  2.8896 -1.1955  0.9244
  260MOL0     H35834   6.068   6.902   6.799  1.7132  0.5170  0.4000
  260MOL0     H35835   6.080   6.883   6.976 -0.6987  0.0294 -0.7509
  260MOL0     H35836   6.006   6.682   6.759  0.2738 -0.2739  0.0207
  260MOL0     H35837   6.137   6.687   6.872  0.4457 -1.2676  0.3306
  260MOL0     H35838   5.868   6.539   7.173  3.4165 -0.7823  0.4378
  260MOL0     H35839   5.701   6.216   7.230 -0.6661 -1.0958  3.6820
  260MOL0     H35840   5.755   6.369   7.301  0.3866  1.4018 -0.7742
  260MOL0     H35841   5.869   6.236   7.283 -0.0607  1.0130  0.2421
  260MOL0     H35842   5.648   5.926   7.092 -1.7027 -1.3594  1.4214
  260MOL0     H35843   5.587   5.691   7.119 -0.1700 -1.7946  2.1719
  260MOL0     H35844   5.865   5.360   7.128 -2.2023 -2.1976  0.6311
  260MOL0     H35845   5.908   5.402   7.297  0.5948  2.2408  0.2301
  260MOL0     H35846   5.801   5.185   7.247  1.0329  0.1537  3.3957
  260MOL0     H35847   5.684   5.277   7.346  2.1642 -2.6435  0.0695
  260MOL0     H35848   5.642   5.296   7.049 -0.3886 -0.1541 -0.0558
  260MOL0     H35849   5.528   5.243   7.176 -1.3274  0.8230 -1.0650
  260MOL0     H35850   5.643   5.021   7.165  1.3354  1.8035  1.1747
  260MOL0     H35851   5.749   5.077   7.038  0.7666 -3.0099  2.6598
  260MOL0     H35852   5.445   5.097   7.023  0.7641 -2.4440  0.9311
  260MOL0     H35853   5.558   5.125   6.888  1.3061  2.7356  0.8476
  260MOL0     H35854   5.510   4.871   7.048  0.5406 -0.7248  0.7118
  260MOL0     H35855   5.637   4.877   6.926  0.1116  0.8935 -0.2944
  260MOL0     H35856   5.493   4.901   6.737  1.1203  1.8628  0.7120
  260MOL0     H35857   5.355   4.912   6.841 -0.5500 -1.8150 -0.9987
  260MOL0     H35858   5.408   4.687   6.949 -1.0528 -1.4908 -0.0796
  260MOL0     H35859   5.538   4.678   6.831 -0.5975 -2.1186 -0.7329
  260MOL0     H35860   6.021   5.618   7.179  1.7945  1.4459 -3.9705
  260MOL0     H35861   6.051   5.856   7.157 -1.1622  2.0740  2.4802
  260MOL0     H35862   5.901   6.253   6.771  0.0823 -0.4606 -0.4436
  260MOL0     H35863   5.950   6.458   6.747 -4.5520  1.1690 -0.5794
  260MOL0     H35864   4.590   7.587   6.553 -1.8484  0.4365 -0.4083
  260MOL0     H35865   4.515   7.669   6.357 -1.1630 -0.7488 -2.3031
  260MOL0     H35866   4.426   7.383   5.898 -0.5589 -1.5973 -2.7333
  260MOL0     H35867   4.406   7.464   5.638 -3.5133  1.2865 -1.3175
  260MOL0     H35868   4.353   7.875   5.560  2.5190 -0.1899 -0.0631
  260MOL0     H35869   4.436   7.789   5.426 -0.6736  0.7061 -0.3462
  260MOL0     H35870   4.142   7.792   5.471  1.3165 -2.2203  0.5830
  260MOL0     H35871   4.228   7.753   5.323  1.4991 -0.4549  0.8202
  260MOL0     H35872   4.143   8.020   5.449  1.9702  0.2632  2.0620
  260MOL0     H35873   4.303   8.032   5.387  1.8370 -2.2234 -0.7065
  260MOL0     H35874   4.125   7.886   5.194 -0.1006 -1.1579  1.8924
  260MOL0     H35875   4.256   8.001   5.164 -0.2608  1.3958  0.5536
  260MOL0     H35876   3.946   8.286   5.188 -1.9109 -0.8625 -0.0351
  260MOL0     H35877   4.291   7.844   5.748  1.4629  1.4036  2.1347
  260MOL0     H35878   4.247   7.779   6.101  0.4341  0.6714  1.6266
  260MOL0     H35879   4.397   7.849   6.069  0.3221 -1.1996 -0.2190
  260MOL0     H35880   4.260   7.906   5.959  0.1203 -1.2326 -1.5482
  261MOL0     O35881   6.266   6.157  10.372 -0.7255 -1.1310 -0.9601
  261MOL0     C35882   6.329   6.071  10.440  0.9222 -0.2312  1.2638
  261MOL0     O35883   6.399   6.101  10.543 -0.0517 -1.0264  0.0958
  261MOL0     C35884   6.390   6.226  10.596 -0.5338  0.7539 -0.6413
  261MOL0     C35885   6.487   6.328  10.577  0.1346 -0.4852  1.2490
  261MOL0     C35886   6.464   6.467  10.627  0.2614  0.2625 -0.3521
  261MOL0     C35887   6.343   6.490  10.694  0.2858 -0.2142 -0.0205
  261MOL0     O35888   6.311   6.613  10.734  0.3308  0.2953 -0.2417
  261MOL0     C35889   6.308   6.643  10.877 -0.4386  1.4114 -0.3460
  261MOL0     C35890   6.272   6.779  10.917 -0.0474 -0.6214 -0.9171
  261MOL0     C35891   6.379   6.892  10.873  0.2988  0.8817  0.3380
  261MOL0     C35892   6.360   7.029  10.934 -1.0012 -0.0877  1.0580
  261MOL0     C35893   6.261   7.119  10.864  0.5164  0.3157  0.7338
  261MOL0     C35894   6.228   7.255  10.943 -0.5885  0.5714  0.6539
  261MOL0     C35895   6.347   7.353  10.955 -0.2286 -0.5202 -0.2070
  261MOL0     C35896   6.429   7.323  11.088  0.1243 -0.4943 -0.2671
  261MOL0     N35897   6.523   7.431  11.102 -0.1804  0.7043  0.8999
  261MOL0     C35898   6.627   7.463  11.011 -0.3721  0.4684  0.5759
  261MOL0     C35899   6.665   7.594  11.037  0.3239  0.4330  1.1274
  261MOL0     C35900   6.785   7.667  10.975  0.3658  0.1021 -0.2946
  261MOL0     C35901   6.736   7.731  10.841 -0.6412 -0.2878 -0.2427
  261MOL0     C35902   6.831   7.840  10.775 -1.0394  1.0230  0.0384
  261MOL0     C35903   6.850   7.959  10.868  0.2037 -0.1979  0.6571
  261MOL0     O35904   6.896   8.080  10.795  0.0065  0.0483 -0.1596
  261MOL0     C35905   6.953   8.181  10.871 -0.7118 -0.7777 -0.4142
  261MOL0     C35906   6.953   8.193  11.012 -1.0522  1.2022 -0.5061
  261MOL0     C35907   7.001   8.297  11.084  0.3930 -0.1453  0.5838
  261MOL0     C35908   6.990   8.286  11.233  0.3384 -0.3435  0.2664
  261MOL0     C35909   7.039   8.410  11.009 -0.7898  0.3683  0.0835
  261MOL0     C35910   7.069   8.547  11.065  0.9602 -0.3074  0.0425
  261MOL0     O35911   7.117   8.654  10.981 -0.8072  0.1681  0.5912
  261MOL0     C35912   7.157   8.770  11.044  1.0560  0.7319  0.5652
  261MOL0     C35913   7.274   8.777  11.116  0.2894  0.8953  0.4064
  261MOL0     C35914   7.313   8.888  11.186  0.4985 -1.4967 -0.5910
  261MOL0     C35915   7.243   9.012  11.183  0.3259 -0.0214 -1.1014
  261MOL0     O35916   7.299   9.114  11.260  0.3196  0.6805 -0.6909
  261MOL0     C35917   7.256   9.253  11.261 -0.0467 -0.4440  0.3424
  261MOL0     C35918   7.365   9.352  11.316 -0.7622 -0.1733 -0.0819
  261MOL0     C35919   7.403   9.314  11.459 -0.2504 -0.2744 -1.5281
  261MOL0     C35920   7.528   9.382  11.512  0.1164  0.4171 -0.1835
  261MOL0     C35921   7.537   9.405  11.660 -0.9074 -0.1179 -0.6295
  261MOL0     C35922   7.638   9.520  11.692  0.7073  0.7804  0.8159
  261MOL0     C35923   7.643   9.567  11.835  0.1615 -0.3504 -0.0085
  261MOL0     C35924   7.675   9.716  11.865 -0.5983  0.1886  0.1888
  261MOL0    Cl35925   7.832   9.762  11.800  0.0956 -0.1943  0.4734
  261MOL0     C35926   7.126   9.014  11.097 -0.7934 -0.9845  0.0550
  261MOL0     C35927   7.088   8.893  11.023  0.5302 -0.0051  0.2814
  261MOL0     O35928   7.043   8.563  11.185  0.4193  0.5851  0.5165
  261MOL0     C35929   7.051   8.400  10.869 -0.1646 -0.0169  0.1347
  261MOL0     C35930   7.009   8.286  10.804  0.7602 -0.4448  0.0473
  261MOL0     N35931   6.588   7.632  11.141 -0.3512  0.1554 -0.5454
  261MOL0     N35932   6.500   7.543  11.174 -0.2473 -0.6477 -0.9783
  261MOL0     C35933   6.250   6.382  10.715 -0.2881 -0.5506 -0.5325
  261MOL0     C35934   6.281   6.256  10.682 -0.6915  0.2307  1.2450
  261MOL0     C35935   6.319   5.930  10.397 -0.0026 -0.4854  1.2295
  261MOL0     C35936   6.327   5.890  10.260  0.3456  0.3788  0.0522
  261MOL0     C35937   6.336   5.752  10.222 -0.0156  0.0680  0.7126
  261MOL0     C35938   6.322   5.651  10.314 -1.0662  0.2239 -0.6871
  261MOL0     O35939   6.307   5.529  10.260 -0.0173 -0.4221 -0.2454
  261MOL0     C35940   6.300   5.423  10.356  1.5309  0.3354  0.2285
  261MOL0     C35941   6.299   5.281  10.286 -0.1834  0.2958 -0.0823
  261MOL0     C35942   6.315   5.174  10.393 -0.3987 -0.9465 -1.2290
  261MOL0     C35943   6.313   5.031  10.328  0.6402  1.4012 -0.1987
  261MOL0     C35944   6.429   5.005  10.247 -0.4050  0.1578 -0.2697
  261MOL0     C35945   6.517   4.996  10.161 -0.1086  1.0526  0.8109
  261MOL0     C35946   6.327   5.681  10.453  0.2145 -0.5211  0.4203
  261MOL0     C35947   6.327   5.822  10.492 -0.1140  0.2339  0.4964
  261MOL0     C35948   6.298   5.852  10.637  0.5819 -0.2477  0.4878
  261MOL0     H35949   6.584   6.311  10.533  0.5753 -1.0033  2.3865
  261MOL0     H35950   6.544   6.540  10.620  1.1297 -0.8125 -2.7008
  261MOL0     H35951   6.397   6.608  10.931  0.6932 -0.1870 -3.0081
  261MOL0     H35952   6.230   6.583  10.924  1.3825 -0.0591  0.9345
  261MOL0     H35953   6.180   6.811  10.866  0.7355  0.5635 -1.6311
  261MOL0     H35954   6.272   6.787  11.026  1.2269 -0.9319 -0.8807
  261MOL0     H35955   6.481   6.856  10.891  0.5291  1.8317  0.9646
  261MOL0     H35956   6.363   6.905  10.766 -1.4177 -2.2491  0.1003
  261MOL0     H35957   6.330   7.022  11.039 -0.2472  0.3573  1.3091
  261MOL0     H35958   6.452   7.088  10.938 -1.6421  1.2413 -1.5853
  261MOL0     H35959   6.166   7.065  10.856  1.3580 -1.0124 -1.0240
  261MOL0     H35960   6.290   7.144  10.762 -2.2591  1.1983  0.0894
  261MOL0     H35961   6.147   7.309  10.893 -0.1796  0.4063 -0.1922
  261MOL0     H35962   6.189   7.233  11.043 -1.1617 -1.2202  0.0709
  261MOL0     H35963   6.301   7.451  10.965 -0.9919 -0.9499  0.5935
  261MOL0     H35964   6.414   7.346  10.868  1.2997 -0.7140  0.9450
  261MOL0     H35965   6.361   7.322  11.174  1.1518 -1.9643  0.5672
  261MOL0     H35966   6.478   7.225  11.088 -1.1887 -1.2210  1.7598
  261MOL0     H35967   6.678   7.391  10.948 -1.4126  0.1264  0.1167
  261MOL0     H35968   6.871   7.601  10.957  0.7046  0.9074 -1.7387
  261MOL0     H35969   6.822   7.748  11.038  3.4269  0.2875 -2.1387
  261MOL0     H35970   6.736   7.649  10.769 -3.4177 -1.6189  1.1424
  261MOL0     H35971   6.637   7.774  10.856 -0.7715 -0.8770  0.6255
  261MOL0     H35972   6.929   7.796  10.752 -1.8284 -0.7465 -0.1214
  261MOL0     H35973   6.789   7.877  10.681  0.7757 -1.8381 -2.0961
  261MOL0     H35974   6.756   7.983  10.919  0.6909  1.2460  0.9482
  261MOL0     H35975   6.927   7.931  10.941  0.8492 -1.8478 -0.6116
  261MOL0     H35976   6.899   8.111  11.059  0.2222  0.8308  0.3779
  261MOL0     H35977   6.898   8.333  11.269  1.6421  2.0818  0.6106
  261MOL0     H35978   7.076   8.333  11.280  0.7603 -1.4625  0.6290
  261MOL0     H35979   6.992   8.182  11.268 -2.0568 -1.3198 -2.1450
  261MOL0     H35980   7.342   8.693  11.114  0.9147  1.3936 -1.1286
  261MOL0     H35981   7.400   8.886  11.251  0.4932 -0.7173 -0.5402
  261MOL0     H35982   7.233   9.271  11.155  0.7444 -1.3925 -0.0067
  261MOL0     H35983   7.162   9.259  11.315 -0.3317 -1.2344 -0.0484
  261MOL0     H35984   7.445   9.368  11.243  0.2886  1.0636  1.3045
  261MOL0     H35985   7.330   9.455  11.327  1.6494  0.5768  1.1708
  261MOL0     H35986   7.409   9.205  11.456  0.7594 -0.2127 -2.1569
  261MOL0     H35987   7.318   9.359  11.512  1.2063  1.3436 -0.4598
  261MOL0     H35988   7.542   9.480  11.466  1.4714  0.4962  0.3756
  261MOL0     H35989   7.609   9.317  11.479  0.0695  0.2022  0.1310
  261MOL0     H35990   7.442   9.439  11.701 -1.3066  0.4629 -1.9842
  261MOL0     H35991   7.572   9.312  11.707 -1.3441 -0.6420 -1.3196
  261MOL0     H35992   7.618   9.606  11.627  0.7407 -0.5124 -0.9921
  261MOL0     H35993   7.740   9.497  11.657  0.0542  2.2473 -2.4584
  261MOL0     H35994   7.716   9.504  11.886  3.5525  0.8421 -3.0410
  261MOL0     H35995   7.547   9.554  11.886  0.1819  1.6605  0.6304
  261MOL0     H35996   7.656   9.734  11.971 -3.6169  0.8474 -0.3849
  261MOL0     H35997   7.609   9.785  11.812 -0.1802 -1.7126 -3.0967
  261MOL0     H35998   7.062   9.102  11.101 -2.6078 -2.2675  0.9997
  261MOL0     H35999   7.003   8.894  10.955 -0.3719  1.2231  1.3763
  261MOL0     H36000   7.081   8.488  10.812 -4.2213  0.5425 -1.4785
  261MOL0     H36001   7.003   8.299  10.697 -0.6311  0.8083  0.2565
  261MOL0     H36002   6.151   6.397  10.754 -0.8033 -2.0268 -1.2083
  261MOL0     H36003   6.217   6.168  10.691  1.0805 -1.2269  0.2593
  261MOL0     H36004   6.326   5.962  10.179  0.6898 -1.4046 -1.6146
  261MOL0     H36005   6.345   5.710  10.122 -1.3034 -4.5450  2.2442
  261MOL0     H36006   6.384   5.418  10.425  0.7780 -0.4811  1.1027
  261MOL0     H36007   6.215   5.429  10.424  0.8841  0.3459 -0.5579
  261MOL0     H36008   6.372   5.272  10.205 -2.3039  1.0882 -2.1958
  261MOL0     H36009   6.201   5.264  10.241 -0.0676  0.3947 -0.3693
  261MOL0     H36010   6.407   5.191  10.450 -0.7749 -2.1189 -0.2495
  261MOL0     H36011   6.236   5.177  10.468  0.3517 -2.6818 -0.3234
  261MOL0     H36012   6.225   5.018  10.264  1.0036 -0.3195 -0.4107
  261MOL0     H36013   6.290   4.955  10.403  2.3280  1.1817  0.1406
  261MOL0     H36014   6.595   4.985  10.088  0.0909 -1.6239  1.3188
  261MOL0     H36015   6.322   5.601  10.525  1.1404 -2.1624 -1.2597
  261MOL0     H36016   6.230   5.936  10.655  1.2157  0.1123  1.2764
  261MOL0     H36017   6.247   5.780  10.702 -1.1486  1.1083  0.6934
  261MOL0     H36018   6.397   5.874  10.678  0.8145  1.2613 -0.7763
  262MOL0     O36019   1.904   6.880   8.287 -0.5508  0.3259  0.8750
  262MOL0     C36020   2.008   6.816   8.328  0.3568  0.4903  0.4022
  262MOL0     O36021   2.111   6.783   8.255  0.5784  0.2644 -0.3185
  262MOL0     C36022   2.140   6.859   8.145 -0.4407  0.5448  0.4885
  262MOL0     C36023   2.149   6.803   8.019  0.9168 -0.1634  0.2601
  262MOL0     C36024   2.163   6.885   7.914  0.3015 -0.8538 -0.0162
  262MOL0     C36025   2.172   7.025   7.928  0.0970 -0.7016  0.8924
  262MOL0     O36026   2.179   7.116   7.830 -0.7362 -0.5843  0.5096
  262MOL0     C36027   2.228   7.076   7.701 -0.8743  0.0029  0.1136
  262MOL0     C36028   2.284   7.190   7.633 -0.1791  0.8119  0.8235
  262MOL0     C36029   2.335   7.170   7.495  0.2010 -0.6820 -0.6353
  262MOL0     C36030   2.425   7.302   7.457 -0.8206 -0.4305  0.1478
  262MOL0     C36031   2.536   7.278   7.353 -0.0231  0.1394 -0.7321
  262MOL0     C36032   2.474   7.247   7.216  0.2511 -0.3741  0.0293
  262MOL0     C36033   2.583   7.243   7.106  0.7298 -1.0867 -0.4457
  262MOL0     C36034   2.511   7.215   6.970  0.1311 -0.1687  0.0319
  262MOL0     N36035   2.437   7.331   6.929 -0.4000  0.0253 -0.2316
  262MOL0     C36036   2.477   7.462   6.916 -0.4935  0.2558 -0.0330
  262MOL0     C36037   2.372   7.531   6.866 -0.3480 -0.5037  0.6056
  262MOL0     C36038   2.370   7.676   6.837  0.3066 -0.7246  0.7618
  262MOL0     C36039   2.307   7.755   6.954 -0.2892  0.3578  0.8395
  262MOL0     C36040   2.300   7.908   6.909  0.1549 -0.6925  0.2907
  262MOL0     C36041   2.430   7.986   6.929 -0.4544 -0.8328 -0.0706
  262MOL0     O36042   2.509   7.965   6.812 -0.3540 -0.7101 -1.1989
  262MOL0     C36043   2.631   8.034   6.796  0.6215 -0.0741  0.3050
  262MOL0     C36044   2.680   8.119   6.907 -0.1162  0.6444 -0.8284
  262MOL0     C36045   2.803   8.175   6.901  0.5564  0.3029 -1.0475
  262MOL0     C36046   2.852   8.268   7.016 -0.3769 -0.5277 -0.1085
  262MOL0     C36047   2.883   8.157   6.786  0.5904  0.1269  0.8189
  262MOL0     C36048   3.006   8.227   6.766 -0.5040  0.5071 -0.0044
  262MOL0     O36049   3.116   8.162   6.810  0.0792  0.2699  0.7423
  262MOL0     C36050   3.244   8.226   6.816 -0.5723 -0.3257 -0.2001
  262MOL0     C36051   3.281   8.307   6.926  0.5038 -0.1565  0.5845
  262MOL0     C36052   3.412   8.347   6.951  0.2146  0.3397  0.7341
  262MOL0     C36053   3.515   8.313   6.859 -0.1506 -0.0333  0.4170
  262MOL0     O36054   3.639   8.355   6.884 -0.1151 -0.6198  0.1847
  262MOL0     C36055   3.714   8.415   6.779 -0.3350  0.2907  0.8069
  262MOL0     C36056   3.836   8.485   6.845 -0.4606 -0.5475 -0.8687
  262MOL0     C36057   3.787   8.620   6.894  0.9611  1.3074 -0.6989
  262MOL0     C36058   3.895   8.697   6.972 -0.7844  0.4593  0.5759
  262MOL0     C36059   3.830   8.813   7.051 -0.2383  0.3582 -0.1452
  262MOL0     C36060   3.947   8.874   7.120  0.5266 -0.5365 -0.6831
  262MOL0     C36061   3.924   9.019   7.155 -0.0536  0.0426  0.0352
  262MOL0     C36062   3.948   9.101   7.030  0.2673 -0.2744 -0.8697
  262MOL0    Cl36063   3.937   9.271   7.086 -0.0693 -0.2966  0.1021
  262MOL0     C36064   3.482   8.244   6.742 -0.0680 -0.3563 -0.5057
  262MOL0     C36065   3.352   8.194   6.729 -0.0423 -0.2295 -0.3334
  262MOL0     O36066   2.999   8.346   6.727 -0.1794 -0.5099  0.0160
  262MOL0     C36067   2.828   8.087   6.681 -0.4981  0.3713  0.5303
  262MOL0     C36068   2.713   8.013   6.681  0.0139  0.8721  0.2764
  262MOL0     N36069   2.261   7.450   6.863 -0.6114 -0.1659 -0.2948
  262MOL0     N36070   2.305   7.339   6.910  0.0622  0.4019 -0.3660
  262MOL0     C36071   2.185   7.082   8.055 -0.4854  0.1895 -1.1014
  262MOL0     C36072   2.171   6.996   8.166 -0.0191 -0.4928  0.3743
  262MOL0     C36073   2.006   6.770   8.472 -0.5188  0.4318 -0.2629
  262MOL0     C36074   2.117   6.798   8.542 -1.1928 -0.1724 -1.0500
  262MOL0     C36075   2.141   6.746   8.675 -0.1306  0.1480 -0.2197
  262MOL0     C36076   2.053   6.665   8.739  1.7530 -0.0286 -1.0306
  262MOL0     O36077   2.073   6.602   8.862  0.1731 -0.8746 -0.0081
  262MOL0     C36078   2.211   6.611   8.922  0.2782  0.4225  0.9425
  262MOL0     C36079   2.213   6.548   9.054 -0.4009  0.5088 -0.3657
  262MOL0     C36080   2.351   6.549   9.106  0.4075  0.1558  0.0643
  262MOL0     C36081   2.358   6.517   9.250  0.9766  0.1044  0.2635
  262MOL0     C36082   2.499   6.517   9.296  0.5449 -0.1854 -0.3685
  262MOL0     C36083   2.606   6.507   9.337 -0.1894 -0.5029  0.1253
  262MOL0     C36084   1.925   6.648   8.675  0.4343 -1.2184 -0.5568
  262MOL0     C36085   1.900   6.690   8.542  0.0392  0.2456 -0.5374
  262MOL0     C36086   1.765   6.660   8.473  0.7608  0.5050  0.3685
  262MOL0     H36087   2.126   6.698   8.006  0.2653 -0.3606  2.5635
  262MOL0     H36088   2.171   6.839   7.816  1.2184 -0.1047 -0.3076
  262MOL0     H36089   2.152   7.039   7.633  1.3740 -3.6292 -0.7304
  262MOL0     H36090   2.305   6.998   7.713  0.1223  1.0972  1.1672
  262MOL0     H36091   2.201   7.262   7.627 -3.4478 -2.5810  1.8856
  262MOL0     H36092   2.363   7.229   7.699  0.5576  2.2606 -0.8287
  262MOL0     H36093   2.406   7.087   7.505  0.2962 -0.5808 -0.4556
  262MOL0     H36094   2.256   7.151   7.423  0.7687 -0.9903 -1.1812
  262MOL0     H36095   2.358   7.380   7.420  1.1191  0.9124 -0.6869
  262MOL0     H36096   2.474   7.355   7.540 -1.7365  2.1883 -0.8660
  262MOL0     H36097   2.604   7.204   7.395  1.2815  0.5042 -2.1546
  262MOL0     H36098   2.596   7.367   7.334  2.7585 -1.3679  0.3927
  262MOL0     H36099   2.430   7.147   7.209  1.1468 -1.1612  3.5808
  262MOL0     H36100   2.400   7.325   7.196 -0.4957 -0.9861  0.3325
  262MOL0     H36101   2.649   7.159   7.127 -0.9536 -1.9925  1.6589
  262MOL0     H36102   2.633   7.340   7.104 -0.5463 -0.3853  0.2425
  262MOL0     H36103   2.587   7.194   6.895 -0.9175  1.6182 -1.6233
  262MOL0     H36104   2.449   7.128   6.991  1.2043 -1.6017 -2.4601
  262MOL0     H36105   2.568   7.520   6.923 -0.9067  0.8659  0.3953
  262MOL0     H36106   2.316   7.687   6.743  0.9415 -1.2904  0.3157
  262MOL0     H36107   2.475   7.704   6.823 -0.1818  1.1528  0.5371
  262MOL0     H36108   2.206   7.720   6.973  0.0644 -0.6783  0.8527
  262MOL0     H36109   2.381   7.740   7.033  3.0330  0.4746 -2.0090
  262MOL0     H36110   2.256   7.917   6.810 -0.6360  0.1974  0.7033
  262MOL0     H36111   2.230   7.967   6.969  0.1545 -1.9654  1.5946
  262MOL0     H36112   2.407   8.093   6.926 -1.8628 -1.0113 -5.0660
  262MOL0     H36113   2.484   7.959   7.021  0.2558  2.1778  0.5212
  262MOL0     H36114   2.618   8.133   6.995 -0.7931 -1.6783 -0.8684
  262MOL0     H36115   2.959   8.251   7.028 -0.3590  0.3601  1.2479
  262MOL0     H36116   2.796   8.263   7.110 -1.6364  2.3372 -0.5772
  262MOL0     H36117   2.847   8.374   6.988  1.2862 -0.6184 -0.8479
  262MOL0     H36118   3.198   8.327   6.993 -1.0379 -1.5034 -0.8515
  262MOL0     H36119   3.431   8.406   7.040  1.1389 -1.3486  1.7224
  262MOL0     H36120   3.750   8.341   6.707  0.3410  1.9578 -0.6445
  262MOL0     H36121   3.654   8.491   6.727 -0.1392 -0.9180 -1.3156
  262MOL0     H36122   3.877   8.436   6.933 -1.0719  0.3705 -0.0454
  262MOL0     H36123   3.915   8.496   6.770  1.2485 -1.6295  0.6938
  262MOL0     H36124   3.704   8.598   6.962  2.9105 -1.9301  0.8461
  262MOL0     H36125   3.751   8.681   6.810 -0.8297  2.8451  1.0746
  262MOL0     H36126   3.980   8.727   6.910  0.8104 -2.2244  1.3148
  262MOL0     H36127   3.931   8.626   7.046 -1.2110  0.3350  0.6683
  262MOL0     H36128   3.785   8.884   6.982  0.6953  0.8722 -0.2489
  262MOL0     H36129   3.754   8.786   7.125 -0.8653  1.7746 -0.2489
  262MOL0     H36130   4.043   8.868   7.069  0.6483 -2.8797 -0.3230
  262MOL0     H36131   3.959   8.807   7.206  0.9452  2.2749  1.5763
  262MOL0     H36132   3.992   9.057   7.232  0.5094  1.2548 -1.0156
  262MOL0     H36133   3.819   9.039   7.180 -0.0895 -1.4179  1.1803
  262MOL0     H36134   3.865   9.077   6.964 -1.0990  2.8096 -0.4545
  262MOL0     H36135   4.044   9.105   6.978  0.5882  3.0898 -0.2250
  262MOL0     H36136   3.547   8.230   6.656 -0.5798  1.8656 -1.3193
  262MOL0     H36137   3.332   8.123   6.650 -1.0399 -0.4325  0.0866
  262MOL0     H36138   2.879   8.078   6.585 -0.4053 -0.6526  0.6641
  262MOL0     H36139   2.684   7.963   6.589  0.1810 -2.0847  1.7407
  262MOL0     H36140   2.214   7.186   8.065  0.2689 -0.1290  0.3376
  262MOL0     H36141   2.186   7.033   8.266  0.5174 -4.8780  2.1264
  262MOL0     H36142   2.193   6.853   8.488  0.7317 -4.1954 -2.8655
  262MOL0     H36143   2.236   6.762   8.725 -0.5600 -0.5304  0.8283
  262MOL0     H36144   2.287   6.559   8.862 -1.6788 -0.8886 -0.5112
  262MOL0     H36145   2.229   6.719   8.922  1.0231  0.3083  0.2985
  262MOL0     H36146   2.163   6.451   9.049  0.1093 -0.1967  4.1689
  262MOL0     H36147   2.141   6.611   9.105  0.0648  0.1834  0.7162
  262MOL0     H36148   2.411   6.480   9.046 -2.2157 -2.3506  0.1125
  262MOL0     H36149   2.399   6.646   9.088 -0.7491  0.2314 -3.2067
  262MOL0     H36150   2.316   6.417   9.268  0.5236  0.5694  1.8878
  262MOL0     H36151   2.300   6.596   9.298  0.8341  1.0600 -1.3796
  262MOL0     H36152   2.703   6.515   9.381  0.5849 -1.1519 -1.3714
  262MOL0     H36153   1.856   6.585   8.730  0.0779 -1.3151 -1.1162
  262MOL0     H36154   1.693   6.702   8.543 -0.0212 -3.2605  2.0907
  262MOL0     H36155   1.747   6.713   8.379  1.8400  0.4167  0.1012
  262MOL0     H36156   1.758   6.551   8.460 -0.8120  0.7708 -1.5432
  263MOL0     O36157   7.116   2.686   1.443  0.2588  0.3453  0.7132
  263MOL0     C36158   7.092   2.716   1.326 -0.3387 -1.0918 -0.0223
  263MOL0     O36159   6.970   2.766   1.285 -0.6251 -0.9546  0.5188
  263MOL0     C36160   6.878   2.812   1.376 -0.5176 -0.6090 -0.0655
  263MOL0     C36161   6.919   2.894   1.483 -0.0232 -0.4321  0.3823
  263MOL0     C36162   6.837   2.928   1.584  0.7839 -0.2842 -0.6024
  263MOL0     C36163   6.700   2.896   1.569 -0.2285 -0.0781  0.0156
  263MOL0     O36164   6.611   2.923   1.673  0.9770  0.1002  1.2314
  263MOL0     C36165   6.647   2.966   1.798 -0.5314 -0.0383  0.1765
  263MOL0     C36166   6.513   2.979   1.862  0.3838  1.2921 -0.7826
  263MOL0     C36167   6.455   3.108   1.806  0.4938  0.1787  0.8385
  263MOL0     C36168   6.320   3.137   1.854  0.0801  0.2562 -0.3260
  263MOL0     C36169   6.305   3.154   2.002 -0.5055 -0.0877  0.2523
  263MOL0     C36170   6.371   3.286   2.054 -0.4731  0.8117  0.3048
  263MOL0     C36171   6.268   3.392   2.066  0.6632  0.8809 -0.7205
  263MOL0     C36172   6.332   3.533   2.050  0.5140 -0.6274  0.2178
  263MOL0     N36173   6.440   3.556   2.148 -0.0748  0.4842 -0.0129
  263MOL0     C36174   6.429   3.538   2.282  0.4485  1.0981  0.4361
  263MOL0     C36175   6.546   3.576   2.336 -0.0894 -0.4217 -0.0807
  263MOL0     C36176   6.596   3.574   2.474 -0.0738 -0.3525  0.3516
  263MOL0     C36177   6.750   3.526   2.473  0.3022  0.0356  0.6420
  263MOL0     C36178   6.796   3.499   2.614  0.2863 -0.7620  0.4163
  263MOL0     C36179   6.918   3.421   2.628 -0.6314  0.3014  0.3798
  263MOL0     O36180   6.935   3.376   2.759  0.2880 -0.2000 -0.1181
  263MOL0     C36181   7.036   3.292   2.791  0.4775 -0.1912 -0.6416
  263MOL0     C36182   7.054   3.274   2.924 -0.0201  0.1530 -0.2120
  263MOL0     C36183   7.156   3.178   2.970  0.0842 -0.2795  0.0309
  263MOL0     C36184   7.161   3.166   3.117  0.1718 -0.2721 -0.9488
  263MOL0     C36185   7.238   3.116   2.873 -0.7502 -0.8343  0.0203
  263MOL0     C36186   7.362   3.033   2.900  0.8920  0.4220 -0.6179
  263MOL0     O36187   7.360   2.963   3.020  0.7289  0.2816 -0.6936
  263MOL0     C36188   7.477   2.923   3.084  0.4561  0.6952  0.3206
  263MOL0     C36189   7.465   2.824   3.185 -1.1581  0.4222  0.1235
  263MOL0     C36190   7.591   2.784   3.253  0.1346 -0.3696  0.1913
  263MOL0     C36191   7.712   2.836   3.221 -0.7246  0.2350  0.0246
  263MOL0     O36192   7.829   2.813   3.287 -0.1477  0.4697 -1.0321
  263MOL0     C36193   7.827   2.735   3.403 -1.1321  0.6854 -0.1410
  263MOL0     C36194   7.975   2.726   3.432  0.1606 -1.1230  0.0264
  263MOL0     C36195   7.998   2.663   3.572  0.3618 -0.4089  0.8032
  263MOL0     C36196   7.929   2.524   3.591 -0.3630  0.4645  1.1391
  263MOL0     C36197   8.012   2.423   3.680  0.8031 -0.5241  0.0462
  263MOL0     C36198   7.932   2.293   3.725  0.6158  0.1186 -0.5233
  263MOL0     C36199   7.969   2.248   3.855 -0.2897  0.0869 -0.4235
  263MOL0     C36200   7.890   2.121   3.879  0.1888  0.1190 -0.2987
  263MOL0    Cl36201   7.875   2.079   4.051 -0.4211 -0.4670  0.1271
  263MOL0     C36202   7.714   2.919   3.108  0.8874 -0.0610 -0.1666
  263MOL0     C36203   7.606   2.963   3.039  0.5714 -0.6814  0.2041
  263MOL0     O36204   7.441   3.002   2.808 -0.5642 -0.1614  1.2747
  263MOL0     C36205   7.204   3.143   2.744 -0.0959 -0.2344  0.1062
  263MOL0     C36206   7.108   3.227   2.694  0.0872  0.5594  0.1182
  263MOL0     N36207   6.628   3.618   2.239 -0.1679  0.4321  0.3231
  263MOL0     N36208   6.558   3.619   2.125  0.1680  0.2301 -0.5178
  263MOL0     C36209   6.651   2.825   1.457  0.3864  0.4062  0.6280
  263MOL0     C36210   6.741   2.782   1.358 -0.7028 -0.2731 -0.0344
  263MOL0     C36211   7.199   2.686   1.217  0.4522 -0.7410 -1.2125
  263MOL0     C36212   7.180   2.733   1.088  0.1634 -0.3740  0.4513
  263MOL0     C36213   7.265   2.704   0.983  0.5208  0.0030 -1.1406
  263MOL0     C36214   7.374   2.622   1.007  0.5811  0.0008 -0.6881
  263MOL0     O36215   7.476   2.593   0.925  0.1040 -0.7631 -0.3941
  263MOL0     C36216   7.450   2.609   0.782  0.1528  0.1011  0.5367
  263MOL0     C36217   7.496   2.753   0.734 -0.0601 -0.2104 -0.4206
  263MOL0     C36218   7.634   2.788   0.781 -0.9254  0.8722  0.1016
  263MOL0     C36219   7.698   2.910   0.715  0.2155 -0.6942  1.2102
  263MOL0     C36220   7.837   2.912   0.756 -0.2420  0.0709  0.4364
  263MOL0     C36221   7.957   2.920   0.797 -0.3318 -0.1152 -0.5002
  263MOL0     C36222   7.408   2.582   1.138  0.7827  0.7664  0.1865
  263MOL0     C36223   7.320   2.608   1.244 -0.2976  0.4306  0.4228
  263MOL0     C36224   7.361   2.570   1.387 -0.3285  0.0433 -0.2519
  263MOL0     H36225   7.023   2.913   1.509 -0.5269  1.6264  1.0689
  263MOL0     H36226   6.889   2.966   1.671 -0.2406 -1.2535  0.4690
  263MOL0     H36227   6.701   3.061   1.792  1.0729 -0.7628  1.9478
  263MOL0     H36228   6.714   2.893   1.846 -0.1505  2.0046  3.0156
  263MOL0     H36229   6.451   2.891   1.841 -0.1345  1.4958 -0.1513
  263MOL0     H36230   6.537   2.986   1.969  0.0249  1.3604 -0.7068
  263MOL0     H36231   6.526   3.189   1.825 -0.6517  1.0042  1.7603
  263MOL0     H36232   6.445   3.087   1.699 -1.3626  1.0674  0.7991
  263MOL0     H36233   6.289   3.234   1.812 -2.9242 -0.5801 -0.2950
  263MOL0     H36234   6.264   3.055   1.809  3.3889 -1.3255 -1.8943
  263MOL0     H36235   6.355   3.068   2.047  4.3968  1.8990 -0.7796
  263MOL0     H36236   6.200   3.147   2.034 -1.3959  1.8230 -2.0096
  263MOL0     H36237   6.402   3.270   2.158 -1.4627 -1.3698  0.3259
  263MOL0     H36238   6.460   3.304   1.992  0.5705 -1.0332  1.1873
  263MOL0     H36239   6.208   3.389   2.156 -3.5265 -1.0488 -3.2888
  263MOL0     H36240   6.192   3.386   1.988  0.0444 -0.2934 -0.0388
  263MOL0     H36241   6.374   3.547   1.950  0.7774 -2.7125 -0.0031
  263MOL0     H36242   6.261   3.614   2.069  2.4456  1.4471 -0.9554
  263MOL0     H36243   6.355   3.482   2.338  2.3212 -2.1717 -0.0856
  263MOL0     H36244   6.527   3.519   2.539  3.7761 -2.6160  2.8984
  263MOL0     H36245   6.592   3.676   2.514 -2.8753  0.4782 -1.7441
  263MOL0     H36246   6.775   3.439   2.412 -0.6840  0.5450 -0.5259
  263MOL0     H36247   6.807   3.600   2.417  0.0717 -1.3800 -1.5773
  263MOL0     H36248   6.806   3.594   2.668  0.3536 -0.3334 -0.3370
  263MOL0     H36249   6.711   3.451   2.664 -1.9302  2.8559  0.5242
  263MOL0     H36250   6.897   3.338   2.560 -4.2032  0.4833  1.0945
  263MOL0     H36251   7.005   3.479   2.595  0.9486  0.2624  3.9817
  263MOL0     H36252   6.996   3.323   3.001 -0.8580 -2.9978  1.3171
  263MOL0     H36253   7.161   3.265   3.164  0.1670 -1.5315  1.8981
  263MOL0     H36254   7.245   3.106   3.153 -1.7135 -2.2044  0.4669
  263MOL0     H36255   7.068   3.113   3.140  0.2816 -0.0509  0.0131
  263MOL0     H36256   7.369   2.788   3.218  0.2753 -2.3143  1.6908
  263MOL0     H36257   7.584   2.732   3.348  0.5654  0.1563  0.5129
  263MOL0     H36258   7.786   2.798   3.483 -1.0286  3.5740 -2.1911
  263MOL0     H36259   7.779   2.637   3.408 -0.8097  0.5292 -0.0484
  263MOL0     H36260   8.017   2.666   3.350 -0.5515  0.4798 -1.5779
  263MOL0     H36261   8.016   2.827   3.421 -1.8423 -0.4042 -1.3742
  263MOL0     H36262   7.949   2.733   3.641 -0.8098 -0.6845  0.2798
  263MOL0     H36263   8.106   2.647   3.576  0.8526  2.2396 -0.0034
  263MOL0     H36264   7.923   2.477   3.493  0.9700  1.9319  0.2917
  263MOL0     H36265   7.835   2.551   3.640  0.5240  0.8880  2.6806
  263MOL0     H36266   8.106   2.399   3.629  0.8790  1.8202 -1.0460
  263MOL0     H36267   8.049   2.478   3.766  0.8793  0.9602 -0.8914
  263MOL0     H36268   7.958   2.211   3.657 -1.6624 -1.4954  0.4096
  263MOL0     H36269   7.826   2.321   3.719  1.1657  2.2204 -1.1246
  263MOL0     H36270   7.959   2.319   3.938 -0.7552 -2.9447  2.3429
  263MOL0     H36271   8.073   2.215   3.860 -0.3272 -0.0885 -0.7735
  263MOL0     H36272   7.937   2.049   3.811  4.6359  2.2428  0.1714
  263MOL0     H36273   7.791   2.145   3.837  0.3774  2.3636  0.4305
  263MOL0     H36274   7.810   2.962   3.080  0.9608 -1.1543 -1.7624
  263MOL0     H36275   7.619   3.032   2.957 -0.1848  0.8064  1.2941
  263MOL0     H36276   7.258   3.090   2.666 -0.6433 -0.1237 -0.3571
  263MOL0     H36277   7.086   3.236   2.589 -1.6677 -0.8150  0.3227
  263MOL0     H36278   6.548   2.792   1.456  0.0606  1.3807 -0.3450
  263MOL0     H36279   6.712   2.709   1.283 -0.0025  0.2473 -0.8269
  263MOL0     H36280   7.089   2.783   1.056 -0.9894 -2.8712 -0.4804
  263MOL0     H36281   7.252   2.729   0.879  1.3398  0.6512 -1.0996
  263MOL0     H36282   7.526   2.546   0.737 -0.2786 -0.2954  0.3568
  263MOL0     H36283   7.352   2.573   0.749  0.3343 -1.1616  1.3466
  263MOL0     H36284   7.435   2.836   0.771  1.3254  3.5913 -5.5014
  263MOL0     H36285   7.484   2.742   0.626  1.8041 -1.8202 -0.5230
  263MOL0     H36286   7.623   2.797   0.889  1.0437 -0.1512  0.4242
  263MOL0     H36287   7.703   2.707   0.757 -1.0857  1.1560 -1.4360
  263MOL0     H36288   7.638   2.997   0.743  0.6729  0.0066  0.0833
  263MOL0     H36289   7.702   2.885   0.608  1.1045  1.5947  0.6446
  263MOL0     H36290   8.057   2.942   0.829  0.5855 -1.1649 -2.4633
  263MOL0     H36291   7.503   2.530   1.146  2.3584  2.9781 -2.3542
  263MOL0     H36292   7.375   2.658   1.450  0.0743  0.1620 -0.5059
  263MOL0     H36293   7.281   2.511   1.433 -0.3508 -2.0180 -2.6764
  263MOL0     H36294   7.452   2.509   1.388  0.8201  1.5924  3.2632
  264MOL0     O36295   1.907   5.300   6.214 -0.1518 -1.0991 -0.2770
  264MOL0     C36296   1.837   5.201   6.204 -0.1228 -0.0800  0.3949
  264MOL0     O36297   1.706   5.196   6.224  0.2593  0.0236  0.5736
  264MOL0     C36298   1.638   5.313   6.230 -0.2095 -0.8281  0.4084
  264MOL0     C36299   1.669   5.420   6.316  0.7993 -0.1541 -1.0414
  264MOL0     C36300   1.585   5.533   6.324  0.4136 -0.6196  0.3679
  264MOL0     C36301   1.469   5.536   6.239  0.5601 -1.0613 -0.4634
  264MOL0     O36302   1.383   5.633   6.263  0.8356 -0.0549 -0.2793
  264MOL0     C36303   1.358   5.720   6.148  1.7718 -0.1052 -0.3579
  264MOL0     C36304   1.481   5.792   6.101 -0.2850  0.5928  0.3886
  264MOL0     C36305   1.446   5.900   6.005 -0.2894 -0.3718 -0.6710
  264MOL0     C36306   1.576   5.971   5.956  0.0719  0.4626 -0.2224
  264MOL0     C36307   1.626   6.060   6.078 -0.1022 -0.0489 -0.8088
  264MOL0     C36308   1.751   6.138   6.041 -0.6737 -0.4759  0.8315
  264MOL0     C36309   1.779   6.238   6.150  0.0330 -0.3389 -0.3202
  264MOL0     C36310   1.883   6.353   6.128 -0.0013  0.0740 -0.1943
  264MOL0     N36311   1.998   6.324   6.039 -0.1627 -0.5070 -1.0547
  264MOL0     C36312   2.078   6.216   6.051  0.5571  0.0206 -0.8532
  264MOL0     C36313   2.163   6.219   5.946 -0.3960 -1.1430 -0.7257
  264MOL0     C36314   2.266   6.112   5.901  0.1023 -0.0601  0.2246
  264MOL0     C36315   2.393   6.120   5.974  0.0028  0.5888  0.0473
  264MOL0     C36316   2.500   6.224   5.922  0.0626 -0.6646  0.3646
  264MOL0     C36317   2.549   6.299   6.042 -0.0640 -0.0406  0.3575
  264MOL0     O36318   2.637   6.408   6.007  0.2321 -0.2613  0.6623
  264MOL0     C36319   2.577   6.527   5.967  0.2620  0.1180 -0.0701
  264MOL0     C36320   2.653   6.645   5.975  0.3670  0.3932 -0.0373
  264MOL0     C36321   2.611   6.777   5.951 -0.0328  0.5634 -0.2639
  264MOL0     C36322   2.720   6.885   5.961 -0.2774  0.9885  1.0273
  264MOL0     C36323   2.469   6.799   5.943  0.8571 -0.8361 -1.8036
  264MOL0     C36324   2.401   6.936   5.935  0.1519 -0.5706  0.9524
  264MOL0     O36325   2.264   6.932   5.918  0.5922  0.3152 -0.5190
  264MOL0     C36326   2.205   7.056   5.884  0.4916 -0.6226  0.2036
  264MOL0     C36327   2.229   7.173   5.954 -0.1910 -0.5794 -0.8841
  264MOL0     C36328   2.174   7.301   5.929 -0.2323 -0.8588  0.3473
  264MOL0     C36329   2.102   7.315   5.809 -0.0628 -0.2582 -0.6004
  264MOL0     O36330   2.063   7.439   5.770  0.2989  0.2241 -0.1040
  264MOL0     C36331   1.944   7.462   5.682  0.3642  0.1756  0.3192
  264MOL0     C36332   1.992   7.470   5.534  1.0341  0.4823 -1.1242
  264MOL0     C36333   2.078   7.596   5.510 -0.7817  0.2123 -1.4610
  264MOL0     C36334   2.148   7.577   5.384 -0.1336  0.1517  0.1379
  264MOL0     C36335   2.280   7.498   5.394 -0.9772 -0.2299 -0.1978
  264MOL0     C36336   2.371   7.524   5.268  0.1900 -0.1142  0.1316
  264MOL0     C36337   2.332   7.428   5.153  0.5690  0.4330 -0.3630
  264MOL0     C36338   2.370   7.498   5.021  0.0114  0.9967  0.0881
  264MOL0    Cl36339   2.246   7.612   4.974 -0.3461  0.3066 -0.5287
  264MOL0     C36340   2.071   7.197   5.739 -0.3876 -0.0227 -0.4330
  264MOL0     C36341   2.123   7.072   5.771 -0.8893  1.0828  0.0682
  264MOL0     O36342   2.473   7.033   5.929  0.6235 -0.5070  0.6127
  264MOL0     C36343   2.389   6.682   5.930 -0.0816 -0.9223  0.5787
  264MOL0     C36344   2.443   6.548   5.938 -0.9809  0.5113 -0.8259
  264MOL0     N36345   2.137   6.339   5.883 -0.5694  0.1634 -0.7027
  264MOL0     N36346   2.027   6.395   5.929 -0.8258  0.3540 -0.2030
  264MOL0     C36347   1.442   5.429   6.154  0.3287  0.7895  0.2206
  264MOL0     C36348   1.531   5.326   6.143  1.5467 -0.2266  0.7131
  264MOL0     C36349   1.902   5.076   6.187 -0.3478  0.3030 -0.6692
  264MOL0     C36350   2.033   5.059   6.229  0.9223 -0.3176  0.1056
  264MOL0     C36351   2.101   4.934   6.208 -0.2028 -0.3364  0.7090
  264MOL0     C36352   2.027   4.831   6.147 -0.2395 -0.9889  0.3628
  264MOL0     O36353   2.096   4.712   6.137  0.4606 -0.2617  0.2034
  264MOL0     C36354   2.067   4.642   6.018 -0.7557  0.4461  0.4257
  264MOL0     C36355   2.112   4.491   6.035  0.7630 -1.0947 -0.5409
  264MOL0     C36356   2.087   4.411   5.900  0.0848 -0.2897  0.2863
  264MOL0     C36357   2.156   4.448   5.769 -0.0216  0.0235 -0.1145
  264MOL0     C36358   2.082   4.557   5.701 -0.2134  0.0243 -0.0221
  264MOL0     C36359   2.033   4.660   5.643  0.3933  0.5906 -0.3888
  264MOL0     C36360   1.898   4.853   6.104 -0.1376  0.2020  0.0002
  264MOL0     C36361   1.833   4.972   6.117 -0.3411  0.1628  0.9912
  264MOL0     C36362   1.693   4.987   6.058 -1.0204 -0.7322 -0.1869
  264MOL0     H36363   1.754   5.400   6.381  0.0577  2.9111  1.0964
  264MOL0     H36364   1.593   5.605   6.404  0.2556  2.8506 -2.4805
  264MOL0     H36365   1.290   5.798   6.183  2.9102  1.3181 -1.1856
  264MOL0     H36366   1.291   5.672   6.077 -1.3032 -0.6466  2.6484
  264MOL0     H36367   1.542   5.824   6.186  3.4017 -1.0424 -1.4277
  264MOL0     H36368   1.546   5.714   6.058 -0.3569 -0.3194  1.8739
  264MOL0     H36369   1.407   5.848   5.917 -1.5572 -1.1099  0.3005
  264MOL0     H36370   1.374   5.967   6.053  3.0180  0.6366  3.4459
  264MOL0     H36371   1.651   5.900   5.922  0.4907  0.6604  0.2705
  264MOL0     H36372   1.566   6.039   5.871 -0.2715 -0.2514 -0.7589
  264MOL0     H36373   1.653   5.999   6.165 -2.1940  0.0103 -0.0704
  264MOL0     H36374   1.548   6.130   6.110  2.3189  1.1069  3.3998
  264MOL0     H36375   1.835   6.072   6.017 -0.2231  0.0299  1.0162
  264MOL0     H36376   1.727   6.194   5.951  2.3178 -1.6381 -0.8155
  264MOL0     H36377   1.812   6.182   6.239 -1.5926  1.0735  1.2608
  264MOL0     H36378   1.683   6.284   6.174  1.7250  2.6646  1.2570
  264MOL0     H36379   1.833   6.437   6.080 -1.8689  0.5172  2.2974
  264MOL0     H36380   1.935   6.378   6.222 -0.2339 -0.6600  0.1295
  264MOL0     H36381   2.055   6.136   6.120 -0.1928  0.4436 -0.5985
  264MOL0     H36382   2.283   6.127   5.794  2.2811  0.7899  0.6274
  264MOL0     H36383   2.217   6.016   5.917  0.6523 -0.5928 -1.1587
  264MOL0     H36384   2.370   6.144   6.078 -0.8691  2.3825 -0.5178
  264MOL0     H36385   2.445   6.024   5.981 -1.2056 -0.0571  0.3872
  264MOL0     H36386   2.587   6.186   5.867 -1.1147 -2.9654 -0.0441
  264MOL0     H36387   2.451   6.295   5.855  2.3016  1.0870  0.4578
  264MOL0     H36388   2.461   6.323   6.102 -0.4473 -0.0450 -0.1918
  264MOL0     H36389   2.596   6.226   6.109 -3.3575 -2.8737 -0.1068
  264MOL0     H36390   2.758   6.624   5.992  0.2440  0.6017  1.0500
  264MOL0     H36391   2.707   6.959   5.882  1.7481  3.2198  2.6534
  264MOL0     H36392   2.823   6.851   5.955 -0.2376  1.2681  0.0019
  264MOL0     H36393   2.707   6.945   6.052  0.3368  1.3128  0.9022
  264MOL0     H36394   2.284   7.148   6.045 -1.0544 -1.2063 -0.5232
  264MOL0     H36395   2.202   7.386   5.990 -5.6822  0.5326  1.3849
  264MOL0     H36396   1.879   7.375   5.680 -0.2160  0.5488  1.6236
  264MOL0     H36397   1.890   7.549   5.722  1.4533 -0.4069  3.3680
  264MOL0     H36398   2.029   7.371   5.506  2.3104  0.7075 -0.3213
  264MOL0     H36399   1.894   7.476   5.486 -2.3292 -3.1220  4.1596
  264MOL0     H36400   2.146   7.613   5.595  0.2471 -0.0525 -2.2062
  264MOL0     H36401   2.009   7.680   5.500  0.1201  0.9458 -1.6306
  264MOL0     H36402   2.166   7.675   5.338 -1.0536 -0.2380 -1.1251
  264MOL0     H36403   2.082   7.525   5.314 -0.3985 -1.5290  1.5944
  264MOL0     H36404   2.322   7.552   5.480 -2.0936 -1.0455  0.9095
  264MOL0     H36405   2.274   7.392   5.419  1.6539 -0.0628  1.5249
  264MOL0     H36406   2.477   7.511   5.290  1.1762  3.1545 -2.0073
  264MOL0     H36407   2.358   7.629   5.241  1.7688  0.4016  1.2810
  264MOL0     H36408   2.226   7.400   5.162  0.5922  0.8181  1.4893
  264MOL0     H36409   2.393   7.339   5.168 -0.1353  0.1656  1.0922
  264MOL0     H36410   2.369   7.424   4.941 -3.2194  0.9685  0.0405
  264MOL0     H36411   2.468   7.547   5.023 -1.4687  4.1954  0.4410
  264MOL0     H36412   2.001   7.197   5.656 -1.2778 -0.2549  0.2974
  264MOL0     H36413   2.097   6.982   5.716  1.0882  0.1467  0.5544
  264MOL0     H36414   2.282   6.687   5.914  0.3617 -2.3701 -4.8402
  264MOL0     H36415   2.367   6.471   5.943  2.6109 -3.3582 -0.7661
  264MOL0     H36416   1.348   5.428   6.099  0.2710  0.2157  0.3230
  264MOL0     H36417   1.518   5.243   6.075  1.9371  0.3750 -0.1130
  264MOL0     H36418   2.090   5.131   6.287 -1.8354 -0.9738  4.0426
  264MOL0     H36419   2.203   4.907   6.231  0.3952  0.5939 -0.6906
  264MOL0     H36420   1.966   4.629   5.978 -0.3995 -1.3101  0.0311
  264MOL0     H36421   2.126   4.691   5.939 -1.3371 -0.2436 -0.4433
  264MOL0     H36422   2.054   4.436   6.110 -1.7980 -0.0517 -1.6433
  264MOL0     H36423   2.216   4.482   6.064  1.0725 -1.6998 -1.7633
  264MOL0     H36424   2.129   4.311   5.917  0.3953 -0.3207 -0.5980
  264MOL0     H36425   1.980   4.394   5.886 -0.2027  0.0138  1.9332
  264MOL0     H36426   2.163   4.367   5.695  0.2150  1.1332 -1.3368
  264MOL0     H36427   2.260   4.480   5.779  0.0218  1.7649 -4.1632
  264MOL0     H36428   1.987   4.749   5.606 -0.2815  1.4038  2.1607
  264MOL0     H36429   1.853   4.771   6.049  1.2011 -1.4265  1.2183
  264MOL0     H36430   1.607   4.978   6.125 -0.6796  1.4515  0.6207
  264MOL0     H36431   1.672   5.083   6.010 -1.0806  1.0693  3.1932
  264MOL0     H36432   1.687   4.909   5.981 -0.4652 -1.7421  0.7604
  265MOL0     O36433   5.507   3.513   9.693 -0.1966 -0.7980  0.1265
  265MOL0     C36434   5.611   3.536   9.747 -0.0375  0.4300 -0.6518
  265MOL0     O36435   5.669   3.449   9.838 -0.3784  1.0210  0.6133
  265MOL0     C36436   5.601   3.326   9.868  0.7280 -0.0311  0.4252
  265MOL0     C36437   5.586   3.307  10.008 -0.0891  1.5512 -0.7494
  265MOL0     C36438   5.537   3.180  10.060 -0.3454 -0.7169 -0.0277
  265MOL0     C36439   5.510   3.072   9.974 -0.4914 -0.3598 -0.9059
  265MOL0     O36440   5.472   2.954  10.017  0.3590  0.3783 -0.2270
  265MOL0     C36441   5.556   2.895  10.112 -0.1862 -0.1776  0.1814
  265MOL0     C36442   5.467   2.809  10.208 -0.3391  0.3615  0.4651
  265MOL0     C36443   5.420   2.901  10.320 -0.7112  0.9184  0.8222
  265MOL0     C36444   5.516   2.896  10.450 -0.0966 -0.3096  0.8146
  265MOL0     C36445   5.486   3.007  10.552 -0.7350  0.7327 -0.1600
  265MOL0     C36446   5.608   3.010  10.650  0.3445  0.1143  0.4629
  265MOL0     C36447   5.573   3.127  10.749 -0.3469  0.5760  0.0743
  265MOL0     C36448   5.665   3.145  10.872 -0.7258  0.6122 -0.2289
  265MOL0     N36449   5.636   3.272  10.950  0.0083  1.1373 -0.6670
  265MOL0     C36450   5.544   3.277  11.056  0.4751  0.1831  0.6855
  265MOL0     C36451   5.536   3.415  11.072 -0.7733  0.6536 -0.4816
  265MOL0     C36452   5.437   3.484  11.155  0.7423  0.0263 -0.1463
  265MOL0     C36453   5.367   3.378  11.250 -0.1807 -0.5590  0.2756
  265MOL0     C36454   5.288   3.428  11.371  0.6885 -0.4898 -0.2571
  265MOL0     C36455   5.183   3.536  11.329  0.6856 -0.4956  0.3012
  265MOL0     O36456   5.105   3.484  11.218  0.3784 -0.1250 -0.0939
  265MOL0     C36457   4.996   3.399  11.227  0.0214  0.5235  0.8328
  265MOL0     C36458   4.963   3.329  11.346 -1.1138  0.0968  0.5843
  265MOL0     C36459   4.846   3.246  11.346  0.0684  0.7233 -0.3770
  265MOL0     C36460   4.820   3.181  11.480 -0.5126 -0.1051  1.0411
  265MOL0     C36461   4.769   3.232  11.231 -0.1836  0.5395 -0.5963
  265MOL0     C36462   4.648   3.140  11.220 -0.2475 -0.0450  1.1759
  265MOL0     O36463   4.644   3.027  11.291 -0.3948  0.7631 -0.0805
  265MOL0     C36464   4.535   2.949  11.274  0.1077  0.9575  0.3057
  265MOL0     C36465   4.437   2.946  11.370 -0.0138  0.3186 -0.8443
  265MOL0     C36466   4.336   2.852  11.373 -0.2363 -0.0720  0.1387
  265MOL0     C36467   4.326   2.759  11.269  0.1772  0.1453  0.2608
  265MOL0     O36468   4.227   2.668  11.258  0.4996  0.2782  0.6063
  265MOL0     C36469   4.164   2.613  11.372  0.4649 -0.2317 -0.4154
  265MOL0     C36470   4.102   2.475  11.352 -0.3204  0.3524  0.7002
  265MOL0     C36471   4.219   2.363  11.365 -0.4729 -0.3105 -0.0866
  265MOL0     C36472   4.178   2.227  11.302 -0.0641  0.0603 -0.8525
  265MOL0     C36473   4.271   2.125  11.356  0.3494 -0.6972  0.2245
  265MOL0     C36474   4.211   1.986  11.331  0.2582  0.9217 -0.6540
  265MOL0     C36475   4.307   1.885  11.400 -0.2370 -0.8446  0.5639
  265MOL0     C36476   4.255   1.737  11.392 -0.1019  0.3478  0.0779
  265MOL0    Cl36477   4.388   1.623  11.364  0.0443  0.1969 -0.0649
  265MOL0     C36478   4.406   2.779  11.151 -0.6374 -0.2184 -0.1435
  265MOL0     C36479   4.519   2.868  11.163 -0.0065 -0.2223 -0.1920
  265MOL0     O36480   4.565   3.176  11.141  0.1115 -0.1459  0.3068
  265MOL0     C36481   4.814   3.301  11.114  0.0127  0.3040 -0.2762
  265MOL0     C36482   4.930   3.375  11.113  0.0217 -0.6308 -0.1940
  265MOL0     N36483   5.617   3.481  10.980 -0.2559 -0.8151 -0.4891
  265MOL0     N36484   5.670   3.395  10.902  0.7831  1.0612  0.6090
  265MOL0     C36485   5.524   3.093   9.831 -0.0477  0.2021 -0.3817
  265MOL0     C36486   5.560   3.217   9.781  0.1445  0.3804  1.1815
  265MOL0     C36487   5.686   3.660   9.728  0.6834 -0.4949  0.2509
  265MOL0     C36488   5.779   3.696   9.821 -0.1676  0.3912  0.1389
  265MOL0     C36489   5.822   3.827   9.822  0.2541 -0.1368 -0.3574
  265MOL0     C36490   5.783   3.919   9.718 -0.9100  0.2744 -0.3814
  265MOL0     O36491   5.845   4.046   9.725  0.2202  0.7073  0.5995
  265MOL0     C36492   5.754   4.156   9.736  0.3638 -0.3873  0.2513
  265MOL0     C36493   5.820   4.283   9.788  0.4676 -1.0529 -0.5839
  265MOL0     C36494   5.708   4.396   9.793  0.6131  1.0099 -0.1450
  265MOL0     C36495   5.769   4.516   9.861  0.7817  0.5717  0.1285
  265MOL0     C36496   5.785   4.502  10.011 -0.3220 -0.0714 -0.0079
  265MOL0     C36497   5.795   4.501  10.132 -0.2148  0.3350  0.1026
  265MOL0     C36498   5.706   3.877   9.609  0.0073  0.8541 -0.7009
  265MOL0     C36499   5.652   3.747   9.622  0.0682  0.4702 -0.0722
  265MOL0     C36500   5.572   3.710   9.501  0.1695  0.2913 -0.3511
  265MOL0     H36501   5.599   3.402  10.059  0.8669  1.6291 -1.1172
  265MOL0     H36502   5.520   3.180  10.167  1.2665  0.0585  0.2729
  265MOL0     H36503   5.619   2.958  10.175  1.3370 -2.6202  1.2407
  265MOL0     H36504   5.621   2.832  10.051 -0.4258 -0.6401  0.3957
  265MOL0     H36505   5.379   2.773  10.154  2.2927 -1.3706 -3.1171
  265MOL0     H36506   5.523   2.722  10.242  1.9519  1.8142  0.6502
  265MOL0     H36507   5.415   3.005  10.288  4.4002  2.1289  2.8772
  265MOL0     H36508   5.324   2.855  10.344 -0.3685 -3.6059 -4.3668
  265MOL0     H36509   5.515   2.791  10.480 -0.0406 -1.7413 -3.5487
  265MOL0     H36510   5.612   2.926  10.406 -2.0902  0.2793 -3.6102
  265MOL0     H36511   5.396   2.981  10.608 -1.7194 -0.0687 -2.0327
  265MOL0     H36512   5.473   3.103  10.502 -3.2341 -1.1661 -3.5012
  265MOL0     H36513   5.623   2.912  10.696  2.7036 -0.3442 -1.0757
  265MOL0     H36514   5.705   3.024  10.601 -0.2773  1.5790 -0.4132
  265MOL0     H36515   5.471   3.112  10.785 -0.0221 -1.7748  0.1754
  265MOL0     H36516   5.582   3.221  10.693  1.0458  1.5756  1.8420
  265MOL0     H36517   5.652   3.058  10.938 -0.5102  0.6263 -0.1671
  265MOL0     H36518   5.770   3.153  10.842 -0.5162  5.7351  1.0407
  265MOL0     H36519   5.497   3.192  11.105 -0.0090 -0.7979 -1.3391
  265MOL0     H36520   5.354   3.530  11.101  0.8714  3.4010  2.2361
  265MOL0     H36521   5.490   3.565  11.206 -2.7173  3.2177 -1.1580
  265MOL0     H36522   5.297   3.312  11.197 -1.0491  1.0499 -0.6714
  265MOL0     H36523   5.444   3.308  11.285  0.8274  0.7109  0.6522
  265MOL0     H36524   5.240   3.340  11.417  0.3399  0.1954  0.7373
  265MOL0     H36525   5.349   3.464  11.454 -0.9639  0.0277  0.7927
  265MOL0     H36526   5.123   3.567  11.415 -3.1672 -2.3146 -1.4877
  265MOL0     H36527   5.226   3.629  11.290  2.4455 -0.5500  2.0026
  265MOL0     H36528   5.022   3.339  11.436 -3.1843  0.7653  1.9539
  265MOL0     H36529   4.890   3.097  11.485  2.7312  2.2348 -1.1849
  265MOL0     H36530   4.721   3.136  11.491  1.1996 -5.3516 -1.2742
  265MOL0     H36531   4.818   3.246  11.567 -2.2878 -0.1888  1.1101
  265MOL0     H36532   4.441   3.020  11.449  0.8591 -0.0435 -0.5411
  265MOL0     H36533   4.272   2.860  11.461  1.1260  4.2360  0.9720
  265MOL0     H36534   4.241   2.611  11.450  0.8628 -2.9987 -0.7748
  265MOL0     H36535   4.088   2.684  11.404  2.0343  1.2105  0.2449
  265MOL0     H36536   4.024   2.453  11.426  0.6005 -1.4556  1.1889
  265MOL0     H36537   4.052   2.463  11.256  1.1635  0.6104 -0.1342
  265MOL0     H36538   4.251   2.353  11.469 -3.3079 -0.6263  0.8269
  265MOL0     H36539   4.304   2.399  11.306 -1.3144  0.0469 -1.0952
  265MOL0     H36540   4.187   2.230  11.193 -0.0868 -3.3972 -1.0456
  265MOL0     H36541   4.075   2.208  11.333  0.4213  0.9063  1.4268
  265MOL0     H36542   4.368   2.144  11.309  0.4980  0.9876  1.1350
  265MOL0     H36543   4.283   2.131  11.465 -4.5992 -0.8896  1.0106
  265MOL0     H36544   4.218   1.967  11.223 -0.8750 -0.6995 -0.4755
  265MOL0     H36545   4.114   1.977  11.380  1.0095 -4.7000  0.5016
  265MOL0     H36546   4.331   1.910  11.503  2.4318 -0.5299 -0.0627
  265MOL0     H36547   4.399   1.905  11.345 -0.3482  1.0846  1.0345
  265MOL0     H36548   4.186   1.731  11.307 -2.8579  2.3919  2.0052
  265MOL0     H36549   4.204   1.713  11.485 -0.3275 -1.5776 -0.5121
  265MOL0     H36550   4.384   2.729  11.058  1.8974  1.4865 -1.7668
  265MOL0     H36551   4.586   2.889  11.080  0.2832 -1.0252 -0.1589
  265MOL0     H36552   4.776   3.283  11.014  3.1684  0.3941 -1.5924
  265MOL0     H36553   4.966   3.429  11.025 -0.3429 -0.1605 -0.0628
  265MOL0     H36554   5.503   3.004   9.774 -0.7433  0.2997 -0.2918
  265MOL0     H36555   5.552   3.225   9.673  2.1925 -0.1945  0.9373
  265MOL0     H36556   5.810   3.624   9.896 -2.0051  0.5651  1.0993
  265MOL0     H36557   5.899   3.853   9.895 -1.2704 -2.1421  2.1380
  265MOL0     H36558   5.715   4.171   9.635  1.6543 -0.3869 -0.2683
  265MOL0     H36559   5.675   4.136   9.809  0.2766  0.0547  0.2780
  265MOL0     H36560   5.906   4.312   9.727  0.2342  1.2244  0.0588
  265MOL0     H36561   5.856   4.268   9.890  2.1637 -2.3462 -1.3168
  265MOL0     H36562   5.660   4.425   9.699 -1.6543 -1.2913  0.1867
  265MOL0     H36563   5.630   4.359   9.861  0.3721  2.1023  0.1979
  265MOL0     H36564   5.694   4.590   9.832 -0.8963 -0.5003  1.5534
  265MOL0     H36565   5.867   4.545   9.821  0.8165 -0.1628 -0.3288
  265MOL0     H36566   5.810   4.503  10.238 -1.7711  0.4043  0.3534
  265MOL0     H36567   5.677   3.934   9.521 -4.2594  0.2242  0.1083
  265MOL0     H36568   5.605   3.771   9.417  1.3619  0.1543 -0.0098
  265MOL0     H36569   5.593   3.606   9.474  0.6952  0.8766 -2.4277
  265MOL0     H36570   5.465   3.725   9.515  0.1242 -0.3596  0.0216
  266MOL0     O36571   5.904   4.074   7.317 -1.0021 -0.6279 -0.1396
  266MOL0     C36572   5.992   4.068   7.230  0.6846 -1.4832  0.2608
  266MOL0     O36573   6.115   4.122   7.251  0.5274  0.2092  0.5613
  266MOL0     C36574   6.138   4.196   7.365  0.8104  0.7121  0.3981
  266MOL0     C36575   6.140   4.331   7.352 -0.5583  0.3992  0.6442
  266MOL0     C36576   6.170   4.390   7.475  0.8641  0.5279  0.1923
  266MOL0     C36577   6.193   4.317   7.597  0.8293  0.0339 -0.0842
  266MOL0     O36578   6.181   4.380   7.718 -0.4832 -0.0654  0.0700
  266MOL0     C36579   6.279   4.343   7.817  0.7183  0.1285  0.0452
  266MOL0     C36580   6.335   4.459   7.886  0.3346 -1.3682  0.9994
  266MOL0     C36581   6.223   4.553   7.949  0.0956 -0.0956 -0.9040
  266MOL0     C36582   6.276   4.667   8.029  0.2513  0.1443 -0.6457
  266MOL0     C36583   6.212   4.678   8.170 -0.3853  0.3591  0.1431
  266MOL0     C36584   6.261   4.582   8.274  0.3532 -0.1783  0.5201
  266MOL0     C36585   6.237   4.626   8.423 -0.1678 -0.3218  0.7019
  266MOL0     C36586   6.090   4.585   8.469 -0.1089  0.1375 -0.0388
  266MOL0     N36587   6.085   4.598   8.614  0.1093  1.1781 -0.0115
  266MOL0     C36588   6.050   4.498   8.700 -0.5096  0.5958 -0.4519
  266MOL0     C36589   6.020   4.562   8.821  0.1365 -1.1284  0.8301
  266MOL0     C36590   5.956   4.518   8.953 -0.2528  0.2658 -0.6971
  266MOL0     C36591   5.807   4.541   8.967 -0.9258 -0.3326 -0.2170
  266MOL0     C36592   5.777   4.696   8.973 -0.5367 -0.4445  0.9227
  266MOL0     C36593   5.624   4.724   8.985  0.2998  0.5427 -0.2039
  266MOL0     O36594   5.544   4.616   8.936 -0.3659 -0.3750 -0.5918
  266MOL0     C36595   5.502   4.614   8.806 -1.4761  0.1843  0.1781
  266MOL0     C36596   5.417   4.511   8.766  0.1916 -0.3281  0.2413
  266MOL0     C36597   5.394   4.489   8.627 -0.0230  0.1757 -0.9470
  266MOL0     C36598   5.309   4.361   8.595 -0.0614 -0.0162 -0.0366
  266MOL0     C36599   5.443   4.585   8.538 -0.5288  0.8095 -0.1950
  266MOL0     C36600   5.404   4.581   8.393 -0.4462 -0.7073 -0.5566
  266MOL0     O36601   5.292   4.517   8.367  0.2570 -0.7028  0.0211
  266MOL0     C36602   5.229   4.539   8.245 -1.1437 -0.6813  0.6526
  266MOL0     C36603   5.224   4.670   8.192 -0.6300  0.8016 -0.0730
  266MOL0     C36604   5.157   4.696   8.073 -0.0536 -0.2706 -0.1743
  266MOL0     C36605   5.095   4.595   7.999  0.4763  0.1323  0.2042
  266MOL0     O36606   5.046   4.644   7.885  0.0575 -0.0625 -0.0185
  266MOL0     C36607   4.929   4.567   7.837  0.8022  0.1905 -0.0873
  266MOL0     C36608   4.880   4.642   7.713 -0.6586 -0.0179 -1.1900
  266MOL0     C36609   4.986   4.638   7.599  0.5194 -0.4252 -0.3035
  266MOL0     C36610   4.943   4.747   7.499 -0.2159 -1.2779  1.2185
  266MOL0     C36611   5.038   4.744   7.375  0.5640 -0.3706 -0.6016
  266MOL0     C36612   4.993   4.855   7.281 -1.2890  0.3290  0.5508
  266MOL0     C36613   5.059   4.847   7.147  0.0387  0.2954  0.4484
  266MOL0     C36614   5.028   4.975   7.056  0.4835 -0.0553 -0.5575
  266MOL0    Cl36615   5.109   5.134   7.106  0.0815 -0.1327 -0.2310
  266MOL0     C36616   5.112   4.467   8.046 -0.0297 -0.5351  1.0563
  266MOL0     C36617   5.176   4.441   8.169  1.2130  0.1357 -0.4056
  266MOL0     O36618   5.471   4.650   8.318  0.1036 -0.6042 -0.3524
  266MOL0     C36619   5.535   4.680   8.582  0.4732 -0.7666  0.6266
  266MOL0     C36620   5.573   4.689   8.709 -0.4037  0.1690 -0.4172
  266MOL0     N36621   6.056   4.692   8.806 -0.0707 -0.6277 -0.1290
  266MOL0     N36622   6.088   4.714   8.684 -0.8110 -0.5820 -0.6708
  266MOL0     C36623   6.183   4.177   7.598 -0.4845  0.0141  0.5360
  266MOL0     C36624   6.177   4.114   7.476  1.1613 -0.6764  0.7935
  266MOL0     C36625   5.952   4.020   7.091  0.2686  0.4874 -0.1655
  266MOL0     C36626   5.836   3.947   7.078 -0.1809 -0.3683  0.7430
  266MOL0     C36627   5.793   3.894   6.957 -0.6733  0.9105 -0.4551
  266MOL0     C36628   5.855   3.907   6.834 -0.0700 -0.1602 -0.6220
  266MOL0     O36629   5.791   3.862   6.721 -0.7184 -0.6780 -0.4185
  266MOL0     C36630   5.849   3.915   6.602 -0.8253  0.0178 -0.7921
  266MOL0     C36631   5.752   3.894   6.482 -0.1883  0.6727  0.4499
  266MOL0     C36632   5.692   3.752   6.473 -0.7470  0.6061  0.6983
  266MOL0     C36633   5.576   3.738   6.366 -1.0932  0.0420 -1.3394
  266MOL0     C36634   5.585   3.610   6.289 -0.1340  0.2353 -0.2180
  266MOL0     C36635   5.581   3.503   6.235  0.3630  0.4169  1.5102
  266MOL0     C36636   5.972   3.976   6.846  0.6833  0.0874  0.0449
  266MOL0     C36637   6.023   4.038   6.970 -0.4049 -0.3167  0.0488
  266MOL0     C36638   6.141   4.130   6.954 -0.8460 -1.1182 -0.2387
  266MOL0     H36639   6.129   4.395   7.265  0.8576  0.3490  0.4092
  266MOL0     H36640   6.198   4.495   7.484 -1.9322  1.2786  0.9613
  266MOL0     H36641   6.365   4.299   7.766  0.7964 -0.4111  0.6300
  266MOL0     H36642   6.249   4.271   7.893  2.0045  0.2496  0.6912
  266MOL0     H36643   6.401   4.429   7.968  0.9426  0.4671  1.2261
  266MOL0     H36644   6.383   4.515   7.805 -3.5141  1.4119  0.3243
  266MOL0     H36645   6.152   4.591   7.876  1.4049 -2.2488 -3.4573
  266MOL0     H36646   6.161   4.485   8.009 -0.0725 -0.4169 -1.4401
  266MOL0     H36647   6.385   4.654   8.023  0.4485  0.7131  1.1604
  266MOL0     H36648   6.257   4.760   7.977 -1.3067 -0.7196 -1.6835
  266MOL0     H36649   6.104   4.665   8.161 -0.0359 -2.3929 -0.9314
  266MOL0     H36650   6.235   4.783   8.191 -0.3335  0.9567 -2.4931
  266MOL0     H36651   6.208   4.488   8.256  0.0884 -0.2140  1.4361
  266MOL0     H36652   6.366   4.561   8.248  0.4800  0.7324  0.2729
  266MOL0     H36653   6.260   4.732   8.437  1.7657 -0.3010 -1.7755
  266MOL0     H36654   6.308   4.575   8.490  0.1818 -2.6979 -1.3258
  266MOL0     H36655   6.020   4.653   8.419 -1.5314 -1.0538  0.2575
  266MOL0     H36656   6.052   4.486   8.441  1.0027 -0.1361 -0.6444
  266MOL0     H36657   6.042   4.392   8.679 -0.9780  1.3486 -4.9042
  266MOL0     H36658   6.006   4.579   9.028  2.1569 -0.7340 -1.3838
  266MOL0     H36659   5.965   4.409   8.963 -1.5378  0.2207  0.2875
  266MOL0     H36660   5.759   4.490   8.883  0.4312  0.7516 -1.7042
  266MOL0     H36661   5.781   4.497   9.064 -0.1935 -1.3734 -0.4745
  266MOL0     H36662   5.826   4.750   9.055  0.8575 -0.2341 -0.0083
  266MOL0     H36663   5.803   4.738   8.875  0.5614  2.3446  2.2742
  266MOL0     H36664   5.606   4.725   9.093  1.7009 -2.7918  0.1904
  266MOL0     H36665   5.588   4.820   8.946 -1.6681  0.2822  0.8093
  266MOL0     H36666   5.373   4.460   8.852 -0.8894  0.5628  0.2352
  266MOL0     H36667   5.283   4.313   8.689 -0.5686  1.3023  0.5200
  266MOL0     H36668   5.366   4.296   8.527 -1.4930 -1.1039 -0.2428
  266MOL0     H36669   5.216   4.401   8.555 -0.1261  4.3173  3.6060
  266MOL0     H36670   5.239   4.758   8.253 -2.8606  0.2416  1.3645
  266MOL0     H36671   5.150   4.798   8.037 -0.1551 -0.0149  0.5433
  266MOL0     H36672   4.966   4.468   7.807 -1.7771 -0.6685 -0.7085
  266MOL0     H36673   4.858   4.564   7.921  2.7042  1.2517  1.6397
  266MOL0     H36674   4.781   4.601   7.689 -1.4943 -1.1161  3.1476
  266MOL0     H36675   4.862   4.743   7.751  0.9538 -1.2814  3.7213
  266MOL0     H36676   4.973   4.538   7.555 -2.5482 -2.0693  3.6638
  266MOL0     H36677   5.086   4.668   7.630  0.6865 -0.3498 -0.8940
  266MOL0     H36678   4.951   4.847   7.543  0.8158 -0.5772 -0.4697
  266MOL0     H36679   4.836   4.754   7.478 -0.0527  3.1522  0.9206
  266MOL0     H36680   5.136   4.760   7.421  0.2477  0.2805 -0.1276
  266MOL0     H36681   5.036   4.648   7.323  0.1180  0.7778 -2.8181
  266MOL0     H36682   5.017   4.946   7.337  0.8576  0.3111 -0.2597
  266MOL0     H36683   4.885   4.858   7.262 -1.6965 -0.0825  2.5993
  266MOL0     H36684   5.039   4.756   7.091  0.6499  1.8202 -2.4296
  266MOL0     H36685   5.168   4.848   7.162 -0.1285 -3.0671  3.0652
  266MOL0     H36686   4.919   4.978   7.068  0.8048  1.0495  3.7856
  266MOL0     H36687   5.028   4.941   6.952 -0.5429  0.1322 -0.6273
  266MOL0     H36688   5.057   4.403   7.977  1.7230 -0.5247 -0.4283
  266MOL0     H36689   5.178   4.340   8.207 -0.3356 -0.5708 -2.0645
  266MOL0     H36690   5.577   4.746   8.506 -3.8136 -1.2733 -2.5696
  266MOL0     H36691   5.646   4.764   8.734 -0.5310  0.5857 -1.2526
  266MOL0     H36692   6.206   4.136   7.695  1.8702  3.8404  1.8060
  266MOL0     H36693   6.182   4.006   7.474  0.9556 -0.7452  2.5411
  266MOL0     H36694   5.773   3.943   7.167 -1.1052  0.9454  0.1802
  266MOL0     H36695   5.703   3.835   6.946 -0.3243  0.3674 -0.4146
  266MOL0     H36696   5.875   4.020   6.618 -1.2395 -0.2283  1.8402
  266MOL0     H36697   5.948   3.875   6.577  1.2181  1.7441  3.5361
  266MOL0     H36698   5.818   3.904   6.395  2.0255 -0.9769  1.8503
  266MOL0     H36699   5.676   3.973   6.474 -1.4438 -0.2122  2.8638
  266MOL0     H36700   5.774   3.683   6.449  1.0680  3.4359 -1.9784
  266MOL0     H36701   5.656   3.725   6.573  0.9621  0.5230  1.3251
  266MOL0     H36702   5.578   3.826   6.302 -0.2043  1.4806  0.5494
  266MOL0     H36703   5.490   3.731   6.433  0.1412 -0.5457  0.2596
  266MOL0     H36704   5.560   3.411   6.183  1.0911 -0.0490  2.0142
  266MOL0     H36705   6.025   3.997   6.754  0.5631  0.2438  0.0096
  266MOL0     H36706   6.236   4.101   6.999 -1.6144 -1.4432  1.2532
  266MOL0     H36707   6.164   4.151   6.849  1.3112  0.0257  0.4085
  266MOL0     H36708   6.117   4.229   6.996  3.3340 -0.1125  0.2238
  267MOL0     O36709   0.740   4.823   0.316 -0.2300 -0.2632  0.5219
  267MOL0     C36710   0.738   4.856   0.429  0.2303 -0.1876 -0.2817
  267MOL0     O36711   0.680   4.781   0.527 -0.5511 -0.8038  0.1954
  267MOL0     C36712   0.617   4.675   0.477  0.7151  0.3459 -0.2428
  267MOL0     C36713   0.684   4.546   0.471 -0.4031 -0.3304  0.0266
  267MOL0     C36714   0.612   4.431   0.433  0.2360 -0.4826  0.2784
  267MOL0     C36715   0.483   4.439   0.379 -0.0701 -0.5683 -0.9562
  267MOL0     O36716   0.426   4.321   0.339  0.5907 -0.7430 -0.3005
  267MOL0     C36717   0.318   4.283   0.413  0.9322 -0.6361 -0.4042
  267MOL0     C36718   0.351   4.221   0.546  0.4823 -0.2814  0.1340
  267MOL0     C36719   0.464   4.117   0.544  0.5116  0.1784  1.1065
  267MOL0     C36720   0.442   4.013   0.655  0.1795 -0.3786  0.0142
  267MOL0     C36721   0.421   4.075   0.797 -0.1063  0.7136  0.4399
  267MOL0     C36722   0.527   4.172   0.833 -1.0005 -0.1438 -0.3932
  267MOL0     C36723   0.503   4.213   0.981  0.7819 -0.7398 -0.2191
  267MOL0     C36724   0.559   4.114   1.084  0.7149 -0.3805  0.7340
  267MOL0     N36725   0.704   4.108   1.061 -0.2314  0.3180  0.2431
  267MOL0     C36726   0.797   4.206   1.069  1.3269 -1.1805  0.1438
  267MOL0     C36727   0.922   4.150   1.054 -0.2596 -0.6041 -0.5732
  267MOL0     C36728   1.047   4.217   1.051  0.1875  0.2819 -0.4676
  267MOL0     C36729   1.053   4.353   0.988  0.0027 -1.3537  1.1399
  267MOL0     C36730   1.016   4.342   0.838 -0.3660 -0.6662  0.0478
  267MOL0     C36731   1.058   4.475   0.762 -0.7778  1.2051  0.7197
  267MOL0     O36732   1.001   4.592   0.817  0.5765  0.6420 -0.0874
  267MOL0     C36733   1.053   4.710   0.763 -0.3290  0.1134 -0.2983
  267MOL0     C36734   1.043   4.814   0.852  0.1293 -0.2848  0.4620
  267MOL0     C36735   1.106   4.934   0.819 -0.0534 -0.4438 -0.2974
  267MOL0     C36736   1.085   5.044   0.919  0.8886  0.8147 -0.0258
  267MOL0     C36737   1.184   4.953   0.707  0.0054  0.7945 -0.7636
  267MOL0     C36738   1.267   5.066   0.692 -0.1896 -0.1754  1.3499
  267MOL0     O36739   1.213   5.191   0.675  0.1521 -0.1529 -0.2596
  267MOL0     C36740   1.302   5.291   0.692  0.3358  0.3380 -0.4865
  267MOL0     C36741   1.285   5.379   0.809  0.1024  0.6167  0.8996
  267MOL0     C36742   1.375   5.477   0.845 -0.2693 -1.1410  0.1375
  267MOL0     C36743   1.478   5.500   0.749 -0.4620  0.6499 -0.5324
  267MOL0     O36744   1.559   5.604   0.777 -0.3444 -1.0808 -0.2148
  267MOL0     C36745   1.600   5.677   0.664 -0.1267 -1.1611 -0.6116
  267MOL0     C36746   1.665   5.811   0.704 -0.3815  0.0410  0.0977
  267MOL0     C36747   1.600   5.880   0.820 -0.0768 -0.0550 -0.3249
  267MOL0     C36748   1.645   6.023   0.847 -0.4141  0.1421  0.2085
  267MOL0     C36749   1.589   6.087   0.977 -0.4494 -0.7361 -0.7301
  267MOL0     C36750   1.591   6.243   0.981  0.0619 -0.2015 -0.1176
  267MOL0     C36751   1.487   6.301   0.886  0.3030  0.9019 -0.3272
  267MOL0     C36752   1.510   6.447   0.857  0.3388  0.6766 -0.7926
  267MOL0    Cl36753   1.644   6.469   0.738  0.1996 -0.1362  0.1581
  267MOL0     C36754   1.502   5.430   0.631 -0.5735  0.4556  1.3159
  267MOL0     C36755   1.410   5.321   0.608  0.0706  0.4988 -0.0194
  267MOL0     O36756   1.387   5.041   0.680 -0.7124 -0.1963 -0.4199
  267MOL0     C36757   1.187   4.849   0.617  0.2617 -0.3286  0.1833
  267MOL0     C36758   1.126   4.724   0.642  0.2171 -0.3156 -0.1323
  267MOL0     N36759   0.900   4.017   1.041  0.6311 -0.1646  0.3200
  267MOL0     N36760   0.775   3.996   1.040 -0.7077  1.0349  0.8366
  267MOL0     C36761   0.419   4.569   0.386  0.2696  0.0254  0.0120
  267MOL0     C36762   0.478   4.681   0.440 -0.4831 -0.2897  0.2193
  267MOL0     C36763   0.799   4.985   0.473  0.9295  0.0703  0.4170
  267MOL0     C36764   0.786   5.018   0.605 -0.4824  0.1991 -0.8356
  267MOL0     C36765   0.836   5.128   0.654 -0.9924  0.9410 -0.1319
  267MOL0     C36766   0.898   5.225   0.571  0.7454 -0.4471  0.2253
  267MOL0     O36767   0.945   5.336   0.633 -0.3140 -0.1836 -0.8212
  267MOL0     C36768   0.839   5.419   0.678  0.3892 -0.2237  0.5324
  267MOL0     C36769   0.802   5.536   0.582 -0.0767  0.0054  0.2664
  267MOL0     C36770   0.679   5.618   0.613  0.3792 -0.9313 -0.2550
  267MOL0     C36771   0.551   5.536   0.611 -0.7654  0.7743 -0.5681
  267MOL0     C36772   0.439   5.621   0.663 -0.1838 -0.3983  0.4762
  267MOL0     C36773   0.338   5.671   0.691 -0.7350 -0.7554 -0.7767
  267MOL0     C36774   0.904   5.204   0.437 -0.2793 -0.0170 -0.5023
  267MOL0     C36775   0.863   5.081   0.385  0.1122  0.9648  0.3379
  267MOL0     C36776   0.891   5.056   0.234  0.2220  0.4823 -0.1527
  267MOL0     H36777   0.783   4.524   0.510 -0.9065 -2.3017  0.3298
  267MOL0     H36778   0.670   4.340   0.442 -2.5530 -2.3979  0.1532
  267MOL0     H36779   0.279   4.190   0.370 -1.6237 -1.6304  3.4895
  267MOL0     H36780   0.233   4.350   0.430  1.5316 -0.2507  1.2810
  267MOL0     H36781   0.366   4.293   0.627 -0.4003  0.7013 -0.5539
  267MOL0     H36782   0.262   4.167   0.580  1.7533 -0.6274  3.2559
  267MOL0     H36783   0.454   4.073   0.445 -0.7893  0.0438  1.2796
  267MOL0     H36784   0.560   4.168   0.559 -0.8341  2.8891  1.2072
  267MOL0     H36785   0.358   3.947   0.634 -2.0044  1.3562  2.5749
  267MOL0     H36786   0.530   3.949   0.651  0.5000  0.0292  0.3547
  267MOL0     H36787   0.421   3.997   0.874  1.4822  0.6304  0.3930
  267MOL0     H36788   0.322   4.121   0.800 -0.2919  0.9129 -3.6134
  267MOL0     H36789   0.628   4.130   0.834 -1.1598 -0.5454 -0.7329
  267MOL0     H36790   0.528   4.260   0.768  4.5379  0.0327 -0.5313
  267MOL0     H36791   0.395   4.221   0.998  0.6516  2.0444 -1.6107
  267MOL0     H36792   0.545   4.313   0.997 -0.8648 -0.0067 -0.2108
  267MOL0     H36793   0.543   4.140   1.189  0.1487  0.1552  0.5178
  267MOL0     H36794   0.501   4.022   1.073 -1.1222  0.6917  0.9941
  267MOL0     H36795   0.777   4.312   1.084 -0.5942 -1.4038 -0.5089
  267MOL0     H36796   1.106   4.146   0.992 -1.8387 -1.2575 -0.7662
  267MOL0     H36797   1.089   4.217   1.152 -1.3177 -3.4837  0.3153
  267MOL0     H36798   0.989   4.431   1.030  0.5331  1.9156 -3.3400
  267MOL0     H36799   1.151   4.401   0.998 -0.6847  0.0348  1.4413
  267MOL0     H36800   1.068   4.255   0.796  0.2138 -2.0201  3.2472
  267MOL0     H36801   0.907   4.334   0.831 -1.1210  2.5616  4.2996
  267MOL0     H36802   1.167   4.487   0.768 -0.7805  0.6437  2.2177
  267MOL0     H36803   1.047   4.455   0.655  1.9801  0.7390  0.4269
  267MOL0     H36804   0.982   4.810   0.942 -2.1199 -3.3530 -1.0275
  267MOL0     H36805   1.075   5.006   1.021 -3.0244 -3.1024 -1.5453
  267MOL0     H36806   0.996   5.105   0.900 -0.5320 -1.3712 -0.8310
  267MOL0     H36807   1.169   5.114   0.926  0.2845  1.4005  2.2854
  267MOL0     H36808   1.191   5.371   0.863 -0.4851  0.8893 -0.0654
  267MOL0     H36809   1.378   5.542   0.931  2.4358 -0.9271 -0.0249
  267MOL0     H36810   1.683   5.625   0.615 -0.7190  0.4732 -3.5991
  267MOL0     H36811   1.517   5.695   0.596  0.7101  0.0996 -1.3379
  267MOL0     H36812   1.769   5.796   0.733 -1.3558 -1.1143  3.3783
  267MOL0     H36813   1.665   5.871   0.612 -0.2218 -0.0322  0.0510
  267MOL0     H36814   1.618   5.821   0.910  0.0784 -0.9119 -0.9085
  267MOL0     H36815   1.491   5.882   0.805 -0.4902  0.7604  2.1545
  267MOL0     H36816   1.615   6.082   0.760  1.3564  0.0849 -0.4668
  267MOL0     H36817   1.754   6.024   0.850 -0.4264  1.1395  1.1218
  267MOL0     H36818   1.495   6.038   1.006 -0.9398  0.3494 -0.4600
  267MOL0     H36819   1.661   6.047   1.049 -0.6364 -0.7953 -0.5743
  267MOL0     H36820   1.687   6.289   0.957 -1.0560  1.4462 -1.7046
  267MOL0     H36821   1.570   6.278   1.083  0.6706  1.9413 -0.6816
  267MOL0     H36822   1.392   6.277   0.934  0.3192 -1.3309 -1.3009
  267MOL0     H36823   1.473   6.254   0.788 -4.4384 -1.4450  1.1872
  267MOL0     H36824   1.529   6.496   0.953  2.4999 -2.7540  0.7520
  267MOL0     H36825   1.426   6.490   0.802  2.4478  2.6293 -2.7140
  267MOL0     H36826   1.574   5.456   0.554 -1.5998 -1.2519 -0.3175
  267MOL0     H36827   1.430   5.264   0.518 -1.4265 -2.3712  1.3316
  267MOL0     H36828   1.253   4.861   0.532  0.8644 -2.4692  0.2894
  267MOL0     H36829   1.153   4.641   0.578  1.8352  0.8134 -0.9737
  267MOL0     H36830   0.315   4.591   0.362  0.0915  3.6219  3.0749
  267MOL0     H36831   0.424   4.774   0.451 -2.5820 -1.0410 -2.4733
  267MOL0     H36832   0.739   4.952   0.676  0.7713 -0.6219 -0.7364
  267MOL0     H36833   0.815   5.134   0.760  3.1576  0.6353  0.8938
  267MOL0     H36834   0.745   5.366   0.694 -0.3525  1.5684  2.7072
  267MOL0     H36835   0.855   5.469   0.774 -3.7247  1.6261  0.4516
  267MOL0     H36836   0.781   5.492   0.485 -3.5056  0.2074  0.8068
  267MOL0     H36837   0.884   5.609   0.575 -0.8549  0.8187 -0.7422
  267MOL0     H36838   0.690   5.672   0.707  2.1983  2.1380 -2.0662
  267MOL0     H36839   0.661   5.695   0.537 -0.5778 -1.9156 -1.0607
  267MOL0     H36840   0.566   5.448   0.674 -1.9225 -0.9583 -2.5989
  267MOL0     H36841   0.525   5.496   0.513 -0.7716 -1.8707  0.4425
  267MOL0     H36842   0.248   5.724   0.716 -0.0949  0.7826 -1.5314
  267MOL0     H36843   0.969   5.268   0.379  1.4837 -1.8668 -0.6756
  267MOL0     H36844   0.913   4.952   0.211 -3.5389 -0.8022  1.2720
  267MOL0     H36845   0.799   5.082   0.180 -0.6227  1.0093  1.4731
  267MOL0     H36846   0.970   5.108   0.179  1.4767 -0.4331  0.7220
  268MOL0     O36847   1.360   5.669  10.950 -0.5258  0.2248 -0.2919
  268MOL0     C36848   1.334   5.550  10.929  0.6718  0.2144  0.4641
  268MOL0     O36849   1.410   5.439  10.952  0.2484  0.5388  0.3269
  268MOL0     C36850   1.542   5.449  10.987 -1.0664 -0.5785 -0.5246
  268MOL0     C36851   1.585   5.475  11.114  0.0565  0.2233  0.2311
  268MOL0     C36852   1.724   5.461  11.148  0.9770 -1.0870 -0.4207
  268MOL0     C36853   1.816   5.473  11.042  0.9264 -0.3097 -0.7802
  268MOL0     O36854   1.948   5.473  11.080  0.3139 -0.1396  0.6366
  268MOL0     C36855   2.051   5.453  10.965  0.1878  0.3034 -0.3327
  268MOL0     C36856   2.185   5.447  11.023 -0.1531  0.2579  0.2415
  268MOL0     C36857   2.223   5.587  11.077  0.3916 -0.4428 -0.6086
  268MOL0     C36858   2.316   5.566  11.193  0.1457 -0.4235 -0.4062
  268MOL0     C36859   2.412   5.694  11.213  0.2186  0.8188 -0.6232
  268MOL0     C36860   2.530   5.643  11.293 -0.2492  1.1659 -1.1860
  268MOL0     C36861   2.613   5.766  11.311  0.4199 -0.7175  0.5182
  268MOL0     C36862   2.749   5.745  11.378 -0.7814  0.0907 -0.3347
  268MOL0     N36863   2.858   5.676  11.310  0.4442 -0.4954 -0.4899
  268MOL0     C36864   2.958   5.597  11.366  0.7499 -0.6447  0.1460
  268MOL0     C36865   3.033   5.562  11.257 -0.1182 -1.0960 -0.4715
  268MOL0     C36866   3.147   5.464  11.260  0.0310  0.1847 -0.2208
  268MOL0     C36867   3.279   5.540  11.237  0.9205 -0.8155 -0.4879
  268MOL0     C36868   3.362   5.525  11.360  0.6949 -1.1186 -0.3526
  268MOL0     C36869   3.322   5.631  11.466 -0.2299 -0.9066 -0.6731
  268MOL0     O36870   3.388   5.600  11.597  1.4302 -0.6785 -0.4534
  268MOL0     C36871   3.355   5.686  11.700 -1.3764 -0.8450  0.2807
  268MOL0     C36872   3.407   5.655  11.826  1.1054  0.2456 -0.0820
  268MOL0     C36873   3.393   5.736  11.939  0.0677 -0.9381  0.4431
  268MOL0     C36874   3.433   5.682  12.079  0.3195 -0.4092  0.8284
  268MOL0     C36875   3.346   5.874  11.915 -0.6107  0.5491  0.0477
  268MOL0     C36876   3.340   5.972  12.023  0.4279  0.3871  0.4628
  268MOL0     O36877   3.255   6.080  11.998 -0.1162  0.4355  0.1911
  268MOL0     C36878   3.270   6.176  12.091  0.9641 -0.7911 -0.9045
  268MOL0     C36879   3.380   6.256  12.085  0.1441  0.2375 -1.1597
  268MOL0     C36880   3.393   6.358  12.184 -0.0377  0.0066 -0.6055
  268MOL0     C36881   3.297   6.381  12.286 -0.0595 -1.0741 -0.3838
  268MOL0     O36882   3.297   6.478  12.382  0.6398  0.6937 -0.2771
  268MOL0     C36883   3.405   6.569  12.388  0.5320  0.1882 -0.0052
  268MOL0     C36884   3.378   6.686  12.496  0.2549 -0.5332  0.0347
  268MOL0     C36885   3.272   6.642  12.601  1.1157  1.1185  0.0317
  268MOL0     C36886   3.262   6.743  12.715 -0.3795  0.7089 -0.3816
  268MOL0     C36887   3.160   6.706  12.831  0.6970  0.2474 -0.2671
  268MOL0     C36888   3.082   6.838  12.857  0.4731 -0.3185  0.5153
  268MOL0     C36889   2.947   6.802  12.927  0.3659 -0.8835 -1.0315
  268MOL0     C36890   2.885   6.911  13.006  0.2135  0.2163 -0.3875
  268MOL0    Cl36891   2.901   7.073  12.934  0.7010 -0.1729  0.2316
  268MOL0     C36892   3.175   6.312  12.266  0.3336 -0.8555 -0.2609
  268MOL0     C36893   3.161   6.207  12.175 -0.0833 -0.5686  0.7451
  268MOL0     O36894   3.421   5.965  12.115 -0.4259  0.5694 -0.2764
  268MOL0     C36895   3.286   5.901  11.793 -0.9272 -0.1573 -0.6185
  268MOL0     C36896   3.298   5.820  11.684  0.6943  0.5942  0.4158
  268MOL0     N36897   2.977   5.625  11.147 -0.5125 -0.5274 -0.0061
  268MOL0     N36898   2.870   5.685  11.180  0.0140  0.0513 -0.2236
  268MOL0     C36899   1.768   5.473  10.906  0.2153  0.1940 -0.4694
  268MOL0     C36900   1.636   5.453  10.881  0.0265 -0.0512 -0.3950
  268MOL0     C36901   1.216   5.519  10.844  0.1481 -0.4747 -0.5490
  268MOL0     C36902   1.215   5.417  10.748  0.1139  0.4211 -0.4100
  268MOL0     C36903   1.112   5.399  10.660 -0.0636  0.5096 -0.0204
  268MOL0     C36904   0.998   5.476  10.674  1.0482 -0.2047  0.7952
  268MOL0     O36905   0.892   5.434  10.605  0.8170 -0.4584  0.4925
  268MOL0     C36906   0.791   5.532  10.558 -0.6874 -1.2753 -0.1729
  268MOL0     C36907   0.774   5.513  10.404 -0.1114 -0.2616  0.0267
  268MOL0     C36908   0.741   5.371  10.369 -0.5013 -0.3122 -0.8066
  268MOL0     C36909   0.667   5.345  10.234  0.4548  0.2847 -0.1044
  268MOL0     C36910   0.753   5.356  10.123  0.5176  0.7490 -0.5350
  268MOL0     C36911   0.833   5.351  10.035 -0.1563 -0.5861  0.1969
  268MOL0     C36912   0.988   5.574  10.773  0.1808  0.2155 -0.2477
  268MOL0     C36913   1.100   5.599  10.852  0.4373  0.2453 -0.3805
  268MOL0     C36914   1.071   5.700  10.960  0.7928 -0.5835  0.2717
  268MOL0     H36915   1.514   5.481  11.196 -0.5041  3.2841 -0.3480
  268MOL0     H36916   1.746   5.451  11.254 -0.1576  0.8102  0.0397
  268MOL0     H36917   2.058   5.526  10.885  0.8590 -0.3832 -0.9238
  268MOL0     H36918   2.014   5.362  10.916 -0.3176  0.5674 -0.4451
  268MOL0     H36919   2.179   5.376  11.106 -1.6114 -0.5609 -0.5124
  268MOL0     H36920   2.259   5.418  10.948  0.9039 -2.5072  2.1672
  268MOL0     H36921   2.272   5.647  10.999  2.0444  0.1416  0.8095
  268MOL0     H36922   2.134   5.638  11.113  1.5125  1.2922 -0.1425
  268MOL0     H36923   2.261   5.551  11.286  2.4823  0.0665  1.1434
  268MOL0     H36924   2.380   5.480  11.177  1.9052  1.0128 -1.4849
  268MOL0     H36925   2.366   5.776  11.269 -0.2134  2.9764 -3.8340
  268MOL0     H36926   2.451   5.734  11.119  0.3216 -2.3257 -2.0230
  268MOL0     H36927   2.510   5.597  11.390 -0.1622 -1.8679 -2.5060
  268MOL0     H36928   2.584   5.567  11.235 -0.9018 -0.3277  0.0967
  268MOL0     H36929   2.553   5.831  11.375  1.1167  1.1780 -0.6730
  268MOL0     H36930   2.629   5.821  11.218 -1.8460  0.6504  0.8584
  268MOL0     H36931   2.777   5.847  11.403  2.1337 -0.1323 -2.2237
  268MOL0     H36932   2.731   5.703  11.478 -3.7695  0.3423 -0.6638
  268MOL0     H36933   2.957   5.560  11.468 -0.6890  1.5047  0.9789
  268MOL0     H36934   3.131   5.400  11.173  0.5809  0.5398 -0.5932
  268MOL0     H36935   3.145   5.405  11.352  1.4967  1.2005  0.5168
  268MOL0     H36936   3.338   5.498  11.156 -1.0021 -1.2163 -1.7571
  268MOL0     H36937   3.268   5.649  11.230 -1.4980 -1.0316 -1.0998
  268MOL0     H36938   3.353   5.427  11.409  0.5468 -1.2644 -0.6716
  268MOL0     H36939   3.469   5.533  11.337  0.3058 -1.3124 -2.3844
  268MOL0     H36940   3.363   5.727  11.433 -0.2678 -0.0275  1.6681
  268MOL0     H36941   3.216   5.649  11.486  0.3760  3.1698 -0.4532
  268MOL0     H36942   3.452   5.558  11.841  3.2897  0.9306 -1.7446
  268MOL0     H36943   3.352   5.702  12.150 -0.8609 -0.6525 -0.4049
  268MOL0     H36944   3.518   5.742  12.113  0.4036  1.5073 -2.3584
  268MOL0     H36945   3.442   5.573  12.090  1.3261 -0.1236  3.6469
  268MOL0     H36946   3.463   6.226  12.021  0.3451  1.8046 -1.6698
  268MOL0     H36947   3.490   6.406  12.185  0.2259 -0.5075  0.0164
  268MOL0     H36948   3.496   6.513  12.409  0.8114  0.2572 -0.9907
  268MOL0     H36949   3.423   6.628  12.298  0.7735 -2.2730 -1.6460
  268MOL0     H36950   3.464   6.708  12.559 -0.5631 -0.4335  1.1601
  268MOL0     H36951   3.361   6.775  12.435 -0.0717 -0.9881 -0.5603
  268MOL0     H36952   3.299   6.541  12.632 -3.0477 -1.0731 -2.6339
  268MOL0     H36953   3.174   6.628  12.556  1.6826  2.3257 -1.7024
  268MOL0     H36954   3.246   6.846  12.682  0.1011  2.4828  4.2363
  268MOL0     H36955   3.358   6.755  12.766 -1.1345  2.4169  0.7029
  268MOL0     H36956   3.081   6.632  12.814 -0.7201  0.6987  3.5111
  268MOL0     H36957   3.208   6.673  12.923 -3.3636  1.5428  2.5551
  268MOL0     H36958   3.056   6.887  12.763  0.2011 -1.3758  0.0156
  268MOL0     H36959   3.149   6.902  12.914  1.6834 -2.5759  1.7962
  268MOL0     H36960   2.950   6.716  12.995 -4.5903 -1.6300 -1.3192
  268MOL0     H36961   2.874   6.769  12.852 -1.0731  1.9104 -0.9850
  268MOL0     H36962   2.928   6.902  13.106  1.3362  0.1389 -0.8549
  268MOL0     H36963   2.777   6.895  13.015  0.0418  0.4520 -1.7722
  268MOL0     H36964   3.097   6.341  12.336 -1.1109 -3.2384 -0.7826
  268MOL0     H36965   3.080   6.136  12.185  1.4964 -2.3924  1.3569
  268MOL0     H36966   3.237   5.997  11.782 -0.8560 -0.0956 -0.4021
  268MOL0     H36967   3.240   5.842  11.595  0.6526 -2.5774 -0.4552
  268MOL0     H36968   1.826   5.479  10.815  0.3073 -0.5402 -0.4646
  268MOL0     H36969   1.597   5.440  10.780  2.0110 -0.0377 -1.2052
  268MOL0     H36970   1.303   5.355  10.741  0.5053  0.7588  1.2041
  268MOL0     H36971   1.116   5.321  10.585 -2.6867 -0.4692  0.7005
  268MOL0     H36972   0.695   5.509  10.605  0.7211 -2.6008  2.2787
  268MOL0     H36973   0.819   5.636  10.576  1.0595 -0.4427 -5.8112
  268MOL0     H36974   0.861   5.537  10.342  0.1464 -0.4772  0.3051
  268MOL0     H36975   0.686   5.576  10.387 -1.5612 -1.6660  1.9221
  268MOL0     H36976   0.828   5.304  10.369  3.1044  3.8676  0.2511
  268MOL0     H36977   0.676   5.332  10.448 -0.7593 -0.5068 -1.1148
  268MOL0     H36978   0.579   5.410  10.226  1.3447  1.3375 -1.9646
  268MOL0     H36979   0.622   5.246  10.238 -1.7554  1.1965 -0.7645
  268MOL0     H36980   0.906   5.360   9.957  0.2139  1.1125  0.7161
  268MOL0     H36981   0.899   5.632  10.796  2.6135  2.7729  4.1431
  268MOL0     H36982   1.044   5.785  10.896  2.5166 -1.8083 -2.2617
  268MOL0     H36983   0.979   5.680  11.016  1.2334  1.2513  1.7695
  268MOL0     H36984   1.150   5.718  11.034 -0.8826  0.9958  1.7781
  269MOL0     O36985   9.468   5.879   2.939 -0.1381  0.1643 -0.0240
  269MOL0     C36986   9.414   5.842   3.042 -0.7255  0.4978  0.7119
  269MOL0     O36987   9.476   5.811   3.162 -0.2735 -0.0316  0.5404
  269MOL0     C36988   9.614   5.821   3.189  0.3930  0.2830 -0.0798
  269MOL0     C36989   9.714   5.885   3.118 -0.1960 -0.7201 -0.4230
  269MOL0     C36990   9.835   5.895   3.187 -0.5506  0.2288  0.7923
  269MOL0     C36991   9.860   5.834   3.314  0.1228  0.5266 -0.0554
  269MOL0     O36992   9.966   5.857   3.389  0.3508 -0.0181 -0.0677
  269MOL0     C36993  10.093   5.862   3.322  0.0314  0.7699  0.4981
  269MOL0     C36994  10.204   5.811   3.419  0.5454  0.9532  0.5857
  269MOL0     C36995  10.231   5.905   3.546 -0.2071 -0.0674  0.5235
  269MOL0     C36996  10.310   5.835   3.661  0.2301  0.4164  0.6697
  269MOL0     C36997  10.395   5.927   3.758  0.7904  0.1451  0.5439
  269MOL0     C36998  10.318   6.028   3.831  0.0132 -0.3387 -1.0876
  269MOL0     C36999  10.418   6.139   3.879  0.2111  0.1082 -0.2537
  269MOL0     C37000  10.350   6.275   3.910 -0.4151  0.4325 -0.2710
  269MOL0     N37001  10.231   6.274   3.989 -0.4258  0.0021 -0.8834
  269MOL0     C37002  10.207   6.313   4.123 -1.0522  0.9330  1.2292
  269MOL0     C37003  10.071   6.315   4.135  0.0430  0.3413 -0.2256
  269MOL0     C37004   9.980   6.345   4.248 -0.2584  0.3389  0.6253
  269MOL0     C37005   9.862   6.249   4.257  0.3716  0.2502  0.0011
  269MOL0     C37006   9.897   6.104   4.281 -0.6055 -0.9200 -0.3009
  269MOL0     C37007   9.810   6.041   4.386 -0.2208  0.3257 -0.5753
  269MOL0     O37008   9.834   6.093   4.514 -0.3211  0.4739 -0.1436
  269MOL0     C37009   9.949   6.058   4.576 -0.0636 -0.2993 -0.5380
  269MOL0     C37010   9.995   6.138   4.673 -0.2289 -0.7578 -0.2945
  269MOL0     C37011  10.114   6.114   4.743  0.8684  0.6694 -0.1066
  269MOL0     C37012  10.153   6.224   4.847  0.1572  0.8385 -0.0919
  269MOL0     C37013  10.192   5.999   4.721  0.3866  0.4128 -0.5226
  269MOL0     C37014  10.306   5.964   4.807  0.0383 -0.3392 -0.2247
  269MOL0     O37015  10.356   5.835   4.770 -0.7093 -0.4106 -0.2941
  269MOL0     C37016  10.490   5.823   4.802 -0.9956 -0.1283 -0.1192
  269MOL0     C37017  10.535   5.776   4.922  0.4712 -0.9857  0.5684
  269MOL0     C37018  10.667   5.797   4.963  0.4309  0.5329  1.3215
  269MOL0     C37019  10.760   5.858   4.884  0.0283  0.6191 -0.5087
  269MOL0     O37020  10.895   5.865   4.918  0.2517  0.0606  0.0395
  269MOL0     C37021  10.990   5.927   4.830 -0.6591 -0.6414  0.4666
  269MOL0     C37022  11.136   5.902   4.874  0.5002 -0.0289  0.1208
  269MOL0     C37023  11.232   5.998   4.807  0.6995 -0.8001  0.3697
  269MOL0     C37024  11.228   6.145   4.865  0.0337  0.3954 -0.7311
  269MOL0     C37025  11.293   6.247   4.770  0.0748  0.3113 -0.6809
  269MOL0     C37026  11.303   6.393   4.815 -0.3952  0.1326 -0.2211
  269MOL0     C37027  11.440   6.427   4.859 -0.6681  0.0770  0.3214
  269MOL0     C37028  11.440   6.576   4.923 -0.5548  0.4488  0.4495
  269MOL0    Cl37029  11.456   6.683   4.789  0.1219  0.0526  0.1432
  269MOL0     C37030  10.713   5.890   4.754 -0.3927 -0.7871  0.0807
  269MOL0     C37031  10.581   5.873   4.716  0.1540  0.3085  0.3670
  269MOL0     O37032  10.362   6.045   4.881 -0.0290 -0.4675  0.0076
  269MOL0     C37033  10.133   5.910   4.628 -0.4001 -0.2765 -0.5910
  269MOL0     C37034  10.020   5.938   4.557 -0.2330  0.6039  0.2434
  269MOL0     N37035  10.020   6.272   4.016 -0.4119 -0.0599  0.1755
  269MOL0     N37036  10.116   6.249   3.935 -0.0599 -0.6049 -0.3382
  269MOL0     C37037   9.758   5.776   3.385 -0.1747  0.0703  0.9277
  269MOL0     C37038   9.635   5.775   3.322 -0.0198  0.6097 -0.7750
  269MOL0     C37039   9.267   5.846   3.034  0.0870  0.1361  0.6605
  269MOL0     C37040   9.194   5.788   3.138 -0.5515 -0.1758 -0.3500
  269MOL0     C37041   9.049   5.777   3.148  0.5705  0.1658  0.2277
  269MOL0     C37042   8.978   5.845   3.048  0.0231 -0.3786 -0.6769
  269MOL0     O37043   8.842   5.838   3.032  0.7482 -1.1166  0.2976
  269MOL0     C37044   8.755   5.726   3.082 -0.0293  0.2089  0.3196
  269MOL0     C37045   8.704   5.765   3.223  0.1066 -0.2467  0.6532
  269MOL0     C37046   8.576   5.697   3.281 -0.3049 -0.4885  0.4303
  269MOL0     C37047   8.610   5.637   3.425  0.7953  0.5074  0.2563
  269MOL0     C37048   8.654   5.494   3.406 -0.5429 -0.2178  1.3834
  269MOL0     C37049   8.707   5.384   3.395 -0.5966 -0.3463  0.3769
  269MOL0     C37050   9.047   5.922   2.955 -0.9178  0.5976 -0.4472
  269MOL0     C37051   9.188   5.921   2.943 -0.1176  0.8910  1.7125
  269MOL0     C37052   9.244   6.003   2.835  0.9860 -1.3257  0.3711
  269MOL0     H37053   9.700   5.924   3.018 -0.2292 -0.5803 -0.3647
  269MOL0     H37054   9.922   5.941   3.141 -0.2506 -1.3567 -0.2931
  269MOL0     H37055  10.123   5.963   3.295 -0.8243  0.2742 -2.7196
  269MOL0     H37056  10.090   5.792   3.237  0.5561 -2.4038  2.8783
  269MOL0     H37057  10.185   5.707   3.449 -0.4597  1.5040  1.9833
  269MOL0     H37058  10.290   5.821   3.352 -0.1757 -1.2586 -0.7769
  269MOL0     H37059  10.291   5.984   3.500  2.9524 -1.8452  1.2485
  269MOL0     H37060  10.141   5.955   3.584 -1.1439 -2.1438  1.1761
  269MOL0     H37061  10.237   5.784   3.724 -0.5308  2.8717  1.9013
  269MOL0     H37062  10.378   5.767   3.610 -1.3667 -2.2542  1.8977
  269MOL0     H37063  10.474   5.975   3.701  1.3958 -0.1405  1.1293
  269MOL0     H37064  10.436   5.854   3.829 -0.6926 -1.9049 -0.5835
  269MOL0     H37065  10.238   6.066   3.767  1.3733  0.0446 -2.6347
  269MOL0     H37066  10.266   5.984   3.916  0.1802 -0.8172 -1.2291
  269MOL0     H37067  10.495   6.163   3.806  0.8958  0.5224  0.5916
  269MOL0     H37068  10.475   6.114   3.968  2.2464  4.1799 -0.1785
  269MOL0     H37069  10.424   6.343   3.952 -0.8437  0.6879  0.0858
  269MOL0     H37070  10.327   6.336   3.822  2.5889  0.8123 -0.8968
  269MOL0     H37071  10.285   6.335   4.196  3.2193  0.9576 -2.8567
  269MOL0     H37072   9.935   6.445   4.242 -0.5937  0.2241  1.1577
  269MOL0     H37073  10.042   6.370   4.334  3.6652  0.8516 -2.0772
  269MOL0     H37074   9.785   6.282   4.327  1.0435  2.1700 -0.0978
  269MOL0     H37075   9.805   6.267   4.165  0.0840  0.1966  0.1681
  269MOL0     H37076   9.887   6.060   4.181 -1.3175  1.9182 -1.5709
  269MOL0     H37077  10.002   6.082   4.305 -0.2174 -1.6335 -2.4205
  269MOL0     H37078   9.703   6.049   4.365 -1.3677  1.1832  4.3166
  269MOL0     H37079   9.828   5.934   4.392  1.4816  0.6649  1.7023
  269MOL0     H37080   9.938   6.222   4.711 -0.2248 -1.4850  1.4068
  269MOL0     H37081  10.158   6.178   4.946 -1.4840  1.4039  0.2949
  269MOL0     H37082  10.077   6.303   4.838  1.6127  2.3005  0.0263
  269MOL0     H37083  10.241   6.279   4.813  1.3652 -1.7677 -1.4544
  269MOL0     H37084  10.463   5.718   4.979 -1.6333 -1.1481 -2.0327
  269MOL0     H37085  10.689   5.763   5.064  2.3652 -3.1151 -0.1113
  269MOL0     H37086  10.984   5.879   4.732 -0.8367 -1.5405  0.9160
  269MOL0     H37087  10.957   6.031   4.823 -3.6327 -1.5526 -0.5496
  269MOL0     H37088  11.147   5.904   4.983  3.9877 -2.5326 -0.0215
  269MOL0     H37089  11.159   5.798   4.850 -1.6383 -0.6334  0.5099
  269MOL0     H37090  11.215   6.000   4.699  2.5173 -1.6848  0.0244
  269MOL0     H37091  11.338   5.971   4.808  1.3757  1.6587  0.2846
  269MOL0     H37092  11.281   6.140   4.961  0.8669 -2.2440 -1.2533
  269MOL0     H37093  11.120   6.165   4.872 -0.3248 -1.3249 -1.0757
  269MOL0     H37094  11.389   6.202   4.744 -1.0679 -1.8943 -1.3839
  269MOL0     H37095  11.220   6.250   4.688  0.2062  1.0052 -0.7739
  269MOL0     H37096  11.218   6.415   4.880  0.4224 -0.5834  1.1606
  269MOL0     H37097  11.296   6.441   4.717  0.9538 -0.6790 -0.7406
  269MOL0     H37098  11.518   6.428   4.782  1.1980  2.0769  2.0971
  269MOL0     H37099  11.473   6.364   4.942  2.5269  0.7161 -0.3222
  269MOL0     H37100  11.536   6.590   4.973  1.6921 -1.4182 -2.9683
  269MOL0     H37101  11.342   6.596   4.968 -0.4588 -1.0241  1.3636
  269MOL0     H37102  10.772   5.947   4.682 -1.4026  0.4766  0.2160
  269MOL0     H37103  10.541   5.910   4.622  1.5648 -1.6604 -1.0981
  269MOL0     H37104  10.180   5.814   4.610 -0.7684 -0.6927  0.5559
  269MOL0     H37105   9.983   5.868   4.482 -1.7113  3.1238 -1.5021
  269MOL0     H37106   9.766   5.727   3.482  0.0997 -2.3435 -0.2436
  269MOL0     H37107   9.552   5.746   3.385  0.9625  2.0316  1.2873
  269MOL0     H37108   9.248   5.751   3.224 -0.8175 -1.1302 -0.5844
  269MOL0     H37109   8.993   5.739   3.232 -3.8410 -0.8227 -2.8022
  269MOL0     H37110   8.672   5.717   3.012  0.9317  6.1183 -2.1010
  269MOL0     H37111   8.800   5.626   3.090  0.3479  0.3034 -0.5611
  269MOL0     H37112   8.702   5.874   3.219  2.8277  0.0416  3.2235
  269MOL0     H37113   8.781   5.759   3.301  1.4663 -1.2635 -0.7007
  269MOL0     H37114   8.511   5.785   3.291 -1.1819 -0.8945 -1.2919
  269MOL0     H37115   8.523   5.630   3.213 -0.1230 -2.6431  2.3161
  269MOL0     H37116   8.525   5.628   3.494  1.4262 -2.8381  0.7749
  269MOL0     H37117   8.679   5.694   3.488 -0.6840  1.3474  1.1686
  269MOL0     H37118   8.744   5.283   3.402  1.2032  0.0835 -1.8879
  269MOL0     H37119   8.985   5.980   2.888  3.2679  1.1212 -4.2908
  269MOL0     H37120   9.169   6.061   2.782  0.8509 -0.4276  1.5224
  269MOL0     H37121   9.314   6.079   2.872 -0.4093  1.0289 -1.5470
  269MOL0     H37122   9.303   5.952   2.757  1.5943  1.6997 -1.3091
  270MOL0     O37123   6.076   8.005   3.416 -0.0108 -0.0496 -0.3526
  270MOL0     C37124   5.994   7.916   3.421  0.8187  0.7579  0.0299
  270MOL0     O37125   6.019   7.791   3.486  0.3187  0.1883 -0.7894
  270MOL0     C37126   6.143   7.771   3.548  0.5251 -0.7363 -0.3753
  270MOL0     C37127   6.259   7.769   3.472  0.8478 -0.3382  0.9021
  270MOL0     C37128   6.376   7.743   3.538  0.0576 -0.5387  0.2690
  270MOL0     C37129   6.381   7.738   3.675 -1.2307  0.4601 -0.5171
  270MOL0     O37130   6.497   7.709   3.754 -0.3314 -0.2275  0.0384
  270MOL0     C37131   6.618   7.777   3.711  0.0043  0.1005  0.3929
  270MOL0     C37132   6.752   7.692   3.728  0.6718  0.2052  0.2709
  270MOL0     C37133   6.803   7.681   3.869 -0.1109 -0.1660  0.2995
  270MOL0     C37134   6.897   7.558   3.912  0.4622  0.2109 -0.8583
  270MOL0     C37135   6.942   7.541   4.055 -0.0755  1.2103  0.0081
  270MOL0     C37136   7.011   7.411   4.074 -0.2650  0.6299  0.6939
  270MOL0     C37137   7.089   7.414   4.211  0.5817  0.0666  0.5722
  270MOL0     C37138   7.245   7.394   4.205 -0.0797  0.7621  0.1685
  270MOL0     N37139   7.311   7.385   4.341 -0.6432  0.1038  0.1210
  270MOL0     C37140   7.286   7.292   4.433  0.2862  0.9744  0.2730
  270MOL0     C37141   7.346   7.321   4.546  0.4737 -0.1251  0.4740
  270MOL0     C37142   7.337   7.237   4.669 -0.6708 -0.6828 -0.3784
  270MOL0     C37143   7.237   7.297   4.767 -0.2307 -0.4138  1.0354
  270MOL0     C37144   7.238   7.216   4.898 -0.6440  1.1345  0.2187
  270MOL0     C37145   7.127   7.265   4.991  0.2243  1.3609 -0.1544
  270MOL0     O37146   7.123   7.182   5.106  0.1208 -0.6621  0.4907
  270MOL0     C37147   7.023   7.189   5.202 -0.3770 -0.2402  0.6102
  270MOL0     C37148   7.031   7.117   5.319 -1.2915 -0.0340  0.5014
  270MOL0     C37149   6.939   7.113   5.425 -0.1009  0.7390 -0.5759
  270MOL0     C37150   6.961   7.009   5.541  0.7474  0.0064  0.0324
  270MOL0     C37151   6.830   7.202   5.412  0.4369 -0.9835 -0.5669
  270MOL0     C37152   6.722   7.223   5.512  0.5958 -0.1514  0.0416
  270MOL0     O37153   6.644   7.329   5.508 -0.8374 -0.6643 -0.4368
  270MOL0     C37154   6.552   7.346   5.609 -0.8285 -0.6494 -0.6419
  270MOL0     C37155   6.562   7.462   5.691  0.4949  0.3600 -0.2035
  270MOL0     C37156   6.455   7.496   5.770 -0.2701 -0.0093  0.0732
  270MOL0     C37157   6.346   7.414   5.775  0.6751 -1.0748  0.1076
  270MOL0     O37158   6.253   7.440   5.872  0.0531  0.1754 -0.0258
  270MOL0     C37159   6.218   7.334   5.967 -0.5191  0.5331 -0.1095
  270MOL0     C37160   6.284   7.358   6.098 -0.1600  0.3348 -0.0499
  270MOL0     C37161   6.292   7.220   6.180 -1.0887 -0.0495  0.2028
  270MOL0     C37162   6.286   7.244   6.327 -0.3967 -0.3403 -1.0472
  270MOL0     C37163   6.303   7.106   6.412 -0.7387 -0.4754  0.2195
  270MOL0     C37164   6.218   6.995   6.363  0.0043  0.3452 -0.2482
  270MOL0     C37165   6.211   6.879   6.466 -0.3680  0.0233 -0.2852
  270MOL0     C37166   6.118   6.775   6.414  0.2237 -0.9063 -0.2829
  270MOL0    Cl37167   6.180   6.719   6.255  0.0280  0.0406 -0.0802
  270MOL0     C37168   6.337   7.300   5.687  0.3247 -0.2478  1.3874
  270MOL0     C37169   6.445   7.270   5.605  0.8404 -0.5994  0.6546
  270MOL0     O37170   6.715   7.145   5.601 -0.8136  1.1182  0.0989
  270MOL0     C37171   6.818   7.280   5.296  0.3706 -0.7360 -0.4307
  270MOL0     C37172   6.909   7.270   5.186 -0.3902  0.4518 -0.8398
  270MOL0     N37173   7.412   7.436   4.522 -0.1333 -0.1181 -0.4558
  270MOL0     N37174   7.384   7.482   4.409  0.2235 -0.7833 -1.1584
  270MOL0     C37175   6.270   7.742   3.747  0.0667  0.6984  0.7710
  270MOL0     C37176   6.149   7.753   3.683  0.2130  1.0125 -0.3503
  270MOL0     C37177   5.867   7.937   3.349  0.2115  0.9308  0.0033
  270MOL0     C37178   5.764   7.851   3.384  1.2401 -0.1663  0.6405
  270MOL0     C37179   5.651   7.840   3.299 -0.2125  0.1647 -0.5520
  270MOL0     C37180   5.634   7.919   3.189 -0.7473 -0.1805  0.6774
  270MOL0     O37181   5.519   7.885   3.117  0.1073 -1.0362  0.4191
  270MOL0     C37182   5.492   7.948   2.994 -0.8578 -0.9244  0.3843
  270MOL0     C37183   5.342   7.937   2.960  0.7033  0.2108  0.7586
  270MOL0     C37184   5.313   8.006   2.830  0.6694 -0.1884  0.8055
  270MOL0     C37185   5.160   7.977   2.784 -0.4027  0.2710 -0.0501
  270MOL0     C37186   5.078   8.056   2.875  0.1905  0.7964 -0.5753
  270MOL0     C37187   5.040   8.126   2.959  0.9540  0.3423 -0.0304
  270MOL0     C37188   5.734   8.010   3.148  0.2149  0.4279  0.1078
  270MOL0     C37189   5.850   8.017   3.229  0.1566 -0.2959  0.5467
  270MOL0     C37190   5.962   8.099   3.166 -0.5878 -0.1826 -0.1964
  270MOL0     H37191   6.256   7.800   3.368 -0.4723  0.6972  1.2111
  270MOL0     H37192   6.472   7.742   3.487  0.0948 -2.8350  0.2967
  270MOL0     H37193   6.623   7.873   3.763 -0.5838 -0.1698  0.9753
  270MOL0     H37194   6.610   7.803   3.606  0.5309  0.2612  0.3902
  270MOL0     H37195   6.736   7.591   3.688 -2.3410 -0.0501  1.8402
  270MOL0     H37196   6.826   7.744   3.666  0.8524 -1.4297 -0.9565
  270MOL0     H37197   6.858   7.773   3.891 -0.5852  0.3652 -0.6543
  270MOL0     H37198   6.722   7.680   3.943 -0.0917 -1.5125  0.3278
  270MOL0     H37199   6.835   7.474   3.880 -0.5500 -0.4589  2.5013
  270MOL0     H37200   6.983   7.565   3.844  1.0754  1.8736  0.0380
  270MOL0     H37201   6.845   7.537   4.104 -2.2309  2.7806 -3.7100
  270MOL0     H37202   6.999   7.631   4.083 -0.4516  0.9092  1.9047
  270MOL0     H37203   6.934   7.333   4.075  0.0910  0.2110  3.3531
  270MOL0     H37204   7.084   7.380   3.997 -0.7949 -2.6153  1.3301
  270MOL0     H37205   7.043   7.345   4.283  0.2928  1.0996  1.3930
  270MOL0     H37206   7.063   7.514   4.246  1.5253 -0.3376  2.6082
  270MOL0     H37207   7.254   7.300   4.150 -2.8492 -0.0215  0.8987
  270MOL0     H37208   7.300   7.471   4.151  0.5032 -0.8539 -1.6641
  270MOL0     H37209   7.218   7.209   4.416 -0.6427  1.3635  1.8980
  270MOL0     H37210   7.433   7.234   4.723  0.5283 -0.6072 -2.3870
  270MOL0     H37211   7.315   7.135   4.639 -0.8930 -0.6647 -0.2767
  270MOL0     H37212   7.261   7.403   4.778  0.7589 -0.5902  0.6231
  270MOL0     H37213   7.141   7.279   4.716  0.8542 -1.8908 -0.6030
  270MOL0     H37214   7.206   7.117   4.865  0.9387  1.0191 -1.1123
  270MOL0     H37215   7.338   7.221   4.941  0.2552  0.5116 -1.7145
  270MOL0     H37216   7.142   7.371   5.017 -2.3488  0.9604  3.7945
  270MOL0     H37217   7.035   7.243   4.935  1.3059  1.5578 -2.0981
  270MOL0     H37218   7.110   7.043   5.326  0.0983  1.5517  2.6035
  270MOL0     H37219   7.035   6.935   5.512 -0.8952 -0.6502 -2.8944
  270MOL0     H37220   6.864   6.959   5.537 -0.7284  2.7029 -1.0301
  270MOL0     H37221   6.981   7.054   5.639  1.7353  2.7033 -1.2902
  270MOL0     H37222   6.652   7.523   5.690 -0.4947  1.9021  0.3967
  270MOL0     H37223   6.461   7.590   5.823 -0.0627  0.0126  0.0141
  270MOL0     H37224   6.112   7.339   5.992 -0.2350  0.9303  1.0888
  270MOL0     H37225   6.245   7.233   5.936 -0.9263  0.3488  0.1285
  270MOL0     H37226   6.386   7.392   6.079  0.5586 -1.9650 -0.6311
  270MOL0     H37227   6.244   7.434   6.165 -3.5336 -1.4538  0.1868
  270MOL0     H37228   6.388   7.171   6.162 -0.9531  0.2395  0.1313
  270MOL0     H37229   6.215   7.144   6.163 -0.1207 -1.1150  0.4656
  270MOL0     H37230   6.184   7.282   6.336  0.8778  2.9093  1.1715
  270MOL0     H37231   6.363   7.318   6.350 -1.0005  0.1097 -0.4413
  270MOL0     H37232   6.409   7.078   6.417 -1.5252 -3.9239  0.3759
  270MOL0     H37233   6.288   7.129   6.518  0.6930 -1.6451  0.7224
  270MOL0     H37234   6.257   6.958   6.268 -3.3125  1.2976 -2.1750
  270MOL0     H37235   6.115   7.027   6.344  0.5541  1.0640 -2.3429
  270MOL0     H37236   6.169   6.915   6.561  3.2862 -2.6288  2.6178
  270MOL0     H37237   6.307   6.834   6.492  0.3903  1.0856 -1.1711
  270MOL0     H37238   6.012   6.798   6.396 -0.0589 -2.3504 -0.5926
  270MOL0     H37239   6.123   6.682   6.470  2.6826 -2.7873 -3.2937
  270MOL0     H37240   6.246   7.242   5.695  0.6307 -0.8156  0.8344
  270MOL0     H37241   6.439   7.186   5.536 -1.3022  0.8417 -1.0628
  270MOL0     H37242   6.736   7.351   5.303 -0.5479 -1.8977  3.0127
  270MOL0     H37243   6.900   7.327   5.094  0.5569 -0.5623 -1.5924
  270MOL0     H37244   6.265   7.725   3.854 -1.9061  2.4246  1.0175
  270MOL0     H37245   6.062   7.744   3.748  1.6833 -2.5017  1.4268
  270MOL0     H37246   5.767   7.787   3.471 -1.3494 -0.3944  0.6541
  270MOL0     H37247   5.573   7.765   3.307  0.9261 -1.0502 -0.5093
  270MOL0     H37248   5.513   8.055   2.996 -1.1945 -0.7049 -2.6663
  270MOL0     H37249   5.559   7.905   2.918 -0.6128  0.4144 -0.1950
  270MOL0     H37250   5.284   7.987   3.037 -1.0550 -1.5909  0.6872
  270MOL0     H37251   5.299   7.836   2.955  2.2756 -0.4521 -1.6528
  270MOL0     H37252   5.338   8.113   2.831  0.9025 -0.2450  0.9918
  270MOL0     H37253   5.387   7.966   2.761  2.4139  0.1807  2.3915
  270MOL0     H37254   5.138   7.870   2.795  0.7376  0.0263 -0.0151
  270MOL0     H37255   5.138   7.988   2.677 -0.9886 -0.0795  0.0278
  270MOL0     H37256   5.025   8.200   3.035 -2.6199  0.0360 -0.2889
  270MOL0     H37257   5.722   8.069   3.057  3.0160  1.9108  0.5672
  270MOL0     H37258   5.940   8.203   3.195 -3.1783 -0.6390 -0.2697
  270MOL0     H37259   6.066   8.074   3.189 -0.5699 -1.1182 -1.2502
  270MOL0     H37260   5.947   8.108   3.058  0.5040  0.0668 -0.3368
  271MOL0     O37261   0.308   3.731   2.106  0.1730  0.0239  0.8548
  271MOL0     C37262   0.417   3.674   2.111  0.8896  0.1923  0.1921
  271MOL0     O37263   0.538   3.703   2.039  0.8462 -0.5160  0.3631
  271MOL0     C37264   0.555   3.836   2.007 -0.8157  0.3978 -0.6265
  271MOL0     C37265   0.601   3.880   1.878  0.5541  0.4325 -0.9949
  271MOL0     C37266   0.626   4.005   1.846  0.2894 -0.7077  0.6514
  271MOL0     C37267   0.621   4.104   1.931 -1.0279  1.3540 -0.0811
  271MOL0     O37268   0.645   4.224   1.879  0.0514 -0.2729  0.2003
  271MOL0     C37269   0.587   4.334   1.937  0.3209  0.3543 -0.4682
  271MOL0     C37270   0.604   4.451   1.840  0.3380  0.0255  1.0926
  271MOL0     C37271   0.520   4.564   1.908 -0.8848 -0.0486 -0.4920
  271MOL0     C37272   0.517   4.697   1.833  0.9510  0.3163  0.2193
  271MOL0     C37273   0.408   4.800   1.886  0.1167 -0.0832  0.5978
  271MOL0     C37274   0.467   4.935   1.938 -0.7402  0.1059 -0.3375
  271MOL0     C37275   0.574   4.917   2.049  0.6180 -0.0891  0.6480
  271MOL0     C37276   0.509   4.860   2.169  1.4343 -0.6435 -0.4423
  271MOL0     N37277   0.589   4.888   2.288  0.1022 -0.2967 -0.1403
  271MOL0     C37278   0.721   4.867   2.300 -0.4136  0.8298 -0.5343
  271MOL0     C37279   0.746   4.912   2.427 -0.6584 -0.6521  0.0670
  271MOL0     C37280   0.885   4.899   2.498  0.2273 -0.4948 -0.6743
  271MOL0     C37281   0.866   4.866   2.647  0.5872  0.0075 -0.0401
  271MOL0     C37282   0.798   4.731   2.667  0.1961  0.0246  0.8188
  271MOL0     C37283   0.845   4.611   2.577 -0.1114 -0.4209  0.3729
  271MOL0     O37284   0.985   4.566   2.573 -0.1979 -0.0707 -0.4324
  271MOL0     C37285   1.038   4.493   2.679  0.7209 -0.0951  0.0038
  271MOL0     C37286   1.007   4.359   2.697 -0.3880 -0.6428  0.2603
  271MOL0     C37287   1.043   4.296   2.815  0.4476 -0.0853  0.6525
  271MOL0     C37288   0.999   4.150   2.813 -0.0527 -0.5769 -0.7415
  271MOL0     C37289   1.112   4.364   2.919  0.4226 -0.4637 -0.6149
  271MOL0     C37290   1.159   4.307   3.042  0.2938 -0.3301  0.9786
  271MOL0     O37291   1.066   4.218   3.108 -0.1187 -0.5047  0.3898
  271MOL0     C37292   1.097   4.153   3.223  0.1839  0.9539 -0.2144
  271MOL0     C37293   1.171   4.219   3.326 -0.6043 -0.4521  1.2955
  271MOL0     C37294   1.198   4.155   3.452 -0.3836  0.3290  0.2559
  271MOL0     C37295   1.155   4.022   3.476  0.9383  0.0606  0.4146
  271MOL0     O37296   1.176   3.946   3.590 -0.7944  0.5329 -0.0212
  271MOL0     C37297   1.249   4.008   3.701 -0.5695 -0.4677 -0.4267
  271MOL0     C37298   1.280   3.907   3.811  0.1970 -0.9241 -0.5497
  271MOL0     C37299   1.147   3.852   3.855  0.4489  0.7140  0.0513
  271MOL0     C37300   1.149   3.795   3.995 -0.6571  0.7727 -0.1854
  271MOL0     C37301   1.256   3.680   4.009  0.8324 -0.1211 -1.0484
  271MOL0     C37302   1.242   3.577   4.122 -0.7176  0.3141 -0.2869
  271MOL0     C37303   1.110   3.501   4.133 -0.3134 -0.6366 -0.3644
  271MOL0     C37304   1.104   3.418   4.261 -0.2012  0.0310 -0.7409
  271MOL0    Cl37305   0.968   3.305   4.274 -0.0881  0.3825  0.4652
  271MOL0     C37306   1.084   3.954   3.374 -0.6371 -0.5692 -0.8416
  271MOL0     C37307   1.048   4.025   3.248 -0.4528 -0.8620 -0.0382
  271MOL0     O37308   1.269   4.342   3.079 -0.5620  0.1976 -0.1979
  271MOL0     C37309   1.135   4.500   2.898 -0.9783  0.3346  0.2054
  271MOL0     C37310   1.103   4.564   2.779  0.3342  0.6055 -1.1218
  271MOL0     N37311   0.628   4.961   2.492 -0.0540  0.1674 -0.1380
  271MOL0     N37312   0.528   4.938   2.404  0.0345  0.2939  0.3113
  271MOL0     C37313   0.598   4.070   2.065 -0.3822  0.3280  0.2459
  271MOL0     C37314   0.549   3.942   2.099 -0.8861  0.3239 -0.1639
  271MOL0     C37315   0.430   3.536   2.175 -0.0306 -0.9257  0.0329
  271MOL0     C37316   0.499   3.438   2.109  0.3922  0.0942  0.5111
  271MOL0     C37317   0.492   3.303   2.147  1.0795 -0.5714 -0.6392
  271MOL0     C37318   0.419   3.273   2.272 -0.4063  1.3915  0.7824
  271MOL0     O37319   0.410   3.141   2.312  0.5942  0.5350 -0.2199
  271MOL0     C37320   0.457   3.127   2.446 -0.6237 -0.0398  0.0247
  271MOL0     C37321   0.383   3.012   2.515  0.6054 -0.6602 -0.0757
  271MOL0     C37322   0.415   2.879   2.445  0.2358  0.6975  0.1101
  271MOL0     C37323   0.318   2.766   2.469 -0.4325  0.2572 -0.0841
  271MOL0     C37324   0.290   2.717   2.601  0.3557  0.2688 -0.5838
  271MOL0     C37325   0.302   2.700   2.724  0.4612 -0.9661 -0.1855
  271MOL0     C37326   0.354   3.377   2.343 -0.7517 -1.0793 -0.0868
  271MOL0     C37327   0.369   3.511   2.296  0.6771 -1.5283  0.4334
  271MOL0     C37328   0.279   3.612   2.372 -0.8750  0.0951 -0.1979
  271MOL0     H37329   0.607   3.802   1.802  1.7141 -2.1953  1.5853
  271MOL0     H37330   0.649   4.024   1.741 -1.8984  3.1523  0.6838
  271MOL0     H37331   0.630   4.367   2.031 -0.8086 -2.8652  1.3561
  271MOL0     H37332   0.484   4.296   1.950  0.6755 -0.4346  0.1389
  271MOL0     H37333   0.710   4.470   1.824  1.3046 -3.2203  2.8756
  271MOL0     H37334   0.548   4.426   1.749 -1.3041 -1.4231  2.4142
  271MOL0     H37335   0.419   4.523   1.919 -2.6358  3.7333 -0.5804
  271MOL0     H37336   0.567   4.589   2.004  0.9347 -1.3126 -1.0112
  271MOL0     H37337   0.615   4.745   1.840  1.6582 -1.3524  3.4402
  271MOL0     H37338   0.487   4.685   1.728 -0.0849 -1.8063  0.7083
  271MOL0     H37339   0.353   4.756   1.970 -0.8245  0.3931  0.2343
  271MOL0     H37340   0.334   4.815   1.808  0.8140 -3.7081 -1.0024
  271MOL0     H37341   0.518   4.995   1.862  1.5785  0.2207  1.2049
  271MOL0     H37342   0.380   4.989   1.975 -2.5210 -3.5895  1.4436
  271MOL0     H37343   0.610   5.020   2.056  1.3546 -0.4143  2.1599
  271MOL0     H37344   0.659   4.861   2.009  0.5448  0.8824 -0.9606
  271MOL0     H37345   0.409   4.902   2.186  2.2735  2.0550 -1.6876
  271MOL0     H37346   0.506   4.752   2.155  3.3123 -0.4822 -2.4564
  271MOL0     H37347   0.797   4.810   2.249 -0.5465  1.6693 -1.7224
  271MOL0     H37348   0.949   4.988   2.494  1.0290 -1.0407 -0.2701
  271MOL0     H37349   0.933   4.820   2.440  1.6149  0.3194 -0.6998
  271MOL0     H37350   0.961   4.856   2.701  1.4270  1.6424 -1.0954
  271MOL0     H37351   0.810   4.937   2.708 -5.1046 -2.7827 -1.3421
  271MOL0     H37352   0.809   4.695   2.770  0.4400 -2.8270 -0.1057
  271MOL0     H37353   0.694   4.755   2.643  0.2477  1.3974  1.8770
  271MOL0     H37354   0.793   4.529   2.628 -1.0171  0.4463  0.8867
  271MOL0     H37355   0.801   4.628   2.478 -0.8546 -1.7666  0.4512
  271MOL0     H37356   0.947   4.299   2.629 -1.7435 -1.1390  1.8436
  271MOL0     H37357   0.912   4.146   2.879  1.4348  0.3441  1.3964
  271MOL0     H37358   1.076   4.079   2.844 -0.8012 -0.8711  0.5518
  271MOL0     H37359   0.953   4.118   2.719 -0.2780 -0.5915 -0.6277
  271MOL0     H37360   1.194   4.325   3.322 -2.1813 -0.1085 -0.3921
  271MOL0     H37361   1.240   4.214   3.533  1.1078  0.3023 -0.4612
  271MOL0     H37362   1.344   4.051   3.669  0.4694 -1.7569  0.7542
  271MOL0     H37363   1.182   4.089   3.731 -1.0016 -0.8186 -0.4369
  271MOL0     H37364   1.347   3.843   3.754  0.7918  0.0573 -0.9824
  271MOL0     H37365   1.338   3.950   3.894 -1.7257  1.3495 -0.2735
  271MOL0     H37366   1.106   3.770   3.796 -1.6818  2.3510 -0.9126
  271MOL0     H37367   1.068   3.926   3.838 -0.9809 -0.2048  2.2298
  271MOL0     H37368   1.051   3.755   4.021 -1.3009  0.0758 -3.2549
  271MOL0     H37369   1.162   3.885   4.056 -0.6096  2.3728 -2.4458
  271MOL0     H37370   1.257   3.620   3.917  2.2625 -0.8428 -0.5892
  271MOL0     H37371   1.357   3.723   4.011  2.3290 -3.1732 -3.4010
  271MOL0     H37372   1.256   3.619   4.223 -1.0982  2.5693 -1.1132
  271MOL0     H37373   1.326   3.507   4.119 -2.2993 -1.7345  0.5797
  271MOL0     H37374   1.090   3.448   4.040 -1.1712  1.8180 -1.6610
  271MOL0     H37375   1.028   3.571   4.149  2.2710  2.1002  2.1522
  271MOL0     H37376   1.111   3.487   4.346 -0.1066  0.0386 -0.7550
  271MOL0     H37377   1.192   3.354   4.272 -1.9507 -2.4599 -0.4031
  271MOL0     H37378   1.062   3.849   3.391 -2.1190 -0.1749 -0.1933
  271MOL0     H37379   0.999   3.985   3.160 -0.1402 -1.2084 -0.0533
  271MOL0     H37380   1.193   4.561   2.966  3.3482 -0.7275 -2.1658
  271MOL0     H37381   1.121   4.670   2.768  0.5655  1.0519  2.2743
  271MOL0     H37382   0.593   4.155   2.132 -0.6750  1.8190 -1.5855
  271MOL0     H37383   0.510   3.932   2.201 -0.2413 -0.8799 -0.0121
  271MOL0     H37384   0.543   3.464   2.013 -2.7194 -0.5041 -1.2062
  271MOL0     H37385   0.547   3.222   2.099 -0.0860 -0.9066 -1.4519
  271MOL0     H37386   0.565   3.113   2.442 -0.4379  1.3477 -0.5759
  271MOL0     H37387   0.440   3.221   2.500 -2.2724 -0.6201  0.5579
  271MOL0     H37388   0.275   3.025   2.518  0.8034  1.2338  0.5482
  271MOL0     H37389   0.418   3.021   2.619 -1.1815  2.5823  0.3808
  271MOL0     H37390   0.423   2.899   2.337  3.2663  1.6543  0.4323
  271MOL0     H37391   0.509   2.848   2.491 -1.5906 -2.1995  2.1912
  271MOL0     H37392   0.332   2.681   2.402 -2.0547 -0.6083  0.6261
  271MOL0     H37393   0.223   2.807   2.434 -1.8953 -2.7093  0.1398
  271MOL0     H37394   0.292   2.673   2.827 -0.7314 -1.6709 -0.4672
  271MOL0     H37395   0.286   3.372   2.428 -2.4692  0.9239 -1.2530
  271MOL0     H37396   0.314   3.713   2.345  1.4465 -0.3371  0.8955
  271MOL0     H37397   0.175   3.586   2.355 -1.3171  2.3059 -1.3024
  271MOL0     H37398   0.289   3.601   2.480  0.0336  2.3720  0.0290
  272MOL0     O37399   5.576   2.095  10.889 -0.4423 -0.5790 -0.0462
  272MOL0     C37400   5.509   2.019  10.808 -0.3975 -0.4765  0.2850
  272MOL0     O37401   5.434   1.907  10.847  0.0345  0.3403  0.0372
  272MOL0     C37402   5.458   1.850  10.969 -0.0094  0.2406  0.8474
  272MOL0     C37403   5.371   1.862  11.083 -0.7271 -0.2090  0.2349
  272MOL0     C37404   5.410   1.802  11.207 -0.5681  0.3124  0.5947
  272MOL0     C37405   5.529   1.728  11.211 -0.3286  0.8164  0.7703
  272MOL0     O37406   5.571   1.661  11.318 -1.3370  0.1882 -0.4302
  272MOL0     C37407   5.498   1.617  11.433  0.1968 -0.2637  0.2347
  272MOL0     C37408   5.453   1.721  11.551  0.3264 -0.2059 -0.5682
  272MOL0     C37409   5.580   1.745  11.639  0.6779  0.1366 -0.4353
  272MOL0     C37410   5.536   1.795  11.781  1.2051  0.5391  0.0541
  272MOL0     C37411   5.658   1.830  11.868  1.0204  0.5769 -0.4934
  272MOL0     C37412   5.748   1.718  11.908  0.1180  0.4035  0.9539
  272MOL0     C37413   5.854   1.766  12.010 -0.4416  0.1525  0.3973
  272MOL0     C37414   5.940   1.644  12.049 -1.0342  0.2937 -0.3120
  272MOL0     N37415   6.017   1.657  12.170  1.0743  0.4341 -0.4519
  272MOL0     C37416   5.963   1.636  12.292  0.5116 -0.8078 -0.3717
  272MOL0     C37417   6.073   1.640  12.377  0.0387  0.0079 -0.5738
  272MOL0     C37418   6.081   1.622  12.519  1.0780  0.4337 -0.3509
  272MOL0     C37419   6.165   1.730  12.591 -0.1120  1.2052  0.3794
  272MOL0     C37420   6.100   1.869  12.565 -0.6408 -0.3386  0.9142
  272MOL0     C37421   6.178   1.958  12.660 -0.3240 -0.5529 -0.2924
  272MOL0     O37422   6.084   2.035  12.737 -0.4918  0.2161 -0.0586
  272MOL0     C37423   5.993   2.110  12.664  0.6332  0.5048 -0.0626
  272MOL0     C37424   6.002   2.152  12.531  0.0883 -0.2156  0.0293
  272MOL0     C37425   5.901   2.216  12.464  0.5307 -0.0473 -0.1332
  272MOL0     C37426   5.921   2.254  12.313 -1.1766 -0.3582  0.7532
  272MOL0     C37427   5.791   2.246  12.545 -0.3637  1.0454  0.8172
  272MOL0     C37428   5.666   2.306  12.488 -0.3275  0.2007 -0.2314
  272MOL0     O37429   5.585   2.373  12.571  1.1613 -0.6538  0.2011
  272MOL0     C37430   5.448   2.397  12.524  0.0658  0.1606  0.2027
  272MOL0     C37431   5.384   2.501  12.584  0.9001 -0.0195 -0.3550
  272MOL0     C37432   5.247   2.520  12.566  0.7255  0.1675  0.5893
  272MOL0     C37433   5.172   2.438  12.482 -0.1324 -0.2096 -0.0399
  272MOL0     O37434   5.041   2.462  12.472 -0.0279  0.3761  0.2431
  272MOL0     C37435   4.942   2.365  12.424 -0.7198  0.4419  0.3098
  272MOL0     C37436   4.871   2.295  12.539  0.2511 -0.1592 -0.0800
  272MOL0     C37437   4.968   2.188  12.586 -0.5352  0.4994 -0.1220
  272MOL0     C37438   4.973   2.060  12.504 -0.2354  0.3576 -0.1633
  272MOL0     C37439   4.851   1.964  12.523 -0.7542  0.7549 -0.4449
  272MOL0     C37440   4.821   1.914  12.668 -0.7522  0.7445  0.0868
  272MOL0     C37441   4.697   1.835  12.658  0.1286 -0.1998 -0.4583
  272MOL0     C37442   4.681   1.763  12.797  0.5971  0.3719  0.2429
  272MOL0    Cl37443   4.497   1.727  12.826 -0.1904  0.1591  0.5069
  272MOL0     C37444   5.239   2.335  12.408  0.2653 -0.4133 -0.1845
  272MOL0     C37445   5.375   2.320  12.431 -0.6512  0.9068  0.4807
  272MOL0     O37446   5.651   2.291  12.364 -0.2369  0.4839 -0.1010
  272MOL0     C37447   5.781   2.214  12.684 -0.1687 -1.0805  1.1029
  272MOL0     C37448   5.886   2.145  12.746  0.2213 -0.0221  0.2009
  272MOL0     N37449   6.179   1.682  12.301 -0.8630  0.4645 -0.0452
  272MOL0     N37450   6.150   1.689  12.178 -0.1384  0.4927 -0.2824
  272MOL0     C37451   5.598   1.717  11.099 -0.4238 -0.0548  0.9138
  272MOL0     C37452   5.571   1.775  10.985  0.7312  0.2561  1.5472
  272MOL0     C37453   5.512   2.049  10.655  0.7293 -0.6648  0.2424
  272MOL0     C37454   5.413   1.992  10.567 -0.0569  0.0035  0.1407
  272MOL0     C37455   5.403   2.016  10.430  0.5917 -0.7145  1.6226
  272MOL0     C37456   5.498   2.109  10.379  1.3415 -0.1667 -0.3312
  272MOL0     O37457   5.480   2.164  10.255  0.1722  0.3960 -0.2721
  272MOL0     C37458   5.347   2.152  10.184 -0.0349  0.5764 -0.0568
  272MOL0     C37459   5.345   2.258  10.073  0.5171 -0.0111  0.2185
  272MOL0     C37460   5.356   2.190   9.941 -0.0393 -0.3928 -0.5345
  272MOL0     C37461   5.323   2.288   9.825 -0.7271  0.3992  0.1913
  272MOL0     C37462   5.330   2.187   9.711 -0.4460  0.2569 -1.0175
  272MOL0     C37463   5.326   2.097   9.630 -1.9868  0.6658  0.8236
  272MOL0     C37464   5.595   2.155  10.458  0.4969  0.0683  0.0191
  272MOL0     C37465   5.606   2.131  10.590 -0.5009  1.7328  0.1006
  272MOL0     C37466   5.726   2.177  10.663 -0.0744 -0.2954  0.7447
  272MOL0     H37467   5.291   1.935  11.086  0.3879  1.3592 -3.0726
  272MOL0     H37468   5.339   1.811  11.290  0.2700  0.2042  1.3372
  272MOL0     H37469   5.561   1.537  11.474  1.3477  0.6551  0.2896
  272MOL0     H37470   5.404   1.576  11.395 -0.2571  0.3517  0.6817
  272MOL0     H37471   5.416   1.821  11.524 -1.6240 -1.1416 -1.6385
  272MOL0     H37472   5.376   1.667  11.607 -0.7969 -1.9702 -3.5507
  272MOL0     H37473   5.631   1.650  11.659 -2.2671 -2.9802 -5.4728
  272MOL0     H37474   5.649   1.816  11.593  1.3912  0.6682  1.3793
  272MOL0     H37475   5.483   1.890  11.766 -1.7511 -0.3992  3.3110
  272MOL0     H37476   5.461   1.731  11.828  2.8180 -1.9773 -0.5833
  272MOL0     H37477   5.615   1.880  11.956  1.0152 -1.5225  0.7531
  272MOL0     H37478   5.718   1.902  11.811  0.7584 -1.6636 -3.8500
  272MOL0     H37479   5.685   1.638  11.948 -0.8298  0.4838 -0.3050
  272MOL0     H37480   5.797   1.676  11.820  0.0896  1.8522  0.2159
  272MOL0     H37481   5.802   1.813  12.094  0.7087  2.7835 -0.2628
  272MOL0     H37482   5.914   1.837  11.953  1.3880 -1.9140 -0.3889
  272MOL0     H37483   5.863   1.567  12.058 -0.4775 -0.0676  2.1115
  272MOL0     H37484   6.006   1.620  11.966  0.1574  0.9127  0.4246
  272MOL0     H37485   5.856   1.636  12.311  0.4691  2.3235 -0.1186
  272MOL0     H37486   6.128   1.524  12.534  3.0111  1.3923  0.2156
  272MOL0     H37487   5.982   1.633  12.565  0.3734 -1.5437 -1.2565
  272MOL0     H37488   6.164   1.714  12.699  0.5150 -0.1820  0.1970
  272MOL0     H37489   6.271   1.726  12.567  0.2941  4.5260  1.1368
  272MOL0     H37490   6.117   1.893  12.460  3.9300 -0.9821  1.3201
  272MOL0     H37491   5.993   1.873  12.588 -0.5893 -0.5566  1.2081
  272MOL0     H37492   6.254   1.907  12.720  1.6970  2.3017 -0.2002
  272MOL0     H37493   6.223   2.033  12.594 -1.2734 -0.2241 -0.5835
  272MOL0     H37494   6.087   2.130  12.468 -1.1017 -3.6940 -0.5640
  272MOL0     H37495   5.880   2.354  12.296  2.1271  1.8242  3.9644
  272MOL0     H37496   5.875   2.185  12.242  0.8033 -0.6394 -0.3445
  272MOL0     H37497   6.025   2.248  12.280 -2.1687  1.4245 -3.2732
  272MOL0     H37498   5.445   2.552  12.657 -0.4667  1.5021 -0.2054
  272MOL0     H37499   5.185   2.591  12.620  0.1273  1.6399 -1.8609
  272MOL0     H37500   4.870   2.426  12.368  2.0175  0.9367 -2.9975
  272MOL0     H37501   4.979   2.298  12.346 -0.7608  0.3840  0.3398
  272MOL0     H37502   4.863   2.375  12.614 -0.9856  1.8260 -2.1950
  272MOL0     H37503   4.776   2.253  12.507  0.7100 -2.6614  1.5692
  272MOL0     H37504   4.947   2.170  12.692  2.8593 -0.0929  0.5792
  272MOL0     H37505   5.069   2.231  12.580  0.4730 -1.7280 -0.4263
  272MOL0     H37506   5.060   2.003  12.538 -1.2162 -1.1251 -0.0414
  272MOL0     H37507   4.983   2.097  12.402  4.2362  1.5677  0.5258
  272MOL0     H37508   4.759   2.018  12.500 -1.2460  1.0854  1.9798
  272MOL0     H37509   4.866   1.878  12.457 -4.1821 -2.6636  2.6990
  272MOL0     H37510   4.794   2.002  12.727 -0.1820  0.5381  0.6745
  272MOL0     H37511   4.898   1.860  12.725 -1.4024 -1.7851 -1.2747
  272MOL0     H37512   4.718   1.755  12.587  1.0527  0.5336 -1.0373
  272MOL0     H37513   4.614   1.896  12.621  0.4847  0.3498 -0.3588
  272MOL0     H37514   4.711   1.807  12.893  0.8939 -0.1920  0.4136
  272MOL0     H37515   4.734   1.667  12.801  0.2720  0.0911 -1.5407
  272MOL0     H37516   5.182   2.263  12.351  0.2286  0.5555 -1.4299
  272MOL0     H37517   5.419   2.231  12.385 -0.0484 -0.1781  2.9828
  272MOL0     H37518   5.707   2.260  12.749 -0.4417  2.3662 -1.4100
  272MOL0     H37519   5.883   2.110  12.849  2.6642 -1.0843 -0.0219
  272MOL0     H37520   5.689   1.659  11.111  0.0267  0.2150 -0.8195
  272MOL0     H37521   5.634   1.755  10.898  1.0762  2.6484  1.1681
  272MOL0     H37522   5.348   1.912  10.600 -0.2114  0.5333  1.1857
  272MOL0     H37523   5.326   1.961  10.377 -1.2394  2.0571  1.2179
  272MOL0     H37524   5.329   2.054  10.140 -1.1988  0.8594 -0.2495
  272MOL0     H37525   5.268   2.179  10.254  0.9688  1.8150  0.6551
  272MOL0     H37526   5.430   2.325  10.088  1.7533 -1.1910 -1.2098
  272MOL0     H37527   5.253   2.318  10.071  1.4137  1.4121 -2.0145
  272MOL0     H37528   5.461   2.161   9.936 -0.1952 -0.9776 -0.4729
  272MOL0     H37529   5.297   2.098   9.937 -1.0427  0.0702  1.7339
  272MOL0     H37530   5.393   2.372   9.820  0.9213 -0.8140  1.5407
  272MOL0     H37531   5.221   2.325   9.830 -0.7239  0.4422 -0.0748
  272MOL0     H37532   5.326   2.020   9.556  0.4435  0.8676  0.5452
  272MOL0     H37533   5.662   2.231  10.420  0.4354 -0.6730 -1.6479
  272MOL0     H37534   5.759   2.095  10.728  0.0165 -1.0304 -0.2133
  272MOL0     H37535   5.812   2.209  10.604 -0.6466 -0.6551 -0.3115
  272MOL0     H37536   5.705   2.272  10.714 -1.2611  1.6432 -3.0083
  273MOL0     O37537   6.072   7.556   6.420  0.1041  0.1277 -0.6652
  273MOL0     C37538   6.075   7.592   6.304  1.2516 -0.5547 -1.0778
  273MOL0     O37539   6.139   7.701   6.260  0.3010 -0.3348 -0.6027
  273MOL0     C37540   6.232   7.762   6.337 -0.1480  0.7789 -0.1267
  273MOL0     C37541   6.190   7.818   6.464 -0.9943  0.1982  0.7828
  273MOL0     C37542   6.287   7.878   6.548  0.2550  0.1760 -0.2368
  273MOL0     C37543   6.416   7.882   6.504  0.1910 -0.3062 -0.1216
  273MOL0     O37544   6.528   7.939   6.563  0.2217  0.5589 -0.3230
  273MOL0     C37545   6.550   7.926   6.707 -0.0355 -0.5856  0.0457
  273MOL0     C37546   6.696   7.881   6.714  0.3010 -0.8595  0.3290
  273MOL0     C37547   6.804   7.996   6.691  0.3101  0.2913 -0.0661
  273MOL0     C37548   6.842   8.053   6.826  0.5124 -0.4601  0.3775
  273MOL0     C37549   6.746   8.153   6.880  0.7865  0.7299  0.5867
  273MOL0     C37550   6.791   8.184   7.027 -0.0646 -0.9268  0.3326
  273MOL0     C37551   6.704   8.298   7.087 -0.0912  0.2126 -1.0169
  273MOL0     C37552   6.559   8.272   7.076  0.2649  0.0435  0.6948
  273MOL0     N37553   6.479   8.379   7.139 -0.6089 -0.5120 -0.7925
  273MOL0     C37554   6.450   8.509   7.105  0.8625 -0.3673 -1.3917
  273MOL0     C37555   6.376   8.564   7.206 -0.1915 -0.1477 -0.3291
  273MOL0     C37556   6.314   8.703   7.222 -0.2545 -0.7610  0.1829
  273MOL0     C37557   6.177   8.695   7.156 -0.1144 -0.6691 -0.0272
  273MOL0     C37558   6.175   8.700   7.005  0.5443  0.0865 -0.3319
  273MOL0     C37559   6.058   8.780   6.943 -0.3448 -0.3167  0.6129
  273MOL0     O37560   5.943   8.742   7.002 -0.9044  0.1743  0.3501
  273MOL0     C37561   5.844   8.833   7.004  0.7787  0.2171 -0.2986
  273MOL0     C37562   5.813   8.911   6.895 -0.0264  0.5195 -0.2652
  273MOL0     C37563   5.697   8.989   6.889 -1.3611 -0.9069 -0.0226
  273MOL0     C37564   5.682   9.057   6.754 -0.3639 -1.2603  0.0149
  273MOL0     C37565   5.605   8.995   6.999  0.2101 -1.2184  0.5563
  273MOL0     C37566   5.480   9.065   7.007  0.0251  0.2811 -0.5747
  273MOL0     O37567   5.409   9.062   7.133 -0.6609  0.6622  0.5429
  273MOL0     C37568   5.286   9.131   7.130  0.0200 -0.0649  0.4604
  273MOL0     C37569   5.282   9.247   7.204 -0.4095  0.2779 -0.4767
  273MOL0     C37570   5.170   9.337   7.194  0.9010  0.5594 -0.1551
  273MOL0     C37571   5.060   9.309   7.120  0.0439 -0.2722 -0.3923
  273MOL0     O37572   4.950   9.394   7.136 -0.4303 -0.5625 -0.3631
  273MOL0     C37573   4.814   9.372   7.080  0.6797 -1.0743 -0.2050
  273MOL0     C37574   4.715   9.397   7.206 -0.3904 -0.3474 -0.5381
  273MOL0     C37575   4.705   9.544   7.230 -0.8233 -0.4272  0.0037
  273MOL0     C37576   4.653   9.578   7.364  0.2512 -0.5731 -0.0614
  273MOL0     C37577   4.605   9.724   7.406  0.0319  0.0478  0.5686
  273MOL0     C37578   4.546   9.821   7.310  0.5372 -0.0862  0.2981
  273MOL0     C37579   4.415   9.758   7.281  0.2437  0.2736  0.2287
  273MOL0     C37580   4.337   9.811   7.158 -0.8828 -0.4490  0.4997
  273MOL0    Cl37581   4.387   9.725   7.012  0.0334  0.2195  0.0516
  273MOL0     C37582   5.060   9.189   7.043  0.1645  0.3658 -0.4124
  273MOL0     C37583   5.174   9.111   7.047 -0.0260 -0.1288 -0.4382
  273MOL0     O37584   5.437   9.115   6.907 -0.8061  0.4987  0.1865
  273MOL0     C37585   5.650   8.918   7.118  0.0896 -0.3335  1.2957
  273MOL0     C37586   5.758   8.836   7.112  0.1925  0.7657  0.7361
  273MOL0     N37587   6.361   8.460   7.303 -0.9908 -0.2847 -0.0958
  273MOL0     N37588   6.422   8.356   7.256 -0.4050 -0.5658 -0.1018
  273MOL0     C37589   6.457   7.831   6.384 -0.2112  0.2509 -0.0843
  273MOL0     C37590   6.366   7.765   6.303 -0.6385 -0.4782  0.1154
  273MOL0     C37591   6.006   7.504   6.204 -0.4770 -0.0738 -0.5149
  273MOL0     C37592   5.924   7.393   6.238 -0.4397 -0.7216  0.3284
  273MOL0     C37593   5.849   7.324   6.150  0.7254 -0.6774 -0.4023
  273MOL0     C37594   5.846   7.365   6.019 -0.8214 -0.3571  0.4282
  273MOL0     O37595   5.772   7.281   5.937 -0.1508 -0.2478 -0.1393
  273MOL0     C37596   5.786   7.293   5.795  1.0712 -1.3151 -0.4343
  273MOL0     C37597   5.925   7.265   5.743 -0.3766  0.1706  0.5520
  273MOL0     C37598   5.912   7.216   5.595  0.4280 -0.2123 -0.1241
  273MOL0     C37599   6.038   7.152   5.531 -0.0726 -0.2565 -0.2231
  273MOL0     C37600   6.000   7.104   5.399 -1.4865 -0.0674 -0.3784
  273MOL0     C37601   5.994   7.078   5.280  0.6988  0.0040 -0.1792
  273MOL0     C37602   5.904   7.484   5.983 -0.5031 -0.7246  0.5196
  273MOL0     C37603   5.997   7.547   6.067 -0.0506  0.6023  0.4533
  273MOL0     C37604   6.066   7.665   5.999 -0.3904  0.8665  0.7489
  273MOL0     H37605   6.085   7.801   6.483 -0.5982 -2.1790  1.1997
  273MOL0     H37606   6.256   7.925   6.640 -0.4059  1.5747 -1.1453
  273MOL0     H37607   6.491   7.844   6.747  0.8855 -0.9247  0.7183
  273MOL0     H37608   6.518   8.019   6.755 -0.6189 -0.8691  0.2102
  273MOL0     H37609   6.707   7.845   6.817  0.8584 -0.6513  0.3417
  273MOL0     H37610   6.711   7.804   6.637 -1.2974 -1.3123  0.4368
  273MOL0     H37611   6.895   7.952   6.648 -0.0898 -1.7033  1.0309
  273MOL0     H37612   6.766   8.079   6.631  2.9459  2.2798  0.7988
  273MOL0     H37613   6.862   7.976   6.901 -0.3169 -0.1671  0.9204
  273MOL0     H37614   6.933   8.112   6.815  0.8385 -0.4890  2.6120
  273MOL0     H37615   6.646   8.110   6.872  1.4264 -1.3608  2.7805
  273MOL0     H37616   6.745   8.234   6.807 -4.3909  0.4339 -0.0841
  273MOL0     H37617   6.791   8.097   7.093  1.0915 -2.3384 -1.4203
  273MOL0     H37618   6.897   8.207   7.017 -0.4052 -0.2204 -2.8854
  273MOL0     H37619   6.737   8.392   7.042 -2.0259  1.5286  0.1739
  273MOL0     H37620   6.737   8.306   7.191 -0.1049  0.1407 -1.0065
  273MOL0     H37621   6.535   8.274   6.969  2.1627  0.6285  0.2610
  273MOL0     H37622   6.534   8.174   7.120  0.6074 -0.2668  0.2079
  273MOL0     H37623   6.463   8.561   7.011 -2.4690  1.3550 -1.0554
  273MOL0     H37624   6.377   8.786   7.191 -0.8775 -1.5468 -3.6745
  273MOL0     H37625   6.300   8.717   7.330  0.6858  1.4848  0.0501
  273MOL0     H37626   6.126   8.603   7.185 -1.7403  0.0241 -0.5589
  273MOL0     H37627   6.121   8.778   7.201 -1.0001 -1.2564 -0.0282
  273MOL0     H37628   6.271   8.735   6.964  0.6864  1.6263  1.2170
  273MOL0     H37629   6.175   8.596   6.970 -2.6597  0.3724 -1.5016
  273MOL0     H37630   6.076   8.887   6.960  1.3115 -0.2273 -1.3284
  273MOL0     H37631   6.069   8.761   6.836  3.6332  0.0429  0.8092
  273MOL0     H37632   5.872   8.908   6.804 -0.2186  1.0707 -0.4089
  273MOL0     H37633   5.778   9.053   6.702 -1.0891 -2.0869 -1.3108
  273MOL0     H37634   5.645   9.157   6.778  0.6660 -1.4712  2.9824
  273MOL0     H37635   5.604   9.002   6.702 -1.6386 -2.1452  2.6669
  273MOL0     H37636   5.373   9.261   7.262  0.2146  2.6789 -1.8768
  273MOL0     H37637   5.168   9.431   7.248  2.0169 -0.2572  1.3841
  273MOL0     H37638   4.794   9.438   6.995 -1.9717 -0.6144  0.6830
  273MOL0     H37639   4.790   9.268   7.059 -1.2291 -1.4658  3.1566
  273MOL0     H37640   4.619   9.350   7.182 -0.5342 -0.7509  0.7748
  273MOL0     H37641   4.756   9.355   7.298  0.0629 -3.5444 -2.0553
  273MOL0     H37642   4.639   9.583   7.152 -2.1757  0.9804  1.7614
  273MOL0     H37643   4.800   9.596   7.221  0.0593 -1.7757  1.0489
  273MOL0     H37644   4.724   9.550   7.442  0.4230 -2.2673 -0.7802
  273MOL0     H37645   4.570   9.508   7.382  0.8071 -0.9891  0.9620
  273MOL0     H37646   4.541   9.713   7.494  0.7230 -0.9988  0.9712
  273MOL0     H37647   4.697   9.771   7.442  1.5163 -0.9905 -1.6415
  273MOL0     H37648   4.603   9.836   7.217  0.0173 -2.8551 -0.5543
  273MOL0     H37649   4.535   9.918   7.360 -0.0262  0.2622 -0.4855
  273MOL0     H37650   4.355   9.778   7.370  0.7494 -2.7974  1.3783
  273MOL0     H37651   4.409   9.648   7.281  0.7247  0.2447  0.8564
  273MOL0     H37652   4.344   9.919   7.141  0.0645 -0.8551 -2.2460
  273MOL0     H37653   4.230   9.792   7.171 -0.5230 -0.9550  3.2765
  273MOL0     H37654   4.970   9.165   6.987 -0.5814  0.2277  0.8088
  273MOL0     H37655   5.191   9.022   6.987  0.0545  0.0368 -0.6641
  273MOL0     H37656   5.589   8.922   7.207 -3.4611 -1.0608 -0.8804
  273MOL0     H37657   5.773   8.771   7.197 -2.4965  2.1236  2.4150
  273MOL0     H37658   6.557   7.852   6.349  0.4496  0.1945  1.6714
  273MOL0     H37659   6.384   7.727   6.203 -1.8734  2.3491 -1.2755
  273MOL0     H37660   5.919   7.359   6.341  0.0416 -1.0120  0.2616
  273MOL0     H37661   5.782   7.244   6.180 -1.0595  1.0805  0.5276
  273MOL0     H37662   5.703   7.230   5.760 -1.9520  2.6054 -1.0386
  273MOL0     H37663   5.755   7.393   5.763  0.5608 -1.9566 -2.0267
  273MOL0     H37664   5.975   7.186   5.800  0.3109  0.2706  0.1017
  273MOL0     H37665   5.988   7.355   5.739  0.1497 -0.1288  1.7535
  273MOL0     H37666   5.827   7.148   5.584  0.3000 -0.1208  0.2795
  273MOL0     H37667   5.886   7.307   5.539 -1.9172 -0.3098  0.6847
  273MOL0     H37668   6.062   7.067   5.595 -2.6830  0.3038  1.7166
  273MOL0     H37669   6.124   7.217   5.516  2.6891 -2.7234  3.3137
  273MOL0     H37670   5.992   7.039   5.180 -3.5410 -2.8256  0.7508
  273MOL0     H37671   5.898   7.526   5.883  1.0825  2.5504  1.6404
  273MOL0     H37672   6.173   7.666   6.024  0.0959 -1.7512 -0.8197
  273MOL0     H37673   6.060   7.664   5.890  0.5879 -2.3255  0.6086
  273MOL0     H37674   6.019   7.757   6.034 -1.8317 -0.5404  2.7531
  274MOL0     O37675  10.709   7.103   2.573 -0.4346  0.3102 -0.0095
  274MOL0     C37676  10.680   7.211   2.526  0.2053 -0.6462  1.0391
  274MOL0     O37677  10.622   7.225   2.406 -0.7267  0.4053  0.2586
  274MOL0     C37678  10.568   7.113   2.337  0.0157 -0.4411  0.0920
  274MOL0     C37679  10.571   7.128   2.197 -0.2900  0.1412  0.4962
  274MOL0     C37680  10.511   7.031   2.111  1.0931  0.3587  0.0639
  274MOL0     C37681  10.452   6.910   2.162 -0.5034  0.3386 -0.2028
  274MOL0     O37682  10.393   6.831   2.073 -0.0360  0.5315 -0.7958
  274MOL0     C37683  10.310   6.724   2.126  0.1792 -0.3579  0.2154
  274MOL0     C37684  10.248   6.660   2.006 -0.3069 -0.4665  0.5096
  274MOL0     C37685  10.329   6.545   1.944 -0.4263  0.3034  0.4552
  274MOL0     C37686  10.311   6.542   1.796  0.7639 -0.1408  1.0914
  274MOL0     C37687  10.418   6.460   1.725  1.1896 -1.1673  0.6898
  274MOL0     C37688  10.446   6.511   1.582  0.2310  1.5947  0.9315
  274MOL0     C37689  10.334   6.506   1.476 -0.2866 -0.1917  0.5995
  274MOL0     C37690  10.246   6.624   1.473  0.1162 -0.9471 -0.1958
  274MOL0     N37691  10.304   6.757   1.472 -0.8945 -0.2349 -0.0614
  274MOL0     C37692  10.323   6.833   1.589  0.1246 -0.2097 -0.1976
  274MOL0     C37693  10.418   6.918   1.561  0.1074 -0.0695 -0.4414
  274MOL0     C37694  10.459   7.010   1.675 -1.5063  0.1195 -0.3481
  274MOL0     C37695  10.446   7.154   1.623  0.0081  0.2321 -0.8281
  274MOL0     C37696  10.304   7.195   1.586  0.6601 -0.1087 -0.7095
  274MOL0     C37697  10.197   7.184   1.688  0.0388 -1.2607 -0.4485
  274MOL0     O37698  10.218   7.283   1.785 -0.5353  0.8754  0.5852
  274MOL0     C37699  10.206   7.257   1.915 -0.5389  0.4317 -0.4599
  274MOL0     C37700  10.252   7.359   1.995 -0.1873 -0.2540 -1.0104
  274MOL0     C37701  10.228   7.364   2.138  1.1683  0.6679  0.1601
  274MOL0     C37702  10.261   7.486   2.229  0.7520  0.5409 -1.1319
  274MOL0     C37703  10.175   7.240   2.198  0.3082  0.6729  0.4208
  274MOL0     C37704  10.143   7.220   2.339 -0.3421 -0.1127 -0.0587
  274MOL0     O37705  10.063   7.115   2.374  0.1839 -0.6226  0.5049
  274MOL0     C37706  10.040   7.101   2.510 -0.5727 -0.2394 -0.7656
  274MOL0     C37707  10.139   7.037   2.587 -1.2844  0.0435 -0.6821
  274MOL0     C37708  10.118   7.014   2.722  0.3174  0.1887 -0.2268
  274MOL0     C37709  10.013   7.071   2.795  0.1168 -0.3384  0.2224
  274MOL0     O37710  10.015   7.038   2.927 -0.6844  0.2111 -0.0399
  274MOL0     C37711   9.907   7.102   2.996 -0.4240 -0.3229  0.4244
  274MOL0     C37712   9.899   7.073   3.144 -0.9189 -0.4135  0.7015
  274MOL0     C37713  10.020   7.133   3.218  0.7435 -0.3136 -0.4977
  274MOL0     C37714  10.010   7.282   3.244 -0.3850 -0.2204  0.5832
  274MOL0     C37715  10.126   7.348   3.321  0.2674  0.9303 -0.5051
  274MOL0     C37716  10.171   7.263   3.451 -0.4953  1.0582  0.3719
  274MOL0     C37717  10.253   7.362   3.540  0.1562 -0.8426 -0.3990
  274MOL0     C37718  10.311   7.296   3.657 -0.2775  0.1669  0.2254
  274MOL0    Cl37719  10.460   7.216   3.611  0.1728 -0.1745  0.3085
  274MOL0     C37720   9.924   7.145   2.717  0.6828  0.4282  0.5719
  274MOL0     C37721   9.934   7.153   2.574 -0.5174 -0.4278 -0.0238
  274MOL0     O37722  10.194   7.292   2.426 -0.5131 -0.3527 -0.1098
  274MOL0     C37723  10.128   7.133   2.110  0.4151  0.6123  0.6398
  274MOL0     C37724  10.137   7.146   1.968 -0.3814  0.3583  0.0698
  274MOL0     N37725  10.477   6.895   1.444 -0.9548  0.3266 -0.1362
  274MOL0     N37726  10.408   6.796   1.385  0.1406 -0.6540 -0.2866
  274MOL0     C37727  10.454   6.895   2.310 -0.2818 -0.8889  0.3761
  274MOL0     C37728  10.502   7.003   2.389 -0.3355  0.4178 -0.5759
  274MOL0     C37729  10.704   7.336   2.602  0.3388  0.5112  0.4385
  274MOL0     C37730  10.640   7.455   2.561  0.2558 -0.3030 -0.1171
  274MOL0     C37731  10.674   7.571   2.624  0.4695 -0.5347  0.0769
  274MOL0     C37732  10.759   7.576   2.735  0.1255 -0.4331 -0.5956
  274MOL0     O37733  10.787   7.699   2.782  1.0159  0.3057  0.9999
  274MOL0     C37734  10.860   7.717   2.906 -0.4853 -0.9573  0.3346
  274MOL0     C37735  10.785   7.660   3.025  0.5974  1.5497 -0.0820
  274MOL0     C37736  10.863   7.706   3.150 -0.1079 -1.1545  0.1535
  274MOL0     C37737  10.760   7.732   3.263  0.3188 -0.8257  0.3916
  274MOL0     C37738  10.707   7.871   3.250 -0.1056  0.6956  0.5687
  274MOL0     C37739  10.675   7.994   3.257  0.2534 -0.1713  1.1370
  274MOL0     C37740  10.816   7.463   2.771 -0.1790  0.1958 -0.7404
  274MOL0     C37741  10.793   7.334   2.712 -0.5357 -0.5064  0.2564
  274MOL0     C37742  10.867   7.221   2.775 -0.0920 -0.3996  0.0958
  274MOL0     H37743  10.624   7.215   2.160  2.9736 -0.7033  2.7718
  274MOL0     H37744  10.514   7.056   2.006  0.9257 -2.5857 -0.7360
  274MOL0     H37745  10.233   6.766   2.190  2.3683  3.5462  0.6181
  274MOL0     H37746  10.372   6.652   2.180  1.4711 -0.3150 -1.1205
  274MOL0     H37747  10.152   6.621   2.039  0.1986 -1.1990  1.1624
  274MOL0     H37748  10.221   6.734   1.931 -4.9601 -0.9810  1.4037
  274MOL0     H37749  10.433   6.574   1.959 -0.4931  2.4315 -2.3312
  274MOL0     H37750  10.307   6.449   1.992  2.7691  0.2169  1.9762
  274MOL0     H37751  10.216   6.489   1.779  0.4709  0.2038  1.6587
  274MOL0     H37752  10.297   6.643   1.757 -1.4479 -0.6442  0.4059
  274MOL0     H37753  10.374   6.360   1.717  1.6580 -1.2282 -2.2514
  274MOL0     H37754  10.506   6.446   1.790  0.2789  1.7998  2.7917
  274MOL0     H37755  10.480   6.616   1.577  0.1452  1.6432  1.3878
  274MOL0     H37756  10.524   6.448   1.538 -0.7441 -0.4655  2.0495
  274MOL0     H37757  10.279   6.412   1.486 -0.1460 -0.0809  2.8658
  274MOL0     H37758  10.388   6.505   1.380 -1.8802  0.1259 -0.3355
  274MOL0     H37759  10.198   6.609   1.376 -0.6316  1.8044 -0.3284
  274MOL0     H37760  10.177   6.619   1.558  0.8854 -1.9166  0.3981
  274MOL0     H37761  10.254   6.824   1.673  0.0830  0.9052 -0.0842
  274MOL0     H37762  10.566   6.995   1.691 -1.4953 -0.3492 -0.8577
  274MOL0     H37763  10.404   6.977   1.764 -3.9589 -0.4407 -1.9651
  274MOL0     H37764  10.485   7.219   1.702 -0.3059  0.6529 -1.0142
  274MOL0     H37765  10.514   7.168   1.539  0.5898  2.2538 -0.0630
  274MOL0     H37766  10.299   7.296   1.544  0.5647  0.3411  0.3508
  274MOL0     H37767  10.260   7.126   1.515 -1.6640 -1.9092  2.2173
  274MOL0     H37768  10.098   7.194   1.642 -0.0180  0.9660  0.0199
  274MOL0     H37769  10.204   7.085   1.733  1.5735 -0.6904  0.6412
  274MOL0     H37770  10.281   7.452   1.946 -0.8338  2.4077  3.1118
  274MOL0     H37771  10.176   7.511   2.293  0.1106 -0.0015 -1.7477
  274MOL0     H37772  10.282   7.580   2.177 -2.9852  2.7779  0.9417
  274MOL0     H37773  10.341   7.457   2.298 -0.7705 -0.7161  0.1808
  274MOL0     H37774  10.237   7.015   2.546 -1.3507 -1.9088  0.0876
  274MOL0     H37775  10.180   6.955   2.790 -3.0012 -1.1839  1.8629
  274MOL0     H37776   9.905   7.211   2.983  0.8824 -0.1227  1.6828
  274MOL0     H37777   9.813   7.066   2.951  1.1258 -0.6890 -2.8026
  274MOL0     H37778   9.814   7.120   3.194  0.6915  3.3621  0.2483
  274MOL0     H37779   9.910   6.965   3.152 -1.4476 -0.6541 -1.2457
  274MOL0     H37780  10.116   7.134   3.164  1.9844  0.1813  1.6176
  274MOL0     H37781  10.032   7.079   3.312  3.7046  0.7459 -0.1637
  274MOL0     H37782   9.923   7.279   3.310  0.9407 -2.1140  2.3658
  274MOL0     H37783  10.000   7.333   3.148  1.1702  0.6384  0.8469
  274MOL0     H37784  10.219   7.372   3.269  1.7753 -1.4660  0.8920
  274MOL0     H37785  10.087   7.444   3.356  1.2750  1.2737 -0.3000
  274MOL0     H37786  10.241   7.195   3.403  1.1188  2.2997  0.8678
  274MOL0     H37787  10.087   7.217   3.504 -0.5701  0.8370  0.0689
  274MOL0     H37788  10.187   7.442   3.575 -0.8814 -1.8436 -0.0179
  274MOL0     H37789  10.337   7.417   3.495  2.3613 -0.0033  4.1671
  274MOL0     H37790  10.238   7.224   3.694  1.0425 -1.0535  0.5109
  274MOL0     H37791  10.336   7.372   3.731 -1.8732 -0.7273  1.7436
  274MOL0     H37792   9.837   7.199   2.752  0.0384 -0.6863  0.7637
  274MOL0     H37793   9.846   7.196   2.525  0.7075 -0.2217 -2.1861
  274MOL0     H37794  10.076   7.044   2.143 -1.0567  0.5208 -1.6759
  274MOL0     H37795  10.094   7.065   1.911  0.5455 -0.7154  0.8520
  274MOL0     H37796  10.417   6.802   2.352 -0.0656 -1.4002 -0.5266
  274MOL0     H37797  10.491   6.990   2.496 -3.6690  1.9660 -0.5916
  274MOL0     H37798  10.566   7.452   2.482 -1.1175  0.2728  1.1044
  274MOL0     H37799  10.635   7.668   2.592  0.7849 -0.5241 -0.2758
  274MOL0     H37800  10.961   7.676   2.906  0.7774  1.9165 -0.2221
  274MOL0     H37801  10.882   7.824   2.918  0.6227 -1.0144 -0.9772
  274MOL0     H37802  10.779   7.551   3.019 -0.3704  1.4827  1.4809
  274MOL0     H37803  10.680   7.692   3.021  0.6280  1.6791  0.1490
  274MOL0     H37804  10.931   7.634   3.195 -0.8529 -1.5716  0.6395
  274MOL0     H37805  10.922   7.795   3.125 -3.5427  0.8066 -1.7794
  274MOL0     H37806  10.806   7.723   3.362  0.4507  2.4936  0.7429
  274MOL0     H37807  10.679   7.659   3.254 -1.5657  1.3637 -2.3937
  274MOL0     H37808  10.653   8.096   3.283 -1.5682 -0.1639 -0.2548
  274MOL0     H37809  10.892   7.469   2.848 -0.2753  2.2615 -0.7447
  274MOL0     H37810  10.797   7.146   2.813  2.6195 -2.6128  1.1037
  274MOL0     H37811  10.925   7.173   2.695 -0.0799  3.7010 -2.6912
  274MOL0     H37812  10.927   7.245   2.864 -0.6995  0.2039  0.3526
  275MOL0     O37813   8.962   9.152   3.635 -0.1913  0.3515 -0.6292
  275MOL0     C37814   8.911   9.144   3.744 -0.1335  0.0135  0.5420
  275MOL0     O37815   8.798   9.206   3.775 -0.1915  0.8514 -0.5045
  275MOL0     C37816   8.749   9.291   3.685 -0.2996 -0.5813 -0.2336
  275MOL0     C37817   8.804   9.419   3.664  0.1951 -0.2777 -0.1690
  275MOL0     C37818   8.769   9.490   3.555 -0.7310 -0.4152 -0.9234
  275MOL0     C37819   8.653   9.458   3.475 -0.8701 -0.3171  0.3094
  275MOL0     O37820   8.597   9.520   3.366  0.1682 -0.5806 -0.2343
  275MOL0     C37821   8.696   9.584   3.281  1.0398 -0.2523  0.6491
  275MOL0     C37822   8.622   9.702   3.209 -0.5069  0.3010 -0.0611
  275MOL0     C37823   8.705   9.771   3.108 -1.9073 -0.5271  0.5166
  275MOL0     C37824   8.626   9.846   3.005 -0.0713  0.0230  0.5291
  275MOL0     C37825   8.722   9.905   2.906  0.6387 -0.2087 -0.4529
  275MOL0     C37826   8.663   9.908   2.761 -0.6185  0.2475  0.1056
  275MOL0     C37827   8.558  10.017   2.754  0.4175  0.3113  0.2570
  275MOL0     C37828   8.525  10.059   2.608  0.6117 -0.0862 -0.3450
  275MOL0     N37829   8.438  10.182   2.592  0.6133 -0.0268 -0.1944
  275MOL0     C37830   8.476  10.314   2.623  0.1381  0.2371  0.0065
  275MOL0     C37831   8.360  10.378   2.629 -0.2716 -0.5037 -0.0307
  275MOL0     C37832   8.363  10.523   2.645  0.0198  0.2464 -0.0152
  275MOL0     C37833   8.290  10.600   2.538  0.9624 -0.5166  0.9127
  275MOL0     C37834   8.251  10.735   2.606 -0.0810  0.6424  0.0840
  275MOL0     C37835   8.158  10.805   2.519 -0.0962 -0.3000 -0.3475
  275MOL0     O37836   8.227  10.832   2.391 -0.0710  0.1224 -0.1975
  275MOL0     C37837   8.155  10.865   2.282  0.0816  0.1799 -0.0272
  275MOL0     C37838   8.227  10.914   2.167  0.0399  0.2866 -0.7135
  275MOL0     C37839   8.166  10.946   2.044 -0.1883  0.1138  0.2670
  275MOL0     C37840   8.256  11.002   1.934  0.2556 -0.1994 -0.2283
  275MOL0     C37841   8.023  10.952   2.040 -0.6333  0.6725  0.4299
  275MOL0     C37842   7.958  11.002   1.916  1.4663 -0.3368 -0.1640
  275MOL0     O37843   7.875  11.105   1.941  0.2917 -0.2752 -0.5218
  275MOL0     C37844   7.809  11.168   1.837  0.6716  0.2352  1.1985
  275MOL0     C37845   7.879  11.244   1.736 -0.6240  0.4014  0.9759
  275MOL0     C37846   7.818  11.312   1.630  0.0951  0.1148  0.4129
  275MOL0     C37847   7.680  11.303   1.622  0.0777  0.6008  0.5129
  275MOL0     O37848   7.620  11.375   1.522  0.2699  0.8275  0.1087
  275MOL0     C37849   7.476  11.363   1.501  0.1026  0.0356 -0.4801
  275MOL0     C37850   7.434  11.393   1.363  0.3291 -0.2165 -0.0364
  275MOL0     C37851   7.390  11.545   1.353  0.2110  0.2495  0.3857
  275MOL0     C37852   7.266  11.560   1.251 -0.8446 -0.4997 -0.3300
  275MOL0     C37853   7.236  11.699   1.207 -1.1193  0.0191  0.1357
  275MOL0     C37854   7.128  11.711   1.102  0.9118  0.6877  0.1281
  275MOL0     C37855   7.153  11.644   0.960 -0.1748  0.1508  0.2975
  275MOL0     C37856   7.029  11.580   0.904  0.5487  0.1046 -0.9468
  275MOL0    Cl37857   6.884  11.695   0.915  0.0832 -0.3456  0.3166
  275MOL0     C37858   7.610  11.226   1.716 -0.0477  0.5492  0.4859
  275MOL0     C37859   7.669  11.159   1.822  0.4306 -1.3984 -0.6437
  275MOL0     O37860   7.993  10.965   1.805 -0.3309 -0.3259  0.6485
  275MOL0     C37861   7.951  10.912   2.151 -0.2275  0.3435  0.2454
  275MOL0     C37862   8.012  10.867   2.267  0.7402  1.0820  0.0423
  275MOL0     N37863   8.252  10.299   2.606 -0.0724 -0.3789  0.3595
  275MOL0     N37864   8.300  10.185   2.581 -0.2749  0.5109  0.5210
  275MOL0     C37865   8.591   9.338   3.515 -0.9142  0.3320  0.2275
  275MOL0     C37866   8.639   9.250   3.606 -0.1506  0.1562 -0.1285
  275MOL0     C37867   8.977   9.041   3.829 -0.4022  0.2219  0.2363
  275MOL0     C37868   9.112   9.015   3.816 -0.0360  0.2444 -0.3496
  275MOL0     C37869   9.182   8.927   3.900 -0.4355 -0.4834 -0.7390
  275MOL0     C37870   9.113   8.857   3.999 -1.1541 -0.4914  0.0755
  275MOL0     O37871   9.191   8.783   4.081  0.1521 -0.8748 -0.3397
  275MOL0     C37872   9.127   8.684   4.175  0.2582 -0.0008  0.1764
  275MOL0     C37873   9.072   8.567   4.097  0.5162 -0.5536  0.8558
  275MOL0     C37874   9.037   8.456   4.195  0.1913  0.7018 -0.3415
  275MOL0     C37875   9.155   8.367   4.212 -0.2342  0.8635  0.0527
  275MOL0     C37876   9.191   8.333   4.345  0.0023 -0.0925  0.1848
  275MOL0     C37877   9.206   8.295   4.461  1.0505  0.8463 -0.2648
  275MOL0     C37878   8.981   8.886   4.018 -0.7510  0.2212  0.6011
  275MOL0     C37879   8.913   8.980   3.938  0.5227  0.1538 -0.0285
  275MOL0     C37880   8.762   9.004   3.971  0.3863  0.2520 -0.3217
  275MOL0     H37881   8.889   9.457   3.720  0.3458  2.4569 -2.0523
  275MOL0     H37882   8.831   9.579   3.549 -0.0129 -0.4726  2.8461
  275MOL0     H37883   8.733   9.507   3.213  1.8125  1.2051 -0.6469
  275MOL0     H37884   8.778   9.622   3.342 -0.2155  0.4687  1.9727
  275MOL0     H37885   8.530   9.659   3.169 -1.6261  1.2761  1.3710
  275MOL0     H37886   8.590   9.779   3.279 -0.4688  1.8835 -1.6916
  275MOL0     H37887   8.777   9.845   3.145 -2.3143  0.2214 -0.1500
  275MOL0     H37888   8.756   9.697   3.045  2.6070  4.4451 -2.5952
  275MOL0     H37889   8.576   9.766   2.950  0.2639 -0.4017  0.8413
  275MOL0     H37890   8.551   9.912   3.049 -1.7655 -1.0002 -0.7353
  275MOL0     H37891   8.806   9.837   2.894  0.0110 -0.8708 -1.2622
  275MOL0     H37892   8.750  10.009   2.925 -2.1217  1.4390 -4.2267
  275MOL0     H37893   8.745   9.943   2.697  0.5621 -1.8755  0.3765
  275MOL0     H37894   8.613   9.818   2.723 -2.9488  0.5562  2.2196
  275MOL0     H37895   8.585  10.099   2.822 -3.6518  2.0638  0.0285
  275MOL0     H37896   8.465   9.967   2.785  1.1962  0.1475  2.5712
  275MOL0     H37897   8.620  10.059   2.553  0.6774 -0.4075 -0.2310
  275MOL0     H37898   8.476   9.969   2.571 -1.7016  0.3386  1.4777
  275MOL0     H37899   8.575  10.356   2.638  0.6053  0.2950 -2.6790
  275MOL0     H37900   8.467  10.555   2.652  0.3712 -0.6297 -1.0505
  275MOL0     H37901   8.316  10.535   2.743 -0.3567  2.0753 -0.3795
  275MOL0     H37902   8.340  10.611   2.441 -1.8247  0.7555 -0.5015
  275MOL0     H37903   8.205  10.542   2.502  2.6841 -1.5583 -1.8076
  275MOL0     H37904   8.196  10.710   2.697  1.8807 -0.8236  0.9472
  275MOL0     H37905   8.340  10.794   2.631  0.5206 -1.3445  3.0682
  275MOL0     H37906   8.086  10.725   2.498  0.6890 -0.8029 -1.1937
  275MOL0     H37907   8.103  10.891   2.557 -1.0496 -1.1645  0.2753
  275MOL0     H37908   8.334  10.931   2.179  1.0241 -5.0934  1.1239
  275MOL0     H37909   8.255  10.929   1.853  2.5861  0.4178 -0.8705
  275MOL0     H37910   8.357  11.005   1.976  0.7807  0.3250 -1.4705
  275MOL0     H37911   8.209  11.097   1.905 -2.0466 -1.2543 -0.2151
  275MOL0     H37912   7.987  11.243   1.730 -0.6807 -0.4569 -3.1755
  275MOL0     H37913   7.878  11.354   1.551  0.8184 -0.7902  0.4700
  275MOL0     H37914   7.458  11.255   1.507  3.7379 -0.9545 -3.4491
  275MOL0     H37915   7.423  11.420   1.577  1.0928  0.8196 -0.3506
  275MOL0     H37916   7.506  11.374   1.283 -2.7018  0.9145 -3.3324
  275MOL0     H37917   7.355  11.323   1.335 -0.4355 -0.0890  1.6997
  275MOL0     H37918   7.481  11.596   1.320  0.4366 -0.8180 -0.7471
  275MOL0     H37919   7.362  11.588   1.449 -4.0417  3.0421 -1.7859
  275MOL0     H37920   7.184  11.509   1.304  0.8226 -1.7180  1.2252
  275MOL0     H37921   7.283  11.503   1.160 -3.2364 -0.0238 -1.1547
  275MOL0     H37922   7.181  11.758   1.280 -3.1586  1.7448 -2.5797
  275MOL0     H37923   7.325  11.752   1.171 -0.9507 -0.4207 -0.1117
  275MOL0     H37924   7.102  11.816   1.084 -0.6480  0.1456 -0.9237
  275MOL0     H37925   7.039  11.663   1.141  0.2841  1.7175 -0.0029
  275MOL0     H37926   7.226  11.562   0.967  1.2298  1.3107 -0.2524
  275MOL0     H37927   7.187  11.722   0.891 -2.1750  0.0700 -0.8453
  275MOL0     H37928   7.001  11.490   0.961 -0.0927 -0.3334 -1.9272
  275MOL0     H37929   7.037  11.553   0.798 -1.1153 -0.2522 -1.0197
  275MOL0     H37930   7.503  11.213   1.705 -0.2546  2.6337 -0.4090
  275MOL0     H37931   7.610  11.117   1.903  1.6332 -0.9998  0.4789
  275MOL0     H37932   7.843  10.916   2.145 -0.2246 -0.1918 -0.3421
  275MOL0     H37933   7.949  10.833   2.349 -2.3662  1.1405 -2.1577
  275MOL0     H37934   8.503   9.303   3.463  1.5249 -1.0252 -3.3044
  275MOL0     H37935   8.595   9.151   3.613  2.0475 -1.0741 -2.1984
  275MOL0     H37936   9.169   9.052   3.731 -0.0297 -1.3127 -1.0490
  275MOL0     H37937   9.285   8.901   3.879 -0.5616 -0.5814 -1.2534
  275MOL0     H37938   9.203   8.643   4.242  2.7593  1.5548 -1.5257
  275MOL0     H37939   9.051   8.727   4.241  1.2467 -1.8417  2.6527
  275MOL0     H37940   9.139   8.535   4.017 -2.9317 -3.2381 -1.2709
  275MOL0     H37941   8.980   8.608   4.052  0.9032  0.4822  0.9729
  275MOL0     H37942   8.981   8.485   4.284 -2.3948 -5.7305  0.7320
  275MOL0     H37943   8.954   8.396   4.156  0.2898 -2.6356  3.8945
  275MOL0     H37944   9.239   8.415   4.160  2.5928 -1.9247  1.6931
  275MOL0     H37945   9.154   8.270   4.163  0.3936  0.4860  0.7611
  275MOL0     H37946   9.211   8.269   4.565 -1.4878  4.0410  0.8198
  275MOL0     H37947   8.929   8.835   4.098 -2.2888  1.7330  0.6406
  275MOL0     H37948   8.749   9.092   4.034  1.1809 -1.0809  1.7950
  275MOL0     H37949   8.703   8.993   3.879  0.9586 -1.1951 -0.5441
  275MOL0     H37950   8.724   8.925   4.036 -0.9961  0.9343 -0.2546
  276MOL0     O37951   5.073   7.438   7.240  0.1531 -0.3997  0.2752
  276MOL0     C37952   5.192   7.447   7.283 -0.2184  0.3860 -1.0667
  276MOL0     O37953   5.234   7.465   7.415  0.6391 -0.2468 -0.0691
  276MOL0     C37954   5.156   7.476   7.525 -0.0527  1.4683  0.2548
  276MOL0     C37955   5.032   7.412   7.538 -0.9252 -0.9647  0.1193
  276MOL0     C37956   4.965   7.419   7.658 -0.8365  0.1004  0.7853
  276MOL0     C37957   5.016   7.484   7.764  0.2405  0.5601 -0.3985
  276MOL0     O37958   4.955   7.489   7.892 -0.3243  0.7901 -0.4840
  276MOL0     C37959   4.908   7.360   7.952 -0.6163 -0.0215  0.6169
  276MOL0     C37960   5.013   7.243   7.944  0.6070  0.6588 -0.7174
  276MOL0     C37961   5.146   7.278   8.018  0.0407  0.5015 -0.2235
  276MOL0     C37962   5.124   7.322   8.164  0.6042 -1.5367  0.8376
  276MOL0     C37963   5.254   7.348   8.236  0.7997  0.5499 -0.7138
  276MOL0     C37964   5.338   7.225   8.234 -0.0974  0.6705  0.7563
  276MOL0     C37965   5.445   7.229   8.340  0.0474 -0.3547 -0.5232
  276MOL0     C37966   5.543   7.334   8.308 -0.4663  0.7565 -0.1179
  276MOL0     N37967   5.664   7.304   8.384 -0.1372  0.1116 -0.9136
  276MOL0     C37968   5.770   7.210   8.362 -0.3099 -0.2041  0.4509
  276MOL0     C37969   5.853   7.210   8.462  0.1056  0.2808 -0.2720
  276MOL0     C37970   5.980   7.118   8.471  0.4395 -0.5082  0.2526
  276MOL0     C37971   5.925   6.977   8.507 -0.4479  0.2536 -0.5526
  276MOL0     C37972   5.902   6.976   8.653  0.3894  0.4145 -0.4552
  276MOL0     C37973   5.857   6.842   8.697 -0.4555  0.8018  0.5138
  276MOL0     O37974   5.795   6.845   8.824 -0.9744 -0.5962 -0.0084
  276MOL0     C37975   5.720   6.740   8.868  0.5477 -1.1073  1.1385
  276MOL0     C37976   5.616   6.757   8.956  1.1331  0.3294 -0.6612
  276MOL0     C37977   5.526   6.647   8.998 -1.2316  0.2840 -0.0526
  276MOL0     C37978   5.425   6.677   9.105  0.6304 -0.4940  0.7183
  276MOL0     C37979   5.562   6.517   8.966 -0.3759 -0.7959  0.2624
  276MOL0     C37980   5.482   6.390   8.986  0.2487 -0.0877 -0.0889
  276MOL0     O37981   5.542   6.264   8.967 -0.3192 -0.2389 -0.2362
  276MOL0     C37982   5.479   6.142   8.972  0.3513 -1.1089  0.6353
  276MOL0     C37983   5.556   6.029   8.979 -0.2389  0.5834  0.2380
  276MOL0     C37984   5.504   5.908   8.951  0.4488  1.3710 -0.5220
  276MOL0     C37985   5.368   5.890   8.942  0.1586 -0.1100 -0.1944
  276MOL0     O37986   5.338   5.754   8.944  0.9931  0.9927 -0.1146
  276MOL0     C37987   5.221   5.701   9.013 -0.4779  0.3513  0.0348
  276MOL0     C37988   5.196   5.557   8.983 -0.2913  0.5927  0.2487
  276MOL0     C37989   5.063   5.502   9.037  0.0028  0.2971 -0.1739
  276MOL0     C37990   5.067   5.473   9.184  0.5754  0.5303 -0.2981
  276MOL0     C37991   4.939   5.398   9.223 -0.1500  0.6059 -0.2612
  276MOL0     C37992   4.918   5.371   9.370  0.5242  0.8212 -0.3427
  276MOL0     C37993   4.914   5.504   9.455  0.7419  0.8561 -0.4422
  276MOL0     C37994   4.826   5.489   9.577 -0.6147  0.7987  0.5639
  276MOL0    Cl37995   4.886   5.354   9.674 -0.4568 -0.4144  0.5250
  276MOL0     C37996   5.277   5.996   8.957 -0.3661  0.1753 -0.8408
  276MOL0     C37997   5.333   6.127   8.973 -0.5748  0.1999  0.4253
  276MOL0     O37998   5.373   6.407   9.047  0.0307  0.3388  0.6791
  276MOL0     C37999   5.677   6.506   8.880  0.6430  0.4511 -0.8941
  276MOL0     C38000   5.747   6.613   8.834 -0.3289  0.1018 -0.4431
  276MOL0     N38001   5.806   7.294   8.563  0.1932  0.7802 -0.4547
  276MOL0     N38002   5.700   7.348   8.510  0.6181 -0.7122  0.2561
  276MOL0     C38003   5.135   7.553   7.753 -0.4224 -0.1511 -0.2215
  276MOL0     C38004   5.202   7.548   7.633 -0.3038  0.7827 -0.1583
  276MOL0     C38005   5.305   7.436   7.193 -0.4600  0.4555  0.0919
  276MOL0     C38006   5.348   7.304   7.161  0.3087 -0.3157 -0.0142
  276MOL0     C38007   5.463   7.279   7.079 -0.4521 -0.2869  0.2215
  276MOL0     C38008   5.527   7.391   7.023 -0.5073 -0.2276 -0.3730
  276MOL0     O38009   5.625   7.389   6.934  0.3901  0.3016 -1.2812
  276MOL0     C38010   5.748   7.332   6.977 -0.8449 -0.2647 -0.0354
  276MOL0     C38011   5.853   7.355   6.875 -0.5918  0.6235 -0.5347
  276MOL0     C38012   5.987   7.293   6.917 -0.2942  0.2683 -1.4277
  276MOL0     C38013   6.083   7.306   6.807 -0.0385 -0.5758  0.6373
  276MOL0     C38014   6.198   7.215   6.834  0.0858  0.5563 -0.0779
  276MOL0     C38015   6.294   7.149   6.862 -0.7141 -1.2025  0.1835
  276MOL0     C38016   5.483   7.521   7.053  0.8385 -0.0242  0.5192
  276MOL0     C38017   5.371   7.542   7.137  0.6816  1.3284 -0.0657
  276MOL0     C38018   5.304   7.675   7.148 -0.6203  0.1413 -0.1295
  276MOL0     H38019   4.996   7.352   7.455  0.9269 -2.4739  0.3101
  276MOL0     H38020   4.869   7.373   7.679 -0.9835  0.2115  0.3583
  276MOL0     H38021   4.819   7.330   7.897  1.8170  0.3635 -4.0677
  276MOL0     H38022   4.880   7.397   8.051  1.1352  2.8607  0.1592
  276MOL0     H38023   4.967   7.164   8.004 -1.3225  1.1396 -1.4765
  276MOL0     H38024   5.030   7.212   7.841  0.4300 -0.9829 -0.2765
  276MOL0     H38025   5.201   7.184   8.013  1.1333  1.1352 -0.5224
  276MOL0     H38026   5.191   7.355   7.955 -3.3541 -0.5225 -4.4407
  276MOL0     H38027   5.068   7.416   8.169  3.0721  0.0678  0.2461
  276MOL0     H38028   5.067   7.242   8.212 -2.7567 -1.0463 -1.9009
  276MOL0     H38029   5.223   7.355   8.341 -0.6331  2.3184 -1.1992
  276MOL0     H38030   5.313   7.432   8.199  2.3195 -1.3197 -2.8078
  276MOL0     H38031   5.273   7.138   8.249 -0.4225  0.9150  0.7679
  276MOL0     H38032   5.394   7.209   8.141  0.2990 -1.5011  1.3177
  276MOL0     H38033   5.478   7.126   8.354 -0.0667 -0.4455 -0.8944
  276MOL0     H38034   5.400   7.239   8.439 -2.1065 -0.1615 -1.4617
  276MOL0     H38035   5.564   7.326   8.201 -1.3217  2.2988 -0.4323
  276MOL0     H38036   5.507   7.430   8.346  1.2266  0.6522  1.9029
  276MOL0     H38037   5.775   7.138   8.281  2.4285 -1.0562  1.2794
  276MOL0     H38038   6.050   7.152   8.548  1.5559 -4.9794  1.4986
  276MOL0     H38039   6.032   7.100   8.376 -1.1996 -1.1519 -0.5607
  276MOL0     H38040   5.827   6.960   8.462 -0.2982 -0.1980 -0.7175
  276MOL0     H38041   5.986   6.892   8.476 -1.0439 -0.8175  1.0930
  276MOL0     H38042   5.992   7.013   8.702  1.8870 -0.3715 -2.4479
  276MOL0     H38043   5.825   7.052   8.671 -1.8347 -1.4802 -1.3337
  276MOL0     H38044   5.784   6.805   8.625  1.4176 -1.3427 -0.3978
  276MOL0     H38045   5.947   6.779   8.699 -1.1266 -0.3466 -1.7438
  276MOL0     H38046   5.601   6.849   9.011  0.1319 -1.3298  2.0498
  276MOL0     H38047   5.431   6.594   9.176  3.4575 -1.7045 -0.7835
  276MOL0     H38048   5.335   6.679   9.043  1.8423 -0.3105 -1.1092
  276MOL0     H38049   5.423   6.778   9.148 -0.6269  0.7398 -2.0159
  276MOL0     H38050   5.663   6.043   8.986 -0.1641  0.3794 -0.4596
  276MOL0     H38051   5.567   5.820   8.949 -2.5343 -1.1279  2.9719
  276MOL0     H38052   5.218   5.718   9.121 -1.3101  1.3783 -0.1311
  276MOL0     H38053   5.142   5.757   8.962  1.1556 -0.1287 -3.2299
  276MOL0     H38054   5.194   5.537   8.876 -2.4991  0.1068  0.3236
  276MOL0     H38055   5.272   5.499   9.036  0.6765  1.5118 -0.1102
  276MOL0     H38056   5.041   5.411   8.980 -0.3921 -1.8160  3.0964
  276MOL0     H38057   4.988   5.577   9.013 -0.9766 -0.9257 -1.0567
  276MOL0     H38058   5.067   5.573   9.229 -1.2682  2.4954 -4.1850
  276MOL0     H38059   5.161   5.427   9.216  0.0834  0.0061  0.4403
  276MOL0     H38060   4.865   5.466   9.179  0.3449  1.9364  0.8725
  276MOL0     H38061   4.940   5.308   9.161  0.5493  1.2313 -1.1875
  276MOL0     H38062   4.995   5.302   9.404 -0.1642 -0.4397 -1.2782
  276MOL0     H38063   4.827   5.311   9.371 -0.3448  2.0914  0.6795
  276MOL0     H38064   4.871   5.584   9.394  1.0167  1.4903  0.1845
  276MOL0     H38065   5.012   5.537   9.490  0.9897 -0.8276  0.5805
  276MOL0     H38066   4.726   5.460   9.543  0.2420  1.6601 -3.0330
  276MOL0     H38067   4.816   5.584   9.630 -2.7087  1.6385 -1.1691
  276MOL0     H38068   5.169   5.988   8.951 -0.2781 -2.4450 -0.2029
  276MOL0     H38069   5.268   6.213   8.954 -0.5487 -0.1310 -1.2915
  276MOL0     H38070   5.687   6.411   8.828  1.7625 -0.3712  0.7498
  276MOL0     H38071   5.822   6.584   8.760  0.8357 -2.4152  1.6045
  276MOL0     H38072   5.183   7.618   7.825  0.1611 -0.0219 -0.7184
  276MOL0     H38073   5.291   7.607   7.612  0.1809  1.1356  2.5476
  276MOL0     H38074   5.294   7.226   7.215 -0.2970  0.2062  0.1570
  276MOL0     H38075   5.508   7.180   7.077  0.1619 -0.1012  2.2951
  276MOL0     H38076   5.771   7.388   7.069 -4.8548  2.9044 -0.6950
  276MOL0     H38077   5.746   7.224   6.994 -1.0734 -0.2741 -0.1275
  276MOL0     H38078   5.857   7.460   6.846 -0.8812  0.5638 -0.7993
  276MOL0     H38079   5.818   7.299   6.787  0.8696  1.6575 -1.8179
  276MOL0     H38080   6.022   7.349   7.004  2.3839 -2.2354 -0.7244
  276MOL0     H38081   5.989   7.187   6.945  2.3196  0.4439 -0.6528
  276MOL0     H38082   6.123   7.403   6.776  1.0311 -1.5277 -1.1958
  276MOL0     H38083   6.031   7.268   6.718 -2.3760 -1.4301  2.2717
  276MOL0     H38084   6.365   7.084   6.909 -0.1093 -2.3426 -2.1869
  276MOL0     H38085   5.531   7.606   7.006 -0.4764  1.6354  2.0423
  276MOL0     H38086   5.375   7.754   7.120 -3.6983  3.0318 -0.5285
  276MOL0     H38087   5.213   7.676   7.088  0.0204 -2.5245 -1.2506
  276MOL0     H38088   5.270   7.690   7.251  1.8378 -0.3125  0.8153
  277MOL0     O38089   2.225   8.833  10.280  0.2268  0.3071 -0.3996
  277MOL0     C38090   2.209   8.838  10.398 -0.6913 -0.5899 -0.3202
  277MOL0     O38091   2.211   8.729  10.481  0.4032 -0.0918  0.3673
  277MOL0     C38092   2.293   8.623  10.443 -0.2956  1.0725 -0.2176
  277MOL0     C38093   2.417   8.645  10.377  0.5342  0.1632  0.6166
  277MOL0     C38094   2.495   8.528  10.354 -0.1356 -0.4991  0.2205
  277MOL0     C38095   2.459   8.403  10.385  0.0385  0.1035  1.3578
  277MOL0     O38096   2.556   8.309  10.368 -0.5897 -0.7058  0.5833
  277MOL0     C38097   2.521   8.170  10.362  0.1385 -0.4720  0.2488
  277MOL0     C38098   2.600   8.082  10.268 -0.2278 -0.6942 -0.2650
  277MOL0     C38099   2.721   8.037  10.340 -0.6746 -0.1543 -0.2336
  277MOL0     C38100   2.713   7.932  10.456  0.2427 -0.4422  0.9584
  277MOL0     C38101   2.855   7.872  10.498  1.0611  0.3141 -0.4008
  277MOL0     C38102   2.845   7.758  10.604 -0.3023  0.0351  0.7125
  277MOL0     C38103   2.980   7.690  10.627 -0.4305  0.1818 -0.1752
  277MOL0     C38104   3.083   7.786  10.697 -0.4918 -0.6299 -0.2485
  277MOL0     N38105   3.070   7.765  10.840 -0.1273  0.2562  0.4919
  277MOL0     C38106   3.177   7.760  10.928  0.4636 -0.6386  0.3949
  277MOL0     C38107   3.123   7.785  11.047 -0.2187 -1.2797 -0.2250
  277MOL0     C38108   3.194   7.801  11.181  0.7175 -0.7741  0.5067
  277MOL0     C38109   3.248   7.944  11.204  0.0694 -0.1266  0.1716
  277MOL0     C38110   3.404   7.960  11.198  0.1716  0.0561 -0.0814
  277MOL0     C38111   3.442   8.051  11.083 -0.7134 -0.2708 -0.7529
  277MOL0     O38112   3.386   8.182  11.082 -0.1406  0.0685 -0.1871
  277MOL0     C38113   3.401   8.266  11.193 -0.5455 -0.0788  0.7899
  277MOL0     C38114   3.290   8.303  11.273 -0.1668  0.4378  1.1424
  277MOL0     C38115   3.310   8.395  11.377  0.7821  0.5577  0.1810
  277MOL0     C38116   3.186   8.445  11.461 -0.4169  0.3110  0.7867
  277MOL0     C38117   3.441   8.429  11.413  0.7310 -1.2100  0.2905
  277MOL0     C38118   3.472   8.516  11.526 -0.5324  0.9111 -1.2716
  277MOL0     O38119   3.581   8.472  11.608 -0.0769 -0.6220  0.2893
  277MOL0     C38120   3.624   8.555  11.709  0.4611  0.8068  1.0625
  277MOL0     C38121   3.675   8.487  11.817 -0.2443 -0.2766  0.1927
  277MOL0     C38122   3.716   8.560  11.928 -0.0584  0.3477  0.1511
  277MOL0     C38123   3.720   8.702  11.920 -0.4409  0.4463 -0.4584
  277MOL0     O38124   3.748   8.766  12.033 -0.1946 -0.5914 -0.2914
  277MOL0     C38125   3.851   8.861  12.022 -0.3489  0.3642  0.0451
  277MOL0     C38126   3.989   8.815  11.972  0.2266  0.8288 -0.2645
  277MOL0     C38127   4.063   8.713  12.069 -0.0244 -0.4323  0.4632
  277MOL0     C38128   4.206   8.690  12.012  0.4656 -0.8292 -0.0238
  277MOL0     C38129   4.269   8.576  12.100 -0.2024 -0.1072  0.4155
  277MOL0     C38130   4.414   8.556  12.080 -0.2582  0.5179  0.2218
  277MOL0     C38131   4.451   8.446  12.186 -0.4809  1.1659  0.1414
  277MOL0     C38132   4.500   8.321  12.110  0.4248 -0.3356  0.3718
  277MOL0    Cl38133   4.508   8.197  12.231 -0.1804 -0.4549 -0.1130
  277MOL0     C38134   3.664   8.765  11.803 -0.9108  1.1458 -0.2922
  277MOL0     C38135   3.623   8.692  11.694 -0.1588 -0.7041 -0.9784
  277MOL0     O38136   3.406   8.617  11.550  0.4708  0.7069  1.0642
  277MOL0     C38137   3.551   8.398  11.341  0.2543 -0.9437  0.1960
  277MOL0     C38138   3.523   8.320  11.221  0.4645  0.1433 -0.1537
  277MOL0     N38139   2.982   7.807  11.032 -0.2474  0.4294 -0.5196
  277MOL0     N38140   2.957   7.799  10.903  0.0831  0.0563 -1.0068
  277MOL0     C38141   2.332   8.377  10.444 -0.7213 -0.4053 -0.2762
  277MOL0     C38142   2.259   8.492  10.473 -0.3135  1.3309 -0.1882
  277MOL0     C38143   2.167   8.971  10.432  0.4923  0.6335 -0.9384
  277MOL0     C38144   2.267   9.076  10.437  0.3037  0.4587 -0.9361
  277MOL0     C38145   2.209   9.203  10.455 -0.0914 -0.0853  0.4738
  277MOL0     C38146   2.081   9.224  10.507 -0.7790 -0.2263  1.0523
  277MOL0     O38147   2.057   9.346  10.555  0.0123 -0.2768  0.3998
  277MOL0     C38148   2.153   9.458  10.575 -0.1682 -0.5374 -0.4188
  277MOL0     C38149   2.164   9.525  10.432  0.3825  0.3331 -1.3906
  277MOL0     C38150   2.289   9.614  10.416  0.7142 -0.8691 -0.2182
  277MOL0     C38151   2.260   9.724  10.308  0.6536 -0.6302 -0.0623
  277MOL0     C38152   2.375   9.813  10.309 -0.6973  0.8279  0.1522
  277MOL0     C38153   2.478   9.866  10.308 -0.7829 -0.8467  0.0801
  277MOL0     C38154   1.994   9.115  10.502 -0.4560 -0.2351 -0.3048
  277MOL0     C38155   2.025   8.996  10.455  0.3652 -0.0491  0.8431
  277MOL0     C38156   1.916   8.881  10.442  0.8557  0.4786  0.9731
  277MOL0     H38157   2.457   8.736  10.333 -1.6897  0.2437 -1.4268
  277MOL0     H38158   2.582   8.542  10.291  0.8777 -1.2763  1.4045
  277MOL0     H38159   2.415   8.150  10.341  0.2447 -0.8630  0.0827
  277MOL0     H38160   2.526   8.138  10.467 -0.0312  1.5813  0.9303
  277MOL0     H38161   2.540   7.995  10.239 -0.8184 -1.1439  2.0489
  277MOL0     H38162   2.616   8.140  10.177 -0.8688 -2.3502 -1.4782
  277MOL0     H38163   2.792   7.989  10.272  1.1908  2.3576 -0.2076
  277MOL0     H38164   2.775   8.127  10.372  0.4948 -1.6061  2.2250
  277MOL0     H38165   2.661   7.979  10.541  0.8482  1.3240  0.4120
  277MOL0     H38166   2.649   7.859  10.407  0.8663  0.0266 -0.5971
  277MOL0     H38167   2.917   7.947  10.548 -0.0770 -0.3497  2.1574
  277MOL0     H38168   2.916   7.839  10.413  1.8500  0.5817  0.0528
  277MOL0     H38169   2.810   7.797  10.700  2.9552  0.4759  1.8710
  277MOL0     H38170   2.771   7.684  10.575  0.1609 -0.0339 -0.3040
  277MOL0     H38171   3.024   7.666  10.529  2.9817  0.7516  1.0869
  277MOL0     H38172   2.956   7.597  10.680 -0.6472  0.4406  0.1823
  277MOL0     H38173   3.186   7.761  10.672  1.4927  2.2174  3.8853
  277MOL0     H38174   3.066   7.890  10.668 -0.6891 -0.5987 -0.0200
  277MOL0     H38175   3.283   7.753  10.907  0.6954 -0.3845  1.4132
  277MOL0     H38176   3.270   7.722  11.183 -0.6101 -2.3013 -2.3492
  277MOL0     H38177   3.141   7.771  11.271  0.5331  1.9180  1.3951
  277MOL0     H38178   3.212   8.005  11.121 -1.2314 -0.5469  0.3933
  277MOL0     H38179   3.212   7.990  11.297  0.2246  2.9370 -1.1662
  277MOL0     H38180   3.437   8.003  11.294 -0.8813 -1.4636  1.0159
  277MOL0     H38181   3.438   7.856  11.190 -0.5648 -0.4174  2.0502
  277MOL0     H38182   3.549   8.070  11.067 -0.7349  0.1676 -0.3981
  277MOL0     H38183   3.413   8.001  10.990  0.7239 -0.9335 -0.8766
  277MOL0     H38184   3.194   8.266  11.238  0.7894 -1.3449  0.3181
  277MOL0     H38185   3.132   8.524  11.408 -0.0759 -0.1607 -0.2817
  277MOL0     H38186   3.209   8.475  11.564  2.2660  0.6655  0.1522
  277MOL0     H38187   3.117   8.360  11.466 -0.7440  0.4282 -1.1363
  277MOL0     H38188   3.672   8.378  11.814  2.6683 -0.4383 -2.1171
  277MOL0     H38189   3.745   8.503  12.016 -2.5854  0.0819  0.8778
  277MOL0     H38190   3.823   8.943  11.954  0.0530 -0.0019 -0.5712
  277MOL0     H38191   3.880   8.905  12.117 -0.9633  0.6332  0.1169
  277MOL0     H38192   3.986   8.775  11.871  1.7439  2.8891 -1.2013
  277MOL0     H38193   4.043   8.910  11.961 -0.8676  1.3728 -1.0771
  277MOL0     H38194   4.003   8.622  12.074  0.7871 -0.8963  2.6956
  277MOL0     H38195   4.074   8.752  12.171 -0.9339 -2.6895  1.4877
  277MOL0     H38196   4.265   8.783  12.019  0.0637 -0.4330 -1.5243
  277MOL0     H38197   4.209   8.685  11.902  0.0661  2.0087 -0.2472
  277MOL0     H38198   4.252   8.607  12.204  0.3457  0.1354  0.4385
  277MOL0     H38199   4.220   8.480  12.081 -0.2670  0.0508 -0.2458
  277MOL0     H38200   4.471   8.647  12.100 -0.8649  0.8220  0.5907
  277MOL0     H38201   4.432   8.525  11.976 -1.5524 -0.6237  0.3067
  277MOL0     H38202   4.363   8.409  12.239 -0.3220 -2.5580 -1.8473
  277MOL0     H38203   4.531   8.478  12.253 -0.7058  1.8866  0.0851
  277MOL0     H38204   4.602   8.346  12.080  0.5152 -1.3363 -0.2166
  277MOL0     H38205   4.436   8.293  12.025  1.5808 -0.6485 -0.4311
  277MOL0     H38206   3.656   8.873  11.808  1.9008  1.3656  1.7934
  277MOL0     H38207   3.586   8.755  11.614 -2.2803 -1.2894 -0.5004
  277MOL0     H38208   3.648   8.444  11.355 -0.4554  1.2019 -1.3959
  277MOL0     H38209   3.597   8.315  11.141  0.8614 -1.8622  0.2804
  277MOL0     H38210   2.304   8.281  10.486 -1.2855  0.6147  1.7759
  277MOL0     H38211   2.164   8.479  10.524 -1.1437  0.1847 -1.9153
  277MOL0     H38212   2.373   9.066  10.415  0.1860 -0.3924 -1.1459
  277MOL0     H38213   2.281   9.284  10.450 -0.2136 -0.0654 -2.1561
  277MOL0     H38214   2.124   9.535  10.648 -4.0916 -1.8596 -0.3414
  277MOL0     H38215   2.247   9.416  10.612 -1.0071 -0.8723  1.4930
  277MOL0     H38216   2.087   9.603  10.424  2.7993  2.7087 -5.0448
  277MOL0     H38217   2.162   9.450  10.353 -1.3866 -0.0022 -1.0789
  277MOL0     H38218   2.326   9.656  10.510  1.6130 -0.6166 -0.6795
  277MOL0     H38219   2.369   9.550  10.378  0.1463 -1.1505 -0.9830
  277MOL0     H38220   2.177   9.787  10.340 -0.0358 -1.9519  0.8718
  277MOL0     H38221   2.241   9.672  10.214 -2.3409 -4.0785  2.1505
  277MOL0     H38222   2.569   9.922  10.317 -1.2047 -0.1859  0.2624
  277MOL0     H38223   1.900   9.132  10.554 -1.0522 -2.5302 -0.5131
  277MOL0     H38224   1.835   8.913  10.376  2.2211 -0.0200 -1.0466
  277MOL0     H38225   1.964   8.795  10.393  1.2507 -0.1053  2.3460
  277MOL0     H38226   1.883   8.865  10.544 -1.8718  1.4967  0.3398
  278MOL0     O38227   1.796   6.125   1.271 -0.6389 -0.3468 -0.9647
  278MOL0     C38228   1.901   6.052   1.282 -0.0078  0.7876  0.6878
  278MOL0     O38229   1.972   5.993   1.180  0.1357  1.2082  0.0434
  278MOL0     C38230   1.996   6.061   1.061  0.6304 -0.5882 -0.9348
  278MOL0     C38231   2.030   5.967   0.960  0.4060 -0.3664 -0.4665
  278MOL0     C38232   2.027   6.012   0.824 -0.2597  0.7336 -0.9993
  278MOL0     C38233   2.014   6.147   0.791  0.0876  0.5496  0.3503
  278MOL0     O38234   2.020   6.172   0.657 -0.4663 -0.3494 -0.3207
  278MOL0     C38235   1.896   6.212   0.600  1.0458  0.1336 -0.4503
  278MOL0     C38236   1.913   6.289   0.472 -0.6382 -0.0299  0.5981
  278MOL0     C38237   1.984   6.420   0.501 -0.6583  0.4024  0.2043
  278MOL0     C38238   1.997   6.485   0.366  0.0967 -0.7262 -0.4080
  278MOL0     C38239   2.054   6.628   0.386 -0.9241 -0.3797 -0.2592
  278MOL0     C38240   2.110   6.665   0.248 -0.4543  0.6777 -0.2685
  278MOL0     C38241   2.153   6.811   0.245 -0.0323 -0.9365 -0.1792
  278MOL0     C38242   2.266   6.854   0.351  0.1033  0.0889 -0.1489
  278MOL0     N38243   2.391   6.775   0.341  0.0047  0.4235  0.5916
  278MOL0     C38244   2.435   6.738   0.221 -0.2158 -0.2456 -0.0062
  278MOL0     C38245   2.544   6.651   0.234  0.3751  0.1839 -0.0146
  278MOL0     C38246   2.627   6.572   0.136 -0.1476 -0.6566  0.2239
  278MOL0     C38247   2.734   6.660   0.063 -0.4680  0.5333 -0.5249
  278MOL0     C38248   2.680   6.765  -0.021  0.3886 -0.5200 -0.8680
  278MOL0     C38249   2.675   6.896   0.055 -0.2485  0.7840 -0.3261
  278MOL0     O38250   2.760   6.995  -0.007 -0.3014 -0.2536  0.9321
  278MOL0     C38251   2.732   7.025  -0.140  0.3319 -0.2273 -0.3463
  278MOL0     C38252   2.606   7.053  -0.184  0.2697  0.0943 -1.2325
  278MOL0     C38253   2.581   7.091  -0.314 -0.5938  0.7288  0.9463
  278MOL0     C38254   2.440   7.132  -0.343 -0.4924  0.0265 -0.3750
  278MOL0     C38255   2.677   7.086  -0.413  0.5284 -0.1191 -0.0257
  278MOL0     C38256   2.657   7.126  -0.563 -0.4994 -0.3866 -0.0324
  278MOL0     O38257   2.746   7.074  -0.652 -0.3385 -0.3922  0.0011
  278MOL0     C38258   2.752   7.097  -0.785 -0.1512 -0.3332 -0.3049
  278MOL0     C38259   2.811   6.998  -0.865  0.6097  0.1582 -0.4221
  278MOL0     C38260   2.805   7.004  -1.004 -0.1414 -0.7934  0.1845
  278MOL0     C38261   2.757   7.112  -1.064  0.0583  0.1529 -0.3857
  278MOL0     O38262   2.752   7.136  -1.194  0.0343  0.4132 -0.5494
  278MOL0     C38263   2.812   7.054  -1.295  0.5275 -0.0706 -0.3611
  278MOL0     C38264   2.737   7.095  -1.412 -0.0310  0.1734 -0.0413
  278MOL0     C38265   2.786   7.023  -1.543  0.2061  0.1815  0.1852
  278MOL0     C38266   2.685   7.069  -1.648 -0.0975  0.3045  0.4786
  278MOL0     C38267   2.730   7.040  -1.796  0.0849  0.4258 -0.8336
  278MOL0     C38268   2.746   6.896  -1.848 -0.5038 -0.4210 -0.5162
  278MOL0     C38269   2.612   6.814  -1.836 -0.3695  0.2910  0.3120
  278MOL0     C38270   2.612   6.681  -1.918 -0.2402 -0.3994 -0.4207
  278MOL0    Cl38271   2.705   6.539  -1.842  0.2106  0.5861  0.6265
  278MOL0     C38272   2.692   7.205  -0.987  0.6085 -0.1908 -0.7568
  278MOL0     C38273   2.681   7.198  -0.844  0.4166 -1.0668 -0.1323
  278MOL0     O38274   2.559   7.187  -0.588  0.2077  1.1483  0.7761
  278MOL0     C38275   2.802   7.050  -0.370  0.3116  0.6909 -0.2971
  278MOL0     C38276   2.833   7.021  -0.234  0.5075  0.2755  0.9016
  278MOL0     N38277   2.565   6.648   0.372  0.3699 -0.2772  0.4807
  278MOL0     N38278   2.479   6.722   0.433 -0.0904 -0.0970  0.5702
  278MOL0     C38279   1.971   6.237   0.893  0.0459 -0.8679 -0.1694
  278MOL0     C38280   1.961   6.195   1.032  0.7105  0.4645  0.2203
  278MOL0     C38281   1.937   6.015   1.420  0.2180 -0.2657  0.1349
  278MOL0     C38282   1.847   5.955   1.499 -1.4132  0.2287  0.5846
  278MOL0     C38283   1.888   5.910   1.629 -0.3637 -0.0966  1.0540
  278MOL0     C38284   2.021   5.919   1.677  0.3134  0.8735  0.9013
  278MOL0     O38285   2.070   5.845   1.784 -0.4179 -0.2720 -0.4741
  278MOL0     C38286   1.999   5.846   1.915  0.0356  0.1866  0.6219
  278MOL0     C38287   2.067   5.760   2.013  0.0777  0.6996  1.2475
  278MOL0     C38288   2.210   5.810   2.045 -1.1149  0.7872 -0.0085
  278MOL0     C38289   2.283   5.709   2.141  0.2554  0.2879 -0.3575
  278MOL0     C38290   2.220   5.702   2.273 -0.0545  0.7338  0.3014
  278MOL0     C38291   2.161   5.696   2.377  0.5412 -0.4909  0.8131
  278MOL0     C38292   2.111   5.991   1.593 -0.5362  0.2025  0.3483
  278MOL0     C38293   2.071   6.022   1.463  0.3146 -0.9312  0.1233
  278MOL0     C38294   2.177   6.080   1.369  0.2657  0.8427 -0.2054
  278MOL0     H38295   2.055   5.866   0.991 -3.7349 -1.0724  1.2358
  278MOL0     H38296   2.037   5.943   0.740  0.0339 -1.1592  0.5212
  278MOL0     H38297   1.832   6.279   0.657 -0.4466 -0.4441 -1.3872
  278MOL0     H38298   1.845   6.116   0.586  3.0440 -1.2235  0.9705
  278MOL0     H38299   1.976   6.221   0.415 -2.2190 -1.8811  0.9216
  278MOL0     H38300   1.821   6.296   0.413 -0.7318 -1.6950  0.5057
  278MOL0     H38301   1.930   6.485   0.571 -0.1043 -1.1829  2.1842
  278MOL0     H38302   2.084   6.400   0.541 -0.8971 -0.2649  0.4766
  278MOL0     H38303   2.062   6.423   0.304  2.8763  0.8078  0.7717
  278MOL0     H38304   1.902   6.502   0.315 -0.6226 -0.5534  0.9425
  278MOL0     H38305   2.137   6.625   0.457  0.7467  1.0001 -2.0516
  278MOL0     H38306   1.982   6.698   0.431 -1.4915 -1.6187  0.8345
  278MOL0     H38307   2.191   6.598   0.218 -0.1149 -0.2681  2.4711
  278MOL0     H38308   2.039   6.651   0.167 -1.1084  1.0348  0.2343
  278MOL0     H38309   2.063   6.869   0.265  1.9754  1.5881  2.4118
  278MOL0     H38310   2.181   6.844   0.145 -3.7224 -0.0689 -1.0493
  278MOL0     H38311   2.297   6.959   0.350 -1.0526  0.5491  2.8096
  278MOL0     H38312   2.221   6.847   0.450  1.9579  1.0102  0.8219
  278MOL0     H38313   2.381   6.773   0.133 -1.9481  0.4136  1.2652
  278MOL0     H38314   2.560   6.524   0.065 -1.1527  2.4516 -1.0923
  278MOL0     H38315   2.676   6.495   0.197 -2.2670 -1.0893  1.4694
  278MOL0     H38316   2.805   6.702   0.136 -0.2705 -1.7915  0.7086
  278MOL0     H38317   2.801   6.600   0.001  0.5592  1.2223 -0.1147
  278MOL0     H38318   2.747   6.768  -0.108  0.7958  3.2811 -0.5681
  278MOL0     H38319   2.586   6.740  -0.072 -0.4488  0.6315  0.0801
  278MOL0     H38320   2.568   6.917   0.059 -0.7907 -1.7830  0.9349
  278MOL0     H38321   2.711   6.894   0.158  0.2937 -1.1345 -0.5093
  278MOL0     H38322   2.527   7.065  -0.111  2.3817 -0.7702  1.3488
  278MOL0     H38323   2.394   7.079  -0.427  0.2159  1.2522 -1.5764
  278MOL0     H38324   2.432   7.235  -0.379  2.9497 -0.2999 -2.4498
  278MOL0     H38325   2.365   7.100  -0.269 -2.8811  0.7025 -2.3616
  278MOL0     H38326   2.864   6.916  -0.818  0.0824 -0.4047 -0.8036
  278MOL0     H38327   2.846   6.922  -1.061 -1.1961  0.1314 -2.0308
  278MOL0     H38328   2.917   7.067  -1.324  0.2715 -0.0675 -1.2995
  278MOL0     H38329   2.781   6.950  -1.284 -0.6777  0.1729 -1.3035
  278MOL0     H38330   2.634   7.063  -1.392  0.4550 -2.4095 -1.2529
  278MOL0     H38331   2.753   7.203  -1.411  0.5320  0.0937  0.2115
  278MOL0     H38332   2.782   6.915  -1.529 -0.8767  0.5465  3.5730
  278MOL0     H38333   2.886   7.063  -1.561  1.2593 -1.8170  1.3244
  278MOL0     H38334   2.679   7.179  -1.645 -0.0590  0.4014 -1.6138
  278MOL0     H38335   2.586   7.033  -1.619 -0.1217  3.1642  5.1369
  278MOL0     H38336   2.648   7.086  -1.851 -1.7704 -0.1614  1.2922
  278MOL0     H38337   2.825   7.095  -1.798 -0.9795  2.4222  0.2282
  278MOL0     H38338   2.825   6.856  -1.783  0.5798  1.4736 -0.6009
  278MOL0     H38339   2.786   6.892  -1.949 -0.1895  2.6879 -0.5861
  278MOL0     H38340   2.549   6.888  -1.888  1.5411  0.0334 -2.6213
  278MOL0     H38341   2.577   6.790  -1.735 -1.9762 -1.6668 -0.6329
  278MOL0     H38342   2.645   6.698  -2.021 -0.2737 -0.4710 -0.4442
  278MOL0     H38343   2.510   6.641  -1.912 -1.0484  1.6151  0.1898
  278MOL0     H38344   2.651   7.297  -1.025 -0.8971 -0.2513  0.6232
  278MOL0     H38345   2.629   7.275  -0.788 -1.8630 -1.5049 -1.5144
  278MOL0     H38346   2.894   7.053  -0.427  3.4427  0.6547  4.2234
  278MOL0     H38347   2.930   6.986  -0.199  0.3493 -0.4435  0.6267
  278MOL0     H38348   1.950   6.340   0.867  1.7580  0.3508  2.7578
  278MOL0     H38349   1.935   6.258   1.116 -2.7578  1.1831 -1.2250
  278MOL0     H38350   1.745   5.943   1.465 -0.3893  0.1546 -2.8557
  278MOL0     H38351   1.811   5.866   1.692  0.6084 -1.0563  1.5984
  278MOL0     H38352   2.011   5.946   1.957  0.9295  0.1688  0.4370
  278MOL0     H38353   1.894   5.820   1.903  0.4724 -1.1120 -0.8850
  278MOL0     H38354   2.082   5.662   1.968 -0.6229 -0.0945  2.7050
  278MOL0     H38355   2.010   5.749   2.106 -4.7664  2.3272 -1.1879
  278MOL0     H38356   2.269   5.822   1.953  0.2142  2.4274  0.9820
  278MOL0     H38357   2.197   5.910   2.088 -0.7629  0.8227  0.0237
  278MOL0     H38358   2.386   5.736   2.168  0.3385 -0.1455 -0.2296
  278MOL0     H38359   2.296   5.615   2.086 -0.0030  0.4157 -0.6368
  278MOL0     H38360   2.095   5.709   2.461 -0.7644  0.5520 -0.3479
  278MOL0     H38361   2.212   6.005   1.628 -1.5857  3.6020  2.5108
  278MOL0     H38362   2.251   6.125   1.435 -0.3012  2.0926 -0.3909
  278MOL0     H38363   2.220   6.002   1.305  0.7803  0.6141  0.4127
  278MOL0     H38364   2.147   6.163   1.303  4.6998  2.8103 -0.0476
  279MOL0     O38365   8.810   1.985  10.562  0.3420 -0.1884  0.6405
  279MOL0     C38366   8.740   1.921  10.480 -0.1665 -0.6835 -0.4104
  279MOL0     O38367   8.710   1.794  10.484  0.1208 -0.4728  0.7675
  279MOL0     C38368   8.702   1.729  10.608  0.1953 -0.3102 -0.7005
  279MOL0     C38369   8.798   1.628  10.633 -0.9837  0.0434  0.0475
  279MOL0     C38370   8.784   1.556  10.753 -0.2421  0.1941 -0.4524
  279MOL0     C38371   8.690   1.587  10.845 -0.2142  0.3658  0.0798
  279MOL0     O38372   8.707   1.522  10.973 -0.7279 -0.1667  0.1716
  279MOL0     C38373   8.593   1.458  11.025 -0.1284 -0.0821 -0.0774
  279MOL0     C38374   8.640   1.381  11.152 -0.0722  0.0225 -0.7315
  279MOL0     C38375   8.520   1.378  11.242  0.3003  0.2554  1.3764
  279MOL0     C38376   8.522   1.505  11.320  0.1322  0.0241  0.4813
  279MOL0     C38377   8.384   1.531  11.380 -0.6643  0.7411  0.1778
  279MOL0     C38378   8.378   1.635  11.490  0.5332 -0.3411 -0.5831
  279MOL0     C38379   8.251   1.725  11.501 -0.2539  0.2506  0.7095
  279MOL0     C38380   8.128   1.625  11.515  0.2521 -0.3361 -0.7706
  279MOL0     N38381   8.013   1.693  11.572  0.3269 -0.1526  0.5209
  279MOL0     C38382   7.892   1.718  11.510 -0.6888 -0.4612 -0.3138
  279MOL0     C38383   7.805   1.761  11.599 -0.2475  1.2458 -0.0800
  279MOL0     C38384   7.660   1.791  11.584 -0.0337 -0.2068 -0.2014
  279MOL0     C38385   7.603   1.923  11.534 -0.9228  0.0077  0.3257
  279MOL0     C38386   7.449   1.926  11.537 -0.6272 -0.4200 -0.4548
  279MOL0     C38387   7.387   2.049  11.478  0.4500  0.7895 -0.4362
  279MOL0     O38388   7.260   2.081  11.543  0.3959 -0.4868 -0.6492
  279MOL0     C38389   7.164   1.992  11.561  0.5119  1.4260  0.5119
  279MOL0     C38390   7.074   2.000  11.667  0.3068  0.3045  0.6677
  279MOL0     C38391   6.966   1.908  11.688 -0.1033 -0.2097  0.6799
  279MOL0     C38392   6.858   1.943  11.800  0.2100 -0.3943 -0.3257
  279MOL0     C38393   6.959   1.785  11.613  0.0201  0.2643  0.2062
  279MOL0     C38394   6.852   1.672  11.624  0.4404  0.0144  0.0611
  279MOL0     O38395   6.870   1.555  11.564  0.8550 -0.4053  0.4208
  279MOL0     C38396   6.787   1.456  11.597  0.2234 -0.4515 -1.6466
  279MOL0     C38397   6.655   1.443  11.551 -0.0467  0.8528  0.8794
  279MOL0     C38398   6.584   1.333  11.591 -0.2951  0.2180  0.5014
  279MOL0     C38399   6.624   1.256  11.701  0.3281  0.3293  0.1323
  279MOL0     O38400   6.547   1.155  11.752  0.4760  0.9987 -0.1810
  279MOL0     C38401   6.498   1.171  11.883  0.5160 -1.1140  0.5370
  279MOL0     C38402   6.395   1.064  11.946  0.4045 -0.4543  0.9010
  279MOL0     C38403   6.292   1.009  11.844 -0.1235 -0.3963 -0.0313
  279MOL0     C38404   6.255   0.862  11.881 -0.5116 -0.3624 -0.5246
  279MOL0     C38405   6.215   0.834  12.032  0.1995  0.2951  0.1548
  279MOL0     C38406   6.171   0.689  12.057 -0.2729  0.1058 -0.4090
  279MOL0     C38407   6.065   0.624  11.956  0.8291 -0.4032 -0.0086
  279MOL0     C38408   5.987   0.512  12.019  1.1994  0.7806  0.6828
  279MOL0    Cl38409   6.094   0.380  12.078 -0.4480  0.2599 -0.3342
  279MOL0     C38410   6.751   1.275  11.757  0.5875  0.0342  0.5357
  279MOL0     C38411   6.833   1.376  11.708  0.1516  0.7823  0.0510
  279MOL0     O38412   6.762   1.697  11.703 -0.1602  0.0670  0.0299
  279MOL0     C38413   7.044   1.777  11.504 -0.4086  0.1995  0.2133
  279MOL0     C38414   7.146   1.877  11.481 -0.4551 -0.1910  0.5716
  279MOL0     N38415   7.866   1.764  11.718  0.1898  0.1823 -0.2153
  279MOL0     N38416   7.993   1.724  11.701 -0.1395 -0.8674 -0.2678
  279MOL0     C38417   8.600   1.689  10.820 -0.7232 -0.2834 -0.4501
  279MOL0     C38418   8.604   1.754  10.695 -0.4730 -1.2610  0.3595
  279MOL0     C38419   8.686   1.998  10.366 -0.0485 -0.5485 -0.3280
  279MOL0     C38420   8.594   1.929  10.282  0.0003 -0.1527 -0.1569
  279MOL0     C38421   8.535   1.996  10.168 -0.4551  1.3152 -1.1487
  279MOL0     C38422   8.591   2.126  10.133  0.6548  0.4442  0.4117
  279MOL0     O38423   8.567   2.185  10.010  0.0995  0.0940 -0.4412
  279MOL0     C38424   8.491   2.119   9.908  0.5199 -0.0398 -0.4674
  279MOL0     C38425   8.523   2.197   9.774  0.0760 -0.2800  0.6943
  279MOL0     C38426   8.446   2.134   9.664  0.4666 -0.3846 -0.9770
  279MOL0     C38427   8.457   2.204   9.524 -0.5416  0.2883  0.3342
  279MOL0     C38428   8.595   2.174   9.481  0.0758  0.2184 -0.1177
  279MOL0     C38429   8.698   2.110   9.443 -0.4017 -0.2891 -0.2047
  279MOL0     C38430   8.682   2.190  10.209 -0.3753 -0.6011 -0.5167
  279MOL0     C38431   8.718   2.134  10.334 -0.3256 -0.8271  0.1445
  279MOL0     C38432   8.813   2.225  10.409 -0.8582 -0.1754  0.2705
  279MOL0     H38433   8.876   1.614  10.558 -2.2550  3.0636 -1.9971
  279MOL0     H38434   8.858   1.480  10.777  0.9872  1.9498  1.6707
  279MOL0     H38435   8.558   1.398  10.940 -0.6093  1.1337 -0.7648
  279MOL0     H38436   8.523   1.538  11.050 -0.4043  0.4476 -2.3167
  279MOL0     H38437   8.681   1.287  11.115 -0.3590 -0.0998 -0.7395
  279MOL0     H38438   8.720   1.434  11.205  1.4851 -4.2540  1.7133
  279MOL0     H38439   8.424   1.364  11.190  0.6444  2.4312  0.0469
  279MOL0     H38440   8.524   1.294  11.312  1.1312 -1.6608 -0.8383
  279MOL0     H38441   8.594   1.487  11.400 -0.8748 -1.5820  1.0833
  279MOL0     H38442   8.550   1.595  11.264 -3.1621  0.6656 -0.3702
  279MOL0     H38443   8.341   1.437  11.416 -1.1879 -0.2657 -2.8158
  279MOL0     H38444   8.328   1.577  11.298 -2.8936  1.5765  2.0546
  279MOL0     H38445   8.404   1.575  11.578  4.7925  0.3661 -1.1431
  279MOL0     H38446   8.466   1.699  11.478  0.3781  0.5582  2.2476
  279MOL0     H38447   8.232   1.781  11.409 -0.6320  1.3441  1.4311
  279MOL0     H38448   8.253   1.794  11.586  0.9520  2.4764 -1.0059
  279MOL0     H38449   8.113   1.562  11.426  2.6955 -3.2957  0.7300
  279MOL0     H38450   8.161   1.555  11.592 -0.2459 -0.3181 -0.5363
  279MOL0     H38451   7.859   1.703  11.407 -1.6221 -1.1430  0.0765
  279MOL0     H38452   7.609   1.796  11.681  0.3763  0.4659 -0.0091
  279MOL0     H38453   7.613   1.712  11.525  0.8306 -0.3505 -0.7072
  279MOL0     H38454   7.642   2.001  11.600 -0.9194  0.8978 -0.7039
  279MOL0     H38455   7.645   1.934  11.434 -0.7317 -1.4516  0.2298
  279MOL0     H38456   7.414   1.840  11.480  0.1376 -2.0541  1.4304
  279MOL0     H38457   7.414   1.909  11.639 -3.0978 -0.6588 -1.2856
  279MOL0     H38458   7.463   2.125  11.495  3.0719 -1.1864 -2.4671
  279MOL0     H38459   7.359   2.036  11.373 -1.4538  0.2653  0.0985
  279MOL0     H38460   7.093   2.093  11.719  0.2600  0.1926  0.8861
  279MOL0     H38461   6.888   2.039  11.843 -0.3431 -1.3851  2.4912
  279MOL0     H38462   6.874   1.875  11.884  3.2826  2.3312  1.5373
  279MOL0     H38463   6.757   1.943  11.759 -0.0542 -2.8001  0.1682
  279MOL0     H38464   6.616   1.505  11.471 -2.2498 -1.1499  0.2601
  279MOL0     H38465   6.491   1.331  11.537 -1.1031 -2.1641  1.8217
  279MOL0     H38466   6.591   1.183  11.940  0.6766 -1.0094  0.2538
  279MOL0     H38467   6.440   1.264  11.880  0.0116 -1.4418 -0.1655
  279MOL0     H38468   6.459   0.986  11.989  2.1373  0.4553  0.0688
  279MOL0     H38469   6.341   1.104  12.033 -0.4979  0.4279 -0.0513
  279MOL0     H38470   6.333   1.007  11.743  0.2566 -1.6329  0.1194
  279MOL0     H38471   6.206   1.076  11.845  0.8634  1.0563 -2.6825
  279MOL0     H38472   6.335   0.792  11.857  0.0107 -0.2847  0.8765
  279MOL0     H38473   6.164   0.839  11.825 -2.5516  1.0006  1.9995
  279MOL0     H38474   6.300   0.861  12.095  0.1990  2.0219 -0.5321
  279MOL0     H38475   6.130   0.888  12.073  1.1244  0.2619  2.2182
  279MOL0     H38476   6.132   0.686  12.159 -0.3113 -1.8611 -0.4372
  279MOL0     H38477   6.257   0.622  12.053  0.5093  1.0558  0.0687
  279MOL0     H38478   6.119   0.591  11.867 -1.2927 -1.5378 -0.9623
  279MOL0     H38479   5.989   0.696  11.922  0.2851  0.0433  2.0205
  279MOL0     H38480   5.927   0.468  11.938  0.1237  1.0847  1.2943
  279MOL0     H38481   5.922   0.548  12.099  1.0106 -0.6491  1.1998
  279MOL0     H38482   6.795   1.227  11.844 -0.1545  1.8283  1.9703
  279MOL0     H38483   6.929   1.380  11.760 -0.4198 -0.9644  1.3383
  279MOL0     H38484   7.037   1.701  11.427 -3.2131  2.3615 -1.9121
  279MOL0     H38485   7.216   1.854  11.401  0.2070 -1.9360  1.6138
  279MOL0     H38486   8.534   1.719  10.900 -4.6734 -2.5380 -2.5763
  279MOL0     H38487   8.534   1.828  10.660 -0.2833 -0.8651  0.8012
  279MOL0     H38488   8.566   1.824  10.288 -0.3277  0.0178  2.2257
  279MOL0     H38489   8.461   1.948  10.106 -1.6880  0.4248  0.9276
  279MOL0     H38490   8.504   2.011   9.901  1.1282 -0.1079  1.1225
  279MOL0     H38491   8.383   2.132   9.910  0.6339  0.9842 -0.0299
  279MOL0     H38492   8.630   2.196   9.753 -0.3296  0.6641 -1.7549
  279MOL0     H38493   8.481   2.296   9.797 -1.3922 -0.4889 -0.9135
  279MOL0     H38494   8.478   2.030   9.648  0.0402 -0.2852 -2.6943
  279MOL0     H38495   8.340   2.138   9.688  0.3587 -1.2090 -1.2875
  279MOL0     H38496   8.441   2.312   9.512 -0.6724 -0.0489 -3.9796
  279MOL0     H38497   8.395   2.148   9.454 -0.8480  0.1768  0.6955
  279MOL0     H38498   8.784   2.055   9.410 -0.8987 -1.2202  0.0133
  279MOL0     H38499   8.719   2.286  10.174  1.8860 -1.1977  0.1161
  279MOL0     H38500   8.782   2.221  10.514 -0.9268 -2.2830  0.2130
  279MOL0     H38501   8.916   2.190  10.415 -1.8407 -3.1290  3.9922
  279MOL0     H38502   8.814   2.331  10.381  2.8198 -0.7257 -2.4366
  280MOL0     O38503   8.241   5.437   7.502  0.0490  1.1277 -0.6225
  280MOL0     C38504   8.238   5.414   7.384 -0.0434 -1.0548 -1.1683
  280MOL0     O38505   8.349   5.435   7.305  0.4155 -0.5796  0.0163
  280MOL0     C38506   8.457   5.469   7.374  0.3062  1.1132 -0.2212
  280MOL0     C38507   8.543   5.369   7.420 -0.2294 -0.3248 -0.4205
  280MOL0     C38508   8.658   5.412   7.478 -0.2033 -0.6449 -0.2356
  280MOL0     C38509   8.686   5.546   7.513 -0.1300 -0.3335 -0.5528
  280MOL0     O38510   8.806   5.563   7.581  0.1601  0.3942  0.5659
  280MOL0     C38511   8.868   5.695   7.610  0.2178 -0.8630 -1.2420
  280MOL0     C38512   8.977   5.738   7.510  1.0331 -1.0050 -0.0521
  280MOL0     C38513   9.097   5.644   7.509 -1.1945 -0.0072 -0.5231
  280MOL0     C38514   9.222   5.701   7.445  0.6360 -0.2790  0.4764
  280MOL0     C38515   9.340   5.609   7.431 -0.5635 -0.5239  0.3587
  280MOL0     C38516   9.383   5.533   7.556 -0.0624 -0.3343 -0.3147
  280MOL0     C38517   9.532   5.467   7.552  0.9535  0.1212 -0.0076
  280MOL0     C38518   9.542   5.371   7.667  0.2545  0.8025 -0.1193
  280MOL0     N38519   9.680   5.338   7.718 -0.2283 -0.5327  0.6010
  280MOL0     C38520   9.770   5.403   7.808  0.7211  0.5932 -0.5940
  280MOL0     C38521   9.882   5.328   7.808 -0.3868  0.2948 -1.4143
  280MOL0     C38522   9.997   5.353   7.897  0.8084 -0.3168 -0.4138
  280MOL0     C38523  10.056   5.469   7.823 -1.2543 -0.0612  0.8794
  280MOL0     C38524  10.162   5.538   7.918  0.8617  0.0129  0.3872
  280MOL0     C38525  10.277   5.445   7.970  0.4059  0.4013  0.7677
  280MOL0     O38526  10.240   5.374   8.083  0.6786  0.1629  0.0042
  280MOL0     C38527  10.198   5.448   8.200  0.2564  0.4131  0.5976
  280MOL0     C38528  10.236   5.582   8.226  0.3121  0.6168  0.2261
  280MOL0     C38529  10.201   5.637   8.353  0.0605  0.2327  0.1394
  280MOL0     C38530  10.264   5.774   8.384  0.0399 -0.1535  0.2961
  280MOL0     C38531  10.130   5.560   8.450  0.8837 -0.3607  0.2654
  280MOL0     C38532  10.102   5.603   8.586 -0.6812 -0.1630  0.4742
  280MOL0     O38533  10.027   5.516   8.663  0.3533 -0.6265  0.3500
  280MOL0     C38534   9.995   5.552   8.790 -0.0762  0.2583  0.5252
  280MOL0     C38535  10.096   5.569   8.882  0.0944  0.1554 -1.1512
  280MOL0     C38536  10.073   5.585   9.019  0.1876  0.0687 -1.0618
  280MOL0     C38537   9.934   5.582   9.060  0.1825  0.1862  0.7558
  280MOL0     O38538   9.910   5.619   9.183 -0.4530  0.1765 -0.1579
  280MOL0     C38539   9.993   5.715   9.245  0.5252 -0.9985 -0.6948
  280MOL0     C38540   9.925   5.779   9.369  0.2472  0.0119  0.0305
  280MOL0     C38541  10.010   5.860   9.461 -0.2905  0.5864  0.1173
  280MOL0     C38542   9.933   5.899   9.585  0.4416 -0.3635 -0.0302
  280MOL0     C38543  10.020   5.976   9.690 -0.2527  0.6258  0.1240
  280MOL0     C38544   9.928   5.988   9.809 -0.1843  0.2205 -0.1786
  280MOL0     C38545   9.941   6.118   9.890  0.0730 -0.5177 -0.3680
  280MOL0     C38546   9.826   6.157   9.978  0.4380  0.1146  0.9073
  280MOL0    Cl38547   9.819   6.060  10.128  0.0565 -0.5314  0.6933
  280MOL0     C38548   9.827   5.551   8.972  0.9304 -0.4074 -0.2082
  280MOL0     C38549   9.864   5.542   8.835 -0.1437 -0.0641  0.4107
  280MOL0     O38550  10.125   5.719   8.623  0.4102  0.1040  0.5084
  280MOL0     C38551  10.099   5.425   8.422 -0.0282  1.0790  1.2462
  280MOL0     C38552  10.139   5.376   8.301 -0.0134  0.1712  0.6522
  280MOL0     N38553   9.875   5.234   7.709  0.2731 -0.3714 -0.1028
  280MOL0     N38554   9.761   5.240   7.657  0.2114  0.5544  0.7860
  280MOL0     C38555   8.596   5.645   7.466 -0.2509  0.7858 -0.0641
  280MOL0     C38556   8.487   5.600   7.394  0.0133  0.3958 -0.2004
  280MOL0     C38557   8.099   5.393   7.327 -0.4375 -0.0580  0.3535
  280MOL0     C38558   8.001   5.335   7.409 -0.2144  0.1712  0.4636
  280MOL0     C38559   7.875   5.305   7.353  0.1627 -0.4521 -0.4710
  280MOL0     C38560   7.843   5.325   7.222  0.3686  0.3162 -0.0376
  280MOL0     O38561   7.721   5.283   7.174 -0.3274 -0.9641  0.0378
  280MOL0     C38562   7.674   5.326   7.048 -0.1340 -0.2243 -0.3941
  280MOL0     C38563   7.519   5.305   7.042 -0.4824  0.0316  0.4346
  280MOL0     C38564   7.473   5.160   7.018  0.1522  0.2536 -0.7124
  280MOL0     C38565   7.319   5.165   7.017 -0.4333  0.2044  0.5009
  280MOL0     C38566   7.261   5.261   6.925 -0.9075  0.7848 -0.5434
  280MOL0     C38567   7.209   5.327   6.834  0.3612  0.5933  0.0950
  280MOL0     C38568   7.944   5.396   7.142  0.9097 -1.2848  0.4509
  280MOL0     C38569   8.074   5.423   7.191 -0.9216  0.3255  0.5883
  280MOL0     C38570   8.174   5.471   7.088  0.1086 -0.3333  0.1166
  280MOL0     H38571   8.524   5.269   7.383 -0.0504 -0.7680  0.6571
  280MOL0     H38572   8.735   5.338   7.496  0.7767  0.2552 -0.6274
  280MOL0     H38573   8.906   5.688   7.712  0.8384 -2.2745 -1.5348
  280MOL0     H38574   8.789   5.770   7.616 -0.4113 -1.6181  1.0740
  280MOL0     H38575   8.921   5.749   7.416 -4.0086 -0.7653  2.6344
  280MOL0     H38576   9.003   5.841   7.535 -2.7635  0.8140 -2.5990
  280MOL0     H38577   9.130   5.621   7.611  2.7078  0.1746 -1.5475
  280MOL0     H38578   9.075   5.555   7.450  0.3400 -1.8677  1.5253
  280MOL0     H38579   9.200   5.732   7.343  1.6167 -0.5978  0.1504
  280MOL0     H38580   9.237   5.792   7.504  0.2195  2.1345 -2.8755
  280MOL0     H38581   9.422   5.674   7.399 -0.4982 -0.8822 -0.2241
  280MOL0     H38582   9.314   5.533   7.356 -2.4714  0.6679 -0.2557
  280MOL0     H38583   9.394   5.607   7.635  2.0408 -1.9364  1.0030
  280MOL0     H38584   9.312   5.457   7.591 -2.1011  1.7314  0.2921
  280MOL0     H38585   9.603   5.549   7.568  1.3700 -0.1365 -0.5298
  280MOL0     H38586   9.562   5.419   7.459  4.8298  0.2927  0.9812
  280MOL0     H38587   9.475   5.401   7.748  0.5091 -0.9413  0.7893
  280MOL0     H38588   9.489   5.282   7.630  0.6407 -0.2773  1.8125
  280MOL0     H38589   9.756   5.495   7.863  2.3202  0.7368 -0.3603
  280MOL0     H38590  10.062   5.265   7.904  1.2196  0.0684  0.8895
  280MOL0     H38591   9.971   5.384   7.998 -0.2627 -2.1810 -0.0742
  280MOL0     H38592  10.100   5.439   7.727 -3.0177  1.4696 -0.4711
  280MOL0     H38593   9.986   5.551   7.804  1.3402  1.7993 -1.6124
  280MOL0     H38594  10.211   5.619   7.864  2.1155 -0.9262  0.0778
  280MOL0     H38595  10.104   5.584   7.999 -0.0817 -1.8889  0.8570
  280MOL0     H38596  10.304   5.373   7.893  1.5800  0.5301  1.0388
  280MOL0     H38597  10.373   5.497   7.981 -0.0156  0.9317  2.2440
  280MOL0     H38598  10.271   5.644   8.145 -1.8721 -0.1006 -1.3695
  280MOL0     H38599  10.187   5.848   8.406  2.1543  1.4892  2.5791
  280MOL0     H38600  10.319   5.809   8.296  0.3814 -1.6465 -0.1271
  280MOL0     H38601  10.330   5.766   8.470  1.6174  3.2495 -0.4592
  280MOL0     H38602  10.198   5.587   8.849  0.1071  0.6424 -0.8675
  280MOL0     H38603  10.162   5.612   9.074 -0.1891  1.9713 -1.3012
  280MOL0     H38604  10.084   5.671   9.287 -0.5451 -1.6911  1.0225
  280MOL0     H38605  10.018   5.798   9.178  2.2699 -0.0589  1.0223
  280MOL0     H38606   9.840   5.837   9.331  1.0763  1.5740  0.4927
  280MOL0     H38607   9.884   5.697   9.428 -1.9193  1.3595  0.5135
  280MOL0     H38608  10.037   5.950   9.406  1.0897 -1.3602 -2.6661
  280MOL0     H38609  10.102   5.803   9.480 -2.0443 -2.8186 -0.6840
  280MOL0     H38610   9.887   5.808   9.624 -1.8902 -0.7885 -3.3657
  280MOL0     H38611   9.846   5.958   9.555 -1.6355 -3.3478 -0.3129
  280MOL0     H38612  10.109   5.914   9.700 -1.4418 -1.1676  0.1779
  280MOL0     H38613  10.051   6.074   9.652  0.5464  0.4022  0.1894
  280MOL0     H38614   9.949   5.900   9.871  0.1262 -0.1741 -0.8337
  280MOL0     H38615   9.822   5.976   9.782 -0.2497  2.1229 -0.9232
  280MOL0     H38616   9.960   6.202   9.822 -0.3542 -1.5462 -1.8154
  280MOL0     H38617  10.033   6.097   9.945  1.9068  1.2609 -2.5195
  280MOL0     H38618   9.728   6.153   9.930  0.1426  3.1369  1.0908
  280MOL0     H38619   9.856   6.257  10.008  0.7625 -1.0486  5.0063
  280MOL0     H38620   9.725   5.549   9.008 -0.0853 -0.5031 -2.8433
  280MOL0     H38621   9.786   5.516   8.764 -1.3255  1.3631  1.1278
  280MOL0     H38622  10.068   5.355   8.499  2.7483 -1.4470  0.2443
  280MOL0     H38623  10.110   5.274   8.276 -0.9425  1.0990 -2.5172
  280MOL0     H38624   8.610   5.752   7.476 -4.0559  1.5158 -0.9715
  280MOL0     H38625   8.430   5.674   7.339 -1.1235  1.0936  1.8107
  280MOL0     H38626   8.019   5.288   7.505 -0.2137 -0.9721 -0.0777
  280MOL0     H38627   7.814   5.232   7.405 -1.0724  0.6418 -0.3403
  280MOL0     H38628   7.698   5.431   7.029 -0.5099  0.0329  0.4812
  280MOL0     H38629   7.717   5.266   6.968  0.4675  0.2523 -0.4372
  280MOL0     H38630   7.485   5.374   6.964  0.4506  3.2820  2.6897
  280MOL0     H38631   7.472   5.345   7.132  2.2821  1.2487  1.4666
  280MOL0     H38632   7.498   5.102   6.928 -3.9631 -1.6812 -0.8411
  280MOL0     H38633   7.484   5.098   7.107  0.5695 -0.2325 -1.0952
  280MOL0     H38634   7.283   5.183   7.118  0.0407 -1.0032  0.9026
  280MOL0     H38635   7.285   5.062   6.997 -1.7010  0.5969  0.5443
  280MOL0     H38636   7.154   5.372   6.754 -0.6256 -0.0329  0.3951
  280MOL0     H38637   7.923   5.415   7.037 -1.8847  1.1920  1.3161
  280MOL0     H38638   8.270   5.420   7.092  1.5133  1.4699 -4.3104
  280MOL0     H38639   8.138   5.467   6.984 -0.2739  0.8157  0.1875
  280MOL0     H38640   8.181   5.578   7.109 -2.6493 -0.3383  1.5191
  281MOL0     O38641   8.025   7.436   6.364  0.1533  0.3923 -0.3127
  281MOL0     C38642   8.122   7.496   6.331 -0.0401  1.2256 -0.4374
  281MOL0     O38643   8.242   7.480   6.390  0.7055 -0.2774  0.0873
  281MOL0     C38644   8.259   7.443   6.516  0.5052 -0.1003  0.1147
  281MOL0     C38645   8.211   7.314   6.550  0.4382 -0.1281 -0.2230
  281MOL0     C38646   8.217   7.279   6.689  0.1635 -0.0809  0.4687
  281MOL0     C38647   8.277   7.357   6.785  0.3080  0.2536  1.0062
  281MOL0     O38648   8.297   7.316   6.916 -0.1753 -0.1041 -0.2593
  281MOL0     C38649   8.346   7.179   6.924 -0.1490  0.3778 -1.0308
  281MOL0     C38650   8.497   7.176   6.967 -0.1776  0.0432  0.1572
  281MOL0     C38651   8.558   7.273   7.074  0.1084  0.5561 -0.1759
  281MOL0     C38652   8.710   7.230   7.098  0.4831 -0.0849  0.4412
  281MOL0     C38653   8.780   7.314   7.209 -0.2770  0.3874 -0.1456
  281MOL0     C38654   8.778   7.465   7.181 -0.4411  0.0872  0.5528
  281MOL0     C38655   8.862   7.558   7.272 -0.2184  0.6797  0.2190
  281MOL0     C38656   8.787   7.595   7.413  0.0765  0.7428  0.1592
  281MOL0     N38657   8.874   7.697   7.477  0.8773  0.7758  1.2399
  281MOL0     C38658   8.840   7.831   7.488 -0.6284  1.2771 -0.6693
  281MOL0     C38659   8.953   7.889   7.550  0.4976  0.1193 -0.3781
  281MOL0     C38660   8.981   8.033   7.581 -0.3669  0.7720  0.1425
  281MOL0     C38661   8.916   8.072   7.707 -0.0843 -0.1311  0.3124
  281MOL0     C38662   8.964   8.208   7.763 -0.5528 -0.5129  0.0884
  281MOL0     C38663   8.906   8.253   7.894  1.1722 -0.1885  0.7450
  281MOL0     O38664   8.764   8.241   7.878  0.6369 -0.0245 -0.1383
  281MOL0     C38665   8.685   8.350   7.840  0.5216 -1.1780 -0.2435
  281MOL0     C38666   8.725   8.478   7.799 -0.1789  0.4152 -0.4019
  281MOL0     C38667   8.636   8.571   7.749 -0.9040 -0.2520 -0.3995
  281MOL0     C38668   8.707   8.693   7.694  0.3850 -0.0768  0.1720
  281MOL0     C38669   8.499   8.538   7.736  0.2728 -0.5013  0.8261
  281MOL0     C38670   8.391   8.632   7.701 -0.9714  0.1727 -0.8239
  281MOL0     O38671   8.271   8.575   7.680 -0.4989 -0.0408  0.2014
  281MOL0     C38672   8.161   8.645   7.708  0.0553  0.2272 -0.6130
  281MOL0     C38673   8.137   8.776   7.676 -0.2701 -0.3236  0.0802
  281MOL0     C38674   8.022   8.843   7.712  0.0323 -0.0030 -0.1229
  281MOL0     C38675   7.921   8.783   7.790  1.6219 -0.2579 -0.1478
  281MOL0     O38676   7.804   8.846   7.828  0.0517 -0.4879  0.2846
  281MOL0     C38677   7.786   8.990   7.815  0.5319  1.0067  0.4476
  281MOL0     C38678   7.646   9.022   7.851  0.4570  0.6183  0.8767
  281MOL0     C38679   7.622   9.011   8.002 -0.6541 -0.1396 -0.2470
  281MOL0     C38680   7.502   9.099   8.047  0.8665  0.4437 -0.4860
  281MOL0     C38681   7.517   9.121   8.202 -0.8011 -0.5100  0.0789
  281MOL0     C38682   7.485   9.007   8.283  0.3704 -0.1390 -0.3006
  281MOL0     C38683   7.471   9.044   8.434  0.0521  0.2368  0.4046
  281MOL0     C38684   7.438   8.922   8.524  0.8164 -0.2155  0.4292
  281MOL0    Cl38685   7.392   8.961   8.696  0.0469  0.0498 -0.0905
  281MOL0     C38686   7.940   8.649   7.821  0.4421  0.1126  0.5872
  281MOL0     C38687   8.058   8.584   7.776  0.9395 -0.3317 -1.0750
  281MOL0     O38688   8.415   8.755   7.705 -0.3723  0.3505  0.6327
  281MOL0     C38689   8.460   8.410   7.777  0.1540 -0.5762  0.5009
  281MOL0     C38690   8.551   8.314   7.818 -0.3635 -0.4090  0.0505
  281MOL0     N38691   9.042   7.797   7.579 -1.1691 -0.2740 -0.1892
  281MOL0     N38692   8.989   7.681   7.554 -0.3929 -0.6549  0.4106
  281MOL0     C38693   8.323   7.479   6.745 -0.4948  0.2252  0.3201
  281MOL0     C38694   8.300   7.528   6.619  0.3804  0.2552  0.1328
  281MOL0     C38695   8.130   7.585   6.210  0.0208  0.5061  0.4479
  281MOL0     C38696   8.254   7.642   6.165  0.2687 -0.3720  0.0379
  281MOL0     C38697   8.246   7.735   6.060 -1.1825 -0.4728 -0.7417
  281MOL0     C38698   8.137   7.786   6.005  0.4326  0.1818  1.3559
  281MOL0     O38699   8.122   7.888   5.919 -0.1907 -0.2296  0.5188
  281MOL0     C38700   8.236   7.982   5.905  0.6896 -0.3643  0.4549
  281MOL0     C38701   8.229   8.082   6.014 -0.1456  0.0858 -0.8681
  281MOL0     C38702   8.286   8.226   5.987 -0.2552  0.0933  0.0523
  281MOL0     C38703   8.430   8.212   5.930  0.6578  0.0166  0.8304
  281MOL0     C38704   8.527   8.291   6.013 -1.8240 -0.3824  0.2242
  281MOL0     C38705   8.597   8.336   6.098 -0.3118  0.3227  0.1097
  281MOL0     C38706   8.021   7.721   6.037 -1.1799  1.0540  1.4260
  281MOL0     C38707   8.019   7.620   6.127 -0.5159  0.9225  0.3315
  281MOL0     C38708   7.898   7.534   6.140  0.5034  0.0887 -0.3990
  281MOL0     H38709   8.179   7.247   6.471 -1.4832  0.2536  0.1973
  281MOL0     H38710   8.173   7.186   6.725 -1.0192  0.6245  0.9235
  281MOL0     H38711   8.331   7.129   6.828 -1.5032 -0.3469 -0.4649
  281MOL0     H38712   8.308   7.121   7.009 -1.0763  1.2513 -0.8338
  281MOL0     H38713   8.516   7.072   6.995 -2.1101 -0.0520  1.2964
  281MOL0     H38714   8.552   7.196   6.875 -0.1404 -1.0594 -0.0776
  281MOL0     H38715   8.552   7.373   7.032 -1.1603 -0.3913 -2.4682
  281MOL0     H38716   8.488   7.261   7.157 -4.3302 -0.1727 -3.5943
  281MOL0     H38717   8.713   7.124   7.124 -1.6394 -0.5355 -0.9238
  281MOL0     H38718   8.758   7.235   6.999  0.2112  1.6874  0.3644
  281MOL0     H38719   8.886   7.288   7.207 -0.9670 -2.6828 -1.2439
  281MOL0     H38720   8.746   7.284   7.309  0.2365 -0.8292 -0.3207
  281MOL0     H38721   8.816   7.480   7.080  3.6311 -4.3270  1.0941
  281MOL0     H38722   8.676   7.503   7.177  0.6318  3.4795  1.5617
  281MOL0     H38723   8.887   7.653   7.225  1.7744  0.9052  1.6168
  281MOL0     H38724   8.957   7.514   7.305 -0.7161 -1.6181 -1.1525
  281MOL0     H38725   8.688   7.634   7.389 -0.7949 -1.7752 -0.6491
  281MOL0     H38726   8.776   7.507   7.477  2.5608  1.4642  1.7358
  281MOL0     H38727   8.743   7.857   7.447 -0.3709  2.3660 -0.6214
  281MOL0     H38728   8.934   8.092   7.501 -0.4670  1.6871  0.8713
  281MOL0     H38729   9.089   8.046   7.584 -0.2377 -0.1018 -0.3712
  281MOL0     H38730   8.807   8.075   7.704 -0.0376  1.8162 -0.5969
  281MOL0     H38731   8.945   7.993   7.778  1.1166 -0.2122 -0.2371
  281MOL0     H38732   9.072   8.197   7.779  0.0252  2.2113 -1.3278
  281MOL0     H38733   8.944   8.282   7.686 -0.6819  1.4329  1.9100
  281MOL0     H38734   8.931   8.179   7.971 -3.8416 -1.8415  1.1614
  281MOL0     H38735   8.931   8.353   7.930 -0.4675  0.2112  0.8366
  281MOL0     H38736   8.827   8.506   7.818  0.2444 -1.7078  0.8508
  281MOL0     H38737   8.638   8.777   7.705 -3.2549 -2.9354  1.0730
  281MOL0     H38738   8.716   8.683   7.585  0.2023 -0.7145  0.2100
  281MOL0     H38739   8.802   8.718   7.742 -0.5681  1.2159  1.4745
  281MOL0     H38740   8.203   8.833   7.612 -1.0452  0.8034  0.2416
  281MOL0     H38741   8.014   8.943   7.670  1.1130  0.5286  0.9011
  281MOL0     H38742   7.863   9.048   7.866  1.4829  3.1486 -3.0631
  281MOL0     H38743   7.811   9.018   7.712 -2.5193  1.2315 -0.3282
  281MOL0     H38744   7.615   9.118   7.807 -1.0800  1.3350  3.3191
  281MOL0     H38745   7.573   8.953   7.806  1.4345  0.8015 -1.0930
  281MOL0     H38746   7.710   9.045   8.057 -1.1543 -2.5903  2.3107
  281MOL0     H38747   7.628   8.904   8.024  0.1373  0.4454  2.7713
  281MOL0     H38748   7.414   9.042   8.015  2.0695 -3.1663  1.9579
  281MOL0     H38749   7.508   9.198   8.001 -1.8213  1.8700  1.8786
  281MOL0     H38750   7.618   9.156   8.226  0.0959 -3.1311  0.4435
  281MOL0     H38751   7.441   9.197   8.226  0.7329  2.3738 -3.3219
  281MOL0     H38752   7.563   8.932   8.270  1.7365  0.7091  2.2278
  281MOL0     H38753   7.383   8.979   8.255  0.6499 -2.6463  0.8704
  281MOL0     H38754   7.391   9.118   8.438 -0.7560 -0.6500  3.7288
  281MOL0     H38755   7.568   9.086   8.465 -0.7113  2.3541  0.0940
  281MOL0     H38756   7.527   8.859   8.518  0.8932 -0.0397 -0.4065
  281MOL0     H38757   7.352   8.862   8.494 -1.1348  2.3712  0.4559
  281MOL0     H38758   7.860   8.600   7.876  0.9669  0.6240  1.8588
  281MOL0     H38759   8.073   8.478   7.796 -0.7293 -0.4292 -0.1864
  281MOL0     H38760   8.358   8.372   7.779  0.3327 -1.0570  0.5500
  281MOL0     H38761   8.511   8.213   7.826  1.1825 -1.4597 -3.3891
  281MOL0     H38762   8.377   7.546   6.813 -0.3223  1.6585 -1.1693
  281MOL0     H38763   8.324   7.634   6.614  1.5643 -0.0525 -2.6019
  281MOL0     H38764   8.343   7.619   6.224 -1.5306 -2.9413  1.9565
  281MOL0     H38765   8.340   7.772   6.021 -1.7873  3.6741  1.2659
  281MOL0     H38766   8.332   7.931   5.899 -1.5468 -4.8794 -1.7400
  281MOL0     H38767   8.224   8.025   5.805  4.3956 -1.2068 -0.4845
  281MOL0     H38768   8.271   8.034   6.103 -3.7841 -1.1435  0.3557
  281MOL0     H38769   8.126   8.105   6.045  0.0302  0.4629 -0.5495
  281MOL0     H38770   8.215   8.277   5.923  0.1188 -3.0058 -3.1535
  281MOL0     H38771   8.291   8.288   6.077 -0.5726  0.4140 -0.1488
  281MOL0     H38772   8.423   8.248   5.827 -1.4936  2.6220  1.7557
  281MOL0     H38773   8.460   8.107   5.937  0.7039 -0.1741 -1.4716
  281MOL0     H38774   8.656   8.379   6.177  1.6804 -0.9909 -0.5794
  281MOL0     H38775   7.933   7.745   5.978 -0.1011  0.6584 -0.4355
  281MOL0     H38776   7.862   7.549   6.243  3.1163  1.2283  0.4311
  281MOL0     H38777   7.818   7.558   6.069  0.2753 -3.4701 -1.5485
  281MOL0     H38778   7.931   7.431   6.122  1.3009 -0.4421  3.1689
  282MOL0     O38779   1.944   2.109   0.708  0.0742  0.1751  0.2519
  282MOL0     C38780   2.003   2.061   0.797  0.2852 -0.5037  0.0954
  282MOL0     O38781   1.996   1.931   0.838  0.7416  0.4713  0.3975
  282MOL0     C38782   1.904   1.847   0.775  0.0342  0.2943 -0.0590
  282MOL0     C38783   1.929   1.710   0.784  0.7364 -0.1996 -0.6870
  282MOL0     C38784   1.835   1.623   0.738 -1.0670 -0.4657 -0.9588
  282MOL0     C38785   1.706   1.661   0.701 -0.9895 -1.2842  1.2496
  282MOL0     O38786   1.617   1.572   0.650  0.1103 -0.6890 -0.3837
  282MOL0     C38787   1.578   1.472   0.747  0.9678 -0.0346 -0.2063
  282MOL0     C38788   1.431   1.513   0.769  0.1599 -0.0357 -0.1673
  282MOL0     C38789   1.343   1.396   0.802 -0.8225 -0.4711  0.0873
  282MOL0     C38790   1.199   1.437   0.854  0.4154  1.1990 -0.0205
  282MOL0     C38791   1.096   1.339   0.789  0.3836 -0.2213 -0.3693
  282MOL0     C38792   1.089   1.198   0.856 -0.4865 -0.6041 -0.2974
  282MOL0     C38793   0.994   1.106   0.779  0.0439  0.6481 -0.2841
  282MOL0     C38794   0.841   1.143   0.787  0.1662  0.5194 -0.7238
  282MOL0     N38795   0.761   1.075   0.688  0.0203  0.5462  0.5934
  282MOL0     C38796   0.758   0.940   0.666 -0.3356 -0.0713  0.6037
  282MOL0     C38797   0.690   0.939   0.542  0.5579  0.5867 -0.1761
  282MOL0     C38798   0.645   0.818   0.465  0.1580  0.5626  0.0255
  282MOL0     C38799   0.756   0.768   0.368 -0.5682 -0.1685 -0.0684
  282MOL0     C38800   0.765   0.613   0.364  0.0359 -1.2564 -1.1742
  282MOL0     C38801   0.845   0.572   0.239 -0.0851 -0.5028  0.0406
  282MOL0     O38802   0.976   0.630   0.240  0.6751 -0.1422 -0.9614
  282MOL0     C38803   1.050   0.632   0.119 -1.3897  0.3247  0.6985
  282MOL0     C38804   1.002   0.581   0.001 -0.2316  0.1609  0.2639
  282MOL0     C38805   1.075   0.594  -0.123  0.1589  0.9165 -0.5769
  282MOL0     C38806   0.997   0.565  -0.246 -0.3285  0.1918  0.1229
  282MOL0     C38807   1.205   0.637  -0.124 -1.2771 -0.2152 -0.8162
  282MOL0     C38808   1.306   0.641  -0.234  0.4075  0.2151  0.6861
  282MOL0     O38809   1.412   0.724  -0.225  0.7082  0.4267 -0.2075
  282MOL0     C38810   1.529   0.719  -0.313 -0.0298 -1.0415 -0.5985
  282MOL0     C38811   1.622   0.823  -0.304 -0.0833  0.2863 -0.1602
  282MOL0     C38812   1.732   0.842  -0.382  0.3857 -0.5077 -0.6232
  282MOL0     C38813   1.753   0.759  -0.490  0.1616 -0.0792  0.0351
  282MOL0     O38814   1.862   0.773  -0.576  0.8764 -0.0234 -0.8346
  282MOL0     C38815   1.831   0.859  -0.693  0.0129  0.5981 -0.8436
  282MOL0     C38816   1.912   0.817  -0.825 -0.3335  0.3511 -0.5680
  282MOL0     C38817   1.874   0.889  -0.955  0.1270  0.7050  0.2272
  282MOL0     C38818   1.931   1.035  -0.947 -0.5276  0.0078  0.3252
  282MOL0     C38819   1.843   1.127  -1.029 -0.2755 -0.1668  1.1138
  282MOL0     C38820   1.790   1.087  -1.167  0.0772  0.2638 -0.1285
  282MOL0     C38821   1.710   1.197  -1.240 -1.3083  0.2732 -0.0880
  282MOL0     C38822   1.588   1.227  -1.168  1.1129  0.0667 -0.3403
  282MOL0    Cl38823   1.593   1.375  -1.073 -0.2793 -0.2602  0.0987
  282MOL0     C38824   1.656   0.651  -0.516 -0.0191 -0.0914 -0.0656
  282MOL0     C38825   1.560   0.629  -0.416 -0.4643 -0.0588  0.2887
  282MOL0     O38826   1.280   0.568  -0.326 -0.2116 -0.0063  0.8302
  282MOL0     C38827   1.265   0.668  -0.001  0.9882 -0.6606 -0.1585
  282MOL0     C38828   1.186   0.670   0.116 -0.0252  0.0264 -0.4850
  282MOL0     N38829   0.669   1.069   0.493  0.4900  0.7207  0.3334
  282MOL0     N38830   0.708   1.150   0.582  0.9293  0.2106  0.3447
  282MOL0     C38831   1.674   1.793   0.691 -0.0754 -1.0820  0.8323
  282MOL0     C38832   1.773   1.881   0.742 -0.1429 -1.9649 -0.9055
  282MOL0     C38833   2.100   2.151   0.873  0.9366  0.6608  0.0672
  282MOL0     C38834   2.149   2.114   0.996 -0.4422 -0.5966  0.1072
  282MOL0     C38835   2.229   2.204   1.074  0.4204  0.3571  0.2291
  282MOL0     C38836   2.248   2.337   1.044 -0.0024  0.4063 -0.1101
  282MOL0     O38837   2.311   2.418   1.134 -0.6810  0.3576  0.1705
  282MOL0     C38838   2.433   2.373   1.193  1.1467  0.9486  0.2085
  282MOL0     C38839   2.426   2.349   1.348  0.1796 -0.2943 -0.8038
  282MOL0     C38840   2.534   2.245   1.409  0.5342 -0.8323 -0.3994
  282MOL0     C38841   2.664   2.222   1.336 -0.6526  0.4726 -0.0373
  282MOL0     C38842   2.653   2.134   1.214  0.0238  1.1384 -0.8740
  282MOL0     C38843   2.652   2.061   1.117 -0.4067  0.2710  0.5464
  282MOL0     C38844   2.197   2.380   0.923 -0.5217 -0.3116 -0.5780
  282MOL0     C38845   2.135   2.285   0.832 -0.0526 -1.2291  0.0999
  282MOL0     C38846   2.110   2.350   0.702  1.1320  0.7593  1.0636
  282MOL0     H38847   2.030   1.693   0.820  0.1010  2.8920  3.4037
  282MOL0     H38848   1.854   1.517   0.731 -1.5315 -0.7693  1.5082
  282MOL0     H38849   1.627   1.469   0.844  2.8877 -1.0993 -1.1606
  282MOL0     H38850   1.581   1.371   0.705  1.0989 -0.2693  0.3600
  282MOL0     H38851   1.425   1.587   0.849 -2.0864 -0.6590  0.3049
  282MOL0     H38852   1.394   1.566   0.680 -6.0573  0.3448  2.1820
  282MOL0     H38853   1.335   1.346   0.705  1.9169  0.8795 -0.9505
  282MOL0     H38854   1.395   1.333   0.873  4.3128  1.5589 -1.3998
  282MOL0     H38855   1.199   1.435   0.964 -0.8997  0.1148 -0.0114
  282MOL0     H38856   1.167   1.536   0.819 -4.8263 -0.9615 -2.4767
  282MOL0     H38857   1.115   1.346   0.682  0.2966 -0.4492 -0.4017
  282MOL0     H38858   0.998   1.385   0.803  1.0306  0.6443  1.5975
  282MOL0     H38859   1.185   1.145   0.861 -0.3827 -0.3483  0.6448
  282MOL0     H38860   1.046   1.206   0.956  1.2963 -0.7823  0.5283
  282MOL0     H38861   1.005   1.003   0.813 -1.9801 -0.9720 -3.8632
  282MOL0     H38862   1.017   1.096   0.672 -1.8705 -0.8538 -0.6152
  282MOL0     H38863   0.800   1.119   0.886 -1.2769 -0.1970 -1.4639
  282MOL0     H38864   0.824   1.250   0.767  2.4894  0.8638 -1.0721
  282MOL0     H38865   0.777   0.846   0.715 -1.7305 -1.8188 -1.9740
  282MOL0     H38866   0.562   0.854   0.403  0.4244 -2.2172 -2.1666
  282MOL0     H38867   0.615   0.742   0.537  2.4685  0.3309  0.8435
  282MOL0     H38868   0.738   0.798   0.265 -1.7575  2.0456  0.6983
  282MOL0     H38869   0.850   0.816   0.398  0.2620 -0.4697 -2.0564
  282MOL0     H38870   0.806   0.574   0.458 -3.4181  0.0225  1.0345
  282MOL0     H38871   0.664   0.574   0.349 -0.1150 -0.7923 -1.3631
  282MOL0     H38872   0.836   0.463   0.234  2.4584 -0.9327  2.3504
  282MOL0     H38873   0.784   0.625   0.165 -0.1132  0.2127  0.5624
  282MOL0     H38874   0.906   0.532   0.009 -0.0155 -0.2677  0.2398
  282MOL0     H38875   0.959   0.462  -0.250 -0.1908  0.0325  1.9951
  282MOL0     H38876   1.048   0.586  -0.341 -3.5421 -1.4932 -2.1794
  282MOL0     H38877   0.912   0.632  -0.259  0.0316  0.7080  0.4156
  282MOL0     H38878   1.601   0.894  -0.225 -1.0167 -1.3775  1.1748
  282MOL0     H38879   1.806   0.919  -0.362 -0.0272 -0.4459  0.7037
  282MOL0     H38880   1.724   0.873  -0.710 -0.0232  4.2174  1.3475
  282MOL0     H38881   1.862   0.960  -0.663 -2.5810  0.3578  3.4980
  282MOL0     H38882   2.017   0.837  -0.802 -0.1875 -1.5721  0.7076
  282MOL0     H38883   1.904   0.708  -0.831  2.0591  0.1062 -0.3034
  282MOL0     H38884   1.766   0.878  -0.964  0.1693 -1.7231  1.7711
  282MOL0     H38885   1.913   0.841  -1.046 -2.3729  2.1112 -1.7060
  282MOL0     H38886   2.035   1.049  -0.979 -1.2567 -1.1380 -2.8762
  282MOL0     H38887   1.918   1.071  -0.844  1.0147 -2.7573  1.5979
  282MOL0     H38888   1.757   1.165  -0.973 -0.3653  4.6523 -1.6809
  282MOL0     H38889   1.906   1.213  -1.055  0.7216 -1.4882 -1.1156
  282MOL0     H38890   1.727   0.998  -1.163 -1.1544  1.1267  0.2261
  282MOL0     H38891   1.876   1.075  -1.234 -0.7917 -0.4074 -1.1427
  282MOL0     H38892   1.691   1.151  -1.337 -1.2632 -2.3664  1.0775
  282MOL0     H38893   1.769   1.289  -1.251  0.8621 -1.2575 -2.0719
  282MOL0     H38894   1.566   1.144  -1.101 -1.4077 -0.0971 -1.2627
  282MOL0     H38895   1.512   1.237  -1.246  2.4675 -2.6518 -2.1723
  282MOL0     H38896   1.658   0.588  -0.604  1.0631  0.6989 -0.6320
  282MOL0     H38897   1.509   0.533  -0.418  0.3645 -0.6223  2.9515
  282MOL0     H38898   1.371   0.691   0.001  0.4273  2.3140  0.3077
  282MOL0     H38899   1.229   0.717   0.204 -2.0746  0.7333  0.1903
  282MOL0     H38900   1.572   1.822   0.668  1.1755  1.4369 -2.4676
  282MOL0     H38901   1.756   1.987   0.760  3.5034 -1.6296  1.6094
  282MOL0     H38902   2.131   2.011   1.026  4.5415 -0.7359  3.9549
  282MOL0     H38903   2.265   2.163   1.167  1.5408 -1.0334 -0.7808
  282MOL0     H38904   2.465   2.282   1.140  0.4159 -0.1932  1.6406
  282MOL0     H38905   2.497   2.459   1.174 -1.6102  3.0686 -0.0684
  282MOL0     H38906   2.326   2.309   1.368 -1.1689  3.2486  0.3957
  282MOL0     H38907   2.430   2.445   1.400 -0.0661 -1.3519  1.2873
  282MOL0     H38908   2.565   2.301   1.498 -0.3768  0.3842 -0.8164
  282MOL0     H38909   2.489   2.150   1.440  1.4547 -1.4183 -0.8128
  282MOL0     H38910   2.732   2.169   1.404  0.0917  1.8565  0.3352
  282MOL0     H38911   2.715   2.314   1.307  1.1150 -0.0006  1.4049
  282MOL0     H38912   2.647   2.004   1.026  2.5537 -0.4694  0.7424
  282MOL0     H38913   2.218   2.484   0.900 -0.2621 -0.7498 -2.5088
  282MOL0     H38914   2.174   2.436   0.679  0.3139  1.0289 -0.3279
  282MOL0     H38915   2.129   2.279   0.621 -2.5734 -0.7356  1.2977
  282MOL0     H38916   2.009   2.392   0.698  1.6622  2.0927  1.0982
  283MOL0     O38917   1.272   5.811   2.619 -0.0121  0.8748  0.7269
  283MOL0     C38918   1.250   5.725   2.528  0.0851  0.4167 -0.2940
  283MOL0     O38919   1.141   5.724   2.434  0.2385 -0.6441  0.0527
  283MOL0     C38920   1.026   5.805   2.461 -0.5283  0.9807  0.7377
  283MOL0     C38921   0.989   5.831   2.590  0.5827 -1.5067  0.5605
  283MOL0     C38922   0.860   5.895   2.604 -0.1995  1.2032  0.5333
  283MOL0     C38923   0.780   5.933   2.492 -0.7745 -0.6301 -0.5375
  283MOL0     O38924   0.672   6.017   2.514  0.3576 -0.0975  0.5176
  283MOL0     C38925   0.571   6.011   2.419  0.4718 -0.2708 -0.2300
  283MOL0     C38926   0.433   6.047   2.475  0.4283 -0.1539 -0.6001
  283MOL0     C38927   0.430   6.167   2.564 -0.3887 -0.1833 -0.9237
  283MOL0     C38928   0.278   6.196   2.601 -0.9385 -0.5287 -0.5355
  283MOL0     C38929   0.215   6.319   2.530 -0.6243 -0.5343 -1.0685
  283MOL0     C38930   0.298   6.451   2.539 -0.2380 -0.4398  0.8862
  283MOL0     C38931   0.217   6.575   2.515 -0.2129  1.0439 -1.1410
  283MOL0     C38932   0.151   6.594   2.381 -0.2070 -0.6580 -1.1936
  283MOL0     N38933   0.246   6.599   2.269 -0.1619  1.0998 -0.5425
  283MOL0     C38934   0.257   6.490   2.190 -0.6428 -0.3932 -0.2761
  283MOL0     C38935   0.361   6.521   2.110  0.0741  0.3379 -0.3248
  283MOL0     C38936   0.416   6.437   1.996  0.5632  0.2934 -0.1880
  283MOL0     C38937   0.544   6.351   2.043 -0.0067  0.4773 -0.2231
  283MOL0     C38938   0.600   6.257   1.938 -0.1351  0.7993  0.4713
  283MOL0     C38939   0.501   6.149   1.877  0.1933  0.1021 -0.1179
  283MOL0     O38940   0.403   6.126   1.974  0.0692  0.5458 -0.1295
  283MOL0     C38941   0.284   6.059   1.946  0.2267  1.1087 -0.3376
  283MOL0     C38942   0.246   5.994   1.827 -0.0752  0.6731 -0.4051
  283MOL0     C38943   0.135   5.913   1.810  1.2290 -0.0383 -0.5532
  283MOL0     C38944   0.113   5.826   1.688 -0.8846  0.2749 -0.0386
  283MOL0     C38945   0.048   5.904   1.919  0.1757  0.0709  0.7163
  283MOL0     C38946  -0.068   5.812   1.915 -0.0790 -0.0554 -0.1739
  283MOL0     O38947  -0.191   5.870   1.936 -0.3629 -0.5431  0.2985
  283MOL0     C38948  -0.300   5.795   1.938  0.2715 -0.4191 -1.2904
  283MOL0     C38949  -0.328   5.703   2.044  0.2519 -0.1372  0.8257
  283MOL0     C38950  -0.438   5.620   2.040  0.1061  0.3730  0.6495
  283MOL0     C38951  -0.529   5.628   1.942  0.3465  0.6860 -0.5695
  283MOL0     O38952  -0.641   5.543   1.935 -0.0080  0.3008  0.1395
  283MOL0     C38953  -0.646   5.441   2.037  0.2283  0.5748  0.0190
  283MOL0     C38954  -0.790   5.378   2.018  0.0463 -0.5165  0.0804
  283MOL0     C38955  -0.805   5.277   1.897 -0.2283 -0.2873  0.5359
  283MOL0     C38956  -0.875   5.336   1.769  0.7225  0.1953  0.9087
  283MOL0     C38957  -0.836   5.243   1.648 -0.2592  1.0891  0.3725
  283MOL0     C38958  -0.924   5.292   1.534  0.5393  0.3558 -0.0842
  283MOL0     C38959  -1.079   5.279   1.539 -0.3802  0.3547 -0.6232
  283MOL0     C38960  -1.137   5.136   1.597  0.3444 -0.7107  0.3685
  283MOL0    Cl38961  -1.121   5.003   1.485 -0.2460 -0.3467 -0.2668
  283MOL0     C38962  -0.518   5.724   1.854 -0.4266 -0.3892  0.4470
  283MOL0     C38963  -0.408   5.810   1.845 -0.1409 -0.5755 -0.1629
  283MOL0     O38964  -0.044   5.692   1.934  0.0827 -0.2925  0.0270
  283MOL0     C38965   0.072   5.984   2.031 -0.0150  0.1115 -0.1874
  283MOL0     C38966   0.191   6.050   2.055  0.2122 -0.3063 -0.2954
  283MOL0     N38967   0.397   6.655   2.133  0.0703 -0.5073  0.4393
  283MOL0     N38968   0.331   6.691   2.236  0.4362 -0.0650  0.5166
  283MOL0     C38969   0.825   5.904   2.365 -0.0069  0.3982 -0.9677
  283MOL0     C38970   0.958   5.844   2.350 -0.0040  0.4448  0.1332
  283MOL0     C38971   1.329   5.604   2.539 -0.1170 -0.4890  0.0849
  283MOL0     C38972   1.278   5.484   2.490 -0.5682 -0.2824  0.9865
  283MOL0     C38973   1.340   5.360   2.499 -0.2984 -0.2683 -0.2750
  283MOL0     C38974   1.461   5.352   2.560  0.3054 -0.4533 -0.6543
  283MOL0     O38975   1.507   5.228   2.581  0.6222 -0.4155  0.5622
  283MOL0     C38976   1.649   5.206   2.606  0.7551  0.0387  0.2055
  283MOL0     C38977   1.695   5.089   2.527 -0.0985  0.0935 -0.1417
  283MOL0     C38978   1.631   5.077   2.385  0.6739  0.1012 -0.0557
  283MOL0     C38979   1.513   4.981   2.360 -0.3370 -0.9602  0.7803
  283MOL0     C38980   1.561   4.844   2.357 -0.2924 -0.3173 -0.5597
  283MOL0     C38981   1.608   4.732   2.367 -0.5034  0.3884  0.2728
  283MOL0     C38982   1.525   5.475   2.604 -0.0046  0.0780  0.0839
  283MOL0     C38983   1.459   5.594   2.604  0.2668  0.1023 -0.6777
  283MOL0     C38984   1.515   5.694   2.693  0.1596  0.0144 -0.2908
  283MOL0     H38985   1.040   5.803   2.681  0.5195 -1.2024  0.6927
  283MOL0     H38986   0.813   5.911   2.701  0.8017  1.4575  0.9906
  283MOL0     H38987   0.566   5.912   2.374  2.8510 -0.8752  0.6960
  283MOL0     H38988   0.595   6.085   2.342 -0.1968 -1.2145 -1.3763
  283MOL0     H38989   0.371   6.076   2.390  2.1313 -4.7730 -3.7698
  283MOL0     H38990   0.386   5.960   2.522 -2.2188  1.1813 -0.5911
  283MOL0     H38991   0.475   6.142   2.661 -2.0579  0.8217  0.1665
  283MOL0     H38992   0.480   6.257   2.527  1.5993 -0.6694  0.4084
  283MOL0     H38993   0.208   6.116   2.575  1.1205 -2.2036 -1.2136
  283MOL0     H38994   0.282   6.210   2.709  2.3547  1.2199 -0.7315
  283MOL0     H38995   0.123   6.336   2.588  0.2395 -1.2548  0.5944
  283MOL0     H38996   0.179   6.304   2.428 -1.1120  0.6058 -1.0764
  283MOL0     H38997   0.344   6.468   2.637  0.1441  3.8013  0.1599
  283MOL0     H38998   0.375   6.441   2.461 -2.7955 -0.3027 -1.8563
  283MOL0     H38999   0.276   6.667   2.527  0.2483  1.2561 -4.1884
  283MOL0     H39000   0.140   6.569   2.592  0.4535 -2.0295 -0.6050
  283MOL0     H39001   0.067   6.527   2.360 -2.3537  2.0083 -1.6491
  283MOL0     H39002   0.096   6.688   2.381 -0.5363 -0.8459 -1.3624
  283MOL0     H39003   0.203   6.396   2.198 -0.9458 -0.6154 -3.6531
  283MOL0     H39004   0.434   6.491   1.902  2.8343 -0.4284 -0.2113
  283MOL0     H39005   0.334   6.384   1.945  2.3177 -1.6101 -1.1703
  283MOL0     H39006   0.629   6.416   2.065 -0.2797  0.4851  0.8248
  283MOL0     H39007   0.520   6.293   2.132  2.6657 -0.0854  0.2285
  283MOL0     H39008   0.642   6.319   1.858  2.9597 -2.6425 -0.8700
  283MOL0     H39009   0.688   6.205   1.976 -0.5083  1.3785  2.2003
  283MOL0     H39010   0.440   6.194   1.798 -1.2773  2.4993  2.1849
  283MOL0     H39011   0.550   6.054   1.854  0.7509  0.9444 -2.7858
  283MOL0     H39012   0.317   5.991   1.745 -0.6877  0.5717 -0.9430
  283MOL0     H39013   0.040   5.747   1.705 -2.4586  2.3169  4.1316
  283MOL0     H39014   0.201   5.763   1.668 -0.9818  0.1784 -0.1609
  283MOL0     H39015   0.077   5.874   1.597 -0.9392  0.7071  0.2118
  283MOL0     H39016  -0.258   5.684   2.125 -1.4743 -0.1369  2.3841
  283MOL0     H39017  -0.444   5.548   2.121  1.9899 -0.7135 -0.1171
  283MOL0     H39018  -0.569   5.366   2.019  0.6353  1.0130 -0.0812
  283MOL0     H39019  -0.639   5.478   2.139  0.6840 -1.5964  0.8215
  283MOL0     H39020  -0.810   5.321   2.109  0.7261  0.6598  1.0050
  283MOL0     H39021  -0.876   5.445   2.010  0.3523 -0.1118  0.1163
  283MOL0     H39022  -0.828   5.179   1.940  0.6616 -1.0690 -0.6854
  283MOL0     H39023  -0.707   5.259   1.851  0.0507  0.6823  0.7407
  283MOL0     H39024  -0.835   5.434   1.742  2.0174  0.5097  3.6346
  283MOL0     H39025  -0.983   5.344   1.785  0.5636 -1.4293  0.8620
  283MOL0     H39026  -0.731   5.253   1.617 -1.5022  1.6135 -4.4973
  283MOL0     H39027  -0.842   5.135   1.667  0.5178  0.3499 -2.9013
  283MOL0     H39028  -0.881   5.238   1.449  0.9523 -0.0074  0.3458
  283MOL0     H39029  -0.905   5.395   1.501 -0.6319  0.5914 -0.0771
  283MOL0     H39030  -1.125   5.297   1.441 -1.2636  0.7867 -0.1372
  283MOL0     H39031  -1.118   5.356   1.605 -0.7824 -0.5116  0.1719
  283MOL0     H39032  -1.241   5.153   1.625  0.2502 -1.6865  0.6711
  283MOL0     H39033  -1.088   5.107   1.690  1.7230 -0.7332 -0.3369
  283MOL0     H39034  -0.592   5.734   1.775 -0.1144  2.2325  0.4094
  283MOL0     H39035  -0.412   5.893   1.775  0.7911  0.0757  0.5175
  283MOL0     H39036  -0.013   5.978   2.098  0.2045 -2.3271 -0.0493
  283MOL0     H39037   0.216   6.097   2.149  0.5812 -0.0651 -0.5125
  283MOL0     H39038   0.764   5.931   2.280  0.6437  3.5776 -0.5243
  283MOL0     H39039   1.002   5.830   2.252 -0.8147 -2.3477  0.0883
  283MOL0     H39040   1.177   5.482   2.451 -0.0742 -1.7189 -0.3348
  283MOL0     H39041   1.304   5.263   2.466  2.8885 -1.9183  0.6691
  283MOL0     H39042   1.709   5.287   2.563 -1.5181  1.8345  0.2028
  283MOL0     H39043   1.668   5.209   2.714  0.0347  2.0034  0.3068
  283MOL0     H39044   1.660   5.004   2.587 -3.8923  0.9135 -0.9255
  283MOL0     H39045   1.804   5.094   2.526 -0.0284  1.2694  3.0429
  283MOL0     H39046   1.582   5.168   2.350 -0.0586 -0.8318 -1.6238
  283MOL0     H39047   1.717   5.062   2.319  0.1469 -0.3543 -0.6621
  283MOL0     H39048   1.471   5.008   2.263 -0.2867  2.0973  1.5062
  283MOL0     H39049   1.445   5.004   2.442  0.5113  0.5131  1.1100
  283MOL0     H39050   1.640   4.633   2.393 -1.7375  0.0946  0.7126
  283MOL0     H39051   1.622   5.462   2.652  1.5863  0.8843 -2.7055
  283MOL0     H39052   1.458   5.689   2.786 -1.4634  2.1752 -1.0692
  283MOL0     H39053   1.622   5.680   2.708  0.5803 -0.4010 -3.1423
  283MOL0     H39054   1.507   5.798   2.659 -2.1846  0.1720  0.5218
  284MOL0     O39055   1.050   6.948  11.290  0.1192  0.3052 -0.3577
  284MOL0     C39056   0.989   6.902  11.386  0.0040  0.7645 -0.2033
  284MOL0     O39057   0.883   6.959  11.460 -0.5270  0.2025  0.1474
  284MOL0     C39058   0.814   7.069  11.419 -0.3751  0.7626  1.0274
  284MOL0     C39059   0.804   7.114  11.286 -0.3599  0.5496 -0.1438
  284MOL0     C39060   0.729   7.241  11.270 -0.5514  0.1202  0.6285
  284MOL0     C39061   0.671   7.307  11.382 -0.9834  0.3789 -0.1991
  284MOL0     O39062   0.635   7.435  11.354 -0.3449  0.3210  0.4493
  284MOL0     C39063   0.576   7.512  11.466  0.1067 -0.2370  0.5314
  284MOL0     C39064   0.505   7.636  11.415  0.3137  0.0846  0.1071
  284MOL0     C39065   0.614   7.728  11.360  0.6880 -0.4087 -0.0017
  284MOL0     C39066   0.554   7.850  11.271  0.0040 -0.6268  0.3740
  284MOL0     C39067   0.469   7.942  11.361  0.2162  0.4455  0.0445
  284MOL0     C39068   0.413   8.057  11.283 -0.4586  0.9155  0.3910
  284MOL0     C39069   0.353   8.168  11.376 -0.5882  0.6358  0.1200
  284MOL0     C39070   0.212   8.116  11.420 -0.5785  0.9168  0.0307
  284MOL0     N39071   0.146   8.200  11.516  0.1419  0.0252 -0.3503
  284MOL0     C39072   0.202   8.307  11.591  0.5111  0.3904  0.3115
  284MOL0     C39073   0.109   8.352  11.673  0.2439  0.4596 -0.0330
  284MOL0     C39074   0.108   8.481  11.764 -0.0727  0.1298 -0.1215
  284MOL0     C39075   0.047   8.611  11.706 -0.5187  0.5715  1.2649
  284MOL0     C39076   0.055   8.715  11.817 -0.5576  0.3368  1.2650
  284MOL0     C39077  -0.060   8.821  11.811 -1.4005  0.2674 -0.3703
  284MOL0     O39078  -0.047   8.925  11.910 -0.7526 -0.3959  0.4392
  284MOL0     C39079  -0.141   9.026  11.900 -0.1550 -0.8968  0.1986
  284MOL0     C39080  -0.101   9.160  11.939 -0.2419  0.0297  0.0491
  284MOL0     C39081  -0.188   9.270  11.926  0.4596 -0.1781 -0.5678
  284MOL0     C39082  -0.143   9.393  11.996 -0.2477  0.4016 -0.5893
  284MOL0     C39083  -0.322   9.246  11.882  1.1298  0.3582 -0.5185
  284MOL0     C39084  -0.432   9.349  11.891 -0.2255 -0.0756  0.3373
  284MOL0     O39085  -0.557   9.303  11.885  0.1392 -0.0474 -0.3187
  284MOL0     C39086  -0.662   9.393  11.901  0.2599 -0.7812 -0.9304
  284MOL0     C39087  -0.761   9.389  11.806 -0.2284  0.7337  0.8873
  284MOL0     C39088  -0.870   9.464  11.816  0.2499 -0.3538 -0.1356
  284MOL0     C39089  -0.890   9.560  11.925  0.5227  0.1246  0.5218
  284MOL0     O39090  -0.989   9.651  11.920  0.6167 -0.0579 -0.5479
  284MOL0     C39091  -1.078   9.676  12.038 -1.0543  0.0735  0.2952
  284MOL0     C39092  -1.191   9.770  11.998 -0.8660  0.3951 -0.2455
  284MOL0     C39093  -1.267   9.799  12.127  1.5538 -0.1808  0.0499
  284MOL0     C39094  -1.356   9.927  12.108 -0.2337 -0.1125  0.2605
  284MOL0     C39095  -1.400   9.979  12.248 -0.4600  0.5810 -0.1990
  284MOL0     C39096  -1.542   9.928  12.295  0.0296  0.3699  0.2772
  284MOL0     C39097  -1.620  10.033  12.380  0.4918  0.5314 -0.2439
  284MOL0     C39098  -1.543  10.047  12.516  0.3227 -0.1104  0.4993
  284MOL0    Cl39099  -1.556   9.890  12.612  0.0337 -0.5353 -0.4085
  284MOL0     C39100  -0.795   9.565  12.026  0.8442  0.6488  0.6646
  284MOL0     C39101  -0.681   9.485  12.007 -0.1473 -0.5658  1.0594
  284MOL0     O39102  -0.398   9.466  11.899  0.3035 -0.8280  0.2406
  284MOL0     C39103  -0.358   9.118  11.832  0.2017  0.2052  0.2098
  284MOL0     C39104  -0.278   9.007  11.859  0.8480 -0.5590 -0.1221
  284MOL0     N39105  -0.003   8.264  11.655 -0.5353  0.1079 -0.0331
  284MOL0     N39106   0.024   8.175  11.568 -0.7577 -0.1723 -0.5239
  284MOL0     C39107   0.670   7.243  11.507  0.2048 -0.7595  0.5784
  284MOL0     C39108   0.743   7.126  11.522 -0.1994 -0.6907 -0.0549
  284MOL0     C39109   1.006   6.753  11.400 -0.3480 -0.1269 -0.4685
  284MOL0     C39110   0.894   6.679  11.445 -0.2091 -0.9594  1.2925
  284MOL0     C39111   0.904   6.540  11.463  0.2246 -0.5279  0.0791
  284MOL0     C39112   1.023   6.471  11.461  0.1438 -0.0526  0.4932
  284MOL0     O39113   1.040   6.331  11.474  0.2458 -0.4877  0.1598
  284MOL0     C39114   0.936   6.251  11.531  0.0549  0.5989 -1.0983
  284MOL0     C39115   0.971   6.098  11.534 -0.3886  0.6649 -0.7865
  284MOL0     C39116   1.068   6.061  11.650 -0.2745 -0.5169 -0.5159
  284MOL0     C39117   1.082   5.910  11.668  0.3253  0.0278  0.0350
  284MOL0     C39118   1.128   5.825  11.552  0.7087  0.5011  0.2906
  284MOL0     C39119   1.182   5.753  11.466  1.0051 -1.1380  0.4200
  284MOL0     C39120   1.142   6.550  11.443  0.5484  0.1317 -0.3949
  284MOL0     C39121   1.140   6.683  11.411  0.7783  0.4034 -0.1728
  284MOL0     C39122   1.268   6.760  11.402 -0.5349  0.6618  0.6220
  284MOL0     H39123   0.849   7.054  11.208  0.4210 -0.0342  0.7529
  284MOL0     H39124   0.722   7.271  11.166  0.6401 -0.2398  0.4348
  284MOL0     H39125   0.650   7.537  11.542  0.3740 -1.5418  0.7342
  284MOL0     H39126   0.494   7.454  11.510 -2.8754  2.5834 -0.8554
  284MOL0     H39127   0.433   7.622  11.334 -1.1777  3.3972  0.6927
  284MOL0     H39128   0.447   7.681  11.497  0.0554  2.5623 -1.3282
  284MOL0     H39129   0.679   7.780  11.431 -0.1029  0.8985 -0.1991
  284MOL0     H39130   0.680   7.677  11.289  0.3219 -1.2959  0.2799
  284MOL0     H39131   0.634   7.913  11.232 -4.1318  2.7070 -4.0087
  284MOL0     H39132   0.489   7.819  11.189 -2.3202  2.1197  1.0146
  284MOL0     H39133   0.528   7.981  11.445 -1.0415  0.3620  1.0029
  284MOL0     H39134   0.384   7.886  11.403 -1.5490  1.3183 -2.1647
  284MOL0     H39135   0.504   8.089  11.231  0.7029 -2.2693  0.2112
  284MOL0     H39136   0.351   8.024  11.199 -0.4774 -1.7030  1.3409
  284MOL0     H39137   0.341   8.264  11.326 -3.1558  1.4144  2.0389
  284MOL0     H39138   0.420   8.192  11.458  1.1637 -0.5757 -0.8787
  284MOL0     H39139   0.142   8.125  11.335 -1.8100 -0.3838  0.8616
  284MOL0     H39140   0.226   8.010  11.443  1.8922  0.8231 -1.5131
  284MOL0     H39141   0.298   8.357  11.591 -0.4037  2.2264 -0.4657
  284MOL0     H39142   0.211   8.507  11.789 -1.1063  2.1703  2.4105
  284MOL0     H39143   0.056   8.466  11.859 -1.1113  3.5425 -0.0282
  284MOL0     H39144   0.110   8.647  11.625 -0.9328 -3.3318 -1.0605
  284MOL0     H39145  -0.053   8.597  11.662 -0.3951  0.5809  0.9771
  284MOL0     H39146   0.059   8.662  11.912 -0.8492  0.9770  1.6431
  284MOL0     H39147   0.152   8.765  11.808 -1.6979  2.3514 -1.5669
  284MOL0     H39148  -0.065   8.864  11.711 -0.5548 -1.9441 -1.4485
  284MOL0     H39149  -0.157   8.774  11.830 -1.0959  0.0351  0.7081
  284MOL0     H39150   0.002   9.167  11.973 -0.1513 -3.9719  1.1210
  284MOL0     H39151  -0.193   9.418  12.090 -0.7387 -1.7308 -0.2372
  284MOL0     H39152  -0.165   9.477  11.929 -2.4138  0.6828  0.4146
  284MOL0     H39153  -0.037   9.387  12.023 -0.8988 -0.2799  2.0998
  284MOL0     H39154  -0.745   9.316  11.728  0.4361  2.6991 -0.9023
  284MOL0     H39155  -0.956   9.460  11.750 -0.2442  3.3739  0.0959
  284MOL0     H39156  -1.110   9.592  12.100  1.8282  0.4626  2.4888
  284MOL0     H39157  -1.017   9.733  12.109 -0.2616 -1.7156  1.1044
  284MOL0     H39158  -1.131   9.856  11.965  1.9131 -0.5512  1.8997
  284MOL0     H39159  -1.248   9.735  11.911 -1.6712 -1.6670  1.0487
  284MOL0     H39160  -1.200   9.809  12.212 -0.4424 -0.2085  1.6923
  284MOL0     H39161  -1.331   9.712  12.147 -0.6572  0.9936 -1.5507
  284MOL0     H39162  -1.448   9.923  12.048  0.5491  2.8541 -1.3705
  284MOL0     H39163  -1.292  10.003  12.061 -0.1423  1.0242  2.1420
  284MOL0     H39164  -1.323   9.958  12.323 -1.4646 -0.2897  0.6076
  284MOL0     H39165  -1.398  10.086  12.226  0.6017  0.3128 -1.6196
  284MOL0     H39166  -1.540   9.825  12.332  0.4387  0.2620 -0.0431
  284MOL0     H39167  -1.606   9.911  12.208 -2.7965 -1.0222  2.4763
  284MOL0     H39168  -1.724  10.011  12.406  1.7992 -1.6821  4.0219
  284MOL0     H39169  -1.634  10.130  12.331  1.3153  0.7928  0.0203
  284MOL0     H39170  -1.592  10.132  12.564  0.2299  0.4198 -0.5020
  284MOL0     H39171  -1.437  10.072  12.502  0.1630 -0.0279 -0.7449
  284MOL0     H39172  -0.801   9.617  12.121  2.2439 -0.5397  1.4401
  284MOL0     H39173  -0.598   9.474  12.076  0.2356 -1.2913  0.4946
  284MOL0     H39174  -0.443   9.087  11.772 -1.0908  0.1025  2.0329
  284MOL0     H39175  -0.309   8.906  11.834 -0.9357 -0.1365  0.1972
  284MOL0     H39176   0.634   7.286  11.600  0.8332  4.0664 -1.1411
  284MOL0     H39177   0.736   7.070  11.615 -4.9224  0.2793  0.4244
  284MOL0     H39178   0.798   6.730  11.451  0.5994  0.5735  1.6026
  284MOL0     H39179   0.806   6.495  11.473 -1.5710  1.5786 -4.7698
  284MOL0     H39180   0.910   6.282  11.632  0.5332 -1.4439 -0.2825
  284MOL0     H39181   0.845   6.270  11.475 -0.2790 -0.8713 -1.0925
  284MOL0     H39182   1.017   6.066  11.441 -0.3396 -0.2787 -0.4463
  284MOL0     H39183   0.875   6.049  11.550  0.2373  0.1503  2.0026
  284MOL0     H39184   1.170   6.089  11.622  0.6013 -3.6028 -0.8655
  284MOL0     H39185   1.034   6.101  11.746  4.0075  0.0566  0.9842
  284MOL0     H39186   0.982   5.878  11.700  0.6421 -1.6853 -0.5727
  284MOL0     H39187   1.141   5.885  11.756  0.5662  2.2386  0.5497
  284MOL0     H39188   1.227   5.681  11.401 -0.0504 -0.5322 -1.0205
  284MOL0     H39189   1.233   6.495  11.467  0.0054 -1.1703 -1.2020
  284MOL0     H39190   1.355   6.707  11.443  1.3205 -0.0006 -3.6143
  284MOL0     H39191   1.295   6.774  11.296 -0.2436 -1.8982  0.3056
  284MOL0     H39192   1.256   6.862  11.440  0.7086  0.7050  0.9373
  285MOL0     O39193   2.197   3.902   5.609 -0.1291 -0.4730 -0.9840
  285MOL0     C39194   2.107   3.953   5.544  0.8836  0.2532 -0.3077
  285MOL0     O39195   1.970   3.925   5.547  0.6921  0.2422  0.3160
  285MOL0     C39196   1.906   3.812   5.603 -0.9829 -0.8000 -0.0869
  285MOL0     C39197   1.773   3.820   5.621  0.5039  0.2674 -0.3372
  285MOL0     C39198   1.705   3.725   5.698 -0.9606 -0.2994  0.3546
  285MOL0     C39199   1.770   3.619   5.749  0.4413  0.8817  1.0109
  285MOL0     O39200   1.706   3.507   5.805  0.2474 -1.0787 -0.2199
  285MOL0     C39201   1.598   3.537   5.906 -0.3957  0.0894  0.8158
  285MOL0     C39202   1.561   3.406   5.968  0.4534 -0.7590 -0.3803
  285MOL0     C39203   1.473   3.424   6.103 -0.6612  0.5903 -0.5851
  285MOL0     C39204   1.343   3.493   6.059  0.0886  0.5072 -0.0867
  285MOL0     C39205   1.260   3.420   5.943 -1.0259  0.8167  0.3324
  285MOL0     C39206   1.202   3.289   5.999 -0.0245 -0.0188 -0.3524
  285MOL0     C39207   1.146   3.193   5.887 -0.6942 -1.8718  0.2052
  285MOL0     C39208   1.030   3.255   5.812 -0.5826 -0.0172  0.5705
  285MOL0     N39209   0.996   3.179   5.690  0.6676  0.4037  0.0373
  285MOL0     C39210   0.900   3.216   5.593 -0.2916 -0.0818  0.0664
  285MOL0     C39211   0.884   3.117   5.518  0.8077  0.6946  0.4091
  285MOL0     C39212   0.783   3.104   5.411  0.1644 -0.4311 -0.1547
  285MOL0     C39213   0.860   3.142   5.277  0.2761  0.8064 -0.2196
  285MOL0     C39214   0.883   3.020   5.195 -0.2214  0.2487 -0.6548
  285MOL0     C39215   0.991   2.923   5.240 -0.8985 -0.8590 -0.6851
  285MOL0     O39216   1.017   2.840   5.128  0.3279  0.5070 -0.4973
  285MOL0     C39217   1.043   2.704   5.150  0.8296 -0.5859 -0.6106
  285MOL0     C39218   1.130   2.662   5.243 -0.3558 -0.7723 -0.1440
  285MOL0     C39219   1.173   2.523   5.259 -0.3481 -0.6417 -0.3508
  285MOL0     C39220   1.273   2.487   5.366  0.3475 -0.0685  0.1383
  285MOL0     C39221   1.115   2.429   5.173  0.1905  0.3057  0.9272
  285MOL0     C39222   1.133   2.284   5.176 -0.2206 -1.4053 -0.2230
  285MOL0     O39223   1.058   2.215   5.087  0.4156 -0.0642  0.2847
  285MOL0     C39224   1.066   2.079   5.060 -0.6131 -1.3208  0.8159
  285MOL0     C39225   1.000   2.039   4.941 -0.6610 -0.3117 -0.1048
  285MOL0     C39226   0.983   1.908   4.918  0.1519  0.7907 -0.6973
  285MOL0     C39227   1.024   1.806   5.012  0.5166 -0.1849 -0.1374
  285MOL0     O39228   1.014   1.676   4.976 -0.6159  0.3269 -0.0754
  285MOL0     C39229   1.086   1.639   4.855 -0.0605 -0.2945 -0.2401
  285MOL0     C39230   1.094   1.484   4.853 -0.0260 -0.0381 -0.2486
  285MOL0     C39231   1.157   1.428   4.995 -0.5192 -0.6823  0.3533
  285MOL0     C39232   1.155   1.276   4.993 -0.6333 -0.0581 -0.5233
  285MOL0     C39233   1.150   1.214   5.136  0.1176 -0.6445  0.6516
  285MOL0     C39234   1.179   1.066   5.131 -0.4780 -0.0687  0.5523
  285MOL0     C39235   1.058   0.975   5.123 -0.1085  0.1686  0.1939
  285MOL0     C39236   1.092   0.826   5.135  0.2440  0.7941 -0.0721
  285MOL0    Cl39237   0.947   0.742   5.219 -0.4193  0.0583 -0.1678
  285MOL0     C39238   1.081   1.847   5.132  0.9125  0.3113 -0.4034
  285MOL0     C39239   1.108   1.981   5.151  0.0221 -0.4395  0.6001
  285MOL0     O39240   1.222   2.235   5.242  0.3707  0.1664  0.0178
  285MOL0     C39241   1.026   2.476   5.068  0.5354  0.0116 -0.5745
  285MOL0     C39242   0.997   2.609   5.058  0.5622  0.4037 -0.1320
  285MOL0     N39243   0.988   3.017   5.540 -0.7663 -0.0449 -0.8421
  285MOL0     N39244   1.045   3.060   5.649 -0.1524 -0.9055 -1.3504
  285MOL0     C39245   1.907   3.614   5.743  0.1283  0.0337  1.5965
  285MOL0     C39246   1.976   3.700   5.657 -0.6435 -0.8099 -0.9203
  285MOL0     C39247   2.136   4.073   5.447 -1.0599  0.8583 -0.3046
  285MOL0     C39248   2.066   4.100   5.329  0.4246 -0.0534 -1.0227
  285MOL0     C39249   2.070   4.221   5.263  0.1905  0.0893  0.1340
  285MOL0     C39250   2.169   4.312   5.291  0.2897 -0.4603  0.3355
  285MOL0     O39251   2.168   4.437   5.236 -0.4384  0.3608 -0.7574
  285MOL0     C39252   2.191   4.551   5.320 -0.7474 -0.1044 -0.9920
  285MOL0     C39253   2.069   4.638   5.295 -0.2020 -0.2658  0.3422
  285MOL0     C39254   2.048   4.673   5.149 -0.4895  0.4131 -0.0444
  285MOL0     C39255   1.928   4.768   5.146  0.6343  0.7580 -0.4351
  285MOL0     C39256   1.952   4.896   5.208 -0.3896 -0.1800 -0.6567
  285MOL0     C39257   1.978   5.008   5.264 -0.3880 -0.2143 -0.9065
  285MOL0     C39258   2.251   4.279   5.396 -1.1766  1.2362 -0.0333
  285MOL0     C39259   2.243   4.165   5.477  1.1027  0.0166 -0.1280
  285MOL0     C39260   2.333   4.154   5.594  0.4033  0.4292  0.0797
  285MOL0     H39261   1.723   3.909   5.584 -0.8084  0.4194  1.6581
  285MOL0     H39262   1.597   3.727   5.709 -1.0150  0.0871 -0.2121
  285MOL0     H39263   1.511   3.580   5.856  0.5808 -0.4268 -1.4812
  285MOL0     H39264   1.631   3.602   5.987 -1.2684  0.4785  0.8660
  285MOL0     H39265   1.514   3.345   5.890  1.5125 -0.7523 -1.0492
  285MOL0     H39266   1.653   3.348   5.985  0.9282 -0.1545 -0.8517
  285MOL0     H39267   1.450   3.323   6.137  0.1733  0.6458  0.1883
  285MOL0     H39268   1.528   3.483   6.177  2.6961 -0.6362 -1.8993
  285MOL0     H39269   1.283   3.512   6.148 -0.3139 -1.6497  0.1584
  285MOL0     H39270   1.360   3.594   6.021  1.5914 -1.2560 -4.8976
  285MOL0     H39271   1.313   3.409   5.848  0.9247  1.0546  1.3497
  285MOL0     H39272   1.170   3.480   5.928 -1.6808  0.4852  2.5721
  285MOL0     H39273   1.275   3.233   6.058 -0.6840 -2.1120 -1.4297
  285MOL0     H39274   1.117   3.308   6.065 -0.8422 -1.0444 -1.0810
  285MOL0     H39275   1.110   3.107   5.944 -1.0954 -0.6898  1.7953
  285MOL0     H39276   1.229   3.175   5.817 -0.1764 -1.5938  0.7437
  285MOL0     H39277   0.948   3.230   5.880 -0.5263 -3.9333 -0.5512
  285MOL0     H39278   1.039   3.363   5.800 -1.1521 -0.2512 -2.7312
  285MOL0     H39279   0.854   3.314   5.583 -1.4088 -0.7304 -1.5212
  285MOL0     H39280   0.711   3.186   5.425 -0.5408 -0.9821 -0.5237
  285MOL0     H39281   0.742   3.003   5.418  0.9046 -0.8983 -2.0527
  285MOL0     H39282   0.788   3.200   5.220 -2.9708 -0.2788  2.4224
  285MOL0     H39283   0.947   3.208   5.280  1.0097 -0.1172 -0.5419
  285MOL0     H39284   0.786   2.970   5.183 -1.4130  2.7152 -1.8786
  285MOL0     H39285   0.901   3.058   5.094 -0.9002 -0.7311 -1.1624
  285MOL0     H39286   1.081   2.977   5.272 -3.0447  1.7504  1.3939
  285MOL0     H39287   0.955   2.864   5.325  1.2039 -0.7925  0.3135
  285MOL0     H39288   1.178   2.731   5.312  1.6757 -3.4015  1.2695
  285MOL0     H39289   1.357   2.442   5.313 -1.3619  0.5402 -3.3966
  285MOL0     H39290   1.232   2.410   5.433 -0.9840  0.4800 -0.0136
  285MOL0     H39291   1.299   2.567   5.435 -3.1237  0.0747  1.5025
  285MOL0     H39292   0.968   2.108   4.864  0.3627 -0.1084 -0.3602
  285MOL0     H39293   0.937   1.875   4.826  3.2063 -0.6857 -1.8209
  285MOL0     H39294   1.029   1.672   4.767  2.8519  0.6229 -1.9170
  285MOL0     H39295   1.188   1.677   4.858 -0.8202  2.3635  5.4527
  285MOL0     H39296   0.990   1.452   4.841  0.1234 -1.6207  2.0747
  285MOL0     H39297   1.154   1.456   4.766  0.3735  2.8605 -1.0112
  285MOL0     H39298   1.098   1.468   5.078  1.0500  0.8058  0.8111
  285MOL0     H39299   1.260   1.465   5.001 -1.0954  1.4738 -1.6382
  285MOL0     H39300   1.251   1.263   4.942  0.7740  3.4863  0.9483
  285MOL0     H39301   1.065   1.248   4.937 -2.2163 -1.1375  2.3974
  285MOL0     H39302   1.227   1.265   5.194  0.6090 -0.8646  0.2027
  285MOL0     H39303   1.057   1.252   5.179  0.8420 -0.1653  1.8470
  285MOL0     H39304   1.220   1.054   5.231 -0.4571 -1.0994  0.4300
  285MOL0     H39305   1.255   1.034   5.058 -3.1357 -1.5267 -1.7779
  285MOL0     H39306   1.008   1.002   5.030  1.4806  2.0339 -0.1760
  285MOL0     H39307   0.980   1.001   5.195 -0.1156 -1.0857  0.6649
  285MOL0     H39308   1.180   0.808   5.198 -1.3939 -4.3030  1.2199
  285MOL0     H39309   1.120   0.779   5.041 -0.0471  0.2528  0.1102
  285MOL0     H39310   1.099   1.772   5.208 -1.2387 -0.5829 -0.6849
  285MOL0     H39311   1.157   2.004   5.245  1.3935 -0.5857 -0.0460
  285MOL0     H39312   0.963   2.419   5.001 -4.4372  0.8724  2.8225
  285MOL0     H39313   0.930   2.624   4.975  0.2733 -2.6474 -0.5503
  285MOL0     H39314   1.959   3.526   5.778  0.9608 -0.7666 -1.3791
  285MOL0     H39315   2.083   3.707   5.646 -0.6805  0.9387 -0.5017
  285MOL0     H39316   1.982   4.033   5.309 -1.1288  0.8225  1.9927
  285MOL0     H39317   2.009   4.232   5.174  2.3189 -0.4652 -1.4678
  285MOL0     H39318   2.207   4.531   5.426  1.7466  1.4318 -0.9868
  285MOL0     H39319   2.274   4.613   5.284 -1.9236  1.7939 -0.5807
  285MOL0     H39320   2.095   4.730   5.348 -1.2601  1.7696 -2.4338
  285MOL0     H39321   1.978   4.598   5.341 -2.5717  2.0715 -1.9422
  285MOL0     H39322   2.132   4.721   5.099  0.6791  1.8218  3.0731
  285MOL0     H39323   2.014   4.584   5.094 -1.9451  0.3656  0.8809
  285MOL0     H39324   1.845   4.715   5.194  0.2753 -0.0639 -1.9188
  285MOL0     H39325   1.918   4.793   5.040  2.3108  2.1552 -0.3144
  285MOL0     H39326   1.995   5.107   5.301  1.7408 -0.5058 -0.9942
  285MOL0     H39327   2.339   4.341   5.410 -0.2302 -0.1148  0.2298
  285MOL0     H39328   2.387   4.058   5.601 -2.6357 -1.3188  1.5004
  285MOL0     H39329   2.418   4.222   5.607  1.0681  0.0300 -1.7510
  285MOL0     H39330   2.272   4.157   5.685 -0.8832  0.0886 -0.7451
  286MOL0     O39331   7.982   5.386   1.220 -0.4184  0.9335  0.3246
  286MOL0     C39332   7.990   5.337   1.330 -0.9966 -0.1420 -0.5077
  286MOL0     O39333   7.967   5.404   1.446  0.5841 -0.7458 -0.2340
  286MOL0     C39334   7.957   5.543   1.433 -0.7336 -0.6042 -0.1808
  286MOL0     C39335   8.063   5.636   1.474 -0.2607 -0.0949  1.3437
  286MOL0     C39336   8.039   5.775   1.453 -0.1432 -0.0308 -0.4993
  286MOL0     C39337   7.914   5.826   1.399 -0.5639  0.3162  0.7427
  286MOL0     O39338   7.916   5.962   1.356 -0.1806  0.6969 -0.2701
  286MOL0     C39339   7.833   6.011   1.254 -0.0779  0.0142  0.2468
  286MOL0     C39340   7.810   6.160   1.271 -0.1657  0.1314  0.8044
  286MOL0     C39341   7.739   6.170   1.406 -0.9363  0.0079  0.7419
  286MOL0     C39342   7.691   6.313   1.426  0.2010 -0.5763 -0.0618
  286MOL0     C39343   7.566   6.318   1.526 -0.4541 -0.4851  0.3484
  286MOL0     C39344   7.616   6.281   1.661 -0.0124 -0.0669 -0.7338
  286MOL0     C39345   7.518   6.296   1.782 -0.2772 -0.0863  0.2360
  286MOL0     C39346   7.429   6.173   1.788  0.0544  0.0518 -0.2130
  286MOL0     N39347   7.312   6.160   1.685 -0.6158 -0.0722 -1.0651
  286MOL0     C39348   7.220   6.259   1.642 -0.7546 -0.9867 -0.1644
  286MOL0     C39349   7.118   6.191   1.584  0.4152  0.9595  0.1452
  286MOL0     C39350   7.005   6.249   1.502  0.0070  0.7039  0.2990
  286MOL0     C39351   6.891   6.302   1.584 -0.0727  0.4023  0.1010
  286MOL0     C39352   6.785   6.386   1.488 -0.1920 -1.1176 -0.8029
  286MOL0     C39353   6.849   6.524   1.478  0.3029 -0.2257  0.2635
  286MOL0     O39354   6.758   6.616   1.410 -0.0352  0.4829 -0.5124
  286MOL0     C39355   6.812   6.744   1.383  0.1336  0.2135 -0.2880
  286MOL0     C39356   6.756   6.845   1.458 -0.3462 -0.4678 -0.6438
  286MOL0     C39357   6.812   6.981   1.440  0.1877  0.8115  0.2705
  286MOL0     C39358   6.740   7.085   1.515 -0.1858 -0.0835  0.9681
  286MOL0     C39359   6.911   7.013   1.346  0.1929  0.5094  0.0850
  286MOL0     C39360   6.977   7.142   1.310 -0.5995 -0.7772 -0.9211
  286MOL0     O39361   7.099   7.139   1.246 -0.6786 -0.0936  0.0286
  286MOL0     C39362   7.169   7.256   1.228 -0.6583  0.4367  0.1961
  286MOL0     C39363   7.235   7.317   1.335 -0.1162 -0.0251 -0.7356
  286MOL0     C39364   7.305   7.431   1.323 -0.1212 -1.4244 -0.0239
  286MOL0     C39365   7.327   7.485   1.195 -0.5398  1.1339  0.1004
  286MOL0     O39366   7.406   7.593   1.182  0.6947  0.1805 -0.1049
  286MOL0     C39367   7.393   7.681   1.067 -0.7155 -0.8230  0.4739
  286MOL0     C39368   7.492   7.803   1.076  0.1049 -0.0236  0.4638
  286MOL0     C39369   7.435   7.916   1.157  0.5949 -0.9688  0.5931
  286MOL0     C39370   7.534   8.024   1.182 -0.5544 -0.5392  0.3321
  286MOL0     C39371   7.494   8.118   1.288  0.6345  0.8853  0.7234
  286MOL0     C39372   7.478   8.049   1.426  0.5122  0.9995 -0.9453
  286MOL0     C39373   7.455   8.147   1.546  0.1310 -0.3806  1.0278
  286MOL0     C39374   7.584   8.170   1.640 -0.6603  0.6167  0.7996
  286MOL0    Cl39375   7.677   8.332   1.655  0.0756  0.3499  0.1821
  286MOL0     C39376   7.265   7.426   1.090 -0.6149 -0.2147 -0.3978
  286MOL0     C39377   7.182   7.311   1.101  0.8456 -0.7373  0.0554
  286MOL0     O39378   6.912   7.248   1.345 -0.0552 -0.8336  0.8152
  286MOL0     C39379   6.947   6.900   1.273 -1.1702  0.4006 -0.6506
  286MOL0     C39380   6.902   6.768   1.288  0.5728  0.7505 -0.4263
  286MOL0     N39381   7.155   6.054   1.583  0.0881 -0.0410  0.4238
  286MOL0     N39382   7.263   6.038   1.644 -0.3744  0.9109 -0.0861
  286MOL0     C39383   7.810   5.736   1.371 -0.5796 -0.1027  0.0094
  286MOL0     C39384   7.834   5.593   1.389  0.0389 -0.3328  0.1688
  286MOL0     C39385   8.063   5.211   1.352  0.1204  0.0061  0.6239
  286MOL0     C39386   8.142   5.195   1.466  1.4071 -0.2904  0.4823
  286MOL0     C39387   8.216   5.083   1.498  0.7063 -0.5513 -1.1721
  286MOL0     C39388   8.214   4.971   1.417  0.3751 -0.2220 -0.8340
  286MOL0     O39389   8.280   4.861   1.461  0.1347  0.7205 -0.5549
  286MOL0     C39390   8.304   4.747   1.383 -0.5901 -0.2778 -0.0266
  286MOL0     C39391   8.460   4.717   1.358  0.9648 -0.0556 -0.5550
  286MOL0     C39392   8.473   4.603   1.252 -0.1440 -0.3058  0.4956
  286MOL0     C39393   8.619   4.582   1.228  0.9150  0.2679 -0.5845
  286MOL0     C39394   8.645   4.497   1.105 -0.0971  0.0229 -0.6343
  286MOL0     C39395   8.662   4.423   1.008  0.5138 -0.3195  0.3839
  286MOL0     C39396   8.141   4.986   1.298 -0.5656  0.3178 -0.2124
  286MOL0     C39397   8.065   5.099   1.265 -0.3362 -0.8433 -0.6957
  286MOL0     C39398   8.000   5.099   1.139  1.2401 -0.0172  0.2228
  286MOL0     H39399   8.154   5.600   1.521  2.2613  0.5953 -2.5642
  286MOL0     H39400   8.123   5.841   1.467  0.7827 -0.9579 -1.4286
  286MOL0     H39401   7.739   5.955   1.258  1.3264 -2.4566  3.7611
  286MOL0     H39402   7.881   5.994   1.157 -1.1971  1.7642 -0.6646
  286MOL0     H39403   7.904   6.217   1.268  0.4822 -0.8202 -3.2995
  286MOL0     H39404   7.749   6.194   1.187 -1.0576  0.8776  1.7313
  286MOL0     H39405   7.662   6.094   1.421 -0.4459 -1.0339 -1.5385
  286MOL0     H39406   7.813   6.156   1.485 -0.9045 -0.3408  0.6532
  286MOL0     H39407   7.767   6.383   1.462 -0.6232  0.5338 -0.4386
  286MOL0     H39408   7.644   6.352   1.335  3.8529  1.4832 -1.2857
  286MOL0     H39409   7.486   6.254   1.487 -0.7286  0.5197 -0.8021
  286MOL0     H39410   7.530   6.422   1.528 -1.5869 -0.8039 -1.3160
  286MOL0     H39411   7.653   6.178   1.666 -0.2815 -0.1142  0.5747
  286MOL0     H39412   7.702   6.341   1.693 -0.5392  1.1611 -1.5463
  286MOL0     H39413   7.456   6.383   1.763 -0.9288 -0.7686 -0.8933
  286MOL0     H39414   7.564   6.306   1.881  1.3918  0.0878 -0.5257
  286MOL0     H39415   7.488   6.083   1.768  0.9855  0.7129 -0.5019
  286MOL0     H39416   7.386   6.157   1.887 -0.1554  2.4450  0.1516
  286MOL0     H39417   7.229   6.367   1.647 -4.5953 -0.4944 -0.5694
  286MOL0     H39418   6.966   6.184   1.424 -1.0441  2.0668 -0.3565
  286MOL0     H39419   7.057   6.325   1.442  1.4479 -0.9769 -0.6670
  286MOL0     H39420   6.839   6.218   1.630  0.4393  0.8018  1.4803
  286MOL0     H39421   6.928   6.360   1.669  1.4732 -0.8471  0.3298
  286MOL0     H39422   6.769   6.331   1.396 -4.2151 -0.1703 -0.8758
  286MOL0     H39423   6.689   6.383   1.541  0.8056  1.3064  1.3979
  286MOL0     H39424   6.874   6.563   1.577  2.8932  2.5580 -1.3268
  286MOL0     H39425   6.946   6.516   1.428 -0.1586 -1.3515 -0.5150
  286MOL0     H39426   6.686   6.827   1.539  0.8293  1.1658  0.8044
  286MOL0     H39427   6.811   7.142   1.577 -1.0522  1.1541  0.8720
  286MOL0     H39428   6.655   7.059   1.579 -0.6082 -0.7327  0.1654
  286MOL0     H39429   6.705   7.156   1.440  0.8831  1.7171  2.0878
  286MOL0     H39430   7.240   7.269   1.432  2.6320  1.8008  0.1467
  286MOL0     H39431   7.355   7.480   1.406 -0.2557  2.1220 -1.8599
  286MOL0     H39432   7.420   7.627   0.976  2.6767 -0.6775  1.2365
  286MOL0     H39433   7.292   7.719   1.054 -0.7519 -0.9977  0.2427
  286MOL0     H39434   7.579   7.765   1.130  1.0000 -2.7191 -2.4999
  286MOL0     H39435   7.514   7.836   0.974 -1.3875 -2.1132 -0.6169
  286MOL0     H39436   7.390   7.877   1.249  1.0167  1.4000  1.8823
  286MOL0     H39437   7.352   7.961   1.100  1.2952 -0.0801  0.2377
  286MOL0     H39438   7.537   8.089   1.095 -1.3892  3.3762  2.9727
  286MOL0     H39439   7.639   7.991   1.188  0.1663  1.3900 -0.8265
  286MOL0     H39440   7.584   8.180   1.295  2.8838 -1.8607 -1.1772
  286MOL0     H39441   7.408   8.183   1.267 -0.7823 -0.3271  2.4887
  286MOL0     H39442   7.573   7.995   1.437 -0.6082 -0.8959 -0.2003
  286MOL0     H39443   7.401   7.971   1.419  0.9223  0.6603 -1.8794
  286MOL0     H39444   7.382   8.105   1.616 -2.1147  2.0929  0.3372
  286MOL0     H39445   7.414   8.242   1.509 -3.3662 -2.8253 -2.0388
  286MOL0     H39446   7.661   8.095   1.622  1.1320  2.0398  2.1374
  286MOL0     H39447   7.536   8.157   1.738 -1.4426  3.4113  0.8654
  286MOL0     H39448   7.279   7.460   0.988 -1.2409 -1.6577 -0.9928
  286MOL0     H39449   7.143   7.260   1.013  0.7153  0.4527 -0.5946
  286MOL0     H39450   7.013   6.910   1.187  0.4918  0.5027  0.6041
  286MOL0     H39451   6.932   6.692   1.216  0.7589 -1.5929  2.0000
  286MOL0     H39452   7.716   5.763   1.325 -0.4763 -0.3703 -0.3652
  286MOL0     H39453   7.769   5.521   1.339 -3.1297  2.0212  0.5812
  286MOL0     H39454   8.139   5.276   1.538  0.8221 -2.1637  2.6676
  286MOL0     H39455   8.261   5.074   1.597  1.2447 -2.2255 -1.5383
  286MOL0     H39456   8.266   4.665   1.445  2.9730 -0.3857  2.2896
  286MOL0     H39457   8.239   4.752   1.295 -0.3167  3.2530 -0.1552
  286MOL0     H39458   8.508   4.681   1.450 -1.5804 -4.1793 -0.6145
  286MOL0     H39459   8.504   4.809   1.318 -0.0319  1.6350  1.9181
  286MOL0     H39460   8.416   4.515   1.283  0.4253  0.1688  3.0882
  286MOL0     H39461   8.430   4.628   1.154  0.8106 -1.3788 -0.2167
  286MOL0     H39462   8.664   4.540   1.318 -2.0533 -1.7720  0.0955
  286MOL0     H39463   8.681   4.672   1.217 -0.9177  1.5866 -0.5575
  286MOL0     H39464   8.675   4.351   0.929 -3.6265 -1.9287  0.9372
  286MOL0     H39465   8.130   4.902   1.229 -1.9332 -0.7421  1.2114
  286MOL0     H39466   7.946   5.004   1.136  1.5635 -0.2303  1.0608
  286MOL0     H39467   7.931   5.182   1.123 -0.8853 -1.1733  2.6888
  286MOL0     H39468   8.075   5.111   1.060  0.7970 -0.2635 -0.2424
  287MOL0     O39469   3.006   5.866   2.933  0.2375 -1.4785  0.1109
  287MOL0     C39470   2.891   5.880   2.960  0.2222 -0.9315 -0.5760
  287MOL0     O39471   2.814   5.979   2.928 -0.1521 -0.3660 -0.3738
  287MOL0     C39472   2.857   6.092   2.863 -0.8820 -0.1802 -0.4644
  287MOL0     C39473   2.777   6.199   2.894 -0.0806  0.7170  0.1764
  287MOL0     C39474   2.807   6.326   2.842 -0.3298 -0.5814 -1.0019
  287MOL0     C39475   2.928   6.350   2.762  0.5127 -1.2442 -0.7932
  287MOL0     O39476   2.967   6.479   2.723 -0.4018 -0.7663  0.7530
  287MOL0     C39477   2.926   6.598   2.793  0.1955  0.2547  0.8955
  287MOL0     C39478   2.974   6.712   2.717  0.1389 -0.2081 -0.7481
  287MOL0     C39479   3.019   6.838   2.805  0.1005  0.6777 -0.3399
  287MOL0     C39480   3.169   6.830   2.857  0.3154 -0.5184 -0.2837
  287MOL0     C39481   3.187   6.954   2.943  0.0807 -0.3856 -0.3356
  287MOL0     C39482   3.312   6.938   3.026  0.0447  0.5668  0.1777
  287MOL0     C39483   3.298   6.846   3.151 -0.3261  0.3003  0.0916
  287MOL0     C39484   3.427   6.839   3.235  0.5117 -0.1139  0.4623
  287MOL0     N39485   3.414   6.775   3.367 -0.0016  0.4321  0.2527
  287MOL0     C39486   3.517   6.724   3.441  0.3466 -0.3317  0.2014
  287MOL0     C39487   3.471   6.707   3.568 -0.5375  0.7322 -0.0301
  287MOL0     C39488   3.553   6.665   3.689  0.4077  0.0353  0.1293
  287MOL0     C39489   3.594   6.792   3.771 -0.0533  1.5356 -0.1501
  287MOL0     C39490   3.693   6.755   3.881  0.1456 -0.7559 -0.4290
  287MOL0     C39491   3.642   6.666   3.990  0.9077 -0.7422  1.0941
  287MOL0     O39492   3.745   6.620   4.072 -0.0144 -0.3438  0.6486
  287MOL0     C39493   3.797   6.693   4.178  0.0924  0.2389  0.5741
  287MOL0     C39494   3.752   6.817   4.218 -0.0794  0.7710 -0.5021
  287MOL0     C39495   3.819   6.882   4.328 -0.7426  0.1270 -1.2541
  287MOL0     C39496   3.768   7.025   4.368 -0.2943  0.4027  0.2566
  287MOL0     C39497   3.934   6.819   4.384 -0.4835 -0.3028  0.6436
  287MOL0     C39498   4.011   6.887   4.490 -0.6298  0.8253 -0.6163
  287MOL0     O39499   4.142   6.852   4.485 -0.6788 -0.0800  0.3358
  287MOL0     C39500   4.221   6.964   4.505 -0.0030 -0.2510  0.4519
  287MOL0     C39501   4.233   7.071   4.419  0.6791 -0.6661 -0.2382
  287MOL0     C39502   4.309   7.186   4.439 -0.1505 -0.3790 -0.2782
  287MOL0     C39503   4.360   7.205   4.573  1.0821  0.9437 -0.8151
  287MOL0     O39504   4.430   7.313   4.610  0.0265 -0.5331 -0.0487
  287MOL0     C39505   4.562   7.295   4.670  0.1442 -0.2669 -0.7051
  287MOL0     C39506   4.592   7.421   4.756  0.4399  0.6290 -0.0156
  287MOL0     C39507   4.476   7.430   4.856 -0.4547  0.9930 -0.3944
  287MOL0     C39508   4.539   7.506   4.971 -0.3543  0.3883 -0.3172
  287MOL0     C39509   4.426   7.537   5.084  0.2736  0.1482  0.0464
  287MOL0     C39510   4.383   7.413   5.152  0.2323  0.7823  0.4851
  287MOL0     C39511   4.303   7.435   5.277 -0.3136 -0.2025 -0.3510
  287MOL0     C39512   4.288   7.311   5.363  0.3129 -0.2440 -0.7318
  287MOL0    Cl39513   4.167   7.335   5.498 -0.1614  0.3805  0.7228
  287MOL0     C39514   4.335   7.107   4.671  0.4680  0.4255  0.9352
  287MOL0     C39515   4.268   6.988   4.637  0.8615  0.1913 -0.3475
  287MOL0     O39516   3.961   6.961   4.572 -0.8154  0.2239 -0.1240
  287MOL0     C39517   3.966   6.688   4.344  1.0063  0.3013 -0.2180
  287MOL0     C39518   3.903   6.624   4.239  1.0873 -0.1805 -0.6502
  287MOL0     N39519   3.337   6.740   3.568  0.1477  0.1741  0.2149
  287MOL0     N39520   3.304   6.774   3.444  0.0451 -0.4734 -0.0483
  287MOL0     C39521   3.007   6.238   2.731  0.7305 -0.8655  0.1782
  287MOL0     C39522   2.973   6.113   2.782  0.4441  0.6671 -0.1538
  287MOL0     C39523   2.822   5.781   3.043  0.0620  0.6751 -0.3553
  287MOL0     C39524   2.709   5.811   3.128 -0.7333 -0.4297  0.6678
  287MOL0     C39525   2.647   5.720   3.207 -0.3595  0.7811 -0.5516
  287MOL0     C39526   2.697   5.589   3.220  0.4416  0.1171 -0.4799
  287MOL0     O39527   2.640   5.493   3.298  0.7359  0.1426 -0.2011
  287MOL0     C39528   2.542   5.532   3.395  0.4875  0.0876  0.3973
  287MOL0     C39529   2.492   5.421   3.484 -0.4830  0.0315 -0.5704
  287MOL0     C39530   2.475   5.297   3.412 -0.2735 -0.0198 -0.8146
  287MOL0     C39531   2.411   5.194   3.496 -0.8381  0.1027  0.4740
  287MOL0     C39532   2.383   5.063   3.428 -0.4244  0.4820  0.9162
  287MOL0     C39533   2.391   4.948   3.374 -0.2515  0.1058  0.4183
  287MOL0     C39534   2.807   5.550   3.135  0.1538  0.0861 -0.9067
  287MOL0     C39535   2.861   5.643   3.050  0.7598  0.2885  0.1067
  287MOL0     C39536   2.954   5.593   2.947  0.4387  0.9876  0.8236
  287MOL0     H39537   2.686   6.191   2.952  0.6051  2.7300  1.6329
  287MOL0     H39538   2.745   6.413   2.859  1.4050  1.1054 -2.7363
  287MOL0     H39539   2.975   6.606   2.891  0.6438 -0.3376  0.7245
  287MOL0     H39540   2.817   6.612   2.799 -0.2202 -1.7933 -0.5613
  287MOL0     H39541   3.062   6.677   2.662  0.1946  0.6290 -1.2079
  287MOL0     H39542   2.894   6.739   2.648 -0.6525 -1.4010 -0.3153
  287MOL0     H39543   3.022   6.922   2.736 -0.5021 -2.2449 -4.2759
  287MOL0     H39544   2.944   6.868   2.879  1.6887 -1.2826  2.2520
  287MOL0     H39545   3.163   6.739   2.918  0.3866 -0.7401 -0.6062
  287MOL0     H39546   3.239   6.817   2.774 -1.0448  0.9753 -1.7510
  287MOL0     H39547   3.107   6.966   3.017  0.7476 -0.9017  0.4902
  287MOL0     H39548   3.191   7.048   2.887  0.4659  0.6559  1.3750
  287MOL0     H39549   3.388   6.900   2.957 -0.2540 -0.5976  0.4687
  287MOL0     H39550   3.335   7.036   3.068  0.5402  1.4036 -1.8788
  287MOL0     H39551   3.280   6.741   3.126 -0.6168  0.0404  1.3146
  287MOL0     H39552   3.212   6.875   3.213  0.2466 -1.5730  1.8775
  287MOL0     H39553   3.511   6.806   3.174  2.9806 -0.7926  3.9417
  287MOL0     H39554   3.448   6.941   3.267  3.4436  0.9485 -4.0117
  287MOL0     H39555   3.614   6.696   3.402 -0.2008  1.5301 -2.8219
  287MOL0     H39556   3.638   6.602   3.661  0.4382 -0.2469  0.8462
  287MOL0     H39557   3.484   6.603   3.747 -3.9135  1.3079 -3.0823
  287MOL0     H39558   3.640   6.863   3.701  4.6820 -1.0292 -0.0861
  287MOL0     H39559   3.509   6.832   3.827  0.1674  0.6978  0.8128
  287MOL0     H39560   3.781   6.717   3.827  1.2609  1.0537  0.0138
  287MOL0     H39561   3.726   6.851   3.923 -1.0216 -1.4198  2.1910
  287MOL0     H39562   3.573   6.734   4.041  2.0471  1.4061 -0.0933
  287MOL0     H39563   3.575   6.589   3.950  0.1735  0.4273 -0.0038
  287MOL0     H39564   3.662   6.855   4.172 -3.4631 -0.1452  4.5835
  287MOL0     H39565   3.716   7.069   4.282  0.1735 -1.4154 -1.0316
  287MOL0     H39566   3.842   7.093   4.411  1.0007 -0.9581  0.2726
  287MOL0     H39567   3.696   7.008   4.448  0.8167 -1.5774  0.8856
  287MOL0     H39568   4.193   7.049   4.321 -1.4459 -1.3858  0.7387
  287MOL0     H39569   4.328   7.262   4.364 -1.0910  1.1880  1.0211
  287MOL0     H39570   4.553   7.215   4.744 -2.6293  1.2804  0.8176
  287MOL0     H39571   4.635   7.268   4.593  1.1808  0.3283  0.0534
  287MOL0     H39572   4.684   7.397   4.810 -1.0197  0.0946  2.4096
  287MOL0     H39573   4.603   7.512   4.698  5.9308  1.7342  2.1814
  287MOL0     H39574   4.432   7.340   4.900  0.1400  0.3466 -1.0929
  287MOL0     H39575   4.395   7.476   4.799 -0.7860  0.3209 -0.4788
  287MOL0     H39576   4.592   7.595   4.934 -0.1165  0.6891  0.6968
  287MOL0     H39577   4.614   7.442   5.018 -3.2733 -2.5099  0.7546
  287MOL0     H39578   4.455   7.612   5.159 -1.5337  1.6577 -0.6779
  287MOL0     H39579   4.336   7.571   5.033 -1.2160 -0.8422  1.9023
  287MOL0     H39580   4.469   7.348   5.174  1.0896  1.5841 -0.3940
  287MOL0     H39581   4.318   7.355   5.086  1.9668 -2.2055  1.2054
  287MOL0     H39582   4.211   7.485   5.243  0.2449  2.3495  1.5864
  287MOL0     H39583   4.359   7.511   5.333 -0.9821  0.6684 -0.8270
  287MOL0     H39584   4.386   7.302   5.410 -0.7846  1.8079  2.2655
  287MOL0     H39585   4.264   7.227   5.296 -0.2678 -2.2290  1.7898
  287MOL0     H39586   4.382   7.110   4.768 -1.7068 -3.9903  2.4177
  287MOL0     H39587   4.249   6.916   4.716  1.5847 -0.0853 -0.4131
  287MOL0     H39588   4.030   6.623   4.403 -0.0912 -0.6514 -0.0521
  287MOL0     H39589   3.934   6.525   4.206 -0.7115 -0.6738 -0.9661
  287MOL0     H39590   3.092   6.243   2.664 -1.0529 -1.1492 -2.2244
  287MOL0     H39591   3.047   6.036   2.764 -2.1371 -2.1916  0.6713
  287MOL0     H39592   2.664   5.910   3.119 -0.3409 -0.2992  0.1289
  287MOL0     H39593   2.557   5.751   3.258 -0.1198 -1.7640  1.6318
  287MOL0     H39594   2.575   5.615   3.458 -0.8055  0.2597  0.8721
  287MOL0     H39595   2.462   5.573   3.333  1.6039  0.7206 -0.6619
  287MOL0     H39596   2.397   5.443   3.534  0.5490 -1.0036  2.0225
  287MOL0     H39597   2.567   5.402   3.561 -0.9229  0.9029  0.0959
  287MOL0     H39598   2.422   5.332   3.323 -0.1325  1.9493 -0.1617
  287MOL0     H39599   2.573   5.253   3.388 -0.4292 -0.1337 -1.2486
  287MOL0     H39600   2.313   5.229   3.530 -1.4604 -0.1446 -0.9715
  287MOL0     H39601   2.470   5.175   3.587  1.0729 -1.7928 -1.0598
  287MOL0     H39602   2.381   4.849   3.335  1.5484  0.0454  0.0302
  287MOL0     H39603   2.817   5.442   3.139  2.9154  0.2985  2.5084
  287MOL0     H39604   2.926   5.616   2.844  0.8599  0.9238  0.6903
  287MOL0     H39605   3.056   5.627   2.969  1.3224 -1.6521  1.1104
  287MOL0     H39606   2.969   5.487   2.969  1.2244  0.8096 -0.4790
  288MOL0     O39607   2.889   9.376   1.361 -0.0459 -0.0159 -0.4561
  288MOL0     C39608   2.911   9.497   1.378  0.3774 -0.5034  0.5843
  288MOL0     O39609   3.041   9.548   1.417  0.0563 -0.5068  0.6067
  288MOL0     C39610   3.148   9.457   1.414  1.0017 -0.4699 -0.2413
  288MOL0     C39611   3.261   9.488   1.331  0.8696  0.3361 -0.6903
  288MOL0     C39612   3.348   9.386   1.297  0.3854 -0.0870 -0.1571
  288MOL0     C39613   3.348   9.261   1.347  1.2250  0.7358 -0.6552
  288MOL0     O39614   3.445   9.170   1.313  0.1083  0.6837  0.7390
  288MOL0     C39615   3.460   9.050   1.390  0.3869 -0.2339  0.0537
  288MOL0     C39616   3.574   8.964   1.345 -0.6442 -0.0908  0.4463
  288MOL0     C39617   3.714   9.023   1.379  0.3073  0.5996  0.6695
  288MOL0     C39618   3.808   8.912   1.434 -0.1043 -0.1331 -0.0267
  288MOL0     C39619   3.955   8.967   1.457 -0.0661  0.1953  0.4295
  288MOL0     C39620   3.960   9.061   1.589 -0.0295  0.2224 -0.1505
  288MOL0     C39621   3.955   8.984   1.715  0.5438 -0.6946 -0.0679
  288MOL0     C39622   4.088   8.928   1.759 -0.2341 -0.5030  0.3458
  288MOL0     N39623   4.072   8.811   1.844  0.3674 -0.4212 -0.2904
  288MOL0     C39624   4.042   8.679   1.812  0.4037  0.1833 -0.4079
  288MOL0     C39625   3.985   8.624   1.922 -0.4110  0.0831  0.6220
  288MOL0     C39626   3.936   8.482   1.937 -0.5711 -0.1529 -1.2964
  288MOL0     C39627   4.036   8.369   1.896  0.9502  0.3024  0.0126
  288MOL0     C39628   4.164   8.367   1.970  0.0365 -0.3253 -0.3996
  288MOL0     C39629   4.145   8.375   2.118  0.7719 -0.3334 -0.2205
  288MOL0     O39630   4.270   8.352   2.183 -0.4601  0.0067  0.1355
  288MOL0     C39631   4.282   8.404   2.312  0.5185  0.2975 -0.0201
  288MOL0     C39632   4.291   8.314   2.421 -0.2366  0.3227  0.5306
  288MOL0     C39633   4.333   8.356   2.550  0.1064  0.2395 -0.4299
  288MOL0     C39634   4.352   8.254   2.660  0.7572  0.6090 -0.4993
  288MOL0     C39635   4.354   8.499   2.564  0.5199  0.2066 -0.6383
  288MOL0     C39636   4.385   8.560   2.698 -0.0267 -0.7089  0.0132
  288MOL0     O39637   4.446   8.674   2.712  0.2573 -0.6510 -0.0972
  288MOL0     C39638   4.463   8.737   2.830  0.8119  0.0285 -0.6860
  288MOL0     C39639   4.458   8.876   2.832 -0.4259 -0.5605 -0.2045
  288MOL0     C39640   4.477   8.947   2.949 -0.1282  0.1974  0.3721
  288MOL0     C39641   4.499   8.875   3.073 -0.3842  0.9724  0.1507
  288MOL0     O39642   4.497   8.940   3.198  0.1027 -0.4131  0.4173
  288MOL0     C39643   4.521   9.082   3.194  0.3946 -0.2456  0.3927
  288MOL0     C39644   4.604   9.119   3.314 -1.0328 -0.1714 -0.1390
  288MOL0     C39645   4.732   9.030   3.339  0.4730  0.1049  0.3989
  288MOL0     C39646   4.854   9.084   3.272 -0.4581 -0.3210 -0.6718
  288MOL0     C39647   4.964   8.972   3.281  0.6103 -0.0822  0.4763
  288MOL0     C39648   5.079   8.972   3.177  0.5579  1.2661 -0.3349
  288MOL0     C39649   5.202   8.890   3.226 -0.0592  0.2554 -0.3985
  288MOL0     C39650   5.328   8.914   3.141 -0.4331  0.0356  1.0085
  288MOL0    Cl39651   5.304   8.852   2.967  0.2363 -0.4769  0.0124
  288MOL0     C39652   4.514   8.733   3.072  1.1598  0.7446 -0.2087
  288MOL0     C39653   4.490   8.667   2.945  0.5448  0.1868  0.5272
  288MOL0     O39654   4.331   8.503   2.792 -0.0941  0.8035  0.9090
  288MOL0     C39655   4.366   8.583   2.449  0.3288 -0.3777 -0.0966
  288MOL0     C39656   4.319   8.535   2.327  0.2160 -0.8500  0.0555
  288MOL0     N39657   3.973   8.718   2.018 -0.0081 -0.3240  0.1985
  288MOL0     N39658   4.020   8.822   1.969 -0.4256  0.1919 -0.3712
  288MOL0     C39659   3.244   9.233   1.448  0.1027  0.1167 -1.0656
  288MOL0     C39660   3.151   9.339   1.488 -0.2222  1.0803 -0.2274
  288MOL0     C39661   2.803   9.588   1.364 -0.1155  0.2663  0.2356
  288MOL0     C39662   2.826   9.726   1.364  0.1838  0.5133 -0.3715
  288MOL0     C39663   2.727   9.816   1.357 -0.0525  0.4511  0.0347
  288MOL0     C39664   2.590   9.780   1.366  0.5681 -1.5550  0.6474
  288MOL0     O39665   2.484   9.868   1.385  0.4172  0.3257  0.1281
  288MOL0     C39666   2.483  10.006   1.355 -0.3298  0.1162 -0.0839
  288MOL0     C39667   2.505  10.097   1.483 -0.0185 -0.0029  0.0539
  288MOL0     C39668   2.513  10.249   1.484  0.9506  0.0528 -0.2706
  288MOL0     C39669   2.591  10.308   1.361 -0.1978 -0.2415 -0.0110
  288MOL0     C39670   2.579  10.453   1.353 -0.8374  0.3759 -0.7887
  288MOL0     C39671   2.573  10.577   1.328  0.7050  0.5950  0.4714
  288MOL0     C39672   2.565   9.649   1.345  1.1034  0.3081  0.2422
  288MOL0     C39673   2.668   9.551   1.341 -0.6342  0.1209 -0.0320
  288MOL0     C39674   2.618   9.420   1.288  0.2951  0.6339  0.2509
  288MOL0     H39675   3.284   9.590   1.304  0.6545  0.3463 -0.8420
  288MOL0     H39676   3.433   9.414   1.237  0.6070  1.0157  0.6325
  288MOL0     H39677   3.369   8.993   1.367 -2.9836  4.8937 -0.9317
  288MOL0     H39678   3.470   9.063   1.498  0.9069 -1.4496  0.1702
  288MOL0     H39679   3.559   8.874   1.405  0.4616  0.4324  1.5644
  288MOL0     H39680   3.564   8.948   1.237 -2.8655 -0.2640  0.6351
  288MOL0     H39681   3.744   9.073   1.286 -6.4044 -0.7992 -2.9109
  288MOL0     H39682   3.706   9.091   1.465  0.5269 -0.6781  1.7322
  288MOL0     H39683   3.769   8.869   1.526 -1.0421 -0.1009 -0.3933
  288MOL0     H39684   3.811   8.833   1.358  0.7292  0.6466 -0.8342
  288MOL0     H39685   3.992   9.011   1.363  0.4324  3.5942  2.0618
  288MOL0     H39686   4.013   8.875   1.467 -1.9884 -1.5837 -3.0548
  288MOL0     H39687   4.046   9.126   1.572 -2.4082  2.9226 -3.0172
  288MOL0     H39688   3.882   9.137   1.594  3.0378  3.8962 -2.6083
  288MOL0     H39689   3.880   8.905   1.700  0.3775 -0.3686 -0.9959
  288MOL0     H39690   3.908   9.052   1.787  3.5823  1.0411  0.4653
  288MOL0     H39691   4.137   8.900   1.665  1.0788  0.3939  0.7392
  288MOL0     H39692   4.144   9.012   1.800  0.4788 -0.5526 -0.5044
  288MOL0     H39693   4.068   8.620   1.724  2.5585 -0.3689  0.5272
  288MOL0     H39694   3.860   8.467   1.861 -1.1662 -1.9246 -0.3914
  288MOL0     H39695   3.891   8.461   2.035 -0.8962  0.7833 -1.2326
  288MOL0     H39696   3.997   8.268   1.906  0.9317 -0.4706 -5.0198
  288MOL0     H39697   4.060   8.395   1.792 -1.7981  2.4985 -0.1993
  288MOL0     H39698   4.212   8.274   1.938 -3.0093 -1.8396 -0.9763
  288MOL0     H39699   4.226   8.454   1.945  1.2500 -0.4541  1.9055
  288MOL0     H39700   4.103   8.473   2.144  1.2382  0.0887 -1.0324
  288MOL0     H39701   4.075   8.294   2.144  1.5997 -1.4629 -1.3911
  288MOL0     H39702   4.265   8.213   2.390  1.2397 -0.2848  1.1641
  288MOL0     H39703   4.441   8.286   2.716 -0.9126  1.8125  1.6463
  288MOL0     H39704   4.360   8.154   2.619  1.0760  0.4822 -0.1299
  288MOL0     H39705   4.267   8.260   2.729 -0.1746 -0.7288 -1.5002
  288MOL0     H39706   4.430   8.924   2.739  0.5692 -2.0938 -1.3393
  288MOL0     H39707   4.467   9.055   2.943  2.4173  0.4763 -0.2102
  288MOL0     H39708   4.579   9.107   3.104  2.7338 -0.2807  1.7955
  288MOL0     H39709   4.432   9.145   3.181  1.5434  1.5929  1.0426
  288MOL0     H39710   4.628   9.226   3.309  5.6318 -1.2302  0.1345
  288MOL0     H39711   4.540   9.099   3.400  0.0760  4.8902  2.2802
  288MOL0     H39712   4.702   8.927   3.320 -0.9237  0.6786 -0.6268
  288MOL0     H39713   4.765   9.033   3.444 -1.0186 -1.1353  0.9343
  288MOL0     H39714   4.900   9.171   3.320 -0.1919  0.1809 -1.8241
  288MOL0     H39715   4.834   9.113   3.169  2.4577  0.7673 -1.0191
  288MOL0     H39716   5.010   8.990   3.379  0.5820  0.9835  0.3087
  288MOL0     H39717   4.905   8.880   3.283  1.8237 -0.8875  3.1078
  288MOL0     H39718   5.117   9.072   3.154 -0.0369  1.8636  1.1551
  288MOL0     H39719   5.050   8.925   3.082  1.4991  1.5792 -0.7888
  288MOL0     H39720   5.179   8.783   3.230  1.0746  0.0190  0.6296
  288MOL0     H39721   5.237   8.911   3.328  1.5774 -0.5583 -0.7707
  288MOL0     H39722   5.411   8.859   3.187 -0.4134  0.6025  1.6586
  288MOL0     H39723   5.362   9.018   3.143 -1.5150  0.4201  0.4298
  288MOL0     H39724   4.539   8.676   3.161 -1.1510  0.0187  0.0443
  288MOL0     H39725   4.493   8.558   2.944  1.3546  0.1679 -2.1882
  288MOL0     H39726   4.396   8.687   2.457 -1.0037 -0.0440  0.8110
  288MOL0     H39727   4.329   8.598   2.240  2.2559  0.0505  0.8792
  288MOL0     H39728   3.250   9.135   1.493  1.9284 -0.3529 -2.2116
  288MOL0     H39729   3.077   9.320   1.564  0.5540  0.2439  0.3460
  288MOL0     H39730   2.926   9.765   1.348  1.1085 -2.3482 -2.4388
  288MOL0     H39731   2.754   9.921   1.356  0.7876  0.2443 -0.5915
  288MOL0     H39732   2.567  10.022   1.287  0.3452 -0.9322  0.4833
  288MOL0     H39733   2.395  10.042   1.302 -2.1637 -1.8378  1.4766
  288MOL0     H39734   2.600  10.055   1.520  0.2956  0.8862  0.2809
  288MOL0     H39735   2.429  10.065   1.555  0.7994 -1.4191  0.3212
  288MOL0     H39736   2.412  10.289   1.499  1.3118  0.5706  0.8445
  288MOL0     H39737   2.573  10.270   1.573  4.7101 -0.8688 -2.3557
  288MOL0     H39738   2.558  10.264   1.266  0.6818  0.1072 -0.4835
  288MOL0     H39739   2.691  10.267   1.374  0.4581  1.3014 -0.0673
  288MOL0     H39740   2.589  10.681   1.310  1.8146 -0.1631 -4.5187
  288MOL0     H39741   2.463   9.616   1.334  0.4051  3.1005 -3.7044
  288MOL0     H39742   2.660   9.397   1.189  0.4030 -2.7137  0.9359
  288MOL0     H39743   2.648   9.338   1.355  2.5366 -0.2093 -1.6568
  288MOL0     H39744   2.510   9.411   1.275  0.3968 -1.1961  0.3564
  289MOL0     O39745   0.912   0.265  11.143 -0.9575  0.0023 -0.0545
  289MOL0     C39746   1.007   0.187  11.127 -1.1965 -0.2549 -0.5355
  289MOL0     O39747   1.004   0.055  11.165  0.3903  0.2686  0.8847
  289MOL0     C39748   0.898  -0.010  11.218  0.1565 -0.7084  0.3607
  289MOL0     C39749   0.818   0.055  11.312 -0.3636 -0.1933 -0.0574
  289MOL0     C39750   0.711  -0.006  11.373  0.0809 -0.0921  0.3344
  289MOL0     C39751   0.672  -0.134  11.329  0.6682 -0.4360 -0.0916
  289MOL0     O39752   0.578  -0.208  11.388 -0.3825 -0.0769 -0.3879
  289MOL0     C39753   0.620  -0.315  11.477  0.5817 -0.1302 -0.1057
  289MOL0     C39754   0.679  -0.260  11.604  0.3993  0.2970  0.4200
  289MOL0     C39755   0.737  -0.372  11.692 -0.2568 -0.6078  0.7024
  289MOL0     C39756   0.831  -0.299  11.796 -0.5334  0.6286  0.2745
  289MOL0     C39757   0.925  -0.393  11.873 -0.1902  0.1953  0.6917
  289MOL0     C39758   1.004  -0.332  11.990 -0.3803  0.2072  0.4249
  289MOL0     C39759   0.910  -0.286  12.104  0.1009 -0.1389 -0.4706
  289MOL0     C39760   0.977  -0.284  12.250  1.0704 -0.5766  0.1923
  289MOL0     N39761   1.074  -0.171  12.259  0.5712  0.7521  0.3897
  289MOL0     C39762   1.088  -0.094  12.378 -0.8366  0.2970 -0.2187
  289MOL0     C39763   1.185  -0.005  12.355  0.9238 -0.0911 -0.3114
  289MOL0     C39764   1.243   0.093  12.457 -0.4832 -0.3090  0.1230
  289MOL0     C39765   1.268   0.237  12.393 -0.5601  0.3356  0.6774
  289MOL0     C39766   1.331   0.343  12.492  0.4337  0.6528 -0.1484
  289MOL0     C39767   1.363   0.472  12.422 -0.5774  0.5051  0.1780
  289MOL0     O39768   1.447   0.458  12.304  0.2111 -0.5957 -0.5735
  289MOL0     C39769   1.579   0.402  12.305 -0.1469 -0.4994 -0.6641
  289MOL0     C39770   1.626   0.333  12.193  0.5946  0.8204 -0.7650
  289MOL0     C39771   1.732   0.239  12.197 -0.4847 -0.6463 -0.5915
  289MOL0     C39772   1.785   0.162  12.081 -0.2982 -0.1950  0.6279
  289MOL0     C39773   1.815   0.243  12.318  0.4325 -0.2673  0.0220
  289MOL0     C39774   1.943   0.172  12.326  0.4819  0.3461  0.1913
  289MOL0     O39775   2.037   0.237  12.406  0.2827 -0.1184  0.1907
  289MOL0     C39776   2.159   0.192  12.398  0.1603  1.0502  0.3439
  289MOL0     C39777   2.249   0.294  12.404  0.1927  0.1264  0.6728
  289MOL0     C39778   2.387   0.276  12.405 -0.0202  0.8096 -0.0443
  289MOL0     C39779   2.441   0.145  12.420  0.8357 -1.3101  0.8912
  289MOL0     O39780   2.571   0.127  12.415 -0.2775 -0.0498  0.2967
  289MOL0     C39781   2.652   0.229  12.343  0.7965 -0.1267  0.4759
  289MOL0     C39782   2.798   0.197  12.346  0.4740 -0.1396  0.9553
  289MOL0     C39783   2.881   0.291  12.256  0.8674 -0.0870 -0.8009
  289MOL0     C39784   2.919   0.414  12.331 -0.1146  1.0021 -0.0290
  289MOL0     C39785   2.983   0.514  12.240 -0.2852 -0.5373  0.0450
  289MOL0     C39786   3.038   0.613  12.342 -0.6722  0.5469  0.4351
  289MOL0     C39787   3.118   0.725  12.265  0.1312 -0.8628 -0.6774
  289MOL0     C39788   3.038   0.849  12.257 -0.3698 -0.3249  0.4900
  289MOL0    Cl39789   3.141   0.985  12.189 -0.3750 -0.3598 -0.3367
  289MOL0     C39790   2.353   0.042  12.428  0.7513 -0.2044 -0.3708
  289MOL0     C39791   2.212   0.060  12.416  0.0752  0.7138 -0.0351
  289MOL0     O39792   1.955   0.050  12.292 -0.9540 -1.1333  0.2042
  289MOL0     C39793   1.778   0.322  12.429 -0.4413  0.0492 -0.0020
  289MOL0     C39794   1.651   0.396  12.423  0.0984 -0.3531 -0.7247
  289MOL0     N39795   1.231  -0.029  12.229 -0.1554 -0.7327  0.3953
  289MOL0     N39796   1.168  -0.131  12.164 -0.5103  0.5156 -0.2113
  289MOL0     C39797   0.744  -0.185  11.228  0.9448  0.1015  0.5401
  289MOL0     C39798   0.859  -0.131  11.166 -0.0479  0.6048 -0.2855
  289MOL0     C39799   1.119   0.241  11.041 -0.8761 -0.2228  0.7389
  289MOL0     C39800   1.145   0.379  11.036 -0.4236  0.1339  0.0593
  289MOL0     C39801   1.252   0.437  10.959 -0.1904 -0.3742  0.7128
  289MOL0     C39802   1.329   0.356  10.881 -0.0993  0.0098 -0.3923
  289MOL0     O39803   1.437   0.393  10.806  0.4070  0.3855 -0.8977
  289MOL0     C39804   1.447   0.527  10.754  0.4955  0.4303 -0.5243
  289MOL0     C39805   1.518   0.507  10.623  0.7206  0.0717 -0.8089
  289MOL0     C39806   1.536   0.625  10.535  0.5702  0.3755 -0.2741
  289MOL0     C39807   1.600   0.584  10.401 -0.5390 -0.4442  0.2587
  289MOL0     C39808   1.612   0.711  10.330  0.9165  0.6700  0.2359
  289MOL0     C39809   1.615   0.816  10.268 -0.8819 -0.8000 -0.1569
  289MOL0     C39810   1.293   0.216  10.878 -0.3488 -0.3062 -0.1523
  289MOL0     C39811   1.192   0.160  10.956 -0.6575 -0.0603  0.2703
  289MOL0     C39812   1.154   0.019  10.928 -1.3273  1.0302 -0.4051
  289MOL0     H39813   0.860   0.152  11.338  1.3438 -1.2831  1.4477
  289MOL0     H39814   0.660   0.046  11.453 -3.1649  0.5369 -1.9198
  289MOL0     H39815   0.693  -0.380  11.429 -0.0364  0.8083 -2.4707
  289MOL0     H39816   0.533  -0.374  11.509 -0.3086  0.9387 -0.4735
  289MOL0     H39817   0.756  -0.191  11.569  1.0763 -1.1040 -0.9423
  289MOL0     H39818   0.601  -0.206  11.659  0.0603  0.8021 -0.5381
  289MOL0     H39819   0.651  -0.415  11.746 -2.8930  0.3235 -2.4333
  289MOL0     H39820   0.797  -0.445  11.636 -1.5490  1.5254 -3.9810
  289MOL0     H39821   0.889  -0.218  11.751  0.1627  2.9201  4.7199
  289MOL0     H39822   0.778  -0.246  11.876  2.5041 -0.1712  3.0362
  289MOL0     H39823   1.001  -0.440  11.809 -1.8609 -2.8507  0.7450
  289MOL0     H39824   0.867  -0.479  11.909 -0.6964 -0.7453 -2.0900
  289MOL0     H39825   1.073  -0.396  12.046  0.2433  0.0562 -0.5051
  289MOL0     H39826   1.056  -0.242  11.956 -1.0480  1.1908  1.8764
  289MOL0     H39827   0.825  -0.354  12.098 -0.2919  0.2892  0.1244
  289MOL0     H39828   0.878  -0.182  12.097 -0.8057 -0.3790  0.0423
  289MOL0     H39829   0.894  -0.262  12.318 -0.8622  1.7875 -2.6621
  289MOL0     H39830   1.028  -0.375  12.282  0.3454 -2.2388 -2.9205
  289MOL0     H39831   1.019  -0.099  12.461  0.2371 -2.5106  0.6049
  289MOL0     H39832   1.340   0.053  12.489 -1.1229 -1.0058  1.2739
  289MOL0     H39833   1.170   0.099  12.538  0.1161 -3.7038  1.0920
  289MOL0     H39834   1.341   0.233  12.312  0.2763 -0.5108  1.4358
  289MOL0     H39835   1.176   0.275  12.349 -1.7683 -1.4381  1.5364
  289MOL0     H39836   1.266   0.360  12.579  0.9664 -2.1125  0.9027
  289MOL0     H39837   1.423   0.304  12.537  1.0477  1.3031 -0.8270
  289MOL0     H39838   1.273   0.533  12.406  0.5073  2.5185  1.3684
  289MOL0     H39839   1.420   0.535  12.490 -0.7500 -1.8548  2.6679
  289MOL0     H39840   1.574   0.361  12.102 -0.5018 -1.3629 -0.8954
  289MOL0     H39841   1.776   0.055  12.100  1.0840 -1.1802 -3.3152
  289MOL0     H39842   1.887   0.198  12.066 -0.6479  0.2027 -1.1082
  289MOL0     H39843   1.729   0.184  11.989  0.7288 -2.6809 -0.6868
  289MOL0     H39844   2.197   0.387  12.423 -1.5817 -0.9587  1.3598
  289MOL0     H39845   2.455   0.361  12.402  1.9794 -0.7284 -2.0299
  289MOL0     H39846   2.618   0.231  12.239  2.4427 -1.3296 -0.1274
  289MOL0     H39847   2.646   0.330  12.385  3.2137  1.5838 -2.8088
  289MOL0     H39848   2.833   0.176  12.448 -2.9781 -1.0035  2.1220
  289MOL0     H39849   2.813   0.100  12.299 -2.0789  0.6777 -1.9061
  289MOL0     H39850   2.821   0.315  12.168 -1.7480 -0.2151  0.8520
  289MOL0     H39851   2.966   0.230  12.223  2.2053 -0.9174  3.5513
  289MOL0     H39852   2.992   0.387  12.407 -1.7604 -1.2672  0.8808
  289MOL0     H39853   2.837   0.455  12.390  1.1312  2.7411  0.5571
  289MOL0     H39854   3.065   0.474  12.180  0.4220 -1.2291  1.4264
  289MOL0     H39855   2.903   0.552  12.175 -1.1946 -4.2608 -1.2609
  289MOL0     H39856   3.108   0.560  12.408 -2.2403 -1.2565  0.7395
  289MOL0     H39857   2.970   0.659  12.415  1.2305  1.4164  1.7463
  289MOL0     H39858   3.139   0.696  12.162 -1.7521 -0.3645 -1.2396
  289MOL0     H39859   3.210   0.745  12.322 -1.1557 -0.3604  1.3577
  289MOL0     H39860   3.005   0.883  12.355 -1.4708 -1.5255  0.5608
  289MOL0     H39861   2.945   0.849  12.199 -1.2574 -0.0152  1.8625
  289MOL0     H39862   2.394  -0.058  12.443 -0.0676 -0.7179 -1.3744
  289MOL0     H39863   2.150  -0.024  12.445  1.6425 -0.4265  0.1472
  289MOL0     H39864   1.836   0.306  12.519 -0.8353  0.6601  0.3667
  289MOL0     H39865   1.617   0.446  12.513 -0.5497 -1.2328 -0.4637
  289MOL0     H39866   0.720  -0.287  11.200 -2.2267  1.4840 -2.4422
  289MOL0     H39867   0.918  -0.193  11.099 -4.0117  0.8433 -4.5057
  289MOL0     H39868   1.081   0.441  11.098 -0.2545  2.1013 -1.6308
  289MOL0     H39869   1.268   0.544  10.962 -0.1852 -0.3939  1.6034
  289MOL0     H39870   1.348   0.574  10.748 -0.9621 -1.5779  3.8337
  289MOL0     H39871   1.502   0.589  10.825 -0.1039  1.7419 -1.1719
  289MOL0     H39872   1.451   0.437  10.570 -1.4526  0.2697  1.4743
  289MOL0     H39873   1.612   0.455  10.641  0.5858  0.7434  2.5000
  289MOL0     H39874   1.445   0.683  10.515  0.9241  0.6967 -0.9584
  289MOL0     H39875   1.613   0.689  10.580  2.4113 -1.3782 -0.8000
  289MOL0     H39876   1.540   0.521  10.335  1.1216  0.2434 -2.0522
  289MOL0     H39877   1.699   0.540  10.416  0.5722  1.5677 -0.7002
  289MOL0     H39878   1.607   0.917  10.233 -0.5445  1.0383  4.3910
  289MOL0     H39879   1.360   0.151  10.823 -0.4029 -2.9722  2.6718
  289MOL0     H39880   1.052  -0.004  10.959 -1.1784 -3.0388 -2.3195
  289MOL0     H39881   1.160  -0.001  10.821  1.2289 -1.7414  0.1213
  289MOL0     H39882   1.215  -0.047  10.990 -1.6043  0.2996 -0.9036
  290MOL0     O39883   7.119   7.230   1.966 -0.3250 -0.1340  0.5524
  290MOL0     C39884   7.067   7.194   1.864 -0.4387 -0.3825  1.2952
  290MOL0     O39885   7.125   7.175   1.741  0.9556  0.7221 -0.7120
  290MOL0     C39886   7.259   7.194   1.725  0.7269 -0.8669 -0.4960
  290MOL0     C39887   7.308   7.321   1.691 -0.6660  0.3758 -0.4585
  290MOL0     C39888   7.448   7.333   1.693 -0.2029  1.3444  0.3632
  290MOL0     C39889   7.535   7.217   1.697 -0.3134 -0.7229 -0.1453
  290MOL0     O39890   7.672   7.240   1.695 -0.4179 -0.3280  0.3791
  290MOL0     C39891   7.754   7.144   1.757 -0.0366 -0.1548 -0.4408
  290MOL0     C39892   7.881   7.206   1.793 -0.5987  0.3672  0.3983
  290MOL0     C39893   7.980   7.105   1.858  0.8832 -0.4625 -0.0845
  290MOL0     C39894   7.935   7.049   1.994  0.4248  0.9178  0.2416
  290MOL0     C39895   8.038   6.930   2.030  0.4049  0.6698  0.2354
  290MOL0     C39896   8.027   6.892   2.180 -0.0899  0.2024  0.4051
  290MOL0     C39897   8.096   6.999   2.265 -0.0795  0.5236 -0.1340
  290MOL0     C39898   8.245   7.037   2.265 -1.4349 -1.2146  0.7472
  290MOL0     N39899   8.335   6.929   2.222 -0.1245  0.5445  0.2397
  290MOL0     C39900   8.370   6.889   2.101  0.4444 -0.3425 -0.6221
  290MOL0     C39901   8.423   6.757   2.110  0.4262  0.1903  0.3003
  290MOL0     C39902   8.458   6.676   1.982 -0.0733 -0.3659  0.3791
  290MOL0     C39903   8.329   6.609   1.911 -0.3179 -0.6061 -0.4153
  290MOL0     C39904   8.285   6.468   1.967  0.2728  0.8269  0.4956
  290MOL0     C39905   8.147   6.432   1.914  0.6942 -0.0050 -0.1071
  290MOL0     O39906   8.098   6.316   1.982 -0.5461  0.7657  0.0895
  290MOL0     C39907   8.147   6.197   1.935  0.1048 -0.2776 -1.0197
  290MOL0     C39908   8.217   6.171   1.824  0.3192  0.0765  0.2722
  290MOL0     C39909   8.261   6.041   1.782  0.3664 -0.9289  0.8312
  290MOL0     C39910   8.350   6.051   1.663 -0.4960  0.3533  0.7116
  290MOL0     C39911   8.216   5.933   1.864  0.1522 -0.2821 -0.7680
  290MOL0     C39912   8.254   5.791   1.836 -1.1993  0.4774  0.0273
  290MOL0     O39913   8.259   5.712   1.951  0.0127  0.1932  0.0694
  290MOL0     C39914   8.240   5.575   1.924 -0.0767  0.3931 -0.9974
  290MOL0     C39915   8.328   5.490   1.850 -0.1368  0.6405 -0.9699
  290MOL0     C39916   8.304   5.357   1.821  0.1615  0.4150  0.4272
  290MOL0     C39917   8.194   5.293   1.887 -0.3602  0.1411 -0.0849
  290MOL0     O39918   8.166   5.165   1.852 -0.1898  0.4771 -0.5371
  290MOL0     C39919   8.077   5.093   1.941 -0.4629 -0.6351  0.3528
  290MOL0     C39920   8.083   4.943   1.910 -0.4428  0.1607  0.2588
  290MOL0     C39921   8.223   4.880   1.912  1.4090 -0.1082  0.9024
  290MOL0     C39922   8.219   4.737   1.847  1.0912 -0.1482  0.5431
  290MOL0     C39923   8.343   4.658   1.905 -0.1075 -0.4792  1.2001
  290MOL0     C39924   8.339   4.511   1.868  0.1614  0.2018  0.2629
  290MOL0     C39925   8.364   4.498   1.712  0.3055  0.6236  0.3808
  290MOL0     C39926   8.407   4.349   1.689  0.6554  1.1694 -0.0321
  290MOL0    Cl39927   8.291   4.230   1.741  0.4639  0.0098  0.0023
  290MOL0     C39928   8.105   5.376   1.964 -0.1213  0.1450 -0.6146
  290MOL0     C39929   8.134   5.511   1.986  1.0506  1.5009 -0.6989
  290MOL0     O39930   8.307   5.761   1.729 -0.0471 -0.2301  0.0338
  290MOL0     C39931   8.122   5.965   1.968  0.4120 -0.0826 -0.5288
  290MOL0     C39932   8.089   6.095   2.006 -0.2615  0.2960  0.6000
  290MOL0     N39933   8.425   6.727   2.246  0.4157 -0.5522  0.0475
  290MOL0     N39934   8.382   6.830   2.305  0.7246 -0.6099  0.1212
  290MOL0     C39935   7.470   7.096   1.724 -0.5420 -0.0067 -0.0518
  290MOL0     C39936   7.336   7.082   1.733  0.6774 -0.2750  0.9083
  290MOL0     C39937   6.917   7.162   1.874  0.0414  0.0559 -0.4517
  290MOL0     C39938   6.873   7.030   1.844 -0.7168 -0.6768 -0.8298
  290MOL0     C39939   6.736   6.999   1.848 -0.2711 -0.3743 -0.0670
  290MOL0     C39940   6.639   7.098   1.864 -0.0177  1.1223  0.2445
  290MOL0     O39941   6.509   7.058   1.853 -0.3125  0.5656  0.3356
  290MOL0     C39942   6.409   7.156   1.822 -0.4493 -0.3169 -0.4742
  290MOL0     C39943   6.269   7.115   1.871 -0.4386  0.3155 -0.1299
  290MOL0     C39944   6.160   7.203   1.811 -0.2969  0.7903  0.2165
  290MOL0     C39945   6.022   7.152   1.856 -0.3840 -0.1199 -0.6630
  290MOL0     C39946   5.938   7.235   1.957 -0.5324 -0.0010 -0.5241
  290MOL0     C39947   5.901   7.293   2.056  0.9290 -1.5664 -0.1805
  290MOL0     C39948   6.685   7.220   1.902 -0.0632 -0.9117  0.7346
  290MOL0     C39949   6.819   7.264   1.909 -0.7239  0.3994  0.4311
  290MOL0     C39950   6.850   7.408   1.927 -0.3710  0.2926  0.0646
  290MOL0     H39951   7.235   7.399   1.677 -1.5346 -0.9112 -4.7442
  290MOL0     H39952   7.485   7.434   1.687 -1.2544  1.6540 -2.0098
  290MOL0     H39953   7.770   7.063   1.685 -0.2913  0.5047 -1.2453
  290MOL0     H39954   7.704   7.097   1.843 -0.0596 -1.4217 -1.1120
  290MOL0     H39955   7.932   7.258   1.711 -2.0378  0.4896 -0.4384
  290MOL0     H39956   7.869   7.288   1.865  2.1890  0.5909  0.7341
  290MOL0     H39957   7.991   7.018   1.791  0.9928  0.7391 -1.6855
  290MOL0     H39958   8.068   7.167   1.877  0.5117  0.0315  0.0189
  290MOL0     H39959   7.933   7.134   2.062 -1.0873  0.9644  0.1783
  290MOL0     H39960   7.838   7.001   1.977  1.0886 -0.2637 -0.3627
  290MOL0     H39961   8.141   6.949   1.998  1.4949 -4.7474 -0.4406
  290MOL0     H39962   8.014   6.837   1.978  2.1683  1.6606 -2.5287
  290MOL0     H39963   7.931   6.859   2.220  0.8933 -0.5522  2.2857
  290MOL0     H39964   8.092   6.804   2.177  0.1509  0.3972 -0.7841
  290MOL0     H39965   8.089   6.960   2.367  1.1885 -0.8467 -0.5396
  290MOL0     H39966   8.037   7.092   2.268  1.1199  1.3012 -0.0605
  290MOL0     H39967   8.273   7.117   2.196  0.1361 -1.7688  0.7204
  290MOL0     H39968   8.279   7.067   2.365  0.9565 -0.1053 -0.3249
  290MOL0     H39969   8.379   6.949   2.012  0.8789  1.1168  0.3780
  290MOL0     H39970   8.537   6.608   2.015 -1.2052 -1.4607  0.8939
  290MOL0     H39971   8.495   6.764   1.928  1.9893  1.0627  3.8127
  290MOL0     H39972   8.251   6.682   1.931  1.3245  1.8657 -2.3496
  290MOL0     H39973   8.350   6.612   1.803 -2.0121  2.9167 -0.7751
  290MOL0     H39974   8.357   6.388   1.944 -1.2810  0.0051 -1.8663
  290MOL0     H39975   8.276   6.468   2.076  0.1515 -0.3957  0.4957
  290MOL0     H39976   8.076   6.499   1.964  0.2065 -0.5267 -0.0964
  290MOL0     H39977   8.138   6.451   1.807 -0.2392 -0.8307 -0.1873
  290MOL0     H39978   8.246   6.261   1.771 -0.8165  0.9892  1.1532
  290MOL0     H39979   8.283   6.041   1.578  0.2388 -0.5349  0.2137
  290MOL0     H39980   8.433   5.980   1.655 -0.3591  0.5957 -0.0971
  290MOL0     H39981   8.403   6.146   1.656  2.7871 -1.3319  0.5120
  290MOL0     H39982   8.406   5.534   1.790  0.2440  1.3809  0.0436
  290MOL0     H39983   8.357   5.294   1.749 -2.3071  0.3051 -1.4153
  290MOL0     H39984   8.099   5.102   2.048 -2.9688  0.8573  0.8134
  290MOL0     H39985   7.975   5.128   1.923 -0.3814 -1.1744 -1.2968
  290MOL0     H39986   8.033   4.883   1.987 -0.5203  0.3806  0.3829
  290MOL0     H39987   8.012   4.914   1.832 -2.8450  0.5976  2.1840
  290MOL0     H39988   8.254   4.880   2.017  2.1554  1.5300  0.7259
  290MOL0     H39989   8.299   4.942   1.864  1.9048 -1.6391 -0.3863
  290MOL0     H39990   8.224   4.743   1.738  2.8184 -0.9177  0.5309
  290MOL0     H39991   8.126   4.684   1.868  0.6713  0.2286 -0.3507
  290MOL0     H39992   8.438   4.703   1.876 -0.1549 -0.4428  1.1011
  290MOL0     H39993   8.339   4.660   2.015 -0.4858  0.6477  1.1768
  290MOL0     H39994   8.243   4.462   1.889 -0.3207  1.3121  0.7474
  290MOL0     H39995   8.415   4.467   1.934  0.0859  1.1190  0.9813
  290MOL0     H39996   8.436   4.577   1.692 -0.3439  2.0463  3.1287
  290MOL0     H39997   8.270   4.521   1.661 -0.8594  0.6191  2.3928
  290MOL0     H39998   8.493   4.338   1.756 -0.3167  2.1992  1.4407
  290MOL0     H39999   8.424   4.322   1.584 -0.8804  0.2818 -0.0838
  290MOL0     H40000   8.008   5.351   2.006 -0.0655 -1.2890 -1.2731
  290MOL0     H40001   8.066   5.559   2.055 -0.1655 -3.1177  1.6999
  290MOL0     H40002   8.075   5.887   2.027  0.3709 -1.2519 -2.0408
  290MOL0     H40003   8.030   6.110   2.096 -0.4269  1.7823  0.2634
  290MOL0     H40004   7.523   7.001   1.726 -1.3443 -0.5690 -2.6274
  290MOL0     H40005   7.296   6.982   1.748  1.9619 -1.1787 -1.1330
  290MOL0     H40006   6.953   6.960   1.822 -1.3588 -0.7310 -3.2743
  290MOL0     H40007   6.699   6.901   1.822 -1.9668 -0.1181  1.2296
  290MOL0     H40008   6.430   7.246   1.880  0.4117 -1.9658  1.9251
  290MOL0     H40009   6.409   7.171   1.713  0.6633  0.9570 -0.3233
  290MOL0     H40010   6.273   7.124   1.980 -0.9408  2.7343 -0.2696
  290MOL0     H40011   6.249   7.015   1.831  2.3420 -0.4876  0.2258
  290MOL0     H40012   6.164   7.310   1.831 -0.2837  0.4922  1.9858
  290MOL0     H40013   6.171   7.183   1.704 -2.6689  0.6481 -0.0445
  290MOL0     H40014   6.028   7.050   1.894  0.2066  0.1277 -0.0701
  290MOL0     H40015   5.955   7.160   1.769  1.0514  2.4777 -1.6465
  290MOL0     H40016   5.867   7.352   2.139 -1.2626 -0.9073 -1.4638
  290MOL0     H40017   6.606   7.285   1.939  0.5535  0.2508  0.1021
  290MOL0     H40018   6.956   7.415   1.952 -0.2868  0.4738 -0.3325
  290MOL0     H40019   6.806   7.463   1.843 -1.5765  2.1146  1.7843
  290MOL0     H40020   6.797   7.459   2.009  0.3007  2.3710 -0.7306
  291MOL0     O40021   4.259   7.554   0.730  0.3025  0.3796  0.4080
  291MOL0     C40022   4.162   7.631   0.749 -0.7317  0.3321 -0.7058
  291MOL0     O40023   4.167   7.733   0.833 -0.4260 -0.2925  0.2096
  291MOL0     C40024   4.289   7.764   0.900  0.0767 -0.5338  0.1150
  291MOL0     C40025   4.337   7.900   0.876 -0.2098  0.2099 -0.7914
  291MOL0     C40026   4.466   7.928   0.918  0.4871 -0.9869  0.2059
  291MOL0     C40027   4.549   7.841   0.993  0.0922  0.1415 -0.2207
  291MOL0     O40028   4.672   7.871   1.027  0.5907 -0.6097 -1.0194
  291MOL0     C40029   4.706   7.884   1.166 -0.7629  0.0704 -0.4460
  291MOL0     C40030   4.857   7.866   1.185 -0.7013 -0.5398 -0.4181
  291MOL0     C40031   4.901   7.897   1.325 -0.6858  0.9436 -0.8618
  291MOL0     C40032   5.024   7.804   1.348  0.2109  0.7039 -0.3868
  291MOL0     C40033   5.092   7.832   1.480 -1.1695 -0.1458  0.2930
  291MOL0     C40034   5.211   7.733   1.503 -0.5248 -0.6558 -0.0584
  291MOL0     C40035   5.218   7.712   1.653  0.1614  0.1164  0.3960
  291MOL0     C40036   5.246   7.827   1.746  0.5691  0.6223  0.9573
  291MOL0     N40037   5.298   7.787   1.876  0.6050  1.5007  0.5665
  291MOL0     C40038   5.251   7.673   1.950  0.0852  0.0959 -0.0769
  291MOL0     C40039   5.353   7.651   2.026 -0.2150 -0.0085 -0.5860
  291MOL0     C40040   5.367   7.534   2.122 -0.8766 -1.2618 -1.5165
  291MOL0     C40041   5.396   7.405   2.056 -0.9479  0.6472 -0.8838
  291MOL0     C40042   5.437   7.297   2.166 -0.5573 -0.7754 -0.6362
  291MOL0     C40043   5.313   7.266   2.256  0.1419  0.5681 -0.4412
  291MOL0     O40044   5.361   7.145   2.329 -0.3334  0.3431  1.3019
  291MOL0     C40045   5.282   7.103   2.427  0.0999 -0.0536 -0.5902
  291MOL0     C40046   5.219   7.185   2.522 -0.4671 -0.6854 -0.2953
  291MOL0     C40047   5.144   7.137   2.630 -0.4052 -0.0164  0.5663
  291MOL0     C40048   5.093   7.229   2.733 -1.0491 -0.5207  0.3085
  291MOL0     C40049   5.131   6.991   2.641 -0.1926 -0.0907 -0.7820
  291MOL0     C40050   5.069   6.918   2.762  1.2263  0.5266 -0.4097
  291MOL0     O40051   5.026   6.977   2.871 -0.3063  0.3464 -0.6643
  291MOL0     C40052   4.943   6.897   2.960 -0.5016  0.0440  0.9005
  291MOL0     C40053   4.832   6.832   2.913  0.0203 -0.2259  0.7062
  291MOL0     C40054   4.722   6.794   3.002 -0.3029 -0.8387  0.4290
  291MOL0     C40055   4.722   6.820   3.143  0.2200 -0.1917 -0.6678
  291MOL0     O40056   4.625   6.786   3.235 -0.6805  0.8581 -0.4235
  291MOL0     C40057   4.496   6.750   3.187  0.2197  0.3814  0.7456
  291MOL0     C40058   4.399   6.767   3.307  0.2453  0.3001  0.7135
  291MOL0     C40059   4.448   6.684   3.431 -0.1168 -0.1246 -0.4150
  291MOL0     C40060   4.382   6.716   3.559 -0.4016 -0.6707  0.1453
  291MOL0     C40061   4.430   6.627   3.676  0.2508  0.0671  0.9905
  291MOL0     C40062   4.339   6.613   3.796 -0.8064 -0.0460 -0.4086
  291MOL0     C40063   4.295   6.750   3.835 -0.2029 -0.6568  0.6684
  291MOL0     C40064   4.202   6.754   3.950 -0.0003 -0.1698 -0.0944
  291MOL0    Cl40065   4.046   6.683   3.910  0.3842  0.6459 -0.0388
  291MOL0     C40066   4.824   6.894   3.190 -0.7961 -0.3700 -0.2217
  291MOL0     C40067   4.929   6.930   3.096 -1.2067  0.5552  0.2283
  291MOL0     O40068   5.059   6.797   2.737  0.0617  0.8216  0.9752
  291MOL0     C40069   5.183   6.910   2.534 -0.1002 -0.4681  1.2540
  291MOL0     C40070   5.262   6.966   2.434 -1.2035 -0.6137 -0.1125
  291MOL0     N40071   5.449   7.750   2.013 -0.6202 -0.3486 -0.0312
  291MOL0     N40072   5.421   7.828   1.922  0.1964  0.2770  0.0975
  291MOL0     C40073   4.488   7.717   1.023 -1.0710  0.2700  0.1382
  291MOL0     C40074   4.368   7.678   0.974  1.2504 -0.6825  0.2169
  291MOL0     C40075   4.034   7.593   0.677 -0.4623  0.2920 -0.9791
  291MOL0     C40076   3.917   7.665   0.723  0.3858  0.7693 -0.5733
  291MOL0     C40077   3.788   7.661   0.662  0.4015  0.4862  0.4747
  291MOL0     C40078   3.781   7.587   0.545 -0.8979 -0.3470 -0.3084
  291MOL0     O40079   3.679   7.572   0.460  1.0022 -0.4161  0.0885
  291MOL0     C40080   3.650   7.691   0.387  0.5423  0.0810  0.6103
  291MOL0     C40081   3.751   7.743   0.285  0.8149 -1.0180  0.4093
  291MOL0     C40082   3.685   7.877   0.230  0.6196  0.0539 -0.7352
  291MOL0     C40083   3.773   7.914   0.113  0.2301  0.2976 -0.7932
  291MOL0     C40084   3.731   8.031   0.042 -1.1009 -0.1609 -0.3179
  291MOL0     C40085   3.688   8.125  -0.015 -0.0488 -0.6133 -0.4067
  291MOL0     C40086   3.896   7.522   0.494  0.5704  0.0308  0.0180
  291MOL0     C40087   4.019   7.523   0.555 -0.0388  0.6845 -0.7526
  291MOL0     C40088   4.133   7.468   0.457  0.1334  0.9310 -0.4119
  291MOL0     H40089   4.269   7.971   0.830 -1.7151 -0.9466 -0.4575
  291MOL0     H40090   4.503   8.027   0.893  1.6316 -1.7475 -1.2539
  291MOL0     H40091   4.659   7.810   1.232  3.0653 -0.2639  2.2760
  291MOL0     H40092   4.675   7.985   1.197  0.5225  1.0289 -2.1282
  291MOL0     H40093   4.866   7.761   1.158 -2.7618 -0.7964 -0.2720
  291MOL0     H40094   4.910   7.927   1.112  3.2779 -0.5571  2.1466
  291MOL0     H40095   4.927   8.002   1.340  1.0612  0.2809  1.2226
  291MOL0     H40096   4.815   7.865   1.385  0.4193 -0.1017  0.2250
  291MOL0     H40097   4.981   7.704   1.361  0.6428  0.5539 -0.1098
  291MOL0     H40098   5.090   7.806   1.261  4.5105  0.8364  2.5719
  291MOL0     H40099   5.014   7.841   1.556 -2.8412 -0.9547 -1.2593
  291MOL0     H40100   5.141   7.929   1.468 -0.1583 -0.7100 -0.2965
  291MOL0     H40101   5.188   7.632   1.467  3.9103 -2.0994  0.6609
  291MOL0     H40102   5.306   7.763   1.458  0.2081  0.0766  1.8849
  291MOL0     H40103   5.308   7.651   1.666  1.5972  1.9460 -0.4822
  291MOL0     H40104   5.135   7.652   1.690 -2.8074  3.3457 -0.5495
  291MOL0     H40105   5.324   7.894   1.708  1.6834 -1.0072  0.2564
  291MOL0     H40106   5.153   7.884   1.756  0.9238  2.3461 -3.3793
  291MOL0     H40107   5.159   7.619   1.931  2.3354 -3.0276 -3.5817
  291MOL0     H40108   5.275   7.524   2.180  0.2737  1.0012  0.9215
  291MOL0     H40109   5.448   7.563   2.189 -3.8710  0.1889  1.7998
  291MOL0     H40110   5.302   7.364   2.018 -0.1041 -1.3021 -0.9643
  291MOL0     H40111   5.473   7.415   1.979 -0.8506  0.0431 -0.8713
  291MOL0     H40112   5.478   7.207   2.119 -1.1838 -1.1879 -0.4041
  291MOL0     H40113   5.515   7.340   2.230  0.1132 -1.9629 -0.6396
  291MOL0     H40114   5.282   7.346   2.324  0.7813 -0.1270  0.6979
  291MOL0     H40115   5.230   7.246   2.187  1.3778  1.9101 -2.4380
  291MOL0     H40116   5.239   7.291   2.510 -0.3777 -0.5287  1.0580
  291MOL0     H40117   5.160   7.221   2.819  2.4013  2.6081 -1.7502
  291MOL0     H40118   4.986   7.223   2.752 -1.2329  0.2454 -0.3830
  291MOL0     H40119   5.106   7.329   2.690 -0.7436  1.1055  3.8536
  291MOL0     H40120   4.819   6.810   2.808 -0.9898  0.8257  0.5869
  291MOL0     H40121   4.643   6.738   2.952  1.1424  0.2101 -3.3292
  291MOL0     H40122   4.474   6.808   3.097 -0.4940  0.2429  0.8285
  291MOL0     H40123   4.496   6.646   3.155  0.4467  1.2444 -2.3462
  291MOL0     H40124   4.380   6.873   3.327 -2.1758  0.0389  0.1579
  291MOL0     H40125   4.302   6.730   3.272  0.8491  0.0283 -0.7099
  291MOL0     H40126   4.555   6.699   3.445 -0.6855  2.6087  2.3376
  291MOL0     H40127   4.431   6.579   3.408  0.2097 -0.9864  2.7472
  291MOL0     H40128   4.273   6.717   3.544 -0.1479 -0.6256 -2.0346
  291MOL0     H40129   4.393   6.820   3.591 -3.5048 -0.7804  2.0096
  291MOL0     H40130   4.445   6.532   3.624 -0.3220  0.9618 -0.8778
  291MOL0     H40131   4.528   6.665   3.706 -0.3796  1.8242  0.9101
  291MOL0     H40132   4.395   6.567   3.879  0.9765  0.4844 -1.2636
  291MOL0     H40133   4.256   6.546   3.774  0.7758 -1.9019 -1.0087
  291MOL0     H40134   4.236   6.799   3.757  2.9297  2.2696 -0.1093
  291MOL0     H40135   4.374   6.826   3.844 -2.6224  2.7482 -3.3180
  291MOL0     H40136   4.205   6.857   3.988 -1.0060  0.0203 -0.4917
  291MOL0     H40137   4.236   6.699   4.038  2.6135  1.9647  0.3838
  291MOL0     H40138   4.837   6.911   3.296  3.2087 -2.4766 -0.1804
  291MOL0     H40139   5.003   7.002   3.129 -1.1601 -0.6053  2.8520
  291MOL0     H40140   5.177   6.802   2.545  0.2549 -0.6232  0.0787
  291MOL0     H40141   5.309   6.908   2.355  2.4355  0.5058  1.0340
  291MOL0     H40142   4.550   7.645   1.076 -1.0534 -1.0359 -1.5714
  291MOL0     H40143   4.329   7.577   0.984 -2.6920  0.8104  1.7129
  291MOL0     H40144   3.928   7.741   0.800  1.0948 -0.3820  0.5030
  291MOL0     H40145   3.708   7.717   0.710  1.6842  0.2109  3.1405
  291MOL0     H40146   3.554   7.661   0.344 -0.2786  3.9483 -0.6247
  291MOL0     H40147   3.636   7.770   0.461  2.0255  1.5507 -0.5988
  291MOL0     H40148   3.760   7.664   0.210  2.1794 -1.8418  1.3944
  291MOL0     H40149   3.852   7.753   0.325  1.6319 -1.9995 -1.2952
  291MOL0     H40150   3.584   7.869   0.189  0.5223  0.5348 -0.5953
  291MOL0     H40151   3.696   7.956   0.305  2.1064  0.7594 -1.6466
  291MOL0     H40152   3.774   7.826   0.049  1.3760 -2.2125  2.4113
  291MOL0     H40153   3.877   7.928   0.143 -0.3412  1.1011  0.9401
  291MOL0     H40154   3.644   8.216  -0.051  1.5445  0.5959  0.5710
  291MOL0     H40155   3.895   7.477   0.395  0.5371  1.4810 -0.6657
  291MOL0     H40156   4.225   7.526   0.474 -0.0242  0.9086  0.5848
  291MOL0     H40157   4.156   7.362   0.471 -1.4746  0.6760  0.4425
  291MOL0     H40158   4.107   7.493   0.354 -0.7315 -2.3513 -1.0831
  292MOL0     O40159   1.718   5.175   1.755  0.9934  0.3488 -0.0482
  292MOL0     C40160   1.781   5.169   1.650 -0.5191  0.2619 -0.2822
  292MOL0     O40161   1.797   5.275   1.569 -0.5417 -0.3790  0.1375
  292MOL0     C40162   1.745   5.388   1.626 -0.4499 -0.3193  1.0181
  292MOL0     C40163   1.831   5.470   1.686 -0.3034  0.3098  0.3449
  292MOL0     C40164   1.785   5.590   1.741  1.3837 -0.2530 -0.1301
  292MOL0     C40165   1.651   5.629   1.746 -0.0818 -0.4090 -1.4632
  292MOL0     O40166   1.622   5.763   1.790 -0.3083  0.0134 -0.3292
  292MOL0     C40167   1.492   5.780   1.849  0.7594  0.5244  0.6961
  292MOL0     C40168   1.496   5.896   1.949  0.8583  0.6025 -0.4491
  292MOL0     C40169   1.597   6.008   1.905  0.6167 -0.3042 -0.0803
  292MOL0     C40170   1.582   6.119   2.005 -0.1816 -0.0630  0.1055
  292MOL0     C40171   1.637   6.249   1.957 -0.4273  0.1750  0.2172
  292MOL0     C40172   1.551   6.336   1.869  1.5064  0.1105 -0.2734
  292MOL0     C40173   1.421   6.389   1.934 -0.4100  0.2303 -0.0800
  292MOL0     C40174   1.344   6.472   1.829 -0.6458  0.6409  0.6146
  292MOL0     N40175   1.260   6.557   1.902  0.4040 -0.0486 -0.7557
  292MOL0     C40176   1.161   6.536   2.002 -0.2601  1.3278  0.3769
  292MOL0     C40177   1.094   6.649   2.009  0.7043 -0.2346  0.3141
  292MOL0     C40178   0.971   6.678   2.101 -0.9687 -0.1811  0.0179
  292MOL0     C40179   0.838   6.606   2.056  0.0069 -0.2317 -1.1019
  292MOL0     C40180   0.759   6.675   1.950  0.0652 -0.9763  0.7181
  292MOL0     C40181   0.839   6.692   1.816  0.0549 -0.1983 -0.1605
  292MOL0     O40182   0.762   6.706   1.699 -0.1696 -0.6373  0.1457
  292MOL0     C40183   0.812   6.777   1.584 -0.0418  0.7762  1.2093
  292MOL0     C40184   0.729   6.815   1.480  0.7116 -0.2443 -0.2793
  292MOL0     C40185   0.780   6.874   1.369  0.5058 -0.6249  0.3018
  292MOL0     C40186   0.677   6.894   1.260  0.2775  0.4921 -0.0611
  292MOL0     C40187   0.915   6.918   1.359 -0.2868  0.1517 -0.3472
  292MOL0     C40188   0.980   6.986   1.238 -0.1205 -0.1827 -1.2258
  292MOL0     O40189   1.109   7.018   1.255 -0.2953  0.4550  0.2061
  292MOL0     C40190   1.190   7.091   1.169 -0.0682 -0.2673 -0.1255
  292MOL0     C40191   1.180   7.098   1.032 -0.4472 -0.5227 -0.6464
  292MOL0     C40192   1.265   7.166   0.950 -0.6241  0.5215  0.8019
  292MOL0     C40193   1.370   7.237   1.005 -0.4243 -0.6451  0.2446
  292MOL0     O40194   1.471   7.297   0.932 -0.5067 -0.3885  0.6875
  292MOL0     C40195   1.460   7.343   0.796  0.5667 -0.1668  0.7739
  292MOL0     C40196   1.354   7.454   0.786 -0.3057 -0.9963 -0.3550
  292MOL0     C40197   1.288   7.461   0.647 -0.1676  0.7580 -0.3723
  292MOL0     C40198   1.391   7.525   0.545 -0.1072 -0.3053 -0.9145
  292MOL0     C40199   1.341   7.540   0.401 -0.7573  0.7900 -0.7798
  292MOL0     C40200   1.241   7.646   0.380  0.0983 -0.1975  0.1078
  292MOL0     C40201   1.246   7.695   0.232  0.7959  0.3858 -0.9004
  292MOL0     C40202   1.318   7.820   0.216  0.7744 -0.3109  0.1957
  292MOL0    Cl40203   1.221   7.952   0.293 -0.0313 -0.0267  0.1305
  292MOL0     C40204   1.382   7.242   1.144  0.6378 -0.1995  0.7918
  292MOL0     C40205   1.282   7.178   1.225 -0.4133 -0.7914  0.5994
  292MOL0     O40206   0.924   6.994   1.129 -0.8166 -0.5510  0.4471
  292MOL0     C40207   0.996   6.884   1.470 -0.1120  0.3019 -0.2174
  292MOL0     C40208   0.948   6.802   1.573  0.1179 -0.1326 -0.9383
  292MOL0     N40209   1.152   6.745   1.919  0.1476  0.3615 -0.3879
  292MOL0     N40210   1.248   6.688   1.856  0.0592  0.2899 -0.0736
  292MOL0     C40211   1.561   5.543   1.684 -0.2730 -0.3418  0.6873
  292MOL0     C40212   1.613   5.420   1.629  0.2909  0.5281 -0.9364
  292MOL0     C40213   1.807   5.030   1.605 -0.8758  0.4940 -0.5027
  292MOL0     C40214   1.812   4.919   1.696  0.1638 -0.4732 -0.6633
  292MOL0     C40215   1.836   4.785   1.659  0.0691  0.4341  0.3081
  292MOL0     C40216   1.838   4.758   1.519  0.4527  0.7968 -0.7701
  292MOL0     O40217   1.857   4.632   1.462  0.5431  0.2358 -0.4599
  292MOL0     C40218   1.858   4.511   1.545 -0.0741  0.0896  0.3100
  292MOL0     C40219   2.009   4.480   1.579 -0.9129 -0.4401  0.6622
  292MOL0     C40220   2.013   4.328   1.602 -0.3927 -0.6130  0.4631
  292MOL0     C40221   2.147   4.293   1.659 -0.0292 -0.5733  0.1450
  292MOL0     C40222   2.155   4.148   1.704  0.5463 -1.0756  0.3767
  292MOL0     C40223   2.182   4.034   1.730  0.1910 -0.2758  0.0722
  292MOL0     C40224   1.837   4.860   1.429  0.0096  0.1473 -0.8665
  292MOL0     C40225   1.824   4.990   1.469  1.0856 -0.6227 -0.1151
  292MOL0     C40226   1.809   5.094   1.353 -0.7715  0.5904  1.0293
  292MOL0     H40227   1.934   5.436   1.672 -0.3536 -0.4929  1.6749
  292MOL0     H40228   1.865   5.647   1.787  0.7317  0.6546 -0.0962
  292MOL0     H40229   1.457   5.694   1.907 -2.1723  1.1899  0.0798
  292MOL0     H40230   1.418   5.800   1.771  0.0719  0.5732  1.3444
  292MOL0     H40231   1.397   5.942   1.937  0.7611  0.0959 -1.7948
  292MOL0     H40232   1.517   5.861   2.050 -0.8010 -1.5569 -0.7796
  292MOL0     H40233   1.699   5.968   1.899  0.7951  0.3387 -2.5599
  292MOL0     H40234   1.567   6.047   1.807 -0.5429  2.2915  1.2171
  292MOL0     H40235   1.477   6.132   2.034 -0.7349 -0.7163 -1.4921
  292MOL0     H40236   1.636   6.089   2.095 -1.3528  0.2581  0.9428
  292MOL0     H40237   1.728   6.224   1.902  0.8465  0.7147  1.9713
  292MOL0     H40238   1.654   6.313   2.044 -2.7408  0.0322  0.8328
  292MOL0     H40239   1.608   6.415   1.820 -0.1836 -0.3070 -3.1618
  292MOL0     H40240   1.530   6.263   1.790  0.9584  1.4037 -1.3672
  292MOL0     H40241   1.448   6.461   2.013  0.6494  0.6360 -0.7886
  292MOL0     H40242   1.360   6.311   1.979 -0.1696  0.2973  0.3707
  292MOL0     H40243   1.424   6.528   1.780  0.2065  0.9012  2.2450
  292MOL0     H40244   1.300   6.410   1.749  1.5194 -3.5819  2.3583
  292MOL0     H40245   1.146   6.452   2.070 -0.4256  0.2990 -0.8741
  292MOL0     H40246   0.967   6.788   2.101  0.2375 -0.0988 -1.8475
  292MOL0     H40247   1.005   6.643   2.198  0.6095  2.1911  0.4117
  292MOL0     H40248   0.858   6.504   2.021  1.6898 -0.4432  0.3206
  292MOL0     H40249   0.778   6.614   2.147  1.0894  0.7203 -0.4415
  292MOL0     H40250   0.665   6.620   1.938 -0.8174  0.6069  0.0852
  292MOL0     H40251   0.723   6.774   1.981 -1.9403 -1.8076  1.2476
  292MOL0     H40252   0.905   6.777   1.833 -0.1929  0.0262 -0.3122
  292MOL0     H40253   0.905   6.606   1.801  1.5430  1.0027 -0.7721
  292MOL0     H40254   0.623   6.796   1.494  1.1993 -3.4373 -0.1800
  292MOL0     H40255   0.678   6.993   1.213  1.1113  0.3787 -0.3001
  292MOL0     H40256   0.575   6.897   1.299  1.3265 -0.8838  3.0982
  292MOL0     H40257   0.696   6.824   1.178  0.0813  2.1750 -1.6087
  292MOL0     H40258   1.110   7.036   0.976 -0.3463 -0.9159 -0.3456
  292MOL0     H40259   1.255   7.158   0.843  1.3335 -1.7743  0.7096
  292MOL0     H40260   1.552   7.394   0.764  0.8012 -0.6351  0.6848
  292MOL0     H40261   1.449   7.256   0.731 -1.7672  1.6517 -1.4544
  292MOL0     H40262   1.280   7.440   0.865 -0.1352  2.5450  0.6091
  292MOL0     H40263   1.396   7.553   0.802 -0.0854 -1.5288  3.2510
  292MOL0     H40264   1.203   7.529   0.660  0.1027  0.4205  6.1895
  292MOL0     H40265   1.255   7.363   0.613  2.9595  0.2614 -2.4396
  292MOL0     H40266   1.486   7.472   0.545 -0.8838 -1.7559 -1.7801
  292MOL0     H40267   1.403   7.626   0.584 -1.7324 -1.4269  2.9860
  292MOL0     H40268   1.436   7.567   0.352  1.5821 -2.9602  1.2268
  292MOL0     H40269   1.302   7.445   0.365 -2.6722  0.6305  1.5338
  292MOL0     H40270   1.250   7.732   0.448  0.9268 -1.1852  1.2851
  292MOL0     H40271   1.142   7.600   0.390  0.2511 -0.6109 -0.2714
  292MOL0     H40272   1.142   7.709   0.199  0.0024 -0.5588  1.0491
  292MOL0     H40273   1.283   7.617   0.166 -1.0498  0.9126 -2.6921
  292MOL0     H40274   1.309   7.844   0.110 -1.2566 -0.9626  0.1750
  292MOL0     H40275   1.419   7.821   0.258  0.3272 -2.3963  1.4549
  292MOL0     H40276   1.462   7.305   1.182  1.0905 -0.8799  0.9715
  292MOL0     H40277   1.299   7.184   1.332  0.3269  0.1699  0.4515
  292MOL0     H40278   1.101   6.912   1.470 -0.4861  1.8647 -1.8861
  292MOL0     H40279   1.025   6.765   1.641  1.7701  0.5131 -2.3844
  292MOL0     H40280   1.458   5.570   1.666  0.3903  1.1764 -1.2364
  292MOL0     H40281   1.543   5.354   1.579 -2.0761  1.7579  0.5677
  292MOL0     H40282   1.796   4.935   1.803  1.5445  1.7979 -0.7176
  292MOL0     H40283   1.833   4.711   1.738  1.7285 -0.5593 -0.5161
  292MOL0     H40284   1.795   4.515   1.634 -0.1778  1.1601  0.1998
  292MOL0     H40285   1.812   4.434   1.483 -1.3880  0.1799  1.1247
  292MOL0     H40286   2.047   4.537   1.664  1.6017 -0.0401 -0.6355
  292MOL0     H40287   2.082   4.502   1.500 -1.7785 -1.9856 -0.6115
  292MOL0     H40288   1.933   4.298   1.670 -1.6860  1.5701  0.0111
  292MOL0     H40289   1.994   4.282   1.505 -0.5225 -2.3876  1.2925
  292MOL0     H40290   2.175   4.350   1.748  3.8262 -2.0100  0.0035
  292MOL0     H40291   2.224   4.323   1.587  0.0878  0.3913  0.6644
  292MOL0     H40292   2.192   3.931   1.753  0.1987 -0.7872 -1.9857
  292MOL0     H40293   1.850   4.831   1.326  0.8736  0.6551 -0.9072
  292MOL0     H40294   1.824   5.050   1.255 -1.2413  0.2298  1.1156
  292MOL0     H40295   1.709   5.138   1.353 -1.7570 -1.3689  3.6817
  292MOL0     H40296   1.883   5.174   1.364  0.4254 -0.3764  0.2705
  293MOL0     O40297  11.477   1.681   6.732  0.4179  0.2266  0.6411
  293MOL0     C40298  11.532   1.603   6.658 -0.0117  0.3914  0.1582
  293MOL0     O40299  11.519   1.467   6.661 -0.3019  0.0406  0.1169
  293MOL0     C40300  11.478   1.404   6.774 -0.4329  0.3183 -0.3170
  293MOL0     C40301  11.345   1.394   6.805  0.3488  0.0922 -0.5752
  293MOL0     C40302  11.313   1.347   6.948  0.1301 -0.6562  0.1043
  293MOL0     C40303  11.411   1.304   7.040 -0.3469 -0.1349  0.5021
  293MOL0     O40304  11.387   1.265   7.165 -0.4279 -0.2922 -0.1582
  293MOL0     C40305  11.409   1.123   7.201  0.2029 -0.0985  0.3023
  293MOL0     C40306  11.369   1.099   7.348  0.3877  0.0880 -0.2917
  293MOL0     C40307  11.220   1.124   7.377  0.0751 -0.3555 -0.4001
  293MOL0     C40308  11.197   1.192   7.508  0.3328  0.0930  0.0038
  293MOL0     C40309  11.046   1.220   7.536  0.4608  0.8482  0.2038
  293MOL0     C40310  10.999   1.141   7.669  0.1539  0.0217  0.1623
  293MOL0     C40311  11.011   0.985   7.640  0.8914 -0.1624  0.1704
  293MOL0     C40312  10.913   0.889   7.713 -0.5542 -0.2588  0.5414
  293MOL0     N40313  10.935   0.867   7.857 -0.6751  0.5430  0.1252
  293MOL0     C40314  10.905   0.956   7.963  0.5709 -0.8173 -0.4399
  293MOL0     C40315  10.943   0.895   8.074 -0.2477 -0.3120 -1.0472
  293MOL0     C40316  10.943   0.959   8.207  0.9275  0.4507  0.1082
  293MOL0     C40317  10.880   1.102   8.218 -0.0555  0.1943 -1.1037
  293MOL0     C40318  10.869   1.122   8.369  0.6946 -0.4405  0.6968
  293MOL0     C40319  10.802   1.262   8.387  1.1791 -0.3997  0.1767
  293MOL0     O40320  10.873   1.361   8.304  0.3036 -0.4605  0.4875
  293MOL0     C40321  10.893   1.494   8.351  0.1769  0.3820  0.1961
  293MOL0     C40322  10.832   1.545   8.466  0.7460 -0.0617 -0.0028
  293MOL0     C40323  10.857   1.678   8.497  0.7784 -0.1505  0.7023
  293MOL0     C40324  10.797   1.739   8.613  0.5529  0.3713  0.2203
  293MOL0     C40325  10.928   1.764   8.410 -0.0947 -0.7975  0.3702
  293MOL0     C40326  10.954   1.909   8.442  0.5742 -0.6105  0.5104
  293MOL0     O40327  11.048   1.928   8.535 -0.1720 -0.1686  0.3271
  293MOL0     C40328  11.099   2.058   8.556  0.1254 -0.0628 -0.5468
  293MOL0     C40329  11.088   2.177   8.481  0.1248  0.4725 -0.1499
  293MOL0     C40330  11.159   2.290   8.517 -0.4499  0.6976 -0.4163
  293MOL0     C40331  11.243   2.289   8.635  0.6250  0.0231  0.8870
  293MOL0     O40332  11.312   2.402   8.678 -0.0752  0.6937  1.8318
  293MOL0     C40333  11.341   2.499   8.574  0.0631 -0.1935 -0.3180
  293MOL0     C40334  11.449   2.601   8.612  0.2022  0.2152 -0.5654
  293MOL0     C40335  11.565   2.537   8.694 -0.6297  0.1865  0.1467
  293MOL0     C40336  11.637   2.422   8.605  0.3930  0.4638  0.0746
  293MOL0     C40337  11.771   2.391   8.673  0.2393  0.1341  0.4648
  293MOL0     C40338  11.753   2.312   8.797  0.7395  0.8424  0.0156
  293MOL0     C40339  11.878   2.277   8.865 -0.4521  0.6786 -0.6068
  293MOL0     C40340  11.878   2.302   9.014  0.3161 -0.2549  0.3037
  293MOL0    Cl40341  12.043   2.317   9.068 -0.3520 -0.2986  0.1993
  293MOL0     C40342  11.256   2.172   8.702 -0.1692 -0.0148 -0.8987
  293MOL0     C40343  11.184   2.062   8.668  0.0478  0.3315  0.7015
  293MOL0     O40344  10.870   1.991   8.401 -0.5494  1.0613 -0.4075
  293MOL0     C40345  10.982   1.707   8.293  0.4749  0.0196 -0.3740
  293MOL0     C40346  10.964   1.572   8.271  0.5375 -0.3722  0.0883
  293MOL0     N40347  11.003   0.776   8.037  0.2293  0.8146 -0.4072
  293MOL0     N40348  11.000   0.760   7.910 -0.1900  0.5979  0.1677
  293MOL0     C40349  11.549   1.312   6.998  0.7537  0.1540 -0.6296
  293MOL0     C40350  11.577   1.355   6.867  0.1102  0.0571  0.0712
  293MOL0     C40351  11.626   1.659   6.562 -0.2914 -0.0456 -0.3376
  293MOL0     C40352  11.756   1.601   6.573 -0.1933 -0.5454 -0.0814
  293MOL0     C40353  11.842   1.648   6.477  0.4553 -0.2374 -0.1498
  293MOL0     C40354  11.811   1.731   6.369 -1.0641 -0.2373  0.1345
  293MOL0     O40355  11.920   1.741   6.286  0.2094 -0.2393  0.8011
  293MOL0     C40356  11.895   1.694   6.158  0.5159  0.7807  0.7208
  293MOL0     C40357  12.013   1.609   6.102  0.0703  0.3500 -0.0053
  293MOL0     C40358  12.132   1.693   6.041 -0.6508 -0.1716  0.4178
  293MOL0     C40359  12.249   1.604   6.038  0.5639  0.5714 -0.2707
  293MOL0     C40360  12.258   1.510   5.924 -0.0286 -0.2304  0.4309
  293MOL0     C40361  12.278   1.457   5.816  0.2290  0.1612  0.2296
  293MOL0     C40362  11.687   1.797   6.362  0.1092 -1.1454 -0.0410
  293MOL0     C40363  11.591   1.758   6.464  0.9489 -0.9512  0.2428
  293MOL0     C40364  11.450   1.800   6.447  0.1278 -0.5534  0.7554
  293MOL0     H40365  11.270   1.442   6.743  0.7329  0.7328 -0.5602
  293MOL0     H40366  11.210   1.346   6.981 -0.8798  0.7548 -2.6749
  293MOL0     H40367  11.510   1.082   7.193  0.1048 -1.2145  3.6010
  293MOL0     H40368  11.357   1.058   7.129  0.0598  1.5440 -1.1572
  293MOL0     H40369  11.381   0.992   7.369 -0.1452  0.2915  1.2054
  293MOL0     H40370  11.439   1.158   7.409  1.1962 -1.3012  0.1829
  293MOL0     H40371  11.177   1.174   7.289 -2.9978 -0.9912  0.6473
  293MOL0     H40372  11.161   1.033   7.371 -4.5622  2.3062  0.3184
  293MOL0     H40373  11.230   1.130   7.592 -3.5542 -3.4598 -0.7888
  293MOL0     H40374  11.253   1.286   7.504 -0.1647  0.4785  1.3950
  293MOL0     H40375  10.991   1.189   7.446  1.7576 -2.2095  0.3171
  293MOL0     H40376  11.026   1.324   7.562 -0.1344  0.9813 -0.7162
  293MOL0     H40377  11.059   1.169   7.756 -0.3178  0.2070  0.4300
  293MOL0     H40378  10.892   1.159   7.680 -0.6223 -1.8163 -3.0501
  293MOL0     H40379  11.112   0.942   7.649  2.0229  2.6851  3.5079
  293MOL0     H40380  10.971   0.966   7.541  0.5141 -1.6544  0.5804
  293MOL0     H40381  10.810   0.925   7.702 -0.0770  0.7870 -0.7656
  293MOL0     H40382  10.922   0.788   7.673  1.6615 -0.0929  0.5135
  293MOL0     H40383  10.854   1.047   7.934  1.5388 -0.6151 -1.5965
  293MOL0     H40384  11.037   0.948   8.261  1.1105 -0.1141 -0.3114
  293MOL0     H40385  10.874   0.901   8.270  1.6859  0.3513  0.8562
  293MOL0     H40386  10.956   1.163   8.170 -0.7926  1.4379 -0.7424
  293MOL0     H40387  10.786   1.117   8.165 -1.4465  3.8244  1.9352
  293MOL0     H40388  10.802   1.045   8.409 -3.5902  1.2047 -2.5359
  293MOL0     H40389  10.970   1.117   8.410  0.9945 -1.3398 -0.1322
  293MOL0     H40390  10.698   1.264   8.353  0.8511 -1.0741  1.1154
  293MOL0     H40391  10.821   1.293   8.490 -0.6858  0.5929  0.2682
  293MOL0     H40392  10.759   1.489   8.524 -0.9178 -0.1361 -2.0545
  293MOL0     H40393  10.753   1.659   8.673 -1.0143 -0.4851 -1.9066
  293MOL0     H40394  10.718   1.813   8.599 -1.0815 -0.8851  2.2431
  293MOL0     H40395  10.884   1.774   8.669  2.0580 -0.6879 -1.3582
  293MOL0     H40396  11.033   2.180   8.388  1.2428  0.6214 -0.8268
  293MOL0     H40397  11.152   2.377   8.452 -1.5164 -0.7988 -2.4127
  293MOL0     H40398  11.374   2.448   8.483 -0.6552  1.0489 -1.3041
  293MOL0     H40399  11.253   2.554   8.542 -2.3226 -3.7895 -0.4668
  293MOL0     H40400  11.492   2.638   8.518  1.6659  2.2790  0.8421
  293MOL0     H40401  11.408   2.685   8.669  5.5780  2.5042  0.4756
  293MOL0     H40402  11.528   2.487   8.784  0.0572  0.2078  0.4488
  293MOL0     H40403  11.640   2.614   8.711  0.9765 -1.0897 -0.8096
  293MOL0     H40404  11.668   2.453   8.505  1.2865 -4.1280 -1.2655
  293MOL0     H40405  11.573   2.335   8.592 -0.5674  1.3849 -1.6909
  293MOL0     H40406  11.830   2.330   8.604  0.7710  0.5818  0.5138
  293MOL0     H40407  11.821   2.487   8.690 -1.2105  0.9638  0.1866
  293MOL0     H40408  11.700   2.222   8.765 -1.8222  2.5400 -0.8516
  293MOL0     H40409  11.686   2.359   8.870 -0.1014 -3.4180  2.2863
  293MOL0     H40410  11.956   2.328   8.807  0.6812  0.3924  0.6195
  293MOL0     H40411  11.897   2.173   8.839  2.6311  1.1378 -0.5859
  293MOL0     H40412  11.814   2.233   9.070  0.7832 -2.0155 -1.2285
  293MOL0     H40413  11.841   2.404   9.024  3.0035  0.9304 -0.8943
  293MOL0     H40414  11.324   2.167   8.787 -0.5844 -0.2216 -0.5766
  293MOL0     H40415  11.201   1.967   8.718 -0.9901  0.9935  2.4063
  293MOL0     H40416  11.024   1.770   8.216 -0.4405  0.3364 -0.6232
  293MOL0     H40417  11.014   1.533   8.183 -4.1601  2.8618 -4.6887
  293MOL0     H40418  11.626   1.265   7.058  0.3088 -2.6350 -2.0463
  293MOL0     H40419  11.675   1.337   6.824 -0.7337 -2.0768 -1.1144
  293MOL0     H40420  11.791   1.522   6.639  0.7282  0.6103  0.8617
  293MOL0     H40421  11.943   1.612   6.486  0.0616 -1.0103  1.4711
  293MOL0     H40422  11.801   1.638   6.164  1.5047 -1.0311 -0.0817
  293MOL0     H40423  11.885   1.787   6.101  0.3696 -1.4101 -3.1384
  293MOL0     H40424  11.981   1.536   6.026  0.7995 -2.3876  2.1469
  293MOL0     H40425  12.058   1.545   6.178  1.4786 -1.0531 -1.8980
  293MOL0     H40426  12.102   1.732   5.943  1.2873 -3.0741 -1.4958
  293MOL0     H40427  12.143   1.777   6.109 -0.6520  1.8911 -2.0031
  293MOL0     H40428  12.246   1.555   6.136  0.6999  2.0727  0.5116
  293MOL0     H40429  12.336   1.670   6.042  0.0653  1.6418 -3.8829
  293MOL0     H40430  12.310   1.408   5.727  3.0261  1.3395  0.4741
  293MOL0     H40431  11.663   1.864   6.280 -1.0086  0.0163  1.1842
  293MOL0     H40432  11.395   1.730   6.384  2.6146 -2.5509  0.6775
  293MOL0     H40433  11.406   1.812   6.547  2.3000  0.1085  1.6815
  293MOL0     H40434  11.434   1.901   6.407 -1.3991 -1.1610 -0.2631
  294MOL0     O40435   8.546   1.352   0.040  0.1793 -0.4161 -0.1120
  294MOL0     C40436   8.571   1.246   0.102  0.9626 -0.0789  0.2753
  294MOL0     O40437   8.687   1.178   0.104 -0.3302 -0.1871 -0.1590
  294MOL0     C40438   8.751   1.198  -0.015  0.1798 -0.5310  0.2265
  294MOL0     C40439   8.824   1.314  -0.055  0.0645  0.2110  0.5585
  294MOL0     C40440   8.876   1.330  -0.178 -0.0779  0.3352  0.4520
  294MOL0     C40441   8.873   1.223  -0.270  0.1080  0.2769 -1.0159
  294MOL0     O40442   8.948   1.213  -0.383  0.4599  0.5971  0.1711
  294MOL0     C40443   9.019   1.326  -0.425  0.6956  0.3847 -0.0469
  294MOL0     C40444   9.108   1.301  -0.542  0.0063 -0.3760  0.2046
  294MOL0     C40445   9.037   1.233  -0.651  0.6612 -0.3122 -1.6081
  294MOL0     C40446   9.094   1.263  -0.790 -1.0341 -0.0883  0.6421
  294MOL0     C40447   9.019   1.198  -0.910 -0.7982 -1.3346  0.5510
  294MOL0     C40448   8.880   1.239  -0.918  0.6099  0.5061  0.4995
  294MOL0     C40449   8.801   1.133  -1.001  0.0068 -0.4755 -0.7195
  294MOL0     C40450   8.664   1.191  -1.039  0.3694  0.7678  0.3871
  294MOL0     N40451   8.585   1.096  -1.124  0.2694 -1.2688 -0.2946
  294MOL0     C40452   8.566   1.110  -1.264  0.1131  0.3771  0.2638
  294MOL0     C40453   8.511   0.988  -1.295  0.3296  0.7206  0.4245
  294MOL0     C40454   8.484   0.931  -1.433 -0.0344  0.6852 -0.6690
  294MOL0     C40455   8.591   0.820  -1.460  1.1146 -0.5265 -0.2687
  294MOL0     C40456   8.555   0.684  -1.400 -0.9545 -0.2755  0.3044
  294MOL0     C40457   8.676   0.593  -1.359  0.0260  0.8294 -0.5278
  294MOL0     O40458   8.791   0.666  -1.310  0.2127  0.0243 -0.6565
  294MOL0     C40459   8.817   0.679  -1.176  0.1847 -0.6391  0.1240
  294MOL0     C40460   8.941   0.730  -1.133  0.0706 -0.8617  0.3323
  294MOL0     C40461   8.969   0.769  -1.002  0.1231 -0.1585  0.7396
  294MOL0     C40462   9.113   0.807  -0.987 -1.6882 -0.6099 -0.1640
  294MOL0     C40463   8.862   0.763  -0.906 -0.3461 -0.7670 -0.2380
  294MOL0     C40464   8.888   0.778  -0.762 -0.1642  0.0001 -0.1130
  294MOL0     O40465   8.804   0.719  -0.677  0.3900  0.4841 -0.4170
  294MOL0     C40466   8.855   0.707  -0.550  0.4645 -0.2431  0.3516
  294MOL0     C40467   8.943   0.611  -0.512 -1.0367 -0.3032  0.4420
  294MOL0     C40468   8.996   0.609  -0.381 -0.1569  1.0188  0.2987
  294MOL0     C40469   8.931   0.675  -0.275 -0.4429  0.3202  0.2161
  294MOL0     O40470   8.976   0.651  -0.146 -0.8054  0.2879 -0.6026
  294MOL0     C40471   8.915   0.721  -0.035  0.6469 -0.0236  0.3871
  294MOL0     C40472   8.986   0.692   0.089 -0.1625 -0.1730 -0.0962
  294MOL0     C40473   8.931   0.795   0.193  0.2127 -0.4536 -0.1434
  294MOL0     C40474   8.938   0.752   0.332  0.2411 -0.1777  0.1465
  294MOL0     C40475   8.877   0.865   0.420 -0.2931  0.5815  0.0716
  294MOL0     C40476   8.827   0.810   0.554  0.8398 -0.1766 -0.4763
  294MOL0     C40477   8.796   0.919   0.664 -0.4856  0.3973 -0.0632
  294MOL0     C40478   8.669   1.000   0.646  0.0624 -0.2660  0.8989
  294MOL0    Cl40479   8.659   1.113   0.778 -0.5677  0.2585  0.0118
  294MOL0     C40480   8.828   0.764  -0.312  0.5656 -0.0342 -0.5532
  294MOL0     C40481   8.791   0.783  -0.449 -0.2364  0.0172  0.3704
  294MOL0     O40482   8.957   0.876  -0.733 -0.2428  0.4025  0.2176
  294MOL0     C40483   8.752   0.698  -0.954  0.5847  0.6824 -0.0147
  294MOL0     C40484   8.726   0.658  -1.080  0.4016 -0.0788 -0.1492
  294MOL0     N40485   8.484   0.920  -1.175  0.8423 -0.1193  0.2710
  294MOL0     N40486   8.534   0.980  -1.075 -0.2593  0.7509 -0.3439
  294MOL0     C40487   8.808   1.104  -0.234  0.0738  0.7121 -0.6405
  294MOL0     C40488   8.749   1.084  -0.107 -0.7754  0.0775 -1.0907
  294MOL0     C40489   8.475   1.207   0.200 -0.1609 -0.1937  0.4358
  294MOL0     C40490   8.514   1.189   0.330  0.0356 -0.6135 -0.7050
  294MOL0     C40491   8.418   1.160   0.428 -0.2902 -0.4377 -0.5256
  294MOL0     C40492   8.288   1.120   0.396  0.6043  0.7196 -0.4717
  294MOL0     O40493   8.204   1.065   0.491 -0.6870 -0.5070  0.0376
  294MOL0     C40494   8.162   1.154   0.599  0.0679  0.8818 -0.0851
  294MOL0     C40495   8.008   1.133   0.610 -0.1871 -0.6425 -0.4711
  294MOL0     C40496   7.948   1.254   0.705 -0.2929 -0.0798 -0.0554
  294MOL0     C40497   7.804   1.239   0.765  0.3459  0.4112 -0.1857
  294MOL0     C40498   7.799   1.121   0.850  0.6945 -0.1532  0.3437
  294MOL0     C40499   7.795   1.044   0.939 -0.0335  0.8172 -0.1734
  294MOL0     C40500   8.245   1.135   0.262  0.3952 -0.6481 -0.8587
  294MOL0     C40501   8.334   1.180   0.165 -0.1346  0.3387 -0.2771
  294MOL0     C40502   8.277   1.193   0.019  0.8394 -0.7607  0.1306
  294MOL0     H40503   8.820   1.396   0.016  1.8791 -1.1334  2.3309
  294MOL0     H40504   8.922   1.422  -0.211 -2.5913  0.9412 -1.7310
  294MOL0     H40505   9.074   1.373  -0.342 -0.2342 -0.5830  1.1604
  294MOL0     H40506   8.948   1.402  -0.458 -0.0707 -1.3664 -2.7478
  294MOL0     H40507   9.145   1.400  -0.568  0.3174 -0.6558 -0.4599
  294MOL0     H40508   9.191   1.232  -0.521  0.2154 -0.6791 -1.5029
  294MOL0     H40509   9.035   1.128  -0.622 -0.4685  1.0481  4.5289
  294MOL0     H40510   8.934   1.271  -0.652  1.2302  1.3248 -2.3720
  294MOL0     H40511   9.087   1.372  -0.796 -2.9367 -0.2180 -0.2692
  294MOL0     H40512   9.196   1.223  -0.793 -1.1470 -0.3728  0.4610
  294MOL0     H40513   9.021   1.090  -0.889 -0.3408 -1.2240  1.1185
  294MOL0     H40514   9.070   1.212  -1.006  0.1279 -0.2940  1.1680
  294MOL0     H40515   8.827   1.265  -0.825 -1.6375  1.0517 -0.8711
  294MOL0     H40516   8.889   1.335  -0.969  0.6964  0.4232  0.3583
  294MOL0     H40517   8.796   1.052  -0.927  1.8351 -1.7694 -1.9444
  294MOL0     H40518   8.860   1.105  -1.089  2.5906 -0.9689  1.0425
  294MOL0     H40519   8.618   1.213  -0.943 -1.7387  1.1710 -0.6541
  294MOL0     H40520   8.695   1.287  -1.083  0.0072 -0.0812 -1.8306
  294MOL0     H40521   8.581   1.203  -1.318 -1.5159  1.5520  1.6852
  294MOL0     H40522   8.486   1.009  -1.510 -1.8692  1.7942  0.3343
  294MOL0     H40523   8.382   0.892  -1.443 -0.4703  1.9261 -1.3614
  294MOL0     H40524   8.622   0.806  -1.564  0.3543  2.7199 -1.0683
  294MOL0     H40525   8.681   0.858  -1.410 -0.0121 -0.4966  1.8808
  294MOL0     H40526   8.509   0.694  -1.301 -0.4493 -3.2717  0.9259
  294MOL0     H40527   8.483   0.635  -1.466  0.3455  1.7913 -2.9119
  294MOL0     H40528   8.640   0.522  -1.285  2.7750  1.9554  2.0921
  294MOL0     H40529   8.709   0.536  -1.447 -1.8212 -0.3344 -0.5227
  294MOL0     H40530   9.014   0.737  -1.213 -4.3664  0.9403 -4.1467
  294MOL0     H40531   9.166   0.719  -0.949  2.0962 -0.2640 -3.8737
  294MOL0     H40532   9.121   0.898  -0.929 -0.9848  0.9306 -2.5225
  294MOL0     H40533   9.165   0.828  -1.081 -0.4798  0.2743  0.6687
  294MOL0     H40534   8.985   0.546  -0.588  3.8686  0.9494  1.7255
  294MOL0     H40535   9.082   0.548  -0.356 -0.0698 -0.2645 -2.6532
  294MOL0     H40536   8.938   0.824  -0.066  1.8874 -0.8505 -1.7029
  294MOL0     H40537   8.811   0.693  -0.015  0.6584  0.2569  0.8510
  294MOL0     H40538   8.977   0.593   0.133  0.9311  0.0892  0.7646
  294MOL0     H40539   9.095   0.700   0.078  0.1977 -1.4303  1.9756
  294MOL0     H40540   8.828   0.826   0.173 -0.9015 -4.2721 -1.1660
  294MOL0     H40541   8.993   0.885   0.188 -2.0937  1.2149 -0.6367
  294MOL0     H40542   9.039   0.730   0.367  0.4835 -2.8207 -1.8969
  294MOL0     H40543   8.875   0.662   0.341  0.1701 -0.5359 -2.9583
  294MOL0     H40544   8.960   0.935   0.429  0.4683  0.2929 -3.3552
  294MOL0     H40545   8.796   0.918   0.369  0.8337 -0.2731 -2.7935
  294MOL0     H40546   8.892   0.737   0.603 -1.5170 -0.0120  3.3614
  294MOL0     H40547   8.735   0.752   0.540  0.4544 -0.0605  1.3181
  294MOL0     H40548   8.888   0.978   0.665  2.0535 -2.9852  4.3008
  294MOL0     H40549   8.775   0.869   0.759 -0.0347 -3.6068 -1.8769
  294MOL0     H40550   8.578   0.939   0.640 -0.8623  1.2200 -2.7130
  294MOL0     H40551   8.673   1.048   0.548  2.3530  3.4074  2.5412
  294MOL0     H40552   8.773   0.821  -0.238 -1.0772 -1.8060 -0.3355
  294MOL0     H40553   8.717   0.857  -0.478  1.1036 -0.0121 -3.8058
  294MOL0     H40554   8.670   0.671  -0.889  0.1307 -1.5774 -1.3889
  294MOL0     H40555   8.625   0.625  -1.104  0.0172  1.6475 -1.0175
  294MOL0     H40556   8.821   1.020  -0.301  0.8010 -0.4318  0.8802
  294MOL0     H40557   8.709   0.987  -0.079  1.4985 -0.9380 -1.1420
  294MOL0     H40558   8.618   1.194   0.359 -0.6815  1.2528  1.8566
  294MOL0     H40559   8.454   1.146   0.529 -0.0358  0.7272 -0.4367
  294MOL0     H40560   8.212   1.135   0.694 -1.9379  0.0536  0.8629
  294MOL0     H40561   8.176   1.258   0.566 -0.1384  1.0336  0.3031
  294MOL0     H40562   8.008   1.027   0.638  2.4415 -2.0730 -4.8621
  294MOL0     H40563   7.950   1.140   0.518 -3.7680 -0.3852  1.6281
  294MOL0     H40564   8.012   1.282   0.789  1.3872 -4.0437  0.1640
  294MOL0     H40565   7.949   1.346   0.645  1.7247 -0.4175 -0.5872
  294MOL0     H40566   7.725   1.229   0.691 -0.5764  1.3819  0.6363
  294MOL0     H40567   7.780   1.325   0.829 -1.1909  0.9888 -1.4848
  294MOL0     H40568   7.803   0.971   1.017 -0.8860 -0.4233 -1.1999
  294MOL0     H40569   8.142   1.115   0.236  0.1620 -1.8186  0.7906
  294MOL0     H40570   8.220   1.100   0.010 -0.6179 -0.0278  1.4063
  294MOL0     H40571   8.212   1.281   0.019 -1.6763 -2.4777  1.9626
  294MOL0     H40572   8.359   1.194  -0.054 -0.2796  0.1841 -1.1556
  295MOL0     O40573   4.896   5.397  10.625 -0.3916  0.4395 -0.6392
  295MOL0     C40574   4.899   5.355  10.741 -0.2900 -1.0190 -0.0502
  295MOL0     O40575   4.895   5.229  10.791 -0.1566  1.1253 -0.0014
  295MOL0     C40576   4.882   5.137  10.694 -0.0680  1.2385 -0.1846
  295MOL0     C40577   4.987   5.050  10.669 -0.0694  0.5474  0.0344
  295MOL0     C40578   4.986   4.952  10.562  0.8103 -1.1147 -0.0465
  295MOL0     C40579   4.868   4.927  10.491 -0.1787 -1.3553 -0.0658
  295MOL0     O40580   4.855   4.836  10.395 -0.4205 -0.2558 -0.3810
  295MOL0     C40581   4.924   4.714  10.417  0.4909 -0.3611 -0.4095
  295MOL0     C40582   4.851   4.639  10.538 -0.0497 -0.2239  0.0994
  295MOL0     C40583   4.863   4.489  10.522 -0.3190 -0.5043  0.0366
  295MOL0     C40584   5.015   4.448  10.522 -0.4694  0.5013 -0.2327
  295MOL0     C40585   5.028   4.297  10.564 -0.3387  0.4458  0.3784
  295MOL0     C40586   5.161   4.231  10.564 -0.5529  0.5597  0.3885
  295MOL0     C40587   5.261   4.276  10.676 -0.5307  0.6753  0.1316
  295MOL0     C40588   5.236   4.222  10.813 -0.4527  0.3720  0.2754
  295MOL0     N40589   5.338   4.260  10.915  0.2988 -0.3495 -0.0160
  295MOL0     C40590   5.305   4.333  11.021  0.0368  1.6003 -1.7371
  295MOL0     C40591   5.419   4.320  11.102  1.0159  0.3372 -0.6870
  295MOL0     C40592   5.433   4.362  11.249 -0.4238 -0.0449 -0.2558
  295MOL0     C40593   5.565   4.305  11.300 -0.6312 -0.0717  1.1105
  295MOL0     C40594   5.603   4.343  11.440 -1.2374  0.7819  0.8765
  295MOL0     C40595   5.647   4.493  11.483  0.3239 -0.2843  0.9072
  295MOL0     O40596   5.717   4.484  11.603  0.0840  0.0064 -0.6198
  295MOL0     C40597   5.739   4.601  11.667 -0.3304 -0.6730  0.5860
  295MOL0     C40598   5.878   4.638  11.669 -0.0198 -0.6277 -1.0990
  295MOL0     C40599   5.911   4.759  11.744  0.5956 -0.1660 -0.1552
  295MOL0     C40600   6.068   4.776  11.767  0.9864  0.1784  0.5904
  295MOL0     C40601   5.803   4.841  11.799 -0.5777 -0.1473  0.4933
  295MOL0     C40602   5.830   4.975  11.869  0.6803  0.5016 -0.2374
  295MOL0     O40603   5.945   5.023  11.835  0.1772  0.5632  0.7237
  295MOL0     C40604   5.974   5.137  11.906 -0.5490 -0.2537  0.6575
  295MOL0     C40605   5.992   5.253  11.826 -0.3651  0.4781  0.4635
  295MOL0     C40606   6.041   5.366  11.880  0.0599 -0.5584 -0.7028
  295MOL0     C40607   6.080   5.374  12.010  0.5879 -1.0660  0.3245
  295MOL0     O40608   6.128   5.495  12.053 -0.3779  0.2767  0.5451
  295MOL0     C40609   6.146   5.517  12.193 -0.1876  0.4884 -1.0151
  295MOL0     C40610   6.002   5.557  12.248 -1.3752  0.2846 -0.7764
  295MOL0     C40611   5.924   5.646  12.143  0.3881 -0.1733 -0.2637
  295MOL0     C40612   5.978   5.775  12.097  0.7641 -0.2883  0.2902
  295MOL0     C40613   5.868   5.857  12.038  0.2985 -0.2631 -0.5034
  295MOL0     C40614   5.906   5.991  11.977  0.3050  0.0636 -0.1936
  295MOL0     C40615   5.790   6.096  11.969 -0.5521  0.7874 -0.7119
  295MOL0     C40616   5.837   6.230  11.931 -0.6015 -0.3544  0.9318
  295MOL0    Cl40617   5.930   6.314  12.070  0.0464  0.4442  0.0384
  295MOL0     C40618   6.075   5.256  12.090  0.3999  0.4031  0.7982
  295MOL0     C40619   6.012   5.139  12.042  0.6110 -0.2441 -0.9107
  295MOL0     O40620   5.741   5.022  11.941 -0.3684  0.2345  0.2767
  295MOL0     C40621   5.668   4.803  11.784 -0.6887  1.1781 -0.0246
  295MOL0     C40622   5.640   4.674  11.730  0.3389 -0.1098 -0.2390
  295MOL0     N40623   5.511   4.232  11.038 -0.5218 -0.3242  0.5319
  295MOL0     N40624   5.459   4.203  10.922 -0.6248 -0.1116 -0.2708
  295MOL0     C40625   4.761   5.027  10.516 -0.0177 -0.0905 -0.0288
  295MOL0     C40626   4.773   5.127  10.607 -0.2530 -0.9367 -0.2652
  295MOL0     C40627   4.911   5.464  10.836 -0.5109  0.3091  0.2675
  295MOL0     C40628   4.793   5.545  10.850  0.1531  0.7668  0.0401
  295MOL0     C40629   4.788   5.647  10.943  0.3694 -0.3902 -0.1111
  295MOL0     C40630   4.896   5.665  11.028  0.1888 -0.2597 -0.2547
  295MOL0     O40631   4.879   5.762  11.127  0.2692  0.3321 -0.1908
  295MOL0     C40632   4.757   5.822  11.174  0.6600  0.5239 -0.4560
  295MOL0     C40633   4.778   5.912  11.299  0.1371  0.4258 -0.0096
  295MOL0     C40634   4.826   5.839  11.421  0.0640 -0.0743 -0.1940
  295MOL0     C40635   4.702   5.797  11.507  0.4346 -0.2425  0.0644
  295MOL0     C40636   4.742   5.724  11.634 -0.2356 -0.6695  0.7674
  295MOL0     C40637   4.769   5.642  11.717 -0.5472  0.0271 -0.1309
  295MOL0     C40638   5.017   5.598  11.008 -0.7035 -0.4539 -0.6311
  295MOL0     C40639   5.020   5.489  10.908  0.0847 -1.3124 -0.2117
  295MOL0     C40640   5.150   5.415  10.886 -0.7225 -0.6491  0.2531
  295MOL0     H40641   5.072   5.066  10.736 -0.2481 -1.0306  0.6769
  295MOL0     H40642   5.081   4.908  10.536  1.3963 -0.0093  0.1895
  295MOL0     H40643   5.033   4.729  10.415  0.2457  1.6936 -0.5290
  295MOL0     H40644   4.898   4.655  10.329 -0.8719  0.9507 -0.9163
  295MOL0     H40645   4.890   4.688  10.628  0.1568 -2.5201  1.3218
  295MOL0     H40646   4.745   4.664  10.531 -0.0813 -0.5741 -0.7280
  295MOL0     H40647   4.813   4.449  10.610 -0.0574  0.9481  0.8771
  295MOL0     H40648   4.813   4.449  10.433  0.0592  1.4612 -1.1262
  295MOL0     H40649   5.063   4.455  10.424  1.8087  0.8687  0.8408
  295MOL0     H40650   5.071   4.500  10.599 -1.0533  1.2741 -0.3227
  295MOL0     H40651   4.961   4.244  10.495  1.4145 -0.9437 -0.3247
  295MOL0     H40652   4.983   4.278  10.662 -2.3579 -3.0355 -1.0338
  295MOL0     H40653   5.148   4.123  10.563 -0.1444  0.5122 -0.2400
  295MOL0     H40654   5.205   4.242  10.465  0.6858 -0.3518  0.8171
  295MOL0     H40655   5.264   4.383  10.702  2.3042  0.3972  1.4016
  295MOL0     H40656   5.355   4.234  10.638 -0.0211  1.8832 -0.0008
  295MOL0     H40657   5.141   4.256  10.855 -0.5363 -1.0967  1.3511
  295MOL0     H40658   5.228   4.113  10.805 -0.1142  0.4037 -0.5430
  295MOL0     H40659   5.215   4.380  11.059  0.1999 -0.5589  1.7902
  295MOL0     H40660   5.349   4.318  11.305 -0.4507 -0.0677 -0.3139
  295MOL0     H40661   5.443   4.470  11.256 -1.4561  0.2034 -2.0881
  295MOL0     H40662   5.565   4.196  11.294  3.1212 -0.1051 -0.7838
  295MOL0     H40663   5.633   4.338  11.222 -3.3760 -2.3036 -2.5776
  295MOL0     H40664   5.530   4.308  11.513 -1.0089 -2.7698 -0.3828
  295MOL0     H40665   5.691   4.282  11.462  0.4139  2.9039  0.4862
  295MOL0     H40666   5.724   4.535  11.418  2.3410 -1.8604  2.1523
  295MOL0     H40667   5.558   4.555  11.488 -0.5410 -1.4172  0.2211
  295MOL0     H40668   5.950   4.584  11.610  1.0930 -0.7519  0.3137
  295MOL0     H40669   6.085   4.770  11.875  0.7866  0.2696  0.6273
  295MOL0     H40670   6.106   4.873  11.735  0.9304  0.1266  0.3662
  295MOL0     H40671   6.121   4.690  11.725  3.0561  0.3924  2.6023
  295MOL0     H40672   5.955   5.254  11.724 -0.4204  0.8141  0.4885
  295MOL0     H40673   6.053   5.451  11.813  0.9754  0.4984  0.7514
  295MOL0     H40674   6.196   5.437  12.249  1.6102  1.7220 -0.7806
  295MOL0     H40675   6.195   5.614  12.202 -0.1327  0.2343  3.1760
  295MOL0     H40676   5.952   5.462  12.270 -2.0676  0.1857 -2.5583
  295MOL0     H40677   6.007   5.607  12.344  1.3863 -0.8471 -0.2480
  295MOL0     H40678   5.836   5.674  12.201  1.3458  0.9046  0.7130
  295MOL0     H40679   5.879   5.588  12.061  0.5928  0.9890 -1.2224
  295MOL0     H40680   6.055   5.757  12.021  2.1662  1.1364  1.3156
  295MOL0     H40681   6.030   5.822  12.180 -1.5379 -1.2285  2.4045
  295MOL0     H40682   5.809   5.802  11.964 -0.3030  1.8488 -1.6817
  295MOL0     H40683   5.796   5.875  12.118 -0.2237 -1.1255 -0.7596
  295MOL0     H40684   5.954   5.973  11.880 -2.6761 -2.0825 -1.4544
  295MOL0     H40685   5.968   6.032  12.056 -0.0146  0.2476 -0.0345
  295MOL0     H40686   5.732   6.103  12.062 -1.4983 -0.9008 -1.1197
  295MOL0     H40687   5.718   6.072  11.891 -1.8830  1.3941  0.3043
  295MOL0     H40688   5.747   6.287  11.905 -0.5391 -0.8859 -0.5755
  295MOL0     H40689   5.911   6.228  11.850  0.2798 -0.2847  1.7290
  295MOL0     H40690   6.128   5.242  12.184  3.7184 -0.9954 -1.1136
  295MOL0     H40691   6.014   5.048  12.100 -0.6347  1.4970  2.0679
  295MOL0     H40692   5.590   4.870  11.819 -1.0171  1.1247 -0.6371
  295MOL0     H40693   5.540   4.632  11.738  0.2336 -0.1075 -1.3323
  295MOL0     H40694   4.671   5.030  10.456  1.3329  0.0565 -2.1647
  295MOL0     H40695   4.690   5.196  10.618  1.4931  1.3391 -0.3658
  295MOL0     H40696   4.703   5.518  10.795 -0.1059 -0.4791  1.0301
  295MOL0     H40697   4.698   5.707  10.955  0.5650  0.1290 -1.1143
  295MOL0     H40698   4.708   5.886  11.099 -0.8614  2.7408  2.2504
  295MOL0     H40699   4.696   5.734  11.199  3.9432 -2.0696 -0.8682
  295MOL0     H40700   4.688   5.972  11.315  1.1936  3.0511 -2.9732
  295MOL0     H40701   4.855   5.987  11.279  0.0909  0.6016  0.4511
  295MOL0     H40702   4.885   5.749  11.405  0.2903  0.2430 -1.2243
  295MOL0     H40703   4.888   5.906  11.481  0.0312 -0.5991  0.4284
  295MOL0     H40704   4.631   5.741  11.445  2.1739 -2.4756 -0.0513
  295MOL0     H40705   4.642   5.880  11.546 -0.8339 -0.7485 -0.7519
  295MOL0     H40706   4.800   5.578  11.797 -2.7152  1.0627  1.6411
  295MOL0     H40707   5.095   5.623  11.079  0.1615 -1.8294 -1.0579
  295MOL0     H40708   5.223   5.420  10.968  0.8873 -2.0750 -1.0088
  295MOL0     H40709   5.137   5.308  10.868  0.3872 -0.7070 -0.3251
  295MOL0     H40710   5.204   5.456  10.800  2.4734  0.0628  2.4152
  296MOL0     O40711  11.460   1.512   5.780  0.6543  0.1228 -0.8220
  296MOL0     C40712  11.462   1.389   5.770  0.4343  0.8054  0.2433
  296MOL0     O40713  11.570   1.318   5.727 -0.0770 -0.2653  0.2716
  296MOL0     C40714  11.674   1.413   5.687 -0.5385 -0.0744 -0.5287
  296MOL0     C40715  11.807   1.408   5.752  0.0954  0.8858  0.8373
  296MOL0     C40716  11.904   1.507   5.718 -0.0104 -0.4390 -1.9445
  296MOL0     C40717  11.888   1.606   5.623  0.5852 -0.1337  0.4696
  296MOL0     O40718  12.000   1.678   5.607  0.0569 -0.1220  0.0809
  296MOL0     C40719  11.991   1.790   5.512  0.1123  0.4475  0.4054
  296MOL0     C40720  12.010   1.755   5.363  0.4350  0.3795 -0.0806
  296MOL0     C40721  12.144   1.677   5.348 -0.0443  0.3132 -0.1160
  296MOL0     C40722  12.167   1.638   5.196  0.0779 -0.4327 -0.7674
  296MOL0     C40723  12.227   1.763   5.112  0.1807  1.1256 -0.5301
  296MOL0     C40724  12.121   1.831   5.028  0.6974  0.0376  0.2026
  296MOL0     C40725  12.179   1.959   4.957  0.6115  1.2154  1.3834
  296MOL0     C40726  12.236   2.080   5.035 -0.5273 -0.3466 -0.3645
  296MOL0     N40727  12.136   2.159   5.100 -0.9528 -0.1307  0.1381
  296MOL0     C40728  12.046   2.246   5.048  0.3659 -0.3271 -0.6670
  296MOL0     C40729  11.967   2.263   5.158  0.0064  0.2204 -0.3572
  296MOL0     C40730  11.842   2.341   5.187  0.0786 -0.2270 -0.0042
  296MOL0     C40731  11.716   2.264   5.146  0.4397 -0.3177  0.3285
  296MOL0     C40732  11.720   2.187   5.018  0.0345 -0.4669  0.5278
  296MOL0     C40733  11.579   2.161   4.968 -0.0668 -0.4531  0.4009
  296MOL0     O40734  11.526   2.282   4.906 -0.5871 -0.0808 -0.9853
  296MOL0     C40735  11.424   2.261   4.811  0.1480  0.5198 -0.5897
  296MOL0     C40736  11.449   2.263   4.671  0.5248  0.3779 -0.6490
  296MOL0     C40737  11.348   2.221   4.580 -1.0027  0.1586 -0.3165
  296MOL0     C40738  11.382   2.230   4.433  0.0903 -0.1022  0.8319
  296MOL0     C40739  11.221   2.191   4.625  0.0292  0.1850  0.1024
  296MOL0     C40740  11.115   2.129   4.536 -0.5060 -0.0905 -0.0049
  296MOL0     O40741  11.144   2.110   4.402 -0.6958  0.4645 -0.5466
  296MOL0     C40742  11.050   2.037   4.326  0.3224  0.8642 -0.8966
  296MOL0     C40743  10.931   2.091   4.280  1.2437 -0.8273 -0.7026
  296MOL0     C40744  10.825   2.008   4.233 -0.5685 -0.5945 -0.7260
  296MOL0     C40745  10.851   1.867   4.216 -0.3366 -0.2129 -0.9574
  296MOL0     O40746  10.764   1.772   4.186  0.0519  0.4348 -0.1152
  296MOL0     C40747  10.621   1.806   4.195 -0.5381  0.1580  0.5205
  296MOL0     C40748  10.529   1.684   4.238  0.0321  0.3197  0.5347
  296MOL0     C40749  10.552   1.557   4.148  0.9618  0.9797 -0.6082
  296MOL0     C40750  10.454   1.567   4.022  0.3112 -0.9114 -0.3210
  296MOL0     C40751  10.503   1.480   3.908 -0.2445 -0.8309  0.9709
  296MOL0     C40752  10.659   1.496   3.861 -1.1184 -0.0712 -0.2882
  296MOL0     C40753  10.718   1.634   3.824  0.4428 -0.2546 -0.1950
  296MOL0     C40754  10.635   1.709   3.725  0.1966  0.1213  0.3964
  296MOL0    Cl40755  10.722   1.788   3.586 -0.0304  0.0413  0.0737
  296MOL0     C40756  10.977   1.817   4.246 -0.3229  0.1349  0.1991
  296MOL0     C40757  11.074   1.899   4.309  1.1562 -0.3723 -0.2239
  296MOL0     O40758  11.010   2.098   4.587 -0.2862 -0.6338  0.3884
  296MOL0     C40759  11.194   2.199   4.762  1.0893 -1.1042  0.2959
  296MOL0     C40760  11.292   2.244   4.850  0.2087  0.7365  0.2096
  296MOL0     N40761  12.015   2.201   5.264  0.2862  0.8517 -0.1898
  296MOL0     N40762  12.113   2.130   5.231 -0.0258 -0.0194  0.4020
  296MOL0     C40763  11.773   1.601   5.544  0.8837 -0.2274  0.3665
  296MOL0     C40764  11.669   1.505   5.582  0.0501 -0.3381  0.5587
  296MOL0     C40765  11.341   1.320   5.791  0.7484  0.3667  1.2642
  296MOL0     C40766  11.230   1.370   5.709 -0.1964 -0.2020 -0.5822
  296MOL0     C40767  11.111   1.301   5.698 -0.5059  0.8965 -0.2165
  296MOL0     C40768  11.113   1.171   5.743  0.7135  1.1539 -0.6820
  296MOL0     O40769  11.021   1.073   5.707 -0.0975 -0.3262  0.1703
  296MOL0     C40770  10.955   1.087   5.584 -0.0489  0.1931  1.0234
  296MOL0     C40771  10.963   0.958   5.504  0.6263 -0.2152 -0.4310
  296MOL0     C40772  10.895   0.843   5.580 -0.5090  1.1101 -0.8316
  296MOL0     C40773  10.966   0.707   5.542  0.4887 -0.6181 -0.3878
  296MOL0     C40774  10.918   0.593   5.613  0.3921  0.6305 -0.3770
  296MOL0     C40775  10.894   0.489   5.679  0.3646 -0.2181 -0.0089
  296MOL0     C40776  11.222   1.125   5.826  0.0354 -0.2308  0.4691
  296MOL0     C40777  11.327   1.202   5.862  0.6194  0.4721  0.3783
  296MOL0     C40778  11.428   1.133   5.947 -0.1526  1.1642 -0.4333
  296MOL0     H40779  11.817   1.343   5.838  3.6016  2.3686  1.7656
  296MOL0     H40780  11.991   1.504   5.782  0.0036 -2.8669 -2.0056
  296MOL0     H40781  12.056   1.872   5.544  0.9741 -0.3637  0.7856
  296MOL0     H40782  11.893   1.837   5.525  1.0850  2.5675  0.4595
  296MOL0     H40783  11.922   1.698   5.331 -0.7913  1.7212  0.7730
  296MOL0     H40784  12.006   1.848   5.306 -1.9817  2.2229  2.7558
  296MOL0     H40785  12.230   1.741   5.367  0.1492 -0.4463  1.7825
  296MOL0     H40786  12.157   1.599   5.423  1.1275  2.0695  1.6064
  296MOL0     H40787  12.235   1.553   5.202 -0.0317 -0.4579  0.3608
  296MOL0     H40788  12.075   1.608   5.145 -1.7589  4.6992 -1.0693
  296MOL0     H40789  12.311   1.727   5.050  2.0252  0.9941  1.8949
  296MOL0     H40790  12.258   1.837   5.186 -4.2061  1.8504  0.8674
  296MOL0     H40791  12.082   1.768   4.948  1.6469  0.1872 -0.3949
  296MOL0     H40792  12.034   1.841   5.094 -0.7909  0.0639 -1.6762
  296MOL0     H40793  12.091   1.991   4.900 -0.1079  1.5193  2.6264
  296MOL0     H40794  12.250   1.916   4.886 -0.3888 -1.6172  1.9436
  296MOL0     H40795  12.316   2.056   5.105  0.1545  2.6231  0.0003
  296MOL0     H40796  12.288   2.152   4.972  2.1858 -0.0410  2.0375
  296MOL0     H40797  12.020   2.279   4.949 -0.2134  5.1553  0.9889
  296MOL0     H40798  11.838   2.429   5.122 -0.1702 -0.8543 -0.8743
  296MOL0     H40799  11.844   2.378   5.289 -1.3994  0.7083 -0.2769
  296MOL0     H40800  11.692   2.203   5.233 -1.9328  1.8787  1.3357
  296MOL0     H40801  11.637   2.336   5.125  0.9769  0.0433 -0.5376
  296MOL0     H40802  11.774   2.241   4.939 -1.4619 -0.9166 -0.8718
  296MOL0     H40803  11.788   2.101   5.028  1.9497  1.0496  1.2708
  296MOL0     H40804  11.583   2.080   4.894  2.6530  0.8775 -1.0838
  296MOL0     H40805  11.516   2.153   5.057 -2.9246  0.1174 -1.4409
  296MOL0     H40806  11.549   2.293   4.641 -1.1451  2.9215 -4.5524
  296MOL0     H40807  11.300   2.290   4.394  0.9702  1.9703  2.0297
  296MOL0     H40808  11.400   2.133   4.386 -3.3008  0.9368 -3.2120
  296MOL0     H40809  11.475   2.287   4.425 -0.7101  1.1223 -0.0932
  296MOL0     H40810  10.909   2.195   4.304  2.5254 -0.6438 -0.2793
  296MOL0     H40811  10.725   2.043   4.211 -0.9923 -2.3592 -1.8338
  296MOL0     H40812  10.611   1.886   4.269  2.8485  2.8927 -1.6706
  296MOL0     H40813  10.580   1.844   4.101  0.5708  2.4654  0.9037
  296MOL0     H40814  10.531   1.653   4.342 -1.8218 -1.3585  0.1260
  296MOL0     H40815  10.430   1.725   4.218 -0.4273  0.4977  2.9431
  296MOL0     H40816  10.517   1.479   4.216  1.0291  3.0467  1.9662
  296MOL0     H40817  10.659   1.541   4.132  1.3790  1.2467  1.6005
  296MOL0     H40818  10.464   1.671   3.989  0.2284 -0.5212  0.8246
  296MOL0     H40819  10.348   1.557   4.046  0.0016  3.2905  0.8844
  296MOL0     H40820  10.502   1.376   3.943  1.6369 -0.7671  1.2977
  296MOL0     H40821  10.439   1.499   3.821 -0.2840 -0.5085  1.0700
  296MOL0     H40822  10.673   1.431   3.775  1.1659  1.8869 -1.5416
  296MOL0     H40823  10.724   1.461   3.942 -1.2580  2.0258  0.7946
  296MOL0     H40824  10.816   1.616   3.778  0.7213 -1.8662  0.9369
  296MOL0     H40825  10.732   1.687   3.919 -0.1371 -0.1516 -0.1675
  296MOL0     H40826  10.596   1.796   3.778  0.4570 -0.8799  2.3252
  296MOL0     H40827  10.557   1.638   3.696 -0.5289  1.4279 -0.9599
  296MOL0     H40828  10.984   1.709   4.233  0.9566  0.4881 -2.6654
  296MOL0     H40829  11.166   1.857   4.349  0.7238 -1.6427 -0.5073
  296MOL0     H40830  11.090   2.194   4.794  1.0230  0.0315  0.3068
  296MOL0     H40831  11.278   2.248   4.957  1.8118 -1.8500  0.5849
  296MOL0     H40832  11.758   1.659   5.453  0.7520  0.6776  0.9432
  296MOL0     H40833  11.575   1.509   5.529  1.5034 -2.6989 -2.5154
  296MOL0     H40834  11.237   1.470   5.667 -1.2065  0.2534  0.2717
  296MOL0     H40835  11.026   1.342   5.645  0.4155  0.7735 -1.8616
  296MOL0     H40836  10.849   1.113   5.596 -0.8176 -2.8891  1.9773
  296MOL0     H40837  10.994   1.161   5.514  0.9260 -2.4943 -1.4778
  296MOL0     H40838  11.066   0.925   5.487  0.5586 -0.8393  0.3055
  296MOL0     H40839  10.928   0.987   5.404  0.4584  1.2751  0.0430
  296MOL0     H40840  10.903   0.845   5.689 -3.1588  0.4442 -0.5539
  296MOL0     H40841  10.786   0.834   5.569 -0.9894 -1.8686  3.7059
  296MOL0     H40842  11.073   0.708   5.566  0.3555 -4.4814  1.0890
  296MOL0     H40843  10.954   0.692   5.435 -1.8307 -0.8187 -0.1563
  296MOL0     H40844  10.876   0.422   5.761 -1.2904 -0.8675 -0.8782
  296MOL0     H40845  11.219   1.027   5.871 -2.4637 -0.2842  0.3545
  296MOL0     H40846  11.380   1.057   6.009 -1.0853  0.5966 -1.8115
  296MOL0     H40847  11.505   1.076   5.895  0.5210 -0.7208  2.3682
  296MOL0     H40848  11.477   1.187   6.029  0.7136 -1.2521  0.7512
  297MOL0     O40849   5.265   2.618   2.221 -0.5533 -0.7749  0.1088
  297MOL0     C40850   5.386   2.645   2.195 -0.3819 -0.0277  0.7578
  297MOL0     O40851   5.433   2.769   2.188  0.2267  0.1131 -0.8483
  297MOL0     C40852   5.361   2.885   2.171  0.3436 -0.0892 -0.6505
  297MOL0     C40853   5.223   2.902   2.178 -0.7683 -0.6999 -0.5020
  297MOL0     C40854   5.163   3.019   2.147  0.4711  0.2230 -0.0286
  297MOL0     C40855   5.232   3.133   2.114 -0.1374  0.4583  0.7566
  297MOL0     O40856   5.189   3.247   2.059 -0.0099 -0.5907  0.1692
  297MOL0     C40857   5.045   3.279   2.060 -0.8325 -0.0799  0.5113
  297MOL0     C40858   4.965   3.210   1.949 -0.1720  0.9129 -0.6633
  297MOL0     C40859   5.029   3.255   1.812 -1.4915 -0.4770 -0.6790
  297MOL0     C40860   5.026   3.402   1.768 -0.0925  1.0913  0.3644
  297MOL0     C40861   5.151   3.450   1.688 -0.2039 -0.6546 -0.6484
  297MOL0     C40862   5.143   3.393   1.543  0.1436  1.1122  0.3809
  297MOL0     C40863   5.250   3.450   1.460 -0.8778  0.6007 -0.6190
  297MOL0     C40864   5.306   3.348   1.358  0.4259 -0.3220  0.3197
  297MOL0     N40865   5.209   3.289   1.268 -0.4188  0.1859 -0.2946
  297MOL0     C40866   5.146   3.361   1.164 -0.4453 -0.9641 -0.7577
  297MOL0     C40867   5.047   3.272   1.133 -0.2047  0.7737  0.8243
  297MOL0     C40868   4.945   3.294   1.013 -0.2029  0.5794 -0.1206
  297MOL0     C40869   4.949   3.171   0.925 -0.4193  0.4725  0.4295
  297MOL0     C40870   4.878   3.181   0.785 -0.4842  0.1581  0.2862
  297MOL0     C40871   4.729   3.169   0.805  0.9813  0.4547  0.6546
  297MOL0     O40872   4.670   3.162   0.673 -0.3896  1.0569 -0.3555
  297MOL0     C40873   4.537   3.144   0.653 -0.5247 -0.6739  0.2170
  297MOL0     C40874   4.438   3.154   0.746  0.8040 -0.3701  0.1283
  297MOL0     C40875   4.300   3.162   0.718 -0.9183 -0.5859  0.7301
  297MOL0     C40876   4.205   3.183   0.826 -0.2328  1.5209 -0.0660
  297MOL0     C40877   4.257   3.174   0.580  0.1855  1.0541 -0.9357
  297MOL0     C40878   4.113   3.194   0.548  0.5098 -0.4058  0.7845
  297MOL0     O40879   4.014   3.152   0.621  0.0665 -0.3337 -0.0131
  297MOL0     C40880   3.885   3.188   0.599  0.2855  0.4944  0.4563
  297MOL0     C40881   3.834   3.258   0.483  0.9599  1.2877  1.2370
  297MOL0     C40882   3.692   3.260   0.459  1.2404 -0.7127 -0.2864
  297MOL0     C40883   3.603   3.212   0.553 -0.5753 -0.7750  0.5653
  297MOL0     O40884   3.474   3.226   0.516  0.6561 -0.4235  0.0507
  297MOL0     C40885   3.378   3.180   0.611  0.5916 -0.4594 -0.0939
  297MOL0     C40886   3.239   3.235   0.568 -0.0046 -0.4062 -0.1984
  297MOL0     C40887   3.162   3.135   0.474 -0.0991  0.5649  0.8421
  297MOL0     C40888   3.010   3.165   0.461 -0.0323  0.2293  0.9170
  297MOL0     C40889   2.938   3.056   0.383 -0.3110 -0.0714  0.6855
  297MOL0     C40890   2.804   3.090   0.328 -0.1262 -0.3667 -0.3778
  297MOL0     C40891   2.783   3.007   0.205  0.3130  0.5590  0.9686
  297MOL0     C40892   2.660   3.055   0.134  0.1368 -0.2197 -0.1797
  297MOL0    Cl40893   2.513   2.987   0.214  0.0032 -0.4904 -0.0603
  297MOL0     C40894   3.652   3.149   0.672 -0.4936  0.0525  0.7985
  297MOL0     C40895   3.792   3.134   0.685  0.0523  0.4729  0.0014
  297MOL0     O40896   4.098   3.240   0.436 -0.5478 -0.2649  0.2746
  297MOL0     C40897   4.353   3.148   0.481  0.5252  0.4851 -0.1352
  297MOL0     C40898   4.491   3.127   0.515 -0.2632  0.4509 -0.3710
  297MOL0     N40899   5.068   3.150   1.200  0.5247  0.4005  0.1961
  297MOL0     N40900   5.142   3.168   1.299 -0.5990 -0.6982  0.2907
  297MOL0     C40901   5.371   3.121   2.111  1.4897  1.0079 -0.0958
  297MOL0     C40902   5.436   3.003   2.144 -1.3495  0.3767 -0.3549
  297MOL0     C40903   5.492   2.534   2.174  0.1461 -0.2289 -0.4745
  297MOL0     C40904   5.618   2.580   2.135 -0.1572  0.0817 -1.2142
  297MOL0     C40905   5.724   2.484   2.116 -0.0190 -0.8131 -0.1342
  297MOL0     C40906   5.687   2.344   2.130  0.2813 -0.1487  0.0140
  297MOL0     O40907   5.798   2.274   2.105 -0.1001  0.1754 -0.7576
  297MOL0     C40908   5.831   2.166   2.193  0.3812  0.0291  1.4505
  297MOL0     C40909   5.950   2.109   2.131 -0.3368 -0.9024 -0.0485
  297MOL0     C40910   5.922   2.032   2.004 -0.3021 -0.0642  0.8985
  297MOL0     C40911   6.052   2.019   1.908  0.2869 -1.1407  0.1505
  297MOL0     C40912   6.166   1.959   1.979 -0.7052 -0.2379 -0.5452
  297MOL0     C40913   6.258   1.899   2.030 -0.7468 -0.3088 -0.0106
  297MOL0     C40914   5.567   2.302   2.170 -0.6593  0.4811  0.5724
  297MOL0     C40915   5.465   2.394   2.186  0.4200 -0.3723 -0.7133
  297MOL0     C40916   5.329   2.340   2.219  0.7586  0.1107  0.4760
  297MOL0     H40917   5.161   2.818   2.206  1.5056 -3.3435 -2.8266
  297MOL0     H40918   5.055   3.026   2.145  0.2882 -1.8418 -2.7041
  297MOL0     H40919   5.040   3.388   2.048 -0.4759 -0.1653 -0.5672
  297MOL0     H40920   5.001   3.258   2.158  0.2977  2.0402  1.5412
  297MOL0     H40921   4.968   3.103   1.970  0.2592  1.0603  0.0750
  297MOL0     H40922   4.860   3.240   1.955 -0.7746 -0.7000 -2.3228
  297MOL0     H40923   5.135   3.229   1.811 -1.6017 -0.9580 -2.0498
  297MOL0     H40924   4.988   3.200   1.727 -1.5334  1.5019 -1.9829
  297MOL0     H40925   4.938   3.406   1.702  1.1553 -1.7670 -1.6688
  297MOL0     H40926   5.018   3.473   1.851 -1.1216  1.4373 -0.0037
  297MOL0     H40927   5.241   3.429   1.747 -0.5289  0.5335  0.3150
  297MOL0     H40928   5.160   3.558   1.684 -0.4227 -0.5569  0.9833
  297MOL0     H40929   5.158   3.285   1.537  1.7950  1.3257  0.0443
  297MOL0     H40930   5.045   3.406   1.498 -1.4513  1.0864  3.5683
  297MOL0     H40931   5.329   3.488   1.524  1.3974 -5.7244  1.1314
  297MOL0     H40932   5.202   3.535   1.411 -1.3553  0.1631 -0.9278
  297MOL0     H40933   5.387   3.398   1.304  1.5144 -3.1586 -0.8398
  297MOL0     H40934   5.352   3.272   1.421  1.6561 -2.0299 -2.4881
  297MOL0     H40935   5.168   3.459   1.125  0.9654 -1.5248 -1.4362
  297MOL0     H40936   4.978   3.379   0.952 -0.0161 -0.8731 -2.1776
  297MOL0     H40937   4.847   3.324   1.051  0.7020 -2.1326  5.2516
  297MOL0     H40938   5.054   3.139   0.925 -0.9836 -1.5570 -0.8723
  297MOL0     H40939   4.896   3.095   0.983  0.3924  1.2493  2.2543
  297MOL0     H40940   4.897   3.284   0.755  0.8060  0.8697  3.2335
  297MOL0     H40941   4.899   3.103   0.710 -1.5411 -4.0275  3.9465
  297MOL0     H40942   4.700   3.080   0.862  2.3481 -1.0063 -0.8312
  297MOL0     H40943   4.688   3.262   0.847  0.2617  0.2478  0.4081
  297MOL0     H40944   4.458   3.176   0.851  0.0370  2.3383 -0.2127
  297MOL0     H40945   4.254   3.170   0.923  2.5803 -3.6949 -1.8002
  297MOL0     H40946   4.127   3.106   0.828  0.6496  0.4777 -2.3083
  297MOL0     H40947   4.161   3.282   0.810 -2.2574  1.3393  3.4696
  297MOL0     H40948   3.888   3.304   0.401  0.2009 -0.0020 -0.0179
  297MOL0     H40949   3.649   3.301   0.368 -1.3543 -1.5172  0.4711
  297MOL0     H40950   3.369   3.072   0.622 -1.5479 -0.4290 -0.9603
  297MOL0     H40951   3.402   3.217   0.711 -1.3305 -2.4318  1.1955
  297MOL0     H40952   3.173   3.235   0.656 -1.1057  0.4938 -0.9900
  297MOL0     H40953   3.239   3.335   0.525 -1.2552 -0.3542 -0.1295
  297MOL0     H40954   3.177   3.032   0.507  1.8464  0.9005  1.0838
  297MOL0     H40955   3.206   3.129   0.374  0.3788 -0.2465  1.0937
  297MOL0     H40956   3.005   3.268   0.425  2.1160  0.2973  0.7121
  297MOL0     H40957   2.971   3.172   0.563 -0.7584  0.6048  0.6170
  297MOL0     H40958   2.989   3.019   0.294 -1.4671 -1.4213  0.5448
  297MOL0     H40959   2.928   2.976   0.457 -0.0021 -0.2995  0.4851
  297MOL0     H40960   2.804   3.192   0.291  1.1398  0.2957  1.3256
  297MOL0     H40961   2.720   3.080   0.398 -0.7700  1.2910 -0.8792
  297MOL0     H40962   2.770   2.902   0.232 -1.4435  0.1249 -1.2347
  297MOL0     H40963   2.865   3.009   0.132  2.8933 -0.3864  3.5987
  297MOL0     H40964   2.653   3.013   0.033 -2.8102 -2.4845  0.8089
  297MOL0     H40965   2.649   3.164   0.134  0.4798 -0.0089 -4.3000
  297MOL0     H40966   3.581   3.096   0.734 -2.7004  1.5610 -0.2887
  297MOL0     H40967   3.824   3.091   0.779  0.9068  0.5442 -0.2463
  297MOL0     H40968   4.321   3.147   0.377 -0.6197  1.5613  0.1855
  297MOL0     H40969   4.565   3.120   0.435 -2.4202 -3.4107 -2.3497
  297MOL0     H40970   5.428   3.210   2.091  1.9633  0.4069 -1.5722
  297MOL0     H40971   5.543   2.989   2.133 -1.5235 -0.0745 -1.7260
  297MOL0     H40972   5.633   2.683   2.105  0.8875 -0.2061 -1.7378
  297MOL0     H40973   5.820   2.518   2.080 -1.6342  1.2240 -2.9170
  297MOL0     H40974   5.849   2.192   2.298  1.8192 -0.2268  1.2865
  297MOL0     H40975   5.751   2.094   2.174 -0.3456  1.3378 -0.9484
  297MOL0     H40976   5.998   2.031   2.191  0.8914 -1.2174 -1.3940
  297MOL0     H40977   6.022   2.190   2.116  0.5037 -1.9263 -1.7824
  297MOL0     H40978   5.893   1.930   2.034  3.2166 -1.5288 -0.1985
  297MOL0     H40979   5.839   2.079   1.951  0.3526 -1.1426 -1.2094
  297MOL0     H40980   6.079   2.121   1.877 -1.6259 -0.1402  1.5222
  297MOL0     H40981   6.027   1.956   1.823 -0.0127  1.4797 -1.8392
  297MOL0     H40982   6.350   1.860   2.068 -1.8126 -1.5144  1.4384
  297MOL0     H40983   5.553   2.195   2.172  0.1791  0.3139 -1.1924
  297MOL0     H40984   5.309   2.368   2.323  1.1626 -1.6237  1.0494
  297MOL0     H40985   5.250   2.378   2.154  2.8522 -1.1999 -3.1042
  297MOL0     H40986   5.324   2.233   2.196 -0.5441  0.4955 -1.2178
  298MOL0     O40987   9.353  10.653   5.648  0.2245 -0.3392  0.0258
  298MOL0     C40988   9.238  10.634   5.676 -0.1844  0.9498  0.4390
  298MOL0     O40989   9.184  10.509   5.678 -0.5959 -0.9129 -0.0126
  298MOL0     C40990   9.236  10.392   5.617 -0.0392 -0.5455  0.1615
  298MOL0     C40991   9.347  10.373   5.521  0.1792  0.7074 -0.6376
  298MOL0     C40992   9.368  10.246   5.460  0.0210  0.2043  0.1280
  298MOL0     C40993   9.285  10.144   5.495 -0.4371  0.6609  0.0672
  298MOL0     O40994   9.306  10.021   5.444  0.7630  0.2534 -0.1958
  298MOL0     C40995   9.199   9.947   5.384 -0.5853 -0.1301 -0.4961
  298MOL0     C40996   9.276   9.817   5.351  0.0017 -1.4943  0.1334
  298MOL0     C40997   9.254   9.752   5.214 -0.8003  0.0082  0.0846
  298MOL0     C40998   9.167   9.626   5.216 -0.3232 -0.8084 -0.6328
  298MOL0     C40999   9.037   9.652   5.136  0.6683  1.2224 -1.0431
  298MOL0     C41000   9.050   9.690   4.981 -0.4389  0.7630  0.8114
  298MOL0     C41001   9.113   9.581   4.894 -0.0727  0.4797  1.3005
  298MOL0     C41002   9.145   9.620   4.744 -0.0971  1.8190 -0.5407
  298MOL0     N41003   9.238   9.734   4.739 -0.5258  0.2382  0.4247
  298MOL0     C41004   9.368   9.741   4.775  0.1434 -0.2249 -0.4638
  298MOL0     C41005   9.409   9.869   4.744  0.5140 -0.2827  1.0163
  298MOL0     C41006   9.550   9.932   4.774  0.7659  0.0365  0.3336
  298MOL0     C41007   9.576  10.050   4.686  0.1696 -0.6601  0.7251
  298MOL0     C41008   9.724  10.088   4.699  0.6865  0.5046 -0.3388
  298MOL0     C41009   9.745  10.192   4.815  0.5495 -0.0982 -0.4875
  298MOL0     O41010   9.872  10.242   4.812  0.0493 -0.8195  0.0767
  298MOL0     C41011   9.913  10.363   4.747 -0.8839 -0.3488 -0.0875
  298MOL0     C41012  10.044  10.407   4.771  0.1882  0.3119  0.2461
  298MOL0     C41013  10.102  10.529   4.732 -0.6412 -0.7041  0.0293
  298MOL0     C41014  10.247  10.566   4.780  0.8945 -0.3746  0.5142
  298MOL0     C41015  10.018  10.609   4.648  0.0608 -0.1911  0.2741
  298MOL0     C41016  10.058  10.751   4.618 -0.1445 -0.1037  0.0303
  298MOL0     O41017   9.965  10.821   4.533  0.6225  0.2294  0.7007
  298MOL0     C41018  10.004  10.951   4.524  0.2883  0.6442  0.0815
  298MOL0     C41019  10.099  10.976   4.415 -0.5059 -0.4133 -0.2564
  298MOL0     C41020  10.134  11.114   4.394  0.1371  1.2182 -0.0914
  298MOL0     C41021  10.085  11.214   4.473  0.7048  0.1144  0.3591
  298MOL0     O41022  10.117  11.347   4.450  0.0052 -0.0393  1.0720
  298MOL0     C41023  10.043  11.458   4.500 -0.5884  0.0822 -0.4988
  298MOL0     C41024  10.049  11.564   4.395 -0.1598 -0.7704 -0.1007
  298MOL0     C41025  10.181  11.630   4.405 -0.4242  0.1354 -0.5516
  298MOL0     C41026  10.198  11.748   4.316 -1.2180 -1.1553  0.4919
  298MOL0     C41027  10.123  11.867   4.379 -0.1319  0.2422  0.0257
  298MOL0     C41028  10.109  11.985   4.280 -0.3695 -0.9849  0.5347
  298MOL0     C41029  10.241  12.068   4.270 -0.0350  0.3472 -0.9272
  298MOL0     C41030  10.215  12.203   4.207  0.0126 -0.4437 -0.6114
  298MOL0    Cl41031  10.363  12.266   4.163  0.1124 -0.0746 -0.6702
  298MOL0     C41032   9.989  11.181   4.576 -0.5280 -0.8875 -0.4499
  298MOL0     C41033   9.941  11.050   4.597  0.1979 -0.3244 -0.7828
  298MOL0     O41034  10.162  10.809   4.665 -0.1852  0.1033  0.1155
  298MOL0     C41035   9.892  10.557   4.612 -0.4280  0.5695  0.6575
  298MOL0     C41036   9.838  10.441   4.665  0.8489 -0.5446 -0.2887
  298MOL0     N41037   9.298   9.932   4.696 -0.0637 -0.0467  0.1631
  298MOL0     N41038   9.204   9.851   4.680 -0.2183 -0.4243  0.3706
  298MOL0     C41039   9.183  10.160   5.587 -0.2407 -0.3204 -0.5829
  298MOL0     C41040   9.163  10.282   5.646  0.2464  0.4973  0.1465
  298MOL0     C41041   9.157  10.742   5.728 -0.3657 -0.2467 -0.6840
  298MOL0     C41042   9.179  10.866   5.652  0.2547  0.0166 -0.2884
  298MOL0     C41043   9.093  10.978   5.679 -0.0870  0.1128  0.1411
  298MOL0     C41044   9.002  10.978   5.785  0.3609  0.0267 -0.1367
  298MOL0     O41045   8.940  11.099   5.801 -0.6038  0.3849 -0.6253
  298MOL0     C41046   8.807  11.116   5.866 -0.1918  0.0415  0.9170
  298MOL0     C41047   8.811  11.230   5.961 -0.2937 -0.4484 -0.1356
  298MOL0     C41048   8.904  11.211   6.072 -0.6131 -0.8674 -0.3894
  298MOL0     C41049   8.846  11.123   6.179 -0.1513  0.6138 -0.6516
  298MOL0     C41050   8.754  11.213   6.256  0.6008 -0.8080 -0.1750
  298MOL0     C41051   8.694  11.295   6.320 -0.1373  0.4874  0.0358
  298MOL0     C41052   8.972  10.862   5.854 -0.3712 -0.0222  0.1027
  298MOL0     C41053   9.049  10.741   5.827 -0.0403 -0.0513 -0.2839
  298MOL0     C41054   9.016  10.626   5.919 -1.0324 -0.3646  0.8069
  298MOL0     H41055   9.418  10.454   5.510  0.6297  0.3831 -0.1281
  298MOL0     H41056   9.458  10.226   5.403  0.9532 -0.6522  1.7925
  298MOL0     H41057   9.145  10.001   5.305 -1.6962  0.3731  0.5687
  298MOL0     H41058   9.111   9.935   5.448 -2.0962  1.1159 -2.2174
  298MOL0     H41059   9.382   9.844   5.358 -0.5374  0.6371  1.1576
  298MOL0     H41060   9.274   9.737   5.426 -0.6675 -1.4109  0.2113
  298MOL0     H41061   9.213   9.823   5.140 -1.3409 -2.1521 -1.8089
  298MOL0     H41062   9.348   9.717   5.171  0.5509  1.5840  1.5982
  298MOL0     H41063   9.222   9.536   5.185 -0.5251 -1.6158  1.2104
  298MOL0     H41064   9.132   9.610   5.318  1.9747  0.6912  0.4732
  298MOL0     H41065   8.991   9.739   5.182 -0.7943  1.3826 -2.6916
  298MOL0     H41066   8.973   9.563   5.144 -1.3418  2.6910  0.1501
  298MOL0     H41067   8.951   9.710   4.939 -0.3011 -2.3457 -1.2798
  298MOL0     H41068   9.111   9.780   4.970  0.3094 -0.0106 -2.0019
  298MOL0     H41069   9.039   9.502   4.884  2.0602 -1.3195 -4.9080
  298MOL0     H41070   9.206   9.552   4.944  1.1701  1.5650 -0.2658
  298MOL0     H41071   9.189   9.530   4.699  2.5448  1.0643  3.0345
  298MOL0     H41072   9.052   9.641   4.692  0.7728  0.6068 -2.7295
  298MOL0     H41073   9.423   9.668   4.834  0.3531  1.4379  1.5020
  298MOL0     H41074   9.627   9.856   4.762  2.9170  2.1307  0.2148
  298MOL0     H41075   9.539   9.976   4.874  0.7491  1.6679 -0.3545
  298MOL0     H41076   9.555  10.003   4.590  1.2838 -0.6019  0.4495
  298MOL0     H41077   9.503  10.130   4.704  2.1101  1.2074  0.6687
  298MOL0     H41078   9.794  10.005   4.707  0.4904  0.3599 -0.1415
  298MOL0     H41079   9.746  10.147   4.609 -3.0827  0.3120 -1.5514
  298MOL0     H41080   9.675  10.272   4.791 -1.5266 -2.3147 -2.3871
  298MOL0     H41081   9.726  10.155   4.916  3.4909  2.2929  1.1169
  298MOL0     H41082  10.092  10.328   4.828 -2.6253 -0.9496  1.0375
  298MOL0     H41083  10.288  10.483   4.838 -1.7547 -0.2707  2.7788
  298MOL0     H41084  10.240  10.652   4.848  0.5965 -0.0331  0.0511
  298MOL0     H41085  10.311  10.593   4.696  0.7336 -2.1894 -0.2246
  298MOL0     H41086  10.128  10.900   4.343 -2.5451  0.2690 -1.9220
  298MOL0     H41087  10.204  11.128   4.311  2.4506  1.4633  1.7833
  298MOL0     H41088   9.937  11.432   4.505 -1.6907  4.1003  1.2362
  298MOL0     H41089  10.090  11.490   4.594  1.3560 -2.3239 -0.5394
  298MOL0     H41090  10.056  11.526   4.293  1.7318 -0.1058 -0.2611
  298MOL0     H41091   9.974  11.642   4.412  2.3868  1.4477  1.9195
  298MOL0     H41092  10.258  11.555   4.384 -0.9658 -0.8103  0.7122
  298MOL0     H41093  10.187  11.661   4.510 -3.5041  1.3411 -0.6481
  298MOL0     H41094  10.166  11.724   4.213 -0.4468  4.1153 -1.2531
  298MOL0     H41095  10.303  11.775   4.304 -1.6348  1.0485  1.4011
  298MOL0     H41096  10.023  11.834   4.411  0.5835 -0.8513  1.2623
  298MOL0     H41097  10.168  11.902   4.473  0.1241 -1.8994  0.7626
  298MOL0     H41098  10.031  12.053   4.316 -0.3243  0.2300 -1.5792
  298MOL0     H41099  10.076  11.956   4.180  1.1282 -0.2289 -0.2024
  298MOL0     H41100  10.307  12.002   4.214 -2.4930 -1.8544 -1.4084
  298MOL0     H41101  10.274  12.079   4.374 -1.0590  0.6085 -0.6209
  298MOL0     H41102  10.169  12.277   4.273  2.5796  0.9326 -0.2584
  298MOL0     H41103  10.150  12.190   4.120 -4.6717  0.7312  2.3086
  298MOL0     H41104   9.954  11.261   4.641 -1.0841 -3.8368  3.2020
  298MOL0     H41105   9.876  11.016   4.677  1.3550 -2.8792 -0.8221
  298MOL0     H41106   9.846  10.626   4.542 -0.6958  1.9444  2.1276
  298MOL0     H41107   9.737  10.419   4.633  0.1080 -1.5460  2.4701
  298MOL0     H41108   9.112  10.081   5.608  1.8960 -2.3310 -0.4747
  298MOL0     H41109   9.091  10.282   5.728  0.5759 -2.0604  0.5385
  298MOL0     H41110   9.250  10.874   5.570  0.0393  0.3232 -0.4449
  298MOL0     H41111   9.102  11.061   5.610  0.0815  1.3269  1.5562
  298MOL0     H41112   8.745  11.147   5.781  0.2825 -3.5215 -0.9257
  298MOL0     H41113   8.779  11.019   5.909  3.0731 -0.5198  2.0440
  298MOL0     H41114   8.712  11.246   6.005 -0.0784  3.0580 -0.6555
  298MOL0     H41115   8.855  11.314   5.905  0.9851 -1.4151 -0.6364
  298MOL0     H41116   8.994  11.165   6.031  0.6353  0.6673  0.5614
  298MOL0     H41117   8.936  11.306   6.114 -1.3722 -0.9828  0.4798
  298MOL0     H41118   8.924  11.088   6.248  2.6699  0.8573 -3.5195
  298MOL0     H41119   8.794  11.038   6.134  0.1979  0.3437 -0.5482
  298MOL0     H41120   8.652  11.366   6.388 -0.5892  0.0346  0.2268
  298MOL0     H41121   8.897  10.860   5.932  0.6559  0.8998  1.1384
  298MOL0     H41122   9.032  10.533   5.864 -0.5431  0.3957 -0.4067
  298MOL0     H41123   9.082  10.631   6.006 -1.9243  1.3397  1.4351
  298MOL0     H41124   8.915  10.636   5.960 -1.5722 -1.2399 -0.2436
  299MOL0     O41125   1.652  11.369   2.549  0.2508  0.5562  0.2363
  299MOL0     C41126   1.571  11.388   2.639 -0.0941  0.5729 -0.1133
  299MOL0     O41127   1.438  11.372   2.627 -0.0182  0.0142 -0.6171
  299MOL0     C41128   1.371  11.348   2.509 -0.2053  0.0906  0.0093
  299MOL0     C41129   1.234  11.331   2.526 -0.2764  0.0179  0.9779
  299MOL0     C41130   1.154  11.307   2.415 -0.2638  0.0689  0.2377
  299MOL0     C41131   1.208  11.305   2.286 -0.0729  0.0178  0.0091
  299MOL0     O41132   1.136  11.285   2.169 -0.2420 -0.4439  0.1155
  299MOL0     C41133   0.991  11.282   2.170  0.8238 -0.6993 -0.3081
  299MOL0     C41134   0.924  11.292   2.027  0.2899 -0.1595 -0.2728
  299MOL0     C41135   0.947  11.165   1.946  0.9114  0.6536  0.4665
  299MOL0     C41136   0.900  11.166   1.805 -0.6637 -0.4153 -0.4085
  299MOL0     C41137   0.946  11.055   1.718 -0.2219  0.5221  0.1424
  299MOL0     C41138   0.941  10.908   1.778  0.1208  0.1090  0.6542
  299MOL0     C41139   1.019  10.806   1.698  0.7774 -0.3563  0.9252
  299MOL0     C41140   0.971  10.791   1.555 -0.4259  0.1389 -0.8993
  299MOL0     N41141   1.026  10.670   1.489  0.3331 -0.6345  0.1610
  299MOL0     C41142   1.164  10.662   1.445  0.1763 -1.0718 -0.4367
  299MOL0     C41143   1.171  10.535   1.408 -0.0561 -0.5437 -0.3706
  299MOL0     C41144   1.293  10.468   1.346  0.6064 -0.8470  0.8101
  299MOL0     C41145   1.358  10.540   1.227  0.0785  0.2808 -0.0958
  299MOL0     C41146   1.430  10.449   1.124 -0.3107  0.0304  0.2197
  299MOL0     C41147   1.520  10.353   1.195 -0.8627 -0.8141  0.7382
  299MOL0     O41148   1.642  10.400   1.253  0.0940 -1.0128 -0.7746
  299MOL0     C41149   1.753  10.366   1.181 -0.2445 -0.1037 -0.7082
  299MOL0     C41150   1.840  10.282   1.264 -0.0805  0.5507  0.2453
  299MOL0     C41151   1.964  10.237   1.224 -1.0544 -0.1791  0.5597
  299MOL0     C41152   2.043  10.149   1.316  0.6464  0.1981  0.2405
  299MOL0     C41153   2.008  10.275   1.097  0.4426  0.0399  0.2786
  299MOL0     C41154   2.152  10.272   1.046  0.0923  0.1345 -0.2497
  299MOL0     O41155   2.187  10.355   0.946 -0.1502 -0.4143  0.2525
  299MOL0     C41156   2.310  10.346   0.903 -0.6215 -0.2010 -0.7139
  299MOL0     C41157   2.414  10.391   0.982 -0.4928 -0.4146 -0.5304
  299MOL0     C41158   2.549  10.362   0.947 -0.1012  0.8001 -0.1104
  299MOL0     C41159   2.574  10.303   0.817  0.1730  0.5044  1.3298
  299MOL0     O41160   2.697  10.267   0.772  0.3838  0.2405 -0.1569
  299MOL0     C41161   2.764  10.375   0.706 -0.0069  1.3249  0.9868
  299MOL0     C41162   2.894  10.390   0.775 -0.4210 -0.2724 -0.2572
  299MOL0     C41163   2.962  10.526   0.733  0.8102 -0.0726  0.4257
  299MOL0     C41164   3.105  10.539   0.780 -0.8128  0.0460 -0.0302
  299MOL0     C41165   3.178  10.653   0.716  0.9700  0.9436  0.7178
  299MOL0     C41166   3.326  10.662   0.735  0.6457  0.0725  1.1171
  299MOL0     C41167   3.391  10.569   0.634 -0.0704 -0.1522  0.8161
  299MOL0     C41168   3.537  10.551   0.679  0.4957  0.2068 -0.1544
  299MOL0    Cl41169   3.629  10.460   0.562 -0.0898 -0.3260  0.1764
  299MOL0     C41170   2.456  10.279   0.735  0.1692  0.9644  0.2427
  299MOL0     C41171   2.330  10.299   0.775 -0.6024 -0.6285 -0.1080
  299MOL0     O41172   2.226  10.187   1.097 -0.2203  0.3841  0.8894
  299MOL0     C41173   1.918  10.336   1.011 -0.8009  0.6606  0.6287
  299MOL0     C41174   1.784  10.384   1.046 -0.5380 -0.9696 -0.0789
  299MOL0     N41175   1.055  10.465   1.429 -0.1012 -0.4828 -0.3610
  299MOL0     N41176   0.971  10.545   1.482 -0.2755  0.7904  0.9537
  299MOL0     C41177   1.343  11.323   2.270  0.7221  0.7741  0.5106
  299MOL0     C41178   1.428  11.342   2.376 -0.4352  0.4377  0.3163
  299MOL0     C41179   1.633  11.431   2.774  1.6022  0.3003  0.4834
  299MOL0     C41180   1.542  11.483   2.867 -0.0294  0.4431  0.5285
  299MOL0     C41181   1.578  11.524   2.993  0.3519 -0.0022 -0.4219
  299MOL0     C41182   1.715  11.518   3.039 -0.3748  0.0461  0.4954
  299MOL0     O41183   1.758  11.556   3.169  0.8581  0.7394 -0.1045
  299MOL0     C41184   1.654  11.586   3.265  0.4966 -0.1286 -0.2323
  299MOL0     C41185   1.726  11.625   3.394  0.4857  0.0963 -0.1039
  299MOL0     C41186   1.771  11.509   3.485 -0.7218 -0.3400 -0.4060
  299MOL0     C41187   1.820  11.571   3.624  0.2535 -0.0074  0.5347
  299MOL0     C41188   1.900  11.476   3.699 -0.1865 -0.0230  0.6900
  299MOL0     C41189   1.985  11.404   3.754 -0.1185 -0.5009 -0.2721
  299MOL0     C41190   1.807  11.467   2.952 -0.3454 -0.0258  0.5482
  299MOL0     C41191   1.769  11.418   2.821 -0.3068  1.1943  0.0195
  299MOL0     C41192   1.866  11.364   2.720  0.7113 -0.4270 -0.1931
  299MOL0     H41193   1.189  11.322   2.624 -1.2543 -2.0363  0.3917
  299MOL0     H41194   1.050  11.288   2.439  0.2284  0.0818  2.5777
  299MOL0     H41195   0.958  11.368   2.229  1.6928  0.0424 -0.8570
  299MOL0     H41196   0.957  11.188   2.212 -0.5381 -0.2816 -0.4450
  299MOL0     H41197   0.816  11.304   2.035  0.5289  2.0324  0.2045
  299MOL0     H41198   0.964  11.382   1.978  2.0671  0.7949  2.6526
  299MOL0     H41199   1.055  11.146   1.941  0.7058 -0.8095  0.9939
  299MOL0     H41200   0.908  11.076   1.996  0.9350  1.1773  1.4326
  299MOL0     H41201   0.793  11.189   1.808 -0.2017  1.9933 -0.2009
  299MOL0     H41202   0.953  11.253   1.763 -0.2241 -0.0753  0.7969
  299MOL0     H41203   1.047  11.081   1.685  0.5262 -1.3888  0.7644
  299MOL0     H41204   0.883  11.044   1.629 -1.1110  3.2117  0.3558
  299MOL0     H41205   0.982  10.906   1.880  3.6726  0.7461 -0.6007
  299MOL0     H41206   0.839  10.871   1.777  0.6417 -1.4330 -0.7388
  299MOL0     H41207   1.014  10.706   1.743 -4.1845 -0.0295  1.6917
  299MOL0     H41208   1.121  10.843   1.688  0.5513 -0.2015 -1.3837
  299MOL0     H41209   0.863  10.777   1.565 -0.5849  1.3897 -0.6223
  299MOL0     H41210   0.997  10.879   1.496  1.3265  0.2508 -0.0070
  299MOL0     H41211   1.227  10.750   1.434 -1.7372  0.1307 -3.2960
  299MOL0     H41212   1.261  10.369   1.311  1.0986 -0.2320 -1.5732
  299MOL0     H41213   1.370  10.447   1.421 -0.5634  1.0328  2.6327
  299MOL0     H41214   1.288  10.595   1.163 -2.5523 -2.5441  0.0960
  299MOL0     H41215   1.429  10.618   1.254  0.6581  0.5405 -2.2210
  299MOL0     H41216   1.368  10.406   1.044 -0.7745  2.7294 -0.9960
  299MOL0     H41217   1.507  10.506   1.071 -2.2043  2.0076 -0.5465
  299MOL0     H41218   1.457  10.296   1.265 -0.4775  0.0663  1.8277
  299MOL0     H41219   1.553  10.273   1.128  1.6981 -2.2565  3.4704
  299MOL0     H41220   1.794  10.253   1.357  2.3232 -2.7846  0.5680
  299MOL0     H41221   2.040  10.045   1.281  2.2302 -0.2047  1.1862
  299MOL0     H41222   2.002  10.153   1.417 -2.1065 -1.3561 -0.6955
  299MOL0     H41223   2.142  10.192   1.335  0.1717  0.8008  1.4516
  299MOL0     H41224   2.414  10.432   1.083  0.8725 -0.9727 -0.2754
  299MOL0     H41225   2.629  10.378   1.018 -1.7038  5.3241  1.0005
  299MOL0     H41226   2.785  10.330   0.608 -1.8776  1.5474  0.4421
  299MOL0     H41227   2.715  10.470   0.684  0.6641  2.0789  2.6094
  299MOL0     H41228   2.878  10.383   0.883 -1.5033  1.5201 -0.2698
  299MOL0     H41229   2.962  10.311   0.743 -0.0905 -1.5557  3.1880
  299MOL0     H41230   2.904  10.609   0.774  0.2135 -0.7344  0.9483
  299MOL0     H41231   2.973  10.528   0.624  0.9420 -0.1672  0.4366
  299MOL0     H41232   3.160  10.445   0.767 -2.5478 -1.2204  1.2038
  299MOL0     H41233   3.097  10.559   0.887  0.0198  1.2704 -0.1759
  299MOL0     H41234   3.153  10.640   0.610 -0.6620  3.6752  0.6773
  299MOL0     H41235   3.133  10.746   0.753  2.1939  1.8134  0.0929
  299MOL0     H41236   3.352  10.627   0.835  0.4042  1.0753  1.5370
  299MOL0     H41237   3.361  10.761   0.704  1.1291 -0.5187 -0.3409
  299MOL0     H41238   3.395  10.618   0.536 -0.3724 -0.1046  0.8280
  299MOL0     H41239   3.343  10.471   0.623 -0.8494  0.3443 -0.3370
  299MOL0     H41240   3.544  10.494   0.772  1.6452 -1.7552 -1.3631
  299MOL0     H41241   3.582  10.649   0.695 -2.0754  1.1758  1.8193
  299MOL0     H41242   2.469  10.232   0.638 -0.2616  0.8508  0.2383
  299MOL0     H41243   2.254  10.290   0.698 -0.1564  0.6858 -0.7382
  299MOL0     H41244   1.939  10.364   0.909  1.1338 -1.0751  0.4863
  299MOL0     H41245   1.727  10.437   0.971  0.2620 -0.4216 -0.3023
  299MOL0     H41246   1.380  11.304   2.170  0.1195 -2.5705  0.7985
  299MOL0     H41247   1.532  11.364   2.353 -0.3671 -0.8663 -0.7154
  299MOL0     H41248   1.439  11.485   2.834 -0.3338 -0.5929  1.3729
  299MOL0     H41249   1.499  11.560   3.058  0.9339  2.3742 -0.9451
  299MOL0     H41250   1.588  11.667   3.230  2.5868  2.4856  1.4644
  299MOL0     H41251   1.599  11.495   3.290 -0.3805  0.1684 -0.9961
  299MOL0     H41252   1.647  11.675   3.452  1.3558 -0.9341  2.1033
  299MOL0     H41253   1.803  11.700   3.377 -0.2692  1.1645  1.0201
  299MOL0     H41254   1.695  11.431   3.499  0.2098 -1.3404 -0.7621
  299MOL0     H41255   1.848  11.458   3.426 -2.8985 -2.7284 -1.4046
  299MOL0     H41256   1.737  11.595   3.691 -0.4117  2.1866 -0.9814
  299MOL0     H41257   1.859  11.671   3.601  1.4111 -0.3292  1.0354
  299MOL0     H41258   2.042  11.330   3.806  0.8382 -2.2715 -3.5747
  299MOL0     H41259   1.912  11.466   2.982 -0.4162  3.6395  1.3166
  299MOL0     H41260   1.961  11.328   2.759  1.3834 -0.2920 -1.6676
  299MOL0     H41261   1.825  11.280   2.664  3.3141 -3.3846  2.0099
  299MOL0     H41262   1.903  11.443   2.655 -0.4029  0.5318  0.2859
  300MOL0     O41263   8.445   9.279   6.463  0.2039  0.8198 -0.6242
  300MOL0     C41264   8.327   9.296   6.504  0.2040  1.2357 -0.5253
  300MOL0     O41265   8.265   9.220   6.593 -0.0654 -0.0340 -1.1450
  300MOL0     C41266   8.305   9.090   6.623  0.0549 -1.0449  0.0807
  300MOL0     C41267   8.367   9.009   6.521 -0.1843 -0.6921 -0.3054
  300MOL0     C41268   8.400   8.878   6.548 -0.2554  0.5486 -0.2278
  300MOL0     C41269   8.364   8.823   6.674 -0.2857  0.6831  0.4827
  300MOL0     O41270   8.406   8.688   6.703  0.0744 -0.5524 -0.3285
  300MOL0     C41271   8.319   8.584   6.669 -0.1618  0.1943  0.0679
  300MOL0     C41272   8.377   8.464   6.732  0.0592  0.3954 -0.2256
  300MOL0     C41273   8.366   8.466   6.887 -0.3358  0.2360 -0.0563
  300MOL0     C41274   8.366   8.333   6.963 -0.0732  0.5844 -0.0428
  300MOL0     C41275   8.244   8.234   6.961 -0.5599 -0.2260  1.2098
  300MOL0     C41276   8.115   8.306   7.011  0.1695 -0.1197  0.8573
  300MOL0     C41277   7.997   8.204   7.027 -0.1812  0.4134  0.6819
  300MOL0     C41278   7.923   8.193   6.904  0.4050  0.0789 -0.0067
  300MOL0     N41279   7.793   8.134   6.916  0.4283  0.1882  0.7798
  300MOL0     C41280   7.761   8.041   7.009  0.1673  0.0726  1.0517
  300MOL0     C41281   7.624   8.022   6.997 -0.0108  0.1102 -0.5642
  300MOL0     C41282   7.524   7.927   7.070  0.7674 -0.4381  0.3210
  300MOL0     C41283   7.403   7.879   6.990 -0.6894 -2.0042 -0.4484
  300MOL0     C41284   7.267   7.940   7.034  0.0554  0.7667  0.6599
  300MOL0     C41285   7.257   8.091   7.008  0.7237  0.4916 -0.6042
  300MOL0     O41286   7.146   8.144   7.089 -0.0021 -0.0809 -0.2614
  300MOL0     C41287   7.162   8.247   7.178 -0.0960  0.1344  0.3385
  300MOL0     C41288   7.102   8.239   7.301 -0.1714 -0.2909  0.6370
  300MOL0     C41289   7.114   8.335   7.402  0.2268  0.4465 -0.1234
  300MOL0     C41290   7.018   8.293   7.518 -0.0270 -0.2516  0.1447
  300MOL0     C41291   7.200   8.447   7.372  0.1834 -0.1785  1.0081
  300MOL0     C41292   7.220   8.552   7.471  0.1290 -0.5591 -0.2808
  300MOL0     O41293   7.334   8.625   7.456 -0.4166  0.7214  0.3834
  300MOL0     C41294   7.335   8.748   7.515 -0.1050 -0.4070 -0.5470
  300MOL0     C41295   7.415   8.842   7.447 -0.7275 -0.1029 -0.8933
  300MOL0     C41296   7.444   8.969   7.504 -0.5252  0.3537  0.5089
  300MOL0     C41297   7.391   9.001   7.629 -0.1678 -0.2861  0.3400
  300MOL0     O41298   7.409   9.132   7.676  0.3555 -0.5053 -0.7046
  300MOL0     C41299   7.358   9.240   7.587  1.0286 -0.8395 -0.5610
  300MOL0     C41300   7.206   9.247   7.593 -0.0608 -0.1121  1.2465
  300MOL0     C41301   7.161   9.278   7.737 -0.0794 -0.8074 -0.2665
  300MOL0     C41302   7.123   9.420   7.747 -0.1059 -0.1245 -0.3415
  300MOL0     C41303   7.078   9.459   7.893  0.6096  0.3785  0.1687
  300MOL0     C41304   7.192   9.481   8.005  0.4420  0.0913  0.9725
  300MOL0     C41305   7.316   9.562   7.963  0.2369 -0.6102  0.4238
  300MOL0     C41306   7.271   9.699   7.907  0.2070  1.0805  0.0764
  300MOL0    Cl41307   7.413   9.806   7.851 -0.0423  0.2578 -0.2953
  300MOL0     C41308   7.311   8.910   7.698 -0.0861  0.4926  0.5712
  300MOL0     C41309   7.280   8.785   7.647  0.3964 -0.4106  0.2241
  300MOL0     O41310   7.129   8.583   7.544  0.1018  0.1998 -0.0706
  300MOL0     C41311   7.268   8.453   7.251  0.2189  0.0461 -0.1775
  300MOL0     C41312   7.247   8.363   7.150  1.3601  0.3228 -0.2122
  300MOL0     N41313   7.582   8.112   6.908 -0.1897  0.3704  0.5200
  300MOL0     N41314   7.678   8.178   6.854  0.0789  0.0011  0.2961
  300MOL0     C41315   8.310   8.901   6.771 -0.0729 -0.2569 -0.1114
  300MOL0     C41316   8.278   9.040   6.748 -0.0740 -0.2046  0.0478
  300MOL0     C41317   8.271   9.427   6.479  0.9150 -0.0268 -0.8816
  300MOL0     C41318   8.196   9.493   6.578 -0.3833  0.8030 -0.7366
  300MOL0     C41319   8.152   9.623   6.568  0.5364 -0.4906 -1.2552
  300MOL0     C41320   8.152   9.683   6.445 -0.6200  0.0481 -0.4886
  300MOL0     O41321   8.101   9.798   6.397 -0.1597 -0.1881  0.5176
  300MOL0     C41322   8.003   9.841   6.487 -0.1866  0.1432 -0.4063
  300MOL0     C41323   7.944   9.963   6.415 -0.6869  0.4809 -0.4185
  300MOL0     C41324   7.820  10.002   6.492  1.4839  0.0141  0.1686
  300MOL0     C41325   7.701  10.008   6.389 -0.1210  0.0570  0.4261
  300MOL0     C41326   7.649   9.878   6.343 -0.1578 -0.4194  0.6000
  300MOL0     C41327   7.593   9.778   6.330  0.1239  0.4745 -0.1579
  300MOL0     C41328   8.230   9.617   6.348 -0.5109 -0.4442  0.4713
  300MOL0     C41329   8.288   9.498   6.358  0.5015 -0.1621  0.3736
  300MOL0     C41330   8.369   9.441   6.244  0.3068  0.8450  0.5185
  300MOL0     H41331   8.394   9.046   6.423  0.5891 -0.1383  0.1020
  300MOL0     H41332   8.454   8.820   6.475  0.7961 -0.0238  0.9738
  300MOL0     H41333   8.309   8.568   6.561 -2.1579  1.8437 -0.0651
  300MOL0     H41334   8.221   8.605   6.714  0.2777  0.5418  0.8770
  300MOL0     H41335   8.311   8.385   6.695  2.6566 -1.2602 -1.6046
  300MOL0     H41336   8.477   8.436   6.699 -0.2921  0.0449 -1.0270
  300MOL0     H41337   8.447   8.530   6.923  3.0361 -1.4834 -3.7215
  300MOL0     H41338   8.272   8.518   6.906  0.2668  1.0907  0.6623
  300MOL0     H41339   8.451   8.272   6.934 -0.0572 -0.8358  2.6250
  300MOL0     H41340   8.397   8.358   7.066 -1.0751 -2.6924  1.1709
  300MOL0     H41341   8.266   8.143   7.018 -2.3693  0.1889  2.6820
  300MOL0     H41342   8.223   8.202   6.859  1.1965  0.2298  0.6816
  300MOL0     H41343   8.147   8.338   7.111 -2.2581  0.5295  1.4910
  300MOL0     H41344   8.095   8.397   6.954 -1.9869  0.0165  1.7577
  300MOL0     H41345   7.929   8.254   7.096 -0.7644  3.2142 -1.7491
  300MOL0     H41346   8.030   8.108   7.069 -1.9087 -0.0025  1.1797
  300MOL0     H41347   7.910   8.289   6.854  0.2042 -1.5148 -3.2891
  300MOL0     H41348   7.967   8.123   6.832  1.3166  1.7451 -1.1541
  300MOL0     H41349   7.828   7.981   7.071  1.1852 -1.7700 -1.5984
  300MOL0     H41350   7.486   7.984   7.155  2.7366  0.0082  0.9582
  300MOL0     H41351   7.583   7.847   7.116  2.5094  1.0663  0.8479
  300MOL0     H41352   7.424   7.899   6.884 -1.8895  0.2234 -0.3287
  300MOL0     H41353   7.390   7.772   7.008 -1.0035 -2.0397 -0.8684
  300MOL0     H41354   7.180   7.887   6.994 -0.8606  1.6723  1.3542
  300MOL0     H41355   7.240   7.920   7.139 -0.8070  0.2299  0.3451
  300MOL0     H41356   7.351   8.136   7.041  0.1453  0.6040  0.9638
  300MOL0     H41357   7.232   8.106   6.902 -2.1779 -0.5277 -0.1306
  300MOL0     H41358   7.043   8.147   7.305 -1.2216  0.3597  0.4801
  300MOL0     H41359   7.005   8.370   7.595  0.4576 -0.5233  0.5116
  300MOL0     H41360   7.057   8.212   7.581 -2.8131 -0.5292  1.6826
  300MOL0     H41361   6.925   8.253   7.478  1.4728 -1.3043 -2.5737
  300MOL0     H41362   7.468   8.793   7.366 -0.5031  0.6408 -1.2088
  300MOL0     H41363   7.506   9.040   7.452 -1.1153 -0.0142 -0.7459
  300MOL0     H41364   7.406   9.335   7.612  1.6292 -1.6167  1.4746
  300MOL0     H41365   7.385   9.221   7.482 -1.5509 -0.0342 -1.4301
  300MOL0     H41366   7.172   9.321   7.520 -3.7086 -0.2980  2.5722
  300MOL0     H41367   7.179   9.142   7.579 -0.3267  0.2222 -1.1540
  300MOL0     H41368   7.236   9.253   7.812  1.4033  1.5344 -0.8768
  300MOL0     H41369   7.064   9.232   7.756 -0.5951 -0.2739 -1.5285
  300MOL0     H41370   7.038   9.435   7.680  0.2447  1.2066 -0.5069
  300MOL0     H41371   7.213   9.472   7.713  1.5041 -1.0958  2.1420
  300MOL0     H41372   7.021   9.552   7.881  2.9913  2.0530  1.0476
  300MOL0     H41373   7.009   9.387   7.938 -0.4570  1.3303  0.1210
  300MOL0     H41374   7.220   9.384   8.047 -1.2348  0.1635  2.3737
  300MOL0     H41375   7.151   9.532   8.093  2.1763  2.5613  0.4406
  300MOL0     H41376   7.376   9.500   7.895  1.4318 -1.1209  1.8984
  300MOL0     H41377   7.385   9.572   8.047  0.3389  1.8350  0.1179
  300MOL0     H41378   7.213   9.758   7.978  0.8773  1.8574 -0.0076
  300MOL0     H41379   7.197   9.674   7.830 -1.3980 -1.7392  2.3238
  300MOL0     H41380   7.266   8.947   7.790  0.1991  1.9149  0.1529
  300MOL0     H41381   7.219   8.720   7.709  0.6629  0.1745  1.1283
  300MOL0     H41382   7.330   8.540   7.231 -0.6509  1.1384  1.7078
  300MOL0     H41383   7.302   8.363   7.057 -0.5604 -2.0338 -1.4708
  300MOL0     H41384   8.285   8.850   6.863  1.2035 -1.9544 -0.6637
  300MOL0     H41385   8.238   9.104   6.826  1.8868  0.7389  0.3336
  300MOL0     H41386   8.180   9.435   6.668 -0.6782  1.5355 -0.3122
  300MOL0     H41387   8.098   9.658   6.656 -1.7540 -2.6968 -1.6582
  300MOL0     H41388   7.923   9.767   6.501  0.2858  0.1028  2.8405
  300MOL0     H41389   8.035   9.855   6.591  0.9185 -1.9756 -0.4198
  300MOL0     H41390   7.920   9.943   6.310  2.4690 -0.3452 -1.0894
  300MOL0     H41391   8.022  10.038   6.427  1.0090 -1.4887  1.9696
  300MOL0     H41392   7.801   9.930   6.572  0.6137 -1.0016 -0.9125
  300MOL0     H41393   7.833  10.103   6.531 -0.4340  0.1063  0.6549
  300MOL0     H41394   7.719  10.059   6.294 -1.4363 -1.3834 -0.6439
  300MOL0     H41395   7.617  10.053   6.441 -0.7746 -0.8192  0.1534
  300MOL0     H41396   7.550   9.682   6.312  1.5160 -1.2936  4.4262
  300MOL0     H41397   8.256   9.685   6.267  1.2383  0.6231  1.8605
  300MOL0     H41398   8.474   9.466   6.259  0.1511  1.5471  0.4862
  300MOL0     H41399   8.352   9.338   6.212 -1.9765  2.2847 -3.7292
  300MOL0     H41400   8.338   9.497   6.156  0.7785 -0.3546 -0.4264
  301MOL0     O41401  10.760  10.490   2.185  0.5175  0.1012  0.2126
  301MOL0     C41402  10.644  10.533   2.171 -0.4619  0.5066 -0.8973
  301MOL0     O41403  10.541  10.453   2.167 -0.2352 -0.7590 -0.2865
  301MOL0     C41404  10.556  10.321   2.194  0.2883 -0.0380 -0.7301
  301MOL0     C41405  10.520  10.254   2.305  0.2122 -0.1530 -0.3918
  301MOL0     C41406  10.554  10.120   2.324  0.2178  0.4151  0.5627
  301MOL0     C41407  10.623  10.044   2.219  0.3696  0.0218  0.3030
  301MOL0     O41408  10.651   9.912   2.246 -0.2795  0.1631  0.5040
  301MOL0     C41409  10.680   9.829   2.133 -0.8834 -0.3678 -0.1682
  301MOL0     C41410  10.655   9.687   2.153  0.0942  0.3969 -0.4944
  301MOL0     C41411  10.694   9.606   2.029 -0.0881 -0.9612  0.9620
  301MOL0     C41412  10.716   9.449   2.046  0.8620 -0.5283  0.7312
  301MOL0     C41413  10.754   9.358   1.934  0.5271 -0.0976  0.4621
  301MOL0     C41414  10.898   9.376   1.892 -0.1990 -0.1661  0.2601
  301MOL0     C41415  10.937   9.281   1.773  0.1514  0.4021  0.2787
  301MOL0     C41416  11.070   9.313   1.719 -0.5289 -0.1293 -0.1632
  301MOL0     N41417  11.129   9.192   1.674  0.5550  0.6602 -0.1708
  301MOL0     C41418  11.076   9.116   1.567 -0.0471  0.4146  0.5242
  301MOL0     C41419  11.155   9.007   1.573  0.2064 -0.1051  0.1791
  301MOL0     C41420  11.152   8.898   1.467 -0.6491 -0.3383 -0.4466
  301MOL0     C41421  11.247   8.930   1.356 -0.1414 -0.4419  1.0334
  301MOL0     C41422  11.231   8.837   1.228  0.1619 -0.1097  0.2744
  301MOL0     C41423  11.323   8.869   1.106 -0.0290  0.2045 -0.3064
  301MOL0     O41424  11.316   8.771   1.000  0.4230 -0.3193 -0.3132
  301MOL0     C41425  11.196   8.743   0.939  1.2643 -0.7961  0.0415
  301MOL0     C41426  11.146   8.611   0.908 -0.0533  0.5981  0.1857
  301MOL0     C41427  11.014   8.584   0.857  0.0965 -0.6507 -0.0428
  301MOL0     C41428  10.978   8.444   0.816  0.1926  0.9346  0.6809
  301MOL0     C41429  10.928   8.695   0.832 -0.7803 -0.3010  0.0121
  301MOL0     C41430  10.794   8.695   0.756  0.1320  0.3256 -0.5741
  301MOL0     O41431  10.718   8.811   0.757  0.1141  0.6958  0.7273
  301MOL0     C41432  10.591   8.806   0.700  0.1399 -0.2534  0.0696
  301MOL0     C41433  10.549   8.748   0.578 -0.5382 -0.5965  0.6085
  301MOL0     C41434  10.416   8.758   0.530  0.1348  0.0109 -0.6699
  301MOL0     C41435  10.311   8.808   0.613 -0.5265 -0.9615  0.0942
  301MOL0     O41436  10.179   8.802   0.580 -0.1629  0.8693 -1.0384
  301MOL0     C41437  10.083   8.868   0.665 -0.2436  0.3919  0.7990
  301MOL0     C41438   9.930   8.832   0.651 -0.1301  0.2113  0.3585
  301MOL0     C41439   9.883   8.687   0.679  0.3980 -0.6616 -0.5884
  301MOL0     C41440   9.833   8.658   0.823 -0.6409 -0.1198  0.8445
  301MOL0     C41441   9.780   8.519   0.848  0.9744  0.6442  0.1647
  301MOL0     C41442   9.726   8.510   0.990  0.0465 -0.0633  0.4409
  301MOL0     C41443   9.597   8.588   1.010 -0.0015  0.2936 -0.3738
  301MOL0     C41444   9.480   8.493   1.045  0.4840 -1.8041 -0.5573
  301MOL0    Cl41445   9.510   8.348   1.146 -0.3630  0.0212  0.1219
  301MOL0     C41446  10.359   8.873   0.729  0.5042 -0.4083 -0.0197
  301MOL0     C41447  10.489   8.875   0.768 -0.3491  0.7779 -0.1479
  301MOL0     O41448  10.766   8.594   0.696 -0.4357 -0.2482 -0.4876
  301MOL0     C41449  10.972   8.817   0.866  0.3333 -0.3059 -0.5184
  301MOL0     C41450  11.094   8.844   0.928  0.3651 -0.1429  0.9026
  301MOL0     N41451  11.243   9.007   1.674  0.1068 -1.0318  1.0721
  301MOL0     N41452  11.234   9.122   1.728  0.9268 -0.1920 -0.2539
  301MOL0     C41453  10.650  10.117   2.100 -0.2708 -0.9275 -0.1318
  301MOL0     C41454  10.613  10.254   2.095  0.0814 -0.2949  0.8505
  301MOL0     C41455  10.633  10.679   2.149  0.5317  0.4866  0.1102
  301MOL0     C41456  10.733  10.732   2.068 -0.3818  0.4697 -0.4797
  301MOL0     C41457  10.719  10.867   2.031 -1.4654 -1.0094 -1.0796
  301MOL0     C41458  10.611  10.941   2.083 -0.2455 -0.1642  0.5923
  301MOL0     O41459  10.592  11.079   2.056 -0.1998  0.3216 -0.2435
  301MOL0     C41460  10.711  11.157   2.029  0.5408  0.0739 -0.1799
  301MOL0     C41461  10.654  11.291   2.009  0.1411  0.6084  0.4348
  301MOL0     C41462  10.757  11.398   2.047  0.4231  0.2967  0.3184
  301MOL0     C41463  10.700  11.532   2.013 -0.1418 -1.2407 -0.3523
  301MOL0     C41464  10.716  11.557   1.869 -0.6679 -0.3960 -0.5460
  301MOL0     C41465  10.725  11.569   1.747  0.1976 -0.0795 -0.9637
  301MOL0     C41466  10.518  10.880   2.158  0.4609 -1.1839 -0.3479
  301MOL0     C41467  10.522  10.750   2.199 -0.0752 -0.5003  0.4487
  301MOL0     C41468  10.407  10.701   2.287  0.2290  0.2959  0.4454
  301MOL0     H41469  10.479  10.308   2.389 -0.4563  2.4607 -2.2666
  301MOL0     H41470  10.539  10.081   2.424 -0.7067  4.2627  2.0965
  301MOL0     H41471  10.786   9.846   2.115 -0.9989  0.3495 -0.1965
  301MOL0     H41472  10.623   9.874   2.051  1.1745  3.1291  0.1121
  301MOL0     H41473  10.717   9.659   2.239 -2.7034 -0.2689  1.4200
  301MOL0     H41474  10.551   9.669   2.180 -0.5308  2.8346 -1.0143
  301MOL0     H41475  10.612   9.617   1.957  0.6188 -3.9158 -0.4142
  301MOL0     H41476  10.784   9.657   1.994 -0.5004  0.2476  1.6055
  301MOL0     H41477  10.798   9.452   2.118 -1.0356 -0.1683  2.9938
  301MOL0     H41478  10.634   9.409   2.106  1.8354 -0.1796  2.3761
  301MOL0     H41479  10.681   9.374   1.854  0.2343 -3.4033 -0.0823
  301MOL0     H41480  10.744   9.257   1.975 -2.7023 -0.2213 -0.3637
  301MOL0     H41481  10.897   9.480   1.858  2.7544 -0.5907 -1.5375
  301MOL0     H41482  10.970   9.348   1.969  0.5259  1.5885  0.2665
  301MOL0     H41483  10.863   9.287   1.692 -3.3765 -0.0932  3.2095
  301MOL0     H41484  10.933   9.176   1.803 -0.1218  0.7168  1.3999
  301MOL0     H41485  11.061   9.386   1.638 -0.5439 -0.0974 -0.1327
  301MOL0     H41486  11.134   9.354   1.798  0.0652  1.6084 -1.4740
  301MOL0     H41487  11.013   9.141   1.483  1.2197 -1.8323 -1.2003
  301MOL0     H41488  11.048   8.890   1.435 -0.7957 -1.4980  0.2688
  301MOL0     H41489  11.170   8.797   1.505 -1.0943  0.6559  2.7265
  301MOL0     H41490  11.248   9.037   1.333  0.3673 -0.6548 -0.0104
  301MOL0     H41491  11.349   8.905   1.387  0.6006 -0.5413 -1.2865
  301MOL0     H41492  11.245   8.732   1.255  0.3251 -0.4276 -0.9631
  301MOL0     H41493  11.129   8.852   1.192 -0.8109  1.9865  3.4647
  301MOL0     H41494  11.295   8.970   1.075  0.4031  0.7824  1.1019
  301MOL0     H41495  11.421   8.862   1.154 -0.0115 -0.2626 -0.4027
  301MOL0     H41496  11.206   8.524   0.936  1.6705  0.7082 -2.7152
  301MOL0     H41497  10.987   8.425   0.709 -3.7853 -4.7967  0.9271
  301MOL0     H41498  10.876   8.414   0.845  1.3283 -0.9879  3.0608
  301MOL0     H41499  11.045   8.375   0.868  1.5300  0.3213 -1.7055
  301MOL0     H41500  10.623   8.696   0.518 -2.1972 -1.1917 -1.0491
  301MOL0     H41501  10.385   8.705   0.440 -4.2726 -1.3427  1.3441
  301MOL0     H41502  10.102   8.841   0.769 -2.1998 -0.0271  1.0725
  301MOL0     H41503  10.091   8.970   0.626 -3.5478 -0.2971 -2.1527
  301MOL0     H41504   9.875   8.892   0.724 -1.0149  1.4487 -1.2615
  301MOL0     H41505   9.881   8.874   0.563 -0.6371  2.9141  1.8086
  301MOL0     H41506   9.967   8.620   0.658 -0.8075 -2.7095  0.8003
  301MOL0     H41507   9.808   8.659   0.604 -1.3930  1.1562  0.4091
  301MOL0     H41508   9.757   8.732   0.850 -1.2073 -0.7005  0.8802
  301MOL0     H41509   9.925   8.659   0.880  1.8703 -0.5743 -2.8380
  301MOL0     H41510   9.700   8.487   0.782  2.2295 -0.5295 -0.8613
  301MOL0     H41511   9.865   8.451   0.832  0.5203  0.0779  0.1343
  301MOL0     H41512   9.805   8.551   1.053  0.1938 -1.0276  0.8940
  301MOL0     H41513   9.712   8.406   1.020 -0.4814 -0.1362 -0.0429
  301MOL0     H41514   9.582   8.649   0.920  4.9425  2.3814 -0.1015
  301MOL0     H41515   9.609   8.655   1.095  2.0725 -0.8269  0.2869
  301MOL0     H41516   9.419   8.469   0.958  0.1189 -1.4432 -0.4020
  301MOL0     H41517   9.421   8.556   1.112  2.9604  0.7372 -0.5451
  301MOL0     H41518  10.298   8.938   0.791  0.5022 -0.4596  0.0311
  301MOL0     H41519  10.526   8.931   0.853  0.3728 -0.8582  0.6662
  301MOL0     H41520  10.906   8.901   0.845 -0.2586 -0.2414  1.4474
  301MOL0     H41521  11.115   8.944   0.964 -0.3175 -0.6805  2.9383
  301MOL0     H41522  10.714  10.079   2.021  1.1858 -0.4033  0.7460
  301MOL0     H41523  10.635  10.294   1.997  0.5409  0.3563  1.2125
  301MOL0     H41524  10.823  10.677   2.044 -0.3218  0.4749 -0.2712
  301MOL0     H41525  10.803  10.914   1.981 -0.2526 -1.8871  0.0641
  301MOL0     H41526  10.784  11.162   2.110  1.1513 -0.3814 -0.6964
  301MOL0     H41527  10.754  11.121   1.935  2.9160  2.5713 -0.1968
  301MOL0     H41528  10.568  11.305   2.075  2.2210 -1.9819  4.0449
  301MOL0     H41529  10.620  11.305   1.906  2.1015 -0.0431 -0.3583
  301MOL0     H41530  10.762  11.391   2.156 -0.4599  0.6018  0.3878
  301MOL0     H41531  10.852  11.380   1.995  0.8153  0.5527  0.9303
  301MOL0     H41532  10.757  11.598   2.079 -4.1427  1.8449  0.4241
  301MOL0     H41533  10.601  11.558   2.052  2.1465  4.3325  2.9528
  301MOL0     H41534  10.742  11.570   1.641 -0.0619  0.1843 -1.0013
  301MOL0     H41535  10.445  10.943   2.208  0.8022  1.0160 -2.4696
  301MOL0     H41536  10.365  10.778   2.353  0.8002  1.4494 -0.4921
  301MOL0     H41537  10.331  10.658   2.222  2.8357 -1.2237 -1.8391
  301MOL0     H41538  10.448  10.622   2.351  1.0148  1.7110  1.7812
  302MOL0     O41539   6.741   6.340   8.746  0.5488  0.5942  0.1136
  302MOL0     C41540   6.655   6.299   8.830 -0.4722  0.1519 -0.0127
  302MOL0     O41541   6.652   6.333   8.966 -0.0042  0.3331 -0.2325
  302MOL0     C41542   6.725   6.447   9.002 -0.0585  0.2829 -0.0038
  302MOL0     C41543   6.652   6.571   9.014 -0.5624  0.4285  0.0956
  302MOL0     C41544   6.725   6.692   9.041  0.0508 -0.5680  0.9984
  302MOL0     C41545   6.866   6.700   9.059 -0.6983  0.3267 -0.0030
  302MOL0     O41546   6.940   6.813   9.088 -0.2172  0.5838  0.1253
  302MOL0     C41547   6.876   6.919   9.159 -0.1145 -0.4619 -0.3087
  302MOL0     C41548   6.799   6.911   9.290 -0.8232 -0.2901  0.6976
  302MOL0     C41549   6.888   6.886   9.407 -0.0467  0.0442  0.0732
  302MOL0     C41550   6.829   6.939   9.545  0.0080  0.4072 -0.6337
  302MOL0     C41551   6.820   7.088   9.560  0.6632  0.5170 -0.0037
  302MOL0     C41552   6.758   7.125   9.690 -0.0381  0.0838 -0.7690
  302MOL0     C41553   6.865   7.150   9.803  0.3441 -0.7987 -0.6242
  302MOL0     C41554   6.799   7.200   9.922  0.4933 -0.4355  0.3090
  302MOL0     N41555   6.891   7.264  10.010  0.0413  0.4686 -0.7359
  302MOL0     C41556   6.949   7.386   9.990 -0.0273 -0.3696 -0.6731
  302MOL0     C41557   7.033   7.409  10.094 -0.9035  0.4296 -0.3235
  302MOL0     C41558   7.111   7.540  10.101 -0.8499 -0.6457  0.1498
  302MOL0     C41559   7.014   7.655  10.105 -0.7389 -0.1068  0.1013
  302MOL0     C41560   7.090   7.791  10.102 -0.7151  0.6776  1.0410
  302MOL0     C41561   6.994   7.902  10.138 -0.8192 -0.5057  0.0826
  302MOL0     O41562   7.063   8.028  10.147  0.0986 -0.4459  0.4902
  302MOL0     C41563   7.106   8.097  10.032  0.6789  0.4678  0.5230
  302MOL0     C41564   7.145   8.220  10.050  0.4215  0.1816 -0.1301
  302MOL0     C41565   7.198   8.297   9.941 -0.0414 -0.8222  0.3053
  302MOL0     C41566   7.218   8.441   9.984 -0.7397  0.4714  0.5367
  302MOL0     C41567   7.200   8.254   9.809 -0.1452  1.0081  0.4423
  302MOL0     C41568   7.246   8.325   9.695  0.0167 -0.6279 -0.4321
  302MOL0     O41569   7.284   8.238   9.597 -0.8059 -0.1946 -0.3555
  302MOL0     C41570   7.297   8.293   9.473  0.4659 -0.6215 -0.2126
  302MOL0     C41571   7.188   8.262   9.397 -0.1124  0.6972 -1.1110
  302MOL0     C41572   7.177   8.322   9.267 -0.8368  0.5640 -0.7276
  302MOL0     C41573   7.291   8.401   9.224 -0.7390 -0.5453  0.3541
  302MOL0     O41574   7.296   8.455   9.098  0.0944  0.5246 -0.9805
  302MOL0     C41575   7.342   8.378   8.988  0.3847 -0.2850  0.3060
  302MOL0     C41576   7.235   8.311   8.904 -0.5383  0.4565  0.5302
  302MOL0     C41577   7.145   8.418   8.841 -0.7933 -0.2322  0.2887
  302MOL0     C41578   7.156   8.445   8.692 -0.1277 -0.1827 -0.1715
  302MOL0     C41579   7.078   8.579   8.674 -0.3297  1.0274  0.6243
  302MOL0     C41580   7.102   8.626   8.533  0.0111 -0.4535 -0.0520
  302MOL0     C41581   7.047   8.769   8.511  0.2046  0.6543  0.2747
  302MOL0     C41582   6.895   8.791   8.520 -0.4501  0.2632 -0.0547
  302MOL0    Cl41583   6.825   8.699   8.380 -0.7853  0.1895  0.0360
  302MOL0     C41584   7.401   8.423   9.306  0.5850  0.6143 -0.3932
  302MOL0     C41585   7.410   8.361   9.429 -0.4910  0.4681  0.9475
  302MOL0     O41586   7.268   8.454   9.688 -0.9150 -0.1739  0.0056
  302MOL0     C41587   7.146   8.123   9.801  0.2447 -0.6687 -0.0506
  302MOL0     C41588   7.105   8.043   9.908 -0.3336 -0.0438 -0.3263
  302MOL0     N41589   7.018   7.304  10.184  0.6438 -0.2516 -0.3040
  302MOL0     N41590   6.945   7.219  10.125 -0.0997  0.0153  0.5874
  302MOL0     C41591   6.932   6.585   9.053  0.6418  0.4643  0.0831
  302MOL0     C41592   6.868   6.459   9.028  0.1128  0.6544  0.7161
  302MOL0     C41593   6.563   6.194   8.778 -0.7238 -0.2036 -1.0781
  302MOL0     C41594   6.576   6.131   8.647 -0.4701  0.4541  0.2310
  302MOL0     C41595   6.476   6.052   8.600 -0.6680  0.1645  0.3604
  302MOL0     C41596   6.351   6.035   8.657 -0.4750  0.0367  0.5429
  302MOL0     O41597   6.242   5.966   8.612  0.0360 -0.1748  0.1111
  302MOL0     C41598   6.244   5.923   8.478  0.5129 -0.7567 -0.4317
  302MOL0     C41599   6.104   5.895   8.433 -1.1708 -0.6479 -0.3346
  302MOL0     C41600   6.032   5.764   8.493  0.0400 -0.3962  0.1766
  302MOL0     C41601   6.111   5.640   8.478  0.4723  0.4597 -0.3871
  302MOL0     C41602   6.097   5.584   8.343  0.0866  0.6553 -0.1484
  302MOL0     C41603   6.116   5.555   8.224 -0.0352 -0.2246 -0.0619
  302MOL0     C41604   6.331   6.105   8.774  0.2127  0.0395 -0.5783
  302MOL0     C41605   6.435   6.176   8.841  0.3970 -0.1217 -0.5348
  302MOL0     C41606   6.393   6.254   8.958  0.5002  0.3272 -0.0452
  302MOL0     H41607   6.547   6.570   8.988 -0.3448 -0.9708 -0.8829
  302MOL0     H41608   6.671   6.785   9.054 -1.0237 -0.7257 -1.6056
  302MOL0     H41609   6.814   6.984   9.097 -3.7173  1.4951  4.7097
  302MOL0     H41610   6.959   6.982   9.193 -1.0029  1.4611 -1.5872
  302MOL0     H41611   6.760   7.013   9.293 -1.6364 -0.3423 -2.9305
  302MOL0     H41612   6.719   6.837   9.277 -0.1199 -0.6544 -2.3744
  302MOL0     H41613   6.926   6.783   9.408 -0.7252 -0.2280 -1.2228
  302MOL0     H41614   6.985   6.935   9.390  0.0425  0.8226  2.3539
  302MOL0     H41615   6.729   6.895   9.543 -1.1493  2.8808 -0.4010
  302MOL0     H41616   6.890   6.903   9.628  0.4153  1.0105 -0.6673
  302MOL0     H41617   6.755   7.133   9.485 -0.3917 -0.9317  0.0013
  302MOL0     H41618   6.923   7.126   9.556  0.7162  0.5084  1.0164
  302MOL0     H41619   6.716   7.224   9.671 -0.9989  0.0066  0.7086
  302MOL0     H41620   6.676   7.059   9.720  1.0800 -0.3991  1.4566
  302MOL0     H41621   6.926   7.229   9.758  2.2720 -1.9864 -0.2147
  302MOL0     H41622   6.922   7.058   9.819  3.6522  0.6728 -2.7905
  302MOL0     H41623   6.721   7.273   9.899 -0.1269 -0.9019  0.8869
  302MOL0     H41624   6.754   7.117   9.977  0.5820 -0.0225  1.0245
  302MOL0     H41625   6.936   7.452   9.905 -0.2625 -0.0343 -0.3771
  302MOL0     H41626   7.162   7.544  10.004  1.2851  1.9771  1.2262
  302MOL0     H41627   7.187   7.545  10.179  0.7857 -1.1475 -1.3330
  302MOL0     H41628   6.938   7.652  10.027 -2.4692  3.0145  1.4859
  302MOL0     H41629   6.960   7.642  10.199  0.0237  0.8079  0.6860
  302MOL0     H41630   7.168   7.792  10.179 -0.2597  2.2352  0.5974
  302MOL0     H41631   7.138   7.793  10.003  0.8848 -4.0069  1.4509
  302MOL0     H41632   6.915   7.903  10.062  0.8357 -0.7386 -1.7252
  302MOL0     H41633   6.949   7.882  10.235  2.6756  2.4923  2.6404
  302MOL0     H41634   7.137   8.263  10.149  2.0433 -0.7489  0.4555
  302MOL0     H41635   7.201   8.445  10.092  1.3427 -4.2410  1.3200
  302MOL0     H41636   7.151   8.503   9.925 -2.0978  1.3879  2.8834
  302MOL0     H41637   7.325   8.462   9.972 -1.3210  3.5138  0.0038
  302MOL0     H41638   7.114   8.194   9.436  2.2743 -0.3941  1.9450
  302MOL0     H41639   7.083   8.314   9.213 -1.4935  3.2228 -0.1687
  302MOL0     H41640   7.397   8.453   8.928  1.0108 -0.0332  1.1718
  302MOL0     H41641   7.422   8.311   9.021  0.7892  2.6744  6.8720
  302MOL0     H41642   7.269   8.242   8.826 -1.0424  0.4694  0.2981
  302MOL0     H41643   7.180   8.261   8.984  1.2009 -0.8127  0.9846
  302MOL0     H41644   7.150   8.511   8.899 -3.0459 -1.5504  2.8738
  302MOL0     H41645   7.042   8.381   8.845 -0.8206 -0.0943  1.4434
  302MOL0     H41646   7.100   8.370   8.634  0.6708 -1.6488  0.8810
  302MOL0     H41647   7.258   8.443   8.654 -0.4901  0.2764 -1.1887
  302MOL0     H41648   6.971   8.556   8.679  0.2395 -2.4878 -0.7421
  302MOL0     H41649   7.111   8.658   8.742 -0.6768  4.0536 -2.4656
  302MOL0     H41650   7.055   8.558   8.461 -1.8182 -0.1672  0.8296
  302MOL0     H41651   7.209   8.633   8.512  0.6117  3.4160  3.0231
  302MOL0     H41652   7.089   8.813   8.420  0.2046  1.4260  0.6476
  302MOL0     H41653   7.099   8.829   8.586  1.4387  0.3472 -0.2961
  302MOL0     H41654   6.870   8.896   8.506 -1.1171  0.0179 -0.8252
  302MOL0     H41655   6.856   8.754   8.615  1.3758  1.5549  1.2409
  302MOL0     H41656   7.483   8.490   9.284  1.6612  0.5568  2.8244
  302MOL0     H41657   7.499   8.375   9.490 -0.5077  2.9814  0.4978
  302MOL0     H41658   7.133   8.066   9.710 -1.9614 -1.3048  0.5923
  302MOL0     H41659   7.052   7.951   9.886 -3.1876  1.6206 -1.0481
  302MOL0     H41660   7.039   6.582   9.073  0.4087  0.0085  1.3843
  302MOL0     H41661   6.930   6.369   9.025 -0.3199  0.3596  0.5084
  302MOL0     H41662   6.668   6.138   8.590  0.2359 -0.5850  1.1966
  302MOL0     H41663   6.504   6.002   8.507 -0.1439 -0.9234  1.0742
  302MOL0     H41664   6.275   6.007   8.415  3.4775  0.4291  2.3388
  302MOL0     H41665   6.313   5.839   8.462  0.5318 -1.1912  1.6586
  302MOL0     H41666   6.121   5.890   8.325 -1.0263 -3.5130 -0.2593
  302MOL0     H41667   6.037   5.980   8.446  0.1048  0.0318  2.6568
  302MOL0     H41668   6.020   5.775   8.601  2.0725 -3.6467  0.8812
  302MOL0     H41669   5.932   5.753   8.451  0.8582 -2.8707 -1.3469
  302MOL0     H41670   6.063   5.563   8.538 -1.4392  1.0627 -1.0785
  302MOL0     H41671   6.219   5.640   8.494  0.7833  0.0456 -2.2045
  302MOL0     H41672   6.130   5.529   8.121 -2.9584  0.6657 -0.7721
  302MOL0     H41673   6.229   6.104   8.809  0.9698  0.5655  1.8889
  302MOL0     H41674   6.441   6.205   9.044 -0.6085 -1.9705 -0.6532
  302MOL0     H41675   6.416   6.360   8.944 -1.9460  0.6683 -2.3793
  302MOL0     H41676   6.286   6.246   8.977  0.8057  0.1408  1.7439
  303MOL0     O41677   6.052   0.906  10.941  0.0144  0.1834 -0.2323
  303MOL0     C41678   6.007   0.884  10.833  0.1017 -0.0503  0.0945
  303MOL0     O41679   6.073   0.888  10.714 -0.6862 -0.8036 -0.2645
  303MOL0     C41680   6.208   0.925  10.726 -0.4298 -0.8374 -0.5651
  303MOL0     C41681   6.296   0.824  10.729 -0.5867 -0.0667  0.0234
  303MOL0     C41682   6.431   0.849  10.752 -0.2807  0.6317  0.5429
  303MOL0     C41683   6.483   0.984  10.777  0.4323  0.5657 -0.0458
  303MOL0     O41684   6.605   1.031  10.797 -0.1886 -0.1542 -0.2253
  303MOL0     C41685   6.705   0.937  10.814 -0.0253 -0.5270 -0.6780
  303MOL0     C41686   6.851   0.986  10.817 -1.7443  0.5288 -0.0002
  303MOL0     C41687   6.942   0.862  10.846  0.0903 -1.0932  1.0056
  303MOL0     C41688   7.069   0.921  10.907 -0.6681 -0.2440  0.5468
  303MOL0     C41689   7.182   0.809  10.926  0.4151 -0.3424 -0.4665
  303MOL0     C41690   7.306   0.866  10.991 -0.1898  0.0585 -0.2201
  303MOL0     C41691   7.285   0.877  11.152 -0.1946  0.4000 -0.2697
  303MOL0     C41692   7.413   0.894  11.246  0.6497 -0.2553 -0.8290
  303MOL0     N41693   7.375   0.877  11.393 -0.4614 -0.0314 -0.2310
  303MOL0     C41694   7.351   0.761  11.465 -0.6183  0.1066 -0.8009
  303MOL0     C41695   7.302   0.807  11.587 -0.1726 -0.5852  0.4898
  303MOL0     C41696   7.272   0.720  11.699  0.0671 -0.1042 -0.7727
  303MOL0     C41697   7.121   0.673  11.704  0.7229 -0.0939  0.2179
  303MOL0     C41698   7.086   0.553  11.803 -0.3102 -0.2879 -0.2744
  303MOL0     C41699   7.127   0.579  11.946 -0.5349 -0.4210  0.4667
  303MOL0     O41700   7.050   0.499  12.029  0.5855  0.8005 -0.2174
  303MOL0     C41701   7.027   0.528  12.163 -0.0648 -0.1618 -0.4909
  303MOL0     C41702   7.114   0.616  12.236 -0.2852  0.0467 -0.5943
  303MOL0     C41703   7.103   0.637  12.378  1.0421 -0.3304 -0.3821
  303MOL0     C41704   7.222   0.705  12.442  1.6331  0.4781  0.9409
  303MOL0     C41705   6.979   0.583  12.442 -0.2170 -0.2724  0.3788
  303MOL0     C41706   6.941   0.602  12.589  0.0249 -0.0946  0.8456
  303MOL0     O41707   6.815   0.567  12.621  0.1650 -0.3427  0.8210
  303MOL0     C41708   6.785   0.542  12.750  0.3674 -0.0729  0.1640
  303MOL0     C41709   6.811   0.414  12.804  0.3704  0.3647  0.9653
  303MOL0     C41710   6.759   0.370  12.919 -0.5676  1.0451  0.2695
  303MOL0     C41711   6.682   0.458  13.001  0.0639  0.8006  0.3795
  303MOL0     O41712   6.622   0.422  13.117  0.1133 -0.5977 -1.1872
  303MOL0     C41713   6.676   0.479  13.239 -0.2163  0.9267 -0.3649
  303MOL0     C41714   6.591   0.423  13.356 -0.1294 -0.6282 -0.4568
  303MOL0     C41715   6.613   0.510  13.484  0.2455 -0.9423  0.1340
  303MOL0     C41716   6.566   0.438  13.615 -0.0505 -0.3580  0.0846
  303MOL0     C41717   6.590   0.532  13.734  0.5218  0.6976  0.2617
  303MOL0     C41718   6.542   0.465  13.862  0.2373 -0.5187 -0.7048
  303MOL0     C41719   6.379   0.467  13.864 -0.0861  0.1412  0.7116
  303MOL0     C41720   6.318   0.430  14.013  0.3337  0.3387 -0.8275
  303MOL0    Cl41721   6.431   0.315  14.100 -0.0496  0.6911 -0.4303
  303MOL0     C41722   6.656   0.588  12.956 -0.3686 -1.0372  0.0081
  303MOL0     C41723   6.711   0.630  12.823  0.6763  0.4453 -0.6215
  303MOL0     O41724   7.013   0.667  12.659  0.1923 -0.0850 -0.5707
  303MOL0     C41725   6.897   0.504  12.358  0.1524  0.0857 -0.2976
  303MOL0     C41726   6.925   0.467  12.227 -0.0599  0.8182  0.3810
  303MOL0     N41727   7.302   0.941  11.591 -0.0983  0.4450  0.2987
  303MOL0     N41728   7.347   0.985  11.476  0.1505  0.5760 -0.1005
  303MOL0     C41729   6.384   1.080  10.777 -0.3685 -0.7843 -0.0115
  303MOL0     C41730   6.243   1.059  10.756  0.3585  0.5519 -0.2245
  303MOL0     C41731   5.864   0.835  10.825 -0.2609 -0.8063  0.8738
  303MOL0     C41732   5.807   0.832  10.695 -0.5841  0.0533 -0.2563
  303MOL0     C41733   5.676   0.781  10.680  0.1777  0.0088  0.3561
  303MOL0     C41734   5.599   0.742  10.791 -0.8243  0.1651 -0.0378
  303MOL0     O41735   5.471   0.699  10.762  0.3282 -1.0260 -0.6523
  303MOL0     C41736   5.428   0.578  10.838 -0.7496 -0.6042  0.8839
  303MOL0     C41737   5.305   0.520  10.759 -0.9358  0.4867  0.6486
  303MOL0     C41738   5.253   0.385  10.819  0.2412  0.9562  0.6910
  303MOL0     C41739   5.151   0.329  10.725  0.4852  0.2076  0.7821
  303MOL0     C41740   5.021   0.402  10.743 -0.5505  0.2112  0.4395
  303MOL0     C41741   4.916   0.465  10.763  0.3641 -0.0308  0.4722
  303MOL0     C41742   5.646   0.767  10.921 -0.3736  0.1674 -0.0967
  303MOL0     C41743   5.784   0.799  10.938  0.5353 -0.6399  0.4097
  303MOL0     C41744   5.832   0.777  11.073 -0.3819 -0.1673  0.1280
  303MOL0     H41745   6.270   0.719  10.721 -0.4235  0.0286 -2.3832
  303MOL0     H41746   6.496   0.762  10.753  3.6211  3.2890  0.8394
  303MOL0     H41747   6.712   0.865  10.732 -0.5071 -3.1714  1.4432
  303MOL0     H41748   6.671   0.889  10.907 -3.0838  1.3754 -0.6549
  303MOL0     H41749   6.886   1.026  10.721  3.1703  0.6313  1.5555
  303MOL0     H41750   6.866   1.062  10.894 -1.4049  1.3109 -0.8279
  303MOL0     H41751   6.895   0.793  10.917  0.9349  1.5291  4.3681
  303MOL0     H41752   6.956   0.814  10.749  0.4837 -0.7195  0.8758
  303MOL0     H41753   7.117   1.002  10.850  0.9407 -1.4503  0.1152
  303MOL0     H41754   7.052   0.962  11.007 -1.4856  2.4826 -0.6117
  303MOL0     H41755   7.209   0.763  10.830  0.2643  0.9391 -1.1451
  303MOL0     H41756   7.137   0.734  10.991  1.2321  2.3899  3.6137
  303MOL0     H41757   7.375   0.796  10.944 -3.7787 -0.2206 -6.1091
  303MOL0     H41758   7.334   0.960  10.942  2.7646  0.2013  1.4739
  303MOL0     H41759   7.228   0.790  11.186  0.7196 -1.0514 -2.2160
  303MOL0     H41760   7.224   0.966  11.171 -2.2343 -1.4899  2.9885
  303MOL0     H41761   7.488   0.820  11.217  1.0746 -1.9285  3.7723
  303MOL0     H41762   7.450   0.996  11.237 -1.4483  0.5392 -0.8480
  303MOL0     H41763   7.353   0.657  11.433 -1.1854 -0.5820  1.2455
  303MOL0     H41764   7.306   0.778  11.785  1.9900  1.0603 -2.2559
  303MOL0     H41765   7.340   0.635  11.690 -0.1871 -0.1971 -1.9718
  303MOL0     H41766   7.052   0.757  11.720  1.1976  0.6605 -1.4624
  303MOL0     H41767   7.086   0.644  11.605 -2.3863  2.3488  0.4301
  303MOL0     H41768   6.977   0.543  11.805 -0.8239  3.6220  1.6761
  303MOL0     H41769   7.131   0.458  11.772  1.6450  0.3950  0.3038
  303MOL0     H41770   7.234   0.556  11.949 -0.7020 -1.1948  0.9700
  303MOL0     H41771   7.119   0.683  11.977  4.1670 -0.9608  4.9565
  303MOL0     H41772   7.193   0.674  12.190  0.6816  0.8273  1.9242
  303MOL0     H41773   7.295   0.745  12.372  2.8595  0.3610  2.1179
  303MOL0     H41774   7.275   0.634  12.506  0.1492 -1.3869  0.2234
  303MOL0     H41775   7.182   0.796  12.488 -4.9964 -1.4182  0.0350
  303MOL0     H41776   6.869   0.352  12.736  1.1695  2.2029 -0.1117
  303MOL0     H41777   6.790   0.267  12.936  0.7680  1.3693 -0.0839
  303MOL0     H41778   6.779   0.445  13.253 -0.5342 -2.0446 -3.6431
  303MOL0     H41779   6.675   0.587  13.221  2.0990  0.7299 -2.1448
  303MOL0     H41780   6.492   0.424  13.308  0.9477 -2.0784 -2.8644
  303MOL0     H41781   6.609   0.316  13.370 -3.5167 -1.1379  1.2823
  303MOL0     H41782   6.552   0.597  13.457  1.0560 -1.3060 -3.3732
  303MOL0     H41783   6.717   0.540  13.503 -0.6830  2.6171  0.3378
  303MOL0     H41784   6.627   0.348  13.626  1.0731  0.6099  2.1283
  303MOL0     H41785   6.457   0.427  13.609 -0.1686  1.0688 -0.8212
  303MOL0     H41786   6.695   0.562  13.740  0.0574  2.2377  1.1983
  303MOL0     H41787   6.535   0.626  13.724  0.1770  0.5176  0.4512
  303MOL0     H41788   6.578   0.520  13.949  0.2030  2.2179 -2.2735
  303MOL0     H41789   6.583   0.364  13.861 -1.9813 -1.5315 -3.6946
  303MOL0     H41790   6.340   0.390  13.797  1.6093 -0.4728  0.3751
  303MOL0     H41791   6.351   0.568  13.833 -2.1667  0.8239  4.2253
  303MOL0     H41792   6.218   0.387  14.015 -0.2906  1.6615 -2.3793
  303MOL0     H41793   6.323   0.518  14.078  2.9945  0.7448 -1.4778
  303MOL0     H41794   6.602   0.654  13.023 -0.4401 -2.2561  1.1784
  303MOL0     H41795   6.710   0.727  12.776  2.0926  2.2283  2.6766
  303MOL0     H41796   6.805   0.460  12.395  1.2044 -3.4291 -1.4368
  303MOL0     H41797   6.875   0.397  12.161  2.2325 -0.8729  0.3040
  303MOL0     H41798   6.420   1.181  10.796 -0.9841 -0.8223  1.5500
  303MOL0     H41799   6.159   1.127  10.754  0.4617  0.6600 -1.4714
  303MOL0     H41800   5.865   0.870  10.611  0.6021 -1.0013  0.0560
  303MOL0     H41801   5.633   0.761  10.582 -1.1743 -1.1715  1.1427
  303MOL0     H41802   5.515   0.515  10.859 -0.6914 -0.5910  0.6831
  303MOL0     H41803   5.394   0.609  10.937 -3.0144 -0.0746  0.0034
  303MOL0     H41804   5.326   0.503  10.653  1.5978 -2.4635  1.4699
  303MOL0     H41805   5.229   0.598  10.770  0.7483  1.8311  3.9266
  303MOL0     H41806   5.340   0.320  10.813 -0.8979 -0.6262  0.6335
  303MOL0     H41807   5.211   0.396  10.920 -1.0474  2.3334  0.0468
  303MOL0     H41808   5.147   0.222  10.746  1.9907  0.0473  0.3592
  303MOL0     H41809   5.177   0.340  10.619 -1.3894  0.5100  0.3111
  303MOL0     H41810   4.813   0.495  10.756  1.3366  3.4653 -0.8042
  303MOL0     H41811   5.576   0.742  11.001  1.3045 -2.1678  0.7717
  303MOL0     H41812   5.923   0.716  11.069 -0.8792 -1.2711  3.0882
  303MOL0     H41813   5.861   0.872  11.117 -3.4962  0.1087  1.8571
  303MOL0     H41814   5.756   0.741  11.143 -0.7679  2.0785  0.9472
  304MOL0     O41815  10.568   6.098   9.931 -0.1907 -0.1097 -0.2739
  304MOL0     C41816  10.543   6.011  10.005 -0.6528  0.9714 -0.7370
  304MOL0     O41817  10.588   5.878   9.995 -0.1642 -0.5020  0.3012
  304MOL0     C41818  10.580   5.837   9.862 -1.1099  0.0686 -0.1095
  304MOL0     C41819  10.458   5.795   9.812 -0.4889  0.7591 -0.5369
  304MOL0     C41820  10.443   5.713   9.700 -0.2784  0.9254  0.8228
  304MOL0     C41821  10.549   5.692   9.617  0.6437  0.5121  0.5912
  304MOL0     O41822  10.541   5.622   9.499 -0.2544  0.0477  0.6979
  304MOL0     C41823  10.429   5.650   9.410 -0.2105  0.4018  0.4873
  304MOL0     C41824  10.474   5.633   9.261  0.0173  0.9019 -0.1580
  304MOL0     C41825  10.571   5.741   9.244  0.4210 -0.6437  0.5712
  304MOL0     C41826  10.621   5.749   9.095 -0.0308  0.4797 -0.1529
  304MOL0     C41827  10.505   5.772   8.982 -0.7032  0.1187 -0.5877
  304MOL0     C41828  10.425   5.905   9.002  0.4963  0.6168 -0.0664
  304MOL0     C41829  10.320   5.905   8.890 -0.8254 -0.1114  0.0862
  304MOL0     C41830  10.257   6.049   8.882  0.0197  0.0963  0.3357
  304MOL0     N41831  10.227   6.096   9.020  0.1272  0.1164 -0.1387
  304MOL0     C41832  10.303   6.182   9.087 -0.9948  0.4023  0.4464
  304MOL0     C41833  10.271   6.160   9.215  0.0302 -0.2995 -0.0599
  304MOL0     C41834  10.340   6.215   9.338  0.2150  0.4024 -0.3396
  304MOL0     C41835  10.453   6.123   9.395 -0.2154  0.8907  0.3235
  304MOL0     C41836  10.512   6.177   9.519  0.1581 -0.3828 -0.8341
  304MOL0     C41837  10.605   6.072   9.589 -0.0984  0.8254  0.4605
  304MOL0     O41838  10.709   6.007   9.513  0.5811  0.1030 -0.0498
  304MOL0     C41839  10.825   6.074   9.489  0.1385  0.2863 -0.9753
  304MOL0     C41840  10.843   6.212   9.511  0.9249  0.1339 -0.6650
  304MOL0     C41841  10.964   6.270   9.480 -0.9764 -1.2055  0.3591
  304MOL0     C41842  10.979   6.412   9.486  0.6919 -1.3015 -0.1129
  304MOL0     C41843  11.073   6.188   9.436  0.5975  0.5314  0.5604
  304MOL0     C41844  11.209   6.226   9.386  0.3577 -0.6127 -0.6518
  304MOL0     O41845  11.241   6.162   9.272 -0.1922  0.2721  0.3328
  304MOL0     C41846  11.353   6.207   9.206  0.4246  0.4423 -0.2333
  304MOL0     C41847  11.333   6.296   9.105 -0.4559  0.2237 -0.0816
  304MOL0     C41848  11.447   6.341   9.029 -0.5199  0.4156 -0.4288
  304MOL0     C41849  11.565   6.268   9.039 -0.0997 -0.4980  1.1577
  304MOL0     O41850  11.668   6.317   8.970 -0.1413  0.3748 -0.0756
  304MOL0     C41851  11.674   6.286   8.830  0.8452 -0.1706 -0.2292
  304MOL0     C41852  11.821   6.299   8.783  0.5239 -0.9410  1.1190
  304MOL0     C41853  11.917   6.196   8.842 -0.9888  0.8721 -0.8540
  304MOL0     C41854  11.983   6.249   8.966 -0.2840  0.2511 -0.8304
  304MOL0     C41855  12.067   6.126   9.031  0.6021  0.3618  0.1299
  304MOL0     C41856  12.152   6.063   8.927 -1.7034 -0.1383 -0.1189
  304MOL0     C41857  12.268   5.994   8.995  0.5995 -0.3149 -0.6326
  304MOL0     C41858  12.369   5.956   8.889  0.1205  0.3413  0.2966
  304MOL0    Cl41859  12.309   5.860   8.745  0.0081 -0.4992  0.1627
  304MOL0     C41860  11.589   6.182   9.140  0.9197  0.9151 -0.0591
  304MOL0     C41861  11.484   6.158   9.234  0.5501 -0.2725  0.9966
  304MOL0     O41862  11.260   6.335   9.424 -0.4863  0.2607  1.2895
  304MOL0     C41863  11.055   6.050   9.420  0.4300  0.2519  0.4567
  304MOL0     C41864  10.927   6.000   9.434 -0.8503  0.4920 -0.0580
  304MOL0     N41865  10.167   6.072   9.222 -0.0970  0.1896  0.3461
  304MOL0     N41866  10.137   6.031   9.103  0.2340 -1.0086  1.4268
  304MOL0     C41867  10.667   5.747   9.644 -0.1944 -0.4231 -0.3087
  304MOL0     C41868  10.686   5.812   9.774 -0.0764  0.0623 -0.4039
  304MOL0     C41869  10.428   6.018  10.101  0.2014 -0.6524 -0.9422
  304MOL0     C41870  10.427   5.944  10.223  0.5786 -0.0274  0.5082
  304MOL0     C41871  10.317   5.948  10.317 -1.3333  0.4324  0.2188
  304MOL0     C41872  10.229   6.053  10.309 -0.8314  0.6663 -0.8845
  304MOL0     O41873  10.157   6.066  10.424 -0.7331 -0.1590  0.0841
  304MOL0     C41874  10.049   6.158  10.423 -0.0595 -0.5210 -0.3791
  304MOL0     C41875   9.958   6.119  10.545  0.1460 -0.2584 -0.0816
  304MOL0     C41876   9.900   6.248  10.612  0.3180 -0.9718  0.3779
  304MOL0     C41877   9.820   6.213  10.734 -0.4187 -0.7434 -1.3267
  304MOL0     C41878   9.719   6.311  10.771 -0.1879  0.2478 -0.1530
  304MOL0     C41879   9.643   6.406  10.790 -0.9501 -0.0690 -0.5355
  304MOL0     C41880  10.237   6.127  10.193 -0.2346 -0.5572 -0.5706
  304MOL0     C41881  10.321   6.106  10.084  0.4414 -0.2941  0.2954
  304MOL0     C41882  10.311   6.187   9.955  1.5809 -0.1927  0.6051
  304MOL0     H41883  10.370   5.818   9.871  0.7738  0.7721  1.4349
  304MOL0     H41884  10.349   5.672   9.665  0.5713 -0.0175 -0.4354
  304MOL0     H41885  10.382   5.746   9.434 -0.1299  0.0293  2.2799
  304MOL0     H41886  10.360   5.564   9.416  3.3376 -2.6215  2.3233
  304MOL0     H41887  10.515   5.532   9.258  1.3468  1.3219  1.6103
  304MOL0     H41888  10.387   5.632   9.196 -0.1719 -0.3011  0.0877
  304MOL0     H41889  10.520   5.834   9.270 -1.1283 -1.9990  2.6662
  304MOL0     H41890  10.657   5.729   9.311 -0.5616  0.2112  2.0389
  304MOL0     H41891  10.689   5.835   9.096 -1.1507  1.3940  0.2212
  304MOL0     H41892  10.669   5.656   9.063 -2.6128 -0.3931 -1.8520
  304MOL0     H41893  10.444   5.682   8.974  1.0715 -0.9463 -3.8341
  304MOL0     H41894  10.550   5.784   8.883 -1.6437  4.2357 -0.6674
  304MOL0     H41895  10.367   5.890   9.094  0.7068  0.9779  0.1257
  304MOL0     H41896  10.492   5.991   9.009 -1.3117  2.2193 -1.5397
  304MOL0     H41897  10.244   5.828   8.910  0.5474 -1.5996 -0.2196
  304MOL0     H41898  10.356   5.887   8.788 -0.1339 -1.0269  0.4791
  304MOL0     H41899  10.308   6.125   8.822  1.7628 -1.7158 -0.5888
  304MOL0     H41900  10.159   6.041   8.834 -0.6971  0.3882  1.7009
  304MOL0     H41901  10.390   6.233   9.047 -2.0758  1.7213 -0.3107
  304MOL0     H41902  10.259   6.223   9.413  2.0266  1.3844  1.6174
  304MOL0     H41903  10.389   6.310   9.316  3.0494 -0.5958  1.1964
  304MOL0     H41904  10.418   6.021   9.417 -3.0664  1.6590 -0.2684
  304MOL0     H41905  10.526   6.125   9.313 -4.1931  2.3960 -3.5776
  304MOL0     H41906  10.566   6.271   9.500  1.7898 -0.8351  1.2501
  304MOL0     H41907  10.429   6.196   9.588  0.3078 -3.5204  0.3580
  304MOL0     H41908  10.645   6.121   9.678  0.2058  0.1520  0.7003
  304MOL0     H41909  10.537   5.994   9.625 -0.0449  1.5726  2.3033
  304MOL0     H41910  10.761   6.260   9.563 -1.1254 -1.2843 -2.4162
  304MOL0     H41911  11.032   6.437   9.578 -0.9297  1.1916  0.2480
  304MOL0     H41912  10.881   6.460   9.496  0.4593 -1.9691  1.0217
  304MOL0     H41913  11.039   6.447   9.402  1.0955 -3.0610 -0.5996
  304MOL0     H41914  11.232   6.336   9.094 -0.6424  0.3915  1.7759
  304MOL0     H41915  11.435   6.412   8.947  1.3978 -0.4465 -1.5000
  304MOL0     H41916  11.633   6.185   8.831  0.3220  0.0004  2.2543
  304MOL0     H41917  11.615   6.353   8.768  1.2186  0.3997  0.0160
  304MOL0     H41918  11.836   6.294   8.675  0.1401  2.1619  0.8235
  304MOL0     H41919  11.861   6.397   8.814 -0.7386 -0.9405  2.9210
  304MOL0     H41920  11.986   6.180   8.759 -1.7922  0.2633 -1.4291
  304MOL0     H41921  11.870   6.103   8.877  2.9405 -0.0572  2.8997
  304MOL0     H41922  11.912   6.284   9.042  1.2115  1.0899  0.2120
  304MOL0     H41923  12.050   6.327   8.930  1.3294 -0.1955  1.0474
  304MOL0     H41924  12.122   6.177   9.110 -0.8755  1.7266  0.3367
  304MOL0     H41925  12.006   6.044   9.070 -0.4524  1.3433  0.5772
  304MOL0     H41926  12.191   6.150   8.872  1.4486  0.1768  2.3334
  304MOL0     H41927  12.097   5.987   8.871  1.1199 -1.8601 -0.7505
  304MOL0     H41928  12.246   5.905   9.055  0.2977 -0.1235 -0.4622
  304MOL0     H41929  12.313   6.064   9.067  1.3883 -2.5179  1.1726
  304MOL0     H41930  12.456   5.898   8.921 -0.1813 -1.0810 -1.3191
  304MOL0     H41931  12.402   6.054   8.855 -2.4214  1.4488  0.8228
  304MOL0     H41932  11.687   6.137   9.136  0.2399 -0.6969  0.5178
  304MOL0     H41933  11.495   6.105   9.327 -0.0723  0.3790  1.4562
  304MOL0     H41934  11.137   5.989   9.384 -2.6109 -2.0121 -3.6170
  304MOL0     H41935  10.915   5.895   9.408  4.7505 -0.8749  1.5189
  304MOL0     H41936  10.748   5.725   9.575 -1.0599 -2.7103 -0.6954
  304MOL0     H41937  10.789   5.829   9.805 -0.2698  1.5092 -0.4610
  304MOL0     H41938  10.503   5.866  10.231  0.5408  0.0787  2.3815
  304MOL0     H41939  10.318   5.877  10.399  0.8062  0.5794  0.3971
  304MOL0     H41940  10.093   6.258  10.432 -3.1091  0.8022  1.4808
  304MOL0     H41941   9.987   6.144  10.334 -1.0050 -0.6646  0.2886
  304MOL0     H41942  10.006   6.049  10.614  0.2640  0.6799  0.8215
  304MOL0     H41943   9.873   6.077  10.491  0.4917 -1.5165  0.3367
  304MOL0     H41944   9.990   6.292  10.654  0.7798 -2.3388  0.8820
  304MOL0     H41945   9.844   6.312  10.543  0.4532 -1.2025  0.0527
  304MOL0     H41946   9.892   6.192  10.813  0.7847  1.7872 -1.6320
  304MOL0     H41947   9.762   6.120  10.738 -1.3014 -0.1627  0.2694
  304MOL0     H41948   9.582   6.492  10.809 -2.1920 -1.4162  2.0614
  304MOL0     H41949  10.162   6.206  10.186  0.9080  0.9685  2.5619
  304MOL0     H41950  10.392   6.261   9.955  1.0589  0.4025 -0.6358
  304MOL0     H41951  10.308   6.126   9.865 -3.3451 -3.0618  2.3052
  304MOL0     H41952  10.219   6.246   9.947  0.0846 -2.4117  0.3118
  305MOL0     O41953   0.114   1.036   8.759  1.0157  0.2182 -0.3016
  305MOL0     C41954   0.053   1.114   8.834  0.9281 -0.3944 -0.3447
  305MOL0     O41955   0.006   1.236   8.792  0.4236  0.2690  0.5250
  305MOL0     C41956   0.048   1.285   8.672 -0.3086  0.1242  0.6290
  305MOL0     C41957   0.126   1.394   8.645  1.5601 -0.6017  0.0085
  305MOL0     C41958   0.179   1.412   8.520  0.3397 -1.0326 -0.0123
  305MOL0     C41959   0.139   1.343   8.409 -0.3621 -0.0973 -0.2848
  305MOL0     O41960   0.189   1.381   8.281  0.5401 -0.4877 -0.5062
  305MOL0     C41961   0.223   1.282   8.183 -0.2184  0.0487  0.2760
  305MOL0     C41962   0.311   1.351   8.075  0.3191  0.6667  0.7984
  305MOL0     C41963   0.382   1.249   7.988  0.6230  0.1679  0.0560
  305MOL0     C41964   0.452   1.309   7.869 -0.4681 -1.3926  0.2240
  305MOL0     C41965   0.496   1.199   7.773 -0.0096 -0.4810 -0.2479
  305MOL0     C41966   0.519   1.258   7.634  0.7744 -0.9009  0.5447
  305MOL0     C41967   0.548   1.157   7.528 -0.3339 -0.4844 -0.4039
  305MOL0     C41968   0.588   1.214   7.398  0.3828  0.0635  0.3573
  305MOL0     N41969   0.583   1.124   7.279  0.4263 -0.6323 -0.2402
  305MOL0     C41970   0.701   1.066   7.228  0.2541  0.7506 -0.5404
  305MOL0     C41971   0.656   1.024   7.109 -0.2526  0.0723  0.3459
  305MOL0     C41972   0.728   0.929   7.019  0.5405  0.8729 -0.3981
  305MOL0     C41973   0.669   0.791   7.017 -0.8608 -0.0009 -0.2814
  305MOL0     C41974   0.714   0.694   7.127  0.8190 -0.0769  0.0051
  305MOL0     C41975   0.859   0.631   7.110  0.1987  0.1893 -0.4604
  305MOL0     O41976   0.849   0.504   7.181 -0.0677 -0.5403  0.2311
  305MOL0     C41977   0.939   0.495   7.291  0.3364  0.2322  0.9202
  305MOL0     C41978   1.019   0.382   7.300 -0.6820 -0.0254  0.2866
  305MOL0     C41979   1.124   0.365   7.393  0.3792  1.2335 -0.0151
  305MOL0     C41980   1.195   0.239   7.394 -0.2830  1.2341 -0.0249
  305MOL0     C41981   1.146   0.468   7.495  0.2805  0.3321  0.3675
  305MOL0     C41982   1.256   0.470   7.600 -0.0046  0.6556  0.4683
  305MOL0     O41983   1.367   0.394   7.576  0.4492  0.7652 -0.2507
  305MOL0     C41984   1.467   0.387   7.668 -0.6089 -0.3569  0.5966
  305MOL0     C41985   1.456   0.355   7.805  0.2221 -1.0531  0.7907
  305MOL0     C41986   1.571   0.360   7.887 -0.4059 -0.2022  0.7468
  305MOL0     C41987   1.701   0.391   7.843 -0.0998 -0.5783 -0.2874
  305MOL0     O41988   1.813   0.388   7.923  0.1082 -0.1451 -0.2121
  305MOL0     C41989   1.927   0.470   7.887 -0.2019 -0.0682  0.1951
  305MOL0     C41990   2.011   0.511   8.007  0.3494 -0.0257  0.2489
  305MOL0     C41991   2.159   0.522   7.981 -0.1444  0.2180  0.6220
  305MOL0     C41992   2.224   0.383   7.947 -0.8124 -0.4688  0.3430
  305MOL0     C41993   2.376   0.386   7.917  0.1418 -0.5754 -0.7299
  305MOL0     C41994   2.441   0.466   8.029  0.0315  0.8088  0.0156
  305MOL0     C41995   2.593   0.478   8.016 -0.0281  0.4264 -0.1697
  305MOL0     C41996   2.649   0.524   8.154  0.4924  0.5448  0.3181
  305MOL0    Cl41997   2.611   0.691   8.189 -0.3285  0.3439 -0.0001
  305MOL0     C41998   1.712   0.412   7.706  0.4329 -0.2356  0.5466
  305MOL0     C41999   1.592   0.411   7.618 -0.8067  1.2941 -0.5869
  305MOL0     O42000   1.244   0.545   7.692 -0.1892 -0.1034 -0.1025
  305MOL0     C42001   1.058   0.577   7.490  0.3045  0.0448  0.2936
  305MOL0     C42002   0.961   0.587   7.393 -0.1680  0.4306  0.9666
  305MOL0     N42003   0.530   1.068   7.081  0.1854  0.2376 -0.9844
  305MOL0     N42004   0.494   1.135   7.185  0.3423  1.2185 -0.3720
  305MOL0     C42005   0.055   1.230   8.435  0.3624 -0.4142 -0.0677
  305MOL0     C42006   0.004   1.205   8.564  0.2304  0.1201  0.3426
  305MOL0     C42007   0.014   1.087   8.980 -0.0600  0.2720  0.4003
  305MOL0     C42008  -0.054   1.188   9.046  0.3979  0.4374 -0.0759
  305MOL0     C42009  -0.132   1.161   9.165 -1.0469 -0.4699  0.1767
  305MOL0     C42010  -0.117   1.036   9.229  0.9522 -1.4275 -0.0162
  305MOL0     O42011  -0.149   1.004   9.361  0.5410  0.5057 -0.8447
  305MOL0     C42012  -0.161   1.122   9.453 -0.1261 -0.1325 -0.4247
  305MOL0     C42013  -0.202   1.067   9.600  0.3005 -0.5042  0.1260
  305MOL0     C42014  -0.351   1.045   9.620 -0.2499 -0.1991  0.1691
  305MOL0     C42015  -0.374   1.005   9.766 -0.1530  0.2601 -0.1232
  305MOL0     C42016  -0.340   0.858   9.801 -0.0504 -0.2616  0.1992
  305MOL0     C42017  -0.320   0.748   9.828 -1.1354  0.4267  0.1488
  305MOL0     C42018  -0.041   0.943   9.164 -0.7496  0.6426 -0.7394
  305MOL0     C42019   0.024   0.964   9.043  0.5032  0.1088  0.3401
  305MOL0     C42020   0.129   0.860   9.004  0.2551 -0.7167 -0.0134
  305MOL0     H42021   0.154   1.463   8.724  0.6559  1.5165 -1.4224
  305MOL0     H42022   0.245   1.492   8.487 -1.1865 -0.5439 -2.1351
  305MOL0     H42023   0.127   1.248   8.144 -1.1997  3.5417 -0.7097
  305MOL0     H42024   0.285   1.202   8.223  0.1930  1.0602  1.7846
  305MOL0     H42025   0.240   1.407   8.013  0.5255  2.7630  2.3243
  305MOL0     H42026   0.377   1.429   8.114 -2.4045  1.3638  4.6399
  305MOL0     H42027   0.449   1.189   8.050 -0.6323 -2.2959 -0.8211
  305MOL0     H42028   0.306   1.187   7.939 -1.9376  3.4899 -0.5725
  305MOL0     H42029   0.374   1.372   7.826  0.5856 -1.8699 -2.5912
  305MOL0     H42030   0.534   1.369   7.911 -2.2583  0.4273  1.3282
  305MOL0     H42031   0.417   1.125   7.763  0.1089 -0.9603  1.8511
  305MOL0     H42032   0.591   1.149   7.796 -1.2108 -1.9447  1.8611
  305MOL0     H42033   0.435   1.322   7.604  1.3862  0.3072  1.3438
  305MOL0     H42034   0.609   1.320   7.640  1.6204 -1.9061 -1.0497
  305MOL0     H42035   0.458   1.098   7.506  0.6693 -2.4088  0.3494
  305MOL0     H42036   0.629   1.098   7.573 -0.6256 -0.2562  0.4327
  305MOL0     H42037   0.526   1.303   7.383 -2.7432 -1.6851  1.9663
  305MOL0     H42038   0.695   1.238   7.404  0.6925 -0.5896 -1.7841
  305MOL0     H42039   0.798   1.056   7.274  0.6599  1.7328 -1.1531
  305MOL0     H42040   0.834   0.916   7.044 -0.0703  0.8675  2.4704
  305MOL0     H42041   0.738   0.981   6.923  0.8095  3.3016  0.8764
  305MOL0     H42042   0.559   0.792   7.015 -0.8745 -0.5742 -2.3869
  305MOL0     H42043   0.707   0.744   6.925  0.5145 -1.3472  0.9366
  305MOL0     H42044   0.713   0.735   7.228 -0.0500  0.0213 -0.0317
  305MOL0     H42045   0.635   0.619   7.112  0.6652  0.1048 -0.1052
  305MOL0     H42046   0.870   0.614   7.003 -4.9094  1.4724 -1.4667
  305MOL0     H42047   0.936   0.703   7.137  1.0744  1.9132 -6.2609
  305MOL0     H42048   0.999   0.307   7.224 -0.1054  1.2539 -1.1951
  305MOL0     H42049   1.241   0.224   7.491  1.3865  4.6774 -0.1512
  305MOL0     H42050   1.281   0.253   7.327  1.1521 -2.5356  0.7727
  305MOL0     H42051   1.135   0.154   7.357  0.6989  1.4223 -2.2188
  305MOL0     H42052   1.361   0.321   7.847 -0.9645  0.0788 -0.8643
  305MOL0     H42053   1.557   0.345   7.994  0.9123 -2.8627  0.6109
  305MOL0     H42054   1.999   0.418   7.824  3.8443  0.1638  4.1344
  305MOL0     H42055   1.901   0.564   7.838  0.3659  0.0628  0.1376
  305MOL0     H42056   1.976   0.607   8.045 -0.1484 -0.2020  0.2305
  305MOL0     H42057   1.992   0.431   8.080 -1.9780  0.9327  0.7768
  305MOL0     H42058   2.204   0.566   8.070 -0.9550 -0.2791  1.2950
  305MOL0     H42059   2.176   0.599   7.906  1.9805 -0.1017  0.7189
  305MOL0     H42060   2.179   0.353   7.852  1.2240  1.5693 -1.3686
  305MOL0     H42061   2.204   0.309   8.025  0.0100  1.4090  2.4546
  305MOL0     H42062   2.426   0.290   7.924  3.0383  0.9134  5.3733
  305MOL0     H42063   2.389   0.444   7.825 -0.1151 -0.0740 -0.4562
  305MOL0     H42064   2.425   0.410   8.122  0.1998 -1.1623 -1.0886
  305MOL0     H42065   2.401   0.567   8.038  3.0841  2.0735  0.6068
  305MOL0     H42066   2.610   0.566   7.954 -0.3675 -1.9964 -3.9940
  305MOL0     H42067   2.628   0.385   7.971 -2.8473 -1.0984  0.5232
  305MOL0     H42068   2.758   0.515   8.146  0.5387 -1.3288  2.0974
  305MOL0     H42069   2.623   0.459   8.238  0.0416 -0.0857 -0.2858
  305MOL0     H42070   1.814   0.432   7.673  0.2572  0.8240  0.6129
  305MOL0     H42071   1.594   0.441   7.514 -3.8374  2.5034 -0.4030
  305MOL0     H42072   1.065   0.663   7.557  1.6697 -0.5860  0.9975
  305MOL0     H42073   0.896   0.673   7.404 -0.5953  0.0909  1.1462
  305MOL0     H42074   0.017   1.165   8.358  0.7503 -0.7189 -0.0082
  305MOL0     H42075  -0.054   1.117   8.589  0.4387 -0.2544 -0.4743
  305MOL0     H42076  -0.064   1.286   9.000  2.3763  1.2166  1.0153
  305MOL0     H42077  -0.193   1.243   9.203  2.8485  3.3541 -0.9489
  305MOL0     H42078  -0.062   1.168   9.458 -0.6847  1.3359 -2.0233
  305MOL0     H42079  -0.237   1.186   9.406  0.8870 -1.9429 -5.0414
  305MOL0     H42080  -0.163   1.139   9.672  1.3212 -1.2311  0.3235
  305MOL0     H42081  -0.147   0.976   9.622  0.3497 -0.6728 -0.6542
  305MOL0     H42082  -0.406   1.140   9.614 -0.1262 -0.0258  1.5550
  305MOL0     H42083  -0.381   0.972   9.544  0.4363 -0.8938  0.5577
  305MOL0     H42084  -0.481   1.009   9.787 -0.7111 -1.6377 -2.2268
  305MOL0     H42085  -0.327   1.079   9.832 -0.3073  2.4212 -2.2960
  305MOL0     H42086  -0.298   0.643   9.839 -1.1049  0.4240  0.0654
  305MOL0     H42087  -0.028   0.852   9.222 -1.7597  1.4609  0.8150
  305MOL0     H42088   0.073   0.788   8.945 -4.3978  2.4238  0.0510
  305MOL0     H42089   0.212   0.909   8.951 -1.0639  2.3051  0.4640
  305MOL0     H42090   0.174   0.804   9.086 -1.0148 -1.8803 -0.0862
  306MOL0     O42091   5.014   0.570  10.082  0.2522  0.0764  0.7760
  306MOL0     C42092   5.014   0.490  10.175 -0.8560 -0.2570  0.0977
  306MOL0     O42093   5.126   0.470  10.265 -0.0222 -0.0408  1.0458
  306MOL0     C42094   5.256   0.507  10.233 -0.5116 -0.6185  0.3034
  306MOL0     C42095   5.351   0.526  10.332 -0.1770  0.0351  0.3879
  306MOL0     C42096   5.477   0.550  10.296  0.5566  0.4724 -0.0282
  306MOL0     C42097   5.520   0.572  10.162  0.4893 -0.1400 -0.3556
  306MOL0     O42098   5.645   0.593  10.119  0.1918  0.2617  0.6006
  306MOL0     C42099   5.747   0.515  10.185 -0.4034  0.2861 -0.1546
  306MOL0     C42100   5.738   0.366  10.160 -0.2712 -0.3195  0.1952
  306MOL0     C42101   5.870   0.290  10.206 -0.0206  0.5007 -0.1821
  306MOL0     C42102   5.988   0.310  10.116 -0.1654  0.6725 -0.9067
  306MOL0     C42103   6.112   0.246  10.173 -0.1188 -0.2970  1.3111
  306MOL0     C42104   6.097   0.106  10.238  0.3182 -0.2020 -0.4274
  306MOL0     C42105   6.236   0.033  10.238 -0.5036 -0.0985 -0.3905
  306MOL0     C42106   6.219  -0.083  10.337  0.2765  0.3877  0.0112
  306MOL0     N42107   6.087  -0.158  10.314  1.0357  0.0860 -0.6365
  306MOL0     C42108   6.017  -0.201  10.431 -0.7699  0.1183  0.0077
  306MOL0     C42109   5.942  -0.297  10.378  0.6849  0.8868  0.0782
  306MOL0     C42110   5.857  -0.383  10.457 -0.5797 -0.2383 -0.2901
  306MOL0     C42111   5.931  -0.452  10.576 -0.1420 -0.6317 -0.7005
  306MOL0     C42112   6.062  -0.529  10.542  0.4672  0.8663  0.1129
  306MOL0     C42113   6.032  -0.650  10.452 -0.1086 -0.2095 -1.0527
  306MOL0     O42114   5.965  -0.769  10.499  0.0210  0.2435  0.0551
  306MOL0     C42115   5.996  -0.833  10.619 -1.0305 -0.3604  0.3048
  306MOL0     C42116   6.125  -0.846  10.679 -0.5564  0.1391 -0.5439
  306MOL0     C42117   6.144  -0.903  10.810  0.2036  0.2517  0.3299
  306MOL0     C42118   6.286  -0.939  10.854 -0.0647 -0.0599 -0.8359
  306MOL0     C42119   6.027  -0.919  10.895 -0.0541 -0.0069 -0.8736
  306MOL0     C42120   6.036  -0.949  11.043  0.2407 -0.1686  0.5082
  306MOL0     O42121   5.924  -0.990  11.094  0.1225  0.0825  1.5726
  306MOL0     C42122   5.908  -1.019  11.229  0.3275 -0.4475  0.5944
  306MOL0     C42123   6.013  -1.082  11.305  0.4187 -0.4267 -0.5567
  306MOL0     C42124   5.987  -1.129  11.436 -0.2851  0.8082 -0.3159
  306MOL0     C42125   5.869  -1.113  11.502  0.1009 -0.4257 -0.2668
  306MOL0     O42126   5.834  -1.172  11.622  0.2854  0.1956 -0.0317
  306MOL0     C42127   5.942  -1.188  11.725  0.3383  0.2853 -0.2063
  306MOL0     C42128   5.904  -1.186  11.872  0.2568  0.3084 -1.3718
  306MOL0     C42129   6.006  -1.264  11.960 -0.3078 -1.1474 -0.0329
  306MOL0     C42130   6.007  -1.420  11.935 -0.7365 -0.5060  0.3907
  306MOL0     C42131   6.049  -1.505  12.053 -0.3687 -0.3962  0.2521
  306MOL0     C42132   5.970  -1.476  12.184  0.2379  0.7902 -0.6097
  306MOL0     C42133   5.851  -1.571  12.200 -0.0840 -0.4052 -0.0866
  306MOL0     C42134   5.720  -1.501  12.229 -0.2500 -0.4178  0.1856
  306MOL0    Cl42135   5.745  -1.405  12.379  0.0348  0.1712 -0.2887
  306MOL0     C42136   5.775  -1.038  11.438  0.5443  0.5665  0.9929
  306MOL0     C42137   5.790  -1.003  11.295  0.5749  0.2906 -0.2481
  306MOL0     O42138   6.139  -0.936  11.101  0.0444  0.8740  0.1663
  306MOL0     C42139   5.894  -0.908  10.825 -0.1170  0.2336 -0.3438
  306MOL0     C42140   5.892  -0.876  10.692  0.4244  0.7192  0.4479
  306MOL0     N42141   5.947  -0.309  10.241 -0.4311  0.1842 -0.0994
  306MOL0     N42142   6.042  -0.227  10.209  0.2054  0.0384  0.0756
  306MOL0     C42143   5.430   0.542  10.066 -0.4411 -0.6325 -0.1199
  306MOL0     C42144   5.297   0.517  10.098  0.5534  0.7275  0.1956
  306MOL0     C42145   4.898   0.412  10.206  0.3321  0.0498  0.3449
  306MOL0     C42146   4.885   0.351  10.328  0.2810 -0.0187 -0.1351
  306MOL0     C42147   4.768   0.283  10.362  0.7781  0.1547  0.2787
  306MOL0     C42148   4.657   0.280  10.276  0.0149  0.2443  0.3266
  306MOL0     O42149   4.536   0.221  10.304 -0.1542  0.3404 -0.2175
  306MOL0     C42150   4.494   0.204  10.440 -0.3260 -0.2900 -0.1457
  306MOL0     C42151   4.478   0.334  10.523 -0.4322  1.0029  0.0279
  306MOL0     C42152   4.377   0.437  10.457  0.0131 -1.0728 -0.0065
  306MOL0     C42153   4.252   0.373  10.410 -0.5253 -0.3189 -0.6120
  306MOL0     C42154   4.143   0.470  10.402 -0.4307 -0.4725  0.0147
  306MOL0     C42155   4.056   0.552  10.418 -0.0244  0.5429 -0.0966
  306MOL0     C42156   4.680   0.321  10.149  0.0481 -0.7751  0.8998
  306MOL0     C42157   4.789   0.398  10.113 -0.5176 -0.5440 -0.5367
  306MOL0     C42158   4.792   0.456   9.972 -0.4075 -0.1721 -0.4173
  306MOL0     H42159   5.334   0.514  10.438 -0.6643 -0.0360  0.3035
  306MOL0     H42160   5.548   0.556  10.378 -0.1830 -4.6511  1.3335
  306MOL0     H42161   5.765   0.526  10.292  0.2237  0.1563 -0.2401
  306MOL0     H42162   5.841   0.537  10.134 -0.1327 -1.7073 -0.6303
  306MOL0     H42163   5.657   0.334  10.227 -1.4498  1.2346 -0.4333
  306MOL0     H42164   5.720   0.349  10.053  3.2020  1.9142 -0.9006
  306MOL0     H42165   5.899   0.316  10.308  2.1848  1.1025 -0.9027
  306MOL0     H42166   5.855   0.183  10.194  4.8000 -0.4382  0.0829
  306MOL0     H42167   5.967   0.254  10.024 -3.2746  2.1584 -1.2385
  306MOL0     H42168   6.009   0.412  10.084 -1.9296  0.1239 -4.2184
  306MOL0     H42169   6.153   0.308  10.253 -1.7382 -0.9734  2.7313
  306MOL0     H42170   6.181   0.235  10.089 -0.5538  0.1462  0.8843
  306MOL0     H42171   6.052   0.115  10.337 -0.6798 -0.2021 -0.8708
  306MOL0     H42172   6.034   0.048  10.171  2.2165 -3.2110  0.2175
  306MOL0     H42173   6.302   0.111  10.277 -1.2411  0.0898  0.4932
  306MOL0     H42174   6.259   0.014  10.133  0.7910  2.1692 -0.5869
  306MOL0     H42175   6.303  -0.152  10.326  0.4727  0.5911  0.2446
  306MOL0     H42176   6.222  -0.052  10.442 -1.4959 -0.9905  0.5285
  306MOL0     H42177   6.023  -0.172  10.535  1.7249 -5.2762  1.7357
  306MOL0     H42178   5.822  -0.458  10.385 -0.7756 -0.7086  0.2874
  306MOL0     H42179   5.778  -0.316  10.491  0.7826  2.5319 -2.2141
  306MOL0     H42180   5.956  -0.385  10.659 -0.1890  1.4137 -2.2695
  306MOL0     H42181   5.853  -0.525  10.599  1.2090 -1.1467  2.9190
  306MOL0     H42182   6.130  -0.464  10.487  3.1262 -2.4480 -0.8621
  306MOL0     H42183   6.118  -0.557  10.632  1.8045 -0.0686 -0.9775
  306MOL0     H42184   5.966  -0.622  10.370  1.3217  1.7864 -1.6033
  306MOL0     H42185   6.130  -0.670  10.407  1.3519  2.1906  0.7887
  306MOL0     H42186   6.216  -0.821  10.624 -2.3210  2.8462 -2.5528
  306MOL0     H42187   6.291  -1.041  10.893 -1.6612 -0.5076 -1.7318
  306MOL0     H42188   6.308  -0.874  10.940 -2.5249 -0.8942  0.5042
  306MOL0     H42189   6.357  -0.930  10.771 -0.7327  0.1509 -1.3973
  306MOL0     H42190   6.114  -1.098  11.268  0.1990 -1.4443 -0.7562
  306MOL0     H42191   6.069  -1.177  11.490 -1.7166  0.7287  1.8790
  306MOL0     H42192   5.999  -1.281  11.714  2.3883  1.1928  1.9784
  306MOL0     H42193   6.005  -1.099  11.716 -1.4811  1.5347 -1.3416
  306MOL0     H42194   5.883  -1.090  11.920  0.9229 -0.6258  0.9289
  306MOL0     H42195   5.814  -1.248  11.881  2.5833 -3.0561  1.1820
  306MOL0     H42196   5.997  -1.231  12.064 -3.5733  0.7481 -0.8047
  306MOL0     H42197   6.100  -1.211  11.941 -2.2123  1.6168 -2.6970
  306MOL0     H42198   6.073  -1.451  11.853  1.5628  0.3897  1.8113
  306MOL0     H42199   5.902  -1.449  11.923 -0.5401 -1.0666 -0.0006
  306MOL0     H42200   6.060  -1.612  12.034  1.7160 -0.6268  2.2588
  306MOL0     H42201   6.151  -1.477  12.082  1.4899 -1.5641 -4.3410
  306MOL0     H42202   5.931  -1.375  12.202 -1.4555 -0.3243  2.7015
  306MOL0     H42203   6.043  -1.492  12.263  0.8369 -0.6615 -1.4224
  306MOL0     H42204   5.869  -1.625  12.293  1.9145  0.6595  0.2232
  306MOL0     H42205   5.842  -1.646  12.121 -2.8870  1.2095 -1.4528
  306MOL0     H42206   5.640  -1.575  12.238 -2.0786  1.4133 -0.2470
  306MOL0     H42207   5.688  -1.430  12.152 -1.7145  0.7647  1.8120
  306MOL0     H42208   5.673  -1.038  11.477 -0.0861 -1.2529 -0.4901
  306MOL0     H42209   5.707  -0.949  11.253 -0.5034 -2.6049 -2.2047
  306MOL0     H42210   5.805  -0.940  10.877  0.4997 -0.8027  0.0991
  306MOL0     H42211   5.802  -0.868  10.631  1.2196  0.3452 -0.8253
  306MOL0     H42212   5.482   0.532   9.971 -3.4018 -1.3800 -1.7974
  306MOL0     H42213   5.220   0.480  10.031 -0.9267  1.1406  1.6109
  306MOL0     H42214   4.970   0.354  10.395  0.8452 -0.3602 -0.8225
  306MOL0     H42215   4.760   0.241  10.462  1.4339  0.7289  0.5773
  306MOL0     H42216   4.400   0.149  10.455 -0.3498 -0.8992 -2.2141
  306MOL0     H42217   4.570   0.146  10.491 -0.6027 -1.7048 -1.2791
  306MOL0     H42218   4.580   0.372  10.526 -1.3182  3.5457  0.6689
  306MOL0     H42219   4.443   0.309  10.623  0.5034  0.7852  0.3088
  306MOL0     H42220   4.360   0.519  10.528  0.3518 -2.4553  1.7325
  306MOL0     H42221   4.429   0.462  10.364  3.5279 -0.0622  2.0297
  306MOL0     H42222   4.213   0.292  10.473 -2.2151 -0.4112 -1.7290
  306MOL0     H42223   4.261   0.321  10.315  0.3368  1.2613 -1.4328
  306MOL0     H42224   3.989   0.627  10.456 -1.0321 -0.0630 -0.6456
  306MOL0     H42225   4.595   0.306  10.083 -2.0978  1.0540  3.0114
  306MOL0     H42226   4.714   0.412   9.909 -0.2342 -1.5320  0.2715
  306MOL0     H42227   4.768   0.563   9.974 -1.0293 -0.2952 -1.1425
  306MOL0     H42228   4.889   0.437   9.926  1.0400  2.2181  1.3824
  307MOL0     O42229  10.141  10.255   8.707 -1.0243  0.3330  0.2527
  307MOL0     C42230  10.168  10.278   8.586 -0.1664  0.2861  0.4877
  307MOL0     O42231  10.090  10.247   8.473 -0.5100 -0.1243  0.4642
  307MOL0     C42232   9.966  10.191   8.482 -0.1322  0.2141  0.2515
  307MOL0     C42233   9.870  10.215   8.584  0.0224  0.4615 -0.7740
  307MOL0     C42234   9.744  10.154   8.572  0.0410 -0.6958 -0.0325
  307MOL0     C42235   9.700  10.075   8.465 -0.4389  0.1213  0.0243
  307MOL0     O42236   9.579  10.002   8.455  0.4990 -0.2567 -0.6128
  307MOL0     C42237   9.517   9.955   8.576 -0.0367  0.4617  0.2113
  307MOL0     C42238   9.390   9.874   8.564 -0.2406 -0.3855  0.1371
  307MOL0     C42239   9.435   9.733   8.516  0.2381  0.7668  0.6400
  307MOL0     C42240   9.309   9.660   8.479 -0.1847  0.2299  0.4505
  307MOL0     C42241   9.323   9.516   8.455  0.3023 -0.5101  0.7497
  307MOL0     C42242   9.405   9.438   8.551  0.0227 -0.8765 -0.0356
  307MOL0     C42243   9.374   9.295   8.529 -0.8371 -0.0127 -0.4206
  307MOL0     C42244   9.449   9.212   8.636  0.0888  0.0690 -0.2601
  307MOL0     N42245   9.422   9.073   8.596 -0.4704  0.1659 -0.6566
  307MOL0     C42246   9.487   9.001   8.498 -1.1722  0.4256 -0.6908
  307MOL0     C42247   9.439   8.878   8.506 -0.1045  0.3477  0.8358
  307MOL0     C42248   9.477   8.760   8.418  0.1412 -1.0703  0.6282
  307MOL0     C42249   9.587   8.681   8.497  0.1100 -0.2246  0.5012
  307MOL0     C42250   9.652   8.580   8.403  0.8402  1.4232  0.3487
  307MOL0     C42251   9.619   8.438   8.444 -0.0429 -0.0528 -0.8347
  307MOL0     O42252   9.683   8.413   8.564 -0.6001 -0.2409 -0.1782
  307MOL0     C42253   9.687   8.290   8.623 -0.8450  0.7539 -1.2989
  307MOL0     C42254   9.740   8.266   8.754 -1.4420  0.1244  0.0747
  307MOL0     C42255   9.728   8.141   8.828  0.2866 -0.3533 -0.1586
  307MOL0     C42256   9.783   8.142   8.962  1.5484  0.7866 -0.1258
  307MOL0     C42257   9.658   8.028   8.770 -0.4817  0.5852 -0.7734
  307MOL0     C42258   9.661   7.891   8.833 -0.3178 -0.2659 -0.6671
  307MOL0     O42259   9.738   7.870   8.944  0.8327  0.4823  0.1662
  307MOL0     C42260   9.751   7.735   8.984  0.9895  0.1219  1.9487
  307MOL0     C42261   9.865   7.664   8.923 -0.3834  0.5600 -0.5468
  307MOL0     C42262   9.897   7.525   8.966  0.8022  0.0136 -0.7343
  307MOL0     C42263   9.800   7.471   9.060 -0.6295 -1.1794  0.4603
  307MOL0     O42264   9.807   7.338   9.102  0.2935 -0.3601  0.6462
  307MOL0     C42265   9.875   7.233   9.028  0.6745  0.3673 -0.1394
  307MOL0     C42266   9.851   7.112   9.111  0.1860 -1.2046 -0.5291
  307MOL0     C42267   9.880   6.980   9.033 -0.5887  0.5182 -0.1572
  307MOL0     C42268  10.028   6.959   9.012 -0.2626 -0.1904  0.7295
  307MOL0     C42269  10.080   6.823   8.951  0.2158 -0.0596  0.4244
  307MOL0     C42270  10.237   6.824   8.934 -0.1557 -0.7580  0.6676
  307MOL0     C42271  10.295   6.705   8.845 -0.7270 -0.0501 -0.9178
  307MOL0     C42272  10.256   6.564   8.895 -0.2004  0.1453  0.1631
  307MOL0    Cl42273  10.291   6.554   9.072  0.3349  0.1010  0.0993
  307MOL0     C42274   9.687   7.547   9.108 -0.2232  0.0931 -0.3786
  307MOL0     C42275   9.664   7.675   9.068 -1.1007 -0.1965 -0.1741
  307MOL0     O42276   9.595   7.801   8.772  0.7612 -0.1918 -0.0154
  307MOL0     C42277   9.615   8.049   8.636  0.4469 -0.5676 -0.0596
  307MOL0     C42278   9.625   8.174   8.568 -0.5020 -0.2151 -0.3409
  307MOL0     N42279   9.354   8.869   8.615  0.7520 -0.1399  0.1115
  307MOL0     N42280   9.354   8.980   8.678  0.5890 -0.2818  0.1115
  307MOL0     C42281   9.802  10.054   8.364  0.1146 -0.9771 -0.5444
  307MOL0     C42282   9.923  10.114   8.374 -0.0990  0.4395 -0.0381
  307MOL0     C42283  10.284  10.356   8.542 -0.7507  0.1528 -0.0533
  307MOL0     C42284  10.273  10.445   8.431  0.0222  0.1532  0.5245
  307MOL0     C42285  10.370  10.533   8.397  0.4321 -0.0929 -0.1854
  307MOL0     C42286  10.494  10.537   8.456 -0.1367  0.5835 -0.3481
  307MOL0     O42287  10.586  10.632   8.427 -0.6943 -0.5512  0.8929
  307MOL0     C42288  10.538  10.755   8.355 -0.4281  1.1442  0.1441
  307MOL0     C42289  10.630  10.877   8.360  0.2789 -0.8923  0.0970
  307MOL0     C42290  10.702  10.879   8.497  0.3841 -0.0636 -0.2753
  307MOL0     C42291  10.795  11.007   8.511  0.7335  0.4516 -0.0238
  307MOL0     C42292  10.830  11.015   8.653  0.6451  0.5796 -0.6029
  307MOL0     C42293  10.876  11.027   8.758 -0.0038 -0.1926 -0.6320
  307MOL0     C42294  10.512  10.443   8.565  0.1190  0.7010  0.3572
  307MOL0     C42295  10.405  10.358   8.620 -0.6021 -0.1701  0.4938
  307MOL0     C42296  10.433  10.259   8.734 -0.1604  1.0142 -0.1909
  307MOL0     H42297   9.907  10.265   8.673 -2.6903  4.3703 -1.5999
  307MOL0     H42298   9.671  10.157   8.653 -0.8745 -0.9804 -0.8337
  307MOL0     H42299   9.491  10.044   8.635  1.8534  2.0684 -1.2364
  307MOL0     H42300   9.589   9.892   8.627  1.0438  1.7190  0.2875
  307MOL0     H42301   9.336   9.876   8.659 -1.3708 -3.4036 -0.3214
  307MOL0     H42302   9.346   9.927   8.479 -0.5636 -1.9418 -0.7091
  307MOL0     H42303   9.494   9.749   8.425 -1.1688 -0.8601 -0.6137
  307MOL0     H42304   9.493   9.678   8.590  0.2129 -1.9824 -1.2403
  307MOL0     H42305   9.249   9.674   8.570  0.8094  3.8538  0.6787
  307MOL0     H42306   9.269   9.702   8.387  2.6914 -0.0350 -1.0403
  307MOL0     H42307   9.354   9.503   8.351 -2.9105  0.1561 -0.4246
  307MOL0     H42308   9.221   9.476   8.459  0.5158 -1.1631 -0.1200
  307MOL0     H42309   9.507   9.477   8.538 -0.0864 -0.0874  1.3930
  307MOL0     H42310   9.382   9.470   8.653  1.2937 -1.8903  0.6064
  307MOL0     H42311   9.392   9.255   8.429 -2.4106 -4.8737  0.9271
  307MOL0     H42312   9.270   9.276   8.555 -0.4001 -0.8066  0.8894
  307MOL0     H42313   9.556   9.230   8.625  0.7269 -0.2617  3.9276
  307MOL0     H42314   9.410   9.228   8.737  2.9316 -1.7583  1.2376
  307MOL0     H42315   9.567   9.039   8.434  0.6262 -3.1332 -0.8323
  307MOL0     H42316   9.515   8.806   8.327 -3.9453  2.0732  0.2220
  307MOL0     H42317   9.387   8.699   8.401 -1.0551  0.7319  0.2534
  307MOL0     H42318   9.655   8.753   8.545  2.3074 -3.9760  3.6644
  307MOL0     H42319   9.536   8.628   8.578  0.9072 -0.9079  0.5638
  307MOL0     H42320   9.606   8.578   8.303  0.2075  0.9823  0.6403
  307MOL0     H42321   9.758   8.607   8.400  0.6260  2.2218 -0.7562
  307MOL0     H42322   9.511   8.428   8.456 -0.1987  1.4351 -0.7958
  307MOL0     H42323   9.659   8.370   8.369  0.6496 -2.1997  1.3308
  307MOL0     H42324   9.782   8.353   8.805 -0.2695 -1.7405  2.5460
  307MOL0     H42325   9.879   8.088   8.960  0.3963 -1.3772  0.3274
  307MOL0     H42326   9.717   8.090   9.032  0.3970  1.7239 -0.4803
  307MOL0     H42327   9.792   8.246   8.997 -0.3317  1.4676 -1.4856
  307MOL0     H42328   9.930   7.720   8.857  0.4574 -0.5674 -0.6962
  307MOL0     H42329   9.985   7.481   8.920  0.7297  0.8755 -1.7573
  307MOL0     H42330   9.836   7.226   8.926  1.1509  0.0123 -0.3016
  307MOL0     H42331   9.983   7.248   9.033  0.5275  1.3225  0.5845
  307MOL0     H42332   9.912   7.114   9.201 -1.4702  0.3913  0.6296
  307MOL0     H42333   9.743   7.118   9.126  0.0788 -1.0755 -1.3102
  307MOL0     H42334   9.840   6.970   8.932  0.5811 -1.1414 -0.4966
  307MOL0     H42335   9.841   6.893   9.087  0.7292  0.1481  0.2433
  307MOL0     H42336  10.064   6.972   9.115 -1.8598  1.6835  1.1044
  307MOL0     H42337  10.070   7.041   8.954 -0.9795  0.2778  0.8680
  307MOL0     H42338  10.040   6.735   9.002  2.1372 -0.7694  0.7655
  307MOL0     H42339  10.027   6.826   8.855 -1.2763  0.1017  1.2234
  307MOL0     H42340  10.290   6.819   9.029  2.3053 -1.4745 -0.6638
  307MOL0     H42341  10.261   6.923   8.892  0.3662 -0.3613  1.8705
  307MOL0     H42342  10.404   6.711   8.846 -0.8011  1.6721  0.0799
  307MOL0     H42343  10.261   6.725   8.742 -1.6784  1.2533 -0.3733
  307MOL0     H42344  10.300   6.480   8.842 -1.8598  0.0340 -1.1194
  307MOL0     H42345  10.151   6.545   8.873  0.3015 -1.1964 -1.3002
  307MOL0     H42346   9.603   7.496   9.153 -0.8682 -0.6974 -2.3591
  307MOL0     H42347   9.572   7.726   9.096 -1.9936 -1.4551 -0.7394
  307MOL0     H42348   9.572   7.978   8.566 -4.0527  2.3191 -0.5779
  307MOL0     H42349   9.588   8.186   8.467  0.7531 -3.6689 -1.3678
  307MOL0     H42350   9.766   9.999   8.277  0.4263  3.1095 -3.5655
  307MOL0     H42351   9.990  10.114   8.289  0.1319 -2.1508  0.0575
  307MOL0     H42352  10.186  10.454   8.367 -1.3284 -0.1208  2.2355
  307MOL0     H42353  10.343  10.606   8.321  0.8308  0.8477  0.5549
  307MOL0     H42354  10.532  10.725   8.249  0.2449 -0.1880  0.4538
  307MOL0     H42355  10.447  10.798   8.397  0.3975  2.7719  0.3230
  307MOL0     H42356  10.571  10.969   8.360  2.1592  0.3920  1.4773
  307MOL0     H42357  10.710  10.878   8.285  2.7716 -1.8939  2.5728
  307MOL0     H42358  10.624  10.866   8.573 -1.1005 -0.4654 -1.8068
  307MOL0     H42359  10.760  10.787   8.505  0.3581 -0.1715 -1.2275
  307MOL0     H42360  10.761  11.105   8.478  1.8982  1.9651  2.9013
  307MOL0     H42361  10.892  10.979   8.470  2.3592  4.3636  0.6950
  307MOL0     H42362  10.908  11.027   8.860 -0.4741  1.2395 -0.4684
  307MOL0     H42363  10.607  10.440   8.618  0.2897  1.9890  0.1530
  307MOL0     H42364  10.405  10.159   8.700  2.6188 -0.8975  2.6215
  307MOL0     H42365  10.538  10.249   8.765 -0.7727  3.1882  3.1225
  307MOL0     H42366  10.379  10.277   8.827 -0.9590  2.0418 -0.8187
  308MOL0     O42367   1.184   2.283   5.952  0.3570  0.6670 -0.1495
  308MOL0     C42368   1.179   2.342   5.848  0.3016  0.0977  0.4088
  308MOL0     O42369   1.284   2.389   5.773 -0.0097  0.2997 -0.2528
  308MOL0     C42370   1.414   2.368   5.808  0.2343 -0.3305  0.2208
  308MOL0     C42371   1.474   2.316   5.931  0.0190 -0.5443  0.2997
  308MOL0     C42372   1.601   2.257   5.927 -0.9020 -0.1318 -0.1002
  308MOL0     C42373   1.686   2.276   5.817  0.9971  0.4597 -0.1576
  308MOL0     O42374   1.815   2.233   5.817 -0.3051  0.3509  0.1088
  308MOL0     C42375   1.871   2.139   5.915 -0.6225 -0.2827 -1.0449
  308MOL0     C42376   2.006   2.077   5.865 -0.1314 -0.8130  0.1944
  308MOL0     C42377   2.102   2.175   5.786  0.4388  0.2699  0.0039
  308MOL0     C42378   2.142   2.310   5.858  0.6749 -0.2051  0.4974
  308MOL0     C42379   2.215   2.308   5.995 -0.0521  0.3482 -0.3769
  308MOL0     C42380   2.373   2.313   5.969 -0.7128 -0.6819 -1.5384
  308MOL0     C42381   2.452   2.300   6.105  0.2628  0.6262 -0.7292
  308MOL0     C42382   2.426   2.420   6.204  0.1668 -0.6374  0.4180
  308MOL0     N42383   2.528   2.403   6.314  0.0504 -0.1336 -0.1262
  308MOL0     C42384   2.542   2.290   6.390 -0.0741 -0.2775  0.9534
  308MOL0     C42385   2.623   2.318   6.493  0.9913  0.1440 -0.6593
  308MOL0     C42386   2.650   2.211   6.596  0.5574 -0.0203 -0.2033
  308MOL0     C42387   2.801   2.196   6.640 -0.0851 -0.3954  0.1370
  308MOL0     C42388   2.887   2.124   6.533 -0.6094  0.7377 -0.1930
  308MOL0     C42389   3.028   2.091   6.587  1.0328  0.2259  0.5176
  308MOL0     O42390   3.121   2.042   6.493  0.5472  0.1475 -0.1170
  308MOL0     C42391   3.111   1.919   6.442  0.6983  0.2497  0.6614
  308MOL0     C42392   3.194   1.882   6.335 -0.6710  0.0249  0.1264
  308MOL0     C42393   3.183   1.767   6.250 -0.0176 -0.7442 -0.2249
  308MOL0     C42394   3.303   1.726   6.164 -0.2165  0.2977  0.1006
  308MOL0     C42395   3.080   1.671   6.290 -0.5266 -0.0841 -0.8916
  308MOL0     C42396   3.072   1.537   6.239 -0.3438  0.3752 -0.6219
  308MOL0     O42397   2.986   1.457   6.297  0.6114  0.2409  0.4738
  308MOL0     C42398   2.956   1.330   6.247  0.5872  0.9159  0.4075
  308MOL0     C42399   2.923   1.306   6.112  0.8548 -0.4644 -0.8375
  308MOL0     C42400   2.864   1.187   6.070 -0.4745 -0.1554 -0.3043
  308MOL0     C42401   2.833   1.091   6.159  0.4157  0.8096  0.4287
  308MOL0     O42402   2.777   0.967   6.144 -0.4003 -0.3343  0.1422
  308MOL0     C42403   2.742   0.912   6.015  0.0486 -0.0165  1.1072
  308MOL0     C42404   2.658   0.783   6.022 -0.1845 -0.2131  0.1188
  308MOL0     C42405   2.571   0.748   5.902  0.0715 -1.2820  0.0508
  308MOL0     C42406   2.537   0.595   5.911 -0.1342  0.6137 -0.3685
  308MOL0     C42407   2.458   0.544   6.039  0.0269  0.5701  0.3968
  308MOL0     C42408   2.390   0.414   6.029 -0.8686  0.5570  0.7894
  308MOL0     C42409   2.493   0.299   5.997 -0.2907 -0.6930  0.1967
  308MOL0     C42410   2.412   0.176   5.982  1.5697  0.1708 -0.0215
  308MOL0    Cl42411   2.523   0.045   5.945 -0.1252 -0.5154 -0.2579
  308MOL0     C42412   2.869   1.113   6.289  0.6879 -0.2444  0.0177
  308MOL0     C42413   2.921   1.229   6.335 -0.3329 -1.0509 -0.5724
  308MOL0     O42414   3.149   1.500   6.150  0.4737  0.1810 -0.1350
  308MOL0     C42415   2.998   1.699   6.407 -0.2168 -0.5351  0.5035
  308MOL0     C42416   3.009   1.823   6.473  0.3974  1.4539  0.9790
  308MOL0     N42417   2.666   2.445   6.475 -0.4734 -0.3443 -0.1324
  308MOL0     N42418   2.611   2.506   6.378 -0.5211  0.4878 -0.7960
  308MOL0     C42419   1.625   2.326   5.700  0.4938  0.1943 -0.8160
  308MOL0     C42420   1.500   2.369   5.692 -0.5751 -0.2598  1.1749
  308MOL0     C42421   1.046   2.407   5.820 -0.1835 -0.5244  0.6654
  308MOL0     C42422   1.033   2.541   5.767 -0.2818  0.4402 -0.5151
  308MOL0     C42423   0.915   2.612   5.769 -0.0837 -0.7414  0.0478
  308MOL0     C42424   0.796   2.548   5.819  0.6178 -0.2706 -0.3866
  308MOL0     O42425   0.681   2.615   5.804  0.4050  0.7386  0.4877
  308MOL0     C42426   0.553   2.554   5.837  0.9683 -0.3885 -0.2870
  308MOL0     C42427   0.527   2.532   5.989  0.7344  0.2003 -0.3527
  308MOL0     C42428   0.552   2.651   6.080  0.0110 -0.2800  0.0805
  308MOL0     C42429   0.548   2.617   6.226 -0.3140  0.1960  0.3124
  308MOL0     C42430   0.666   2.536   6.260 -0.2878  0.2576  0.1460
  308MOL0     C42431   0.769   2.474   6.288  0.4359 -0.1990 -0.3391
  308MOL0     C42432   0.803   2.418   5.858  0.5469  0.5802  0.0645
  308MOL0     C42433   0.923   2.347   5.868 -0.3340 -0.4341 -0.3004
  308MOL0     C42434   0.916   2.210   5.936  0.1578  1.8806 -0.7052
  308MOL0     H42435   1.415   2.308   6.022 -0.7827 -2.3225 -0.3242
  308MOL0     H42436   1.623   2.221   6.027  0.8041 -0.0381 -0.4106
  308MOL0     H42437   1.791   2.070   5.947 -1.4470  1.0861 -0.0558
  308MOL0     H42438   1.890   2.198   6.005 -0.4095 -0.2530 -1.1102
  308MOL0     H42439   2.056   2.036   5.953 -0.2907 -0.0467  0.6478
  308MOL0     H42440   1.973   2.000   5.794 -1.4350  0.5711 -0.7719
  308MOL0     H42441   2.193   2.119   5.762 -0.5560 -0.8550 -1.2399
  308MOL0     H42442   2.062   2.200   5.688  0.4203  1.2866  0.2558
  308MOL0     H42443   2.192   2.381   5.791 -1.4626  0.3937 -0.5389
  308MOL0     H42444   2.041   2.351   5.870 -1.1263 -3.3714 -2.1541
  308MOL0     H42445   2.197   2.215   6.049  0.8310 -0.0846 -0.8022
  308MOL0     H42446   2.190   2.390   6.063 -2.4160 -0.7437  0.1609
  308MOL0     H42447   2.413   2.240   5.898 -0.3245 -2.3327  0.2768
  308MOL0     H42448   2.406   2.413   5.939 -0.2444  0.0651  1.1838
  308MOL0     H42449   2.557   2.298   6.075  0.5271  4.0587 -0.4830
  308MOL0     H42450   2.426   2.204   6.149 -1.1711  1.8428  1.2342
  308MOL0     H42451   2.428   2.515   6.152 -1.0769 -1.8532 -1.9946
  308MOL0     H42452   2.328   2.426   6.252 -0.0849  0.3366 -0.1987
  308MOL0     H42453   2.501   2.190   6.381 -0.5142 -0.0709  0.6302
  308MOL0     H42454   2.608   2.113   6.571  3.0131 -1.6493  1.5895
  308MOL0     H42455   2.600   2.254   6.684  1.6048  0.9114 -0.0409
  308MOL0     H42456   2.844   2.292   6.673 -1.4240 -0.1367  1.1957
  308MOL0     H42457   2.802   2.134   6.730  1.4587 -0.0934  0.3634
  308MOL0     H42458   2.846   2.042   6.473 -0.9945  1.5237 -1.0334
  308MOL0     H42459   2.906   2.202   6.458 -0.4015  0.6788 -0.2037
  308MOL0     H42460   3.077   2.177   6.635 -0.9091  0.2407  2.6102
  308MOL0     H42461   3.005   2.028   6.673 -1.7322  3.4555  2.4015
  308MOL0     H42462   3.259   1.967   6.314  0.9094 -1.1174  0.2628
  308MOL0     H42463   3.342   1.625   6.182  3.5774  1.8579  1.7467
  308MOL0     H42464   3.383   1.800   6.172  1.7088 -1.6975  0.2506
  308MOL0     H42465   3.258   1.724   6.064 -1.3435 -0.3709  0.6045
  308MOL0     H42466   2.948   1.378   6.036 -0.9270 -0.9354 -1.9384
  308MOL0     H42467   2.843   1.163   5.967  0.5473  0.6714 -0.7189
  308MOL0     H42468   2.694   0.986   5.950  2.8338 -0.5925 -1.8371
  308MOL0     H42469   2.831   0.887   5.957 -2.1686 -1.0758 -2.1565
  308MOL0     H42470   2.728   0.701   6.040  0.6646  0.9023  2.3342
  308MOL0     H42471   2.594   0.789   6.111 -0.9208 -1.1807 -0.3325
  308MOL0     H42472   2.623   0.764   5.807 -2.4404 -0.3253 -1.2408
  308MOL0     H42473   2.481   0.810   5.904  0.1937 -1.1140  0.8264
  308MOL0     H42474   2.641   0.560   5.907  0.5155  2.3440  0.6439
  308MOL0     H42475   2.475   0.565   5.826 -1.8243 -2.4515  1.7559
  308MOL0     H42476   2.533   0.538   6.119 -2.6086 -0.1248  2.9865
  308MOL0     H42477   2.391   0.629   6.053  0.3702  0.8816  0.1728
  308MOL0     H42478   2.324   0.416   5.941  1.9285  1.5109 -1.4465
  308MOL0     H42479   2.338   0.391   6.122 -0.1676 -2.6304  0.4956
  308MOL0     H42480   2.562   0.297   6.082 -2.5252 -0.3492  2.1177
  308MOL0     H42481   2.553   0.329   5.910  1.7363 -0.0673  1.7355
  308MOL0     H42482   2.348   0.198   5.896  1.7540 -1.9100 -0.7385
  308MOL0     H42483   2.352   0.147   6.069  0.2676  0.0505 -0.9218
  308MOL0     H42484   2.856   1.032   6.361 -1.8356  1.3909  1.5468
  308MOL0     H42485   2.943   1.256   6.438 -2.8587 -2.3835  0.3860
  308MOL0     H42486   2.920   1.634   6.447 -2.0328  2.1148  1.5123
  308MOL0     H42487   2.946   1.837   6.560 -1.0053  2.9370 -0.2164
  308MOL0     H42488   1.690   2.330   5.613 -0.2801  0.2453 -1.4007
  308MOL0     H42489   1.461   2.422   5.606  3.2283  2.4645  0.8759
  308MOL0     H42490   1.125   2.583   5.727 -1.2538  0.5358 -2.7908
  308MOL0     H42491   0.910   2.713   5.732  0.5488 -1.2483 -1.4828
  308MOL0     H42492   0.468   2.614   5.802  2.5458  2.1786  0.0411
  308MOL0     H42493   0.531   2.460   5.787 -2.5589 -0.2501  0.7064
  308MOL0     H42494   0.589   2.447   6.016  0.0850 -0.2132 -0.1239
  308MOL0     H42495   0.423   2.499   6.002  1.9914 -3.6651  1.3153
  308MOL0     H42496   0.650   2.690   6.051 -1.0269 -0.7516 -4.9720
  308MOL0     H42497   0.481   2.733   6.064  1.2044  0.3037 -2.9234
  308MOL0     H42498   0.462   2.559   6.259  0.9294 -0.7651  2.0518
  308MOL0     H42499   0.553   2.710   6.284  1.4242  0.0433  0.4778
  308MOL0     H42500   0.854   2.417   6.317 -0.0554 -0.6095  0.3220
  308MOL0     H42501   0.716   2.358   5.879 -2.8854  5.3067  0.9995
  308MOL0     H42502   0.820   2.160   5.922  1.1714 -0.2841 -0.3062
  308MOL0     H42503   0.987   2.137   5.896  1.0148  1.2224  1.8376
  308MOL0     H42504   0.945   2.224   6.040  2.3431 -2.2379 -0.5614
  309MOL0     O42505   0.083   3.150   1.681  1.1577 -0.2405 -0.4330
  309MOL0     C42506  -0.034   3.184   1.691  0.6425  1.1350  0.3737
  309MOL0     O42507  -0.078   3.291   1.747 -0.7214 -0.1706 -0.0862
  309MOL0     C42508  -0.011   3.408   1.720 -0.7062  0.7878  0.7890
  309MOL0     C42509   0.053   3.476   1.817 -0.1452  0.6921  0.0307
  309MOL0     C42510   0.134   3.588   1.800  0.3694 -0.4914 -0.1542
  309MOL0     C42511   0.130   3.661   1.673 -0.9215 -0.1558  0.3779
  309MOL0     O42512   0.181   3.783   1.649  0.3263  0.6958  0.0561
  309MOL0     C42513   0.287   3.834   1.724 -0.1691 -0.3778 -0.4895
  309MOL0     C42514   0.221   3.945   1.812 -0.1904  0.2137  0.8149
  309MOL0     C42515   0.183   4.075   1.730 -0.6196  0.8357  0.9385
  309MOL0     C42516   0.131   4.179   1.828  0.0507 -0.3051  0.7948
  309MOL0     C42517   0.054   4.296   1.759  0.0868 -0.4148  0.6273
  309MOL0     C42518   0.155   4.367   1.665  0.1925 -0.1384  0.3820
  309MOL0     C42519   0.101   4.493   1.605 -0.1491 -0.2238 -0.1108
  309MOL0     C42520   0.199   4.577   1.535 -0.0877 -0.9866  0.6995
  309MOL0     N42521   0.140   4.698   1.471  0.4733 -0.2733 -0.1911
  309MOL0     C42522   0.120   4.811   1.546  0.6513  1.2314  0.2103
  309MOL0     C42523   0.089   4.909   1.454  0.3736  0.6757  0.7127
  309MOL0     C42524   0.053   5.049   1.482 -0.6183 -0.2214  0.2388
  309MOL0     C42525   0.154   5.123   1.567 -0.9432  0.4017 -0.8899
  309MOL0     C42526   0.125   5.265   1.574 -0.1303  0.0757 -0.6339
  309MOL0     C42527   0.244   5.353   1.605 -0.4419  0.0453 -0.5867
  309MOL0     O42528   0.315   5.323   1.729 -0.4769 -0.2923  0.5191
  309MOL0     C42529   0.251   5.333   1.853  0.6407 -0.3570  0.1722
  309MOL0     C42530   0.325   5.281   1.966 -0.4637 -0.6580 -1.2296
  309MOL0     C42531   0.271   5.280   2.102 -1.1377  0.4035  0.4964
  309MOL0     C42532   0.356   5.199   2.207 -0.0490 -0.3302 -1.0343
  309MOL0     C42533   0.143   5.326   2.126  0.3044 -0.6400  0.4654
  309MOL0     C42534   0.077   5.304   2.254 -0.9420  1.4821  0.4666
  309MOL0     O42535   0.071   5.170   2.299 -0.3867 -0.1918  0.0065
  309MOL0     C42536  -0.018   5.153   2.402  0.1852  0.0400  0.0197
  309MOL0     C42537   0.020   5.167   2.535 -0.4619 -0.3621 -0.0691
  309MOL0     C42538  -0.048   5.113   2.639  0.6338  0.2158 -0.6215
  309MOL0     C42539  -0.163   5.051   2.618  0.8642 -0.5528  0.1773
  309MOL0     O42540  -0.237   5.009   2.718  0.6473  1.2169 -0.8820
  309MOL0     C42541  -0.223   5.057   2.855 -0.4891  0.3622 -0.1334
  309MOL0     C42542  -0.337   4.994   2.947 -0.7006 -0.0447 -0.6831
  309MOL0     C42543  -0.331   5.058   3.089 -0.3396 -0.5526 -0.2474
  309MOL0     C42544  -0.212   4.993   3.181 -0.1635  0.4446  1.0912
  309MOL0     C42545  -0.185   5.048   3.323  1.3764 -1.0095  0.5605
  309MOL0     C42546  -0.100   5.177   3.330 -0.4854  0.6735  0.1558
  309MOL0     C42547   0.030   5.169   3.237  0.2872  0.5230  0.3377
  309MOL0     C42548   0.145   5.261   3.286  0.3684 -0.2648 -0.0937
  309MOL0    Cl42549   0.201   5.206   3.447  0.6334  0.1705 -0.0753
  309MOL0     C42550  -0.210   5.040   2.484  0.0689  0.3824  0.2916
  309MOL0     C42551  -0.139   5.086   2.380  0.2135 -0.1746  0.2669
  309MOL0     O42552   0.031   5.395   2.307  0.7896 -0.8104  0.0959
  309MOL0     C42553   0.071   5.396   2.022  0.2636 -0.8196 -0.7717
  309MOL0     C42554   0.127   5.398   1.892  0.4858  0.0835  0.1547
  309MOL0     N42555   0.086   4.851   1.330 -0.1665  0.2138 -0.1246
  309MOL0     N42556   0.106   4.714   1.339  0.0519 -0.8300 -0.4411
  309MOL0     C42557   0.058   3.597   1.570  0.4107 -0.7601 -0.4177
  309MOL0     C42558  -0.013   3.480   1.590  0.2705  0.4442 -0.3187
  309MOL0     C42559  -0.138   3.083   1.634 -0.6622 -0.2093 -0.0551
  309MOL0     C42560  -0.271   3.096   1.675  0.0541  0.9905  0.4983
  309MOL0     C42561  -0.368   3.010   1.626 -0.2972  0.8878  0.3710
  309MOL0     C42562  -0.338   2.908   1.532  0.3878 -1.1272 -0.5599
  309MOL0     O42563  -0.434   2.817   1.491 -0.0085  0.0193  0.4724
  309MOL0     C42564  -0.579   2.832   1.524 -0.5610  0.4311  0.1901
  309MOL0     C42565  -0.648   2.701   1.518 -0.9016 -1.0026 -0.1465
  309MOL0     C42566  -0.788   2.725   1.588  0.5616 -0.5827 -0.2124
  309MOL0     C42567  -0.881   2.818   1.507 -0.5910 -0.0762  0.3054
  309MOL0     C42568  -1.018   2.800   1.565  0.4461  0.1501  0.2788
  309MOL0     C42569  -1.117   2.788   1.631 -0.7932  0.1754 -0.1407
  309MOL0     C42570  -0.201   2.897   1.500  0.8709  0.4701 -0.4550
  309MOL0     C42571  -0.100   2.985   1.546 -0.3433  0.7573  0.5442
  309MOL0     C42572   0.042   2.965   1.484  0.1419 -0.2701 -0.3608
  309MOL0     H42573   0.035   3.446   1.920 -1.1795  1.5306  0.1047
  309MOL0     H42574   0.178   3.642   1.883 -0.1572  0.7367 -0.6334
  309MOL0     H42575   0.367   3.870   1.658 -0.6856 -2.3216 -2.2790
  309MOL0     H42576   0.344   3.769   1.791  2.0881  1.8802 -0.0012
  309MOL0     H42577   0.138   3.887   1.853 -1.2789 -1.3882 -3.1688
  309MOL0     H42578   0.292   3.982   1.886 -1.4599  1.7540  1.3180
  309MOL0     H42579   0.276   4.101   1.679  2.0172 -1.3944  4.2045
  309MOL0     H42580   0.105   4.055   1.656 -1.0354  4.0375  0.3924
  309MOL0     H42581   0.065   4.127   1.897 -1.6140  1.1772  0.3978
  309MOL0     H42582   0.203   4.229   1.893  0.2595  1.6216 -0.8140
  309MOL0     H42583   0.021   4.365   1.838 -1.1410 -0.5840  0.2850
  309MOL0     H42584  -0.032   4.258   1.704  1.7510 -2.8568 -0.4442
  309MOL0     H42585   0.256   4.380   1.703  0.9532  0.4795 -1.7233
  309MOL0     H42586   0.167   4.300   1.580 -4.6843 -0.2295 -0.5154
  309MOL0     H42587   0.052   4.552   1.683  0.8255  0.2371  0.1693
  309MOL0     H42588   0.016   4.472   1.540 -1.0006  2.0594  0.1826
  309MOL0     H42589   0.282   4.602   1.602  1.0824  3.3718 -1.9674
  309MOL0     H42590   0.245   4.524   1.451  2.6649 -0.1196  1.5339
  309MOL0     H42591   0.135   4.814   1.654  1.1628 -0.6759  0.2307
  309MOL0     H42592  -0.040   5.049   1.538 -1.0181  0.0052 -0.4116
  309MOL0     H42593   0.031   5.111   1.394 -2.3189 -1.7391 -0.4642
  309MOL0     H42594   0.142   5.083   1.668 -0.3608 -0.8888 -1.3090
  309MOL0     H42595   0.257   5.117   1.530 -0.1192  1.9900  0.9348
  309MOL0     H42596   0.080   5.309   1.485 -0.1051  0.7272 -0.3308
  309MOL0     H42597   0.037   5.279   1.638  0.1961  0.3196 -0.2272
  309MOL0     H42598   0.321   5.340   1.528  0.1515  4.6656 -1.0688
  309MOL0     H42599   0.215   5.458   1.608  0.8392  0.4554 -1.6080
  309MOL0     H42600   0.420   5.242   1.930 -0.7691 -1.8631 -0.7481
  309MOL0     H42601   0.294   5.127   2.261  1.3526  0.5314  1.9506
  309MOL0     H42602   0.399   5.276   2.273  0.9527 -1.2862 -0.5279
  309MOL0     H42603   0.440   5.140   2.168  1.5756  0.1215  1.5195
  309MOL0     H42604   0.115   5.218   2.548 -0.4821 -0.0463 -1.0461
  309MOL0     H42605  -0.007   5.119   2.739 -1.4266  3.9489  0.1996
  309MOL0     H42606  -0.130   5.018   2.899 -1.2718  0.9567  2.2133
  309MOL0     H42607  -0.222   5.166   2.856 -1.0228  0.3644  0.4192
  309MOL0     H42608  -0.429   5.024   2.896 -2.0371  0.6700  1.9231
  309MOL0     H42609  -0.327   4.885   2.943  0.1146 -0.0370  0.5922
  309MOL0     H42610  -0.421   5.057   3.150 -0.9505  2.6977 -0.9101
  309MOL0     H42611  -0.305   5.165   3.086 -2.8172  0.2208  2.3602
  309MOL0     H42612  -0.119   4.992   3.125 -0.6271 -2.6217  0.2187
  309MOL0     H42613  -0.239   4.889   3.198 -3.4700  0.5884 -1.9198
  309MOL0     H42614  -0.282   5.070   3.368  0.0850 -0.9272 -2.0701
  309MOL0     H42615  -0.138   4.967   3.380 -1.0224 -2.9076 -0.0307
  309MOL0     H42616  -0.082   5.208   3.434 -1.5706  0.0090  0.5596
  309MOL0     H42617  -0.155   5.262   3.289  0.3657  0.2349 -1.9788
  309MOL0     H42618  -0.001   5.205   3.139  0.6527  1.4821  0.5662
  309MOL0     H42619   0.051   5.062   3.232  1.0341  0.6570  0.4874
  309MOL0     H42620   0.103   5.361   3.297 -1.5044 -0.9131 -0.8678
  309MOL0     H42621   0.236   5.260   3.224  1.3497  0.7156  1.2809
  309MOL0     H42622  -0.301   4.986   2.461 -0.1176 -0.4444  2.6178
  309MOL0     H42623  -0.177   5.065   2.280  1.9414 -1.8367 -0.0988
  309MOL0     H42624  -0.023   5.448   2.038  0.5114 -0.3329 -0.8735
  309MOL0     H42625   0.061   5.451   1.824 -1.3069 -0.6637  1.2397
  309MOL0     H42626   0.062   3.642   1.471 -1.8898  4.5047  1.5256
  309MOL0     H42627  -0.071   3.431   1.511  1.6554 -0.6403 -0.7140
  309MOL0     H42628  -0.298   3.177   1.742 -1.7378  2.2586 -1.5863
  309MOL0     H42629  -0.471   3.025   1.656  0.1210  0.6384  2.0326
  309MOL0     H42630  -0.602   2.885   1.616 -0.2802  0.3267  0.3186
  309MOL0     H42631  -0.618   2.897   1.444  0.5872  2.2305  1.0474
  309MOL0     H42632  -0.594   2.629   1.579 -0.5359 -0.2732  0.3931
  309MOL0     H42633  -0.662   2.661   1.417 -2.0831  2.3637 -1.4555
  309MOL0     H42634  -0.820   2.622   1.603 -1.3270  0.1125  0.9742
  309MOL0     H42635  -0.778   2.758   1.692 -1.7081 -2.3315  0.6392
  309MOL0     H42636  -0.875   2.783   1.403  3.6648  0.0379  0.3579
  309MOL0     H42637  -0.847   2.922   1.504  0.9124 -0.4655  2.1824
  309MOL0     H42638  -1.194   2.746   1.693  1.8407 -3.4755  1.0566
  309MOL0     H42639  -0.177   2.822   1.425 -1.0106  0.4734 -1.1087
  309MOL0     H42640   0.059   3.055   1.424  5.7269  1.1367  2.6001
  309MOL0     H42641   0.126   2.952   1.553 -0.5491  0.5778  0.6656
  309MOL0     H42642   0.014   2.880   1.421 -0.9130 -2.4156  2.7742
  310MOL0     O42643   5.305   5.100   2.872  0.0099  0.6312 -0.5118
  310MOL0     C42644   5.315   5.014   2.783 -0.8961 -0.0265 -0.0097
  310MOL0     O42645   5.289   4.883   2.804 -0.6394  0.9982  0.5793
  310MOL0     C42646   5.207   4.834   2.900  0.4791 -0.5037 -0.4793
  310MOL0     C42647   5.157   4.905   3.007 -0.4385  0.1523 -0.3514
  310MOL0     C42648   5.080   4.840   3.105 -0.1902 -0.1503  0.3987
  310MOL0     C42649   5.036   4.709   3.087 -0.5978 -0.8073 -0.6769
  310MOL0     O42650   4.949   4.650   3.182  0.3092  0.1916 -0.5681
  310MOL0     C42651   5.013   4.577   3.289 -0.5205  0.9587 -0.1387
  310MOL0     C42652   4.918   4.547   3.401 -0.0719  1.2679  0.4822
  310MOL0     C42653   4.861   4.681   3.460  0.2225  0.5484  0.8083
  310MOL0     C42654   4.946   4.736   3.571  0.7229 -0.1251 -0.0221
  310MOL0     C42655   4.872   4.861   3.625 -0.3316  2.2921 -0.5133
  310MOL0     C42656   4.854   4.867   3.773  0.6334  0.6564  0.6687
  310MOL0     C42657   4.801   5.005   3.808 -0.6630  0.3898  0.0329
  310MOL0     C42658   4.909   5.114   3.821 -0.4772  0.1631  0.4944
  310MOL0     N42659   4.867   5.256   3.854 -0.6152 -0.1769  0.5061
  310MOL0     C42660   4.781   5.276   3.957 -0.3801 -0.1767  0.3216
  310MOL0     C42661   4.755   5.410   3.951 -1.4273 -0.3107  0.2011
  310MOL0     C42662   4.666   5.470   4.050  0.3718 -1.1506  0.1586
  310MOL0     C42663   4.742   5.573   4.139 -0.6301  0.1232 -1.0453
  310MOL0     C42664   4.671   5.618   4.275 -0.1447 -0.0895  0.1006
  310MOL0     C42665   4.552   5.715   4.252 -0.8277 -0.6404 -0.1107
  310MOL0     O42666   4.460   5.672   4.141  0.0480  0.4501 -0.2821
  310MOL0     C42667   4.351   5.740   4.114  0.6605  0.3389 -0.2018
  310MOL0     C42668   4.287   5.703   3.992 -0.6571 -0.3041  0.2949
  310MOL0     C42669   4.164   5.762   3.951 -0.4347 -0.2852  0.0347
  310MOL0     C42670   4.098   5.675   3.847  0.7722 -0.0928 -0.1013
  310MOL0     C42671   4.117   5.877   4.029  1.0520 -0.1194  0.7623
  310MOL0     C42672   4.000   5.953   3.974 -1.6993 -0.0139 -0.7211
  310MOL0     O42673   3.940   6.041   4.058  0.0483  0.1343 -0.0163
  310MOL0     C42674   3.841   6.120   3.998 -0.0333  0.2376 -1.1334
  310MOL0     C42675   3.716   6.058   3.965  0.1984 -0.2270  0.1900
  310MOL0     C42676   3.615   6.136   3.909  0.6295 -0.5920 -0.3101
  310MOL0     C42677   3.629   6.275   3.888  0.2383  1.0262 -0.5959
  310MOL0     O42678   3.540   6.359   3.833 -1.6218 -0.5388  0.3983
  310MOL0     C42679   3.436   6.307   3.757  1.0642  0.7180  0.7309
  310MOL0     C42680   3.293   6.299   3.837  0.5276 -0.0898 -0.9666
  310MOL0     C42681   3.177   6.225   3.774 -0.3790  0.4160  0.3051
  310MOL0     C42682   3.200   6.078   3.727 -0.7379  0.0897  0.1435
  310MOL0     C42683   3.163   5.998   3.842  0.5127 -0.4971 -0.0141
  310MOL0     C42684   3.210   5.858   3.809  1.0389  0.3932  0.2507
  310MOL0     C42685   3.177   5.752   3.920 -0.7200  0.1798 -1.1722
  310MOL0     C42686   3.210   5.609   3.873  0.2657  0.3253  0.1021
  310MOL0    Cl42687   3.364   5.588   3.791 -0.3497  0.1872  0.0574
  310MOL0     C42688   3.748   6.330   3.918 -0.5425 -0.2876 -1.0648
  310MOL0     C42689   3.854   6.260   3.977  0.5334 -0.5289  0.6296
  310MOL0     O42690   3.957   5.916   3.867  0.5238 -0.2558 -0.2263
  310MOL0     C42691   4.176   5.908   4.145  0.3513 -0.4532 -0.0062
  310MOL0     C42692   4.286   5.836   4.186  0.1431  0.2321 -0.8574
  310MOL0     N42693   4.819   5.465   3.841 -0.4211 -0.8311 -0.3563
  310MOL0     N42694   4.880   5.373   3.775 -0.6378  0.0456  0.1928
  310MOL0     C42695   5.089   4.640   2.980  0.7625 -1.0791  0.2511
  310MOL0     C42696   5.172   4.702   2.890  0.2206 -0.8561 -0.7642
  310MOL0     C42697   5.391   5.056   2.663 -1.0705 -0.6329 -1.1216
  310MOL0     C42698   5.491   4.979   2.609 -0.3536  0.3077 -0.6634
  310MOL0     C42699   5.579   5.025   2.508 -1.1154  0.5602  0.0887
  310MOL0     C42700   5.563   5.149   2.455 -0.3710 -0.9303 -0.2294
  310MOL0     O42701   5.641   5.187   2.345 -0.2615  0.2274  0.3319
  310MOL0     C42702   5.599   5.311   2.270  0.0819 -0.8334  0.6717
  310MOL0     C42703   5.713   5.350   2.174  0.2349  0.2010 -0.4658
  310MOL0     C42704   5.838   5.402   2.244  0.3107 -0.4967  0.3797
  310MOL0     C42705   5.971   5.336   2.204 -0.0727  0.6709  1.1862
  310MOL0     C42706   6.028   5.419   2.099  0.0919 -0.2790 -0.2279
  310MOL0     C42707   6.096   5.489   2.030 -0.3521  0.3306  0.7592
  310MOL0     C42708   5.465   5.229   2.509 -0.1392  1.0461  0.5892
  310MOL0     C42709   5.374   5.177   2.607  1.0446 -0.4554 -0.3329
  310MOL0     C42710   5.265   5.273   2.662 -0.4002 -0.2056 -0.5714
  310MOL0     H42711   5.180   5.006   3.040 -0.0622 -0.0490  0.0068
  310MOL0     H42712   5.032   4.903   3.180  0.5718  3.9922 -2.3180
  310MOL0     H42713   5.086   4.646   3.331 -0.5385  0.6088  0.4773
  310MOL0     H42714   5.052   4.486   3.242  0.7755  1.4710 -0.0976
  310MOL0     H42715   4.840   4.484   3.358  0.4651 -0.2359  1.6210
  310MOL0     H42716   4.960   4.492   3.487  2.3024 -1.3859 -2.1138
  310MOL0     H42717   4.842   4.756   3.382  0.1101 -0.2237  0.0830
  310MOL0     H42718   4.769   4.648   3.509  2.8810 -0.5200  5.7209
  310MOL0     H42719   4.946   4.661   3.651 -2.9916 -0.5341 -0.2502
  310MOL0     H42720   5.051   4.747   3.541  0.8162 -0.7285  0.0747
  310MOL0     H42721   4.774   4.871   3.576 -1.7025 -1.9746  0.9470
  310MOL0     H42722   4.934   4.948   3.602  2.0767  1.0710  0.9084
  310MOL0     H42723   4.780   4.794   3.809  0.7017  0.5722  0.6386
  310MOL0     H42724   4.949   4.854   3.824  0.3824 -3.5386  0.4270
  310MOL0     H42725   4.754   5.004   3.907  0.0442 -0.6118  0.3724
  310MOL0     H42726   4.719   5.033   3.740  0.7777  0.1578 -1.8699
  310MOL0     H42727   4.955   5.081   3.915 -3.4207  0.6907  2.2295
  310MOL0     H42728   4.977   5.119   3.735 -1.8869  1.7483 -0.5707
  310MOL0     H42729   4.724   5.204   4.014 -1.2716  1.0830  1.0948
  310MOL0     H42730   4.603   5.394   4.097 -0.4852 -2.0516 -2.2648
  310MOL0     H42731   4.596   5.530   3.991  1.9124 -1.3524 -1.9849
  310MOL0     H42732   4.830   5.517   4.170 -1.1766  1.5424  4.0080
  310MOL0     H42733   4.782   5.654   4.078  1.1101 -1.2197 -1.7630
  310MOL0     H42734   4.644   5.528   4.332 -0.8504 -0.8604 -1.4010
  310MOL0     H42735   4.754   5.661   4.333 -0.5932  1.6516 -0.5081
  310MOL0     H42736   4.502   5.733   4.347 -0.7199 -1.1518  0.0464
  310MOL0     H42737   4.596   5.807   4.210  1.0186 -1.6627 -0.5406
  310MOL0     H42738   4.328   5.618   3.938 -0.9100  1.0312 -2.1708
  310MOL0     H42739   4.156   5.587   3.820  2.6031  1.4596 -1.5219
  310MOL0     H42740   4.094   5.725   3.750 -1.3939  3.2147  1.4878
  310MOL0     H42741   3.992   5.653   3.865  0.8340  0.5044  1.0589
  310MOL0     H42742   3.709   5.950   3.972  1.0213 -0.5282 -2.4274
  310MOL0     H42743   3.526   6.079   3.883 -0.2668  0.4712  0.3370
  310MOL0     H42744   3.394   6.376   3.684  0.7006  1.1815  1.3728
  310MOL0     H42745   3.472   6.210   3.719  1.2941  0.2061  2.2060
  310MOL0     H42746   3.315   6.257   3.935 -1.2494 -2.0312 -1.3308
  310MOL0     H42747   3.258   6.402   3.853 -1.0973 -0.2226 -3.2165
  310MOL0     H42748   3.154   6.282   3.684  0.5727 -0.5553 -0.5891
  310MOL0     H42749   3.079   6.219   3.823 -1.0625  0.2091 -1.0263
  310MOL0     H42750   3.306   6.060   3.711  0.1406  3.7864  0.8158
  310MOL0     H42751   3.132   6.058   3.644 -0.0269  0.5198 -0.5453
  310MOL0     H42752   3.216   6.030   3.932 -0.1493  1.4170 -0.2579
  310MOL0     H42753   3.056   6.001   3.861  0.4861  1.7066 -0.2737
  310MOL0     H42754   3.319   5.861   3.801  1.1458 -0.0361  1.3629
  310MOL0     H42755   3.164   5.816   3.719 -0.8415 -0.5324  1.5565
  310MOL0     H42756   3.075   5.758   3.961  0.0315  2.2114  0.6160
  310MOL0     H42757   3.240   5.781   4.005  0.0655  2.0280 -2.3313
  310MOL0     H42758   3.131   5.572   3.807  0.3989  1.1550 -0.5354
  310MOL0     H42759   3.212   5.545   3.962  0.7852 -1.1837 -0.9634
  310MOL0     H42760   3.759   6.436   3.898  0.9727  0.3974  2.5364
  310MOL0     H42761   3.934   6.328   4.003  3.0993 -1.8391 -3.0047
  310MOL0     H42762   4.137   5.987   4.208  1.3303 -1.2542  1.6989
  310MOL0     H42763   4.335   5.867   4.278  1.0843  0.6100 -1.4764
  310MOL0     H42764   5.051   4.538   2.973 -4.0989  0.5928 -1.6180
  310MOL0     H42765   5.218   4.636   2.818 -3.5558 -2.6254 -1.8363
  310MOL0     H42766   5.503   4.876   2.642  0.5465  0.2012 -1.2854
  310MOL0     H42767   5.655   4.963   2.461 -0.5506  2.5095 -1.7460
  310MOL0     H42768   5.509   5.281   2.215 -1.1878  1.3023  1.4725
  310MOL0     H42769   5.570   5.402   2.322  5.3228  1.5828 -0.0820
  310MOL0     H42770   5.687   5.432   2.107  1.5290  0.1769 -1.0158
  310MOL0     H42771   5.730   5.257   2.119  3.2073 -0.7254  1.7362
  310MOL0     H42772   5.837   5.512   2.243  0.4696 -0.4882 -0.8068
  310MOL0     H42773   5.833   5.369   2.348  2.2832  2.6091  1.6067
  310MOL0     H42774   5.938   5.237   2.172 -1.8988  1.1230  1.5465
  310MOL0     H42775   6.039   5.342   2.289 -1.0642 -0.3795  2.0750
  310MOL0     H42776   6.169   5.545   1.975 -1.9356  0.8388 -0.9381
  310MOL0     H42777   5.443   5.330   2.475 -1.4321  0.6422  0.1675
  310MOL0     H42778   5.217   5.333   2.583 -3.7806 -3.5620 -1.3684
  310MOL0     H42779   5.183   5.235   2.723  0.6163  3.7641  3.8325
  310MOL0     H42780   5.318   5.335   2.734  0.2736 -1.0188 -0.3535
  311MOL0     O42781   8.149   7.685   5.638 -0.1054 -0.6293 -0.2584
  311MOL0     C42782   8.221   7.605   5.701 -0.4200 -0.3564  0.5329
  311MOL0     O42783   8.349   7.629   5.727  0.2389 -0.5286 -0.0227
  311MOL0     C42784   8.410   7.751   5.693  0.0236 -0.0015 -0.2219
  311MOL0     C42785   8.375   7.836   5.583  0.0247  0.5419 -0.1362
  311MOL0     C42786   8.439   7.957   5.573 -0.3139 -0.8740 -0.5107
  311MOL0     C42787   8.545   8.005   5.657 -0.7186 -0.7629 -0.7586
  311MOL0     O42788   8.611   8.124   5.631 -0.4733 -0.6183  0.2487
  311MOL0     C42789   8.751   8.106   5.621  0.6035  0.1961 -0.1206
  311MOL0     C42790   8.802   8.242   5.584  0.2541  0.2378  0.6119
  311MOL0     C42791   8.953   8.250   5.560 -0.0564  0.5989 -0.5289
  311MOL0     C42792   9.047   8.205   5.676 -0.6293 -0.9074  0.6885
  311MOL0     C42793   9.182   8.241   5.630 -0.8888 -0.0295 -0.2569
  311MOL0     C42794   9.298   8.185   5.717 -0.9103  0.0326 -0.4420
  311MOL0     C42795   9.317   8.250   5.859  0.1437  1.0683 -0.1175
  311MOL0     C42796   9.391   8.172   5.966 -0.7391  0.5328 -0.4631
  311MOL0     N42797   9.499   8.081   5.923 -0.4720  0.4971  0.3122
  311MOL0     C42798   9.622   8.119   5.859  0.1882 -0.5640 -0.5324
  311MOL0     C42799   9.704   8.011   5.859 -0.6237  0.4067 -0.3243
  311MOL0     C42800   9.843   8.001   5.806  1.3146 -0.0270  0.0089
  311MOL0     C42801   9.942   7.962   5.922 -0.0244 -0.0313 -0.2337
  311MOL0     C42802  10.078   7.964   5.879 -0.4088  0.0548 -0.8452
  311MOL0     C42803  10.181   7.988   5.987 -0.0662 -0.0588  0.1170
  311MOL0     O42804  10.183   8.121   6.054  1.1807 -0.5502 -0.5423
  311MOL0     C42805  10.281   8.137   6.140 -0.4052  0.2745  0.1865
  311MOL0     C42806  10.305   8.274   6.172  0.3018 -0.0309 -0.9380
  311MOL0     C42807  10.398   8.319   6.266  0.0869 -0.1741 -0.1198
  311MOL0     C42808  10.392   8.459   6.309 -0.7404 -0.6490 -0.3932
  311MOL0     C42809  10.493   8.223   6.316 -0.7023  0.3099 -0.1983
  311MOL0     C42810  10.601   8.252   6.417 -0.4917  0.6360  0.6291
  311MOL0     O42811  10.620   8.164   6.523  0.3008 -1.2761 -1.3684
  311MOL0     C42812  10.734   8.160   6.601 -0.3993 -0.5129 -0.2361
  311MOL0     C42813  10.727   8.159   6.737 -0.6316 -0.1301 -0.6574
  311MOL0     C42814  10.842   8.139   6.816  0.0009 -0.0659  0.3869
  311MOL0     C42815  10.971   8.120   6.760 -0.0522 -0.9212  0.2512
  311MOL0     O42816  11.068   8.099   6.853 -0.8327 -0.0014  0.2552
  311MOL0     C42817  11.181   8.017   6.824  0.1739 -0.4988 -0.2392
  311MOL0     C42818  11.287   8.013   6.936 -0.9830 -0.0876 -1.3522
  311MOL0     C42819  11.238   7.960   7.073 -0.4035 -0.3329  0.2810
  311MOL0     C42820  11.346   7.932   7.184  0.3268 -0.3924  0.4074
  311MOL0     C42821  11.289   7.885   7.305 -0.2480  0.0599  1.0622
  311MOL0     C42822  11.217   7.749   7.284  0.0824 -1.0939  0.4778
  311MOL0     C42823  11.200   7.684   7.423 -0.2508  0.4109  0.2230
  311MOL0     C42824  11.069   7.605   7.450 -0.4691 -0.6149 -0.3833
  311MOL0    Cl42825  11.030   7.502   7.303 -0.3554 -0.2801 -0.0335
  311MOL0     C42826  10.982   8.130   6.623 -0.6607  0.5099 -0.3454
  311MOL0     C42827  10.861   8.129   6.539 -0.5531 -0.1265 -0.3409
  311MOL0     O42828  10.673   8.349   6.391  0.6923 -0.5884 -0.4529
  311MOL0     C42829  10.476   8.084   6.271  0.8599 -0.0435  0.5686
  311MOL0     C42830  10.375   8.039   6.184  0.9582 -0.2084 -0.6227
  311MOL0     N42831   9.641   7.903   5.929  0.4691  0.4072  0.6699
  311MOL0     N42832   9.520   7.950   5.961 -0.0031 -0.1229 -0.0040
  311MOL0     C42833   8.583   7.912   5.755 -0.2621  0.0390 -0.4029
  311MOL0     C42834   8.517   7.788   5.768 -0.5344  0.6440 -0.7828
  311MOL0     C42835   8.153   7.499   5.776 -0.5403  0.0760  0.8953
  311MOL0     C42836   8.215   7.446   5.890 -1.1402 -0.0939 -0.3010
  311MOL0     C42837   8.150   7.350   5.963 -0.2057  0.0286  0.6224
  311MOL0     C42838   8.035   7.300   5.918 -0.6675 -0.7786 -1.5223
  311MOL0     O42839   7.973   7.195   5.991 -0.3778  0.2381 -0.2877
  311MOL0     C42840   7.903   7.092   5.923 -0.2576  0.1120 -0.1196
  311MOL0     C42841   7.883   6.962   6.008 -1.6329  0.1454  0.6918
  311MOL0     C42842   7.788   6.857   5.947  1.2733  0.3105 -0.0868
  311MOL0     C42843   7.638   6.890   5.969  0.5217 -0.1763 -0.7164
  311MOL0     C42844   7.541   6.781   5.991  0.7911  0.4480  0.4670
  311MOL0     C42845   7.463   6.694   6.021  1.2609  0.1510 -0.0537
  311MOL0     C42846   7.965   7.359   5.814 -0.8033  0.4274  0.3852
  311MOL0     C42847   8.026   7.453   5.738 -1.2942  1.1058 -0.1710
  311MOL0     C42848   7.936   7.512   5.634 -0.2273  0.0354 -0.0077
  311MOL0     H42849   8.297   7.811   5.512  1.5775 -2.6140 -0.9471
  311MOL0     H42850   8.400   8.035   5.507 -0.0614  2.9832  3.4301
  311MOL0     H42851   8.777   8.024   5.553  2.0036 -1.8485  2.6546
  311MOL0     H42852   8.792   8.071   5.717 -0.3126  1.0757  0.6108
  311MOL0     H42853   8.757   8.286   5.495 -3.3522 -1.8944  1.1911
  311MOL0     H42854   8.768   8.316   5.657 -1.8111 -1.6616  1.7083
  311MOL0     H42855   8.976   8.182   5.477 -0.0907  0.2468 -0.2518
  311MOL0     H42856   8.975   8.354   5.536  0.1556  0.9073  0.9117
  311MOL0     H42857   9.016   8.241   5.774  0.0314 -0.4733  0.7492
  311MOL0     H42858   9.056   8.097   5.688  2.8270 -0.9676 -1.1104
  311MOL0     H42859   9.182   8.350   5.622 -2.9672  0.0881  0.7646
  311MOL0     H42860   9.202   8.202   5.530  2.4986 -0.2960  0.3992
  311MOL0     H42861   9.283   8.077   5.719 -3.4160  0.3386  0.9565
  311MOL0     H42862   9.384   8.224   5.662  1.3753 -2.8723  0.8026
  311MOL0     H42863   9.219   8.275   5.901 -0.8986  1.4547 -2.6074
  311MOL0     H42864   9.367   8.346   5.851 -0.2979  1.4652  1.4826
  311MOL0     H42865   9.435   8.243   6.037 -0.6137  0.6273 -0.6359
  311MOL0     H42866   9.312   8.116   6.017 -0.0626  2.5785  3.2093
  311MOL0     H42867   9.644   8.213   5.808  2.2954 -1.7548 -1.9335
  311MOL0     H42868   9.868   8.101   5.769 -0.4837  2.4989  4.7539
  311MOL0     H42869   9.850   7.924   5.729 -3.5623 -0.4117 -0.3111
  311MOL0     H42870   9.927   8.032   6.005 -2.5599 -1.1370  0.3454
  311MOL0     H42871   9.929   7.857   5.951  1.6974 -0.4702 -0.9551
  311MOL0     H42872  10.105   7.869   5.832  1.5878  1.4519 -2.7379
  311MOL0     H42873  10.091   8.046   5.807  2.0536 -1.5966 -2.4167
  311MOL0     H42874  10.184   7.901   6.053 -0.7400 -0.7267 -0.7247
  311MOL0     H42875  10.277   7.978   5.937  0.1276  2.3592 -0.1410
  311MOL0     H42876  10.229   8.350   6.155  0.6382  0.3644 -0.6827
  311MOL0     H42877  10.463   8.459   6.392  0.9582 -4.2603 -1.6325
  311MOL0     H42878  10.293   8.495   6.341  0.0472 -0.4350  2.0118
  311MOL0     H42879  10.435   8.521   6.230 -1.5825  1.7802  0.9497
  311MOL0     H42880  10.635   8.196   6.780 -0.2223  2.9450 -2.1725
  311MOL0     H42881  10.839   8.132   6.924 -1.2407 -3.2728  0.2587
  311MOL0     H42882  11.156   7.914   6.799 -0.5216  0.1862 -2.6053
  311MOL0     H42883  11.224   8.063   6.734  0.5167 -1.1685 -0.4219
  311MOL0     H42884  11.376   7.952   6.915 -0.3339  0.8802 -1.4962
  311MOL0     H42885  11.320   8.116   6.953 -2.1050  0.0263  0.3286
  311MOL0     H42886  11.180   7.871   7.050 -2.0160  0.6923  0.2152
  311MOL0     H42887  11.162   8.033   7.104  1.1869  0.5953  2.2343
  311MOL0     H42888  11.402   8.026   7.190  1.8451 -1.1379 -1.0236
  311MOL0     H42889  11.413   7.853   7.148 -0.5557 -1.3567  0.8382
  311MOL0     H42890  11.372   7.878   7.376 -0.5141  1.9799  1.6122
  311MOL0     H42891  11.220   7.958   7.348 -1.5921  0.8344 -2.1179
  311MOL0     H42892  11.265   7.677   7.218 -0.7764 -0.5116 -0.8191
  311MOL0     H42893  11.113   7.769   7.255 -0.1190  0.1860  1.9147
  311MOL0     H42894  11.207   7.753   7.508 -1.4201  0.2024  0.5051
  311MOL0     H42895  11.281   7.612   7.436 -0.7661  0.1019  1.8812
  311MOL0     H42896  10.990   7.677   7.470  0.7844  0.6344  0.2719
  311MOL0     H42897  11.069   7.536   7.535 -4.2938  2.3565  2.3700
  311MOL0     H42898  11.082   8.110   6.586 -0.5757  3.0978 -1.7161
  311MOL0     H42899  10.868   8.102   6.434  1.8182 -0.6323 -0.1116
  311MOL0     H42900  10.548   8.005   6.293  1.7160  0.2428 -1.0896
  311MOL0     H42901  10.348   7.934   6.175 -2.4437  0.2926  1.7119
  311MOL0     H42902   8.658   7.943   5.827 -0.2145 -0.1415 -0.3755
  311MOL0     H42903   8.547   7.715   5.843  4.3975  2.0028 -1.1186
  311MOL0     H42904   8.302   7.496   5.931 -0.0005  0.2468 -2.9947
  311MOL0     H42905   8.192   7.310   6.055 -0.6889  0.3869  1.0038
  311MOL0     H42906   7.801   7.130   5.915 -0.6490 -1.1009 -1.0817
  311MOL0     H42907   7.958   7.081   5.829 -0.1102  0.5970 -0.0960
  311MOL0     H42908   7.857   6.979   6.113  2.5332  0.8711  1.7872
  311MOL0     H42909   7.985   6.921   6.011 -0.4537  2.8622  0.6681
  311MOL0     H42910   7.812   6.846   5.840 -1.3375 -0.3256 -0.6861
  311MOL0     H42911   7.807   6.763   6.000  4.4585  0.9354  0.1152
  311MOL0     H42912   7.602   6.946   5.882  0.7549  0.6217 -0.3166
  311MOL0     H42913   7.632   6.958   6.055 -0.5135 -1.7645  0.5295
  311MOL0     H42914   7.381   6.631   6.049 -0.4994  2.2765 -0.1560
  311MOL0     H42915   7.866   7.319   5.796 -0.2215 -0.0002 -2.4248
  311MOL0     H42916   8.000   7.515   5.545  1.7873  0.6221  1.3950
  311MOL0     H42917   7.860   7.438   5.606  1.2291 -2.5027  2.2269
  311MOL0     H42918   7.900   7.612   5.656 -0.6397 -0.0550 -0.2574
  312MOL0     O42919   3.171   8.315   7.658 -0.1611  0.1903  0.0910
  312MOL0     C42920   3.259   8.295   7.573 -0.2447 -0.3611 -0.2766
  312MOL0     O42921   3.375   8.351   7.580  0.6577 -0.0523 -0.0428
  312MOL0     C42922   3.403   8.429   7.689  1.0264 -0.4837  0.6618
  312MOL0     C42923   3.342   8.555   7.715 -0.3719  0.2409 -0.1806
  312MOL0     C42924   3.385   8.627   7.819  1.3922  0.7349 -1.0840
  312MOL0     C42925   3.490   8.595   7.898 -0.4534 -0.3731 -0.3102
  312MOL0     O42926   3.520   8.681   8.001  0.2116  0.4435  0.5637
  312MOL0     C42927   3.659   8.696   8.033  1.1787  1.0800  0.2821
  312MOL0     C42928   3.700   8.838   8.030  1.1750  0.3954 -0.0986
  312MOL0     C42929   3.659   8.913   8.156 -0.0360 -0.1145  0.0651
  312MOL0     C42930   3.692   9.059   8.136 -0.5118  0.0394 -0.4874
  312MOL0     C42931   3.657   9.138   8.266 -0.2983  0.0779  0.1180
  312MOL0     C42932   3.676   9.293   8.263 -0.2065  0.4334  0.9741
  312MOL0     C42933   3.619   9.350   8.391  0.1003 -0.2095 -0.2585
  312MOL0     C42934   3.469   9.371   8.398  0.3632  0.5133  0.3531
  312MOL0     N42935   3.411   9.428   8.280  0.2924  0.4083 -0.2864
  312MOL0     C42936   3.421   9.558   8.244  0.6725  0.3112  0.8321
  312MOL0     C42937   3.362   9.564   8.126 -0.4071  0.4266 -0.2639
  312MOL0     C42938   3.343   9.692   8.045  0.0692 -0.0163  0.2108
  312MOL0     C42939   3.457   9.717   7.946  0.0920  0.5790  0.9078
  312MOL0     C42940   3.453   9.875   7.916 -0.0047 -0.0386 -0.5882
  312MOL0     C42941   3.586   9.900   7.851  0.2481 -0.2879  0.0112
  312MOL0     O42942   3.697   9.867   7.927 -0.4077 -0.6380  0.0620
  312MOL0     C42943   3.825   9.869   7.880  0.0225 -0.6348 -0.1630
  312MOL0     C42944   3.920   9.952   7.943 -0.0157  0.3439 -0.1508
  312MOL0     C42945   4.056   9.956   7.904  0.5767  0.2404 -0.2833
  312MOL0     C42946   4.124  10.047   8.006  0.2369 -0.2801 -0.4921
  312MOL0     C42947   4.102   9.879   7.799 -0.4312 -0.2861 -0.4146
  312MOL0     C42948   4.245   9.880   7.752 -0.5231  0.2847  1.0295
  312MOL0     O42949   4.333   9.974   7.800  0.4495 -0.1192  0.3966
  312MOL0     C42950   4.457   9.948   7.753 -0.4152 -0.4088  0.4785
  312MOL0     C42951   4.515  10.033   7.660  0.1612 -0.6759  1.1454
  312MOL0     C42952   4.657  10.044   7.642  0.1237  0.0376  0.3205
  312MOL0     C42953   4.740   9.947   7.708 -0.1913 -1.1198  0.0864
  312MOL0     O42954   4.879   9.942   7.677 -0.1161 -0.0816 -0.0639
  312MOL0     C42955   4.937  10.037   7.595 -0.3196 -0.3149  0.4094
  312MOL0     C42956   5.085   9.997   7.565  0.3776 -0.0243 -0.9650
  312MOL0     C42957   5.094   9.886   7.457  1.2700  0.1812  0.1124
  312MOL0     C42958   5.235   9.838   7.427  1.1240 -0.2955 -0.0755
  312MOL0     C42959   5.240   9.770   7.285  0.2748  0.1694  0.3896
  312MOL0     C42960   5.370   9.707   7.254  0.0129  0.8867 -0.2456
  312MOL0     C42961   5.380   9.635   7.117  0.2138 -0.6517 -0.4764
  312MOL0     C42962   5.450   9.718   7.009 -0.1757  0.4867  0.4412
  312MOL0    Cl42963   5.343   9.833   6.921  0.2224  0.2864  0.1163
  312MOL0     C42964   4.688   9.857   7.800  0.4343 -1.2550 -0.2716
  312MOL0     C42965   4.552   9.866   7.822  0.2267  0.1181 -0.3428
  312MOL0     O42966   4.277   9.802   7.665 -0.2942  0.4824 -0.3129
  312MOL0     C42967   4.008   9.798   7.729  0.9221  0.3965 -0.0044
  312MOL0     C42968   3.872   9.788   7.771  0.6248  0.4163  0.2584
  312MOL0     N42969   3.335   9.437   8.082  0.4885 -0.3369 -0.4580
  312MOL0     N42970   3.357   9.355   8.179 -0.6653  0.1254 -0.7476
  312MOL0     C42971   3.550   8.473   7.873 -0.4328  0.7983  0.5277
  312MOL0     C42972   3.503   8.384   7.768 -1.3707 -0.3616  0.0536
  312MOL0     C42973   3.220   8.214   7.457  0.3978  0.6257  0.3174
  312MOL0     C42974   3.322   8.195   7.357  0.2469 -0.6808  1.2198
  312MOL0     C42975   3.302   8.117   7.245  0.3742  0.6530 -0.2478
  312MOL0     C42976   3.170   8.064   7.217 -0.9987 -0.7716 -0.4860
  312MOL0     O42977   3.164   7.967   7.124  0.1861  0.3139  0.0989
  312MOL0     C42978   3.035   7.903   7.095 -0.5579  1.4663 -0.0434
  312MOL0     C42979   3.052   7.829   6.960  0.4826 -1.4599  0.5304
  312MOL0     C42980   3.154   7.711   6.979 -0.5083  0.6453  1.3749
  312MOL0     C42981   3.281   7.736   6.903  0.4143  0.7971  0.0929
  312MOL0     C42982   3.391   7.649   6.943 -0.0272  0.1641  0.2698
  312MOL0     C42983   3.491   7.575   6.961  0.5909 -0.4672 -0.2711
  312MOL0     C42984   3.067   8.083   7.315  1.0193  1.1132  0.0573
  312MOL0     C42985   3.092   8.149   7.438 -0.0086 -0.6368  0.1181
  312MOL0     C42986   2.986   8.142   7.543  1.3843 -0.2043 -0.2185
  312MOL0     H42987   3.260   8.578   7.648 -1.0064  0.2349  0.5826
  312MOL0     H42988   3.339   8.724   7.835  0.7229  0.7893 -3.0666
  312MOL0     H42989   3.720   8.650   7.954  0.1002 -1.5003  0.8459
  312MOL0     H42990   3.687   8.645   8.126 -0.4513 -3.5493 -1.4259
  312MOL0     H42991   3.808   8.825   8.039  0.9751  0.0824  3.1724
  312MOL0     H42992   3.655   8.880   7.940 -2.3174  0.0435  1.3056
  312MOL0     H42993   3.553   8.891   8.172 -0.1749  1.8180  2.3645
  312MOL0     H42994   3.707   8.873   8.246  0.8056 -1.1638 -0.8193
  312MOL0     H42995   3.799   9.064   8.117  0.0222 -0.2023  2.0902
  312MOL0     H42996   3.631   9.086   8.049  0.4936  0.2755 -1.1338
  312MOL0     H42997   3.707   9.086   8.348 -3.4379 -0.8109  1.6039
  312MOL0     H42998   3.549   9.126   8.275 -0.3671 -0.3445 -0.9898
  312MOL0     H42999   3.782   9.311   8.246 -0.3143  0.3289  0.1805
  312MOL0     H43000   3.617   9.330   8.178  1.2265  1.2764  0.3272
  312MOL0     H43001   3.674   9.439   8.424  1.2705 -0.4768 -1.4017
  312MOL0     H43002   3.637   9.275   8.468 -4.7077  0.4510  1.8597
  312MOL0     H43003   3.418   9.274   8.404  2.2859 -0.4728  3.0677
  312MOL0     H43004   3.444   9.427   8.489 -1.2007  2.3092 -1.1136
  312MOL0     H43005   3.457   9.644   8.300 -1.2700 -0.8227  4.1072
  312MOL0     H43006   3.342   9.771   8.121  3.6807  0.3560  0.0300
  312MOL0     H43007   3.243   9.700   8.001  0.4826  2.9579 -0.4286
  312MOL0     H43008   3.557   9.689   7.980 -0.5064 -1.6930  0.9590
  312MOL0     H43009   3.438   9.659   7.855 -2.4542 -2.2871  3.0401
  312MOL0     H43010   3.374   9.893   7.842  1.6008  1.5547 -1.9918
  312MOL0     H43011   3.449   9.937   8.006  1.2283 -0.7259 -0.0359
  312MOL0     H43012   3.588   9.831   7.766 -2.7195  0.5334 -0.8520
  312MOL0     H43013   3.595  10.007   7.826 -0.9410  0.0564  0.9378
  312MOL0     H43014   3.874  10.007   8.025 -0.4181 -2.0553  1.3225
  312MOL0     H43015   4.192  10.110   7.949 -0.0563  1.9941  1.5139
  312MOL0     H43016   4.184   9.994   8.081  1.3029  1.6886  0.1366
  312MOL0     H43017   4.056  10.111   8.062  1.6455 -0.6965  1.8266
  312MOL0     H43018   4.454  10.112   7.618 -1.2914 -2.1872  0.2906
  312MOL0     H43019   4.703  10.129   7.593 -1.0978  1.7773  2.0346
  312MOL0     H43020   4.887  10.051   7.499  1.6273  1.2198 -0.4492
  312MOL0     H43021   4.938  10.138   7.638  1.5612 -0.1532  0.0848
  312MOL0     H43022   5.123  10.092   7.525 -0.1320  0.7545  0.3420
  312MOL0     H43023   5.130   9.966   7.659 -0.4224  1.8907  0.1057
  312MOL0     H43024   5.043   9.925   7.369  4.1060  2.5884 -0.6464
  312MOL0     H43025   5.036   9.803   7.499  0.9810  1.7853  3.2385
  312MOL0     H43026   5.271   9.766   7.500 -0.4944  0.6339  1.7332
  312MOL0     H43027   5.282   9.937   7.434  0.0413  0.0995  4.0443
  312MOL0     H43028   5.156   9.699   7.282 -0.2561  0.7152  1.4891
  312MOL0     H43029   5.218   9.850   7.214  3.3098 -0.9679 -2.0069
  312MOL0     H43030   5.384   9.627   7.327  0.4642 -0.5786 -1.8810
  312MOL0     H43031   5.451   9.780   7.269 -3.1609  5.6003 -3.1333
  312MOL0     H43032   5.283   9.600   7.080 -1.5673  1.7233  1.5578
  312MOL0     H43033   5.433   9.543   7.139  0.6731 -0.8657 -2.3194
  312MOL0     H43034   5.494   9.652   6.934 -1.7768  0.7618 -0.7835
  312MOL0     H43035   5.530   9.779   7.051  0.1565  0.3032  0.0815
  312MOL0     H43036   4.750   9.781   7.847  3.1332  1.4850  0.9995
  312MOL0     H43037   4.510   9.801   7.899 -0.4309  0.9390  0.0094
  312MOL0     H43038   4.029   9.743   7.639 -0.5756  0.6866 -0.5683
  312MOL0     H43039   3.804   9.715   7.727  1.1056 -0.1025  0.3510
  312MOL0     H43040   3.635   8.435   7.930  0.5894  0.3823 -1.1901
  312MOL0     H43041   3.566   8.303   7.731 -0.1258 -0.1926  1.7071
  312MOL0     H43042   3.415   8.250   7.359 -0.8310  1.3277 -0.5561
  312MOL0     H43043   3.368   8.108   7.160 -0.8171 -0.2671 -1.1132
  312MOL0     H43044   3.000   7.832   7.170  2.3727  0.2443  0.2853
  312MOL0     H43045   2.957   7.976   7.071  0.4229  3.4175  2.2465
  312MOL0     H43046   3.087   7.907   6.891  0.2779 -1.2793  0.6285
  312MOL0     H43047   2.953   7.789   6.934 -0.4395  1.3657 -0.7694
  312MOL0     H43048   3.150   7.704   7.088 -1.2046  1.2076  1.3926
  312MOL0     H43049   3.107   7.618   6.946  1.5767 -0.3318  0.9516
  312MOL0     H43050   3.323   7.837   6.912  2.3917  0.0117 -0.0074
  312MOL0     H43051   3.250   7.717   6.800 -0.0435 -2.0537  0.6790
  312MOL0     H43052   3.581   7.523   6.987  0.4526 -1.6042 -1.9092
  312MOL0     H43053   2.974   8.027   7.312 -0.9385  4.1886 -2.0556
  312MOL0     H43054   2.896   8.100   7.497  1.3819 -0.3426 -0.0933
  312MOL0     H43055   3.018   8.094   7.637  0.9059 -0.1544 -0.0274
  312MOL0     H43056   2.943   8.239   7.571  0.1815 -0.2559 -1.7456
  313MOL0     O43057   2.249   0.319   4.405 -1.0781 -0.2752  0.2481
  313MOL0     C43058   2.148   0.380   4.379  0.0955 -0.0015  0.3355
  313MOL0     O43059   2.118   0.444   4.263  0.3357 -0.6659  0.1098
  313MOL0     C43060   2.194   0.414   4.156 -0.2820  0.3785 -0.0408
  313MOL0     C43061   2.288   0.520   4.134  1.0376 -0.7877 -0.1497
  313MOL0     C43062   2.355   0.527   4.017 -0.0618  0.1807 -0.3420
  313MOL0     C43063   2.318   0.452   3.908  0.2854 -0.0213  0.2328
  313MOL0     O43064   2.357   0.464   3.782 -0.5120 -0.1054  0.0599
  313MOL0     C43065   2.447   0.565   3.742 -1.0209 -0.3941  1.0783
  313MOL0     C43066   2.535   0.530   3.617  0.4048 -0.6084 -0.2443
  313MOL0     C43067   2.445   0.468   3.501 -0.0184 -0.7639  0.5904
  313MOL0     C43068   2.502   0.508   3.369 -0.0167  0.1997 -0.7949
  313MOL0     C43069   2.414   0.437   3.266  0.1536 -0.2344 -0.6135
  313MOL0     C43070   2.419   0.279   3.275 -0.6404 -0.0405 -0.2959
  313MOL0     C43071   2.359   0.227   3.147  0.0919 -0.9180  0.0985
  313MOL0     C43072   2.316   0.086   3.157  0.8780 -0.0049 -0.0075
  313MOL0     N43073   2.293   0.021   3.028 -0.2386  0.3419  0.7120
  313MOL0     C43074   2.385  -0.059   2.964  0.1212  0.6607 -0.1374
  313MOL0     C43075   2.296  -0.138   2.891 -0.9133  0.0008  0.2996
  313MOL0     C43076   2.322  -0.266   2.821 -0.3488  0.4098 -0.0664
  313MOL0     C43077   2.347  -0.384   2.908  0.6229 -0.3371 -0.6021
  313MOL0     C43078   2.234  -0.483   2.924 -0.5063  0.2965  0.1523
  313MOL0     C43079   2.116  -0.420   2.986 -0.2680 -0.4123  0.6525
  313MOL0     O43080   2.029  -0.526   3.036  0.2289  0.5841  0.7609
  313MOL0     C43081   1.889  -0.488   3.038 -0.0546 -0.8438  0.8175
  313MOL0     C43082   1.801  -0.513   2.935  0.8910 -0.8879 -0.0651
  313MOL0     C43083   1.667  -0.476   2.943 -1.4793  0.1388 -0.0328
  313MOL0     C43084   1.583  -0.517   2.824  0.4486  0.1521  0.1638
  313MOL0     C43085   1.619  -0.410   3.062  0.4285  0.1488  0.7262
  313MOL0     C43086   1.477  -0.393   3.101 -0.2426  0.2272 -0.1733
  313MOL0     O43087   1.379  -0.472   3.050  0.0862 -0.2506 -0.4837
  313MOL0     C43088   1.253  -0.426   3.013  0.0846 -0.6445  0.0458
  313MOL0     C43089   1.200  -0.296   3.039 -0.0970 -0.2797  0.3437
  313MOL0     C43090   1.072  -0.256   2.991  0.0629 -0.2402 -0.3029
  313MOL0     C43091   1.009  -0.345   2.907  0.0816 -0.3801  0.5826
  313MOL0     O43092   0.889  -0.296   2.867  0.4487  0.2607  0.8229
  313MOL0     C43093   0.853  -0.309   2.725  0.0786 -0.6454 -0.3352
  313MOL0     C43094   0.710  -0.259   2.714  0.2708 -0.6146  0.7120
  313MOL0     C43095   0.695  -0.107   2.687 -0.2460  0.0679 -0.5255
  313MOL0     C43096   0.555  -0.042   2.684  0.3440  0.5927  0.3825
  313MOL0     C43097   0.553   0.107   2.700 -0.3422  0.6152 -0.8412
  313MOL0     C43098   0.635   0.160   2.577  0.0639 -0.1357  0.6289
  313MOL0     C43099   0.593   0.310   2.564 -0.1810 -0.8502 -0.7123
  313MOL0     C43100   0.688   0.378   2.469  0.0368  0.6165 -0.7143
  313MOL0    Cl43101   0.650   0.536   2.436  0.4237 -0.0012  0.5559
  313MOL0     C43102   1.060  -0.461   2.874  0.1533  0.2155 -0.6906
  313MOL0     C43103   1.186  -0.505   2.922  0.5088 -0.6662  0.7640
  313MOL0     O43104   1.471  -0.297   3.173  0.3526 -0.1561 -0.2653
  313MOL0     C43105   1.713  -0.389   3.168  0.9678  0.1237  0.4357
  313MOL0     C43106   1.844  -0.426   3.150  0.2528 -0.1827 -0.9648
  313MOL0     N43107   2.167  -0.093   2.890  0.4660 -0.5212 -0.0065
  313MOL0     N43108   2.168   0.001   2.973  0.5678  0.2234 -0.0202
  313MOL0     C43109   2.225   0.352   3.923  0.3063  0.0882 -1.1473
  313MOL0     C43110   2.163   0.330   4.046  0.0302 -0.3820  0.7454
  313MOL0     C43111   2.071   0.418   4.493 -0.4054 -0.7019 -0.0046
  313MOL0     C43112   1.966   0.507   4.483  0.2139  0.3748 -0.5467
  313MOL0     C43113   1.898   0.558   4.594 -0.3217  0.2522  0.0708
  313MOL0     C43114   1.936   0.525   4.722 -0.9439  0.3876  0.4891
  313MOL0     O43115   1.883   0.579   4.840 -0.1776  0.1720 -0.0989
  313MOL0     C43116   1.794   0.685   4.829 -0.2852  0.2718  1.0055
  313MOL0     C43117   1.826   0.790   4.939 -0.8969 -0.3094  0.5201
  313MOL0     C43118   1.968   0.849   4.938  0.7462 -0.4419 -0.4869
  313MOL0     C43119   2.007   0.946   4.833 -0.4674  0.3919 -0.4551
  313MOL0     C43120   2.009   0.909   4.690  0.3566  0.6283  0.1271
  313MOL0     C43121   2.024   0.866   4.579  0.1110  0.3454  0.6621
  313MOL0     C43122   2.037   0.422   4.735  0.3178  0.8454  0.7828
  313MOL0     C43123   2.103   0.367   4.627  0.2563 -0.4952  0.1308
  313MOL0     C43124   2.199   0.258   4.664 -1.3009 -0.3333 -0.1504
  313MOL0     H43125   2.306   0.599   4.206  0.9167 -1.0075  0.1244
  313MOL0     H43126   2.424   0.611   4.017  2.1632 -1.5393  1.1297
  313MOL0     H43127   2.516   0.589   3.824  1.8402 -1.5643 -0.8211
  313MOL0     H43128   2.392   0.655   3.714 -0.6894 -1.5581 -4.5601
  313MOL0     H43129   2.567   0.629   3.582 -1.5152 -0.2678 -1.2216
  313MOL0     H43130   2.622   0.468   3.639  1.2884  0.2790 -1.1858
  313MOL0     H43131   2.425   0.362   3.520 -0.4433 -0.4670  1.8806
  313MOL0     H43132   2.350   0.521   3.513  0.4951  0.3439 -0.1035
  313MOL0     H43133   2.512   0.616   3.356 -0.9817  0.9131  3.1281
  313MOL0     H43134   2.606   0.474   3.368  0.1268  0.0896  3.1362
  313MOL0     H43135   2.457   0.464   3.169  0.9407 -3.5177 -1.2878
  313MOL0     H43136   2.317   0.488   3.262  0.7815  1.2018  0.9991
  313MOL0     H43137   2.523   0.250   3.292 -0.8990 -2.5118 -2.3458
  313MOL0     H43138   2.357   0.238   3.355  0.8510 -2.9897 -0.5198
  313MOL0     H43139   2.430   0.247   3.066  1.3909  2.5985  1.8747
  313MOL0     H43140   2.265   0.280   3.126  0.1967 -1.5516 -2.2998
  313MOL0     H43141   2.383   0.023   3.217  3.3878  0.5809 -2.0497
  313MOL0     H43142   2.224   0.094   3.216  0.6394 -0.3393 -0.3320
  313MOL0     H43143   2.481  -0.086   3.008 -1.7153 -1.7948  2.8285
  313MOL0     H43144   2.406  -0.255   2.752  0.7319  0.6159  1.2495
  313MOL0     H43145   2.239  -0.281   2.751  1.4004  2.8889 -2.8560
  313MOL0     H43146   2.424  -0.444   2.859 -0.6306 -4.3237  1.7962
  313MOL0     H43147   2.386  -0.354   3.006  0.8315  1.0594 -1.0829
  313MOL0     H43148   2.204  -0.526   2.828  0.4928  0.2273 -0.1486
  313MOL0     H43149   2.280  -0.560   2.987 -0.2251 -1.1185 -1.6919
  313MOL0     H43150   2.148  -0.355   3.068  0.8267 -0.8500  0.5881
  313MOL0     H43151   2.063  -0.352   2.917 -1.1918 -0.9670  0.7890
  313MOL0     H43152   1.854  -0.545   2.845 -1.1536 -1.1364 -1.2425
  313MOL0     H43153   1.627  -0.475   2.732 -1.3392  2.3972  0.2339
  313MOL0     H43154   1.480  -0.481   2.828  1.5947  5.2509 -4.3248
  313MOL0     H43155   1.581  -0.626   2.820 -0.6207  0.0070  2.6822
  313MOL0     H43156   1.253  -0.218   3.092 -0.7051  2.1317 -2.3551
  313MOL0     H43157   1.040  -0.160   3.029  2.6763  1.0252 -1.0867
  313MOL0     H43158   0.900  -0.232   2.665 -2.8785  1.1464 -0.5559
  313MOL0     H43159   0.858  -0.409   2.680 -2.9669  0.2977 -3.2110
  313MOL0     H43160   0.646  -0.309   2.640 -0.7725 -0.3198  1.3957
  313MOL0     H43161   0.662  -0.280   2.810 -0.3312 -2.6100  0.0403
  313MOL0     H43162   0.743  -0.100   2.588  0.0976 -0.0935 -0.3746
  313MOL0     H43163   0.759  -0.050   2.755 -0.6401  1.1348 -1.0315
  313MOL0     H43164   0.500  -0.093   2.763 -2.9414 -2.3386 -3.3983
  313MOL0     H43165   0.508  -0.074   2.591  1.8178 -1.3234  0.2436
  313MOL0     H43166   0.449   0.139   2.695 -2.0185 -3.9431  0.0625
  313MOL0     H43167   0.601   0.147   2.789 -1.5055 -1.9274  1.0428
  313MOL0     H43168   0.592   0.119   2.485 -4.7837 -2.2965  3.4457
  313MOL0     H43169   0.743   0.146   2.579  1.0179  4.6764 -2.2622
  313MOL0     H43170   0.598   0.358   2.662  1.9946 -1.1002 -0.6523
  313MOL0     H43171   0.493   0.312   2.519 -0.5233 -2.7192 -0.0988
  313MOL0     H43172   0.675   0.321   2.377 -0.6851  1.2220 -0.9963
  313MOL0     H43173   0.794   0.380   2.495 -0.2680  0.2369  0.6411
  313MOL0     H43174   1.002  -0.528   2.811  1.2246  1.4189 -3.0715
  313MOL0     H43175   1.237  -0.587   2.873 -0.0838  2.0389 -5.3824
  313MOL0     H43176   1.663  -0.351   3.256 -1.0131 -3.0262  0.8043
  313MOL0     H43177   1.915  -0.406   3.230  0.3124  1.6499 -1.4172
  313MOL0     H43178   2.199   0.288   3.840  0.1417 -3.2210  1.2813
  313MOL0     H43179   2.079   0.262   4.050 -0.5536  0.2334 -0.4363
  313MOL0     H43180   1.940   0.542   4.384 -0.8820  2.0287  0.2706
  313MOL0     H43181   1.819   0.632   4.577  0.4640  0.8028 -1.3200
  313MOL0     H43182   1.807   0.729   4.729  0.8749 -3.5084 -0.6984
  313MOL0     H43183   1.690   0.651   4.830 -0.2378 -0.0863 -1.2612
  313MOL0     H43184   1.820   0.739   5.036 -2.5203  0.7348  1.0288
  313MOL0     H43185   1.754   0.873   4.939 -1.4270 -0.6724 -2.3579
  313MOL0     H43186   1.971   0.903   5.033  0.0935  1.6881 -1.6306
  313MOL0     H43187   2.048   0.774   4.944  0.2312 -1.1718 -2.1619
  313MOL0     H43188   2.107   0.982   4.859 -0.7044  0.5830  0.2060
  313MOL0     H43189   1.929   1.021   4.848  0.1956  0.4718  3.8858
  313MOL0     H43190   1.999   0.829   4.482 -2.9607  2.2510  0.5776
  313MOL0     H43191   2.043   0.375   4.833 -0.4552 -0.9939 -0.0042
  313MOL0     H43192   2.214   0.185   4.584 -4.1035 -0.4680 -0.6517
  313MOL0     H43193   2.298   0.298   4.689 -0.8962 -0.5096 -1.4285
  313MOL0     H43194   2.168   0.203   4.753  2.1092 -3.3806 -0.6264
  314MOL0     O43195   7.036  11.064   6.930 -0.1551  0.4408 -0.8719
  314MOL0     C43196   6.923  11.053   6.882  0.1004 -0.8998 -0.5393
  314MOL0     O43197   6.844  11.164   6.859  0.2697 -0.2029 -0.0430
  314MOL0     C43198   6.879  11.299   6.879 -0.0383 -0.5993 -0.3186
  314MOL0     C43199   6.863  11.391   6.774 -0.4056 -0.0704  0.2353
  314MOL0     C43200   6.876  11.521   6.805  0.9294 -1.0702  0.9856
  314MOL0     C43201   6.912  11.577   6.931 -0.4864  0.0425 -0.0264
  314MOL0     O43202   6.932  11.704   6.968  0.5378 -0.2701 -0.1785
  314MOL0     C43203   6.868  11.817   6.896  1.2528 -0.2231 -0.8446
  314MOL0     C43204   6.745  11.857   6.979 -0.6362 -0.2602  0.6023
  314MOL0     C43205   6.642  11.749   6.985  0.0102  0.1972  0.6013
  314MOL0     C43206   6.507  11.788   7.043 -0.5321  0.2295 -0.3427
  314MOL0     C43207   6.406  11.671   7.049 -0.5895 -0.7262  1.1958
  314MOL0     C43208   6.345  11.632   7.184 -0.7841 -0.4593  0.3633
  314MOL0     C43209   6.466  11.600   7.285  0.5651  0.5338  0.1350
  314MOL0     C43210   6.409  11.509   7.400 -0.6923  0.5542 -0.3056
  314MOL0     N43211   6.366  11.581   7.520  0.2357 -0.5940  0.5915
  314MOL0     C43212   6.253  11.670   7.525 -0.8025 -0.0049 -0.5951
  314MOL0     C43213   6.251  11.702   7.659  0.8848 -0.6818  0.2591
  314MOL0     C43214   6.150  11.788   7.736  0.3824 -0.0610 -0.9682
  314MOL0     C43215   6.132  11.781   7.891  0.2324  0.1895 -0.8643
  314MOL0     C43216   6.060  11.643   7.933  0.6704 -0.3634  1.0832
  314MOL0     C43217   6.121  11.572   8.044 -0.6479  0.0670  0.8125
  314MOL0     O43218   6.052  11.589   8.169  0.1103  0.8764  0.4980
  314MOL0     C43219   5.960  11.502   8.210  0.2018  0.3858  0.1563
  314MOL0     C43220   5.867  11.434   8.129  0.2184  0.0815 -0.4038
  314MOL0     C43221   5.779  11.334   8.188 -0.0490 -0.3127 -0.4855
  314MOL0     C43222   5.673  11.280   8.100  0.6297  0.8662  0.5475
  314MOL0     C43223   5.776  11.308   8.329 -0.1633  0.9759 -0.5918
  314MOL0     C43224   5.713  11.209   8.423 -0.2900 -0.1456  0.3781
  314MOL0     O43225   5.694  11.249   8.548 -0.1353 -0.0691  0.0634
  314MOL0     C43226   5.672  11.141   8.628  0.2747  0.0447 -0.1517
  314MOL0     C43227   5.787  11.086   8.684  0.3697  0.4276  0.8643
  314MOL0     C43228   5.778  10.979   8.780 -0.1479  0.5135  0.9660
  314MOL0     C43229   5.647  10.921   8.804 -1.1044  1.6230 -0.6120
  314MOL0     O43230   5.632  10.823   8.901  0.0019  0.7536  0.3185
  314MOL0     C43231   5.734  10.723   8.919  1.2870 -0.3096  0.7549
  314MOL0     C43232   5.774  10.646   8.794  0.4816 -0.4081 -0.0800
  314MOL0     C43233   5.657  10.573   8.731  0.1881  0.3618  0.3496
  314MOL0     C43234   5.626  10.440   8.793 -0.0688 -0.5899  0.3846
  314MOL0     C43235   5.497  10.376   8.733  0.5759  0.2939 -0.4821
  314MOL0     C43236   5.451  10.253   8.815  0.0446 -0.4438  0.6149
  314MOL0     C43237   5.314  10.204   8.781 -0.2029 -0.3391 -0.0955
  314MOL0     C43238   5.301  10.065   8.840 -0.5667  0.5345 -0.1872
  314MOL0    Cl43239   5.134   9.998   8.822  0.0681  0.1329 -0.5848
  314MOL0     C43240   5.535  10.980   8.756  0.2913 -0.7714  0.5492
  314MOL0     C43241   5.546  11.088   8.666 -1.4723  0.6278  0.0708
  314MOL0     O43242   5.708  11.094   8.383 -0.2925  1.0094 -0.4239
  314MOL0     C43243   5.868  11.391   8.396 -0.9463 -0.3914 -0.3328
  314MOL0     C43244   5.955  11.487   8.342  0.7610 -0.5794 -0.3696
  314MOL0     N43245   6.364  11.642   7.715 -0.4739 -0.4291  0.3315
  314MOL0     N43246   6.422  11.566   7.644 -0.6164 -0.2874 -0.1884
  314MOL0     C43247   6.940  11.478   7.032  0.4539 -0.7484  0.0026
  314MOL0     C43248   6.914  11.339   7.010 -0.0274  0.4925  0.1669
  314MOL0     C43249   6.887  10.930   6.817 -0.1631 -1.2090  0.3748
  314MOL0     C43250   6.989  10.839   6.792 -0.5675  0.0154  0.8427
  314MOL0     C43251   6.965  10.715   6.721 -0.2458 -0.1459 -0.0750
  314MOL0     C43252   6.837  10.687   6.670  0.6850 -0.7449  0.4326
  314MOL0     O43253   6.810  10.583   6.583  0.1772  0.5573 -0.8173
  314MOL0     C43254   6.917  10.496   6.531 -0.3084 -0.0592  0.0982
  314MOL0     C43255   6.846  10.406   6.442 -0.1785  0.2075  0.2900
  314MOL0     C43256   6.929  10.298   6.359 -0.3155  0.7460  0.1747
  314MOL0     C43257   6.986  10.192   6.442 -0.5957  0.3258  0.8338
  314MOL0     C43258   7.010  10.068   6.375  0.9611  1.4788  0.0988
  314MOL0     C43259   7.033   9.954   6.338 -0.2388  0.4487  0.5336
  314MOL0     C43260   6.730  10.774   6.708  0.0646  0.5314  0.1072
  314MOL0     C43261   6.755  10.895   6.772 -0.4195 -0.0473 -0.4796
  314MOL0     C43262   6.634  10.979   6.815 -0.0795 -0.1858  0.3236
  314MOL0     H43263   6.836  11.351   6.677  2.6567  2.2451 -1.7620
  314MOL0     H43264   6.856  11.589   6.723  1.8803  0.9149  2.3307
  314MOL0     H43265   6.848  11.803   6.789  2.7377 -0.2211 -1.1452
  314MOL0     H43266   6.939  11.899   6.883  0.1155  1.5277  2.7743
  314MOL0     H43267   6.782  11.891   7.076  1.4495 -3.4355  1.0692
  314MOL0     H43268   6.685  11.934   6.928  1.4887  0.2930 -1.2231
  314MOL0     H43269   6.630  11.710   6.884  1.5685  4.3530 -1.4001
  314MOL0     H43270   6.679  11.664   7.044  3.9137  1.6746  0.5934
  314MOL0     H43271   6.521  11.833   7.141  4.1260 -0.5472 -0.4261
  314MOL0     H43272   6.451  11.855   6.976 -1.5649 -0.9146 -0.6623
  314MOL0     H43273   6.449  11.580   7.008  1.0929  1.7403 -3.1245
  314MOL0     H43274   6.325  11.691   6.978 -0.2521  1.2049  1.2991
  314MOL0     H43275   6.284  11.717   7.216 -1.1373 -0.9064  0.9209
  314MOL0     H43276   6.283  11.541   7.181  2.2916 -2.6809 -1.2838
  314MOL0     H43277   6.498  11.694   7.331 -1.8434  1.0868  0.8243
  314MOL0     H43278   6.556  11.555   7.242  0.3873 -1.8368  1.9985
  314MOL0     H43279   6.324  11.452   7.362  3.1268 -3.5713 -3.7204
  314MOL0     H43280   6.494  11.444   7.421  2.1981  3.7786 -1.0026
  314MOL0     H43281   6.181  11.687   7.446  1.2258 -0.7498 -2.7244
  314MOL0     H43282   6.055  11.775   7.683 -1.6717  0.7249  2.2197
  314MOL0     H43283   6.165  11.894   7.712 -3.1829  1.3189  1.9489
  314MOL0     H43284   6.231  11.795   7.936 -0.2139 -0.2404  0.3020
  314MOL0     H43285   6.078  11.863   7.939  0.3316 -0.0134 -0.3910
  314MOL0     H43286   5.958  11.668   7.965 -0.3656  1.9536 -3.2492
  314MOL0     H43287   6.050  11.570   7.852  2.1303  0.4619  0.1059
  314MOL0     H43288   6.124  11.465   8.020  0.1017  0.1286  0.6102
  314MOL0     H43289   6.220  11.615   8.056 -0.6664 -0.4199  3.1291
  314MOL0     H43290   5.873  11.458   8.023  0.7515  3.0723  0.1934
  314MOL0     H43291   5.577  11.329   8.120 -0.7184 -1.5951  0.4762
  314MOL0     H43292   5.646  11.174   8.111  0.4087  0.5182 -2.6073
  314MOL0     H43293   5.696  11.299   7.995  0.6545  2.5528  0.8304
  314MOL0     H43294   5.880  11.140   8.668  0.0922  0.7949  0.4509
  314MOL0     H43295   5.867  10.941   8.830 -0.3109 -0.4359  0.5700
  314MOL0     H43296   5.817  10.777   8.965  1.0719 -0.3273  1.1702
  314MOL0     H43297   5.708  10.648   8.993  2.7887 -0.2380  1.3933
  314MOL0     H43298   5.824  10.707   8.718  0.9082 -0.0182  0.4976
  314MOL0     H43299   5.858  10.582   8.823  0.9389 -1.9654 -4.1401
  314MOL0     H43300   5.681  10.552   8.627 -0.8188  2.1280 -0.2737
  314MOL0     H43301   5.565  10.633   8.725 -0.1816 -0.2455 -0.1653
  314MOL0     H43302   5.633  10.444   8.902 -0.0953 -4.0613  0.6342
  314MOL0     H43303   5.697  10.368   8.751 -2.1509 -0.4979 -3.8457
  314MOL0     H43304   5.416  10.449   8.741  0.2319  0.1858 -2.4228
  314MOL0     H43305   5.507  10.356   8.626  2.6371 -1.0278 -0.0962
  314MOL0     H43306   5.443  10.287   8.918 -1.5502  0.8035  0.1270
  314MOL0     H43307   5.528  10.176   8.812  0.5962  0.0841  1.0457
  314MOL0     H43308   5.295  10.189   8.674 -1.1599 -1.0466  0.1588
  314MOL0     H43309   5.239  10.268   8.826  1.9175  1.6145  0.8516
  314MOL0     H43310   5.330  10.083   8.944  0.8404  1.2012 -0.6655
  314MOL0     H43311   5.378  10.002   8.795 -2.2222  0.4861 -3.1970
  314MOL0     H43312   5.435  10.943   8.777 -0.2164  0.9072  1.2813
  314MOL0     H43313   5.460  11.134   8.618 -2.5385 -0.8626  0.5070
  314MOL0     H43314   5.873  11.389   8.504 -3.4333 -0.7072 -0.1617
  314MOL0     H43315   6.005  11.555   8.410 -2.5466  3.1356 -1.2495
  314MOL0     H43316   6.982  11.515   7.125  3.7659 -2.7811 -0.5408
  314MOL0     H43317   6.929  11.263   7.086 -2.7350 -1.2627 -0.9013
  314MOL0     H43318   7.089  10.847   6.834 -0.1635 -1.2541  0.1639
  314MOL0     H43319   7.055  10.654   6.711  1.3600  2.1074 -0.1761
  314MOL0     H43320   6.992  10.558   6.480 -0.3103  2.1453  2.5807
  314MOL0     H43321   6.965  10.432   6.605  1.2351 -0.1758 -0.9346
  314MOL0     H43322   6.805  10.463   6.358  2.6782  0.6621 -0.9310
  314MOL0     H43323   6.761  10.357   6.490  0.5717 -1.7712 -0.3363
  314MOL0     H43324   6.851  10.252   6.296 -1.1954  3.3660 -0.7862
  314MOL0     H43325   7.013  10.341   6.304  0.9736 -2.4306 -0.6182
  314MOL0     H43326   6.920  10.168   6.526  0.4719  0.5680  1.7631
  314MOL0     H43327   7.083  10.220   6.483 -0.0097 -1.4953  0.7915
  314MOL0     H43328   7.060   9.853   6.313  2.8341  1.4292 -0.6239
  314MOL0     H43329   6.628  10.743   6.687 -0.8660  2.5249  1.3513
  314MOL0     H43330   6.659  11.011   6.916  2.1129 -2.7204  0.6977
  314MOL0     H43331   6.623  11.071   6.756 -5.1071 -1.1647 -0.6997
  314MOL0     H43332   6.541  10.922   6.817  1.1429 -2.2758  0.3813
  315MOL0     O43333   7.024   3.769   0.072  0.5134  0.7876 -0.4078
  315MOL0     C43334   7.044   3.719  -0.036  0.0454 -1.1619 -0.4837
  315MOL0     O43335   6.996   3.769  -0.150  0.3588 -0.9501  0.6377
  315MOL0     C43336   6.922   3.884  -0.137  0.2079 -0.0013 -1.1498
  315MOL0     C43337   6.781   3.878  -0.160 -0.4879 -0.1617 -0.4433
  315MOL0     C43338   6.710   3.995  -0.143 -0.6315 -0.6987  0.4911
  315MOL0     C43339   6.773   4.118  -0.123 -0.8757 -0.2462 -0.1014
  315MOL0     O43340   6.714   4.245  -0.093 -0.0460  1.0529 -0.4126
  315MOL0     C43341   6.571   4.245  -0.131  0.7088 -0.6822  0.0218
  315MOL0     C43342   6.502   4.384  -0.123 -0.5272  0.3668 -0.1745
  315MOL0     C43343   6.347   4.360  -0.125 -0.7367  0.7020  0.4807
  315MOL0     C43344   6.267   4.465  -0.197 -0.2779 -0.0956 -0.7510
  315MOL0     C43345   6.126   4.463  -0.149  0.0154 -0.0938 -0.5458
  315MOL0     C43346   6.037   4.342  -0.173 -0.0855 -0.1994  0.2883
  315MOL0     C43347   6.016   4.334  -0.328  0.2814  1.2512  0.4958
  315MOL0     C43348   5.981   4.186  -0.377 -0.7322  0.6585  0.7750
  315MOL0     N43349   5.974   4.163  -0.522  0.5200 -0.3571 -0.8259
  315MOL0     C43350   5.866   4.167  -0.607  0.2408 -0.3633  0.3594
  315MOL0     C43351   5.905   4.140  -0.732 -0.5093  0.0099 -0.5311
  315MOL0     C43352   5.805   4.144  -0.848 -0.3259  0.1156 -0.9138
  315MOL0     C43353   5.748   4.278  -0.862  1.0130  1.1920  0.6814
  315MOL0     C43354   5.675   4.283  -0.998  0.1977 -0.2224 -0.7379
  315MOL0     C43355   5.589   4.420  -0.996 -0.8080  0.3083 -0.1037
  315MOL0     O43356   5.575   4.475  -1.121 -0.4248 -0.5105 -0.4500
  315MOL0     C43357   5.529   4.601  -1.125  0.1905  0.0501  0.6216
  315MOL0     C43358   5.617   4.706  -1.150 -0.4359 -0.3156  0.8963
  315MOL0     C43359   5.571   4.838  -1.147  0.3962 -0.6536  0.9305
  315MOL0     C43360   5.660   4.948  -1.191  0.2336  0.0567  0.6505
  315MOL0     C43361   5.440   4.864  -1.104  0.4160 -0.2785 -0.4412
  315MOL0     C43362   5.391   4.996  -1.062 -0.1094  0.7418 -1.4535
  315MOL0     O43363   5.440   5.108  -1.117  0.3705 -0.3904 -0.1685
  315MOL0     C43364   5.410   5.232  -1.061  0.8667  0.5932 -0.1452
  315MOL0     C43365   5.507   5.322  -1.035  0.2352 -0.3148  0.1101
  315MOL0     C43366   5.476   5.454  -1.024 -0.0683 -0.7416 -1.2013
  315MOL0     C43367   5.350   5.505  -1.027 -0.2627  0.1509  0.9350
  315MOL0     O43368   5.327   5.641  -1.008 -1.2111  0.3279 -0.1947
  315MOL0     C43369   5.206   5.702  -1.039 -0.0922  0.0615  1.0280
  315MOL0     C43370   5.206   5.859  -1.010 -1.0322 -0.8050 -0.2827
  315MOL0     C43371   5.127   5.915  -0.896  1.1314 -0.2709 -0.0759
  315MOL0     C43372   4.973   5.908  -0.933 -0.6173  0.5064  0.0347
  315MOL0     C43373   4.882   5.982  -0.834 -0.8466 -0.0043 -0.2599
  315MOL0     C43374   4.733   5.972  -0.877  0.3614 -0.5418  0.3676
  315MOL0     C43375   4.722   6.064  -1.007 -0.6359  0.1267 -0.3202
  315MOL0     C43376   4.586   6.124  -1.029  0.0186  0.1008  0.1288
  315MOL0    Cl43377   4.543   6.227  -0.892 -0.4289  0.1515 -0.2715
  315MOL0     C43378   5.247   5.417  -1.056 -0.6963  0.2437 -0.0354
  315MOL0     C43379   5.273   5.276  -1.070 -0.1086  0.0609 -0.1617
  315MOL0     O43380   5.333   4.991  -0.954 -0.1309  0.5286 -0.3452
  315MOL0     C43381   5.355   4.753  -1.072 -0.3934  0.0989 -0.9566
  315MOL0     C43382   5.399   4.627  -1.096 -0.1634 -0.4476  0.0587
  315MOL0     N43383   6.040   4.109  -0.722 -0.0895  0.7745  0.1369
  315MOL0     N43384   6.078   4.119  -0.598  0.7634  0.4822  0.0397
  315MOL0     C43385   6.916   4.119  -0.136 -0.5807 -0.2555  1.3756
  315MOL0     C43386   6.993   4.006  -0.137  0.3442 -0.2337 -0.1352
  315MOL0     C43387   7.129   3.593  -0.040 -0.0441  0.3215 -0.3492
  315MOL0     C43388   7.111   3.518  -0.160 -0.7757  0.3259  0.3130
  315MOL0     C43389   7.183   3.396  -0.178  0.5311  0.6891 -0.9794
  315MOL0     C43390   7.264   3.338  -0.077 -0.0796  0.5917 -0.0107
  315MOL0     O43391   7.317   3.206  -0.083  0.0880 -0.4662  0.2056
  315MOL0     C43392   7.419   3.204  -0.188  0.3897  0.9014 -1.5736
  315MOL0     C43393   7.452   3.060  -0.211 -0.6051 -0.2731  0.1136
  315MOL0     C43394   7.539   3.053  -0.343  0.8257 -0.3435 -0.8837
  315MOL0     C43395   7.458   3.001  -0.467 -0.4497 -0.6935  0.2933
  315MOL0     C43396   7.350   3.086  -0.511 -0.4457  0.0653  0.2015
  315MOL0     C43397   7.254   3.147  -0.546 -0.1799  0.0607 -0.3505
  315MOL0     C43398   7.282   3.413   0.044  0.0232 -0.0415 -0.3075
  315MOL0     C43399   7.222   3.539   0.068  0.1782 -0.7758  0.6478
  315MOL0     C43400   7.236   3.608   0.196 -0.4101 -0.1023 -1.0123
  315MOL0     H43401   6.717   3.789  -0.163 -1.6731  0.4545  2.9340
  315MOL0     H43402   6.601   3.998  -0.133 -0.4942 -0.0418  2.1423
  315MOL0     H43403   6.503   4.189  -0.066 -4.8431  1.8726 -2.8770
  315MOL0     H43404   6.544   4.198  -0.226 -0.3161 -0.2137  0.0754
  315MOL0     H43405   6.533   4.443  -0.036 -2.2483  1.7126 -0.4061
  315MOL0     H43406   6.529   4.447  -0.208  0.8547 -2.4874 -2.0111
  315MOL0     H43407   6.335   4.269  -0.183  2.8212 -0.2550  1.0302
  315MOL0     H43408   6.318   4.353  -0.019  2.0814  1.4781  1.3966
  315MOL0     H43409   6.314   4.563  -0.190  1.1803 -0.8498  0.2940
  315MOL0     H43410   6.275   4.445  -0.304 -0.3821  1.0058 -0.9851
  315MOL0     H43411   6.070   4.556  -0.169  1.6879  0.8739 -0.8826
  315MOL0     H43412   6.129   4.479  -0.040 -1.7223  1.9245 -0.7207
  315MOL0     H43413   6.077   4.248  -0.135  1.6883  1.2032  2.1069
  315MOL0     H43414   5.941   4.362  -0.124 -1.4326 -0.7009 -1.9774
  315MOL0     H43415   6.111   4.354  -0.378 -0.8751  3.0563 -1.1869
  315MOL0     H43416   5.944   4.406  -0.369  0.5039  0.0537 -2.1963
  315MOL0     H43417   6.057   4.125  -0.326 -1.6405 -1.2544 -0.0407
  315MOL0     H43418   5.884   4.153  -0.338 -1.7687  0.0378 -2.0555
  315MOL0     H43419   5.763   4.192  -0.584 -1.3926 -1.7606 -4.3257
  315MOL0     H43420   5.730   4.066  -0.835  2.6604 -2.9563 -0.8511
  315MOL0     H43421   5.852   4.123  -0.944  0.2278  1.0078 -0.8503
  315MOL0     H43422   5.671   4.300  -0.788 -0.1324  2.1478 -0.7247
  315MOL0     H43423   5.825   4.354  -0.851  1.0669  1.2976 -0.2802
  315MOL0     H43424   5.751   4.288  -1.077 -1.6610  0.4908 -2.5630
  315MOL0     H43425   5.595   4.207  -1.000 -2.1743  2.1271 -0.2814
  315MOL0     H43426   5.493   4.395  -0.950  0.3360 -0.5506  1.9341
  315MOL0     H43427   5.644   4.493  -0.936  2.4973 -2.5061  0.5266
  315MOL0     H43428   5.721   4.687  -1.174  0.3223  3.0853  1.0221
  315MOL0     H43429   5.623   5.015  -1.269  1.1719  0.0858  0.2086
  315MOL0     H43430   5.759   4.918  -1.227  0.8297  3.0514 -0.4760
  315MOL0     H43431   5.681   5.023  -1.115  1.2511  0.9776 -0.4803
  315MOL0     H43432   5.612   5.295  -1.042 -0.0314 -0.9613 -4.7724
  315MOL0     H43433   5.564   5.516  -1.032  0.0950 -0.7873  0.0321
  315MOL0     H43434   5.179   5.692  -1.145  3.4183  0.4681 -0.0175
  315MOL0     H43435   5.129   5.659  -0.974 -0.1322 -2.7010 -0.7176
  315MOL0     H43436   5.309   5.886  -0.984 -1.2358 -2.1117  2.2214
  315MOL0     H43437   5.182   5.899  -1.109 -0.6530 -0.6901 -0.3302
  315MOL0     H43438   5.160   6.019  -0.894 -1.7029  0.7169  1.6408
  315MOL0     H43439   5.151   5.875  -0.797 -1.7501  2.3771  1.8984
  315MOL0     H43440   4.944   5.803  -0.938 -0.7926  0.4258  1.8916
  315MOL0     H43441   4.964   5.940  -1.037 -1.8564 -1.2393 -0.4445
  315MOL0     H43442   4.892   5.948  -0.731 -2.2459  2.9489  0.9848
  315MOL0     H43443   4.923   6.082  -0.822  1.1496 -0.8134 -0.0171
  315MOL0     H43444   4.666   6.013  -0.800  1.8957  1.1976  0.8599
  315MOL0     H43445   4.698   5.870  -0.895 -0.1427 -0.5839  1.4641
  315MOL0     H43446   4.747   5.993  -1.086  0.1995 -0.5991  0.5710
  315MOL0     H43447   4.797   6.142  -1.000  0.3757 -0.8398 -0.0201
  315MOL0     H43448   4.503   6.058  -1.056  1.7617 -1.6217 -1.3214
  315MOL0     H43449   4.603   6.179  -1.123  1.8725 -0.5825  0.0321
  315MOL0     H43450   5.154   5.469  -1.075  0.0950  1.5888 -0.4152
  315MOL0     H43451   5.188   5.217  -1.103  0.4410 -0.9310  0.1584
  315MOL0     H43452   5.252   4.768  -1.043 -0.4288 -0.8356 -0.5724
  315MOL0     H43453   5.326   4.548  -1.109 -1.9770  1.1872 -0.1004
  315MOL0     H43454   6.958   4.219  -0.137 -1.9542  0.3295  0.6372
  315MOL0     H43455   7.100   3.998  -0.122  0.4603  1.7175  0.2591
  315MOL0     H43456   7.052   3.540  -0.249  0.3287 -2.5633 -1.2419
  315MOL0     H43457   7.179   3.335  -0.267  1.3221 -2.6031  1.0424
  315MOL0     H43458   7.372   3.245  -0.278  0.8564  5.8037  0.1289
  315MOL0     H43459   7.508   3.262  -0.161  0.1311  1.6520 -2.3145
  315MOL0     H43460   7.373   2.985  -0.214 -3.7147  2.7449 -0.0081
  315MOL0     H43461   7.510   3.028  -0.123 -3.4177 -1.2222  1.7579
  315MOL0     H43462   7.566   3.158  -0.360 -3.5204  1.1316 -0.0388
  315MOL0     H43463   7.628   2.993  -0.324  0.8315 -0.4091 -1.1065
  315MOL0     H43464   7.424   2.898  -0.448 -2.1589 -0.5671 -1.7140
  315MOL0     H43465   7.528   2.990  -0.550  1.3318 -5.7156  2.0294
  315MOL0     H43466   7.158   3.185  -0.575 -0.5244  0.4825  1.2896
  315MOL0     H43467   7.338   3.367   0.124  0.7274  1.1914 -0.0671
  315MOL0     H43468   7.278   3.539   0.269  1.4800  1.9501 -0.0585
  315MOL0     H43469   7.300   3.695   0.186 -2.1600  1.4030  0.1992
  315MOL0     H43470   7.142   3.646   0.238 -1.7782 -3.1149 -1.0652
  316MOL0     O43471   3.331  10.663   6.025 -0.5065 -0.0395  0.1785
  316MOL0     C43472   3.356  10.554   5.970  1.1718  0.2638 -0.1845
  316MOL0     O43473   3.311  10.431   6.024 -0.0942  0.6549 -0.1365
  316MOL0     C43474   3.264  10.439   6.156 -0.0049 -0.2259  0.3876
  316MOL0     C43475   3.152  10.513   6.192  0.1857 -0.4493  1.2096
  316MOL0     C43476   3.102  10.497   6.323 -0.1426 -0.2020  0.4017
  316MOL0     C43477   3.159  10.412   6.419 -0.2248 -0.3278  0.3548
  316MOL0     O43478   3.102  10.385   6.538 -0.3507 -0.0069 -1.1535
  316MOL0     C43479   3.021  10.489   6.601  0.2306 -0.1756 -0.6312
  316MOL0     C43480   3.063  10.513   6.748  0.4655 -0.0103 -0.5364
  316MOL0     C43481   2.928  10.559   6.829 -0.6149 -0.0761 -0.9643
  316MOL0     C43482   2.955  10.603   6.972 -0.1639 -0.2608  0.5086
  316MOL0     C43483   2.849  10.679   7.041  0.7384 -0.3463 -0.0652
  316MOL0     C43484   2.869  10.721   7.187 -0.0623  1.2395  0.0272
  316MOL0     C43485   2.829  10.610   7.276 -0.9574  0.2519  0.1769
  316MOL0     C43486   2.933  10.527   7.347 -0.2952  0.9614  0.0146
  316MOL0     N43487   2.987  10.611   7.455 -0.6374  0.1068 -0.2697
  316MOL0     C43488   2.918  10.674   7.558  0.5620 -0.1350  0.0349
  316MOL0     C43489   3.005  10.765   7.601  0.1509 -0.5977  0.9482
  316MOL0     C43490   2.967  10.874   7.692 -0.3057 -0.0873  0.0086
  316MOL0     C43491   2.919  10.999   7.623  0.0384  0.7553 -0.0855
  316MOL0     C43492   2.823  11.080   7.694 -1.5202  0.3020  0.6985
  316MOL0     C43493   2.816  11.215   7.632  0.4897 -0.5679 -0.6524
  316MOL0     O43494   2.760  11.318   7.712 -0.6162 -0.1638 -0.2967
  316MOL0     C43495   2.781  11.454   7.698 -0.4424  0.3052 -0.2231
  316MOL0     C43496   2.821  11.511   7.574  0.6006 -0.2136 -0.4706
  316MOL0     C43497   2.805  11.655   7.566 -0.2754 -0.4446  0.2410
  316MOL0     C43498   2.851  11.708   7.432 -0.3529  0.3094  0.3960
  316MOL0     C43499   2.758  11.744   7.672 -0.6388  0.7634  0.5778
  316MOL0     C43500   2.755  11.891   7.651  0.2944  0.5285 -0.7476
  316MOL0     O43501   2.852  11.958   7.582 -0.1258  0.5596 -0.7379
  316MOL0     C43502   2.848  12.087   7.579  0.3775  0.1518 -0.4670
  316MOL0     C43503   2.849  12.143   7.454 -0.7396 -0.4942  0.1288
  316MOL0     C43504   2.829  12.279   7.437  0.3888  0.5179 -0.8096
  316MOL0     C43505   2.819  12.361   7.547 -0.1802 -0.7103  1.2332
  316MOL0     O43506   2.816  12.501   7.541  0.4061 -0.7178  0.0663
  316MOL0     C43507   2.716  12.553   7.449  0.0497 -0.8548 -0.6221
  316MOL0     C43508   2.709  12.701   7.467 -0.0512  0.9584  0.0246
  316MOL0     C43509   2.841  12.768   7.448 -0.7348 -0.4320 -0.3457
  316MOL0     C43510   2.839  12.918   7.432  0.8477 -0.3365  0.0876
  316MOL0     C43511   2.985  12.972   7.441 -0.4712  0.9441  0.8135
  316MOL0     C43512   3.001  13.063   7.561 -0.5161 -0.7657 -0.1370
  316MOL0     C43513   3.151  13.116   7.569  0.8993 -0.4929  0.4836
  316MOL0     C43514   3.186  13.166   7.711  0.1789 -0.3027 -0.3989
  316MOL0    Cl43515   3.320  13.284   7.669  0.2429  0.2120 -0.0955
  316MOL0     C43516   2.829  12.310   7.677  1.1800 -0.2507  0.8217
  316MOL0     C43517   2.840  12.175   7.695  0.4095  0.5660 -0.0792
  316MOL0     O43518   2.662  11.948   7.716  0.1080 -0.1171  0.5926
  316MOL0     C43519   2.713  11.677   7.793 -0.1426  0.7354 -0.1822
  316MOL0     C43520   2.734  11.537   7.802  0.7745  0.8382 -0.0816
  316MOL0     N43521   3.126  10.770   7.530  0.1684 -0.2183 -0.3630
  316MOL0     N43522   3.113  10.672   7.444 -0.3263 -0.4568  0.1690
  316MOL0     C43523   3.277  10.343   6.378 -0.2348  0.2486 -0.7018
  316MOL0     C43524   3.318  10.351   6.245 -0.7676  1.0841  0.2292
  316MOL0     C43525   3.413  10.545   5.826  1.0670 -0.4008  0.1364
  316MOL0     C43526   3.407  10.416   5.761  0.2814  0.0265  0.1143
  316MOL0     C43527   3.462  10.391   5.642  0.5820  0.0937  0.2678
  316MOL0     C43528   3.535  10.498   5.575 -0.1325 -0.1445 -0.0237
  316MOL0     O43529   3.596  10.485   5.445 -0.0683 -0.1094  0.9954
  316MOL0     C43530   3.539  10.384   5.360  0.2091  0.5360 -0.1375
  316MOL0     C43531   3.547  10.434   5.210 -0.0366  0.6721 -0.4233
  316MOL0     C43532   3.451  10.359   5.113 -0.0397  0.2379 -0.5061
  316MOL0     C43533   3.483  10.402   4.973 -0.1410  0.5573  0.1113
  316MOL0     C43534   3.378  10.349   4.893 -0.5057  0.7325  0.5994
  316MOL0     C43535   3.294  10.308   4.813 -0.1299  0.7933  0.6380
  316MOL0     C43536   3.548  10.619   5.638 -0.0562 -0.6177 -0.0420
  316MOL0     C43537   3.490  10.649   5.761  0.1744 -0.7308  0.4964
  316MOL0     C43538   3.528  10.767   5.839 -0.1767 -0.2277 -0.1836
  316MOL0     H43539   3.098  10.565   6.114  0.4935 -0.4784  0.9752
  316MOL0     H43540   3.014  10.556   6.346  2.4121  4.0944  0.2195
  316MOL0     H43541   2.919  10.449   6.605  1.0946 -2.3569  1.1596
  316MOL0     H43542   3.026  10.592   6.564 -3.6540  0.1183 -0.8162
  316MOL0     H43543   3.101  10.424   6.798 -1.5946  0.3100  1.8207
  316MOL0     H43544   3.135  10.592   6.772 -1.5617  1.3870  1.4557
  316MOL0     H43545   2.864  10.628   6.773 -0.0759  0.4074 -0.9924
  316MOL0     H43546   2.872  10.466   6.841 -0.1758 -0.3553 -1.0720
  316MOL0     H43547   2.970  10.515   7.035 -0.3598 -2.8004 -2.7698
  316MOL0     H43548   3.047  10.662   6.975  0.2602 -0.9110  3.1404
  316MOL0     H43549   2.766  10.609   7.034 -1.2674  2.0246 -2.6838
  316MOL0     H43550   2.824  10.767   6.980 -2.2046 -1.4323 -0.5646
  316MOL0     H43551   2.974  10.742   7.209  0.6088 -0.6366 -1.1637
  316MOL0     H43552   2.803  10.806   7.207 -1.4203  1.0964 -3.1639
  316MOL0     H43553   2.766  10.540   7.219  0.4360 -2.4049  1.6852
  316MOL0     H43554   2.755  10.655   7.343 -2.7006  0.7913 -2.0035
  316MOL0     H43555   2.883  10.445   7.399  0.4757  1.0074  0.8660
  316MOL0     H43556   3.006  10.485   7.278 -0.9567 -1.3294  0.6352
  316MOL0     H43557   2.814  10.649   7.579 -0.3602  4.0985  1.6211
  316MOL0     H43558   3.049  10.911   7.755 -0.7971  1.5388 -0.2582
  316MOL0     H43559   2.902  10.828   7.767 -0.9763  1.3744  0.3621
  316MOL0     H43560   2.998  11.063   7.581 -1.5434  1.5166 -2.0807
  316MOL0     H43561   2.875  10.972   7.526  1.3293 -2.5402  0.1095
  316MOL0     H43562   2.729  11.023   7.700 -1.8335  0.5164 -1.3235
  316MOL0     H43563   2.871  11.104   7.789  6.2963  0.2047 -2.4567
  316MOL0     H43564   2.917  11.247   7.606  2.2725 -3.5474  1.8034
  316MOL0     H43565   2.763  11.195   7.539 -1.2721  1.3209 -0.1308
  316MOL0     H43566   2.842  11.453   7.486 -1.0028  2.1584 -2.5753
  316MOL0     H43567   2.865  11.630   7.356 -0.2796  1.1865 -0.4989
  316MOL0     H43568   2.941  11.770   7.429  1.0392 -1.6090 -2.3933
  316MOL0     H43569   2.770  11.772   7.396 -1.0791  0.0636  1.5279
  316MOL0     H43570   2.856  12.071   7.373  1.2761 -2.8323  2.2232
  316MOL0     H43571   2.825  12.325   7.339 -0.2270 -0.2991 -1.1803
  316MOL0     H43572   2.746  12.529   7.347 -0.3232 -2.0253 -0.4759
  316MOL0     H43573   2.614  12.516   7.461  0.9065 -3.0074  0.6088
  316MOL0     H43574   2.648  12.734   7.383  0.3418  1.0771 -0.2187
  316MOL0     H43575   2.661  12.741   7.556 -0.3071  2.7217 -0.8570
  316MOL0     H43576   2.889  12.725   7.359  0.3525  1.0340 -0.5067
  316MOL0     H43577   2.901  12.749   7.537  0.3414  1.1196 -0.6988
  316MOL0     H43578   2.780  12.963   7.513  1.4965 -1.5001  1.2417
  316MOL0     H43579   2.810  12.953   7.332  2.6621  0.6280 -0.1496
  316MOL0     H43580   3.069  12.901   7.447  2.9567  4.4755 -0.9698
  316MOL0     H43581   3.007  13.026   7.349 -0.0255  0.0349  0.3651
  316MOL0     H43582   2.976  12.995   7.643  1.4589 -2.5346 -0.9100
  316MOL0     H43583   2.934  13.149   7.554  2.1709  1.5533  0.9972
  316MOL0     H43584   3.152  13.196   7.495  2.2780 -0.9688 -0.0321
  316MOL0     H43585   3.227  13.040   7.548  1.5162 -0.2052  1.5609
  316MOL0     H43586   3.216  13.088   7.781  0.3251 -0.4168 -0.5857
  316MOL0     H43587   3.101  13.224   7.748 -1.0599 -2.4327  0.2658
  316MOL0     H43588   2.818  12.381   7.759 -1.2906  1.0300 -0.5027
  316MOL0     H43589   2.818  12.133   7.792  1.9916  1.5716  0.7555
  316MOL0     H43590   2.689  11.729   7.885 -1.5661  1.7074 -1.0689
  316MOL0     H43591   2.695  11.480   7.886  1.4725  3.0861  1.8710
  316MOL0     H43592   3.330  10.266   6.434 -0.0524 -0.8579 -2.3318
  316MOL0     H43593   3.399  10.291   6.205 -0.7715  1.1076  0.1865
  316MOL0     H43594   3.358  10.340   5.821  0.3147  1.0498  1.4876
  316MOL0     H43595   3.442  10.299   5.589 -0.5575 -1.2080  2.8087
  316MOL0     H43596   3.598  10.292   5.364  0.7823  0.6725 -3.1746
  316MOL0     H43597   3.436  10.363   5.389 -0.6694 -0.7792 -3.6775
  316MOL0     H43598   3.645  10.412   5.168 -0.6161 -0.5321 -1.2171
  316MOL0     H43599   3.511  10.538   5.216  2.0019  1.4585 -1.0265
  316MOL0     H43600   3.459  10.252   5.134 -1.6727  0.7270  3.4965
  316MOL0     H43601   3.354  10.395   5.148 -0.6944 -1.5501 -0.3840
  316MOL0     H43602   3.584  10.373   4.944  1.8734  1.4690  5.2249
  316MOL0     H43603   3.496  10.511   4.975  0.3090  0.4906  0.8703
  316MOL0     H43604   3.229  10.272   4.736  1.7760 -0.9175 -0.2600
  316MOL0     H43605   3.592  10.710   5.598 -1.1801 -0.7575 -1.6758
  316MOL0     H43606   3.581  10.830   5.767 -2.5117  1.0348 -0.9011
  316MOL0     H43607   3.450  10.837   5.871  2.2308  1.7392  1.7721
  316MOL0     H43608   3.594  10.737   5.920  2.2384  0.6358 -1.7412
  317MOL0     O43609   9.986   5.827   5.106  0.0073  0.0554  0.4882
  317MOL0     C43610  10.043   5.755   5.185  0.5797  0.4681  0.3900
  317MOL0     O43611  10.164   5.776   5.232 -0.0513 -1.2908  0.3353
  317MOL0     C43612  10.211   5.908   5.238 -0.7456  1.3558  1.3028
  317MOL0     C43613  10.145   6.009   5.301  0.0506  0.7524  0.1321
  317MOL0     C43614  10.202   6.135   5.313 -0.8137 -1.0411 -0.3537
  317MOL0     C43615  10.326   6.161   5.257 -0.7060 -0.5362 -0.3408
  317MOL0     O43616  10.399   6.282   5.259 -0.3094  0.3978  0.7538
  317MOL0     C43617  10.330   6.393   5.318  0.1393 -1.4064 -0.7845
  317MOL0     C43618  10.211   6.465   5.251  0.7155 -0.2395 -0.7947
  317MOL0     C43619  10.231   6.509   5.108 -0.1131 -1.0967 -0.8254
  317MOL0     C43620  10.122   6.615   5.085 -0.4650  0.5706 -0.5836
  317MOL0     C43621  10.117   6.647   4.931  0.2227  0.4299  0.3639
  317MOL0     C43622   9.991   6.723   4.901 -0.0570  0.2995  0.4076
  317MOL0     C43623  10.008   6.782   4.760 -0.1307  1.0155  0.2213
  317MOL0     C43624  10.045   6.681   4.661 -0.3147 -0.1615 -0.4707
  317MOL0     N43625  10.038   6.724   4.527 -0.3449 -0.4391 -0.1734
  317MOL0     C43626   9.916   6.748   4.465  1.3322 -0.1800  0.0298
  317MOL0     C43627   9.957   6.796   4.344  0.2587  0.7430  0.4456
  317MOL0     C43628   9.867   6.825   4.225  0.2133  0.3297  0.6668
  317MOL0     C43629   9.859   6.695   4.138  0.0664  0.4396  1.5418
  317MOL0     C43630   9.758   6.706   4.014 -0.7370 -0.1355 -0.3415
  317MOL0     C43631   9.751   6.570   3.952  0.5150  0.7155 -0.2017
  317MOL0     O43632   9.638   6.489   4.008  0.6273  0.9954  0.3368
  317MOL0     C43633   9.643   6.352   3.975 -0.0564 -0.0330 -1.5039
  317MOL0     C43634   9.556   6.273   4.041  0.4788 -0.3485  0.6224
  317MOL0     C43635   9.558   6.129   4.036  1.4395 -0.5671 -0.3320
  317MOL0     C43636   9.469   6.061   4.134  0.4104 -0.2463 -0.0645
  317MOL0     C43637   9.668   6.069   3.965  0.1970  0.5555  0.1120
  317MOL0     C43638   9.688   5.920   3.961 -0.4871 -0.6239  0.4392
  317MOL0     O43639   9.816   5.895   3.926 -0.0471 -0.1593  0.6303
  317MOL0     C43640   9.846   5.763   3.901  0.0826 -0.8317 -0.4550
  317MOL0     C43641   9.845   5.724   3.768 -0.0635 -0.3546  0.6010
  317MOL0     C43642   9.868   5.587   3.734 -0.2813 -0.8932 -0.1858
  317MOL0     C43643   9.894   5.495   3.831  0.1680  0.1335  0.4648
  317MOL0     O43644   9.923   5.369   3.789 -0.8182  0.4099 -0.5824
  317MOL0     C43645   9.895   5.262   3.887 -0.8271 -0.4088  0.2170
  317MOL0     C43646   9.811   5.146   3.820  0.3776  0.7601 -0.4941
  317MOL0     C43647   9.791   5.043   3.922 -0.0133 -0.1895  0.4009
  317MOL0     C43648   9.659   5.071   3.993 -0.0083  0.3020 -0.7031
  317MOL0     C43649   9.646   4.991   4.120  0.0982 -1.2583 -1.2872
  317MOL0     C43650   9.496   4.975   4.168  0.3410  0.4646  0.0217
  317MOL0     C43651   9.428   5.104   4.216  0.0022 -0.8081 -0.8672
  317MOL0     C43652   9.277   5.096   4.203  0.6161  0.8922 -0.7589
  317MOL0    Cl43653   9.249   5.109   4.031 -0.3801  0.2074 -0.4885
  317MOL0     C43654   9.903   5.539   3.967 -0.6602 -0.6187 -0.5528
  317MOL0     C43655   9.848   5.664   3.997 -0.8804  0.0904 -0.1618
  317MOL0     O43656   9.597   5.837   3.991  0.4923  0.1294  0.1296
  317MOL0     C43657   9.755   6.148   3.897 -0.3123  0.1825 -0.8315
  317MOL0     C43658   9.744   6.291   3.903 -0.1898  0.4312  0.3705
  317MOL0     N43659  10.097   6.795   4.344  0.0043  0.0872  0.2347
  317MOL0     N43660  10.150   6.758   4.453  0.2958  0.4157 -1.2662
  317MOL0     C43661  10.386   6.064   5.185  0.3842  0.4819 -0.1919
  317MOL0     C43662  10.336   5.935   5.189 -0.7157  0.2254  0.1430
  317MOL0     C43663   9.978   5.630   5.221  0.1508 -0.7446  0.1738
  317MOL0     C43664  10.055   5.539   5.297  0.0005 -0.6847 -0.2520
  317MOL0     C43665  10.001   5.419   5.353 -0.3327 -0.5348 -0.3589
  317MOL0     C43666   9.864   5.384   5.338  0.1408 -0.4158  0.6622
  317MOL0     O43667   9.808   5.265   5.382  0.1692 -0.2574  0.2321
  317MOL0     C43668   9.871   5.143   5.328 -0.3991 -0.4573  0.1449
  317MOL0     C43669   9.799   5.020   5.383 -0.1303  0.0131  0.9751
  317MOL0     C43670   9.829   5.004   5.530 -0.7864  0.5357  0.4256
  317MOL0     C43671   9.735   4.901   5.595 -0.0239  0.5148 -0.5165
  317MOL0     C43672   9.759   4.765   5.541 -0.5360  0.2930  0.5357
  317MOL0     C43673   9.767   4.650   5.493 -0.1388  0.1116 -0.1543
  317MOL0     C43674   9.787   5.483   5.269  0.2847  0.8537  0.3902
  317MOL0     C43675   9.841   5.597   5.205  0.0672  0.6563 -0.3545
  317MOL0     C43676   9.736   5.682   5.138 -1.0414  0.6079  0.1336
  317MOL0     H43677  10.050   5.986   5.349 -0.2943  0.1889 -0.7960
  317MOL0     H43678  10.147   6.211   5.367  1.1131 -0.3226  0.7354
  317MOL0     H43679  10.403   6.474   5.318 -1.0395 -0.3031 -0.0065
  317MOL0     H43680  10.298   6.378   5.421 -2.2189  1.8977 -0.8576
  317MOL0     H43681  10.118   6.408   5.260  0.2022  0.8875  2.5607
  317MOL0     H43682  10.204   6.557   5.311  2.4453 -0.0245 -0.8665
  317MOL0     H43683  10.337   6.534   5.093  0.2933 -1.5407  1.0848
  317MOL0     H43684  10.212   6.427   5.038 -1.5931 -1.3710 -0.1274
  317MOL0     H43685  10.024   6.580   5.117 -0.3192  1.0871  0.4607
  317MOL0     H43686  10.137   6.702   5.150 -0.4204 -0.4445  0.7911
  317MOL0     H43687  10.111   6.555   4.871 -0.9002  0.7393 -0.0324
  317MOL0     H43688  10.201   6.709   4.900  0.6749  1.8545  4.0011
  317MOL0     H43689   9.893   6.675   4.904 -0.4644  1.1473  2.0695
  317MOL0     H43690   9.986   6.814   4.962 -0.0724 -0.1541  1.0883
  317MOL0     H43691  10.091   6.851   4.742  1.9880 -0.9007  2.0287
  317MOL0     H43692   9.914   6.830   4.732 -1.3715 -0.1773  2.0961
  317MOL0     H43693  10.147   6.641   4.662 -1.2567 -2.7816  0.1763
  317MOL0     H43694   9.966   6.606   4.670 -0.0388 -0.4372 -0.3450
  317MOL0     H43695   9.813   6.731   4.495  1.7787 -1.0299  1.1536
  317MOL0     H43696   9.909   6.908   4.167  0.7840  0.1452  0.8094
  317MOL0     H43697   9.776   6.870   4.267  0.7257 -0.2372  2.4844
  317MOL0     H43698   9.959   6.690   4.094  0.0280 -1.0318  1.5914
  317MOL0     H43699   9.830   6.619   4.210 -1.7137  1.3643  1.8414
  317MOL0     H43700   9.654   6.737   4.026 -1.3181 -2.5230  1.6328
  317MOL0     H43701   9.805   6.770   3.939 -3.1862  1.0644 -0.9525
  317MOL0     H43702   9.744   6.581   3.844 -1.7843  0.7288 -0.1161
  317MOL0     H43703   9.846   6.517   3.962 -0.8466 -2.4421 -2.3510
  317MOL0     H43704   9.493   6.315   4.118  3.4100  0.1698  2.9329
  317MOL0     H43705   9.440   6.125   4.218 -0.6654  2.1578 -2.1292
  317MOL0     H43706   9.507   5.963   4.164 -1.5648 -1.6734 -1.9046
  317MOL0     H43707   9.381   6.039   4.074 -0.4177  1.2078  0.5689
  317MOL0     H43708   9.818   5.800   3.696  0.4084 -0.6846  0.0693
  317MOL0     H43709   9.870   5.559   3.629  2.2429  1.7967 -1.0096
  317MOL0     H43710   9.985   5.207   3.916 -0.0914  0.1154 -0.9728
  317MOL0     H43711   9.837   5.288   3.976  0.0216 -0.5676  0.8278
  317MOL0     H43712   9.722   5.195   3.782  1.6012  3.2350 -0.4133
  317MOL0     H43713   9.872   5.115   3.734  2.7370  2.8818  0.2867
  317MOL0     H43714   9.869   5.050   3.999 -0.1226  0.9286  0.4321
  317MOL0     H43715   9.786   4.947   3.871 -3.2740  0.9283 -1.6887
  317MOL0     H43716   9.583   5.048   3.917  0.1822  1.3085 -1.2172
  317MOL0     H43717   9.641   5.174   4.027  0.7594 -0.1869  1.3781
  317MOL0     H43718   9.674   4.888   4.095 -2.0176 -2.1746 -0.1611
  317MOL0     H43719   9.709   5.027   4.201 -1.6871  1.1154 -0.8433
  317MOL0     H43720   9.492   4.918   4.261 -1.7996  3.2128  1.7978
  317MOL0     H43721   9.437   4.920   4.094 -0.2435  1.6694 -0.4445
  317MOL0     H43722   9.471   5.193   4.169  0.2676  1.4676  3.1858
  317MOL0     H43723   9.461   5.122   4.319 -1.2658  0.7971 -0.7075
  317MOL0     H43724   9.221   5.175   4.255 -1.7814 -1.4892  0.5077
  317MOL0     H43725   9.241   4.998   4.235  1.9510 -0.9561 -4.3138
  317MOL0     H43726   9.951   5.474   4.040 -2.4221 -0.3659  0.9088
  317MOL0     H43727   9.853   5.693   4.102  2.2115  1.1992 -0.4978
  317MOL0     H43728   9.838   6.112   3.837 -0.2484 -1.5645  0.2290
  317MOL0     H43729   9.818   6.346   3.846 -2.5503  0.3075 -3.1789
  317MOL0     H43730  10.477   6.060   5.125  0.9183  1.0865  0.5518
  317MOL0     H43731  10.389   5.859   5.132  1.1677  2.2274 -0.9324
  317MOL0     H43732  10.161   5.560   5.304  0.0382 -1.4240  1.8029
  317MOL0     H43733  10.075   5.347   5.388 -0.3015 -0.5420 -0.4368
  317MOL0     H43734   9.875   5.150   5.218  3.1213 -0.0068  0.1936
  317MOL0     H43735   9.977   5.134   5.349 -0.2994 -0.9374 -0.5084
  317MOL0     H43736   9.830   4.928   5.332  3.0358  0.0902  2.5252
  317MOL0     H43737   9.695   5.038   5.357 -0.4062  0.8060  2.5686
  317MOL0     H43738   9.935   4.976   5.536 -0.6671  1.1480  1.2226
  317MOL0     H43739   9.824   5.100   5.582  4.3159 -0.1968  2.9137
  317MOL0     H43740   9.636   4.944   5.578  1.4065  3.3938 -2.2859
  317MOL0     H43741   9.741   4.912   5.703 -2.8251  0.4982 -0.2888
  317MOL0     H43742   9.787   4.546   5.475  2.8031 -0.2059  3.7694
  317MOL0     H43743   9.681   5.464   5.259  0.1411  2.0591 -0.6445
  317MOL0     H43744   9.745   5.784   5.178 -1.0064  0.1621  1.2959
  317MOL0     H43745   9.761   5.680   5.031  2.5057 -0.7620  0.8847
  317MOL0     H43746   9.631   5.655   5.152 -1.2890  0.8735 -1.0861
  318MOL0     O43747   1.469   4.200   6.380  0.0260  0.0028 -0.0453
  318MOL0     C43748   1.416   4.092   6.375  0.7384 -0.3731 -0.6358
  318MOL0     O43749   1.280   4.080   6.382 -0.2491  0.4668 -0.4669
  318MOL0     C43750   1.184   4.167   6.377  0.3550 -0.2796  1.0275
  318MOL0     C43751   1.059   4.126   6.331  0.8106  0.0491  0.8701
  318MOL0     C43752   0.952   4.215   6.313  0.2839  0.5101 -0.6165
  318MOL0     C43753   0.962   4.347   6.344  0.3082 -2.3779  0.0213
  318MOL0     O43754   0.878   4.450   6.308 -0.3809 -0.3856  0.5154
  318MOL0     C43755   0.774   4.436   6.216  0.5200 -0.8153  0.7415
  318MOL0     C43756   0.828   4.402   6.077  0.5745 -0.0206 -0.1992
  318MOL0     C43757   0.720   4.406   5.958 -0.0525  1.9842 -0.1018
  318MOL0     C43758   0.777   4.360   5.820 -0.0471  0.2594 -0.3289
  318MOL0     C43759   0.664   4.289   5.732  0.7257 -0.1692 -0.2232
  318MOL0     C43760   0.726   4.220   5.612 -0.3578 -0.0353  0.6870
  318MOL0     C43761   0.800   4.308   5.504  0.3320 -0.2389 -0.2643
  318MOL0     C43762   0.707   4.385   5.418  0.2445  0.2321 -0.2460
  318MOL0     N43763   0.632   4.305   5.324  0.5317  0.4922  0.1065
  318MOL0     C43764   0.658   4.281   5.187 -1.0711 -0.1282  0.1850
  318MOL0     C43765   0.554   4.217   5.137  0.0359  0.3381 -0.3723
  318MOL0     C43766   0.516   4.205   4.993  0.2104 -0.3140  1.1610
  318MOL0     C43767   0.366   4.197   4.966  0.2200  0.1801 -0.8348
  318MOL0     C43768   0.335   4.178   4.810 -0.7728  0.5347  0.9105
  318MOL0     C43769   0.194   4.129   4.778 -0.1685 -0.8332  0.7464
  318MOL0     O43770   0.217   4.098   4.640  0.0988  0.3857 -0.0520
  318MOL0     C43771   0.161   4.172   4.537  0.7279 -0.0165  0.7695
  318MOL0     C43772   0.103   4.310   4.556  0.0377  1.2263 -1.0348
  318MOL0     C43773   0.087   4.392   4.453  1.1506 -0.6159 -0.2689
  318MOL0     C43774   0.041   4.534   4.483  0.9817 -0.8910  0.2165
  318MOL0     C43775   0.103   4.347   4.310  0.1616 -0.8372  0.4608
  318MOL0     C43776   0.088   4.426   4.186  0.0181  0.3309  1.1746
  318MOL0     O43777   0.113   4.367   4.069  0.9502 -0.4746 -0.5702
  318MOL0     C43778   0.034   4.416   3.969  0.3810  0.1934  0.8365
  318MOL0     C43779  -0.111   4.422   3.961 -0.0999 -0.0854 -0.0111
  318MOL0     C43780  -0.172   4.490   3.863  1.2416 -0.0185 -0.5335
  318MOL0     C43781  -0.108   4.547   3.756 -0.2534 -0.8873 -0.2777
  318MOL0     O43782  -0.191   4.595   3.662  0.8471  0.3975  1.0133
  318MOL0     C43783  -0.145   4.680   3.547  0.6331 -0.0912 -0.1138
  318MOL0     C43784  -0.257   4.699   3.439  0.1547 -0.8484  1.0029
  318MOL0     C43785  -0.372   4.786   3.496  0.4337 -0.7211 -0.2091
  318MOL0     C43786  -0.490   4.814   3.402 -0.9158  0.1884  0.4422
  318MOL0     C43787  -0.593   4.884   3.489 -0.6124 -0.0776  0.3093
  318MOL0     C43788  -0.678   4.978   3.401  0.2515 -0.4184  0.0240
  318MOL0     C43789  -0.783   4.913   3.310  0.3310  0.2770  0.4057
  318MOL0     C43790  -0.849   5.015   3.222  0.7369  0.1156 -0.1824
  318MOL0    Cl43791  -0.943   5.132   3.317 -0.1583  0.0860  0.0421
  318MOL0     C43792   0.032   4.546   3.756 -0.0313 -0.3906  0.2588
  318MOL0     C43793   0.103   4.483   3.859  0.2352  0.6161 -0.4441
  318MOL0     O43794   0.089   4.550   4.203  0.3906  0.0579 -0.0823
  318MOL0     C43795   0.150   4.217   4.304  0.7152 -1.3607  0.3802
  318MOL0     C43796   0.176   4.126   4.404  0.4965 -0.2582 -1.3699
  318MOL0     N43797   0.477   4.181   5.247  0.9793  0.0644  0.1737
  318MOL0     N43798   0.507   4.250   5.353 -0.3274 -0.3163  0.6568
  318MOL0     C43799   1.092   4.393   6.383  0.2181  0.0065  1.1997
  318MOL0     C43800   1.203   4.304   6.397 -0.4209  0.1694  0.1587
  318MOL0     C43801   1.503   3.980   6.371 -1.0448  1.0154 -1.2683
  318MOL0     C43802   1.604   3.977   6.282 -0.3568 -0.6510  0.3039
  318MOL0     C43803   1.691   3.861   6.286  0.9280  0.1755 -0.1236
  318MOL0     C43804   1.669   3.749   6.360  0.4379  0.0731  0.3480
  318MOL0     O43805   1.784   3.666   6.357  0.6389  0.2350 -0.2619
  318MOL0     C43806   1.777   3.540   6.426  0.9011 -1.0060  0.1338
  318MOL0     C43807   1.879   3.439   6.397  0.2093  0.3443 -0.2578
  318MOL0     C43808   1.885   3.411   6.241  0.7116  0.7784 -0.0055
  318MOL0     C43809   1.991   3.296   6.210 -0.4035  0.0196  0.0986
  318MOL0     C43810   1.925   3.170   6.201 -0.5825  0.2595  0.0519
  318MOL0     C43811   1.862   3.059   6.202 -1.2210  0.4360 -0.2982
  318MOL0     C43812   1.564   3.742   6.439  0.4080  0.4594 -0.0967
  318MOL0     C43813   1.471   3.860   6.452 -0.6189 -0.2267  1.0814
  318MOL0     C43814   1.371   3.870   6.560  0.1276 -0.0215 -0.8421
  318MOL0     H43815   1.039   4.020   6.321 -1.5295  0.2326  2.6458
  318MOL0     H43816   0.853   4.185   6.281 -0.7631  1.8401  1.1868
  318MOL0     H43817   0.710   4.524   6.204 -1.9286 -2.3898  1.4819
  318MOL0     H43818   0.702   4.364   6.258 -1.8415  1.2221  0.4479
  318MOL0     H43819   0.899   4.483   6.057  3.8831 -2.1454  1.9537
  318MOL0     H43820   0.878   4.305   6.071 -1.8156 -1.2684 -1.7062
  318MOL0     H43821   0.634   4.340   5.978 -0.2940  2.4565  0.4228
  318MOL0     H43822   0.680   4.507   5.948  1.4464  2.4662 -1.8571
  318MOL0     H43823   0.825   4.445   5.771  1.0396 -0.8947 -1.3410
  318MOL0     H43824   0.854   4.283   5.833 -0.8024 -0.3811  0.4287
  318MOL0     H43825   0.589   4.367   5.715  0.6712 -0.3676 -0.9429
  318MOL0     H43826   0.613   4.206   5.782 -2.0295  1.5437  0.0403
  318MOL0     H43827   0.793   4.151   5.663  0.0478  2.3269  3.6925
  318MOL0     H43828   0.655   4.161   5.554  2.3875 -1.7770 -1.1077
  318MOL0     H43829   0.854   4.239   5.438  0.2540 -0.6726  0.1193
  318MOL0     H43830   0.863   4.378   5.558 -0.5606 -0.1340  0.6786
  318MOL0     H43831   0.649   4.460   5.472  1.5804  1.3361 -0.2903
  318MOL0     H43832   0.787   4.436   5.364  2.1715 -2.2144  0.0842
  318MOL0     H43833   0.746   4.311   5.132 -0.6985 -0.2753  0.6988
  318MOL0     H43834   0.576   4.127   4.944  2.3586  0.8616  1.8097
  318MOL0     H43835   0.542   4.295   4.937 -1.7205 -1.0174 -1.0542
  318MOL0     H43836   0.332   4.110   5.023  2.3649  0.7096  1.4320
  318MOL0     H43837   0.320   4.291   4.999 -0.3204 -0.6729  0.9677
  318MOL0     H43838   0.358   4.270   4.755 -1.2929 -0.8197 -1.6773
  318MOL0     H43839   0.409   4.103   4.781 -0.2733  1.5420 -0.5313
  318MOL0     H43840   0.169   4.044   4.842  1.3272 -0.3917  1.9865
  318MOL0     H43841   0.116   4.204   4.794  0.5932  0.4586 -1.1993
  318MOL0     H43842   0.106   4.357   4.653 -5.3108  2.2269 -1.0643
  318MOL0     H43843  -0.061   4.560   4.451  1.5240  1.2748  0.0799
  318MOL0     H43844   0.107   4.612   4.444 -1.2941  1.8932  1.4905
  318MOL0     H43845   0.038   4.556   4.591  0.5947 -1.1945  0.2727
  318MOL0     H43846  -0.174   4.379   4.038 -3.0009  0.8256 -1.7576
  318MOL0     H43847  -0.280   4.480   3.861  1.2927 -0.9278  0.3376
  318MOL0     H43848  -0.095   4.770   3.583  1.1856  0.2590 -1.6806
  318MOL0     H43849  -0.065   4.629   3.492 -1.1785 -1.3251 -1.6936
  318MOL0     H43850  -0.205   4.745   3.354  1.0353 -1.2606  1.3091
  318MOL0     H43851  -0.298   4.602   3.409 -1.2454  0.4819 -1.8018
  318MOL0     H43852  -0.330   4.883   3.523 -0.5260 -0.7446  1.5222
  318MOL0     H43853  -0.404   4.719   3.577 -0.5240  0.8012  0.7111
  318MOL0     H43854  -0.518   4.723   3.349 -0.8666  1.2375 -1.4606
  318MOL0     H43855  -0.456   4.880   3.321 -3.0395 -1.6797 -2.1195
  318MOL0     H43856  -0.653   4.817   3.552 -2.0198  1.0187  0.1727
  318MOL0     H43857  -0.528   4.950   3.548 -0.2973  0.8849 -1.0671
  318MOL0     H43858  -0.604   5.034   3.343 -0.1811  0.5584  0.3859
  318MOL0     H43859  -0.736   5.044   3.466  2.2371  1.2428  0.2251
  318MOL0     H43860  -0.862   4.864   3.368  0.8365 -1.2185 -0.1267
  318MOL0     H43861  -0.739   4.837   3.245  2.1511 -1.9706  3.9466
  318MOL0     H43862  -0.914   4.942   3.172  1.2460 -0.0529 -0.6173
  318MOL0     H43863  -0.785   5.069   3.151 -0.9701 -0.4650 -2.2489
  318MOL0     H43864   0.081   4.586   3.668 -0.0956  0.0460  0.4223
  318MOL0     H43865   0.212   4.484   3.866  0.1662 -0.9126  2.5494
  318MOL0     H43866   0.170   4.174   4.207 -1.7016  0.6179 -1.1051
  318MOL0     H43867   0.204   4.025   4.378 -3.0145 -2.7848  3.1416
  318MOL0     H43868   1.095   4.501   6.382 -0.0310  0.0219 -0.8795
  318MOL0     H43869   1.301   4.343   6.423 -0.2916 -0.9047  1.3392
  318MOL0     H43870   1.625   4.059   6.214 -0.3824 -0.1279  0.9118
  318MOL0     H43871   1.775   3.848   6.219  0.9056 -0.0527 -0.1099
  318MOL0     H43872   1.778   3.569   6.532 -0.9551  2.1125 -0.5644
  318MOL0     H43873   1.684   3.487   6.402  0.6516  0.0941 -1.4955
  318MOL0     H43874   1.856   3.354   6.462 -0.6094  0.3679 -0.5117
  318MOL0     H43875   1.983   3.467   6.416  1.0198 -2.0064 -0.8296
  318MOL0     H43876   1.787   3.390   6.196  1.2504 -2.1055 -0.0197
  318MOL0     H43877   1.918   3.507   6.202 -3.8388  3.2823  1.5738
  318MOL0     H43878   2.063   3.296   6.292  1.7681 -1.7413 -1.6916
  318MOL0     H43879   2.042   3.324   6.118 -0.4369 -3.3953 -1.1142
  318MOL0     H43880   1.824   2.964   6.231  0.8976 -0.4310 -0.1661
  318MOL0     H43881   1.539   3.653   6.497  0.3131 -1.0303 -2.2919
  318MOL0     H43882   1.402   3.950   6.628  3.8154 -1.2576 -0.8426
  318MOL0     H43883   1.269   3.881   6.522 -0.8197 -3.4304  0.3098
  318MOL0     H43884   1.377   3.780   6.622 -0.5981  0.1255 -0.5503
  319MOL0     O43885   6.194   7.738   5.626 -0.3205 -0.0872 -0.2682
  319MOL0     C43886   6.314   7.758   5.628  0.0795 -0.3906  0.5431
  319MOL0     O43887   6.373   7.826   5.730  0.0043 -0.7520  0.5937
  319MOL0     C43888   6.309   7.906   5.829  1.2625 -0.3269 -0.6186
  319MOL0     C43889   6.397   7.927   5.937  0.6568 -0.3387 -0.8910
  319MOL0     C43890   6.368   8.007   6.043  0.2343 -0.0517 -0.7261
  319MOL0     C43891   6.230   8.047   6.061  0.1859  0.6352 -0.0164
  319MOL0     O43892   6.180   8.105   6.180  0.9163  0.1097  0.4716
  319MOL0     C43893   6.276   8.161   6.267 -0.4874  0.3176 -0.3973
  319MOL0     C43894   6.359   8.278   6.223 -0.3690  0.2930  0.0504
  319MOL0     C43895   6.278   8.393   6.170 -0.2779 -0.9605 -0.1225
  319MOL0     C43896   6.358   8.516   6.120 -0.0268  0.0855  0.1437
  319MOL0     C43897   6.267   8.596   6.046 -1.1558  0.3796 -0.7673
  319MOL0     C43898   6.333   8.717   5.985 -0.7248  0.7250  0.3348
  319MOL0     C43899   6.252   8.839   5.957  0.8336 -0.1826 -0.7858
  319MOL0     C43900   6.141   8.802   5.853  0.1374 -0.6847  0.0438
  319MOL0     N43901   6.005   8.848   5.890  0.2350 -0.3281  0.3240
  319MOL0     C43902   5.936   8.827   6.001  0.0617 -0.0646  0.8415
  319MOL0     C43903   5.817   8.891   5.982 -0.2761  0.1569  0.4902
  319MOL0     C43904   5.695   8.882   6.072 -0.1416 -0.6019 -0.9701
  319MOL0     C43905   5.735   8.902   6.219  0.5484  0.3619  0.3009
  319MOL0     C43906   5.618   8.889   6.322  0.0649 -0.7758 -0.6336
  319MOL0     C43907   5.486   8.950   6.291  0.0613 -0.3171 -0.2336
  319MOL0     O43908   5.385   8.874   6.364 -0.0713  0.1779  0.7070
  319MOL0     C43909   5.267   8.952   6.397  0.5181  0.1096 -0.0010
  319MOL0     C43910   5.201   9.028   6.303 -0.4090  0.2132  0.1009
  319MOL0     C43911   5.073   9.089   6.334 -0.7768  0.0940  1.0322
  319MOL0     C43912   5.015   9.172   6.224 -0.4505 -0.6840 -0.1173
  319MOL0     C43913   5.006   9.059   6.459  0.3094 -0.0470 -0.6937
  319MOL0     C43914   4.872   9.103   6.503  1.5669  0.2686  0.8575
  319MOL0     O43915   4.844   9.096   6.634  0.5205 -0.3394 -0.5813
  319MOL0     C43916   4.729   9.146   6.692  0.8630  0.6121  0.0907
  319MOL0     C43917   4.639   9.053   6.742 -1.7555  0.4452 -0.0754
  319MOL0     C43918   4.536   9.090   6.826  0.3112 -0.6739  0.0825
  319MOL0     C43919   4.512   9.229   6.855 -0.7855 -0.9983  0.1001
  319MOL0     O43920   4.415   9.284   6.935 -0.7267  0.6675 -0.3682
  319MOL0     C43921   4.313   9.202   6.987  0.6766  0.7704 -0.3870
  319MOL0     C43922   4.328   9.197   7.133 -0.2687 -0.2437 -1.2812
  319MOL0     C43923   4.288   9.325   7.213  0.0565 -0.0721  1.0859
  319MOL0     C43924   4.311   9.306   7.361  0.5407  0.1710 -0.0683
  319MOL0     C43925   4.236   9.420   7.441 -0.7124  0.7918  0.4484
  319MOL0     C43926   4.079   9.423   7.440  0.0544  0.2941  0.9748
  319MOL0     C43927   4.022   9.278   7.488  0.2957  1.4375  0.5082
  319MOL0     C43928   3.867   9.273   7.507  0.3151 -0.0107  1.5893
  319MOL0    Cl43929   3.785   9.346   7.362 -0.3056  0.2263  0.1448
  319MOL0     C43930   4.618   9.321   6.810  1.3681  0.6120 -0.5905
  319MOL0     C43931   4.719   9.283   6.723  0.0041  0.0472  0.0148
  319MOL0     O43932   4.782   9.126   6.420 -0.4162 -0.0961  0.9350
  319MOL0     C43933   5.087   8.993   6.564 -0.0026  0.3239 -0.3416
  319MOL0     C43934   5.205   8.933   6.528 -0.5661 -0.9116  0.2515
  319MOL0     N43935   5.822   8.950   5.859  0.1010  0.3048 -0.1321
  319MOL0     N43936   5.935   8.925   5.796 -0.2882 -0.0716  0.0813
  319MOL0     C43937   6.134   8.034   5.956 -0.1982 -0.4286  0.6900
  319MOL0     C43938   6.173   7.956   5.848 -1.1039  0.3362 -0.1010
  319MOL0     C43939   6.412   7.730   5.518  0.3323 -0.0327  0.1097
  319MOL0     C43940   6.535   7.801   5.524  0.0644  0.0224 -0.8976
  319MOL0     C43941   6.622   7.801   5.417 -0.7897 -0.1302  0.4574
  319MOL0     C43942   6.607   7.716   5.309  1.1378 -0.2801  0.1947
  319MOL0     O43943   6.714   7.713   5.229 -0.4234 -0.3736  0.2404
  319MOL0     C43944   6.695   7.659   5.098  0.1268 -0.0482  0.0132
  319MOL0     C43945   6.836   7.647   5.038  0.4684  0.5733 -0.5672
  319MOL0     C43946   6.816   7.577   4.897 -0.3878 -0.1042  0.1503
  319MOL0     C43947   6.943   7.568   4.809  0.3212 -1.3006  0.3475
  319MOL0     C43948   7.000   7.699   4.776  0.5199 -0.3495 -0.1871
  319MOL0     C43949   7.053   7.811   4.768  0.1043 -0.1030 -0.2568
  319MOL0     C43950   6.493   7.636   5.307 -0.5994  0.1835  0.0859
  319MOL0     C43951   6.396   7.642   5.406  0.0588 -0.3134 -1.7655
  319MOL0     C43952   6.274   7.566   5.384 -0.3131 -1.1431  0.0879
  319MOL0     H43953   6.494   7.877   5.936  1.8596  1.8222 -0.0162
  319MOL0     H43954   6.448   8.032   6.113 -2.8921  1.9487  2.4788
  319MOL0     H43955   6.355   8.091   6.298 -0.8432 -1.7073 -3.5637
  319MOL0     H43956   6.230   8.187   6.363 -0.0227  2.2932 -0.6696
  319MOL0     H43957   6.418   8.306   6.310 -3.0539 -1.2919  2.5318
  319MOL0     H43958   6.425   8.237   6.145  1.1148  2.0011  0.3524
  319MOL0     H43959   6.225   8.349   6.085 -1.8278 -1.6270  1.1258
  319MOL0     H43960   6.207   8.418   6.249  2.1603 -1.1924  2.2800
  319MOL0     H43961   6.400   8.572   6.204  0.0087 -0.2189  0.3319
  319MOL0     H43962   6.442   8.484   6.058 -0.2097 -0.2468  0.0682
  319MOL0     H43963   6.194   8.631   6.120 -0.6433 -0.7210  0.2810
  319MOL0     H43964   6.215   8.536   5.971  0.3942 -1.9957 -0.0470
  319MOL0     H43965   6.423   8.750   6.037 -0.8157  1.2022  0.1895
  319MOL0     H43966   6.384   8.701   5.889 -0.8941  1.7848  0.0576
  319MOL0     H43967   6.311   8.926   5.927 -0.2515  1.1438  0.7539
  319MOL0     H43968   6.199   8.857   6.051  2.5831  2.4252 -0.1919
  319MOL0     H43969   6.169   8.849   5.758  2.3526 -0.9709  0.4919
  319MOL0     H43970   6.142   8.694   5.834  1.7147 -0.7904  0.5640
  319MOL0     H43971   5.958   8.770   6.091  2.9561 -0.4801 -0.0265
  319MOL0     H43972   5.649   8.783   6.059  2.2564 -1.8307 -0.5894
  319MOL0     H43973   5.633   8.971   6.059  0.6519  0.5278  2.0964
  319MOL0     H43974   5.821   8.840   6.246  1.4486  1.2847 -0.3731
  319MOL0     H43975   5.769   9.006   6.219 -1.8781  1.2376  1.6187
  319MOL0     H43976   5.615   8.792   6.373 -2.6434  1.0806  3.2187
  319MOL0     H43977   5.644   8.957   6.405 -2.2625  0.5684 -0.9288
  319MOL0     H43978   5.473   9.056   6.313 -1.2115  0.0544 -2.5323
  319MOL0     H43979   5.467   8.939   6.184 -0.4707 -0.1013 -0.1662
  319MOL0     H43980   5.255   9.055   6.214  1.6281  2.0876  1.7783
  319MOL0     H43981   5.085   9.185   6.141  3.2833 -0.0842  2.8651
  319MOL0     H43982   4.983   9.263   6.274 -1.8861 -1.7114  0.9436
  319MOL0     H43983   4.929   9.117   6.183  1.2659 -1.8089 -2.4912
  319MOL0     H43984   4.669   8.949   6.740 -1.3230  0.5476  0.8087
  319MOL0     H43985   4.480   9.011   6.875  0.4262 -0.3690  0.7181
  319MOL0     H43986   4.218   9.252   6.970  0.2666  0.7645  1.6924
  319MOL0     H43987   4.303   9.103   6.941  2.4351  0.5613 -0.3944
  319MOL0     H43988   4.269   9.119   7.182  0.0264  0.7407  0.7329
  319MOL0     H43989   4.434   9.178   7.149 -0.6029  0.2951  2.5017
  319MOL0     H43990   4.189   9.364   7.192  1.6670  3.0697 -1.7055
  319MOL0     H43991   4.358   9.402   7.178  0.7529 -2.3830 -3.4912
  319MOL0     H43992   4.419   9.309   7.380  0.5066 -0.6382  0.2963
  319MOL0     H43993   4.272   9.208   7.392  2.5107 -0.4859  0.5030
  319MOL0     H43994   4.269   9.420   7.546 -0.3662 -0.4348  0.3552
  319MOL0     H43995   4.284   9.507   7.396  3.1457 -0.5038  1.6883
  319MOL0     H43996   4.047   9.452   7.340  1.5284  2.2795  1.0102
  319MOL0     H43997   4.036   9.495   7.510 -0.1056  0.7503  0.4141
  319MOL0     H43998   4.062   9.246   7.585 -0.1405 -2.4006 -0.4110
  319MOL0     H43999   4.042   9.202   7.412 -2.6833 -1.2824  2.1927
  319MOL0     H44000   3.834   9.322   7.598  3.1888  1.5826  1.8957
  319MOL0     H44001   3.843   9.167   7.514 -0.6602  0.1556  0.9806
  319MOL0     H44002   4.619   9.428   6.828 -0.1544  0.7743 -1.3790
  319MOL0     H44003   4.782   9.365   6.690  2.0135 -0.8869  1.3900
  319MOL0     H44004   5.044   8.992   6.664 -1.4949  1.1646 -0.9381
  319MOL0     H44005   5.257   8.876   6.603  1.6491 -1.5745 -1.6750
  319MOL0     H44006   6.036   8.070   5.984  0.4828  0.7575  1.6382
  319MOL0     H44007   6.103   7.924   5.770 -1.2223 -1.0043  0.5219
  319MOL0     H44008   6.552   7.869   5.607  2.0368 -1.8432  0.3290
  319MOL0     H44009   6.712   7.862   5.418 -1.4402  0.8743 -0.4922
  319MOL0     H44010   6.653   7.559   5.085  1.4138 -0.7488  0.9866
  319MOL0     H44011   6.635   7.732   5.043 -2.0253  1.4553  3.9419
  319MOL0     H44012   6.892   7.571   5.093  2.1782  1.3033 -1.2218
  319MOL0     H44013   6.899   7.736   5.038  0.8238  0.3291 -1.0478
  319MOL0     H44014   6.791   7.473   4.919  2.8740 -1.0199  0.0532
  319MOL0     H44015   6.735   7.624   4.841  0.7495  1.6291 -0.1233
  319MOL0     H44016   6.904   7.521   4.718 -2.8818 -1.8011  1.8296
  319MOL0     H44017   7.022   7.504   4.849  0.2840 -0.5120  1.7394
  319MOL0     H44018   7.101   7.906   4.761 -1.8567  0.8869 -0.9201
  319MOL0     H44019   6.479   7.563   5.228 -2.5428  0.0298  0.5339
  319MOL0     H44020   6.246   7.559   5.279 -0.6294 -1.7648  0.2070
  319MOL0     H44021   6.285   7.462   5.415 -0.4006 -1.7636 -1.8413
  319MOL0     H44022   6.181   7.606   5.426 -0.9545 -0.4614 -1.9003
  320MOL0     O44023   1.820   1.594   2.471 -0.4116  0.0025  0.3857
  320MOL0     C44024   1.878   1.631   2.573  0.1182  0.3155 -0.5245
  320MOL0     O44025   1.881   1.569   2.687 -0.9441  0.1745 -0.6268
  320MOL0     C44026   1.775   1.492   2.734 -0.0543  0.6038 -0.2619
  320MOL0     C44027   1.781   1.465   2.871 -0.4048 -0.8144 -0.4942
  320MOL0     C44028   1.685   1.396   2.942 -0.5183  0.8901  0.6270
  320MOL0     C44029   1.569   1.352   2.870 -0.4465 -0.1387  0.4931
  320MOL0     O44030   1.471   1.280   2.930 -1.0211  1.0618 -0.2119
  320MOL0     C44031   1.365   1.214   2.847  0.0981 -0.5701  0.3281
  320MOL0     C44032   1.309   1.114   2.947  0.3171 -0.0902 -0.0943
  320MOL0     C44033   1.389   0.985   2.969  0.6049  0.2331 -0.1613
  320MOL0     C44034   1.362   0.873   2.867 -0.2360  0.3334 -0.1185
  320MOL0     C44035   1.404   0.739   2.908 -0.5513  0.9462 -0.2692
  320MOL0     C44036   1.557   0.732   2.928 -0.3775 -0.3615  0.8608
  320MOL0     C44037   1.648   0.773   2.809 -1.1914 -1.0324  0.4365
  320MOL0     C44038   1.788   0.757   2.857  0.4594 -1.0352  0.0320
  320MOL0     N44039   1.824   0.865   2.955 -0.7587 -0.6022 -0.2602
  320MOL0     C44040   1.861   1.003   2.921  0.0681 -0.6394  0.2117
  320MOL0     C44041   1.912   1.045   3.041  0.5473 -0.4118  0.8867
  320MOL0     C44042   1.957   1.187   3.069  0.1885  0.2252  0.5342
  320MOL0     C44043   1.919   1.243   3.210  0.8233 -1.1742  1.4536
  320MOL0     C44044   1.982   1.389   3.235  0.6782  0.5898 -0.5246
  320MOL0     C44045   1.918   1.456   3.348  0.3584 -0.7035 -0.4158
  320MOL0     O44046   1.961   1.398   3.467 -0.2702  0.7445 -0.7966
  320MOL0     C44047   1.902   1.434   3.589 -0.1696  0.3464  0.0986
  320MOL0     C44048   1.953   1.360   3.694  0.3376  0.2623  0.7626
  320MOL0     C44049   1.926   1.397   3.826 -0.6880 -0.2369  0.2362
  320MOL0     C44050   1.997   1.311   3.928  0.4355  0.0720 -0.2636
  320MOL0     C44051   1.834   1.504   3.856 -0.4210  0.2478 -0.1855
  320MOL0     C44052   1.797   1.543   3.995  0.3140  0.4390 -0.0135
  320MOL0     O44053   1.845   1.475   4.098 -0.4229  0.9261 -0.2401
  320MOL0     C44054   1.812   1.478   4.232 -0.1122 -0.1393 -0.1933
  320MOL0     C44055   1.745   1.588   4.294  0.0820 -0.3396  0.1926
  320MOL0     C44056   1.738   1.591   4.432  0.6796 -0.3126 -0.6790
  320MOL0     C44057   1.784   1.500   4.514 -1.0376 -0.0959 -0.7026
  320MOL0     O44058   1.776   1.519   4.649  0.3931  0.4023 -0.1389
  320MOL0     C44059   1.804   1.412   4.745 -0.3639  0.0894 -0.3808
  320MOL0     C44060   1.899   1.469   4.859  0.3422 -0.1404 -0.1254
  320MOL0     C44061   1.911   1.360   4.960  0.2964 -0.3178 -0.0027
  320MOL0     C44062   2.042   1.361   5.031 -0.9060  0.2501 -0.2942
  320MOL0     C44063   2.082   1.246   5.119 -0.0624  0.4508 -0.2833
  320MOL0     C44064   1.964   1.210   5.221 -0.2302 -0.5561  0.3787
  320MOL0     C44065   2.011   1.134   5.340  0.7721  0.7397 -0.5498
  320MOL0     C44066   1.902   1.058   5.412  0.3171 -0.1587  0.1477
  320MOL0    Cl44067   1.948   1.043   5.585 -0.1046  0.1742  0.1131
  320MOL0     C44068   1.850   1.384   4.459  0.0733  0.4096  0.5493
  320MOL0     C44069   1.862   1.371   4.321 -0.4132 -0.5009  1.6046
  320MOL0     O44070   1.695   1.622   3.996 -0.4766  0.1857  0.1243
  320MOL0     C44071   1.773   1.567   3.749 -0.6659 -0.3511  0.2288
  320MOL0     C44072   1.802   1.535   3.612  0.3043  0.9673 -0.2134
  320MOL0     N44073   1.902   0.944   3.137 -0.2583 -0.0204  0.5933
  320MOL0     N44074   1.862   0.840   3.082  0.3830 -0.1886 -0.9520
  320MOL0     C44075   1.547   1.391   2.737 -0.1575  1.0202  0.7633
  320MOL0     C44076   1.650   1.451   2.666 -0.2709  0.2918  0.2696
  320MOL0     C44077   1.972   1.740   2.544 -0.9776 -0.3834  0.0769
  320MOL0     C44078   2.053   1.728   2.438  0.4357 -0.2203 -0.3267
  320MOL0     C44079   2.122   1.832   2.392 -0.4404 -0.1563  0.8415
  320MOL0     C44080   2.127   1.957   2.462 -1.0333 -0.1497  0.2796
  320MOL0     O44081   2.197   2.060   2.408 -0.4845  0.5662 -0.1876
  320MOL0     C44082   2.252   2.162   2.484  0.0699 -0.7890 -0.8786
  320MOL0     C44083   2.342   2.123   2.600 -0.3119 -0.7222  0.2285
  320MOL0     C44084   2.393   2.258   2.671  0.2912  0.6343  0.5707
  320MOL0     C44085   2.496   2.235   2.784  0.4997  0.6614  0.1574
  320MOL0     C44086   2.455   2.125   2.870 -0.0549  0.0537 -0.7731
  320MOL0     C44087   2.401   2.068   2.959  0.2681 -0.3483 -0.4595
  320MOL0     C44088   2.042   1.967   2.574  0.3717 -0.1286  0.9282
  320MOL0     C44089   1.956   1.864   2.604  0.4399 -0.3417  1.4719
  320MOL0     C44090   1.853   1.892   2.719  0.1211  0.4756  0.4108
  320MOL0     H44091   1.871   1.491   2.926 -0.4275 -0.8650 -0.4323
  320MOL0     H44092   1.694   1.364   3.045 -2.2361 -2.3413 -0.1007
  320MOL0     H44093   1.409   1.169   2.758 -0.8202  0.9437 -0.9387
  320MOL0     H44094   1.292   1.294   2.830  0.6821 -0.3943 -1.5460
  320MOL0     H44095   1.288   1.172   3.038 -3.8683 -0.6381 -0.4873
  320MOL0     H44096   1.211   1.082   2.909 -0.3607  0.8510  0.8026
  320MOL0     H44097   1.497   1.006   2.967  0.5835  0.5007  0.8662
  320MOL0     H44098   1.360   0.942   3.065  0.7535  1.8774  0.6573
  320MOL0     H44099   1.260   0.855   2.831 -1.3922 -0.8904  3.3491
  320MOL0     H44100   1.417   0.900   2.776 -1.1206  0.3448 -0.6626
  320MOL0     H44101   1.391   0.683   2.815  0.4200 -0.2846  0.3038
  320MOL0     H44102   1.352   0.705   2.997  2.5202 -0.0886  1.2926
  320MOL0     H44103   1.581   0.796   3.013 -0.8569  0.8431  0.1117
  320MOL0     H44104   1.584   0.629   2.953  2.5386  0.4329  1.3888
  320MOL0     H44105   1.627   0.875   2.776  2.8982  1.1721  3.7785
  320MOL0     H44106   1.646   0.707   2.722  0.7921 -0.5850  0.0194
  320MOL0     H44107   1.795   0.657   2.899  0.2969  0.0898  2.9916
  320MOL0     H44108   1.852   0.762   2.769  0.2405  0.0636 -0.0809
  320MOL0     H44109   1.853   1.061   2.829 -0.5298 -1.0155  0.0246
  320MOL0     H44110   1.931   1.253   2.986  2.9227  0.2822 -0.3634
  320MOL0     H44111   2.065   1.178   3.063  0.1644  0.3651 -0.2880
  320MOL0     H44112   1.809   1.248   3.211  0.8631  0.2099  1.6443
  320MOL0     H44113   1.954   1.183   3.294  1.4792 -0.1701  1.9173
  320MOL0     H44114   2.079   1.362   3.278 -0.3476  1.6391  2.6931
  320MOL0     H44115   1.970   1.456   3.149 -2.5803  3.2142  1.7308
  320MOL0     H44116   1.957   1.558   3.343  2.3243 -1.4789 -2.2721
  320MOL0     H44117   1.809   1.452   3.337  0.2452 -1.5420  0.7795
  320MOL0     H44118   2.027   1.284   3.669 -1.7614 -1.5214 -0.4560
  320MOL0     H44119   1.932   1.264   4.002 -0.7807  1.6494 -0.2923
  320MOL0     H44120   2.065   1.379   3.981  0.1869 -0.0455  0.2121
  320MOL0     H44121   2.067   1.237   3.887  0.8207  1.1269 -1.5903
  320MOL0     H44122   1.697   1.672   4.244  0.7563 -0.1996 -0.2330
  320MOL0     H44123   1.700   1.682   4.478  0.1570  0.1616 -2.0049
  320MOL0     H44124   1.710   1.375   4.787 -0.1204  3.6090  4.0955
  320MOL0     H44125   1.853   1.322   4.709 -0.9392  0.4850 -2.2661
  320MOL0     H44126   1.992   1.509   4.816  0.9209  1.4204  2.3934
  320MOL0     H44127   1.848   1.554   4.906  2.2731  1.0329 -0.0521
  320MOL0     H44128   1.897   1.265   4.906 -1.8543  0.7739 -1.5161
  320MOL0     H44129   1.829   1.358   5.033  0.5420  0.0087  0.2839
  320MOL0     H44130   2.059   1.448   5.095  1.8631  0.2377 -0.8869
  320MOL0     H44131   2.127   1.368   4.963  0.7193 -0.2350  1.6007
  320MOL0     H44132   2.099   1.166   5.046  0.8628  1.7908 -1.5695
  320MOL0     H44133   2.173   1.264   5.176 -0.5835  1.2173  0.3253
  320MOL0     H44134   1.883   1.160   5.165 -1.7750 -1.6107  3.3122
  320MOL0     H44135   1.925   1.307   5.251  1.8694  0.5795 -0.3605
  320MOL0     H44136   2.061   1.199   5.412 -0.6711 -0.0318  1.2403
  320MOL0     H44137   2.084   1.062   5.300 -1.6069 -1.5718 -1.0059
  320MOL0     H44138   1.883   0.956   5.378  3.3456 -0.0981 -2.1975
  320MOL0     H44139   1.807   1.111   5.406 -0.0072 -0.8395 -0.9270
  320MOL0     H44140   1.906   1.306   4.508  4.6648  2.1702 -1.3161
  320MOL0     H44141   1.916   1.286   4.283  1.8450  1.6894 -0.4365
  320MOL0     H44142   1.685   1.630   3.757  0.3139  1.1922 -0.7595
  320MOL0     H44143   1.758   1.578   3.522 -1.4748 -1.1400 -0.4421
  320MOL0     H44144   1.465   1.366   2.671  0.7926  0.7497 -0.3506
  320MOL0     H44145   1.636   1.467   2.560 -0.7845  1.4409  0.4943
  320MOL0     H44146   2.063   1.626   2.401  1.4974 -0.0176 -0.6304
  320MOL0     H44147   2.169   1.826   2.294  1.1961 -1.0787  1.6454
  320MOL0     H44148   2.307   2.231   2.419  3.3134  0.3250  2.6522
  320MOL0     H44149   2.176   2.221   2.536  3.8125  1.0792  3.1213
  320MOL0     H44150   2.424   2.069   2.552  1.2105 -0.3455  2.2765
  320MOL0     H44151   2.284   2.053   2.661 -1.4985 -0.2710 -0.3481
  320MOL0     H44152   2.440   2.319   2.594  0.4807  0.9084  0.9029
  320MOL0     H44153   2.304   2.306   2.713 -0.2460 -2.4665  3.4214
  320MOL0     H44154   2.509   2.326   2.842  0.7214  1.6178 -1.3471
  320MOL0     H44155   2.590   2.215   2.732 -0.4572  2.9350 -2.7309
  320MOL0     H44156   2.348   2.023   3.040  1.5153  3.2147  2.6084
  320MOL0     H44157   2.035   2.060   2.630 -2.3016 -0.2437  0.8827
  320MOL0     H44158   1.753   1.860   2.689  0.7858 -2.3291  0.9200
  320MOL0     H44159   1.886   1.859   2.818 -2.9393 -0.1101  1.3483
  320MOL0     H44160   1.844   2.001   2.731 -4.5938  0.0150  4.3270
  321MOL0     O44161   6.535   3.872   3.872  0.1886  0.8096 -0.0167
  321MOL0     C44162   6.563   3.756   3.863  0.2405  1.0100 -0.3507
  321MOL0     O44163   6.494   3.659   3.802  0.7347 -0.0661 -0.5489
  321MOL0     C44164   6.377   3.681   3.739  0.4882 -0.6641  0.4942
  321MOL0     C44165   6.358   3.664   3.603  0.3239 -0.1037  0.3330
  321MOL0     C44166   6.240   3.713   3.537 -1.2579 -0.0957  0.8100
  321MOL0     C44167   6.133   3.751   3.616  0.3074  0.4936 -0.0678
  321MOL0     O44168   6.008   3.778   3.570  0.3169  0.8571  0.3164
  321MOL0     C44169   5.991   3.815   3.432  0.3063  0.1571 -0.7498
  321MOL0     C44170   5.912   3.703   3.357  0.6395  0.2337 -1.2493
  321MOL0     C44171   5.789   3.646   3.434 -0.5140 -0.2955 -0.0924
  321MOL0     C44172   5.656   3.668   3.364  0.8892 -0.2242  0.3062
  321MOL0     C44173   5.531   3.621   3.432 -0.1297 -0.0936  0.2099
  321MOL0     C44174   5.407   3.619   3.340  1.5100 -0.2541 -0.3496
  321MOL0     C44175   5.344   3.761   3.345 -0.5091  0.2567 -0.1515
  321MOL0     C44176   5.229   3.792   3.255  0.1902 -0.1599  1.0725
  321MOL0     N44177   5.109   3.729   3.294 -0.5756  0.1033  0.0606
  321MOL0     C44178   5.049   3.738   3.415  0.0753  0.2038  0.0773
  321MOL0     C44179   4.944   3.657   3.404 -0.4861  0.3178 -0.1729
  321MOL0     C44180   4.854   3.608   3.522 -0.3257 -0.3983  0.5321
  321MOL0     C44181   4.911   3.656   3.652  0.1445 -0.2195 -0.2174
  321MOL0     C44182   4.817   3.607   3.768  0.1757 -0.0700 -1.5851
  321MOL0     C44183   4.887   3.613   3.903  0.9824  0.2642 -1.0532
  321MOL0     O44184   4.774   3.586   3.998  0.4451  0.1618 -0.2493
  321MOL0     C44185   4.802   3.569   4.134 -0.2403 -0.7886  0.3303
  321MOL0     C44186   4.931   3.613   4.194  0.0801  0.5178  0.3634
  321MOL0     C44187   4.948   3.616   4.330  0.1693  0.5837 -0.1903
  321MOL0     C44188   5.089   3.657   4.379  0.2027  0.3818  0.1585
  321MOL0     C44189   4.834   3.572   4.415 -1.2361 -0.7562 -0.7391
  321MOL0     C44190   4.852   3.546   4.561  0.0697  0.1969 -0.0782
  321MOL0     O44191   4.749   3.486   4.622 -0.7889 -0.2277 -0.1856
  321MOL0     C44192   4.749   3.448   4.757  0.2490 -0.0975  0.0088
  321MOL0     C44193   4.691   3.318   4.797 -1.0510 -0.3153  0.0359
  321MOL0     C44194   4.691   3.295   4.932 -0.4527  0.4771 -0.6146
  321MOL0     C44195   4.758   3.370   5.025  0.1820  0.3469  0.2407
  321MOL0     O44196   4.752   3.326   5.154  0.3189 -0.3679  0.3742
  321MOL0     C44197   4.879   3.275   5.198  0.1478 -0.5414  0.2825
  321MOL0     C44198   4.873   3.215   5.335  0.0575 -0.6894  0.1196
  321MOL0     C44199   4.746   3.124   5.345 -0.0308  0.7945 -0.1318
  321MOL0     C44200   4.764   2.994   5.247 -0.7141 -1.1842  0.0254
  321MOL0     C44201   4.628   2.931   5.219  0.6406 -0.0029 -0.9125
  321MOL0     C44202   4.562   2.881   5.352  0.1009 -0.2116 -0.4786
  321MOL0     C44203   4.626   2.759   5.422 -0.1407 -0.4158 -0.1288
  321MOL0     C44204   4.585   2.629   5.347  0.6265 -0.5099 -0.9140
  321MOL0    Cl44205   4.422   2.589   5.364  0.0935 -0.1157  0.4970
  321MOL0     C44206   4.803   3.491   4.986  0.0340 -0.3712 -0.0144
  321MOL0     C44207   4.812   3.523   4.856 -0.2858 -0.1440 -0.2802
  321MOL0     O44208   4.961   3.559   4.608 -0.3937 -0.6809  0.3383
  321MOL0     C44209   4.709   3.534   4.354 -0.8839  0.6188  0.1153
  321MOL0     C44210   4.695   3.535   4.213  0.5229 -0.1606  0.2214
  321MOL0     N44211   4.947   3.591   3.289 -0.3073 -0.1652 -1.0681
  321MOL0     N44212   5.029   3.646   3.218  0.1815  0.7252 -0.8611
  321MOL0     C44213   6.151   3.760   3.756  0.4941  0.4158 -0.4963
  321MOL0     C44214   6.271   3.737   3.814 -0.0650  0.7412 -1.0870
  321MOL0     C44215   6.679   3.708   3.934 -0.6562 -0.7906 -0.3478
  321MOL0     C44216   6.707   3.571   3.910 -0.0025 -0.1524  0.5079
  321MOL0     C44217   6.816   3.507   3.963  0.0831  0.1533  0.1928
  321MOL0     C44218   6.892   3.575   4.058 -0.3698  0.7255 -0.0535
  321MOL0     O44219   7.003   3.517   4.123  1.2232  0.1367 -0.3948
  321MOL0     C44220   7.093   3.432   4.045 -0.0344  0.0873  0.4358
  321MOL0     C44221   7.240   3.424   4.100 -0.2160 -0.2048 -0.8169
  321MOL0     C44222   7.295   3.572   4.098 -0.3227 -0.1396 -0.4293
  321MOL0     C44223   7.402   3.592   4.207 -0.3759  0.2176 -0.7918
  321MOL0     C44224   7.517   3.509   4.176  0.0856  0.2414  0.1841
  321MOL0     C44225   7.598   3.425   4.127 -0.8765 -0.0675  0.4067
  321MOL0     C44226   6.877   3.721   4.083 -0.0171  0.5579 -0.5474
  321MOL0     C44227   6.780   3.785   4.009  0.1996  0.6697  0.5565
  321MOL0     C44228   6.784   3.930   4.033 -0.6851 -0.7412  0.1128
  321MOL0     H44229   6.431   3.606   3.546 -1.9501 -1.7895 -1.0101
  321MOL0     H44230   6.232   3.700   3.429 -0.5201  1.0357  0.6004
  321MOL0     H44231   6.085   3.830   3.378  0.7872 -3.2345 -1.0897
  321MOL0     H44232   5.928   3.904   3.424  1.6487  1.0802 -1.5953
  321MOL0     H44233   5.893   3.739   3.256  0.0070  0.5180 -1.0296
  321MOL0     H44234   5.971   3.611   3.346 -3.4493 -3.4794  3.2591
  321MOL0     H44235   5.802   3.538   3.435 -1.9932 -0.5626  3.1809
  321MOL0     H44236   5.793   3.689   3.535  1.9666  1.2440 -0.7505
  321MOL0     H44237   5.650   3.772   3.331 -0.6851 -1.0594 -2.3532
  321MOL0     H44238   5.663   3.611   3.271  1.2328 -0.8749  0.7198
  321MOL0     H44239   5.513   3.674   3.526  0.2846 -1.4101  1.0680
  321MOL0     H44240   5.550   3.517   3.462  0.2209 -0.6793 -1.8761
  321MOL0     H44241   5.440   3.584   3.242  1.3896 -2.3805  0.3267
  321MOL0     H44242   5.323   3.560   3.376 -2.3211  5.0760  0.6342
  321MOL0     H44243   5.432   3.823   3.325 -1.1693  0.5252 -2.4903
  321MOL0     H44244   5.305   3.784   3.444 -1.7848 -2.5217  0.0783
  321MOL0     H44245   5.195   3.896   3.262 -0.9069 -0.4918  0.8490
  321MOL0     H44246   5.265   3.768   3.155  1.1846  0.2121  1.3189
  321MOL0     H44247   5.087   3.784   3.506  0.7049 -1.3325  0.6301
  321MOL0     H44248   4.857   3.501   3.500  1.9646 -0.7163  2.0259
  321MOL0     H44249   4.750   3.641   3.522  0.7664  3.6495  1.9058
  321MOL0     H44250   5.010   3.620   3.680 -0.2876 -1.6747 -0.4905
  321MOL0     H44251   4.898   3.764   3.661  1.9104  0.1761 -1.7958
  321MOL0     H44252   4.731   3.675   3.768  1.1896  1.3228 -3.1895
  321MOL0     H44253   4.782   3.507   3.745  2.1992 -1.4202  0.7342
  321MOL0     H44254   4.973   3.546   3.904  1.9537  1.4670  0.4709
  321MOL0     H44255   4.911   3.718   3.923 -0.1731  0.5453 -1.0762
  321MOL0     H44256   5.011   3.640   4.126 -0.1624  0.0153 -0.1379
  321MOL0     H44257   5.073   3.715   4.470  0.1396  3.5702 -1.7114
  321MOL0     H44258   5.135   3.743   4.328 -2.6933  0.0114 -3.4858
  321MOL0     H44259   5.167   3.581   4.380 -0.1625  0.0047  0.2040
  321MOL0     H44260   4.649   3.248   4.726  0.4658  0.1161 -1.3630
  321MOL0     H44261   4.638   3.207   4.964  0.6394  0.0378  0.0587
  321MOL0     H44262   4.905   3.199   5.123  2.1231 -0.3866  0.7608
  321MOL0     H44263   4.954   3.354   5.197 -0.1972 -0.1940  0.9736
  321MOL0     H44264   4.962   3.156   5.360  4.5027  3.2108 -4.2388
  321MOL0     H44265   4.860   3.295   5.409  0.6597  0.9555 -1.4601
  321MOL0     H44266   4.657   3.182   5.318 -1.3845 -0.9186  0.4084
  321MOL0     H44267   4.733   3.096   5.450 -0.2408  0.9858 -0.1082
  321MOL0     H44268   4.828   2.918   5.292 -1.9614 -1.2756  1.7058
  321MOL0     H44269   4.797   3.025   5.147 -2.6116  2.5948  0.3848
  321MOL0     H44270   4.557   3.004   5.178 -2.6466 -2.5185 -0.1248
  321MOL0     H44271   4.642   2.855   5.141  0.5910 -4.0038  2.5911
  321MOL0     H44272   4.456   2.862   5.331 -0.4167  1.1504  0.7200
  321MOL0     H44273   4.553   2.966   5.419  2.4365  0.2480 -0.6551
  321MOL0     H44274   4.594   2.765   5.527  2.5679  1.7584  0.6994
  321MOL0     H44275   4.735   2.771   5.412 -0.4778  1.1719 -3.0094
  321MOL0     H44276   4.637   2.542   5.388  1.8152  0.3584 -0.5331
  321MOL0     H44277   4.599   2.659   5.242 -0.0366  2.0504 -0.3422
  321MOL0     H44278   4.830   3.556   5.069  1.0750 -1.5025  0.5590
  321MOL0     H44279   4.852   3.620   4.832 -2.1764  0.6767 -0.2872
  321MOL0     H44280   4.627   3.487   4.408 -0.2862 -0.3160  0.2188
  321MOL0     H44281   4.609   3.502   4.156  2.1669 -0.8234 -2.0460
  321MOL0     H44282   6.064   3.803   3.803 -0.3278 -0.9532 -0.6958
  321MOL0     H44283   6.282   3.767   3.918  1.0539 -4.8099  0.7368
  321MOL0     H44284   6.660   3.500   3.841 -0.8514 -1.2522  2.1539
  321MOL0     H44285   6.836   3.400   3.960  1.8204  0.4566  0.0195
  321MOL0     H44286   7.060   3.329   4.028  1.9454 -0.4129 -0.6048
  321MOL0     H44287   7.099   3.482   3.947  2.7298 -2.8521 -1.1014
  321MOL0     H44288   7.302   3.355   4.043  0.1534 -3.1686  2.7533
  321MOL0     H44289   7.239   3.381   4.201  1.4114  0.7659 -0.3515
  321MOL0     H44290   7.329   3.595   3.996  1.5283  0.2518  0.2341
  321MOL0     H44291   7.215   3.640   4.131 -0.4843 -0.5658  0.0755
  321MOL0     H44292   7.373   3.566   4.309 -1.0835  4.9227  0.4129
  321MOL0     H44293   7.440   3.694   4.209  4.0683 -1.2055 -1.4106
  321MOL0     H44294   7.661   3.355   4.076  0.8057  2.7486 -1.7142
  321MOL0     H44295   6.935   3.772   4.160 -0.1500  2.4038 -1.6112
  321MOL0     H44296   6.730   3.954   4.125 -1.0051 -0.8186 -0.0544
  321MOL0     H44297   6.885   3.959   4.063 -0.6380 -2.3589  1.6889
  321MOL0     H44298   6.739   3.998   3.960  0.3581 -2.8549 -2.6420
  322MOL0     O44299   3.892  10.962  10.774 -0.2278  0.3506  0.2509
  322MOL0     C44300   3.814  10.882  10.717 -0.8810 -0.8979 -0.8400
  322MOL0     O44301   3.674  10.899  10.703 -0.2735 -0.1396  0.6793
  322MOL0     C44302   3.595  11.004  10.731 -0.1175  0.4849 -0.3497
  322MOL0     C44303   3.628  11.131  10.789  0.0895  0.6372 -0.2707
  322MOL0     C44304   3.532  11.220  10.837 -0.8591  0.3588 -0.5788
  322MOL0     C44305   3.399  11.193  10.815  0.4646 -0.3579  0.4195
  322MOL0     O44306   3.298  11.282  10.860  0.5369  0.2136 -0.2767
  322MOL0     C44307   3.218  11.361  10.775 -0.2780 -0.4068  0.1369
  322MOL0     C44308   3.277  11.497  10.770 -0.5382  0.3414 -0.6405
  322MOL0     C44309   3.211  11.572  10.655 -0.9966 -1.0518  0.1010
  322MOL0     C44310   3.247  11.722  10.676  0.2022 -0.2737 -0.1976
  322MOL0     C44311   3.222  11.804  10.548 -0.4925  0.3039 -0.3919
  322MOL0     C44312   3.071  11.815  10.516  0.6566 -0.3092 -0.3773
  322MOL0     C44313   3.027  11.920  10.403 -0.7245  0.6135 -0.5059
  322MOL0     C44314   2.973  12.055  10.448 -0.5786 -0.7418 -0.2280
  322MOL0     N44315   2.948  12.145  10.340 -0.5515 -0.6120  0.5107
  322MOL0     C44316   3.038  12.242  10.312  0.8612  0.4833 -0.4145
  322MOL0     C44317   2.996  12.306  10.200  1.1877  1.0429 -0.5750
  322MOL0     C44318   3.053  12.434  10.145  0.6141  0.0592  0.2423
  322MOL0     C44319   2.942  12.534  10.111  1.4245 -0.3631 -0.4545
  322MOL0     C44320   3.000  12.678  10.085  0.7536  0.9533 -0.7354
  322MOL0     C44321   3.109  12.732  10.167 -0.8174  0.1839  0.0254
  322MOL0     O44322   3.082  12.730  10.309  0.0343  0.1527 -0.0976
  322MOL0     C44323   3.172  12.665  10.382 -0.4327 -0.9529 -0.1032
  322MOL0     C44324   3.132  12.557  10.459 -0.1744  0.1264 -0.1569
  322MOL0     C44325   3.203  12.496  10.569 -1.2880  0.1035 -0.3843
  322MOL0     C44326   3.128  12.404  10.654  0.4233  0.3543 -0.7751
  322MOL0     C44327   3.340  12.538  10.588  0.1219  0.0872  0.0659
  322MOL0     C44328   3.439  12.482  10.686  0.4193  0.1683  1.0431
  322MOL0     O44329   3.569  12.522  10.664  0.4673  0.8958  0.1620
  322MOL0     C44330   3.673  12.468  10.738  0.2074 -0.2028  0.8625
  322MOL0     C44331   3.779  12.409  10.679  0.4748 -0.1297  0.1583
  322MOL0     C44332   3.892  12.379  10.744 -0.3402  0.2053 -0.0070
  322MOL0     C44333   3.908  12.412  10.877 -0.1175  0.2717 -0.5679
  322MOL0     O44334   4.027  12.380  10.945 -0.1871  0.5647 -0.1426
  322MOL0     C44335   4.074  12.471  11.049 -0.1354 -0.3303 -0.2703
  322MOL0     C44336   4.109  12.615  11.003  0.3824 -0.1756  0.8615
  322MOL0     C44337   4.216  12.617  10.890 -0.3528 -0.5806  0.1221
  322MOL0     C44338   4.354  12.598  10.944 -0.0847 -0.5523  0.3836
  322MOL0     C44339   4.458  12.579  10.831  0.7327  0.1193 -0.6427
  322MOL0     C44340   4.601  12.597  10.891 -0.0137 -0.3174 -0.3564
  322MOL0     C44341   4.656  12.484  10.985 -0.4548  0.4506  1.2333
  322MOL0     C44342   4.684  12.362  10.897 -0.2382  0.4324 -0.8836
  322MOL0    Cl44343   4.717  12.222  10.991 -0.4516  0.2608 -0.2527
  322MOL0     C44344   3.809  12.478  10.938  0.7769  0.2752  0.5293
  322MOL0     C44345   3.692  12.503  10.873  0.5292 -0.2944  0.6158
  322MOL0     O44346   3.401  12.399  10.769  0.3929  0.2157 -0.0969
  322MOL0     C44347   3.387  12.629  10.488  0.8488  0.2168  1.0672
  322MOL0     C44348   3.312  12.697  10.390  0.6128 -0.1753  0.6326
  322MOL0     N44349   2.875  12.250  10.162  0.1144  0.2799  0.0527
  322MOL0     N44350   2.851  12.147  10.244  0.2353 -0.2517 -0.0991
  322MOL0     C44351   3.363  11.076  10.741  0.0434 -0.5039 -0.5049
  322MOL0     C44352   3.459  10.991  10.694  0.0642 -0.2051  0.8036
  322MOL0     C44353   3.863  10.755  10.672 -0.6891  0.7452 -0.0923
  322MOL0     C44354   3.944  10.679  10.751  0.0544  0.0819  1.0077
  322MOL0     C44355   3.973  10.542  10.726 -0.2410  0.3521 -0.0396
  322MOL0     C44356   3.931  10.484  10.608 -0.4428 -0.4098  0.2628
  322MOL0     O44357   3.958  10.355  10.586  0.9210  0.4163  0.0824
  322MOL0     C44358   3.886  10.289  10.486 -0.2210  0.0042 -0.0848
  322MOL0     C44359   3.905  10.134  10.520  1.3466  0.2182  0.4908
  322MOL0     C44360   4.037  10.086  10.560  0.4178  0.2629 -0.0425
  322MOL0     C44361   4.162  10.124  10.480  0.8594 -0.4346 -0.1425
  322MOL0     C44362   4.165  10.133  10.332 -0.3871  0.1347  0.9410
  322MOL0     C44363   4.158  10.147  10.209  0.1546 -1.4186 -0.3604
  322MOL0     C44364   3.855  10.560  10.524  0.3668 -0.5344 -0.5882
  322MOL0     C44365   3.820  10.695  10.546 -0.2405  1.1533 -0.6799
  322MOL0     C44366   3.745  10.778  10.444 -0.4681  0.0630 -0.0183
  322MOL0     H44367   3.735  11.151  10.797 -0.0511  1.4524 -0.3926
  322MOL0     H44368   3.567  11.306  10.894  0.7058 -0.4651 -0.2282
  322MOL0     H44369   3.119  11.351  10.821  1.2331 -2.6958  3.2782
  322MOL0     H44370   3.221  11.328  10.671 -2.5041 -2.8556  0.7566
  322MOL0     H44371   3.247  11.544  10.864  0.8600  0.2442 -0.1202
  322MOL0     H44372   3.386  11.487  10.759 -0.0280  3.2224  0.8264
  322MOL0     H44373   3.246  11.538  10.557 -4.4258 -0.3036 -1.5375
  322MOL0     H44374   3.106  11.546  10.645 -0.5252 -2.1682 -3.2889
  322MOL0     H44375   3.188  11.759  10.760 -2.8955 -0.1664 -2.2950
  322MOL0     H44376   3.350  11.727  10.714 -0.8260 -1.1303  3.0351
  322MOL0     H44377   3.279  11.762  10.465  0.5926  2.0502 -0.5786
  322MOL0     H44378   3.263  11.902  10.574  2.2685 -1.1542  1.2085
  322MOL0     H44379   3.032  11.720  10.479  0.1142  0.0529 -0.7487
  322MOL0     H44380   3.013  11.837  10.605 -0.2770 -2.2888 -0.4404
  322MOL0     H44381   2.957  11.870  10.334 -1.0957  0.5548 -0.0894
  322MOL0     H44382   3.118  11.944  10.347 -0.2873  1.3894  0.5329
  322MOL0     H44383   2.877  12.043  10.499 -1.2717 -0.3954 -1.4194
  322MOL0     H44384   3.040  12.094  10.525  0.1957 -4.2021  1.0411
  322MOL0     H44385   3.122  12.270  10.374  1.3302 -0.6159 -0.5364
  322MOL0     H44386   3.097  12.399  10.051  0.1009 -0.7037  0.2691
  322MOL0     H44387   3.129  12.481  10.208 -0.2037  3.1722 -0.9556
  322MOL0     H44388   2.886  12.510  10.020 -0.5208  3.4275 -0.4577
  322MOL0     H44389   2.874  12.538  10.197 -1.2633  0.7389 -2.4804
  322MOL0     H44390   3.038  12.679   9.983  2.0535  2.8247 -0.2869
  322MOL0     H44391   2.916  12.747  10.081  1.6109  2.0132 -1.0248
  322MOL0     H44392   3.210  12.689  10.159 -0.5877  0.0428  2.8624
  322MOL0     H44393   3.111  12.837  10.137 -1.0105  0.4473  0.9316
  322MOL0     H44394   3.028  12.530  10.440 -0.7060  1.6059  0.4869
  322MOL0     H44395   3.179  12.312  10.685  2.0003  1.9829  1.7643
  322MOL0     H44396   3.035  12.366  10.610 -1.3854  1.0591  2.1874
  322MOL0     H44397   3.099  12.449  10.749  1.8922 -0.2029 -0.0367
  322MOL0     H44398   3.780  12.378  10.575  3.8015 -4.3353  1.1428
  322MOL0     H44399   3.967  12.324  10.687  0.5063 -0.5760  1.7692
  322MOL0     H44400   4.010  12.474  11.139 -0.8395 -0.6049 -0.7511
  322MOL0     H44401   4.164  12.420  11.084  0.6241  0.6151 -0.8157
  322MOL0     H44402   4.024  12.670  10.961 -0.0653 -3.2148 -2.7324
  322MOL0     H44403   4.136  12.680  11.087  3.4328 -1.2583  0.8389
  322MOL0     H44404   4.215  12.714  10.839  2.9326  1.0731  2.7950
  322MOL0     H44405   4.185  12.537  10.821 -1.4620 -1.0180  1.0929
  322MOL0     H44406   4.353  12.510  11.009 -2.5569  0.1216  1.3667
  322MOL0     H44407   4.393  12.685  10.997  1.5549  0.2018 -1.9386
  322MOL0     H44408   4.455  12.481  10.783  3.9417 -0.3561 -0.1244
  322MOL0     H44409   4.444  12.656  10.755  0.5006  0.3186 -0.3991
  322MOL0     H44410   4.601  12.691  10.948  1.8360  0.9750 -2.3474
  322MOL0     H44411   4.685  12.606  10.822 -1.2768  0.7569 -1.8161
  322MOL0     H44412   4.578  12.456  11.057 -1.4773 -2.2845 -0.7823
  322MOL0     H44413   4.750  12.507  11.037  2.6122 -4.1904 -1.5505
  322MOL0     H44414   4.771  12.387  10.836 -1.0667 -1.4060 -2.9408
  322MOL0     H44415   4.594  12.348  10.836 -2.1282  2.0969  1.3088
  322MOL0     H44416   3.818  12.503  11.044  0.4952 -0.7198  0.7931
  322MOL0     H44417   3.604  12.548  10.916  0.9158  3.0456 -1.6518
  322MOL0     H44418   3.494  12.649  10.490  1.1643 -1.4305  1.3468
  322MOL0     H44419   3.357  12.765  10.319  1.7702  0.8138  2.2616
  322MOL0     H44420   3.263  11.066  10.702 -1.3933  2.2441  2.0472
  322MOL0     H44421   3.444  10.906  10.627  0.6253 -0.3093  0.8058
  322MOL0     H44422   3.988  10.731  10.836  1.3108  0.1938  0.3187
  322MOL0     H44423   4.042  10.481  10.782  1.9282  1.1131 -1.7384
  322MOL0     H44424   3.779  10.310  10.480  0.3039  3.1073 -0.2287
  322MOL0     H44425   3.937  10.311  10.392  2.6434 -0.2693  1.2928
  322MOL0     H44426   3.858  10.076  10.440 -1.6496 -0.2749  2.4571
  322MOL0     H44427   3.849  10.103  10.609  0.5113 -0.8416 -0.3795
  322MOL0     H44428   4.059  10.109  10.664 -1.3783  2.5886 -0.1029
  322MOL0     H44429   4.032   9.977  10.557 -0.6462  0.1537  2.7769
  322MOL0     H44430   4.236  10.051  10.513 -0.1641 -0.7202  1.6666
  322MOL0     H44431   4.198  10.218  10.525  0.8997 -0.4165 -0.2110
  322MOL0     H44432   4.153  10.174  10.105 -0.1254  2.1630  0.4507
  322MOL0     H44433   3.815  10.517  10.432  1.2194 -0.2202 -1.1251
  322MOL0     H44434   3.814  10.855  10.409  4.4098 -4.3608 -1.5591
  322MOL0     H44435   3.722  10.723  10.352 -2.4130 -0.7647  0.9063
  322MOL0     H44436   3.647  10.807  10.482 -0.4510 -0.2682  0.2928
  323MOL0     O44437   2.239   1.918   8.560  0.6189 -0.4268  0.2822
  323MOL0     C44438   2.163   2.011   8.590 -0.5708 -0.3308  0.7625
  323MOL0     O44439   2.108   2.094   8.497  0.9331  0.0350  0.7931
  323MOL0     C44440   2.068   2.053   8.378  0.3034  0.1616  0.6426
  323MOL0     C44441   1.940   2.061   8.339  0.3612  0.0254 -0.0330
  323MOL0     C44442   1.909   2.010   8.212 -0.0284 -0.4724  0.0323
  323MOL0     C44443   2.016   1.969   8.127 -0.7824 -0.0253  0.4864
  323MOL0     O44444   1.990   1.938   7.993  0.2620  0.1772 -0.8910
  323MOL0     C44445   1.913   1.819   7.990  0.8986  0.1391 -0.3610
  323MOL0     C44446   1.885   1.786   7.847 -0.5086 -0.1251  0.6414
  323MOL0     C44447   1.834   1.641   7.826 -0.1196  1.1571  0.6260
  323MOL0     C44448   1.787   1.599   7.684 -0.4665 -0.9812 -0.7255
  323MOL0     C44449   1.769   1.452   7.676  0.0989 -1.0121  0.4202
  323MOL0     C44450   1.673   1.383   7.776  0.4816 -0.6187 -0.6051
  323MOL0     C44451   1.529   1.422   7.739 -0.8711 -0.3299 -0.6010
  323MOL0     C44452   1.425   1.335   7.817 -0.0688  0.5273 -0.0681
  323MOL0     N44453   1.290   1.377   7.795 -0.2715  0.0578 -0.8593
  323MOL0     C44454   1.238   1.503   7.825  0.8105  0.3825  0.3339
  323MOL0     C44455   1.119   1.515   7.755 -0.5127  0.0430 -0.1519
  323MOL0     C44456   1.018   1.618   7.778  0.4849  0.2226  0.1593
  323MOL0     C44457   0.873   1.561   7.757 -0.1858 -0.2545 -0.6176
  323MOL0     C44458   0.834   1.454   7.848  0.1046 -1.0505 -1.0624
  323MOL0     C44459   0.828   1.505   7.991  0.0957  0.3243 -0.0860
  323MOL0     O44460   0.735   1.418   8.058 -1.1909 -0.1223 -0.6706
  323MOL0     C44461   0.694   1.446   8.186 -0.0652  0.3115  0.3825
  323MOL0     C44462   0.729   1.565   8.255  0.3223  0.3203 -0.1222
  323MOL0     C44463   0.681   1.585   8.386 -0.1592 -0.0664 -0.3875
  323MOL0     C44464   0.724   1.712   8.459 -0.2590 -0.0509 -0.4583
  323MOL0     C44465   0.611   1.476   8.450 -0.4270  0.1269 -0.3302
  323MOL0     C44466   0.538   1.483   8.574  0.1016 -0.2098  0.6694
  323MOL0     O44467   0.524   1.368   8.653  0.2918  0.5470  0.2330
  323MOL0     C44468   0.456   1.368   8.775  0.1455  0.2210  0.4144
  323MOL0     C44469   0.445   1.480   8.858 -0.3685  0.0746 -0.4988
  323MOL0     C44470   0.389   1.460   8.987 -0.5960 -0.5696  0.4922
  323MOL0     C44471   0.331   1.335   9.027  0.3405  0.0953 -0.0879
  323MOL0     O44472   0.262   1.328   9.150  0.0502 -0.4312  0.4030
  323MOL0     C44473   0.255   1.196   9.220 -0.2999  0.1794  0.5452
  323MOL0     C44474   0.394   1.145   9.273  0.5217  0.5224  0.1437
  323MOL0     C44475   0.377   1.035   9.367  1.4109  0.2866 -0.4175
  323MOL0     C44476   0.517   0.969   9.401  0.4466 -0.0590  0.3650
  323MOL0     C44477   0.506   0.896   9.532  0.0117 -0.6114 -0.4118
  323MOL0     C44478   0.638   0.834   9.588 -0.3395 -0.5534 -0.3709
  323MOL0     C44479   0.615   0.775   9.726 -0.2402 -0.2999  0.5571
  323MOL0     C44480   0.727   0.681   9.774 -0.4309 -0.0879 -0.1456
  323MOL0    Cl44481   0.891   0.763   9.794  0.1681  0.1453  0.1597
  323MOL0     C44482   0.353   1.221   8.945  0.1744 -0.0363 -0.0759
  323MOL0     C44483   0.417   1.237   8.820  0.5648 -0.3675 -1.1206
  323MOL0     O44484   0.478   1.591   8.591  0.4993  0.0586 -0.6842
  323MOL0     C44485   0.581   1.357   8.374 -0.6553  0.1098 -0.3945
  323MOL0     C44486   0.627   1.340   8.245 -0.2546  0.3191 -0.1771
  323MOL0     N44487   1.109   1.392   7.693 -0.4590  0.0200  0.3129
  323MOL0     N44488   1.204   1.310   7.714  0.5285  0.3742  0.1675
  323MOL0     C44489   2.148   2.000   8.155 -0.0376  0.2591 -0.2408
  323MOL0     C44490   2.173   2.040   8.287 -0.0761 -0.1504 -0.4341
  323MOL0     C44491   2.132   2.037   8.735 -0.1180 -0.4352  0.1904
  323MOL0     C44492   2.023   2.128   8.763 -0.7881  0.7763 -0.5911
  323MOL0     C44493   1.981   2.160   8.894 -0.6494  0.6824 -0.5066
  323MOL0     C44494   2.053   2.115   9.003 -0.3683  1.1537  0.8312
  323MOL0     O44495   2.038   2.151   9.137 -0.3476 -0.2703 -0.8698
  323MOL0     C44496   1.906   2.188   9.180  0.6856 -0.4135  1.0609
  323MOL0     C44497   1.812   2.086   9.230  0.4070 -0.1060  0.9754
  323MOL0     C44498   1.872   2.000   9.346 -0.3455 -0.9615 -0.7073
  323MOL0     C44499   1.794   1.863   9.371  0.0035  0.1234 -0.7129
  323MOL0     C44500   1.814   1.756   9.268  0.1269 -0.1876  0.7458
  323MOL0     C44501   1.821   1.672   9.186  0.5759 -0.6484 -0.5862
  323MOL0     C44502   2.157   2.020   8.983  0.5341 -0.0814 -0.4056
  323MOL0     C44503   2.195   1.984   8.851  0.4395 -0.4361 -1.2357
  323MOL0     C44504   2.308   1.887   8.851 -1.2185 -0.0453 -0.4826
  323MOL0     H44505   1.859   2.078   8.409  2.0878  4.4372  1.2562
  323MOL0     H44506   1.810   2.019   8.167 -0.5448 -1.6362  0.8600
  323MOL0     H44507   1.823   1.830   8.050  0.1197  0.4372 -1.5422
  323MOL0     H44508   1.975   1.739   8.033  0.8903  1.0134  1.3092
  323MOL0     H44509   1.818   1.859   7.801 -1.1019 -0.7820  0.4494
  323MOL0     H44510   1.978   1.805   7.793 -0.8896  1.4809  0.4904
  323MOL0     H44511   1.925   1.583   7.842 -1.2272  0.0297  3.4185
  323MOL0     H44512   1.761   1.618   7.905 -0.9684 -1.4847 -0.8015
  323MOL0     H44513   1.696   1.656   7.665  0.8677  0.6577 -2.6030
  323MOL0     H44514   1.865   1.641   7.620 -1.1829  0.4207 -0.6966
  323MOL0     H44515   1.866   1.402   7.683  0.9477  0.5949  0.4543
  323MOL0     H44516   1.732   1.418   7.579 -0.1363 -1.0064  0.5057
  323MOL0     H44517   1.691   1.275   7.778  1.8894 -0.3894  1.1502
  323MOL0     H44518   1.684   1.417   7.880 -0.6960 -0.9720 -0.3474
  323MOL0     H44519   1.509   1.432   7.632  0.2302  2.9752 -0.5981
  323MOL0     H44520   1.517   1.528   7.764  4.2662  0.0877  1.2006
  323MOL0     H44521   1.452   1.234   7.785  1.3875  1.1138 -0.8075
  323MOL0     H44522   1.443   1.338   7.925 -2.2552 -2.2265  0.4716
  323MOL0     H44523   1.281   1.569   7.900  0.2417  0.9498  0.1628
  323MOL0     H44524   1.025   1.702   7.707 -0.3825 -0.1224 -0.3519
  323MOL0     H44525   1.030   1.656   7.880 -1.2397 -2.3171  1.4175
  323MOL0     H44526   0.804   1.645   7.757  1.9073  1.5658 -1.3342
  323MOL0     H44527   0.891   1.526   7.655 -1.2325  1.0873 -1.2881
  323MOL0     H44528   0.734   1.416   7.826 -0.6331 -0.6795  1.3379
  323MOL0     H44529   0.894   1.363   7.847 -1.5390 -2.1836 -2.6770
  323MOL0     H44530   0.926   1.501   8.039  0.3621 -0.2029 -0.6619
  323MOL0     H44531   0.792   1.608   8.000 -1.6973 -0.1673 -1.0175
  323MOL0     H44532   0.781   1.644   8.204  1.1707 -0.5941 -0.7073
  323MOL0     H44533   0.651   1.788   8.429 -0.8356  0.2064  1.4845
  323MOL0     H44534   0.827   1.746   8.445  0.6940 -0.1753  4.6585
  323MOL0     H44535   0.707   1.693   8.565  1.3655 -1.0164 -0.3385
  323MOL0     H44536   0.494   1.574   8.834  0.5876 -0.5209 -0.9220
  323MOL0     H44537   0.384   1.548   9.051  4.8457  1.1768 -0.9348
  323MOL0     H44538   0.189   1.215   9.306 -0.8032  0.6501  0.0651
  323MOL0     H44539   0.207   1.118   9.162 -0.5310 -1.2406  2.5518
  323MOL0     H44540   0.452   1.102   9.191  0.2916  0.1012  0.1996
  323MOL0     H44541   0.455   1.223   9.320  3.3093  0.7805 -3.4751
  323MOL0     H44542   0.303   0.963   9.332  0.4645  1.5604 -1.1135
  323MOL0     H44543   0.329   1.079   9.454  2.1278 -1.7259  1.0650
  323MOL0     H44544   0.597   1.043   9.409  0.3844 -0.1513  2.3871
  323MOL0     H44545   0.542   0.904   9.316 -0.3262 -0.8329  0.7061
  323MOL0     H44546   0.462   0.958   9.611  1.5902 -0.9885  0.8212
  323MOL0     H44547   0.445   0.806   9.522  1.4183 -1.5009 -1.3698
  323MOL0     H44548   0.711   0.915   9.587 -0.6118 -0.2652  1.0540
  323MOL0     H44549   0.674   0.750   9.528  2.3130  0.3369 -0.1485
  323MOL0     H44550   0.512   0.740   9.727 -1.3281  2.5871  1.3973
  323MOL0     H44551   0.611   0.864   9.790 -3.2135 -1.7146  2.5364
  323MOL0     H44552   0.750   0.599   9.705  1.9834  0.6936 -0.3802
  323MOL0     H44553   0.707   0.638   9.872 -1.0762  1.1152  0.2708
  323MOL0     H44554   0.339   1.122   8.984 -1.9539  0.1476 -0.2926
  323MOL0     H44555   0.446   1.151   8.761 -2.9892 -0.5454 -2.8308
  323MOL0     H44556   0.546   1.272   8.431 -1.5118  0.1823 -0.7879
  323MOL0     H44557   0.607   1.254   8.182  1.6139 -1.9944  2.1237
  323MOL0     H44558   2.233   1.989   8.088  1.1033  1.8855  0.8596
  323MOL0     H44559   2.273   2.052   8.327 -0.8883 -0.7160  1.9243
  323MOL0     H44560   1.962   2.177   8.688  0.8236  1.2027 -1.6646
  323MOL0     H44561   1.904   2.236   8.896  0.2117  1.6655 -2.1000
  323MOL0     H44562   1.906   2.265   9.258  2.8437  1.6245 -0.8086
  323MOL0     H44563   1.856   2.238   9.097  1.2231  1.9718  2.0821
  323MOL0     H44564   1.764   2.023   9.155  1.5911  0.6861 -0.5057
  323MOL0     H44565   1.721   2.133   9.269 -1.1073 -0.1387 -2.2130
  323MOL0     H44566   1.973   1.972   9.315  0.3320  0.6635 -0.0773
  323MOL0     H44567   1.882   2.058   9.438  0.8760 -2.7658  0.3520
  323MOL0     H44568   1.692   1.891   9.398  0.3398  0.6427  0.0441
  323MOL0     H44569   1.820   1.813   9.465 -3.1413 -1.4444 -0.5385
  323MOL0     H44570   1.830   1.608   9.101 -0.0763 -3.8521  1.5759
  323MOL0     H44571   2.200   1.975   9.072 -3.7149  0.5965  2.2903
  323MOL0     H44572   2.386   1.903   8.775  0.1173 -1.1408  0.5904
  323MOL0     H44573   2.357   1.903   8.947  0.4768  2.3354 -1.6339
  323MOL0     H44574   2.267   1.787   8.839  0.7734 -0.8440 -1.1392
  324MOL0     O44575  10.423   4.335   4.508  0.1503  0.4419 -0.5117
  324MOL0     C44576  10.303   4.320   4.506  0.3215 -0.0600  0.2291
  324MOL0     O44577  10.233   4.236   4.430 -0.1540 -0.3316 -0.1598
  324MOL0     C44578  10.285   4.140   4.339  0.1485 -0.5241  0.8667
  324MOL0     C44579  10.409   4.136   4.277 -0.4468  0.0536  0.1482
  324MOL0     C44580  10.441   4.016   4.200  0.1521 -1.0200  0.0939
  324MOL0     C44581  10.344   3.922   4.163 -0.3722  0.0807  0.3293
  324MOL0     O44582  10.375   3.806   4.103 -0.4603  0.1056  0.8138
  324MOL0     C44583  10.277   3.741   4.027  0.0269 -0.2114  0.2659
  324MOL0     C44584  10.269   3.801   3.883 -0.3712  0.3519  0.5380
  324MOL0     C44585  10.402   3.772   3.801  0.0309 -0.6016  0.6390
  324MOL0     C44586  10.430   3.624   3.795 -0.0352 -0.9584  0.8367
  324MOL0     C44587  10.540   3.608   3.691  0.0447  0.2692 -0.1734
  324MOL0     C44588  10.565   3.450   3.683  0.0895 -1.4842  0.1932
  324MOL0     C44589  10.655   3.422   3.559  0.1064 -0.4642 -0.5726
  324MOL0     C44590  10.686   3.271   3.541 -0.1884  0.2632  0.2616
  324MOL0     N44591  10.823   3.246   3.593 -0.3626  0.3421 -0.2520
  324MOL0     C44592  10.859   3.223   3.725 -1.2306 -0.6276 -0.1868
  324MOL0     C44593  10.991   3.211   3.716 -0.9994 -0.2295  0.4935
  324MOL0     C44594  11.089   3.195   3.830 -0.3989 -0.0477  0.6989
  324MOL0     C44595  11.124   3.330   3.888 -0.4568 -0.8107  0.5541
  324MOL0     C44596  11.185   3.434   3.786 -0.3371 -0.5418  0.6283
  324MOL0     C44597  11.304   3.372   3.707  0.5731 -0.6021 -1.2334
  324MOL0     O44598  11.385   3.311   3.801  0.4155 -0.2746  0.7759
  324MOL0     C44599  11.481   3.218   3.755  0.6342 -0.0982  1.5832
  324MOL0     C44600  11.524   3.217   3.620  0.3781  0.1708  0.0058
  324MOL0     C44601  11.619   3.129   3.570 -0.5744 -0.4181  0.1783
  324MOL0     C44602  11.662   3.150   3.431 -0.2555  1.0369  0.6734
  324MOL0     C44603  11.671   3.034   3.661 -0.7017 -0.2150  0.9686
  324MOL0     C44604  11.785   2.938   3.630 -1.3512  0.7930 -0.4602
  324MOL0     O44605  11.807   2.840   3.726  0.6998  0.8872  0.4486
  324MOL0     C44606  11.908   2.750   3.708  1.1140  0.1912  0.0273
  324MOL0     C44607  12.042   2.797   3.701  0.3255  0.4325 -0.3733
  324MOL0     C44608  12.144   2.704   3.677  0.1580 -0.3521 -0.3081
  324MOL0     C44609  12.106   2.566   3.683 -0.8530  0.4484  0.0138
  324MOL0     O44610  12.205   2.473   3.682 -0.5734  0.4079  0.6074
  324MOL0     C44611  12.197   2.337   3.740  1.1722 -0.1915  0.2922
  324MOL0     C44612  12.303   2.312   3.859  0.7559 -0.8452  0.0439
  324MOL0     C44613  12.240   2.370   3.991 -0.0024  0.1746  0.2504
  324MOL0     C44614  12.348   2.322   4.098 -0.7132 -1.2740  0.5664
  324MOL0     C44615  12.312   2.365   4.241 -0.2155 -0.2016 -0.3574
  324MOL0     C44616  12.412   2.343   4.349  0.1505 -0.3381 -0.4416
  324MOL0     C44617  12.381   2.412   4.483 -0.1773 -0.6447  0.6946
  324MOL0     C44618  12.315   2.317   4.585 -0.0421 -0.8047  0.2625
  324MOL0    Cl44619  12.303   2.420   4.723 -0.3144 -0.1537  0.3321
  324MOL0     C44620  11.972   2.515   3.682  0.1447 -0.4743  0.0008
  324MOL0     C44621  11.878   2.606   3.710  0.0305 -0.1881  0.1927
  324MOL0     O44622  11.868   2.968   3.542 -0.1915 -0.4881 -0.0028
  324MOL0     C44623  11.624   3.034   3.793 -0.8313  0.2281  0.2290
  324MOL0     C44624  11.526   3.120   3.835 -0.2125 -0.3570 -1.1907
  324MOL0     N44625  11.036   3.236   3.589  0.3159  0.2363 -0.0281
  324MOL0     N44626  10.937   3.270   3.520  0.0288  0.1190  0.4361
  324MOL0     C44627  10.211   3.956   4.212 -0.5345  0.9030  0.2193
  324MOL0     C44628  10.185   4.054   4.299 -0.7544  0.1051  0.4101
  324MOL0     C44629  10.221   4.396   4.606  0.5000  0.6192  0.5287
  324MOL0     C44630  10.098   4.342   4.643  0.1539 -0.6667  0.6543
  324MOL0     C44631  10.008   4.412   4.733  0.5380  0.2344 -0.5379
  324MOL0     C44632  10.049   4.535   4.787 -0.2091  0.2854  0.3036
  324MOL0     O44633   9.971   4.611   4.874 -0.1392  0.3445 -0.0618
  324MOL0     C44634   9.885   4.544   4.962 -0.2496 -0.5768 -0.1821
  324MOL0     C44635   9.953   4.518   5.096 -0.0202  0.7051 -0.5295
  324MOL0     C44636  10.000   4.643   5.160 -0.4805  0.4085  0.2999
  324MOL0     C44637  10.149   4.682   5.139  0.2477  0.0631 -0.2373
  324MOL0     C44638  10.188   4.800   5.226 -0.0120 -0.7815 -0.2590
  324MOL0     C44639  10.211   4.886   5.309 -0.0316  0.4043 -0.2866
  324MOL0     C44640  10.163   4.585   4.750  0.3183 -0.0804 -0.2621
  324MOL0     C44641  10.262   4.522   4.669 -0.1023  0.3499  0.7647
  324MOL0     C44642  10.393   4.590   4.638 -0.5657  0.4140 -0.6016
  324MOL0     H44643  10.481   4.213   4.302 -1.1317  0.8054 -0.1600
  324MOL0     H44644  10.541   3.988   4.167 -0.1157 -0.1861 -1.4861
  324MOL0     H44645  10.176   3.738   4.068  0.5287 -0.8909  1.5044
  324MOL0     H44646  10.309   3.637   4.035  1.8394  0.1686 -1.3994
  324MOL0     H44647  10.182   3.752   3.838 -0.8950 -1.2828  3.0942
  324MOL0     H44648  10.256   3.908   3.900  0.7706  0.4048  1.1740
  324MOL0     H44649  10.402   3.828   3.707  1.9226 -1.6705 -0.0491
  324MOL0     H44650  10.494   3.812   3.844  0.8659 -0.4693 -1.1864
  324MOL0     H44651  10.474   3.581   3.885  0.6867  1.2434  1.6010
  324MOL0     H44652  10.337   3.576   3.764 -1.0301  2.3581 -1.9679
  324MOL0     H44653  10.631   3.658   3.725 -0.6503  0.5933  1.3274
  324MOL0     H44654  10.510   3.641   3.591  1.8502  0.4198 -0.6938
  324MOL0     H44655  10.609   3.417   3.777  2.1508 -0.8450 -0.4964
  324MOL0     H44656  10.472   3.393   3.676  0.4592 -1.9655 -1.1705
  324MOL0     H44657  10.740   3.490   3.571 -0.3448  0.3223 -1.5922
  324MOL0     H44658  10.595   3.444   3.470 -0.8922 -0.6190  0.0521
  324MOL0     H44659  10.613   3.203   3.587  1.6444 -0.5658  2.0866
  324MOL0     H44660  10.683   3.252   3.433 -1.0555  0.4023  0.2499
  324MOL0     H44661  10.789   3.207   3.807  1.5548 -1.5175  2.2100
  324MOL0     H44662  11.171   3.133   3.791  1.4643 -1.6560  6.1607
  324MOL0     H44663  11.044   3.132   3.908  2.0074 -0.4981  1.8406
  324MOL0     H44664  11.040   3.388   3.926  0.5632  1.4708 -0.5307
  324MOL0     H44665  11.192   3.321   3.973 -0.0754 -0.6375  0.2721
  324MOL0     H44666  11.114   3.476   3.714  2.4898  3.0187 -0.4293
  324MOL0     H44667  11.220   3.523   3.839  0.2273 -0.6532  0.4497
  324MOL0     H44668  11.285   3.291   3.637  0.2586 -1.2410 -0.4292
  324MOL0     H44669  11.363   3.453   3.663  0.4647 -0.3185 -0.8672
  324MOL0     H44670  11.480   3.290   3.553  1.2653  0.7220  0.0127
  324MOL0     H44671  11.592   3.216   3.378  0.6369  0.1828 -1.6966
  324MOL0     H44672  11.669   3.053   3.382 -0.9044 -1.1654  4.4920
  324MOL0     H44673  11.760   3.194   3.415  0.3694 -0.3974  0.4213
  324MOL0     H44674  12.064   2.903   3.710 -2.4353  1.1766 -1.4801
  324MOL0     H44675  12.252   2.716   3.675 -0.0684  2.0364 -1.6367
  324MOL0     H44676  12.096   2.310   3.772  2.2870 -2.0847  2.5692
  324MOL0     H44677  12.211   2.264   3.660 -1.3080 -2.1956  1.5642
  324MOL0     H44678  12.316   2.204   3.862 -2.3571 -1.3823  4.7432
  324MOL0     H44679  12.400   2.358   3.838 -0.0955 -0.0175 -2.4220
  324MOL0     H44680  12.146   2.318   4.013 -1.2261  2.8909  1.9192
  324MOL0     H44681  12.221   2.477   3.997 -0.4214  0.0886  0.5655
  324MOL0     H44682  12.444   2.372   4.078 -1.2098 -0.5215  0.0174
  324MOL0     H44683  12.363   2.214   4.091  0.3440 -1.1065  0.0835
  324MOL0     H44684  12.294   2.473   4.239 -2.1472 -0.4950 -1.2944
  324MOL0     H44685  12.215   2.318   4.260 -1.0210  0.9889 -1.3321
  324MOL0     H44686  12.506   2.393   4.322 -0.5628  1.6557  0.5539
  324MOL0     H44687  12.431   2.236   4.361  0.1803 -0.2567  0.2626
  324MOL0     H44688  12.322   2.501   4.460  0.2020  0.4550  3.5003
  324MOL0     H44689  12.472   2.446   4.534 -0.3045 -1.0119  1.1696
  324MOL0     H44690  12.385   2.237   4.609  0.3760  0.3851  3.7270
  324MOL0     H44691  12.218   2.281   4.549  0.4094  0.1964 -2.1450
  324MOL0     H44692  11.934   2.414   3.664 -2.5997  0.7025 -1.4087
  324MOL0     H44693  11.773   2.579   3.709  0.0990 -0.4895 -1.9417
  324MOL0     H44694  11.669   2.970   3.869  0.2105  0.6788  0.0119
  324MOL0     H44695  11.496   3.109   3.939 -1.5658  1.3638 -1.3424
  324MOL0     H44696  10.129   3.884   4.213 -0.2990  0.6112  1.8076
  324MOL0     H44697  10.084   4.062   4.339 -1.2444  0.3959 -0.8588
  324MOL0     H44698  10.068   4.247   4.600  0.9582 -1.0688  0.9603
  324MOL0     H44699   9.923   4.358   4.774 -0.1167  3.5483  3.0686
  324MOL0     H44700   9.798   4.609   4.979 -0.5489  0.1724 -3.8334
  324MOL0     H44701   9.846   4.457   4.907  3.2046 -0.9576 -2.3022
  324MOL0     H44702  10.038   4.453   5.072 -1.1028 -1.5884  1.4096
  324MOL0     H44703   9.865   4.475   5.145 -1.5973  2.3840 -1.6941
  324MOL0     H44704   9.922   4.717   5.136 -1.9612 -1.3621 -0.5827
  324MOL0     H44705   9.977   4.632   5.267  0.7403  3.2275  0.9550
  324MOL0     H44706  10.168   4.708   5.034  2.7087 -1.5684 -0.2906
  324MOL0     H44707  10.213   4.597   5.162 -0.1056 -0.2815 -0.5131
  324MOL0     H44708  10.235   4.960   5.382 -1.0605  1.0802 -0.6154
  324MOL0     H44709  10.197   4.680   4.790  0.5414 -0.1430 -0.3020
  324MOL0     H44710  10.395   4.699   4.649  3.6338  0.5260 -0.6117
  324MOL0     H44711  10.479   4.550   4.693 -1.3834  2.3593  2.3236
  324MOL0     H44712  10.417   4.592   4.532  0.4266  0.4180 -0.3906
  325MOL0     O44713   3.105   6.314   4.207 -0.4301  0.2521 -0.7728
  325MOL0     C44714   2.992   6.336   4.239 -0.4668 -0.5100  0.5397
  325MOL0     O44715   2.936   6.456   4.232  0.2004  1.1600  0.9536
  325MOL0     C44716   3.011   6.562   4.199  0.2570 -0.3138 -0.4183
  325MOL0     C44717   3.064   6.588   4.071 -0.0941 -0.2508 -0.5789
  325MOL0     C44718   3.172   6.684   4.053 -1.1589  0.0797 -0.5477
  325MOL0     C44719   3.219   6.755   4.167  0.1476 -0.1578  0.0717
  325MOL0     O44720   3.347   6.819   4.151 -0.0945 -0.2247  0.1112
  325MOL0     C44721   3.365   6.934   4.235 -0.2660 -0.1792 -0.3271
  325MOL0     C44722   3.344   7.072   4.167 -0.1261 -1.3669 -0.6282
  325MOL0     C44723   3.398   7.073   4.029 -0.7779 -0.2190  1.4128
  325MOL0     C44724   3.366   7.195   3.936  0.7393 -0.0497 -0.1375
  325MOL0     C44725   3.468   7.197   3.811 -0.9196 -0.4360 -0.4210
  325MOL0     C44726   3.418   7.098   3.704 -0.2267 -0.6277  0.5634
  325MOL0     C44727   3.489   7.087   3.574  0.0638  1.3555 -0.7850
  325MOL0     C44728   3.461   7.204   3.493 -0.7054 -0.3917  0.6804
  325MOL0     N44729   3.532   7.199   3.363  0.4648 -0.6033 -0.7317
  325MOL0     C44730   3.662   7.176   3.355  0.7203 -0.2906  1.1948
  325MOL0     C44731   3.694   7.164   3.223  0.0028  0.4954 -0.0548
  325MOL0     C44732   3.836   7.135   3.163  0.6150 -1.0501 -1.0034
  325MOL0     C44733   3.882   6.989   3.147  0.0890 -0.5879 -0.1063
  325MOL0     C44734   3.896   6.916   3.283  0.4146  0.3864  0.8847
  325MOL0     C44735   4.020   6.964   3.363  0.5973  0.7485  0.4880
  325MOL0     O44736   3.983   6.965   3.499  0.4297 -0.1225  0.6261
  325MOL0     C44737   4.069   7.008   3.591 -0.5756 -0.1199 -0.4389
  325MOL0     C44738   4.006   7.022   3.719  0.1712 -0.2606  0.1629
  325MOL0     C44739   4.075   7.071   3.829 -0.1954 -0.8375  0.0342
  325MOL0     C44740   4.004   7.075   3.955 -0.0135  0.7218  0.3541
  325MOL0     C44741   4.212   7.102   3.812 -0.5637  0.1419 -1.5161
  325MOL0     C44742   4.301   7.151   3.925  0.2724  0.1296  1.5109
  325MOL0     O44743   4.428   7.100   3.930  0.1308 -0.3358 -0.4015
  325MOL0     C44744   4.511   7.177   4.002  0.0716 -0.8088  0.1994
  325MOL0     C44745   4.506   7.182   4.142  0.2178 -0.6121  0.0841
  325MOL0     C44746   4.600   7.261   4.209  0.4674 -0.1366 -0.3070
  325MOL0     C44747   4.694   7.340   4.134 -0.5920 -0.2499  1.4453
  325MOL0     O44748   4.784   7.422   4.188 -1.1052 -0.0103 -0.5019
  325MOL0     C44749   4.750   7.497   4.307 -0.2116 -0.1805 -0.0353
  325MOL0     C44750   4.868   7.594   4.332 -0.1936  0.0372  0.4780
  325MOL0     C44751   4.854   7.709   4.230  0.3136  0.4757 -0.5208
  325MOL0     C44752   4.963   7.810   4.247 -0.5482 -0.4294  0.9669
  325MOL0     C44753   4.951   7.930   4.150 -0.7011 -0.3914 -0.5790
  325MOL0     C44754   4.850   8.026   4.212 -0.3936 -0.0257 -0.3807
  325MOL0     C44755   4.839   8.158   4.126 -0.1184 -0.5809 -0.2031
  325MOL0     C44756   4.721   8.247   4.168  0.2259 -0.1405  0.6972
  325MOL0    Cl44757   4.717   8.277   4.347 -0.2452 -0.4463 -0.2251
  325MOL0     C44758   4.698   7.328   3.993 -0.8402 -0.7270 -0.5700
  325MOL0     C44759   4.605   7.255   3.929  0.9031  0.4687 -1.0738
  325MOL0     O44760   4.257   7.251   3.990 -0.2094  0.9909  0.5153
  325MOL0     C44761   4.277   7.103   3.683  0.2856  0.3278  0.9647
  325MOL0     C44762   4.203   7.058   3.572 -1.0802 -0.4070 -0.4612
  325MOL0     N44763   3.573   7.179   3.155 -0.2352  0.5179 -0.5247
  325MOL0     N44764   3.486   7.206   3.240  0.6105  0.2299 -0.3404
  325MOL0     C44765   3.162   6.724   4.296  0.1163 -0.6324  0.2236
  325MOL0     C44766   3.050   6.643   4.306 -0.0739 -0.3722 -0.6036
  325MOL0     C44767   2.917   6.221   4.296  0.3633 -0.5157  1.0317
  325MOL0     C44768   2.819   6.249   4.395  0.4164 -0.7194 -0.6135
  325MOL0     C44769   2.757   6.160   4.488  0.1199  0.6327 -0.0990
  325MOL0     C44770   2.793   6.014   4.472 -0.0733 -0.1368 -0.7888
  325MOL0     O44771   2.725   5.923   4.543 -0.5983 -0.0796  0.0736
  325MOL0     C44772   2.606   5.879   4.469 -0.2812  0.9581  0.5818
  325MOL0     C44773   2.483   5.855   4.563 -0.3991  0.7569 -1.6334
  325MOL0     C44774   2.509   5.749   4.679  1.5447 -0.0326  0.4378
  325MOL0     C44775   2.369   5.687   4.739  0.4564  0.6209 -0.3518
  325MOL0     C44776   2.282   5.782   4.800 -0.5232 -1.4854  0.8286
  325MOL0     C44777   2.200   5.858   4.853 -0.1988 -0.8617  0.4843
  325MOL0     C44778   2.892   5.993   4.377  1.1664 -0.4648 -0.6204
  325MOL0     C44779   2.953   6.090   4.286 -0.3146 -0.3895 -0.7533
  325MOL0     C44780   3.066   6.030   4.201 -0.8149 -0.8620 -0.3176
  325MOL0     H44781   3.035   6.520   3.991  0.6957 -3.1963  1.4843
  325MOL0     H44782   3.221   6.705   3.959 -2.3770 -1.3385 -1.5446
  325MOL0     H44783   3.463   6.937   4.284 -0.9225 -0.4316  1.0319
  325MOL0     H44784   3.300   6.937   4.322 -0.6128 -2.6177 -0.4460
  325MOL0     H44785   3.239   7.101   4.168  0.8717  3.2628  1.9845
  325MOL0     H44786   3.383   7.152   4.231 -1.0686  1.0454 -2.8864
  325MOL0     H44787   3.507   7.064   4.025 -0.6289  1.4131 -0.9595
  325MOL0     H44788   3.358   6.980   3.986 -0.7108 -0.9180  2.8159
  325MOL0     H44789   3.260   7.178   3.916  0.6925  0.0329  0.0345
  325MOL0     H44790   3.376   7.289   3.991 -0.6086 -1.1877  2.2333
  325MOL0     H44791   3.567   7.180   3.855 -1.3619 -1.8929  0.0685
  325MOL0     H44792   3.458   7.300   3.777  2.1575  1.0806  2.6422
  325MOL0     H44793   3.405   6.997   3.745  1.5709 -1.7460 -1.4169
  325MOL0     H44794   3.319   7.133   3.672  0.4019 -1.0900 -2.1113
  325MOL0     H44795   3.458   6.998   3.519  1.1258  0.2305  0.3618
  325MOL0     H44796   3.593   7.062   3.597 -0.7848 -2.3568 -0.3912
  325MOL0     H44797   3.354   7.213   3.471 -0.5586 -2.9418 -1.5603
  325MOL0     H44798   3.495   7.290   3.552 -1.8543  0.1552  0.5652
  325MOL0     H44799   3.732   7.152   3.435  1.3255 -3.4538 -0.1451
  325MOL0     H44800   3.905   7.187   3.230 -0.9138  0.8592 -0.8262
  325MOL0     H44801   3.841   7.192   3.069  3.6357 -0.5901 -0.6443
  325MOL0     H44802   3.796   6.942   3.098 -0.1554 -0.2344 -0.0192
  325MOL0     H44803   3.965   6.990   3.075 -0.5992  1.2966 -0.9655
  325MOL0     H44804   3.802   6.925   3.338 -0.1419 -0.7104  0.1480
  325MOL0     H44805   3.898   6.813   3.247 -1.5442  1.8012 -4.0324
  325MOL0     H44806   4.093   6.889   3.330 -3.8893 -1.9122 -5.2970
  325MOL0     H44807   4.051   7.063   3.329  2.3748 -1.0196 -3.7743
  325MOL0     H44808   3.901   7.000   3.734 -0.3759  2.7684  1.5276
  325MOL0     H44809   4.078   7.071   4.036 -0.3541  1.6350  0.7320
  325MOL0     H44810   3.924   7.000   3.959  0.0698  0.6912  2.3392
  325MOL0     H44811   3.957   7.172   3.974 -2.2595 -0.2158 -0.0383
  325MOL0     H44812   4.429   7.121   4.188  0.3649 -0.5636  0.3968
  325MOL0     H44813   4.581   7.262   4.316  1.7447 -1.4181 -0.0351
  325MOL0     H44814   4.652   7.544   4.303 -2.2739 -3.9182  1.4644
  325MOL0     H44815   4.755   7.428   4.392 -1.2307  0.0916  0.2511
  325MOL0     H44816   4.874   7.634   4.433  0.4936  0.3869  0.3035
  325MOL0     H44817   4.963   7.546   4.308  1.4188  2.8745  0.7835
  325MOL0     H44818   4.758   7.757   4.250  0.4193 -0.2033  2.0280
  325MOL0     H44819   4.857   7.669   4.128 -0.0713  0.4400 -0.5194
  325MOL0     H44820   5.054   7.762   4.209  0.0158  0.8300  0.6536
  325MOL0     H44821   4.970   7.839   4.352 -2.4902 -0.0723  1.0359
  325MOL0     H44822   5.045   7.984   4.136  0.0254 -0.9260  1.7524
  325MOL0     H44823   4.919   7.905   4.049  0.0059 -1.0191 -0.6574
  325MOL0     H44824   4.883   8.057   4.311  0.8650  1.1186 -1.1208
  325MOL0     H44825   4.753   7.978   4.226 -0.7852  1.3107  2.1219
  325MOL0     H44826   4.832   8.127   4.021 -0.1072  1.0530 -0.7023
  325MOL0     H44827   4.932   8.214   4.136  0.5332 -1.8058  0.8919
  325MOL0     H44828   4.632   8.194   4.134  2.6499 -3.5078 -0.9750
  325MOL0     H44829   4.715   8.343   4.115  2.4826  1.3078  2.8099
  325MOL0     H44830   4.781   7.375   3.940  0.9119 -0.2247  2.3697
  325MOL0     H44831   4.604   7.240   3.822 -0.9333 -0.8760 -0.9175
  325MOL0     H44832   4.383   7.121   3.665 -0.0791  3.4100  1.2807
  325MOL0     H44833   4.257   7.041   3.479 -1.1121 -0.3000 -0.5000
  325MOL0     H44834   3.209   6.754   4.389 -0.6074  3.2149 -0.5134
  325MOL0     H44835   2.999   6.632   4.401  0.5472  1.7430  0.0250
  325MOL0     H44836   2.791   6.353   4.411 -0.9827 -1.1703  0.0510
  325MOL0     H44837   2.684   6.186   4.564  0.6375 -0.2523  0.7187
  325MOL0     H44838   2.572   5.948   4.391  0.7716  0.5077 -0.2996
  325MOL0     H44839   2.633   5.792   4.410 -0.5524  1.7571 -0.7701
  325MOL0     H44840   2.402   5.818   4.500 -0.3846 -1.0123 -0.6904
  325MOL0     H44841   2.447   5.948   4.608 -3.7617 -2.4184  3.2266
  325MOL0     H44842   2.558   5.660   4.639  1.7102  0.2640 -0.0232
  325MOL0     H44843   2.568   5.786   4.764  0.1371 -1.4711  2.1369
  325MOL0     H44844   2.403   5.612   4.811 -1.1922  1.0257  0.9227
  325MOL0     H44845   2.315   5.633   4.660  1.9580 -3.7557  1.2974
  325MOL0     H44846   2.127   5.914   4.908  2.3664 -0.3640  3.7391
  325MOL0     H44847   2.912   5.887   4.364  0.6734 -0.7282  0.5717
  325MOL0     H44848   3.046   5.924   4.184  1.5717 -1.1671 -1.6491
  325MOL0     H44849   3.069   6.079   4.104  0.2437  0.9189  0.5594
  325MOL0     H44850   3.165   6.044   4.246  0.2945  0.2475 -2.8816
  326MOL0     O44851   8.477   9.186   5.416  0.1427  0.3811  0.6035
  326MOL0     C44852   8.367   9.184   5.369  0.0339  0.1469  0.2167
  326MOL0     O44853   8.270   9.092   5.397 -0.1724 -0.1583  0.8719
  326MOL0     C44854   8.291   8.985   5.482  0.5333 -0.2286 -0.0322
  326MOL0     C44855   8.403   8.887   5.477  0.8361  0.1107  0.3403
  326MOL0     C44856   8.415   8.790   5.576  1.2362  0.7394 -0.0684
  326MOL0     C44857   8.319   8.777   5.677  0.5101  0.2219 -0.8499
  326MOL0     O44858   8.351   8.692   5.774  0.2327  0.4684  0.3280
  326MOL0     C44859   8.301   8.730   5.907 -0.8871  0.6846  0.1582
  326MOL0     C44860   8.381   8.668   6.023 -0.1116  0.5394  0.5073
  326MOL0     C44861   8.364   8.728   6.168  0.7017 -0.7912 -0.1989
  326MOL0     C44862   8.227   8.711   6.224  0.8122  0.2821  0.6333
  326MOL0     C44863   8.197   8.557   6.235 -0.1124  0.4415 -0.5934
  326MOL0     C44864   8.073   8.526   6.312  0.1240  0.2229 -0.5457
  326MOL0     C44865   8.061   8.386   6.351  0.2018  0.9185  0.9316
  326MOL0     C44866   7.936   8.360   6.441 -0.0326  0.5350  0.8172
  326MOL0     N44867   7.940   8.448   6.558 -0.6132  0.1148 -0.1995
  326MOL0     C44868   7.842   8.543   6.575 -0.5179  0.1799  0.4227
  326MOL0     C44869   7.864   8.589   6.699 -1.4018 -0.1573  0.3006
  326MOL0     C44870   7.787   8.713   6.748 -0.3508  0.4535  0.5991
  326MOL0     C44871   7.830   8.852   6.694  0.3508 -0.1005 -0.0907
  326MOL0     C44872   7.977   8.853   6.636  0.5395  0.5107  0.2525
  326MOL0     C44873   7.984   8.936   6.512 -0.5501  0.3047 -0.3986
  326MOL0     O44874   7.962   9.070   6.548  0.1893  0.4119 -0.5081
  326MOL0     C44875   7.948   9.171   6.460 -0.5531  0.1459 -0.6215
  326MOL0     C44876   7.861   9.265   6.500 -1.1084  0.5213  0.3556
  326MOL0     C44877   7.864   9.387   6.433 -0.7683  0.1477  0.4102
  326MOL0     C44878   7.770   9.488   6.494 -1.0079  0.7518  0.0512
  326MOL0     C44879   7.943   9.411   6.317 -0.0226 -0.1532 -0.5829
  326MOL0     C44880   7.923   9.516   6.219 -0.0143 -0.3750  0.7148
  326MOL0     O44881   8.028   9.547   6.133  0.1034  0.1892  0.1079
  326MOL0     C44882   8.024   9.655   6.054 -0.1443  0.3836 -0.4141
  326MOL0     C44883   7.952   9.769   6.061  0.3161  0.3707 -0.2605
  326MOL0     C44884   7.953   9.858   5.954 -0.6161  0.2683  0.4135
  326MOL0     C44885   8.038   9.834   5.841  0.4980 -0.4824 -0.3379
  326MOL0     O44886   8.042   9.918   5.730  0.1017  0.0218 -0.5898
  326MOL0     C44887   7.981  10.044   5.743 -0.0810  0.1776  1.6806
  326MOL0     C44888   7.828  10.040   5.710 -0.1251  0.6030  0.2316
  326MOL0     C44889   7.755  10.177   5.717  0.4599 -0.1568  0.2683
  326MOL0     C44890   7.622  10.167   5.638 -0.1301  0.2412  0.1268
  326MOL0     C44891   7.551  10.294   5.641 -0.2843  1.6757 -0.5365
  326MOL0     C44892   7.395  10.292   5.613 -0.3853 -0.5596 -0.5195
  326MOL0     C44893   7.343  10.425   5.666 -0.6118  0.0158 -0.3585
  326MOL0     C44894   7.222  10.457   5.591 -0.4297  0.7273  0.5675
  326MOL0    Cl44895   7.282  10.514   5.422  0.0871  0.3541 -0.3744
  326MOL0     C44896   8.115   9.715   5.831 -0.4803 -1.4239  1.1783
  326MOL0     C44897   8.095   9.620   5.931 -1.3790 -0.3064  0.4590
  326MOL0     O44898   7.808   9.560   6.208 -0.0023  1.2894 -1.1584
  326MOL0     C44899   8.033   9.310   6.276  0.0211  0.2693 -0.5092
  326MOL0     C44900   8.027   9.185   6.352  0.2752 -0.0811 -0.0544
  326MOL0     N44901   7.973   8.518   6.750  0.6216 -0.3762  0.2479
  326MOL0     N44902   8.020   8.447   6.666 -1.1015 -0.2343  0.2789
  326MOL0     C44903   8.204   8.863   5.677 -0.0704  0.8670 -0.1270
  326MOL0     C44904   8.199   8.977   5.583 -0.0990 -0.3783  0.4125
  326MOL0     C44905   8.318   9.271   5.268 -0.3960  0.3185  0.6405
  326MOL0     C44906   8.310   9.221   5.131 -0.2535  0.4554  0.6320
  326MOL0     C44907   8.282   9.308   5.021  0.7364  0.4696 -0.5909
  326MOL0     C44908   8.269   9.446   5.046  0.7291 -1.1317  0.2434
  326MOL0     O44909   8.227   9.526   4.937  0.1533  0.1408  0.2892
  326MOL0     C44910   8.153   9.649   4.951  0.8837  0.0830 -1.2729
  326MOL0     C44911   8.243   9.771   4.971  0.7015 -0.4744 -1.1743
  326MOL0     C44912   8.162   9.903   4.997 -0.6221  0.3383  0.1106
  326MOL0     C44913   8.254  10.014   5.055  1.1173 -0.9513 -0.4918
  326MOL0     C44914   8.279  10.009   5.205 -0.7303 -0.1186  0.1398
  326MOL0     C44915   8.280  10.010   5.326 -0.6484  0.2251 -0.2097
  326MOL0     C44916   8.282   9.493   5.177 -0.1080 -0.3315 -0.1963
  326MOL0     C44917   8.310   9.410   5.289 -0.4732  0.4826 -0.6415
  326MOL0     C44918   8.332   9.462   5.433  0.6502 -0.3542  0.2762
  326MOL0     H44919   8.480   8.903   5.402  0.0323  2.7241 -0.0314
  326MOL0     H44920   8.496   8.719   5.575  0.9444  0.3202  1.9361
  326MOL0     H44921   8.196   8.704   5.922 -0.3150 -1.5892  0.5511
  326MOL0     H44922   8.305   8.839   5.915 -1.5035  0.5668  3.6497
  326MOL0     H44923   8.360   8.563   6.042  0.0147  0.8106  2.3549
  326MOL0     H44924   8.486   8.678   5.993 -0.6311  0.9796 -1.2974
  326MOL0     H44925   8.440   8.694   6.239  2.8856  0.4326 -1.8115
  326MOL0     H44926   8.374   8.837   6.160 -1.8620 -0.4168  0.8871
  326MOL0     H44927   8.227   8.756   6.323  0.0626  0.3251  0.6242
  326MOL0     H44928   8.157   8.766   6.160  2.8076  0.1669 -1.8173
  326MOL0     H44929   8.281   8.507   6.282 -3.6333 -3.5999  2.1683
  326MOL0     H44930   8.184   8.521   6.133  1.1720  1.9344 -1.3339
  326MOL0     H44931   8.074   8.584   6.405 -0.0592 -2.8468  1.4996
  326MOL0     H44932   7.991   8.567   6.251 -0.2104 -0.2152 -0.3945
  326MOL0     H44933   8.143   8.346   6.410  2.8529 -0.3131 -3.1739
  326MOL0     H44934   8.060   8.314   6.269  0.3377 -1.7865  3.1484
  326MOL0     H44935   7.842   8.365   6.385 -0.0319  0.5102  0.8136
  326MOL0     H44936   7.947   8.255   6.469 -2.5019 -0.2918 -0.9239
  326MOL0     H44937   7.771   8.576   6.500  0.3782  1.6699  0.1879
  326MOL0     H44938   7.801   8.724   6.856 -0.6928 -0.5443  0.7566
  326MOL0     H44939   7.679   8.697   6.749 -0.2624 -0.2713  1.8570
  326MOL0     H44940   7.763   8.873   6.610  0.0127 -0.9021 -0.0383
  326MOL0     H44941   7.827   8.935   6.765  0.5107  0.9973 -1.3325
  326MOL0     H44942   8.038   8.894   6.717 -0.7429 -1.4656  2.3669
  326MOL0     H44943   8.015   8.756   6.604  1.0171  1.3184 -1.7549
  326MOL0     H44944   8.082   8.928   6.466  1.0468 -1.5051  2.9322
  326MOL0     H44945   7.906   8.899   6.445  0.1215  0.0590 -1.0519
  326MOL0     H44946   7.795   9.241   6.582  0.2664 -1.8600  0.8530
  326MOL0     H44947   7.752   9.480   6.601 -0.5558  1.7353  0.2141
  326MOL0     H44948   7.679   9.465   6.439  0.1327  0.7137 -1.9327
  326MOL0     H44949   7.803   9.590   6.471 -0.3079  0.4180 -0.4606
  326MOL0     H44950   7.886   9.784   6.146  1.9986 -0.3432  1.2509
  326MOL0     H44951   7.892   9.948   5.957 -1.6059 -0.4160  1.5475
  326MOL0     H44952   7.997  10.091   5.841 -0.2489  1.8035  0.9704
  326MOL0     H44953   8.024  10.102   5.661  1.6991 -1.8940  1.0790
  326MOL0     H44954   7.815   9.993   5.613 -1.3050 -1.2489  1.2349
  326MOL0     H44955   7.776   9.978   5.784 -1.3504  1.1942 -0.1167
  326MOL0     H44956   7.821  10.254   5.676 -1.5376  1.6956  0.3348
  326MOL0     H44957   7.738  10.207   5.820  0.4281  0.2856  0.1383
  326MOL0     H44958   7.563  10.089   5.687 -2.1663  1.4962 -0.2058
  326MOL0     H44959   7.635  10.132   5.535  0.5217 -2.8319  1.1597
  326MOL0     H44960   7.568  10.342   5.737 -0.5679  0.9419 -0.1082
  326MOL0     H44961   7.598  10.357   5.565  2.1687  3.1888  2.0707
  326MOL0     H44962   7.340  10.211   5.661 -1.4843 -0.7583 -2.0634
  326MOL0     H44963   7.376  10.281   5.506  3.3328 -2.3438 -1.1820
  326MOL0     H44964   7.414  10.507   5.661  2.2755 -2.3594 -0.6905
  326MOL0     H44965   7.318  10.403   5.770 -2.8387 -0.2408 -0.8971
  326MOL0     H44966   7.171  10.533   5.651 -0.7718 -1.5456  3.3257
  326MOL0     H44967   7.154  10.372   5.587 -0.9246  1.0971  1.0202
  326MOL0     H44968   8.171   9.689   5.741 -1.9808  1.3705 -0.7066
  326MOL0     H44969   8.145   9.526   5.911 -0.8652 -0.4378  2.1902
  326MOL0     H44970   8.111   9.326   6.203 -1.5187  2.8401 -1.7365
  326MOL0     H44971   8.094   9.108   6.312 -0.2726 -0.2306 -0.7076
  326MOL0     H44972   8.122   8.841   5.745  1.6642  0.1510  1.8109
  326MOL0     H44973   8.129   9.058   5.597  1.0769  0.5627  0.9665
  326MOL0     H44974   8.326   9.115   5.114 -4.7832 -0.0995 -1.6360
  326MOL0     H44975   8.276   9.272   4.919  4.7856 -1.4714 -0.3414
  326MOL0     H44976   8.093   9.658   4.860 -1.3205 -2.5705 -0.2368
  326MOL0     H44977   8.087   9.647   5.039  2.8230  3.5208  0.4684
  326MOL0     H44978   8.304   9.786   4.882 -0.0812  0.6841 -1.5508
  326MOL0     H44979   8.308   9.762   5.059  0.0067  5.1507  0.3420
  326MOL0     H44980   8.122   9.939   4.902 -1.5237  0.5303  0.5464
  326MOL0     H44981   8.080   9.878   5.065  0.0477  1.0811  1.2245
  326MOL0     H44982   8.208  10.113   5.053 -2.0273 -2.3079 -0.6865
  326MOL0     H44983   8.349  10.004   5.002  1.6569  3.0873 -0.5559
  326MOL0     H44984   8.263  10.026   5.431 -4.5081  1.1908 -0.8156
  326MOL0     H44985   8.292   9.598   5.203  1.8386 -0.2863 -0.9339
  326MOL0     H44986   8.433   9.440   5.469  1.6877  3.6632  0.3522
  326MOL0     H44987   8.322   9.570   5.424 -0.1482 -0.4369  0.1568
  326MOL0     H44988   8.260   9.427   5.507 -1.3169  0.7442 -1.0380
  327MOL0     O44989   5.923   0.510   5.066  0.0034  0.2150  0.7996
  327MOL0     C44990   5.916   0.477   4.942 -0.4161  0.4655 -0.6157
  327MOL0     O44991   6.009   0.403   4.879 -0.8461 -0.3878  0.1968
  327MOL0     C44992   6.117   0.356   4.958  0.3214 -0.4076  0.0777
  327MOL0     C44993   6.230   0.431   4.981  0.7844 -0.3637 -0.0913
  327MOL0     C44994   6.330   0.386   5.054 -0.7113  0.1498 -0.5348
  327MOL0     C44995   6.330   0.259   5.105 -0.2318  0.0446 -0.5039
  327MOL0     O44996   6.431   0.221   5.193  0.2496  0.1820  0.2667
  327MOL0     C44997   6.512   0.119   5.132  1.1059  0.4026  0.3532
  327MOL0     C44998   6.635   0.086   5.217  0.1548 -0.7052 -0.5582
  327MOL0     C44999   6.708  -0.050   5.197  0.1644 -0.1349 -0.2792
  327MOL0     C45000   6.626  -0.167   5.222  0.4355  0.0292  0.2739
  327MOL0     C45001   6.717  -0.303   5.214  0.4340 -0.5652 -0.0249
  327MOL0     C45002   6.632  -0.420   5.234  0.5237  0.5912  0.6694
  327MOL0     C45003   6.718  -0.533   5.273  0.6537  0.2212 -0.7921
  327MOL0     C45004   6.658  -0.673   5.250 -0.0261  0.0862 -0.0352
  327MOL0     N45005   6.666  -0.721   5.111  0.1088 -0.0580 -0.1988
  327MOL0     C45006   6.782  -0.739   5.032  0.9199  0.7942 -0.9423
  327MOL0     C45007   6.741  -0.743   4.905 -0.0691 -0.4075 -0.7683
  327MOL0     C45008   6.810  -0.754   4.779  0.2815  0.0929  0.2220
  327MOL0     C45009   6.854  -0.910   4.761 -0.1323 -0.4226 -0.7169
  327MOL0     C45010   6.981  -0.938   4.845  0.4937 -0.2345  1.1943
  327MOL0     C45011   6.997  -1.080   4.883  0.0998 -0.2504 -0.3375
  327MOL0     O45012   7.116  -1.086   4.968  0.5055 -0.3657  0.4910
  327MOL0     C45013   7.135  -1.201   5.033 -0.1998 -0.0918 -0.9223
  327MOL0     C45014   7.055  -1.321   5.018 -0.9436 -0.4637 -0.6325
  327MOL0     C45015   7.074  -1.434   5.099 -0.0263 -0.5864 -0.6051
  327MOL0     C45016   6.992  -1.553   5.065  0.6061  0.2762 -0.2912
  327MOL0     C45017   7.171  -1.424   5.204 -0.3800 -1.0822 -0.3173
  327MOL0     C45018   7.219  -1.545   5.288 -0.7820 -0.1641  0.4131
  327MOL0     O45019   7.315  -1.510   5.381 -0.2823  0.0003  0.7245
  327MOL0     C45020   7.371  -1.596   5.460  0.8363  0.7226 -0.0984
  327MOL0     C45021   7.333  -1.621   5.597 -0.0642  0.3774 -0.4673
  327MOL0     C45022   7.418  -1.706   5.680  0.5596 -0.0241  0.2338
  327MOL0     C45023   7.526  -1.775   5.623  0.2519  1.2603 -1.1537
  327MOL0     O45024   7.617  -1.866   5.682 -0.6237  0.4990 -0.5233
  327MOL0     C45025   7.609  -1.871   5.828  0.5202 -0.1655 -0.0223
  327MOL0     C45026   7.710  -1.968   5.887  0.2094 -0.2346  0.1982
  327MOL0     C45027   7.718  -2.111   5.825 -0.5296 -0.0306  0.5433
  327MOL0     C45028   7.837  -2.196   5.852 -0.5639 -0.4159 -0.9268
  327MOL0     C45029   7.806  -2.334   5.789  0.0183  0.3947  0.0651
  327MOL0     C45030   7.904  -2.446   5.850  0.6071  0.4913 -0.5429
  327MOL0     C45031   8.050  -2.403   5.879  0.7509 -0.0205 -0.4242
  327MOL0     C45032   8.122  -2.511   5.973  0.5505  0.6160  0.0188
  327MOL0    Cl45033   8.252  -2.450   6.078  0.1575  0.3225 -0.0469
  327MOL0     C45034   7.555  -1.750   5.486 -0.8053  0.3298 -0.5403
  327MOL0     C45035   7.492  -1.656   5.418 -1.0268 -0.7522  0.1166
  327MOL0     O45036   7.187  -1.660   5.249 -0.7565 -1.0420  1.0888
  327MOL0     C45037   7.243  -1.303   5.218 -0.4867 -0.9163  0.1488
  327MOL0     C45038   7.229  -1.194   5.136 -0.6208  0.0783  0.2853
  327MOL0     N45039   6.598  -0.738   4.906 -0.1012  0.1999 -0.2566
  327MOL0     N45040   6.552  -0.721   5.027 -0.2926  0.0086  0.5494
  327MOL0     C45041   6.222   0.175   5.081 -0.1877 -0.4108  0.2138
  327MOL0     C45042   6.110   0.225   5.005 -0.1503 -0.0184 -0.1068
  327MOL0     C45043   5.797   0.498   4.852 -0.3040  0.0109 -0.4934
  327MOL0     C45044   5.768   0.409   4.738 -0.2429 -0.5211  0.4893
  327MOL0     C45045   5.645   0.423   4.662  0.3994  0.8523  0.1914
  327MOL0     C45046   5.565   0.534   4.696 -0.7408 -0.2092 -0.2444
  327MOL0     O45047   5.455   0.553   4.616 -0.1326 -1.0845 -0.8270
  327MOL0     C45048   5.338   0.537   4.687 -0.1282 -0.0535  0.1332
  327MOL0     C45049   5.210   0.596   4.623 -0.2024 -0.2226  0.3956
  327MOL0     C45050   5.221   0.661   4.484 -0.1938  0.1005  0.0450
  327MOL0     C45051   5.082   0.702   4.438 -0.2716 -0.6485 -0.1296
  327MOL0     C45052   5.012   0.599   4.376  0.2712 -0.2297  0.5886
  327MOL0     C45053   4.929   0.526   4.315  0.9240  0.4502 -0.9471
  327MOL0     C45054   5.599   0.625   4.793 -0.5501  0.2245 -0.0013
  327MOL0     C45055   5.714   0.610   4.875 -0.9505 -0.6317  0.5960
  327MOL0     C45056   5.743   0.726   4.973  0.1481  0.2968 -0.0947
  327MOL0     H45057   6.237   0.530   4.935  1.1334 -0.9152 -1.2542
  327MOL0     H45058   6.421   0.445   5.060  0.6687 -2.0103  0.9565
  327MOL0     H45059   6.529   0.155   5.030 -0.5114  1.7357  0.5112
  327MOL0     H45060   6.449   0.030   5.140  0.0172  1.3138  3.1198
  327MOL0     H45061   6.708   0.164   5.193 -1.3165  0.5604 -1.0858
  327MOL0     H45062   6.619   0.087   5.325  2.3945 -0.3605 -0.1766
  327MOL0     H45063   6.737  -0.052   5.091 -1.1095 -2.4952 -0.6524
  327MOL0     H45064   6.801  -0.048   5.255 -0.7954 -0.7873  1.3280
  327MOL0     H45065   6.571  -0.157   5.317 -1.1631 -1.2135 -0.4817
  327MOL0     H45066   6.541  -0.169   5.154  0.0571  1.4131  0.6606
  327MOL0     H45067   6.803  -0.299   5.282  2.0967  1.6249 -2.1096
  327MOL0     H45068   6.752  -0.311   5.111 -1.2605 -0.4744 -0.6401
  327MOL0     H45069   6.563  -0.399   5.317  1.7216  2.3963  1.2595
  327MOL0     H45070   6.575  -0.458   5.149 -0.3375 -1.2379  1.9923
  327MOL0     H45071   6.742  -0.522   5.379 -0.9918 -2.1724 -0.0996
  327MOL0     H45072   6.811  -0.531   5.216  1.6458 -1.5120  0.6530
  327MOL0     H45073   6.707  -0.741   5.320  1.1820  1.9890  1.0732
  327MOL0     H45074   6.558  -0.682   5.292 -0.3194 -0.0609 -0.7452
  327MOL0     H45075   6.885  -0.743   5.067  0.8739 -3.5016 -0.7404
  327MOL0     H45076   6.894  -0.685   4.791  0.0552 -0.0051  3.1878
  327MOL0     H45077   6.745  -0.727   4.695 -0.2365  0.0325  0.6022
  327MOL0     H45078   6.774  -0.977   4.793  0.0992  0.2282  1.3333
  327MOL0     H45079   6.873  -0.932   4.655 -2.8383  2.2984 -1.9038
  327MOL0     H45080   7.068  -0.898   4.792  0.0139  1.1625  1.4174
  327MOL0     H45081   6.972  -0.889   4.942 -0.1544 -0.3837  1.2139
  327MOL0     H45082   6.904  -1.117   4.929 -2.0412  3.4915 -1.2446
  327MOL0     H45083   7.015  -1.147   4.798 -0.2007 -0.7904  0.0153
  327MOL0     H45084   6.974  -1.326   4.946 -2.3980  0.2474  0.9123
  327MOL0     H45085   7.051  -1.633   5.017 -0.5427 -0.2910 -0.8013
  327MOL0     H45086   6.920  -1.514   4.992  2.6381  3.7096 -0.6555
  327MOL0     H45087   6.947  -1.590   5.157  1.0939  3.4902  1.3844
  327MOL0     H45088   7.243  -1.576   5.636 -0.3532  2.0447 -2.8383
  327MOL0     H45089   7.393  -1.710   5.786 -0.0193  1.5074  0.1836
  327MOL0     H45090   7.620  -1.770   5.868 -0.0517 -0.4305  0.8412
  327MOL0     H45091   7.517  -1.911   5.872  0.4914 -0.1010 -0.0237
  327MOL0     H45092   7.813  -1.931   5.884  0.5130 -1.0808 -0.1435
  327MOL0     H45093   7.684  -1.981   5.992 -2.7120  1.7414 -0.1546
  327MOL0     H45094   7.697  -2.102   5.718 -1.1382 -1.0641  0.5622
  327MOL0     H45095   7.629  -2.163   5.863 -0.3099 -1.3477 -0.6759
  327MOL0     H45096   7.836  -2.220   5.958  0.5696 -2.6353 -1.3415
  327MOL0     H45097   7.937  -2.166   5.818 -0.1713 -0.8953 -0.2303
  327MOL0     H45098   7.705  -2.356   5.825 -0.4128  2.2437  0.0787
  327MOL0     H45099   7.803  -2.327   5.680 -2.8044 -0.9623 -0.0324
  327MOL0     H45100   7.906  -2.525   5.773 -0.8470 -0.1108  0.0138
  327MOL0     H45101   7.867  -2.486   5.945  1.7757  0.1293 -0.2193
  327MOL0     H45102   8.053  -2.303   5.923 -1.8933  1.0755 -2.4706
  327MOL0     H45103   8.106  -2.390   5.786  1.1315  1.0021 -0.0640
  327MOL0     H45104   8.146  -2.598   5.910 -0.5044 -1.2722  2.0699
  327MOL0     H45105   8.053  -2.566   6.038  2.4786 -4.4294 -1.6640
  327MOL0     H45106   7.643  -1.796   5.443 -0.3274  1.6897 -1.0644
  327MOL0     H45107   7.525  -1.630   5.317 -3.1095 -2.5833 -1.1298
  327MOL0     H45108   7.332  -1.302   5.281 -0.8473  0.8375  0.6756
  327MOL0     H45109   7.287  -1.103   5.145  0.2000  0.1659 -3.8260
  327MOL0     H45110   6.225   0.074   5.119 -1.8801 -0.5104  0.1573
  327MOL0     H45111   6.023   0.164   4.984 -0.1127  0.5643 -2.2129
  327MOL0     H45112   5.829   0.321   4.723  1.3572  0.8353 -1.4757
  327MOL0     H45113   5.613   0.361   4.579  3.4406  0.6930 -1.0012
  327MOL0     H45114   5.322   0.429   4.684 -0.2518 -0.0110 -1.2228
  327MOL0     H45115   5.336   0.566   4.793  2.2694 -0.5863  0.3859
  327MOL0     H45116   5.170   0.673   4.690  0.0390 -3.1938  4.2781
  327MOL0     H45117   5.130   0.521   4.619 -0.9969  0.6122  0.1886
  327MOL0     H45118   5.273   0.758   4.484 -0.7565  0.4127 -0.9272
  327MOL0     H45119   5.269   0.601   4.406  0.6800 -1.2414  1.5534
  327MOL0     H45120   5.088   0.780   4.361 -0.9306 -0.2550  0.2147
  327MOL0     H45121   5.027   0.732   4.527  2.6195  1.1957  1.1854
  327MOL0     H45122   4.852   0.464   4.274  1.7498 -3.2684  2.4885
  327MOL0     H45123   5.532   0.710   4.796 -1.5136 -0.5464  1.4436
  327MOL0     H45124   5.692   0.817   4.938  0.6961  0.4605 -0.4818
  327MOL0     H45125   5.700   0.704   5.071 -1.9962  0.6387 -0.8946
  327MOL0     H45126   5.851   0.733   4.982 -0.0069  0.3446  2.4573
  328MOL0     O45127  10.839   4.203   5.074 -0.7253 -0.6650  0.3958
  328MOL0     C45128  10.919   4.178   5.165 -0.7280 -0.4331  0.0772
  328MOL0     O45129  10.985   4.274   5.238 -0.2637 -0.0654  0.7697
  328MOL0     C45130  10.976   4.415   5.220 -0.9856 -0.2826 -0.8856
  328MOL0     C45131  11.004   4.485   5.341 -0.2214 -0.2751 -0.0383
  328MOL0     C45132  11.018   4.625   5.330  0.3935 -0.0754 -0.0051
  328MOL0     C45133  11.010   4.693   5.206 -0.8031  0.2463 -0.6746
  328MOL0     O45134  11.032   4.826   5.221 -0.0065  0.0755 -0.6287
  328MOL0     C45135  11.169   4.850   5.167 -0.5582  0.9221  0.1302
  328MOL0     C45136  11.196   5.001   5.183 -1.2597  0.3563  0.2521
  328MOL0     C45137  11.309   5.034   5.079  0.4732  0.6778 -0.1387
  328MOL0     C45138  11.358   5.187   5.075  0.2569  0.4012  0.2320
  328MOL0     C45139  11.260   5.281   4.993  0.1194 -0.0215 -0.0038
  328MOL0     C45140  11.277   5.434   5.041  0.4613  0.2466 -0.0373
  328MOL0     C45141  11.187   5.536   4.960  0.6239  0.4882 -0.2575
  328MOL0     C45142  11.036   5.518   4.985 -0.2013  0.5122 -0.6134
  328MOL0     N45143  11.005   5.517   5.131  0.3904 -0.3292  0.6447
  328MOL0     C45144  11.008   5.628   5.213 -0.6774  0.0706 -0.3632
  328MOL0     C45145  11.012   5.580   5.336 -0.1371 -0.4415  0.3146
  328MOL0     C45146  11.008   5.675   5.450  0.9170 -0.5665 -0.6677
  328MOL0     C45147  10.876   5.741   5.498 -0.5763 -0.4774  0.0361
  328MOL0     C45148  10.818   5.679   5.628 -0.2257 -0.2166 -0.1679
  328MOL0     C45149  10.852   5.756   5.747  1.2397  0.2689 -0.2186
  328MOL0     O45150  10.995   5.774   5.757 -0.4552  0.0864 -0.3821
  328MOL0     C45151  11.035   5.880   5.843 -0.6503  0.1720  0.6201
  328MOL0     C45152  10.952   5.966   5.908  0.0780  0.5671  0.5427
  328MOL0     C45153  11.005   6.076   5.982 -0.7473  0.1667 -0.4498
  328MOL0     C45154  10.901   6.163   6.066 -0.6952  0.1548  0.6639
  328MOL0     C45155  11.150   6.097   5.980  0.8742  1.2471 -0.5279
  328MOL0     C45156  11.229   6.206   6.055 -0.7942  0.1382 -0.0028
  328MOL0     O45157  11.365   6.197   6.075 -0.0338  0.4768 -0.3617
  328MOL0     C45158  11.430   6.315   6.105  0.4058 -0.7359  0.0915
  328MOL0     C45159  11.408   6.441   6.043 -0.1111  0.8248  0.1470
  328MOL0     C45160  11.483   6.556   6.079  1.0127  0.1249 -0.4432
  328MOL0     C45161  11.575   6.546   6.182  0.2305 -0.7346 -0.1214
  328MOL0     O45162  11.637   6.660   6.233  0.0407 -0.3357  1.0413
  328MOL0     C45163  11.769   6.644   6.277  0.6789  0.6684  0.9994
  328MOL0     C45164  11.832   6.785   6.274  0.1707  0.7703  0.4711
  328MOL0     C45165  11.977   6.810   6.323  0.4905 -0.3925 -0.2560
  328MOL0     C45166  12.081   6.736   6.245  0.1060  0.2915  0.4190
  328MOL0     C45167  12.217   6.752   6.304  0.1893  0.6197 -0.1075
  328MOL0     C45168  12.320   6.683   6.216  0.0790 -0.0438 -0.6793
  328MOL0     C45169  12.461   6.704   6.280  0.8127 -0.0622  0.5579
  328MOL0     C45170  12.579   6.655   6.198 -0.3089 -0.0905 -0.3861
  328MOL0    Cl45171  12.630   6.757   6.051  0.3651  0.3057 -0.1651
  328MOL0     C45172  11.600   6.422   6.246 -0.6407 -0.2933  0.6679
  328MOL0     C45173  11.525   6.306   6.209  0.0196  0.1066 -0.2695
  328MOL0     O45174  11.162   6.295   6.101  0.9046 -0.2987  0.5885
  328MOL0     C45175  11.231   6.018   5.904 -0.2094  0.0344 -0.2937
  328MOL0     C45176  11.174   5.906   5.840  0.0241 -0.5171 -0.9693
  328MOL0     N45177  11.021   5.446   5.338 -0.0505 -0.0182  0.2229
  328MOL0     N45178  11.016   5.404   5.214  0.3350 -0.7184 -0.6700
  328MOL0     C45179  10.994   4.621   5.083  1.1597  0.1677  0.4286
  328MOL0     C45180  10.966   4.484   5.095 -0.0407 -0.6237 -0.2768
  328MOL0     C45181  10.958   4.038   5.193 -0.2314 -0.2072 -0.1839
  328MOL0     C45182  10.958   3.953   5.082 -0.0673 -0.0629  0.6444
  328MOL0     C45183  10.988   3.815   5.099 -1.1560  0.3012 -0.8331
  328MOL0     C45184  11.023   3.775   5.234 -0.4489  0.4422  0.4206
  328MOL0     O45185  11.051   3.645   5.247  0.7106 -0.1688 -0.1354
  328MOL0     C45186  11.184   3.622   5.303  0.0063  0.1497  0.4725
  328MOL0     C45187  11.251   3.492   5.240  0.6012 -0.6621 -0.8303
  328MOL0     C45188  11.169   3.350   5.260 -0.6226 -0.2604  0.0209
  328MOL0     C45189  11.235   3.228   5.190 -0.8444  0.1343 -0.1690
  328MOL0     C45190  11.379   3.238   5.199 -0.7368 -0.9010 -0.3384
  328MOL0     C45191  11.502   3.242   5.225  1.0556 -1.4531  0.7451
  328MOL0     C45192  11.000   3.850   5.342  0.4264 -0.0749  1.1472
  328MOL0     C45193  10.976   3.986   5.327  0.3365  0.4207 -0.0661
  328MOL0     C45194  10.931   4.072   5.444 -0.3162  0.6238 -0.0677
  328MOL0     H45195  11.004   4.436   5.438 -2.6835  2.0698  1.3091
  328MOL0     H45196  11.042   4.680   5.420 -0.6042  3.0584 -1.5125
  328MOL0     H45197  11.173   4.822   5.061  0.4074  0.3147  0.3116
  328MOL0     H45198  11.249   4.792   5.215 -2.8531 -0.1969  2.8691
  328MOL0     H45199  11.102   5.054   5.164 -1.1597  0.2073 -0.7456
  328MOL0     H45200  11.234   5.023   5.283  1.3323  0.7145 -0.7183
  328MOL0     H45201  11.396   4.969   5.088  0.1748 -0.0452 -2.1709
  328MOL0     H45202  11.272   5.005   4.981  1.1746 -2.9307  0.5310
  328MOL0     H45203  11.367   5.216   5.181 -4.0473  0.7653  0.6798
  328MOL0     H45204  11.460   5.203   5.039  0.6849 -2.7198 -0.2211
  328MOL0     H45205  11.158   5.245   5.004  1.2476 -3.5543  0.4066
  328MOL0     H45206  11.290   5.273   4.888  1.4884  2.2416  0.1483
  328MOL0     H45207  11.251   5.445   5.147 -0.1450 -1.8140  0.0876
  328MOL0     H45208  11.383   5.458   5.027  1.4684 -2.0088  2.7287
  328MOL0     H45209  11.202   5.522   4.852  1.0549  0.1588 -0.1590
  328MOL0     H45210  11.223   5.633   4.996 -1.2154  1.4213 -0.8359
  328MOL0     H45211  10.978   5.592   4.929  3.6491  2.4344 -2.4661
  328MOL0     H45212  11.017   5.417   4.949  0.2951 -0.2524  1.1627
  328MOL0     H45213  10.999   5.727   5.170 -0.3365 -0.3211 -1.3652
  328MOL0     H45214  11.069   5.763   5.430  2.2257 -0.1548  3.9640
  328MOL0     H45215  11.063   5.627   5.532 -1.2629 -4.2766 -1.1211
  328MOL0     H45216  10.884   5.850   5.512 -3.9949 -0.3879  2.4587
  328MOL0     H45217  10.801   5.731   5.419 -0.2197  1.0211 -0.5320
  328MOL0     H45218  10.710   5.665   5.614 -0.4702 -0.2125  1.5773
  328MOL0     H45219  10.867   5.582   5.643  0.3402  0.1370  0.3056
  328MOL0     H45220  10.792   5.847   5.736 -1.7481 -0.9102  3.7898
  328MOL0     H45221  10.805   5.706   5.833 -2.2405 -0.5197 -2.3761
  328MOL0     H45222  10.845   5.948   5.901 -0.0584  2.0196 -2.5638
  328MOL0     H45223  10.926   6.265   6.035 -1.6061  0.3600  0.5846
  328MOL0     H45224  10.930   6.160   6.172 -1.0070  2.1742  0.8459
  328MOL0     H45225  10.798   6.135   6.043  0.0910 -1.3233 -1.3343
  328MOL0     H45226  11.334   6.448   5.964 -2.6840 -7.8537  0.8038
  328MOL0     H45227  11.465   6.655   6.040  2.2287 -0.0949 -1.6365
  328MOL0     H45228  11.771   6.595   6.375 -0.5609  2.6575  2.0897
  328MOL0     H45229  11.829   6.591   6.203  0.3067  0.7851  0.6113
  328MOL0     H45230  11.830   6.812   6.168 -1.8011 -1.9995 -0.2967
  328MOL0     H45231  11.769   6.859   6.324  1.8282  0.5808  3.0074
  328MOL0     H45232  11.993   6.789   6.429  2.2182 -3.1160 -0.9398
  328MOL0     H45233  11.998   6.917   6.319  2.1846 -0.7155 -0.9344
  328MOL0     H45234  12.078   6.779   6.144 -1.9530  0.6387  0.5894
  328MOL0     H45235  12.059   6.630   6.234  0.3578  0.3643 -1.0354
  328MOL0     H45236  12.253   6.854   6.321  1.1229  0.0512  1.6053
  328MOL0     H45237  12.226   6.698   6.399 -1.6079 -1.6212 -1.1290
  328MOL0     H45238  12.317   6.730   6.118  0.9963  1.8812  0.1698
  328MOL0     H45239  12.287   6.580   6.196 -0.8321  0.2561 -0.7602
  328MOL0     H45240  12.466   6.642   6.370  3.5443 -0.2636  0.3543
  328MOL0     H45241  12.475   6.812   6.295  1.1389  0.3222 -2.0130
  328MOL0     H45242  12.557   6.553   6.166  1.6992 -0.3047 -1.2889
  328MOL0     H45243  12.663   6.649   6.267 -0.2093  0.0123 -0.4965
  328MOL0     H45244  11.661   6.415   6.336  0.8574 -0.6259 -0.3274
  328MOL0     H45245  11.529   6.210   6.258 -0.1499  0.3266  0.1905
  328MOL0     H45246  11.335   6.045   5.886 -0.3519 -1.0314 -3.3923
  328MOL0     H45247  11.233   5.820   5.809 -0.1844 -1.8465  1.9718
  328MOL0     H45248  10.980   4.670   4.988 -1.5007  1.1875  1.2366
  328MOL0     H45249  10.953   4.428   5.003 -2.0809 -2.1764  0.8563
  328MOL0     H45250  10.962   3.994   4.982  2.2696  0.5065  0.9189
  328MOL0     H45251  10.997   3.751   5.012  2.5246 -1.6571  0.7925
  328MOL0     H45252  11.260   3.700   5.292 -0.3534  0.4367  0.0126
  328MOL0     H45253  11.181   3.607   5.412  0.9053  1.7510  0.7625
  328MOL0     H45254  11.345   3.490   5.295  0.8218  2.0013 -1.0033
  328MOL0     H45255  11.267   3.491   5.132 -0.2611  1.5494 -1.0269
  328MOL0     H45256  11.174   3.330   5.368  4.4710  1.6122  0.3871
  328MOL0     H45257  11.068   3.364   5.221 -0.1639  1.0369 -0.7652
  328MOL0     H45258  11.199   3.224   5.087 -2.6833 -0.2168  0.4617
  328MOL0     H45259  11.211   3.129   5.229 -0.6069  0.3923  0.6473
  328MOL0     H45260  11.604   3.271   5.242  0.0088  1.1076  3.5000
  328MOL0     H45261  11.003   3.801   5.439 -2.1912  2.5494  2.7015
  328MOL0     H45262  10.995   4.159   5.453 -1.1315  1.4215 -1.5598
  328MOL0     H45263  10.829   4.109   5.427 -0.4174  2.6862  3.9649
  328MOL0     H45264  10.941   4.005   5.530 -5.7013 -0.9000 -0.2328
  329MOL0     O45265   7.740   0.431   5.464 -1.3272  0.2248 -0.4895
  329MOL0     C45266   7.706   0.457   5.576  0.2758 -0.3058  0.3653
  329MOL0     O45267   7.668   0.586   5.615  0.1159 -0.2517  0.3384
  329MOL0     C45268   7.618   0.677   5.514  0.5730  0.2710 -0.4978
  329MOL0     C45269   7.696   0.703   5.405 -0.1032  0.7024  1.0335
  329MOL0     C45270   7.659   0.789   5.307 -0.4778  0.5439  0.9095
  329MOL0     C45271   7.540   0.858   5.321 -0.7114 -0.4855 -0.7683
  329MOL0     O45272   7.489   0.951   5.230 -0.5827  0.2158  0.3423
  329MOL0     C45273   7.582   0.990   5.118 -0.2094  0.1762 -0.2850
  329MOL0     C45274   7.676   1.097   5.173  0.6365 -0.4463  0.8999
  329MOL0     C45275   7.607   1.220   5.234  0.0963 -0.3153 -0.4425
  329MOL0     C45276   7.508   1.292   5.142 -0.3373 -0.3863  0.2478
  329MOL0     C45277   7.409   1.369   5.231  0.7046 -0.7444  0.3432
  329MOL0     C45278   7.289   1.427   5.137  0.2426 -0.9347 -0.1589
  329MOL0     C45279   7.181   1.332   5.094 -0.3446 -0.6621 -0.0984
  329MOL0     C45280   7.062   1.425   5.061 -0.2303 -0.6687  0.1274
  329MOL0     N45281   7.061   1.496   4.931 -0.6843  0.0342  0.3152
  329MOL0     C45282   6.985   1.466   4.822 -0.2050  0.4916 -0.4794
  329MOL0     C45283   7.033   1.538   4.712 -0.3475  0.2468 -1.2178
  329MOL0     C45284   7.001   1.493   4.569 -0.1210  0.5762 -0.9196
  329MOL0     C45285   7.099   1.534   4.450  1.1142  0.3539 -0.8248
  329MOL0     C45286   7.251   1.555   4.478  0.1060  0.3653 -0.3775
  329MOL0     C45287   7.321   1.447   4.566  0.0552 -0.0856  0.3639
  329MOL0     O45288   7.354   1.325   4.501  0.1640  0.4140  0.7975
  329MOL0     C45289   7.427   1.229   4.581 -0.6317 -0.2529  0.3077
  329MOL0     C45290   7.471   1.124   4.508 -0.0921  0.3148  0.5271
  329MOL0     C45291   7.575   1.036   4.554  1.0447 -0.1061  0.1103
  329MOL0     C45292   7.627   0.929   4.455  0.1887 -0.1983  0.3214
  329MOL0     C45293   7.623   1.053   4.692  0.1661  0.4003  0.6202
  329MOL0     C45294   7.740   0.970   4.752 -0.2901 -0.5841  1.0686
  329MOL0     O45295   7.810   0.874   4.690  0.0288 -0.5858  0.1281
  329MOL0     C45296   7.934   0.832   4.725 -0.1526  1.0347  0.6471
  329MOL0     C45297   7.996   0.818   4.851  1.3589 -0.3688 -0.1615
  329MOL0     C45298   8.137   0.806   4.866 -0.5573  0.9593  0.8805
  329MOL0     C45299   8.222   0.777   4.759 -0.4071  0.0921  1.0800
  329MOL0     O45300   8.360   0.780   4.762  0.7193  0.5750  0.4735
  329MOL0     C45301   8.415   0.722   4.879 -0.8810  0.5486 -0.4717
  329MOL0     C45302   8.569   0.698   4.861 -0.1108  0.0562 -0.6585
  329MOL0     C45303   8.652   0.674   4.997  0.3419 -0.0044  0.9121
  329MOL0     C45304   8.626   0.540   5.068  0.5547  0.8302  1.1895
  329MOL0     C45305   8.653   0.412   4.977 -0.1801 -0.4591  0.2951
  329MOL0     C45306   8.805   0.425   4.938 -0.1538  0.3799 -0.2988
  329MOL0     C45307   8.863   0.286   4.886  0.1597  0.3388  0.0928
  329MOL0     C45308   8.855   0.285   4.741 -0.8378  1.1179 -0.5670
  329MOL0    Cl45309   8.923   0.149   4.665 -0.0453  0.4577 -0.1521
  329MOL0     C45310   8.162   0.774   4.634 -0.0242 -0.0390  0.9423
  329MOL0     C45311   8.029   0.808   4.619 -0.1602  0.2355  1.1026
  329MOL0     O45312   7.759   1.004   4.868  0.2684  0.1613  0.0952
  329MOL0     C45313   7.574   1.165   4.769  0.2975 -0.7269 -0.1717
  329MOL0     C45314   7.482   1.250   4.712 -0.9172  0.1207 -0.8493
  329MOL0     N45315   7.119   1.627   4.772 -0.3151 -0.4308 -0.7776
  329MOL0     N45316   7.128   1.606   4.900  0.0628  0.4674 -0.4519
  329MOL0     C45317   7.454   0.822   5.424 -0.1461  0.8888 -0.9375
  329MOL0     C45318   7.493   0.733   5.517  0.9216 -0.7421 -0.6848
  329MOL0     C45319   7.727   0.360   5.687  0.5284  0.9017  0.1459
  329MOL0     C45320   7.681   0.392   5.819  0.5109  0.2130  0.3684
  329MOL0     C45321   7.682   0.304   5.927 -0.4914  0.7117  0.1500
  329MOL0     C45322   7.726   0.167   5.907  0.6709  0.3704 -0.1016
  329MOL0     O45323   7.738   0.089   6.021  0.2353 -0.8423 -0.5065
  329MOL0     C45324   7.665  -0.036   6.019 -0.0372  0.3817 -0.0008
  329MOL0     C45325   7.531  -0.032   5.942 -0.4299  0.2489 -0.0785
  329MOL0     C45326   7.433   0.072   6.009  0.5994  0.2731  0.2043
  329MOL0     C45327   7.355   0.005   6.129  1.3263 -0.0158 -0.1363
  329MOL0     C45328   7.292   0.112   6.216 -0.6874  0.1603 -0.1979
  329MOL0     C45329   7.223   0.201   6.269 -0.3411  0.0303  0.8788
  329MOL0     C45330   7.778   0.133   5.780 -1.3258 -0.8016  0.0518
  329MOL0     C45331   7.784   0.226   5.676  0.0734 -0.1452  0.9619
  329MOL0     C45332   7.846   0.171   5.542  0.2201  0.0567 -0.6474
  329MOL0     H45333   7.794   0.658   5.389 -0.1655  0.8809  0.1331
  329MOL0     H45334   7.741   0.798   5.236  0.4609 -1.6575  1.6284
  329MOL0     H45335   7.534   1.036   5.031  1.1982  0.8160 -0.7600
  329MOL0     H45336   7.644   0.907   5.081  1.8921 -0.1776  3.4557
  329MOL0     H45337   7.742   1.051   5.247  0.1999  1.4545  2.5820
  329MOL0     H45338   7.740   1.132   5.091 -1.7543  0.0871 -0.8619
  329MOL0     H45339   7.561   1.179   5.324  0.1367 -0.7871 -0.6309
  329MOL0     H45340   7.665   1.302   5.276 -0.2858  0.7740 -1.9458
  329MOL0     H45341   7.565   1.361   5.079  1.7227 -0.7824  1.5977
  329MOL0     H45342   7.454   1.222   5.078 -0.8215 -1.3871  1.7129
  329MOL0     H45343   7.468   1.450   5.274 -0.6563  0.5238 -0.0878
  329MOL0     H45344   7.359   1.302   5.303  0.1828 -0.1499  0.5456
  329MOL0     H45345   7.239   1.494   5.207 -1.2065 -0.0100 -2.0128
  329MOL0     H45346   7.324   1.488   5.053  0.1859 -1.3452 -0.4896
  329MOL0     H45347   7.157   1.278   5.186 -1.4934 -0.2693 -0.1495
  329MOL0     H45348   7.208   1.276   5.004 -0.9029 -1.0222 -0.0456
  329MOL0     H45349   6.981   1.352   5.044  0.8213 -1.5855 -1.2181
  329MOL0     H45350   7.036   1.502   5.133 -2.0866 -0.6351 -0.5133
  329MOL0     H45351   6.916   1.386   4.798 -1.4021  1.2578  0.3298
  329MOL0     H45352   6.907   1.542   4.543 -0.6881 -0.5119 -0.9688
  329MOL0     H45353   6.985   1.385   4.575  2.2158  0.2427  1.4948
  329MOL0     H45354   7.093   1.470   4.361 -2.4620  1.8431 -1.8110
  329MOL0     H45355   7.063   1.632   4.418  0.7168  0.5424  0.1859
  329MOL0     H45356   7.305   1.565   4.383  2.3930 -3.0841  0.3812
  329MOL0     H45357   7.250   1.652   4.529 -0.3198  0.0849  0.1547
  329MOL0     H45358   7.411   1.500   4.599 -0.4538  0.4924  0.8636
  329MOL0     H45359   7.259   1.428   4.654 -1.1131 -0.2445 -0.4767
  329MOL0     H45360   7.446   1.108   4.404 -1.0300  0.0903  0.7808
  329MOL0     H45361   7.570   0.836   4.458  0.7776 -0.5594  3.6693
  329MOL0     H45362   7.731   0.902   4.474  0.5309 -2.3701 -3.5707
  329MOL0     H45363   7.644   0.964   4.352  3.6265 -1.4205  0.3517
  329MOL0     H45364   7.942   0.839   4.943 -0.0179 -2.4392 -0.4240
  329MOL0     H45365   8.180   0.821   4.964 -1.1387  0.7640  1.1617
  329MOL0     H45366   8.406   0.803   4.953 -0.9777 -0.3551  0.5239
  329MOL0     H45367   8.370   0.628   4.913  0.5597 -0.3645 -1.0240
  329MOL0     H45368   8.582   0.621   4.784 -0.6418  2.2616 -3.0963
  329MOL0     H45369   8.619   0.784   4.817  0.7318 -0.0282  0.0947
  329MOL0     H45370   8.605   0.738   5.071 -2.3044 -2.3622  1.4385
  329MOL0     H45371   8.755   0.709   4.985  0.7672  0.0691  3.9847
  329MOL0     H45372   8.522   0.532   5.101  0.4373  3.1414  1.5568
  329MOL0     H45373   8.684   0.552   5.160 -0.4706  0.0968  1.9454
  329MOL0     H45374   8.629   0.332   5.049  1.6238  0.9114  2.5787
  329MOL0     H45375   8.585   0.395   4.894 -0.9760  1.0623  0.6164
  329MOL0     H45376   8.872   0.437   5.024  1.0151 -3.2620 -0.5253
  329MOL0     H45377   8.828   0.504   4.866  1.3551  0.3210  0.0768
  329MOL0     H45378   8.810   0.207   4.939  1.5429 -1.9430 -1.7488
  329MOL0     H45379   8.967   0.271   4.915 -0.1422  1.5255  1.9404
  329MOL0     H45380   8.897   0.375   4.697 -1.7239  1.5720 -0.5000
  329MOL0     H45381   8.747   0.278   4.723 -0.7436  2.2184 -1.6287
  329MOL0     H45382   8.228   0.759   4.549 -2.3061 -0.3602 -0.8767
  329MOL0     H45383   7.996   0.817   4.516  0.3494  0.6817  0.9680
  329MOL0     H45384   7.613   1.195   4.866 -1.6793  3.6675 -0.5445
  329MOL0     H45385   7.474   1.349   4.754  1.0433 -0.6049  1.4472
  329MOL0     H45386   7.357   0.869   5.439  0.1661  1.4659 -0.6779
  329MOL0     H45387   7.432   0.711   5.604  0.3850 -1.4746 -1.2363
  329MOL0     H45388   7.647   0.494   5.829  2.5630  0.8091  1.8270
  329MOL0     H45389   7.656   0.352   6.021 -2.1927  2.4214 -1.1166
  329MOL0     H45390   7.733  -0.102   5.964  0.6817  2.6890 -2.0579
  329MOL0     H45391   7.650  -0.087   6.114 -1.2661 -3.1259 -1.8863
  329MOL0     H45392   7.491  -0.134   5.943 -0.3313  0.2041 -0.6208
  329MOL0     H45393   7.546   0.000   5.839 -1.7533  0.6576 -0.1685
  329MOL0     H45394   7.488   0.160   6.041 -1.6303  1.3769  1.2219
  329MOL0     H45395   7.360   0.103   5.933 -2.7620 -1.3724  2.4704
  329MOL0     H45396   7.424  -0.049   6.194 -1.0541 -3.3095 -0.1188
  329MOL0     H45397   7.284  -0.068   6.091 -1.1706  0.9146  2.3682
  329MOL0     H45398   7.178   0.285   6.318 -0.2561  0.2746  0.5352
  329MOL0     H45399   7.820   0.037   5.753  1.9896  1.3154 -3.3392
  329MOL0     H45400   7.760   0.116   5.503  0.3764 -0.0960 -0.7798
  329MOL0     H45401   7.870   0.248   5.468  0.6177  0.3112 -0.2525
  329MOL0     H45402   7.936   0.118   5.574  0.4041 -0.4625 -1.9535
  330MOL0     O45403   7.973   8.389   2.489 -0.5363  0.6372  0.4571
  330MOL0     C45404   7.907   8.420   2.389  0.1160 -0.0264 -0.1954
  330MOL0     O45405   7.962   8.425   2.265  0.5729 -0.0596  0.5987
  330MOL0     C45406   8.098   8.394   2.249  0.0870 -0.1456 -0.8439
  330MOL0     C45407   8.183   8.471   2.171 -0.6298 -0.6338  0.8969
  330MOL0     C45408   8.320   8.441   2.135 -0.5134 -0.0035  0.3969
  330MOL0     C45409   8.378   8.326   2.186 -0.6795 -0.7500  0.4642
  330MOL0     O45410   8.511   8.292   2.181 -0.0746 -0.8417 -0.3367
  330MOL0     C45411   8.603   8.375   2.101  0.3274 -0.3354 -0.5251
  330MOL0     C45412   8.610   8.362   1.946  0.6926 -0.1599  0.5297
  330MOL0     C45413   8.566   8.226   1.891  0.2034 -0.6648 -0.7625
  330MOL0     C45414   8.666   8.127   1.937  0.3257 -0.2039  0.0048
  330MOL0     C45415   8.611   7.987   1.897 -0.4341 -0.2300  0.2852
  330MOL0     C45416   8.492   7.932   1.990  0.4958  0.5922  0.1629
  330MOL0     C45417   8.470   7.774   1.972 -0.2436 -0.5682  0.0097
  330MOL0     C45418   8.347   7.720   2.043  0.3835 -0.8658 -0.3207
  330MOL0     N45419   8.350   7.571   2.021  1.0140  0.1836  0.0715
  330MOL0     C45420   8.429   7.475   2.084  0.0677  0.3808  0.4164
  330MOL0     C45421   8.400   7.361   2.014  0.5228 -0.0084 -0.4755
  330MOL0     C45422   8.488   7.240   2.036  1.3083  0.2001 -0.1278
  330MOL0     C45423   8.603   7.243   1.946  0.6366 -0.2002 -0.6180
  330MOL0     C45424   8.677   7.115   1.931 -0.5729  0.3345  0.5022
  330MOL0     C45425   8.658   7.041   1.792 -0.2879 -0.2290  0.1581
  330MOL0     O45426   8.533   6.980   1.795  1.0083  0.8173  0.1573
  330MOL0     C45427   8.478   6.929   1.683  0.0798  0.0960  0.1099
  330MOL0     C45428   8.559   6.864   1.584 -0.0231 -0.1360 -0.6622
  330MOL0     C45429   8.515   6.795   1.476 -0.6578 -0.9254  0.0570
  330MOL0     C45430   8.625   6.734   1.390 -0.7758 -0.1063  0.0152
  330MOL0     C45431   8.370   6.802   1.446  0.0181 -0.9675  0.5320
  330MOL0     C45432   8.306   6.757   1.317  0.2734  0.3307 -0.9635
  330MOL0     O45433   8.367   6.646   1.254 -0.6445 -1.0071 -0.7356
  330MOL0     C45434   8.333   6.617   1.123  0.1837 -0.9131 -0.0594
  330MOL0     C45435   8.218   6.549   1.078  0.3321 -0.3314  0.2265
  330MOL0     C45436   8.217   6.492   0.946  0.0606  0.1305  0.3650
  330MOL0     C45437   8.323   6.537   0.855 -0.6908  0.9970 -0.1889
  330MOL0     O45438   8.311   6.481   0.731  0.3679  0.1061 -0.1566
  330MOL0     C45439   8.409   6.508   0.630 -0.6900  0.3776 -0.5022
  330MOL0     C45440   8.359   6.463   0.496  0.4093  0.1085  0.1871
  330MOL0     C45441   8.435   6.519   0.379 -1.5190  0.6880 -0.0189
  330MOL0     C45442   8.390   6.453   0.249 -0.4184  1.1805  0.3101
  330MOL0     C45443   8.485   6.499   0.142  0.0334 -0.6319  0.3693
  330MOL0     C45444   8.615   6.419   0.118 -0.1285  0.3541 -0.1352
  330MOL0     C45445   8.703   6.454  -0.007 -0.0270  0.5312 -0.5253
  330MOL0     C45446   8.812   6.345  -0.013 -0.4455 -1.0656  0.1175
  330MOL0    Cl45447   8.918   6.372   0.116 -0.1997  0.3980 -0.5318
  330MOL0     C45448   8.432   6.617   0.901  0.8056  0.1888  0.3906
  330MOL0     C45449   8.434   6.646   1.040 -0.8274  0.1752 -0.1459
  330MOL0     O45450   8.197   6.803   1.279  0.1804  0.2367 -0.8922
  330MOL0     C45451   8.282   6.873   1.532  0.1594  0.5088  0.2167
  330MOL0     C45452   8.335   6.933   1.650  0.8279 -1.3097 -0.1717
  330MOL0     N45453   8.303   7.383   1.926 -0.0848 -0.2817  0.6965
  330MOL0     N45454   8.260   7.509   1.928 -0.5365 -0.5267 -0.2582
  330MOL0     C45455   8.291   8.237   2.257 -0.2747  0.1889  1.1714
  330MOL0     C45456   8.163   8.276   2.298  0.8043 -0.0466  0.4562
  330MOL0     C45457   7.757   8.426   2.387  0.7342 -0.2887 -0.3655
  330MOL0     C45458   7.688   8.446   2.270 -0.9633  0.4613  0.0954
  330MOL0     C45459   7.555   8.479   2.266  0.5374 -0.2924 -0.4465
  330MOL0     C45460   7.476   8.459   2.369 -0.1639 -0.4986  0.4153
  330MOL0     O45461   7.343   8.490   2.379 -0.3916  0.3955  0.2905
  330MOL0     C45462   7.249   8.381   2.386 -0.3320 -0.6095  0.0245
  330MOL0     C45463   7.106   8.434   2.352  0.3013  0.7929 -0.1864
  330MOL0     C45464   7.057   8.527   2.461 -0.3140 -0.1753 -0.0484
  330MOL0     C45465   6.927   8.604   2.423 -0.6935 -1.1894 -0.4290
  330MOL0     C45466   6.819   8.533   2.367 -0.6172  0.1706  0.6871
  330MOL0     C45467   6.725   8.467   2.320  0.5065 -0.6855  0.2997
  330MOL0     C45468   7.536   8.421   2.488 -0.1240 -0.1018 -0.5420
  330MOL0     C45469   7.673   8.413   2.504 -0.1658  0.7017  0.3622
  330MOL0     C45470   7.715   8.396   2.647  0.4760  0.9953 -0.0274
  330MOL0     H45471   8.129   8.557   2.133  1.1504  0.4614  0.7154
  330MOL0     H45472   8.372   8.511   2.069 -1.6877 -0.4103 -1.0223
  330MOL0     H45473   8.707   8.359   2.132  0.0291  0.7009  1.2044
  330MOL0     H45474   8.582   8.479   2.128 -1.9500 -0.5685 -1.2083
  330MOL0     H45475   8.548   8.433   1.890  0.8812 -1.1044 -0.9310
  330MOL0     H45476   8.713   8.382   1.916  1.4707 -0.8420  2.5449
  330MOL0     H45477   8.471   8.210   1.943  0.0150  2.9946  0.2899
  330MOL0     H45478   8.548   8.244   1.784  2.8736  0.2151 -1.1395
  330MOL0     H45479   8.765   8.145   1.894  0.3698  0.9681  0.5580
  330MOL0     H45480   8.670   8.133   2.046 -0.3854  4.4523 -0.0266
  330MOL0     H45481   8.693   7.915   1.909  0.3629  0.0728 -2.5707
  330MOL0     H45482   8.591   7.974   1.791  2.4495  2.5847 -0.7576
  330MOL0     H45483   8.505   7.942   2.099 -1.0457 -0.8454  0.5283
  330MOL0     H45484   8.400   7.990   1.973  0.1296 -0.0204  0.0118
  330MOL0     H45485   8.564   7.726   2.002  1.5855  1.4362 -2.1341
  330MOL0     H45486   8.449   7.754   1.866 -0.2508 -0.8893  0.0707
  330MOL0     H45487   8.355   7.745   2.149 -4.8778  0.2746  0.0656
  330MOL0     H45488   8.253   7.763   2.006 -0.0101 -2.5726 -1.4165
  330MOL0     H45489   8.505   7.486   2.161  1.7600  0.4534 -1.1809
  330MOL0     H45490   8.427   7.156   2.001  0.4857  1.5335 -2.0052
  330MOL0     H45491   8.517   7.216   2.139 -0.9525 -1.6645  0.1697
  330MOL0     H45492   8.560   7.263   1.847 -1.2710 -0.9311  0.0304
  330MOL0     H45493   8.670   7.325   1.974  0.9319 -0.2467 -1.1530
  330MOL0     H45494   8.784   7.122   1.954 -0.9382  1.7735  2.0132
  330MOL0     H45495   8.635   7.052   2.010 -3.4035 -0.0194 -1.1627
  330MOL0     H45496   8.686   7.114   1.715  3.6835 -3.1966 -1.5296
  330MOL0     H45497   8.735   6.964   1.800  1.6172  1.1222 -3.0424
  330MOL0     H45498   8.667   6.870   1.601 -0.0018 -1.7841 -0.0791
  330MOL0     H45499   8.670   6.798   1.314  0.0003  1.6011  1.8292
  330MOL0     H45500   8.597   6.642   1.338  1.1251  0.4296 -2.1064
  330MOL0     H45501   8.707   6.711   1.458 -1.9283  1.8912  2.2400
  330MOL0     H45502   8.144   6.556   1.157 -0.3712 -1.0154 -0.3521
  330MOL0     H45503   8.136   6.433   0.906  0.6767 -1.9535  2.0058
  330MOL0     H45504   8.438   6.613   0.631 -0.2580  0.2545 -0.1023
  330MOL0     H45505   8.492   6.450   0.669 -1.7242 -0.5873  0.3310
  330MOL0     H45506   8.362   6.354   0.491  3.9364  0.1094 -3.4625
  330MOL0     H45507   8.261   6.510   0.491  0.1097 -0.5582 -0.3296
  330MOL0     H45508   8.541   6.489   0.380 -1.2231  1.0304 -3.8194
  330MOL0     H45509   8.438   6.628   0.382 -1.0439  0.6765  0.0958
  330MOL0     H45510   8.287   6.475   0.217 -0.4327 -1.2234 -1.5671
  330MOL0     H45511   8.395   6.344   0.260 -4.9154  0.9599  3.0593
  330MOL0     H45512   8.424   6.514   0.052  0.2028 -1.9747  0.0087
  330MOL0     H45513   8.518   6.602   0.158  0.9945 -1.0901  1.4367
  330MOL0     H45514   8.601   6.311   0.113  2.2611 -0.1316  1.8554
  330MOL0     H45515   8.674   6.425   0.210 -2.0035  0.7167  1.1279
  330MOL0     H45516   8.741   6.556   0.003  1.0813  0.4477 -3.0075
  330MOL0     H45517   8.650   6.447  -0.103  1.0911 -1.7461 -1.0408
  330MOL0     H45518   8.880   6.353  -0.099  2.0025 -0.3881  1.9879
  330MOL0     H45519   8.775   6.242  -0.018  1.4119 -1.8658  1.7063
  330MOL0     H45520   8.505   6.653   0.830  0.5479  1.4518  0.7391
  330MOL0     H45521   8.520   6.695   1.084  1.6421 -2.0971 -2.0928
  330MOL0     H45522   8.177   6.884   1.509  0.0934  0.0726  0.3068
  330MOL0     H45523   8.263   6.973   1.721 -2.7912  0.5405 -4.3859
  330MOL0     H45524   8.328   8.147   2.304 -0.7480  0.0445  1.2705
  330MOL0     H45525   8.108   8.201   2.353  1.0048 -1.0183 -0.6278
  330MOL0     H45526   7.751   8.446   2.182  0.1839 -1.2920  0.8641
  330MOL0     H45527   7.509   8.499   2.169  0.6681  2.8303  0.0252
  330MOL0     H45528   7.275   8.311   2.306 -0.6425 -1.1339  0.3772
  330MOL0     H45529   7.257   8.342   2.488 -1.4579  3.4715  1.8896
  330MOL0     H45530   7.039   8.347   2.342  1.3201 -0.2582  1.5874
  330MOL0     H45531   7.120   8.488   2.258  2.8994 -2.0245 -1.6120
  330MOL0     H45532   7.030   8.462   2.545 -0.5859  1.0750  0.8638
  330MOL0     H45533   7.133   8.597   2.497 -1.5954 -0.2047  3.0248
  330MOL0     H45534   6.950   8.690   2.359  0.3731 -0.5071  0.8430
  330MOL0     H45535   6.888   8.649   2.515 -0.2574  2.0281 -1.6795
  330MOL0     H45536   6.648   8.414   2.268  1.4576 -3.1199  1.2637
  330MOL0     H45537   7.471   8.418   2.574  0.9917  3.7641  0.6409
  330MOL0     H45538   7.806   8.445   2.684  0.7301 -1.3671  2.8835
  330MOL0     H45539   7.643   8.423   2.725  2.5962 -0.8015  2.7651
  330MOL0     H45540   7.730   8.288   2.657 -3.5533  0.3133 -0.0311
  331MOL0     O45541   5.705   1.315   8.806 -0.1630 -0.5750 -0.7279
  331MOL0     C45542   5.794   1.302   8.726  0.4900  0.1024 -0.3878
  331MOL0     O45543   5.918   1.261   8.747 -0.1889 -0.0928 -0.8080
  331MOL0     C45544   5.942   1.202   8.873 -0.2547 -0.9065  1.3505
  331MOL0     C45545   5.911   1.073   8.895  0.1520 -0.0887  0.7009
  331MOL0     C45546   5.935   1.013   9.026  0.3664 -0.6484  1.2231
  331MOL0     C45547   6.008   1.085   9.118 -0.6853 -0.8519  0.9593
  331MOL0     O45548   6.058   1.028   9.232 -0.2972 -0.5899  0.3135
  331MOL0     C45549   6.133   0.898   9.241 -0.6611  0.1055 -0.2903
  331MOL0     C45550   6.139   0.868   9.395  1.2617  0.1341 -0.1056
  331MOL0     C45551   6.227   0.755   9.438  0.0820 -0.4509  0.0968
  331MOL0     C45552   6.381   0.782   9.412  0.7670  0.4750  0.4634
  331MOL0     C45553   6.463   0.699   9.512 -0.9013 -0.2709  1.1031
  331MOL0     C45554   6.606   0.725   9.474 -0.9224  0.6307  0.6791
  331MOL0     C45555   6.700   0.682   9.585  0.4646  0.5299  0.0676
  331MOL0     C45556   6.855   0.702   9.556 -0.4388  0.1611  0.5205
  331MOL0     N45557   6.896   0.836   9.596 -0.5618  0.2882 -0.4802
  331MOL0     C45558   6.920   0.875   9.730  0.5343 -1.1642  0.3698
  331MOL0     C45559   6.966   1.003   9.724 -0.2894 -0.0486 -0.6970
  331MOL0     C45560   6.984   1.095   9.834 -0.1163  0.4497  0.4308
  331MOL0     C45561   6.989   1.245   9.803  0.2692 -0.2357  0.1717
  331MOL0     C45562   6.923   1.311   9.914 -0.2259  0.2208  0.0067
  331MOL0     C45563   6.937   1.462   9.904  0.0770 -0.3925 -0.5297
  331MOL0     O45564   6.839   1.517   9.998 -0.1470  0.6507  0.4130
  331MOL0     C45565   6.714   1.566   9.960  0.4225  0.1882  0.7754
  331MOL0     C45566   6.684   1.696   9.994  0.1137 -1.1248 -0.1213
  331MOL0     C45567   6.551   1.750   9.972  0.5498  0.1344 -0.0135
  331MOL0     C45568   6.526   1.884  10.049  0.4885 -0.7473 -0.3201
  331MOL0     C45569   6.459   1.680   9.890 -0.8685  0.1555  1.2587
  331MOL0     C45570   6.329   1.731   9.837  0.5588 -0.6435 -0.3209
  331MOL0     O45571   6.274   1.844   9.892 -0.4597  0.3142 -0.0812
  331MOL0     C45572   6.141   1.871   9.875 -0.4323  0.3511 -0.4258
  331MOL0     C45573   6.105   1.918   9.739  0.4227  0.2519  0.5993
  331MOL0     C45574   5.974   1.945   9.706  0.2485  0.6311 -0.2321
  331MOL0     C45575   5.868   1.939   9.799 -0.2902 -0.2854 -0.6718
  331MOL0     O45576   5.731   1.960   9.769 -0.3761 -0.2672  0.3549
  331MOL0     C45577   5.665   1.855   9.694 -0.8660  1.6973  1.0285
  331MOL0     C45578   5.703   1.847   9.552  0.5345  0.7562 -0.6144
  331MOL0     C45579   5.600   1.768   9.467  1.0647 -0.1743 -0.3085
  331MOL0     C45580   5.543   1.831   9.346 -0.8261 -0.4282 -0.2755
  331MOL0     C45581   5.448   1.743   9.281  0.4005 -0.1337 -0.1759
  331MOL0     C45582   5.393   1.796   9.152 -0.3648  0.6606  0.2465
  331MOL0     C45583   5.474   1.743   9.032  0.5093  0.7301 -0.4067
  331MOL0     C45584   5.444   1.590   8.987  0.8183 -0.0077  0.3242
  331MOL0    Cl45585   5.286   1.597   8.898 -0.0306  0.2995  0.0664
  331MOL0     C45586   5.906   1.905   9.928  0.0538  0.2082  0.6839
  331MOL0     C45587   6.038   1.866   9.964  0.1777  0.4186 -0.7267
  331MOL0     O45588   6.270   1.666   9.753 -1.0622 -0.4398  0.0336
  331MOL0     C45589   6.495   1.542   9.856 -0.0839 -0.0553  0.0635
  331MOL0     C45590   6.627   1.493   9.885 -0.2499 -0.5260 -0.6923
  331MOL0     N45591   6.979   1.036   9.588  0.4224 -0.4448  0.3992
  331MOL0     N45592   6.944   0.935   9.515  1.6017 -0.3427  0.0455
  331MOL0     C45593   6.034   1.228   9.097  0.3356 -0.2952 -0.4263
  331MOL0     C45594   6.010   1.283   8.972  0.9637  1.1448 -0.1301
  331MOL0     C45595   5.759   1.321   8.584  0.1353  0.3105  0.8771
  331MOL0     C45596   5.669   1.241   8.517 -0.4400 -0.9191 -0.0376
  331MOL0     C45597   5.647   1.254   8.385  0.5907  0.6066 -0.3561
  331MOL0     C45598   5.703   1.360   8.316  0.7232  0.3331  1.0766
  331MOL0     O45599   5.676   1.349   8.187  0.1461 -0.6364  0.0387
  331MOL0     C45600   5.769   1.396   8.094  0.0347 -0.6951  0.3930
  331MOL0     C45601   5.729   1.350   7.960 -0.0997 -0.3407 -0.9651
  331MOL0     C45602   5.750   1.201   7.941 -0.3899 -0.1045 -0.3595
  331MOL0     C45603   5.759   1.165   7.796 -0.3590 -0.1414 -0.4337
  331MOL0     C45604   5.633   1.189   7.738  1.0777 -0.1708 -0.8828
  331MOL0     C45605   5.523   1.218   7.691  0.3499  0.0044 -0.2447
  331MOL0     C45606   5.798   1.448   8.375  0.2250  0.5797 -0.5267
  331MOL0     C45607   5.818   1.429   8.512 -0.3185  0.1195  0.5930
  331MOL0     C45608   5.902   1.533   8.582  0.4876  0.3924  1.1279
  331MOL0     H45609   5.869   1.005   8.822 -0.8884 -1.1797  2.2670
  331MOL0     H45610   5.910   0.909   9.045 -0.7346 -0.6652 -0.1386
  331MOL0     H45611   6.231   0.896   9.193  0.1514 -0.6289  1.3244
  331MOL0     H45612   6.079   0.812   9.201 -0.9556 -0.0568  0.4512
  331MOL0     H45613   6.166   0.958   9.451 -3.1627  1.3794  0.3539
  331MOL0     H45614   6.036   0.849   9.427  0.8175 -1.0144 -2.0587
  331MOL0     H45615   6.219   0.737   9.545  1.1618  1.3520  0.5198
  331MOL0     H45616   6.199   0.668   9.378  2.8660 -0.2364 -1.6915
  331MOL0     H45617   6.402   0.757   9.308  0.3604 -1.8136  0.8913
  331MOL0     H45618   6.404   0.887   9.431  1.0433  0.2232  1.6221
  331MOL0     H45619   6.432   0.595   9.499 -2.1422  0.3410 -1.5928
  331MOL0     H45620   6.442   0.751   9.606 -1.8108  1.9197 -0.2229
  331MOL0     H45621   6.625   0.674   9.379 -0.0904  1.7745  0.1929
  331MOL0     H45622   6.623   0.830   9.447  1.0267 -0.0830 -1.1891
  331MOL0     H45623   6.667   0.583   9.616 -0.0161  0.8933  0.7569
  331MOL0     H45624   6.683   0.742   9.675  2.6053  1.1475  0.1000
  331MOL0     H45625   6.897   0.627   9.624 -2.7922  0.3199  2.2900
  331MOL0     H45626   6.888   0.675   9.455  0.7981  0.0653  0.9357
  331MOL0     H45627   6.891   0.819   9.818 -0.9726 -2.9586 -1.1659
  331MOL0     H45628   7.078   1.076   9.887 -0.6748 -0.2677  1.1882
  331MOL0     H45629   6.901   1.079   9.903 -1.0481 -0.5867 -0.8933
  331MOL0     H45630   7.091   1.284   9.803 -0.6855  2.5309  1.6247
  331MOL0     H45631   6.947   1.277   9.706 -4.0568  0.3662  2.0096
  331MOL0     H45632   6.820   1.282   9.937 -0.7096  3.7967  3.4093
  331MOL0     H45633   6.977   1.277  10.003 -1.4938 -0.8456  0.4130
  331MOL0     H45634   7.040   1.488   9.932  1.3286 -1.4165 -3.7322
  331MOL0     H45635   6.922   1.508   9.806  3.3459  4.8274  0.9960
  331MOL0     H45636   6.766   1.749  10.041 -0.9318 -0.3264  0.8620
  331MOL0     H45637   6.603   1.900  10.125 -1.6472 -0.1316  1.8355
  331MOL0     H45638   6.425   1.905  10.085 -0.0832  1.1204 -2.8058
  331MOL0     H45639   6.545   1.960   9.973 -0.9229 -1.5372 -1.5209
  331MOL0     H45640   6.175   1.912   9.656 -1.2189 -1.5982 -0.7512
  331MOL0     H45641   5.958   1.955   9.599  0.6720  0.1152 -0.3467
  331MOL0     H45642   5.679   1.761   9.749  0.1393  2.4335  2.0688
  331MOL0     H45643   5.560   1.886   9.688 -1.1125  0.6642 -0.8506
  331MOL0     H45644   5.722   1.950   9.518  3.9503  1.3099  2.3635
  331MOL0     H45645   5.801   1.803   9.532 -1.0441 -2.2736 -2.4580
  331MOL0     H45646   5.531   1.736   9.546  1.6072 -1.2101 -0.2424
  331MOL0     H45647   5.651   1.678   9.432  0.8327 -0.2621 -0.4261
  331MOL0     H45648   5.627   1.864   9.284  0.0430 -0.3565  0.8810
  331MOL0     H45649   5.488   1.920   9.380 -2.7672 -1.3362 -0.9448
  331MOL0     H45650   5.495   1.645   9.266  2.2927  1.0547 -2.6458
  331MOL0     H45651   5.376   1.733   9.364  4.5041  1.6972  4.0817
  331MOL0     H45652   5.393   1.905   9.154 -0.1196  0.6558  0.7372
  331MOL0     H45653   5.294   1.755   9.132  1.0006 -2.8107 -0.1693
  331MOL0     H45654   5.581   1.748   9.054 -0.0735  2.4033  2.4456
  331MOL0     H45655   5.456   1.797   8.938 -2.0791 -0.9608 -1.0110
  331MOL0     H45656   5.444   1.518   9.069  3.5067 -3.8344 -2.6708
  331MOL0     H45657   5.528   1.562   8.922 -0.2590  1.6817 -1.9292
  331MOL0     H45658   5.830   1.918  10.004 -1.1119 -0.9171 -0.2559
  331MOL0     H45659   6.053   1.840  10.069 -0.9254 -0.4921 -0.7773
  331MOL0     H45660   6.422   1.490   9.796  0.2497 -1.5648  0.8854
  331MOL0     H45661   6.663   1.394   9.856 -0.5268 -1.3052  1.4213
  331MOL0     H45662   6.070   1.300   9.170  0.6155  0.9277 -1.7339
  331MOL0     H45663   6.033   1.385   8.945 -2.4580  1.9461 -0.5237
  331MOL0     H45664   5.622   1.149   8.551  0.0861 -1.8722 -1.7653
  331MOL0     H45665   5.580   1.181   8.341  0.4134  0.4245  0.2089
  331MOL0     H45666   5.763   1.505   8.092 -0.4366 -0.6402 -3.7160
  331MOL0     H45667   5.872   1.363   8.111 -0.1962 -0.5487  2.2865
  331MOL0     H45668   5.787   1.405   7.885  0.3443 -2.4596 -2.2489
  331MOL0     H45669   5.628   1.392   7.947 -0.0518  1.2081  2.4575
  331MOL0     H45670   5.853   1.180   7.971 -0.0997  1.0809 -0.4602
  331MOL0     H45671   5.679   1.134   7.989  1.9671 -1.6723  1.1641
  331MOL0     H45672   5.790   1.060   7.784 -1.9110 -0.4734 -1.9927
  331MOL0     H45673   5.841   1.221   7.752  0.4270 -0.1004  1.0221
  331MOL0     H45674   5.436   1.267   7.652  0.4369  1.6388  1.4744
  331MOL0     H45675   5.857   1.514   8.313  0.0164  1.7179  0.4441
  331MOL0     H45676   5.850   1.556   8.676 -0.9524  2.4624 -0.0929
  331MOL0     H45677   6.005   1.500   8.601  0.6303 -0.6552 -1.2086
  331MOL0     H45678   5.909   1.621   8.519  1.2204 -1.0463 -0.9047
  332MOL0     O45679   5.802   7.129   2.676 -0.2413  0.6548  0.5188
  332MOL0     C45680   5.838   7.243   2.700  0.2381  0.0280  0.1300
  332MOL0     O45681   5.940   7.267   2.791  0.0075 -0.7516 -0.0871
  332MOL0     C45682   5.935   7.194   2.906 -0.8498  0.5314  0.4075
  332MOL0     C45683   6.055   7.144   2.960  0.3966 -0.2607 -1.0074
  332MOL0     C45684   6.057   7.090   3.099 -0.2334 -1.0975  0.3193
  332MOL0     C45685   5.943   7.073   3.170  0.6569 -0.2003 -1.0652
  332MOL0     O45686   5.932   7.013   3.293  0.0121  0.2139 -0.5668
  332MOL0     C45687   6.054   6.985   3.371 -0.6262 -0.0510  0.0410
  332MOL0     C45688   6.021   6.930   3.510 -0.9607  0.3715  0.0737
  332MOL0     C45689   6.144   6.927   3.601  0.3850 -0.1857  0.5948
  332MOL0     C45690   6.109   6.907   3.762  0.6751  0.9489 -0.7754
  332MOL0     C45691   6.235   6.910   3.847  0.4860 -0.2190 -0.6116
  332MOL0     C45692   6.225   6.876   3.997  0.0844 -0.4634 -0.4046
  332MOL0     C45693   6.175   6.992   4.081 -0.3175  0.2433  0.7097
  332MOL0     C45694   6.176   6.949   4.233  0.0201  0.1588 -0.0793
  332MOL0     N45695   6.218   7.054   4.323  0.8410 -0.5114  0.2762
  332MOL0     C45696   6.125   7.138   4.387 -0.6964  0.2684  0.1953
  332MOL0     C45697   6.200   7.206   4.475 -0.5846  0.6339 -0.2507
  332MOL0     C45698   6.157   7.306   4.574  0.4786 -1.2447 -0.2111
  332MOL0     C45699   6.155   7.455   4.510  0.0052 -0.2271 -0.0144
  332MOL0     C45700   6.019   7.479   4.445  0.3410  0.0294  0.0946
  332MOL0     C45701   5.991   7.632   4.434 -0.5236  1.1642  0.4653
  332MOL0     O45702   5.859   7.656   4.399 -1.2177 -0.4202  0.7131
  332MOL0     C45703   5.822   7.784   4.363  0.5283  0.2125 -0.0934
  332MOL0     C45704   5.695   7.803   4.320  0.3451 -0.1191 -0.3402
  332MOL0     C45705   5.641   7.939   4.304  0.1096  0.3770  0.3819
  332MOL0     C45706   5.516   7.944   4.231  0.8073 -0.0760 -0.0813
  332MOL0     C45707   5.720   8.048   4.335  0.5713  0.6112  0.0889
  332MOL0     C45708   5.654   8.180   4.333 -0.4106 -0.1383  0.9124
  332MOL0     O45709   5.569   8.214   4.229  0.3275  0.7365 -0.4663
  332MOL0     C45710   5.516   8.342   4.225 -0.1878  0.3817 -0.4608
  332MOL0     C45711   5.414   8.378   4.314  0.3738 -0.7050  0.5071
  332MOL0     C45712   5.338   8.496   4.293 -0.0795  0.0343  0.7047
  332MOL0     C45713   5.380   8.582   4.192  0.4542 -0.4462 -0.2251
  332MOL0     O45714   5.321   8.706   4.169  0.1373  0.4953 -0.4283
  332MOL0     C45715   5.186   8.718   4.182  1.0190 -0.4608 -1.0040
  332MOL0     C45716   5.146   8.868   4.180  0.7391  0.4323  0.2193
  332MOL0     C45717   5.172   8.923   4.043  0.1425  0.1108  0.0129
  332MOL0     C45718   5.054   8.883   3.945  0.3758 -0.2725 -0.5729
  332MOL0     C45719   5.034   8.990   3.842 -0.3424  0.4394  0.1648
  332MOL0     C45720   4.920   8.962   3.734  0.5578 -1.0057 -0.3254
  332MOL0     C45721   4.776   8.953   3.798 -0.2274  0.7153 -0.1834
  332MOL0     C45722   4.667   8.938   3.697 -0.3241 -0.1416  0.1324
  332MOL0    Cl45723   4.529   8.864   3.788  0.0434 -0.1935 -0.4724
  332MOL0     C45724   5.493   8.557   4.114 -0.1990  0.3459 -0.6630
  332MOL0     C45725   5.557   8.430   4.127 -0.5592 -1.5023 -0.2939
  332MOL0     O45726   5.705   8.258   4.419  0.3159 -0.2066 -0.6804
  332MOL0     C45727   5.849   8.030   4.382  0.4777 -0.8739 -0.0786
  332MOL0     C45728   5.893   7.900   4.396  0.2878  0.3677  0.3703
  332MOL0     N45729   6.333   7.170   4.462  1.0144 -0.6673 -0.5689
  332MOL0     N45730   6.344   7.087   4.363  0.4777  0.0950 -0.8062
  332MOL0     C45731   5.826   7.117   3.113  0.9998  0.3587  0.4651
  332MOL0     C45732   5.821   7.180   2.986 -0.4854  0.6448  0.4141
  332MOL0     C45733   5.823   7.351   2.599 -0.6923  0.0479 -0.1342
  332MOL0     C45734   5.947   7.412   2.555 -1.2522  0.2963  0.8290
  332MOL0     C45735   5.951   7.498   2.441  0.4166  0.1509  0.1853
  332MOL0     C45736   5.838   7.527   2.371  0.3343 -0.4860 -0.2434
  332MOL0     O45737   5.830   7.595   2.256 -0.4432 -0.1461 -0.3073
  332MOL0     C45738   5.788   7.727   2.275  1.0085  0.5541  0.7963
  332MOL0     C45739   5.840   7.808   2.154  0.2901  0.7272 -0.4248
  332MOL0     C45740   5.840   7.963   2.181  0.3869  0.6286  0.8829
  332MOL0     C45741   5.894   8.050   2.070  0.2128  0.1009  0.7351
  332MOL0     C45742   5.942   8.184   2.116  0.2779  0.0720  0.7156
  332MOL0     C45743   5.973   8.296   2.148 -0.3251 -0.2790 -0.1855
  332MOL0     C45744   5.719   7.476   2.416  0.4959 -0.3227 -0.2616
  332MOL0     C45745   5.705   7.389   2.528  0.0709  0.0497  0.8092
  332MOL0     C45746   5.568   7.341   2.563 -0.5833 -0.5948 -0.9936
  332MOL0     H45747   6.151   7.167   2.914  1.7269 -3.8810 -0.3740
  332MOL0     H45748   6.152   7.052   3.135  0.2088  0.5117  0.9636
  332MOL0     H45749   6.113   7.076   3.369  0.5293 -0.7554  0.8734
  332MOL0     H45750   6.116   6.914   3.314 -1.5377  1.2098 -2.6914
  332MOL0     H45751   5.933   6.978   3.554 -1.3496  0.7366 -1.0650
  332MOL0     H45752   5.996   6.824   3.511 -0.3051  0.2101  1.6240
  332MOL0     H45753   6.213   6.846   3.574  2.0472  1.7900 -1.5332
  332MOL0     H45754   6.199   7.022   3.594 -0.1673  0.0879 -0.0309
  332MOL0     H45755   6.049   6.988   3.802  1.1180  0.9376 -0.0762
  332MOL0     H45756   6.060   6.809   3.770  3.8699 -0.9248 -2.2136
  332MOL0     H45757   6.282   7.008   3.841  3.9665 -1.7596 -0.9666
  332MOL0     H45758   6.311   6.840   3.811  0.3989 -0.1327 -0.9693
  332MOL0     H45759   6.153   6.796   4.016  0.9463 -0.9060  1.0853
  332MOL0     H45760   6.323   6.845   4.034  0.7503  3.1411  1.2477
  332MOL0     H45761   6.074   7.026   4.053  0.1145  1.3317  0.4225
  332MOL0     H45762   6.247   7.072   4.064  2.8832 -1.2263  5.4477
  332MOL0     H45763   6.081   6.908   4.267 -0.7842  2.3946  0.4837
  332MOL0     H45764   6.245   6.867   4.258  2.3651  2.1865  0.4638
  332MOL0     H45765   6.017   7.133   4.376 -0.5639 -2.9171 -0.4477
  332MOL0     H45766   6.229   7.299   4.656 -1.6538  0.5751  1.9587
  332MOL0     H45767   6.064   7.288   4.628  1.5208  0.9751  2.5657
  332MOL0     H45768   6.161   7.530   4.589 -0.8747 -1.3884  1.1878
  332MOL0     H45769   6.246   7.464   4.450 -0.3997 -2.5159 -1.0850
  332MOL0     H45770   6.021   7.435   4.345 -0.5225 -1.8955  0.8797
  332MOL0     H45771   5.934   7.449   4.506  0.8595  1.9903  1.8983
  332MOL0     H45772   6.016   7.674   4.531 -0.6312 -2.0234  2.0213
  332MOL0     H45773   6.046   7.678   4.350 -0.0938  1.7716  1.0712
  332MOL0     H45774   5.635   7.720   4.285 -0.1178  0.4590 -0.9497
  332MOL0     H45775   5.532   7.991   4.134 -1.8300  4.0899  1.2394
  332MOL0     H45776   5.448   8.004   4.291 -1.9238  0.7626 -3.6427
  332MOL0     H45777   5.481   7.841   4.228  0.7286 -0.0297 -0.9771
  332MOL0     H45778   5.387   8.312   4.396  0.7136 -1.4829  0.0054
  332MOL0     H45779   5.253   8.501   4.359  0.4980 -1.9389  1.6790
  332MOL0     H45780   5.140   8.651   4.109  0.7983 -0.6252 -0.7189
  332MOL0     H45781   5.160   8.694   4.286  2.3142  1.7258 -0.0943
  332MOL0     H45782   5.039   8.861   4.200  0.7349 -3.3958 -0.3411
  332MOL0     H45783   5.209   8.918   4.254  0.4282 -0.5988  1.2117
  332MOL0     H45784   5.273   8.898   4.007  0.2350 -2.0472  1.5870
  332MOL0     H45785   5.166   9.032   4.053  1.7245  0.4105 -1.6990
  332MOL0     H45786   4.955   8.863   3.988 -0.5381  2.7147 -1.0474
  332MOL0     H45787   5.075   8.791   3.890 -1.2319  0.8110 -3.2379
  332MOL0     H45788   5.019   9.075   3.909 -0.5304  1.2818 -0.9178
  332MOL0     H45789   5.133   9.003   3.796  0.4064 -1.2617  1.2146
  332MOL0     H45790   4.932   8.874   3.672 -0.0687 -2.8942  2.0728
  332MOL0     H45791   4.925   9.058   3.681 -1.6659 -2.0496 -2.6252
  332MOL0     H45792   4.756   9.036   3.867 -3.1337 -1.0341  1.2566
  332MOL0     H45793   4.779   8.870   3.870  1.5259  1.3638  0.5658
  332MOL0     H45794   4.700   8.884   3.608  0.7268 -0.3384  0.6307
  332MOL0     H45795   4.628   9.036   3.669 -1.1172 -0.3166  0.5903
  332MOL0     H45796   5.523   8.638   4.047  2.2841  0.1216  0.0589
  332MOL0     H45797   5.653   8.419   4.077  1.4434 -0.4480  3.0021
  332MOL0     H45798   5.916   8.109   4.414 -2.1056  1.5442 -0.2677
  332MOL0     H45799   5.988   7.888   4.447  0.8225 -0.3295 -0.7349
  332MOL0     H45800   5.735   7.119   3.172  0.0671  2.8995 -0.9036
  332MOL0     H45801   5.730   7.215   2.937 -1.9530 -1.1658  1.7371
  332MOL0     H45802   6.041   7.366   2.584 -2.7615 -2.8720  1.0615
  332MOL0     H45803   6.049   7.524   2.403  1.1051 -3.7736 -1.1261
  332MOL0     H45804   5.679   7.723   2.271  1.0601 -0.0684 -0.2116
  332MOL0     H45805   5.825   7.765   2.371  4.7381  1.2964 -0.7822
  332MOL0     H45806   5.769   7.772   2.079 -0.0530 -1.0750  0.6886
  332MOL0     H45807   5.946   7.787   2.135  0.8871  2.7398  0.4102
  332MOL0     H45808   5.734   7.983   2.198 -0.3254 -0.0012 -2.0977
  332MOL0     H45809   5.905   7.967   2.268 -0.2736  1.6667  1.3489
  332MOL0     H45810   5.815   8.049   1.994 -2.5385 -4.6332  3.1931
  332MOL0     H45811   5.981   8.000   2.028 -0.8939 -1.7931  0.5510
  332MOL0     H45812   6.014   8.393   2.169  1.1598 -1.2033  1.4232
  332MOL0     H45813   5.630   7.511   2.365  0.5429  1.8174  1.0136
  332MOL0     H45814   5.577   7.236   2.590  0.6710 -0.3659 -0.4177
  332MOL0     H45815   5.547   7.396   2.655  4.2397 -0.6877  0.4296
  332MOL0     H45816   5.502   7.341   2.475  3.8652 -1.0680 -4.7588
  333MOL0     O45817   6.504   9.811  10.369 -1.2887 -0.0862  0.3544
  333MOL0     C45818   6.598   9.731  10.334  0.4476 -0.2647  0.8498
  333MOL0     O45819   6.630   9.609  10.396  0.0205 -0.1053  0.0490
  333MOL0     C45820   6.533   9.557  10.478  0.7454  0.2448 -0.4497
  333MOL0     C45821   6.491   9.421  10.461  0.7036 -0.6010 -0.4932
  333MOL0     C45822   6.399   9.359  10.550 -0.3385  0.1622 -0.3929
  333MOL0     C45823   6.341   9.428  10.658 -0.5448  0.6804  0.4395
  333MOL0     O45824   6.246   9.350  10.732 -0.3074 -0.4042  0.4138
  333MOL0     C45825   6.152   9.419  10.816 -0.4765 -0.5407  0.4411
  333MOL0     C45826   6.159   9.379  10.961  1.1105  0.0058 -0.3847
  333MOL0     C45827   6.290   9.414  11.018 -0.7660 -0.6438 -0.9612
  333MOL0     C45828   6.289   9.436  11.166  0.1677 -0.0980  0.2109
  333MOL0     C45829   6.436   9.478  11.212  0.3933  0.8858 -1.1509
  333MOL0     C45830   6.453   9.465  11.363 -0.7253  0.3439  0.3971
  333MOL0     C45831   6.434   9.322  11.424  0.2596  0.4627  0.8227
  333MOL0     C45832   6.396   9.320  11.572 -0.4100 -0.4061  0.0955
  333MOL0     N45833   6.516   9.304  11.659  0.2269 -0.9401 -0.3207
  333MOL0     C45834   6.624   9.385  11.691 -0.8452  0.2317 -0.3363
  333MOL0     C45835   6.685   9.334  11.801 -0.1821 -0.1566 -0.0973
  333MOL0     C45836   6.807   9.395  11.869 -0.5984  0.4443  0.0998
  333MOL0     C45837   6.795   9.472  12.002  0.1503 -1.1052 -0.3431
  333MOL0     C45838   6.728   9.394  12.120 -0.4552 -0.6613 -0.9547
  333MOL0     C45839   6.709   9.483  12.245  0.8261  0.9323  0.0023
  333MOL0     O45840   6.671   9.399  12.354  0.1936 -0.7425 -0.3238
  333MOL0     C45841   6.662   9.462  12.483 -0.9100 -0.1978  0.4314
  333MOL0     C45842   6.653   9.604  12.501 -0.1775 -0.4407  0.0103
  333MOL0     C45843   6.602   9.663  12.620 -1.2493  1.1831  1.1037
  333MOL0     C45844   6.587   9.809  12.614 -0.1524 -0.2058 -0.7688
  333MOL0     C45845   6.585   9.584  12.738  1.6765 -0.7401  0.2917
  333MOL0     C45846   6.532   9.629  12.869  0.3059 -0.2130 -0.1953
  333MOL0     O45847   6.523   9.766  12.887  0.0446 -0.7965 -0.0340
  333MOL0     C45848   6.475   9.827  13.003 -0.6963 -0.0061 -0.4202
  333MOL0     C45849   6.431   9.958  12.995 -0.4685 -1.0585 -0.8598
  333MOL0     C45850   6.378  10.025  13.109  0.2466  0.6031  0.1806
  333MOL0     C45851   6.358   9.961  13.232 -0.9055  0.3303  0.4191
  333MOL0     O45852   6.295  10.020  13.335  0.1695 -0.0288 -0.4471
  333MOL0     C45853   6.187  10.110  13.310 -0.2563  0.0393 -0.1082
  333MOL0     C45854   6.106  10.138  13.435  0.2875  0.4003  0.1431
  333MOL0     C45855   5.987  10.238  13.408 -0.4247  0.8915 -1.0950
  333MOL0     C45856   5.889  10.226  13.529 -0.7696  0.1778  0.9298
  333MOL0     C45857   5.747  10.261  13.473 -0.2587  0.3264 -1.6484
  333MOL0     C45858   5.629  10.254  13.585 -0.0043  0.4112  0.0280
  333MOL0     C45859   5.513  10.354  13.559  0.5735  1.2819 -0.8431
  333MOL0     C45860   5.444  10.390  13.705  0.2963  0.2606  1.0419
  333MOL0    Cl45861   5.295  10.482  13.654 -0.0361  0.0143 -0.3199
  333MOL0     C45862   6.410   9.828  13.253 -0.2340  0.0245  0.6466
  333MOL0     C45863   6.460   9.762  13.137 -0.7725 -0.2805  0.2827
  333MOL0     O45864   6.503   9.551  12.952 -0.5025  0.0379 -0.2763
  333MOL0     C45865   6.609   9.443  12.725  0.1937 -1.0971  0.0099
  333MOL0     C45866   6.644   9.385  12.595  0.9156 -1.1013  1.0043
  333MOL0     N45867   6.609   9.229  11.830  0.1665 -0.0898 -0.4877
  333MOL0     N45868   6.516   9.207  11.747 -0.1342 -0.3307  0.2103
  333MOL0     C45869   6.383   9.561  10.674 -0.3872  0.3276 -0.2989
  333MOL0     C45870   6.475   9.628  10.588  0.5148 -0.3611  0.0538
  333MOL0     C45871   6.685   9.773  10.221  0.4587  0.0466 -0.0574
  333MOL0     C45872   6.777   9.675  10.178 -0.5334  0.3369 -0.3954
  333MOL0     C45873   6.870   9.695  10.072  0.4406  0.4820  0.2236
  333MOL0     C45874   6.852   9.808   9.998 -0.6432  0.4207 -0.3133
  333MOL0     O45875   6.920   9.828   9.877  0.5602  0.1711  0.1413
  333MOL0     C45876   7.015   9.731   9.835  0.3590  0.3777  1.0076
  333MOL0     C45877   7.155   9.775   9.874 -0.4404  0.0782  0.3631
  333MOL0     C45878   7.261   9.667   9.842  0.4743 -0.6513 -0.5714
  333MOL0     C45879   7.305   9.666   9.691  0.1444 -0.1057  0.6717
  333MOL0     C45880   7.354   9.803   9.654 -1.2174  0.1623  1.0236
  333MOL0     C45881   7.383   9.913   9.595  0.0801  0.1138 -0.8284
  333MOL0     C45882   6.767   9.909  10.037 -0.2283 -1.4447 -0.7949
  333MOL0     C45883   6.673   9.896  10.153 -0.1838 -0.7751  0.4925
  333MOL0     C45884   6.579  10.017  10.173  0.5230 -0.0437  0.2086
  333MOL0     H45885   6.538   9.360  10.385  0.1766 -0.9633 -0.5407
  333MOL0     H45886   6.378   9.254  10.532  0.7857  0.0837 -1.3531
  333MOL0     H45887   6.054   9.394  10.773 -1.3529  1.9664  0.8088
  333MOL0     H45888   6.145   9.527  10.796  1.8049 -0.4319 -0.0319
  333MOL0     H45889   6.083   9.438  11.014  1.6121  2.3366 -2.1262
  333MOL0     H45890   6.129   9.274  10.976 -1.9195  0.3693 -2.8815
  333MOL0     H45891   6.367   9.337  11.003  1.9973  1.6911  0.3446
  333MOL0     H45892   6.314   9.508  10.968 -1.7036 -1.0509 -2.2338
  333MOL0     H45893   6.203   9.487  11.208  1.1299  1.8949 -0.1432
  333MOL0     H45894   6.276   9.329  11.186  1.5679 -0.2968  0.2112
  333MOL0     H45895   6.456   9.583  11.187 -0.8302  1.8442  1.5439
  333MOL0     H45896   6.509   9.414  11.161  0.4784 -0.1713  0.2351
  333MOL0     H45897   6.549   9.506  11.397 -0.4904  1.1008 -1.1199
  333MOL0     H45898   6.372   9.526  11.404 -0.5634  2.4153 -2.1004
  333MOL0     H45899   6.527   9.269  11.405  0.2191  0.6404  0.1051
  333MOL0     H45900   6.353   9.279  11.364  0.5664  0.6724  0.2592
  333MOL0     H45901   6.329   9.393  11.619  1.9150  0.9697  1.5253
  333MOL0     H45902   6.337   9.233  11.601  0.3019 -0.1572  2.5298
  333MOL0     H45903   6.669   9.464  11.632 -0.3721 -0.4649 -0.9184
  333MOL0     H45904   6.868   9.450  11.797  0.1234  0.6875  0.8793
  333MOL0     H45905   6.880   9.316  11.889  1.5625  2.7153  1.8861
  333MOL0     H45906   6.895   9.502  12.031 -0.5606  3.3583 -1.8384
  333MOL0     H45907   6.736   9.563  11.988  1.2547 -0.2199  0.6184
  333MOL0     H45908   6.635   9.350  12.083 -1.7136  0.9511  0.1496
  333MOL0     H45909   6.788   9.306  12.145 -1.5639 -3.1146 -5.8455
  333MOL0     H45910   6.801   9.525  12.285 -0.4007 -0.3546  4.9343
  333MOL0     H45911   6.626   9.552  12.227 -0.3617 -0.6203 -0.8024
  333MOL0     H45912   6.659   9.673  12.418  4.0899  0.2381  0.6499
  333MOL0     H45913   6.484   9.833  12.644  0.5938  2.4476 -0.1357
  333MOL0     H45914   6.609   9.854  12.517 -0.8396  2.0249  0.0560
  333MOL0     H45915   6.661   9.853  12.682 -1.5467  0.1161  0.6039
  333MOL0     H45916   6.429  10.012  12.900 -0.0521 -1.9983 -1.4192
  333MOL0     H45917   6.357  10.130  13.094  1.8441  1.0937  1.2134
  333MOL0     H45918   6.230  10.205  13.276 -0.9264  0.0722 -0.8978
  333MOL0     H45919   6.123  10.070  13.231  0.7546 -1.5952 -0.1552
  333MOL0     H45920   6.073  10.038  13.464  0.4659  0.0196 -0.9152
  333MOL0     H45921   6.171  10.187  13.508 -0.1626 -0.3627  1.0808
  333MOL0     H45922   5.943  10.208  13.312 -2.1259  1.6761 -0.5819
  333MOL0     H45923   6.032  10.337  13.400  0.2830  0.7006  0.2351
  333MOL0     H45924   5.936  10.283  13.610  0.5969  1.5611 -0.7518
  333MOL0     H45925   5.887  10.123  13.566  2.0844 -0.6131 -0.8272
  333MOL0     H45926   5.750  10.363  13.432 -0.0891  0.5272 -1.1381
  333MOL0     H45927   5.730  10.189  13.393 -0.4356  2.2266 -3.4127
  333MOL0     H45928   5.664  10.285  13.683 -1.3808  1.4820  0.2162
  333MOL0     H45929   5.579  10.157  13.592 -0.1941  0.5957  1.6178
  333MOL0     H45930   5.436  10.300  13.503  0.7372 -0.2511  0.3209
  333MOL0     H45931   5.550  10.441  13.505 -0.1584  1.5440 -0.9308
  333MOL0     H45932   5.517  10.435  13.773  5.1526 -3.1483 -1.2747
  333MOL0     H45933   5.414  10.297  13.755  2.5650 -0.2828  1.5259
  333MOL0     H45934   6.409   9.797  13.357 -0.1524  0.1269  0.6778
  333MOL0     H45935   6.482   9.657  13.154  1.6177 -0.3320 -2.3947
  333MOL0     H45936   6.593   9.386  12.816 -0.3003 -0.0237  0.6059
  333MOL0     H45937   6.658   9.278  12.586 -1.4471 -1.2924 -2.0358
  333MOL0     H45938   6.346   9.632  10.747  0.6619  2.2617 -1.5880
  333MOL0     H45939   6.495   9.734  10.602 -0.5979  0.0399 -1.1028
  333MOL0     H45940   6.793   9.587  10.239  1.6988 -0.2637 -1.7251
  333MOL0     H45941   6.941   9.618  10.043 -0.5165  0.6548 -2.9366
  333MOL0     H45942   6.994   9.625   9.855 -0.9182  0.3907 -0.1235
  333MOL0     H45943   7.014   9.742   9.726 -3.2739 -0.5827  0.8048
  333MOL0     H45944   7.166   9.777   9.982 -0.3401  0.1110  0.3530
  333MOL0     H45945   7.179   9.872   9.829  0.0508 -0.3527 -0.3341
  333MOL0     H45946   7.350   9.674   9.905  0.2300  1.2014 -0.3515
  333MOL0     H45947   7.215   9.570   9.864  0.4513 -1.4619 -3.6984
  333MOL0     H45948   7.216   9.650   9.629  0.6983  1.1536 -0.4751
  333MOL0     H45949   7.382   9.592   9.667  1.7351  1.2888  1.3103
  333MOL0     H45950   7.407  10.002   9.540 -2.1183  0.9575 -0.5279
  333MOL0     H45951   6.759   9.996   9.973  0.3747 -1.0897 -0.4098
  333MOL0     H45952   6.589  10.095  10.098 -2.8784  1.5328  1.1847
  333MOL0     H45953   6.476   9.982  10.162  0.0225  0.0997  3.3937
  333MOL0     H45954   6.577  10.061  10.273  2.1050  2.0165 -0.5969
  334MOL0     O45955  10.887   6.504   6.694 -0.2635  0.7128  0.3046
  334MOL0     C45956  10.860   6.486   6.577 -0.4729 -0.0625 -0.0491
  334MOL0     O45957  10.962   6.486   6.475  0.1403 -0.3231 -0.5400
  334MOL0     C45958  11.102   6.476   6.507 -0.0247 -0.1823 -0.9865
  334MOL0     C45959  11.187   6.380   6.447  0.3950 -0.0754  0.0163
  334MOL0     C45960  11.324   6.376   6.483  0.3925  0.9294 -0.3580
  334MOL0     C45961  11.378   6.454   6.584  0.4657  1.4541 -1.4616
  334MOL0     O45962  11.518   6.443   6.603 -0.0387 -0.5428 -0.0696
  334MOL0     C45963  11.555   6.316   6.649 -0.8141  0.7613 -0.0692
  334MOL0     C45964  11.700   6.307   6.712  0.8047  0.2424  0.0847
  334MOL0     C45965  11.816   6.363   6.630 -0.3738  0.1051  0.0731
  334MOL0     C45966  11.938   6.363   6.723  0.5787  0.4350 -0.2267
  334MOL0     C45967  12.065   6.402   6.641 -0.0819  0.1837 -0.6608
  334MOL0     C45968  12.195   6.345   6.719 -0.5932  0.0577  0.2236
  334MOL0     C45969  12.328   6.421   6.672 -0.2624  0.7444 -0.0182
  334MOL0     C45970  12.448   6.399   6.774 -0.1973 -0.2432 -0.4333
  334MOL0     N45971  12.571   6.435   6.708  0.4241 -0.0692  0.4642
  334MOL0     C45972  12.682   6.363   6.720 -0.0373  0.9444  0.0522
  334MOL0     C45973  12.767   6.406   6.626  0.0298  0.2823  0.7122
  334MOL0     C45974  12.901   6.354   6.625  0.6546 -0.4244 -0.1220
  334MOL0     C45975  12.886   6.203   6.596  0.1516  0.8201 -0.7986
  334MOL0     C45976  12.954   6.106   6.695  0.6373 -0.3212  1.1561
  334MOL0     C45977  13.100   6.132   6.730  0.4893 -0.0342  0.0232
  334MOL0     O45978  13.155   6.141   6.602  0.3466  0.5605 -0.7011
  334MOL0     C45979  13.295   6.131   6.609 -0.5204 -0.3237  0.7443
  334MOL0     C45980  13.386   6.167   6.712  0.5749 -0.0828  0.4444
  334MOL0     C45981  13.523   6.137   6.715 -0.1629  0.7217 -0.1017
  334MOL0     C45982  13.596   6.170   6.845 -0.3686 -1.0366  0.4139
  334MOL0     C45983  13.591   6.086   6.598 -0.7407  0.4531 -0.0756
  334MOL0     C45984  13.739   6.056   6.577 -0.2600 -0.6073 -0.2594
  334MOL0     O45985  13.780   6.038   6.448 -0.0320  0.3715 -0.6756
  334MOL0     C45986  13.917   6.018   6.418  0.4806  1.1257  0.1263
  334MOL0     C45987  13.957   5.909   6.340  0.2465  0.0473  0.8695
  334MOL0     C45988  14.092   5.894   6.300  0.1455  0.9001 -0.6187
  334MOL0     C45989  14.188   5.984   6.329 -0.8792  0.0085 -0.5354
  334MOL0     O45990  14.308   5.961   6.267 -1.0248 -0.2045 -0.1958
  334MOL0     C45991  14.421   6.057   6.270  0.0570 -0.6044  0.5693
  334MOL0     C45992  14.540   6.001   6.200  0.3546  1.0327 -0.4852
  334MOL0     C45993  14.573   5.850   6.230  0.5410 -0.3867 -0.5104
  334MOL0     C45994  14.618   5.834   6.376 -0.6553  0.6686 -0.6585
  334MOL0     C45995  14.684   5.701   6.407  0.0310  1.0441  0.9154
  334MOL0     C45996  14.715   5.693   6.563  0.9037  0.1911  0.3699
  334MOL0     C45997  14.796   5.569   6.587  1.0909 -0.0544 -0.3384
  334MOL0     C45998  14.852   5.575   6.729  0.5207  0.1440  0.0818
  334MOL0    Cl45999  14.745   5.476   6.846 -0.0206 -0.1798 -0.3675
  334MOL0     C46000  14.156   6.102   6.407 -0.7676  0.0184 -0.3502
  334MOL0     C46001  14.015   6.115   6.463 -0.2891  0.6703  0.2575
  334MOL0     O46002  13.818   6.058   6.672 -0.5924  0.0937 -0.4819
  334MOL0     C46003  13.498   6.065   6.489  0.3186 -0.1453 -0.6671
  334MOL0     C46004  13.364   6.079   6.498 -0.0328 -0.1155 -0.9387
  334MOL0     N46005  12.706   6.508   6.550  0.6048  0.2439  0.5039
  334MOL0     N46006  12.589   6.520   6.599  0.4995 -0.4897 -0.4289
  334MOL0     C46007  11.292   6.546   6.648  0.3002  0.6148 -1.0709
  334MOL0     C46008  11.161   6.557   6.612  0.6017  0.4621 -0.3595
  334MOL0     C46009  10.725   6.447   6.534  0.6456  0.1728 -1.3605
  334MOL0     C46010  10.695   6.422   6.402 -0.5372 -0.4084 -0.8781
  334MOL0     C46011  10.574   6.409   6.347  0.8723  0.2265 -0.0837
  334MOL0     C46012  10.460   6.400   6.432  0.3791 -0.2012  0.5802
  334MOL0     O46013  10.352   6.369   6.369  0.4480 -0.0324  0.2034
  334MOL0     C46014  10.254   6.477   6.399 -0.5400  1.0836 -0.0896
  334MOL0     C46015  10.250   6.567   6.283  0.2395 -0.1533  0.5198
  334MOL0     C46016  10.177   6.507   6.160 -1.2426 -0.7276 -0.2447
  334MOL0     C46017  10.028   6.543   6.168  0.3071  0.0584 -0.6656
  334MOL0     C46018   9.991   6.648   6.081 -0.5540  0.2414 -0.1723
  334MOL0     C46019   9.974   6.740   6.009 -0.1775  0.3241 -0.4378
  334MOL0     C46020  10.477   6.406   6.570  0.8577 -0.0841  0.3807
  334MOL0     C46021  10.610   6.428   6.626  0.3878  0.9933 -0.3342
  334MOL0     C46022  10.624   6.404   6.773 -0.4244  0.4269  0.1740
  334MOL0     H46023  11.140   6.318   6.371 -3.0273  1.6752  0.5144
  334MOL0     H46024  11.392   6.315   6.424  2.1268 -0.6725  2.9898
  334MOL0     H46025  11.561   6.256   6.557  0.0429 -1.0521  1.1044
  334MOL0     H46026  11.480   6.270   6.714  1.1096 -1.1727  0.9125
  334MOL0     H46027  11.705   6.354   6.810  0.4031  0.6269 -0.0752
  334MOL0     H46028  11.720   6.200   6.728  3.1175  0.0832 -2.9679
  334MOL0     H46029  11.831   6.320   6.530  1.8816  0.8356  0.0526
  334MOL0     H46030  11.780   6.462   6.601 -0.6968  0.4680  1.6643
  334MOL0     H46031  11.924   6.436   6.803 -0.6576  0.7906 -0.7398
  334MOL0     H46032  11.948   6.263   6.765 -1.9726 -0.4780 -1.5438
  334MOL0     H46033  12.064   6.511   6.643 -1.1226  0.1711  0.3232
  334MOL0     H46034  12.065   6.373   6.535 -0.3786  1.5589 -1.0535
  334MOL0     H46035  12.184   6.375   6.824  0.0795 -4.3097  1.7351
  334MOL0     H46036  12.193   6.236   6.713  2.7862 -0.0006 -2.9905
  334MOL0     H46037  12.312   6.529   6.668 -0.9973  1.0486  4.7818
  334MOL0     H46038  12.357   6.385   6.573  0.1819 -2.2046  1.0888
  334MOL0     H46039  12.444   6.460   6.864 -0.7141 -3.0395  1.5546
  334MOL0     H46040  12.441   6.292   6.798 -2.7094  0.2949  1.5524
  334MOL0     H46041  12.702   6.283   6.790 -1.5839  2.9074  3.0003
  334MOL0     H46042  12.938   6.379   6.725  0.0376 -3.6253  1.0233
  334MOL0     H46043  12.953   6.406   6.543  1.4816  1.4850  1.5164
  334MOL0     H46044  12.783   6.168   6.608  1.4218 -2.4701  3.0872
  334MOL0     H46045  12.925   6.173   6.498  1.6708  2.3240 -0.6986
  334MOL0     H46046  12.879   6.091   6.773 -0.4186 -3.3012 -0.2826
  334MOL0     H46047  12.958   6.004   6.656  1.5950  0.3490 -0.6145
  334MOL0     H46048  13.105   6.227   6.784  0.5899 -0.5802  0.9850
  334MOL0     H46049  13.144   6.054   6.793  0.6401 -1.1182 -1.3799
  334MOL0     H46050  13.340   6.215   6.798 -3.1635 -2.0086 -0.2674
  334MOL0     H46051  13.644   6.077   6.877  0.6308 -0.3426  0.9745
  334MOL0     H46052  13.518   6.196   6.917 -2.5140 -1.7417 -1.5100
  334MOL0     H46053  13.673   6.246   6.827  1.3508 -3.1091 -1.5169
  334MOL0     H46054  13.890   5.835   6.297  1.5534 -0.1644 -0.9387
  334MOL0     H46055  14.119   5.824   6.222 -0.1092  3.0005 -2.7133
  334MOL0     H46056  14.394   6.152   6.224 -1.6395 -3.2438 -4.7107
  334MOL0     H46057  14.440   6.081   6.375 -1.2648 -0.9768  0.9141
  334MOL0     H46058  14.516   6.009   6.094 -0.5570  3.2786 -0.1611
  334MOL0     H46059  14.635   6.048   6.228  1.3070 -2.4836  3.1279
  334MOL0     H46060  14.650   5.809   6.164 -2.6461 -1.0061 -4.2122
  334MOL0     H46061  14.490   5.784   6.203 -0.6254  0.6171  0.5335
  334MOL0     H46062  14.529   5.849   6.438  0.0812  0.8170  0.3893
  334MOL0     H46063  14.695   5.910   6.395  0.9221 -1.5694  2.9454
  334MOL0     H46064  14.626   5.611   6.386  1.8928 -0.4832  2.0508
  334MOL0     H46065  14.774   5.697   6.345 -0.4191  3.3077  0.0002
  334MOL0     H46066  14.619   5.685   6.614 -0.8113  0.9248 -2.5047
  334MOL0     H46067  14.772   5.782   6.592 -1.4883  0.8277  3.7617
  334MOL0     H46068  14.879   5.569   6.516  1.2256 -0.7995 -0.1853
  334MOL0     H46069  14.733   5.482   6.569 -2.0822  1.3816  2.6382
  334MOL0     H46070  14.848   5.680   6.758  4.8124  0.3337  0.7429
  334MOL0     H46071  14.955   5.536   6.725  0.4545 -0.0264 -3.2428
  334MOL0     H46072  14.237   6.165   6.443 -1.4393  0.4684  0.4208
  334MOL0     H46073  13.998   6.201   6.528 -0.5597  1.2566 -0.5792
  334MOL0     H46074  13.539   6.039   6.392  0.1058 -0.6494 -0.6231
  334MOL0     H46075  13.304   6.054   6.411 -0.7419  0.0376 -0.4993
  334MOL0     H46076  11.312   6.600   6.740 -1.7349 -2.7512  1.5691
  334MOL0     H46077  11.100   6.630   6.664 -0.3324 -0.8824  0.4941
  334MOL0     H46078  10.769   6.415   6.323 -3.2086 -0.8427 -3.5180
  334MOL0     H46079  10.564   6.410   6.239 -0.3770  0.5375  0.0157
  334MOL0     H46080  10.160   6.422   6.403  2.3504 -4.6237 -0.2175
  334MOL0     H46081  10.265   6.538   6.489  2.2888  5.2077 -2.8858
  334MOL0     H46082  10.350   6.599   6.254  0.2685  1.1408  1.9324
  334MOL0     H46083  10.209   6.661   6.320 -2.0026 -0.7392 -0.3036
  334MOL0     H46084  10.213   6.525   6.058 -0.0393 -1.1069  0.0981
  334MOL0     H46085  10.194   6.399   6.153  2.2004 -0.1809 -3.0047
  334MOL0     H46086  10.009   6.583   6.268  2.4798 -1.4711  0.4326
  334MOL0     H46087   9.966   6.458   6.139  2.5542 -1.3068 -1.7193
  334MOL0     H46088   9.987   6.804   5.924  3.3805 -1.5903 -1.5666
  334MOL0     H46089  10.384   6.401   6.627 -0.3401 -0.1074 -1.4911
  334MOL0     H46090  10.618   6.501   6.822 -1.4873  0.2531  0.4180
  334MOL0     H46091  10.547   6.343   6.820 -0.3633  2.3588  3.0098
  334MOL0     H46092  10.721   6.358   6.792 -0.1512  1.3646  1.1450
  335MOL0     O46093  11.423   3.912   0.398 -0.4883  0.6605 -0.0525
  335MOL0     C46094  11.418   3.844   0.295  0.0683  1.2044 -0.4259
  335MOL0     O46095  11.313   3.771   0.257 -0.3316 -0.0082  0.1119
  335MOL0     C46096  11.203   3.785   0.329  0.4549  0.0668  0.0102
  335MOL0     C46097  11.104   3.877   0.281  0.3685  0.7021 -0.5499
  335MOL0     C46098  10.985   3.890   0.357  0.0288 -0.8623 -0.2533
  335MOL0     C46099  10.956   3.817   0.471 -1.1364  0.5552  0.5307
  335MOL0     O46100  10.834   3.829   0.530  0.2674  0.4610  0.7092
  335MOL0     C46101  10.834   3.816   0.673 -0.1042 -0.9620  1.1555
  335MOL0     C46102  10.697   3.874   0.716 -0.3809  0.5029 -0.6964
  335MOL0     C46103  10.651   3.826   0.858 -0.5071  0.7660  0.1936
  335MOL0     C46104  10.587   3.940   0.936  0.8236  0.2366  0.2469
  335MOL0     C46105  10.534   3.905   1.071  0.0691  0.7797  1.1233
  335MOL0     C46106  10.618   3.836   1.170 -0.4929  0.3536 -0.9640
  335MOL0     C46107  10.540   3.762   1.276 -0.5070 -0.4973 -0.1538
  335MOL0     C46108  10.459   3.843   1.370 -0.2505  0.5853  0.4580
  335MOL0     N46109  10.547   3.938   1.445  0.6118 -0.5187 -0.3871
  335MOL0     C46110  10.666   3.908   1.498 -0.2882  0.0004 -0.0625
  335MOL0     C46111  10.713   4.027   1.530  0.7485  0.7946  1.0778
  335MOL0     C46112  10.842   4.068   1.597 -0.7201 -0.0216 -0.0572
  335MOL0     C46113  10.806   4.161   1.724  0.2691  0.0991  0.0282
  335MOL0     C46114  10.931   4.169   1.808  0.9897 -0.2466 -0.4706
  335MOL0     C46115  10.918   4.253   1.929 -0.3479 -0.4392 -0.1291
  335MOL0     O46116  10.816   4.182   2.013  0.1651  0.5459 -0.7660
  335MOL0     C46117  10.714   4.261   2.066  0.0029  0.4901  0.4487
  335MOL0     C46118  10.703   4.291   2.202 -0.6591 -0.7239 -0.4857
  335MOL0     C46119  10.592   4.366   2.245 -0.1136 -0.7998 -0.1102
  335MOL0     C46120  10.612   4.422   2.389 -0.3960  0.1146  0.2326
  335MOL0     C46121  10.490   4.408   2.158 -0.0448 -0.1706  0.2617
  335MOL0     C46122  10.370   4.483   2.202  0.5396  1.2767 -0.3727
  335MOL0     O46123  10.273   4.506   2.106  0.7033  0.0981 -0.9299
  335MOL0     C46124  10.159   4.582   2.140 -0.2847  0.1797  0.0383
  335MOL0     C46125  10.118   4.705   2.075 -0.2965  0.3276 -0.2222
  335MOL0     C46126   9.992   4.761   2.102  0.8314 -0.7225 -0.4065
  335MOL0     C46127   9.902   4.705   2.192 -0.7686  0.5718  0.2469
  335MOL0     O46128   9.791   4.776   2.228 -0.1225  0.1329 -0.4116
  335MOL0     C46129   9.670   4.721   2.182  0.8088  0.3529 -0.3690
  335MOL0     C46130   9.565   4.822   2.224  0.1756 -0.8079 -0.0975
  335MOL0     C46131   9.443   4.816   2.125  0.2481  0.4093 -0.1579
  335MOL0     C46132   9.361   4.691   2.133  0.3643  0.8397  0.1387
  335MOL0     C46133   9.288   4.672   2.255 -0.3182  0.5712  0.0649
  335MOL0     C46134   9.158   4.597   2.221  0.8943  0.3278 -0.1399
  335MOL0     C46135   9.062   4.590   2.346  0.3582 -0.2217 -1.1223
  335MOL0     C46136   8.973   4.715   2.345 -0.9766  0.8280 -0.8845
  335MOL0    Cl46137   8.835   4.701   2.456 -0.0048  0.2521  0.0475
  335MOL0     C46138   9.945   4.595   2.268  0.2908 -0.2760  0.3235
  335MOL0     C46139  10.072   4.538   2.241  0.1451  0.2323 -0.2213
  335MOL0     O46140  10.349   4.500   2.325  0.7577  0.0060  0.7684
  335MOL0     C46141  10.503   4.377   2.027 -0.6291  0.1343 -0.3701
  335MOL0     C46142  10.619   4.321   1.978 -0.1691 -0.0090 -0.7392
  335MOL0     N46143  10.622   4.127   1.497  0.6484  0.4470  0.8996
  335MOL0     N46144  10.525   4.067   1.442  0.1565  0.4290 -1.0170
  335MOL0     C46145  11.046   3.710   0.504 -0.7265 -0.1616 -0.3147
  335MOL0     C46146  11.174   3.702   0.440  0.0513  0.3826 -0.4115
  335MOL0     C46147  11.539   3.816   0.234 -0.7692  1.3228  0.1323
  335MOL0     C46148  11.528   3.742   0.109  0.1269 -0.9918  0.4619
  335MOL0     C46149  11.643   3.719   0.032 -0.7786 -1.5682  0.4518
  335MOL0     C46150  11.770   3.764   0.072 -0.6561  0.7432 -0.6759
  335MOL0     O46151  11.882   3.732   0.001  1.3101 -1.0007  1.0485
  335MOL0     C46152  11.962   3.842  -0.037 -0.1859 -0.4479  0.3780
  335MOL0     C46153  12.113   3.815  -0.041 -0.2513  0.6337 -0.5524
  335MOL0     C46154  12.169   3.772   0.099  0.5269  0.4756  0.0486
  335MOL0     C46155  12.223   3.887   0.191 -0.5692  0.1543  0.2825
  335MOL0     C46156  12.350   3.945   0.148  0.1559 -0.5577 -0.6357
  335MOL0     C46157  12.439   4.030   0.120  0.1847  0.0186 -0.2591
  335MOL0     C46158  11.781   3.826   0.198 -0.3388  0.2606  0.3737
  335MOL0     C46159  11.671   3.850   0.278  0.3668 -0.6846 -0.0718
  335MOL0     C46160  11.700   3.893   0.418 -1.0662 -0.2371  0.3742
  335MOL0     H46161  11.131   3.949   0.204  1.1344  1.6110  0.5300
  335MOL0     H46162  10.910   3.958   0.319  2.2862  1.7474 -0.2998
  335MOL0     H46163  10.917   3.872   0.718  0.9457  0.3882 -2.1600
  335MOL0     H46164  10.833   3.709   0.699 -0.8729 -1.5203 -0.9321
  335MOL0     H46165  10.700   3.983   0.718 -0.8653  0.5117  1.0742
  335MOL0     H46166  10.627   3.853   0.634 -0.2429  0.0084 -0.6902
  335MOL0     H46167  10.593   3.733   0.854  0.1591  0.3758 -3.0357
  335MOL0     H46168  10.742   3.795   0.911 -0.3653  1.4992  0.3770
  335MOL0     H46169  10.655   4.025   0.946  2.3608 -0.7938 -0.9784
  335MOL0     H46170  10.500   3.975   0.879  0.2297 -0.1663  0.9004
  335MOL0     H46171  10.444   3.850   1.044  0.3901  1.0809 -0.7001
  335MOL0     H46172  10.507   4.000   1.118  0.3091  3.0754 -2.8448
  335MOL0     H46173  10.687   3.772   1.114 -0.8725  2.1862 -3.7235
  335MOL0     H46174  10.671   3.901   1.240 -2.6144 -1.9845  3.2433
  335MOL0     H46175  10.611   3.709   1.341  0.2266  1.8942  1.0889
  335MOL0     H46176  10.481   3.684   1.227  1.5509 -0.7988 -2.3442
  335MOL0     H46177  10.388   3.897   1.307  1.0998 -0.5737 -2.2084
  335MOL0     H46178  10.415   3.782   1.449  2.5493 -1.4950  0.5883
  335MOL0     H46179  10.714   3.811   1.504 -1.0804 -0.6373 -2.7918
  335MOL0     H46180  10.910   4.128   1.536  1.9282  0.1638  2.8008
  335MOL0     H46181  10.896   3.978   1.630 -0.0117  1.0652  1.8633
  335MOL0     H46182  10.767   4.258   1.693 -0.9293 -0.8696 -1.6583
  335MOL0     H46183  10.728   4.129   1.794 -0.0774  3.3424  1.3189
  335MOL0     H46184  10.963   4.067   1.830  1.0454 -0.0790  0.2388
  335MOL0     H46185  11.008   4.219   1.749  2.1425 -1.0088  0.3714
  335MOL0     H46186  11.011   4.256   1.985  0.2669  1.3391 -1.1653
  335MOL0     H46187  10.887   4.357   1.913  1.8012  0.4157  0.9193
  335MOL0     H46188  10.779   4.261   2.274  1.9957 -0.3368 -2.9254
  335MOL0     H46189  10.718   4.416   2.412 -0.5462  1.1429  1.2984
  335MOL0     H46190  10.549   4.362   2.456 -0.1320 -0.5836 -0.1346
  335MOL0     H46191  10.585   4.528   2.388  2.3745  0.8760 -0.3038
  335MOL0     H46192  10.190   4.753   2.010  3.1288  2.5876  4.6223
  335MOL0     H46193   9.954   4.851   2.056 -1.1669 -0.6451  1.2343
  335MOL0     H46194   9.667   4.715   2.073  1.3157  0.5567 -0.3946
  335MOL0     H46195   9.648   4.625   2.229  3.5566 -1.4274 -2.4957
  335MOL0     H46196   9.538   4.802   2.328 -0.6882 -1.3774 -0.4254
  335MOL0     H46197   9.606   4.924   2.221 -0.2843 -0.6045  0.3388
  335MOL0     H46198   9.484   4.818   2.024 -0.9493  3.1836 -0.6731
  335MOL0     H46199   9.377   4.903   2.127  1.2594  1.2176 -0.7511
  335MOL0     H46200   9.428   4.605   2.127 -1.5193 -0.6958 -0.1180
  335MOL0     H46201   9.297   4.688   2.044  1.2638  1.3017 -0.5393
  335MOL0     H46202   9.347   4.625   2.333 -0.6262  1.0504  0.5947
  335MOL0     H46203   9.252   4.771   2.285 -0.8902  0.5305 -0.4541
  335MOL0     H46204   9.192   4.495   2.203 -1.5517 -0.2607 -1.8130
  335MOL0     H46205   9.100   4.637   2.138 -0.6249 -1.3923  0.0218
  335MOL0     H46206   9.127   4.577   2.433  1.6914  0.2683 -1.9960
  335MOL0     H46207   9.007   4.495   2.348 -1.5150  0.7579 -2.7680
  335MOL0     H46208   8.918   4.708   2.250 -3.1299  0.4257  0.3348
  335MOL0     H46209   9.026   4.811   2.346 -0.7174  0.6882  0.7797
  335MOL0     H46210   9.897   4.557   2.358  0.6151  0.0479  0.6390
  335MOL0     H46211  10.116   4.456   2.297 -0.7436 -0.1531 -0.0706
  335MOL0     H46212  10.427   4.421   1.964 -0.4009  0.3082 -0.5219
  335MOL0     H46213  10.623   4.325   1.869 -0.9128  0.8632 -0.7417
  335MOL0     H46214  11.019   3.648   0.589 -1.1089 -1.4220 -1.3411
  335MOL0     H46215  11.239   3.622   0.475 -3.3951 -1.4214  2.5961
  335MOL0     H46216  11.431   3.715   0.068 -0.3853  1.7454 -0.3091
  335MOL0     H46217  11.633   3.678  -0.067  4.2680 -0.1245 -0.9836
  335MOL0     H46218  11.935   3.880  -0.136  0.1295  4.0853  1.8176
  335MOL0     H46219  11.942   3.924   0.032 -0.0846  1.1347 -1.3849
  335MOL0     H46220  12.161   3.903  -0.085 -0.5401  2.3618  2.3786
  335MOL0     H46221  12.123   3.730  -0.109  0.8299  1.2043 -1.1477
  335MOL0     H46222  12.094   3.715   0.154 -2.0791  1.1969 -2.4697
  335MOL0     H46223  12.243   3.696   0.073  0.7380  0.2874  1.1461
  335MOL0     H46224  12.262   3.850   0.287  1.1397  2.0194  0.3754
  335MOL0     H46225  12.144   3.961   0.205 -0.2939  0.7118 -1.0229
  335MOL0     H46226  12.517   4.097   0.091  1.3384 -0.5175  1.4373
  335MOL0     H46227  11.873   3.864   0.242 -2.0694  0.6360  4.1000
  335MOL0     H46228  11.685   4.001   0.428 -2.8301 -0.1240 -2.4341
  335MOL0     H46229  11.637   3.844   0.493 -0.1131 -3.5711 -0.8622
  335MOL0     H46230  11.805   3.880   0.447 -0.4155 -2.0713 -2.4367
  336MOL0     O46231   1.331   9.835   4.218  0.1721  0.5574 -0.6222
  336MOL0     C46232   1.226   9.896   4.210  0.8119 -0.5296 -1.1825
  336MOL0     O46233   1.156   9.958   4.307 -0.2803  0.0625 -0.0735
  336MOL0     C46234   1.191   9.972   4.444  0.0252  0.5517  0.6398
  336MOL0     C46235   1.096  10.037   4.529 -0.3696 -0.7749 -0.6694
  336MOL0     C46236   1.116  10.033   4.674  0.2298 -0.2787  0.8235
  336MOL0     C46237   1.229   9.972   4.723  0.0594  0.0284  0.6253
  336MOL0     O46238   1.246   9.987   4.860 -0.3826  0.2526  0.2681
  336MOL0     C46239   1.330   9.898   4.930 -0.6579  0.9823 -0.5574
  336MOL0     C46240   1.264   9.766   4.967 -0.0632  1.1171 -0.0558
  336MOL0     C46241   1.187   9.776   5.102 -0.6817  0.3506  0.5679
  336MOL0     C46242   1.278   9.717   5.212  0.4396 -0.4223 -1.0800
  336MOL0     C46243   1.219   9.748   5.354 -1.5674 -0.1016  0.6570
  336MOL0     C46244   1.118   9.652   5.391  0.2494 -0.0764 -0.7565
  336MOL0     C46245   1.059   9.659   5.534 -0.6220  0.6327 -0.9069
  336MOL0     C46246   0.943   9.560   5.559  0.4028  0.1080  0.2597
  336MOL0     N46247   0.998   9.422   5.552 -0.9440 -0.5568 -0.3717
  336MOL0     C46248   1.117   9.371   5.605  0.4012  0.1474  0.0653
  336MOL0     C46249   1.109   9.237   5.569 -0.4228 -1.3019 -1.1870
  336MOL0     C46250   1.225   9.143   5.594  0.3408 -0.8658 -0.9876
  336MOL0     C46251   1.201   9.077   5.730  0.4015 -0.9482 -0.5458
  336MOL0     C46252   1.114   8.946   5.709  0.3537  0.4262 -0.1888
  336MOL0     C46253   1.103   8.858   5.845 -0.7524  0.1114  0.3662
  336MOL0     O46254   1.067   8.724   5.805 -0.5431 -0.1515  0.0151
  336MOL0     C46255   1.008   8.644   5.895  0.1254  0.6153  0.9909
  336MOL0     C46256   1.002   8.654   6.028 -0.8755 -0.0830 -0.3695
  336MOL0     C46257   0.924   8.566   6.103  0.6126  0.4861 -0.4843
  336MOL0     C46258   0.930   8.599   6.256 -0.2068 -0.4271 -0.6196
  336MOL0     C46259   0.854   8.460   6.043 -0.5670  0.2493  0.1077
  336MOL0     C46260   0.756   8.376   6.117 -0.0460 -0.1965  0.6306
  336MOL0     O46261   0.741   8.246   6.064  0.1054 -0.0246  0.1171
  336MOL0     C46262   0.647   8.169   6.149 -1.0606 -0.5933  0.6761
  336MOL0     C46263   0.514   8.167   6.116  0.2562  0.0659 -0.7301
  336MOL0     C46264   0.419   8.108   6.197 -0.3802 -0.3279 -0.9285
  336MOL0     C46265   0.454   8.066   6.327 -1.2767  0.3318  1.1197
  336MOL0     O46266   0.377   8.017   6.423  0.0882  0.3430 -0.3972
  336MOL0     C46267   0.241   8.023   6.389 -0.3253 -0.5461  0.1286
  336MOL0     C46268   0.155   7.976   6.509  0.4373 -0.1456  0.8428
  336MOL0     C46269   0.130   8.094   6.607  0.0120 -0.3284 -0.0065
  336MOL0     C46270   0.111   8.049   6.753 -0.8541  0.0836  0.3001
  336MOL0     C46271   0.085   8.173   6.838 -0.0846 -0.1432  0.3561
  336MOL0     C46272   0.067   8.125   6.978  0.1998  0.3807 -0.0980
  336MOL0     C46273   0.208   8.100   7.044  0.6640  0.9074 -0.5021
  336MOL0     C46274   0.203   8.107   7.196 -0.0882  0.6087 -0.5493
  336MOL0    Cl46275   0.157   7.952   7.262 -0.0584 -0.6758  0.4581
  336MOL0     C46276   0.594   8.083   6.366  0.2616  0.6485 -0.0480
  336MOL0     C46277   0.689   8.118   6.269  0.5961  0.1429 -0.7269
  336MOL0     O46278   0.694   8.429   6.200  0.1074  0.3654  0.2936
  336MOL0     C46279   0.862   8.447   5.903 -0.3396 -0.3540  0.7810
  336MOL0     C46280   0.936   8.541   5.830  0.9873 -1.2461  0.3880
  336MOL0     N46281   0.985   9.206   5.518  0.5067  0.4240  0.2224
  336MOL0     N46282   0.917   9.313   5.517  0.4247  0.3961 -1.3441
  336MOL0     C46283   1.325   9.913   4.635  0.4338 -1.2591  0.5175
  336MOL0     C46284   1.301   9.903   4.499  0.3713 -0.7781  0.3766
  336MOL0     C46285   1.142   9.879   4.086 -0.3181  0.0510 -1.1054
  336MOL0     C46286   1.083   9.990   4.025  0.7343  0.0093 -0.0502
  336MOL0     C46287   1.006   9.980   3.905 -0.8727  1.1469 -0.0045
  336MOL0     C46288   1.007   9.854   3.837  0.2429  0.2152  0.4526
  336MOL0     O46289   0.936   9.832   3.720 -0.6672 -0.3270  0.1654
  336MOL0     C46290   0.895   9.950   3.646 -0.9423 -0.8222  0.6047
  336MOL0     C46291   0.810   9.909   3.534  0.3604 -0.0776 -0.1330
  336MOL0     C46292   0.886   9.818   3.436 -0.5668 -0.3334 -0.3430
  336MOL0     C46293   0.921   9.893   3.304  0.0404  0.0306  0.3489
  336MOL0     C46294   1.036   9.980   3.319  0.1462 -0.8049 -0.9825
  336MOL0     C46295   1.137  10.043   3.334  0.5346 -0.4446 -0.2459
  336MOL0     C46296   1.054   9.737   3.906 -0.1935 -0.6502  0.2521
  336MOL0     C46297   1.127   9.747   4.020  0.3878 -0.0960 -0.1390
  336MOL0     C46298   1.175   9.620   4.085  0.1650  1.2052  0.2170
  336MOL0     H46299   1.011  10.083   4.479  1.0829  1.9173 -0.8848
  336MOL0     H46300   1.044  10.085   4.736  1.7003  1.3473  1.2490
  336MOL0     H46301   1.371   9.947   5.018 -0.8625  0.2316 -0.0372
  336MOL0     H46302   1.415   9.872   4.867 -1.0819  1.0644 -1.1722
  336MOL0     H46303   1.195   9.733   4.889 -0.1732 -1.9869  1.2090
  336MOL0     H46304   1.344   9.692   4.976 -0.2844  0.9834  0.8894
  336MOL0     H46305   1.170   9.881   5.127 -4.7682  0.0580 -0.3917
  336MOL0     H46306   1.099   9.715   5.125  0.9692 -2.1664  0.6126
  336MOL0     H46307   1.294   9.608   5.211  0.4743 -0.5077  1.5041
  336MOL0     H46308   1.375   9.767   5.209  1.4186 -2.0955  0.6007
  336MOL0     H46309   1.174   9.848   5.356  0.9509  1.1294  0.1231
  336MOL0     H46310   1.302   9.742   5.426 -0.6856 -1.8049 -0.4319
  336MOL0     H46311   1.030   9.671   5.329 -0.9240  1.8386  1.3460
  336MOL0     H46312   1.153   9.549   5.377  0.8294 -0.1119  0.7470
  336MOL0     H46313   1.015   9.758   5.549 -0.3215  0.2385  4.1888
  336MOL0     H46314   1.137   9.655   5.610 -0.7995 -0.4965 -0.7602
  336MOL0     H46315   0.908   9.568   5.663 -0.1984  0.5454  0.0288
  336MOL0     H46316   0.857   9.579   5.495  0.5288 -1.2297 -0.3363
  336MOL0     H46317   1.209   9.414   5.642  1.0482  0.0167 -1.3422
  336MOL0     H46318   1.321   9.195   5.599  1.2265 -2.5476  1.0507
  336MOL0     H46319   1.229   9.068   5.515 -1.5550 -2.1109  0.0303
  336MOL0     H46320   1.300   9.043   5.764 -0.3823 -0.7388  2.1563
  336MOL0     H46321   1.154   9.144   5.802  2.0175  1.6845 -1.7806
  336MOL0     H46322   1.010   8.964   5.681 -0.7276 -1.3085  2.3196
  336MOL0     H46323   1.172   8.887   5.637  2.5599  0.3902  1.5029
  336MOL0     H46324   1.194   8.860   5.905 -0.1546 -0.4332 -0.5027
  336MOL0     H46325   1.024   8.895   5.910 -1.9556  1.4851 -1.7658
  336MOL0     H46326   1.072   8.727   6.068 -0.2830  0.4994 -2.3262
  336MOL0     H46327   1.033   8.628   6.278 -0.6381  0.9281 -0.3238
  336MOL0     H46328   0.923   8.502   6.307 -0.5099 -1.1589 -1.9817
  336MOL0     H46329   0.860   8.674   6.295 -2.6203 -1.8375 -1.9263
  336MOL0     H46330   0.507   8.206   6.015  0.9858  0.2701 -0.7058
  336MOL0     H46331   0.320   8.091   6.154 -1.1566  1.3829  0.0587
  336MOL0     H46332   0.214   8.124   6.355  3.7335  1.2341  1.6379
  336MOL0     H46333   0.223   7.955   6.305 -2.5870  0.8764 -0.6557
  336MOL0     H46334   0.056   7.940   6.481  1.7050 -3.0142 -0.2514
  336MOL0     H46335   0.193   7.894   6.570 -2.1076  1.4636  5.0229
  336MOL0     H46336   0.044   8.156   6.580 -0.2216 -0.5471  0.2401
  336MOL0     H46337   0.221   8.156   6.604 -0.4211  0.3005 -0.8241
  336MOL0     H46338   0.194   7.988   6.788 -0.9918 -0.0357  0.4196
  336MOL0     H46339   0.026   7.981   6.758  1.5330 -3.5241 -2.8293
  336MOL0     H46340   0.170   8.240   6.825  1.3995 -1.0247  4.1028
  336MOL0     H46341  -0.014   8.209   6.812 -0.2543 -1.0900 -0.3524
  336MOL0     H46342  -0.007   8.044   6.987 -1.3209  1.8172  0.7103
  336MOL0     H46343   0.015   8.204   7.031 -2.4222 -2.3122  1.6654
  336MOL0     H46344   0.277   8.179   7.014  0.2230  5.0134  6.8222
  336MOL0     H46345   0.245   8.001   7.016  0.2588  0.8314 -0.7867
  336MOL0     H46346   0.122   8.176   7.219  0.3454  2.3560 -3.6167
  336MOL0     H46347   0.299   8.146   7.233 -1.4518  1.7343  2.0719
  336MOL0     H46348   0.614   8.056   6.469 -0.7515 -0.3303 -0.0861
  336MOL0     H46349   0.792   8.148   6.285  0.2159  0.4997  1.3039
  336MOL0     H46350   0.810   8.373   5.842  1.8944  0.1871 -2.0280
  336MOL0     H46351   0.932   8.536   5.722 -3.1533  2.2419  0.1386
  336MOL0     H46352   1.422   9.872   4.663  2.8889  2.8183 -1.0327
  336MOL0     H46353   1.383   9.854   4.446  0.0098 -0.3692 -0.5891
  336MOL0     H46354   1.083  10.083   4.082  0.1755  0.1737 -0.3136
  336MOL0     H46355   0.964  10.071   3.863 -0.2689  0.7434 -1.5620
  336MOL0     H46356   0.842  10.028   3.701 -1.4634  1.5993 -2.9812
  336MOL0     H46357   0.985  10.003   3.614 -1.1016 -1.8585 -1.8297
  336MOL0     H46358   0.769   9.998   3.486 -0.7128 -0.1665  0.5687
  336MOL0     H46359   0.724   9.852   3.571 -0.0093  0.3548 -0.3200
  336MOL0     H46360   0.979   9.776   3.476 -0.1568  0.8378 -0.0263
  336MOL0     H46361   0.818   9.734   3.416 -1.3288 -0.3007  1.9104
  336MOL0     H46362   0.836   9.946   3.261  0.1004 -2.8943 -4.0001
  336MOL0     H46363   0.949   9.828   3.221 -1.9269  0.2351 -0.5358
  336MOL0     H46364   1.222  10.103   3.361  0.0399 -0.8124  2.4857
  336MOL0     H46365   1.047   9.638   3.863 -2.2633 -0.6080  0.3928
  336MOL0     H46366   1.102   9.567   4.146  1.6331  0.5177  1.4577
  336MOL0     H46367   1.197   9.546   4.007 -2.0225  0.5671  0.1562
  336MOL0     H46368   1.267   9.619   4.145  0.0848 -1.6049  0.4325
  337MOL0     O46369   4.425   5.236   3.953 -0.3212  0.2175 -0.1739
  337MOL0     C46370   4.309   5.201   3.940 -0.4208 -0.0916  0.0583
  337MOL0     O46371   4.231   5.167   4.040 -0.2684  0.2473  0.3304
  337MOL0     C46372   4.257   5.215   4.170  0.6929  0.4223  0.2392
  337MOL0     C46373   4.228   5.127   4.280  0.4848  0.3776 -0.7317
  337MOL0     C46374   4.245   5.166   4.413 -0.9843  0.1581 -0.6854
  337MOL0     C46375   4.302   5.287   4.436  0.3177  0.7041  0.1255
  337MOL0     O46376   4.315   5.326   4.566 -1.2253  0.1666 -0.2862
  337MOL0     C46377   4.329   5.230   4.673  0.3610  0.6797 -0.4344
  337MOL0     C46378   4.417   5.301   4.767 -0.0588  0.2179 -0.7771
  337MOL0     C46379   4.334   5.407   4.845  0.3736 -0.2376 -0.8240
  337MOL0     C46380   4.410   5.485   4.949  0.1499  0.3554 -0.3315
  337MOL0     C46381   4.316   5.559   5.052  0.4288 -0.1027 -0.0764
  337MOL0     C46382   4.374   5.583   5.187 -0.4022  0.4740  0.2164
  337MOL0     C46383   4.519   5.640   5.182 -0.6049  0.6429 -0.2989
  337MOL0     C46384   4.529   5.747   5.296 -0.6519 -0.3667  1.0592
  337MOL0     N46385   4.607   5.861   5.250 -1.0361  0.1858  0.6267
  337MOL0     C46386   4.733   5.858   5.204 -0.7680 -1.1844 -0.5066
  337MOL0     C46387   4.769   5.985   5.181 -0.4246 -0.4696  0.1026
  337MOL0     C46388   4.894   6.040   5.117 -0.0956 -0.2748 -0.5779
  337MOL0     C46389   4.917   5.980   4.981 -0.3180 -0.2852  0.2259
  337MOL0     C46390   5.025   6.034   4.899 -1.3498  0.3638 -0.1052
  337MOL0     C46391   5.163   6.019   4.960  0.2514  0.7968 -0.0038
  337MOL0     O46392   5.189   5.882   4.984 -0.4615 -0.1916 -0.0772
  337MOL0     C46393   5.306   5.856   5.057  0.5350 -0.5575 -0.3468
  337MOL0     C46394   5.429   5.886   5.000  1.0005  0.3515 -0.4577
  337MOL0     C46395   5.554   5.856   5.054 -0.0188 -0.1192  0.0081
  337MOL0     C46396   5.681   5.916   4.985  1.1285 -0.2258 -0.5563
  337MOL0     C46397   5.552   5.782   5.171  0.8710  0.0015  0.1228
  337MOL0     C46398   5.673   5.724   5.238 -0.1033  0.0958  0.2547
  337MOL0     O46399   5.653   5.633   5.338  0.1942  0.1076  0.8894
  337MOL0     C46400   5.758   5.568   5.395  0.3865 -0.8661  0.6132
  337MOL0     C46401   5.772   5.430   5.368 -0.1022 -0.1352 -0.5731
  337MOL0     C46402   5.876   5.355   5.424 -0.1710 -0.0484 -0.5264
  337MOL0     C46403   5.964   5.415   5.522 -0.1298  0.5358  0.0842
  337MOL0     O46404   6.080   5.365   5.571  0.1143  0.0659 -0.3751
  337MOL0     C46405   6.128   5.240   5.512  0.5097  0.1428 -0.5693
  337MOL0     C46406   6.244   5.180   5.590 -0.7008 -1.1631 -0.8680
  337MOL0     C46407   6.356   5.285   5.624 -0.0391 -0.0714 -0.7687
  337MOL0     C46408   6.457   5.243   5.735 -0.0302  0.5117  0.3061
  337MOL0     C46409   6.571   5.331   5.737 -0.7815 -0.5998 -0.1440
  337MOL0     C46410   6.655   5.272   5.863  0.0450  0.2815  0.5367
  337MOL0     C46411   6.769   5.370   5.900  1.0333 -0.0460  0.1447
  337MOL0     C46412   6.884   5.319   5.981  0.5692  0.7393  0.1216
  337MOL0    Cl46413   6.996   5.455   5.983 -0.4370 -0.2685 -0.0465
  337MOL0     C46414   5.941   5.553   5.558  0.0130  0.6851 -0.0201
  337MOL0     C46415   5.839   5.633   5.493 -0.7085  0.0334 -0.3759
  337MOL0     O46416   5.786   5.753   5.198  0.3576 -0.4103 -0.0221
  337MOL0     C46417   5.424   5.740   5.223  0.7399 -0.2974  0.3903
  337MOL0     C46418   5.303   5.777   5.168  0.3615  0.0019  0.9824
  337MOL0     N46419   4.659   6.063   5.220 -0.1003  0.0097  0.2637
  337MOL0     N46420   4.573   5.985   5.272 -0.0281 -0.1770  1.0698
  337MOL0     C46421   4.324   5.377   4.335  0.6325 -0.1841 -0.0099
  337MOL0     C46422   4.300   5.340   4.203  0.0328 -0.1782 -0.1437
  337MOL0     C46423   4.275   5.185   3.800  0.2534 -0.0062  0.0450
  337MOL0     C46424   4.375   5.132   3.713  0.0970  1.4958  0.8259
  337MOL0     C46425   4.353   5.128   3.577  0.3871 -0.2747 -0.6200
  337MOL0     C46426   4.236   5.179   3.521  0.1206  0.2079  0.2114
  337MOL0     O46427   4.209   5.209   3.390  0.1396 -1.0039 -0.7207
  337MOL0     C46428   4.209   5.346   3.364  0.1211 -0.0478 -0.5622
  337MOL0     C46429   4.272   5.370   3.231 -0.3451 -0.1732  0.2342
  337MOL0     C46430   4.247   5.524   3.214  0.5165  0.2819  0.6294
  337MOL0     C46431   4.307   5.575   3.091  0.2179 -0.5172  0.1269
  337MOL0     C46432   4.453   5.580   3.086  0.5587 -0.3831 -0.0307
  337MOL0     C46433   4.569   5.595   3.082 -0.0460 -0.2026  0.9061
  337MOL0     C46434   4.139   5.236   3.608  0.5877 -0.3552 -0.9021
  337MOL0     C46435   4.157   5.242   3.746  0.6334  0.5023 -0.8759
  337MOL0     C46436   4.055   5.324   3.833 -0.1006  0.5076  1.0872
  337MOL0     H46437   4.188   5.027   4.263  0.6587  0.1210  0.3224
  337MOL0     H46438   4.224   5.094   4.491 -0.0756 -2.7188 -2.9114
  337MOL0     H46439   4.380   5.140   4.636 -1.5302 -0.1601 -1.1284
  337MOL0     H46440   4.230   5.207   4.713  0.6916 -1.3579 -0.6793
  337MOL0     H46441   4.459   5.235   4.844 -0.5017  0.6673 -0.1364
  337MOL0     H46442   4.499   5.340   4.706  2.4498 -1.7809  1.0832
  337MOL0     H46443   4.282   5.477   4.778 -0.8982  0.8347  1.1936
  337MOL0     H46444   4.243   5.356   4.879  0.8778 -1.0725 -0.7078
  337MOL0     H46445   4.483   5.422   5.001  2.1084  1.7394 -1.2838
  337MOL0     H46446   4.477   5.554   4.898  0.9219 -0.9384 -1.1353
  337MOL0     H46447   4.227   5.496   5.062  1.6626 -2.3870 -2.2411
  337MOL0     H46448   4.285   5.652   5.004  0.7903 -0.3648 -0.8475
  337MOL0     H46449   4.312   5.652   5.245  0.0954 -0.0773  1.4351
  337MOL0     H46450   4.382   5.482   5.229 -0.4695 -0.3489 -1.6422
  337MOL0     H46451   4.547   5.671   5.081  0.5784 -0.3067 -0.2914
  337MOL0     H46452   4.583   5.554   5.207 -0.0903  0.8927 -0.7326
  337MOL0     H46453   4.435   5.792   5.329  0.9017  2.5423  1.7617
  337MOL0     H46454   4.579   5.704   5.384 -1.5096 -1.3141  1.1026
  337MOL0     H46455   4.783   5.764   5.182 -2.2956 -2.0121 -0.6570
  337MOL0     H46456   4.978   6.030   5.186 -1.0157  0.1902  0.6463
  337MOL0     H46457   4.888   6.148   5.102  0.2503 -0.1714  0.0054
  337MOL0     H46458   4.919   5.871   4.988 -2.2648 -0.5122 -1.7404
  337MOL0     H46459   4.823   5.986   4.926  0.3342 -1.5664 -1.0948
  337MOL0     H46460   5.020   5.975   4.807 -2.7294 -4.4838  2.7461
  337MOL0     H46461   5.017   6.143   4.889  2.1875  0.8781  1.0518
  337MOL0     H46462   5.229   6.068   4.889 -2.8355 -0.0100 -3.7731
  337MOL0     H46463   5.156   6.066   5.059 -0.7496 -1.1570  0.9211
  337MOL0     H46464   5.415   5.946   4.911  0.4755 -0.2701 -0.7965
  337MOL0     H46465   5.732   5.989   5.048  3.7013 -2.0421 -0.3947
  337MOL0     H46466   5.654   5.976   4.897  0.5631  4.8057  2.6269
  337MOL0     H46467   5.753   5.843   4.946  1.7143  1.1132 -2.1111
  337MOL0     H46468   5.702   5.392   5.295  1.6694 -1.8477 -1.4655
  337MOL0     H46469   5.896   5.258   5.378  2.0170  0.4536 -0.7881
  337MOL0     H46470   6.061   5.154   5.523  2.7611 -1.6602 -0.1101
  337MOL0     H46471   6.137   5.257   5.404 -1.5436 -0.1171 -0.8074
  337MOL0     H46472   6.215   5.145   5.690  3.0314 -2.1519  0.0455
  337MOL0     H46473   6.282   5.092   5.538 -2.2008 -2.2074 -0.2763
  337MOL0     H46474   6.296   5.368   5.663 -0.4973 -0.9292  0.4052
  337MOL0     H46475   6.412   5.311   5.534  2.2514 -3.9600 -0.6971
  337MOL0     H46476   6.490   5.141   5.713 -1.4787  0.2322 -0.7179
  337MOL0     H46477   6.400   5.240   5.829 -0.2870  0.9465  0.1677
  337MOL0     H46478   6.622   5.324   5.641  3.2900  5.0346  1.0860
  337MOL0     H46479   6.525   5.430   5.746  0.3965  0.1440 -1.8158
  337MOL0     H46480   6.703   5.175   5.846 -2.7822 -1.0482 -0.7388
  337MOL0     H46481   6.585   5.262   5.946  0.8387  1.3651  1.3521
  337MOL0     H46482   6.723   5.450   5.958 -1.1637 -1.0629 -0.1142
  337MOL0     H46483   6.803   5.411   5.805 -4.0864  2.2385 -1.0319
  337MOL0     H46484   6.941   5.234   5.943  0.5466  1.1406 -0.8440
  337MOL0     H46485   6.835   5.287   6.074 -2.5851 -3.4087 -2.6128
  337MOL0     H46486   6.005   5.597   5.633 -2.1931  3.5711  0.3467
  337MOL0     H46487   5.835   5.736   5.525  0.9834 -0.1216  0.4821
  337MOL0     H46488   5.412   5.681   5.313 -1.4822  0.3217  0.5528
  337MOL0     H46489   5.213   5.741   5.217 -0.7347 -0.2676 -1.1090
  337MOL0     H46490   4.361   5.479   4.344  0.6363 -0.1076 -0.7746
  337MOL0     H46491   4.317   5.412   4.123 -4.6418  1.6507  0.2502
  337MOL0     H46492   4.469   5.099   3.756 -1.2547 -1.5071  1.7898
  337MOL0     H46493   4.426   5.094   3.504  0.0187 -2.4694 -0.0447
  337MOL0     H46494   4.109   5.387   3.380 -1.1553 -3.3340  0.8558
  337MOL0     H46495   4.262   5.403   3.440 -3.1633  0.5143  1.5041
  337MOL0     H46496   4.227   5.306   3.154  1.4434  0.4594 -1.4411
  337MOL0     H46497   4.380   5.354   3.234 -0.4802 -2.2561 -1.9945
  337MOL0     H46498   4.141   5.546   3.198  0.8809  0.5005 -1.8209
  337MOL0     H46499   4.272   5.590   3.298  1.1268  1.0722 -0.1638
  337MOL0     H46500   4.266   5.676   3.086 -3.0147 -1.7508 -0.7954
  337MOL0     H46501   4.266   5.512   3.011  0.0976  3.2846 -3.0733
  337MOL0     H46502   4.675   5.606   3.072 -0.2085  0.7559  0.0802
  337MOL0     H46503   4.049   5.284   3.570 -0.3036 -0.0434  1.4688
  337MOL0     H46504   4.100   5.376   3.917  0.9913  1.7363 -0.1988
  337MOL0     H46505   3.994   5.387   3.768 -2.5159 -2.1191  0.5848
  337MOL0     H46506   3.975   5.255   3.862 -2.1836  1.9039 -0.9399
  338MOL0     O46507   7.308   8.739   5.836  0.5090  0.1658  0.2917
  338MOL0     C46508   7.376   8.741   5.938  0.0784 -0.2734 -0.6817
  338MOL0     O46509   7.371   8.853   6.022 -0.4875  0.7269 -0.4509
  338MOL0     C46510   7.277   8.953   5.998  0.6967  0.6652  0.1238
  338MOL0     C46511   7.231   9.005   5.873 -0.5175 -0.0090  0.1670
  338MOL0     C46512   7.134   9.112   5.877  0.2422 -0.2589 -0.7149
  338MOL0     C46513   7.087   9.163   6.005 -0.3146  0.0903  0.2457
  338MOL0     O46514   6.995   9.254   6.026 -0.4250 -0.5995  0.0582
  338MOL0     C46515   6.909   9.298   5.919 -0.3925  0.6998  0.4597
  338MOL0     C46516   6.787   9.381   5.977 -0.1891 -0.6070 -0.1546
  338MOL0     C46517   6.839   9.503   6.054  0.6318 -0.0587  0.6747
  338MOL0     C46518   6.722   9.589   6.099 -0.1801 -0.4406  0.2539
  338MOL0     C46519   6.746   9.743   6.104  0.3781  0.3050 -0.9245
  338MOL0     C46520   6.622   9.813   6.152  0.5189 -0.3846 -0.2423
  338MOL0     C46521   6.588   9.946   6.096  0.0173  0.6774  0.0504
  338MOL0     C46522   6.451   9.986   6.145 -0.6540  0.1741 -0.7040
  338MOL0     N46523   6.391  10.112   6.092  0.2882 -0.2384  0.1876
  338MOL0     C46524   6.314  10.131   5.988 -1.0278 -0.0021 -0.1734
  338MOL0     C46525   6.287  10.262   5.976 -0.3747 -0.0447 -0.2380
  338MOL0     C46526   6.193  10.324   5.885  1.1398 -0.0514 -1.5822
  338MOL0     C46527   6.049  10.325   5.940  0.4018  0.4793  1.2500
  338MOL0     C46528   5.950  10.372   5.840  0.2696  0.3604 -1.2849
  338MOL0     C46529   5.949  10.520   5.832 -0.2937  0.1343 -0.0034
  338MOL0     O46530   5.891  10.588   5.948  0.0530  0.3956  0.0977
  338MOL0     C46531   5.759  10.609   5.960 -0.2620  0.3204  0.0778
  338MOL0     C46532   5.714  10.707   6.042 -0.1844 -1.1982 -0.1834
  338MOL0     C46533   5.584  10.738   6.066 -0.2230 -0.2639  0.1091
  338MOL0     C46534   5.562  10.840   6.175  0.2425  0.1799  0.0554
  338MOL0     C46535   5.484  10.664   5.999  0.6692 -0.1440 -0.5545
  338MOL0     C46536   5.338  10.685   6.009  0.7672  0.9715 -0.2337
  338MOL0     O46537   5.259  10.598   5.935 -0.1396  0.4716 -0.2357
  338MOL0     C46538   5.130  10.591   5.970  0.3032 -0.2325  0.3289
  338MOL0     C46539   5.094  10.542   6.100 -0.4345 -0.1468 -0.3422
  338MOL0     C46540   4.954  10.540   6.139  0.4800 -0.4876  0.9914
  338MOL0     C46541   4.852  10.589   6.055 -0.2264  0.5346 -1.6024
  338MOL0     O46542   4.719  10.620   6.087 -0.4279 -0.5914 -0.4057
  338MOL0     C46543   4.672  10.590   6.225 -0.4439  0.8735  0.4288
  338MOL0     C46544   4.618  10.448   6.225 -0.6348 -0.7651 -0.1254
  338MOL0     C46545   4.503  10.416   6.136 -0.4937  0.0767 -0.5222
  338MOL0     C46546   4.497  10.265   6.104 -0.2573  0.2260 -1.0391
  338MOL0     C46547   4.568  10.234   5.975 -0.1781 -0.2298  1.3001
  338MOL0     C46548   4.485  10.262   5.852  0.1858  0.7771  0.5657
  338MOL0     C46549   4.565  10.221   5.718 -0.6437  0.0087  0.2596
  338MOL0     C46550   4.463  10.185   5.609 -0.3041  0.8090 -0.5400
  338MOL0    Cl46551   4.498  10.017   5.557  0.2511 -0.4638  0.5641
  338MOL0     C46552   4.889  10.624   5.923  0.7505  0.4041 -0.7127
  338MOL0     C46553   5.019  10.632   5.886  0.7454  0.2623 -0.1572
  338MOL0     O46554   5.298  10.766   6.088  0.1019  0.8412  0.0280
  338MOL0     C46555   5.528  10.569   5.908  0.4734  0.3348 -0.9239
  338MOL0     C46556   5.664  10.536   5.894  0.4623 -0.2030  0.4241
  338MOL0     N46557   6.370  10.328   6.069 -0.3725  0.3467  0.3670
  338MOL0     N46558   6.423  10.235   6.150 -0.0459  0.1614  0.0640
  338MOL0     C46559   7.127   9.097   6.124  0.5894  0.3424  1.1789
  338MOL0     C46560   7.225   8.997   6.117 -0.3856 -0.7730  0.2396
  338MOL0     C46561   7.468   8.639   5.979 -0.2007 -0.4560 -0.4701
  338MOL0     C46562   7.531   8.645   6.105  1.1038 -0.3775  0.6390
  338MOL0     C46563   7.619   8.542   6.151  0.3971  0.1713 -0.1025
  338MOL0     C46564   7.664   8.446   6.063 -0.0834  0.9919 -1.3564
  338MOL0     O46565   7.757   8.360   6.106 -0.0841 -0.4426  0.6209
  338MOL0     C46566   7.775   8.235   6.028  0.5128 -0.1284  0.6894
  338MOL0     C46567   7.835   8.115   6.103  0.1865  0.5122 -0.6481
  338MOL0     C46568   7.752   8.039   6.206  0.3223 -0.4720 -0.3010
  338MOL0     C46569   7.689   7.914   6.142  0.3563 -0.3647 -0.2218
  338MOL0     C46570   7.607   7.842   6.243  0.5057 -0.1469  0.2109
  338MOL0     C46571   7.534   7.772   6.314  0.2145 -0.0921 -0.2049
  338MOL0     C46572   7.600   8.432   5.940 -0.5558  0.0148 -1.0364
  338MOL0     C46573   7.506   8.530   5.899  0.6334  0.7609  0.7600
  338MOL0     C46574   7.461   8.498   5.755  0.0731 -0.6322  1.0695
  338MOL0     H46575   7.278   8.979   5.779  2.7941  1.4463  1.2854
  338MOL0     H46576   7.095   9.151   5.784  0.2555  1.5135 -0.0090
  338MOL0     H46577   6.864   9.211   5.870  1.0407 -0.7424  1.6084
  338MOL0     H46578   6.945   9.370   5.845  0.0704  0.6318  0.6142
  338MOL0     H46579   6.712   9.406   5.902 -0.4176 -1.3811 -0.1994
  338MOL0     H46580   6.737   9.318   6.051 -1.6451  0.7487  0.0569
  338MOL0     H46581   6.909   9.468   6.131  3.5460  0.8843 -1.3783
  338MOL0     H46582   6.902   9.568   5.994 -0.0868 -1.1644 -1.3658
  338MOL0     H46583   6.639   9.571   6.031  0.1251  0.6192 -0.4233
  338MOL0     H46584   6.703   9.553   6.201 -0.0214  1.5398  1.0227
  338MOL0     H46585   6.766   9.779   6.003  1.4283  0.4354 -0.6861
  338MOL0     H46586   6.834   9.756   6.168  1.5288 -3.2294 -1.5696
  338MOL0     H46587   6.536   9.753   6.121  0.0752  1.7672 -3.7096
  338MOL0     H46588   6.634   9.818   6.260  0.5543 -1.3542 -0.1912
  338MOL0     H46589   6.602   9.953   5.988  1.0919  2.4919  0.2600
  338MOL0     H46590   6.669  10.013   6.128  2.9452 -1.9950 -1.1773
  338MOL0     H46591   6.377   9.910   6.117 -1.7630  0.7868  0.5008
  338MOL0     H46592   6.447   9.982   6.254  1.8784  3.7368 -0.3139
  338MOL0     H46593   6.280  10.052   5.921 -0.4044  0.1050 -0.6324
  338MOL0     H46594   6.202  10.260   5.797  1.7324  1.0884 -2.3857
  338MOL0     H46595   6.224  10.425   5.855 -1.6846  1.5507  0.4214
  338MOL0     H46596   6.025  10.219   5.957  0.7831  0.0001 -0.9090
  338MOL0     H46597   6.038  10.384   6.032  0.1894  0.2143  1.3977
  338MOL0     H46598   5.977  10.327   5.744 -1.9622 -1.4980 -1.1355
  338MOL0     H46599   5.850  10.334   5.867  0.6334  0.0664 -0.3188
  338MOL0     H46600   6.049  10.543   5.796  0.4485 -0.4790  1.6047
  338MOL0     H46601   5.894  10.563   5.748  1.4119  1.0348 -0.6820
  338MOL0     H46602   5.785  10.777   6.086 -1.1092  0.2699 -0.9315
  338MOL0     H46603   5.562  10.945   6.143  0.4731  0.3881  0.7289
  338MOL0     H46604   5.641  10.818   6.247  2.7134  2.2986 -1.8047
  338MOL0     H46605   5.471  10.826   6.235  1.1615 -1.3020  1.1587
  338MOL0     H46606   5.178  10.522   6.166 -2.7228 -1.5161  2.3460
  338MOL0     H46607   4.932  10.499   6.237 -2.0257 -4.2294 -0.9176
  338MOL0     H46608   4.755  10.596   6.296  1.5643  1.8971 -1.8707
  338MOL0     H46609   4.600  10.667   6.251 -1.3084  1.2239 -2.5797
  338MOL0     H46610   4.702  10.389   6.187  2.0833  2.3736  0.4867
  338MOL0     H46611   4.613  10.411   6.328  3.8404  2.7112  1.7228
  338MOL0     H46612   4.514  10.471   6.042  1.7531 -2.5725 -1.9442
  338MOL0     H46613   4.414  10.458   6.184  0.1669  0.7796  0.1215
  338MOL0     H46614   4.394  10.228   6.105 -0.2887  0.2287 -2.1862
  338MOL0     H46615   4.545  10.216   6.189  1.3831  1.8875 -0.9580
  338MOL0     H46616   4.666  10.283   5.977 -0.7679  1.0424  0.2660
  338MOL0     H46617   4.594  10.130   5.953  1.1852  0.5531 -1.1842
  338MOL0     H46618   4.456  10.367   5.840 -2.6633 -0.1001 -1.2391
  338MOL0     H46619   4.393  10.209   5.877  0.6574 -0.0654  0.5417
  338MOL0     H46620   4.638  10.139   5.718  1.3625  1.6637 -1.6030
  338MOL0     H46621   4.611  10.309   5.671 -0.9330 -0.2313 -0.4812
  338MOL0     H46622   4.461  10.239   5.514  0.6714 -0.7831 -1.5162
  338MOL0     H46623   4.362  10.205   5.647 -0.2928 -0.3453  0.1421
  338MOL0     H46624   4.806  10.665   5.867  1.0206  2.6011  0.3891
  338MOL0     H46625   5.033  10.675   5.788 -0.7001  1.2710  0.0412
  338MOL0     H46626   5.455  10.507   5.857  0.3701 -1.1959  0.9700
  338MOL0     H46627   5.679  10.453   5.827 -0.8532 -0.0000 -0.1494
  338MOL0     H46628   7.095   9.119   6.225 -0.0546  2.4878  0.5581
  338MOL0     H46629   7.266   8.955   6.209 -2.6588 -1.8224  0.8568
  338MOL0     H46630   7.503   8.720   6.177  1.3939  0.8122 -0.4529
  338MOL0     H46631   7.671   8.529   6.246  3.5741 -4.2576 -2.0985
  338MOL0     H46632   7.689   8.182   5.986  1.5119 -0.7726 -0.6289
  338MOL0     H46633   7.844   8.274   5.953  2.1515 -2.6781  0.7625
  338MOL0     H46634   7.920   8.149   6.164 -0.2279  2.3232 -1.0153
  338MOL0     H46635   7.878   8.042   6.035 -1.5959 -0.4480 -0.8049
  338MOL0     H46636   7.807   8.020   6.298 -0.3603 -0.6923  0.0657
  338MOL0     H46637   7.667   8.107   6.215  1.0032  0.6980 -2.0322
  338MOL0     H46638   7.759   7.848   6.090  0.0216 -0.0489 -1.0823
  338MOL0     H46639   7.621   7.945   6.062 -2.5196 -4.5391  0.2453
  338MOL0     H46640   7.469   7.717   6.379 -0.7099  2.4168  1.1416
  338MOL0     H46641   7.640   8.373   5.858  1.1977 -1.5667  0.8608
  338MOL0     H46642   7.443   8.390   5.749 -0.5048 -0.5740  1.6353
  338MOL0     H46643   7.370   8.553   5.727  0.4157 -0.0005  1.1875
  338MOL0     H46644   7.526   8.531   5.674 -0.6465 -0.0457  0.7171
  339MOL0     O46645   8.081   0.074   9.887  0.0834 -0.2782 -0.3988
  339MOL0     C46646   8.062  -0.025   9.816  0.1975  0.1872 -0.6905
  339MOL0     O46647   8.054  -0.027   9.677  0.0270 -0.6674  0.1571
  339MOL0     C46648   8.116   0.075   9.606 -0.1270 -0.2535  0.2047
  339MOL0     C46649   8.195   0.183   9.656 -0.7729 -0.5028 -0.3411
  339MOL0     C46650   8.241   0.282   9.570  0.1690 -0.5314 -0.6166
  339MOL0     C46651   8.220   0.280   9.438  0.6095 -0.0434  0.2534
  339MOL0     O46652   8.270   0.379   9.349  0.6958  0.5899  0.3969
  339MOL0     C46653   8.318   0.319   9.228  0.4022  0.2752  0.8855
  339MOL0     C46654   8.451   0.388   9.188 -0.7134  0.2625 -0.1220
  339MOL0     C46655   8.507   0.372   9.047  0.5415  0.2574 -0.0421
  339MOL0     C46656   8.651   0.425   9.053 -0.5497 -1.2525  0.4557
  339MOL0     C46657   8.728   0.411   8.920  0.7229  0.1643 -0.3289
  339MOL0     C46658   8.682   0.494   8.801  0.0425  0.5265  0.2669
  339MOL0     C46659   8.782   0.481   8.694 -0.9527 -0.0758  0.2850
  339MOL0     C46660   8.729   0.504   8.550 -0.1152  0.1803  1.2939
  339MOL0     N46661   8.781   0.630   8.491 -1.0393 -0.5791 -0.4773
  339MOL0     C46662   8.806   0.631   8.355 -1.4332  0.1698 -0.4452
  339MOL0     C46663   8.821   0.768   8.335  0.4692  1.1980 -0.7466
  339MOL0     C46664   8.870   0.842   8.221 -0.2486 -0.7054 -0.0662
  339MOL0     C46665   8.990   0.922   8.270  0.1566 -0.2277  0.0786
  339MOL0     C46666   8.964   1.056   8.330  0.8017 -0.3095 -0.1059
  339MOL0     C46667   9.091   1.128   8.362 -0.4838  0.3864  0.5797
  339MOL0     O46668   9.064   1.245   8.438  0.2783 -0.8786  0.0589
  339MOL0     C46669   9.175   1.304   8.501 -0.0346 -0.5471  0.3253
  339MOL0     C46670   9.312   1.274   8.474  0.5476  0.2831 -0.6631
  339MOL0     C46671   9.417   1.337   8.538 -0.0008  1.2637  0.2527
  339MOL0     C46672   9.555   1.282   8.511  0.8883 -0.6407 -0.0185
  339MOL0     C46673   9.390   1.444   8.618  0.2383 -0.6844  1.5710
  339MOL0     C46674   9.491   1.544   8.651  0.5087  0.5091 -0.0219
  339MOL0     O46675   9.474   1.671   8.615  0.6336 -0.2960 -0.5750
  339MOL0     C46676   9.563   1.768   8.656  0.4000  0.1916 -0.0298
  339MOL0     C46677   9.513   1.885   8.715 -0.0054  0.3194  0.5663
  339MOL0     C46678   9.597   1.990   8.756  0.8009 -0.2225 -0.6755
  339MOL0     C46679   9.732   1.970   8.741  0.0476 -0.2493  0.3327
  339MOL0     O46680   9.825   2.061   8.785 -0.1825  0.8749 -0.0346
  339MOL0     C46681   9.780   2.172   8.865 -0.1964  0.0702  0.7352
  339MOL0     C46682   9.765   2.132   9.009 -0.3664 -0.7085 -0.5589
  339MOL0     C46683   9.702   2.258   9.089 -0.2304 -0.3074 -1.4348
  339MOL0     C46684   9.565   2.309   9.050  0.4925  0.5882 -0.0164
  339MOL0     C46685   9.513   2.418   9.151  0.5328 -0.6549  0.0857
  339MOL0     C46686   9.370   2.474   9.112  0.5334 -0.7479 -0.3771
  339MOL0     C46687   9.325   2.581   9.204  0.7888  0.1009 -0.2154
  339MOL0     C46688   9.185   2.627   9.154 -0.9206 -1.0268 -0.0730
  339MOL0    Cl46689   9.136   2.753   9.245  0.2312  0.2179 -0.3673
  339MOL0     C46690   9.789   1.859   8.670  1.2051  0.1017  1.0781
  339MOL0     C46691   9.699   1.761   8.626  1.1457  0.2030  0.7782
  339MOL0     O46692   9.596   1.500   8.705 -0.4890  0.0860 -0.3477
  339MOL0     C46693   9.251   1.471   8.655 -0.6353  0.0606  1.4079
  339MOL0     C46694   9.148   1.398   8.597  0.3780 -0.4599 -0.5669
  339MOL0     N46695   8.774   0.835   8.452  0.4668 -0.0773  0.1931
  339MOL0     N46696   8.750   0.753   8.541  0.3079 -0.4723 -0.7403
  339MOL0     C46697   8.143   0.173   9.388 -0.0033 -0.8546  0.6242
  339MOL0     C46698   8.081   0.076   9.472  0.1262 -0.4033 -0.7737
  339MOL0     C46699   8.030  -0.150   9.891 -0.7887 -0.3994 -0.4959
  339MOL0     C46700   7.945  -0.242   9.835  0.5467  0.4464  0.4161
  339MOL0     C46701   7.899  -0.360   9.898  0.0484 -0.2777 -0.0531
  339MOL0     C46702   7.933  -0.387  10.027  0.2356 -0.1999  0.6546
  339MOL0     O46703   7.871  -0.483  10.110  0.8151 -0.5060  0.0612
  339MOL0     C46704   7.794  -0.592  10.050  0.3786 -0.1266 -0.6141
  339MOL0     C46705   7.757  -0.684  10.161 -0.8468  0.6077 -0.6486
  339MOL0     C46706   7.874  -0.787  10.191 -0.3657 -0.8571 -0.2139
  339MOL0     C46707   7.831  -0.868  10.311  0.4726 -0.0562  0.4863
  339MOL0     C46708   7.747  -0.975  10.251 -1.0312  0.3320 -0.0721
  339MOL0     C46709   7.688  -1.051  10.183 -0.1405  0.5150 -1.2826
  339MOL0     C46710   8.033  -0.305  10.083 -0.0516  0.2625 -0.2517
  339MOL0     C46711   8.086  -0.181  10.017 -0.4791 -0.4302  0.1801
  339MOL0     C46712   8.195  -0.107  10.092  0.1248 -0.1898  0.0192
  339MOL0     H46713   8.234   0.192   9.757  0.0126 -0.2262 -0.6670
  339MOL0     H46714   8.296   0.364   9.614  1.0847 -1.4423 -0.0293
  339MOL0     H46715   8.238   0.324   9.153 -1.9405 -2.8627  2.9563
  339MOL0     H46716   8.344   0.214   9.243 -0.4826 -0.0935 -0.1014
  339MOL0     H46717   8.433   0.493   9.213 -1.6425 -0.1521  1.0663
  339MOL0     H46718   8.526   0.351   9.259 -0.1418  2.5241  0.5160
  339MOL0     H46719   8.506   0.264   9.028  1.2166  0.4170 -1.0155
  339MOL0     H46720   8.444   0.423   8.973  0.1601  0.6705  0.5577
  339MOL0     H46721   8.653   0.532   9.075  1.1229 -0.4793 -2.7440
  339MOL0     H46722   8.717   0.371   9.122 -0.5145 -2.4764 -0.5160
  339MOL0     H46723   8.728   0.309   8.881 -0.1694  1.5071 -4.2679
  339MOL0     H46724   8.834   0.429   8.937  1.3142 -1.8947 -1.5603
  339MOL0     H46725   8.587   0.451   8.765 -0.4851  2.1692 -0.4160
  339MOL0     H46726   8.677   0.597   8.837  0.9706  0.7698 -0.2805
  339MOL0     H46727   8.816   0.377   8.693  0.1103  0.2314  1.7810
  339MOL0     H46728   8.864   0.549   8.717 -1.5329 -0.3550  3.6209
  339MOL0     H46729   8.759   0.429   8.476 -1.0207 -0.1100  1.2054
  339MOL0     H46730   8.620   0.496   8.555 -0.2835  2.2831  1.6524
  339MOL0     H46731   8.837   0.559   8.280  0.6820  1.1834 -0.6118
  339MOL0     H46732   8.799   0.912   8.177  0.7265 -0.5064 -1.3818
  339MOL0     H46733   8.892   0.773   8.139  0.0117  0.8469 -1.3617
  339MOL0     H46734   9.050   0.868   8.343  1.0556  1.5491  0.7214
  339MOL0     H46735   9.059   0.934   8.185  1.5103 -0.3002  1.1346
  339MOL0     H46736   8.897   1.112   8.265 -1.4664  0.2531  2.5009
  339MOL0     H46737   8.918   1.046   8.429 -0.3454  1.2014 -0.4485
  339MOL0     H46738   9.158   1.069   8.426 -1.5886  2.6743  4.1912
  339MOL0     H46739   9.150   1.156   8.275 -0.1273 -0.4554  0.5407
  339MOL0     H46740   9.331   1.203   8.394  3.1042  0.2900 -0.1589
  339MOL0     H46741   9.622   1.360   8.475 -1.6763  1.3135 -0.8191
  339MOL0     H46742   9.541   1.201   8.438 -0.0327  0.2602 -0.8567
  339MOL0     H46743   9.587   1.222   8.597 -3.2741 -1.1035  1.4359
  339MOL0     H46744   9.404   1.885   8.715 -0.0340 -0.3839 -0.6825
  339MOL0     H46745   9.541   2.072   8.799 -1.6364 -1.3026 -1.6158
  339MOL0     H46746   9.861   2.245   8.869 -0.0082 -0.1669  1.4458
  339MOL0     H46747   9.688   2.211   8.819 -2.7833 -1.3864  4.1939
  339MOL0     H46748   9.697   2.049   9.030  0.1477 -1.1024 -0.4116
  339MOL0     H46749   9.862   2.106   9.052 -1.2393 -0.5336  1.5946
  339MOL0     H46750   9.768   2.345   9.080 -0.9669  0.4342 -0.0244
  339MOL0     H46751   9.698   2.226   9.194  0.2657  0.8720 -1.0415
  339MOL0     H46752   9.495   2.226   9.038  0.7109  0.5070 -0.7273
  339MOL0     H46753   9.571   2.355   8.951  0.3400  0.7602  0.0529
  339MOL0     H46754   9.502   2.375   9.251 -1.6278 -1.2431 -0.3681
  339MOL0     H46755   9.588   2.498   9.158  0.0472 -0.2601  0.8719
  339MOL0     H46756   9.296   2.393   9.121 -1.3672  0.6071 -2.6656
  339MOL0     H46757   9.360   2.500   9.006 -1.9111 -0.4679 -0.1549
  339MOL0     H46758   9.390   2.669   9.208 -1.3379  1.7629 -0.5965
  339MOL0     H46759   9.326   2.542   9.307 -1.2417  0.6263  0.0326
  339MOL0     H46760   9.107   2.552   9.161  0.2497 -2.2122  0.7561
  339MOL0     H46761   9.182   2.661   9.050  2.3088 -3.3860 -1.0937
  339MOL0     H46762   9.894   1.851   8.644  0.5630 -2.2568 -1.1604
  339MOL0     H46763   9.739   1.673   8.577  0.7821  0.0404  0.7698
  339MOL0     H46764   9.222   1.550   8.724  0.7448  0.7283  1.2664
  339MOL0     H46765   9.050   1.439   8.616  1.3730  1.6648  0.2854
  339MOL0     H46766   8.116   0.171   9.282  3.4901 -0.8654 -0.3971
  339MOL0     H46767   8.006   0.003   9.441  1.1810 -1.6691 -0.4494
  339MOL0     H46768   7.918  -0.230   9.730  0.8028  1.7595  0.4871
  339MOL0     H46769   7.828  -0.423   9.846  2.7808 -4.0017  0.2722
  339MOL0     H46770   7.705  -0.543  10.010  1.2670 -0.6690 -3.4756
  339MOL0     H46771   7.865  -0.634   9.978 -0.4012 -3.7647  0.5570
  339MOL0     H46772   7.665  -0.732  10.127 -2.0179  2.3897 -0.1253
  339MOL0     H46773   7.733  -0.633  10.255 -1.5787  0.5952 -0.8200
  339MOL0     H46774   7.899  -0.846  10.103  2.2843  1.0775 -0.9132
  339MOL0     H46775   7.958  -0.721  10.216 -2.0136  0.7395  1.3742
  339MOL0     H46776   7.763  -0.831  10.388 -1.2042 -1.6306 -0.1660
  339MOL0     H46777   7.919  -0.913  10.358  1.6874 -0.3010 -1.8289
  339MOL0     H46778   7.640  -1.123  10.120  0.1035 -0.5630 -0.2599
  339MOL0     H46779   8.061  -0.331  10.185 -0.5977  0.1222 -0.1375
  339MOL0     H46780   8.219  -0.144  10.192 -0.4559  0.5594  0.4490
  339MOL0     H46781   8.292  -0.107  10.042  1.3480  0.7590  2.2604
  339MOL0     H46782   8.155  -0.005  10.097  1.0446  0.3075 -1.9365
  340MOL0     O46783   3.791   2.560   8.217  0.0578 -0.9724 -1.3651
  340MOL0     C46784   3.750   2.506   8.110  0.1023 -0.7602  0.0104
  340MOL0     O46785   3.760   2.561   7.983  0.4413  0.0572  0.2279
  340MOL0     C46786   3.861   2.643   7.954 -0.7463 -0.2977 -1.0799
  340MOL0     C46787   3.885   2.757   8.038  0.6770 -0.4364 -0.5577
  340MOL0     C46788   3.984   2.852   8.010  0.3869  0.5466 -0.4794
  340MOL0     C46789   4.062   2.841   7.893 -0.0662  0.6746 -0.6937
  340MOL0     O46790   4.162   2.921   7.845 -0.9171 -1.1096 -0.6113
  340MOL0     C46791   4.237   3.002   7.939 -0.0409  0.1668 -0.5365
  340MOL0     C46792   4.335   3.082   7.856  0.8016  0.0481  0.8179
  340MOL0     C46793   4.442   3.008   7.785 -1.3094  0.0157 -0.2209
  340MOL0     C46794   4.567   3.080   7.730 -0.1716  0.7531 -0.5046
  340MOL0     C46795   4.544   3.125   7.582 -1.2007 -0.2757 -0.0748
  340MOL0     C46796   4.650   3.224   7.526 -0.7090 -1.0684  0.0038
  340MOL0     C46797   4.600   3.310   7.408  0.6516  0.0491 -0.7484
  340MOL0     C46798   4.718   3.360   7.324  0.2631 -0.8161 -0.2181
  340MOL0     N46799   4.680   3.442   7.216  0.2376  0.1191  0.8941
  340MOL0     C46800   4.692   3.394   7.090 -0.6262 -0.4893  0.1123
  340MOL0     C46801   4.692   3.506   7.011  0.7488  0.3342  0.0277
  340MOL0     C46802   4.743   3.509   6.875  0.5925 -0.5038 -0.1151
  340MOL0     C46803   4.686   3.400   6.794  0.7366 -0.3809  0.3152
  340MOL0     C46804   4.755   3.382   6.658  0.5883  0.3105  0.4643
  340MOL0     C46805   4.684   3.282   6.560 -0.0977 -0.7584 -0.0463
  340MOL0     O46806   4.545   3.305   6.550  0.1595  0.1335  0.1116
  340MOL0     C46807   4.461   3.207   6.493  0.2007  0.4480 -0.6892
  340MOL0     C46808   4.503   3.106   6.407  0.3804  0.6482 -1.7014
  340MOL0     C46809   4.415   3.011   6.353  0.2401  0.1842 -0.0155
  340MOL0     C46810   4.481   2.923   6.255 -0.1329  0.4399 -0.0335
  340MOL0     C46811   4.281   3.002   6.397 -0.4494 -0.6221  0.8261
  340MOL0     C46812   4.196   2.895   6.343  0.6006  0.0627  0.2680
  340MOL0     O46813   4.256   2.773   6.310 -0.3804 -0.1288  0.4559
  340MOL0     C46814   4.203   2.680   6.225  1.4324 -0.4336  1.0933
  340MOL0     C46815   4.275   2.563   6.214 -0.8212 -0.7466  0.9789
  340MOL0     C46816   4.234   2.456   6.124 -0.6906 -0.4673 -0.3473
  340MOL0     C46817   4.115   2.469   6.052 -0.2125  0.8632  0.4918
  340MOL0     O46818   4.071   2.374   5.965 -0.5319 -0.5496  0.3703
  340MOL0     C46819   4.146   2.258   5.933 -0.2003  0.5780 -0.3341
  340MOL0     C46820   4.082   2.188   5.806 -0.3344 -0.4906  0.3949
  340MOL0     C46821   4.140   2.259   5.687 -0.2548 -0.6782  0.6825
  340MOL0     C46822   4.117   2.173   5.561  0.9196  0.0882 -0.7900
  340MOL0     C46823   4.172   2.233   5.430 -0.6758 -0.3534  0.1536
  340MOL0     C46824   4.327   2.274   5.427  0.3555 -0.7463 -0.5418
  340MOL0     C46825   4.427   2.159   5.459 -0.2971  0.8391  0.6408
  340MOL0     C46826   4.560   2.218   5.472  0.9305  0.0582 -0.2811
  340MOL0    Cl46827   4.601   2.253   5.637 -0.4646  0.2385  0.1333
  340MOL0     C46828   4.043   2.583   6.066 -0.5452 -0.9988  0.2039
  340MOL0     C46829   4.083   2.688   6.152 -0.4987  0.0433 -0.6328
  340MOL0     O46830   4.079   2.919   6.343  0.6890  0.1109  0.6286
  340MOL0     C46831   4.235   3.105   6.479  0.0209  1.1497  0.4222
  340MOL0     C46832   4.326   3.208   6.529  0.7776 -1.6418  0.0281
  340MOL0     N46833   4.686   3.613   7.092 -0.2847  0.3731 -0.4315
  340MOL0     N46834   4.677   3.577   7.218  0.0369  0.2657  0.3614
  340MOL0     C46835   4.033   2.729   7.813  0.2768  0.2104  0.0172
  340MOL0     C46836   3.934   2.635   7.839  0.0028  0.3950  0.3694
  340MOL0     C46837   3.672   2.382   8.118  0.8110  0.1325 -0.2197
  340MOL0     C46838   3.600   2.363   8.229  0.1376  0.1708 -0.6763
  340MOL0     C46839   3.511   2.252   8.250  0.4375 -0.7908  0.5795
  340MOL0     C46840   3.518   2.148   8.162 -0.0865 -0.6079  0.3286
  340MOL0     O46841   3.449   2.036   8.159 -0.2912  1.1640 -0.1809
  340MOL0     C46842   3.345   2.028   8.253  0.9542 -0.5644  0.1816
  340MOL0     C46843   3.286   1.893   8.248  0.2153  0.5420  0.3601
  340MOL0     C46844   3.270   1.824   8.119  0.6574 -0.2052 -0.3372
  340MOL0     C46845   3.199   1.689   8.132  0.5940 -0.1814  0.2946
  340MOL0     C46846   3.055   1.714   8.156 -0.0932 -0.0265 -0.2926
  340MOL0     C46847   2.938   1.739   8.160 -0.2584 -1.1938  0.1335
  340MOL0     C46848   3.586   2.168   8.045  0.0274 -0.0085 -0.0499
  340MOL0     C46849   3.656   2.278   8.022 -0.2618  0.4641 -0.3393
  340MOL0     C46850   3.728   2.281   7.894  0.3738  0.1053 -0.6711
  340MOL0     H46851   3.831   2.767   8.132  1.5537 -0.0023 -0.0885
  340MOL0     H46852   3.985   2.940   8.073  0.5655 -1.0531  1.9022
  340MOL0     H46853   4.287   2.944   8.017  0.4499 -0.3002 -1.1920
  340MOL0     H46854   4.167   3.072   7.987  0.3678  0.5650 -0.5100
  340MOL0     H46855   4.272   3.112   7.772  0.8395  0.9269  1.0985
  340MOL0     H46856   4.367   3.175   7.903 -0.3372  2.3700 -2.6540
  340MOL0     H46857   4.486   2.933   7.851 -0.8429  0.5597  0.0945
  340MOL0     H46858   4.391   2.957   7.702  0.3146 -1.9743 -0.0790
  340MOL0     H46859   4.575   3.171   7.790 -0.3630  1.2349 -1.1945
  340MOL0     H46860   4.651   3.011   7.732 -4.0044 -4.5755 -1.9962
  340MOL0     H46861   4.441   3.160   7.574 -0.4795  1.5342 -3.0799
  340MOL0     H46862   4.558   3.036   7.519  0.7002 -0.6643  0.8057
  340MOL0     H46863   4.671   3.304   7.597  1.8697 -0.1648 -1.6114
  340MOL0     H46864   4.746   3.179   7.497 -1.6327 -0.9934 -3.7407
  340MOL0     H46865   4.538   3.386   7.457  1.0586  1.9539 -3.0122
  340MOL0     H46866   4.532   3.252   7.344 -1.0209 -0.8762  1.6839
  340MOL0     H46867   4.785   3.406   7.398 -2.4188 -1.6031  2.9777
  340MOL0     H46868   4.771   3.279   7.273 -0.9755 -1.4644 -0.5215
  340MOL0     H46869   4.703   3.291   7.058 -2.7955 -1.0142  0.8586
  340MOL0     H46870   4.851   3.493   6.878  0.3730 -2.0784  0.1430
  340MOL0     H46871   4.728   3.610   6.834 -0.2998  0.3341  2.1374
  340MOL0     H46872   4.689   3.312   6.860 -4.3886 -1.5139 -0.5199
  340MOL0     H46873   4.579   3.414   6.776  0.4529 -3.4791 -1.1118
  340MOL0     H46874   4.759   3.481   6.612 -1.9044  0.6352  0.8426
  340MOL0     H46875   4.861   3.360   6.676  0.3648 -3.0011 -1.4975
  340MOL0     H46876   4.736   3.293   6.465 -0.5399  4.8859  0.0375
  340MOL0     H46877   4.697   3.180   6.598 -0.2641 -2.2277 -3.5876
  340MOL0     H46878   4.610   3.094   6.397  0.7160  1.3054  0.5606
  340MOL0     H46879   4.409   2.895   6.177 -0.4456 -1.5318  0.8964
  340MOL0     H46880   4.517   2.831   6.301  0.3390  0.4649 -0.3511
  340MOL0     H46881   4.566   2.969   6.205 -0.7995  0.0888 -1.5336
  340MOL0     H46882   4.374   2.563   6.260 -1.1298 -1.9218  1.6934
  340MOL0     H46883   4.295   2.367   6.117  1.4636  1.0790 -2.9072
  340MOL0     H46884   4.250   2.285   5.913  0.2545 -0.8168  0.0167
  340MOL0     H46885   4.139   2.180   6.009  0.7518  0.8094  0.0009
  340MOL0     H46886   4.103   2.080   5.805  0.1999 -0.3898 -0.4418
  340MOL0     H46887   3.973   2.198   5.807 -0.3897 -0.3652 -1.5397
  340MOL0     H46888   4.249   2.267   5.694 -0.3013  2.6644 -0.4879
  340MOL0     H46889   4.097   2.360   5.686 -1.3036 -1.1158 -0.3924
  340MOL0     H46890   4.012   2.148   5.542  1.1808 -0.6869 -1.2618
  340MOL0     H46891   4.165   2.077   5.582  2.0531  0.4969 -1.4268
  340MOL0     H46892   4.160   2.158   5.351 -0.7339 -2.4183  2.0272
  340MOL0     H46893   4.117   2.320   5.392  2.8138  3.2671  2.5834
  340MOL0     H46894   4.323   2.342   5.513 -1.8062 -0.9232 -0.4406
  340MOL0     H46895   4.347   2.336   5.340  0.3886 -0.0938 -0.0801
  340MOL0     H46896   4.419   2.095   5.371  1.7870  1.0162  0.2717
  340MOL0     H46897   4.404   2.097   5.546  0.9723  0.4888  0.7526
  340MOL0     H46898   4.565   2.313   5.418 -1.9624 -0.2707 -1.3128
  340MOL0     H46899   4.639   2.153   5.434  1.0980 -1.2634  2.1768
  340MOL0     H46900   3.955   2.603   6.006 -2.3838 -2.7231  2.1592
  340MOL0     H46901   4.015   2.773   6.153 -0.8710 -0.2079  1.6843
  340MOL0     H46902   4.132   3.107   6.513 -0.3008  2.3635 -0.5433
  340MOL0     H46903   4.281   3.284   6.592  1.9521 -0.6401 -0.3077
  340MOL0     H46904   4.098   2.727   7.726 -0.4180 -2.4062 -0.5324
  340MOL0     H46905   3.933   2.549   7.773  0.7131  0.0438  0.8028
  340MOL0     H46906   3.608   2.430   8.315  1.8193  0.8419 -1.3214
  340MOL0     H46907   3.472   2.234   8.350 -0.9453 -0.8956  0.0458
  340MOL0     H46908   3.366   2.047   8.359 -1.8259  4.9682  0.1375
  340MOL0     H46909   3.266   2.098   8.225  1.5248 -1.6595 -5.2740
  340MOL0     H46910   3.191   1.902   8.302  1.1888 -0.9320  2.4255
  340MOL0     H46911   3.345   1.824   8.308 -2.6022  0.2119  2.9808
  340MOL0     H46912   3.212   1.884   8.048 -0.1796  0.0021  0.5000
  340MOL0     H46913   3.372   1.800   8.086  1.8887  2.9031  0.7773
  340MOL0     H46914   3.241   1.627   8.211 -1.1881 -2.0617 -0.1242
  340MOL0     H46915   3.203   1.635   8.037 -2.2232  1.0020 -0.5981
  340MOL0     H46916   2.833   1.758   8.153 -0.1674 -0.8445 -0.3940
  340MOL0     H46917   3.580   2.084   7.977  0.1304 -1.1088  1.2543
  340MOL0     H46918   3.800   2.361   7.878  0.7631  0.7454  3.2607
  340MOL0     H46919   3.786   2.188   7.892 -3.6899 -2.8576  2.2525
  340MOL0     H46920   3.655   2.290   7.813  0.7525 -0.9128 -1.1470
  341MOL0     O46921   3.909   5.101  10.786 -0.3886  0.5576 -0.3126
  341MOL0     C46922   4.014   5.109  10.718 -0.3717 -0.7140  0.5415
  341MOL0     O46923   4.137   5.167  10.764  0.3223  0.3161 -0.0069
  341MOL0     C46924   4.131   5.216  10.898 -0.9794  1.3471 -0.0177
  341MOL0     C46925   4.125   5.129  11.005 -0.5611  0.2072  0.3133
  341MOL0     C46926   4.119   5.181  11.134 -1.2151 -0.7054 -0.8731
  341MOL0     C46927   4.109   5.317  11.165 -0.3973  0.5177  0.2662
  341MOL0     O46928   4.081   5.350  11.288  0.2488  0.5117 -0.0252
  341MOL0     C46929   3.995   5.452  11.311 -0.8352 -0.4383 -0.2152
  341MOL0     C46930   3.926   5.442  11.450 -1.0122  0.1775  0.2606
  341MOL0     C46931   3.892   5.586  11.500  0.7155  0.6829 -0.0110
  341MOL0     C46932   3.993   5.638  11.603 -0.0779 -0.1965 -0.7302
  341MOL0     C46933   3.958   5.790  11.649  0.0027 -0.1863 -0.0758
  341MOL0     C46934   3.840   5.804  11.732  0.0105  0.0571  0.7051
  341MOL0     C46935   3.781   5.946  11.743 -0.6765  1.1776  0.5929
  341MOL0     C46936   3.866   6.042  11.831  0.3298  0.4344 -0.2346
  341MOL0     N46937   4.001   6.059  11.771  0.2245  0.6283  0.5392
  341MOL0     C46938   4.029   6.103  11.637  0.1804 -0.3687 -0.4085
  341MOL0     C46939   4.162   6.099  11.629 -0.0380  0.2856  0.6787
  341MOL0     C46940   4.238   6.129  11.498 -0.0712  0.0632 -0.9804
  341MOL0     C46941   4.341   6.020  11.474  0.4391  0.3115 -0.5764
  341MOL0     C46942   4.293   5.885  11.440  0.7069  0.4344  0.1808
  341MOL0     C46943   4.200   5.877  11.318  0.4296  0.1178  0.1139
  341MOL0     O46944   4.205   5.749  11.266  0.2558 -0.3340 -0.0233
  341MOL0     C46945   4.283   5.740  11.150  0.3870  0.2927  0.2593
  341MOL0     C46946   4.254   5.809  11.027 -0.3199  1.4711 -1.2981
  341MOL0     C46947   4.318   5.786  10.902 -0.8577 -0.0006 -0.4623
  341MOL0     C46948   4.291   5.879  10.788 -0.1207  0.5247 -0.6484
  341MOL0     C46949   4.399   5.671  10.891  0.3487  0.1052  0.4637
  341MOL0     C46950   4.443   5.608  10.764 -0.2289  0.0242 -0.1969
  341MOL0     O46951   4.475   5.477  10.774  0.7724  0.4979 -0.3038
  341MOL0     C46952   4.488   5.416  10.654 -1.1173 -0.5051  1.0337
  341MOL0     C46953   4.572   5.445  10.545  0.3356  0.1427  0.2177
  341MOL0     C46954   4.571   5.366  10.432  0.5734  0.2884  0.6064
  341MOL0     C46955   4.493   5.246  10.423  0.6664 -0.0262  0.1404
  341MOL0     O46956   4.506   5.151  10.324  0.2805 -0.4691  0.6017
  341MOL0     C46957   4.604   5.159  10.215  0.7169  0.3542  0.1665
  341MOL0     C46958   4.579   5.053  10.110 -1.1178  0.0601  0.9570
  341MOL0     C46959   4.698   5.057  10.007  0.2653 -0.3541 -0.2307
  341MOL0     C46960   4.658   5.009   9.869  0.5008  0.7673  0.0534
  341MOL0     C46961   4.762   5.022   9.753  0.1357  0.3556 -0.6346
  341MOL0     C46962   4.876   4.912   9.756  0.1870 -0.0521  0.4129
  341MOL0     C46963   4.947   4.907   9.622  1.3504  0.1756  0.3505
  341MOL0     C46964   5.008   5.048   9.566  0.9157  0.2889 -0.0268
  341MOL0    Cl46965   5.132   5.026   9.445 -0.1311  0.1437 -0.1632
  341MOL0     C46966   4.407   5.216  10.536 -0.0974 -0.5008  0.1129
  341MOL0     C46967   4.405   5.305  10.647  0.5886  0.1508 -0.0555
  341MOL0     O46968   4.441   5.676  10.660 -0.3391 -0.1698  0.1574
  341MOL0     C46969   4.432   5.607  11.016 -0.7262 -0.2251 -0.2439
  341MOL0     C46970   4.391   5.652  11.141  1.2431  0.0971 -0.0337
  341MOL0     N46971   4.213   6.070  11.754 -1.0053  0.0349 -0.0252
  341MOL0     N46972   4.113   6.040  11.838 -0.8989 -0.3202  0.4547
  341MOL0     C46973   4.120   5.405  11.054 -0.8457  0.5835 -0.1321
  341MOL0     C46974   4.129   5.352  10.920 -0.4162  0.5497 -0.5298
  341MOL0     C46975   4.012   5.084  10.572  0.2145 -0.0475  0.4595
  341MOL0     C46976   4.060   5.187  10.485  0.4470  0.0923  0.4306
  341MOL0     C46977   4.079   5.165  10.345 -0.3428  0.5095 -0.3639
  341MOL0     C46978   4.033   5.045  10.294  0.3514 -0.3042  0.7033
  341MOL0     O46979   4.021   5.009  10.159 -0.5631  0.5074 -0.2738
  341MOL0     C46980   4.062   5.113  10.070 -0.1701 -0.5167  0.2423
  341MOL0     C46981   4.057   5.049   9.934 -0.1270  0.4844  0.4163
  341MOL0     C46982   4.161   4.935   9.918  0.8885 -0.4636  0.7553
  341MOL0     C46983   4.170   4.901   9.766 -0.3517  0.0880 -0.0795
  341MOL0     C46984   4.051   4.844   9.703 -0.1128  0.5698 -0.7179
  341MOL0     C46985   3.947   4.791   9.659 -0.5528 -0.3331 -1.1275
  341MOL0     C46986   3.979   4.951  10.385  0.5180  0.7883  0.1146
  341MOL0     C46987   3.967   4.967  10.520 -0.1398  0.2987 -1.3879
  341MOL0     C46988   3.910   4.858  10.610 -0.2178  0.9477 -0.4377
  341MOL0     H46989   4.121   5.023  10.984 -1.1836  0.1453  0.7175
  341MOL0     H46990   4.101   5.112  11.216  2.2277 -0.3858  0.3199
  341MOL0     H46991   3.916   5.447  11.235  0.7027  0.2668 -1.9259
  341MOL0     H46992   4.043   5.550  11.303 -1.2102  0.2151  3.6559
  341MOL0     H46993   3.836   5.380  11.442 -1.4024  0.8997 -1.6375
  341MOL0     H46994   3.998   5.391  11.514 -2.8092 -1.4879  1.0371
  341MOL0     H46995   3.889   5.663  11.422 -0.8093  0.4822 -0.1803
  341MOL0     H46996   3.791   5.570  11.538  1.0537 -1.4008  0.1513
  341MOL0     H46997   3.996   5.570  11.688  1.5364 -0.1882 -0.7456
  341MOL0     H46998   4.093   5.639  11.558  0.3765  1.2865  0.2266
  341MOL0     H46999   3.958   5.836  11.550  0.4877 -1.9949 -0.9720
  341MOL0     H47000   4.040   5.832  11.708 -2.6093  3.4028  1.3521
  341MOL0     H47001   3.763   5.743  11.683 -0.7954  3.0890 -2.1344
  341MOL0     H47002   3.862   5.768  11.833 -2.4066 -2.9466  0.3160
  341MOL0     H47003   3.689   5.924  11.798  0.2060 -0.4910  1.4814
  341MOL0     H47004   3.762   5.987  11.643 -0.5632 -0.3017 -0.0600
  341MOL0     H47005   3.824   6.143  11.832  2.9642  1.6107 -0.9322
  341MOL0     H47006   3.869   6.000  11.932 -1.6015 -1.4463 -0.8701
  341MOL0     H47007   3.959   6.126  11.557  0.3729 -0.4053 -0.5882
  341MOL0     H47008   4.282   6.229  11.498 -1.6257  0.7955 -2.0626
  341MOL0     H47009   4.159   6.116  11.423 -1.0678 -1.0832  0.2210
  341MOL0     H47010   4.411   6.057  11.398  0.4853  0.7469 -0.3258
  341MOL0     H47011   4.401   5.995  11.563 -2.9571 -0.4594  1.6967
  341MOL0     H47012   4.375   5.814  11.428 -0.4823 -1.3880  2.1068
  341MOL0     H47013   4.244   5.843  11.529  2.3629 -1.3946  0.3150
  341MOL0     H47014   4.096   5.891  11.350  0.6683  0.1125  0.9147
  341MOL0     H47015   4.233   5.957  11.251  1.6094 -1.6480 -1.4827
  341MOL0     H47016   4.172   5.877  11.049  0.2452  1.2881  1.7645
  341MOL0     H47017   4.383   5.919  10.744  0.5506  1.6202  1.5933
  341MOL0     H47018   4.227   5.965  10.814 -2.1532 -0.5076 -1.9771
  341MOL0     H47019   4.239   5.826  10.708 -3.2031  0.0293  1.5023
  341MOL0     H47020   4.632   5.535  10.558  2.0807 -0.9956  0.3914
  341MOL0     H47021   4.646   5.389  10.357  1.0356 -0.3403  0.8672
  341MOL0     H47022   4.611   5.261  10.177  2.1220  1.7649  3.7479
  341MOL0     H47023   4.706   5.143  10.250  0.7051 -0.7946 -0.2720
  341MOL0     H47024   4.563   4.952  10.148  0.4098 -0.7449 -0.4221
  341MOL0     H47025   4.483   5.088  10.069 -0.0279  1.8644 -0.2044
  341MOL0     H47026   4.777   4.992  10.046  1.2691  0.3426 -1.0417
  341MOL0     H47027   4.750   5.153  10.008  2.1687 -1.3223 -0.8439
  341MOL0     H47028   4.560   5.052   9.849 -1.2246 -1.8728  2.1186
  341MOL0     H47029   4.641   4.901   9.880  1.3007  0.8815  4.1477
  341MOL0     H47030   4.712   5.003   9.658  2.2812 -3.4843 -1.1703
  341MOL0     H47031   4.805   5.123   9.755  0.2262  0.4098 -2.7610
  341MOL0     H47032   4.817   4.827   9.791 -0.4236  0.6725  1.1768
  341MOL0     H47033   4.948   4.921   9.837  2.7249 -2.7044 -1.3111
  341MOL0     H47034   4.883   4.881   9.537  0.9833  3.6671 -0.6118
  341MOL0     H47035   5.026   4.832   9.632 -0.6539 -2.3172 -1.2447
  341MOL0     H47036   5.051   5.104   9.649 -1.3882  0.5915  1.0382
  341MOL0     H47037   4.925   5.106   9.522 -0.0207 -0.7757  0.2820
  341MOL0     H47038   4.353   5.122  10.537  1.2471 -1.3106 -0.4798
  341MOL0     H47039   4.349   5.268  10.732 -0.5895 -0.3546 -1.0229
  341MOL0     H47040   4.492   5.517  11.016 -2.5559 -1.5214  1.2265
  341MOL0     H47041   4.409   5.600  11.235  1.2765  0.4635  0.1660
  341MOL0     H47042   4.134   5.511  11.073 -2.2567  1.1304 -1.8406
  341MOL0     H47043   4.169   5.424  10.849 -1.6097  1.8622  0.1114
  341MOL0     H47044   4.105   5.276  10.527  1.6623 -0.5305  0.5128
  341MOL0     H47045   4.115   5.253  10.293 -0.5771  3.1606  3.5762
  341MOL0     H47046   3.983   5.189  10.076  0.2073 -0.1029  0.0068
  341MOL0     H47047   4.159   5.156  10.094 -0.2885 -1.4303  2.6997
  341MOL0     H47048   4.083   5.117   9.852 -0.3337 -0.8931 -0.8450
  341MOL0     H47049   3.961   5.006   9.905  0.7223 -2.0922  1.1427
  341MOL0     H47050   4.253   4.988   9.944 -1.0736  4.2690 -0.7838
  341MOL0     H47051   4.142   4.840   9.969  0.1744 -0.5540  0.3288
  341MOL0     H47052   4.247   4.824   9.753  1.6461  2.2180 -1.4844
  341MOL0     H47053   4.205   4.987   9.708  1.2062 -1.3251 -1.3486
  341MOL0     H47054   3.857   4.752   9.613 -1.5773 -2.7784  2.5052
  341MOL0     H47055   3.943   4.862  10.333 -1.5306  0.5852  1.7638
  341MOL0     H47056   3.938   4.765  10.559 -1.8735  1.0259 -1.5312
  341MOL0     H47057   3.939   4.859  10.716  2.1826  1.6109 -1.0420
  341MOL0     H47058   3.803   4.880  10.607  0.2040  3.0242 -1.6299
  342MOL0     O47059  10.191   9.674  10.644 -0.7949 -0.4593 -0.1982
  342MOL0     C47060  10.154   9.747  10.549  1.4460  0.3648 -0.4355
  342MOL0     O47061  10.025   9.765  10.518 -0.1098 -0.0903  0.3952
  342MOL0     C47062   9.913   9.729  10.593  0.4827  0.0130  0.2765
  342MOL0     C47063   9.884   9.590  10.610  0.9497 -0.3566  0.9105
  342MOL0     C47064   9.767   9.550  10.680  0.2541  0.5672 -0.4979
  342MOL0     C47065   9.684   9.645  10.728  0.6362  1.1073 -0.1083
  342MOL0     O47066   9.574   9.611  10.800 -0.7539  0.6738 -0.5362
  342MOL0     C47067   9.486   9.540  10.718  0.7736  0.5084  0.1801
  342MOL0     C47068   9.345   9.573  10.762 -0.9655 -0.7861  0.3788
  342MOL0     C47069   9.323   9.556  10.915 -0.4628  1.0118  0.1217
  342MOL0     C47070   9.403   9.432  10.968  0.6007  0.0133 -0.8316
  342MOL0     C47071   9.359   9.390  11.112  0.5207  0.7655  0.5147
  342MOL0     C47072   9.417   9.473  11.222 -0.1168 -0.3694 -0.4238
  342MOL0     C47073   9.379   9.409  11.354  0.1637 -0.6459  0.5144
  342MOL0     C47074   9.447   9.487  11.477  0.1711 -0.3486 -0.1191
  342MOL0     N47075   9.435   9.418  11.604  0.0172  0.2240 -0.3376
  342MOL0     C47076   9.522   9.422  11.715 -0.4573  0.3118  0.0007
  342MOL0     C47077   9.462   9.369  11.824 -0.4090  0.0616 -0.7785
  342MOL0     C47078   9.497   9.379  11.965  0.3453 -0.1934 -0.4680
  342MOL0     C47079   9.472   9.510  12.036  0.1443 -0.1899  0.1344
  342MOL0     C47080   9.332   9.530  12.090  0.2025 -0.4438  0.1396
  342MOL0     C47081   9.308   9.661  12.149 -0.1671 -1.7939  0.3665
  342MOL0     O47082   9.177   9.662  12.206 -1.3496  0.1113  0.1906
  342MOL0     C47083   9.157   9.669  12.344 -0.7705  0.0779 -0.0544
  342MOL0     C47084   9.255   9.628  12.437  0.4334 -0.2094  0.0292
  342MOL0     C47085   9.251   9.640  12.575  1.3430 -0.2896 -0.5043
  342MOL0     C47086   9.377   9.585  12.644 -0.6771 -0.1644 -0.2350
  342MOL0     C47087   9.129   9.680  12.638  0.1855  0.8690  0.2505
  342MOL0     C47088   9.099   9.688  12.774  0.4881  0.5948 -0.3821
  342MOL0     O47089   8.975   9.737  12.810  0.0296  0.7579 -0.3902
  342MOL0     C47090   8.957   9.763  12.945 -0.3487  0.2316 -0.5228
  342MOL0     C47091   8.896   9.888  12.987  0.1077  0.1986 -0.0100
  342MOL0     C47092   8.864   9.928  13.120  0.1740  0.0333  0.2158
  342MOL0     C47093   8.898   9.845  13.228  0.0542 -0.4109 -0.9983
  342MOL0     O47094   8.859   9.876  13.364 -0.6008 -0.0125 -0.9672
  342MOL0     C47095   8.909   9.802  13.479  0.3442  0.3579  0.3988
  342MOL0     C47096   8.909   9.884  13.607  0.5414 -0.0683  0.0551
  342MOL0     C47097   9.016   9.988  13.611 -0.0473 -0.2575  0.8153
  342MOL0     C47098   9.019  10.052  13.753  0.3217 -0.3403  0.4066
  342MOL0     C47099   9.121  10.168  13.757 -0.2966  0.5105 -0.4099
  342MOL0     C47100   9.160  10.213  13.896  0.3129 -0.6315  0.1852
  342MOL0     C47101   9.247  10.102  13.966  0.3136 -0.4056  1.3891
  342MOL0     C47102   9.304  10.136  14.103  0.1172 -0.3524 -0.2439
  342MOL0    Cl47103   9.432  10.022  14.146  0.0702  0.0880 -0.3840
  342MOL0     C47104   8.967   9.730  13.190  0.5937  0.4088  0.3596
  342MOL0     C47105   8.998   9.688  13.056  0.3641  0.1287 -0.2384
  342MOL0     O47106   9.187   9.658  12.860 -0.7149 -1.2438 -0.3719
  342MOL0     C47107   9.027   9.722  12.540  0.9992 -0.4985  0.2236
  342MOL0     C47108   9.043   9.710  12.401  0.7275 -0.3644 -0.8638
  342MOL0     N47109   9.341   9.329  11.778 -0.7331 -0.0504 -0.5248
  342MOL0     N47110   9.323   9.355  11.661 -1.1126 -0.4171 -0.1914
  342MOL0     C47111   9.705   9.779  10.705  0.5988  0.0624 -0.0857
  342MOL0     C47112   9.820   9.823  10.649 -1.3641  0.2696 -0.8324
  342MOL0     C47113  10.252   9.810  10.456  0.9268  0.4011 -0.3415
  342MOL0     C47114  10.201   9.881  10.341  0.2282  1.0515  0.5039
  342MOL0     C47115  10.289   9.942  10.248  0.2051  0.6831 -0.0336
  342MOL0     C47116  10.420   9.908  10.257 -0.6871  0.6162 -0.0685
  342MOL0     O47117  10.497   9.938  10.155  0.7230 -0.0725  0.4469
  342MOL0     C47118  10.518   9.832  10.060  0.0788  1.9975 -0.3857
  342MOL0     C47119  10.658   9.766  10.061  1.1655 -0.5820 -0.9083
  342MOL0     C47120  10.774   9.854  10.008  0.2031 -0.0620 -1.0036
  342MOL0     C47121  10.751   9.866   9.851 -0.0394  0.3028 -0.7629
  342MOL0     C47122  10.850   9.966   9.805 -0.0973  0.3090  0.2618
  342MOL0     C47123  10.935  10.050   9.779 -0.5501 -0.4093 -0.1411
  342MOL0     C47124  10.475   9.857  10.366 -0.0279 -1.0234  0.3158
  342MOL0     C47125  10.394   9.814  10.470 -0.1963  0.6600  1.3211
  342MOL0     C47126  10.468   9.753  10.582  0.0066 -0.6187  0.2942
  342MOL0     H47127   9.939   9.507  10.567  0.0401  0.4957 -2.1332
  342MOL0     H47128   9.746   9.444  10.691  0.6415  0.3178 -2.0323
  342MOL0     H47129   9.507   9.433  10.716 -1.2310  0.0659 -1.8339
  342MOL0     H47130   9.499   9.563  10.612  0.8921 -0.3508 -0.0019
  342MOL0     H47131   9.329   9.676  10.731  2.1096  0.0046  1.0684
  342MOL0     H47132   9.273   9.506  10.715 -3.3485 -0.1437  2.8956
  342MOL0     H47133   9.365   9.644  10.966  1.2738 -0.5014  1.4222
  342MOL0     H47134   9.214   9.548  10.926 -0.6891  0.0975 -2.2954
  342MOL0     H47135   9.388   9.345  10.903  0.3491  0.4015 -1.2979
  342MOL0     H47136   9.510   9.451  10.979  0.4324  0.0984  1.1961
  342MOL0     H47137   9.388   9.284  11.117 -2.0563 -0.0181  0.2866
  342MOL0     H47138   9.250   9.392  11.106  0.5013 -0.7341 -0.3790
  342MOL0     H47139   9.525   9.475  11.210 -0.2683 -0.3276 -2.1896
  342MOL0     H47140   9.370   9.572  11.210  1.6008  0.3143 -1.9791
  342MOL0     H47141   9.429   9.312  11.358  1.7188 -0.0062 -1.4144
  342MOL0     H47142   9.271   9.405  11.364  0.0464  1.2422  0.4131
  342MOL0     H47143   9.552   9.514  11.462  0.6119 -0.1584  2.7752
  342MOL0     H47144   9.392   9.580  11.493 -0.6636 -1.1309  1.9862
  342MOL0     H47145   9.617   9.474  11.723  0.8011 -2.0636  1.7511
  342MOL0     H47146   9.599   9.343  11.982 -0.8195 -3.5196  0.3401
  342MOL0     H47147   9.442   9.305  12.025  1.7276 -0.4827  0.5086
  342MOL0     H47148   9.540   9.522  12.121  0.7977 -2.9511  0.1102
  342MOL0     H47149   9.497   9.588  11.963  0.6106 -0.4043  0.0591
  342MOL0     H47150   9.256   9.515  12.013 -1.4979  0.5395  1.5501
  342MOL0     H47151   9.319   9.467  12.179  1.9639 -2.4042 -0.9120
  342MOL0     H47152   9.384   9.676  12.226  1.6550 -1.6224 -1.3822
  342MOL0     H47153   9.312   9.741  12.074 -1.9768 -0.4483  1.5968
  342MOL0     H47154   9.349   9.589  12.401 -0.4137 -0.6337 -1.8557
  342MOL0     H47155   9.465   9.588  12.579 -1.9958  0.4566 -2.1002
  342MOL0     H47156   9.351   9.484  12.677  1.2925 -0.5851  0.1323
  342MOL0     H47157   9.409   9.648  12.727  0.7543 -0.9223 -0.1771
  342MOL0     H47158   8.875   9.956  12.905  3.2525  1.8667  0.4385
  342MOL0     H47159   8.796  10.012  13.131 -1.9399 -1.7599  2.0800
  342MOL0     H47160   8.836   9.723  13.500 -2.7739  3.0446  0.5092
  342MOL0     H47161   9.011   9.763  13.466 -0.9292 -2.9310 -0.9987
  342MOL0     H47162   8.813   9.933  13.619 -0.1693 -0.6480 -2.5431
  342MOL0     H47163   8.913   9.819  13.695 -1.8017  2.6637  2.3511
  342MOL0     H47164   8.987  10.066  13.540 -0.8400 -0.4829  0.8722
  342MOL0     H47165   9.115   9.951  13.587  0.0432  0.2043  0.4676
  342MOL0     H47166   9.040   9.972  13.824 -3.5735 -0.2200  1.9627
  342MOL0     H47167   8.916  10.086  13.771  0.6640  1.1549 -0.2847
  342MOL0     H47168   9.214  10.132  13.712  0.6619  1.4175  0.7709
  342MOL0     H47169   9.087  10.247  13.689  3.6074 -0.6878 -4.1553
  342MOL0     H47170   9.066  10.234  13.948  0.4987  0.4260  0.1197
  342MOL0     H47171   9.224  10.300  13.879  2.7528 -1.4764  3.8503
  342MOL0     H47172   9.335  10.097  13.901 -1.0169  2.0829 -0.8026
  342MOL0     H47173   9.192  10.008  13.970 -2.8830  1.0185 -2.5053
  342MOL0     H47174   9.222  10.124  14.174  3.3878 -1.5739  3.7103
  342MOL0     H47175   9.359  10.231  14.107  1.6491 -1.1774 -0.8239
  342MOL0     H47176   8.981   9.659  13.271  2.6751  0.4189  0.0567
  342MOL0     H47177   9.043   9.591  13.038  0.3321 -0.9741  4.3381
  342MOL0     H47178   8.927   9.743  12.575 -0.4543  2.7335 -4.8593
  342MOL0     H47179   8.970   9.743  12.328  0.1540 -0.2379 -0.2426
  342MOL0     H47180   9.643   9.856  10.749  0.4873 -0.9533  1.6516
  342MOL0     H47181   9.845   9.928  10.665  0.4103 -0.5666  3.4056
  342MOL0     H47182  10.097   9.910  10.331  0.6287  2.3701  0.0273
  342MOL0     H47183  10.255   9.996  10.160 -0.1773  2.1196  0.9591
  342MOL0     H47184  10.447   9.753  10.089 -0.0846  1.4883 -2.0441
  342MOL0     H47185  10.486   9.864   9.960  2.8243 -1.4661 -2.6115
  342MOL0     H47186  10.649   9.666  10.017  2.7192 -0.4657 -1.5423
  342MOL0     H47187  10.683   9.742  10.165 -2.4780  0.9990  0.4880
  342MOL0     H47188  10.778   9.946  10.067 -3.6548 -1.3221  1.5746
  342MOL0     H47189  10.867   9.797  10.017  0.8634  1.0090 -0.8689
  342MOL0     H47190  10.649   9.897   9.829 -1.2756 -2.2199  0.9364
  342MOL0     H47191  10.767   9.771   9.799 -0.1614 -0.5576  0.7331
  342MOL0     H47192  11.006  10.130   9.770  2.4037 -2.6321  1.6290
  342MOL0     H47193  10.583   9.867  10.370 -0.2253  2.5518 -0.2793
  342MOL0     H47194  10.441   9.798  10.678  0.7900  1.3691 -0.3672
  342MOL0     H47195  10.460   9.644  10.581 -1.4770 -0.5345 -0.2675
  342MOL0     H47196  10.576   9.762  10.572  0.2407 -1.7229  1.5152
  343MOL0     O47197   2.494   2.168   0.215  0.5506  0.2770 -0.1054
  343MOL0     C47198   2.393   2.102   0.181  0.4815 -0.6617 -0.1163
  343MOL0     O47199   2.356   1.984   0.237  0.0629 -0.0815 -0.1784
  343MOL0     C47200   2.368   1.967   0.374  0.7784  0.7872  0.2332
  343MOL0     C47201   2.362   1.834   0.420  0.5399  0.2107 -0.4810
  343MOL0     C47202   2.352   1.811   0.558  0.1670 -0.3955 -0.1451
  343MOL0     C47203   2.349   1.923   0.653 -0.9094  0.6075  0.8267
  343MOL0     O47204   2.322   1.899   0.787  0.6405 -0.0246 -0.7790
  343MOL0     C47205   2.423   1.875   0.883  0.3799 -1.1804  0.7174
  343MOL0     C47206   2.453   1.728   0.915  0.6617 -0.8031  0.2822
  343MOL0     C47207   2.322   1.671   0.977  0.3855 -0.3763 -0.3779
  343MOL0     C47208   2.268   1.726   1.117  0.9865  0.6023 -0.3836
  343MOL0     C47209   2.379   1.740   1.216 -0.1811 -0.5748 -0.8287
  343MOL0     C47210   2.318   1.808   1.345 -0.3390  0.3478 -0.8745
  343MOL0     C47211   2.399   1.800   1.471 -0.6442  0.4573 -0.4949
  343MOL0     C47212   2.542   1.850   1.454 -0.1848 -0.4834 -0.1465
  343MOL0     N47213   2.602   1.886   1.590  0.2107 -0.0243 -0.5576
  343MOL0     C47214   2.613   1.808   1.705  0.1901 -0.3520  0.5151
  343MOL0     C47215   2.673   1.887   1.795 -0.5167 -0.3672  0.4816
  343MOL0     C47216   2.705   1.841   1.933  0.1191 -0.1658  0.3347
  343MOL0     C47217   2.857   1.846   1.960  0.6356  0.5325 -1.2009
  343MOL0     C47218   2.886   1.763   2.083  0.0281  0.0449  0.2475
  343MOL0     C47219   2.921   1.619   2.054 -0.2926 -0.5300 -0.3814
  343MOL0     O47220   3.040   1.592   1.975 -0.6189 -0.0741  0.3207
  343MOL0     C47221   3.165   1.609   2.031 -0.0031 -0.1138 -0.0683
  343MOL0     C47222   3.274   1.598   1.941 -0.4772  0.0178  0.2285
  343MOL0     C47223   3.400   1.633   1.984  0.5456 -0.3228  0.4836
  343MOL0     C47224   3.515   1.635   1.895 -0.1347  0.2463 -0.2746
  343MOL0     C47225   3.413   1.689   2.116  0.1566  0.0304  0.0129
  343MOL0     C47226   3.532   1.760   2.171 -0.0395  0.2262 -0.4603
  343MOL0     O47227   3.559   1.747   2.303  0.0132  0.4355 -0.0584
  343MOL0     C47228   3.671   1.799   2.359 -0.1219 -0.4579  0.0750
  343MOL0     C47229   3.789   1.723   2.366 -0.4284 -0.6128 -0.0927
  343MOL0     C47230   3.907   1.782   2.419 -0.1442  1.0638 -1.1313
  343MOL0     C47231   3.905   1.909   2.470 -0.6019 -0.8094 -0.2448
  343MOL0     O47232   4.010   1.982   2.521 -0.4093 -0.9517 -0.0019
  343MOL0     C47233   4.146   1.935   2.522  0.2582  0.8059  1.1783
  343MOL0     C47234   4.229   1.986   2.396 -0.0698 -0.3719 -0.3736
  343MOL0     C47235   4.289   2.133   2.409  0.3971 -0.2485 -0.5173
  343MOL0     C47236   4.325   2.184   2.275 -0.3428  0.0537  0.0503
  343MOL0     C47237   4.420   2.304   2.289  0.7306  0.7704  0.7116
  343MOL0     C47238   4.552   2.246   2.274  0.6548 -0.8224  0.5720
  343MOL0     C47239   4.663   2.337   2.338 -0.7569 -0.2584 -0.6201
  343MOL0     C47240   4.808   2.318   2.298 -0.4562 -0.3071 -0.1498
  343MOL0    Cl47241   4.923   2.415   2.404  0.2910 -0.5769 -0.6951
  343MOL0     C47242   3.786   1.979   2.467 -0.6677 -0.5963 -0.1560
  343MOL0     C47243   3.670   1.931   2.413 -0.3425  0.6122  0.0229
  343MOL0     O47244   3.590   1.830   2.094  0.5798 -0.0105 -0.5380
  343MOL0     C47245   3.311   1.675   2.207  0.1235  1.1658 -0.0048
  343MOL0     C47246   3.190   1.628   2.169  0.5070  0.0523 -0.1479
  343MOL0     N47247   2.684   2.016   1.739 -0.3619 -0.6172  0.4112
  343MOL0     N47248   2.656   2.009   1.610  0.2938 -0.0567 -0.7170
  343MOL0     C47249   2.376   2.055   0.603 -0.0193 -0.1806  0.4035
  343MOL0     C47250   2.385   2.073   0.463 -0.7155 -0.0943  0.4464
  343MOL0     C47251   2.316   2.124   0.050 -0.2224 -0.8441  0.3189
  343MOL0     C47252   2.204   2.045   0.026  0.3412  0.0720 -0.2483
  343MOL0     C47253   2.105   2.080  -0.067  0.5132  0.5538  0.0024
  343MOL0     C47254   2.115   2.189  -0.151 -0.3659 -0.3077  0.0548
  343MOL0     O47255   2.009   2.217  -0.238  0.1039 -0.4638  0.0840
  343MOL0     C47256   2.009   2.348  -0.314  0.9117  0.4538  0.2412
  343MOL0     C47257   1.999   2.470  -0.225 -0.0022  0.0289  0.9280
  343MOL0     C47258   1.878   2.556  -0.279 -0.5726 -0.9059  0.9971
  343MOL0     C47259   1.869   2.702  -0.235  0.0533  0.0100 -0.0901
  343MOL0     C47260   1.981   2.785  -0.286  0.4251 -0.2175  0.0763
  343MOL0     C47261   2.086   2.841  -0.321  0.2347  0.6814  0.6760
  343MOL0     C47262   2.229   2.267  -0.133 -0.4701 -0.1584  0.3072
  343MOL0     C47263   2.329   2.238  -0.034 -0.7175  0.5469  0.3442
  343MOL0     C47264   2.450   2.334  -0.030 -0.4929 -0.1254 -0.1301
  343MOL0     H47265   2.358   1.760   0.341 -1.2429 -0.4949  0.2358
  343MOL0     H47266   2.344   1.713   0.602 -0.9833  0.4925  1.7484
  343MOL0     H47267   2.409   1.930   0.977  4.6494  1.8015 -0.1202
  343MOL0     H47268   2.509   1.932   0.848  0.0450  0.8291  2.9006
  343MOL0     H47269   2.466   1.692   0.812  1.4674  3.3656 -1.2946
  343MOL0     H47270   2.542   1.705   0.975 -0.8201 -0.3099  2.7656
  343MOL0     H47271   2.244   1.680   0.901  0.5264 -0.1081 -0.4936
  343MOL0     H47272   2.332   1.563   0.986  2.3498 -0.2163 -0.2529
  343MOL0     H47273   2.211   1.819   1.104 -0.0866  0.2262  1.3010
  343MOL0     H47274   2.186   1.663   1.154 -1.6786  3.6777 -0.5928
  343MOL0     H47275   2.449   1.823   1.197 -1.1539  0.1858 -1.1733
  343MOL0     H47276   2.420   1.639   1.228 -0.4865 -0.8713 -2.1432
  343MOL0     H47277   2.280   1.906   1.315 -1.1537 -0.9560 -4.6605
  343MOL0     H47278   2.234   1.744   1.371 -0.2299  0.2264 -0.8236
  343MOL0     H47279   2.386   1.700   1.514  0.6511 -1.8383 -4.8494
  343MOL0     H47280   2.345   1.863   1.542 -1.5588 -0.4726 -0.3321
  343MOL0     H47281   2.594   1.776   1.393  0.6119 -2.2969  2.5328
  343MOL0     H47282   2.542   1.944   1.398 -2.3388  0.1392  0.7899
  343MOL0     H47283   2.583   1.704   1.716  2.4567 -0.9078  2.2512
  343MOL0     H47284   2.674   1.737   1.948  0.1404 -0.4483 -1.3785
  343MOL0     H47285   2.659   1.899   2.014  2.1895 -0.3514  1.7175
  343MOL0     H47286   2.919   1.799   1.884  1.4377 -0.7171  0.1665
  343MOL0     H47287   2.883   1.952   1.969  0.3017  1.0643 -4.8736
  343MOL0     H47288   2.968   1.787   2.152 -0.0266  1.1078 -0.0317
  343MOL0     H47289   2.796   1.754   2.145 -0.2203 -0.1317 -0.1387
  343MOL0     H47290   2.926   1.564   2.149 -0.4433  0.1692  0.0441
  343MOL0     H47291   2.841   1.563   2.004  0.1027 -1.7265  0.2714
  343MOL0     H47292   3.246   1.581   1.837  3.5492 -1.7641 -0.7380
  343MOL0     H47293   3.595   1.571   1.933  1.1005  0.7130 -1.9431
  343MOL0     H47294   3.550   1.734   1.866  2.0201 -0.5102 -0.4110
  343MOL0     H47295   3.474   1.587   1.805  2.7654 -1.6022 -0.7435
  343MOL0     H47296   3.788   1.619   2.335  0.8738 -0.6644 -0.0369
  343MOL0     H47297   4.005   1.737   2.426  0.0377  1.6428  1.0183
  343MOL0     H47298   4.199   1.968   2.612  3.7265 -0.6085 -0.1617
  343MOL0     H47299   4.157   1.826   2.521 -0.1255  0.6990 -2.4132
  343MOL0     H47300   4.313   1.916   2.386 -0.1686 -0.7738  1.3774
  343MOL0     H47301   4.164   1.979   2.308  0.6361  1.3343 -1.0822
  343MOL0     H47302   4.379   2.137   2.473  1.9803  1.6575 -2.6905
  343MOL0     H47303   4.218   2.205   2.450  1.1780  2.6044 -3.6773
  343MOL0     H47304   4.228   2.215   2.236  0.0480  1.6951  0.2924
  343MOL0     H47305   4.363   2.108   2.206 -2.2419  0.0758 -1.0613
  343MOL0     H47306   4.404   2.380   2.213  2.1521  1.2494  0.8613
  343MOL0     H47307   4.409   2.359   2.383 -1.5676 -0.2097  1.0710
  343MOL0     H47308   4.582   2.260   2.169  3.0499  0.5368  1.3336
  343MOL0     H47309   4.562   2.144   2.312 -1.8399 -2.1586 -1.9856
  343MOL0     H47310   4.676   2.313   2.444  1.4236  1.7120 -0.3681
  343MOL0     H47311   4.647   2.445   2.334 -0.5381  0.0207  2.9712
  343MOL0     H47312   4.820   2.356   2.196 -0.9792  0.3377  0.0219
  343MOL0     H47313   4.835   2.212   2.303  0.3708 -0.0763  0.3958
  343MOL0     H47314   3.780   2.083   2.497 -1.1204  0.6691 -4.1051
  343MOL0     H47315   3.586   1.999   2.407  1.6855  3.5132  1.9561
  343MOL0     H47316   3.326   1.699   2.311  3.9227 -1.6155  0.3168
  343MOL0     H47317   3.108   1.601   2.236 -0.1018 -3.4024 -2.0623
  343MOL0     H47318   2.387   2.138   0.671  2.0354  1.5903 -1.9073
  343MOL0     H47319   2.388   2.177   0.434 -1.2144  0.1205  1.1528
  343MOL0     H47320   2.181   1.956   0.082 -3.4344  0.9815 -0.1181
  343MOL0     H47321   2.013   2.022  -0.068 -0.8905  2.5672  2.0728
  343MOL0     H47322   2.096   2.345  -0.380 -0.1248 -3.3591 -1.2146
  343MOL0     H47323   1.927   2.334  -0.384 -1.1792 -2.0242  2.8919
  343MOL0     H47324   2.083   2.532  -0.255 -2.1048  1.1920 -3.5875
  343MOL0     H47325   1.996   2.450  -0.118 -1.2608 -0.4748  0.8272
  343MOL0     H47326   1.896   2.545  -0.386 -1.6074 -1.7954  0.8960
  343MOL0     H47327   1.789   2.505  -0.241 -1.1047 -1.9982 -1.5556
  343MOL0     H47328   1.862   2.715  -0.126  5.0252 -0.7254  0.5472
  343MOL0     H47329   1.786   2.753  -0.284 -2.3340  0.8345  4.2494
  343MOL0     H47330   2.179   2.888  -0.348  0.9733 -1.0536  0.0591
  343MOL0     H47331   2.258   2.328  -0.218  2.0612 -0.3521  0.9280
  343MOL0     H47332   2.537   2.298   0.026 -0.0536  1.9391  0.6202
  343MOL0     H47333   2.488   2.339  -0.132 -1.8172  3.2621 -0.5906
  343MOL0     H47334   2.431   2.428   0.022  3.2370  0.5037  0.3779
  344MOL0     O47335   2.189   3.249  10.734 -0.3331 -0.1718 -0.7088
  344MOL0     C47336   2.130   3.357  10.772 -0.3451 -0.5173  0.0141
  344MOL0     O47337   2.194   3.461  10.829 -0.3512 -0.0414 -0.3205
  344MOL0     C47338   2.326   3.452  10.858 -0.3072 -0.2558  0.7094
  344MOL0     C47339   2.371   3.435  10.991 -1.0210  0.5523 -0.0398
  344MOL0     C47340   2.507   3.451  11.022 -0.5203 -0.7606  1.1399
  344MOL0     C47341   2.602   3.499  10.928 -0.4370 -0.0505 -0.3288
  344MOL0     O47342   2.737   3.514  10.939  0.0596  0.1142  0.9309
  344MOL0     C47343   2.794   3.441  11.046  0.3842  0.7729  0.4154
  344MOL0     C47344   2.947   3.438  11.009  0.2283 -0.3848 -0.3429
  344MOL0     C47345   3.048   3.376  11.110  0.3920 -0.8871  0.2605
  344MOL0     C47346   3.201   3.375  11.061 -0.1896  0.1390  0.0701
  344MOL0     C47347   3.248   3.507  11.001  1.9893 -1.1531 -0.7615
  344MOL0     C47348   3.404   3.509  10.996 -0.2832  0.8233 -0.2240
  344MOL0     C47349   3.463   3.648  11.038 -0.1029  0.5914  0.1981
  344MOL0     C47350   3.412   3.756  10.943  0.2946  0.2156 -0.2103
  344MOL0     N47351   3.488   3.768  10.821  0.3015 -0.2032 -0.5112
  344MOL0     C47352   3.577   3.868  10.798 -0.6545 -0.8502 -0.7081
  344MOL0     C47353   3.633   3.830  10.680  0.6953  0.7555  0.4684
  344MOL0     C47354   3.742   3.903  10.609 -0.3396  0.7274 -0.4937
  344MOL0     C47355   3.716   4.053  10.591 -1.2156  0.3871 -0.0700
  344MOL0     C47356   3.857   4.118  10.567 -0.0590  0.1319  0.2366
  344MOL0     C47357   3.916   4.100  10.429  0.4577 -0.6746 -0.0030
  344MOL0     O47358   3.851   4.163  10.312 -0.3398  0.2175  0.1515
  344MOL0     C47359   3.909   4.170  10.196 -0.0848  0.0019  0.8309
  344MOL0     C47360   3.861   4.271  10.109 -0.2722  0.2746 -0.6305
  344MOL0     C47361   3.915   4.292   9.982  0.4363  0.1034  0.4584
  344MOL0     C47362   3.866   4.405   9.902  0.1548 -0.0001 -0.0532
  344MOL0     C47363   4.024   4.210   9.940 -0.6966  0.4032  0.5254
  344MOL0     C47364   4.081   4.228   9.814  0.4287 -0.6204  0.4649
  344MOL0     O47365   4.174   4.328   9.783  0.5461  0.1063 -0.7583
  344MOL0     C47366   4.198   4.379   9.657 -0.3519  0.2708  0.3257
  344MOL0     C47367   4.155   4.510   9.635 -0.0255 -1.0817 -0.3142
  344MOL0     C47368   4.173   4.561   9.504  0.0603 -0.1732 -0.3709
  344MOL0     C47369   4.229   4.477   9.401  0.2570  0.2147 -0.2532
  344MOL0     O47370   4.246   4.509   9.276  0.0910 -0.6520  0.1544
  344MOL0     C47371   4.251   4.650   9.223  0.0258  1.1312 -0.1484
  344MOL0     C47372   4.251   4.658   9.063 -0.0655  1.0695 -0.8729
  344MOL0     C47373   4.373   4.606   8.993  1.2106  0.0321  0.3013
  344MOL0     C47374   4.494   4.648   9.063  0.1512  0.4583  0.3560
  344MOL0     C47375   4.622   4.634   8.966  0.5217  0.2097  0.3712
  344MOL0     C47376   4.634   4.760   8.887  0.2051 -0.4579 -0.8740
  344MOL0     C47377   4.741   4.741   8.778  0.9342 -1.1548  0.0883
  344MOL0     C47378   4.697   4.661   8.655  0.2184 -0.1836 -0.4052
  344MOL0    Cl47379   4.842   4.631   8.548 -0.3312  0.0033 -0.2670
  344MOL0     C47380   4.274   4.352   9.437 -0.1372  0.3931  0.6692
  344MOL0     C47381   4.268   4.309   9.567 -0.3171 -0.0004 -0.0133
  344MOL0     O47382   4.048   4.141   9.727 -0.3095  0.2854 -0.4852
  344MOL0     C47383   4.062   4.103  10.027  0.4692 -0.3206 -0.9674
  344MOL0     C47384   4.014   4.083  10.154 -0.3149  0.6618  0.3572
  344MOL0     N47385   3.562   3.716  10.627  0.2151 -0.3900 -0.2414
  344MOL0     N47386   3.480   3.677  10.717  1.0959 -0.8457  0.3727
  344MOL0     C47387   2.549   3.518  10.798  0.5768 -0.3367  0.1640
  344MOL0     C47388   2.416   3.501  10.768  1.2232  0.1562 -0.5066
  344MOL0     C47389   1.991   3.391  10.737 -0.2189 -0.4482 -0.1151
  344MOL0     C47390   1.939   3.518  10.771  0.6874 -0.0697 -0.1952
  344MOL0     C47391   1.812   3.560  10.735 -0.4645  0.0057 -0.5683
  344MOL0     C47392   1.735   3.481  10.646 -0.6551 -0.0793 -0.2060
  344MOL0     O47393   1.599   3.501  10.619 -0.6489 -0.2315 -0.2251
  344MOL0     C47394   1.566   3.637  10.592 -0.6566  0.5889 -0.7415
  344MOL0     C47395   1.513   3.644  10.450 -0.0910  0.2851 -0.8964
  344MOL0     C47396   1.360   3.649  10.451 -0.1951  0.1322  0.3576
  344MOL0     C47397   1.313   3.638  10.305  1.2049 -0.5243  0.2017
  344MOL0     C47398   1.167   3.663  10.301  0.1054  0.5405 -0.5524
  344MOL0     C47399   1.052   3.692  10.297 -1.3927 -0.1163  0.2337
  344MOL0     C47400   1.779   3.351  10.611  0.7834 -0.7987 -0.4931
  344MOL0     C47401   1.896   3.309  10.660  0.0849 -0.1155 -0.2369
  344MOL0     C47402   1.937   3.168  10.622  0.4741  0.2962 -0.1981
  344MOL0     H47403   2.309   3.389  11.067  0.6226  2.3837  2.6076
  344MOL0     H47404   2.536   3.436  11.125  0.9125  3.3867  1.5248
  344MOL0     H47405   2.753   3.339  11.045 -1.9811  1.6596  0.4384
  344MOL0     H47406   2.774   3.491  11.141 -0.5702  2.8839 -0.8183
  344MOL0     H47407   2.954   3.380  10.917 -2.2994 -1.1257 -0.1217
  344MOL0     H47408   2.981   3.540  10.988 -0.8007  0.9868  3.6311
  344MOL0     H47409   3.045   3.426  11.207 -2.1453  0.1899 -0.3009
  344MOL0     H47410   3.027   3.270  11.128  2.4169 -1.0592  1.9703
  344MOL0     H47411   3.260   3.352  11.150 -1.7133 -0.6267  0.9289
  344MOL0     H47412   3.215   3.293  10.990  0.2466  0.1726  0.1111
  344MOL0     H47413   3.199   3.587  11.056 -0.2240 -0.9325 -2.8716
  344MOL0     H47414   3.198   3.500  10.904 -0.5909 -3.5228  0.6033
  344MOL0     H47415   3.450   3.427  11.052 -1.4395 -1.9502 -3.0834
  344MOL0     H47416   3.436   3.484  10.895 -0.9124 -0.6907 -0.0712
  344MOL0     H47417   3.572   3.652  11.043  0.0754  0.9682 -2.6155
  344MOL0     H47418   3.428   3.676  11.138  1.9513 -0.1770  1.2030
  344MOL0     H47419   3.306   3.757  10.913 -0.4712 -3.1640  1.8029
  344MOL0     H47420   3.422   3.852  10.993 -2.9011  0.1604  0.7712
  344MOL0     H47421   3.596   3.957  10.858  0.3849 -0.5468 -1.4476
  344MOL0     H47422   3.750   3.857  10.510 -0.8181  3.5397 -1.9178
  344MOL0     H47423   3.839   3.884  10.656 -0.1236  0.5118 -1.0156
  344MOL0     H47424   3.639   4.085  10.519  0.9959  3.3065 -1.3568
  344MOL0     H47425   3.685   4.076  10.693  1.0243 -1.0246  1.0167
  344MOL0     H47426   3.851   4.225  10.587 -0.9621  0.0752  0.2959
  344MOL0     H47427   3.936   4.073  10.629 -0.0951  1.9359  1.6745
  344MOL0     H47428   4.015   4.143  10.447 -1.7973  3.5849  5.2123
  344MOL0     H47429   3.936   3.995  10.409  1.7748  0.2539 -5.1776
  344MOL0     H47430   3.774   4.333  10.129  1.1061  1.7012  1.2478
  344MOL0     H47431   3.829   4.370   9.805 -0.4164  1.9435 -0.5700
  344MOL0     H47432   3.953   4.470   9.892  0.1424  0.4565  2.3598
  344MOL0     H47433   3.782   4.456   9.951 -0.3117 -1.4297  0.7081
  344MOL0     H47434   4.109   4.563   9.718  0.0122 -1.8280  0.1957
  344MOL0     H47435   4.141   4.662   9.482 -0.5900  1.3561  5.7918
  344MOL0     H47436   4.161   4.707   9.245  1.0192  3.6257 -2.0930
  344MOL0     H47437   4.329   4.703   9.278  0.5223  0.8391 -0.5630
  344MOL0     H47438   4.167   4.597   9.026  1.6236 -1.6120 -0.5689
  344MOL0     H47439   4.235   4.760   9.028 -0.5396  1.4844  0.5100
  344MOL0     H47440   4.365   4.662   8.900 -2.3420  3.8646  2.5538
  344MOL0     H47441   4.372   4.496   8.994 -2.9270 -0.0997 -0.1361
  344MOL0     H47442   4.511   4.587   9.153  0.5301 -1.9952 -1.2818
  344MOL0     H47443   4.488   4.753   9.093 -0.0135  0.4672  0.2875
  344MOL0     H47444   4.705   4.606   9.031 -0.2435 -0.9923  0.8593
  344MOL0     H47445   4.618   4.550   8.896  0.6162  0.4488  0.0771
  344MOL0     H47446   4.668   4.846   8.946 -0.6306  0.0974 -1.1929
  344MOL0     H47447   4.538   4.786   8.842 -0.1930  1.9144  1.1066
  344MOL0     H47448   4.830   4.696   8.823  0.1689  0.0066  3.0246
  344MOL0     H47449   4.764   4.842   8.743  0.2830 -1.0732 -0.1223
  344MOL0     H47450   4.610   4.706   8.607 -3.3907 -0.0966  5.2589
  344MOL0     H47451   4.659   4.563   8.686 -0.4108  0.0650 -0.3869
  344MOL0     H47452   4.320   4.279   9.372  1.8710  2.2391 -0.0839
  344MOL0     H47453   4.298   4.209   9.596 -0.0995 -0.4212 -1.5972
  344MOL0     H47454   4.126   4.019  10.000 -1.9110 -2.2573 -0.9170
  344MOL0     H47455   4.051   4.005  10.220  0.5628  0.8921  0.1464
  344MOL0     H47456   2.619   3.549  10.721 -2.1307  0.6162 -2.1000
  344MOL0     H47457   2.376   3.513  10.668  3.2781  1.1088 -1.2622
  344MOL0     H47458   1.987   3.593  10.832  0.1374  1.2772 -1.3405
  344MOL0     H47459   1.763   3.644  10.785 -0.9604 -0.5602 -0.0836
  344MOL0     H47460   1.504   3.681  10.670  0.1469  1.1810 -0.4250
  344MOL0     H47461   1.652   3.703  10.584 -1.0619  1.2260  0.0010
  344MOL0     H47462   1.548   3.555  10.397  3.3617  0.8869  0.1310
  344MOL0     H47463   1.543   3.732  10.392  3.0276  0.1857  0.3739
  344MOL0     H47464   1.317   3.581  10.525 -0.8138  1.4590  1.2605
  344MOL0     H47465   1.325   3.748  10.480 -0.1122  0.6638 -1.2331
  344MOL0     H47466   1.336   3.546  10.250 -1.0336  1.5201 -4.7227
  344MOL0     H47467   1.360   3.715  10.244 -0.2145  0.1522 -0.0759
  344MOL0     H47468   0.946   3.707  10.307 -1.5625  0.0894 -1.4893
  344MOL0     H47469   1.721   3.290  10.543  0.6673  0.7192 -1.8256
  344MOL0     H47470   2.005   3.168  10.536 -1.0092  0.5543 -1.4094
  344MOL0     H47471   2.002   3.120  10.696 -0.6410 -2.4941 -0.9160
  344MOL0     H47472   1.850   3.102  10.618  1.3011 -0.8253 -0.4768
  345MOL0     O47473   3.577   7.191   5.443  0.7134  0.1773  0.1897
  345MOL0     C47474   3.513   7.286   5.393 -0.2340  0.8564 -0.3505
  345MOL0     O47475   3.444   7.284   5.268  0.3696  0.2655 -0.4363
  345MOL0     C47476   3.471   7.180   5.182 -0.6021  0.0504 -0.0415
  345MOL0     C47477   3.522   7.214   5.055 -0.2418 -0.0275 -0.1746
  345MOL0     C47478   3.573   7.109   4.973  0.3400  0.1658 -0.2277
  345MOL0     C47479   3.558   6.978   5.011 -0.9643 -0.3619 -0.3095
  345MOL0     O47480   3.603   6.872   4.939  0.7693 -0.2394  0.0319
  345MOL0     C47481   3.720   6.898   4.851  0.0365 -0.3794 -0.0824
  345MOL0     C47482   3.753   6.783   4.762  0.4252  0.1124 -0.0717
  345MOL0     C47483   3.637   6.758   4.651  0.9231 -0.6448  0.6967
  345MOL0     C47484   3.660   6.632   4.553  0.0805 -0.8842  0.9977
  345MOL0     C47485   3.533   6.617   4.464 -0.0140  0.6829 -0.1404
  345MOL0     C47486   3.546   6.491   4.372  0.4585  0.1598  0.2183
  345MOL0     C47487   3.424   6.482   4.281 -0.1425  0.5473 -0.5632
  345MOL0     C47488   3.426   6.362   4.183  0.5847 -0.2214 -0.2734
  345MOL0     N47489   3.461   6.240   4.252 -0.2748 -0.1577  0.0845
  345MOL0     C47490   3.593   6.217   4.274  0.4820 -0.4468 -0.2958
  345MOL0     C47491   3.593   6.108   4.357 -0.0502  1.3866 -0.4769
  345MOL0     C47492   3.723   6.034   4.384  0.2506 -0.3244 -0.1529
  345MOL0     C47493   3.789   6.080   4.522  0.3212 -0.1963  0.4114
  345MOL0     C47494   3.904   5.987   4.545 -0.1499  0.4462 -0.0937
  345MOL0     C47495   3.979   6.013   4.677 -0.5811  0.4847 -0.0576
  345MOL0     O47496   4.087   5.927   4.698  0.0940 -0.1822  0.2378
  345MOL0     C47497   4.220   5.961   4.667  0.4199 -0.1745 -0.4988
  345MOL0     C47498   4.317   5.894   4.737  0.5892 -0.3125 -0.2924
  345MOL0     C47499   4.446   5.940   4.744  0.0209 -0.0770  0.4024
  345MOL0     C47500   4.531   5.902   4.858  0.1419  0.6592  0.3535
  345MOL0     C47501   4.492   6.027   4.642  0.4285  0.3695  0.2455
  345MOL0     C47502   4.630   6.076   4.611  0.6966  0.5559  1.0495
  345MOL0     O47503   4.647   6.147   4.496 -1.3630  0.2270  0.0735
  345MOL0     C47504   4.771   6.196   4.466  0.2085 -0.3438 -1.5456
  345MOL0     C47505   4.860   6.252   4.562  0.2888  0.1765  0.9876
  345MOL0     C47506   4.980   6.295   4.514 -0.6155 -0.5423  0.1312
  345MOL0     C47507   5.013   6.289   4.385 -0.1820 -0.2770  1.0215
  345MOL0     O47508   5.140   6.331   4.365 -1.0225 -0.0472 -0.9523
  345MOL0     C47509   5.189   6.350   4.229  0.2305 -0.4030  0.5478
  345MOL0     C47510   5.283   6.240   4.188 -0.9143  0.1636  0.4002
  345MOL0     C47511   5.322   6.272   4.043  0.6696  0.2293 -0.2813
  345MOL0     C47512   5.409   6.160   3.990 -0.0913 -0.6678 -0.0084
  345MOL0     C47513   5.486   6.186   3.857 -0.2401  0.1799 -0.9020
  345MOL0     C47514   5.623   6.112   3.859  0.0594 -0.7621 -0.3211
  345MOL0     C47515   5.701   6.136   3.726  0.5050  0.6031 -0.3858
  345MOL0     C47516   5.823   6.056   3.727  0.7098 -0.2699  0.2933
  345MOL0    Cl47517   5.931   6.083   3.861 -0.3840  0.1425 -0.1332
  345MOL0     C47518   4.930   6.236   4.298 -0.3388  0.5438  0.4174
  345MOL0     C47519   4.808   6.182   4.335 -0.6676  0.0623  0.8753
  345MOL0     O47520   4.717   6.048   4.694 -0.2073  0.3003 -0.0703
  345MOL0     C47521   4.388   6.081   4.556  0.3088 -1.2123 -0.4866
  345MOL0     C47522   4.255   6.054   4.571  0.0881  0.8003  0.8474
  345MOL0     N47523   3.462   6.079   4.392 -0.0875 -0.6183 -0.2581
  345MOL0     N47524   3.385   6.162   4.339  0.2705 -0.3115 -0.0866
  345MOL0     C47525   3.478   6.947   5.125 -0.5517 -0.7762  0.0263
  345MOL0     C47526   3.436   7.049   5.213 -0.0176 -1.2474  0.1553
  345MOL0     C47527   3.494   7.415   5.475 -0.8315 -0.0982 -0.2884
  345MOL0     C47528   3.429   7.534   5.418  0.2130  0.2306  0.5602
  345MOL0     C47529   3.399   7.644   5.494  0.5605 -0.4189 -0.0417
  345MOL0     C47530   3.442   7.651   5.631 -0.9789 -0.7712 -0.6256
  345MOL0     O47531   3.423   7.763   5.711  0.3786 -0.8115 -0.4029
  345MOL0     C47532   3.453   7.890   5.643  0.5603  0.7968  0.4747
  345MOL0     C47533   3.324   7.961   5.599  0.1729  0.0069  0.0961
  345MOL0     C47534   3.233   8.004   5.718  0.0956  0.2375 -0.2825
  345MOL0     C47535   3.240   8.151   5.753  0.4220  0.8870  0.0479
  345MOL0     C47536   3.354   8.182   5.831 -0.1694 -0.7663  0.7573
  345MOL0     C47537   3.455   8.188   5.892 -0.4722 -0.0743 -0.2119
  345MOL0     C47538   3.508   7.537   5.685 -0.3040 -0.0797 -0.0263
  345MOL0     C47539   3.524   7.415   5.619  0.2636 -0.0887 -0.6481
  345MOL0     C47540   3.570   7.298   5.709 -0.9705  0.1996 -0.5258
  345MOL0     H47541   3.503   7.318   5.031 -1.1277 -0.2748 -0.5651
  345MOL0     H47542   3.603   7.128   4.870 -1.0832 -1.5144 -1.0174
  345MOL0     H47543   3.808   6.921   4.911 -0.4803 -1.1924  1.0159
  345MOL0     H47544   3.707   6.976   4.774 -1.1403 -2.8220 -2.5292
  345MOL0     H47545   3.850   6.809   4.719  0.7659  2.7872  2.0813
  345MOL0     H47546   3.765   6.694   4.825 -0.7720  0.7629  1.1303
  345MOL0     H47547   3.538   6.748   4.696  0.7958  1.3075  0.9468
  345MOL0     H47548   3.628   6.849   4.590 -1.8253 -1.2607  0.0523
  345MOL0     H47549   3.755   6.646   4.501 -0.4033 -0.8496  0.0996
  345MOL0     H47550   3.670   6.540   4.612 -0.8756 -0.1975  2.2942
  345MOL0     H47551   3.512   6.712   4.414 -2.0055  0.0719 -0.5649
  345MOL0     H47552   3.442   6.601   4.523 -0.5637  1.6448 -0.7040
  345MOL0     H47553   3.644   6.499   4.325  0.2173  0.8122 -0.1937
  345MOL0     H47554   3.546   6.404   4.438 -1.9422  0.6579  0.9839
  345MOL0     H47555   3.433   6.575   4.224  0.3800 -1.0355 -3.2835
  345MOL0     H47556   3.332   6.469   4.337 -0.3233 -1.5397 -1.2389
  345MOL0     H47557   3.324   6.350   4.146 -0.0862 -3.1157  2.1163
  345MOL0     H47558   3.490   6.404   4.105 -1.4071  4.5738  0.3399
  345MOL0     H47559   3.683   6.254   4.228  0.2718 -0.2886 -0.5855
  345MOL0     H47560   3.781   6.049   4.293 -1.3814  1.9996 -0.9051
  345MOL0     H47561   3.696   5.929   4.397 -0.3252 -0.0535  0.9797
  345MOL0     H47562   3.817   6.182   4.495 -3.2968  0.0995 -3.2801
  345MOL0     H47563   3.716   6.076   4.603 -0.1626 -4.1115 -0.0460
  345MOL0     H47564   3.871   5.884   4.533  2.3145 -0.7461  2.3233
  345MOL0     H47565   3.972   6.003   4.461 -0.6744  2.8930 -0.1579
  345MOL0     H47566   4.022   6.114   4.670  4.8781 -1.5838 -3.0742
  345MOL0     H47567   3.923   5.994   4.769  2.2501  2.6453  2.3323
  345MOL0     H47568   4.296   5.813   4.807  1.5025  1.1509  1.8094
  345MOL0     H47569   4.564   5.987   4.919  0.9448  0.4464  0.2226
  345MOL0     H47570   4.624   5.860   4.821  0.3212 -0.1713  1.6837
  345MOL0     H47571   4.490   5.830   4.929  0.8023  2.2085  2.4173
  345MOL0     H47572   4.848   6.260   4.670  0.5795  1.7610  0.9225
  345MOL0     H47573   5.054   6.336   4.582 -1.4098  1.2562 -0.0285
  345MOL0     H47574   5.107   6.360   4.158 -1.4475 -0.2199  2.4332
  345MOL0     H47575   5.248   6.443   4.234 -0.2292 -0.0095 -0.8136
  345MOL0     H47576   5.370   6.239   4.254  0.2567  3.1002 -0.8845
  345MOL0     H47577   5.239   6.141   4.199  1.7032 -1.8807 -4.6036
  345MOL0     H47578   5.379   6.365   4.040  3.6974 -1.5226 -0.8427
  345MOL0     H47579   5.232   6.300   3.987 -0.4338  2.4324  2.3472
  345MOL0     H47580   5.351   6.068   3.984 -3.8110  1.4974  0.0394
  345MOL0     H47581   5.482   6.156   4.072 -2.1437 -1.2077  1.8805
  345MOL0     H47582   5.433   6.162   3.764 -2.4243 -1.5336  0.6727
  345MOL0     H47583   5.519   6.290   3.848 -2.0867  1.0606  1.3976
  345MOL0     H47584   5.612   6.005   3.879 -1.0795 -1.1777 -2.8154
  345MOL0     H47585   5.683   6.153   3.941 -2.2609 -1.4436  1.8638
  345MOL0     H47586   5.714   6.243   3.709  1.2873  0.1702 -2.9305
  345MOL0     H47587   5.636   6.099   3.646  0.2474  0.7630 -0.2484
  345MOL0     H47588   5.869   6.086   3.633 -2.4557  1.4076 -0.8566
  345MOL0     H47589   5.807   5.948   3.715  2.2383 -0.2626 -2.7817
  345MOL0     H47590   4.967   6.235   4.196 -1.2240  3.3785 -0.0295
  345MOL0     H47591   4.744   6.142   4.256  1.5011  2.7280 -2.5231
  345MOL0     H47592   4.416   6.156   4.483 -2.5021 -0.5819 -1.0378
  345MOL0     H47593   4.181   6.097   4.505 -0.1292 -1.7410 -0.7019
  345MOL0     H47594   3.469   6.841   5.149  3.4399 -1.3511 -0.3376
  345MOL0     H47595   3.390   7.026   5.309 -0.2233 -0.3850  0.2734
  345MOL0     H47596   3.402   7.541   5.314  1.9150 -4.5096 -0.4326
  345MOL0     H47597   3.341   7.723   5.448 -0.0909  0.2699  1.8755
  345MOL0     H47598   3.506   7.943   5.722  0.8875 -1.0611  1.5783
  345MOL0     H47599   3.521   7.880   5.558  3.7069  1.5107  2.7400
  345MOL0     H47600   3.256   7.905   5.534  0.5012  0.2688 -0.4899
  345MOL0     H47601   3.369   8.048   5.550  1.3554 -1.1540 -0.9862
  345MOL0     H47602   3.129   7.976   5.704  0.1344  0.1670 -0.4354
  345MOL0     H47603   3.266   7.948   5.806 -2.4216  1.0788  1.2875
  345MOL0     H47604   3.152   8.176   5.814  0.3341  1.2919 -0.2373
  345MOL0     H47605   3.242   8.211   5.662 -0.1841  0.6406 -0.1372
  345MOL0     H47606   3.541   8.204   5.954 -2.4267  2.6609  2.0542
  345MOL0     H47607   3.532   7.550   5.790  0.2355  1.8531 -0.3442
  345MOL0     H47608   3.519   7.202   5.698 -0.5125 -0.2417  0.9707
  345MOL0     H47609   3.677   7.291   5.688 -0.8818 -0.0211 -0.0114
  345MOL0     H47610   3.558   7.324   5.814 -3.6573 -1.0927 -0.4265
  346MOL0     O47611   1.530   7.597  10.368 -0.3217 -0.0926 -0.7413
  346MOL0     C47612   1.495   7.570  10.481 -0.4088  0.0240 -0.1217
  346MOL0     O47613   1.414   7.635  10.561 -0.0946  0.1882  0.1292
  346MOL0     C47614   1.358   7.763  10.545 -0.7629  0.2048 -0.2285
  346MOL0     C47615   1.307   7.811  10.666 -0.7358 -0.8155  0.7711
  346MOL0     C47616   1.258   7.941  10.666  0.1427  0.2733  0.2444
  346MOL0     C47617   1.255   8.015  10.547  0.0674  0.5422 -0.6207
  346MOL0     O47618   1.209   8.144  10.549 -0.0137 -0.9238 -0.5432
  346MOL0     C47619   1.131   8.180  10.437  0.4238 -0.0655  0.2715
  346MOL0     C47620   1.012   8.261  10.486 -0.2129 -0.7590 -0.1971
  346MOL0     C47621   0.899   8.257  10.374  0.4930  0.0928  1.0524
  346MOL0     C47622   0.807   8.377  10.408  0.5214 -0.2000  0.2125
  346MOL0     C47623   0.681   8.394  10.306 -0.6017 -0.0114  0.1509
  346MOL0     C47624   0.588   8.271  10.292 -0.1994 -0.0326 -0.4039
  346MOL0     C47625   0.521   8.222  10.421 -0.6454 -0.2811  0.4528
  346MOL0     C47626   0.414   8.115  10.402  0.6744  0.2443 -0.1191
  346MOL0     N47627   0.353   8.075  10.523 -1.9502  0.1531  0.1752
  346MOL0     C47628   0.370   7.948  10.573 -0.9600 -0.2736  0.0336
  346MOL0     C47629   0.329   7.956  10.699 -0.0015  0.1855  0.0114
  346MOL0     C47630   0.320   7.837  10.788 -0.1696 -0.5073 -0.9274
  346MOL0     C47631   0.457   7.820  10.848 -0.6126  0.5881 -0.4183
  346MOL0     C47632   0.473   7.688  10.931 -0.3369 -0.6106 -0.5298
  346MOL0     C47633   0.497   7.554  10.845 -1.2016  0.1735 -0.3757
  346MOL0     O47634   0.623   7.563  10.773 -0.2229 -1.0829  0.9980
  346MOL0     C47635   0.621   7.581  10.640  0.5008 -0.0159 -0.3672
  346MOL0     C47636   0.676   7.696  10.580 -0.7878  0.1804  0.2502
  346MOL0     C47637   0.667   7.726  10.439 -0.5230 -0.5420 -0.0265
  346MOL0     C47638   0.730   7.858  10.397 -0.1202  0.2388 -0.4335
  346MOL0     C47639   0.593   7.638  10.353 -0.3516 -0.4548  0.4531
  346MOL0     C47640   0.574   7.654  10.207 -0.6664 -0.3106  0.2459
  346MOL0     O47641   0.672   7.710  10.146  0.3507 -0.5840 -0.0673
  346MOL0     C47642   0.660   7.734  10.013 -0.8227  0.4501  0.4975
  346MOL0     C47643   0.673   7.625   9.929  0.0486 -0.0545 -0.5838
  346MOL0     C47644   0.670   7.636   9.792  0.8284 -1.2961 -0.7928
  346MOL0     C47645   0.639   7.762   9.739  0.6001 -0.1659  0.3708
  346MOL0     O47646   0.633   7.796   9.611  0.0464  0.0216  0.1046
  346MOL0     C47647   0.594   7.723   9.491  0.2085  0.1474 -0.0832
  346MOL0     C47648   0.581   7.812   9.368 -0.7113  0.5227  0.5475
  346MOL0     C47649   0.714   7.880   9.328  0.2755  0.5240  0.7437
  346MOL0     C47650   0.837   7.795   9.294  0.1828  0.4710  0.7069
  346MOL0     C47651   0.960   7.865   9.238  0.4047 -0.3081 -0.5374
  346MOL0     C47652   0.942   7.961   9.120  0.0819 -0.0791 -0.0588
  346MOL0     C47653   0.945   7.877   8.989  0.3815 -0.2690 -1.0734
  346MOL0     C47654   0.983   7.967   8.869 -1.2026 -0.1118 -0.3021
  346MOL0    Cl47655   1.163   8.028   8.899  0.0868 -0.2889  0.3856
  346MOL0     C47656   0.633   7.871   9.829  0.4169 -0.7056  0.5029
  346MOL0     C47657   0.648   7.856   9.966 -0.0666 -0.0193 -0.0971
  346MOL0     O47658   0.484   7.596  10.146  0.0108 -0.2527  0.2414
  346MOL0     C47659   0.546   7.513  10.413  0.7232 -0.0662  1.1382
  346MOL0     C47660   0.546   7.492  10.562  0.2474 -0.2229 -0.4373
  346MOL0     N47661   0.299   8.087  10.729  0.5499 -0.4664 -0.1530
  346MOL0     N47662   0.343   8.161  10.628  0.2221  1.0183  0.5435
  346MOL0     C47663   1.305   7.960  10.433 -0.4293 -0.2145 -0.7023
  346MOL0     C47664   1.358   7.829  10.429 -0.5081 -0.5053  0.7371
  346MOL0     C47665   1.560   7.449  10.532  0.4695 -0.2500 -0.4149
  346MOL0     C47666   1.632   7.464  10.651 -0.2815  0.1696  0.7956
  346MOL0     C47667   1.698   7.352  10.706 -0.1186 -0.3433  0.7867
  346MOL0     C47668   1.691   7.228  10.642  0.9720 -0.7018  0.2071
  346MOL0     O47669   1.738   7.116  10.704  0.7062 -0.0265 -0.0683
  346MOL0     C47670   1.710   7.094  10.847 -0.0456  1.2295  0.5519
  346MOL0     C47671   1.828   7.136  10.938  0.1116 -0.0457  0.1945
  346MOL0     C47672   1.936   7.036  10.925 -0.1917 -0.2209 -0.3683
  346MOL0     C47673   2.068   7.074  11.000  0.5089 -0.2825 -0.2434
  346MOL0     C47674   2.059   7.128  11.140 -0.1938  0.3268 -0.4804
  346MOL0     C47675   2.068   7.170  11.249  0.1326 -0.3460  0.1309
  346MOL0     C47676   1.616   7.215  10.523 -0.9635 -0.5364  0.3070
  346MOL0     C47677   1.554   7.331  10.465  0.3555  0.8241 -0.3537
  346MOL0     C47678   1.465   7.300  10.348  0.0036 -0.4150  0.2096
  346MOL0     H47679   1.334   7.755  10.755  0.3040 -3.0400 -0.8413
  346MOL0     H47680   1.202   7.980  10.751  0.1114  1.6820 -0.4031
  346MOL0     H47681   1.098   8.092  10.381 -1.5182  0.9097 -0.1713
  346MOL0     H47682   1.184   8.242  10.364  0.6999 -1.9656 -1.2279
  346MOL0     H47683   0.967   8.224  10.579  1.5143  0.0986  1.0354
  346MOL0     H47684   1.033   8.368  10.489 -2.3276 -0.2686 -1.0652
  346MOL0     H47685   0.955   8.287  10.285  0.9454 -1.9851  0.5835
  346MOL0     H47686   0.857   8.157  10.357  0.5254  0.6154 -3.0936
  346MOL0     H47687   0.780   8.354  10.512  0.0056 -0.5717  0.0035
  346MOL0     H47688   0.874   8.462  10.397  0.3607 -0.0826  0.1505
  346MOL0     H47689   0.727   8.406  10.208  1.2764  1.1889  1.1121
  346MOL0     H47690   0.622   8.480  10.338 -0.1411 -0.1199  1.3426
  346MOL0     H47691   0.514   8.300  10.217 -0.8250  0.1993  0.2893
  346MOL0     H47692   0.648   8.184  10.261 -1.8088 -2.7226  3.2270
  346MOL0     H47693   0.477   8.305  10.477  0.3147  0.1841  0.5397
  346MOL0     H47694   0.606   8.180  10.476  2.1143  2.8252 -1.0737
  346MOL0     H47695   0.347   8.173  10.338  0.9463  2.2411  1.3380
  346MOL0     H47696   0.456   8.024  10.357  0.5308  0.3775 -0.5244
  346MOL0     H47697   0.414   7.857  10.534 -2.5199 -1.8758  1.8379
  346MOL0     H47698   0.292   7.754  10.723  0.6472  0.2887 -2.3228
  346MOL0     H47699   0.242   7.851  10.864 -0.4801 -2.6474 -0.7950
  346MOL0     H47700   0.537   7.821  10.772  1.5058 -1.2853  1.6344
  346MOL0     H47701   0.484   7.903  10.914  2.7562 -0.0399 -0.7977
  346MOL0     H47702   0.563   7.702  10.991 -0.5200 -2.3010  0.2009
  346MOL0     H47703   0.394   7.673  11.005  0.5583  1.8347  1.0454
  346MOL0     H47704   0.494   7.466  10.910  2.3607  0.6165  0.5879
  346MOL0     H47705   0.421   7.548  10.766 -1.3296 -2.3564 -0.1470
  346MOL0     H47706   0.733   7.765  10.641 -4.8403  3.2605  0.9769
  346MOL0     H47707   0.783   7.848  10.301 -2.0078 -4.8299 -1.2981
  346MOL0     H47708   0.796   7.901  10.472  1.1852  1.5481 -2.2311
  346MOL0     H47709   0.654   7.936  10.389  1.2597  1.6731  0.1461
  346MOL0     H47710   0.680   7.526   9.974  1.2483 -0.6697 -2.0591
  346MOL0     H47711   0.671   7.544   9.734 -0.8157 -3.5766  2.5086
  346MOL0     H47712   0.665   7.642   9.470 -1.6637 -1.8004  0.7198
  346MOL0     H47713   0.493   7.685   9.508  1.0007 -2.8815 -1.4467
  346MOL0     H47714   0.552   7.763   9.274  0.1976 -0.0668  0.5682
  346MOL0     H47715   0.513   7.898   9.378  0.0716  1.5300 -2.0145
  346MOL0     H47716   0.748   7.950   9.405  1.0401  2.1265 -0.9768
  346MOL0     H47717   0.694   7.953   9.249 -0.1649  2.9963  2.9923
  346MOL0     H47718   0.806   7.720   9.221 -0.0747  0.3128  0.9754
  346MOL0     H47719   0.877   7.747   9.385  0.6980 -0.5135 -0.0199
  346MOL0     H47720   0.994   7.924   9.324 -1.1515 -1.5469  0.9947
  346MOL0     H47721   1.041   7.794   9.220  0.0679 -0.6038 -0.8800
  346MOL0     H47722   1.023   8.035   9.127  0.4257 -0.1698 -2.2729
  346MOL0     H47723   0.853   8.024   9.120  1.5180  2.1331 -1.9364
  346MOL0     H47724   0.838   7.858   8.972 -0.1493  2.1065 -0.6825
  346MOL0     H47725   0.986   7.775   8.994 -3.4132 -1.9309  1.0665
  346MOL0     H47726   0.918   8.054   8.854  0.9184  1.4491 -0.9215
  346MOL0     H47727   0.962   7.910   8.779 -0.4234 -2.0768  0.7071
  346MOL0     H47728   0.624   7.974   9.796 -1.4012  0.3239  3.7900
  346MOL0     H47729   0.634   7.946  10.026  1.5458  0.6792 -0.7203
  346MOL0     H47730   0.499   7.435  10.355  0.8037 -0.1921  1.2407
  346MOL0     H47731   0.509   7.398  10.602  0.3166  0.1849  0.6165
  346MOL0     H47732   1.312   8.015  10.339 -0.3142  0.9654 -0.0193
  346MOL0     H47733   1.415   7.794  10.344  1.2450 -0.7438  1.9488
  346MOL0     H47734   1.630   7.554  10.712 -2.2515  0.3360  0.5407
  346MOL0     H47735   1.742   7.363  10.805 -1.1520  2.6086  1.0165
  346MOL0     H47736   1.626   7.159  10.874 -0.7311  0.7925 -0.4631
  346MOL0     H47737   1.680   6.991  10.866  0.7340  0.5728 -1.4837
  346MOL0     H47738   1.803   7.125  11.044  4.0828 -0.5638  1.2384
  346MOL0     H47739   1.864   7.237  10.921  0.4857  0.4554  3.3452
  346MOL0     H47740   1.911   6.941  10.974  0.9078  0.0468  0.7916
  346MOL0     H47741   1.962   7.029  10.819  0.0728 -0.6863 -0.2786
  346MOL0     H47742   2.120   7.148  10.938 -0.1169  2.3790  2.2169
  346MOL0     H47743   2.127   6.982  11.008  0.9202  0.0146  0.1733
  346MOL0     H47744   2.072   7.204  11.350 -1.6164 -1.0624  0.4952
  346MOL0     H47745   1.603   7.113  10.487 -1.7690 -0.7782  1.2398
  346MOL0     H47746   1.369   7.352  10.339 -0.6084 -1.5819 -0.2609
  346MOL0     H47747   1.527   7.328  10.262  0.2432 -2.2314 -0.2467
  346MOL0     H47748   1.448   7.192  10.341  1.0364 -0.6442  0.9423
  347MOL0     O47749   5.070   3.698   0.060  1.0431  0.0555  0.7136
  347MOL0     C47750   5.053   3.758   0.162 -0.7793  1.2165 -0.2737
  347MOL0     O47751   5.155   3.769   0.258  0.5765 -0.5393 -0.7373
  347MOL0     C47752   5.273   3.712   0.227  0.0813  0.4966 -0.1494
  347MOL0     C47753   5.358   3.756   0.125 -0.2421 -0.6594  0.2287
  347MOL0     C47754   5.483   3.713   0.114  0.2781 -0.4042  0.6271
  347MOL0     C47755   5.530   3.631   0.205  0.3305 -0.2068 -0.2661
  347MOL0     O47756   5.667   3.606   0.213 -0.4681 -0.4869 -0.0634
  347MOL0     C47757   5.748   3.718   0.190 -0.0765 -0.4443 -0.1998
  347MOL0     C47758   5.828   3.722   0.061  0.5181  0.6317  0.3163
  347MOL0     C47759   5.877   3.576   0.024  0.3692 -0.5222 -0.7979
  347MOL0     C47760   6.008   3.573  -0.059 -0.2625  0.0405  0.6500
  347MOL0     C47761   6.006   3.668  -0.182 -0.4640  0.2292 -0.3805
  347MOL0     C47762   5.892   3.627  -0.281 -0.2389 -0.4473  0.6863
  347MOL0     C47763   5.898   3.700  -0.417  0.1479  0.0936 -0.1607
  347MOL0     C47764   5.902   3.850  -0.431  0.0976  0.7320 -0.9570
  347MOL0     N47765   5.786   3.902  -0.374  0.3540 -0.5575  0.1430
  347MOL0     C47766   5.651   3.897  -0.417  0.3131  0.2096  0.0713
  347MOL0     C47767   5.577   3.932  -0.316 -0.6932  0.1348 -0.3134
  347MOL0     C47768   5.427   3.916  -0.315  0.2248 -0.1939 -1.1385
  347MOL0     C47769   5.358   3.985  -0.189 -0.0427  0.0333 -0.8278
  347MOL0     C47770   5.211   3.997  -0.223  0.2148  0.0791  0.6862
  347MOL0     C47771   5.124   4.060  -0.115 -0.0918  0.3201 -0.0614
  347MOL0     O47772   5.183   4.185  -0.078 -0.3417  0.5126 -0.2883
  347MOL0     C47773   5.108   4.281  -0.010  0.8030  0.2734 -1.0312
  347MOL0     C47774   5.179   4.390   0.032 -0.4985 -0.4920  0.1148
  347MOL0     C47775   5.123   4.492   0.116 -0.4331  1.2942 -0.3287
  347MOL0     C47776   5.217   4.596   0.161  0.5642  0.6937 -1.2254
  347MOL0     C47777   4.988   4.475   0.157  0.6173  0.2040 -0.4214
  347MOL0     C47778   4.921   4.593   0.230  0.1474  0.5512  0.1202
  347MOL0     O47779   4.994   4.714   0.259 -0.1094 -0.1023 -0.1524
  347MOL0     C47780   4.930   4.838   0.274 -0.2160 -0.5862  0.4240
  347MOL0     C47781   4.980   4.952   0.215  0.5838  0.4063  0.5274
  347MOL0     C47782   4.928   5.081   0.235 -0.1107  0.1335  0.6815
  347MOL0     C47783   4.806   5.098   0.307 -0.0189  0.0716  0.4047
  347MOL0     O47784   4.747   5.222   0.300 -0.3256  0.7589 -0.3672
  347MOL0     C47785   4.629   5.269   0.371  0.2718 -0.4582 -0.2105
  347MOL0     C47786   4.647   5.286   0.529 -0.6905  0.5790 -0.6082
  347MOL0     C47787   4.794   5.317   0.577  0.3023  0.6691  0.0177
  347MOL0     C47788   4.814   5.309   0.728 -0.4549  0.6874 -0.3441
  347MOL0     C47789   4.795   5.166   0.799 -0.6639 -0.2170  0.4013
  347MOL0     C47790   4.819   5.179   0.945 -0.1997 -0.2164 -0.0631
  347MOL0     C47791   4.781   5.049   1.021  0.1856 -0.2475  0.4001
  347MOL0     C47792   4.812   5.085   1.169 -0.8265  0.0275 -0.2425
  347MOL0    Cl47793   4.992   5.085   1.183 -0.5245 -0.4435 -0.0091
  347MOL0     C47794   4.752   4.988   0.365  0.3316 -0.4135  0.4342
  347MOL0     C47795   4.815   4.864   0.355  0.8478  0.5954  0.6681
  347MOL0     O47796   4.809   4.575   0.259  1.1130  0.1986  0.1092
  347MOL0     C47797   4.922   4.356   0.126  1.0292  0.1881  0.0873
  347MOL0     C47798   4.973   4.260   0.037  0.2086  0.0368 -1.1626
  347MOL0     N47799   5.662   3.951  -0.210  0.2055  0.4462 -0.1855
  347MOL0     N47800   5.785   3.934  -0.244 -0.0077 -0.0507 -0.9918
  347MOL0     C47801   5.448   3.558   0.296  0.2658 -0.6192 -1.1617
  347MOL0     C47802   5.319   3.605   0.312 -0.0050 -0.2032  0.4870
  347MOL0     C47803   4.925   3.834   0.177 -0.1236 -0.5455  0.0279
  347MOL0     C47804   4.928   3.947   0.265 -0.2139  0.1930 -0.9670
  347MOL0     C47805   4.811   4.028   0.285 -0.0168 -0.3268 -0.2400
  347MOL0     C47806   4.694   3.989   0.217 -0.1164 -0.0156 -0.2347
  347MOL0     O47807   4.588   4.065   0.241 -0.6595  0.1432  0.5375
  347MOL0     C47808   4.541   4.146   0.133 -0.5937  0.4210  0.2396
  347MOL0     C47809   4.512   4.302   0.168 -0.0892 -0.0860 -0.7187
  347MOL0     C47810   4.376   4.327   0.242  0.5475 -0.3893  0.7893
  347MOL0     C47811   4.307   4.466   0.219 -0.2349  1.0981  0.1247
  347MOL0     C47812   4.398   4.583   0.251 -1.4351  0.7740 -0.3802
  347MOL0     C47813   4.453   4.687   0.269 -0.6337  0.5267 -0.0296
  347MOL0     C47814   4.695   3.885   0.136 -0.3364 -0.3717  0.5642
  347MOL0     C47815   4.801   3.800   0.112  0.9840 -0.0643  0.0579
  347MOL0     C47816   4.776   3.710  -0.007 -0.5201 -0.2640  0.3002
  347MOL0     H47817   5.331   3.837   0.058  1.6736  2.4599  2.9100
  347MOL0     H47818   5.551   3.758   0.043  1.9331 -3.8709 -0.1637
  347MOL0     H47819   5.823   3.717   0.270  0.9916 -0.7352 -1.1799
  347MOL0     H47820   5.696   3.813   0.205  0.1803  0.3155 -3.3691
  347MOL0     H47821   5.776   3.770  -0.023  1.6305  1.1494 -0.0941
  347MOL0     H47822   5.916   3.784   0.082  0.4856 -0.1265  2.9749
  347MOL0     H47823   5.893   3.508   0.109 -4.6170 -0.6169  0.3811
  347MOL0     H47824   5.792   3.524  -0.019  0.2137 -0.8408 -0.1247
  347MOL0     H47825   6.092   3.594   0.008  1.7926 -1.3604 -1.3396
  347MOL0     H47826   6.016   3.476  -0.108 -3.2846  0.7853 -1.5868
  347MOL0     H47827   6.099   3.652  -0.237 -1.3570 -0.7806 -1.6422
  347MOL0     H47828   5.995   3.773  -0.151 -2.9565 -0.2418  0.5612
  347MOL0     H47829   5.903   3.518  -0.287  0.4404 -0.3789  0.5697
  347MOL0     H47830   5.794   3.643  -0.235 -1.4303 -0.4008 -1.7493
  347MOL0     H47831   5.829   3.661  -0.492 -0.1519 -1.0639  0.6955
  347MOL0     H47832   5.996   3.667  -0.452 -0.9630 -0.4063 -3.1167
  347MOL0     H47833   5.985   3.900  -0.381  1.7004 -0.1309 -2.6131
  347MOL0     H47834   5.915   3.871  -0.537 -0.1325 -1.4120 -1.4727
  347MOL0     H47835   5.608   3.869  -0.512  3.6659 -1.9493 -0.9742
  347MOL0     H47836   5.405   3.810  -0.299  1.8965 -0.3333  0.5851
  347MOL0     H47837   5.384   3.955  -0.408  1.1418 -1.8010 -2.2864
  347MOL0     H47838   5.386   3.933  -0.097  2.8253 -1.0120 -2.1680
  347MOL0     H47839   5.402   4.084  -0.178 -0.7598  0.1290  1.7134
  347MOL0     H47840   5.195   4.060  -0.311 -0.5253 -2.3470 -1.0275
  347MOL0     H47841   5.153   3.906  -0.242 -0.1459  0.3701  0.3599
  347MOL0     H47842   5.030   4.087  -0.164  1.1720  2.0532 -1.6448
  347MOL0     H47843   5.117   3.991  -0.030 -0.7261  0.4346 -0.0139
  347MOL0     H47844   5.279   4.404  -0.009  0.0303 -0.6479  1.3043
  347MOL0     H47845   5.220   4.592   0.271  1.7951  1.9115 -1.1889
  347MOL0     H47846   5.199   4.697   0.122  0.4867  1.9634  1.8082
  347MOL0     H47847   5.321   4.574   0.137  1.0013  1.9378 -0.6176
  347MOL0     H47848   5.062   4.935   0.146 -0.7357  0.1382 -1.0365
  347MOL0     H47849   4.984   5.165   0.194 -0.6611 -0.2000 -0.8106
  347MOL0     H47850   4.597   5.363   0.324 -2.2112  0.0085  2.2095
  347MOL0     H47851   4.552   5.196   0.346 -2.1629  1.6959  0.5147
  347MOL0     H47852   4.583   5.365   0.570 -1.0798  1.5490 -2.9061
  347MOL0     H47853   4.624   5.193   0.582  2.1682 -0.0114 -0.2524
  347MOL0     H47854   4.821   5.421   0.560 -2.2076  1.6811  1.6135
  347MOL0     H47855   4.869   5.252   0.530 -1.2047  0.2957 -2.0334
  347MOL0     H47856   4.751   5.386   0.772  1.1010  2.2175 -0.7067
  347MOL0     H47857   4.916   5.339   0.752 -0.4239  1.0789 -0.9548
  347MOL0     H47858   4.697   5.121   0.780 -1.3727 -0.4591  3.9521
  347MOL0     H47859   4.869   5.096   0.760 -1.4159  0.7351 -3.0685
  347MOL0     H47860   4.759   5.256   0.993 -1.8906 -0.9510 -0.9147
  347MOL0     H47861   4.928   5.188   0.959  0.2202 -2.0010 -1.7146
  347MOL0     H47862   4.834   4.962   0.980  0.6695  0.8766 -1.4917
  347MOL0     H47863   4.674   5.028   1.019  0.2939 -1.2975  2.5805
  347MOL0     H47864   4.768   5.015   1.241  0.1784  0.3889  0.7532
  347MOL0     H47865   4.772   5.180   1.205  1.2648 -0.0268  2.6178
  347MOL0     H47866   4.662   5.000   0.425  0.9620  3.3325  0.9010
  347MOL0     H47867   4.762   4.785   0.407  2.3565  0.0814  1.4486
  347MOL0     H47868   4.823   4.339   0.167  1.8791 -1.8875  1.4397
  347MOL0     H47869   4.928   4.163   0.020  1.8729 -1.1834  1.0032
  347MOL0     H47870   5.497   3.489   0.364 -1.0154 -0.6848 -0.2631
  347MOL0     H47871   5.256   3.579   0.396  1.7992  0.3318  2.0659
  347MOL0     H47872   5.016   3.970   0.323 -0.2413 -1.2517 -0.3176
  347MOL0     H47873   4.805   4.099   0.368 -1.5833 -0.0147 -0.5944
  347MOL0     H47874   4.587   4.126   0.036 -0.1725  2.1854  0.0412
  347MOL0     H47875   4.443   4.099   0.120 -0.0820 -0.7384  0.4333
  347MOL0     H47876   4.497   4.362   0.079  1.4360 -0.4156 -1.2241
  347MOL0     H47877   4.591   4.352   0.225  0.3119  0.9570 -2.1367
  347MOL0     H47878   4.302   4.266   0.188 -0.2062  0.7982  0.4409
  347MOL0     H47879   4.385   4.298   0.347 -0.2682  0.7961  1.2021
  347MOL0     H47880   4.220   4.475   0.285  0.1172 -3.4297  1.5586
  347MOL0     H47881   4.262   4.475   0.119  0.4820 -0.4436 -0.3588
  347MOL0     H47882   4.495   4.781   0.297 -1.9232 -0.2007  5.3953
  347MOL0     H47883   4.610   3.866   0.071  3.5441  0.3200 -5.5805
  347MOL0     H47884   4.809   3.607   0.009 -2.8604 -1.1680 -0.2527
  347MOL0     H47885   4.668   3.707  -0.021 -0.9141 -1.1197  2.9607
  347MOL0     H47886   4.824   3.764  -0.090  0.0205  3.0105  2.5600
  348MOL0     O47887   2.694   3.476   7.758 -0.9536  0.4339  0.0885
  348MOL0     C47888   2.649   3.365   7.736  0.3279 -1.0410  1.3584
  348MOL0     O47889   2.561   3.304   7.819 -1.1866  0.2751 -0.0135
  348MOL0     C47890   2.526   3.356   7.941  1.2035  0.7335  0.4703
  348MOL0     C47891   2.615   3.390   8.042 -0.9320  0.3049  0.5385
  348MOL0     C47892   2.575   3.414   8.175 -0.3049 -0.4959  0.1068
  348MOL0     C47893   2.439   3.398   8.213  0.3046  0.1942  0.4210
  348MOL0     O47894   2.408   3.425   8.347  0.4895  0.6011  0.0345
  348MOL0     C47895   2.276   3.411   8.405 -0.0518  0.0738  0.1347
  348MOL0     C47896   2.275   3.404   8.561 -0.7152  0.8824  0.3207
  348MOL0     C47897   2.118   3.420   8.583  0.2179  0.0609  0.2288
  348MOL0     C47898   2.099   3.510   8.714 -0.6214  0.0409 -0.4227
  348MOL0     C47899   1.967   3.467   8.782  0.2404 -0.4469  0.5404
  348MOL0     C47900   1.930   3.526   8.919 -0.2496  0.0347  0.5483
  348MOL0     C47901   1.785   3.537   8.957  0.3306  0.1842 -0.9010
  348MOL0     C47902   1.776   3.622   9.084  0.0932 -0.0009  0.1598
  348MOL0     N47903   1.652   3.595   9.153 -0.0308 -0.5227 -0.2102
  348MOL0     C47904   1.532   3.667   9.138 -0.6147  0.5069 -0.1640
  348MOL0     C47905   1.444   3.589   9.204  0.8176  0.4554  0.0814
  348MOL0     C47906   1.300   3.630   9.229  0.6677  0.5774 -0.0069
  348MOL0     C47907   1.289   3.741   9.333 -0.6533  0.8033  0.4748
  348MOL0     C47908   1.338   3.716   9.473 -0.4439  0.4042 -0.4068
  348MOL0     C47909   1.277   3.583   9.526  0.3519  0.1635 -0.0214
  348MOL0     O47910   1.140   3.535   9.505 -0.1690 -0.3488 -0.0301
  348MOL0     C47911   1.101   3.419   9.565 -0.3480  0.0582 -0.4788
  348MOL0     C47912   0.964   3.397   9.569 -0.9904  0.1821 -0.4835
  348MOL0     C47913   0.928   3.279   9.626  0.2017  0.0143  0.4844
  348MOL0     C47914   0.779   3.255   9.619 -0.8844  0.5575 -0.6345
  348MOL0     C47915   1.020   3.189   9.684  1.0438 -0.1054  0.2141
  348MOL0     C47916   0.977   3.072   9.767  1.1162  1.0202 -0.6932
  348MOL0     O47917   1.079   2.983   9.807 -0.1851 -0.4875 -0.5563
  348MOL0     C47918   1.034   2.875   9.883 -0.3131  0.2789  0.8706
  348MOL0     C47919   0.936   2.785   9.829  0.3509  0.1772  0.4914
  348MOL0     C47920   0.888   2.675   9.900 -0.2067  0.7031 -0.9366
  348MOL0     C47921   0.933   2.646  10.033  0.4904 -0.4852 -1.0025
  348MOL0     O47922   0.905   2.536  10.105  0.2273  0.0720 -0.0310
  348MOL0     C47923   0.864   2.418  10.037 -1.4654  0.1804 -0.1282
  348MOL0     C47924   0.853   2.311  10.150  0.5140  0.7147 -0.1227
  348MOL0     C47925   0.731   2.344  10.235  0.4506  0.3686 -0.3135
  348MOL0     C47926   0.701   2.241  10.349  0.5139 -0.2479 -0.3147
  348MOL0     C47927   0.597   2.298  10.451  1.1034  0.0849 -0.3072
  348MOL0     C47928   0.559   2.189  10.563  0.0377  0.2282 -0.1505
  348MOL0     C47929   0.453   2.239  10.668  0.1588  0.8723 -1.6760
  348MOL0     C47930   0.318   2.288  10.616  0.4309 -0.3836  0.4733
  348MOL0    Cl47931   0.227   2.149  10.560 -0.5448 -0.0299 -0.0008
  348MOL0     C47932   1.034   2.734  10.086 -0.5326  0.1333  0.7757
  348MOL0     C47933   1.074   2.851  10.007 -0.3293  0.2872 -0.1981
  348MOL0     O47934   0.861   3.069   9.808 -1.0009  0.1926 -0.0716
  348MOL0     C47935   1.151   3.216   9.667  0.2780 -1.0993  0.0394
  348MOL0     C47936   1.199   3.330   9.612 -0.1918 -0.0891 -0.3164
  348MOL0     N47937   1.506   3.486   9.263 -0.1001 -0.0058  0.5347
  348MOL0     N47938   1.629   3.484   9.226 -0.9228  0.0584 -0.6641
  348MOL0     C47939   2.345   3.358   8.113 -0.5179  0.7511  1.1694
  348MOL0     C47940   2.393   3.332   7.976  0.0183 -0.1810 -0.2173
  348MOL0     C47941   2.695   3.282   7.625  0.4381  0.5241 -0.3594
  348MOL0     C47942   2.634   3.156   7.598  0.1488 -0.6005 -0.4611
  348MOL0     C47943   2.685   3.071   7.494  0.0593  0.3114 -0.1044
  348MOL0     C47944   2.797   3.105   7.424  0.3391 -0.2627  0.4019
  348MOL0     O47945   2.822   3.010   7.329 -0.5021 -0.0730  1.4245
  348MOL0     C47946   2.921   3.029   7.231 -0.8527 -0.3837  0.0831
  348MOL0     C47947   2.937   2.899   7.145 -0.2754 -0.9476  0.4531
  348MOL0     C47948   2.805   2.843   7.099  0.0900 -0.2828  0.4076
  348MOL0     C47949   2.688   2.937   7.046  0.8984  0.6958  0.1706
  348MOL0     C47950   2.728   3.033   6.946  0.2136 -0.7866  0.0626
  348MOL0     C47951   2.756   3.113   6.864  0.6518  0.3970 -0.1104
  348MOL0     C47952   2.860   3.223   7.459 -0.0522 -0.4266  0.3405
  348MOL0     C47953   2.809   3.314   7.546  0.1564  0.7917  0.2478
  348MOL0     C47954   2.888   3.451   7.556  0.6038  0.4099 -0.4988
  348MOL0     H47955   2.721   3.400   8.021 -1.2897 -1.4678 -2.6702
  348MOL0     H47956   2.650   3.431   8.252  2.6253 -1.1533 -2.4499
  348MOL0     H47957   2.222   3.322   8.371 -2.0142  0.7673  1.2995
  348MOL0     H47958   2.216   3.490   8.359  2.4933  0.2445 -3.3259
  348MOL0     H47959   2.309   3.311   8.607  0.1611  0.8461 -0.3859
  348MOL0     H47960   2.330   3.486   8.608  1.0096 -1.1883  2.0819
  348MOL0     H47961   2.059   3.475   8.509 -3.5049 -1.5332  1.7422
  348MOL0     H47962   2.065   3.325   8.574  2.6146 -1.0992 -3.4424
  348MOL0     H47963   2.179   3.492   8.786 -3.2076 -0.1476  2.6191
  348MOL0     H47964   2.099   3.615   8.683  3.8453  0.3059 -0.0601
  348MOL0     H47965   1.944   3.360   8.792 -2.0202 -0.3686 -2.4548
  348MOL0     H47966   1.896   3.503   8.707  1.4323  0.5765 -0.1403
  348MOL0     H47967   1.990   3.469   8.990  3.5332  0.0040 -2.3147
  348MOL0     H47968   1.968   3.628   8.917  0.8131 -0.3348 -1.6567
  348MOL0     H47969   1.729   3.444   8.951  0.1254  0.2536 -0.1858
  348MOL0     H47970   1.744   3.595   8.874 -2.3031  0.2273  0.3443
  348MOL0     H47971   1.854   3.596   9.156 -2.0703 -1.5248  2.1185
  348MOL0     H47972   1.792   3.728   9.061 -0.3514  0.6607  2.6060
  348MOL0     H47973   1.522   3.760   9.083 -1.8017  3.9211  5.1448
  348MOL0     H47974   1.248   3.541   9.267  1.9746 -0.1786  0.0739
  348MOL0     H47975   1.252   3.655   9.134  1.1147 -0.8991 -0.6587
  348MOL0     H47976   1.352   3.820   9.293 -0.5068  1.4716  1.9609
  348MOL0     H47977   1.187   3.778   9.346 -0.4130  1.1871  1.3203
  348MOL0     H47978   1.448   3.714   9.473 -0.3991  1.1501  1.5714
  348MOL0     H47979   1.312   3.798   9.540  0.1997 -1.3265  2.0923
  348MOL0     H47980   1.341   3.516   9.467  1.6033  0.4682  0.9444
  348MOL0     H47981   1.315   3.571   9.628 -0.1609  0.5254  0.2141
  348MOL0     H47982   0.899   3.471   9.524  1.5714  0.6399 -3.7560
  348MOL0     H47983   0.741   3.268   9.720 -0.3305 -1.5010 -0.1226
  348MOL0     H47984   0.761   3.152   9.587  2.6684  0.0986 -1.6197
  348MOL0     H47985   0.733   3.324   9.548 -2.1427 -1.5101 -1.9273
  348MOL0     H47986   0.893   2.809   9.732  0.2513 -1.8619 -0.0116
  348MOL0     H47987   0.817   2.607   9.854 -1.5905  1.3365  0.1696
  348MOL0     H47988   0.769   2.425   9.983 -0.4247  3.2249 -1.7390
  348MOL0     H47989   0.938   2.379   9.967 -0.5502 -0.4180  1.1231
  348MOL0     H47990   0.848   2.216  10.097 -2.2212  0.3624  0.6376
  348MOL0     H47991   0.946   2.300  10.207  1.0203  3.4065 -0.2660
  348MOL0     H47992   0.641   2.357  10.175 -0.5077  2.7948  1.5281
  348MOL0     H47993   0.751   2.443  10.276  1.4917  0.7953 -1.7477
  348MOL0     H47994   0.789   2.221  10.412  0.5244 -2.2899 -0.9030
  348MOL0     H47995   0.664   2.144  10.316 -0.4887  0.4233 -1.2343
  348MOL0     H47996   0.641   2.388  10.496 -0.2530  0.6751 -0.1080
  348MOL0     H47997   0.498   2.321  10.410 -0.5177  1.3930  3.7634
  348MOL0     H47998   0.653   2.153  10.607  0.3117 -0.3016 -1.1343
  348MOL0     H47999   0.513   2.100  10.518  0.6720  0.7884 -2.0114
  348MOL0     H48000   0.499   2.304  10.742  2.5864 -1.3922 -1.0466
  348MOL0     H48001   0.431   2.148  10.725  1.3504  0.4408 -1.8776
  348MOL0     H48002   0.331   2.360  10.535  1.3713  0.7853  1.6258
  348MOL0     H48003   0.264   2.332  10.701  1.6247  0.7595  0.6673
  348MOL0     H48004   1.089   2.715  10.178 -0.8261 -1.8891  0.5910
  348MOL0     H48005   1.148   2.903  10.068 -2.4309 -0.4299  3.2539
  348MOL0     H48006   1.223   3.148   9.712  1.3401 -0.3143 -0.4264
  348MOL0     H48007   1.306   3.343   9.606 -0.1600 -0.9103 -1.9140
  348MOL0     H48008   2.237   3.356   8.129 -0.7960 -1.2557 -0.4687
  348MOL0     H48009   2.333   3.297   7.893 -1.0736  1.9088 -0.3663
  348MOL0     H48010   2.547   3.112   7.646  0.1680  0.1724  0.3083
  348MOL0     H48011   2.632   2.981   7.463  0.7279 -0.8494  1.9026
  348MOL0     H48012   2.902   3.117   7.169  2.6745 -1.0276 -2.1783
  348MOL0     H48013   3.010   3.058   7.288 -2.1419 -3.7245  4.3672
  348MOL0     H48014   2.982   2.821   7.207  0.6490  1.2232  2.6830
  348MOL0     H48015   3.002   2.918   7.060  0.5093  2.2919  1.6249
  348MOL0     H48016   2.809   2.755   7.034  1.3582 -0.3350  0.5381
  348MOL0     H48017   2.769   2.807   7.196  0.3434  1.6611  1.2780
  348MOL0     H48018   2.654   2.989   7.136  1.5872  1.9325 -0.2620
  348MOL0     H48019   2.611   2.868   7.009  1.5520  0.2630 -0.4063
  348MOL0     H48020   2.791   3.194   6.803 -1.0287  2.8685  2.0289
  348MOL0     H48021   2.955   3.233   7.408  0.8611 -0.4113  1.9498
  348MOL0     H48022   2.967   3.449   7.631 -0.6388 -0.7771  0.8472
  348MOL0     H48023   2.916   3.474   7.453  0.1506  0.4924 -0.6089
  348MOL0     H48024   2.826   3.536   7.587 -2.8253 -2.8053  2.5374
  349MOL0     O48025   9.252   4.605   5.794 -0.1415 -0.3453 -0.6153
  349MOL0     C48026   9.367   4.566   5.786 -0.8659  0.7134  0.0709
  349MOL0     O48027   9.418   4.510   5.676  0.0675  0.0243 -1.2764
  349MOL0     C48028   9.338   4.512   5.562 -0.1591 -0.5188 -0.3974
  349MOL0     C48029   9.259   4.400   5.530  0.4581 -0.5944 -0.7049
  349MOL0     C48030   9.167   4.400   5.429  0.9219 -0.4171  0.4023
  349MOL0     C48031   9.154   4.522   5.355 -0.5315  1.1140  0.1088
  349MOL0     O48032   9.066   4.510   5.252 -0.1914 -0.1076  0.1663
  349MOL0     C48033   9.041   4.631   5.180 -0.6784  0.1481  0.1070
  349MOL0     C48034   8.927   4.605   5.088 -0.0440 -0.9353  0.2633
  349MOL0     C48035   8.818   4.704   5.077  0.9073 -0.4533 -0.2572
  349MOL0     C48036   8.714   4.655   4.978  0.1230  0.3422 -0.1912
  349MOL0     C48037   8.616   4.761   4.924  0.3999 -1.2365 -0.0756
  349MOL0     C48038   8.541   4.842   5.021 -0.6953 -0.5163 -0.3258
  349MOL0     C48039   8.471   4.956   4.956  1.1099  0.1361  0.5420
  349MOL0     C48040   8.385   5.035   5.048  0.4995  0.5477 -0.4239
  349MOL0     N48041   8.444   5.106   5.152 -1.1112 -0.8205 -0.2375
  349MOL0     C48042   8.560   5.175   5.138 -0.0550  0.2574 -0.4810
  349MOL0     C48043   8.618   5.177   5.260 -0.2167 -1.0319 -1.0494
  349MOL0     C48044   8.752   5.240   5.284 -0.0613 -0.2025 -0.4967
  349MOL0     C48045   8.864   5.177   5.206  1.0458 -0.3096  0.9485
  349MOL0     C48046   8.986   5.262   5.242 -0.5548  1.3181  0.8005
  349MOL0     C48047   9.118   5.222   5.175  0.4555 -0.2770 -0.1646
  349MOL0     O48048   9.185   5.347   5.147 -0.2753  0.8601 -0.1826
  349MOL0     C48049   9.305   5.334   5.102  1.4475  0.3874  0.9154
  349MOL0     C48050   9.347   5.438   5.015 -0.2732 -0.7643 -1.0472
  349MOL0     C48051   9.461   5.432   4.940  0.6978 -0.8444 -0.0135
  349MOL0     C48052   9.476   5.545   4.838 -0.0504 -0.9014  0.3239
  349MOL0     C48053   9.551   5.333   4.962  0.0785  0.6816 -0.3289
  349MOL0     C48054   9.677   5.317   4.900  0.6276  0.1384 -0.6775
  349MOL0     O48055   9.713   5.412   4.808  0.0398 -0.7757 -0.2664
  349MOL0     C48056   9.841   5.403   4.765 -0.3154 -0.9911  0.6745
  349MOL0     C48057   9.940   5.465   4.846  0.5655  0.7844  0.3080
  349MOL0     C48058  10.082   5.461   4.809 -0.7915 -0.5466  0.5916
  349MOL0     C48059  10.108   5.403   4.685 -0.5007  0.1153  0.0502
  349MOL0     O48060  10.233   5.375   4.640 -1.3952 -0.2082 -0.6707
  349MOL0     C48061  10.348   5.456   4.685  0.0044 -0.0690  0.1353
  349MOL0     C48062  10.478   5.374   4.646  0.9345 -0.1265 -0.3319
  349MOL0     C48063  10.495   5.237   4.715 -0.4689 -0.5725 -0.0606
  349MOL0     C48064  10.432   5.118   4.643 -1.0171  0.8829 -1.1746
  349MOL0     C48065  10.354   5.023   4.740 -1.0386  0.6406  0.3608
  349MOL0     C48066  10.209   5.074   4.762 -0.4486 -0.0375 -0.4839
  349MOL0     C48067  10.113   4.967   4.824  0.5191 -1.0588 -0.0458
  349MOL0     C48068  10.013   5.039   4.914  0.2016 -0.9826 -0.5783
  349MOL0    Cl48069  10.093   5.160   5.025  0.1310 -0.0988 -0.2440
  349MOL0     C48070  10.009   5.336   4.608 -0.2514  0.6419 -0.0736
  349MOL0     C48071   9.874   5.337   4.646  0.4690 -0.0440  0.4563
  349MOL0     O48072   9.749   5.230   4.960  0.4545  0.0674 -0.2938
  349MOL0     C48073   9.522   5.237   5.065  0.5569 -0.0364 -0.2685
  349MOL0     C48074   9.395   5.230   5.120  0.4989  0.7490 -0.6424
  349MOL0     N48075   8.539   5.104   5.345 -0.1848  0.0220  1.1082
  349MOL0     N48076   8.434   5.065   5.276 -0.1539  0.8473 -0.5260
  349MOL0     C48077   9.243   4.636   5.372 -0.2828  0.8396 -0.3882
  349MOL0     C48078   9.322   4.620   5.485 -0.5007 -0.7783  0.5569
  349MOL0     C48079   9.449   4.575   5.908 -1.1388  0.4664  0.8485
  349MOL0     C48080   9.585   4.620   5.882  0.1700 -0.0633  1.4365
  349MOL0     C48081   9.679   4.634   5.993 -0.6271 -0.5748  0.6789
  349MOL0     C48082   9.631   4.616   6.133  0.0803  0.2423  0.7060
  349MOL0     O48083   9.723   4.598   6.229  0.2182 -0.7672  0.0572
  349MOL0     C48084   9.692   4.647   6.367 -0.7749 -0.2789 -0.7973
  349MOL0     C48085   9.693   4.804   6.371  0.2748 -0.5833  0.8572
  349MOL0     C48086   9.827   4.852   6.312  0.2968  0.6196 -1.0584
  349MOL0     C48087   9.890   4.993   6.344 -0.5404 -0.0965  0.3605
  349MOL0     C48088   9.800   5.100   6.328  0.4867 -0.9236 -1.0617
  349MOL0     C48089   9.715   5.191   6.323 -0.4324  0.2701  0.5203
  349MOL0     C48090   9.501   4.572   6.147  0.6491  0.7595  0.1004
  349MOL0     C48091   9.412   4.556   6.041 -0.8071  0.1739 -0.0765
  349MOL0     C48092   9.279   4.500   6.084 -0.7814  0.1248 -0.0769
  349MOL0     H48093   9.263   4.313   5.595  0.0795  1.0940  1.7172
  349MOL0     H48094   9.105   4.314   5.406  0.3337  0.0223  0.3066
  349MOL0     H48095   9.125   4.664   5.118 -1.5461  0.3908 -0.9833
  349MOL0     H48096   9.013   4.716   5.244 -0.7975  1.5535 -1.7086
  349MOL0     H48097   8.967   4.566   4.994  0.3524 -1.3584  0.6046
  349MOL0     H48098   8.876   4.513   5.119 -0.4117 -1.0208 -0.5429
  349MOL0     H48099   8.773   4.715   5.176  0.9825  2.4448 -0.4360
  349MOL0     H48100   8.853   4.805   5.050 -1.2281  0.8590  1.5603
  349MOL0     H48101   8.764   4.609   4.892 -0.4681 -0.8871  0.1113
  349MOL0     H48102   8.669   4.569   5.028  3.0856 -0.9738  0.4803
  349MOL0     H48103   8.537   4.713   4.865 -2.7495  2.4504  0.7382
  349MOL0     H48104   8.674   4.832   4.863 -0.6316 -0.5966 -0.3453
  349MOL0     H48105   8.479   4.775   5.081 -0.6101  0.0893  0.4521
  349MOL0     H48106   8.605   4.890   5.095 -0.8280  1.5323 -1.4552
  349MOL0     H48107   8.404   4.913   4.882 -3.0098  0.7962  3.5259
  349MOL0     H48108   8.548   5.019   4.911  1.9835  0.3528  2.2511
  349MOL0     H48109   8.313   5.099   4.995 -0.3874  0.9720  1.2260
  349MOL0     H48110   8.316   4.965   5.096  0.8048  0.0766 -0.6588
  349MOL0     H48111   8.600   5.220   5.048 -1.1210  1.4666 -0.3901
  349MOL0     H48112   8.768   5.227   5.392  0.1560 -0.5229 -0.5672
  349MOL0     H48113   8.754   5.345   5.252  2.6360  0.5799  1.7411
  349MOL0     H48114   8.875   5.071   5.229  1.8841 -0.0339  1.8572
  349MOL0     H48115   8.823   5.185   5.104  1.9130  0.1032  0.6218
  349MOL0     H48116   8.959   5.366   5.225  0.0348  1.5164  1.0800
  349MOL0     H48117   9.015   5.260   5.347 -1.8005 -2.7550  1.2550
  349MOL0     H48118   9.161   5.154   5.250 -0.2827 -0.2774  0.2685
  349MOL0     H48119   9.085   5.174   5.082 -2.6029  1.3639 -0.0447
  349MOL0     H48120   9.285   5.527   5.014 -2.0081 -1.9460 -2.2314
  349MOL0     H48121   9.409   5.631   4.854  2.3796  0.9569  1.2750
  349MOL0     H48122   9.471   5.505   4.736  2.5274 -1.9618  0.5209
  349MOL0     H48123   9.570   5.596   4.865 -0.7923  0.8321 -0.2316
  349MOL0     H48124   9.924   5.490   4.950  4.9307 -1.8752  1.8704
  349MOL0     H48125  10.155   5.496   4.881  2.1002 -5.0071  0.2178
  349MOL0     H48126  10.340   5.556   4.642 -1.3501  0.1219  0.7900
  349MOL0     H48127  10.359   5.462   4.793 -0.8063  0.3695  0.1963
  349MOL0     H48128  10.466   5.368   4.537  1.9978  2.8458 -0.6951
  349MOL0     H48129  10.557   5.444   4.674  0.2249  0.1095  1.1926
  349MOL0     H48130  10.464   5.242   4.820 -2.3413 -1.0427 -0.5642
  349MOL0     H48131  10.604   5.222   4.715 -0.0822  1.8456  0.6168
  349MOL0     H48132  10.514   5.062   4.598 -1.6314  1.4167 -3.0648
  349MOL0     H48133  10.366   5.137   4.558 -3.4711 -2.0593 -0.1188
  349MOL0     H48134  10.368   4.928   4.686  2.7026  1.7386 -0.9286
  349MOL0     H48135  10.409   5.022   4.834  0.2839 -0.8411 -0.3808
  349MOL0     H48136  10.156   5.091   4.668  0.9248  0.8085 -1.1273
  349MOL0     H48137  10.204   5.169   4.815 -0.8730  0.8258 -2.0172
  349MOL0     H48138  10.169   4.905   4.894 -0.2010 -1.1529  0.4611
  349MOL0     H48139  10.049   4.913   4.753 -3.2548 -1.0166  3.0020
  349MOL0     H48140   9.974   4.974   4.992  1.3647  0.4405  1.2710
  349MOL0     H48141   9.931   5.091   4.863  0.3662  0.5730  0.6531
  349MOL0     H48142  10.012   5.272   4.520 -4.2533  0.4336 -0.2122
  349MOL0     H48143   9.804   5.277   4.589  1.7095 -1.6856  0.5647
  349MOL0     H48144   9.592   5.162   5.098 -1.3217 -2.4306 -1.4113
  349MOL0     H48145   9.367   5.149   5.186 -0.4660 -0.3313 -2.3058
  349MOL0     H48146   9.230   4.728   5.315 -1.7231 -0.0655 -1.5854
  349MOL0     H48147   9.385   4.702   5.518 -2.1649 -0.4232  3.1114
  349MOL0     H48148   9.622   4.618   5.780 -2.7455 -3.5629  0.2151
  349MOL0     H48149   9.784   4.660   5.986 -0.6355 -0.1514  1.9247
  349MOL0     H48150   9.599   4.598   6.397  0.0724 -1.3439  0.1905
  349MOL0     H48151   9.765   4.606   6.437  0.5036 -0.8491 -2.4080
  349MOL0     H48152   9.683   4.832   6.477 -2.3033 -3.0991  1.4173
  349MOL0     H48153   9.603   4.839   6.321 -1.0586 -3.2906  1.1740
  349MOL0     H48154   9.901   4.774   6.334 -1.3410 -1.5890 -2.8866
  349MOL0     H48155   9.820   4.847   6.203  0.5714  2.9234 -1.2426
  349MOL0     H48156   9.966   5.006   6.266 -0.5155 -1.0219  0.2180
  349MOL0     H48157   9.933   4.987   6.444 -1.2608 -0.9546  0.6355
  349MOL0     H48158   9.640   5.267   6.331 -1.3576 -0.7607  2.5579
  349MOL0     H48159   9.471   4.531   6.243  1.8020 -0.3338  0.0101
  349MOL0     H48160   9.299   4.409   6.141  0.7172  1.2007  1.2062
  349MOL0     H48161   9.232   4.570   6.154 -2.4579  1.5912 -2.5542
  349MOL0     H48162   9.210   4.470   6.005 -0.9031 -0.9742  0.4210
  350MOL0     O48163   1.495   4.501   9.846  0.6399 -0.5832 -0.3790
  350MOL0     C48164   1.553   4.592   9.894  0.3118 -0.6498 -0.0169
  350MOL0     O48165   1.652   4.658   9.827  0.1359 -0.4775  0.2263
  350MOL0     C48166   1.730   4.620   9.714  0.3359  0.0107 -0.3770
  350MOL0     C48167   1.738   4.489   9.665  0.0148 -0.0468  0.5040
  350MOL0     C48168   1.816   4.465   9.547  0.0058 -0.2699  0.4314
  350MOL0     C48169   1.893   4.564   9.492  0.1421  1.1633 -0.6540
  350MOL0     O48170   1.974   4.541   9.389  0.0041  0.1080 -0.0302
  350MOL0     C48171   1.930   4.457   9.283  0.7872  0.1198  0.3596
  350MOL0     C48172   1.978   4.312   9.303 -0.1868 -0.0245  0.3811
  350MOL0     C48173   1.932   4.200   9.196 -0.6398 -0.5049  0.0435
  350MOL0     C48174   1.993   4.232   9.058  0.6293 -1.1741  0.6793
  350MOL0     C48175   2.155   4.229   9.048 -0.2624  0.1048  0.2316
  350MOL0     C48176   2.203   4.274   8.915 -0.6355  0.7571 -0.5593
  350MOL0     C48177   2.353   4.299   8.904 -0.3234  0.2632 -0.0410
  350MOL0     C48178   2.393   4.385   8.790  0.3107  0.3076  0.3736
  350MOL0     N48179   2.353   4.532   8.805  0.1312  0.0214  0.5206
  350MOL0     C48180   2.438   4.640   8.774 -0.3510 -0.1308  0.4838
  350MOL0     C48181   2.357   4.732   8.719 -0.1465  0.8403 -0.3430
  350MOL0     C48182   2.399   4.873   8.672 -0.6792 -0.0473  0.3742
  350MOL0     C48183   2.341   4.992   8.756  0.5575 -0.4304  0.3620
  350MOL0     C48184   2.428   5.023   8.870  0.1857 -0.5641 -0.6463
  350MOL0     C48185   2.373   5.134   8.955  0.1915  0.6842  0.1104
  350MOL0     O48186   2.252   5.093   9.026  0.2119  0.1728  0.3897
  350MOL0     C48187   2.215   5.189   9.113  0.1971  0.1949 -1.0948
  350MOL0     C48188   2.118   5.152   9.212 -0.4880  0.3759  0.4807
  350MOL0     C48189   2.055   5.239   9.305 -0.4428 -0.3770  0.0171
  350MOL0     C48190   1.944   5.171   9.379 -0.7127  0.9987 -0.6719
  350MOL0     C48191   2.096   5.379   9.302 -0.5315  0.3310  1.1770
  350MOL0     C48192   2.047   5.486   9.393  0.1114  0.1479 -0.0555
  350MOL0     O48193   2.065   5.616   9.352  1.1842 -0.1836 -1.0092
  350MOL0     C48194   2.039   5.723   9.436  0.4158 -0.0005 -0.4146
  350MOL0     C48195   1.902   5.749   9.446 -1.1041 -0.6751 -0.9135
  350MOL0     C48196   1.856   5.856   9.524  0.7792 -0.2972  0.1081
  350MOL0     C48197   1.948   5.935   9.597 -1.2770  0.1558  0.0363
  350MOL0     O48198   1.918   6.047   9.675  0.6546 -0.8562 -1.2848
  350MOL0     C48199   1.792   6.090   9.682 -0.4059 -0.1197 -0.3587
  350MOL0     C48200   1.771   6.178   9.810 -0.9215  0.0615  0.5264
  350MOL0     C48201   1.657   6.286   9.791  0.2535 -0.6874 -0.0719
  350MOL0     C48202   1.619   6.344   9.926 -0.0085 -0.3046  1.0891
  350MOL0     C48203   1.494   6.436   9.936  0.1461  0.6972  0.6073
  350MOL0     C48204   1.509   6.556  10.042  0.7900  0.3616 -0.3299
  350MOL0     C48205   1.512   6.513  10.184  0.5104 -1.2023  0.5514
  350MOL0     C48206   1.567   6.621  10.279 -0.4318 -0.1775 -0.3413
  350MOL0    Cl48207   1.499   6.789  10.256  0.4640 -0.8441 -0.1785
  350MOL0     C48208   2.081   5.924   9.569 -0.2134 -0.8942  0.1489
  350MOL0     C48209   2.129   5.813   9.496 -0.4786  0.0513 -0.0381
  350MOL0     O48210   2.003   5.459   9.505 -0.2427  0.1416  0.6590
  350MOL0     C48211   2.192   5.414   9.201  0.4183 -0.8544  0.3093
  350MOL0     C48212   2.240   5.328   9.108 -0.3172 -0.2043  0.5805
  350MOL0     N48213   2.226   4.690   8.737  0.1662 -0.3017 -0.5439
  350MOL0     N48214   2.221   4.565   8.787  0.0088 -1.0570 -0.3806
  350MOL0     C48215   1.902   4.691   9.548  0.1209  0.2913 -0.1854
  350MOL0     C48216   1.825   4.710   9.663  0.6125 -1.2486  0.4627
  350MOL0     C48217   1.489   4.666  10.004 -0.8160 -0.6988  0.1448
  350MOL0     C48218   1.474   4.812   9.992  0.7283  0.5771  0.2160
  350MOL0     C48219   1.423   4.887  10.101  0.6634 -0.2170  0.4087
  350MOL0     C48220   1.374   4.823  10.208 -0.2068 -0.4402  0.4770
  350MOL0     O48221   1.328   4.885  10.315  0.0584  0.3720  0.1541
  350MOL0     C48222   1.418   4.975  10.371  0.2719  0.4377  0.4347
  350MOL0     C48223   1.385   5.020  10.519  0.4925 -0.0300 -0.0938
  350MOL0     C48224   1.415   4.901  10.616 -0.1845  0.8273  0.2791
  350MOL0     C48225   1.320   4.874  10.728 -0.2184  0.2867  0.7140
  350MOL0     C48226   1.312   4.999  10.818 -0.7675  0.1712  0.0732
  350MOL0     C48227   1.306   5.093  10.895 -0.2073 -0.1426  0.2667
  350MOL0     C48228   1.375   4.684  10.214  0.1434  0.8949  0.3120
  350MOL0     C48229   1.436   4.601  10.115 -0.6885  0.6376 -0.1126
  350MOL0     C48230   1.440   4.453  10.149  0.3569  0.1708  0.0187
  350MOL0     H48231   1.680   4.409   9.708  2.6917 -3.5196 -1.7468
  350MOL0     H48232   1.820   4.368   9.500  2.7950  0.3267 -0.7226
  350MOL0     H48233   1.973   4.506   9.195 -1.5025  4.0619  1.1936
  350MOL0     H48234   1.823   4.457   9.260  1.3029 -1.5293 -2.5765
  350MOL0     H48235   2.087   4.316   9.300 -0.1704 -0.8280 -1.1150
  350MOL0     H48236   1.957   4.266   9.400 -1.1715 -1.3853 -0.4333
  350MOL0     H48237   1.971   4.104   9.229 -2.0730 -1.2155 -0.2619
  350MOL0     H48238   1.823   4.190   9.201 -0.7393 -0.9367 -2.1252
  350MOL0     H48239   1.951   4.170   8.978  1.3723 -0.4371 -0.2968
  350MOL0     H48240   1.971   4.333   9.022  1.4738 -1.0702  0.4268
  350MOL0     H48241   2.182   4.127   9.075 -4.7511 -1.7003 -1.2713
  350MOL0     H48242   2.193   4.303   9.119 -0.6477  2.4313 -1.8255
  350MOL0     H48243   2.164   4.204   8.840 -1.5624 -0.3859  0.9365
  350MOL0     H48244   2.141   4.363   8.898 -3.0607 -0.9024 -0.9860
  350MOL0     H48245   2.391   4.197   8.890  0.4653  0.2918  1.7316
  350MOL0     H48246   2.392   4.334   9.000 -1.5348  2.0144 -0.1535
  350MOL0     H48247   2.502   4.379   8.796  0.2348  0.4226  2.7619
  350MOL0     H48248   2.349   4.344   8.698 -0.6922  2.0123  0.0488
  350MOL0     H48249   2.547   4.644   8.775 -0.3062  4.0229 -0.9224
  350MOL0     H48250   2.353   4.886   8.573  1.6904 -0.7026 -0.8815
  350MOL0     H48251   2.508   4.882   8.677 -0.8325  2.1878  0.9751
  350MOL0     H48252   2.337   5.083   8.695 -2.0612 -1.9006 -1.8697
  350MOL0     H48253   2.239   4.971   8.788  0.1781 -0.5939 -0.9027
  350MOL0     H48254   2.450   4.944   8.942 -1.1105  1.0702  1.6667
  350MOL0     H48255   2.522   5.057   8.825  0.1755  1.0154  0.4203
  350MOL0     H48256   2.452   5.139   9.032 -0.3666 -2.4995  1.0507
  350MOL0     H48257   2.367   5.218   8.886  0.7742 -1.2340 -2.4094
  350MOL0     H48258   2.097   5.046   9.217  0.4558  0.1556  0.0310
  350MOL0     H48259   1.858   5.237   9.389 -3.6404 -2.7134  1.0806
  350MOL0     H48260   1.974   5.157   9.484 -1.7224  0.2511 -0.4739
  350MOL0     H48261   1.928   5.071   9.339  3.6955 -0.5789  0.9026
  350MOL0     H48262   1.828   5.676   9.415 -0.1834 -2.3384  0.6260
  350MOL0     H48263   1.748   5.869   9.528  0.6364  1.1202 -3.6828
  350MOL0     H48264   1.768   6.150   9.593  2.8028 -1.0433 -1.9847
  350MOL0     H48265   1.722   6.007   9.697  0.2074  0.0128  5.0342
  350MOL0     H48266   1.744   6.104   9.887 -0.3689 -0.4655  0.2237
  350MOL0     H48267   1.861   6.233   9.840  1.8077 -2.3576 -2.5173
  350MOL0     H48268   1.572   6.245   9.735  1.9243 -3.2332 -0.9024
  350MOL0     H48269   1.699   6.363   9.726 -0.6210  0.4625  0.7013
  350MOL0     H48270   1.714   6.393   9.946  0.9486 -1.0032 -1.4295
  350MOL0     H48271   1.603   6.262   9.997 -4.2913 -1.1248 -0.5016
  350MOL0     H48272   1.488   6.487   9.839  4.4318  2.4213  1.0302
  350MOL0     H48273   1.407   6.372   9.954 -0.2939  0.8132 -0.9366
  350MOL0     H48274   1.414   6.610  10.027  1.7681  3.1392  2.4233
  350MOL0     H48275   1.585   6.629  10.013  2.2034  1.1642  4.5591
  350MOL0     H48276   1.568   6.419  10.185 -0.2330 -1.7960 -2.7443
  350MOL0     H48277   1.410   6.478  10.201  0.4863 -1.1466  0.5220
  350MOL0     H48278   1.675   6.631  10.285 -0.5610  2.5027 -1.4479
  350MOL0     H48279   1.527   6.589  10.376  1.9116  0.5542  0.9337
  350MOL0     H48280   2.151   5.999   9.602 -1.7266 -0.0943  1.7177
  350MOL0     H48281   2.236   5.816   9.474 -0.4090  0.2647  0.3116
  350MOL0     H48282   2.220   5.519   9.199 -0.1115 -0.6909  1.1151
  350MOL0     H48283   2.295   5.369   9.024  1.1455 -0.9493  1.1240
  350MOL0     H48284   1.963   4.767   9.501 -1.4249  2.2856  0.8747
  350MOL0     H48285   1.810   4.811   9.697 -3.4014 -0.5772 -2.4991
  350MOL0     H48286   1.496   4.871   9.904  0.4526  1.2683  0.6014
  350MOL0     H48287   1.427   4.995  10.087 -0.1207  0.2617  3.2687
  350MOL0     H48288   1.524   4.948  10.377  0.0305 -0.8376 -0.7503
  350MOL0     H48289   1.406   5.064  10.308 -0.0499  0.9347  1.1746
  350MOL0     H48290   1.276   5.036  10.522 -0.2421 -4.1355  1.0249
  350MOL0     H48291   1.442   5.105  10.557 -1.3665  0.5844  1.5120
  350MOL0     H48292   1.427   4.809  10.558 -0.1314  1.1890 -0.2955
  350MOL0     H48293   1.514   4.916  10.661 -0.4934 -0.3211  1.4026
  350MOL0     H48294   1.364   4.790  10.782  1.6766  0.5011 -0.3951
  350MOL0     H48295   1.222   4.851  10.686  0.5588 -1.1769 -0.3782
  350MOL0     H48296   1.285   5.178  10.956 -1.6601 -1.2546  1.4037
  350MOL0     H48297   1.326   4.644  10.302 -1.7342  0.4529 -0.8864
  350MOL0     H48298   1.513   4.401  10.087 -0.3312  1.1767 -1.6991
  350MOL0     H48299   1.478   4.428  10.249  4.1636 -0.5355 -1.4437
  350MOL0     H48300   1.344   4.405  10.130  0.1064  0.9689 -0.8117
  351MOL0     O48301   0.069   4.761   2.967  0.5760 -0.2292 -0.6406
  351MOL0     C48302   0.098   4.757   2.848 -0.0821  0.1112  0.2293
  351MOL0     O48303   0.225   4.777   2.800 -1.0848  0.6624  0.6640
  351MOL0     C48304   0.326   4.795   2.888  0.0267 -0.6280  0.0291
  351MOL0     C48305   0.424   4.879   2.854 -0.3230  0.0604 -0.2308
  351MOL0     C48306   0.533   4.899   2.940  0.3716 -0.9404 -1.2967
  351MOL0     C48307   0.547   4.827   3.056 -0.6620 -0.7208  0.6847
  351MOL0     O48308   0.650   4.839   3.143  0.3938  0.5981 -0.2804
  351MOL0     C48309   0.639   4.961   3.219 -0.0969  0.9731 -0.4895
  351MOL0     C48310   0.720   4.921   3.341  0.2423  0.4242  0.2454
  351MOL0     C48311   0.720   5.024   3.446 -0.2142 -0.3998  0.2961
  351MOL0     C48312   0.844   5.020   3.540  0.4953 -0.1976  0.3937
  351MOL0     C48313   0.839   4.917   3.646  0.0580  1.2123 -0.3846
  351MOL0     C48314   0.786   4.991   3.776 -0.7716  0.4032  0.0484
  351MOL0     C48315   0.787   4.887   3.903  0.7286 -0.8915 -0.1769
  351MOL0     C48316   0.723   4.751   3.895 -0.2042  0.0317 -0.4382
  351MOL0     N48317   0.671   4.698   4.019  0.8495 -0.4817 -0.2721
  351MOL0     C48318   0.550   4.631   4.041 -0.1394  0.4546  1.0957
  351MOL0     C48319   0.542   4.607   4.170  0.5147 -0.6441  0.0498
  351MOL0     C48320   0.424   4.538   4.232 -0.9463 -0.2560  0.5346
  351MOL0     C48321   0.461   4.449   4.357 -0.0889  0.7196  0.4860
  351MOL0     C48322   0.552   4.331   4.302 -0.5610  0.5497 -0.8255
  351MOL0     C48323   0.635   4.264   4.407 -0.3010 -0.1057 -0.2498
  351MOL0     O48324   0.712   4.354   4.493  0.0048  0.1620 -0.7469
  351MOL0     C48325   0.846   4.336   4.513  0.4320 -1.1020 -0.5038
  351MOL0     C48326   0.922   4.450   4.493 -0.2911 -0.3288 -0.9048
  351MOL0     C48327   1.059   4.460   4.530  0.0748 -0.3945  0.4123
  351MOL0     C48328   1.122   4.589   4.528 -0.1994 -0.6489 -0.0189
  351MOL0     C48329   1.126   4.346   4.584  0.6338  0.0897 -0.0670
  351MOL0     C48330   1.259   4.347   4.655  0.7325  0.9110 -0.1440
  351MOL0     O48331   1.316   4.219   4.680 -0.1563 -0.8036  0.2483
  351MOL0     C48332   1.429   4.192   4.757 -0.3456  0.5252  0.1747
  351MOL0     C48333   1.465   4.055   4.767 -0.3937 -0.2891 -0.7444
  351MOL0     C48334   1.568   4.016   4.860 -0.1131 -0.2259  0.6173
  351MOL0     C48335   1.634   4.113   4.935 -0.1473 -0.0918  0.3146
  351MOL0     O48336   1.755   4.089   5.003  0.3644  0.4501  0.3135
  351MOL0     C48337   1.764   3.964   5.070 -0.5051  0.6960 -0.9726
  351MOL0     C48338   1.683   3.939   5.202  0.6526  0.4382  1.5438
  351MOL0     C48339   1.539   3.903   5.181 -0.0964 -0.4602 -0.7400
  351MOL0     C48340   1.439   4.023   5.220 -0.6946  0.1058  0.5529
  351MOL0     C48341   1.420   4.052   5.367 -0.4426  0.5406 -1.4435
  351MOL0     C48342   1.305   4.159   5.385 -0.3994  1.9199 -1.3547
  351MOL0     C48343   1.296   4.203   5.533  0.9749  0.3781  0.1796
  351MOL0     C48344   1.292   4.089   5.632  0.4112 -0.0382  0.4628
  351MOL0    Cl48345   1.451   4.081   5.699  0.3972  0.1405 -0.4789
  351MOL0     C48346   1.610   4.249   4.917  0.0763 -0.3659  0.3918
  351MOL0     C48347   1.502   4.292   4.836  0.6784  0.0243  0.2389
  351MOL0     O48348   1.316   4.452   4.678 -0.0353 -0.1627 -0.7031
  351MOL0     C48349   1.046   4.226   4.583 -1.0287 -0.1591  1.3684
  351MOL0     C48350   0.909   4.218   4.555  0.3322 -1.1940  0.4979
  351MOL0     N48351   0.656   4.654   4.230  0.4301  0.1011 -0.2022
  351MOL0     N48352   0.737   4.707   4.135 -0.0137 -0.1180 -0.0025
  351MOL0     C48353   0.447   4.729   3.080  0.6552 -0.7622 -1.0103
  351MOL0     C48354   0.342   4.700   2.993  0.8457 -0.6013  0.2033
  351MOL0     C48355  -0.002   4.730   2.741 -0.4121 -0.1078  0.6824
  351MOL0     C48356   0.022   4.768   2.603 -0.4417  0.2400 -0.7865
  351MOL0     C48357  -0.075   4.744   2.513  1.2866 -0.4911 -0.4208
  351MOL0     C48358  -0.209   4.701   2.547 -0.0486  0.1819 -0.2679
  351MOL0     O48359  -0.306   4.681   2.451 -1.3353  0.3236  0.0227
  351MOL0     C48360  -0.287   4.708   2.312  1.1305  1.2365 -0.2215
  351MOL0     C48361  -0.423   4.738   2.250  0.8851  0.6492  0.2566
  351MOL0     C48362  -0.405   4.750   2.096  0.3451  0.3058 -0.4169
  351MOL0     C48363  -0.537   4.776   2.029  0.4550 -0.0639 -0.0637
  351MOL0     C48364  -0.650   4.691   2.052  1.0933  1.1588 -0.5920
  351MOL0     C48365  -0.746   4.618   2.073 -0.1407  0.4394 -0.1574
  351MOL0     C48366  -0.234   4.667   2.677  0.3703  0.4312  0.3189
  351MOL0     C48367  -0.134   4.683   2.778 -0.0922 -0.8300 -0.0868
  351MOL0     C48368  -0.176   4.647   2.913 -0.2175  0.1326 -0.0156
  351MOL0     H48369   0.417   4.940   2.765 -2.1120  1.9750  1.1332
  351MOL0     H48370   0.610   4.965   2.903 -2.4349  3.0091 -0.7468
  351MOL0     H48371   0.537   4.988   3.251 -0.5070  0.3163 -1.2165
  351MOL0     H48372   0.686   5.049   3.176  3.1698 -1.3066 -1.9768
  351MOL0     H48373   0.698   4.830   3.398  2.2806 -0.0977  0.3130
  351MOL0     H48374   0.823   4.904   3.307 -0.4489  0.8184 -2.1703
  351MOL0     H48375   0.717   5.120   3.393 -1.8397 -0.5561  0.0522
  351MOL0     H48376   0.628   5.007   3.504 -2.1707 -2.2198 -3.0647
  351MOL0     H48377   0.933   4.995   3.482  0.2024  2.3448 -1.3130
  351MOL0     H48378   0.851   5.123   3.576 -0.9808  0.4501 -1.0372
  351MOL0     H48379   0.940   4.890   3.678  0.8991  0.7146 -3.1931
  351MOL0     H48380   0.786   4.826   3.618  0.4317  1.2406 -1.2108
  351MOL0     H48381   0.855   5.074   3.793 -1.4936  0.7646  1.3452
  351MOL0     H48382   0.687   5.031   3.751 -0.0660  2.1379 -0.0869
  351MOL0     H48383   0.731   4.933   3.985  3.1395 -1.1321  1.7068
  351MOL0     H48384   0.892   4.871   3.927  1.3700  0.3974 -1.9100
  351MOL0     H48385   0.636   4.754   3.828 -2.1153  2.6362  1.9212
  351MOL0     H48386   0.790   4.674   3.855  2.0024  3.0033 -2.9533
  351MOL0     H48387   0.474   4.604   3.968  0.7548  1.7122 -0.3475
  351MOL0     H48388   0.374   4.480   4.153 -1.2668  0.8470 -0.0942
  351MOL0     H48389   0.357   4.615   4.269 -0.3481  0.6531 -0.2391
  351MOL0     H48390   0.524   4.504   4.428  0.8193 -2.3527  2.2576
  351MOL0     H48391   0.369   4.420   4.409 -1.9935  3.6515 -0.9894
  351MOL0     H48392   0.486   4.251   4.265 -0.3780 -0.5161  1.0215
  351MOL0     H48393   0.614   4.377   4.224 -2.4387  0.9588 -2.1544
  351MOL0     H48394   0.568   4.201   4.466 -0.0948 -0.3572 -0.2841
  351MOL0     H48395   0.709   4.202   4.356 -1.5915 -0.1419 -2.1603
  351MOL0     H48396   0.863   4.530   4.447 -0.4227  1.1802  1.7116
  351MOL0     H48397   1.111   4.640   4.624  2.2487 -2.0164  1.0765
  351MOL0     H48398   1.081   4.650   4.446 -0.1359 -0.0578  0.3797
  351MOL0     H48399   1.229   4.588   4.505 -0.8181 -1.0020 -3.3988
  351MOL0     H48400   1.410   3.982   4.709  0.6143 -1.0241 -0.8100
  351MOL0     H48401   1.584   3.909   4.870  0.9008 -0.0779  0.6224
  351MOL0     H48402   1.729   3.881   5.009 -0.8459 -0.5344  0.8240
  351MOL0     H48403   1.871   3.951   5.088 -0.9944 -0.0915  1.9345
  351MOL0     H48404   1.735   3.857   5.252  2.9745  0.6321 -0.3591
  351MOL0     H48405   1.683   4.031   5.261 -2.7364  2.9327 -1.8405
  351MOL0     H48406   1.525   3.833   5.264 -0.4810  0.3563 -0.1064
  351MOL0     H48407   1.527   3.856   5.083 -0.6637  1.4043 -1.6090
  351MOL0     H48408   1.347   3.983   5.177  0.7453 -1.4756 -1.2723
  351MOL0     H48409   1.468   4.117   5.174 -0.2981 -0.1702  0.2292
  351MOL0     H48410   1.388   3.959   5.415  1.0355  1.5350  1.7356
  351MOL0     H48411   1.514   4.086   5.411 -0.3926  0.3804 -1.4230
  351MOL0     H48412   1.209   4.128   5.342 -1.5824  0.4642  1.9653
  351MOL0     H48413   1.329   4.251   5.333  0.7292  2.9961  0.9298
  351MOL0     H48414   1.198   4.252   5.539  0.7195 -0.3102  2.7999
  351MOL0     H48415   1.373   4.277   5.556 -0.0824  0.9036  2.2253
  351MOL0     H48416   1.270   3.992   5.586  0.4555 -0.3399  1.0547
  351MOL0     H48417   1.211   4.102   5.704 -0.0889 -0.6131  0.0048
  351MOL0     H48418   1.661   4.328   4.972 -5.3079  1.3116  3.8055
  351MOL0     H48419   1.483   4.399   4.839 -3.6764 -0.5577  3.1998
  351MOL0     H48420   1.084   4.129   4.613  1.1388 -0.3590 -1.5926
  351MOL0     H48421   0.852   4.129   4.581 -2.1727 -0.7160 -2.7883
  351MOL0     H48422   0.447   4.671   3.172 -3.6974  0.3055 -0.1224
  351MOL0     H48423   0.267   4.624   3.017  0.1092 -0.2262 -0.8557
  351MOL0     H48424   0.116   4.818   2.584  0.9076  0.7472  5.2248
  351MOL0     H48425  -0.047   4.778   2.414  0.4928 -1.2846 -0.9394
  351MOL0     H48426  -0.216   4.787   2.287  2.3614 -1.0729 -5.2965
  351MOL0     H48427  -0.244   4.613   2.282  4.3146  2.2078  0.8823
  351MOL0     H48428  -0.469   4.829   2.288  2.3390  0.9860  1.3311
  351MOL0     H48429  -0.484   4.651   2.276  0.6205  0.7916  0.1089
  351MOL0     H48430  -0.339   4.837   2.085 -0.4903  0.8386 -1.3574
  351MOL0     H48431  -0.353   4.667   2.048  1.9686  0.8474  0.3332
  351MOL0     H48432  -0.523   4.777   1.921  2.5855 -2.4610  0.0962
  351MOL0     H48433  -0.572   4.875   2.059 -0.9367 -1.0302  1.7229
  351MOL0     H48434  -0.830   4.554   2.091  0.8461 -0.6694  0.7187
  351MOL0     H48435  -0.332   4.631   2.708  0.5965  0.2055  0.7738
  351MOL0     H48436  -0.107   4.585   2.971  0.1659 -0.0465 -0.6590
  351MOL0     H48437  -0.177   4.740   2.971 -3.4929 -0.4789  1.0881
  351MOL0     H48438  -0.273   4.598   2.913  0.1434 -0.5981 -0.6236
  352MOL0     O48439   2.136   3.904   3.592 -0.3239 -0.5546 -0.5271
  352MOL0     C48440   2.170   4.023   3.581 -0.1384  0.4991  0.1021
  352MOL0     O48441   2.080   4.126   3.574  0.6637 -0.5776 -0.5006
  352MOL0     C48442   1.992   4.142   3.677  0.4500  0.3455  0.5547
  352MOL0     C48443   1.974   4.054   3.789  0.1474 -0.1003  0.8304
  352MOL0     C48444   1.873   4.084   3.880 -0.0095  0.7850  0.1287
  352MOL0     C48445   1.774   4.183   3.865 -0.4039  0.9077  0.0575
  352MOL0     O48446   1.667   4.182   3.943  0.1862 -0.2048  0.3073
  352MOL0     C48447   1.566   4.277   3.932  0.6406 -1.3565  0.3197
  352MOL0     C48448   1.481   4.296   4.062 -0.3933 -0.2391  0.2560
  352MOL0     C48449   1.393   4.167   4.077  0.5472 -0.1952  0.5710
  352MOL0     C48450   1.317   4.174   4.216 -0.4234 -0.5535 -0.0418
  352MOL0     C48451   1.217   4.292   4.227 -0.0269 -0.7185 -0.6360
  352MOL0     C48452   1.115   4.285   4.116 -0.5980 -0.1940  0.2882
  352MOL0     C48453   1.005   4.391   4.135 -0.7003 -0.3489  0.1117
  352MOL0     C48454   0.910   4.368   4.023 -0.2308  0.3727 -0.0254
  352MOL0     N48455   0.954   4.384   3.878 -0.3246  0.4760  0.1154
  352MOL0     C48456   0.986   4.500   3.818  0.0961 -0.5623 -0.6222
  352MOL0     C48457   1.023   4.466   3.694  0.2959  0.0601 -0.0209
  352MOL0     C48458   1.076   4.549   3.582 -0.2035  0.4337  0.2932
  352MOL0     C48459   0.967   4.576   3.486  0.4422 -0.7886  0.5353
  352MOL0     C48460   0.996   4.681   3.372 -0.0019 -0.3590 -0.5973
  352MOL0     C48461   1.121   4.633   3.292 -0.3242 -0.7725 -0.1758
  352MOL0     O48462   1.126   4.698   3.167 -0.2755 -0.3192  0.1440
  352MOL0     C48463   1.219   4.797   3.134 -0.3385  0.3417 -0.0328
  352MOL0     C48464   1.223   4.839   3.000  0.3012  0.6411  0.0481
  352MOL0     C48465   1.299   4.953   2.962  0.6603 -0.1630  0.5753
  352MOL0     C48466   1.276   4.998   2.811 -0.0274  0.5261  0.4265
  352MOL0     C48467   1.362   5.033   3.057  0.3086  0.6722 -0.0606
  352MOL0     C48468   1.432   5.163   3.020 -0.2871 -0.5943  0.0050
  352MOL0     O48469   1.467   5.242   3.140 -0.6236 -0.6803 -0.1600
  352MOL0     C48470   1.518   5.377   3.120  0.2227  0.9726 -0.9765
  352MOL0     C48471   1.640   5.393   3.047 -0.3590  0.0924 -0.7027
  352MOL0     C48472   1.670   5.522   2.992  0.3994  1.2003 -0.5054
  352MOL0     C48473   1.598   5.638   3.034  0.1906  0.8845  0.4409
  352MOL0     O48474   1.634   5.765   3.008  0.3053 -0.0286  0.0776
  352MOL0     C48475   1.758   5.806   3.061 -0.3803 -0.0125 -0.2381
  352MOL0     C48476   1.791   5.954   3.028 -0.2202 -0.5422 -0.1884
  352MOL0     C48477   1.797   5.978   2.876 -0.6390 -0.0205  0.7210
  352MOL0     C48478   1.934   5.968   2.798  1.2552 -0.2626 -0.3441
  352MOL0     C48479   2.026   6.093   2.820 -0.8251  0.1732 -0.2819
  352MOL0     C48480   2.167   6.062   2.767  1.2723  0.0045 -0.6980
  352MOL0     C48481   2.246   6.188   2.754 -0.3524  0.3065  0.1361
  352MOL0     C48482   2.393   6.153   2.723 -0.3988  0.0957 -0.3471
  352MOL0    Cl48483   2.486   6.045   2.833 -0.0727  0.4048 -0.7231
  352MOL0     C48484   1.485   5.617   3.112  0.5834 -0.6066 -0.4521
  352MOL0     C48485   1.443   5.491   3.152 -0.3246 -0.0516  0.0849
  352MOL0     O48486   1.462   5.195   2.905  0.0954 -0.0901  0.3990
  352MOL0     C48487   1.357   4.992   3.190 -0.6701 -0.4380 -0.5700
  352MOL0     C48488   1.292   4.871   3.227 -0.8647 -0.3130 -0.9723
  352MOL0     N48489   1.020   4.334   3.689 -0.0524 -1.0058 -0.0068
  352MOL0     N48490   0.988   4.279   3.797  1.1153 -0.3759  0.1722
  352MOL0     C48491   1.794   4.264   3.755  0.2131 -0.6015  0.1187
  352MOL0     C48492   1.893   4.244   3.661 -0.8684 -0.1773  0.1174
  352MOL0     C48493   2.310   4.044   3.529  0.3088  0.0568 -0.3984
  352MOL0     C48494   2.345   4.161   3.462 -0.1192  0.5832 -0.0549
  352MOL0     C48495   2.474   4.183   3.407 -0.4621 -0.3833  0.3497
  352MOL0     C48496   2.580   4.088   3.426  0.3787  0.3729  1.9033
  352MOL0     O48497   2.706   4.100   3.367  0.6154  0.2113  0.3266
  352MOL0     C48498   2.729   4.193   3.262  0.5225  0.4223 -0.8172
  352MOL0     C48499   2.877   4.227   3.238 -0.3308 -0.3379  0.0490
  352MOL0     C48500   2.954   4.243   3.370 -0.7758 -0.0160  0.6493
  352MOL0     C48501   2.906   4.364   3.453  0.5168 -0.1458  0.6385
  352MOL0     C48502   2.959   4.487   3.392 -0.0030 -0.1799  0.9102
  352MOL0     C48503   2.998   4.595   3.346 -0.2011  0.8934 -0.0089
  352MOL0     C48504   2.540   3.968   3.496 -0.5243  0.4982  0.6725
  352MOL0     C48505   2.411   3.950   3.547 -0.4787 -0.5617  0.7271
  352MOL0     C48506   2.392   3.825   3.636 -0.1075  0.1988 -0.4889
  352MOL0     H48507   2.049   3.977   3.801 -2.1349 -2.3981  1.1948
  352MOL0     H48508   1.868   4.021   3.968  2.0179  0.7399  0.2483
  352MOL0     H48509   1.499   4.242   3.853 -0.5628 -1.5777  1.4179
  352MOL0     H48510   1.608   4.373   3.900  2.0232 -1.8941  0.4156
  352MOL0     H48511   1.539   4.307   4.154  0.1355  2.6699 -0.3266
  352MOL0     H48512   1.433   4.394   4.065  1.5510  0.7986 -1.1415
  352MOL0     H48513   1.326   4.160   3.991 -0.1899 -6.0432  1.2399
  352MOL0     H48514   1.449   4.073   4.081 -0.3755 -0.7459  0.8140
  352MOL0     H48515   1.249   4.089   4.230 -1.7230  0.6790  1.6000
  352MOL0     H48516   1.373   4.186   4.309 -1.2928  0.8544  0.3431
  352MOL0     H48517   1.254   4.395   4.224 -1.7803 -0.0888 -1.6535
  352MOL0     H48518   1.166   4.286   4.324 -0.5656  2.6104 -0.5764
  352MOL0     H48519   1.153   4.300   4.015 -1.1314  2.5873  0.4226
  352MOL0     H48520   1.061   4.191   4.133 -1.9188  0.8745  2.5587
  352MOL0     H48521   1.037   4.496   4.133  0.4470 -0.6812  0.3350
  352MOL0     H48522   0.968   4.377   4.238 -1.8393  0.5200 -0.1571
  352MOL0     H48523   0.883   4.262   4.030  0.4614  0.1440 -0.6305
  352MOL0     H48524   0.815   4.421   4.031 -2.0402 -1.7330 -4.3379
  352MOL0     H48525   0.978   4.598   3.864 -2.0579 -0.9700 -0.0267
  352MOL0     H48526   1.157   4.493   3.534  0.3819  0.1303  1.6005
  352MOL0     H48527   1.112   4.645   3.621 -3.9192  1.7349  0.9994
  352MOL0     H48528   0.941   4.476   3.451 -0.5144 -1.1351  2.1446
  352MOL0     H48529   0.882   4.629   3.530  1.8230  2.1721 -0.0834
  352MOL0     H48530   0.916   4.683   3.297 -0.1064  1.0752 -0.4728
  352MOL0     H48531   1.003   4.783   3.410 -0.4062 -0.4315 -0.3214
  352MOL0     H48532   1.213   4.645   3.350  0.2387 -2.1925 -0.7352
  352MOL0     H48533   1.114   4.529   3.260 -1.1508  0.3449 -4.3167
  352MOL0     H48534   1.146   4.794   2.938  1.8558  1.1996 -2.4439
  352MOL0     H48535   1.369   4.982   2.756 -1.1706 -1.5983 -1.0392
  352MOL0     H48536   1.244   5.102   2.804 -0.6204  0.2820 -0.6042
  352MOL0     H48537   1.204   4.927   2.768  3.4869 -0.6364 -4.3460
  352MOL0     H48538   1.706   5.311   3.017  1.0208  0.0966  2.0324
  352MOL0     H48539   1.762   5.541   2.939  0.5630 -2.0064 -1.6044
  352MOL0     H48540   1.759   5.785   3.168 -1.8191  0.8735 -0.0265
  352MOL0     H48541   1.839   5.748   3.016 -0.3549 -0.9579  0.9829
  352MOL0     H48542   1.710   6.009   3.077 -1.0194 -0.7688 -1.2235
  352MOL0     H48543   1.881   5.979   3.086 -1.1097  0.6204  0.7477
  352MOL0     H48544   1.755   6.075   2.846  2.2954  0.5246 -2.1578
  352MOL0     H48545   1.739   5.902   2.823 -0.8554  1.5694 -1.4366
  352MOL0     H48546   1.898   5.961   2.695 -0.9527 -1.0677  0.4148
  352MOL0     H48547   1.987   5.878   2.831 -1.4016 -0.8439  2.8790
  352MOL0     H48548   1.993   6.176   2.757  1.3822  0.9807 -0.4710
  352MOL0     H48549   2.020   6.131   2.922  1.7322  1.9700 -0.7055
  352MOL0     H48550   2.171   6.000   2.677 -0.3803  0.2431 -0.9670
  352MOL0     H48551   2.218   5.999   2.841 -0.3516  0.3466  0.7681
  352MOL0     H48552   2.256   6.239   2.850  0.3868  3.5151 -1.4929
  352MOL0     H48553   2.209   6.266   2.686  1.5329 -1.8592 -3.6976
  352MOL0     H48554   2.445   6.249   2.731 -1.5801  0.8769 -1.4828
  352MOL0     H48555   2.391   6.116   2.620 -0.7881  0.6026 -0.5281
  352MOL0     H48556   1.422   5.702   3.138 -1.0842 -1.7758 -0.4898
  352MOL0     H48557   1.345   5.503   3.198 -0.5486 -0.1114 -0.3685
  352MOL0     H48558   1.396   5.043   3.277 -1.6584  1.2418 -1.0546
  352MOL0     H48559   1.305   4.853   3.333 -0.2719  2.0714 -0.6032
  352MOL0     H48560   1.728   4.348   3.741  1.0609  0.1885  0.7417
  352MOL0     H48561   1.901   4.300   3.569  0.4483 -0.7859 -0.1686
  352MOL0     H48562   2.268   4.235   3.446 -1.1130 -0.4958 -0.4108
  352MOL0     H48563   2.496   4.270   3.346  0.5152 -2.2341 -2.1078
  352MOL0     H48564   2.684   4.166   3.166 -0.4349  3.7720 -1.4240
  352MOL0     H48565   2.690   4.291   3.290  1.0399  0.5516 -0.5352
  352MOL0     H48566   2.890   4.317   3.177 -2.0161  1.0354  1.6395
  352MOL0     H48567   2.929   4.146   3.186 -1.0868  0.9571 -2.9467
  352MOL0     H48568   2.954   4.158   3.439 -1.3058  2.3431  3.7926
  352MOL0     H48569   3.058   4.244   3.337 -0.6324 -0.5977  1.0631
  352MOL0     H48570   2.940   4.353   3.556  1.9216  3.5475  0.7190
  352MOL0     H48571   2.798   4.374   3.462  0.4439  0.2039 -0.4617
  352MOL0     H48572   3.031   4.682   3.293 -2.1527 -0.8591 -4.7173
  352MOL0     H48573   2.628   3.905   3.498 -1.1549 -0.3774  2.0314
  352MOL0     H48574   2.312   3.761   3.596 -0.1678  1.0941 -1.8633
  352MOL0     H48575   2.483   3.766   3.649 -1.6191 -1.7668  1.8882
  352MOL0     H48576   2.357   3.861   3.733  1.1288  0.1232 -0.0066
  353MOL0     O48577   4.705   1.127   4.594 -0.0323 -0.4914  0.4343
  353MOL0     C48578   4.766   1.038   4.533 -0.7966 -0.1655  1.2364
  353MOL0     O48579   4.814   0.932   4.588 -0.1977  0.2853 -0.1817
  353MOL0     C48580   4.777   0.898   4.710 -0.5641 -0.6405 -0.3973
  353MOL0     C48581   4.867   0.908   4.810  0.6041  0.9228  0.7873
  353MOL0     C48582   4.830   0.856   4.938  0.2841 -0.2549  0.4270
  353MOL0     C48583   4.694   0.825   4.968 -0.3516 -0.9318  0.1086
  353MOL0     O48584   4.674   0.805   5.097  0.6276 -0.3075 -0.3565
  353MOL0     C48585   4.587   0.893   5.169 -0.0821  0.2684  0.7561
  353MOL0     C48586   4.670   1.024   5.207  1.0382 -1.0359 -0.0075
  353MOL0     C48587   4.803   0.987   5.285  0.7962  0.5622 -0.0926
  353MOL0     C48588   4.893   1.112   5.307 -0.2585  0.6457  0.3291
  353MOL0     C48589   5.033   1.073   5.354 -0.1204  0.0518  0.0097
  353MOL0     C48590   5.031   1.023   5.501  0.5568  0.2286 -0.6509
  353MOL0     C48591   5.177   1.026   5.566  0.8551  0.8609  0.5677
  353MOL0     C48592   5.173   0.964   5.706  0.3568 -0.1782  0.3740
  353MOL0     N48593   5.129   0.823   5.705  0.7764 -0.5950  0.6514
  353MOL0     C48594   5.199   0.706   5.660 -0.6613 -0.7479  0.3008
  353MOL0     C48595   5.126   0.603   5.701 -0.2334  0.0198 -0.0818
  353MOL0     C48596   5.153   0.461   5.672  0.7497 -0.3509  0.9943
  353MOL0     C48597   5.170   0.380   5.799  0.6693  0.0043 -0.5279
  353MOL0     C48598   5.298   0.382   5.873 -2.0136  0.6293  0.5229
  353MOL0     C48599   5.322   0.270   5.959  0.5185  1.4085 -0.7618
  353MOL0     O48600   5.392   0.162   5.889 -0.3687 -0.5735 -0.4579
  353MOL0     C48601   5.522   0.150   5.873 -0.3430 -0.6638  0.2563
  353MOL0     C48602   5.574   0.042   5.793  0.5793  0.9567 -0.6122
  353MOL0     C48603   5.704   0.034   5.745 -0.3875 -0.2748  0.4629
  353MOL0     C48604   5.754  -0.087   5.663  0.4044 -0.0747  1.1733
  353MOL0     C48605   5.790   0.144   5.793  0.3874  0.2732  0.7393
  353MOL0     C48606   5.927   0.145   5.742  0.7375  0.6634 -0.1335
  353MOL0     O48607   6.007   0.235   5.796  0.4152 -0.7755 -0.9474
  353MOL0     C48608   6.095   0.301   5.709  0.1035  0.9299 -0.9627
  353MOL0     C48609   6.037   0.377   5.605  0.0608 -0.2568  0.1349
  353MOL0     C48610   6.121   0.449   5.526  0.3473 -1.2059 -0.2305
  353MOL0     C48611   6.256   0.457   5.549 -1.4550 -0.3572  0.1416
  353MOL0     O48612   6.322   0.550   5.469  0.1135 -0.4004 -0.9429
  353MOL0     C48613   6.444   0.613   5.520  0.0148  0.2279  0.8607
  353MOL0     C48614   6.577   0.541   5.483  0.0937  0.1851  0.8816
  353MOL0     C48615   6.628   0.588   5.348  0.4271 -0.0097 -0.2882
  353MOL0     C48616   6.772   0.624   5.345 -0.1068  0.0858 -0.3201
  353MOL0     C48617   6.854   0.626   5.208 -0.1814 -0.3106 -0.1218
  353MOL0     C48618   7.003   0.637   5.249 -0.3631 -0.0300  1.0983
  353MOL0     C48619   7.084   0.619   5.109  1.0987  0.0845 -0.0334
  353MOL0     C48620   7.244   0.616   5.143  0.0580 -0.9084  0.1847
  353MOL0    Cl48621   7.331   0.647   4.983  0.2496  0.4728 -0.2156
  353MOL0     C48622   6.315   0.376   5.649 -0.9742 -0.6128 -0.2608
  353MOL0     C48623   6.231   0.302   5.731 -0.3745  0.2970  0.4425
  353MOL0     O48624   5.966   0.073   5.650 -0.0875 -0.2045  0.3598
  353MOL0     C48625   5.749   0.246   5.874  0.0521  0.1066  1.0967
  353MOL0     C48626   5.619   0.246   5.918 -0.0740 -0.4280 -0.2669
  353MOL0     N48627   5.017   0.648   5.765 -0.9277  0.8195 -0.4989
  353MOL0     N48628   5.016   0.777   5.767  0.0037 -0.3995 -0.7451
  353MOL0     C48629   4.604   0.833   4.864  0.4397 -0.1395  0.1194
  353MOL0     C48630   4.642   0.860   4.733 -0.0939  0.4672 -0.3067
  353MOL0     C48631   4.790   1.054   4.379 -0.1700  0.6182 -0.1091
  353MOL0     C48632   4.844   0.941   4.305 -0.2312 -0.6405  0.3770
  353MOL0     C48633   4.863   0.944   4.165 -0.2961  0.5020  0.9029
  353MOL0     C48634   4.826   1.053   4.097 -0.5585 -0.3442  0.5037
  353MOL0     O48635   4.848   1.068   3.957 -0.4787  0.3409 -0.2564
  353MOL0     C48636   4.917   0.980   3.864  0.2647  1.3185 -0.2268
  353MOL0     C48637   4.814   0.901   3.795  0.7111  0.0720 -0.7018
  353MOL0     C48638   4.763   0.789   3.884 -0.3108 -0.6633  0.0733
  353MOL0     C48639   4.651   0.707   3.826 -0.2693  0.6525 -0.5224
  353MOL0     C48640   4.651   0.674   3.683  0.1661  0.6176 -0.0619
  353MOL0     C48641   4.629   0.642   3.568  0.4875 -0.4881 -0.5929
  353MOL0     C48642   4.784   1.161   4.166  0.6118  0.5809 -0.2682
  353MOL0     C48643   4.765   1.171   4.304  0.5167  0.1538  0.2345
  353MOL0     C48644   4.712   1.300   4.368 -0.0938 -0.1978 -0.2241
  353MOL0     H48645   4.973   0.924   4.795  0.7409  2.2183  2.7125
  353MOL0     H48646   4.900   0.853   5.021 -0.4007  3.3430  1.3197
  353MOL0     H48647   4.543   0.826   5.243  0.1117  0.1984  0.8097
  353MOL0     H48648   4.507   0.931   5.105  2.4294  3.1405 -0.9820
  353MOL0     H48649   4.687   1.072   5.110 -0.3415 -1.2498 -0.3872
  353MOL0     H48650   4.607   1.085   5.273  0.8674 -2.0479  0.7893
  353MOL0     H48651   4.773   0.943   5.380 -0.0226  0.1904 -0.5122
  353MOL0     H48652   4.857   0.912   5.225  0.4382  0.8668 -0.8143
  353MOL0     H48653   4.902   1.147   5.204  1.3234  1.9201  0.8634
  353MOL0     H48654   4.857   1.199   5.363  2.7250 -0.6998  4.7888
  353MOL0     H48655   5.092   1.165   5.346  0.6299 -0.5471 -2.3074
  353MOL0     H48656   5.083   1.002   5.288 -1.1279  1.1160 -2.0032
  353MOL0     H48657   4.979   1.103   5.554  0.6887  0.0108 -0.1871
  353MOL0     H48658   4.983   0.927   5.521  0.8234  0.3243  0.5278
  353MOL0     H48659   5.211   1.130   5.562 -0.8431  1.4001 -0.9104
  353MOL0     H48660   5.244   0.979   5.493  1.2855  1.3799  0.6261
  353MOL0     H48661   5.263   0.991   5.762 -0.9739  2.6330  1.3466
  353MOL0     H48662   5.108   1.028   5.766  2.9758  1.3680  1.7908
  353MOL0     H48663   5.284   0.722   5.595 -0.6241 -0.1476  0.4903
  353MOL0     H48664   5.242   0.459   5.609 -0.4386 -0.9585 -0.7534
  353MOL0     H48665   5.061   0.423   5.626  1.2295 -1.7385  1.1136
  353MOL0     H48666   5.093   0.413   5.869 -1.3093 -3.1050 -1.0587
  353MOL0     H48667   5.152   0.276   5.770  0.9843  0.5553 -2.9011
  353MOL0     H48668   5.380   0.382   5.801 -0.5737 -1.2982  2.0444
  353MOL0     H48669   5.314   0.472   5.933 -3.7028  0.8107  0.7341
  353MOL0     H48670   5.374   0.298   6.050 -1.2822  0.8578  0.5036
  353MOL0     H48671   5.218   0.247   5.985  0.6273  1.8557  0.0929
  353MOL0     H48672   5.507  -0.037   5.761 -0.2333 -0.3506  3.7499
  353MOL0     H48673   5.673  -0.158   5.645 -0.2751  1.3304 -2.1716
  353MOL0     H48674   5.845  -0.133   5.702 -0.0306 -1.5893  0.4644
  353MOL0     H48675   5.779  -0.052   5.562  0.4929 -0.2163  1.1460
  353MOL0     H48676   5.930   0.381   5.586  0.2004 -3.2474 -2.0159
  353MOL0     H48677   6.070   0.513   5.456  1.6904  4.6069  3.3635
  353MOL0     H48678   6.444   0.715   5.482 -0.0822 -0.2490 -0.4634
  353MOL0     H48679   6.435   0.613   5.629 -1.2196  0.9370  0.7768
  353MOL0     H48680   6.649   0.563   5.562 -0.3275  1.9146  0.8284
  353MOL0     H48681   6.559   0.433   5.482  1.2720 -0.0328 -0.8598
  353MOL0     H48682   6.576   0.682   5.325 -1.7760 -0.3294  2.6919
  353MOL0     H48683   6.610   0.511   5.273 -0.0967 -1.8107  1.5912
  353MOL0     H48684   6.828   0.551   5.404 -1.3443  1.3440  2.6058
  353MOL0     H48685   6.782   0.723   5.391 -0.4836  0.1258 -0.3253
  353MOL0     H48686   6.839   0.535   5.150  0.9262 -0.2550 -0.5205
  353MOL0     H48687   6.822   0.719   5.159  2.0790  1.6823  1.8778
  353MOL0     H48688   7.034   0.551   5.308 -0.2681 -0.8771 -0.1298
  353MOL0     H48689   7.022   0.726   5.308  1.6575  0.2278  0.1478
  353MOL0     H48690   7.068   0.695   5.032  1.7457 -0.0171 -0.2816
  353MOL0     H48691   7.062   0.520   5.069 -0.7550 -0.0830  1.3014
  353MOL0     H48692   7.274   0.532   5.206  1.1225  0.8133  2.0822
  353MOL0     H48693   7.260   0.706   5.203 -1.4003 -0.9390  0.6668
  353MOL0     H48694   6.422   0.367   5.669 -0.8891 -1.6988 -1.1419
  353MOL0     H48695   6.269   0.251   5.819  0.9082 -2.6329 -1.6626
  353MOL0     H48696   5.810   0.326   5.914 -0.5703  0.2704  1.7342
  353MOL0     H48697   5.582   0.318   5.991 -0.4487  2.1693 -2.8496
  353MOL0     H48698   4.497   0.827   4.880  0.7974 -1.7697  2.2236
  353MOL0     H48699   4.572   0.848   4.651 -0.8530  0.6546  0.3048
  353MOL0     H48700   4.876   0.860   4.369 -1.0582  0.1968  1.9100
  353MOL0     H48701   4.905   0.857   4.115 -1.8389 -1.0579  2.1824
  353MOL0     H48702   4.973   1.051   3.803  0.8739  1.6875  0.7367
  353MOL0     H48703   4.985   0.911   3.915  0.5350  0.5774 -1.5342
  353MOL0     H48704   4.874   0.866   3.710 -2.6380 -1.2230 -2.7453
  353MOL0     H48705   4.726   0.956   3.760 -0.4268 -0.1091  1.7106
  353MOL0     H48706   4.851   0.726   3.897 -0.5315 -0.4452  3.5235
  353MOL0     H48707   4.752   0.815   3.990  1.0789 -5.1961  1.5535
  353MOL0     H48708   4.560   0.759   3.857  0.4710  1.7082 -0.0691
  353MOL0     H48709   4.653   0.607   3.870  0.4617  0.4696 -0.9518
  353MOL0     H48710   4.626   0.614   3.464 -3.4003  2.0284 -1.3360
  353MOL0     H48711   4.746   1.242   4.105  2.4423  1.2809 -0.5346
  353MOL0     H48712   4.603   1.297   4.365 -0.2045  1.8604  0.6408
  353MOL0     H48713   4.762   1.317   4.464 -2.5105 -0.3968  1.1370
  353MOL0     H48714   4.742   1.384   4.305  0.5899 -0.6774 -0.5585
  354MOL0     O48715   8.386   1.312  10.228  0.2744  0.5489 -0.0653
  354MOL0     C48716   8.385   1.378  10.332  0.2437 -0.2110  0.1381
  354MOL0     O48717   8.430   1.510  10.345 -0.2056  0.0666 -0.0520
  354MOL0     C48718   8.519   1.548  10.249  0.6867  0.0756  0.4775
  354MOL0     C48719   8.479   1.612  10.137  0.3305  0.2417 -0.6729
  354MOL0     C48720   8.562   1.651  10.044  0.0316  0.0543  0.0471
  354MOL0     C48721   8.704   1.620  10.052  0.2130 -1.1753 -0.3267
  354MOL0     O48722   8.794   1.669   9.960  0.4300 -0.4343 -0.0227
  354MOL0     C48723   8.781   1.803   9.903 -0.2991  0.6647  0.1707
  354MOL0     C48724   8.801   1.813   9.751 -0.1185 -0.4301  0.2527
  354MOL0     C48725   8.782   1.681   9.676  0.1762 -0.1372  1.0007
  354MOL0     C48726   8.753   1.712   9.526 -0.4584 -0.9751  0.0760
  354MOL0     C48727   8.872   1.678   9.423  0.2364  0.2510 -1.4588
  354MOL0     C48728   8.982   1.775   9.463 -0.5615  0.4920 -0.2522
  354MOL0     C48729   9.106   1.759   9.363 -0.6047 -0.3491 -0.4008
  354MOL0     C48730   9.078   1.791   9.218  0.2861  0.2749 -0.3189
  354MOL0     N48731   9.192   1.754   9.135  0.2990 -0.8949 -0.6031
  354MOL0     C48732   9.260   1.638   9.131 -1.0700 -0.2607 -0.4170
  354MOL0     C48733   9.367   1.667   9.054 -0.8465 -0.8022 -0.2447
  354MOL0     C48734   9.479   1.573   9.026  0.8197  1.4267 -0.0021
  354MOL0     C48735   9.614   1.652   9.038 -0.2363  0.1968 -0.9484
  354MOL0     C48736   9.734   1.558   9.065 -0.0362  1.5430  0.0763
  354MOL0     C48737   9.875   1.634   9.058 -0.5702  0.4990 -0.1664
  354MOL0     O48738   9.988   1.540   9.074  0.1267  0.3232  0.5944
  354MOL0     C48739  10.019   1.460   8.962  0.8065 -0.0432 -0.7810
  354MOL0     C48740   9.951   1.473   8.837  0.3700  0.8467  1.0014
  354MOL0     C48741   9.982   1.382   8.732 -0.0369  0.2802  0.4106
  354MOL0     C48742   9.889   1.362   8.620  0.3953  0.5244 -0.0564
  354MOL0     C48743  10.099   1.307   8.741 -0.0839  0.2196 -0.1066
  354MOL0     C48744  10.147   1.206   8.649 -0.0941  0.3308 -0.8570
  354MOL0     O48745  10.216   1.098   8.706  0.5577  0.2581  0.3027
  354MOL0     C48746  10.239   0.992   8.626 -0.2608  0.9913  0.3997
  354MOL0     C48747  10.151   0.884   8.608 -0.4733  0.3243 -0.2351
  354MOL0     C48748  10.191   0.786   8.520  0.4115  0.7694  1.2035
  354MOL0     C48749  10.307   0.792   8.435 -1.1965 -0.6265 -1.4994
  354MOL0     O48750  10.332   0.690   8.350  0.6107 -0.8146 -0.9481
  354MOL0     C48751  10.438   0.603   8.367 -0.2523 -1.1033 -0.0796
  354MOL0     C48752  10.576   0.656   8.324 -0.4515 -0.2349  0.7133
  354MOL0     C48753  10.666   0.542   8.267 -1.0908 -0.1382  0.0709
  354MOL0     C48754  10.752   0.575   8.140  0.9047  0.0003 -0.5893
  354MOL0     C48755  10.828   0.444   8.090  0.6105 -0.0388 -0.5528
  354MOL0     C48756  10.904   0.382   8.206  0.2592 -0.5085 -0.2329
  354MOL0     C48757  10.993   0.266   8.155  0.9754 -0.5649  1.1840
  354MOL0     C48758  11.091   0.196   8.253 -0.5256  0.5460  0.8832
  354MOL0    Cl48759  11.162   0.043   8.179 -0.0405 -0.0824 -0.1561
  354MOL0     C48760  10.394   0.899   8.450  0.0720  0.0236 -0.6916
  354MOL0     C48761  10.356   1.000   8.544  0.0884 -1.6494  0.2233
  354MOL0     O48762  10.130   1.220   8.526  0.4809  0.3037  0.1149
  354MOL0     C48763  10.172   1.308   8.864  0.1905  0.2621  0.5948
  354MOL0     C48764  10.132   1.383   8.972  0.5528  0.2220 -0.8770
  354MOL0     N48765   9.368   1.803   9.014  0.0086 -0.8425 -0.3605
  354MOL0     N48766   9.250   1.845   9.042 -0.1325  0.6272 -0.3374
  354MOL0     C48767   8.753   1.549  10.166  0.0912  0.3367  0.6393
  354MOL0     C48768   8.657   1.514  10.262  0.2194  0.2483 -0.4415
  354MOL0     C48769   8.316   1.327  10.454 -0.0653 -0.3455  1.6479
  354MOL0     C48770   8.339   1.402  10.577  0.0852 -0.0104  0.0033
  354MOL0     C48771   8.263   1.372  10.692 -0.3337  0.7656 -0.4111
  354MOL0     C48772   8.184   1.259  10.703 -1.1591  1.5241  0.4404
  354MOL0     O48773   8.119   1.240  10.815  0.1269 -0.6465 -0.3140
  354MOL0     C48774   8.116   1.112  10.873 -0.5961  0.0392 -1.4215
  354MOL0     C48775   8.185   1.107  11.006 -0.9667  0.6316  0.2135
  354MOL0     C48776   8.342   1.127  11.000  0.5300 -0.9425  0.7051
  354MOL0     C48777   8.413   1.011  10.929 -0.1651  0.4145  0.6372
  354MOL0     C48778   8.560   1.033  10.928  1.1399  0.5919  0.7401
  354MOL0     C48779   8.677   1.053  10.925  0.1627  0.0132  0.0560
  354MOL0     C48780   8.177   1.182  10.586  0.3950 -0.0720  0.0472
  354MOL0     C48781   8.234   1.209  10.463  0.7758  0.0518  0.9540
  354MOL0     C48782   8.187   1.136  10.337 -0.5882  0.1122  0.2748
  354MOL0     H48783   8.372   1.625  10.121  0.4754  1.5831 -0.6825
  354MOL0     H48784   8.522   1.700   9.955 -5.2187 -3.0677  0.2942
  354MOL0     H48785   8.870   1.857   9.938  0.6458 -0.9224  0.3183
  354MOL0     H48786   8.688   1.851   9.935  0.6643  2.6197  0.2178
  354MOL0     H48787   8.730   1.893   9.728 -2.7436 -2.3033  1.3323
  354MOL0     H48788   8.899   1.851   9.721 -0.3188  0.0385  0.1906
  354MOL0     H48789   8.867   1.613   9.692 -2.2305 -3.3183  1.3547
  354MOL0     H48790   8.684   1.650   9.715 -1.2688  0.4949 -1.8552
  354MOL0     H48791   8.673   1.646   9.492  1.5444 -3.0902 -0.7846
  354MOL0     H48792   8.721   1.813   9.500  1.7613 -0.4911 -1.0168
  354MOL0     H48793   8.834   1.690   9.322  1.3346 -1.0176 -2.0539
  354MOL0     H48794   8.903   1.577   9.449 -2.8165 -0.0125  1.9724
  354MOL0     H48795   8.950   1.880   9.461 -0.3883  0.5393 -1.1999
  354MOL0     H48796   9.005   1.756   9.568 -3.5154 -0.6356  0.2972
  354MOL0     H48797   9.152   1.660   9.376  1.5342  1.0228  4.7785
  354MOL0     H48798   9.189   1.821   9.398  0.3356 -1.5466 -0.4014
  354MOL0     H48799   8.993   1.734   9.179  1.0000 -0.2047 -1.2041
  354MOL0     H48800   9.056   1.897   9.203  1.1370  0.1907 -2.5607
  354MOL0     H48801   9.230   1.544   9.176 -2.6384  1.1426  1.6520
  354MOL0     H48802   9.471   1.527   8.927  3.5922 -0.7881  0.6760
  354MOL0     H48803   9.471   1.494   9.101  1.1244 -0.8577 -2.2609
  354MOL0     H48804   9.642   1.719   8.957  2.3788 -0.2752 -0.5261
  354MOL0     H48805   9.611   1.721   9.123  1.0660 -0.9694  0.0905
  354MOL0     H48806   9.718   1.517   9.165 -0.4632 -0.3504 -0.6976
  354MOL0     H48807   9.723   1.459   9.018 -1.4182  1.7882 -0.1837
  354MOL0     H48808   9.883   1.693   8.967  0.9061  2.1868  0.9906
  354MOL0     H48809   9.878   1.710   9.137 -1.1653 -0.2317  0.5842
  354MOL0     H48810   9.867   1.540   8.824  1.7628  2.3451 -0.7404
  354MOL0     H48811   9.930   1.386   8.522  2.9864  1.3615  1.1326
  354MOL0     H48812   9.810   1.437   8.633  0.8781  1.0921 -0.3662
  354MOL0     H48813   9.845   1.262   8.611 -0.6636  0.7978  1.6318
  354MOL0     H48814  10.058   0.854   8.656 -0.2256 -2.4094 -1.2911
  354MOL0     H48815  10.129   0.697   8.524  2.3639 -0.8361 -1.0896
  354MOL0     H48816  10.455   0.593   8.475  2.1868  2.0722 -0.0230
  354MOL0     H48817  10.406   0.507   8.325 -3.0332  0.1645 -1.0410
  354MOL0     H48818  10.585   0.745   8.261  0.3819 -0.0922  1.0290
  354MOL0     H48819  10.616   0.683   8.422  1.1210 -1.6681  0.5196
  354MOL0     H48820  10.616   0.446   8.250 -1.6030 -0.3942  2.6113
  354MOL0     H48821  10.727   0.524   8.356  2.4515 -2.4547 -2.5195
  354MOL0     H48822  10.826   0.652   8.162  0.4889 -0.5070  3.2934
  354MOL0     H48823  10.689   0.616   8.061 -0.2342  0.6168  0.6072
  354MOL0     H48824  10.756   0.370   8.054 -1.2026  0.1416  2.3465
  354MOL0     H48825  10.889   0.457   8.000  0.1401 -1.7883 -1.1563
  354MOL0     H48826  10.840   0.346   8.287  0.6424 -1.1620 -0.2062
  354MOL0     H48827  10.967   0.463   8.243  1.0914 -1.3008  0.1370
  354MOL0     H48828  11.048   0.294   8.065  1.4713 -0.4517  1.5170
  354MOL0     H48829  10.925   0.188   8.120  1.2979 -0.2033 -0.3205
  354MOL0     H48830  11.046   0.167   8.349 -0.6756 -3.2103 -0.1514
  354MOL0     H48831  11.175   0.264   8.268 -1.3205  2.4352 -2.2486
  354MOL0     H48832  10.492   0.910   8.406  1.0738  0.0315  1.4355
  354MOL0     H48833  10.412   1.091   8.559 -1.5763 -0.1851 -1.8722
  354MOL0     H48834  10.258   1.244   8.883  0.8483  1.3397  1.3313
  354MOL0     H48835  10.183   1.396   9.067  0.3625 -0.2365 -0.7103
  354MOL0     H48836   8.858   1.523  10.174 -0.1955 -1.7607 -1.2721
  354MOL0     H48837   8.674   1.467  10.358 -3.3494 -0.3070  0.0514
  354MOL0     H48838   8.395   1.495  10.576  1.1181 -0.6130 -1.2105
  354MOL0     H48839   8.288   1.440  10.774  1.1012 -0.3755  0.1423
  354MOL0     H48840   8.015   1.072  10.881 -1.6840  2.2230 -3.3844
  354MOL0     H48841   8.156   1.030  10.813 -1.1196 -1.8669  0.7051
  354MOL0     H48842   8.173   1.014  11.062  1.2212  0.2498  0.1289
  354MOL0     H48843   8.134   1.190  11.055 -1.3655  0.8636 -0.5814
  354MOL0     H48844   8.370   1.219  10.948  2.1739  0.7041  4.1808
  354MOL0     H48845   8.377   1.147  11.102  0.1121 -1.0010  0.8646
  354MOL0     H48846   8.385   0.993  10.824  0.9052 -1.7489  0.6603
  354MOL0     H48847   8.395   0.927  10.997  0.2068  1.8834  2.6531
  354MOL0     H48848   8.783   1.068  10.917  0.0578  0.6381 -0.2125
  354MOL0     H48849   8.103   1.103  10.580  1.4521 -1.0659 -0.3078
  354MOL0     H48850   8.276   1.094  10.288  0.3678  1.3194  0.9443
  354MOL0     H48851   8.125   1.051  10.368  0.4556 -0.5391  0.6576
  354MOL0     H48852   8.145   1.204  10.263 -0.9382 -0.6805 -0.2749
  355MOL0     O48853   9.450  11.332  10.314 -0.0093 -0.1079 -0.5785
  355MOL0     C48854   9.507  11.249  10.241 -1.1401  0.1948 -0.0214
  355MOL0     O48855   9.573  11.131  10.270  0.4486  0.5542  0.1539
  355MOL0     C48856   9.601  11.097  10.402 -0.3829 -0.0971 -0.7213
  355MOL0     C48857   9.725  11.049  10.430 -0.8767 -0.2536  0.1802
  355MOL0     C48858   9.774  11.017  10.557 -0.2094 -0.1526  0.8914
  355MOL0     C48859   9.683  11.031  10.669  0.4952 -0.7525  0.3641
  355MOL0     O48860   9.718  11.008  10.797 -0.0896 -0.6315 -0.6867
  355MOL0     C48861   9.782  10.887  10.823 -0.6794 -0.5560  0.3938
  355MOL0     C48862   9.776  10.850  10.978  0.4208 -0.5156  0.0909
  355MOL0     C48863   9.874  10.942  11.062  0.2523 -0.2678  0.9405
  355MOL0     C48864   9.860  10.911  11.205  0.6885 -0.3953 -0.3685
  355MOL0     C48865   9.993  10.915  11.278  0.3019 -0.6429  1.2639
  355MOL0     C48866  10.037  11.062  11.280  0.3739  0.1596  0.0746
  355MOL0     C48867  10.172  11.067  11.333 -0.4686  0.0171 -0.1699
  355MOL0     C48868  10.224  11.207  11.363  0.2028 -0.0023  0.1469
  355MOL0     N48869  10.368  11.204  11.374  0.2192 -1.2747 -0.4482
  355MOL0     C48870  10.452  11.282  11.290 -0.5862  0.6197 -0.2657
  355MOL0     C48871  10.575  11.223  11.306 -0.6321  0.0985  0.3172
  355MOL0     C48872  10.698  11.273  11.241 -0.7759 -0.4684 -0.6056
  355MOL0     C48873  10.745  11.400  11.320  0.6001  0.0971 -0.2819
  355MOL0     C48874  10.855  11.368  11.423 -0.0039 -0.2779  0.4596
  355MOL0     C48875  10.964  11.476  11.437 -0.2965 -0.2702 -1.4186
  355MOL0     O48876  10.896  11.595  11.469 -0.6263 -0.6576  0.0216
  355MOL0     C48877  10.978  11.705  11.513  0.0150  0.0505 -0.7934
  355MOL0     C48878  11.111  11.706  11.502 -0.7370  0.8759  0.6290
  355MOL0     C48879  11.188  11.806  11.550  0.5264  0.3284 -0.2152
  355MOL0     C48880  11.342  11.800  11.543  0.0243  0.8434  0.5676
  355MOL0     C48881  11.118  11.921  11.595  0.1137  0.0885  0.8860
  355MOL0     C48882  11.191  12.037  11.636  0.2239 -0.1397 -0.4604
  355MOL0     O48883  11.241  12.113  11.534  0.2102 -0.1836 -1.0937
  355MOL0     C48884  11.296  12.231  11.577 -0.1567 -0.4051  0.6560
  355MOL0     C48885  11.221  12.338  11.607 -0.2980  0.4411 -0.4270
  355MOL0     C48886  11.283  12.462  11.641  0.1206  0.5804  0.3168
  355MOL0     C48887  11.420  12.479  11.641  0.6783  0.5329 -0.4429
  355MOL0     O48888  11.485  12.596  11.655 -0.0030 -0.4214 -0.4251
  355MOL0     C48889  11.420  12.725  11.673 -0.4152  0.0636  0.0381
  355MOL0     C48890  11.532  12.821  11.731 -0.4915 -0.1356  0.2620
  355MOL0     C48891  11.622  12.764  11.844  0.8435 -0.5325 -1.8050
  355MOL0     C48892  11.741  12.862  11.881  0.0378  0.5216 -0.0174
  355MOL0     C48893  11.707  12.951  12.003  0.4430  0.1674  0.0945
  355MOL0     C48894  11.826  13.043  12.030  0.0457  0.4083  0.0495
  355MOL0     C48895  11.967  12.968  12.075  0.1879  0.2605 -0.4632
  355MOL0     C48896  12.090  13.063  12.039  0.1674  0.1696  0.1183
  355MOL0    Cl48897  12.098  13.206  12.153  0.1118 -0.0037  0.0603
  355MOL0     C48898  11.493  12.366  11.627  0.0789  0.2644 -0.1290
  355MOL0     C48899  11.435  12.242  11.586 -0.1572  0.1402  0.1005
  355MOL0     O48900  11.225  12.037  11.749  0.1783 -0.6145 -0.5505
  355MOL0     C48901  10.977  11.918  11.608  1.1247 -0.5505  0.3744
  355MOL0     C48902  10.906  11.812  11.563 -0.6068  0.0697 -0.7928
  355MOL0     N48903  10.569  11.108  11.385  0.1263  0.0306  0.0995
  355MOL0     N48904  10.447  11.116  11.443 -0.0772  0.6664  0.6732
  355MOL0     C48905   9.555  11.084  10.645  0.2311 -0.5219  0.6371
  355MOL0     C48906   9.518  11.117  10.519 -0.8528  0.0499  0.7287
  355MOL0     C48907   9.491  11.273  10.097 -0.5148  0.0090 -0.3405
  355MOL0     C48908   9.483  11.166  10.011  0.4735 -1.0420 -0.0552
  355MOL0     C48909   9.439  11.193   9.877 -0.5153 -1.0462 -0.7467
  355MOL0     C48910   9.423  11.319   9.822 -0.4036  0.0122 -0.0615
  355MOL0     O48911   9.404  11.315   9.688 -0.8368  0.1117 -0.0988
  355MOL0     C48912   9.375  11.429   9.602 -0.5514 -0.2943 -0.7171
  355MOL0     C48913   9.493  11.465   9.515 -0.2489 -1.1354 -0.2650
  355MOL0     C48914   9.608  11.532   9.590 -0.1170  0.9860  0.0025
  355MOL0     C48915   9.730  11.543   9.503  0.4426 -0.0723  0.2082
  355MOL0     C48916   9.827  11.619   9.578 -0.1131 -0.0759  0.6219
  355MOL0     C48917   9.915  11.689   9.621 -0.2943  0.3033  0.1400
  355MOL0     C48918   9.430  11.422   9.909  0.2963 -0.1882 -0.7850
  355MOL0     C48919   9.465  11.404  10.047 -0.7101 -0.9723  0.1312
  355MOL0     C48920   9.478  11.535  10.126 -0.1157 -0.4812  0.0515
  355MOL0     H48921   9.786  11.032  10.342 -0.4706 -1.7628  0.7228
  355MOL0     H48922   9.875  10.986  10.584  1.0246  3.0330  0.4177
  355MOL0     H48923   9.888  10.884  10.796 -0.5373 -0.2548  0.8964
  355MOL0     H48924   9.725  10.806  10.776 -0.2011  0.5748 -2.2885
  355MOL0     H48925   9.672  10.863  11.009 -0.0137 -0.7213 -1.2628
  355MOL0     H48926   9.804  10.745  10.993  0.2108 -0.1673  4.0287
  355MOL0     H48927   9.975  10.923  11.026 -0.1210  0.4407 -0.5764
  355MOL0     H48928   9.852  11.046  11.034  3.9299 -0.5008 -4.0464
  355MOL0     H48929   9.782  10.974  11.248  1.4416  0.1871  0.1712
  355MOL0     H48930   9.830  10.807  11.221  3.5354 -1.3037 -0.3491
  355MOL0     H48931  10.069  10.862  11.220 -0.5521 -1.3697  0.7901
  355MOL0     H48932   9.990  10.865  11.375  0.5535  1.5171  2.4611
  355MOL0     H48933  10.046  11.122  11.189 -0.0936 -0.2964 -0.2717
  355MOL0     H48934   9.977  11.120  11.352 -0.2547  0.6073 -0.7948
  355MOL0     H48935  10.247  11.023  11.267  1.1708  0.8630  1.0338
  355MOL0     H48936  10.175  11.009  11.426  2.7110  3.0098  1.8465
  355MOL0     H48937  10.195  11.270  11.279 -0.3026 -3.7070 -2.7195
  355MOL0     H48938  10.185  11.244  11.458 -2.4776  0.4062 -1.0411
  355MOL0     H48939  10.434  11.361  11.218 -0.4734 -0.2043 -1.2227
  355MOL0     H48940  10.670  11.309  11.141  0.3913 -2.1806 -1.6124
  355MOL0     H48941  10.777  11.198  11.240  0.9695  1.0947 -4.9531
  355MOL0     H48942  10.777  11.473  11.245 -2.1532  3.5338  1.5691
  355MOL0     H48943  10.663  11.456  11.367  1.6137  2.9139 -1.6690
  355MOL0     H48944  10.795  11.346  11.512  2.7541 -2.1562  2.0321
  355MOL0     H48945  10.903  11.276  11.388 -0.8876 -0.6201  0.1129
  355MOL0     H48946  11.038  11.444  11.511 -3.0532  2.6584  3.1733
  355MOL0     H48947  11.023  11.485  11.346  0.8143  1.7695 -0.5664
  355MOL0     H48948  11.165  11.630  11.446  0.3365  0.3073  2.3533
  355MOL0     H48949  11.370  11.817  11.647 -0.8074 -2.9973  1.5571
  355MOL0     H48950  11.393  11.856  11.464  0.7230 -0.8513 -0.2394
  355MOL0     H48951  11.366  11.694  11.529 -0.4097  0.9097 -0.8458
  355MOL0     H48952  11.114  12.334  11.588 -0.4967  1.8446  0.2173
  355MOL0     H48953  11.221  12.551  11.645  0.4772  0.7788  2.2091
  355MOL0     H48954  11.395  12.763  11.573  0.5391  1.8120  0.4204
  355MOL0     H48955  11.334  12.708  11.738 -1.8935 -3.7059 -2.5574
  355MOL0     H48956  11.598  12.859  11.653 -0.3606  1.3809  1.0849
  355MOL0     H48957  11.477  12.905  11.775 -2.0072 -1.1273  0.3381
  355MOL0     H48958  11.669  12.668  11.819  1.5030 -0.2345 -1.7258
  355MOL0     H48959  11.554  12.748  11.928 -3.5684 -0.8485 -5.0688
  355MOL0     H48960  11.758  12.922  11.791 -0.2038 -1.7935 -1.7131
  355MOL0     H48961  11.824  12.795  11.903  2.5026  3.3990  0.0457
  355MOL0     H48962  11.619  13.013  11.985  1.4037  1.5075 -0.1258
  355MOL0     H48963  11.687  12.892  12.093 -1.0835  0.8399  0.2293
  355MOL0     H48964  11.791  13.115  12.105  3.7390  1.2581  1.1271
  355MOL0     H48965  11.848  13.100  11.939 -1.3980  1.4131  0.2845
  355MOL0     H48966  11.975  12.870  12.025 -2.8000 -0.7765  0.8304
  355MOL0     H48967  11.958  12.952  12.183  1.1267 -1.0790 -0.5581
  355MOL0     H48968  12.072  13.099  11.938 -3.3315 -1.9000 -0.1539
  355MOL0     H48969  12.180  13.001  12.044  1.1163  1.4823 -0.0848
  355MOL0     H48970  11.599  12.388  11.635 -0.2265  2.0092 -0.5217
  355MOL0     H48971  11.492  12.154  11.558 -2.1899 -2.0657  2.4138
  355MOL0     H48972  10.928  12.002  11.657 -0.1606 -1.6820  1.0976
  355MOL0     H48973  10.798  11.815  11.572 -0.4112  1.9539  3.4265
  355MOL0     H48974   9.488  11.109  10.727  0.1651  2.6447 -0.2252
  355MOL0     H48975   9.420  11.163  10.506 -0.2159  1.8074  1.8563
  355MOL0     H48976   9.495  11.064  10.046 -0.6736 -0.2391  2.9138
  355MOL0     H48977   9.430  11.112   9.806 -0.0932 -0.0242 -2.0186
  355MOL0     H48978   9.288  11.405   9.540 -2.0037 -1.0224  1.4860
  355MOL0     H48979   9.349  11.519   9.657 -0.5527 -1.5458  1.4488
  355MOL0     H48980   9.451  11.521   9.431  1.3707 -0.6006 -0.7401
  355MOL0     H48981   9.519  11.374   9.460 -2.0435 -1.9293  0.1134
  355MOL0     H48982   9.587  11.630   9.634 -0.2321 -0.1317  2.6200
  355MOL0     H48983   9.630  11.475   9.680 -0.2886  1.0885  0.1107
  355MOL0     H48984   9.698  11.595   9.413 -0.7860  1.7233  1.6165
  355MOL0     H48985   9.764  11.439   9.491 -0.0332 -0.4919  2.0997
  355MOL0     H48986  10.002  11.752   9.627 -0.0707  0.2199 -1.6550
  355MOL0     H48987   9.409  11.517   9.860 -1.2587 -1.3327 -2.4661
  355MOL0     H48988   9.563  11.531  10.195 -0.0193 -1.8057 -0.1247
  355MOL0     H48989   9.497  11.619  10.058 -1.0558  0.6658  1.1510
  355MOL0     H48990   9.382  11.550  10.176 -0.2195 -1.3278  0.1123
  356MOL0     O48991   9.834  10.407   7.993  1.0448  0.2451 -0.3466
  356MOL0     C48992   9.830  10.493   8.076 -0.1744  0.4092 -0.1711
  356MOL0     O48993   9.923  10.582   8.112 -0.7747  0.3631 -0.0024
  356MOL0     C48994  10.057  10.563   8.083  0.7177 -0.3317  0.0236
  356MOL0     C48995  10.142  10.678   8.069  0.0493 -0.7146  0.2812
  356MOL0     C48996  10.279  10.666   8.032  0.6144 -0.3091 -0.5101
  356MOL0     C48997  10.329  10.550   8.005  0.2860 -0.1158 -0.1698
  356MOL0     O48998  10.457  10.556   7.953  0.0313  0.1505 -0.0811
  356MOL0     C48999  10.547  10.438   7.964  0.0575  0.1253 -0.6062
  356MOL0     C49000  10.590  10.410   8.111  0.3965  1.1702  0.2371
  356MOL0     C49001  10.674  10.281   8.109  0.1001 -0.0193  0.7887
  356MOL0     C49002  10.790  10.277   8.195 -0.1120  0.9929 -0.6307
  356MOL0     C49003  10.746  10.243   8.333  0.8511 -0.1729 -0.5165
  356MOL0     C49004  10.864  10.203   8.431 -0.6001 -0.6646  0.2593
  356MOL0     C49005  10.799  10.146   8.556 -0.3363 -0.7143  0.4705
  356MOL0     C49006  10.887  10.151   8.682  0.1586 -0.0985  0.0417
  356MOL0     N49007  10.887  10.300   8.718 -0.5271  0.0114  0.5242
  356MOL0     C49008  10.993  10.379   8.681 -0.0276 -0.4955  0.8737
  356MOL0     C49009  10.949  10.501   8.715 -0.4277 -0.4934  0.0291
  356MOL0     C49010  11.043  10.619   8.706  0.5050  0.3423 -0.7850
  356MOL0     C49011  11.141  10.620   8.821  1.0296 -0.2876 -0.5771
  356MOL0     C49012  11.096  10.738   8.908 -0.2174 -0.3585 -0.7852
  356MOL0     C49013  11.191  10.747   9.032 -0.3217  0.0272  0.5344
  356MOL0     O49014  11.184  10.875   9.100 -0.3719 -0.1956  0.1168
  356MOL0     C49015  11.076  10.896   9.174  0.4589 -0.6314 -0.6954
  356MOL0     C49016  10.971  10.805   9.203 -0.9337  1.3373 -0.0017
  356MOL0     C49017  10.856  10.836   9.265 -0.4044  1.5206 -1.2325
  356MOL0     C49018  10.769  10.711   9.279 -0.1260  0.8205 -0.3892
  356MOL0     C49019  10.839  10.958   9.332  0.1948  0.1187  0.0823
  356MOL0     C49020  10.728  10.995   9.420 -0.3441  0.2851  0.7973
  356MOL0     O49021  10.718  11.128   9.450  0.0449  0.4196  0.9409
  356MOL0     C49022  10.604  11.177   9.521  0.0173  0.2801  0.1820
  356MOL0     C49023  10.522  11.263   9.461 -0.2209 -0.1664  0.4245
  356MOL0     C49024  10.407  11.307   9.532  0.6140 -0.8714 -0.6221
  356MOL0     C49025  10.372  11.258   9.659 -0.4084 -0.2080 -0.6947
  356MOL0     O49026  10.271  11.305   9.741  0.0164 -0.6559  0.6232
  356MOL0     C49027  10.139  11.305   9.692 -0.6972  0.2980  0.3507
  356MOL0     C49028  10.049  11.275   9.805 -0.7893  0.4361  0.3174
  356MOL0     C49029   9.904  11.337   9.790 -0.1705  0.9850 -0.2483
  356MOL0     C49030   9.797  11.274   9.881  0.0285 -0.3473  0.2767
  356MOL0     C49031   9.833  11.241  10.032 -1.4358  0.1003 -0.2996
  356MOL0     C49032   9.858  11.373  10.115  0.5706 -0.7382  0.6696
  356MOL0     C49033   9.908  11.342  10.250  0.7445  0.1342 -1.0168
  356MOL0     C49034   9.941  11.467  10.327 -0.5459 -0.9748 -0.1663
  356MOL0    Cl49035   9.798  11.583  10.336 -0.0976 -0.5778  0.1529
  356MOL0     C49036  10.455  11.162   9.714 -0.5303 -0.1960 -0.7805
  356MOL0     C49037  10.577  11.135   9.653 -0.9010 -0.1377  0.0619
  356MOL0     O49038  10.652  10.910   9.463  0.1159 -0.5221  0.2955
  356MOL0     C49039  10.945  11.052   9.302 -0.8025 -1.0789  0.9059
  356MOL0     C49040  11.063  11.026   9.223  0.1869  0.1524  0.8738
  356MOL0     N49041  10.822  10.493   8.783 -0.4161 -1.4370 -0.0360
  356MOL0     N49042  10.792  10.373   8.784  0.5774  0.1437  0.6751
  356MOL0     C49043  10.246  10.434   8.011 -0.3975  1.2765 -0.1586
  356MOL0     C49044  10.116  10.444   8.064 -0.0185 -0.3720 -0.0485
  356MOL0     C49045   9.704  10.503   8.141  0.6547 -0.1003 -0.1488
  356MOL0     C49046   9.709  10.522   8.284  0.5569  0.1855  0.8394
  356MOL0     C49047   9.588  10.552   8.347  0.5141  0.5650 -0.0814
  356MOL0     C49048   9.458  10.537   8.282  0.3324  0.0649 -0.1502
  356MOL0     O49049   9.350  10.555   8.355 -0.4451  0.1510 -0.1528
  356MOL0     C49050   9.225  10.515   8.310 -0.3944 -0.0318 -0.1652
  356MOL0     C49051   9.112  10.588   8.390  0.6017  0.1912 -1.1129
  356MOL0     C49052   9.141  10.721   8.465  0.0473 -0.7034  0.8795
  356MOL0     C49053   9.189  10.818   8.365 -1.5350 -0.9322 -0.5333
  356MOL0     C49054   9.239  10.937   8.439 -0.4392  0.6242 -1.2199
  356MOL0     C49055   9.269  11.027   8.512 -0.2872  0.8113 -0.9206
  356MOL0     C49056   9.459  10.513   8.150 -0.0333 -0.6897  0.4870
  356MOL0     C49057   9.573  10.505   8.077 -0.3978  0.0311 -0.2155
  356MOL0     C49058   9.566  10.510   7.933  0.1129  0.4466 -0.0264
  356MOL0     H49059  10.107  10.775   8.102  2.0065 -0.5990  2.2627
  356MOL0     H49060  10.341  10.755   8.024 -0.1032  0.2890  0.3012
  356MOL0     H49061  10.638  10.456   7.905 -0.9849  1.0673 -1.9986
  356MOL0     H49062  10.504  10.347   7.921  0.4196 -0.5094  0.3454
  356MOL0     H49063  10.649  10.500   8.132  0.6575  2.4281 -4.5947
  356MOL0     H49064  10.501  10.392   8.172 -0.1451  0.2631 -0.7937
  356MOL0     H49065  10.608  10.194   8.115 -1.3619  1.1467  3.8174
  356MOL0     H49066  10.718  10.271   8.009  0.6936  0.9685  0.9399
  356MOL0     H49067  10.863  10.202   8.165 -0.9303 -1.6592  3.2501
  356MOL0     H49068  10.857  10.363   8.188  1.0292  0.1312 -0.6668
  356MOL0     H49069  10.678  10.158   8.334  1.4593 -0.6622  0.1245
  356MOL0     H49070  10.690  10.326   8.378 -0.0733 -0.7083 -0.6701
  356MOL0     H49071  10.912  10.127   8.368 -2.7040 -1.7935 -0.0805
  356MOL0     H49072  10.939  10.275   8.464  0.3688 -1.6309  0.2068
  356MOL0     H49073  10.770  10.042   8.534 -0.0910 -0.3226 -2.0020
  356MOL0     H49074  10.706  10.203   8.569 -1.2974 -1.7837 -1.2314
  356MOL0     H49075  10.859  10.073   8.754  2.8470 -0.9702  0.2404
  356MOL0     H49076  10.991  10.125   8.658  0.8985  1.7914  1.0101
  356MOL0     H49077  11.077  10.345   8.621 -1.5349 -0.4816 -1.3681
  356MOL0     H49078  10.980  10.708   8.700  1.1965  0.8510 -0.6988
  356MOL0     H49079  11.112  10.608   8.621  1.5715  1.0248 -0.0502
  356MOL0     H49080  11.141  10.525   8.874  1.9975  0.1956  0.3195
  356MOL0     H49081  11.239  10.641   8.778  1.6678 -0.5551  0.6988
  356MOL0     H49082  11.105  10.831   8.851 -1.3503  0.6613  0.6329
  356MOL0     H49083  10.997  10.724   8.953  0.4494  0.4776  1.0444
  356MOL0     H49084  11.184  10.668   9.107  3.1536 -0.2106  0.7762
  356MOL0     H49085  11.294  10.737   8.996  0.7301  1.3695  2.9550
  356MOL0     H49086  10.985  10.706   9.159  1.6178  1.3839  0.5945
  356MOL0     H49087  10.664  10.744   9.273 -1.2070 -1.7934  2.0898
  356MOL0     H49088  10.782  10.660   9.374 -1.4456 -0.3674 -0.8038
  356MOL0     H49089  10.788  10.642   9.196  0.2280  0.1223  0.2632
  356MOL0     H49090  10.566  11.314   9.376 -1.1850 -3.4394 -2.2982
  356MOL0     H49091  10.334  11.380   9.496 -0.2847 -0.4522  1.8561
  356MOL0     H49092  10.105  11.401   9.650 -0.1560 -0.6514 -2.4820
  356MOL0     H49093  10.110  11.249   9.603 -1.0910  1.5496 -0.3480
  356MOL0     H49094  10.065  11.168   9.823  3.5795  0.9629  0.7488
  356MOL0     H49095  10.102  11.323   9.888  0.2458 -0.1478  0.0209
  356MOL0     H49096   9.869  11.336   9.686 -0.8654 -2.8525 -0.0881
  356MOL0     H49097   9.917  11.441   9.822  1.3317  0.4603  0.9511
  356MOL0     H49098   9.762  11.186   9.826 -2.6466 -0.1192  1.4461
  356MOL0     H49099   9.717  11.349   9.892  0.6527  0.1561  1.6176
  356MOL0     H49100   9.746  11.192  10.076 -0.6733 -0.2568  0.8512
  356MOL0     H49101   9.923  11.180  10.042 -0.5020  1.5472  0.6240
  356MOL0     H49102   9.761  11.422  10.113 -0.6264 -2.9785  0.3914
  356MOL0     H49103   9.925  11.437  10.057 -0.0019 -0.5997  0.1533
  356MOL0     H49104   9.996  11.278  10.247  0.0030 -0.9999  0.5121
  356MOL0     H49105   9.831  11.286  10.303 -1.8043  1.4649 -3.0838
  356MOL0     H49106  10.031  11.513  10.284 -0.9158 -0.5531 -0.5006
  356MOL0     H49107   9.991  11.454  10.423 -0.3629  0.8501  0.0129
  356MOL0     H49108  10.437  11.152   9.820  1.7339  3.0144  0.0414
  356MOL0     H49109  10.636  11.063   9.709 -1.9646 -2.4262 -1.6048
  356MOL0     H49110  10.944  11.142   9.364  0.1242 -0.1955 -0.3227
  356MOL0     H49111  11.135  11.107   9.207 -0.0747  0.1404 -0.4651
  356MOL0     H49112  10.286  10.338   7.982  0.2238  2.3854 -3.3089
  356MOL0     H49113  10.055  10.358   8.090  1.6637 -1.1582  1.5342
  356MOL0     H49114   9.810  10.529   8.325  1.0707 -3.2652  0.4889
  356MOL0     H49115   9.571  10.577   8.452 -0.1113  0.9647 -0.2675
  356MOL0     H49116   9.216  10.537   8.203 -0.4079  0.0841 -0.1398
  356MOL0     H49117   9.209  10.409   8.328 -2.2579  0.7326  3.6517
  356MOL0     H49118   9.078  10.519   8.467  0.0574 -0.2595 -1.7442
  356MOL0     H49119   9.028  10.614   8.325  1.0233  2.1685 -0.9267
  356MOL0     H49120   9.053  10.761   8.516 -0.9974  0.0329 -1.3627
  356MOL0     H49121   9.215  10.708   8.544  0.4935  0.5286  0.6930
  356MOL0     H49122   9.107  10.853   8.302 -1.6838  0.8898  0.6125
  356MOL0     H49123   9.279  10.784   8.312 -0.4190 -0.7937  1.1828
  356MOL0     H49124   9.301  11.115   8.564  0.2391 -1.9282  3.9611
  356MOL0     H49125   9.367  10.502   8.094  1.0357 -3.5762 -0.8564
  356MOL0     H49126   9.487  10.581   7.905 -0.3357  0.3905  1.0319
  356MOL0     H49127   9.659  10.548   7.890 -0.8726  1.6513 -1.1946
  356MOL0     H49128   9.550  10.408   7.898  2.5980  0.1646 -0.4900
  357MOL0     O49129   5.683  11.414   3.345  0.0272  0.5119 -0.6479
  357MOL0     C49130   5.663  11.533   3.336 -0.0244  0.0854  0.6968
  357MOL0     O49131   5.644  11.619   3.433  0.4735 -0.2374 -0.1892
  357MOL0     C49132   5.679  11.566   3.548  0.7802 -0.5350 -0.8711
  357MOL0     C49133   5.590  11.493   3.624 -0.5875 -1.1133  0.4977
  357MOL0     C49134   5.631  11.430   3.741  0.2230  0.5100 -0.0902
  357MOL0     C49135   5.764  11.436   3.772 -0.3879  0.6215  1.0255
  357MOL0     O49136   5.810  11.360   3.872  0.2771  0.0199  1.1267
  357MOL0     C49137   5.817  11.221   3.843 -1.0566  0.8014 -1.0254
  357MOL0     C49138   5.969  11.194   3.821  0.4596  1.0144  0.9154
  357MOL0     C49139   6.069  11.232   3.930  0.2025  0.1863 -0.1776
  357MOL0     C49140   6.206  11.220   3.875 -0.4108  0.3866 -0.2616
  357MOL0     C49141   6.319  11.259   3.971  0.1511  0.3050  0.2373
  357MOL0     C49142   6.458  11.208   3.950 -0.5408 -0.0247  0.7810
  357MOL0     C49143   6.531  11.273   3.827 -0.5881  0.2245 -0.5467
  357MOL0     C49144   6.678  11.221   3.837 -0.1541 -0.4586 -0.2014
  357MOL0     N49145   6.778  11.289   3.752 -0.6631  0.1098  0.0317
  357MOL0     C49146   6.767  11.417   3.707 -0.2182  0.6846  1.1404
  357MOL0     C49147   6.892  11.436   3.666 -0.6483 -0.0960  0.8800
  357MOL0     C49148   6.950  11.554   3.605  0.0658 -0.0094  0.5269
  357MOL0     C49149   7.011  11.640   3.710 -0.2918  0.2700  0.0999
  357MOL0     C49150   7.060  11.775   3.646 -0.1150  0.1198  0.0482
  357MOL0     C49151   7.130  11.858   3.758  0.0392  0.2194 -0.4121
  357MOL0     O49152   7.027  11.896   3.851 -0.0796 -0.2084  0.2928
  357MOL0     C49153   7.054  11.899   3.993 -0.2216 -0.5299  0.4241
  357MOL0     C49154   6.969  11.853   4.086  0.4847 -1.2477  0.2460
  357MOL0     C49155   6.986  11.841   4.222 -0.7414 -0.2107  0.2295
  357MOL0     C49156   6.873  11.789   4.310  0.6588 -0.2686 -0.4792
  357MOL0     C49157   7.115  11.874   4.267 -0.3550 -1.0269 -0.2683
  357MOL0     C49158   7.158  11.845   4.406 -0.6719 -0.0813 -0.1363
  357MOL0     O49159   7.252  11.942   4.456 -0.9606 -0.4819  0.2490
  357MOL0     C49160   7.283  11.935   4.585  0.6281 -0.5756 -0.2893
  357MOL0     C49161   7.201  11.995   4.681  0.4245 -0.2344 -0.0943
  357MOL0     C49162   7.218  11.961   4.814 -0.5437  0.0214  0.0864
  357MOL0     C49163   7.323  11.888   4.863  0.1900 -1.1071  0.9151
  357MOL0     O49164   7.314  11.848   4.992 -0.5267 -0.4854  0.6609
  357MOL0     C49165   7.351  11.714   5.027 -0.0838  0.4175  0.4557
  357MOL0     C49166   7.314  11.674   5.168  0.6764  0.6016  0.6763
  357MOL0     C49167   7.392  11.736   5.279  0.8806  0.6045  0.2610
  357MOL0     C49168   7.311  11.836   5.367  0.3133  0.3943  0.9487
  357MOL0     C49169   7.375  11.873   5.506  0.2032  0.0545  0.1830
  357MOL0     C49170   7.337  12.013   5.546 -0.9043 -0.1873  0.4112
  357MOL0     C49171   7.195  12.015   5.598  0.7236  0.4102 -0.8584
  357MOL0     C49172   7.143  12.147   5.645 -0.0669 -1.1801 -0.2105
  357MOL0    Cl49173   7.238  12.212   5.779 -0.0801 -0.0415  0.4668
  357MOL0     C49174   7.420  11.836   4.766  0.7548 -0.6749  0.1188
  357MOL0     C49175   7.401  11.863   4.628 -0.7618 -0.1100  0.3051
  357MOL0     O49176   7.117  11.745   4.460 -0.7101 -0.1120 -0.5333
  357MOL0     C49177   7.220  11.931   4.180 -0.1678 -0.2083 -0.2759
  357MOL0     C49178   7.181  11.942   4.038  0.5572  0.6755 -0.5220
  357MOL0     N49179   6.982  11.338   3.702 -0.3821 -1.2347  0.4654
  357MOL0     N49180   6.903  11.240   3.748 -0.5869 -0.6880 -0.2110
  357MOL0     C49181   5.857  11.495   3.694 -0.1218 -0.1854 -0.4782
  357MOL0     C49182   5.813  11.569   3.582 -0.2293  0.3142 -0.9586
  357MOL0     C49183   5.666  11.584   3.196 -0.1959 -0.1519 -0.2427
  357MOL0     C49184   5.724  11.710   3.179  0.2396 -0.1490  0.3957
  357MOL0     C49185   5.735  11.768   3.053 -1.5398  0.9382  0.3091
  357MOL0     C49186   5.696  11.694   2.936 -1.1224  0.8568 -0.9096
  357MOL0     O49187   5.731  11.748   2.815  0.1915 -0.4056 -0.4092
  357MOL0     C49188   5.682  11.692   2.690  1.0150 -0.7393  0.0921
  357MOL0     C49189   5.707  11.780   2.570 -0.8736 -0.5336 -0.6268
  357MOL0     C49190   5.668  11.936   2.587 -0.1954  0.7646  0.0830
  357MOL0     C49191   5.682  12.001   2.445 -0.2378  0.8862 -0.2592
  357MOL0     C49192   5.542  12.009   2.387 -0.8737 -0.0039 -0.4201
  357MOL0     C49193   5.434  12.020   2.333 -0.0014 -0.0488 -0.8983
  357MOL0     C49194   5.629  11.575   2.956  0.0545  0.6790 -0.5181
  357MOL0     C49195   5.613  11.514   3.080 -1.3518 -0.1728  0.4099
  357MOL0     C49196   5.521  11.392   3.091  0.5397  0.2201 -0.8777
  357MOL0     H49197   5.492  11.476   3.582 -1.2926  0.4551  1.4169
  357MOL0     H49198   5.559  11.369   3.795 -0.8901 -0.2541 -2.2974
  357MOL0     H49199   5.769  11.189   3.750  0.2936 -1.2611 -1.0733
  357MOL0     H49200   5.782  11.158   3.925  0.1363  0.4153 -0.8005
  357MOL0     H49201   5.974  11.087   3.799  0.2747  1.0607  0.6513
  357MOL0     H49202   6.007  11.243   3.732  1.2993  0.4917  0.9777
  357MOL0     H49203   6.064  11.339   3.954  4.6190  0.4643  0.2543
  357MOL0     H49204   6.054  11.165   4.015 -0.5285 -0.8320 -1.0888
  357MOL0     H49205   6.212  11.111   3.864 -1.9020  0.2213  0.2819
  357MOL0     H49206   6.226  11.273   3.782 -1.1969 -0.3190 -0.8482
  357MOL0     H49207   6.284  11.209   4.062 -0.4427  0.3905  0.0571
  357MOL0     H49208   6.334  11.366   3.984  2.2586  0.2298 -1.0659
  357MOL0     H49209   6.510  11.214   4.046 -1.0332  1.8238  0.9792
  357MOL0     H49210   6.443  11.101   3.934 -0.0767 -0.3461  2.3143
  357MOL0     H49211   6.521  11.382   3.833  2.1158  0.4672  2.3222
  357MOL0     H49212   6.484  11.233   3.736 -0.6387 -0.7705 -0.0945
  357MOL0     H49213   6.709  11.224   3.942  2.6792  1.5477 -0.9971
  357MOL0     H49214   6.676  11.112   3.822  1.3826 -1.2324  3.8644
  357MOL0     H49215   6.686  11.488   3.692 -1.5439 -0.8732  0.6120
  357MOL0     H49216   6.874  11.611   3.552  0.4618 -1.6129 -1.9206
  357MOL0     H49217   7.017  11.524   3.524 -1.7840  1.9663 -1.8723
  357MOL0     H49218   6.945  11.671   3.792 -1.8204 -2.0043 -0.1918
  357MOL0     H49219   7.097  11.587   3.754  1.4372  0.0833 -3.2136
  357MOL0     H49220   7.111  11.768   3.550 -0.1601  1.7334 -0.1213
  357MOL0     H49221   6.971  11.836   3.626  1.1553  3.1141  2.5880
  357MOL0     H49222   7.203  11.788   3.800 -0.5296 -1.6290 -2.3182
  357MOL0     H49223   7.174  11.946   3.711  1.3818 -1.7694 -3.1756
  357MOL0     H49224   6.875  11.820   4.044  1.2126 -3.5898  0.3235
  357MOL0     H49225   6.889  11.687   4.347  1.5228  0.2136  0.5396
  357MOL0     H49226   6.783  11.796   4.249  0.5637  2.2177 -0.1475
  357MOL0     H49227   6.860  11.846   4.403  0.6148 -1.2118  0.1025
  357MOL0     H49228   7.120  12.062   4.652 -1.0072 -1.1392  1.6271
  357MOL0     H49229   7.148  11.998   4.887 -0.2757  0.2019  0.2507
  357MOL0     H49230   7.299  11.642   4.963 -0.0294 -0.5599  1.4888
  357MOL0     H49231   7.453  11.680   5.013 -1.2678 -3.6902  0.5785
  357MOL0     H49232   7.206  11.689   5.184  0.8336 -0.3192  2.9865
  357MOL0     H49233   7.335  11.567   5.178  2.6906  1.0099  1.2725
  357MOL0     H49234   7.493  11.763   5.247  1.1129  0.5776  0.9531
  357MOL0     H49235   7.409  11.652   5.347 -1.4395 -1.1668 -1.1875
  357MOL0     H49236   7.214  11.789   5.381  0.0187  0.7753  0.2091
  357MOL0     H49237   7.299  11.934   5.320 -1.2699 -0.0869  0.3270
  357MOL0     H49238   7.343  11.806   5.587  0.8848  1.3207  1.5390
  357MOL0     H49239   7.484  11.871   5.498  0.3922 -1.5145  2.1716
  357MOL0     H49240   7.363  12.090   5.472  3.0547  3.2618  4.7692
  357MOL0     H49241   7.406  12.034   5.628 -0.6719 -0.3239  0.2524
  357MOL0     H49242   7.172  11.959   5.689 -1.2313  2.1009 -0.2354
  357MOL0     H49243   7.131  11.967   5.524  1.1802 -1.2500 -0.2227
  357MOL0     H49244   7.038  12.132   5.673  0.4810  0.9020  3.7845
  357MOL0     H49245   7.157  12.201   5.551 -1.5592  0.4818  0.4542
  357MOL0     H49246   7.504  11.783   4.809 -0.0023 -0.6198  1.7576
  357MOL0     H49247   7.471  11.822   4.555  1.1517 -1.4044  2.6986
  357MOL0     H49248   7.310  11.970   4.226 -1.5892 -0.2262  2.8032
  357MOL0     H49249   7.257  11.979   3.970  1.0581 -0.6083 -0.6810
  357MOL0     H49250   5.962  11.486   3.718 -0.1115  2.0658  0.5970
  357MOL0     H49251   5.888  11.620   3.523  1.9786  0.7182  1.9395
  357MOL0     H49252   5.773  11.759   3.262 -0.2802 -0.6858  1.0389
  357MOL0     H49253   5.782  11.865   3.044  1.7574 -0.2994  2.2503
  357MOL0     H49254   5.730  11.596   2.668  1.4509 -1.1948  2.6530
  357MOL0     H49255   5.576  11.666   2.699  0.9007 -0.4575 -0.4246
  357MOL0     H49256   5.659  11.745   2.479 -0.0742  1.3171 -1.8174
  357MOL0     H49257   5.811  11.764   2.539 -1.0231 -2.9967 -0.0878
  357MOL0     H49258   5.564  11.953   2.615 -1.3099 -0.4709 -2.8373
  357MOL0     H49259   5.731  11.985   2.662  1.1400  0.8815 -1.0696
  357MOL0     H49260   5.742  11.941   2.376 -1.2243  0.9356 -1.1887
  357MOL0     H49261   5.731  12.098   2.456  1.0720  0.1534  0.5395
  357MOL0     H49262   5.346  12.040   2.275  0.7639 -1.2425 -2.5517
  357MOL0     H49263   5.591  11.515   2.874  1.0603  1.9422 -1.9758
  357MOL0     H49264   5.447  11.382   3.011 -2.4759  1.3825  1.5712
  357MOL0     H49265   5.576  11.297   3.095 -3.0695 -2.0532  0.6942
  357MOL0     H49266   5.456  11.394   3.179 -1.4141 -3.0881 -2.0470
  358MOL0     O49267   8.156   2.238   9.474  0.8031 -0.2271 -0.1294
  358MOL0     C49268   8.041   2.220   9.435  0.2029 -0.1963  0.8101
  358MOL0     O49269   7.958   2.322   9.381 -0.0517 -0.2767 -0.3075
  358MOL0     C49270   7.998   2.446   9.397 -0.3108 -0.2990 -0.1183
  358MOL0     C49271   8.019   2.492   9.529 -0.3199 -0.3344 -0.1420
  358MOL0     C49272   8.058   2.622   9.552 -0.8806  0.5392 -0.2233
  358MOL0     C49273   8.091   2.704   9.453  0.1701 -0.5026  0.2293
  358MOL0     O49274   8.149   2.824   9.467  0.6072  0.1591  0.2755
  358MOL0     C49275   8.176   2.864   9.597 -0.2341  0.4004 -0.0961
  358MOL0     C49276   8.268   2.981   9.580 -0.3384  0.1130 -0.3839
  358MOL0     C49277   8.201   3.101   9.509 -0.0278  0.1374  0.5836
  358MOL0     C49278   8.304   3.208   9.476 -0.5325  0.8059 -0.9779
  358MOL0     C49279   8.333   3.232   9.327 -0.5636 -0.8596 -0.8970
  358MOL0     C49280   8.420   3.362   9.292 -0.0689 -0.3099  0.1449
  358MOL0     C49281   8.442   3.384   9.135  0.1544 -0.5143 -0.3190
  358MOL0     C49282   8.510   3.527   9.112  0.6420 -0.4588  1.0068
  358MOL0     N49283   8.527   3.559   8.970 -0.6400  0.1732 -0.2199
  358MOL0     C49284   8.487   3.486   8.868 -0.9708  0.2224  1.0948
  358MOL0     C49285   8.516   3.550   8.753 -0.3570 -0.2038 -0.4966
  358MOL0     C49286   8.474   3.507   8.612  0.8853 -0.7915 -0.5058
  358MOL0     C49287   8.319   3.518   8.585 -0.5318  0.1796  0.3000
  358MOL0     C49288   8.261   3.665   8.600  0.2172  0.4266  0.5923
  358MOL0     C49289   8.191   3.678   8.736  0.2708  0.0952 -0.2388
  358MOL0     O49290   8.086   3.587   8.732 -0.7946  0.3913  0.1434
  358MOL0     C49291   7.963   3.636   8.693  0.3236 -0.3490  0.2775
  358MOL0     C49292   7.900   3.754   8.738  0.1587 -0.3337 -0.4692
  358MOL0     C49293   7.781   3.810   8.692  0.2998  0.2712 -0.5835
  358MOL0     C49294   7.731   3.949   8.754 -0.0247 -0.0614 -0.0192
  358MOL0     C49295   7.709   3.729   8.606  0.0821 -0.0440  0.0946
  358MOL0     C49296   7.582   3.761   8.532 -0.6759  0.5820 -0.1414
  358MOL0     O49297   7.519   3.669   8.443 -0.7839  0.0310 -0.1495
  358MOL0     C49298   7.406   3.708   8.384  0.4886  0.8263 -0.5770
  358MOL0     C49299   7.287   3.722   8.448  0.6703 -1.2982 -0.0703
  358MOL0     C49300   7.164   3.736   8.387 -0.0487  0.6150 -0.7983
  358MOL0     C49301   7.163   3.746   8.246  0.0135  0.3746 -0.1799
  358MOL0     O49302   7.049   3.772   8.178 -0.1027  1.0640  1.1643
  358MOL0     C49303   7.013   3.674   8.070  0.1105 -0.9628 -1.5570
  358MOL0     C49304   6.909   3.739   7.979  0.0195  0.0884  0.2073
  358MOL0     C49305   6.826   3.630   7.934  0.9694 -0.7036  0.1328
  358MOL0     C49306   6.746   3.677   7.816 -0.2896  0.2027 -0.3231
  358MOL0     C49307   6.677   3.560   7.744  0.1846 -0.2177 -0.2305
  358MOL0     C49308   6.526   3.556   7.756  0.5576 -0.0549 -0.6780
  358MOL0     C49309   6.455   3.449   7.684 -0.3073 -0.1731 -0.3874
  358MOL0     C49310   6.506   3.302   7.709 -0.7424 -0.9543 -0.1213
  358MOL0    Cl49311   6.502   3.247   7.881 -0.1623 -0.1899  0.4225
  358MOL0     C49312   7.287   3.729   8.178  0.7690  0.2541  0.8210
  358MOL0     C49313   7.403   3.708   8.246 -0.0640 -0.8625 -0.0754
  358MOL0     O49314   7.529   3.867   8.572  0.1796  0.7822 -0.1929
  358MOL0     C49315   7.757   3.602   8.566  0.1070 -0.1927  0.4397
  358MOL0     C49316   7.892   3.573   8.593 -0.2128 -0.5473  0.9797
  358MOL0     N49317   8.590   3.663   8.796 -0.2074 -0.0209 -0.2119
  358MOL0     N49318   8.583   3.672   8.927 -0.0512 -0.4799  1.6488
  358MOL0     C49319   8.059   2.667   9.316 -0.2416 -0.3033 -0.2460
  358MOL0     C49320   8.019   2.536   9.289  0.6855  0.8194 -0.2695
  358MOL0     C49321   7.990   2.081   9.442  0.0558  1.2984  0.4854
  358MOL0     C49322   8.065   1.987   9.524  0.0848 -0.5156  0.3084
  358MOL0     C49323   8.029   1.850   9.537 -0.2517  0.2714  0.4427
  358MOL0     C49324   7.917   1.803   9.476 -0.8850 -1.0084 -0.9120
  358MOL0     O49325   7.895   1.668   9.486  0.4510  0.2912  0.3134
  358MOL0     C49326   7.795   1.607   9.393 -0.3563 -0.3811  0.4853
  358MOL0     C49327   7.803   1.454   9.411 -0.0706  0.8813  0.3262
  358MOL0     C49328   7.687   1.404   9.327  0.3503  0.7806  0.0715
  358MOL0     C49329   7.682   1.250   9.337 -0.2416 -0.2751  0.0548
  358MOL0     C49330   7.796   1.178   9.280 -0.4857 -0.2180  0.3209
  358MOL0     C49331   7.900   1.127   9.247 -0.8507 -0.3633  0.3814
  358MOL0     C49332   7.836   1.897   9.399 -0.9750 -0.1151 -0.4391
  358MOL0     C49333   7.874   2.032   9.377 -0.0793  1.0916 -0.6901
  358MOL0     C49334   7.793   2.118   9.287 -0.0803  0.0597  1.5985
  358MOL0     H49335   7.980   2.421   9.601 -0.1457 -1.7466 -1.3961
  358MOL0     H49336   8.075   2.640   9.658 -1.4975 -2.6739  0.5199
  358MOL0     H49337   8.217   2.781   9.655  1.2965 -0.4287 -2.2197
  358MOL0     H49338   8.087   2.900   9.650  0.4005  0.7007  0.7786
  358MOL0     H49339   8.304   3.009   9.679 -0.2798 -1.8156  0.1920
  358MOL0     H49340   8.353   2.944   9.521 -0.4453  1.8118 -1.6641
  358MOL0     H49341   8.153   3.063   9.418 -1.4175  0.1922  1.2614
  358MOL0     H49342   8.122   3.138   9.575  0.2934 -0.8577  1.5511
  358MOL0     H49343   8.275   3.301   9.524 -2.1798 -0.5854  0.8846
  358MOL0     H49344   8.397   3.176   9.525 -1.7893 -3.8601 -1.1222
  358MOL0     H49345   8.241   3.238   9.269 -2.0867  0.0989  1.4873
  358MOL0     H49346   8.384   3.144   9.287 -0.6317 -0.4557 -1.8824
  358MOL0     H49347   8.381   3.457   9.332 -0.6216 -0.0087 -1.0519
  358MOL0     H49348   8.517   3.343   9.338 -0.7017 -2.5060  0.6663
  358MOL0     H49349   8.352   3.363   9.077 -0.8917  0.4383  0.9140
  358MOL0     H49350   8.510   3.301   9.111 -0.3362 -0.9261 -0.3127
  358MOL0     H49351   8.439   3.602   9.149 -0.2263  0.7029 -2.6455
  358MOL0     H49352   8.601   3.551   9.168 -1.3577  1.1680  3.8292
  358MOL0     H49353   8.430   3.394   8.878 -1.3881  0.4196  0.5019
  358MOL0     H49354   8.500   3.402   8.594  1.0957 -0.9563  0.6857
  358MOL0     H49355   8.530   3.572   8.543 -1.3371  2.6616  0.6768
  358MOL0     H49356   8.306   3.488   8.481 -1.7227  1.0891  0.1660
  358MOL0     H49357   8.277   3.441   8.651 -0.8446  0.7375  0.7532
  358MOL0     H49358   8.335   3.741   8.576 -0.7867  1.6495  1.2131
  358MOL0     H49359   8.181   3.678   8.527 -2.4935 -0.1304  3.2392
  358MOL0     H49360   8.265   3.659   8.815 -1.6625 -1.2108  1.3839
  358MOL0     H49361   8.150   3.779   8.749 -3.6673 -1.3968  0.5849
  358MOL0     H49362   7.947   3.811   8.817 -1.0451  1.0221 -0.6992
  358MOL0     H49363   7.633   3.949   8.804  0.5896 -2.4202  1.3428
  358MOL0     H49364   7.728   4.032   8.682  0.0367 -0.0306  0.0137
  358MOL0     H49365   7.796   3.985   8.835 -1.6663  0.4283  1.1333
  358MOL0     H49366   7.296   3.718   8.556  0.8041 -1.0820 -0.0726
  358MOL0     H49367   7.072   3.747   8.444  0.8068 -0.7178  0.9366
  358MOL0     H49368   7.090   3.629   8.008 -0.8337 -2.7182 -1.5114
  358MOL0     H49369   6.974   3.589   8.127  0.4285  0.5673  1.1235
  358MOL0     H49370   6.844   3.801   8.043  1.1781  0.5008  1.0288
  358MOL0     H49371   6.946   3.803   7.898 -0.1475  0.8280  0.6951
  358MOL0     H49372   6.752   3.597   8.006 -0.1247 -3.2296 -1.9866
  358MOL0     H49373   6.884   3.541   7.908  0.7347 -0.4489 -1.3691
  358MOL0     H49374   6.807   3.722   7.737  1.8775 -2.4353 -0.3282
  358MOL0     H49375   6.678   3.751   7.859  1.1979 -1.2536  5.3955
  358MOL0     H49376   6.692   3.579   7.638  0.4557 -0.6433 -0.2722
  358MOL0     H49377   6.705   3.463   7.786  2.0974 -0.1442 -1.2313
  358MOL0     H49378   6.490   3.655   7.726  0.4131  0.5263  1.2423
  358MOL0     H49379   6.507   3.550   7.864  0.8616  1.4859 -0.5160
  358MOL0     H49380   6.471   3.453   7.576 -4.3075  1.4694 -1.1086
  358MOL0     H49381   6.346   3.446   7.697 -1.1342  0.6649 -5.2727
  358MOL0     H49382   6.601   3.300   7.656 -0.8032  0.2832 -0.3274
  358MOL0     H49383   6.431   3.251   7.649 -0.7350  1.1703 -2.0744
  358MOL0     H49384   7.291   3.743   8.071  0.6025 -0.7505  0.6757
  358MOL0     H49385   7.499   3.707   8.196 -1.0999  1.3192 -2.3360
  358MOL0     H49386   7.694   3.531   8.513  0.8205 -0.5695  0.0837
  358MOL0     H49387   7.936   3.487   8.543 -1.3808 -1.2072  1.0437
  358MOL0     H49388   8.060   2.745   9.241  0.9508  0.6747  0.7514
  358MOL0     H49389   8.016   2.513   9.183  1.4053  4.8950 -1.3426
  358MOL0     H49390   8.153   2.023   9.576  1.1577 -0.3299 -1.5542
  358MOL0     H49391   8.080   1.785   9.607 -1.0827 -1.4391 -0.4702
  358MOL0     H49392   7.694   1.650   9.401  0.0535  0.5318  0.8862
  358MOL0     H49393   7.822   1.623   9.288  2.3586 -1.8704  0.8709
  358MOL0     H49394   7.792   1.420   9.514  0.6884  0.0888  0.1615
  358MOL0     H49395   7.906   1.425   9.389  0.3067  1.4538  1.3111
  358MOL0     H49396   7.594   1.446   9.367 -0.9440 -2.5492  0.9561
  358MOL0     H49397   7.691   1.427   9.220 -0.2679  5.9123  0.9117
  358MOL0     H49398   7.598   1.214   9.279 -0.0521  1.4951 -1.4131
  358MOL0     H49399   7.661   1.221   9.441 -0.6296  0.4823  0.1962
  358MOL0     H49400   7.994   1.094   9.207 -1.4160 -1.1895 -0.2902
  358MOL0     H49401   7.757   1.856   9.337 -0.4514 -4.2717  1.2810
  358MOL0     H49402   7.718   2.069   9.224  0.2826  3.1023 -1.5265
  358MOL0     H49403   7.743   2.198   9.343  0.0856  1.3740 -0.0332
  358MOL0     H49404   7.848   2.180   9.216  0.5655  0.3827  2.3635
  359MOL0     O49405   2.994   5.701   0.584  0.2618  0.7545  0.2950
  359MOL0     C49406   2.967   5.812   0.556  0.9938 -0.1577 -0.9393
  359MOL0     O49407   2.971   5.913   0.649  0.6475  0.9237  0.5010
  359MOL0     C49408   3.040   5.904   0.772  0.6834 -0.3843  0.5221
  359MOL0     C49409   2.994   5.974   0.888  0.1124  0.7750  0.2996
  359MOL0     C49410   3.063   5.964   1.008  0.1167 -0.6439  0.7775
  359MOL0     C49411   3.186   5.901   1.022 -0.6477  0.0953 -0.7426
  359MOL0     O49412   3.256   5.892   1.137 -0.8562 -0.2736 -0.5716
  359MOL0     C49413   3.262   6.014   1.213  0.2104  0.5544  0.1227
  359MOL0     C49414   3.388   6.002   1.309 -0.6631 -0.0033 -0.2587
  359MOL0     C49415   3.450   6.136   1.363  0.6373 -0.1150  0.0412
  359MOL0     C49416   3.481   6.235   1.242 -0.2981  0.4778 -0.2956
  359MOL0     C49417   3.575   6.343   1.273 -0.2750 -0.1868  0.4181
  359MOL0     C49418   3.583   6.468   1.166 -0.6933  0.8034 -0.4353
  359MOL0     C49419   3.689   6.558   1.211 -0.3399 -0.4669 -0.4125
  359MOL0     C49420   3.839   6.496   1.211  0.0165 -0.7048 -0.6279
  359MOL0     N49421   3.911   6.625   1.249 -0.6863 -0.2505  0.3060
  359MOL0     C49422   3.981   6.711   1.158  0.2116 -0.2664  0.6427
  359MOL0     C49423   4.067   6.780   1.227 -0.4548 -0.0625  0.0525
  359MOL0     C49424   4.142   6.885   1.152  0.1245 -0.7938  0.0387
  359MOL0     C49425   4.272   6.845   1.086 -1.7206  0.3733  0.1551
  359MOL0     C49426   4.251   6.795   0.938  0.0355 -0.9142  1.0209
  359MOL0     C49427   4.393   6.792   0.870 -0.6405  0.2626 -0.9615
  359MOL0     O49428   4.404   6.920   0.803 -0.4176 -0.0144  0.3862
  359MOL0     C49429   4.351   6.946   0.675  0.9690  0.4782 -0.5066
  359MOL0     C49430   4.272   6.863   0.591  0.0848  0.2119  1.1246
  359MOL0     C49431   4.224   6.917   0.467 -0.5760  0.8908  0.0651
  359MOL0     C49432   4.140   6.827   0.371 -0.3557 -0.0455  0.2653
  359MOL0     C49433   4.261   7.046   0.426  1.0188 -0.2349  1.4246
  359MOL0     C49434   4.208   7.114   0.296  0.3529  0.2405  0.3105
  359MOL0     O49435   4.096   7.062   0.226 -0.6568  0.4545 -0.1939
  359MOL0     C49436   4.066   7.124   0.106 -0.5146  0.5329 -0.0276
  359MOL0     C49437   4.030   7.258   0.106 -0.0993 -0.8309 -0.2204
  359MOL0     C49438   4.009   7.321  -0.020 -0.1359 -0.7474  0.5807
  359MOL0     C49439   4.025   7.240  -0.142 -0.7772 -0.4629 -0.2051
  359MOL0     O49440   4.018   7.285  -0.276  0.0988 -0.0313 -0.4727
  359MOL0     C49441   3.925   7.393  -0.296  0.1006  0.0561  0.3227
  359MOL0     C49442   3.864   7.369  -0.438 -0.5193 -0.3442  0.1571
  359MOL0     C49443   3.975   7.371  -0.537 -0.7721 -0.0768  1.1882
  359MOL0     C49444   3.906   7.321  -0.668 -0.4063 -1.7776  0.4512
  359MOL0     C49445   3.995   7.289  -0.789 -0.5338  0.3126 -0.2041
  359MOL0     C49446   3.916   7.250  -0.910  0.7750 -0.8014 -0.9524
  359MOL0     C49447   4.004   7.232  -1.037 -0.0434  0.3752  0.0903
  359MOL0     C49448   4.121   7.129  -1.024 -0.5792  0.5011  0.2173
  359MOL0    Cl49449   4.252   7.176  -1.130  0.3129  0.2310 -0.1220
  359MOL0     C49450   4.058   7.111  -0.130  1.1536  0.2001  0.0013
  359MOL0     C49451   4.080   7.050  -0.011 -0.0559  0.4983 -0.3784
  359MOL0     O49452   4.274   7.212   0.267  0.6652 -1.0693  0.5045
  359MOL0     C49453   4.342   7.115   0.509 -0.4639 -0.6611  0.1788
  359MOL0     C49454   4.381   7.072   0.637 -0.4857 -0.4679 -0.8461
  359MOL0     N49455   4.057   6.752   1.362 -0.2537  0.2807  0.8442
  359MOL0     N49456   3.971   6.658   1.368  0.7342 -0.3953  0.0062
  359MOL0     C49457   3.227   5.830   0.909  0.2933  1.3822 -0.5744
  359MOL0     C49458   3.160   5.822   0.788 -0.5440 -0.3747  0.4995
  359MOL0     C49459   2.919   5.860   0.421  0.3612  0.3116 -0.8276
  359MOL0     C49460   2.857   5.989   0.418  0.2427  1.3608  0.2300
  359MOL0     C49461   2.810   6.045   0.300 -0.1790  0.3492  0.2826
  359MOL0     C49462   2.815   5.964   0.181 -0.5602 -0.0126  0.6509
  359MOL0     O49463   2.766   5.990   0.052  0.4684  0.2971 -0.8074
  359MOL0     C49464   2.703   6.119   0.022 -0.9284  0.4714  0.5352
  359MOL0     C49465   2.809   6.209  -0.029  0.7418  0.0362  0.1554
  359MOL0     C49466   2.895   6.150  -0.150  0.3131  0.0159 -0.4413
  359MOL0     C49467   3.020   6.070  -0.108  0.8623  0.1358  0.5996
  359MOL0     C49468   3.067   5.978  -0.216  0.0138  0.4599  0.8978
  359MOL0     C49469   3.109   5.911  -0.309  0.1306 -0.2600 -0.2932
  359MOL0     C49470   2.879   5.837   0.178 -0.0144 -0.1517  0.0748
  359MOL0     C49471   2.937   5.793   0.301  0.8689  0.2588  0.7928
  359MOL0     C49472   2.991   5.654   0.303  0.0460 -0.1248  0.3095
  359MOL0     H49473   2.902   6.030   0.881 -0.4936  0.7234  4.9293
  359MOL0     H49474   3.012   6.002   1.096 -2.8233  1.2169 -1.5535
  359MOL0     H49475   3.176   6.037   1.277  2.1141 -0.5161  3.2447
  359MOL0     H49476   3.274   6.099   1.145 -0.5469  2.0727  1.8050
  359MOL0     H49477   3.360   5.941   1.394  1.4069  0.3859  0.7723
  359MOL0     H49478   3.478   5.958   1.264  2.1667  2.3911  2.5663
  359MOL0     H49479   3.367   6.186   1.414 -1.9884 -2.6599 -1.4186
  359MOL0     H49480   3.538   6.104   1.420 -1.2259 -0.7966  2.7218
  359MOL0     H49481   3.515   6.166   1.164  2.6710 -1.3493  2.3930
  359MOL0     H49482   3.384   6.275   1.209 -0.2297  4.0149  3.2095
  359MOL0     H49483   3.672   6.294   1.286  1.1602  2.3023 -0.3450
  359MOL0     H49484   3.553   6.389   1.369 -0.0500 -0.5911  0.6650
  359MOL0     H49485   3.605   6.422   1.069  0.5970  2.0084 -0.7476
  359MOL0     H49486   3.485   6.515   1.172 -0.2753  1.5171  2.8738
  359MOL0     H49487   3.674   6.600   1.311 -0.3069  1.2128 -1.0681
  359MOL0     H49488   3.690   6.643   1.141  0.2583  0.0769  0.2447
  359MOL0     H49489   3.834   6.431   1.299 -1.4000 -0.6832 -0.6647
  359MOL0     H49490   3.869   6.450   1.117 -2.2724 -0.9355 -1.3082
  359MOL0     H49491   3.978   6.721   1.050  3.6797 -0.5480  0.4241
  359MOL0     H49492   4.166   6.954   1.233 -1.2052  1.9858 -1.7846
  359MOL0     H49493   4.072   6.925   1.078 -0.1789 -0.4435  0.5058
  359MOL0     H49494   4.331   6.936   1.076 -2.9627  1.1210 -0.5717
  359MOL0     H49495   4.334   6.784   1.153 -1.9002  0.0812  0.0571
  359MOL0     H49496   4.220   6.691   0.947  0.1079 -1.0637 -0.2841
  359MOL0     H49497   4.180   6.859   0.885  2.5277  0.5503 -0.7507
  359MOL0     H49498   4.466   6.787   0.952 -1.3162 -0.6590 -0.3922
  359MOL0     H49499   4.416   6.710   0.801  4.1533  1.3032 -0.9769
  359MOL0     H49500   4.239   6.764   0.621  0.9512  0.5110  3.2521
  359MOL0     H49501   4.198   6.820   0.279 -3.2009  1.0284 -1.7355
  359MOL0     H49502   4.047   6.882   0.351  0.4684  0.4101 -2.7495
  359MOL0     H49503   4.120   6.729   0.415  0.6069  0.2897  1.5115
  359MOL0     H49504   4.019   7.314   0.199 -4.7671 -0.3576 -0.8262
  359MOL0     H49505   3.982   7.425  -0.035  1.0087 -0.5233 -0.0307
  359MOL0     H49506   3.836   7.405  -0.233 -1.2543 -1.6231 -1.1582
  359MOL0     H49507   3.981   7.485  -0.279 -0.0949  0.1573  0.4305
  359MOL0     H49508   3.824   7.270  -0.414  3.5322 -2.4327 -0.7715
  359MOL0     H49509   3.796   7.450  -0.464 -2.5733 -0.8521  3.3027
  359MOL0     H49510   4.069   7.320  -0.517  0.4207  0.9596 -1.4101
  359MOL0     H49511   3.999   7.476  -0.558 -0.3429 -0.3962  0.0089
  359MOL0     H49512   3.825   7.392  -0.687 -0.0617 -1.5689 -0.2960
  359MOL0     H49513   3.846   7.233  -0.642  1.4185 -2.7999  1.4234
  359MOL0     H49514   4.059   7.374  -0.814 -1.2831  1.5163  1.7562
  359MOL0     H49515   4.057   7.202  -0.763 -1.1073  0.0263  0.2545
  359MOL0     H49516   3.847   7.330  -0.936  2.7296  1.3621  0.1091
  359MOL0     H49517   3.857   7.162  -0.884  2.4111 -1.6286  0.1476
  359MOL0     H49518   4.050   7.328  -1.065 -1.0550  1.3163  1.5025
  359MOL0     H49519   3.936   7.203  -1.117  1.7398 -0.1251 -1.3225
  359MOL0     H49520   4.077   7.037  -1.063 -0.4068  0.8627 -0.8520
  359MOL0     H49521   4.162   7.105  -0.925  1.6088  1.9876 -0.2692
  359MOL0     H49522   4.077   7.050  -0.218  1.1650  0.6958 -0.3380
  359MOL0     H49523   4.103   6.946   0.006 -1.9704  0.2000  0.7115
  359MOL0     H49524   4.382   7.211   0.479  1.6834 -1.4189  0.4621
  359MOL0     H49525   4.439   7.141   0.696  0.4218 -3.3473  1.9109
  359MOL0     H49526   3.321   5.778   0.924 -2.1170 -2.9853  1.1097
  359MOL0     H49527   3.185   5.768   0.697 -2.7332  1.2353 -1.1847
  359MOL0     H49528   2.850   6.050   0.507 -2.0010 -0.0313  1.0970
  359MOL0     H49529   2.765   6.143   0.293 -1.5345 -0.3580 -2.6858
  359MOL0     H49530   2.626   6.118  -0.056  1.2811 -2.4188 -1.8572
  359MOL0     H49531   2.664   6.163   0.114  0.2750  1.1034  0.7604
  359MOL0     H49532   2.875   6.249   0.049 -0.8678  0.0333  1.5697
  359MOL0     H49533   2.758   6.297  -0.069  2.2147  0.2318 -1.3936
  359MOL0     H49534   2.825   6.095  -0.213  1.6759 -3.5257  0.8815
  359MOL0     H49535   2.934   6.233  -0.211 -0.8537  3.1391  2.7207
  359MOL0     H49536   3.012   6.015  -0.014 -0.4030  2.6856  2.1096
  359MOL0     H49537   3.099   6.142  -0.083  1.5354 -0.5240  0.4037
  359MOL0     H49538   3.165   5.861  -0.385  2.4344 -0.1248  1.2145
  359MOL0     H49539   2.896   5.792   0.081  2.3013  2.0544 -0.6276
  359MOL0     H49540   3.030   5.632   0.204 -0.9186  1.4923 -0.4650
  359MOL0     H49541   3.064   5.615   0.374 -0.0057 -1.5272 -0.3745
  359MOL0     H49542   2.903   5.590   0.317 -0.9074  1.1784  0.4292
  360MOL0     O49543   4.408   7.813   3.133  0.1956  0.7693 -0.3935
  360MOL0     C49544   4.328   7.906   3.133  0.1813  0.5263 -0.9456
  360MOL0     O49545   4.318   7.995   3.031  1.1032  0.5682  0.0501
  360MOL0     C49546   4.310   7.938   2.906  0.7812 -0.4098  1.0173
  360MOL0     C49547   4.204   7.982   2.833 -1.0222 -0.0977  0.1516
  360MOL0     C49548   4.190   7.945   2.697 -0.5714  0.6436 -0.4670
  360MOL0     C49549   4.292   7.868   2.639  0.0058  1.0302  0.3351
  360MOL0     O49550   4.294   7.835   2.507 -0.4592  0.2817  0.4791
  360MOL0     C49551   4.210   7.903   2.410 -0.6642 -0.5472  0.4208
  360MOL0     C49552   4.096   7.808   2.371  0.4416  0.3502 -0.5891
  360MOL0     C49553   3.982   7.880   2.292  0.2956  0.3778  0.6322
  360MOL0     C49554   3.969   7.836   2.146  0.5046  0.4389  0.6382
  360MOL0     C49555   3.923   7.944   2.055  1.2015 -0.2626 -0.0913
  360MOL0     C49556   3.768   7.973   2.071  0.9561  0.3696 -0.0256
  360MOL0     C49557   3.717   8.098   1.987 -0.0455 -0.8436 -0.1271
  360MOL0     C49558   3.562   8.124   2.004 -0.5152  0.6639  0.7305
  360MOL0     N49559   3.527   8.244   1.925  0.0218 -0.4197 -0.5083
  360MOL0     C49560   3.398   8.286   1.932  0.2738 -0.6837  0.2917
  360MOL0     C49561   3.404   8.419   1.895  0.0182  0.4212  1.2144
  360MOL0     C49562   3.282   8.508   1.877 -1.1581  0.5563  0.5550
  360MOL0     C49563   3.311   8.642   1.955 -0.0962 -0.3962 -0.4818
  360MOL0     C49564   3.272   8.615   2.102  0.9498  0.2325  0.6186
  360MOL0     C49565   3.390   8.562   2.178 -0.3149  0.8021  0.8368
  360MOL0     O49566   3.355   8.432   2.229 -0.3004 -0.4005 -0.2410
  360MOL0     C49567   3.461   8.355   2.272  0.1035 -0.1521 -0.8268
  360MOL0     C49568   3.594   8.385   2.268 -0.4992  1.1739  0.5771
  360MOL0     C49569   3.700   8.307   2.333  0.3208 -0.2116  0.6369
  360MOL0     C49570   3.840   8.353   2.301  0.7593  0.0298 -0.1394
  360MOL0     C49571   3.661   8.194   2.406 -0.2265  0.1827 -0.4150
  360MOL0     C49572   3.748   8.115   2.492  0.0441 -0.6172 -0.0978
  360MOL0     O49573   3.693   8.014   2.561 -0.2836  0.2572 -0.5610
  360MOL0     C49574   3.775   7.952   2.661  0.7312 -0.0018 -0.6517
  360MOL0     C49575   3.802   8.021   2.782  0.0032 -0.3908  0.0474
  360MOL0     C49576   3.856   7.952   2.888  0.8372 -0.5464 -0.3393
  360MOL0     C49577   3.905   7.821   2.873 -0.3700 -0.6620  0.0722
  360MOL0     O49578   3.946   7.775   2.982 -0.0276  0.7902  0.2317
  360MOL0     C49579   3.925   7.632   3.011  0.5603 -0.3869 -0.2238
  360MOL0     C49580   4.060   7.566   3.032 -0.2217 -0.0309  0.2444
  360MOL0     C49581   4.100   7.580   3.183  0.0416 -0.0850  0.7474
  360MOL0     C49582   4.022   7.477   3.267  1.0753  0.7460 -0.4978
  360MOL0     C49583   4.012   7.539   3.404  0.0173 -0.2514  0.2018
  360MOL0     C49584   3.867   7.584   3.430  0.3493 -0.1502 -0.5301
  360MOL0     C49585   3.843   7.648   3.563 -0.3820 -0.2520 -0.4779
  360MOL0     C49586   3.906   7.565   3.680  0.3941 -0.1388 -0.4591
  360MOL0    Cl49587   3.845   7.395   3.689 -0.1958 -0.2800  0.2094
  360MOL0     C49588   3.893   7.759   2.755 -0.0036  0.0718 -0.2629
  360MOL0     C49589   3.816   7.821   2.651  0.1993 -0.0514 -0.0161
  360MOL0     O49590   3.869   8.138   2.507  0.1446  0.1725  0.1309
  360MOL0     C49591   3.520   8.174   2.429 -0.6288  0.2126  0.6093
  360MOL0     C49592   3.428   8.253   2.360 -0.6299 -0.0589 -0.5218
  360MOL0     N49593   3.528   8.451   1.866 -1.2073 -0.1105 -0.1671
  360MOL0     N49594   3.601   8.352   1.894  0.2008  0.1740 -0.5250
  360MOL0     C49595   4.402   7.828   2.712  0.3033 -0.9487 -0.1497
  360MOL0     C49596   4.415   7.869   2.847  0.4917 -0.9422  1.5994
  360MOL0     C49597   4.246   7.932   3.248 -0.2529  0.7467 -0.1872
  360MOL0     C49598   4.113   7.949   3.224  0.5985 -0.4768 -0.5368
  360MOL0     C49599   4.027   7.974   3.332  0.2438 -0.1752 -0.4417
  360MOL0     C49600   4.069   7.980   3.461  0.3329  0.8079 -0.4099
  360MOL0     O49601   3.987   8.029   3.563 -0.1568  0.9168  0.5698
  360MOL0     C49602   3.854   8.062   3.541 -0.0987  1.1951  0.1221
  360MOL0     C49603   3.805   8.081   3.678  0.2121 -0.5142 -0.3299
  360MOL0     C49604   3.675   8.163   3.698 -0.2506 -0.3900  1.3393
  360MOL0     C49605   3.657   8.190   3.844  0.0136  0.3638 -0.6043
  360MOL0     C49606   3.582   8.090   3.917  0.7368 -1.0202  0.2177
  360MOL0     C49607   3.520   8.008   3.975 -0.3908 -0.5737 -0.2016
  360MOL0     C49608   4.200   7.961   3.491 -1.0206  0.8928 -0.0451
  360MOL0     C49609   4.289   7.931   3.385  0.5242  0.4153 -0.1415
  360MOL0     C49610   4.429   7.908   3.424 -0.4329  0.4494  0.6231
  360MOL0     H49611   4.127   8.046   2.876 -1.3977 -0.5950  0.2303
  360MOL0     H49612   4.105   7.978   2.637 -1.4640 -2.2919 -0.9896
  360MOL0     H49613   4.252   7.923   2.311 -0.8860 -1.0022  0.2305
  360MOL0     H49614   4.192   8.004   2.449  2.6842  0.9974 -1.5661
  360MOL0     H49615   4.138   7.723   2.318 -0.2568  0.9129 -2.1090
  360MOL0     H49616   4.042   7.774   2.460 -2.0490  2.3230 -1.1912
  360MOL0     H49617   3.883   7.857   2.332  0.0668  0.6018  0.2142
  360MOL0     H49618   3.994   7.989   2.295 -0.8605  0.7185 -2.7979
  360MOL0     H49619   4.070   7.806   2.118 -0.4663 -2.2845 -0.3052
  360MOL0     H49620   3.914   7.741   2.143  4.0369 -1.7990  1.3666
  360MOL0     H49621   3.943   7.915   1.952 -4.0691 -0.3766 -1.3496
  360MOL0     H49622   3.971   8.040   2.076  2.1473 -0.7171 -0.1257
  360MOL0     H49623   3.713   7.885   2.036 -1.6121  1.3359  1.3089
  360MOL0     H49624   3.749   7.994   2.177  2.4036  0.0202  0.3284
  360MOL0     H49625   3.760   8.082   1.887 -0.5696 -0.3132 -0.4438
  360MOL0     H49626   3.772   8.188   2.017 -0.0328 -0.6906 -0.5922
  360MOL0     H49627   3.501   8.041   1.967  1.0192 -0.0520 -0.3322
  360MOL0     H49628   3.521   8.138   2.104  0.8224  0.5096  1.3265
  360MOL0     H49629   3.309   8.228   1.954 -0.7857 -0.4260 -2.8047
  360MOL0     H49630   3.186   8.463   1.904 -0.8429  1.0521  2.6894
  360MOL0     H49631   3.272   8.535   1.771 -0.6374 -0.3750  0.2464
  360MOL0     H49632   3.414   8.672   1.934 -0.2852 -0.7509 -2.0681
  360MOL0     H49633   3.244   8.722   1.922  1.7000  1.0321 -0.8510
  360MOL0     H49634   3.242   8.700   2.164  0.6859  1.8973 -1.6420
  360MOL0     H49635   3.191   8.544   2.118 -0.9940  2.1629 -0.1821
  360MOL0     H49636   3.479   8.560   2.114 -0.7531  0.0741  0.2374
  360MOL0     H49637   3.417   8.630   2.259  2.5056  3.3818 -1.9946
  360MOL0     H49638   3.629   8.479   2.225  2.4261 -0.5147 -1.0611
  360MOL0     H49639   3.906   8.289   2.361 -1.2336 -2.7773 -0.7145
  360MOL0     H49640   3.867   8.458   2.314 -2.1542  0.9147 -0.4600
  360MOL0     H49641   3.869   8.326   2.199 -1.0584 -0.5489 -0.5405
  360MOL0     H49642   3.762   8.122   2.790 -1.0318 -0.7850  0.0451
  360MOL0     H49643   3.871   7.992   2.988 -0.5463 -2.6236  0.7749
  360MOL0     H49644   3.861   7.618   3.099  0.4616  1.0505 -0.0471
  360MOL0     H49645   3.883   7.571   2.931  0.5158 -2.3900  1.2401
  360MOL0     H49646   4.055   7.459   3.011 -0.2994 -0.4120  2.0680
  360MOL0     H49647   4.131   7.610   2.961 -2.0988  1.5870 -0.7261
  360MOL0     H49648   4.083   7.683   3.216  1.1590  0.4207 -0.1916
  360MOL0     H49649   4.208   7.565   3.188  0.2867  1.5041  0.7760
  360MOL0     H49650   4.078   7.384   3.256 -0.0136  0.0414 -0.3158
  360MOL0     H49651   3.920   7.450   3.236  0.5390  0.7106  1.2119
  360MOL0     H49652   4.042   7.463   3.476  0.1531  1.9196  2.5899
  360MOL0     H49653   4.077   7.625   3.424 -1.0074 -0.0642  3.3028
  360MOL0     H49654   3.805   7.497   3.410 -0.8879  0.9285 -1.5734
  360MOL0     H49655   3.842   7.658   3.353 -0.4254 -0.9640 -1.0841
  360MOL0     H49656   3.735   7.651   3.579 -0.5421 -1.2031 -1.3553
  360MOL0     H49657   3.867   7.755   3.556 -0.9112  0.0965  1.8734
  360MOL0     H49658   3.890   7.602   3.781 -0.1548 -1.5171 -0.0183
  360MOL0     H49659   4.015   7.574   3.675  0.2175  1.8346 -2.6883
  360MOL0     H49660   3.943   7.664   2.738 -0.2196  0.4206 -3.4527
  360MOL0     H49661   3.798   7.766   2.560 -2.3865  2.3235 -1.0714
  360MOL0     H49662   3.476   8.095   2.490 -3.7855  2.1194  1.0085
  360MOL0     H49663   3.325   8.222   2.370 -1.4740  1.3259 -3.6732
  360MOL0     H49664   4.473   7.771   2.654  0.5120  0.0039 -0.8498
  360MOL0     H49665   4.499   7.851   2.912  0.8302 -2.7002  0.7297
  360MOL0     H49666   4.083   7.951   3.120  2.2718 -1.7994 -1.0950
  360MOL0     H49667   3.922   7.987   3.309  0.5150 -0.1813 -1.7713
  360MOL0     H49668   3.845   8.146   3.471  0.1863  0.9093 -0.2643
  360MOL0     H49669   3.805   7.971   3.503 -1.4899  0.6507  2.9555
  360MOL0     H49670   3.879   8.146   3.726 -1.0667 -1.5439  3.4403
  360MOL0     H49671   3.801   7.983   3.726  0.8892 -1.1868 -1.6223
  360MOL0     H49672   3.699   8.256   3.646  2.4557  0.0227  3.1147
  360MOL0     H49673   3.595   8.123   3.636  1.7266  4.7541 -5.9046
  360MOL0     H49674   3.593   8.279   3.841 -0.4682  0.0131 -0.6777
  360MOL0     H49675   3.750   8.206   3.900  0.2494  0.0558 -0.9030
  360MOL0     H49676   3.456   7.949   4.038 -0.9098 -0.6930 -0.8303
  360MOL0     H49677   4.235   7.975   3.592  1.2067  4.3658 -1.1301
  360MOL0     H49678   4.445   7.801   3.437  0.3946  0.6622  1.5092
  360MOL0     H49679   4.495   7.953   3.349 -1.5615  0.2471 -0.5338
  360MOL0     H49680   4.469   7.951   3.516  1.5862 -1.7603  0.8720
  361MOL0     O49681  11.274   3.129   1.047  0.7747 -0.1046 -0.0209
  361MOL0     C49682  11.195   3.172   1.133 -0.5596 -0.1002  0.3124
  361MOL0     O49683  11.218   3.270   1.226  0.1980 -0.2105  0.0092
  361MOL0     C49684  11.343   3.325   1.216  1.5199 -0.5257  0.4678
  361MOL0     C49685  11.449   3.248   1.262  0.0048 -0.5669 -0.9009
  361MOL0     C49686  11.572   3.322   1.277  0.8090  0.2643  0.0891
  361MOL0     C49687  11.595   3.457   1.239 -0.0294 -0.1454 -1.1522
  361MOL0     O49688  11.720   3.516   1.223  0.4091 -0.4203 -0.6123
  361MOL0     C49689  11.825   3.447   1.267 -1.4393  0.8034  0.3711
  361MOL0     C49690  11.943   3.542   1.300 -0.1386 -0.7342 -0.1912
  361MOL0     C49691  11.976   3.657   1.196 -1.3795 -0.5903  0.4487
  361MOL0     C49692  12.018   3.604   1.055 -0.0305 -0.0249  0.6256
  361MOL0     C49693  12.039   3.706   0.942  0.7231 -1.1145  0.2426
  361MOL0     C49694  12.055   3.650   0.800 -0.4121  0.9849  0.3679
  361MOL0     C49695  12.138   3.529   0.783  0.0234  0.4435 -0.0388
  361MOL0     C49696  12.175   3.494   0.642  0.4709 -0.0640  0.4801
  361MOL0     N49697  12.076   3.532   0.536  0.4251 -0.7064 -0.7612
  361MOL0     C49698  11.964   3.466   0.493 -0.2032  0.4833  0.5088
  361MOL0     C49699  11.908   3.548   0.417  0.8752 -0.0152  0.2400
  361MOL0     C49700  11.790   3.500   0.327 -1.0693  0.6658 -0.5099
  361MOL0     C49701  11.678   3.440   0.404 -0.4596  0.4015  0.1843
  361MOL0     C49702  11.578   3.367   0.303 -0.0246 -0.4612  0.7442
  361MOL0     C49703  11.483   3.263   0.363 -0.3772  0.0806  0.2401
  361MOL0     O49704  11.553   3.136   0.384  0.8244  0.7478  0.4579
  361MOL0     C49705  11.487   3.048   0.472 -0.0844 -0.8198  0.0651
  361MOL0     C49706  11.347   3.037   0.473  0.5606  0.3076 -0.4809
  361MOL0     C49707  11.277   2.950   0.553  0.4083  0.3463 -0.8677
  361MOL0     C49708  11.126   2.959   0.552 -0.1362  1.2243  0.3461
  361MOL0     C49709  11.359   2.857   0.620 -0.2088  0.3309  0.3867
  361MOL0     C49710  11.308   2.739   0.684 -0.7104  0.2432 -0.1330
  361MOL0     O49711  11.172   2.718   0.689  0.4294  0.1776 -0.9144
  361MOL0     C49712  11.125   2.641   0.790 -0.4922  0.6587 -0.1444
  361MOL0     C49713  11.162   2.508   0.818  0.4059  0.2398  0.8723
  361MOL0     C49714  11.090   2.438   0.916  0.2565  0.1741 -0.1807
  361MOL0     C49715  10.991   2.489   0.993 -0.7364 -0.4970  0.5343
  361MOL0     O49716  10.936   2.400   1.084 -0.1174 -0.6387 -0.3368
  361MOL0     C49717  10.858   2.468   1.190 -0.0763  0.0613 -0.3607
  361MOL0     C49718  10.824   2.390   1.320  0.2193 -0.5669 -0.6302
  361MOL0     C49719  10.673   2.402   1.352 -0.3583  0.1753  0.7785
  361MOL0     C49720  10.633   2.330   1.485  0.9285 -0.8231  0.4648
  361MOL0     C49721  10.508   2.395   1.547 -0.3408 -0.2303  1.3470
  361MOL0     C49722  10.444   2.318   1.662 -0.7052  0.3765 -0.5097
  361MOL0     C49723  10.543   2.284   1.779  0.3009 -0.0276 -0.4373
  361MOL0     C49724  10.498   2.252   1.921 -0.0950  0.7343 -0.2227
  361MOL0    Cl49725  10.502   2.400   2.021  0.2112 -0.0049  0.0059
  361MOL0     C49726  10.947   2.614   0.957  0.8191 -1.0293  0.7732
  361MOL0     C49727  11.012   2.691   0.858 -0.4873  0.2136 -0.4718
  361MOL0     O49728  11.386   2.669   0.745 -0.2851 -0.4661 -0.3151
  361MOL0     C49729  11.497   2.868   0.612 -0.1411  1.9173  0.4117
  361MOL0     C49730  11.563   2.961   0.537  0.1323  0.3224 -0.5711
  361MOL0     N49731  11.964   3.667   0.420  0.3574 -0.4371  0.0522
  361MOL0     N49732  12.070   3.654   0.497 -0.5226 -0.3233 -0.0206
  361MOL0     C49733  11.487   3.522   1.184  0.9357 -0.5288 -0.9662
  361MOL0     C49734  11.360   3.462   1.185 -0.0785  1.5171  0.1028
  361MOL0     C49735  11.061   3.109   1.137  0.1805  0.3739  0.2539
  361MOL0     C49736  10.951   3.198   1.140  0.7706  0.1390  0.1158
  361MOL0     C49737  10.813   3.155   1.157 -0.4230  0.6399  0.1264
  361MOL0     C49738  10.785   3.014   1.189 -0.7161  0.9019  0.2336
  361MOL0     O49739  10.668   2.963   1.210  0.2328  0.5651  0.5182
  361MOL0     C49740  10.601   2.896   1.096 -0.6305 -0.7213 -1.0076
  361MOL0     C49741  10.507   2.779   1.139  0.6049 -0.7487 -0.3497
  361MOL0     C49742  10.445   2.697   1.028 -0.2058 -0.9830 -0.3921
  361MOL0     C49743  10.414   2.549   1.070 -0.4146  0.5171  0.4106
  361MOL0     C49744  10.332   2.538   1.194  0.4905  0.4685  0.0928
  361MOL0     C49745  10.268   2.522   1.291  0.0474  0.1991  0.1222
  361MOL0     C49746  10.901   2.932   1.177 -0.5797 -0.0719  0.0199
  361MOL0     C49747  11.034   2.969   1.152 -0.1794 -1.8110  0.9877
  361MOL0     C49748  11.155   2.872   1.161  0.0099  0.6194  0.3907
  361MOL0     H49749  11.442   3.145   1.296  2.8793 -1.2898 -2.1646
  361MOL0     H49750  11.664   3.268   1.299  0.1222 -0.5440  1.1034
  361MOL0     H49751  11.854   3.364   1.202  0.4340 -0.4453  2.6414
  361MOL0     H49752  11.812   3.407   1.368  1.0839  1.1172  0.8942
  361MOL0     H49753  11.916   3.587   1.396 -2.8901  1.3815 -1.8120
  361MOL0     H49754  12.032   3.480   1.314 -0.8975 -2.4046 -2.2647
  361MOL0     H49755  11.892   3.728   1.188 -2.8342 -2.4546 -2.6507
  361MOL0     H49756  12.062   3.714   1.232  0.8294 -2.1214 -2.0437
  361MOL0     H49757  12.105   3.538   1.061 -0.2592 -0.2572  1.5030
  361MOL0     H49758  11.934   3.542   1.022 -1.2472 -1.0139  5.0209
  361MOL0     H49759  12.134   3.755   0.965 -0.1973  0.7540  0.2561
  361MOL0     H49760  11.966   3.788   0.951  2.2962  0.3095  0.5476
  361MOL0     H49761  11.953   3.624   0.770 -0.4530  1.7359 -0.1621
  361MOL0     H49762  12.092   3.730   0.736 -1.3565  2.6275  1.7683
  361MOL0     H49763  12.092   3.442   0.830 -2.5978  1.2031 -1.0383
  361MOL0     H49764  12.232   3.532   0.839 -1.3969  1.9866  2.4627
  361MOL0     H49765  12.271   3.533   0.608  0.3643  1.2229  1.5924
  361MOL0     H49766  12.173   3.385   0.632 -3.1921 -0.0376 -0.8526
  361MOL0     H49767  11.934   3.362   0.506 -3.6451  1.0618 -1.3054
  361MOL0     H49768  11.828   3.427   0.255  2.9238 -0.1885  2.1196
  361MOL0     H49769  11.752   3.590   0.277  1.2326  1.0884 -1.6474
  361MOL0     H49770  11.725   3.377   0.481 -1.9898 -0.3841  0.5074
  361MOL0     H49771  11.620   3.517   0.455 -1.1984  1.3184 -1.9664
  361MOL0     H49772  11.508   3.449   0.284 -2.4887 -2.3918  0.8247
  361MOL0     H49773  11.615   3.330   0.207 -3.8647 -4.1022  0.3565
  361MOL0     H49774  11.461   3.301   0.464 -0.9083  3.6866 -1.0675
  361MOL0     H49775  11.394   3.242   0.302 -0.0825  0.3774 -0.2998
  361MOL0     H49776  11.284   3.109   0.420 -2.0353 -2.9362 -2.1804
  361MOL0     H49777  11.094   3.059   0.519  2.0331  1.8967  0.1387
  361MOL0     H49778  11.082   2.936   0.649 -1.1840  0.8465 -0.1992
  361MOL0     H49779  11.087   2.879   0.488  0.6144 -0.0064  1.4022
  361MOL0     H49780  11.247   2.454   0.776 -0.4495 -1.2336  0.9411
  361MOL0     H49781  11.123   2.338   0.943  3.8839  1.7537  2.0433
  361MOL0     H49782  10.900   2.558   1.237 -2.5556  1.1785 -0.1119
  361MOL0     H49783  10.766   2.500   1.140 -1.0175  1.3849  2.0659
  361MOL0     H49784  10.850   2.287   1.295  1.7262  0.2825 -2.9236
  361MOL0     H49785  10.889   2.432   1.398  1.3003 -0.7530 -1.3992
  361MOL0     H49786  10.620   2.364   1.264  1.1364  2.8921 -1.5020
  361MOL0     H49787  10.655   2.510   1.344  1.0336  0.4912  1.6128
  361MOL0     H49788  10.726   2.336   1.541 -0.4682  1.4245  2.7184
  361MOL0     H49789  10.617   2.224   1.462  0.8661 -1.0522  1.5442
  361MOL0     H49790  10.537   2.499   1.566 -0.2274  0.3990 -1.7689
  361MOL0     H49791  10.428   2.404   1.474  0.1725  0.5467  0.8708
  361MOL0     H49792  10.397   2.224   1.630 -0.4894  0.2086 -0.3354
  361MOL0     H49793  10.376   2.393   1.704  0.7634  1.6844 -0.3935
  361MOL0     H49794  10.630   2.348   1.788  1.9789 -2.2582  0.1501
  361MOL0     H49795  10.590   2.190   1.748 -0.6257 -0.3277 -0.9764
  361MOL0     H49796  10.558   2.176   1.970 -3.3027 -1.0401  1.2777
  361MOL0     H49797  10.399   2.206   1.915  1.2738 -2.7131  1.2781
  361MOL0     H49798  10.863   2.666   1.003  1.5857  1.3908 -0.3594
  361MOL0     H49799  10.983   2.794   0.836 -0.5653  0.4388  0.6526
  361MOL0     H49800  11.568   2.802   0.663 -0.6352 -0.6524 -1.9588
  361MOL0     H49801  11.671   2.965   0.525  0.2384  5.0259  0.0496
  361MOL0     H49802  11.487   3.624   1.147  0.1696 -0.3847 -0.5764
  361MOL0     H49803  11.265   3.504   1.153 -1.5174 -2.1383 -0.9534
  361MOL0     H49804  10.973   3.300   1.112  0.6945  0.2202  0.3475
  361MOL0     H49805  10.732   3.226   1.138 -3.2707 -2.2703  0.5034
  361MOL0     H49806  10.549   2.968   1.031 -5.2211 -0.7927  2.0723
  361MOL0     H49807  10.674   2.840   1.038 -1.3638 -0.5096 -2.1739
  361MOL0     H49808  10.424   2.833   1.185 -0.8926 -1.3591 -2.1825
  361MOL0     H49809  10.570   2.720   1.206  2.8410  1.1062 -0.6720
  361MOL0     H49810  10.357   2.753   0.995 -1.2344 -0.3826  2.9931
  361MOL0     H49811  10.512   2.698   0.941  2.0358 -0.3594  1.2613
  361MOL0     H49812  10.496   2.480   1.091 -1.2864 -1.5225 -2.2420
  361MOL0     H49813  10.350   2.507   0.991 -1.3524  3.8638 -0.8059
  361MOL0     H49814  10.215   2.496   1.380  2.3545  0.0507  1.5422
  361MOL0     H49815  10.886   2.828   1.201 -2.1147 -0.4446 -2.2503
  361MOL0     H49816  11.243   2.929   1.189  1.7240 -0.0331 -3.1828
  361MOL0     H49817  11.128   2.791   1.230  0.2489 -0.2107 -0.4820
  361MOL0     H49818  11.179   2.833   1.062  2.1984  0.6900  0.8625
  362MOL0     O49819   1.164   8.245   0.037 -0.5701  0.0912 -0.3124
  362MOL0     C49820   1.097   8.202  -0.057 -0.2055 -0.6115  0.5308
  362MOL0     O49821   1.018   8.280  -0.143  0.6238 -0.1017  0.3163
  362MOL0     C49822   0.990   8.414  -0.118 -0.2623  0.0468 -0.0455
  362MOL0     C49823   0.910   8.467  -0.212  0.3835 -0.5364 -1.5576
  362MOL0     C49824   0.833   8.580  -0.189 -1.1383 -0.1214  1.1389
  362MOL0     C49825   0.878   8.668  -0.086 -0.1723  0.4032  0.3616
  362MOL0     O49826   0.823   8.789  -0.069  0.0648 -0.2556  0.1654
  362MOL0     C49827   0.803   8.875  -0.183 -0.3601  0.6881 -0.1423
  362MOL0     C49828   0.755   9.012  -0.147 -0.4809  0.2523  0.0314
  362MOL0     C49829   0.841   9.079  -0.041  0.3424 -0.4409  0.5681
  362MOL0     C49830   0.995   9.051  -0.058 -0.3628  0.5481 -0.6546
  362MOL0     C49831   1.066   9.153   0.031 -0.3462  0.4948 -0.5180
  362MOL0     C49832   1.043   9.146   0.189 -0.5891  1.2975  0.2059
  362MOL0     C49833   1.047   9.003   0.254  0.3615 -0.2329  0.6825
  362MOL0     C49834   1.197   8.944   0.246 -0.8090  0.0332  0.0150
  362MOL0     N49835   1.301   9.021   0.315 -0.0670  0.1982 -0.6380
  362MOL0     C49836   1.276   9.070   0.442 -0.7099 -0.8548 -0.5292
  362MOL0     C49837   1.372   9.168   0.468  0.3217 -0.8169 -0.1236
  362MOL0     C49838   1.391   9.249   0.588 -1.0850 -0.6213 -1.0529
  362MOL0     C49839   1.291   9.360   0.616  0.6004 -0.2530 -0.0840
  362MOL0     C49840   1.155   9.300   0.670 -0.4306 -0.9205  0.6184
  362MOL0     C49841   1.027   9.391   0.651 -0.0002  1.0026  0.0934
  362MOL0     O49842   1.005   9.404   0.512  0.2002 -0.2590  0.7484
  362MOL0     C49843   0.914   9.497   0.478 -0.6027 -1.1606  0.3727
  362MOL0     C49844   0.795   9.515   0.547  0.6617 -0.2382  0.3416
  362MOL0     C49845   0.697   9.604   0.504 -0.1885 -0.0163  0.2696
  362MOL0     C49846   0.552   9.578   0.553 -0.4925  0.7800 -0.1871
  362MOL0     C49847   0.730   9.704   0.413  0.3991 -0.5259  0.2623
  362MOL0     C49848   0.629   9.809   0.362 -0.4514  0.0832 -0.0538
  362MOL0     O49849   0.647   9.835   0.227 -0.8317  0.1149 -0.5973
  362MOL0     C49850   0.563   9.902   0.152 -0.8207 -0.3198 -1.1091
  362MOL0     C49851   0.621   9.973   0.048  0.7081  0.1611 -0.2396
  362MOL0     C49852   0.538  10.049  -0.048 -0.7598 -0.1555  0.0365
  362MOL0     C49853   0.397  10.048  -0.040 -0.9256  0.0295  0.1626
  362MOL0     O49854   0.306  10.115  -0.102  0.2389 -0.2715 -0.2499
  362MOL0     C49855   0.339  10.173  -0.223 -0.3222  0.3593  0.1692
  362MOL0     C49856   0.220  10.251  -0.285 -0.1316 -0.0516  0.5000
  362MOL0     C49857   0.234  10.399  -0.295 -0.8458 -0.8025  0.2384
  362MOL0     C49858   0.092  10.460  -0.329 -0.7850  0.7959 -0.6550
  362MOL0     C49859   0.100  10.611  -0.373  0.2879 -0.2323  0.5585
  362MOL0     C49860   0.121  10.694  -0.247 -0.1975 -0.8948 -1.0833
  362MOL0     C49861   0.084  10.848  -0.278  0.4661 -0.0705  0.0644
  362MOL0     C49862   0.202  10.930  -0.344 -0.3239  0.2862 -0.8244
  362MOL0    Cl49863   0.346  10.958  -0.245  0.1820  0.6569 -0.4127
  362MOL0     C49864   0.345   9.969   0.067 -0.0321 -0.6100  0.8231
  362MOL0     C49865   0.425   9.905   0.158 -0.5035  0.5900 -0.4458
  362MOL0     O49866   0.545   9.847   0.443  0.2458  0.0437  0.3388
  362MOL0     C49867   0.859   9.703   0.364  0.6832 -1.1047 -0.3778
  362MOL0     C49868   0.947   9.603   0.392 -1.0550  0.2881 -0.1992
  362MOL0     N49869   1.428   9.190   0.347  0.1905 -1.0587 -1.5074
  362MOL0     N49870   1.394   9.096   0.263  0.3522 -0.0735 -0.2909
  362MOL0     C49871   0.982   8.627   0.003  0.7440 -0.1821 -0.5067
  362MOL0     C49872   1.029   8.496  -0.010  0.6826  0.2259 -0.5958
  362MOL0     C49873   1.105   8.062  -0.096  0.2591  0.6250 -0.3294
  362MOL0     C49874   1.234   8.007  -0.118 -0.0755 -0.4907  1.7450
  362MOL0     C49875   1.248   7.869  -0.138  0.7320 -0.5765  0.7316
  362MOL0     C49876   1.139   7.782  -0.150  0.2544 -0.0353  0.4198
  362MOL0     O49877   1.157   7.647  -0.180 -0.7679 -0.6972  0.0339
  362MOL0     C49878   1.045   7.560  -0.198 -0.3709  0.4950 -0.6249
  362MOL0     C49879   0.980   7.510  -0.071  0.6816  0.0252 -1.3543
  362MOL0     C49880   1.075   7.423   0.023 -0.1372  0.0601  1.0321
  362MOL0     C49881   1.078   7.276   0.011 -0.4775  0.3568 -0.4937
  362MOL0     C49882   1.133   7.229   0.138  0.1697 -1.1785  0.4777
  362MOL0     C49883   1.186   7.201   0.242  0.4770 -0.0820 -0.3482
  362MOL0     C49884   1.012   7.839  -0.127 -0.2464  0.0977 -0.2780
  362MOL0     C49885   0.991   7.976  -0.102 -0.1475  0.0457 -0.5376
  362MOL0     C49886   0.854   8.029  -0.065  0.4292  0.0778  0.6325
  362MOL0     H49887   0.881   8.399  -0.292 -1.3163 -0.0987 -1.3498
  362MOL0     H49888   0.755   8.599  -0.263  0.1205 -3.8643 -1.4349
  362MOL0     H49889   0.725   8.836  -0.249  0.5543  1.1687 -1.5428
  362MOL0     H49890   0.902   8.877  -0.228 -0.3964  3.9576 -0.3672
  362MOL0     H49891   0.766   9.073  -0.237  1.0556 -0.6917 -0.4665
  362MOL0     H49892   0.650   8.997  -0.120 -0.5187 -2.9496 -1.4517
  362MOL0     H49893   0.825   9.187  -0.049 -1.7890 -0.6570  1.1990
  362MOL0     H49894   0.805   9.052   0.058  0.9940  2.1734  1.6003
  362MOL0     H49895   1.031   8.952  -0.029  0.0052  0.3519 -1.7334
  362MOL0     H49896   1.031   9.076  -0.158 -0.3994 -1.1319 -1.1122
  362MOL0     H49897   1.033   9.252   0.002  0.2817  0.0238 -3.0181
  362MOL0     H49898   1.173   9.146   0.012 -0.2174  0.4238  0.1878
  362MOL0     H49899   1.102   9.223   0.239  1.4354 -0.7071  1.0656
  362MOL0     H49900   0.936   9.165   0.197 -1.2409 -1.6990 -0.2861
  362MOL0     H49901   0.982   8.934   0.201 -1.2231  1.4061  0.4095
  362MOL0     H49902   1.005   9.004   0.355 -2.4752  0.2129 -0.4002
  362MOL0     H49903   1.186   8.839   0.275  1.7801 -0.3064 -0.0367
  362MOL0     H49904   1.228   8.933   0.142  1.0921 -0.0288  0.5490
  362MOL0     H49905   1.202   9.033   0.511  1.4431 -3.1520  0.6934
  362MOL0     H49906   1.488   9.296   0.576  0.4521 -3.8808 -2.8373
  362MOL0     H49907   1.408   9.199   0.683  1.4530  1.2619 -0.4287
  362MOL0     H49908   1.311   9.430   0.698  2.7374 -1.6620  0.6859
  362MOL0     H49909   1.286   9.420   0.524  3.5554 -0.4202 -0.4517
  362MOL0     H49910   1.133   9.199   0.633  1.5091 -0.3277 -2.5327
  362MOL0     H49911   1.170   9.290   0.778 -1.7005 -5.8127  0.5662
  362MOL0     H49912   0.943   9.340   0.700 -0.3750  0.5405 -0.9908
  362MOL0     H49913   1.032   9.488   0.701 -2.0650  0.9901  0.4064
  362MOL0     H49914   0.771   9.453   0.633  1.0276 -3.4643 -1.6758
  362MOL0     H49915   0.504   9.653   0.617 -0.8493 -0.1661  0.6734
  362MOL0     H49916   0.547   9.482   0.604 -0.1891  0.0468 -1.5030
  362MOL0     H49917   0.495   9.574   0.460  1.0010  2.0629 -1.2227
  362MOL0     H49918   0.726   9.999   0.054 -0.0274  3.0961  2.9766
  362MOL0     H49919   0.599  10.107  -0.117  0.1819 -1.4565 -0.2698
  362MOL0     H49920   0.422  10.242  -0.207  0.5614 -0.9043  1.3603
  362MOL0     H49921   0.368  10.095  -0.295 -2.4000 -1.0442  0.7721
  362MOL0     H49922   0.212  10.216  -0.389 -2.0165 -0.0380  0.5950
  362MOL0     H49923   0.131  10.220  -0.230  0.1472  0.2182  1.1072
  362MOL0     H49924   0.300  10.434  -0.375  2.2373  2.8167  3.9479
  362MOL0     H49925   0.268  10.443  -0.201 -2.0264 -3.2069  1.8826
  362MOL0     H49926   0.022  10.447  -0.246  1.2276  0.4717  1.0648
  362MOL0     H49927   0.059  10.409  -0.420  3.6028 -0.1740 -1.9004
  362MOL0     H49928   0.184  10.624  -0.441  1.8283 -2.9571  1.7666
  362MOL0     H49929   0.009  10.644  -0.424 -0.2289 -1.2992  0.7613
  362MOL0     H49930   0.226  10.680  -0.220 -0.0442 -0.5124 -1.4900
  362MOL0     H49931   0.071  10.661  -0.155  1.5854 -0.3717  0.1199
  362MOL0     H49932   0.063  10.897  -0.182 -2.8012 -0.9272 -0.0991
  362MOL0     H49933  -0.005  10.853  -0.341  1.1626 -0.8885 -1.0187
  362MOL0     H49934   0.153  11.027  -0.356 -1.9304  0.0328  2.5650
  362MOL0     H49935   0.232  10.891  -0.442  0.7063 -1.0002 -0.0372
  362MOL0     H49936   0.236   9.975   0.065  0.0078  2.1844 -1.6782
  362MOL0     H49937   0.384   9.870   0.252 -0.6656  5.5663  1.6883
  362MOL0     H49938   0.900   9.777   0.296 -1.1135 -0.6996 -1.0771
  362MOL0     H49939   1.045   9.604   0.347 -0.5021  2.1798  0.9115
  362MOL0     H49940   0.997   8.691   0.090  1.2853  0.6584 -1.1984
  362MOL0     H49941   1.099   8.457   0.063 -0.3123 -3.9777 -1.5962
  362MOL0     H49942   1.325   8.065  -0.132 -0.1667 -0.9131 -1.2176
  362MOL0     H49943   1.353   7.841  -0.139  0.4503 -1.7715  1.7626
  362MOL0     H49944   0.975   7.624  -0.252  2.0074  1.1647 -3.1233
  362MOL0     H49945   1.083   7.472  -0.252  0.9320 -0.4988  1.7550
  362MOL0     H49946   0.897   7.447  -0.102 -0.3707  0.7341 -0.0512
  362MOL0     H49947   0.935   7.595  -0.020  0.3061 -0.6636 -0.5107
  362MOL0     H49948   1.180   7.455   0.018 -0.5572  1.3386 -0.9636
  362MOL0     H49949   1.041   7.455   0.122  0.5788  0.2827  1.2184
  362MOL0     H49950   1.147   7.256  -0.072 -0.8692  3.0717 -1.5789
  362MOL0     H49951   0.979   7.232  -0.005 -0.1063  0.4060 -3.6660
  362MOL0     H49952   1.246   7.178   0.328  0.7008 -3.0055 -1.1712
  362MOL0     H49953   0.927   7.772  -0.121  0.6070 -0.8899  1.3411
  362MOL0     H49954   0.859   8.117  -0.001 -2.5253 -0.4140  1.6824
  362MOL0     H49955   0.793   8.054  -0.153  2.4372 -0.4298 -0.9788
  362MOL0     H49956   0.796   7.961  -0.002  0.6474 -0.2426  0.4886
  363MOL0     O49957   0.051   1.881   7.364  0.0436 -0.8018 -0.0372
  363MOL0     C49958  -0.041   1.834   7.433  0.8752  0.0792  0.5139
  363MOL0     O49959  -0.051   1.857   7.563  0.6134 -0.5366  0.4370
  363MOL0     C49960  -0.022   1.982   7.609  0.4326  0.0801 -1.0208
  363MOL0     C49961   0.056   1.996   7.723  0.2741  0.5324 -1.3117
  363MOL0     C49962   0.108   2.120   7.768 -0.9216 -0.0564 -0.2939
  363MOL0     C49963   0.077   2.231   7.700 -0.1032 -0.5295 -0.0369
  363MOL0     O49964   0.129   2.354   7.732  0.5225 -0.0216 -0.3769
  363MOL0     C49965   0.105   2.409   7.863  0.0898  0.1817 -0.4124
  363MOL0     C49966   0.218   2.384   7.966 -0.5031 -0.4526 -0.4962
  363MOL0     C49967   0.359   2.392   7.898 -0.0470  0.9162 -1.1306
  363MOL0     C49968   0.402   2.521   7.826 -0.6619  0.2529 -0.1192
  363MOL0     C49969   0.555   2.525   7.789 -0.7107  1.2139  0.8335
  363MOL0     C49970   0.583   2.648   7.703 -0.4760  0.0441  0.5602
  363MOL0     C49971   0.737   2.646   7.685 -0.6579  0.2664  0.2743
  363MOL0     C49972   0.793   2.781   7.625 -0.3989  0.1978 -0.4387
  363MOL0     N49973   0.928   2.771   7.569 -0.1328 -0.9740  0.8627
  363MOL0     C49974   1.032   2.759   7.644 -0.2669  1.1287 -0.2603
  363MOL0     C49975   1.136   2.737   7.563 -0.0272  0.4904  0.2078
  363MOL0     C49976   1.278   2.707   7.613  0.2876  0.2649 -0.0900
  363MOL0     C49977   1.365   2.812   7.558 -2.0635  0.1688 -0.9095
  363MOL0     C49978   1.513   2.785   7.600  0.1848 -0.5170  0.0319
  363MOL0     C49979   1.607   2.909   7.548  0.3113  0.1823  0.6183
  363MOL0     O49980   1.627   2.904   7.405  0.3298 -0.5489 -0.0257
  363MOL0     C49981   1.746   2.842   7.360 -0.7617  0.7440  0.0397
  363MOL0     C49982   1.826   2.760   7.441  0.9147 -0.4799  0.3475
  363MOL0     C49983   1.933   2.689   7.389 -0.8108  0.4763  0.2339
  363MOL0     C49984   2.000   2.591   7.474 -0.5739 -0.3578 -1.1155
  363MOL0     C49985   1.977   2.721   7.259 -0.6926  0.6372  0.0626
  363MOL0     C49986   2.089   2.658   7.183  0.8213  0.2044  0.2898
  363MOL0     O49987   2.100   2.526   7.179  1.2467 -0.4499 -0.5382
  363MOL0     C49988   2.212   2.462   7.138  0.7695  0.1677 -0.0848
  363MOL0     C49989   2.335   2.499   7.080  0.6207 -0.3267 -0.7072
  363MOL0     C49990   2.438   2.406   7.048 -0.3362 -0.0845 -0.7848
  363MOL0     C49991   2.415   2.268   7.050 -0.5064  0.5200  0.3392
  363MOL0     O49992   2.497   2.172   7.002  0.1730  0.0585 -1.2202
  363MOL0     C49993   2.442   2.094   6.893 -0.1604 -0.1743 -0.0893
  363MOL0     C49994   2.523   1.963   6.853 -0.2908  0.4898  0.5168
  363MOL0     C49995   2.526   1.859   6.973  0.3569  0.7769 -0.7476
  363MOL0     C49996   2.557   1.725   6.912 -0.2330  0.2972 -0.1433
  363MOL0     C49997   2.595   1.620   7.008  0.9547  0.0256 -0.0404
  363MOL0     C49998   2.472   1.582   7.089  0.2276 -1.1487  0.8511
  363MOL0     C49999   2.506   1.445   7.148 -0.0664 -0.7336 -0.0089
  363MOL0     C50000   2.437   1.429   7.285 -0.7564  0.5540 -0.2268
  363MOL0    Cl50001   2.261   1.455   7.260  0.1377 -0.3109 -0.3694
  363MOL0     C50002   2.291   2.234   7.095 -0.4777  0.3238  0.0488
  363MOL0     C50003   2.192   2.330   7.142 -0.0333  0.6529  0.4140
  363MOL0     O50004   2.176   2.732   7.150 -0.5840  0.2605  0.3417
  363MOL0     C50005   1.895   2.796   7.179 -0.3773 -0.6013 -0.0713
  363MOL0     C50006   1.779   2.856   7.221 -0.5192 -1.3361 -0.4728
  363MOL0     N50007   1.091   2.752   7.429 -0.3984 -0.5723  0.2184
  363MOL0     N50008   0.965   2.767   7.432 -0.7863  0.1765 -0.3789
  363MOL0     C50009  -0.015   2.225   7.592 -0.0346  0.1278 -0.1262
  363MOL0     C50010  -0.057   2.103   7.545 -0.7630 -0.1983 -0.8603
  363MOL0     C50011  -0.140   1.736   7.386 -0.8330 -0.0638  0.7628
  363MOL0     C50012  -0.240   1.699   7.477  0.1515  0.4361  0.0962
  363MOL0     C50013  -0.339   1.610   7.440  0.1101 -0.9590  0.3410
  363MOL0     C50014  -0.336   1.550   7.309  0.3162  0.2191 -0.0446
  363MOL0     O50015  -0.442   1.475   7.265  0.2203 -0.2622  0.3122
  363MOL0     C50016  -0.576   1.507   7.308  0.4248 -0.6221  0.9383
  363MOL0     C50017  -0.678   1.494   7.194 -0.6529 -0.2896  0.7468
  363MOL0     C50018  -0.651   1.611   7.095  0.1120  0.7167  1.0055
  363MOL0     C50019  -0.733   1.573   6.965  0.1733 -0.5690 -0.1025
  363MOL0     C50020  -0.660   1.607   6.848 -0.8795 -0.3860 -0.9106
  363MOL0     C50021  -0.574   1.652   6.772  0.2909  0.3406  0.2135
  363MOL0     C50022  -0.229   1.584   7.227 -0.0168 -0.3323  0.4906
  363MOL0     C50023  -0.130   1.671   7.260 -0.4127 -0.6076  0.9074
  363MOL0     C50024  -0.043   1.713   7.146 -0.7335  0.1102  0.4730
  363MOL0     H50025   0.096   1.904   7.767  2.0925  0.3075 -3.2712
  363MOL0     H50026   0.167   2.115   7.858  1.1984 -0.6873 -1.6553
  363MOL0     H50027   0.010   2.376   7.906 -0.0762  0.5934 -0.4620
  363MOL0     H50028   0.097   2.518   7.861 -2.0908  0.1564  1.8058
  363MOL0     H50029   0.198   2.467   8.034 -4.5209 -0.5915 -1.2945
  363MOL0     H50030   0.194   2.285   8.006 -0.4291  0.0862  0.9354
  363MOL0     H50031   0.436   2.364   7.971 -3.1227  1.1951  2.5877
  363MOL0     H50032   0.366   2.308   7.829  0.0687  0.9706 -1.1862
  363MOL0     H50033   0.348   2.525   7.730  1.1814 -2.6976 -1.4171
  363MOL0     H50034   0.378   2.607   7.889 -1.1364 -0.9268  1.3681
  363MOL0     H50035   0.594   2.435   7.740  0.8286  1.0263  2.2999
  363MOL0     H50036   0.612   2.532   7.882 -1.0232 -0.7144  1.2206
  363MOL0     H50037   0.539   2.654   7.603  1.0825 -0.3762 -0.1743
  363MOL0     H50038   0.556   2.739   7.757  3.6464  1.8393 -0.0514
  363MOL0     H50039   0.760   2.568   7.612 -3.5307 -1.7279  1.3142
  363MOL0     H50040   0.786   2.619   7.779  2.7252  1.6815 -0.9327
  363MOL0     H50041   0.722   2.805   7.545 -1.7852 -2.9203 -0.2899
  363MOL0     H50042   0.778   2.869   7.687 -1.4123  0.4850 -1.0630
  363MOL0     H50043   1.039   2.745   7.751 -2.0091  3.2547  0.2092
  363MOL0     H50044   1.305   2.610   7.571  3.1472  0.4222  1.1735
  363MOL0     H50045   1.271   2.706   7.722 -0.2571  0.3706 -0.1192
  363MOL0     H50046   1.372   2.795   7.450 -0.7345 -1.5512 -0.6029
  363MOL0     H50047   1.326   2.913   7.570 -0.9042  0.4325  1.1219
  363MOL0     H50048   1.526   2.780   7.709  3.5349  2.0934 -0.0919
  363MOL0     H50049   1.546   2.687   7.565  2.1753 -0.3428  1.2469
  363MOL0     H50050   1.554   3.004   7.561 -3.4634 -1.6672  0.3269
  363MOL0     H50051   1.702   2.904   7.601  0.3391 -0.8059  0.4946
  363MOL0     H50052   1.806   2.745   7.547 -0.2550 -0.4697  0.1481
  363MOL0     H50053   2.087   2.653   7.499 -1.3261  0.9395 -1.6035
  363MOL0     H50054   2.025   2.499   7.421  1.9598 -0.4649  0.1365
  363MOL0     H50055   1.937   2.561   7.558 -1.8596  0.6036 -1.6938
  363MOL0     H50056   2.348   2.605   7.059  5.3312  0.1768  2.8603
  363MOL0     H50057   2.526   2.441   6.995 -1.0105  1.6987 -0.7966
  363MOL0     H50058   2.338   2.072   6.915 -0.0958  2.3090  3.3925
  363MOL0     H50059   2.434   2.158   6.804 -3.2560  4.2820  2.9754
  363MOL0     H50060   2.461   1.929   6.770  0.9716 -3.5998  1.0108
  363MOL0     H50061   2.623   1.992   6.818  0.1853 -2.5987 -1.0005
  363MOL0     H50062   2.430   1.845   7.023  0.7259  0.5658 -0.0922
  363MOL0     H50063   2.592   1.889   7.055 -2.9385 -1.8486  3.2332
  363MOL0     H50064   2.645   1.727   6.847  1.1033 -0.6206  1.5572
  363MOL0     H50065   2.477   1.682   6.852  0.8071 -0.3208 -1.1321
  363MOL0     H50066   2.639   1.536   6.954 -0.0550 -0.9441  0.5964
  363MOL0     H50067   2.678   1.651   7.073  0.4407 -2.1561  1.8011
  363MOL0     H50068   2.389   1.565   7.019 -0.3854 -3.1963  2.0035
  363MOL0     H50069   2.448   1.660   7.162  1.2945 -0.5292  0.5569
  363MOL0     H50070   2.614   1.440   7.159  0.3643  2.2409 -1.7331
  363MOL0     H50071   2.459   1.362   7.095 -3.7454  1.4390 -0.5615
  363MOL0     H50072   2.490   1.488   7.360  0.8325  0.3077 -1.1119
  363MOL0     H50073   2.434   1.322   7.305  1.3824  0.6255  0.7002
  363MOL0     H50074   2.263   2.129   7.103 -1.4264  0.5525 -0.1904
  363MOL0     H50075   2.103   2.294   7.193  0.0913 -0.9659 -0.4243
  363MOL0     H50076   1.914   2.828   7.077 -1.3962 -0.0003 -0.0877
  363MOL0     H50077   1.738   2.932   7.156 -0.0483  0.2453  1.0082
  363MOL0     H50078  -0.035   2.324   7.552  3.3142  0.0249 -2.4780
  363MOL0     H50079  -0.124   2.102   7.460 -1.6940  1.0738 -0.1649
  363MOL0     H50080  -0.262   1.739   7.575 -0.4548 -2.9482  1.4766
  363MOL0     H50081  -0.414   1.579   7.512  0.5629  1.3227  1.9370
  363MOL0     H50082  -0.602   1.437   7.389 -1.3965 -1.3858 -0.2394
  363MOL0     H50083  -0.586   1.608   7.349  2.2851 -0.2938  0.6687
  363MOL0     H50084  -0.780   1.516   7.226 -0.1122  1.1942  1.5324
  363MOL0     H50085  -0.672   1.394   7.149  2.3986 -0.1343  0.5640
  363MOL0     H50086  -0.693   1.706   7.126 -1.8537 -0.9398  3.8691
  363MOL0     H50087  -0.543   1.625   7.083  0.3379 -1.8804 -1.2468
  363MOL0     H50088  -0.834   1.614   6.971 -0.0717 -1.3312  1.4516
  363MOL0     H50089  -0.749   1.466   6.951 -2.0952 -0.4618  1.1859
  363MOL0     H50090  -0.512   1.695   6.696 -1.3400  3.2454  0.4145
  363MOL0     H50091  -0.237   1.555   7.123  3.0424 -0.5489  0.2231
  363MOL0     H50092   0.010   1.808   7.153  0.7939 -0.7375  0.9441
  363MOL0     H50093   0.035   1.639   7.128  1.3250  2.0984  0.8391
  363MOL0     H50094  -0.094   1.714   7.049  1.3799 -0.4270 -0.7048
  364MOL0     O50095   9.284   3.598  11.148 -1.2896  0.0831 -0.5635
  364MOL0     C50096   9.369   3.685  11.146 -0.3052 -1.4800  0.1660
  364MOL0     O50097   9.332   3.815  11.105  0.3844  0.2584  0.0126
  364MOL0     C50098   9.211   3.857  11.043  0.4819 -0.3698  0.5665
  364MOL0     C50099   9.223   3.988  10.988 -0.7606 -0.1036 -1.0645
  364MOL0     C50100   9.118   4.035  10.911 -0.1799  0.0015 -0.6077
  364MOL0     C50101   9.007   3.953  10.879  0.2869  0.0478 -0.1759
  364MOL0     O50102   8.901   3.988  10.787  0.4905  0.3844  0.4329
  364MOL0     C50103   8.878   4.123  10.737 -0.4294 -0.6169 -0.4447
  364MOL0     C50104   8.742   4.138  10.669 -0.0301 -0.0491 -0.0376
  364MOL0     C50105   8.731   4.073  10.534  0.0446  0.9776 -0.2203
  364MOL0     C50106   8.589   4.078  10.470 -0.1080 -0.6212  0.8514
  364MOL0     C50107   8.580   4.017  10.324 -0.6031 -0.7148  0.4292
  364MOL0     C50108   8.599   3.871  10.313  0.9293  0.3695 -0.6700
  364MOL0     C50109   8.565   3.818  10.174 -0.6068  0.5161 -0.3804
  364MOL0     C50110   8.596   3.667  10.161 -0.2246 -0.7310 -0.3390
  364MOL0     N50111   8.563   3.632  10.021  0.1776 -0.4064 -0.2446
  364MOL0     C50112   8.436   3.632   9.954 -0.5393  0.0694 -0.8678
  364MOL0     C50113   8.461   3.561   9.840 -0.0024 -0.0890 -1.0855
  364MOL0     C50114   8.366   3.528   9.735 -0.0492  0.4479  1.9431
  364MOL0     C50115   8.297   3.643   9.658 -0.4464  0.3381 -0.1784
  364MOL0     C50116   8.392   3.732   9.577 -0.1176  0.6732 -0.1991
  364MOL0     C50117   8.333   3.875   9.565  0.5378  0.4082 -0.4844
  364MOL0     O50118   8.432   3.962   9.508  0.1437  0.0342  0.7702
  364MOL0     C50119   8.386   4.084   9.441 -0.4395 -0.0752  0.0940
  364MOL0     C50120   8.263   4.145   9.453 -0.0316  0.4966  0.0476
  364MOL0     C50121   8.218   4.247   9.377 -0.0531  1.6455 -0.5029
  364MOL0     C50122   8.071   4.289   9.405  0.6658  0.6369  0.5149
  364MOL0     C50123   8.311   4.302   9.281  0.0767  0.3664 -0.3360
  364MOL0     C50124   8.269   4.411   9.191 -0.2275 -0.3141 -0.1072
  364MOL0     O50125   8.361   4.518   9.183 -0.1551  0.1796  0.2228
  364MOL0     C50126   8.353   4.571   9.052  0.0727  0.0556 -0.1680
  364MOL0     C50127   8.286   4.687   9.035  0.4132 -0.3414  0.0504
  364MOL0     C50128   8.266   4.735   8.902 -0.0232  0.5301  0.0792
  364MOL0     C50129   8.326   4.679   8.789  0.3399 -0.2786  0.0740
  364MOL0     O50130   8.333   4.749   8.670 -0.2767 -1.1626 -0.1734
  364MOL0     C50131   8.255   4.876   8.653 -0.7709 -0.1361 -0.1614
  364MOL0     C50132   8.253   4.931   8.503  0.5662 -0.4413  0.0888
  364MOL0     C50133   8.398   4.913   8.438 -0.5406  0.0932  0.1411
  364MOL0     C50134   8.385   4.932   8.285 -0.1662 -0.5213  0.2854
  364MOL0     C50135   8.512   4.872   8.216  0.0765 -0.1162 -0.5399
  364MOL0     C50136   8.473   4.884   8.064 -0.5653  0.0066 -0.0986
  364MOL0     C50137   8.416   4.752   8.014  0.1594  0.8126  0.7959
  364MOL0     C50138   8.405   4.750   7.861 -0.5392  0.2550 -0.4221
  364MOL0    Cl50139   8.316   4.610   7.793 -0.2227 -0.6473 -0.3464
  364MOL0     C50140   8.394   4.553   8.813 -0.4392 -0.3591 -0.0240
  364MOL0     C50141   8.418   4.510   8.944  0.4741 -0.1349  0.8738
  364MOL0     O50142   8.178   4.399   9.113  0.1150  0.3865 -0.1584
  364MOL0     C50143   8.440   4.252   9.278 -0.1731 -0.0502 -0.6220
  364MOL0     C50144   8.482   4.142   9.354  0.2914 -0.9713 -1.0957
  364MOL0     N50145   8.591   3.521   9.832  0.9278  0.2542 -0.2893
  364MOL0     N50146   8.646   3.572   9.935  0.0311  1.4175 -0.4107
  364MOL0     C50147   8.991   3.830  10.937 -0.4243 -0.7427  1.4191
  364MOL0     C50148   9.095   3.779  11.022  0.5314 -0.2951  0.6989
  364MOL0     C50149   9.504   3.665  11.197 -0.7623  1.0676 -0.0460
  364MOL0     C50150   9.589   3.779  11.189 -0.8373 -0.2741  1.0065
  364MOL0     C50151   9.718   3.780  11.237  1.1051 -0.1885 -0.0811
  364MOL0     C50152   9.772   3.672  11.297 -0.2806 -0.3352  0.1943
  364MOL0     O50153   9.905   3.672  11.318  0.0043  0.6234  0.0611
  364MOL0     C50154   9.962   3.561  11.395  0.3504  0.3031  0.1311
  364MOL0     C50155  10.096   3.610  11.463  0.5896  0.2747 -0.8132
  364MOL0     C50156  10.063   3.719  11.567 -0.4014  0.8939 -0.0745
  364MOL0     C50157  10.177   3.802  11.611  0.6407 -0.1081  0.4193
  364MOL0     C50158  10.281   3.727  11.688 -0.4142 -0.1705  0.2092
  364MOL0     C50159  10.377   3.678  11.752  0.6406 -0.8815  0.5001
  364MOL0     C50160   9.688   3.556  11.304 -0.3887  0.7613 -0.3735
  364MOL0     C50161   9.558   3.546  11.256  1.2687  0.0323 -1.1205
  364MOL0     C50162   9.482   3.415  11.278  0.0437 -0.2430  0.5507
  364MOL0     H50163   9.311   4.050  11.000 -0.0510 -1.2334 -0.3609
  364MOL0     H50164   9.125   4.132  10.863 -1.8232  1.2016  1.3996
  364MOL0     H50165   8.967   4.146  10.677  2.4096 -3.2523  2.3666
  364MOL0     H50166   8.885   4.193  10.821 -0.3377 -1.6004  0.3806
  364MOL0     H50167   8.657   4.115  10.734 -1.4111  1.2643 -1.2941
  364MOL0     H50168   8.733   4.244  10.643  2.4153 -0.1613 -1.6534
  364MOL0     H50169   8.801   4.122  10.466 -0.8287 -0.1418 -2.0104
  364MOL0     H50170   8.773   3.972  10.540  2.5923  1.8357 -1.9088
  364MOL0     H50171   8.516   4.029  10.535  0.0677  0.3945  1.8529
  364MOL0     H50172   8.552   4.181  10.463 -2.1397 -1.3164  0.7984
  364MOL0     H50173   8.668   4.062  10.277 -0.3958 -0.9016  0.6336
  364MOL0     H50174   8.490   4.046  10.270 -1.4384 -4.6179 -0.6021
  364MOL0     H50175   8.694   3.825  10.342  0.3850 -1.3280 -1.4502
  364MOL0     H50176   8.529   3.823  10.381  2.0392 -2.1240 -1.2020
  364MOL0     H50177   8.615   3.881  10.099  1.8748 -0.5764  0.2460
  364MOL0     H50178   8.461   3.840  10.150 -0.9034 -1.1294 -0.6886
  364MOL0     H50179   8.700   3.650  10.189  1.3306  0.9255 -4.4044
  364MOL0     H50180   8.524   3.626  10.233 -0.7186 -1.5690 -1.2833
  364MOL0     H50181   8.346   3.679   9.993 -0.0410  0.2390  0.1132
  364MOL0     H50182   8.281   3.484   9.788 -0.9627  1.1892  1.1147
  364MOL0     H50183   8.410   3.457   9.664  3.0365  4.5489 -0.7215
  364MOL0     H50184   8.220   3.611   9.588  1.4023 -1.2812 -1.5663
  364MOL0     H50185   8.243   3.712   9.724 -4.8694 -0.5185 -2.4983
  364MOL0     H50186   8.493   3.728   9.619  0.3394  2.6137 -0.9501
  364MOL0     H50187   8.385   3.678   9.482  0.9248  2.3872 -1.3350
  364MOL0     H50188   8.236   3.874   9.514  0.3501  0.9332 -0.1471
  364MOL0     H50189   8.307   3.910   9.665  1.1440  0.1511 -0.2361
  364MOL0     H50190   8.195   4.101   9.525  0.5516  0.5728  0.6589
  364MOL0     H50191   8.023   4.238   9.489 -0.5113  0.2460 -0.3708
  364MOL0     H50192   8.018   4.266   9.312 -0.0846 -2.6440  1.6180
  364MOL0     H50193   8.066   4.397   9.418  3.0018  0.9661 -0.7652
  364MOL0     H50194   8.247   4.722   9.130 -0.3591 -5.1345  1.7859
  364MOL0     H50195   8.205   4.825   8.892 -0.3046  0.3604  0.2683
  364MOL0     H50196   8.156   4.872   8.699 -2.2026  1.7650 -2.8451
  364MOL0     H50197   8.315   4.947   8.711  1.7949  1.2648 -4.0952
  364MOL0     H50198   8.186   4.872   8.440 -1.9858  0.3821  1.8668
  364MOL0     H50199   8.218   5.035   8.497 -3.1548 -1.5984 -0.8765
  364MOL0     H50200   8.425   4.812   8.469  3.1486  0.6633 -0.7225
  364MOL0     H50201   8.474   4.983   8.474  0.0826 -0.0431 -0.8547
  364MOL0     H50202   8.368   5.034   8.249 -1.2073 -0.2450  1.5111
  364MOL0     H50203   8.292   4.883   8.254 -1.6177  2.4345 -0.3435
  364MOL0     H50204   8.598   4.936   8.236  0.0624  0.1840 -1.4161
  364MOL0     H50205   8.526   4.765   8.237 -2.5196 -0.6167 -0.9233
  364MOL0     H50206   8.572   4.888   8.019 -0.7134 -0.8697 -0.5276
  364MOL0     H50207   8.412   4.964   8.019 -0.7588 -1.2746 -2.2672
  364MOL0     H50208   8.327   4.719   8.067  1.0866  1.2183  2.7213
  364MOL0     H50209   8.489   4.673   8.034 -0.4390 -0.2195 -0.8964
  364MOL0     H50210   8.497   4.776   7.809 -2.2244  3.0956 -2.2759
  364MOL0     H50211   8.339   4.835   7.838 -1.9978 -1.1405 -1.6895
  364MOL0     H50212   8.449   4.507   8.731 -0.1486 -1.3062  0.6840
  364MOL0     H50213   8.474   4.417   8.943  1.5355  0.4930  0.0500
  364MOL0     H50214   8.515   4.294   9.211 -0.5448 -0.0483 -1.0460
  364MOL0     H50215   8.580   4.102   9.327 -0.2106 -1.2788 -2.5220
  364MOL0     H50216   8.914   3.764  10.897  0.6160 -0.9942 -0.2684
  364MOL0     H50217   9.080   3.676  11.053 -2.9557 -0.4584 -1.0269
  364MOL0     H50218   9.566   3.870  11.135  1.3047  0.4736  1.2391
  364MOL0     H50219   9.777   3.870  11.220 -0.6671  1.0062 -0.1737
  364MOL0     H50220   9.888   3.535  11.471  0.3953  0.5966  0.2754
  364MOL0     H50221   9.977   3.479  11.323 -0.9805  0.5783 -0.4803
  364MOL0     H50222  10.164   3.641  11.384 -1.1329  0.0013 -2.4849
  364MOL0     H50223  10.142   3.524  11.512 -1.0184 -2.5960 -3.8825
  364MOL0     H50224   9.994   3.791  11.522 -2.0336 -0.6300 -0.1140
  364MOL0     H50225  10.018   3.663  11.650  0.2471  0.4187 -0.0356
  364MOL0     H50226  10.150   3.872  11.691  0.9272 -0.1649  0.5641
  364MOL0     H50227  10.224   3.851  11.525 -0.0289 -0.7874 -0.3555
  364MOL0     H50228  10.452   3.638  11.817  1.5945 -2.2357 -1.3651
  364MOL0     H50229   9.725   3.460  11.341  3.8351  2.2963 -0.0551
  364MOL0     H50230   9.387   3.436  11.328 -0.5286 -0.2698 -0.5164
  364MOL0     H50231   9.445   3.371  11.186 -0.8186  1.8754 -0.1720
  364MOL0     H50232   9.543   3.352  11.344 -0.0094  2.4665  3.4850
  365MOL0     O50233  10.797   7.600  11.278  0.2897 -0.5294 -1.0589
  365MOL0     C50234  10.707   7.519  11.242 -0.2711 -0.7390  0.1445
  365MOL0     O50235  10.657   7.500  11.113 -1.3404 -0.2631  0.2822
  365MOL0     C50236  10.744   7.554  11.020  0.4618 -1.2363 -0.1288
  365MOL0     C50237  10.854   7.499  10.962 -0.4709  0.4277  0.3974
  365MOL0     C50238  10.925   7.558  10.857  0.6258  0.2212 -0.4366
  365MOL0     C50239  10.898   7.689  10.814  0.5349 -0.0662 -0.0523
  365MOL0     O50240  10.967   7.737  10.711 -0.4143  0.3606 -0.5249
  365MOL0     C50241  10.979   7.872  10.674 -0.3488 -0.4905 -0.2345
  365MOL0     C50242  11.113   7.889  10.612 -1.4140 -0.4419 -0.0353
  365MOL0     C50243  11.140   8.034  10.566 -0.2102 -0.6247  0.8577
  365MOL0     C50244  11.046   8.066  10.452 -0.1610  0.4896 -0.9131
  365MOL0     C50245  11.049   7.972  10.328  0.2821 -0.3966 -1.0697
  365MOL0     C50246  10.942   7.999  10.211  0.9412  0.2083  0.1616
  365MOL0     C50247  10.930   7.881  10.117 -0.2638  0.2704  1.0203
  365MOL0     C50248  10.850   7.912   9.991  1.0111 -0.1718  0.5874
  365MOL0     N50249  10.922   8.012   9.911 -0.0795  0.5241 -0.3442
  365MOL0     C50250  10.886   8.141   9.901 -1.0852 -0.4387 -0.4219
  365MOL0     C50251  10.963   8.196   9.802  0.4450  0.9953  0.0703
  365MOL0     C50252  10.972   8.336   9.750  0.1149  0.3680 -0.7417
  365MOL0     C50253  10.916   8.446   9.838  0.3499 -0.1803  0.5981
  365MOL0     C50254  10.981   8.480   9.966  0.1977 -0.3090 -1.0354
  365MOL0     C50255  11.108   8.568   9.959 -0.3609  1.3077  0.8793
  365MOL0     O50256  11.091   8.698   9.904  0.2951  0.3096 -0.3236
  365MOL0     C50257  11.180   8.800   9.933  0.7228 -1.1109  0.6679
  365MOL0     C50258  11.315   8.792   9.952 -0.6501  0.3529 -0.8758
  365MOL0     C50259  11.404   8.899   9.979 -0.6390 -0.4500 -1.2621
  365MOL0     C50260  11.552   8.869  10.008 -0.6744  0.6065  0.5917
  365MOL0     C50261  11.341   9.028   9.998  0.0418  0.1099 -0.0569
  365MOL0     C50262  11.414   9.154  10.039  0.2070  0.7609  0.0544
  365MOL0     O50263  11.335   9.262  10.024 -0.3716  0.2080 -0.3547
  365MOL0     C50264  11.398   9.373  10.073 -0.8232 -0.4160  0.4515
  365MOL0     C50265  11.459   9.455   9.971  0.2907 -1.3679  0.0865
  365MOL0     C50266  11.500   9.585  10.001  0.3051  0.5047  0.4657
  365MOL0     C50267  11.475   9.635  10.134 -0.3207  0.5755  0.0297
  365MOL0     O50268  11.511   9.766  10.165  0.1981  0.3438 -0.0075
  365MOL0     C50269  11.419   9.855  10.230  0.9762  0.3441  0.6837
  365MOL0     C50270  11.316   9.908  10.136  1.0465 -0.5198 -0.8641
  365MOL0     C50271  11.214   9.998  10.197  0.2281  0.5155  0.1704
  365MOL0     C50272  11.132   9.930  10.316 -1.0547 -0.6873 -0.1207
  365MOL0     C50273  11.063   9.807  10.272 -0.1003 -0.1750 -0.3743
  365MOL0     C50274  11.048   9.717  10.386  0.2937  0.0614 -0.1340
  365MOL0     C50275  11.001   9.576  10.350 -0.1569 -0.7690 -0.2238
  365MOL0     C50276  11.055   9.479  10.438  0.4914  0.4074  0.5032
  365MOL0    Cl50277  10.964   9.479  10.599  0.0073 -0.4203  0.6191
  365MOL0     C50278  11.422   9.550  10.230  0.0905  0.4101  0.2571
  365MOL0     C50279  11.381   9.413  10.204 -0.0372 -0.1408 -0.3600
  365MOL0     O50280  11.533   9.157  10.075 -0.4977 -0.3347  0.3115
  365MOL0     C50281  11.202   9.045   9.964 -0.4324  0.0524  0.1405
  365MOL0     C50282  11.124   8.931   9.930  0.3245 -0.3648 -0.1769
  365MOL0     N50283  11.043   8.096   9.745  0.5749  0.1125 -1.0707
  365MOL0     N50284  11.021   7.989   9.811  0.0960  0.2105  0.6448
  365MOL0     C50285  10.791   7.754  10.871  0.1375  0.8381 -0.1756
  365MOL0     C50286  10.714   7.683  10.969 -1.4506 -0.1326  0.3192
  365MOL0     C50287  10.636   7.445  11.342  0.0737  0.2445 -0.0872
  365MOL0     C50288  10.623   7.303  11.312  0.9991  0.1209  0.3723
  365MOL0     C50289  10.566   7.212  11.399  0.0891 -0.1524  1.3304
  365MOL0     C50290  10.502   7.261  11.508  0.2853 -0.1401 -0.0488
  365MOL0     O50291  10.416   7.160  11.572 -1.1080  0.0169  0.2684
  365MOL0     C50292  10.330   7.199  11.689 -0.1609 -0.5706 -0.7193
  365MOL0     C50293  10.401   7.230  11.823 -0.9311  0.2574 -0.3080
  365MOL0     C50294  10.521   7.135  11.841  0.4920 -0.6144 -0.1230
  365MOL0     C50295  10.589   7.157  11.975 -0.3079 -1.1293  0.1685
  365MOL0     C50296  10.633   7.296  11.999  0.2398  0.4616  0.1895
  365MOL0     C50297  10.667   7.402  12.039  0.1741 -0.8532  0.6151
  365MOL0     C50298  10.514   7.399  11.545 -0.1756  0.2458 -0.4518
  365MOL0     C50299  10.590   7.490  11.470  0.0662 -0.4780 -0.0025
  365MOL0     C50300  10.626   7.633  11.526  0.9554 -0.0753 -0.4374
  365MOL0     H50301  10.885   7.401  10.996 -0.4121  1.0730  2.3140
  365MOL0     H50302  10.992   7.498  10.795 -1.7366 -1.8231 -1.1743
  365MOL0     H50303  10.970   7.944  10.757  0.2163 -0.1888 -0.4281
  365MOL0     H50304  10.899   7.890  10.602  0.4885  0.5148 -0.9449
  365MOL0     H50305  11.191   7.863  10.684 -0.0463  1.6736 -0.6786
  365MOL0     H50306  11.140   7.817  10.534  2.1002  1.2204 -0.5464
  365MOL0     H50307  11.135   8.108  10.647  2.9316  1.1772 -0.4350
  365MOL0     H50308  11.242   8.047  10.528 -0.5216  0.9797  0.4843
  365MOL0     H50309  10.945   8.051  10.490  1.0143  2.1923  3.4376
  365MOL0     H50310  11.073   8.170  10.428 -0.1877  0.2823 -1.9132
  365MOL0     H50311  11.022   7.875  10.371  3.4233 -0.4480  1.1244
  365MOL0     H50312  11.153   7.970  10.294  1.7711  0.1175  2.9244
  365MOL0     H50313  10.843   8.034  10.243  1.5628  0.0340  2.4361
  365MOL0     H50314  10.983   8.078  10.147 -1.2162  2.4501  1.3555
  365MOL0     H50315  10.891   7.798  10.175 -1.8061 -1.1156 -1.7884
  365MOL0     H50316  11.026   7.836  10.090  1.5056  1.7127  4.3417
  365MOL0     H50317  10.839   7.820   9.934  1.4964 -1.7658  2.9044
  365MOL0     H50318  10.750   7.950  10.013  1.6517  2.7518 -1.0789
  365MOL0     H50319  10.805   8.186   9.958 -1.3671 -1.6313  0.1516
  365MOL0     H50320  10.922   8.322   9.654 -0.3445 -1.2588 -0.2919
  365MOL0     H50321  11.080   8.348   9.733  0.5793  0.6001  1.8763
  365MOL0     H50322  10.904   8.537   9.779 -1.2580 -0.6425  0.1639
  365MOL0     H50323  10.817   8.410   9.865 -1.1419  3.1088 -0.0634
  365MOL0     H50324  10.906   8.530  10.027  0.9551 -2.0645  1.4800
  365MOL0     H50325  10.999   8.386  10.018 -0.3860  0.9197  1.5669
  365MOL0     H50326  11.160   8.578  10.055 -1.2895 -0.8998  1.6769
  365MOL0     H50327  11.168   8.507   9.890 -2.9347 -0.8817  0.4211
  365MOL0     H50328  11.359   8.692   9.954  0.3844  0.7954 -0.5893
  365MOL0     H50329  11.592   8.786   9.949 -0.5436  1.3007 -0.3272
  365MOL0     H50330  11.566   8.847  10.114 -2.3467 -3.1735  0.2012
  365MOL0     H50331  11.616   8.955   9.984 -2.0157  1.3160 -0.6772
  365MOL0     H50332  11.481   9.412   9.874 -0.0534  0.1368 -0.6910
  365MOL0     H50333  11.553   9.647   9.929 -0.8278 -0.4989 -1.3100
  365MOL0     H50334  11.374   9.790  10.306  3.1098 -2.4253 -0.2306
  365MOL0     H50335  11.467   9.942  10.276  1.2846  0.5783 -0.0733
  365MOL0     H50336  11.377   9.969  10.069 -0.1944 -0.5746 -2.0837
  365MOL0     H50337  11.272   9.822  10.085  1.3570 -1.3397  0.1848
  365MOL0     H50338  11.143  10.017  10.117 -0.7985  0.8659  1.1361
  365MOL0     H50339  11.254  10.094  10.230  1.7739 -0.6800  2.0014
  365MOL0     H50340  11.049   9.998  10.338  0.8428  1.6155  0.2775
  365MOL0     H50341  11.199   9.913  10.401 -0.3384 -1.5682 -0.8472
  365MOL0     H50342  10.963   9.832  10.235 -0.0897  0.6715  0.1296
  365MOL0     H50343  11.118   9.748  10.199  1.6356 -0.9533  1.4759
  365MOL0     H50344  10.979   9.763  10.457 -0.2625  1.3670 -1.4757
  365MOL0     H50345  11.149   9.713  10.430 -0.2584 -0.7886  1.1118
  365MOL0     H50346  11.022   9.540  10.249  0.1581  0.8020 -0.7431
  365MOL0     H50347  10.893   9.587  10.362 -0.0185  0.7828 -0.1965
  365MOL0     H50348  11.160   9.505  10.449 -0.1003  3.3231  0.0962
  365MOL0     H50349  11.031   9.383  10.391  1.1698  2.0229 -3.6401
  365MOL0     H50350  11.409   9.593  10.328  2.9043  0.5283  0.6516
  365MOL0     H50351  11.339   9.352  10.284  2.5161  0.6760  1.7405
  365MOL0     H50352  11.153   9.142   9.959 -1.8496 -0.6086  0.6930
  365MOL0     H50353  11.017   8.939   9.909 -0.9019 -2.5904  4.0596
  365MOL0     H50354  10.759   7.855  10.849  1.2680  0.9484 -1.4128
  365MOL0     H50355  10.629   7.729  11.018 -0.8932  0.8351  0.3999
  365MOL0     H50356  10.660   7.262  11.219 -0.1683  0.2622 -0.1657
  365MOL0     H50357  10.563   7.110  11.362 -3.8356  1.4941 -4.3057
  365MOL0     H50358  10.272   7.289  11.668 -0.0214 -0.3295 -0.0934
  365MOL0     H50359  10.256   7.120  11.705 -5.0188  3.8710  1.8370
  365MOL0     H50360  10.324   7.222  11.900 -0.9121  1.2198 -0.1865
  365MOL0     H50361  10.443   7.331  11.824 -1.7146  0.6211 -2.0351
  365MOL0     H50362  10.484   7.032  11.852  2.4063 -1.2058  1.2607
  365MOL0     H50363  10.587   7.147  11.754  1.8510  0.3521  1.0048
  365MOL0     H50364  10.672   7.086  11.984 -0.2474 -1.0185  0.4994
  365MOL0     H50365  10.514   7.133  12.050 -0.9984  2.1807  0.6938
  365MOL0     H50366  10.689   7.488  12.099  1.6358 -0.6013 -0.2203
  365MOL0     H50367  10.476   7.438  11.639 -0.1586  4.2456 -1.8902
  365MOL0     H50368  10.617   7.639  11.635  0.8225  0.5303 -0.4818
  365MOL0     H50369  10.726   7.667  11.498  1.2873 -2.7236 -3.0174
  365MOL0     H50370  10.550   7.704  11.491  0.3731 -1.4911 -2.2740
  366MOL0     O50371   1.169   9.465   9.341 -0.4491 -0.2642 -0.4437
  366MOL0     C50372   1.254   9.514   9.415 -0.6684 -0.1098  0.7121
  366MOL0     O50373   1.390   9.509   9.392  0.2791 -0.6480 -0.4790
  366MOL0     C50374   1.433   9.397   9.325 -0.4938  0.5580 -0.6081
  366MOL0     C50375   1.450   9.400   9.185  0.0808 -0.1967  1.2069
  366MOL0     C50376   1.509   9.293   9.114 -1.1106  0.2634  0.2106
  366MOL0     C50377   1.538   9.177   9.179 -0.4168 -0.5084 -1.5314
  366MOL0     O50378   1.579   9.069   9.115 -0.9937 -0.3800 -0.0881
  366MOL0     C50379   1.514   9.028   8.990 -0.4136  0.0992  0.3726
  366MOL0     C50380   1.614   9.032   8.881  0.4763  1.3844 -0.4154
  366MOL0     C50381   1.561   8.928   8.770 -0.5641 -0.0446  0.1887
  366MOL0     C50382   1.653   8.933   8.648 -0.5991 -0.7371 -0.0214
  366MOL0     C50383   1.648   8.820   8.542 -0.3585  0.7591 -0.3945
  366MOL0     C50384   1.510   8.819   8.463 -0.9641 -0.7008  0.5607
  366MOL0     C50385   1.502   8.705   8.356 -0.5712 -0.6082 -0.3701
  366MOL0     C50386   1.356   8.691   8.303 -0.1523 -2.0482 -0.9041
  366MOL0     N50387   1.346   8.581   8.217  0.1009  0.2239 -0.0016
  366MOL0     C50388   1.359   8.581   8.080 -0.5945 -0.3823 -0.4200
  366MOL0     C50389   1.321   8.459   8.035  0.3906  0.1191  1.1685
  366MOL0     C50390   1.329   8.417   7.894  0.0707 -0.1758  0.9533
  366MOL0     C50391   1.198   8.391   7.816 -0.7654 -0.2061 -0.2251
  366MOL0     C50392   1.204   8.345   7.668 -0.0908  0.8261 -0.9498
  366MOL0     C50393   1.309   8.410   7.568  0.3098  0.7344 -0.2389
  366MOL0     O50394   1.309   8.560   7.560  1.1739  0.0328  0.0638
  366MOL0     C50395   1.195   8.626   7.513 -0.5649 -0.1849 -0.8300
  366MOL0     C50396   1.101   8.567   7.432  0.8299  0.7221  0.1727
  366MOL0     C50397   0.987   8.630   7.394 -0.2700  0.6101  0.6359
  366MOL0     C50398   0.890   8.535   7.327  0.5657  0.3521 -0.0921
  366MOL0     C50399   0.967   8.775   7.415 -0.0240  1.4666  0.2437
  366MOL0     C50400   0.864   8.842   7.355 -0.5988  1.1220 -0.2041
  366MOL0     O50401   0.746   8.776   7.322  0.3638 -0.0230  0.1548
  366MOL0     C50402   0.667   8.834   7.222 -0.1097 -0.5896 -0.2823
  366MOL0     C50403   0.524   8.837   7.242 -0.2101 -0.6426  0.6820
  366MOL0     C50404   0.439   8.895   7.149  0.3821  0.1420 -1.0181
  366MOL0     C50405   0.491   8.943   7.025 -0.2779  0.6174 -0.4452
  366MOL0     O50406   0.425   9.021   6.930  0.0676  0.4315  0.1596
  366MOL0     C50407   0.299   9.072   6.957  0.2701 -0.3808  0.3600
  366MOL0     C50408   0.321   9.223   6.994  0.0984 -0.0708 -0.6372
  366MOL0     C50409   0.187   9.297   7.031 -1.1508 -0.9916 -0.1469
  366MOL0     C50410   0.219   9.447   7.052 -0.5580  1.2698  0.9868
  366MOL0     C50411   0.089   9.524   7.091 -0.2623  0.4874 -0.1996
  366MOL0     C50412   0.045   9.514   7.239  0.1759 -0.2981 -0.7971
  366MOL0     C50413  -0.069   9.610   7.298 -0.4681  0.0899 -0.9995
  366MOL0     C50414  -0.118   9.567   7.436 -0.7214  0.2489 -0.0278
  366MOL0    Cl50415  -0.142   9.720   7.544  0.4431  0.0156 -0.4784
  366MOL0     C50416   0.621   8.917   7.000 -0.2080 -0.8248  0.2609
  366MOL0     C50417   0.718   8.867   7.095 -0.7511  1.0157  0.7611
  366MOL0     O50418   0.902   8.947   7.313  0.5965  0.3223 -0.5423
  366MOL0     C50419   1.068   8.836   7.489 -0.3178 -0.1070  0.1339
  366MOL0     C50420   1.177   8.760   7.542  0.4639 -0.0699  0.3353
  366MOL0     N50421   1.279   8.385   8.143 -0.4405  0.7460 -0.8944
  366MOL0     N50422   1.299   8.456   8.247 -0.0602 -0.7301 -0.4205
  366MOL0     C50423   1.509   9.173   9.315  0.0511 -0.0373  0.3151
  366MOL0     C50424   1.461   9.276   9.388  0.4030 -1.0430 -0.1662
  366MOL0     C50425   1.223   9.604   9.524 -0.1359  0.2125 -0.3337
  366MOL0     C50426   1.264   9.730   9.521 -0.1718 -0.0424 -0.3047
  366MOL0     C50427   1.225   9.820   9.619  0.5546  0.1030 -0.7215
  366MOL0     C50428   1.163   9.778   9.736 -0.2317  0.3060 -0.1028
  366MOL0     O50429   1.141   9.866   9.837  0.6875 -0.4531 -0.3540
  366MOL0     C50430   1.070   9.813   9.954 -0.2262  0.2742  0.2050
  366MOL0     C50431   1.042   9.940  10.034  0.3092 -0.1780 -0.3093
  366MOL0     C50432   1.171  10.000  10.088 -0.2871 -0.1804 -0.4889
  366MOL0     C50433   1.160  10.130  10.171 -0.6126  0.5437  0.2403
  366MOL0     C50434   1.169  10.107  10.314  0.8738  0.6009  0.1819
  366MOL0     C50435   1.171  10.098  10.438 -1.1616 -0.3553  0.0939
  366MOL0     C50436   1.130   9.640   9.739  0.5194 -0.3651 -0.1113
  366MOL0     C50437   1.160   9.554   9.638  0.2803  0.6784 -0.2741
  366MOL0     C50438   1.133   9.406   9.658 -0.6735 -0.7256  0.1263
  366MOL0     H50439   1.406   9.492   9.147 -1.4700 -0.5819  1.9674
  366MOL0     H50440   1.535   9.306   9.010 -1.9684 -4.7646 -0.8446
  366MOL0     H50441   1.422   9.082   8.967  0.6094  1.5570 -0.4634
  366MOL0     H50442   1.481   8.925   9.006 -2.5240  1.0120  2.4162
  366MOL0     H50443   1.630   9.136   8.850 -0.0404  1.1540 -1.5044
  366MOL0     H50444   1.708   8.998   8.926  0.2380 -1.8512 -2.0715
  366MOL0     H50445   1.564   8.828   8.813  1.3845  0.8387  2.3249
  366MOL0     H50446   1.457   8.958   8.753 -0.0040  2.5664  0.9335
  366MOL0     H50447   1.627   9.028   8.599  0.5843 -0.7988 -0.7958
  366MOL0     H50448   1.756   8.941   8.684  0.3413 -0.5769 -2.5317
  366MOL0     H50449   1.652   8.720   8.586 -2.1221  0.3202 -1.1579
  366MOL0     H50450   1.726   8.819   8.465  1.4817 -3.9964  1.1495
  366MOL0     H50451   1.433   8.799   8.539 -1.3879  0.0761  0.3401
  366MOL0     H50452   1.482   8.912   8.413 -1.5952 -2.2287 -2.0982
  366MOL0     H50453   1.521   8.602   8.387 -1.3972 -1.6033 -2.9007
  366MOL0     H50454   1.566   8.731   8.271 -1.2729  4.3787  0.3085
  366MOL0     H50455   1.293   8.667   8.389  2.6033 -0.2148  1.8576
  366MOL0     H50456   1.316   8.778   8.251 -2.1591 -2.3659  0.0034
  366MOL0     H50457   1.382   8.666   8.015 -3.0144 -0.8107 -1.9738
  366MOL0     H50458   1.381   8.321   7.883  0.4708 -0.0923  2.0138
  366MOL0     H50459   1.393   8.491   7.845  1.2436 -1.7316  0.0241
  366MOL0     H50460   1.148   8.314   7.875  2.5723 -0.4846  2.5982
  366MOL0     H50461   1.136   8.482   7.814 -2.0235 -1.0552 -1.0890
  366MOL0     H50462   1.220   8.237   7.674 -0.2103  0.8650  4.3134
  366MOL0     H50463   1.106   8.373   7.629 -0.4044  1.5409  0.2788
  366MOL0     H50464   1.408   8.387   7.607  1.1658  1.1131 -2.1163
  366MOL0     H50465   1.312   8.358   7.472  3.5000 -1.3893  0.8609
  366MOL0     H50466   1.111   8.460   7.422 -1.9739  0.2623  1.2592
  366MOL0     H50467   0.923   8.432   7.322 -0.1031  0.0104  1.7233
  366MOL0     H50468   0.870   8.559   7.221 -1.1683 -0.2377  0.0673
  366MOL0     H50469   0.795   8.541   7.382  0.7678 -1.6026  0.5111
  366MOL0     H50470   0.478   8.798   7.332 -0.5165  1.8883  1.7039
  366MOL0     H50471   0.334   8.896   7.177  1.0440 -1.2753  1.8054
  366MOL0     H50472   0.237   9.076   6.867  1.6538 -1.3856 -0.6720
  366MOL0     H50473   0.239   9.024   7.035  0.3658 -0.9676  0.0741
  366MOL0     H50474   0.386   9.229   7.081 -0.7961 -2.8943  0.3323
  366MOL0     H50475   0.366   9.278   6.910 -0.9378 -1.8095 -2.4154
  366MOL0     H50476   0.133   9.258   7.118 -0.2043 -2.0090  0.0100
  366MOL0     H50477   0.105   9.279   6.961 -2.9429 -2.3388  2.1865
  366MOL0     H50478   0.241   9.483   6.951 -2.2217  0.4281  0.2909
  366MOL0     H50479   0.301   9.481   7.116 -0.1692  3.6387 -0.6433
  366MOL0     H50480   0.105   9.631   7.074 -0.6233  0.6060  0.2126
  366MOL0     H50481   0.002   9.491   7.034  0.6772  0.2231 -1.5392
  366MOL0     H50482   0.131   9.531   7.305 -0.5744 -0.6043  0.2941
  366MOL0     H50483   0.013   9.410   7.251  0.3565 -0.1956  0.9059
  366MOL0     H50484  -0.154   9.616   7.230  0.7790  0.1206 -2.6010
  366MOL0     H50485  -0.027   9.711   7.308  0.1707 -0.3531  1.8332
  366MOL0     H50486  -0.046   9.503   7.488 -3.2115 -1.1616  1.9286
  366MOL0     H50487  -0.206   9.503   7.420  1.0533 -2.3293 -0.1335
  366MOL0     H50488   0.649   8.951   6.900 -1.2880  1.9957  0.8377
  366MOL0     H50489   0.821   8.851   7.064 -0.5759  4.8209 -1.2284
  366MOL0     H50490   1.058   8.941   7.512  0.3995  0.0334 -0.1774
  366MOL0     H50491   1.248   8.794   7.617  0.6007  3.8841 -1.3196
  366MOL0     H50492   1.518   9.072   9.353 -2.6748 -0.1816  0.7754
  366MOL0     H50493   1.459   9.268   9.496 -2.8829 -0.0519 -0.0535
  366MOL0     H50494   1.328   9.764   9.440  0.6724 -3.3651 -1.2007
  366MOL0     H50495   1.241   9.928   9.615  0.5573  0.1529  0.4409
  366MOL0     H50496   0.971   9.776   9.926  0.7279  0.5469 -4.3181
  366MOL0     H50497   1.131   9.737  10.004  0.2704  0.2986 -0.3478
  366MOL0     H50498   0.973   9.919  10.116  0.8699 -2.1310 -0.3068
  366MOL0     H50499   0.999  10.021   9.974  2.2330  2.9940  2.1899
  366MOL0     H50500   1.220   9.919  10.142 -1.2416 -0.8838 -0.6615
  366MOL0     H50501   1.242  10.018  10.007  0.8724 -1.5090  0.1804
  366MOL0     H50502   1.081  10.192  10.127 -0.5794 -1.8641 -3.7504
  366MOL0     H50503   1.248  10.192  10.151 -0.9937  0.5291 -1.6913
  366MOL0     H50504   1.174  10.112  10.544  2.3051  0.5242  0.0047
  366MOL0     H50505   1.084   9.611   9.833 -0.9624  1.8223 -0.0894
  366MOL0     H50506   1.101   9.390   9.762 -0.4887 -0.0057  0.3019
  366MOL0     H50507   1.048   9.386   9.593 -2.1543  3.7791  0.3479
  366MOL0     H50508   1.219   9.341   9.638 -2.6775 -3.4475 -0.1404
  367MOL0     O50509   4.685   3.995   9.661  0.3462 -0.6867  0.0786
  367MOL0     C50510   4.579   3.933   9.634 -1.1937  0.3323 -0.6496
  367MOL0     O50511   4.541   3.903   9.507 -0.2012 -0.0876  0.2636
  367MOL0     C50512   4.593   3.983   9.401  0.1140  0.1590  0.1978
  367MOL0     C50513   4.586   4.121   9.392  1.4833  0.5971  0.6800
  367MOL0     C50514   4.640   4.195   9.282  0.8545 -0.4977  1.0008
  367MOL0     C50515   4.675   4.119   9.166 -0.2111 -1.6783 -0.4783
  367MOL0     O50516   4.711   4.185   9.048  0.0192 -0.0901 -0.2754
  367MOL0     C50517   4.615   4.252   8.971 -0.6788  0.2990  0.3517
  367MOL0     C50518   4.537   4.155   8.887 -0.0161  0.3658 -0.8450
  367MOL0     C50519   4.608   4.107   8.766  0.0786  0.3534  0.3165
  367MOL0     C50520   4.616   4.199   8.645  0.1179 -0.5547  0.0451
  367MOL0     C50521   4.694   4.136   8.543 -0.8294  0.0561 -0.1402
  367MOL0     C50522   4.669   4.187   8.404  0.1849  0.2190 -0.1559
  367MOL0     C50523   4.721   4.327   8.383 -0.1815 -0.7145 -0.0918
  367MOL0     C50524   4.719   4.374   8.242 -0.1482 -0.5226  0.7596
  367MOL0     N50525   4.776   4.290   8.143 -1.0785  0.3458 -1.0067
  367MOL0     C50526   4.734   4.277   8.003  0.1959  0.4588 -0.2720
  367MOL0     C50527   4.836   4.201   7.947  0.2276 -0.3906  0.5663
  367MOL0     C50528   4.833   4.150   7.809 -0.0796 -0.2293  0.3310
  367MOL0     C50529   4.755   4.233   7.703  0.5745  0.8433 -0.9566
  367MOL0     C50530   4.767   4.184   7.555  0.3951 -0.3061  0.7055
  367MOL0     C50531   4.660   4.067   7.524 -0.2688  0.1289 -0.8716
  367MOL0     O50532   4.696   4.001   7.399  0.3777 -0.0986  1.0927
  367MOL0     C50533   4.674   4.059   7.276 -0.1182 -0.2606  0.2500
  367MOL0     C50534   4.686   3.982   7.162 -0.2075  0.7141  0.1429
  367MOL0     C50535   4.653   4.029   7.033 -0.4582  0.2431 -0.1287
  367MOL0     C50536   4.655   3.934   6.910 -0.5092  0.2053  0.4511
  367MOL0     C50537   4.610   4.163   7.020 -0.4777  0.3244 -0.9780
  367MOL0     C50538   4.596   4.229   6.894  1.1408  0.9860  0.1736
  367MOL0     O50539   4.467   4.259   6.865  0.2898  0.3085  0.1777
  367MOL0     C50540   4.447   4.345   6.762  0.8112  0.2297 -0.2304
  367MOL0     C50541   4.488   4.475   6.774  0.2447 -0.7807  0.2469
  367MOL0     C50542   4.455   4.580   6.680  0.0897  0.2087 -0.0049
  367MOL0     C50543   4.406   4.541   6.555  0.3960 -0.1144 -0.3339
  367MOL0     O50544   4.386   4.645   6.461 -0.7705  1.4384 -0.1302
  367MOL0     C50545   4.419   4.617   6.324 -0.5696  0.1098 -0.4481
  367MOL0     C50546   4.558   4.676   6.286 -0.2937  1.1016 -1.0254
  367MOL0     C50547   4.669   4.602   6.368 -0.3544 -0.6148 -0.0229
  367MOL0     C50548   4.785   4.548   6.274 -0.0475 -0.0055 -0.8106
  367MOL0     C50549   4.899   4.491   6.357 -0.9564  0.8522 -0.3637
  367MOL0     C50550   5.009   4.421   6.275 -0.5805  0.1643 -0.4574
  367MOL0     C50551   5.080   4.516   6.189  0.2060  0.2870  0.2184
  367MOL0     C50552   5.215   4.454   6.155  1.2206 -0.1520 -0.8180
  367MOL0    Cl50553   5.182   4.322   6.047  0.1264 -0.0718  0.4423
  367MOL0     C50554   4.359   4.407   6.543 -0.4767  0.1703 -0.0364
  367MOL0     C50555   4.380   4.310   6.643  0.1519 -0.8219 -0.0839
  367MOL0     O50556   4.698   4.247   6.824 -0.7955 -0.1226  0.6097
  367MOL0     C50557   4.587   4.244   7.129  0.5964  0.2667  0.0737
  367MOL0     C50558   4.621   4.194   7.257  0.0391  0.4741  0.7121
  367MOL0     N50559   4.933   4.162   8.039 -1.1496 -0.4156  0.6506
  367MOL0     N50560   4.893   4.220   8.147  0.9187 -0.1846 -0.6920
  367MOL0     C50561   4.694   3.980   9.178  0.0085  0.3928 -1.0600
  367MOL0     C50562   4.655   3.907   9.294  0.3484 -0.4169 -0.3817
  367MOL0     C50563   4.490   3.873   9.748 -0.6944 -0.5220 -0.5658
  367MOL0     C50564   4.359   3.853   9.708 -0.2230  0.8391 -0.0737
  367MOL0     C50565   4.257   3.826   9.808 -0.7461 -0.1237 -0.2307
  367MOL0     C50566   4.299   3.814   9.949 -1.3889 -0.4356  0.9034
  367MOL0     O50567   4.218   3.793  10.052  0.4989  0.1681 -0.9247
  367MOL0     C50568   4.088   3.725  10.028 -0.3716  0.0999  0.2506
  367MOL0     C50569   4.003   3.684  10.145 -0.5532  0.0649  0.9075
  367MOL0     C50570   4.086   3.638  10.263  0.5728  0.3651  0.6217
  367MOL0     C50571   3.985   3.565  10.364  0.1530 -0.1041  0.4249
  367MOL0     C50572   4.006   3.423  10.380 -0.2642 -1.2068  0.4269
  367MOL0     C50573   4.039   3.303  10.399  0.1831  0.5269 -0.2384
  367MOL0     C50574   4.431   3.831   9.975 -0.3273 -0.3549  0.7871
  367MOL0     C50575   4.533   3.847   9.878 -0.7688 -0.0760 -0.0376
  367MOL0     C50576   4.673   3.836   9.920 -0.0278  0.4746 -0.0366
  367MOL0     H50577   4.559   4.170   9.485 -2.1292 -2.0888  1.2837
  367MOL0     H50578   4.643   4.303   9.278  2.1691 -0.2973 -6.0575
  367MOL0     H50579   4.668   4.314   8.898  2.9351 -2.7227  0.1036
  367MOL0     H50580   4.551   4.314   9.034  1.5900  2.2814  0.8105
  367MOL0     H50581   4.511   4.071   8.953  3.0087  0.8151  1.0978
  367MOL0     H50582   4.446   4.201   8.848  1.2705  1.1668 -3.0347
  367MOL0     H50583   4.703   4.091   8.818 -0.2867  1.0828  1.2484
  367MOL0     H50584   4.566   4.010   8.739 -1.1788  1.0378 -0.2982
  367MOL0     H50585   4.516   4.227   8.610  0.3306  0.2448  0.0527
  367MOL0     H50586   4.662   4.294   8.673 -0.4631 -0.1361 -0.3997
  367MOL0     H50587   4.683   4.028   8.551 -3.0175  0.0860 -2.0131
  367MOL0     H50588   4.802   4.141   8.562 -0.8859 -0.5565  0.3765
  367MOL0     H50589   4.716   4.119   8.332 -2.0116 -1.9976  0.3616
  367MOL0     H50590   4.561   4.176   8.389  0.6021 -0.9862 -2.9941
  367MOL0     H50591   4.816   4.329   8.436  0.8044 -0.0050 -1.8054
  367MOL0     H50592   4.653   4.395   8.435 -1.3405  0.9770 -3.4568
  367MOL0     H50593   4.620   4.398   8.202  0.6747 -2.1868 -2.7014
  367MOL0     H50594   4.771   4.470   8.236 -2.8237  0.9091 -2.8822
  367MOL0     H50595   4.637   4.307   7.964  0.4010  1.9455  0.2945
  367MOL0     H50596   4.784   4.052   7.811 -1.1720  0.3105  0.4362
  367MOL0     H50597   4.936   4.128   7.779  0.2318 -0.6762  1.6505
  367MOL0     H50598   4.653   4.259   7.732  0.3713  0.3342 -1.2076
  367MOL0     H50599   4.809   4.329   7.704  0.2536  1.1295  2.5200
  367MOL0     H50600   4.747   4.268   7.489  1.5141 -0.5535  0.0100
  367MOL0     H50601   4.870   4.153   7.531  0.3360  0.6225 -0.8378
  367MOL0     H50602   4.663   3.987   7.598 -3.6263 -0.6201 -1.3874
  367MOL0     H50603   4.559   4.109   7.532 -0.4484 -0.5442  0.8366
  367MOL0     H50604   4.721   3.879   7.166 -2.2244 -0.0150  0.2072
  367MOL0     H50605   4.700   3.976   6.819  3.7773 -1.2283  1.6578
  367MOL0     H50606   4.558   3.886   6.898 -0.3820 -0.7797  2.9322
  367MOL0     H50607   4.732   3.858   6.926  0.2457  0.5747 -1.1787
  367MOL0     H50608   4.538   4.507   6.864 -2.0822  0.4169  1.1730
  367MOL0     H50609   4.472   4.685   6.701 -0.1644  0.4217 -0.8344
  367MOL0     H50610   4.419   4.508   6.314  0.5922 -0.2376  2.4304
  367MOL0     H50611   4.340   4.659   6.261 -1.3120 -1.1239 -0.3688
  367MOL0     H50612   4.590   4.644   6.186  2.1764 -5.2071  1.2942
  367MOL0     H50613   4.569   4.784   6.303  0.8595  0.6133  1.9508
  367MOL0     H50614   4.640   4.512   6.424  2.8436 -1.9899 -0.3735
  367MOL0     H50615   4.720   4.682   6.422 -0.7771 -0.0267 -0.4797
  367MOL0     H50616   4.827   4.623   6.205  0.0143  0.1502 -0.6055
  367MOL0     H50617   4.744   4.467   6.213 -2.4621 -0.5112  1.3104
  367MOL0     H50618   4.952   4.569   6.412 -1.1417  0.0175  1.0475
  367MOL0     H50619   4.853   4.424   6.430  0.9964  0.8169  0.9233
  367MOL0     H50620   4.972   4.335   6.217 -3.3242  0.5999  0.4743
  367MOL0     H50621   5.070   4.371   6.350 -2.6309  0.3865  1.4583
  367MOL0     H50622   5.102   4.606   6.247  3.0067 -1.7625  2.5824
  367MOL0     H50623   5.011   4.532   6.105 -0.9595 -1.6484  0.7312
  367MOL0     H50624   5.259   4.401   6.240 -1.9896 -4.9263 -1.7445
  367MOL0     H50625   5.275   4.526   6.099 -1.2694  1.0309 -2.1642
  367MOL0     H50626   4.295   4.380   6.460 -0.7015  1.5533 -0.3397
  367MOL0     H50627   4.333   4.212   6.646  1.4524 -1.4479  1.9924
  367MOL0     H50628   4.551   4.346   7.114 -0.6873  0.0366  1.3849
  367MOL0     H50629   4.603   4.265   7.337 -1.4119  1.2347 -0.2315
  367MOL0     H50630   4.733   3.917   9.099 -2.5526  0.3767 -2.4286
  367MOL0     H50631   4.659   3.800   9.311  1.0478 -0.5372 -1.2409
  367MOL0     H50632   4.333   3.857   9.603  2.5498 -0.5340 -0.9108
  367MOL0     H50633   4.155   3.815   9.774 -0.8726  0.5300 -0.0717
  367MOL0     H50634   4.028   3.783   9.957  2.1244 -1.5616 -3.5677
  367MOL0     H50635   4.113   3.642   9.962 -1.6499  0.0823 -0.2353
  367MOL0     H50636   3.932   3.611  10.104 -0.6179  0.4859  0.2581
  367MOL0     H50637   3.950   3.776  10.173  3.4760  1.8743  3.4027
  367MOL0     H50638   4.163   3.571  10.221 -0.9152 -1.6530  0.9428
  367MOL0     H50639   4.132   3.725  10.310  0.0862  1.1010 -0.2305
  367MOL0     H50640   3.888   3.588  10.319  0.7737  1.0459 -0.4090
  367MOL0     H50641   4.002   3.598  10.467  1.4721 -0.5674  0.3741
  367MOL0     H50642   4.089   3.209  10.413 -0.6828  0.0294 -0.4340
  367MOL0     H50643   4.473   3.832  10.075  3.6578 -0.5911 -0.7150
  367MOL0     H50644   4.667   3.772  10.008 -0.9209 -0.8043 -0.9892
  367MOL0     H50645   4.731   3.772   9.852 -0.9768 -1.5011  0.9402
  367MOL0     H50646   4.720   3.924   9.965  1.8890 -1.2062  1.4815
  368MOL0     O50647   8.536   4.931  11.271  0.1646  0.5994 -0.4463
  368MOL0     C50648   8.570   4.885  11.162 -0.3780  0.1871  0.5853
  368MOL0     O50649   8.487   4.813  11.080 -0.1227 -0.6915  0.2312
  368MOL0     C50650   8.352   4.808  11.103  0.3457  0.4057  0.6586
  368MOL0     C50651   8.284   4.686  11.091  1.2328  0.0446 -1.2577
  368MOL0     C50652   8.143   4.677  11.115  0.4998  0.5968  0.5664
  368MOL0     C50653   8.070   4.786  11.147  0.2296 -0.2214 -0.3559
  368MOL0     O50654   7.936   4.799  11.161 -0.9512 -0.5696  0.0172
  368MOL0     C50655   7.869   4.693  11.100  0.3056 -0.4398  0.4057
  368MOL0     C50656   7.791   4.615  11.197  0.4233 -0.2349 -0.1488
  368MOL0     C50657   7.870   4.510  11.275 -0.4851 -0.0433  0.3178
  368MOL0     C50658   7.849   4.366  11.222  0.6822  0.1379 -0.2103
  368MOL0     C50659   7.970   4.276  11.259  0.4973  0.3870  0.2899
  368MOL0     C50660   7.945   4.139  11.188 -0.5402 -0.1050  0.0254
  368MOL0     C50661   8.061   4.033  11.209  0.0245 -0.0995  0.3772
  368MOL0     C50662   8.204   4.052  11.153  0.3192 -1.1133 -0.3778
  368MOL0     N50663   8.272   4.179  11.175  0.2416 -0.1348  0.0875
  368MOL0     C50664   8.314   4.216  11.297  0.2089  0.3765 -0.5275
  368MOL0     C50665   8.366   4.339  11.276  0.2329  0.0075  0.0779
  368MOL0     C50666   8.431   4.433  11.376  0.6128 -0.4242 -0.1728
  368MOL0     C50667   8.552   4.372  11.463  0.6194  0.5549  0.4869
  368MOL0     C50668   8.634   4.471  11.537 -0.0632  0.0115 -0.1688
  368MOL0     C50669   8.732   4.541  11.448 -0.2315  1.3166 -0.0389
  368MOL0     O50670   8.821   4.625  11.525 -0.4080  0.4407  0.8141
  368MOL0     C50671   8.933   4.572  11.587 -0.0715  0.3027 -0.9558
  368MOL0     C50672   9.012   4.661  11.668  0.8558 -0.3543  0.7447
  368MOL0     C50673   9.129   4.639  11.737  0.3289  1.4454  0.2699
  368MOL0     C50674   9.193   4.751  11.805 -0.1021 -0.0452  0.2082
  368MOL0     C50675   9.167   4.502  11.734  0.5309 -0.9893  0.5416
  368MOL0     C50676   9.286   4.450  11.805  0.3975 -0.1009  0.5697
  368MOL0     O50677   9.269   4.326  11.853  0.7443 -0.0926  0.2827
  368MOL0     C50678   9.362   4.260  11.928 -0.9368 -0.4017  0.4639
  368MOL0     C50679   9.327   4.194  12.049 -0.0886  0.5667  0.2382
  368MOL0     C50680   9.426   4.133  12.132  0.2633 -1.8869  0.3700
  368MOL0     C50681   9.555   4.105  12.082  0.6486  0.2170  0.5843
  368MOL0     O50682   9.654   4.030  12.149 -0.3614 -0.0310 -0.7138
  368MOL0     C50683   9.615   3.925  12.225 -0.8731  0.0438 -0.0676
  368MOL0     C50684   9.737   3.840  12.272  1.3916  0.0824 -0.1540
  368MOL0     C50685   9.700   3.713  12.342  0.3450 -1.0325 -0.4746
  368MOL0     C50686   9.808   3.665  12.445 -0.9681  0.5044  0.2223
  368MOL0     C50687   9.756   3.549  12.521 -0.8793 -0.7081  0.0710
  368MOL0     C50688   9.854   3.499  12.613 -0.3353  0.1404  0.3850
  368MOL0     C50689   9.804   3.369  12.687 -0.0891 -0.3316 -0.4449
  368MOL0     C50690   9.786   3.384  12.841 -0.0134  0.2709  0.1069
  368MOL0    Cl50691   9.654   3.501  12.884  0.7000 -0.6487  0.1968
  368MOL0     C50692   9.585   4.155  11.961 -0.7884 -0.2991  0.1173
  368MOL0     C50693   9.490   4.229  11.884 -0.5403 -0.1813  0.0855
  368MOL0     O50694   9.391   4.512  11.804  1.0766  0.0453 -0.7804
  368MOL0     C50695   9.097   4.411  11.646 -0.7229  0.1488 -0.2577
  368MOL0     C50696   8.980   4.441  11.580 -0.4766 -0.6173 -0.3697
  368MOL0     N50697   8.365   4.356  11.132 -0.2555  0.7395 -0.1602
  368MOL0     N50698   8.318   4.254  11.078  0.2056 -0.6192  0.5828
  368MOL0     C50699   8.136   4.911  11.160  1.1090 -0.0795 -0.6067
  368MOL0     C50700   8.278   4.918  11.148 -0.2313  0.2996  0.3343
  368MOL0     C50701   8.713   4.884  11.140  0.0904 -0.4561 -0.1027
  368MOL0     C50702   8.795   4.857  11.253 -0.1529 -0.7065  0.0570
  368MOL0     C50703   8.946   4.861  11.243  1.1165  0.8469 -0.6271
  368MOL0     C50704   9.007   4.879  11.117  0.3897 -0.1970 -0.5179
  368MOL0     O50705   9.144   4.882  11.090 -0.1730  0.6344  0.8106
  368MOL0     C50706   9.239   4.897  11.201  1.1716  0.1260  0.1811
  368MOL0     C50707   9.249   5.039  11.251 -0.3589 -0.6597  0.2457
  368MOL0     C50708   9.331   5.056  11.374 -0.1964 -0.7846  0.5594
  368MOL0     C50709   9.303   5.190  11.441  0.2092  0.8103  0.0336
  368MOL0     C50710   9.411   5.224  11.541  0.1965  1.1920  1.0123
  368MOL0     C50711   9.488   5.222  11.634  0.7495  0.1546 -0.5351
  368MOL0     C50712   8.925   4.900  11.012  0.3258 -0.0632  0.3011
  368MOL0     C50713   8.780   4.914  11.013 -0.4329 -0.2567 -0.3638
  368MOL0     C50714   8.699   4.954  10.886 -0.5150 -0.0306 -0.3852
  368MOL0     H50715   8.343   4.597  11.071 -0.0555 -1.5594  1.5292
  368MOL0     H50716   8.100   4.579  11.094 -2.9870  2.2765 -0.8758
  368MOL0     H50717   7.919   4.626  11.030  2.3654 -2.8714  3.8732
  368MOL0     H50718   7.800   4.733  11.025 -0.8616 -1.9984  0.5887
  368MOL0     H50719   7.736   4.675  11.270  0.5467 -2.0087  1.4801
  368MOL0     H50720   7.707   4.564  11.150 -1.1410  0.3328  1.9100
  368MOL0     H50721   7.976   4.539  11.280 -0.7203  1.0363 -0.4264
  368MOL0     H50722   7.832   4.526  11.376  0.3288  4.6336  0.0844
  368MOL0     H50723   7.763   4.331  11.281 -0.5203 -0.4705 -2.2159
  368MOL0     H50724   7.827   4.366  11.115  1.9843  0.3564 -0.4927
  368MOL0     H50725   7.980   4.254  11.365  1.1031  1.6656  0.5175
  368MOL0     H50726   8.053   4.320  11.203  0.6396 -2.7518 -2.2762
  368MOL0     H50727   7.858   4.093  11.235  0.2060 -1.7047 -0.0980
  368MOL0     H50728   7.932   4.154  11.080  0.1467 -0.5418 -0.1220
  368MOL0     H50729   8.021   3.940  11.168  0.3289 -0.5412  1.0746
  368MOL0     H50730   8.065   4.023  11.318  2.2799 -0.1644  0.3322
  368MOL0     H50731   8.263   3.977  11.206 -1.4238 -1.0203  1.8595
  368MOL0     H50732   8.194   4.042  11.045 -2.7619  3.7199 -0.8632
  368MOL0     H50733   8.287   4.170  11.391  0.9275 -0.3075 -0.6498
  368MOL0     H50734   8.359   4.450  11.456  3.3522  0.1973  2.3473
  368MOL0     H50735   8.455   4.525  11.322 -0.1796  0.9026  1.6163
  368MOL0     H50736   8.507   4.316  11.545  0.7837 -0.7633 -0.3068
  368MOL0     H50737   8.609   4.305  11.398 -0.2500 -0.7418  1.0119
  368MOL0     H50738   8.569   4.544  11.585 -0.1531 -2.1823  3.4673
  368MOL0     H50739   8.682   4.409  11.614 -1.6569 -2.1175 -0.7922
  368MOL0     H50740   8.792   4.468  11.392 -1.7670  0.2283 -0.3242
  368MOL0     H50741   8.687   4.597  11.366  3.2465  2.3326 -1.4453
  368MOL0     H50742   8.975   4.762  11.677  0.9596 -0.4397  2.4356
  368MOL0     H50743   9.266   4.736  11.886  1.9136 -0.8610 -1.6607
  368MOL0     H50744   9.125   4.831  11.836  1.0620  0.3255  2.0205
  368MOL0     H50745   9.255   4.786  11.722 -2.1570 -0.6917 -1.6947
  368MOL0     H50746   9.229   4.199  12.095 -0.0325 -0.9498  0.5594
  368MOL0     H50747   9.405   4.093  12.231 -1.0515 -1.0579  0.4519
  368MOL0     H50748   9.565   3.957  12.317 -1.0593  2.1045 -0.8348
  368MOL0     H50749   9.551   3.865  12.160  0.0117  0.1249 -1.0303
  368MOL0     H50750   9.784   3.805  12.179 -1.9091 -3.4333 -0.7642
  368MOL0     H50751   9.813   3.894  12.329  3.6924 -2.5284 -0.5039
  368MOL0     H50752   9.693   3.642  12.259 -0.9753 -0.0887 -1.2190
  368MOL0     H50753   9.609   3.722  12.403  1.4464 -0.4664  1.1629
  368MOL0     H50754   9.849   3.742  12.512  1.0480 -0.0314 -0.3497
  368MOL0     H50755   9.894   3.630  12.388 -3.1775 -1.3394 -2.1898
  368MOL0     H50756   9.660   3.579  12.563 -1.7275 -0.7324 -1.7389
  368MOL0     H50757   9.731   3.466  12.454 -4.7668 -0.3927  0.8872
  368MOL0     H50758   9.879   3.562  12.699  0.2933 -2.4188  2.2393
  368MOL0     H50759   9.945   3.465  12.563  0.8178  1.7092  1.3309
  368MOL0     H50760   9.878   3.292  12.662  0.1644  0.2797 -1.6180
  368MOL0     H50761   9.714   3.333  12.636  1.1363  0.1263 -3.0962
  368MOL0     H50762   9.881   3.414  12.887 -0.6390  1.0831  0.9221
  368MOL0     H50763   9.762   3.285  12.882  0.9572  0.6985  1.8274
  368MOL0     H50764   9.691   4.153  11.936 -0.5900 -1.2612  0.9771
  368MOL0     H50765   9.535   4.268  11.792  0.0938 -4.1536 -1.4735
  368MOL0     H50766   9.134   4.310  11.636  0.5167  0.6855 -1.3072
  368MOL0     H50767   8.927   4.357  11.536 -0.5925 -1.7258  1.7533
  368MOL0     H50768   8.076   4.995  11.192 -1.5130 -3.4237  4.5096
  368MOL0     H50769   8.316   5.020  11.156 -1.7072  1.0165 -1.1193
  368MOL0     H50770   8.751   4.823  11.346  1.2641  2.1558  1.9363
  368MOL0     H50771   9.015   4.854  11.327  1.9166 -0.2830 -1.3442
  368MOL0     H50772   9.223   4.821  11.278  1.2113 -2.1126 -1.8908
  368MOL0     H50773   9.339   4.884  11.158  0.2186 -5.0826 -1.0923
  368MOL0     H50774   9.147   5.075  11.268  1.1925  3.3212  2.3684
  368MOL0     H50775   9.287   5.094  11.165  0.0442 -2.4550 -0.7875
  368MOL0     H50776   9.312   4.967  11.435  0.0097  0.1751  2.0898
  368MOL0     H50777   9.432   5.051  11.332 -0.6205 -0.4638 -0.5198
  368MOL0     H50778   9.204   5.186  11.488  0.9933 -0.2796  1.6687
  368MOL0     H50779   9.299   5.271  11.367  0.4614 -1.2700 -2.3930
  368MOL0     H50780   9.557   5.215  11.716 -1.4257 -1.0671  1.3204
  368MOL0     H50781   8.974   4.913  10.916 -2.2514  1.2083 -0.9446
  368MOL0     H50782   8.625   5.034  10.903 -0.6124 -0.0675 -0.6355
  368MOL0     H50783   8.774   4.981  10.812  2.3889  1.6785  2.8782
  368MOL0     H50784   8.638   4.871  10.849  0.8804 -0.1323 -2.6383
  369MOL0     O50785   3.823   6.684   6.524 -0.3258  0.4777  0.4805
  369MOL0     C50786   3.896   6.699   6.622 -0.0124  0.0575 -0.1554
  369MOL0     O50787   3.945   6.603   6.702 -1.1503  0.4672  0.9308
  369MOL0     C50788   3.858   6.507   6.756  0.0929 -0.3621  0.6352
  369MOL0     C50789   3.726   6.531   6.805 -0.6227  0.0182  0.2936
  369MOL0     C50790   3.651   6.428   6.869 -0.5054 -0.3105  0.3465
  369MOL0     C50791   3.712   6.299   6.871  0.3509 -0.0852  0.1898
  369MOL0     O50792   3.643   6.195   6.920 -0.6961  0.4164 -0.0926
  369MOL0     C50793   3.677   6.171   7.062  0.8109  0.1064 -0.8128
  369MOL0     C50794   3.717   6.028   7.092 -0.5168 -0.4697 -0.3109
  369MOL0     C50795   3.642   5.921   7.002 -0.1808  0.7089 -0.3208
  369MOL0     C50796   3.681   5.777   7.031  1.1886 -0.1501  0.6016
  369MOL0     C50797   3.622   5.725   7.164 -0.1861  0.1808 -0.0165
  369MOL0     C50798   3.476   5.739   7.186  0.5674 -0.9354 -0.2226
  369MOL0     C50799   3.397   5.667   7.082  0.9264  0.3916 -0.1001
  369MOL0     C50800   3.246   5.691   7.125 -0.5125  0.4565 -0.3129
  369MOL0     N50801   3.203   5.818   7.074  0.5652  0.2650  0.3796
  369MOL0     C50802   3.193   5.924   7.164  0.1639  0.0126 -0.2314
  369MOL0     C50803   3.162   6.027   7.083  0.9178 -0.2376  0.3631
  369MOL0     C50804   3.164   6.175   7.109  0.5666  0.0623  0.1160
  369MOL0     C50805   3.293   6.240   7.075 -0.4687 -0.4138 -0.6095
  369MOL0     C50806   3.313   6.378   7.144  0.3529  0.1164  0.1068
  369MOL0     C50807   3.238   6.477   7.055  0.9001  0.3743  0.3578
  369MOL0     O50808   3.248   6.587   7.146 -0.6344  0.2486  0.2512
  369MOL0     C50809   3.177   6.698   7.128  0.4746  0.1367 -0.6801
  369MOL0     C50810   3.230   6.783   7.032  0.6012  0.2633 -1.0516
  369MOL0     C50811   3.157   6.896   6.980  0.0349  0.1335 -1.5560
  369MOL0     C50812   3.208   6.987   6.879 -0.2610  0.5759  0.0895
  369MOL0     C50813   3.014   6.914   7.026  0.7404 -0.1618 -0.2027
  369MOL0     C50814   2.918   7.015   6.967 -0.2333  0.2971  0.8162
  369MOL0     O50815   2.962   7.102   6.879 -0.5893 -0.1004 -0.2684
  369MOL0     C50816   2.886   7.198   6.823  0.0942 -0.1436  0.4774
  369MOL0     C50817   2.906   7.335   6.851 -0.5444  0.1720  0.3538
  369MOL0     C50818   2.822   7.429   6.780  0.8023  1.0159 -0.5527
  369MOL0     C50819   2.730   7.391   6.682  0.7141  0.0068 -0.8742
  369MOL0     O50820   2.640   7.487   6.644  0.4628 -0.2160  0.8279
  369MOL0     C50821   2.626   7.510   6.505 -0.3437 -0.2222  0.1592
  369MOL0     C50822   2.566   7.646   6.492  0.6667  0.0117  0.3911
  369MOL0     C50823   2.563   7.690   6.348 -0.4841  0.2281  0.4315
  369MOL0     C50824   2.450   7.795   6.313 -0.0883 -0.6364 -1.3925
  369MOL0     C50825   2.505   7.885   6.202  0.3584 -0.1904 -0.3943
  369MOL0     C50826   2.396   7.957   6.126 -0.6357  0.2251  0.0166
  369MOL0     C50827   2.313   8.051   6.217 -0.3512  0.5552  0.4770
  369MOL0     C50828   2.199   8.109   6.127 -1.1372 -0.7503 -1.1985
  369MOL0    Cl50829   2.073   7.985   6.108 -0.0332 -0.6367 -0.6348
  369MOL0     C50830   2.723   7.252   6.651  0.6366 -0.6726  0.0589
  369MOL0     C50831   2.800   7.158   6.718 -0.1989  0.4654  0.1687
  369MOL0     O50832   2.800   6.997   7.006  0.2552 -0.1151 -0.0904
  369MOL0     C50833   2.968   6.831   7.130  0.5424 -0.0804 -0.5228
  369MOL0     C50834   3.043   6.724   7.177 -1.8476  0.2620 -0.4767
  369MOL0     N50835   3.139   5.988   6.955 -0.2706  0.3730 -0.3765
  369MOL0     N50836   3.164   5.862   6.952  0.3497  0.8116 -0.2973
  369MOL0     C50837   3.843   6.277   6.822 -0.0142 -0.6283 -0.2335
  369MOL0     C50838   3.915   6.376   6.761 -0.6711 -0.2706 -0.6457
  369MOL0     C50839   3.941   6.837   6.638  0.3530 -0.2713  0.2522
  369MOL0     C50840   3.994   6.898   6.524  0.0238  0.3065  0.2875
  369MOL0     C50841   4.024   7.037   6.520  0.2262  0.2703  0.2794
  369MOL0     C50842   4.017   7.106   6.643 -0.8531 -0.6068 -0.7859
  369MOL0     O50843   4.068   7.228   6.659  0.2007 -0.0307  0.5702
  369MOL0     C50844   4.212   7.222   6.670 -0.6285  0.8296 -0.6293
  369MOL0     C50845   4.291   7.324   6.594 -0.6345 -0.3143  0.2010
  369MOL0     C50846   4.318   7.266   6.457  0.4903 -0.1609  0.1643
  369MOL0     C50847   4.399   7.136   6.441  0.2895 -0.3536  0.6802
  369MOL0     C50848   4.501   7.103   6.535  0.1800 -0.1183 -0.3137
  369MOL0     C50849   4.564   7.095   6.641  0.3567  1.3923 -0.2163
  369MOL0     C50850   3.959   7.048   6.760 -0.0741 -0.3816  0.3061
  369MOL0     C50851   3.921   6.914   6.754 -0.4338  1.0801  0.1391
  369MOL0     C50852   3.857   6.860   6.886 -0.1933 -0.1336 -0.7568
  369MOL0     H50853   3.698   6.635   6.812  0.4632  0.1849  3.3343
  369MOL0     H50854   3.556   6.442   6.920 -0.1318  2.0927  0.4942
  369MOL0     H50855   3.591   6.194   7.125  1.2958 -0.8922  0.2551
  369MOL0     H50856   3.756   6.235   7.103 -0.3956 -0.4951  2.8473
  369MOL0     H50857   3.826   6.032   7.085 -0.5235  1.2571  0.3678
  369MOL0     H50858   3.701   6.008   7.198  0.3013 -0.7398 -0.2265
  369MOL0     H50859   3.534   5.934   7.016  0.0503  1.2357  1.1796
  369MOL0     H50860   3.654   5.939   6.895 -1.1457 -0.9808 -0.7415
  369MOL0     H50861   3.649   5.713   6.949  2.2858  1.3052 -1.0226
  369MOL0     H50862   3.790   5.770   7.020  1.3366  1.6064  0.6468
  369MOL0     H50863   3.677   5.776   7.243  0.3208  1.8102 -1.3688
  369MOL0     H50864   3.649   5.619   7.168  0.8000  0.4266 -0.0401
  369MOL0     H50865   3.456   5.708   7.289 -0.9489 -1.4029 -0.6282
  369MOL0     H50866   3.451   5.844   7.196  1.7902 -0.4039 -2.0850
  369MOL0     H50867   3.407   5.558   7.080 -1.1347  0.1573 -2.9574
  369MOL0     H50868   3.398   5.717   6.986 -1.3958  0.5115 -0.1231
  369MOL0     H50869   3.183   5.608   7.093  1.4155 -0.6448 -1.4762
  369MOL0     H50870   3.227   5.684   7.232 -1.5676 -1.8009 -0.5914
  369MOL0     H50871   3.242   5.928   7.261  0.3830 -0.6070 -0.3098
  369MOL0     H50872   3.130   6.203   7.209  1.5082  0.1792  0.4205
  369MOL0     H50873   3.099   6.225   7.037  1.1031  0.2475 -0.2457
  369MOL0     H50874   3.373   6.172   7.105  0.9564  0.5213 -2.1083
  369MOL0     H50875   3.306   6.243   6.966  2.1578 -6.2697 -0.8496
  369MOL0     H50876   3.271   6.372   7.245  0.0593  1.1094  0.0528
  369MOL0     H50877   3.416   6.413   7.159 -0.5070  2.3531  1.1453
  369MOL0     H50878   3.278   6.506   6.957  1.0630  0.0437  0.3260
  369MOL0     H50879   3.130   6.462   7.046  0.6943  0.5170  2.2546
  369MOL0     H50880   3.331   6.766   6.998  1.8966  2.2165  1.5459
  369MOL0     H50881   3.187   6.973   6.772  0.2251  0.7799 -0.0336
  369MOL0     H50882   3.316   6.969   6.890 -0.4524 -0.6363  0.1142
  369MOL0     H50883   3.198   7.092   6.905  1.5386  0.5365  1.1615
  369MOL0     H50884   2.973   7.372   6.927 -1.8730 -3.1104  3.4124
  369MOL0     H50885   2.828   7.527   6.825 -1.3740  0.2528  1.5575
  369MOL0     H50886   2.724   7.515   6.457 -0.9996  3.7726 -1.1740
  369MOL0     H50887   2.558   7.441   6.454 -2.9180  2.3422 -0.1140
  369MOL0     H50888   2.465   7.647   6.534  0.3432 -1.9638 -0.2448
  369MOL0     H50889   2.618   7.716   6.558  3.2837 -0.5496 -0.9428
  369MOL0     H50890   2.553   7.604   6.282  0.5158 -1.1276  1.9741
  369MOL0     H50891   2.667   7.722   6.348 -0.5001  0.6972  3.9065
  369MOL0     H50892   2.435   7.855   6.403  0.8251 -1.6537 -0.5260
  369MOL0     H50893   2.360   7.734   6.295 -0.6104 -0.6676  1.0189
  369MOL0     H50894   2.587   7.945   6.242 -0.4208 -1.3890  3.4033
  369MOL0     H50895   2.546   7.813   6.131 -1.2939 -0.7898 -0.7847
  369MOL0     H50896   2.335   7.873   6.093 -0.9081  0.4119  0.0451
  369MOL0     H50897   2.435   8.014   6.041 -3.7177 -0.5220 -2.0463
  369MOL0     H50898   2.389   8.119   6.256  0.9235 -0.8187  0.4487
  369MOL0     H50899   2.261   7.995   6.296  0.1157  0.4856  0.7405
  369MOL0     H50900   2.234   8.132   6.026  0.8431 -1.2536 -0.6544
  369MOL0     H50901   2.156   8.201   6.168  2.2958 -0.5478  2.4734
  369MOL0     H50902   2.660   7.211   6.572  0.5196 -1.7200  0.6803
  369MOL0     H50903   2.805   7.051   6.698 -2.0970  0.3804 -0.0329
  369MOL0     H50904   2.872   6.849   7.178  1.2026  1.3928  0.2981
  369MOL0     H50905   3.000   6.657   7.251 -1.1101  2.3536  1.9977
  369MOL0     H50906   3.898   6.185   6.837  0.0571 -1.2565 -3.6187
  369MOL0     H50907   4.011   6.346   6.719 -0.6813 -2.4728  0.7180
  369MOL0     H50908   4.000   6.839   6.434  1.8377 -0.8876  1.1227
  369MOL0     H50909   4.063   7.083   6.430 -1.7956 -1.4852 -1.5898
  369MOL0     H50910   4.238   7.247   6.773 -0.7256  0.1616 -0.4378
  369MOL0     H50911   4.246   7.118   6.662 -1.7795  0.5071 -1.5854
  369MOL0     H50912   4.389   7.352   6.636  1.2290 -2.1379 -2.5986
  369MOL0     H50913   4.240   7.418   6.573  0.6770  0.1243 -1.2590
  369MOL0     H50914   4.229   7.243   6.398  1.3709  2.1192 -2.2494
  369MOL0     H50915   4.364   7.341   6.392 -0.5138 -0.5907 -1.0904
  369MOL0     H50916   4.448   7.142   6.343 -4.0223 -0.3008 -1.6955
  369MOL0     H50917   4.328   7.055   6.455  0.4441 -0.6366 -0.1116
  369MOL0     H50918   4.618   7.100   6.734  0.8636  1.7922 -0.5232
  369MOL0     H50919   3.942   7.110   6.847 -0.6424  1.3967 -1.0216
  369MOL0     H50920   3.895   6.910   6.976 -0.4469 -1.9800  0.4303
  369MOL0     H50921   3.748   6.853   6.892 -0.2296  1.2906  1.9591
  369MOL0     H50922   3.912   6.768   6.911  1.2262  1.4293  2.6434
  370MOL0     O50923   0.936   6.284   5.676  0.1752 -0.6042  0.7051
  370MOL0     C50924   0.970   6.226   5.775  0.1696  0.5085 -0.2570
  370MOL0     O50925   1.075   6.258   5.855 -0.2728  0.0339 -0.6438
  370MOL0     C50926   1.175   6.329   5.803  0.2668 -0.0175  0.0409
  370MOL0     C50927   1.230   6.416   5.900  0.0791 -0.7063  0.1716
  370MOL0     C50928   1.335   6.506   5.859 -0.3405  0.1796 -0.3442
  370MOL0     C50929   1.402   6.490   5.731  0.3273 -0.6723 -0.2253
  370MOL0     O50930   1.511   6.564   5.690  0.5742  0.1632 -0.2604
  370MOL0     C50931   1.565   6.661   5.787 -0.9559  0.1063 -0.5068
  370MOL0     C50932   1.645   6.591   5.891  0.5068 -0.7915  0.7668
  370MOL0     C50933   1.716   6.699   5.979  0.2593 -0.0140  0.0577
  370MOL0     C50934   1.830   6.779   5.926 -0.1787 -0.4809 -0.7572
  370MOL0     C50935   1.927   6.843   6.036 -0.6457 -0.4963  0.0303
  370MOL0     C50936   1.870   6.967   6.104  0.7876 -0.6561  0.5913
  370MOL0     C50937   1.976   7.026   6.201  0.6618 -0.3537 -0.4657
  370MOL0     C50938   1.931   7.156   6.250  0.0545 -1.1790  0.4219
  370MOL0     N50939   1.839   7.151   6.367  0.2172  0.7112 -0.6315
  370MOL0     C50940   1.883   7.180   6.497  0.4581  0.7939  0.4693
  370MOL0     C50941   1.781   7.224   6.566  0.2906 -0.9021  0.1690
  370MOL0     C50942   1.776   7.286   6.700  0.2420 -0.3531 -0.1724
  370MOL0     C50943   1.827   7.195   6.810  0.7125  0.7158  0.2923
  370MOL0     C50944   1.979   7.199   6.825 -0.5368  0.0787  0.0857
  370MOL0     C50945   2.030   7.103   6.929  0.0394 -0.2192 -0.6804
  370MOL0     O50946   1.956   7.100   7.048 -0.1189 -0.4555 -0.6306
  370MOL0     C50947   1.967   7.184   7.156 -0.2714 -0.6520  0.2027
  370MOL0     C50948   1.905   7.156   7.274 -0.2558  0.2211 -0.7465
  370MOL0     C50949   1.943   7.222   7.387  1.2231  0.9615  0.0506
  370MOL0     C50950   1.881   7.154   7.510 -0.6036 -0.2098  0.7701
  370MOL0     C50951   1.998   7.347   7.379  0.3446  0.2219  0.1055
  370MOL0     C50952   2.020   7.428   7.508  0.5112  0.7351  0.7537
  370MOL0     O50953   2.127   7.520   7.503  0.8402  0.1355  0.5075
  370MOL0     C50954   2.154   7.602   7.615  0.2934 -0.3681 -0.9092
  370MOL0     C50955   2.175   7.738   7.591  0.0921  0.3445  0.3898
  370MOL0     C50956   2.186   7.828   7.701  0.0651  0.6685 -0.8692
  370MOL0     C50957   2.201   7.780   7.832 -0.1285 -0.6428  1.0464
  370MOL0     O50958   2.223   7.877   7.936 -0.2886  1.2909  0.3354
  370MOL0     C50959   2.184   7.831   8.067 -0.2915  0.3227 -0.0776
  370MOL0     C50960   2.172   7.942   8.158 -0.3162 -0.4309  0.2034
  370MOL0     C50961   2.077   8.062   8.128 -0.0586  0.1477  0.2540
  370MOL0     C50962   1.929   8.028   8.125  0.4797  0.2546 -0.9164
  370MOL0     C50963   1.841   8.158   8.169  0.2104  0.9029 -0.7352
  370MOL0     C50964   1.841   8.281   8.073  0.3379  0.4548 -0.6752
  370MOL0     C50965   1.836   8.263   7.920 -0.3024  0.0922 -0.2324
  370MOL0     C50966   1.703   8.214   7.866  0.0276 -0.0276 -0.1533
  370MOL0    Cl50967   1.733   8.157   7.701  0.1861 -0.2919 -0.0440
  370MOL0     C50968   2.181   7.642   7.855  0.1497  0.4562  1.5150
  370MOL0     C50969   2.154   7.549   7.746  0.9031 -0.4267  0.0100
  370MOL0     O50970   1.951   7.410   7.605  0.2017 -0.1713 -0.0404
  370MOL0     C50971   2.051   7.387   7.259  0.2712 -0.1415 -0.0261
  370MOL0     C50972   2.039   7.300   7.148 -0.5306 -0.5089 -0.2277
  370MOL0     N50973   1.673   7.229   6.475  0.2023  0.8109  0.6175
  370MOL0     N50974   1.710   7.177   6.362 -0.4301  0.3881  0.4894
  370MOL0     C50975   1.343   6.402   5.647 -0.5402  1.0053 -0.3459
  370MOL0     C50976   1.235   6.317   5.683  0.2999 -1.3616  0.2346
  370MOL0     C50977   0.873   6.127   5.820  0.1229 -0.0391  0.4680
  370MOL0     C50978   0.733   6.143   5.792 -0.6819 -1.7359  0.0022
  370MOL0     C50979   0.645   6.050   5.842 -0.3213 -0.1489  0.4701
  370MOL0     C50980   0.685   5.941   5.907 -0.8857 -0.3204 -0.6861
  370MOL0     O50981   0.607   5.841   5.945  0.1977 -0.1983  0.2551
  370MOL0     C50982   0.490   5.878   6.017  0.2887 -0.0577 -0.3556
  370MOL0     C50983   0.439   5.758   6.107 -0.3956 -0.7271 -0.2481
  370MOL0     C50984   0.550   5.726   6.218  0.0191  0.2887 -0.0974
  370MOL0     C50985   0.519   5.604   6.306  0.8963  0.2543  0.5190
  370MOL0     C50986   0.435   5.652   6.420 -0.3630  0.3146  0.2830
  370MOL0     C50987   0.349   5.674   6.504 -0.2902 -0.5307  0.0787
  370MOL0     C50988   0.823   5.928   5.938  0.2313 -0.0433  0.1649
  370MOL0     C50989   0.922   6.005   5.891  0.0532 -0.2439 -0.9237
  370MOL0     C50990   1.057   5.967   5.953  0.4487  0.7954  0.0269
  370MOL0     H50991   1.186   6.437   5.997  3.3944  2.3581  1.2403
  370MOL0     H50992   1.364   6.576   5.937 -0.7485 -0.4959  0.4276
  370MOL0     H50993   1.485   6.724   5.827 -2.2756 -1.7849 -0.0019
  370MOL0     H50994   1.640   6.712   5.727 -1.7736 -1.2218 -2.7971
  370MOL0     H50995   1.574   6.533   5.951  0.7000 -0.3767  1.4125
  370MOL0     H50996   1.713   6.521   5.842  1.2660 -2.4388  3.9052
  370MOL0     H50997   1.645   6.770   6.022 -1.4942 -1.4652 -0.3111
  370MOL0     H50998   1.752   6.646   6.068 -0.1872  2.1596  1.6150
  370MOL0     H50999   1.885   6.705   5.868  0.5299  0.8079 -1.7936
  370MOL0     H51000   1.805   6.858   5.854  0.6675 -0.3330 -0.8973
  370MOL0     H51001   2.021   6.873   5.989 -0.4739  0.0656  0.7152
  370MOL0     H51002   1.946   6.770   6.115 -1.0238  0.7568  1.3217
  370MOL0     H51003   1.855   7.038   6.022 -0.6732 -0.3233  1.1207
  370MOL0     H51004   1.776   6.941   6.153  0.4788 -1.5810 -0.4407
  370MOL0     H51005   2.067   7.045   6.143  0.0945  0.8747 -0.9904
  370MOL0     H51006   2.016   6.966   6.283 -0.3904  0.4272  0.6562
  370MOL0     H51007   2.019   7.215   6.275 -0.3588 -1.3160  2.3614
  370MOL0     H51008   1.885   7.216   6.171  0.4654 -1.3355  0.0592
  370MOL0     H51009   1.988   7.176   6.527 -0.3052 -0.4061  3.2889
  370MOL0     H51010   1.674   7.306   6.733  0.5437  0.9724  0.0486
  370MOL0     H51011   1.835   7.379   6.693  1.5581 -0.7689  3.2217
  370MOL0     H51012   1.783   7.215   6.908 -1.8382  1.2635 -0.8935
  370MOL0     H51013   1.789   7.094   6.795 -0.0158  0.9982  0.2095
  370MOL0     H51014   2.037   7.183   6.734  3.6018  2.7164  1.9397
  370MOL0     H51015   2.010   7.300   6.854 -2.2074 -0.5648  5.2066
  370MOL0     H51016   2.027   7.010   6.872  1.5997 -1.6135  1.3813
  370MOL0     H51017   2.135   7.104   6.957 -0.0242 -2.0037 -0.2290
  370MOL0     H51018   1.841   7.069   7.280 -1.4455  1.1277  0.7685
  370MOL0     H51019   1.821   7.225   7.568  2.8428  3.0354  0.6941
  370MOL0     H51020   1.957   7.105   7.572  1.6742  0.1400 -1.5709
  370MOL0     H51021   1.813   7.075   7.478  1.0984 -1.5140  0.2213
  370MOL0     H51022   2.155   7.770   7.489  0.0072  1.7276  0.8187
  370MOL0     H51023   2.176   7.935   7.690 -0.2133  0.7407  0.0712
  370MOL0     H51024   2.092   7.773   8.060 -0.7996  1.2157 -0.9926
  370MOL0     H51025   2.274   7.776   8.096 -0.9287  0.1418  1.6954
  370MOL0     H51026   2.145   7.898   8.255 -1.0845 -0.5841 -0.0723
  370MOL0     H51027   2.271   7.989   8.162 -0.5544  0.2595 -1.3357
  370MOL0     H51028   2.099   8.112   8.033  0.4047 -1.9155 -0.7732
  370MOL0     H51029   2.098   8.148   8.193  0.9473 -0.6157  0.9841
  370MOL0     H51030   1.900   7.944   8.188 -2.7513  0.7953 -1.4875
  370MOL0     H51031   1.903   7.994   8.024  0.7515 -0.9399 -0.5869
  370MOL0     H51032   1.737   8.126   8.165 -0.4081  2.6101  0.5775
  370MOL0     H51033   1.862   8.188   8.272 -3.3525  2.1464 -0.2275
  370MOL0     H51034   1.934   8.334   8.097  0.2385 -0.1089  1.0932
  370MOL0     H51035   1.764   8.347   8.114 -0.0524 -0.6324  0.4057
  370MOL0     H51036   1.915   8.194   7.890  1.8324  1.5100  1.7613
  370MOL0     H51037   1.853   8.363   7.880 -0.8362 -0.7536 -2.7157
  370MOL0     H51038   1.623   8.287   7.851  0.4443  0.2209 -1.2340
  370MOL0     H51039   1.679   8.137   7.941  0.3525 -1.9453 -1.9323
  370MOL0     H51040   2.174   7.599   7.955 -1.4654 -0.4765  1.0422
  370MOL0     H51041   2.142   7.443   7.766  1.0764 -0.5525 -0.5460
  370MOL0     H51042   2.101   7.483   7.258  2.3455 -1.1518 -0.1340
  370MOL0     H51043   2.095   7.329   7.059  3.0019  1.5300  2.3793
  370MOL0     H51044   1.401   6.383   5.558  1.9400  3.0737  0.6821
  370MOL0     H51045   1.198   6.234   5.624  0.5925 -0.9223 -0.5786
  370MOL0     H51046   0.693   6.233   5.746  0.8657 -0.7056  0.5798
  370MOL0     H51047   0.538   6.058   5.825 -0.6074  0.1848  2.2850
  370MOL0     H51048   0.506   5.967   6.079 -2.4998  0.3382 -0.0604
  370MOL0     H51049   0.417   5.905   5.941  0.8845  0.0086 -0.9063
  370MOL0     H51050   0.417   5.671   6.044 -0.0328  0.8067 -2.6275
  370MOL0     H51051   0.345   5.790   6.152 -0.8126 -2.6497  0.2989
  370MOL0     H51052   0.642   5.694   6.167 -1.6107 -1.0796 -2.3409
  370MOL0     H51053   0.570   5.814   6.280 -0.7657 -1.2777  2.5250
  370MOL0     H51054   0.606   5.545   6.335 -0.3941 -2.1715 -0.2744
  370MOL0     H51055   0.456   5.529   6.258 -0.8046 -1.1054  4.5050
  370MOL0     H51056   0.280   5.703   6.581  1.5442 -1.6131  2.2331
  370MOL0     H51057   0.838   5.839   6.000 -1.1907  1.2277  2.4924
  370MOL0     H51058   1.129   5.987   5.873  2.0484  2.8141  1.8348
  370MOL0     H51059   1.086   6.038   6.031  1.0309  3.8102 -2.7343
  370MOL0     H51060   1.068   5.867   5.995  2.1486  1.4273  1.1791
  371MOL0     O51061  10.775   2.980   0.853  0.8563  0.1585  0.7257
  371MOL0     C51062  10.813   3.024   0.747  0.7047 -0.1763 -0.8800
  371MOL0     O51063  10.786   2.961   0.631 -0.7763 -0.6121  0.3823
  371MOL0     C51064  10.681   2.874   0.621 -1.0581  0.5254 -0.5015
  371MOL0     C51065  10.706   2.742   0.623  0.6992  0.4229 -1.0781
  371MOL0     C51066  10.600   2.647   0.635 -0.2992  0.3696  0.6960
  371MOL0     C51067  10.460   2.689   0.633 -0.3321  0.4442  0.0248
  371MOL0     O51068  10.371   2.591   0.651 -0.2711 -0.3730  0.1912
  371MOL0     C51069  10.231   2.623   0.625  0.6722  0.9703  0.2789
  371MOL0     C51070  10.152   2.496   0.636 -0.2116 -1.0363 -0.1059
  371MOL0     C51071  10.136   2.455   0.789  0.7617 -0.1642  0.8381
  371MOL0     C51072   9.994   2.403   0.819  0.3650 -0.4491 -0.2351
  371MOL0     C51073  10.001   2.379   0.969 -0.2378 -0.2774  0.7883
  371MOL0     C51074   9.862   2.340   1.020  0.3067 -0.1602  1.5474
  371MOL0     C51075   9.751   2.439   1.028 -0.7655  0.3915 -0.0659
  371MOL0     C51076   9.613   2.384   0.994 -0.2621  1.2373 -0.1796
  371MOL0     N51077   9.502   2.473   1.015  0.4177  0.9215 -0.2275
  371MOL0     C51078   9.448   2.500   1.144  0.4226 -0.0288 -0.5554
  371MOL0     C51079   9.357   2.601   1.113  0.3459  0.3318 -0.0938
  371MOL0     C51080   9.264   2.684   1.203  0.5138  0.3697  0.4719
  371MOL0     C51081   9.132   2.614   1.226 -0.8095  0.0729  0.9542
  371MOL0     C51082   9.039   2.634   1.103 -1.4453  0.9709 -0.7348
  371MOL0     C51083   8.932   2.528   1.082  0.4291 -0.1194 -0.1552
  371MOL0     O51084   8.842   2.556   0.963 -0.5419 -0.4528  0.4349
  371MOL0     C51085   8.900   2.571   0.845  0.6785 -0.5633  0.2464
  371MOL0     C51086   8.816   2.622   0.750 -0.3849  0.2750  0.4542
  371MOL0     C51087   8.860   2.622   0.614 -0.2883  0.2382  1.0245
  371MOL0     C51088   8.765   2.705   0.526  0.0596  0.6733  0.2900
  371MOL0     C51089   8.985   2.570   0.576 -0.2352 -0.1542 -0.4271
  371MOL0     C51090   9.048   2.576   0.446  0.2905  0.1645 -0.4042
  371MOL0     O51091   9.149   2.488   0.425  0.5771  0.8354  0.0615
  371MOL0     C51092   9.163   2.455   0.298  1.6489 -1.1575  0.7272
  371MOL0     C51093   9.276   2.498   0.237 -0.5349  0.5605  0.1144
  371MOL0     C51094   9.292   2.470   0.101 -0.5626  0.3643 -0.1061
  371MOL0     C51095   9.198   2.401   0.027  0.2570 -1.2827  0.4330
  371MOL0     O51096   9.219   2.368  -0.104 -0.4256  0.3375 -0.2402
  371MOL0     C51097   9.110   2.401  -0.203  0.3725  0.6207 -0.2195
  371MOL0     C51098   9.050   2.267  -0.252  0.0743  0.4528 -0.2517
  371MOL0     C51099   8.930   2.271  -0.354 -0.6271  0.4668 -0.7537
  371MOL0     C51100   8.969   2.291  -0.493 -0.1760  0.1480 -0.3357
  371MOL0     C51101   8.829   2.312  -0.553 -0.6883 -0.6485  0.5792
  371MOL0     C51102   8.855   2.282  -0.704 -0.1969 -0.0383  0.0278
  371MOL0     C51103   8.726   2.341  -0.780 -0.9690 -1.0429  0.1793
  371MOL0     C51104   8.748   2.473  -0.859  0.6235 -0.1357 -0.0404
  371MOL0    Cl51105   8.619   2.520  -0.969  0.0640  0.8031 -0.1788
  371MOL0     C51106   9.079   2.351   0.090 -0.2380  0.1596 -0.1059
  371MOL0     C51107   9.062   2.378   0.233 -0.6285 -0.7612 -0.1075
  371MOL0     O51108   9.003   2.651   0.365  0.7259 -0.5257  0.0802
  371MOL0     C51109   9.057   2.519   0.681  0.1881  0.4911  0.0162
  371MOL0     C51110   9.020   2.513   0.812 -0.0934 -0.9636 -0.1367
  371MOL0     N51111   9.352   2.630   0.975 -0.4720  0.2060 -0.4299
  371MOL0     N51112   9.439   2.550   0.919 -0.1513  0.1318  0.4273
  371MOL0     C51113  10.439   2.827   0.606  0.7369  0.6306  0.3472
  371MOL0     C51114  10.548   2.915   0.602  0.2829  0.9092 -0.6460
  371MOL0     C51115  10.896   3.146   0.754  0.1849 -0.2246 -0.4655
  371MOL0     C51116  11.023   3.143   0.818 -0.1942  0.7022  0.0760
  371MOL0     C51117  11.110   3.247   0.814 -0.0763 -1.3673 -0.5131
  371MOL0     C51118  11.074   3.372   0.770  0.4385 -0.1474 -0.9753
  371MOL0     O51119  11.159   3.486   0.772  0.2285 -0.6538 -0.4829
  371MOL0     C51120  11.297   3.457   0.773  0.1018 -0.4565 -0.2077
  371MOL0     C51121  11.377   3.587   0.758  0.5100 -0.1774  0.6396
  371MOL0     C51122  11.519   3.572   0.710 -0.5194 -0.3676 -0.1066
  371MOL0     C51123  11.634   3.583   0.811 -0.7859  0.0451  0.2067
  371MOL0     C51124  11.629   3.701   0.887 -0.1724 -0.4806 -0.4390
  371MOL0     C51125  11.633   3.810   0.942  0.1525 -0.4410  0.0850
  371MOL0     C51126  10.954   3.383   0.700 -0.1972  0.8437  0.4571
  371MOL0     C51127  10.866   3.266   0.690  0.6960 -0.4187 -0.3563
  371MOL0     C51128  10.726   3.289   0.624 -0.9836 -0.8375 -0.2011
  371MOL0     H51129  10.813   2.723   0.617  0.6887  0.6762 -2.2986
  371MOL0     H51130  10.620   2.541   0.649 -1.1662  0.1507  0.3855
  371MOL0     H51131  10.213   2.677   0.531 -0.8624  2.7442  1.5337
  371MOL0     H51132  10.202   2.693   0.703 -1.3300  0.6695 -0.1356
  371MOL0     H51133  10.050   2.517   0.600 -0.1302 -0.4113  0.0110
  371MOL0     H51134  10.211   2.425   0.578  0.8275  1.2821 -2.0513
  371MOL0     H51135  10.212   2.382   0.818  2.1690  1.1090  0.4350
  371MOL0     H51136  10.150   2.545   0.849 -2.0919  1.6678 -0.9814
  371MOL0     H51137   9.927   2.489   0.809  0.2630 -0.1910  2.0302
  371MOL0     H51138   9.947   2.318   0.768  0.3165  0.6906 -2.1750
  371MOL0     H51139  10.044   2.462   1.024  1.8146  0.0424 -1.1614
  371MOL0     H51140  10.071   2.297   0.989 -1.5257 -1.4587  0.6874
  371MOL0     H51141   9.820   2.261   0.957 -1.9492  0.4184  2.2200
  371MOL0     H51142   9.889   2.291   1.114  1.1723 -2.8043  0.0090
  371MOL0     H51143   9.761   2.518   0.953  1.3327 -1.4709 -1.8919
  371MOL0     H51144   9.743   2.476   1.130 -1.8480 -2.7210  1.0970
  371MOL0     H51145   9.625   2.351   0.890  3.0320 -2.6912  1.1602
  371MOL0     H51146   9.598   2.292   1.050 -1.1799  1.3318 -0.2577
  371MOL0     H51147   9.475   2.452   1.237 -0.2310  3.2703  1.5130
  371MOL0     H51148   9.247   2.783   1.158  0.0960 -1.0589 -2.7994
  371MOL0     H51149   9.312   2.703   1.300  3.2927 -0.5191 -0.6483
  371MOL0     H51150   9.161   2.509   1.224 -0.0996  0.2692 -0.2635
  371MOL0     H51151   9.097   2.646   1.325 -0.4222  1.8755  0.5523
  371MOL0     H51152   8.994   2.731   1.124 -0.4028  1.4429 -0.6134
  371MOL0     H51153   9.107   2.658   1.020 -0.8247  2.9751  0.2837
  371MOL0     H51154   8.976   2.428   1.080  0.9446 -0.0229  2.5200
  371MOL0     H51155   8.874   2.533   1.175  0.0159 -0.1802 -0.4075
  371MOL0     H51156   8.723   2.670   0.779 -0.6691 -1.2580  2.2313
  371MOL0     H51157   8.678   2.752   0.573 -0.2274  0.8990 -0.4486
  371MOL0     H51158   8.739   2.648   0.436  0.6699 -2.0414  1.7382
  371MOL0     H51159   8.821   2.787   0.480 -1.3872 -0.1540 -3.2343
  371MOL0     H51160   9.345   2.549   0.303  1.0669  1.3019 -1.9863
  371MOL0     H51161   9.391   2.500   0.068 -1.4016  2.3172 -1.0157
  371MOL0     H51162   9.035   2.459  -0.148  0.1511 -1.2227  1.5423
  371MOL0     H51163   9.139   2.462  -0.289 -3.3807  3.4811  0.3053
  371MOL0     H51164   9.130   2.212  -0.301 -0.8653 -2.8961  1.6330
  371MOL0     H51165   9.007   2.220  -0.163  0.2141  2.0836  0.7323
  371MOL0     H51166   8.844   2.325  -0.313 -2.7187 -2.6779 -0.5827
  371MOL0     H51167   8.902   2.165  -0.343  1.1406 -0.4454 -3.9361
  371MOL0     H51168   9.010   2.199  -0.535 -1.6399 -0.6624 -0.0783
  371MOL0     H51169   9.033   2.378  -0.512 -3.1997  3.1074  1.8070
  371MOL0     H51170   8.764   2.234  -0.511  2.4532 -3.6495  0.3186
  371MOL0     H51171   8.799   2.416  -0.542  1.3233  0.0431 -0.1912
  371MOL0     H51172   8.874   2.176  -0.724 -0.3504  0.1097 -0.9428
  371MOL0     H51173   8.943   2.339  -0.736 -1.1572 -0.2102 -3.2612
  371MOL0     H51174   8.635   2.354  -0.721 -3.5676 -4.7232 -2.5397
  371MOL0     H51175   8.713   2.264  -0.857 -0.8877 -0.9656  0.0883
  371MOL0     H51176   8.843   2.461  -0.912  1.1230  1.0902  0.5337
  371MOL0     H51177   8.754   2.545  -0.777  3.5810  1.0827 -1.1747
  371MOL0     H51178   9.017   2.276   0.042 -1.9732 -0.5245  2.8998
  371MOL0     H51179   8.975   2.333   0.280  0.8729 -2.3316  1.3321
  371MOL0     H51180   9.154   2.475   0.657 -0.5596 -0.0772 -2.2845
  371MOL0     H51181   9.090   2.476   0.887  1.7922  0.3326 -1.1789
  371MOL0     H51182  10.342   2.871   0.628  1.1287  0.6036  2.3366
  371MOL0     H51183  10.536   3.022   0.598  1.3317  1.0837  0.4013
  371MOL0     H51184  11.055   3.043   0.844  2.1728  1.3368 -0.1769
  371MOL0     H51185  11.214   3.235   0.843  0.4311 -2.4703 -2.5534
  371MOL0     H51186  11.322   3.402   0.864 -3.1719 -0.2104  0.9787
  371MOL0     H51187  11.321   3.397   0.684  2.2346 -2.8027  1.8089
  371MOL0     H51188  11.360   3.631   0.857  0.4549  1.2319  0.0300
  371MOL0     H51189  11.330   3.644   0.677  0.5836  0.3851  0.9849
  371MOL0     H51190  11.532   3.479   0.654 -0.5356  0.7922 -2.1220
  371MOL0     H51191  11.529   3.646   0.630 -4.2292  0.7487  0.2595
  371MOL0     H51192  11.728   3.575   0.756 -2.0664  2.6919 -2.7081
  371MOL0     H51193  11.635   3.495   0.875 -1.1827  0.0968  0.2840
  371MOL0     H51194  11.642   3.909   0.981 -0.9859  0.6774 -2.2781
  371MOL0     H51195  10.929   3.479   0.656 -0.2103 -0.2285 -2.0545
  371MOL0     H51196  10.723   3.382   0.566  1.8719  0.0429  0.8525
  371MOL0     H51197  10.708   3.199   0.565  0.2176 -0.1716 -1.6741
  371MOL0     H51198  10.644   3.290   0.696 -0.9341  1.2725 -0.1055
  372MOL0     O51199  10.304   8.190   5.603 -0.5398  1.3227  0.3923
  372MOL0     C51200  10.240   8.286   5.598 -0.1807 -0.9167  0.5341
  372MOL0     O51201  10.287   8.399   5.646  1.1283 -0.0639 -0.3034
  372MOL0     C51202  10.400   8.385   5.715  0.1412  0.0907  0.3752
  372MOL0     C51203  10.520   8.428   5.653  0.0934  0.4210  0.2964
  372MOL0     C51204  10.642   8.409   5.717  0.3444  0.5894 -0.3818
  372MOL0     C51205  10.652   8.369   5.851  0.4879  0.7868  0.2942
  372MOL0     O51206  10.766   8.343   5.922 -0.6628 -0.1682 -0.4765
  372MOL0     C51207  10.876   8.439   5.903  0.3504 -0.1719  0.9032
  372MOL0     C51208  10.840   8.588   5.916  0.2546  1.0149  0.4940
  372MOL0     C51209  10.754   8.632   6.033 -1.1041 -0.3589  0.9226
  372MOL0     C51210  10.707   8.779   6.021  0.3060 -0.1587  1.0910
  372MOL0     C51211  10.649   8.843   6.145 -0.6283 -0.2815  0.2377
  372MOL0     C51212  10.661   8.990   6.143  0.0184  0.1625  0.1345
  372MOL0     C51213  10.590   9.056   6.023  0.1601 -0.5221 -0.1246
  372MOL0     C51214  10.434   9.037   6.037 -0.4908 -1.0982 -0.4295
  372MOL0     N51215  10.382   9.110   6.159  0.6561  0.3027  0.1264
  372MOL0     C51216  10.364   9.041   6.276 -0.1010  0.2613  0.3501
  372MOL0     C51217  10.319   9.134   6.361  0.7455  0.1914 -0.2197
  372MOL0     C51218  10.281   9.123   6.507  0.0350 -0.6943 -0.1051
  372MOL0     C51219  10.154   9.053   6.531 -0.6537  1.2621 -0.8940
  372MOL0     C51220  10.100   9.066   6.683 -1.0862  0.7221 -0.3663
  372MOL0     C51221   9.947   9.061   6.686  1.4564  0.4541 -0.4366
  372MOL0     O51222   9.899   8.931   6.641  0.5478  0.3295 -0.2604
  372MOL0     C51223   9.783   8.904   6.567 -0.0451  0.4352 -0.1300
  372MOL0     C51224   9.743   8.767   6.551 -0.6253 -1.0624 -0.2919
  372MOL0     C51225   9.633   8.731   6.475 -0.1485  0.4705  0.6297
  372MOL0     C51226   9.575   8.595   6.501 -0.2433 -0.0304 -0.5610
  372MOL0     C51227   9.557   8.825   6.393 -0.7690 -0.1259 -1.0230
  372MOL0     C51228   9.440   8.780   6.306 -0.4286  0.2250 -0.7617
  372MOL0     O51229   9.384   8.652   6.316 -0.1759 -0.5457  0.1976
  372MOL0     C51230   9.292   8.612   6.223 -0.0505 -0.0461 -0.5850
  372MOL0     C51231   9.321   8.614   6.083  1.1512 -0.3631 -0.1060
  372MOL0     C51232   9.225   8.551   6.001  0.2610 -0.0737  0.5182
  372MOL0     C51233   9.099   8.498   6.048 -0.1941  0.3790 -0.3818
  372MOL0     O51234   9.020   8.448   5.956 -0.0979  0.1501 -0.8625
  372MOL0     C51235   8.873   8.450   5.979 -0.2962 -0.8765  0.1380
  372MOL0     C51236   8.817   8.588   6.004  0.2404  0.1286  0.0494
  372MOL0     C51237   8.850   8.685   5.898 -0.1822 -0.2140 -0.1149
  372MOL0     C51238   8.758   8.655   5.768 -0.9231 -0.2988 -0.0039
  372MOL0     C51239   8.817   8.726   5.641  0.4110  0.4001 -0.1889
  372MOL0     C51240   8.901   8.621   5.559  0.0711  0.3609  0.4955
  372MOL0     C51241   8.961   8.683   5.428 -0.6120 -0.3147 -0.5441
  372MOL0     C51242   9.059   8.594   5.357  1.0453  0.4312  0.0966
  372MOL0    Cl51243   8.973   8.450   5.315  0.1286  0.6855  0.0610
  372MOL0     C51244   9.075   8.511   6.182  1.2516 -0.1491 -0.4209
  372MOL0     C51245   9.170   8.565   6.265  0.6671  0.2144 -0.3872
  372MOL0     O51246   9.405   8.866   6.222  0.3280  0.6030 -0.1060
  372MOL0     C51247   9.603   8.957   6.410 -0.4282 -0.5698 -0.2178
  372MOL0     C51248   9.712   9.000   6.498 -0.0474  1.0964 -0.3428
  372MOL0     N51249  10.291   9.243   6.287 -1.2084  0.2617 -0.6346
  372MOL0     N51250  10.325   9.230   6.171  0.6238  0.0985  0.0284
  372MOL0     C51251  10.524   8.342   5.916 -0.8073 -0.1749  0.4235
  372MOL0     C51252  10.406   8.334   5.841  0.0854 -0.4905 -0.4007
  372MOL0     C51253  10.098   8.288   5.546  0.0837 -0.3957  0.0732
  372MOL0     C51254  10.034   8.416   5.523  0.2361  0.2493 -0.2019
  372MOL0     C51255   9.904   8.427   5.482  1.3462  0.3251 -1.0050
  372MOL0     C51256   9.838   8.311   5.444 -0.7467 -0.1320  0.3643
  372MOL0     O51257   9.718   8.316   5.385  0.2302  0.3835  0.2630
  372MOL0     C51258   9.637   8.433   5.382 -0.0772  0.1338  0.8135
  372MOL0     C51259   9.519   8.415   5.296 -0.7873  0.0705  0.3208
  372MOL0     C51260   9.462   8.275   5.310  1.4798  0.7403  0.2578
  372MOL0     C51261   9.312   8.272   5.284 -0.1724  0.4897  0.4801
  372MOL0     C51262   9.279   8.131   5.259 -0.4640  0.5184  0.6556
  372MOL0     C51263   9.253   8.019   5.231 -0.5304 -0.2264  0.7331
  372MOL0     C51264   9.903   8.188   5.451  0.1637 -0.0967  0.7566
  372MOL0     C51265  10.030   8.172   5.504 -0.3002  0.4801 -1.0149
  372MOL0     C51266  10.083   8.032   5.515  0.6076  0.7859 -0.3681
  372MOL0     H51267  10.502   8.452   5.548 -1.5872 -0.5312  0.3373
  372MOL0     H51268  10.726   8.419   5.648  1.0695 -0.8323  0.2504
  372MOL0     H51269  10.922   8.423   5.805 -0.6098  1.6287  0.1192
  372MOL0     H51270  10.957   8.422   5.975  1.4527  0.0418 -0.2561
  372MOL0     H51271  10.928   8.651   5.932  0.7556  0.6558 -0.7333
  372MOL0     H51272  10.798   8.616   5.819  1.2935 -0.6174 -0.4761
  372MOL0     H51273  10.668   8.564   6.036 -1.2263 -0.1713  2.6892
  372MOL0     H51274  10.822   8.617   6.117  0.4643 -1.5916 -0.5121
  372MOL0     H51275  10.790   8.836   5.978  1.8700 -1.7523  1.8165
  372MOL0     H51276  10.637   8.770   5.939  0.4395  0.5780  0.8915
  372MOL0     H51277  10.702   8.817   6.237  2.6026  3.5716 -0.2420
  372MOL0     H51278  10.544   8.814   6.153  0.1576 -3.5567 -0.0167
  372MOL0     H51279  10.640   9.050   6.232  2.4189  1.0578  0.1686
  372MOL0     H51280  10.767   9.001   6.117 -0.0435 -1.7787 -1.2134
  372MOL0     H51281  10.609   8.989   5.939 -1.2034 -3.3176  1.6250
  372MOL0     H51282  10.613   9.162   6.009  0.6544 -0.3070  1.9790
  372MOL0     H51283  10.388   9.089   5.952  3.2024 -1.0214 -2.5552
  372MOL0     H51284  10.400   8.933   6.045 -2.5349 -0.4408  0.2030
  372MOL0     H51285  10.399   8.940   6.297 -0.8166  0.1293  0.9528
  372MOL0     H51286  10.257   9.223   6.544 -0.8254 -1.7093  2.2977
  372MOL0     H51287  10.361   9.082   6.569 -0.4106 -2.0087 -0.3571
  372MOL0     H51288  10.084   9.089   6.455 -1.8661  0.2032 -0.3095
  372MOL0     H51289  10.157   8.947   6.504 -0.8495  1.8135 -3.3419
  372MOL0     H51290  10.143   8.987   6.745  0.3789  3.0656  1.8550
  372MOL0     H51291  10.150   9.153   6.729  2.4207 -2.4964  2.5851
  372MOL0     H51292   9.900   9.063   6.785 -3.1344  0.1475 -2.3572
  372MOL0     H51293   9.900   9.143   6.631  2.5372  2.3868  1.3842
  372MOL0     H51294   9.791   8.701   6.624 -1.4140  0.7272  1.9742
  372MOL0     H51295   9.470   8.591   6.531  1.1119 -0.8858  5.1612
  372MOL0     H51296   9.626   8.538   6.579 -1.6618 -0.7522 -0.1259
  372MOL0     H51297   9.583   8.531   6.413 -0.1962 -1.1480  0.2377
  372MOL0     H51298   9.392   8.683   6.039 -1.5328  1.2374 -2.2449
  372MOL0     H51299   9.240   8.541   5.894  0.0385 -5.4897  0.7157
  372MOL0     H51300   8.818   8.406   5.895 -1.6499 -1.1116  1.1104
  372MOL0     H51301   8.841   8.381   6.057 -0.6777  1.4036  2.1214
  372MOL0     H51302   8.713   8.592   6.037  0.9793  0.7587  2.5220
  372MOL0     H51303   8.866   8.631   6.091  3.2653 -3.1819  0.2379
  372MOL0     H51304   8.958   8.687   5.877  0.4632 -4.5370  1.6788
  372MOL0     H51305   8.814   8.782   5.933  0.9914  1.9219 -4.2129
  372MOL0     H51306   8.658   8.695   5.787 -1.6234 -2.0697  0.3259
  372MOL0     H51307   8.740   8.550   5.741 -1.1231 -0.4886  0.8286
  372MOL0     H51308   8.734   8.756   5.576  1.3513 -1.0679 -2.1909
  372MOL0     H51309   8.882   8.808   5.671 -1.4530  1.3460  1.4788
  372MOL0     H51310   8.837   8.540   5.523  1.3818 -0.9079  0.9276
  372MOL0     H51311   8.979   8.575   5.621  1.5470  0.5686 -1.1329
  372MOL0     H51312   9.005   8.782   5.445 -2.4655  0.6490 -1.0729
  372MOL0     H51313   8.873   8.694   5.364 -0.7153 -1.0527 -0.5351
  372MOL0     H51314   9.148   8.564   5.413  0.7812 -1.2868 -0.3468
  372MOL0     H51315   9.083   8.641   5.261  0.5965  0.8036  0.1618
  372MOL0     H51316   8.988   8.481   6.241  1.3110 -4.3781 -2.0815
  372MOL0     H51317   9.159   8.560   6.372 -1.4232 -4.3929 -0.5960
  372MOL0     H51318   9.556   9.046   6.369 -2.1610 -1.2485  0.2035
  372MOL0     H51319   9.726   9.107   6.507 -0.9118  1.2131 -0.3449
  372MOL0     H51320  10.512   8.302   6.016 -1.6705 -0.2913  0.2836
  372MOL0     H51321  10.320   8.301   5.899  0.1618  2.0743  1.3539
  372MOL0     H51322  10.090   8.507   5.543  2.1316 -1.2359  1.8376
  372MOL0     H51323   9.846   8.517   5.496 -0.2514 -0.8208  0.1323
  372MOL0     H51324   9.600   8.446   5.485 -0.9733 -3.4622  1.0816
  372MOL0     H51325   9.695   8.516   5.343  0.4081 -0.4715  0.2280
  372MOL0     H51326   9.544   8.431   5.191 -3.4446  0.7901 -0.2791
  372MOL0     H51327   9.449   8.493   5.328  0.5050  2.3931 -2.1730
  372MOL0     H51328   9.511   8.203   5.244  5.0654  0.3574  2.9948
  372MOL0     H51329   9.479   8.235   5.411 -5.7311  0.5347  1.9170
  372MOL0     H51330   9.291   8.329   5.194  1.8098  1.0736  0.3436
  372MOL0     H51331   9.267   8.317   5.374 -0.8242  1.5064 -0.3377
  372MOL0     H51332   9.221   7.917   5.218 -0.7314 -0.0746  0.0380
  372MOL0     H51333   9.859   8.098   5.408  2.9967 -1.2613  0.0967
  372MOL0     H51334   9.999   7.962   5.517  4.9962 -5.3842 -1.1494
  372MOL0     H51335  10.135   8.015   5.420  0.1916 -1.6852 -0.2336
  372MOL0     H51336  10.143   8.018   5.606  1.5291  1.8483 -0.7899
  373MOL0     O51337   5.897   3.577   1.066 -0.9184 -0.2775 -0.5479
  373MOL0     C51338   5.930   3.518   1.168 -0.4055  0.4335  0.2836
  373MOL0     O51339   6.022   3.553   1.262  0.8749 -0.1331  0.4590
  373MOL0     C51340   6.131   3.631   1.213 -0.2331  0.0275  1.8979
  373MOL0     C51341   6.120   3.769   1.225 -0.5040 -0.9802  1.1175
  373MOL0     C51342   6.218   3.857   1.163 -1.0819 -0.2813  0.3128
  373MOL0     C51343   6.324   3.800   1.088  0.4065  0.0801  0.5422
  373MOL0     O51344   6.426   3.866   1.016  0.0953  1.2745  0.7938
  373MOL0     C51345   6.474   3.985   1.075  0.1638  0.4736  0.1095
  373MOL0     C51346   6.587   4.047   0.998  0.1112  0.0561 -0.2218
  373MOL0     C51347   6.539   4.140   0.885  0.6528  0.0957 -0.4023
  373MOL0     C51348   6.651   4.216   0.822  0.5059 -0.6534 -0.3809
  373MOL0     C51349   6.726   4.131   0.724 -0.9134  0.6320  0.7104
  373MOL0     C51350   6.819   4.215   0.635  0.8527 -0.7832  0.2673
  373MOL0     C51351   6.903   4.130   0.548  0.4043 -0.1530 -0.7414
  373MOL0     C51352   7.029   4.215   0.488  0.8009 -0.0337  0.1994
  373MOL0     N51353   6.971   4.330   0.413 -0.1127 -0.1209  0.2378
  373MOL0     C51354   6.906   4.332   0.292 -0.2125  0.3838 -0.5576
  373MOL0     C51355   6.876   4.462   0.260  0.6568 -0.8433  0.6090
  373MOL0     C51356   6.819   4.500   0.131 -0.6110 -0.7270  0.6030
  373MOL0     C51357   6.939   4.499   0.027 -0.6284 -0.0535 -0.3247
  373MOL0     C51358   6.910   4.589  -0.098  0.9836 -0.5293 -0.5550
  373MOL0     C51359   6.970   4.539  -0.227 -0.1000 -1.3823  0.5213
  373MOL0     O51360   7.085   4.464  -0.188  0.2341 -0.3507 -0.2635
  373MOL0     C51361   7.195   4.541  -0.159  0.0276  0.9586 -0.0461
  373MOL0     C51362   7.215   4.676  -0.137  0.2692 -0.9793  1.1022
  373MOL0     C51363   7.340   4.735  -0.119 -0.4073  0.5930  0.5894
  373MOL0     C51364   7.350   4.888  -0.111 -0.9287 -1.2233  0.4814
  373MOL0     C51365   7.449   4.650  -0.085 -0.2146 -0.2647 -0.6824
  373MOL0     C51366   7.581   4.701  -0.043 -0.3263  0.7518 -0.3520
  373MOL0     O51367   7.638   4.796  -0.116 -0.1661 -0.1169  0.0161
  373MOL0     C51368   7.715   4.885  -0.053 -0.8349  0.3604 -0.8064
  373MOL0     C51369   7.805   4.971  -0.126  0.3386  1.3610 -0.1567
  373MOL0     C51370   7.886   5.076  -0.069  0.7300  0.4054  0.1896
  373MOL0     C51371   7.897   5.079   0.068 -0.4843 -0.1745 -0.2721
  373MOL0     O51372   7.994   5.157   0.128  0.3418 -0.1538  1.0241
  373MOL0     C51373   8.005   5.296   0.096 -0.5331  0.1309 -0.1994
  373MOL0     C51374   8.063   5.356   0.224  0.7863 -0.1477 -0.0495
  373MOL0     C51375   8.065   5.516   0.234  0.3114 -0.5753  0.4209
  373MOL0     C51376   8.129   5.576   0.108 -0.5997 -0.6255  0.3315
  373MOL0     C51377   8.179   5.715   0.129 -0.1810 -0.3793 -0.0367
  373MOL0     C51378   8.202   5.791   0.001  0.0609  0.1892 -1.0109
  373MOL0     C51379   8.246   5.936   0.004  0.8184  0.2025 -0.4234
  373MOL0     C51380   8.395   5.931   0.017  0.4362  0.3522 -0.3200
  373MOL0    Cl51381   8.501   6.077  -0.034 -0.2343  0.3639 -0.1209
  373MOL0     C51382   7.799   5.018   0.143  0.1475  0.1720 -0.6765
  373MOL0     C51383   7.714   4.915   0.089 -0.8181  1.1245  0.4345
  373MOL0     O51384   7.641   4.634   0.038  0.4672  0.1560 -0.2470
  373MOL0     C51385   7.419   4.514  -0.076  0.0698  1.6866 -0.8116
  373MOL0     C51386   7.295   4.463  -0.120  0.3753  0.1081 -0.2335
  373MOL0     N51387   6.930   4.544   0.366  0.7562 -0.5360  0.6022
  373MOL0     N51388   6.977   4.463   0.462 -0.3987  0.1897 -0.0027
  373MOL0     C51389   6.322   3.660   1.072 -0.6282 -0.2379 -0.2856
  373MOL0     C51390   6.234   3.578   1.140 -0.1341 -0.0600 -0.1726
  373MOL0     C51391   5.843   3.412   1.191 -0.3826  0.5112 -0.4563
  373MOL0     C51392   5.789   3.340   1.085 -0.5739  0.3059  0.9832
  373MOL0     C51393   5.709   3.217   1.091 -0.0660 -0.0372 -0.2138
  373MOL0     C51394   5.673   3.186   1.221 -0.3293  0.5349  0.1756
  373MOL0     O51395   5.582   3.085   1.246 -0.0198 -1.3276 -0.9074
  373MOL0     C51396   5.464   3.092   1.165  0.4877  0.3538  0.6059
  373MOL0     C51397   5.463   2.987   1.047 -0.7499  0.5811  0.1870
  373MOL0     C51398   5.574   2.883   1.062 -0.3102  0.0041 -0.0045
  373MOL0     C51399   5.623   2.819   0.938 -0.6536  0.6544 -0.0938
  373MOL0     C51400   5.697   2.912   0.857  0.1363 -0.2832  0.2351
  373MOL0     C51401   5.771   2.988   0.796 -0.0732 -0.4309  0.9666
  373MOL0     C51402   5.729   3.254   1.333 -0.6018  0.5229 -0.3608
  373MOL0     C51403   5.824   3.353   1.321  0.0399  0.7233  0.7193
  373MOL0     C51404   5.896   3.404   1.447  0.3404 -0.5807  0.7673
  373MOL0     H51405   6.025   3.812   1.254 -0.2270 -0.8737  1.8843
  373MOL0     H51406   6.198   3.962   1.181 -1.3058  0.1844 -2.3241
  373MOL0     H51407   6.513   3.955   1.173  0.2028  0.4450  0.0856
  373MOL0     H51408   6.394   4.058   1.086 -1.0590 -0.3211 -2.7528
  373MOL0     H51409   6.649   4.109   1.063 -2.4720  0.8804  1.6435
  373MOL0     H51410   6.661   3.972   0.970 -0.5860 -2.2733  3.5626
  373MOL0     H51411   6.487   4.072   0.817  1.3516 -2.5790  1.5536
  373MOL0     H51412   6.455   4.202   0.917 -0.3970 -1.9187  1.0438
  373MOL0     H51413   6.618   4.303   0.765  0.7717 -0.4448 -0.2237
  373MOL0     H51414   6.720   4.254   0.899 -0.3351 -1.7178  0.9404
  373MOL0     H51415   6.651   4.079   0.664  0.8691  1.1130 -2.1345
  373MOL0     H51416   6.778   4.047   0.771 -0.0060 -0.2800 -1.7395
  373MOL0     H51417   6.752   4.283   0.582 -2.3661 -0.7781  3.8668
  373MOL0     H51418   6.889   4.276   0.692  1.9104  1.8663 -3.4953
  373MOL0     H51419   6.848   4.079   0.468 -3.5136 -1.1287  2.2613
  373MOL0     H51420   6.930   4.049   0.617 -1.2106 -0.0047  0.1073
  373MOL0     H51421   7.094   4.249   0.569  1.0150  0.4859 -0.1854
  373MOL0     H51422   7.078   4.149   0.415  1.0486 -1.3989  1.5346
  373MOL0     H51423   6.881   4.245   0.231  1.8018  0.0293 -0.9608
  373MOL0     H51424   6.773   4.599   0.138 -0.5682 -0.7447  1.1891
  373MOL0     H51425   6.743   4.436   0.086  0.5382 -2.4461  0.9920
  373MOL0     H51426   7.031   4.530   0.077 -1.1066 -0.3971  0.8190
  373MOL0     H51427   6.957   4.393   0.005 -0.3063 -0.6477  2.3978
  373MOL0     H51428   6.801   4.598  -0.105  0.8520 -1.4619  0.1391
  373MOL0     H51429   6.938   4.691  -0.071 -3.1340  0.3975  0.8483
  373MOL0     H51430   6.889   4.476  -0.264 -0.6715 -1.0036  1.1139
  373MOL0     H51431   6.992   4.620  -0.298 -2.3122 -3.0656 -2.3257
  373MOL0     H51432   7.134   4.744  -0.160  1.0995  0.3632  1.9919
  373MOL0     H51433   7.444   4.920  -0.066  2.3567 -6.0222 -2.0763
  373MOL0     H51434   7.257   4.920  -0.063  0.4880 -0.3319  2.8022
  373MOL0     H51435   7.345   4.926  -0.214 -1.5034  1.7052  1.5020
  373MOL0     H51436   7.817   4.959  -0.233  2.8566 -3.2407  0.3933
  373MOL0     H51437   7.957   5.125  -0.135  0.8372  1.1364  0.8389
  373MOL0     H51438   8.074   5.325   0.016 -0.1495  0.9073  0.3927
  373MOL0     H51439   7.911   5.341   0.063 -0.5819  1.5271  1.6345
  373MOL0     H51440   7.987   5.335   0.300  0.6955  2.1056  0.5610
  373MOL0     H51441   8.155   5.309   0.259  0.4601  0.7171  2.1776
  373MOL0     H51442   8.119   5.550   0.323  1.4591  2.3616 -1.2720
  373MOL0     H51443   7.963   5.552   0.252  0.9580 -0.0390  3.6499
  373MOL0     H51444   8.060   5.579   0.023  0.6895 -0.8309 -0.7760
  373MOL0     H51445   8.221   5.525   0.075  0.2433  0.1607  1.3804
  373MOL0     H51446   8.115   5.772   0.197  1.0858  1.0271  0.0222
  373MOL0     H51447   8.275   5.710   0.181  1.0133 -1.7598 -2.2082
  373MOL0     H51448   8.102   5.788  -0.044 -0.8635  0.6277  0.9162
  373MOL0     H51449   8.258   5.729  -0.071 -3.0978 -0.5036 -3.0648
  373MOL0     H51450   8.195   5.991   0.084  0.3728 -0.8850  0.0648
  373MOL0     H51451   8.214   5.978  -0.092 -0.6378 -0.3773 -0.2162
  373MOL0     H51452   8.419   5.832  -0.024  2.4583 -0.2589  2.0892
  373MOL0     H51453   8.420   5.923   0.123 -0.9681  0.9650  0.0768
  373MOL0     H51454   7.777   5.050   0.245  0.4436 -0.2366 -0.4856
  373MOL0     H51455   7.640   4.857   0.143 -1.6588  1.4469 -0.3567
  373MOL0     H51456   7.491   4.446  -0.032 -0.5953  2.7834  2.1992
  373MOL0     H51457   7.297   4.354  -0.125  1.1876  0.0137  1.3799
  373MOL0     H51458   6.391   3.606   1.008  0.6112  1.2850 -0.3072
  373MOL0     H51459   6.246   3.471   1.152  1.1288  0.2483  1.8724
  373MOL0     H51460   5.792   3.379   0.984  3.5082 -0.1818  0.7374
  373MOL0     H51461   5.654   3.164   1.015  1.4406 -1.8776 -0.1018
  373MOL0     H51462   5.380   3.058   1.227  0.1528 -1.5133 -0.7922
  373MOL0     H51463   5.428   3.188   1.125 -1.4303 -0.8790 -0.8292
  373MOL0     H51464   5.484   3.040   0.953  0.1699 -2.3050 -1.3324
  373MOL0     H51465   5.370   2.933   1.028 -0.7535  1.2259 -1.9188
  373MOL0     H51466   5.668   2.932   1.091 -0.0922 -0.2389 -0.2967
  373MOL0     H51467   5.548   2.794   1.120  0.5452 -1.0335 -1.1582
  373MOL0     H51468   5.542   2.771   0.882  0.1261  0.6994 -1.2990
  373MOL0     H51469   5.690   2.736   0.965 -0.9549  0.9669  1.8004
  373MOL0     H51470   5.839   3.064   0.761 -0.1428  0.9473  3.6097
  373MOL0     H51471   5.701   3.216   1.431 -2.5417 -1.5116 -1.6183
  373MOL0     H51472   6.004   3.387   1.455  0.8509  0.9405 -1.8144
  373MOL0     H51473   5.873   3.511   1.459 -0.3854 -0.6001 -0.3348
  373MOL0     H51474   5.853   3.351   1.532 -0.4888 -1.7378 -0.3341
  374MOL0     O51475   7.993  10.687   0.679 -1.2789  0.1810 -0.4612
  374MOL0     C51476   8.064  10.657   0.778  0.1341 -0.5231 -0.3796
  374MOL0     O51477   8.166  10.561   0.775  0.1457 -0.3405 -0.6016
  374MOL0     C51478   8.193  10.495   0.659 -0.1709 -0.9646 -0.4576
  374MOL0     C51479   8.129  10.375   0.630  0.4275 -0.3353  0.5108
  374MOL0     C51480   8.169  10.304   0.516 -0.3647  0.2753  0.1749
  374MOL0     C51481   8.274  10.345   0.438  0.5086 -1.2856 -0.3493
  374MOL0     O51482   8.315  10.264   0.338 -0.3026 -0.3859  0.6575
  374MOL0     C51483   8.451  10.265   0.284  0.9218 -0.1795  0.0207
  374MOL0     C51484   8.443  10.190   0.144 -0.7669 -0.3261  1.2045
  374MOL0     C51485   8.581  10.217   0.074 -0.2235 -0.6149  0.3260
  374MOL0     C51486   8.568  10.214  -0.085  0.0728  0.7489 -0.1672
  374MOL0     C51487   8.571  10.077  -0.143 -0.7190  0.8123 -0.6385
  374MOL0     C51488   8.574  10.082  -0.290 -0.6084  0.0946 -0.1567
  374MOL0     C51489   8.564   9.936  -0.344  0.4864 -0.4823 -0.5294
  374MOL0     C51490   8.696   9.844  -0.338  0.4585 -0.9397  0.6145
  374MOL0     N51491   8.648   9.704  -0.359 -0.0764  0.4357  0.2534
  374MOL0     C51492   8.694   9.595  -0.288 -0.2266 -0.7878  0.2729
  374MOL0     C51493   8.596   9.500  -0.325 -0.1836  0.1974 -0.0189
  374MOL0     C51494   8.610   9.352  -0.293  0.1310 -0.7976  0.2884
  374MOL0     C51495   8.474   9.288  -0.277 -0.1355 -0.8660  0.4936
  374MOL0     C51496   8.498   9.144  -0.238  0.3800 -0.4971  0.0772
  374MOL0     C51497   8.398   9.109  -0.133 -0.4724  0.5259  0.0433
  374MOL0     O51498   8.464   9.155  -0.007  0.7889  0.3174 -0.3386
  374MOL0     C51499   8.392   9.214   0.089  0.1812 -0.4971 -0.4354
  374MOL0     C51500   8.459   9.303   0.172  0.4724  0.4764 -0.6702
  374MOL0     C51501   8.389   9.360   0.280 -0.0215 -0.0559 -0.4133
  374MOL0     C51502   8.475   9.437   0.375  0.0580 -0.0000  0.2065
  374MOL0     C51503   8.254   9.339   0.302  0.6789 -0.5318 -0.3495
  374MOL0     C51504   8.182   9.369   0.429 -0.1377  0.9198  0.5227
  374MOL0     O51505   8.075   9.287   0.453 -0.0278  0.2910  0.1540
  374MOL0     C51506   7.973   9.330   0.525  0.0175 -0.3329 -0.0166
  374MOL0     C51507   7.972   9.416   0.643  0.9235  0.4371  0.2947
  374MOL0     C51508   7.841   9.471   0.687 -0.8863 -0.6724  0.5233
  374MOL0     C51509   7.721   9.430   0.632 -0.8142  0.1870  0.6534
  374MOL0     O51510   7.607   9.454   0.692  0.0187 -0.1342  0.3074
  374MOL0     C51511   7.512   9.524   0.607  0.1970 -0.1217 -0.1902
  374MOL0     C51512   7.400   9.576   0.703  0.5855 -0.8291  0.7073
  374MOL0     C51513   7.323   9.452   0.757  0.9771  0.1185  0.0775
  374MOL0     C51514   7.215   9.502   0.860  0.2083  0.1493  0.7923
  374MOL0     C51515   7.132   9.388   0.912  1.0898  0.2932  0.5982
  374MOL0     C51516   7.027   9.438   1.016 -1.7143 -1.0017 -0.1822
  374MOL0     C51517   6.951   9.325   1.091 -0.1314  0.1419 -1.3371
  374MOL0     C51518   7.038   9.225   1.153  0.8699 -0.2448  0.2269
  374MOL0    Cl51519   6.931   9.107   1.227  0.2705  0.3073  0.3820
  374MOL0     C51520   7.722   9.338   0.523 -0.4366 -0.4966  0.0361
  374MOL0     C51521   7.848   9.290   0.476  0.5924 -0.8906  0.1412
  374MOL0     O51522   8.210   9.477   0.485  0.2783 -0.1426  0.0133
  374MOL0     C51523   8.185   9.259   0.212 -0.2096 -0.5602  0.0687
  374MOL0     C51524   8.256   9.196   0.110 -0.4651  0.0803 -0.0393
  374MOL0     N51525   8.517   9.555  -0.424  0.2316 -0.0160  0.6051
  374MOL0     N51526   8.549   9.674  -0.452 -0.7905  1.0261  0.4168
  374MOL0     C51527   8.329  10.464   0.466 -0.7687  0.1968  0.3294
  374MOL0     C51528   8.294  10.541   0.577  0.3606 -0.2342 -0.2738
  374MOL0     C51529   8.039  10.739   0.903  0.3828 -0.0658 -0.4166
  374MOL0     C51530   8.095  10.866   0.904  0.2460  0.2394 -0.2291
  374MOL0     C51531   8.053  10.962   0.994 -0.3001  0.7920 -0.3357
  374MOL0     C51532   7.963  10.922   1.097  0.0747  0.2910  0.4973
  374MOL0     O51533   7.903  11.014   1.182 -0.5438 -0.1771 -0.1075
  374MOL0     C51534   7.958  11.143   1.203  0.0817 -0.6423 -0.9035
  374MOL0     C51535   8.106  11.133   1.260 -0.4112  0.3667  0.9389
  374MOL0     C51536   8.111  11.116   1.419 -0.2377 -0.5826  0.1996
  374MOL0     C51537   8.186  11.234   1.482  0.5930 -0.6183 -0.2249
  374MOL0     C51538   8.148  11.369   1.439  0.0954  1.4091 -0.0519
  374MOL0     C51539   8.129  11.486   1.429 -1.0014 -1.0072  0.2950
  374MOL0     C51540   7.911  10.788   1.099 -0.4014 -0.6008 -0.0149
  374MOL0     C51541   7.940  10.699   0.999 -0.1167  0.0676  0.3377
  374MOL0     C51542   7.864  10.566   1.014 -0.3985 -1.4727 -1.0828
  374MOL0     H51543   8.044  10.342   0.689 -2.5572 -0.5333 -3.4944
  374MOL0     H51544   8.117  10.222   0.467  0.0543  0.9383 -1.4602
  374MOL0     H51545   8.512  10.200   0.347  0.3145 -2.1112 -1.2655
  374MOL0     H51546   8.490  10.366   0.267 -4.5365  2.8235  2.5811
  374MOL0     H51547   8.433  10.083   0.161  0.8021 -0.4955  1.2557
  374MOL0     H51548   8.358  10.240   0.097 -0.0876 -0.0703  0.2005
  374MOL0     H51549   8.622  10.313   0.103 -0.1283 -0.9697  1.4125
  374MOL0     H51550   8.647  10.142   0.119  1.3453  1.5897  1.8802
  374MOL0     H51551   8.472  10.254  -0.119 -0.6328 -1.0297 -0.3480
  374MOL0     H51552   8.644  10.275  -0.134 -0.1591  2.3616  1.3353
  374MOL0     H51553   8.482  10.020  -0.115  0.4740  0.4140  2.8712
  374MOL0     H51554   8.661  10.025  -0.106 -2.9238 -2.4033  0.7133
  374MOL0     H51555   8.488  10.142  -0.320  1.0410  1.2500 -3.0575
  374MOL0     H51556   8.664  10.132  -0.329  1.9134 -0.1962  4.5060
  374MOL0     H51557   8.538   9.950  -0.449 -1.9195  1.4862  0.2430
  374MOL0     H51558   8.477   9.894  -0.292 -1.0612  0.5058 -2.2266
  374MOL0     H51559   8.759   9.880  -0.421 -0.6230  0.3637  0.3063
  374MOL0     H51560   8.743   9.862  -0.241  0.9659 -0.9239  0.3687
  374MOL0     H51561   8.775   9.585  -0.216 -2.3418 -0.7407  2.7644
  374MOL0     H51562   8.660   9.335  -0.197  1.0740  2.0692  0.4086
  374MOL0     H51563   8.671   9.307  -0.372 -2.2197 -0.2998 -1.9413
  374MOL0     H51564   8.430   9.346  -0.195  4.4575  3.1655  0.5832
  374MOL0     H51565   8.422   9.285  -0.373 -5.7093 -0.4864  3.1391
  374MOL0     H51566   8.493   9.077  -0.325 -1.4826 -0.4002  0.0757
  374MOL0     H51567   8.594   9.113  -0.197  1.0087  0.6247 -0.4851
  374MOL0     H51568   8.303   9.163  -0.149 -1.6734 -1.2780  0.8191
  374MOL0     H51569   8.380   9.002  -0.133  0.2215  0.3192  2.9111
  374MOL0     H51570   8.563   9.335   0.162 -0.1897  2.3682 -1.9542
  374MOL0     H51571   8.512   9.380   0.461  0.0277 -0.9302 -0.3840
  374MOL0     H51572   8.422   9.519   0.425 -1.0703 -0.6216  0.0670
  374MOL0     H51573   8.565   9.480   0.330  1.5528 -3.0080  0.0860
  374MOL0     H51574   8.067   9.457   0.674  0.4624  1.1203  0.8587
  374MOL0     H51575   7.840   9.535   0.774 -2.5271  1.3057 -0.8519
  374MOL0     H51576   7.564   9.613   0.570  1.2471 -0.1106  1.2054
  374MOL0     H51577   7.468   9.458   0.533  0.6070  0.3378 -0.8478
  374MOL0     H51578   7.442   9.649   0.774 -1.5663  1.2370 -0.0116
  374MOL0     H51579   7.323   9.632   0.649 -1.3292 -1.9288  2.1601
  374MOL0     H51580   7.387   9.382   0.812 -0.8783 -1.7015  0.0352
  374MOL0     H51581   7.262   9.402   0.681 -2.5804  1.5143  1.8197
  374MOL0     H51582   7.148   9.578   0.819 -0.5350  0.1488  1.9589
  374MOL0     H51583   7.261   9.549   0.948 -0.5006 -0.9122  1.7580
  374MOL0     H51584   7.083   9.333   0.830  2.1870 -0.6569  0.5653
  374MOL0     H51585   7.202   9.313   0.948  3.2272  1.1812 -1.4530
  374MOL0     H51586   6.963   9.515   0.972  0.9506 -0.7838 -4.2306
  374MOL0     H51587   7.088   9.478   1.097 -1.5401 -1.2483 -0.1919
  374MOL0     H51588   6.884   9.279   1.017  2.8115 -2.3679 -2.7067
  374MOL0     H51589   6.876   9.373   1.154  0.5995  0.4815 -0.7099
  374MOL0     H51590   7.094   9.270   1.235 -0.6741 -0.2357  1.3000
  374MOL0     H51591   7.107   9.192   1.075  0.8076  2.4185 -1.0655
  374MOL0     H51592   7.628   9.309   0.476 -0.0578 -1.2424 -0.2812
  374MOL0     H51593   7.851   9.218   0.396 -2.1894  0.7258 -1.5874
  374MOL0     H51594   8.077   9.249   0.220 -0.0967 -2.0746 -0.1177
  374MOL0     H51595   8.211   9.131   0.035  1.1135 -1.0390 -0.0596
  374MOL0     H51596   8.406  10.512   0.406 -1.3518 -0.3899 -0.9405
  374MOL0     H51597   8.349  10.632   0.597  1.2943 -1.1023  1.2386
  374MOL0     H51598   8.172  10.897   0.834  0.3692  1.6530  0.4920
  374MOL0     H51599   8.095  11.062   0.985  1.2015  0.0535 -2.2320
  374MOL0     H51600   7.956  11.190   1.104 -1.5446 -3.6929 -2.4337
  374MOL0     H51601   7.887  11.199   1.265 -1.6368 -4.1216  0.4891
  374MOL0     H51602   8.154  11.221   1.215 -0.7588 -0.7594 -1.8764
  374MOL0     H51603   8.159  11.051   1.209 -1.0435  2.2451 -3.1537
  374MOL0     H51604   8.011  11.107   1.462 -0.5508  1.5545  0.0045
  374MOL0     H51605   8.160  11.021   1.442  2.8604  0.9275  0.4056
  374MOL0     H51606   8.295  11.233   1.472  0.6230  1.0201 -0.2997
  374MOL0     H51607   8.173  11.228   1.590  0.1430 -2.0275 -0.3285
  374MOL0     H51608   8.100  11.588   1.413 -1.6555 -1.0960  0.8410
  374MOL0     H51609   7.834  10.768   1.172 -1.7097  0.5029 -1.0381
  374MOL0     H51610   7.781  10.570   1.085  0.3301  3.4346 -0.1327
  374MOL0     H51611   7.816  10.528   0.923  1.4168 -0.5020 -2.5402
  374MOL0     H51612   7.931  10.493   1.060 -0.5498 -0.4101  0.9123
  375MOL0     O51613   6.328   8.547   3.772 -0.1861 -0.1405  0.2036
  375MOL0     C51614   6.444   8.589   3.748 -0.0069 -0.0522  0.8754
  375MOL0     O51615   6.493   8.602   3.630 -0.0607  0.2280  0.4552
  375MOL0     C51616   6.407   8.599   3.525 -0.2311 -0.1974 -0.0153
  375MOL0     C51617   6.388   8.722   3.459  0.0194 -0.6444  0.2001
  375MOL0     C51618   6.330   8.726   3.334  0.6210 -0.9372  0.2465
  375MOL0     C51619   6.266   8.611   3.283  0.2870 -0.9835  0.2159
  375MOL0     O51620   6.194   8.624   3.167  0.4757 -0.3389 -0.7162
  375MOL0     C51621   6.055   8.592   3.191  1.1543 -0.2705 -0.3103
  375MOL0     C51622   5.985   8.561   3.064  0.4728  1.2141 -0.4577
  375MOL0     C51623   5.958   8.690   2.985  1.1163  0.1391  0.5054
  375MOL0     C51624   5.816   8.750   3.024 -1.5821 -0.2921 -0.9607
  375MOL0     C51625   5.787   8.870   2.932 -0.6937 -0.2018  0.5700
  375MOL0     C51626   5.640   8.893   2.897 -0.8051 -0.3843 -0.2253
  375MOL0     C51627   5.622   9.024   2.818 -0.0971 -0.4820  0.2318
  375MOL0     C51628   5.482   9.055   2.808  0.4640 -0.5186 -0.1319
  375MOL0     N51629   5.457   9.173   2.720 -0.1620  0.0164 -0.2198
  375MOL0     C51630   5.514   9.211   2.602 -0.5350 -0.7738  0.3039
  375MOL0     C51631   5.492   9.343   2.604 -1.0222 -0.3379 -0.1603
  375MOL0     C51632   5.492   9.449   2.492 -1.2597 -0.6463 -0.3707
  375MOL0     C51633   5.579   9.567   2.534 -0.1460  0.1591  0.5146
  375MOL0     C51634   5.727   9.546   2.516 -0.1029  0.3472  0.2822
  375MOL0     C51635   5.812   9.498   2.636  0.7740  0.0897  0.0438
  375MOL0     O51636   5.954   9.479   2.601  0.9448  0.3851 -0.6943
  375MOL0     C51637   6.010   9.369   2.667  0.0733  0.9843 -0.1543
  375MOL0     C51638   6.058   9.260   2.601 -0.8812  0.2943  0.7619
  375MOL0     C51639   6.117   9.150   2.666 -0.0825 -0.3246  0.0425
  375MOL0     C51640   6.184   9.044   2.580 -0.3922 -0.1220  0.8962
  375MOL0     C51641   6.127   9.150   2.804  0.9052  0.0573 -0.2461
  375MOL0     C51642   6.218   9.061   2.882  0.0793 -0.1955 -0.3009
  375MOL0     O51643   6.339   9.046   2.827  0.4421 -0.5602  0.2651
  375MOL0     C51644   6.409   8.930   2.850  1.1988  0.0680 -0.2260
  375MOL0     C51645   6.376   8.817   2.934 -0.1101 -0.3324  0.0600
  375MOL0     C51646   6.446   8.700   2.918 -0.7677  0.5694 -0.4744
  375MOL0     C51647   6.561   8.685   2.832  0.7371  0.8959  0.2599
  375MOL0     O51648   6.628   8.568   2.836 -0.2474  0.2409 -0.5583
  375MOL0     C51649   6.723   8.545   2.730  0.0754  1.3745 -1.1816
  375MOL0     C51650   6.770   8.395   2.731 -0.1238  0.7513 -0.1885
  375MOL0     C51651   6.835   8.356   2.861  1.0639 -0.9723 -0.3272
  375MOL0     C51652   6.929   8.229   2.862  0.4011 -0.1141  0.2706
  375MOL0     C51653   7.070   8.255   2.816  0.2439  0.2884  0.3825
  375MOL0     C51654   7.175   8.153   2.854 -0.0022  0.7753 -0.8584
  375MOL0     C51655   7.309   8.182   2.775  0.2995  0.4026 -0.7815
  375MOL0     C51656   7.411   8.072   2.790  0.7244  0.6958  0.0208
  375MOL0    Cl51657   7.364   7.924   2.726 -0.3895  0.4043 -0.5249
  375MOL0     C51658   6.604   8.802   2.765  0.5192  0.5301 -0.2397
  375MOL0     C51659   6.525   8.923   2.777 -0.5918  0.4948  0.8454
  375MOL0     O51660   6.186   9.034   2.995 -0.4300  0.2346 -0.5997
  375MOL0     C51661   6.069   9.256   2.878 -0.4723  0.1348  0.6886
  375MOL0     C51662   6.020   9.368   2.799  0.2264 -0.1685  0.5439
  375MOL0     N51663   5.419   9.375   2.721 -0.4751 -0.1431  0.1154
  375MOL0     N51664   5.393   9.273   2.784 -0.1536  0.3274 -0.5742
  375MOL0     C51665   6.286   8.490   3.355  0.1387  0.2257  0.8533
  375MOL0     C51666   6.356   8.485   3.468  0.6443  0.8449 -1.2690
  375MOL0     C51667   6.517   8.630   3.859 -0.3425 -1.1739 -0.5888
  375MOL0     C51668   6.645   8.562   3.880  0.2262  0.0102  0.2797
  375MOL0     C51669   6.743   8.618   3.968 -0.3508  0.3703 -0.0873
  375MOL0     C51670   6.702   8.720   4.055 -0.3154 -0.7637 -1.1264
  375MOL0     O51671   6.790   8.781   4.148  0.5483 -0.0343  0.9625
  375MOL0     C51672   6.928   8.744   4.158  0.8643 -0.0616 -0.0895
  375MOL0     C51673   7.017   8.845   4.234 -0.1051  0.0850  0.5674
  375MOL0     C51674   6.973   8.869   4.378  0.2553 -0.4138  0.1140
  375MOL0     C51675   7.049   8.986   4.446 -0.7706 -0.8066  0.2322
  375MOL0     C51676   7.188   8.978   4.423 -0.6205 -0.3137 -0.0125
  375MOL0     C51677   7.313   8.964   4.412  0.5328  0.1544 -0.3579
  375MOL0     C51678   6.570   8.761   4.055  0.1920  0.0360 -0.2415
  375MOL0     C51679   6.474   8.727   3.959  0.2822 -0.8511 -0.2018
  375MOL0     C51680   6.344   8.802   3.969 -0.4565 -0.4607 -0.2076
  375MOL0     H51681   6.434   8.813   3.495 -2.0181  0.6491 -0.3010
  375MOL0     H51682   6.316   8.824   3.291 -3.6526 -0.0229  3.0764
  375MOL0     H51683   5.999   8.657   3.258  1.9536  0.3647 -0.2416
  375MOL0     H51684   6.067   8.497   3.245  4.7738  1.7489  2.9481
  375MOL0     H51685   6.046   8.494   3.004  1.2738  0.4766  1.1288
  375MOL0     H51686   5.890   8.512   3.086 -2.4163  5.1580 -2.6973
  375MOL0     H51687   6.029   8.773   2.988 -1.4760  2.5928 -0.8077
  375MOL0     H51688   5.955   8.660   2.879  0.0209 -2.6791  1.2376
  375MOL0     H51689   5.737   8.675   3.031 -0.5542 -1.8375 -4.0587
  375MOL0     H51690   5.834   8.784   3.126 -1.3279 -0.7196 -0.8581
  375MOL0     H51691   5.823   8.841   2.833 -0.6016  1.9146 -0.0795
  375MOL0     H51692   5.836   8.963   2.964  3.0320 -2.1393  0.9812
  375MOL0     H51693   5.595   8.811   2.840  1.8086 -1.1126 -1.4195
  375MOL0     H51694   5.589   8.900   2.994 -0.6239  2.4755 -0.2527
  375MOL0     H51695   5.665   9.013   2.718  0.8445  1.1394  0.4186
  375MOL0     H51696   5.669   9.100   2.881 -1.0596  0.0964  0.2743
  375MOL0     H51697   5.425   8.966   2.781  2.2168 -1.6932 -0.0746
  375MOL0     H51698   5.455   9.077   2.912 -1.8846  0.3637 -0.8517
  375MOL0     H51699   5.558   9.151   2.523  1.3142 -0.6053  1.1504
  375MOL0     H51700   5.389   9.473   2.464  0.0736  1.6729 -4.0050
  375MOL0     H51701   5.533   9.409   2.399 -0.7792 -1.8515  0.3317
  375MOL0     H51702   5.547   9.652   2.474  2.0965 -0.8720 -2.4001
  375MOL0     H51703   5.553   9.578   2.640  5.2938 -0.0117  2.1724
  375MOL0     H51704   5.746   9.478   2.433  2.4570  0.7302  0.4643
  375MOL0     H51705   5.761   9.642   2.475 -0.8946 -0.0120 -1.2512
  375MOL0     H51706   5.785   9.553   2.727 -3.4541 -1.7397  0.1586
  375MOL0     H51707   5.763   9.403   2.659  0.9914  0.1657  0.8713
  375MOL0     H51708   6.049   9.272   2.493  0.0155  3.9815  0.9790
  375MOL0     H51709   6.285   9.080   2.558 -1.0227  2.7465  2.2115
  375MOL0     H51710   6.136   9.028   2.483 -1.9260  1.1871  1.3990
  375MOL0     H51711   6.201   8.946   2.626 -1.5071 -1.1380 -0.7611
  375MOL0     H51712   6.297   8.823   3.009  0.0141  3.1290  0.0873
  375MOL0     H51713   6.417   8.613   2.976  0.1566 -0.1305 -1.0395
  375MOL0     H51714   6.676   8.570   2.635  0.6395 -0.3996 -1.9695
  375MOL0     H51715   6.814   8.604   2.745 -1.0727  2.6164  1.6626
  375MOL0     H51716   6.679   8.336   2.716 -0.5436  2.1480 -4.3228
  375MOL0     H51717   6.831   8.369   2.644 -1.1280  2.4805 -1.4614
  375MOL0     H51718   6.760   8.342   2.939  3.4560  0.5333  2.4737
  375MOL0     H51719   6.886   8.441   2.907 -1.0745  0.2012 -0.0337
  375MOL0     H51720   6.892   8.157   2.788  0.5756 -0.9599  0.9809
  375MOL0     H51721   6.936   8.176   2.957  1.8475 -2.0968 -0.8606
  375MOL0     H51722   7.060   8.267   2.708 -3.1422 -0.6002  0.4832
  375MOL0     H51723   7.108   8.349   2.859  1.7603  1.5047 -3.2407
  375MOL0     H51724   7.139   8.051   2.836  2.7917 -0.7147  1.1644
  375MOL0     H51725   7.196   8.147   2.961 -0.3066 -0.6343 -0.8577
  375MOL0     H51726   7.353   8.263   2.834 -0.4847 -0.7531  1.5088
  375MOL0     H51727   7.287   8.211   2.672  0.7571  0.4388 -0.8742
  375MOL0     H51728   7.443   8.054   2.893 -0.1832  0.1546  0.2170
  375MOL0     H51729   7.503   8.093   2.734  0.7245 -0.7643 -0.5782
  375MOL0     H51730   6.697   8.802   2.709  1.0165  1.6983  0.5532
  375MOL0     H51731   6.534   9.014   2.719 -4.5953  0.4296 -0.1229
  375MOL0     H51732   6.072   9.257   2.987  0.2394  0.0048  0.6727
  375MOL0     H51733   5.968   9.447   2.850 -1.2114 -2.7791  3.4434
  375MOL0     H51734   6.244   8.401   3.310 -1.0371  0.8493  0.6590
  375MOL0     H51735   6.374   8.390   3.516 -0.8919  0.3046 -1.7051
  375MOL0     H51736   6.689   8.484   3.819  0.1538 -0.3217  0.6484
  375MOL0     H51737   6.844   8.577   3.961  0.0705  1.2582  0.6025
  375MOL0     H51738   6.936   8.648   4.210  0.7238  1.1173  2.2337
  375MOL0     H51739   6.985   8.734   4.065  3.1744 -0.4583  1.2804
  375MOL0     H51740   7.005   8.935   4.173 -1.0057 -0.6583 -0.3782
  375MOL0     H51741   7.120   8.809   4.242  0.0233  0.8580  4.0768
  375MOL0     H51742   6.866   8.891   4.365  0.3726 -0.9689 -2.4523
  375MOL0     H51743   6.982   8.778   4.437  1.3460 -1.0976 -1.0670
  375MOL0     H51744   7.028   8.984   4.554  0.8276 -3.3012  0.5766
  375MOL0     H51745   7.018   9.083   4.406  0.0877 -0.6375 -0.0434
  375MOL0     H51746   7.416   8.935   4.415  0.7411  0.7081  3.6970
  375MOL0     H51747   6.543   8.830   4.135  2.4668  1.3406 -0.5128
  375MOL0     H51748   6.345   8.896   3.913 -0.2297  0.4022  1.1965
  375MOL0     H51749   6.261   8.737   3.939 -2.3627  1.4970  0.5326
  375MOL0     H51750   6.319   8.834   4.071 -1.8083 -0.7430 -0.4311
  376MOL0     O51751  10.423  10.225   2.729  0.8253 -0.1773  0.3330
  376MOL0     C51752  10.329  10.294   2.698  0.2415 -0.0209 -0.2605
  376MOL0     O51753  10.216  10.242   2.641  0.2186 -0.2128  0.0099
  376MOL0     C51754  10.170  10.112   2.656  0.5349  0.0390 -0.4103
  376MOL0     C51755  10.201  10.039   2.772 -0.5206 -1.0176  0.1400
  376MOL0     C51756  10.174   9.904   2.780  0.0656 -0.3420 -0.3818
  376MOL0     C51757  10.091   9.833   2.692  0.1107  1.2413 -0.2455
  376MOL0     O51758  10.056   9.695   2.714 -0.1261  0.2880  0.2265
  376MOL0     C51759  10.160   9.605   2.767 -0.1329 -0.7384  0.5275
  376MOL0     C51760  10.139   9.591   2.919  0.5449  0.5274  0.4698
  376MOL0     C51761  10.000   9.544   2.959 -0.0978 -0.4130 -0.1523
  376MOL0     C51762   9.977   9.396   2.966 -0.8854  0.3821  0.1131
  376MOL0     C51763   9.831   9.349   2.971  0.3258 -0.5529 -0.6580
  376MOL0     C51764   9.773   9.377   3.106 -0.4641 -0.8891 -0.4102
  376MOL0     C51765   9.624   9.385   3.089 -0.2587 -1.4177  0.2391
  376MOL0     C51766   9.544   9.370   3.224 -0.4227  0.4004 -0.2050
  376MOL0     N51767   9.566   9.480   3.316  0.0730 -0.1358  0.0371
  376MOL0     C51768   9.675   9.489   3.406 -0.0678 -0.0158  0.0136
  376MOL0     C51769   9.651   9.599   3.471  0.0224 -0.2427 -0.5292
  376MOL0     C51770   9.754   9.658   3.571 -0.0349 -0.0793  0.2663
  376MOL0     C51771   9.682   9.741   3.679 -0.3438  0.8456  0.4962
  376MOL0     C51772   9.646   9.879   3.622  1.0398 -0.0236  0.3816
  376MOL0     C51773   9.645   9.975   3.739  0.0733 -0.3215 -0.5823
  376MOL0     O51774   9.624  10.109   3.692 -0.3244  0.3982  0.0163
  376MOL0     C51775   9.576  10.209   3.765 -0.4994  0.2693  0.7107
  376MOL0     C51776   9.474  10.196   3.879  0.1845 -0.5842  0.1920
  376MOL0     C51777   9.439  10.306   3.948  0.2889 -0.3860  0.2464
  376MOL0     C51778   9.337  10.306   4.060 -0.2091  0.9090  0.7308
  376MOL0     C51779   9.481  10.435   3.906 -0.1396  0.9608  0.5977
  376MOL0     C51780   9.452  10.565   3.960  0.3034  0.8985 -0.5246
  376MOL0     O51781   9.411  10.665   3.874 -0.1773  0.2105  0.2988
  376MOL0     C51782   9.391  10.798   3.903 -0.0593  0.6681  0.4655
  376MOL0     C51783   9.454  10.898   3.827 -0.7131  0.0671  0.8148
  376MOL0     C51784   9.426  11.031   3.832  0.1878 -0.3259  0.0330
  376MOL0     C51785   9.341  11.074   3.942 -0.5014 -0.1451  0.4035
  376MOL0     O51786   9.333  11.207   3.953 -1.2000  0.5214  0.6144
  376MOL0     C51787   9.328  11.260   4.088 -0.5322  0.2844 -0.4907
  376MOL0     C51788   9.195  11.313   4.117 -0.6300 -0.9445  0.9419
  376MOL0     C51789   9.201  11.368   4.262  0.2549  0.4171  1.1152
  376MOL0     C51790   9.052  11.406   4.301 -0.3644  0.8875  0.0226
  376MOL0     C51791   9.048  11.466   4.438 -0.1067 -0.6527  0.7894
  376MOL0     C51792   9.024  11.354   4.546  0.2150  0.0454  0.4177
  376MOL0     C51793   8.878  11.327   4.557  0.7314 -1.1548  0.2912
  376MOL0     C51794   8.824  11.230   4.659 -0.1483  1.0319  1.0351
  376MOL0    Cl51795   8.895  11.070   4.614  0.6054  0.1379 -0.0218
  376MOL0     C51796   9.285  10.975   4.024 -0.2481 -0.5997  0.1673
  376MOL0     C51797   9.308  10.840   3.999  0.4428  0.2086 -0.2811
  376MOL0     O51798   9.461  10.574   4.084  0.2582 -0.0443  0.7393
  376MOL0     C51799   9.558  10.451   3.794 -0.1282 -0.0178  1.0451
  376MOL0     C51800   9.608  10.335   3.730 -0.6493 -0.5667  0.0410
  376MOL0     N51801   9.547   9.662   3.411  0.2335  0.6062 -0.2662
  376MOL0     N51802   9.491   9.587   3.324 -0.3120 -0.1838 -0.4810
  376MOL0     C51803  10.060   9.897   2.579  0.7599  0.1947 -0.2552
  376MOL0     C51804  10.095  10.038   2.561  1.0252 -0.4074  0.1603
  376MOL0     C51805  10.334  10.446   2.699  0.2109  1.0488 -1.0056
  376MOL0     C51806  10.433  10.495   2.788 -0.1591 -0.0434  0.2018
  376MOL0     C51807  10.449  10.628   2.820 -0.5071  0.7195 -1.0691
  376MOL0     C51808  10.367  10.717   2.744  0.2902  0.3794  0.1072
  376MOL0     O51809  10.366  10.855   2.753 -0.0333 -0.6414 -0.5991
  376MOL0     C51810  10.409  10.918   2.875  0.0708 -0.4050  0.9594
  376MOL0     C51811  10.557  10.947   2.855  0.1553  0.6349  0.0171
  376MOL0     C51812  10.582  11.045   2.966  0.0490  0.0019  0.3126
  376MOL0     C51813  10.724  11.078   2.980 -0.5885  0.5139 -0.3800
  376MOL0     C51814  10.769  11.152   2.859 -0.3118 -0.6821 -0.1620
  376MOL0     C51815  10.804  11.224   2.766  0.2632 -0.3891 -0.3315
  376MOL0     C51816  10.287  10.665   2.648  1.2958  0.6104  0.4257
  376MOL0     C51817  10.259  10.529   2.620 -0.1187 -0.1132  0.2251
  376MOL0     C51818  10.162  10.491   2.508  0.0244 -0.5974  0.0689
  376MOL0     H51819  10.255  10.080   2.857 -0.9013 -0.2128  0.0107
  376MOL0     H51820  10.208   9.857   2.871 -0.8455 -1.5679 -0.6450
  376MOL0     H51821  10.259   9.644   2.745 -1.9050  2.3631 -2.9813
  376MOL0     H51822  10.148   9.510   2.714  1.4293 -0.0688 -1.1186
  376MOL0     H51823  10.212   9.516   2.951 -0.9134 -0.5503  1.4297
  376MOL0     H51824  10.151   9.689   2.966  0.2631  0.7681  0.0457
  376MOL0     H51825   9.979   9.590   3.055 -1.5248 -1.3801  0.0167
  376MOL0     H51826   9.920   9.580   2.894  1.9535  1.7893 -1.6395
  376MOL0     H51827  10.023   9.341   2.883 -0.1279  2.0704 -0.6468
  376MOL0     H51828  10.029   9.372   3.060  0.7844 -3.2117 -1.5115
  376MOL0     H51829   9.826   9.246   2.936  2.0226 -0.4300 -1.3841
  376MOL0     H51830   9.780   9.413   2.898 -0.2461  1.9150  1.7238
  376MOL0     H51831   9.808   9.303   3.179  2.4322 -0.3834 -1.1572
  376MOL0     H51832   9.810   9.473   3.141  0.8181 -0.6614 -2.2425
  376MOL0     H51833   9.595   9.309   3.016 -0.0761  1.8563 -3.6097
  376MOL0     H51834   9.600   9.480   3.040 -1.4603 -1.7450  0.1656
  376MOL0     H51835   9.438   9.352   3.201 -0.6400  0.2225  0.8756
  376MOL0     H51836   9.581   9.278   3.271  1.7511 -1.7475 -5.3605
  376MOL0     H51837   9.742   9.408   3.431  3.1008  1.6422 -2.4189
  376MOL0     H51838   9.829   9.715   3.514 -0.1479 -0.4461 -0.2563
  376MOL0     H51839   9.815   9.583   3.621  1.8210 -3.1593 -5.6112
  376MOL0     H51840   9.597   9.686   3.721 -1.0565  1.2481 -0.3712
  376MOL0     H51841   9.765   9.750   3.749  0.6678 -2.1264 -0.1550
  376MOL0     H51842   9.703   9.909   3.534 -1.9793 -0.9901 -2.1227
  376MOL0     H51843   9.544   9.885   3.582  0.5930 -1.6940  1.1820
  376MOL0     H51844   9.557   9.943   3.795  1.0242 -2.4224 -0.2038
  376MOL0     H51845   9.734   9.957   3.801 -1.2506  1.5116  2.0385
  376MOL0     H51846   9.460  10.102   3.930  0.9164  0.5238  2.5745
  376MOL0     H51847   9.385  10.340   4.153  0.9276  0.0045  0.4903
  376MOL0     H51848   9.301  10.205   4.079 -0.2086  0.5709 -0.9170
  376MOL0     H51849   9.259  10.383   4.050 -1.2441  0.1719  2.5544
  376MOL0     H51850   9.518  10.857   3.749 -0.0278 -0.5031  1.6516
  376MOL0     H51851   9.470  11.092   3.753 -1.3462  1.4430  0.4622
  376MOL0     H51852   9.358  11.175   4.150 -2.5275  0.0684  0.2662
  376MOL0     H51853   9.404  11.336   4.105  1.5965 -1.8061 -0.0370
  376MOL0     H51854   9.180  11.402   4.055  0.5464 -0.1109  1.8206
  376MOL0     H51855   9.117  11.237   4.102 -1.4169 -0.0502  0.3386
  376MOL0     H51856   9.274  11.449   4.262  1.6267 -0.7293 -1.1337
  376MOL0     H51857   9.241  11.288   4.325  0.4930 -0.9877 -0.7288
  376MOL0     H51858   8.997  11.312   4.290 -0.2022  1.0872 -3.8059
  376MOL0     H51859   9.016  11.484   4.233  2.3646  4.1571  1.9914
  376MOL0     H51860   9.135  11.523   4.473 -2.1855  2.0890  1.8191
  376MOL0     H51861   8.968  11.541   4.438  1.0849  0.6936  2.1580
  376MOL0     H51862   9.062  11.375   4.646 -0.2077  1.5750  0.2688
  376MOL0     H51863   9.076  11.264   4.511  2.0771  1.9954 -2.2500
  376MOL0     H51864   8.843  11.295   4.458 -2.7906 -0.6498  1.2466
  376MOL0     H51865   8.834  11.426   4.568  3.0318 -0.0655  0.2285
  376MOL0     H51866   8.716  11.233   4.648 -0.0180  0.1315 -1.0643
  376MOL0     H51867   8.845  11.271   4.758  3.3911  2.9707 -0.3177
  376MOL0     H51868   9.221  11.011   4.103  0.3850  1.1476 -0.0690
  376MOL0     H51869   9.254  10.771   4.063  3.2412 -0.0434  2.0174
  376MOL0     H51870   9.597  10.537   3.739 -0.1564 -0.0878  0.9139
  376MOL0     H51871   9.671  10.358   3.645  1.5646  2.1840  2.2088
  376MOL0     H51872  10.022   9.837   2.496  1.2208  0.1211 -0.4162
  376MOL0     H51873  10.072  10.092   2.469  0.9866 -0.2485  0.2622
  376MOL0     H51874  10.496  10.422   2.837 -0.1713 -0.8851 -0.9925
  376MOL0     H51875  10.519  10.660   2.897 -1.2833  1.1412 -0.5252
  376MOL0     H51876  10.348  11.009   2.876 -2.6379 -2.1291  1.3523
  376MOL0     H51877  10.389  10.857   2.963 -0.8427 -0.7673  0.5120
  376MOL0     H51878  10.590  10.997   2.762  1.0877  1.4648  0.7603
  376MOL0     H51879  10.616  10.855   2.862 -0.9769 -0.0023  1.5626
  376MOL0     H51880  10.533  11.140   2.942 -3.5810 -1.8564 -0.2684
  376MOL0     H51881  10.541  11.002   3.058  1.4099 -4.0535 -0.7778
  376MOL0     H51882  10.790  10.991   2.992 -1.0009  0.1447 -0.7611
  376MOL0     H51883  10.739  11.141   3.068 -2.1609 -0.8218  0.9029
  376MOL0     H51884  10.833  11.289   2.685  0.5507  0.0925  0.1561
  376MOL0     H51885  10.231  10.736   2.588  0.9315  1.2012  1.4504
  376MOL0     H51886  10.207  10.413   2.448 -1.6118 -1.0303 -0.6513
  376MOL0     H51887  10.071  10.451   2.554  0.5518 -1.4907  0.3609
  376MOL0     H51888  10.136  10.575   2.443  0.3368 -0.2130  0.4343
  377MOL0     O51889   7.110   9.701   8.715 -0.5807 -0.0371  0.9971
  377MOL0     C51890   7.168   9.638   8.800 -0.8765  0.8743 -0.4274
  377MOL0     O51891   7.151   9.505   8.814 -0.1548  0.7065 -0.3617
  377MOL0     C51892   7.053   9.437   8.746  1.2341 -0.5437 -1.1015
  377MOL0     C51893   7.093   9.313   8.700 -0.4272  0.0721 -0.0729
  377MOL0     C51894   7.000   9.223   8.646  0.2397 -0.6686 -0.7712
  377MOL0     C51895   6.864   9.256   8.647  0.4600  0.0361  0.1413
  377MOL0     O51896   6.782   9.157   8.602 -0.3696  0.1411  0.4253
  377MOL0     C51897   6.718   9.087   8.706  0.0805  0.2836  0.2253
  377MOL0     C51898   6.572   9.085   8.665  0.0311 -0.5838  0.2290
  377MOL0     C51899   6.550   9.021   8.530  0.5615 -0.1404 -0.0010
  377MOL0     C51900   6.411   8.972   8.517 -0.0174 -1.0804 -1.1159
  377MOL0     C51901   6.383   8.843   8.589 -0.4642  0.0992  0.0275
  377MOL0     C51902   6.254   8.765   8.544  0.5919  1.1580 -0.6926
  377MOL0     C51903   6.175   8.691   8.650  1.2006  0.4323  0.5456
  377MOL0     C51904   6.068   8.610   8.575 -0.2708  0.2017 -0.2076
  377MOL0     N51905   6.010   8.516   8.676  0.3448  0.4607 -0.1541
  377MOL0     C51906   6.074   8.401   8.716 -0.5107 -0.5634 -0.1308
  377MOL0     C51907   5.982   8.339   8.794  0.4333 -0.2559 -0.1383
  377MOL0     C51908   5.990   8.194   8.848  1.0972  0.0308 -0.1934
  377MOL0     C51909   5.863   8.121   8.825  0.6612  0.1302 -0.1755
  377MOL0     C51910   5.885   7.985   8.884  0.9769  0.9222 -0.5306
  377MOL0     C51911   5.859   7.982   9.035 -0.2767 -1.1604 -0.7204
  377MOL0     O51912   5.716   7.972   9.038 -0.4724 -0.4044 -0.6516
  377MOL0     C51913   5.668   7.857   9.092  0.5417  0.5678 -0.2618
  377MOL0     C51914   5.569   7.849   9.196 -0.6010  0.0677  0.4531
  377MOL0     C51915   5.506   7.735   9.242  0.0901 -0.3301 -0.1707
  377MOL0     C51916   5.405   7.743   9.356 -0.0485 -0.3870 -0.7620
  377MOL0     C51917   5.556   7.615   9.179  0.2067 -0.0092  0.0139
  377MOL0     C51918   5.505   7.479   9.216 -0.3714  0.4109  0.2200
  377MOL0     O51919   5.601   7.375   9.220 -0.8575 -0.4685 -0.2229
  377MOL0     C51920   5.577   7.255   9.282 -0.0294 -0.0521 -1.3991
  377MOL0     C51921   5.656   7.147   9.252  0.1920 -0.4165 -0.1681
  377MOL0     C51922   5.635   7.027   9.319 -0.8126  0.2070  0.8909
  377MOL0     C51923   5.550   7.010   9.429  0.2082 -0.0557 -0.2972
  377MOL0     O51924   5.535   6.884   9.477 -0.1016 -0.2034 -0.1432
  377MOL0     C51925   5.449   6.856   9.592 -0.0704  0.0220  0.8840
  377MOL0     C51926   5.441   6.706   9.606  0.2847  0.0542 -0.5786
  377MOL0     C51927   5.317   6.679   9.705  0.0869  0.2043 -0.4994
  377MOL0     C51928   5.345   6.738   9.846  0.0056  0.8259  0.0099
  377MOL0     C51929   5.247   6.695   9.959 -0.2199 -0.7372 -0.0698
  377MOL0     C51930   5.098   6.700   9.918  0.1310  0.4266 -0.6737
  377MOL0     C51931   5.021   6.626  10.031  0.4689 -0.4340 -0.5090
  377MOL0     C51932   4.883   6.575   9.997 -0.8598  1.1191 -0.4550
  377MOL0    Cl51933   4.812   6.488  10.135  0.2940 -0.3555  0.1556
  377MOL0     C51934   5.464   7.109   9.452 -0.1455 -0.6089  0.2533
  377MOL0     C51935   5.487   7.237   9.397  0.2751  0.9896  0.8928
  377MOL0     O51936   5.390   7.471   9.243  0.6615 -0.1580 -0.3281
  377MOL0     C51937   5.649   7.621   9.074 -0.3527  0.6284 -0.2526
  377MOL0     C51938   5.703   7.741   9.030 -0.4225  0.3733  0.1423
  377MOL0     N51939   5.867   8.419   8.798  0.3889  0.1526 -0.2552
  377MOL0     N51940   5.888   8.519   8.729 -0.1725  0.3310 -0.2075
  377MOL0     C51941   6.819   9.377   8.699  0.3481  0.5678 -0.4229
  377MOL0     C51942   6.912   9.469   8.749 -0.8681  0.1121  0.6317
  377MOL0     C51943   7.259   9.703   8.902 -0.8996  0.3311 -0.1806
  377MOL0     C51944   7.297   9.634   9.015  0.6843 -0.4952  0.7324
  377MOL0     C51945   7.359   9.694   9.119 -0.1183 -0.2771 -0.6708
  377MOL0     C51946   7.388   9.828   9.115 -0.3385 -0.4117 -0.4016
  377MOL0     O51947   7.436   9.890   9.228 -0.1357  0.2753  0.2142
  377MOL0     C51948   7.563   9.949   9.202 -0.0569 -0.4803 -0.7169
  377MOL0     C51949   7.673   9.866   9.265  0.4221  0.0512 -1.0925
  377MOL0     C51950   7.668   9.722   9.226 -0.1976  0.1794  0.8783
  377MOL0     C51951   7.804   9.656   9.262 -0.0232  0.1262  1.0353
  377MOL0     C51952   7.831   9.661   9.409 -0.5515 -0.1152 -0.2442
  377MOL0     C51953   7.845   9.682   9.525  0.8460 -0.2459  0.0363
  377MOL0     C51954   7.359   9.899   9.000 -0.2139 -0.0787 -0.6284
  377MOL0     C51955   7.286   9.848   8.899 -0.1574  0.5477 -0.4794
  377MOL0     C51956   7.233   9.953   8.795 -0.4306  0.9627 -0.0081
  377MOL0     H51957   7.199   9.289   8.703 -1.0934 -3.4186  3.2971
  377MOL0     H51958   7.046   9.133   8.606  0.0062 -0.4730 -1.5048
  377MOL0     H51959   6.718   9.131   8.806 -4.3941  4.9539 -1.3765
  377MOL0     H51960   6.763   8.987   8.702  1.3102  0.7882  0.9769
  377MOL0     H51961   6.524   9.042   8.753  2.1388 -2.5488  0.5261
  377MOL0     H51962   6.535   9.186   8.645 -0.9808 -1.1585 -0.9412
  377MOL0     H51963   6.561   9.101   8.456  0.7657  2.6936  2.8836
  377MOL0     H51964   6.630   8.952   8.502  0.9163  0.3165 -0.1142
  377MOL0     H51965   6.343   9.047   8.558  2.4773  1.5135 -1.4023
  377MOL0     H51966   6.386   8.946   8.414  0.5400  0.9409 -1.7882
  377MOL0     H51967   6.389   8.872   8.695 -2.2257  0.4732  0.0442
  377MOL0     H51968   6.469   8.776   8.577  1.3952  1.9362  2.1096
  377MOL0     H51969   6.175   8.836   8.518 -1.7288 -2.0947 -3.3397
  377MOL0     H51970   6.278   8.699   8.460 -2.0238 -3.8485  2.0000
  377MOL0     H51971   6.121   8.765   8.711 -1.7573 -0.0689 -1.2697
  377MOL0     H51972   6.230   8.629   8.721 -1.7531 -1.2118  1.5427
  377MOL0     H51973   5.989   8.670   8.529 -0.4765  0.1103  0.0269
  377MOL0     H51974   6.111   8.552   8.493 -0.6229  2.6409 -2.2597
  377MOL0     H51975   6.167   8.352   8.687 -1.4488 -2.8767  0.5338
  377MOL0     H51976   6.028   8.195   8.951  1.2784  0.2080 -0.2603
  377MOL0     H51977   6.066   8.147   8.785  1.1868  1.2280 -1.0062
  377MOL0     H51978   5.780   8.178   8.866  1.9379  2.4720 -0.6389
  377MOL0     H51979   5.844   8.130   8.718 -2.6450  2.1893  0.4559
  377MOL0     H51980   5.818   7.909   8.843 -1.2585 -0.1311  4.2766
  377MOL0     H51981   5.986   7.951   8.858 -0.4385 -2.6320 -2.0748
  377MOL0     H51982   5.909   7.892   9.072 -1.0034 -0.9494  0.8701
  377MOL0     H51983   5.898   8.059   9.101  2.6354 -1.9356 -1.3959
  377MOL0     H51984   5.536   7.945   9.234  1.1812  1.5698 -1.5265
  377MOL0     H51985   5.307   7.719   9.313 -0.0914  0.1092 -0.9398
  377MOL0     H51986   5.395   7.841   9.403 -0.8374 -1.2478  0.9623
  377MOL0     H51987   5.423   7.685   9.447  2.8643  1.4492 -0.0651
  377MOL0     H51988   5.728   7.164   9.173  0.0278 -0.1860 -0.2695
  377MOL0     H51989   5.703   6.944   9.297 -0.2888  0.4965  1.3976
  377MOL0     H51990   5.496   6.897   9.682  0.8690  2.3384 -0.5582
  377MOL0     H51991   5.351   6.904   9.586  0.5948  1.2671 -1.4151
  377MOL0     H51992   5.428   6.664   9.506  4.9439  3.0372 -2.7846
  377MOL0     H51993   5.535   6.667   9.647 -1.5413 -0.9424  3.0617
  377MOL0     H51994   5.289   6.575   9.718  2.9412 -0.5437  0.3792
  377MOL0     H51995   5.223   6.712   9.659 -2.0605  0.2806  3.4828
  377MOL0     H51996   5.324   6.845   9.833  0.0389  1.0247  1.4245
  377MOL0     H51997   5.448   6.715   9.874  0.5783 -1.2321 -3.2441
  377MOL0     H51998   5.268   6.593   9.993  2.3291 -0.8160 -1.6323
  377MOL0     H51999   5.270   6.760  10.043  2.7595  0.0327 -1.3522
  377MOL0     H52000   5.100   6.640   9.827  5.0929 -2.9546  1.2407
  377MOL0     H52001   5.059   6.800   9.895  0.5675  1.2047  1.6455
  377MOL0     H52002   5.003   6.711  10.096 -0.1461 -0.1480 -1.0504
  377MOL0     H52003   5.075   6.543  10.077 -1.4569 -2.7479 -2.1727
  377MOL0     H52004   4.891   6.501   9.917 -1.1281 -0.0037  0.5230
  377MOL0     H52005   4.819   6.659   9.967 -0.4330  0.7422 -2.5781
  377MOL0     H52006   5.377   7.090   9.515  0.9139 -0.9879  1.6451
  377MOL0     H52007   5.427   7.320   9.433 -0.9407  0.2636  0.5974
  377MOL0     H52008   5.692   7.529   9.036  2.0277  2.1048 -1.3762
  377MOL0     H52009   5.782   7.741   8.955  2.5078 -4.8258  2.6563
  377MOL0     H52010   6.714   9.401   8.711  0.3149 -0.7654  2.7001
  377MOL0     H52011   6.900   9.568   8.791  0.3897 -0.1356  1.6536
  377MOL0     H52012   7.270   9.529   9.015  2.0185 -0.8570  0.8009
  377MOL0     H52013   7.385   9.632   9.205  2.8932  2.2967  0.4724
  377MOL0     H52014   7.581   9.954   9.094 -1.4956 -2.5139 -1.1252
  377MOL0     H52015   7.558  10.046   9.251 -0.9414 -1.8385  2.0514
  377MOL0     H52016   7.663   9.873   9.374  0.3895  0.7058 -1.1341
  377MOL0     H52017   7.774   9.902   9.242  0.6045 -0.7558 -1.5925
  377MOL0     H52018   7.599   9.653   9.274  2.6903 -3.8131 -0.1574
  377MOL0     H52019   7.663   9.719   9.116  4.7710 -0.7679  0.4016
  377MOL0     H52020   7.890   9.700   9.211  0.5866 -1.6375  0.4936
  377MOL0     H52021   7.804   9.550   9.235  2.7849  0.5254 -0.9770
  377MOL0     H52022   7.841   9.708   9.629 -0.3969  1.2143 -0.3460
  377MOL0     H52023   7.367  10.007   9.003 -1.1687  0.1495 -3.1290
  377MOL0     H52024   7.288  10.047   8.799  0.4984  0.3770  2.0832
  377MOL0     H52025   7.244   9.927   8.689  0.1287  0.5617  0.1433
  377MOL0     H52026   7.131   9.981   8.822 -0.4662  1.2048 -0.3784
  378MOL0     O52027   7.725   7.117   5.537  0.0287  0.1767  0.2034
  378MOL0     C52028   7.620   7.115   5.468  0.7259  0.0339  0.0725
  378MOL0     O52029   7.589   7.215   5.385 -0.0591 -0.0833  0.3057
  378MOL0     C52030   7.676   7.319   5.366 -0.0625  0.8927  0.5352
  378MOL0     C52031   7.622   7.443   5.389 -0.2868  0.4538 -0.2915
  378MOL0     C52032   7.693   7.558   5.365 -0.3780 -0.1623 -0.1288
  378MOL0     C52033   7.827   7.557   5.314 -0.7357  1.0254 -0.2717
  378MOL0     O52034   7.902   7.668   5.291  0.2498  0.1627  0.3218
  378MOL0     C52035   7.865   7.791   5.367 -1.2650 -2.2484  0.0292
  378MOL0     C52036   7.940   7.900   5.284 -0.6668 -0.7405 -0.7035
  378MOL0     C52037   7.884   7.912   5.142 -0.8258  0.6127 -0.0117
  378MOL0     C52038   7.912   8.046   5.078 -0.4834 -0.2291  0.0768
  378MOL0     C52039   8.058   8.070   5.041  0.0886  0.4493 -0.4504
  378MOL0     C52040   8.102   7.978   4.921 -0.8371  0.2706  0.3563
  378MOL0     C52041   8.248   8.016   4.882  1.1140 -0.0545  0.5037
  378MOL0     C52042   8.302   7.912   4.783  0.4531 -0.0933  0.7052
  378MOL0     N52043   8.433   7.970   4.755 -0.8502  0.2446 -0.5208
  378MOL0     C52044   8.459   8.085   4.688  0.3985 -0.5177 -0.6329
  378MOL0     C52045   8.588   8.129   4.732  0.0056  0.0898  0.8457
  378MOL0     C52046   8.641   8.266   4.690  0.2452  0.0646  0.2863
  378MOL0     C52047   8.562   8.386   4.742 -0.6353  0.0368 -0.4404
  378MOL0     C52048   8.628   8.509   4.691 -0.2043 -0.4602  0.5519
  378MOL0     C52049   8.535   8.637   4.683  0.0848 -0.2613 -0.0844
  378MOL0     O52050   8.389   8.620   4.657 -0.2328 -0.4668 -0.0516
  378MOL0     C52051   8.305   8.629   4.762 -0.1216 -1.6839  0.7438
  378MOL0     C52052   8.202   8.538   4.745  0.7559 -0.1153  0.4712
  378MOL0     C52053   8.107   8.521   4.840 -1.6778  1.2527 -0.8380
  378MOL0     C52054   7.989   8.440   4.808  0.0868  0.1840 -0.4409
  378MOL0     C52055   8.106   8.610   4.949  0.5909 -0.2004 -0.6610
  378MOL0     C52056   7.988   8.617   5.049 -1.2436 -0.5235  0.5259
  378MOL0     O52057   7.904   8.506   5.070  0.4655  0.6224  0.7849
  378MOL0     C52058   7.776   8.525   5.086  0.3691 -0.9888  0.3585
  378MOL0     C52059   7.700   8.611   4.990 -0.4538  0.3569 -0.0401
  378MOL0     C52060   7.566   8.645   5.018  0.6363 -0.8011 -0.6088
  378MOL0     C52061   7.506   8.593   5.128 -0.1217  1.1577 -0.2341
  378MOL0     O52062   7.375   8.632   5.137 -1.2582  0.3130 -0.2106
  378MOL0     C52063   7.299   8.578   5.245 -0.4352  0.0668 -0.1914
  378MOL0     C52064   7.161   8.661   5.239 -0.3077 -0.2386  0.7116
  378MOL0     C52065   7.062   8.587   5.317  0.5604  0.3191  0.4505
  378MOL0     C52066   6.926   8.650   5.334 -0.2176  0.0748 -0.1471
  378MOL0     C52067   6.833   8.573   5.426 -0.6618 -0.2330 -0.0860
  378MOL0     C52068   6.713   8.665   5.447  0.6063 -0.2753  1.1826
  378MOL0     C52069   6.601   8.598   5.519 -0.2856 -0.1113  0.6125
  378MOL0     C52070   6.498   8.692   5.566 -0.4899  0.4931 -0.1647
  378MOL0    Cl52071   6.402   8.592   5.678  0.1278 -0.1276 -0.0284
  378MOL0     C52072   7.576   8.503   5.214  0.3376 -0.3657  0.1566
  378MOL0     C52073   7.708   8.459   5.187 -1.0653 -0.0576  0.8083
  378MOL0     O52074   7.962   8.731   5.097 -0.0388  0.7083 -0.2215
  378MOL0     C52075   8.218   8.699   4.973 -0.1471  0.7940 -0.5271
  378MOL0     C52076   8.328   8.704   4.875  0.0017  0.4720  0.2812
  378MOL0     N52077   8.637   8.026   4.804  0.7439  0.6020 -0.1708
  378MOL0     N52078   8.548   7.930   4.815  0.2999  0.4157 -0.3013
  378MOL0     C52079   7.885   7.426   5.293  0.8563 -0.1095  0.2349
  378MOL0     C52080   7.806   7.306   5.310 -0.6437 -1.2728 -0.3896
  378MOL0     C52081   7.529   6.997   5.480 -0.1130  0.1766  0.5217
  378MOL0     C52082   7.565   6.901   5.577  0.8461 -0.6603 -0.5048
  378MOL0     C52083   7.482   6.787   5.598 -0.8716 -0.1582  0.4019
  378MOL0     C52084   7.379   6.761   5.510  0.4999  0.7347 -1.3324
  378MOL0     O52085   7.295   6.652   5.519 -1.2131  0.2800 -0.0136
  378MOL0     C52086   7.294   6.571   5.634  0.6822  0.8229 -0.3034
  378MOL0     C52087   7.146   6.513   5.661 -0.2111 -0.1756  0.2698
  378MOL0     C52088   7.118   6.399   5.557  0.2054 -0.2461 -0.7753
  378MOL0     C52089   6.998   6.312   5.616 -0.7236 -0.3515 -0.2580
  378MOL0     C52090   6.866   6.370   5.567  0.2671  0.1805 -0.4648
  378MOL0     C52091   6.773   6.406   5.504 -0.7609  0.4927  0.0548
  378MOL0     C52092   7.354   6.848   5.401 -0.0518  0.3138 -0.3889
  378MOL0     C52093   7.432   6.962   5.379 -0.0060  0.6036  0.2723
  378MOL0     C52094   7.412   7.038   5.251  1.0019  0.4452 -0.1593
  378MOL0     H52095   7.518   7.442   5.421  0.3059  2.7664  1.9562
  378MOL0     H52096   7.650   7.657   5.365  0.3883  0.1797 -1.1352
  378MOL0     H52097   7.900   7.786   5.471  1.0470  0.0014 -0.5353
  378MOL0     H52098   7.761   7.824   5.371 -0.5136  0.4302 -0.2418
  378MOL0     H52099   7.949   7.996   5.336  1.5958 -2.2415  1.9922
  378MOL0     H52100   8.045   7.869   5.277 -0.6086 -1.0610  1.0694
  378MOL0     H52101   7.936   7.838   5.079  0.3227  0.8510  0.6448
  378MOL0     H52102   7.775   7.902   5.143 -0.7261 -1.3480 -1.3055
  378MOL0     H52103   7.844   8.051   4.992 -0.0113 -0.9026 -0.3437
  378MOL0     H52104   7.884   8.126   5.147  0.3471 -0.5867  0.8476
  378MOL0     H52105   8.125   8.060   5.127  0.1545 -2.4979 -0.7602
  378MOL0     H52106   8.069   8.171   5.001  1.1860 -0.3363 -2.2739
  378MOL0     H52107   8.101   7.870   4.934  2.4619  0.1639  0.4653
  378MOL0     H52108   8.038   7.994   4.834  4.1832  4.1187 -3.2513
  378MOL0     H52109   8.316   8.032   4.966 -1.5650  3.1399  2.3205
  378MOL0     H52110   8.237   8.113   4.832  0.5255  0.1140  0.9392
  378MOL0     H52111   8.302   7.809   4.817  0.1800  0.8457  3.9215
  378MOL0     H52112   8.242   7.912   4.691 -1.9796 -3.3506  2.0880
  378MOL0     H52113   8.379   8.138   4.636 -1.6685 -0.1270  2.6251
  378MOL0     H52114   8.639   8.269   4.581 -0.6129  0.4220  0.3054
  378MOL0     H52115   8.747   8.272   4.715  0.4679  0.5641 -0.7543
  378MOL0     H52116   8.457   8.379   4.713 -1.0335  0.5645  0.8183
  378MOL0     H52117   8.567   8.383   4.851  0.3303  0.1540 -0.4671
  378MOL0     H52118   8.717   8.525   4.752 -0.5010 -0.5988  1.0322
  378MOL0     H52119   8.666   8.487   4.592 -0.7667  0.8408  0.0175
  378MOL0     H52120   8.559   8.690   4.775  1.4054  0.5176 -0.8426
  378MOL0     H52121   8.564   8.701   4.599  0.1411  1.1749  0.9998
  378MOL0     H52122   8.201   8.485   4.650 -0.1619  0.1619  0.3137
  378MOL0     H52123   7.980   8.363   4.886  0.5552 -0.8342 -1.3668
  378MOL0     H52124   7.991   8.398   4.707  3.8666  1.5884 -1.1218
  378MOL0     H52125   7.910   8.515   4.803 -0.5871 -0.6361 -3.5457
  378MOL0     H52126   7.761   8.652   4.910  0.9924 -1.3908  0.1091
  378MOL0     H52127   7.517   8.709   4.946  4.5906  0.0159 -2.8604
  378MOL0     H52128   7.275   8.472   5.232 -0.9122  0.0593  0.6761
  378MOL0     H52129   7.344   8.591   5.344  0.2086 -0.4304 -0.4119
  378MOL0     H52130   7.172   8.761   5.281 -0.3496  0.1445 -0.1659
  378MOL0     H52131   7.137   8.665   5.132  1.3583 -2.8616  0.1440
  378MOL0     H52132   7.101   8.559   5.415  4.2137  1.5549 -0.5051
  378MOL0     H52133   7.037   8.502   5.254  0.3240  1.2110 -0.7004
  378MOL0     H52134   6.881   8.648   5.234 -2.2643 -0.3754  0.7253
  378MOL0     H52135   6.947   8.749   5.375  2.2090 -0.8074  0.9161
  378MOL0     H52136   6.810   8.471   5.392 -1.1271 -0.4821  0.9204
  378MOL0     H52137   6.881   8.562   5.523 -2.8188  2.1485  1.4026
  378MOL0     H52138   6.674   8.678   5.345  0.3747 -1.6632  1.0723
  378MOL0     H52139   6.744   8.760   5.490  1.6855 -0.1446  0.1541
  378MOL0     H52140   6.643   8.542   5.603 -0.1235 -1.4437 -0.3379
  378MOL0     H52141   6.554   8.524   5.454  2.2823 -2.9210  1.7252
  378MOL0     H52142   6.443   8.722   5.476 -1.4834  1.3516  0.7012
  378MOL0     H52143   6.544   8.782   5.607  2.2354 -0.5822 -0.6690
  378MOL0     H52144   7.529   8.467   5.305  2.2010 -0.3748  1.1514
  378MOL0     H52145   7.762   8.385   5.246 -0.6895 -0.0611  0.4634
  378MOL0     H52146   8.220   8.771   5.054  1.2811  1.4707 -1.1312
  378MOL0     H52147   8.407   8.777   4.892  0.1129  1.7040 -4.2056
  378MOL0     H52148   7.989   7.422   5.262  1.2115  0.3164  1.3164
  378MOL0     H52149   7.860   7.213   5.294 -0.4526 -1.2300 -0.0151
  378MOL0     H52150   7.649   6.913   5.644  0.3271  0.4381 -0.0256
  378MOL0     H52151   7.505   6.727   5.685  0.0912  0.3459  0.5108
  378MOL0     H52152   7.358   6.485   5.611  0.2876  0.3750  0.2682
  378MOL0     H52153   7.333   6.614   5.727 -1.2820  1.4895  0.2605
  378MOL0     H52154   7.073   6.593   5.654  0.0081 -0.0765 -1.0136
  378MOL0     H52155   7.126   6.478   5.763 -0.8473  0.4817  0.3721
  378MOL0     H52156   7.098   6.438   5.457  3.3384  2.2997 -0.5694
  378MOL0     H52157   7.206   6.335   5.552 -0.8376 -1.6497 -2.0586
  378MOL0     H52158   7.011   6.301   5.724 -1.2283  2.8380  0.2115
  378MOL0     H52159   6.998   6.209   5.578 -2.6592 -1.7244  2.9845
  378MOL0     H52160   6.693   6.451   5.448 -0.7086  1.0375  0.4113
  378MOL0     H52161   7.276   6.833   5.327 -1.8601 -0.2834  1.5309
  378MOL0     H52162   7.359   6.979   5.175 -0.1258 -0.5972  1.3822
  378MOL0     H52163   7.355   7.125   5.286  1.3993 -0.7870  4.1213
  378MOL0     H52164   7.505   7.081   5.211  2.2739 -0.4773  1.6848
  379MOL0     O52165   1.991   8.949   2.806 -0.2567 -0.1112  0.3297
  379MOL0     C52166   1.994   9.054   2.871 -0.3032 -0.5151  0.1708
  379MOL0     O52167   2.024   9.066   2.999 -0.3185 -0.0839 -0.3348
  379MOL0     C52168   2.096   8.958   3.057 -0.7711  0.1262  0.6685
  379MOL0     C52169   2.217   8.991   3.127  1.0924 -0.8442  0.4109
  379MOL0     C52170   2.288   8.898   3.195  1.4528  0.5782  0.5986
  379MOL0     C52171   2.252   8.759   3.194 -0.2936 -0.1822  0.2415
  379MOL0     O52172   2.331   8.675   3.264  0.2009  0.2542 -0.5687
  379MOL0     C52173   2.281   8.541   3.307  0.0263 -0.2470 -0.5871
  379MOL0     C52174   2.220   8.555   3.445 -0.0501  0.0294  0.1107
  379MOL0     C52175   2.191   8.427   3.514 -0.4231  0.6329 -1.0387
  379MOL0     C52176   2.132   8.314   3.438 -0.1167 -0.5443  0.4036
  379MOL0     C52177   2.097   8.197   3.521  1.2252 -0.0218  0.0026
  379MOL0     C52178   2.013   8.101   3.435 -0.3415  0.3630 -0.3153
  379MOL0     C52179   1.967   7.972   3.502  0.6704 -0.1239 -0.3578
  379MOL0     C52180   1.896   7.875   3.407 -0.1188 -0.2905  0.6072
  379MOL0     N52181   1.957   7.862   3.275  0.0943  0.7326 -0.9628
  379MOL0     C52182   2.082   7.802   3.247 -0.8360  0.7161  0.4855
  379MOL0     C52183   2.087   7.816   3.116 -0.1716  0.2217  0.2650
  379MOL0     C52184   2.196   7.756   3.036 -0.6450 -1.0825  0.0478
  379MOL0     C52185   2.142   7.695   2.902 -0.3703  0.0089 -0.0804
  379MOL0     C52186   2.191   7.769   2.776 -0.0796  0.1837 -0.5144
  379MOL0     C52187   2.132   7.919   2.771  0.3450 -0.2932 -0.2698
  379MOL0     O52188   2.061   7.947   2.644  0.3025 -0.1653  0.2517
  379MOL0     C52189   1.949   8.026   2.666 -0.2088  0.1584 -0.2774
  379MOL0     C52190   1.833   7.996   2.596 -0.2090 -0.4933 -0.0460
  379MOL0     C52191   1.722   8.085   2.582 -0.6918  0.0293 -0.7141
  379MOL0     C52192   1.622   8.061   2.468 -0.1919  0.7841  0.1643
  379MOL0     C52193   1.727   8.200   2.664  0.2053  0.4055 -0.0224
  379MOL0     C52194   1.616   8.296   2.656  0.3340 -0.8585  0.5127
  379MOL0     O52195   1.536   8.287   2.535  0.5618 -0.3363  0.2760
  379MOL0     C52196   1.426   8.371   2.529  0.2465  1.5247  0.1037
  379MOL0     C52197   1.307   8.305   2.555 -0.1497  0.6060  0.6562
  379MOL0     C52198   1.180   8.359   2.539  0.4076 -0.3359  0.8212
  379MOL0     C52199   1.167   8.499   2.496 -0.2791  0.2850 -0.9431
  379MOL0     O52200   1.045   8.559   2.482  0.3526  0.4850 -0.6906
  379MOL0     C52201   1.024   8.686   2.417  0.2940 -0.3253 -0.5362
  379MOL0     C52202   0.865   8.722   2.405  0.1866 -0.1252  1.0815
  379MOL0     C52203   0.826   8.870   2.393 -0.3616 -1.6331 -0.4818
  379MOL0     C52204   0.666   8.894   2.379 -0.4849 -0.3173  0.4921
  379MOL0     C52205   0.644   9.034   2.323 -0.1447  0.3279 -0.4656
  379MOL0     C52206   0.489   9.058   2.311 -0.1313  0.0371 -1.0996
  379MOL0     C52207   0.444   9.089   2.450  0.5701 -0.4905 -0.0462
  379MOL0     C52208   0.299   9.159   2.450 -0.6354 -0.7482  0.0295
  379MOL0    Cl52209   0.167   9.028   2.426 -0.3569  0.0571  0.4431
  379MOL0     C52210   1.291   8.566   2.473  0.2753 -0.5796  0.1979
  379MOL0     C52211   1.413   8.502   2.477  0.2798  0.6470 -0.4566
  379MOL0     O52212   1.610   8.381   2.738  0.5932 -0.5688  0.0449
  379MOL0     C52213   1.828   8.218   2.749 -0.3083 -0.2499 -0.2871
  379MOL0     C52214   1.944   8.139   2.752 -0.3003 -0.0073  0.0893
  379MOL0     N52215   1.972   7.883   3.072  0.5210  1.0660 -0.1399
  379MOL0     N52216   1.899   7.913   3.166 -1.0801  0.3295 -0.7772
  379MOL0     C52217   2.131   8.732   3.137  0.4086 -0.0210  0.0955
  379MOL0     C52218   2.053   8.826   3.068  0.8005 -0.2229 -0.0236
  379MOL0     C52219   1.937   9.168   2.796  0.3885  0.4006 -0.3405
  379MOL0     C52220   1.888   9.271   2.871 -0.7904 -0.4795  0.7055
  379MOL0     C52221   1.838   9.389   2.814 -0.7448  0.0223 -0.6980
  379MOL0     C52222   1.817   9.398   2.676  0.9196  0.7106  0.2910
  379MOL0     O52223   1.773   9.502   2.601  0.5650  0.0170 -0.5450
  379MOL0     C52224   1.707   9.612   2.662  0.0196 -0.1847 -0.0265
  379MOL0     C52225   1.795   9.723   2.707 -0.4425 -0.2212  0.0286
  379MOL0     C52226   1.910   9.763   2.608 -0.7683 -0.7380  0.2940
  379MOL0     C52227   2.030   9.661   2.627  0.6061 -0.3855 -0.4804
  379MOL0     C52228   2.169   9.717   2.605  0.3730  0.0436 -0.5350
  379MOL0     C52229   2.284   9.757   2.585 -0.0164 -0.0339  0.2481
  379MOL0     C52230   1.871   9.296   2.595 -0.2714 -0.3707 -0.0119
  379MOL0     C52231   1.931   9.181   2.653 -0.4118 -1.0955 -0.0913
  379MOL0     C52232   1.971   9.078   2.548  0.3333  0.4839 -0.6927
  379MOL0     H52233   2.242   9.096   3.139 -0.5124 -0.2655 -0.9425
  379MOL0     H52234   2.381   8.912   3.249  1.7946  0.7692 -0.0258
  379MOL0     H52235   2.374   8.486   3.323  0.0632  0.0211  0.1633
  379MOL0     H52236   2.229   8.479   3.234  0.5898  0.0541 -1.2611
  379MOL0     H52237   2.282   8.627   3.499  3.9060  0.4517 -4.3943
  379MOL0     H52238   2.128   8.613   3.433  1.2035  2.6767  2.2347
  379MOL0     H52239   2.282   8.380   3.552 -2.5851 -0.7076  3.1866
  379MOL0     H52240   2.130   8.448   3.603  1.7355  1.2848  0.3627
  379MOL0     H52241   2.043   8.353   3.387 -0.1937  0.3660  1.2025
  379MOL0     H52242   2.189   8.277   3.353 -1.2933 -1.2407 -0.1089
  379MOL0     H52243   2.043   8.232   3.609  1.1151 -0.5504  0.1434
  379MOL0     H52244   2.182   8.134   3.548  0.1501 -0.8153  1.6890
  379MOL0     H52245   1.918   8.149   3.412 -2.7853 -4.8707 -2.9267
  379MOL0     H52246   2.060   8.082   3.338 -2.5741 -2.8155 -0.9616
  379MOL0     H52247   1.912   7.994   3.594 -2.6775 -1.1505 -1.9486
  379MOL0     H52248   2.059   7.924   3.535  1.4333  1.1100 -0.6393
  379MOL0     H52249   1.881   7.771   3.438 -0.5765 -1.0383 -1.8728
  379MOL0     H52250   1.792   7.907   3.394 -0.1766 -0.1241  1.4341
  379MOL0     H52251   2.147   7.745   3.313  0.4335  2.3371  0.6751
  379MOL0     H52252   2.255   7.682   3.090  2.1114 -0.2187 -1.5477
  379MOL0     H52253   2.276   7.830   3.022  0.4463 -1.9994  1.1886
  379MOL0     H52254   2.168   7.589   2.890 -0.6222  0.0718 -1.3262
  379MOL0     H52255   2.034   7.681   2.908 -0.1652 -3.6488 -2.2509
  379MOL0     H52256   2.299   7.757   2.771  0.0113  0.7058  0.0229
  379MOL0     H52257   2.148   7.717   2.690 -0.7146 -1.7473  0.8949
  379MOL0     H52258   2.076   7.944   2.861  3.1252 -1.7483  2.0581
  379MOL0     H52259   2.220   7.983   2.775 -0.6712  1.0838  0.8357
  379MOL0     H52260   1.838   7.903   2.541  0.0440  0.1356 -1.1161
  379MOL0     H52261   1.633   7.960   2.428  0.3783  0.5554  0.8813
  379MOL0     H52262   1.651   8.131   2.388  0.5086 -0.9353 -1.1570
  379MOL0     H52263   1.515   8.072   2.488 -0.6415 -1.1722 -0.8876
  379MOL0     H52264   1.327   8.204   2.587 -0.8729  0.4974  0.7750
  379MOL0     H52265   1.093   8.294   2.542  1.1389 -1.3645  0.2336
  379MOL0     H52266   1.063   8.766   2.480 -0.4568  1.6100 -2.4248
  379MOL0     H52267   1.069   8.667   2.319  3.7710 -2.4044  1.2606
  379MOL0     H52268   0.833   8.675   2.311 -4.2533  2.3789  1.0988
  379MOL0     H52269   0.825   8.690   2.501 -3.6191  2.1604  0.4553
  379MOL0     H52270   0.879   8.923   2.313 -0.1675 -2.4011 -0.8677
  379MOL0     H52271   0.862   8.922   2.482 -1.7834  0.2385 -0.9191
  379MOL0     H52272   0.628   8.883   2.482 -2.2394  0.7105 -0.0015
  379MOL0     H52273   0.608   8.821   2.322 -1.4241 -0.4971  1.6214
  379MOL0     H52274   0.701   9.103   2.386  1.5115 -1.1370 -0.2821
  379MOL0     H52275   0.683   9.036   2.221 -3.6966  3.4003 -1.9957
  379MOL0     H52276   0.426   8.977   2.272 -1.1190  0.5870 -0.6729
  379MOL0     H52277   0.456   9.146   2.255  1.4894  3.3196  2.6339
  379MOL0     H52278   0.512   9.157   2.500 -1.6712  0.1833  2.2701
  379MOL0     H52279   0.443   9.001   2.515 -2.5173 -0.0267  0.7338
  379MOL0     H52280   0.291   9.235   2.371 -1.8494  1.5777  2.2661
  379MOL0     H52281   0.265   9.209   2.541  1.6019 -1.6338  1.4274
  379MOL0     H52282   1.280   8.670   2.443 -1.0872 -0.6835  0.2772
  379MOL0     H52283   1.503   8.552   2.444  0.8605  0.8899  1.3557
  379MOL0     H52284   1.837   8.303   2.816  1.4985 -0.4133 -0.2818
  379MOL0     H52285   2.023   8.153   2.825 -0.1478 -2.1428  0.3766
  379MOL0     H52286   2.101   8.628   3.139 -1.9832  0.6249  1.5122
  379MOL0     H52287   1.959   8.802   3.019  1.3935  1.3716 -2.0412
  379MOL0     H52288   1.905   9.270   2.978 -0.5778 -0.7657  0.6686
  379MOL0     H52289   1.803   9.466   2.882 -0.0883  1.2973 -1.7533
  379MOL0     H52290   1.626   9.648   2.598 -1.6023 -1.3889  1.2521
  379MOL0     H52291   1.664   9.579   2.757  1.5443 -0.3442  0.6416
  379MOL0     H52292   1.843   9.710   2.804 -0.8294  1.8790  0.5610
  379MOL0     H52293   1.731   9.811   2.721  2.0423  1.4104  1.9331
  379MOL0     H52294   1.875   9.762   2.504 -1.1229  3.5852  0.1915
  379MOL0     H52295   1.942   9.866   2.623 -0.5098 -0.2111 -3.0779
  379MOL0     H52296   2.024   9.577   2.557 -0.4114 -0.0756 -0.7743
  379MOL0     H52297   2.023   9.627   2.730  0.6914  2.2998  0.5074
  379MOL0     H52298   2.380   9.797   2.558  0.4762  0.0548  1.9905
  379MOL0     H52299   1.857   9.326   2.491 -0.7985 -0.3656  0.0610
  379MOL0     H52300   1.936   9.109   2.449 -0.9017 -1.3049 -0.8728
  379MOL0     H52301   2.079   9.060   2.547  0.2344 -0.3965  0.7521
  379MOL0     H52302   1.929   8.978   2.563  0.6272  0.6054  1.2628
  380MOL0     O52303   7.367   5.888   7.378 -0.1217 -0.6271 -0.2401
  380MOL0     C52304   7.274   5.813   7.412  0.1885  0.5208  1.0758
  380MOL0     O52305   7.288   5.696   7.479 -0.7591  0.7987  0.1524
  380MOL0     C52306   7.423   5.664   7.513 -0.6986 -0.1801 -0.2491
  380MOL0     C52307   7.457   5.531   7.484 -0.2192 -0.1201  0.2949
  380MOL0     C52308   7.586   5.478   7.526  0.0674 -0.2571 -0.2142
  380MOL0     C52309   7.676   5.563   7.601 -0.1901  0.3369  1.1829
  380MOL0     O52310   7.791   5.500   7.647 -0.1789 -0.2660  0.1312
  380MOL0     C52311   7.890   5.574   7.719 -0.1569 -0.0888  0.2680
  380MOL0     C52312   7.961   5.663   7.629  1.0073 -0.7538  0.2372
  380MOL0     C52313   8.113   5.692   7.661  1.0724 -0.4026  0.5809
  380MOL0     C52314   8.150   5.790   7.555 -0.6407  0.0634 -0.7666
  380MOL0     C52315   8.290   5.839   7.587 -0.1279  0.1944  0.6810
  380MOL0     C52316   8.356   5.934   7.478  0.1038  0.5618 -0.9628
  380MOL0     C52317   8.279   6.067   7.459  0.0061  0.2168  0.1259
  380MOL0     C52318   8.314   6.185   7.556 -0.1230  0.9926  0.2499
  380MOL0     N52319   8.222   6.307   7.544  0.3938  0.1415  0.4280
  380MOL0     C52320   8.092   6.308   7.571  0.0599  0.4349 -0.2635
  380MOL0     C52321   8.056   6.437   7.551  0.4279 -0.1908  0.5675
  380MOL0     C52322   7.923   6.481   7.596 -0.1775 -0.2175  0.3849
  380MOL0     C52323   7.896   6.634   7.581 -0.5272 -0.1171 -0.4075
  380MOL0     C52324   7.986   6.728   7.663 -0.4659 -0.0327  0.4419
  380MOL0     C52325   7.920   6.867   7.672 -0.3343  0.5339  0.7039
  380MOL0     O52326   8.006   6.945   7.747 -0.3513 -0.1470  1.0795
  380MOL0     C52327   7.971   7.077   7.758 -0.1007 -0.1032 -0.3477
  380MOL0     C52328   7.859   7.142   7.713 -0.7152 -0.6994 -0.2752
  380MOL0     C52329   7.830   7.264   7.765  0.2784  0.0202 -0.2169
  380MOL0     C52330   7.694   7.329   7.737 -0.1661 -0.6091  0.6342
  380MOL0     C52331   7.902   7.327   7.871 -1.6700  0.4478 -0.1442
  380MOL0     C52332   7.882   7.460   7.935 -0.1305  0.6124 -0.2533
  380MOL0     O52333   7.947   7.486   8.051 -0.1755  0.1039  0.1814
  380MOL0     C52334   7.949   7.610   8.114  0.8371  0.8858  0.2695
  380MOL0     C52335   7.928   7.736   8.060  0.5823  0.0301 -0.5302
  380MOL0     C52336   7.953   7.845   8.142 -0.1434  0.0140  0.6425
  380MOL0     C52337   7.968   7.825   8.283 -0.4806 -0.9274 -0.4380
  380MOL0     O52338   7.984   7.929   8.364 -0.1625 -0.4851  0.3177
  380MOL0     C52339   7.908   7.933   8.493 -0.1152  0.2728  0.0702
  380MOL0     C52340   7.851   8.071   8.512 -0.6890 -0.1278  0.9112
  380MOL0     C52341   7.775   8.133   8.400  0.1669 -0.3334 -0.1839
  380MOL0     C52342   7.736   8.273   8.427 -0.3866  0.1556  0.3017
  380MOL0     C52343   7.681   8.309   8.560  0.0161  0.3356 -0.3240
  380MOL0     C52344   7.553   8.237   8.599 -0.0165  0.4961 -0.6009
  380MOL0     C52345   7.435   8.266   8.501  0.0417 -0.4114  0.1807
  380MOL0     C52346   7.305   8.180   8.521 -0.2156  0.1588  0.0384
  380MOL0    Cl52347   7.324   8.034   8.411  0.4824  0.2615 -0.1254
  380MOL0     C52348   7.966   7.701   8.337  0.2273  0.2563 -0.2282
  380MOL0     C52349   7.972   7.591   8.251  0.4341 -0.7575 -0.1023
  380MOL0     O52350   7.823   7.538   7.871  0.9988 -0.9641  0.3360
  380MOL0     C52351   8.025   7.261   7.896  0.5915 -0.8718 -0.3360
  380MOL0     C52352   8.051   7.137   7.850 -0.6294 -0.9826  1.2224
  380MOL0     N52353   8.160   6.502   7.496  0.2648 -0.3164  0.1777
  380MOL0     N52354   8.257   6.427   7.488  0.1654  0.1534  0.1205
  380MOL0     C52355   7.636   5.696   7.637 -0.0516 -0.3679 -0.7818
  380MOL0     C52356   7.515   5.745   7.595  0.4904  0.6456  1.0163
  380MOL0     C52357   7.135   5.852   7.378 -0.4969 -0.0298 -0.3515
  380MOL0     C52358   7.028   5.786   7.454  0.1000 -0.0414 -0.5629
  380MOL0     C52359   6.891   5.801   7.422  0.2327  0.2033 -0.2112
  380MOL0     C52360   6.855   5.899   7.336  0.1243 -0.7228 -0.0882
  380MOL0     O52361   6.726   5.929   7.312 -0.2217  0.5899  0.1816
  380MOL0     C52362   6.693   6.056   7.361 -0.8355  0.5228  0.5272
  380MOL0     C52363   6.543   6.077   7.336  0.2608 -0.3887 -0.3263
  380MOL0     C52364   6.450   5.957   7.383 -0.1102 -0.4561  0.0033
  380MOL0     C52365   6.300   6.001   7.378 -0.0916  0.5513  0.1638
  380MOL0     C52366   6.270   6.087   7.500  0.9910  0.2606 -0.5693
  380MOL0     C52367   6.242   6.151   7.603 -0.4853 -0.0187 -0.0378
  380MOL0     C52368   6.958   5.961   7.261  0.0732  0.4224  0.5102
  380MOL0     C52369   7.092   5.947   7.288  0.9432  0.5288  0.4677
  380MOL0     C52370   7.189   6.029   7.201 -0.1080  0.4476 -0.5479
  380MOL0     H52371   7.388   5.466   7.429  1.1082 -2.4875  1.2860
  380MOL0     H52372   7.619   5.375   7.525  1.0400 -0.1339  3.5058
  380MOL0     H52373   7.965   5.506   7.761  0.2669  0.7862  0.9619
  380MOL0     H52374   7.851   5.629   7.805 -2.0766 -1.8725  0.6032
  380MOL0     H52375   7.951   5.615   7.531  0.7019 -2.5981  1.1262
  380MOL0     H52376   7.906   5.758   7.635  2.4320  0.3492 -2.4809
  380MOL0     H52377   8.123   5.733   7.762  0.6118 -1.0593  0.8971
  380MOL0     H52378   8.184   5.610   7.649 -0.2488 -1.1841 -3.4459
  380MOL0     H52379   8.137   5.743   7.457 -0.8380 -0.3818 -0.5289
  380MOL0     H52380   8.074   5.868   7.548 -0.1077  0.5010 -1.9451
  380MOL0     H52381   8.351   5.753   7.616  0.5361  1.2321  2.5207
  380MOL0     H52382   8.283   5.905   7.674  3.0678  1.5127  0.0894
  380MOL0     H52383   8.461   5.956   7.495 -0.0484 -0.5924  2.2131
  380MOL0     H52384   8.355   5.873   7.388 -1.4865 -1.6765  0.4657
  380MOL0     H52385   8.173   6.052   7.479 -0.1032 -0.5752 -0.9405
  380MOL0     H52386   8.283   6.105   7.357 -3.5034 -0.5340 -0.3957
  380MOL0     H52387   8.301   6.147   7.657  0.4759  0.9906  0.3255
  380MOL0     H52388   8.416   6.213   7.529  0.4051 -2.3907 -1.8378
  380MOL0     H52389   8.040   6.225   7.617  2.0346 -0.1787  1.0213
  380MOL0     H52390   7.901   6.458   7.701  0.2958 -1.7308  0.1730
  380MOL0     H52391   7.849   6.434   7.531  0.5566  1.6952 -1.9863
  380MOL0     H52392   7.897   6.666   7.476  1.0597 -2.0499 -1.0599
  380MOL0     H52393   7.794   6.653   7.613 -0.2974  0.4785 -0.0210
  380MOL0     H52394   7.995   6.683   7.762  1.6178 -1.7966 -0.4611
  380MOL0     H52395   8.085   6.733   7.616  0.9326  0.7506  3.2714
  380MOL0     H52396   7.910   6.905   7.570 -1.1136  0.3906  0.7262
  380MOL0     H52397   7.823   6.869   7.722 -1.0460  0.3757 -0.6189
  380MOL0     H52398   7.807   7.089   7.634 -0.2513 -1.7954  0.1323
  380MOL0     H52399   7.639   7.366   7.824 -0.4970 -0.1529  0.2339
  380MOL0     H52400   7.632   7.262   7.676 -0.7392  0.7315 -0.2945
  380MOL0     H52401   7.710   7.417   7.675 -0.0227  0.5073  2.2045
  380MOL0     H52402   7.932   7.759   7.954 -1.8091  1.0565 -0.4577
  380MOL0     H52403   7.951   7.946   8.103  0.1895 -0.7439 -1.4638
  380MOL0     H52404   7.826   7.862   8.495  2.0575 -2.4252  2.5515
  380MOL0     H52405   7.981   7.910   8.572  0.1980  1.5207  0.1656
  380MOL0     H52406   7.788   8.049   8.599 -2.0321 -2.4187 -0.5597
  380MOL0     H52407   7.935   8.139   8.529 -0.3717 -0.2979  0.0686
  380MOL0     H52408   7.683   8.074   8.398 -1.2108  1.3626  3.6222
  380MOL0     H52409   7.828   8.109   8.307  0.5857  0.7462 -0.2380
  380MOL0     H52410   7.666   8.302   8.349 -1.6866 -0.4742  1.2049
  380MOL0     H52411   7.825   8.333   8.408  0.5135 -2.1826 -4.2884
  380MOL0     H52412   7.763   8.280   8.627  1.1935 -0.0656 -1.8813
  380MOL0     H52413   7.643   8.411   8.566 -1.0851 -0.0401 -0.7032
  380MOL0     H52414   7.525   8.279   8.696 -0.4272  0.3293 -0.6467
  380MOL0     H52415   7.583   8.132   8.604 -0.6054  0.3074 -0.9157
  380MOL0     H52416   7.466   8.250   8.397 -0.4382 -3.7764  0.4439
  380MOL0     H52417   7.404   8.371   8.508 -4.2910 -1.5541  0.5276
  380MOL0     H52418   7.221   8.236   8.480  0.4440 -0.1525 -1.8379
  380MOL0     H52419   7.279   8.155   8.624 -2.5378 -3.0834 -1.1724
  380MOL0     H52420   7.982   7.696   8.444  1.3347 -2.1079 -0.4376
  380MOL0     H52421   7.969   7.492   8.295 -5.0773 -0.5132  0.7563
  380MOL0     H52422   8.099   7.301   7.963 -1.7300  3.0331  0.1879
  380MOL0     H52423   8.146   7.092   7.876  0.3824 -1.2726 -2.4031
  380MOL0     H52424   7.686   5.763   7.706 -2.2359 -0.2958  0.8191
  380MOL0     H52425   7.498   5.849   7.623  0.8564  1.2929 -0.9893
  380MOL0     H52426   7.056   5.719   7.534  1.0817  3.1677  2.0133
  380MOL0     H52427   6.810   5.742   7.464 -1.7312 -1.1424 -5.2009
  380MOL0     H52428   6.707   6.071   7.468 -0.0260  0.7924  0.3854
  380MOL0     H52429   6.745   6.140   7.314  0.4682 -0.2844  0.4712
  380MOL0     H52430   6.530   6.095   7.229  0.0907 -1.2895 -0.4666
  380MOL0     H52431   6.516   6.172   7.383 -1.4525 -0.5600 -0.9153
  380MOL0     H52432   6.446   5.870   7.316 -1.6088 -2.2669  2.2936
  380MOL0     H52433   6.481   5.928   7.484  2.9287  1.3480 -0.2929
  380MOL0     H52434   6.250   5.907   7.401  1.3842 -0.0913  0.9041
  380MOL0     H52435   6.266   6.042   7.282  1.8052  2.4049  0.1970
  380MOL0     H52436   6.225   6.203   7.696 -2.0070 -2.7144  1.3276
  380MOL0     H52437   6.920   6.029   7.185 -5.8319 -0.6456  2.0086
  380MOL0     H52438   7.253   5.954   7.155 -1.1167 -0.1426 -1.0204
  380MOL0     H52439   7.134   6.093   7.131 -0.7263 -0.8595 -1.3005
  380MOL0     H52440   7.238   6.094   7.274  0.4727  2.3735 -2.5260
  381MOL0     O52441   4.503  10.411   6.554 -0.1809  0.0933 -0.0197
  381MOL0     C52442   4.479  10.331   6.652 -0.3880 -0.3778  0.5301
  381MOL0     O52443   4.363  10.270   6.662 -0.5427  0.7881  0.6973
  381MOL0     C52444   4.264  10.316   6.582  0.1373 -1.2043 -0.9502
  381MOL0     C52445   4.267  10.299   6.440 -1.2836 -0.7111 -0.2284
  381MOL0     C52446   4.156  10.339   6.366  0.0216 -0.2108  0.5091
  381MOL0     C52447   4.038  10.388   6.426 -0.2645 -0.1453 -0.8549
  381MOL0     O52448   3.927  10.439   6.364 -0.2852  0.6207  0.3883
  381MOL0     C52449   3.883  10.359   6.256  0.0432 -0.4594  0.2228
  381MOL0     C52450   3.749  10.422   6.217  0.0694  1.1688 -0.1353
  381MOL0     C52451   3.760  10.566   6.159  0.0855 -0.7646 -0.4850
  381MOL0     C52452   3.795  10.676   6.261 -0.0930 -0.3012 -0.3250
  381MOL0     C52453   3.726  10.679   6.399  0.8668 -0.9054  0.1527
  381MOL0     C52454   3.573  10.678   6.412  0.3651  1.1040  0.4691
  381MOL0     C52455   3.516  10.789   6.320  0.3819  0.6676 -0.3978
  381MOL0     C52456   3.553  10.933   6.365 -0.0235  0.6658 -0.0919
  381MOL0     N52457   3.507  11.034   6.271  0.3705  0.0849 -0.0211
  381MOL0     C52458   3.434  11.005   6.158 -0.0011  0.3144  0.5861
  381MOL0     C52459   3.382  11.125   6.118  0.0287  0.0721  0.3574
  381MOL0     C52460   3.287  11.149   6.011  0.4451 -0.4488  0.8628
  381MOL0     C52461   3.351  11.132   5.876  0.0681 -0.4134  0.3612
  381MOL0     C52462   3.296  11.230   5.777  0.0330 -0.0104  0.0888
  381MOL0     C52463   3.368  11.196   5.637  0.7987 -0.4065 -0.3363
  381MOL0     O52464   3.323  11.069   5.582 -0.2441 -0.0699  0.3080
  381MOL0     C52465   3.373  11.019   5.464 -0.1807  0.4978 -0.5468
  381MOL0     C52466   3.429  11.096   5.355 -0.3929  0.2391  0.4151
  381MOL0     C52467   3.467  11.041   5.229  0.0624 -0.7762  1.1246
  381MOL0     C52468   3.512  11.139   5.123  0.5487 -0.3046 -1.0573
  381MOL0     C52469   3.451  10.901   5.215 -0.2732 -0.3954 -0.6747
  381MOL0     C52470   3.485  10.830   5.097  0.0164  0.1741 -0.5236
  381MOL0     O52471   3.602  10.860   5.036  0.2343  0.0086  0.5833
  381MOL0     C52472   3.650  10.781   4.945 -0.6077  0.4003  0.3560
  381MOL0     C52473   3.780  10.730   4.979  0.7215  0.0729  0.2681
  381MOL0     C52474   3.838  10.643   4.888  0.4548  0.6764  0.0355
  381MOL0     C52475   3.770  10.596   4.772 -0.4950 -0.8901 -0.2540
  381MOL0     O52476   3.819  10.519   4.667 -1.3390 -0.4685 -0.4734
  381MOL0     C52477   3.963  10.510   4.628  0.6801  0.1820 -0.0809
  381MOL0     C52478   4.028  10.647   4.601 -0.5521 -0.3080 -0.1657
  381MOL0     C52479   3.950  10.733   4.498  0.2276  0.1089 -0.1275
  381MOL0     C52480   4.017  10.857   4.454  0.3714 -0.1076  0.9465
  381MOL0     C52481   4.120  10.821   4.338 -0.5341 -0.7387 -0.7329
  381MOL0     C52482   4.234  10.910   4.331  0.0242 -0.1952  0.8309
  381MOL0     C52483   4.191  11.060   4.321 -0.0012  0.2447  1.1816
  381MOL0     C52484   4.311  11.152   4.305 -0.2636 -0.5344  0.3706
  381MOL0    Cl52485   4.424  11.096   4.178  0.1743 -0.4617  0.4316
  381MOL0     C52486   3.646  10.657   4.741  0.1528 -0.3981  0.1891
  381MOL0     C52487   3.591  10.754   4.824  0.1984 -1.1555 -0.3141
  381MOL0     O52488   3.410  10.742   5.058  0.9716 -0.8156  0.1368
  381MOL0     C52489   3.401  10.822   5.326 -0.2391 -0.7516  1.1447
  381MOL0     C52490   3.366  10.879   5.446  0.1023  0.2284  1.0073
  381MOL0     N52491   3.419  11.223   6.210  0.2662  0.5033 -0.1505
  381MOL0     N52492   3.488  11.165   6.304  0.6357  0.1038  0.2367
  381MOL0     C52493   4.041  10.403   6.564 -0.6169  0.2220  0.4432
  381MOL0     C52494   4.153  10.372   6.637  0.5601 -0.4651 -0.0092
  381MOL0     C52495   4.588  10.309   6.746 -1.5189  0.6002 -0.1596
  381MOL0     C52496   4.553  10.251   6.865  0.3428  0.5904 -0.3958
  381MOL0     C52497   4.642  10.215   6.962 -0.7084 -0.1424  1.1182
  381MOL0     C52498   4.783  10.225   6.943  0.9879  0.0678  0.5008
  381MOL0     O52499   4.880  10.192   7.023  1.1476 -0.1117 -0.3902
  381MOL0     C52500   4.851  10.101   7.136  0.5389  0.0297 -0.5293
  381MOL0     C52501   4.819   9.955   7.098  1.1697  0.1392  1.0201
  381MOL0     C52502   4.931   9.894   7.006  1.0770 -0.6399  0.1198
  381MOL0     C52503   4.910   9.752   6.971 -0.9003 -1.0635 -0.1461
  381MOL0     C52504   4.789   9.727   6.894 -0.0562 -0.0680  0.5052
  381MOL0     C52505   4.708   9.698   6.810 -0.2170  0.1266  0.4497
  381MOL0     C52506   4.824  10.278   6.818  0.6100  0.2008  0.0140
  381MOL0     C52507   4.733  10.326   6.725  0.4602  0.6912 -0.0779
  381MOL0     C52508   4.797  10.396   6.610  0.0844 -0.2923  0.1371
  381MOL0     H52509   4.348  10.264   6.376  0.7254  0.0110  1.7591
  381MOL0     H52510   4.161  10.326   6.258 -1.1251 -1.0655  0.5373
  381MOL0     H52511   3.875  10.253   6.283  0.9687 -0.4942  0.3994
  381MOL0     H52512   3.939  10.362   6.162  0.4244 -2.0912  0.3701
  381MOL0     H52513   3.708  10.351   6.144  1.4055 -0.3645  0.5384
  381MOL0     H52514   3.688  10.416   6.308 -0.3434 -0.9536 -0.4981
  381MOL0     H52515   3.838  10.569   6.082  2.4261 -0.0062  1.7580
  381MOL0     H52516   3.665  10.595   6.112  0.4674  0.1632 -0.7091
  381MOL0     H52517   3.904  10.670   6.274  0.0875  2.0345 -0.3663
  381MOL0     H52518   3.787  10.771   6.208  0.7478  0.2884  0.5765
  381MOL0     H52519   3.758  10.764   6.459  0.9467  0.1948 -1.3858
  381MOL0     H52520   3.764  10.591   6.452 -0.6588  0.1068  3.1371
  381MOL0     H52521   3.533  10.580   6.385 -1.2419  0.6863  3.8104
  381MOL0     H52522   3.536  10.691   6.514  0.2197 -2.6039  1.0456
  381MOL0     H52523   3.408  10.776   6.317  0.1892  2.0505 -0.0970
  381MOL0     H52524   3.551  10.772   6.217 -2.2475  0.6452 -1.3563
  381MOL0     H52525   3.507  10.954   6.462 -0.8040  0.6762 -0.4539
  381MOL0     H52526   3.662  10.941   6.374  0.3675 -2.9511 -0.1944
  381MOL0     H52527   3.425  10.911   6.104 -1.0477  0.4033  0.5883
  381MOL0     H52528   3.252  11.252   6.011 -1.3926 -1.0100 -0.7213
  381MOL0     H52529   3.201  11.082   6.018 -0.5899  0.6848 -0.4405
  381MOL0     H52530   3.460  11.133   5.877  0.1434  2.6388 -0.1992
  381MOL0     H52531   3.320  11.033   5.841 -2.4883 -0.2726  1.9558
  381MOL0     H52532   3.190  11.207   5.771  0.2986 -2.1493  2.1450
  381MOL0     H52533   3.320  11.333   5.808  1.4050 -0.2923  0.0490
  381MOL0     H52534   3.372  11.285   5.573 -0.3462 -0.6740 -0.7969
  381MOL0     H52535   3.475  11.181   5.654  0.6698  0.0041  1.0050
  381MOL0     H52536   3.433  11.203   5.373  0.2595  0.0771  1.2878
  381MOL0     H52537   3.513  11.098   5.021 -1.7689  0.9805 -1.6591
  381MOL0     H52538   3.603  11.192   5.153  0.2838 -0.6755  0.4903
  381MOL0     H52539   3.436  11.217   5.114 -2.4745 -2.9637 -0.3310
  381MOL0     H52540   3.829  10.769   5.067 -0.6494  0.4171  0.9214
  381MOL0     H52541   3.939  10.611   4.914  0.7142  0.0720 -1.6372
  381MOL0     H52542   4.010  10.445   4.702  1.5112  0.4019 -0.3959
  381MOL0     H52543   3.979  10.456   4.534  1.8071  1.7393 -0.8279
  381MOL0     H52544   4.017  10.709   4.690 -0.8916 -1.2730  0.4696
  381MOL0     H52545   4.130  10.654   4.561 -0.7787  4.5683 -0.4775
  381MOL0     H52546   3.853  10.764   4.539 -0.1574  1.1080 -1.7238
  381MOL0     H52547   3.923  10.671   4.412  1.5169  0.2350 -0.6329
  381MOL0     H52548   4.079  10.909   4.528  1.2281 -0.7530  0.6955
  381MOL0     H52549   3.945  10.925   4.408 -0.3839 -3.4153 -3.5131
  381MOL0     H52550   4.156  10.718   4.341 -0.4963 -0.7529 -1.5832
  381MOL0     H52551   4.072  10.830   4.241  3.3138  0.8404 -2.7224
  381MOL0     H52552   4.281  10.866   4.243 -2.9509 -4.6539  1.1475
  381MOL0     H52553   4.301  10.896   4.416  4.1514  1.6256 -1.8107
  381MOL0     H52554   4.116  11.082   4.398 -2.0961 -2.5930  0.1496
  381MOL0     H52555   4.139  11.059   4.225  0.3149 -0.4753  1.0089
  381MOL0     H52556   4.372  11.158   4.395  1.1018 -0.7610 -0.4978
  381MOL0     H52557   4.276  11.255   4.290 -0.7851 -0.2014  3.3562
  381MOL0     H52558   3.586  10.627   4.656  2.5586  1.1190 -2.1896
  381MOL0     H52559   3.491  10.792   4.803  0.3407 -0.7474 -0.2601
  381MOL0     H52560   3.388  10.716   5.308 -1.9798 -0.1340 -2.1287
  381MOL0     H52561   3.340  10.812   5.527 -0.4632 -0.7471  0.0403
  381MOL0     H52562   3.950  10.434   6.614 -0.3945  1.8828 -0.1164
  381MOL0     H52563   4.146  10.366   6.745  0.3473 -3.2689 -0.1098
  381MOL0     H52564   4.453  10.210   6.874  2.2461 -4.9091 -0.3301
  381MOL0     H52565   4.599  10.168   7.050 -0.1115 -2.6720  0.1391
  381MOL0     H52566   4.936  10.094   7.205 -0.3066  1.6874  0.7661
  381MOL0     H52567   4.770  10.150   7.191  2.9323  2.9496  0.6965
  381MOL0     H52568   4.719   9.957   7.055  1.8153  1.9838 -0.5808
  381MOL0     H52569   4.805   9.901   7.192  1.7143 -1.1706  0.3758
  381MOL0     H52570   4.931   9.952   6.913 -0.7684  3.7047  2.4968
  381MOL0     H52571   5.029   9.915   7.049  0.8794  4.4812 -1.2364
  381MOL0     H52572   4.915   9.696   7.064  1.2474 -2.9563 -1.2889
  381MOL0     H52573   5.002   9.720   6.921 -0.3860 -1.5415  1.0784
  381MOL0     H52574   4.632   9.669   6.740 -3.1416  1.5539  2.8176
  381MOL0     H52575   4.930  10.292   6.800  0.3832  2.7401  0.2336
  381MOL0     H52576   4.830  10.320   6.539 -0.4925  1.8072 -2.5183
  381MOL0     H52577   4.728  10.468   6.565  0.1294 -0.7262 -0.6423
  381MOL0     H52578   4.883  10.455   6.641 -0.7970  1.0250  0.1427
  382MOL0     O52579   3.022   4.253   0.788 -0.3767  0.1099  0.1981
  382MOL0     C52580   2.936   4.245   0.862  0.4172  0.1317 -0.0325
  382MOL0     O52581   2.834   4.146   0.865 -0.3365  0.1651  1.1916
  382MOL0     C52582   2.824   4.061   0.762 -0.4379  0.1424  0.1579
  382MOL0     C52583   2.900   3.942   0.761  0.6874 -0.3346  0.1003
  382MOL0     C52584   2.902   3.864   0.647  0.1436 -0.2750  0.3279
  382MOL0     C52585   2.852   3.909   0.522  0.2443  0.4308  0.3140
  382MOL0     O52586   2.873   3.833   0.411 -0.1576  0.7551 -0.4313
  382MOL0     C52587   2.906   3.895   0.286 -0.6202 -0.4884  0.1289
  382MOL0     C52588   2.809   3.842   0.182 -0.1883 -0.3663 -0.3554
  382MOL0     C52589   2.681   3.925   0.158 -0.3523  0.6628  0.1823
  382MOL0     C52590   2.712   4.056   0.114 -0.3895  0.0061 -0.3295
  382MOL0     C52591   2.590   4.142   0.057  0.1027 -0.1673 -0.1876
  382MOL0     C52592   2.630   4.266  -0.022 -0.2313  0.2231 -0.4701
  382MOL0     C52593   2.511   4.355  -0.052 -0.7488 -0.1549  0.1018
  382MOL0     C52594   2.435   4.291  -0.175  0.3267 -0.2362 -1.0911
  382MOL0     N52595   2.371   4.397  -0.245  0.5079  0.4076  0.6335
  382MOL0     C52596   2.423   4.486  -0.334 -0.0515 -0.1930  0.8683
  382MOL0     C52597   2.322   4.564  -0.388  0.2044  1.0083 -0.2262
  382MOL0     C52598   2.333   4.651  -0.506 -0.2116 -1.4000  0.2103
  382MOL0     C52599   2.401   4.787  -0.461  0.5610 -0.4042  0.1586
  382MOL0     C52600   2.408   4.880  -0.582 -0.4585  0.2787 -0.6719
  382MOL0     C52601   2.509   4.998  -0.550  0.5080  0.3601 -0.4084
  382MOL0     O52602   2.466   5.054  -0.424  0.0343  1.0599  0.4831
  382MOL0     C52603   2.566   5.105  -0.336 -0.2768  0.3436 -0.3162
  382MOL0     C52604   2.502   5.140  -0.213  0.2208 -0.2651 -0.2418
  382MOL0     C52605   2.580   5.213  -0.117 -1.2852 -0.0309  0.4518
  382MOL0     C52606   2.492   5.287  -0.010 -0.5829 -0.7211 -0.1700
  382MOL0     C52607   2.724   5.225  -0.142 -0.2889  0.6162 -0.7351
  382MOL0     C52608   2.813   5.305  -0.046 -0.9641 -0.6124 -0.7885
  382MOL0     O52609   2.943   5.262  -0.030  0.0135 -0.0494  0.5890
  382MOL0     C52610   3.022   5.284   0.079  1.2459 -0.6029 -0.3466
  382MOL0     C52611   2.973   5.291   0.215  0.5413 -0.1518  0.4519
  382MOL0     C52612   3.059   5.308   0.323 -0.5475  0.2169 -0.0193
  382MOL0     C52613   3.202   5.293   0.302 -0.2461 -0.1372  1.0184
  382MOL0     O52614   3.276   5.309   0.413 -0.1891 -0.3526  0.2425
  382MOL0     C52615   3.335   5.193   0.469 -0.4100  0.7340 -0.9723
  382MOL0     C52616   3.473   5.153   0.394  0.0164 -0.3337  0.8234
  382MOL0     C52617   3.569   5.271   0.397 -0.5239 -1.1658 -0.1298
  382MOL0     C52618   3.683   5.278   0.289  0.1697 -0.2143 -0.1531
  382MOL0     C52619   3.781   5.403   0.311  0.0276 -0.2444 -0.0082
  382MOL0     C52620   3.852   5.422   0.442  0.4167 -0.5950  0.0546
  382MOL0     C52621   3.930   5.560   0.456 -0.3577  0.3199  0.3115
  382MOL0     C52622   3.865   5.657   0.561  0.0608 -0.3914  0.0146
  382MOL0    Cl52623   3.882   5.833   0.537  0.5771  0.0056  0.2286
  382MOL0     C52624   3.245   5.287   0.164 -0.0457 -0.9059  0.4809
  382MOL0     C52625   3.157   5.277   0.058 -0.5031 -0.1237  0.0409
  382MOL0     O52626   2.762   5.377   0.034  0.0932 -0.5107  0.3400
  382MOL0     C52627   2.786   5.175  -0.254  0.9127 -0.2790 -0.0681
  382MOL0     C52628   2.708   5.120  -0.351  0.3940 -0.1618 -0.8582
  382MOL0     N52629   2.211   4.525  -0.316 -0.1161 -0.3500 -0.0586
  382MOL0     N52630   2.245   4.437  -0.235 -0.5751 -0.1923  0.2582
  382MOL0     C52631   2.786   4.030   0.523 -0.3210 -0.7348 -0.1686
  382MOL0     C52632   2.764   4.109   0.641  0.2818  0.3116 -0.0069
  382MOL0     C52633   2.912   4.363   0.954 -0.1233 -0.1733 -0.2563
  382MOL0     C52634   2.785   4.388   1.003  0.0773 -0.4399  0.3780
  382MOL0     C52635   2.749   4.505   1.086 -0.5435 -0.3061  0.5123
  382MOL0     C52636   2.849   4.585   1.125 -0.5284 -0.3067  0.3414
  382MOL0     O52637   2.811   4.678   1.218 -0.5094 -0.3986 -0.0729
  382MOL0     C52638   2.895   4.783   1.267  0.9992 -0.2156 -0.3520
  382MOL0     C52639   2.884   4.892   1.170  0.4842  0.3464 -0.1793
  382MOL0     C52640   2.765   4.976   1.195  0.1568 -0.4663 -0.4008
  382MOL0     C52641   2.733   5.070   1.085  0.8357 -0.6940 -0.1732
  382MOL0     C52642   2.631   5.167   1.115  0.2166  0.0128 -0.4520
  382MOL0     C52643   2.552   5.253   1.135  0.1166  0.5753  1.4242
  382MOL0     C52644   2.981   4.565   1.078  1.3722  0.2138 -0.1224
  382MOL0     C52645   3.011   4.467   0.990 -0.7504 -1.0058  0.0622
  382MOL0     C52646   3.156   4.465   0.945  0.0473  0.0560  0.6151
  382MOL0     H52647   2.958   3.911   0.847 -0.4561 -2.4728  0.1712
  382MOL0     H52648   2.939   3.763   0.654 -0.5843 -0.5747 -0.0361
  382MOL0     H52649   3.006   3.856   0.263  0.7437  2.0106  1.3491
  382MOL0     H52650   2.911   4.004   0.290  0.2409 -0.5490  2.3635
  382MOL0     H52651   2.861   3.844   0.087  1.6301 -0.6605  0.5934
  382MOL0     H52652   2.790   3.736   0.200  1.7343 -1.1286 -2.3887
  382MOL0     H52653   2.609   3.889   0.084  0.7383  1.3318 -1.2618
  382MOL0     H52654   2.630   3.924   0.254  0.5776  1.3602  0.7038
  382MOL0     H52655   2.736   4.109   0.207 -0.7800 -2.4540  1.2624
  382MOL0     H52656   2.798   4.066   0.046  0.8864 -0.2990  1.1886
  382MOL0     H52657   2.520   4.169   0.136  1.1470  0.2795  0.6094
  382MOL0     H52658   2.537   4.082  -0.018  0.6679 -0.8605 -0.0483
  382MOL0     H52659   2.704   4.324   0.033  1.0120 -1.3700 -0.3913
  382MOL0     H52660   2.686   4.231  -0.109 -1.4415 -3.0517 -0.0616
  382MOL0     H52661   2.549   4.456  -0.066 -2.4994  1.4333  4.7828
  382MOL0     H52662   2.444   4.357   0.035 -3.6780  0.9886 -2.0402
  382MOL0     H52663   2.493   4.228  -0.244  1.4060 -0.2621 -0.1860
  382MOL0     H52664   2.364   4.225  -0.123  1.6031 -1.0109 -0.2715
  382MOL0     H52665   2.529   4.495  -0.357  0.3084  1.7737  2.9833
  382MOL0     H52666   2.228   4.664  -0.535 -0.6363 -1.1242  1.8215
  382MOL0     H52667   2.387   4.608  -0.592  0.4335 -3.1343  1.4173
  382MOL0     H52668   2.343   4.834  -0.381 -1.7552  1.0652 -2.2336
  382MOL0     H52669   2.505   4.778  -0.429  0.4985  4.2368  2.4061
  382MOL0     H52670   2.431   4.831  -0.676  1.3529 -0.5916  0.1718
  382MOL0     H52671   2.307   4.922  -0.585  0.0858  1.8782  1.0670
  382MOL0     H52672   2.611   4.959  -0.557  1.1164  1.8966 -0.5756
  382MOL0     H52673   2.503   5.071  -0.632  1.5509 -0.7942 -1.5576
  382MOL0     H52674   2.395   5.125  -0.199  0.1925 -1.3427 -1.5140
  382MOL0     H52675   2.384   5.285  -0.027 -0.4763  1.9181 -1.5908
  382MOL0     H52676   2.512   5.393   0.007 -0.6730 -1.1837  3.7790
  382MOL0     H52677   2.521   5.241   0.085 -0.9958 -0.0750  0.2725
  382MOL0     H52678   2.867   5.292   0.238  0.2367  0.2351 -0.8850
  382MOL0     H52679   3.016   5.323   0.422 -1.1967 -0.4931 -0.1839
  382MOL0     H52680   3.354   5.219   0.574 -2.8954  0.6267 -0.4403
  382MOL0     H52681   3.263   5.111   0.476  1.4111 -0.8874 -0.2530
  382MOL0     H52682   3.521   5.062   0.431 -3.5150 -1.8839  2.0323
  382MOL0     H52683   3.451   5.132   0.290 -2.0497 -2.2568  1.5905
  382MOL0     H52684   3.611   5.273   0.498  3.5700 -0.4416 -1.6540
  382MOL0     H52685   3.510   5.363   0.389  1.3356  0.1012  0.0035
  382MOL0     H52686   3.644   5.288   0.188 -2.6116  0.4431  0.9030
  382MOL0     H52687   3.749   5.192   0.301  1.9043  1.3684  2.9125
  382MOL0     H52688   3.865   5.383   0.244 -1.2693 -1.8543 -1.2330
  382MOL0     H52689   3.733   5.497   0.284  0.4968 -0.2149 -0.7495
  382MOL0     H52690   3.922   5.338   0.446  2.6611  1.2150  1.4430
  382MOL0     H52691   3.793   5.392   0.528  0.8803  0.7400  0.8610
  382MOL0     H52692   3.945   5.599   0.355  2.1044  1.1724  0.9533
  382MOL0     H52693   4.030   5.546   0.496  0.5489  1.6987 -1.3335
  382MOL0     H52694   3.909   5.639   0.660 -0.4567 -1.1411  0.1222
  382MOL0     H52695   3.760   5.629   0.577  0.2558 -0.2633  1.7078
  382MOL0     H52696   3.348   5.289   0.133 -0.6106  0.0942 -1.4938
  382MOL0     H52697   3.198   5.263  -0.041 -2.3386 -2.9724 -0.4448
  382MOL0     H52698   2.890   5.189  -0.279  0.6297  0.0558 -1.0871
  382MOL0     H52699   2.755   5.083  -0.441 -1.0706 -0.7155 -1.4366
  382MOL0     H52700   2.760   4.057   0.421  0.1520  1.2279  0.1975
  382MOL0     H52701   2.721   4.207   0.627 -3.1170 -1.2948 -2.1108
  382MOL0     H52702   2.703   4.324   0.971 -0.1437  0.8333 -1.8455
  382MOL0     H52703   2.655   4.542   1.123 -0.5594  0.9233 -0.6883
  382MOL0     H52704   2.860   4.804   1.369  0.8413  1.2448 -0.6973
  382MOL0     H52705   2.999   4.751   1.267  1.9586  2.6462 -2.0861
  382MOL0     H52706   2.874   4.851   1.069 -0.8976  0.0526  0.0523
  382MOL0     H52707   2.977   4.948   1.178  0.6006  0.0061  1.0922
  382MOL0     H52708   2.678   4.915   1.222 -1.2803  2.2471  1.5641
  382MOL0     H52709   2.794   5.026   1.287 -1.0551 -0.5045  0.0211
  382MOL0     H52710   2.717   5.022   0.988 -2.9090 -0.4609  0.1896
  382MOL0     H52711   2.816   5.139   1.069  1.3260 -0.5048  2.6853
  382MOL0     H52712   2.483   5.335   1.138  0.6671  1.2011 -0.9261
  382MOL0     H52713   3.062   4.633   1.102  1.7693 -0.1978 -0.2862
  382MOL0     H52714   3.208   4.384   0.996  0.3464  0.1430  0.4564
  382MOL0     H52715   3.166   4.444   0.838 -1.9772 -1.0977  0.5957
  382MOL0     H52716   3.211   4.558   0.965 -1.4115  0.6845  1.8511
  383MOL0     O52717   3.550   5.321   9.186  0.8039  0.4153 -0.7136
  383MOL0     C52718   3.440   5.261   9.170  0.1519  0.0179  0.5944
  383MOL0     O52719   3.400   5.208   9.053 -0.5765 -0.7046  0.4024
  383MOL0     C52720   3.467   5.210   8.933  0.2079 -1.1043 -0.0270
  383MOL0     C52721   3.382   5.210   8.819 -0.4355  0.2548  0.7148
  383MOL0     C52722   3.433   5.200   8.686  0.8185  0.6356 -0.4225
  383MOL0     C52723   3.571   5.220   8.659 -0.1492  0.5741  0.2879
  383MOL0     O52724   3.626   5.220   8.530  1.0128 -0.0875 -0.3533
  383MOL0     C52725   3.557   5.185   8.412 -0.5223  0.3769 -0.0333
  383MOL0     C52726   3.623   5.230   8.285 -0.2842 -0.4401  0.2623
  383MOL0     C52727   3.613   5.379   8.252 -0.5352 -0.5225 -0.4360
  383MOL0     C52728   3.664   5.418   8.108  0.7435 -0.3762  0.2767
  383MOL0     C52729   3.659   5.565   8.078  0.4261 -0.5503  0.4092
  383MOL0     C52730   3.735   5.656   8.177 -0.2933 -0.0535  0.7445
  383MOL0     C52731   3.784   5.793   8.131  0.1293  0.7297  1.5306
  383MOL0     C52732   3.902   5.771   8.041 -1.5935  0.6791  0.6808
  383MOL0     N52733   4.024   5.726   8.109 -0.3839  0.6255 -0.0672
  383MOL0     C52734   4.071   5.761   8.237 -0.4096 -0.0344  0.7183
  383MOL0     C52735   4.205   5.753   8.217  0.5032  0.6763 -0.4023
  383MOL0     C52736   4.312   5.776   8.317 -1.1038 -0.5043  0.3632
  383MOL0     C52737   4.334   5.648   8.396  0.2006  0.5148  0.1470
  383MOL0     C52738   4.392   5.537   8.310 -0.7805  0.7828  0.2139
  383MOL0     C52739   4.475   5.427   8.391 -0.0653  0.4843 -0.4383
  383MOL0     O52740   4.376   5.339   8.457 -0.0747  0.0041 -0.1737
  383MOL0     C52741   4.313   5.242   8.384 -0.6808 -0.5780 -0.7942
  383MOL0     C52742   4.196   5.186   8.434  0.5094  0.0648  0.3158
  383MOL0     C52743   4.104   5.106   8.360 -0.7136 -0.3984  0.3690
  383MOL0     C52744   3.998   5.044   8.444  0.3151  0.7317  0.7480
  383MOL0     C52745   4.126   5.085   8.223 -0.3659 -0.0802  1.1154
  383MOL0     C52746   4.053   4.986   8.140  0.9242 -0.8360  0.3631
  383MOL0     O52747   4.109   4.960   8.021  0.1982 -0.4171  0.4813
  383MOL0     C52748   4.053   4.894   7.915 -0.0663 -1.2921 -1.1366
  383MOL0     C52749   4.130   4.833   7.825  0.9800  0.1691  0.4082
  383MOL0     C52750   4.085   4.800   7.699  0.3389 -0.4801  0.1868
  383MOL0     C52751   3.950   4.817   7.665  0.1889  0.4072 -0.2465
  383MOL0     O52752   3.895   4.778   7.544  0.8885  0.0502 -0.0744
  383MOL0     C52753   3.919   4.640   7.506  0.0307  0.9823 -0.3456
  383MOL0     C52754   3.781   4.574   7.503 -0.1494  0.7149 -1.2349
  383MOL0     C52755   3.683   4.653   7.411  0.0937 -0.0445  0.3061
  383MOL0     C52756   3.541   4.581   7.409  0.1753  0.0118 -0.6137
  383MOL0     C52757   3.458   4.617   7.281 -0.7573 -0.6885  0.1857
  383MOL0     C52758   3.319   4.545   7.276 -0.1065 -0.3493  0.6432
  383MOL0     C52759   3.326   4.386   7.268  0.1713  0.8785 -0.2296
  383MOL0     C52760   3.331   4.328   7.414 -0.6390  0.4344 -0.6707
  383MOL0    Cl52761   3.165   4.299   7.459 -0.5128  0.1678 -0.1498
  383MOL0     C52762   3.866   4.871   7.766  0.2688  0.5159 -0.0800
  383MOL0     C52763   3.912   4.914   7.887 -1.1260 -0.6688  0.2632
  383MOL0     O52764   3.940   4.951   8.172  0.4164  0.5913 -0.2476
  383MOL0     C52765   4.239   5.153   8.164  0.2582 -0.3704  0.5348
  383MOL0     C52766   4.327   5.232   8.242 -0.1009 -0.3229  0.0640
  383MOL0     N52767   4.236   5.716   8.090 -0.4847  0.1510 -0.1466
  383MOL0     N52768   4.130   5.699   8.021  0.5567  0.2800 -0.1048
  383MOL0     C52769   3.651   5.228   8.771 -1.1638 -0.1255  1.2625
  383MOL0     C52770   3.600   5.225   8.900  0.2764  0.4644 -0.0812
  383MOL0     C52771   3.343   5.232   9.284 -0.6458  0.5881  0.2588
  383MOL0     C52772   3.217   5.187   9.250 -0.0956  0.6049  0.7486
  383MOL0     C52773   3.125   5.155   9.349 -0.4323 -0.1602 -0.1899
  383MOL0     C52774   3.154   5.161   9.487  0.2897 -0.5868 -0.8938
  383MOL0     O52775   3.063   5.128   9.587  0.0689 -0.9152  0.4623
  383MOL0     C52776   2.986   5.011   9.562 -0.1901 -0.1319 -0.7389
  383MOL0     C52777   2.969   4.947   9.701 -0.9118  0.1222  0.5118
  383MOL0     C52778   2.884   4.827   9.690 -1.2533  0.1705  0.1581
  383MOL0     C52779   2.895   4.726   9.807 -0.1716 -0.1757 -0.3555
  383MOL0     C52780   3.011   4.645   9.805 -0.6186  0.3909  0.1481
  383MOL0     C52781   3.094   4.554   9.794 -0.4007  0.3183 -0.6848
  383MOL0     C52782   3.283   5.198   9.527  0.6169 -0.7245  0.5368
  383MOL0     C52783   3.375   5.238   9.424 -0.7234  0.1913  0.5398
  383MOL0     C52784   3.519   5.268   9.478  0.8932  0.0641 -0.1016
  383MOL0     H52785   3.274   5.209   8.833 -0.2948 -1.4644  2.2080
  383MOL0     H52786   3.356   5.178   8.613  0.7112 -1.1516  0.1680
  383MOL0     H52787   3.457   5.230   8.421 -2.2342 -3.0420 -0.5973
  383MOL0     H52788   3.534   5.079   8.405  0.6630  0.1167 -0.1566
  383MOL0     H52789   3.727   5.196   8.274 -0.7115 -1.7913  0.3081
  383MOL0     H52790   3.570   5.185   8.201 -2.4846  1.7893  0.3528
  383MOL0     H52791   3.506   5.397   8.260 -0.9911 -3.5072  2.4569
  383MOL0     H52792   3.667   5.434   8.330  2.7636 -5.2991  1.1409
  383MOL0     H52793   3.768   5.387   8.093  0.4799 -1.4778  0.6211
  383MOL0     H52794   3.601   5.356   8.043 -0.8362  0.4772  0.9321
  383MOL0     H52795   3.556   5.604   8.076 -0.0332 -1.7185 -0.9230
  383MOL0     H52796   3.683   5.588   7.974  1.5066  0.8534  0.9381
  383MOL0     H52797   3.678   5.666   8.270  2.4440  1.7419  2.3759
  383MOL0     H52798   3.817   5.593   8.213 -1.8435 -0.5811  3.7197
  383MOL0     H52799   3.817   5.852   8.217  0.9614  0.8934  1.1164
  383MOL0     H52800   3.700   5.846   8.086 -0.9191  1.9745  4.7113
  383MOL0     H52801   3.864   5.704   7.963 -1.4220 -0.7968  1.8191
  383MOL0     H52802   3.927   5.865   7.991 -1.6025  1.9396  2.9373
  383MOL0     H52803   4.012   5.796   8.321 -3.2651  1.2370 -1.6618
  383MOL0     H52804   4.297   5.852   8.395 -3.8098 -1.2967  0.7358
  383MOL0     H52805   4.399   5.797   8.255 -0.3280 -1.7393  1.0156
  383MOL0     H52806   4.411   5.671   8.470  1.0638 -2.5399  0.3446
  383MOL0     H52807   4.247   5.612   8.452 -1.8608  1.1823 -2.4040
  383MOL0     H52808   4.315   5.486   8.252  1.7844 -0.0206 -2.7335
  383MOL0     H52809   4.470   5.575   8.244  1.5821 -0.4870  2.1050
  383MOL0     H52810   4.542   5.379   8.319  0.5479  0.1536  0.3448
  383MOL0     H52811   4.536   5.470   8.471 -3.2081  2.8537  0.9018
  383MOL0     H52812   4.171   5.209   8.537 -3.9636 -0.9475 -0.3306
  383MOL0     H52813   3.913   5.090   8.393  0.5464 -0.9044 -1.2584
  383MOL0     H52814   3.998   5.073   8.549 -0.5263 -1.1893  1.3171
  383MOL0     H52815   3.986   4.937   8.425 -0.2750  1.1585 -1.7280
  383MOL0     H52816   4.231   4.798   7.845  0.8709 -1.1493 -1.1843
  383MOL0     H52817   4.167   4.769   7.635  1.6180  1.3284  0.8510
  383MOL0     H52818   3.957   4.624   7.405  1.1774  0.7136  0.1144
  383MOL0     H52819   3.977   4.585   7.581 -0.3831  1.2440  0.1822
  383MOL0     H52820   3.788   4.471   7.468 -2.0135  0.4988 -1.0712
  383MOL0     H52821   3.740   4.578   7.605 -0.9906 -1.8351 -1.4067
  383MOL0     H52822   3.733   4.668   7.315 -0.1154  1.5490  0.4216
  383MOL0     H52823   3.665   4.757   7.440 -0.6001  0.3766 -1.4819
  383MOL0     H52824   3.492   4.605   7.504  4.1150  2.5973  1.0120
  383MOL0     H52825   3.561   4.474   7.398 -1.2392 -0.0761 -3.5678
  383MOL0     H52826   3.436   4.724   7.277  0.0424 -0.5381 -1.6119
  383MOL0     H52827   3.514   4.607   7.187  0.1723  2.5468  0.2975
  383MOL0     H52828   3.261   4.588   7.194 -4.4470 -2.8179  2.0677
  383MOL0     H52829   3.259   4.574   7.363 -0.6454 -1.4211  0.6492
  383MOL0     H52830   3.422   4.359   7.223  0.0239 -1.4034  0.6991
  383MOL0     H52831   3.246   4.349   7.203 -0.1122  1.0713  0.0058
  383MOL0     H52832   3.378   4.392   7.490  0.5284  1.6688 -2.3492
  383MOL0     H52833   3.393   4.238   7.407 -0.1715  0.8073 -1.5317
  383MOL0     H52834   3.757   4.868   7.759  0.3011 -1.9616 -0.5529
  383MOL0     H52835   3.857   4.976   7.956 -1.6575 -1.8727  0.9442
  383MOL0     H52836   4.256   5.124   8.061 -1.9472 -4.2140  1.0515
  383MOL0     H52837   4.415   5.262   8.186  0.8112 -3.2473 -0.2475
  383MOL0     H52838   3.757   5.241   8.752 -1.7475  0.1584 -2.8746
  383MOL0     H52839   3.667   5.238   8.985 -0.7328 -1.8294  1.1488
  383MOL0     H52840   3.179   5.185   9.148  2.3363 -0.3671 -0.2032
  383MOL0     H52841   3.020   5.145   9.323 -1.3076  0.0441  2.8849
  383MOL0     H52842   2.888   5.035   9.520 -0.4791  0.0876  0.0421
  383MOL0     H52843   3.035   4.931   9.506 -0.1992 -1.2900  0.8402
  383MOL0     H52844   2.940   5.020   9.778  4.1750  1.3564  1.6080
  383MOL0     H52845   3.073   4.921   9.720 -1.5284 -2.6529  0.5061
  383MOL0     H52846   2.783   4.869   9.689 -0.7716  1.3802  0.6582
  383MOL0     H52847   2.900   4.778   9.593  2.0654  1.8067 -0.2794
  383MOL0     H52848   2.815   4.651   9.802  1.3500 -1.7703 -3.9245
  383MOL0     H52849   2.877   4.777   9.902  2.6027 -0.7524  0.5892
  383MOL0     H52850   3.159   4.469   9.801 -0.7847  0.0944  0.3902
  383MOL0     H52851   3.310   5.204   9.632  0.8158 -1.5803  0.5429
  383MOL0     H52852   3.566   5.351   9.424 -0.3445  0.7259 -0.2089
  383MOL0     H52853   3.505   5.310   9.578 -1.5796  1.9534 -1.1137
  383MOL0     H52854   3.588   5.183   9.479  1.4521  0.4457 -1.8254
  384MOL0     O52855   6.720   8.641   0.948  0.3743  0.5849 -0.4508
  384MOL0     C52856   6.783   8.659   1.053 -0.4684 -0.0575  0.6174
  384MOL0     O52857   6.743   8.750   1.150 -0.6866  0.0209  0.1804
  384MOL0     C52858   6.638   8.831   1.141 -0.2325  0.2203  0.3347
  384MOL0     C52859   6.516   8.787   1.084  0.0105 -0.2006 -0.8728
  384MOL0     C52860   6.396   8.862   1.084  0.7474  0.7415  0.7178
  384MOL0     C52861   6.381   8.973   1.168  0.2053 -0.9293 -0.2332
  384MOL0     O52862   6.255   9.035   1.171 -0.0200  0.0306  0.3878
  384MOL0     C52863   6.251   9.169   1.221  0.3132  0.1268 -0.1137
  384MOL0     C52864   6.253   9.188   1.375  0.0139 -0.1156  0.4961
  384MOL0     C52865   6.190   9.324   1.410  0.0844  0.2334 -0.8133
  384MOL0     C52866   6.193   9.335   1.551 -0.3804  0.3868 -0.6938
  384MOL0     C52867   6.113   9.463   1.586 -0.2389  0.1257  0.2463
  384MOL0     C52868   6.166   9.606   1.530  0.5472 -0.1141 -0.3609
  384MOL0     C52869   6.068   9.719   1.576 -1.0993 -0.0832 -0.0910
  384MOL0     C52870   5.934   9.708   1.500  0.4675  1.0361 -0.0366
  384MOL0     N52871   5.850   9.809   1.553  0.1539  0.3439 -0.8881
  384MOL0     C52872   5.749   9.780   1.639  0.9829  0.1075  0.4060
  384MOL0     C52873   5.691   9.897   1.670 -1.1131  0.3197  0.0702
  384MOL0     C52874   5.556   9.927   1.734  0.3404  0.2172 -0.2342
  384MOL0     C52875   5.538   9.862   1.867 -0.0282  1.1148 -0.1486
  384MOL0     C52876   5.407   9.892   1.930  0.2637 -0.3779 -0.3697
  384MOL0     C52877   5.280   9.898   1.845  0.4046  0.5418 -0.0798
  384MOL0     O52878   5.160   9.875   1.919 -0.6185  0.7785 -1.0349
  384MOL0     C52879   5.100   9.979   2.001 -0.5384  1.3114  0.7899
  384MOL0     C52880   5.024   9.944   2.110 -0.5441  0.2168  0.9017
  384MOL0     C52881   4.963  10.039   2.189  0.0437 -0.5459 -0.1646
  384MOL0     C52882   4.863  10.004   2.295 -1.0199  0.5770  0.7419
  384MOL0     C52883   4.985  10.176   2.156 -0.5059  0.5615  0.2920
  384MOL0     C52884   4.944  10.293   2.245  0.4585  0.1582  0.3803
  384MOL0     O52885   4.994  10.414   2.207  0.4655 -0.3761  0.6718
  384MOL0     C52886   4.988  10.528   2.292  1.0926  0.5570 -0.8664
  384MOL0     C52887   5.087  10.546   2.383  0.0278  0.1613 -0.4382
  384MOL0     C52888   5.068  10.654   2.475 -0.3858 -0.6555 -0.2664
  384MOL0     C52889   4.962  10.748   2.467  1.4542  0.2758 -0.1940
  384MOL0     O52890   4.946  10.867   2.546 -1.1483  0.1595 -0.3904
  384MOL0     C52891   5.044  10.890   2.653 -0.6029 -0.1384  1.2936
  384MOL0     C52892   4.958  10.989   2.729  0.4110  0.4064 -0.8533
  384MOL0     C52893   5.040  11.075   2.820  0.3686 -0.1680 -0.5113
  384MOL0     C52894   5.114  11.003   2.928  0.9965 -0.3393 -0.2673
  384MOL0     C52895   5.173  11.104   3.034  0.9450 -0.7203  0.8872
  384MOL0     C52896   5.255  11.023   3.144  0.1891  0.0888  0.3662
  384MOL0     C52897   5.388  10.990   3.088  0.3887 -0.5140 -0.6854
  384MOL0     C52898   5.494  10.916   3.177  0.4326 -0.4313  0.7209
  384MOL0    Cl52899   5.418  10.759   3.208  0.2623 -0.0632 -0.2282
  384MOL0     C52900   4.860  10.719   2.374  0.7080 -0.1184  0.8051
  384MOL0     C52901   4.865  10.605   2.292 -0.1354  0.0921 -0.4677
  384MOL0     O52902   4.886  10.274   2.352 -0.2530 -0.8180 -0.4118
  384MOL0     C52903   5.058  10.215   2.040 -0.3247  0.4809  0.1271
  384MOL0     C52904   5.117  10.114   1.970  0.1503 -0.3515  0.3352
  384MOL0     N52905   5.779   9.997   1.619 -0.4163 -0.3416  0.0921
  384MOL0     N52906   5.869   9.945   1.551  0.4481 -0.2437  0.4128
  384MOL0     C52907   6.499   9.026   1.220 -0.6131 -0.2607  0.0273
  384MOL0     C52908   6.625   8.953   1.214 -0.2313  0.7117  0.4033
  384MOL0     C52909   6.920   8.591   1.067 -0.1508 -1.2716  0.5276
  384MOL0     C52910   6.960   8.501   0.976 -0.0720  0.5637  0.6252
  384MOL0     C52911   7.092   8.447   0.972  0.1006  0.5834  0.1679
  384MOL0     C52912   7.180   8.482   1.073 -0.3495 -0.7611  0.3520
  384MOL0     O52913   7.302   8.421   1.067  0.1693  0.3586 -0.4468
  384MOL0     C52914   7.419   8.490   1.121 -0.0300 -0.8344 -0.8215
  384MOL0     C52915   7.551   8.452   1.054 -0.4349 -0.8473  0.6331
  384MOL0     C52916   7.540   8.454   0.903  0.2058  0.2023 -0.2128
  384MOL0     C52917   7.680   8.469   0.839  0.1986 -0.0289  0.0480
  384MOL0     C52918   7.763   8.346   0.876 -0.1057 -0.8446 -0.4872
  384MOL0     C52919   7.810   8.244   0.906 -0.1921  0.2643 -0.0475
  384MOL0     C52920   7.142   8.571   1.174 -0.1024  0.3234  0.0280
  384MOL0     C52921   7.008   8.628   1.174 -0.6754  0.6849 -0.1601
  384MOL0     C52922   6.992   8.726   1.285  1.0888 -0.2363  0.0349
  384MOL0     H52923   6.507   8.682   1.056  2.0774  0.2563 -3.7086
  384MOL0     H52924   6.306   8.815   1.046  0.5731  3.3441 -2.5539
  384MOL0     H52925   6.165   9.220   1.178  0.2920  1.5664  1.5293
  384MOL0     H52926   6.337   9.216   1.173  0.2439  1.4323  0.9881
  384MOL0     H52927   6.205   9.105   1.427  1.6317 -0.7485  1.0581
  384MOL0     H52928   6.357   9.190   1.409 -0.9897 -2.7508  4.3611
  384MOL0     H52929   6.241   9.412   1.368  1.0158 -0.0359 -0.2807
  384MOL0     H52930   6.090   9.329   1.365  0.5317  0.9316 -1.7835
  384MOL0     H52931   6.134   9.253   1.593  0.9236 -0.9525 -1.4010
  384MOL0     H52932   6.289   9.349   1.601 -0.8082  1.7530 -0.2184
  384MOL0     H52933   6.096   9.482   1.693 -1.7276 -2.4203  0.5318
  384MOL0     H52934   6.012   9.456   1.544  0.9617  0.9620 -3.1094
  384MOL0     H52935   6.257   9.632   1.585  0.5395 -1.1640  0.1680
  384MOL0     H52936   6.192   9.614   1.424 -3.4836 -0.0887 -1.5186
  384MOL0     H52937   6.117   9.814   1.552 -0.3869 -0.5983 -0.7243
  384MOL0     H52938   6.048   9.718   1.683  0.4923  3.6694  0.4036
  384MOL0     H52939   5.960   9.723   1.394 -1.5164 -2.8205 -1.2904
  384MOL0     H52940   5.884   9.611   1.505  0.0511  1.2893  0.8770
  384MOL0     H52941   5.714   9.682   1.670  1.6377 -0.0115  0.7692
  384MOL0     H52942   5.483   9.894   1.660  1.3267 -1.1396 -0.6455
  384MOL0     H52943   5.548  10.036   1.739 -0.7666  0.2018 -1.2591
  384MOL0     H52944   5.548   9.754   1.852  2.4562  0.9756  1.8108
  384MOL0     H52945   5.617   9.900   1.932  0.3754  0.6354 -0.3494
  384MOL0     H52946   5.385   9.826   2.015 -3.5567  1.2022  0.0766
  384MOL0     H52947   5.410   9.990   1.979 -0.9031 -0.6424  0.2759
  384MOL0     H52948   5.273   9.984   1.779  1.7638 -0.5993 -1.8232
  384MOL0     H52949   5.283   9.820   1.768 -4.4125  1.1091 -1.1119
  384MOL0     H52950   4.999   9.839   2.125  1.8183 -0.9584 -2.2028
  384MOL0     H52951   4.765  10.049   2.274 -2.2988 -1.3530  2.1812
  384MOL0     H52952   4.877  10.031   2.400 -3.7861  1.7215  0.9002
  384MOL0     H52953   4.836   9.898   2.295  0.8986  0.0415  1.7270
  384MOL0     H52954   5.180  10.490   2.383  1.2269  2.0387 -1.5650
  384MOL0     H52955   5.145  10.661   2.552  1.1383  1.7018 -1.8775
  384MOL0     H52956   5.073  10.801   2.711 -1.8428  0.0741  2.2953
  384MOL0     H52957   5.138  10.935   2.622 -1.5880  0.5967 -0.7875
  384MOL0     H52958   4.911  11.056   2.656  0.9705 -1.8521 -3.4522
  384MOL0     H52959   4.879  10.944   2.790 -0.4281  2.0867 -0.6259
  384MOL0     H52960   4.964  11.139   2.867  0.0969 -1.0644  0.3083
  384MOL0     H52961   5.107  11.149   2.774  1.4281 -0.0215  1.1740
  384MOL0     H52962   5.197  10.950   2.882 -0.6566 -2.2733 -1.2048
  384MOL0     H52963   5.057  10.922   2.975 -0.8981 -0.7450 -3.0323
  384MOL0     H52964   5.242  11.177   2.991 -1.6658  1.6211  0.3680
  384MOL0     H52965   5.099  11.164   3.089 -2.8891 -0.0283 -4.2571
  384MOL0     H52966   5.205  10.927   3.162  2.0398 -1.4137 -1.9552
  384MOL0     H52967   5.257  11.077   3.239  2.1102 -1.6221  1.3706
  384MOL0     H52968   5.437  11.082   3.056  2.0125 -1.0303  0.2001
  384MOL0     H52969   5.374  10.928   2.998  1.6537  0.3108 -1.4920
  384MOL0     H52970   5.527  10.981   3.258  0.9226  0.6415 -0.3070
  384MOL0     H52971   5.584  10.899   3.118  0.9723  0.7467  1.1734
  384MOL0     H52972   4.776  10.787   2.360 -0.5807 -1.7605  0.2555
  384MOL0     H52973   4.780  10.579   2.229  0.7500  0.1617 -1.7373
  384MOL0     H52974   5.065  10.319   2.011 -1.3353  0.0232 -1.9496
  384MOL0     H52975   5.173  10.152   1.885 -2.2317  1.4227 -0.5463
  384MOL0     H52976   6.488   9.119   1.274 -3.0943 -1.5461  1.9267
  384MOL0     H52977   6.703   8.983   1.284 -1.5195  0.8305  1.8418
  384MOL0     H52978   6.882   8.476   0.904 -0.0611  1.5317  0.2644
  384MOL0     H52979   7.133   8.370   0.908  0.2146 -0.0486  0.9846
  384MOL0     H52980   7.392   8.594   1.100 -6.4136 -1.5253  1.6417
  384MOL0     H52981   7.415   8.479   1.230 -1.6562 -1.2853 -0.8964
  384MOL0     H52982   7.580   8.354   1.094  0.0375 -0.9875 -0.0351
  384MOL0     H52983   7.630   8.516   1.093 -2.3384  1.9980  0.0901
  384MOL0     H52984   7.484   8.363   0.877  0.1101 -0.9616  3.5084
  384MOL0     H52985   7.474   8.533   0.866 -0.0821 -0.4372 -1.1066
  384MOL0     H52986   7.724   8.568   0.858  0.0484  0.7600 -3.0534
  384MOL0     H52987   7.679   8.470   0.729  0.5516 -0.1995  0.0411
  384MOL0     H52988   7.852   8.153   0.945 -2.2145 -2.1888 -3.1505
  384MOL0     H52989   7.211   8.600   1.253  1.6621 -3.3080 -0.0034
  384MOL0     H52990   6.963   8.821   1.238  2.2662  0.4677  0.6997
  384MOL0     H52991   6.919   8.686   1.356  1.8277 -0.6349  0.5777
  384MOL0     H52992   7.074   8.735   1.356 -0.5251 -4.5910  2.8714
  385MOL0     O52993   4.079   1.034   7.987  0.2940  0.5981 -0.1372
  385MOL0     C52994   4.060   1.149   7.976  0.0264 -0.1564 -0.4365
  385MOL0     O52995   3.974   1.224   8.057  0.4952  0.9274 -0.5749
  385MOL0     C52996   3.876   1.161   8.130  0.4140 -0.1763 -0.9678
  385MOL0     C52997   3.864   1.201   8.266  0.0936  0.3456 -0.8950
  385MOL0     C52998   3.761   1.158   8.344  0.2537 -0.7207  0.4655
  385MOL0     C52999   3.671   1.068   8.293 -0.1822 -0.5471  0.4420
  385MOL0     O53000   3.566   1.025   8.373 -0.6916 -0.2653  0.3579
  385MOL0     C53001   3.570   0.883   8.404 -0.1275 -0.8083 -0.1128
  385MOL0     C53002   3.701   0.829   8.465  0.8511 -0.8956  0.0328
  385MOL0     C53003   3.699   0.685   8.503  0.5850  0.3467 -0.2216
  385MOL0     C53004   3.809   0.652   8.610 -0.1810  0.9278  0.2609
  385MOL0     C53005   3.842   0.500   8.628  0.1243 -0.1550  0.0479
  385MOL0     C53006   3.729   0.400   8.671 -0.4619  0.3026  0.7635
  385MOL0     C53007   3.676   0.420   8.813 -0.2787  0.6069  0.5902
  385MOL0     C53008   3.541   0.334   8.804 -0.2028  0.4874 -0.6359
  385MOL0     N53009   3.573   0.192   8.795 -0.3280 -0.4156  0.0808
  385MOL0     C53010   3.656   0.117   8.875 -0.1097  0.6400 -0.3962
  385MOL0     C53011   3.653  -0.010   8.821  0.9099  0.2370  0.0586
  385MOL0     C53012   3.716  -0.131   8.891  0.4962  0.1882 -0.0448
  385MOL0     C53013   3.607  -0.237   8.908 -0.9508 -1.1058  0.0381
  385MOL0     C53014   3.641  -0.359   8.987 -1.0869 -0.1341 -0.9269
  385MOL0     C53015   3.779  -0.420   8.947  0.1234 -1.2357 -1.2969
  385MOL0     O53016   3.798  -0.463   8.811 -0.8777 -0.0665 -1.0206
  385MOL0     C53017   3.858  -0.577   8.770  0.4264 -0.0001 -0.7072
  385MOL0     C53018   3.948  -0.652   8.851 -0.9287  0.4092  0.4601
  385MOL0     C53019   4.011  -0.769   8.795 -0.0135 -0.1022 -0.2487
  385MOL0     C53020   4.115  -0.834   8.879  0.3803  0.0225  0.4379
  385MOL0     C53021   3.975  -0.819   8.662  0.3040  0.2502  0.9561
  385MOL0     C53022   4.035  -0.935   8.593 -0.2490  0.6051  0.3186
  385MOL0     O53023   3.997  -0.957   8.457 -0.0825  0.2363  0.3108
  385MOL0     C53024   4.068  -1.056   8.383 -0.7471  0.4546 -1.3530
  385MOL0     C53025   4.005  -1.169   8.334  0.2258  0.8353  0.5137
  385MOL0     C53026   4.080  -1.269   8.277 -0.1881 -0.0413  0.9251
  385MOL0     C53027   4.221  -1.252   8.271 -0.3836  0.7813  0.3073
  385MOL0     O53028   4.291  -1.368   8.218 -0.4009 -0.2759 -0.3676
  385MOL0     C53029   4.432  -1.383   8.235 -0.2071  0.9980  0.3926
  385MOL0     C53030   4.467  -1.491   8.127 -0.5633 -0.1985 -0.1507
  385MOL0     C53031   4.619  -1.532   8.140 -0.1987 -0.7015  0.4348
  385MOL0     C53032   4.708  -1.450   8.047 -0.1642  0.0448  0.1583
  385MOL0     C53033   4.856  -1.476   8.086  0.5855  0.6638 -0.5905
  385MOL0     C53034   4.954  -1.415   7.985  0.3517 -0.0511 -0.0439
  385MOL0     C53035   5.103  -1.444   8.007 -0.6744 -0.9024  0.0958
  385MOL0     C53036   5.160  -1.578   7.945 -1.1031  0.1411 -0.2947
  385MOL0    Cl53037   5.325  -1.625   8.019 -0.4756 -0.1214  0.2627
  385MOL0     C53038   4.288  -1.139   8.316 -0.0235 -0.0600  0.4327
  385MOL0     C53039   4.209  -1.040   8.375  0.3701  0.3763 -0.0513
  385MOL0     O53040   4.097  -1.014   8.660 -0.3280 -0.0854 -0.3524
  385MOL0     C53041   3.875  -0.740   8.596  0.7702 -0.3893 -0.1207
  385MOL0     C53042   3.822  -0.627   8.644 -0.1895 -0.3942 -0.0853
  385MOL0     N53043   3.564  -0.013   8.717 -0.5116  0.0698  0.1693
  385MOL0     N53044   3.516   0.103   8.709  0.4211  0.0643 -0.9492
  385MOL0     C53045   3.686   1.021   8.162  0.0575 -0.5785 -1.3138
  385MOL0     C53046   3.785   1.070   8.080  0.5491  1.1661  0.1913
  385MOL0     C53047   4.153   1.215   7.884 -0.6019 -0.8385  0.4479
  385MOL0     C53048   4.235   1.146   7.789  0.8623  0.6193 -0.6502
  385MOL0     C53049   4.319   1.213   7.698 -0.4679  1.2828  0.1586
  385MOL0     C53050   4.326   1.349   7.703  0.1355  1.2458  0.0000
  385MOL0     O53051   4.387   1.406   7.598 -0.4772 -0.5380 -0.0331
  385MOL0     C53052   4.512   1.475   7.628 -0.9662  0.2171 -0.5602
  385MOL0     C53053   4.489   1.616   7.569  0.0213  0.8458  0.5056
  385MOL0     C53054   4.594   1.718   7.603  0.0089  0.3792 -0.1202
  385MOL0     C53055   4.553   1.862   7.596 -0.3661  0.0210 -0.0871
  385MOL0     C53056   4.665   1.941   7.633 -0.1038  0.5140  0.1434
  385MOL0     C53057   4.760   2.022   7.651  0.6957 -0.3278 -0.5308
  385MOL0     C53058   4.239   1.421   7.787 -0.8901  0.8487 -1.1695
  385MOL0     C53059   4.170   1.352   7.889  1.6791 -0.1149  0.2113
  385MOL0     C53060   4.113   1.452   7.987 -0.7082 -0.2517 -0.3981
  385MOL0     H53061   3.942   1.262   8.310 -0.2528  0.7428 -0.8323
  385MOL0     H53062   3.752   1.188   8.448  0.2180  0.6121  0.1017
  385MOL0     H53063   3.535   0.831   8.315  0.8908 -2.3968  0.3625
  385MOL0     H53064   3.487   0.858   8.470  1.1341 -1.7720  1.1569
  385MOL0     H53065   3.784   0.844   8.396  0.4240 -0.4586 -0.3921
  385MOL0     H53066   3.721   0.891   8.554  0.0318 -0.0491 -0.3517
  385MOL0     H53067   3.603   0.653   8.544 -0.3506  0.8580 -1.8994
  385MOL0     H53068   3.718   0.622   8.415  0.9565 -2.0025  1.4243
  385MOL0     H53069   3.899   0.697   8.568 -0.5730 -0.4016 -2.2220
  385MOL0     H53070   3.784   0.698   8.706 -1.6425 -0.6944  0.7342
  385MOL0     H53071   3.932   0.499   8.691  0.9315  1.9508 -0.9922
  385MOL0     H53072   3.878   0.457   8.534 -0.5710 -1.5332  0.3855
  385MOL0     H53073   3.655   0.402   8.591 -1.8138 -1.7267  1.8952
  385MOL0     H53074   3.773   0.300   8.671 -1.5156 -0.1959  2.1798
  385MOL0     H53075   3.640   0.521   8.835 -1.2675  0.0584  1.5853
  385MOL0     H53076   3.749   0.372   8.878 -2.1365 -0.6460  1.8465
  385MOL0     H53077   3.487   0.366   8.894  1.4469  0.3690  0.4314
  385MOL0     H53078   3.474   0.368   8.724 -0.0503  3.0612  0.2523
  385MOL0     H53079   3.709   0.153   8.962 -0.2385 -1.4504  0.6044
  385MOL0     H53080   3.760  -0.099   8.986  3.1105 -1.0306 -0.7503
  385MOL0     H53081   3.799  -0.177   8.837 -1.6366 -4.1225 -0.0978
  385MOL0     H53082   3.527  -0.189   8.965 -1.3642 -2.4583  0.6384
  385MOL0     H53083   3.551  -0.260   8.816 -1.1775 -0.5666  0.0388
  385MOL0     H53084   3.624  -0.337   9.093 -0.8978 -1.4726 -0.6015
  385MOL0     H53085   3.571  -0.441   8.965  1.3383 -2.5954 -0.0344
  385MOL0     H53086   3.852  -0.345   8.978 -1.2677 -0.5750  0.5791
  385MOL0     H53087   3.792  -0.498   9.022 -3.1033 -1.1521 -0.4861
  385MOL0     H53088   3.984  -0.605   8.942 -2.8037 -0.0458  1.4881
  385MOL0     H53089   4.120  -0.789   8.978 -0.0866  1.9173 -0.3554
  385MOL0     H53090   4.221  -0.838   8.852  0.3814 -1.4885  0.5803
  385MOL0     H53091   4.094  -0.940   8.897  0.8670 -0.3468 -1.0162
  385MOL0     H53092   3.898  -1.180   8.344  0.3602  0.1545  1.4391
  385MOL0     H53093   4.029  -1.360   8.245  1.5612 -1.2191  1.3138
  385MOL0     H53094   4.480  -1.292   8.197 -2.4956  0.6893 -3.8595
  385MOL0     H53095   4.462  -1.405   8.338  0.3589  0.8255  0.1940
  385MOL0     H53096   4.401  -1.575   8.149  0.6086 -1.0689  0.1656
  385MOL0     H53097   4.465  -1.430   8.037 -2.3191 -1.3475 -0.9498
  385MOL0     H53098   4.627  -1.636   8.107 -1.0547 -0.6439  0.0379
  385MOL0     H53099   4.662  -1.520   8.240  0.2085 -1.8419  0.4113
  385MOL0     H53100   4.682  -1.344   8.056 -2.1428 -0.5291  2.0581
  385MOL0     H53101   4.698  -1.477   7.941  4.1628 -1.6258 -0.0195
  385MOL0     H53102   4.887  -1.446   8.186  0.9153  0.5308 -0.6509
  385MOL0     H53103   4.861  -1.585   8.080 -1.7729  0.1824  3.2139
  385MOL0     H53104   4.946  -1.306   7.995  1.7225  0.1060 -0.3543
  385MOL0     H53105   4.937  -1.441   7.880  1.2007  0.7535 -0.3992
  385MOL0     H53106   5.118  -1.443   8.116  0.2666 -1.3705 -0.0220
  385MOL0     H53107   5.149  -1.358   7.957  0.1589 -2.3392 -1.7086
  385MOL0     H53108   5.166  -1.562   7.837 -1.0204 -1.0966 -0.4845
  385MOL0     H53109   5.093  -1.663   7.955  1.2431 -2.0334 -1.7515
  385MOL0     H53110   4.395  -1.126   8.318  0.1998 -1.7758  2.3223
  385MOL0     H53111   4.261  -0.961   8.429  0.1923 -0.6161  1.6113
  385MOL0     H53112   3.833  -0.765   8.499  2.4904 -2.3044 -0.4527
  385MOL0     H53113   3.745  -0.570   8.594  1.6659  1.2007 -1.2508
  385MOL0     H53114   3.614   0.949   8.124 -1.0558 -1.1318  1.5648
  385MOL0     H53115   3.797   1.046   7.975  0.0073  1.0552  0.1507
  385MOL0     H53116   4.204   1.044   7.770  0.4451  0.4216  0.9831
  385MOL0     H53117   4.342   1.162   7.605 -2.6125 -0.0252  0.2609
  385MOL0     H53118   4.539   1.467   7.733 -0.8108  1.1684 -0.5186
  385MOL0     H53119   4.605   1.445   7.579  0.4193  2.5011  0.4996
  385MOL0     H53120   4.392   1.637   7.616 -2.4243 -0.8387 -3.3364
  385MOL0     H53121   4.473   1.616   7.461  0.2528  0.5898  0.4708
  385MOL0     H53122   4.628   1.700   7.705  3.5402 -0.1467 -1.2383
  385MOL0     H53123   4.670   1.715   7.524  1.1607  3.0412  0.7774
  385MOL0     H53124   4.472   1.870   7.670 -0.9854  0.1153 -0.7650
  385MOL0     H53125   4.514   1.885   7.496  1.7780 -1.3657 -1.3090
  385MOL0     H53126   4.844   2.089   7.652  3.4442 -3.3233 -3.8724
  385MOL0     H53127   4.233   1.530   7.786  0.2743  0.9475  0.0460
  385MOL0     H53128   4.121   1.418   8.091 -2.9411 -0.7674 -0.3381
  385MOL0     H53129   4.160   1.551   7.978  0.7086 -0.9021 -0.4455
  385MOL0     H53130   4.007   1.465   7.962 -0.5103 -0.7195 -1.5230
  386MOL0     O53131   2.563   6.205   0.618 -0.2885  0.4033 -0.4766
  386MOL0     C53132   2.459   6.240   0.667  0.1511  0.3541 -0.2596
  386MOL0     O53133   2.352   6.275   0.597  0.0511  0.0977  0.2182
  386MOL0     C53134   2.344   6.260   0.464  0.3144  0.4861 -0.2847
  386MOL0     C53135   2.336   6.136   0.402 -0.3230 -0.0360 -0.7347
  386MOL0     C53136   2.335   6.121   0.262  0.2602 -0.3562 -0.8003
  386MOL0     C53137   2.327   6.241   0.190 -0.1803  0.0717  0.6421
  386MOL0     O53138   2.337   6.253   0.052 -0.0211  0.0330 -0.2346
  386MOL0     C53139   2.333   6.136  -0.033  0.0582  0.0971  0.4775
  386MOL0     C53140   2.196   6.071  -0.036 -0.9430 -0.0101 -0.2419
  386MOL0     C53141   2.207   5.947  -0.116 -0.2051  0.7421 -0.3265
  386MOL0     C53142   2.101   5.842  -0.093  0.2919  1.1491  0.2270
  386MOL0     C53143   1.959   5.870  -0.155 -0.9109 -0.3287  0.3547
  386MOL0     C53144   1.960   5.807  -0.298  0.1964  0.0230 -0.0468
  386MOL0     C53145   1.862   5.879  -0.390 -0.2060  0.6022 -0.5268
  386MOL0     C53146   1.895   5.831  -0.529 -0.7270  0.3461  0.1760
  386MOL0     N53147   1.817   5.908  -0.632 -0.4763  0.4695 -0.7023
  386MOL0     C53148   1.695   5.877  -0.668  0.1744 -0.9107  0.1890
  386MOL0     C53149   1.667   5.956  -0.776 -0.9041 -0.9996 -1.1692
  386MOL0     C53150   1.539   5.979  -0.853  0.4200  0.4116 -0.4073
  386MOL0     C53151   1.498   5.850  -0.935 -0.0729 -0.3528  0.1392
  386MOL0     C53152   1.367   5.868  -1.010 -0.5410  0.0005  0.1605
  386MOL0     C53153   1.331   5.747  -1.102 -0.7047  1.1301 -0.2004
  386MOL0     O53154   1.447   5.697  -1.179  0.1398 -1.4696 -0.6054
  386MOL0     C53155   1.418   5.612  -1.277 -0.1260 -0.1470  0.1170
  386MOL0     C53156   1.305   5.528  -1.268 -0.3857 -0.0124 -0.2119
  386MOL0     C53157   1.274   5.447  -1.368 -0.6277 -0.1548  0.4535
  386MOL0     C53158   1.136   5.389  -1.366  0.4960  0.5736 -0.0376
  386MOL0     C53159   1.373   5.423  -1.471  0.9514 -0.3584  0.2195
  386MOL0     C53160   1.357   5.320  -1.568 -0.7350  0.1212  0.4918
  386MOL0     O53161   1.238   5.286  -1.612  0.0032  0.6628  0.3883
  386MOL0     C53162   1.226   5.169  -1.687  0.1310 -0.3191 -0.2316
  386MOL0     C53163   1.201   5.042  -1.634  0.0996 -0.0578 -0.2251
  386MOL0     C53164   1.191   4.927  -1.713 -0.0556  0.1679  0.5553
  386MOL0     C53165   1.210   4.950  -1.852 -0.9387  0.0544  0.4495
  386MOL0     O53166   1.215   4.850  -1.939  0.1071  0.4735  0.3230
  386MOL0     C53167   1.148   4.716  -1.924  0.4475 -0.3052 -0.1034
  386MOL0     C53168   1.195   4.638  -2.041  0.9651 -0.6535  0.4012
  386MOL0     C53169   1.141   4.493  -2.046  0.2000 -0.6927  0.3849
  386MOL0     C53170   1.196   4.390  -1.942 -0.5235 -0.6930 -0.2435
  386MOL0     C53171   1.158   4.247  -1.959  0.0523 -0.1789  0.0986
  386MOL0     C53172   1.252   4.152  -1.882  0.7637 -0.1254  0.3640
  386MOL0     C53173   1.264   4.189  -1.731  0.5390 -0.3164 -0.1354
  386MOL0     C53174   1.333   4.080  -1.650  0.5552 -0.5831  0.0800
  386MOL0    Cl53175   1.206   3.951  -1.619  0.2714  0.3143 -0.3465
  386MOL0     C53176   1.231   5.082  -1.909  0.0372  0.1161 -0.6071
  386MOL0     C53177   1.236   5.185  -1.817 -0.1712 -1.2258 -0.7908
  386MOL0     O53178   1.463   5.262  -1.600  0.3659  0.4840  0.2837
  386MOL0     C53179   1.484   5.513  -1.487 -0.3823  0.3755 -0.3518
  386MOL0     C53180   1.515   5.605  -1.384  0.2292 -0.0060  0.4740
  386MOL0     N53181   1.789   6.025  -0.805  1.2884 -0.4546 -0.9767
  386MOL0     N53182   1.873   6.001  -0.717 -0.6665 -0.3600 -0.2214
  386MOL0     C53183   2.330   6.361   0.247 -0.0890  0.3532 -1.0537
  386MOL0     C53184   2.337   6.373   0.387 -0.2329  0.5561  1.2273
  386MOL0     C53185   2.460   6.250   0.818  0.2551 -0.5221 -0.2024
  386MOL0     C53186   2.339   6.217   0.885  0.5537 -0.6895 -0.0708
  386MOL0     C53187   2.320   6.211   1.023 -0.2735 -0.2789 -0.5346
  386MOL0     C53188   2.425   6.250   1.106 -0.0069  0.0773 -0.1372
  386MOL0     O53189   2.396   6.279   1.235  0.7792  0.3637 -0.0944
  386MOL0     C53190   2.476   6.384   1.304 -0.5999  0.4799  0.6106
  386MOL0     C53191   2.421   6.391   1.445 -1.3173 -0.3442  0.5901
  386MOL0     C53192   2.278   6.443   1.472 -0.1020 -0.4177 -0.5746
  386MOL0     C53193   2.296   6.594   1.515  0.5407 -0.6015 -0.0653
  386MOL0     C53194   2.334   6.602   1.649  0.8766 -0.2105 -0.5697
  386MOL0     C53195   2.372   6.590   1.761  0.4209 -0.2007 -0.2148
  386MOL0     C53196   2.548   6.288   1.049 -0.2517 -0.4516  0.7663
  386MOL0     C53197   2.568   6.285   0.904  0.0167 -0.7127 -0.6698
  386MOL0     C53198   2.699   6.334   0.854  0.7425  0.9995 -0.4674
  386MOL0     H53199   2.341   6.048   0.465 -2.8931  1.6775  2.2167
  386MOL0     H53200   2.342   6.018   0.227  4.8357 -1.0290  1.3354
  386MOL0     H53201   2.413   6.070   0.001  3.4561  3.2298 -0.7758
  386MOL0     H53202   2.347   6.163  -0.138  0.5155 -1.5437  0.0827
  386MOL0     H53203   2.163   6.052   0.066 -0.9814 -0.7905 -0.3960
  386MOL0     H53204   2.122   6.134  -0.087 -0.8895 -0.5739 -1.0343
  386MOL0     H53205   2.194   5.973  -0.222 -2.8601  1.0036 -0.0092
  386MOL0     H53206   2.305   5.901  -0.099 -0.8778  0.6180  4.5349
  386MOL0     H53207   2.144   5.750  -0.131 -2.2004 -0.2956  0.6798
  386MOL0     H53208   2.088   5.822   0.014 -0.1668 -2.6531 -0.4025
  386MOL0     H53209   1.937   5.977  -0.161  1.6515  0.1847 -2.8577
  386MOL0     H53210   1.871   5.833  -0.102 -1.8908 -0.7511 -1.4951
  386MOL0     H53211   2.064   5.817  -0.330 -0.4203  1.1895 -1.8423
  386MOL0     H53212   1.937   5.700  -0.306  2.6561 -0.4229 -3.5382
  386MOL0     H53213   1.873   5.988  -0.378 -0.3659  0.7699 -1.7688
  386MOL0     H53214   1.766   5.834  -0.364  0.2825 -0.4995 -0.5644
  386MOL0     H53215   2.002   5.836  -0.551 -0.7969 -4.0077 -2.2322
  386MOL0     H53216   1.859   5.728  -0.536  0.2878 -0.0663  0.7273
  386MOL0     H53217   1.621   5.813  -0.622 -0.9484  0.4304  0.3413
  386MOL0     H53218   1.554   6.071  -0.909 -0.3216  0.4304 -0.5771
  386MOL0     H53219   1.462   5.999  -0.778  0.8117 -0.2122  0.1656
  386MOL0     H53220   1.581   5.809  -0.994 -0.4959 -2.2790  0.8006
  386MOL0     H53221   1.476   5.777  -0.857 -1.5797  0.8897  0.9180
  386MOL0     H53222   1.284   5.887  -0.942  0.0868 -0.4966  1.0937
  386MOL0     H53223   1.363   5.956  -1.075 -1.4021 -0.6386 -0.6676
  386MOL0     H53224   1.304   5.663  -1.038 -1.8283  0.2800 -1.7246
  386MOL0     H53225   1.245   5.770  -1.165 -0.7346 -1.5255 -1.2537
  386MOL0     H53226   1.230   5.536  -1.190  0.2791 -0.8132  0.5158
  386MOL0     H53227   1.066   5.438  -1.297  1.2621  3.9610 -1.4573
  386MOL0     H53228   1.137   5.282  -1.345  3.5355  0.5383  0.1280
  386MOL0     H53229   1.086   5.400  -1.462  2.7165  2.3078 -1.0834
  386MOL0     H53230   1.186   5.034  -1.527 -3.6796  3.4604 -0.2142
  386MOL0     H53231   1.165   4.829  -1.673  0.9394 -1.6101 -2.7772
  386MOL0     H53232   1.191   4.659  -1.841  1.6326  2.8623  1.6739
  386MOL0     H53233   1.039   4.728  -1.918  0.6771  2.3157  0.2193
  386MOL0     H53234   1.153   4.690  -2.128  0.9383 -0.2791  0.6391
  386MOL0     H53235   1.304   4.649  -2.048  0.9300 -1.2137 -1.7072
  386MOL0     H53236   1.154   4.457  -2.149  2.1358  1.5913 -0.2468
  386MOL0     H53237   1.034   4.511  -2.034  0.5033  2.0736 -0.3525
  386MOL0     H53238   1.154   4.422  -1.846 -0.8635 -1.8497  0.0109
  386MOL0     H53239   1.304   4.404  -1.941 -0.6563  0.5891 -1.3071
  386MOL0     H53240   1.060   4.210  -1.928  0.3640 -0.7465  0.4056
  386MOL0     H53241   1.163   4.223  -2.066 -3.1666  2.8670 -0.9701
  386MOL0     H53242   1.346   4.144  -1.937 -0.5456  1.9636 -2.4537
  386MOL0     H53243   1.202   4.055  -1.891 -1.2383  0.5974  2.5714
  386MOL0     H53244   1.159   4.190  -1.701 -0.2186  2.7030 -2.3734
  386MOL0     H53245   1.317   4.284  -1.721  0.0362  0.0719 -1.0227
  386MOL0     H53246   1.376   4.122  -1.559  2.2633  0.5204 -1.1765
  386MOL0     H53247   1.410   4.042  -1.716  1.6973  2.2335 -0.3635
  386MOL0     H53248   1.244   5.096  -2.016  0.8053 -0.5836 -0.6168
  386MOL0     H53249   1.252   5.286  -1.852 -0.3777 -0.8476  0.1990
  386MOL0     H53250   1.563   5.490  -1.557 -0.1097  2.4786 -0.7917
  386MOL0     H53251   1.595   5.678  -1.379 -1.5863  2.0054  2.9337
  386MOL0     H53252   2.332   6.454   0.191 -0.3850 -0.4590 -2.4631
  386MOL0     H53253   2.355   6.474   0.421  2.8956  1.3663 -2.1850
  386MOL0     H53254   2.260   6.181   0.820 -1.2123 -3.9984  3.4654
  386MOL0     H53255   2.221   6.196   1.064  0.5021  0.1156  1.5715
  386MOL0     H53256   2.584   6.366   1.304 -0.1265  2.9666  0.4178
  386MOL0     H53257   2.458   6.479   1.253 -1.4250  1.0146  1.8587
  386MOL0     H53258   2.496   6.441   1.507 -0.0657  0.3874 -1.4019
  386MOL0     H53259   2.417   6.294   1.496 -1.3634 -0.2211  0.8209
  386MOL0     H53260   2.218   6.442   1.380  0.5755 -1.0389 -1.0224
  386MOL0     H53261   2.225   6.388   1.550 -0.2747  2.8245  1.7972
  386MOL0     H53262   2.210   6.657   1.490  0.7676 -0.8948 -1.6761
  386MOL0     H53263   2.379   6.642   1.462  0.6469  0.6416  1.1537
  386MOL0     H53264   2.404   6.579   1.862  1.5095 -0.2377 -0.5537
  386MOL0     H53265   2.632   6.326   1.107 -0.9973 -1.3671  2.5264
  386MOL0     H53266   2.769   6.256   0.824 -1.5072 -0.5625 -1.9511
  386MOL0     H53267   2.709   6.396   0.764  0.4955 -0.7218 -1.7317
  386MOL0     H53268   2.749   6.392   0.932  3.2656 -1.3520 -0.1734
  387MOL0     O53269   8.506  11.509   5.925  0.4776  0.3265  0.0965
  387MOL0     C53270   8.505  11.612   5.858  0.5135 -0.0425 -0.3095
  387MOL0     O53271   8.513  11.741   5.905  0.0505  0.5239 -0.0520
  387MOL0     C53272   8.550  11.764   6.036  0.9472 -0.6754 -0.0509
  387MOL0     C53273   8.655  11.688   6.089 -0.7147 -0.2152 -0.1597
  387MOL0     C53274   8.719  11.739   6.203  0.5273 -0.7766 -0.2690
  387MOL0     C53275   8.656  11.829   6.289 -0.4406 -0.5625 -0.0563
  387MOL0     O53276   8.713  11.857   6.408 -0.4949  0.0111  0.3980
  387MOL0     C53277   8.643  11.947   6.493  0.0058  0.2096 -0.1081
  387MOL0     C53278   8.721  11.948   6.621  0.8558 -0.0138 -0.4687
  387MOL0     C53279   8.706  11.809   6.691 -0.6434 -0.7221  0.9318
  387MOL0     C53280   8.776  11.801   6.823 -0.4190 -1.2366  0.0819
  387MOL0     C53281   8.756  11.651   6.852  0.9748  0.1159  0.0616
  387MOL0     C53282   8.813  11.601   6.988 -1.7644 -0.3622  0.1622
  387MOL0     C53283   8.751  11.652   7.125  0.2516  0.5835 -0.5322
  387MOL0     C53284   8.838  11.769   7.176 -0.1257 -1.0679  0.8982
  387MOL0     N53285   8.974  11.731   7.214 -1.0237 -0.0434 -0.0583
  387MOL0     C53286   8.998  11.661   7.335 -0.1424 -1.0523  0.5248
  387MOL0     C53287   9.140  11.643   7.331  0.7226  0.4832  0.2158
  387MOL0     C53288   9.212  11.574   7.446  0.3024  0.5294  0.2193
  387MOL0     C53289   9.356  11.610   7.463 -0.4488  0.7921  0.1857
  387MOL0     C53290   9.407  11.762   7.463 -0.0965 -0.6249 -1.4234
  387MOL0     C53291   9.313  11.846   7.550 -0.1267  0.7003  0.7564
  387MOL0     O53292   9.393  11.958   7.592  0.0545 -0.6144  0.1818
  387MOL0     C53293   9.310  12.064   7.644  1.2151  0.1479 -0.8535
  387MOL0     C53294   9.197  12.039   7.725  0.2932  1.1007  0.3818
  387MOL0     C53295   9.113  12.135   7.776  0.1609 -1.1961 -0.6654
  387MOL0     C53296   8.994  12.086   7.848  0.2136  0.8745  0.5395
  387MOL0     C53297   9.136  12.271   7.748  1.1200  0.7209  0.3253
  387MOL0     C53298   9.065  12.386   7.811  0.1963  0.2450 -0.6305
  387MOL0     O53299   9.105  12.514   7.769  0.4149 -0.2085 -1.1093
  387MOL0     C53300   9.079  12.629   7.844 -0.3874 -0.4762  0.1854
  387MOL0     C53301   9.179  12.721   7.887  0.4975  0.1319 -0.0649
  387MOL0     C53302   9.142  12.832   7.966 -0.4968  0.0105  0.2517
  387MOL0     C53303   9.011  12.851   8.003 -0.3411 -0.0650 -0.3198
  387MOL0     O53304   8.973  12.953   8.080 -0.5685 -0.6280 -0.1681
  387MOL0     C53305   9.019  13.079   8.033  0.5555 -0.6088  0.3141
  387MOL0     C53306   8.943  13.189   8.105 -0.6882 -0.2183  0.8738
  387MOL0     C53307   8.916  13.177   8.258 -0.0009 -0.2629 -0.3580
  387MOL0     C53308   8.875  13.316   8.314 -0.2219  0.5177 -0.6055
  387MOL0     C53309   8.844  13.287   8.464 -0.6635  2.2502  0.8713
  387MOL0     C53310   8.790  13.407   8.535  0.2335 -0.2313 -0.3349
  387MOL0     C53311   8.767  13.400   8.688  0.9965 -0.3318 -0.3605
  387MOL0     C53312   8.835  13.510   8.770  0.3354 -0.1636  1.1784
  387MOL0    Cl53313   8.780  13.666   8.723 -0.2834 -0.2600 -0.3091
  387MOL0     C53314   8.916  12.768   7.940  1.5956 -0.9971 -0.6128
  387MOL0     C53315   8.946  12.657   7.866  0.0140 -0.1000 -0.3987
  387MOL0     O53316   8.978  12.371   7.901 -0.0403 -0.6529 -0.5408
  387MOL0     C53317   9.240  12.305   7.670 -0.5189  0.8463  1.2664
  387MOL0     C53318   9.327  12.201   7.615  0.8486 -0.7661  0.3175
  387MOL0     N53319   9.191  11.700   7.217 -0.4390 -0.2473 -0.1556
  387MOL0     N53320   9.094  11.765   7.154 -0.2190 -0.6110 -0.2027
  387MOL0     C53321   8.550  11.903   6.237 -0.2673  0.0317 -0.7543
  387MOL0     C53322   8.496  11.871   6.113  0.9763  0.0557 -0.2794
  387MOL0     C53323   8.496  11.596   5.711  0.4457 -0.5034 -0.8119
  387MOL0     C53324   8.389  11.517   5.666 -0.1917 -0.1434  0.9028
  387MOL0     C53325   8.351  11.519   5.540 -0.8041 -0.4780  0.7300
  387MOL0     C53326   8.427  11.590   5.445  0.0103 -0.4606  0.4090
  387MOL0     O53327   8.370  11.594   5.324 -0.7845  0.1535  0.5957
  387MOL0     C53328   8.402  11.712   5.247 -0.4127  0.8082  0.2852
  387MOL0     C53329   8.361  11.849   5.318  0.5227  0.7709  0.0286
  387MOL0     C53330   8.219  11.859   5.320  0.0919  0.2373 -0.4067
  387MOL0     C53331   8.163  11.969   5.420 -0.5336  1.6098  0.6676
  387MOL0     C53332   8.166  11.915   5.557 -1.0549 -0.6274 -0.1598
  387MOL0     C53333   8.179  11.849   5.664  0.3072 -0.2163 -1.3555
  387MOL0     C53334   8.546  11.657   5.477 -0.1168 -0.4086  0.0125
  387MOL0     C53335   8.581  11.660   5.617 -0.1716 -0.0071  0.3969
  387MOL0     C53336   8.706  11.743   5.660 -1.6169  0.3888 -0.8820
  387MOL0     H53337   8.698  11.610   6.027 -0.4680 -1.2510  1.2577
  387MOL0     H53338   8.813  11.707   6.245  2.5677  3.1098 -1.3851
  387MOL0     H53339   8.542  11.913   6.518  0.1569  1.1716  2.0683
  387MOL0     H53340   8.634  12.051   6.460  0.6894 -0.1265 -1.3898
  387MOL0     H53341   8.827  11.962   6.600  0.8688  0.9312  0.1947
  387MOL0     H53342   8.691  12.029   6.688 -0.6962 -1.5414  0.7805
  387MOL0     H53343   8.602  11.781   6.709 -1.5383  2.7321  1.8747
  387MOL0     H53344   8.746  11.733   6.623 -3.7989 -2.3921  0.7572
  387MOL0     H53345   8.881  11.832   6.815 -0.0236 -2.4868  0.2149
  387MOL0     H53346   8.726  11.859   6.901  0.3039  0.0642 -0.3857
  387MOL0     H53347   8.802  11.596   6.769 -0.7833 -0.2822 -0.7029
  387MOL0     H53348   8.648  11.634   6.853  0.8892  0.1866  3.5747
  387MOL0     H53349   8.797  11.493   6.993 -1.2904 -0.6019 -2.2454
  387MOL0     H53350   8.921  11.619   6.982 -2.0344  0.8493 -2.3986
  387MOL0     H53351   8.764  11.575   7.202  0.9897  2.7631  1.6855
  387MOL0     H53352   8.649  11.690   7.113 -0.1381  0.5683  2.0675
  387MOL0     H53353   8.836  11.846   7.098  0.1239 -1.0787  0.8811
  387MOL0     H53354   8.784  11.812   7.261 -2.8823 -2.3464 -0.0510
  387MOL0     H53355   8.926  11.644   7.414 -0.5565  1.6335  0.8022
  387MOL0     H53356   9.211  11.469   7.416  1.3042  1.1769 -2.3469
  387MOL0     H53357   9.153  11.592   7.537 -4.2564 -2.3507 -1.7666
  387MOL0     H53358   9.395  11.559   7.551 -0.2842  0.0757 -0.2905
  387MOL0     H53359   9.413  11.556   7.386 -0.4665  0.3922  0.4463
  387MOL0     H53360   9.500  11.769   7.521 -1.4260 -2.8283  1.2133
  387MOL0     H53361   9.418  11.791   7.358  1.5060 -3.9478 -2.3033
  387MOL0     H53362   9.219  11.878   7.504 -0.8544  1.5890  2.7260
  387MOL0     H53363   9.286  11.786   7.638 -0.8828 -0.7386 -0.4173
  387MOL0     H53364   9.172  11.937   7.752 -0.6386  1.2613  0.1607
  387MOL0     H53365   8.966  11.981   7.841  0.3512  0.8798 -0.1517
  387MOL0     H53366   8.917  12.142   7.795  1.9754  1.8926 -1.0932
  387MOL0     H53367   8.992  12.119   7.953 -2.7243  1.2557  0.4325
  387MOL0     H53368   9.281  12.693   7.861  0.8136  0.4345  0.8229
  387MOL0     H53369   9.226  12.892   8.000  0.5559 -0.7615 -0.8979
  387MOL0     H53370   9.126  13.093   8.049  0.1525  3.0218  0.5604
  387MOL0     H53371   8.998  13.092   7.927 -0.7976  5.6490  0.9657
  387MOL0     H53372   9.002  13.280   8.088 -0.0409 -0.7573  0.1221
  387MOL0     H53373   8.845  13.207   8.060 -0.3221 -1.4980 -0.4972
  387MOL0     H53374   8.997  13.130   8.314  3.3600  1.8234 -3.0269
  387MOL0     H53375   8.829  13.111   8.268  0.2242 -0.5197 -0.0794
  387MOL0     H53376   8.791  13.363   8.262 -0.6830  1.1053  0.6408
  387MOL0     H53377   8.955  13.391   8.319  1.3975 -1.1563 -0.0755
  387MOL0     H53378   8.792  13.191   8.472  3.8505 -0.5606  0.5019
  387MOL0     H53379   8.940  13.270   8.513 -2.0730  2.3599  3.8624
  387MOL0     H53380   8.693  13.440   8.496 -0.3280 -0.4333  0.8558
  387MOL0     H53381   8.846  13.499   8.515  0.3726 -0.7088 -2.4468
  387MOL0     H53382   8.812  13.312   8.734  0.5575  1.3544  3.7156
  387MOL0     H53383   8.660  13.400   8.712  1.9178 -1.6212  5.0842
  387MOL0     H53384   8.943  13.498   8.760  0.2768  0.0929  0.2102
  387MOL0     H53385   8.804  13.499   8.875 -2.5821 -0.3512  0.4024
  387MOL0     H53386   8.808  12.779   7.953  1.3112 -0.9981 -2.5843
  387MOL0     H53387   8.860  12.598   7.836  0.4187  0.5880 -3.1180
  387MOL0     H53388   9.280  12.401   7.639 -0.8895  0.5476 -0.1979
  387MOL0     H53389   9.402  12.216   7.539 -0.1683 -4.4906 -1.6386
  387MOL0     H53390   8.493  11.975   6.294 -2.8775 -0.3719 -2.6792
  387MOL0     H53391   8.401  11.916   6.089 -0.4105 -1.3966  2.0665
  387MOL0     H53392   8.338  11.445   5.729  0.7585 -0.8699  0.8708
  387MOL0     H53393   8.255  11.472   5.519 -0.6601 -0.6821  0.5188
  387MOL0     H53394   8.505  11.723   5.213 -0.6684 -0.2369 -0.9129
  387MOL0     H53395   8.342  11.707   5.155 -1.6094 -0.9041  1.0972
  387MOL0     H53396   8.408  11.925   5.254  0.5800 -2.6363 -4.3790
  387MOL0     H53397   8.410  11.857   5.416 -1.4415  2.2458  0.9623
  387MOL0     H53398   8.197  11.885   5.216 -0.4748 -0.9975 -0.6064
  387MOL0     H53399   8.171  11.763   5.337 -0.0292 -0.0638 -2.2528
  387MOL0     H53400   8.065  12.000   5.385 -0.2265  1.3609 -0.4703
  387MOL0     H53401   8.222  12.060   5.414 -1.5186  2.1884 -0.5255
  387MOL0     H53402   8.193  11.803   5.760 -2.2212  1.5921 -0.0041
  387MOL0     H53403   8.610  11.708   5.406 -1.7502 -0.4538 -1.5885
  387MOL0     H53404   8.756  11.803   5.584  5.0167 -3.1603  0.0160
  387MOL0     H53405   8.673  11.812   5.739  0.9769 -0.4112  1.0195
  387MOL0     H53406   8.778  11.683   5.716 -1.2582 -0.3148 -2.0671
  388MOL0     O53407   0.271   2.756   0.688 -0.0007 -0.5138 -0.2802
  388MOL0     C53408   0.280   2.663   0.613  0.3012 -0.0269 -0.6258
  388MOL0     O53409   0.335   2.670   0.488  0.7441 -0.7483 -0.0352
  388MOL0     C53410   0.392   2.785   0.451  0.3584  0.2108 -1.0414
  388MOL0     C53411   0.511   2.841   0.504 -0.8979  1.2174  0.2721
  388MOL0     C53412   0.560   2.967   0.455 -0.0804  0.3729 -1.3671
  388MOL0     C53413   0.494   3.033   0.356  0.0534 -0.6972 -0.2619
  388MOL0     O53414   0.558   3.147   0.326  0.5537 -0.2971 -0.3085
  388MOL0     C53415   0.509   3.227   0.214 -0.2805  0.2609 -1.0128
  388MOL0     C53416   0.595   3.348   0.202 -0.1838  0.4515  1.0370
  388MOL0     C53417   0.751   3.333   0.194  0.5663 -1.2559 -0.3519
  388MOL0     C53418   0.802   3.475   0.149  0.2723  0.3562  0.4506
  388MOL0     C53419   0.954   3.467   0.137 -0.1883 -0.1277 -0.2426
  388MOL0     C53420   1.016   3.577   0.052 -0.9920  0.0485  0.2047
  388MOL0     C53421   0.982   3.577  -0.103 -0.6719 -0.0390  0.2916
  388MOL0     C53422   1.069   3.459  -0.177  0.4341 -0.0666 -0.1944
  388MOL0     N53423   1.034   3.445  -0.322  0.5283 -0.0308 -0.6351
  388MOL0     C53424   0.907   3.440  -0.379 -1.0090 -0.0237  0.6766
  388MOL0     C53425   0.932   3.418  -0.512 -0.5533  0.0254 -0.2814
  388MOL0     C53426   0.826   3.403  -0.615 -1.0210  0.7367  0.1230
  388MOL0     C53427   0.825   3.272  -0.681 -0.3270 -0.2294  0.7447
  388MOL0     C53428   0.933   3.263  -0.798 -0.4668 -0.0368  0.7567
  388MOL0     C53429   0.925   3.126  -0.872 -0.4783 -0.3674 -0.4352
  388MOL0     O53430   0.913   3.030  -0.773  0.4297  1.2129 -0.1916
  388MOL0     C53431   1.017   2.938  -0.763  0.4762 -0.1745  0.6943
  388MOL0     C53432   0.986   2.815  -0.725 -0.3565 -0.2968  0.4701
  388MOL0     C53433   1.089   2.717  -0.701  0.7674  0.1145  0.9063
  388MOL0     C53434   1.052   2.586  -0.637  0.2673  0.2546 -0.4355
  388MOL0     C53435   1.227   2.750  -0.719 -0.4266  0.2741  0.3049
  388MOL0     C53436   1.334   2.661  -0.716 -0.1047 -0.2814  0.5683
  388MOL0     O53437   1.317   2.534  -0.755 -0.1786 -0.9456  0.2900
  388MOL0     C53438   1.408   2.452  -0.809 -0.8585 -0.0208 -1.2912
  388MOL0     C53439   1.405   2.319  -0.776 -0.2165  0.4141 -0.6005
  388MOL0     C53440   1.505   2.226  -0.800 -0.5087 -0.1870 -0.8088
  388MOL0     C53441   1.606   2.265  -0.875  1.0419  0.4771 -0.2020
  388MOL0     O53442   1.709   2.176  -0.913  0.0766  0.1443  0.0609
  388MOL0     C53443   1.668   2.038  -0.921  0.5739  0.1694  0.7849
  388MOL0     C53444   1.724   1.994  -1.054 -0.6677  0.0543  0.9401
  388MOL0     C53445   1.874   2.001  -1.064  0.5670  0.1126 -0.9826
  388MOL0     C53446   1.937   1.904  -1.171 -0.3004 -0.2192 -0.5984
  388MOL0     C53447   1.930   1.755  -1.148  0.0827  0.2841  1.1540
  388MOL0     C53448   2.019   1.688  -1.259 -0.4788 -0.6714 -0.4523
  388MOL0     C53449   2.017   1.533  -1.245  0.3305  1.8867  0.5375
  388MOL0     C53450   2.139   1.470  -1.326 -0.0004 -0.6521 -0.2259
  388MOL0    Cl53451   2.115   1.494  -1.508  0.2331  0.1369  0.2194
  388MOL0     C53452   1.621   2.402  -0.909  0.7266  0.8294 -0.1524
  388MOL0     C53453   1.520   2.494  -0.877 -0.1551 -0.3990 -0.7811
  388MOL0     O53454   1.437   2.700  -0.670 -0.4440 -0.2355 -0.2424
  388MOL0     C53455   1.250   2.880  -0.765 -0.0358 -0.0420 -0.0462
  388MOL0     C53456   1.152   2.973  -0.773  1.1204  0.4416 -0.1428
  388MOL0     N53457   1.071   3.413  -0.527 -0.1126 -0.3863 -0.1228
  388MOL0     N53458   1.133   3.443  -0.419 -1.0076 -1.0890  0.0125
  388MOL0     C53459   0.378   2.975   0.295 -0.9376  0.6782  0.5700
  388MOL0     C53460   0.324   2.858   0.346  0.1463 -0.2345  0.2623
  388MOL0     C53461   0.201   2.542   0.661  0.3140 -0.1317 -0.4395
  388MOL0     C53462   0.127   2.553   0.788  0.0401  0.8247 -0.2576
  388MOL0     C53463   0.072   2.438   0.840  0.6671 -0.3886  0.6478
  388MOL0     C53464   0.088   2.315   0.781  0.4311  0.1317 -0.3717
  388MOL0     O53465   0.045   2.194   0.832  0.0882 -0.1320  0.2624
  388MOL0     C53466   0.087   2.181   0.978  0.4490  1.4349 -0.1978
  388MOL0     C53467   0.231   2.132   0.972 -0.3103 -0.1080  0.3408
  388MOL0     C53468   0.267   2.060   1.104  0.2331 -0.3610 -0.6241
  388MOL0     C53469   0.420   2.017   1.115  0.0632 -0.7447  0.5038
  388MOL0     C53470   0.410   1.875   1.106  0.8121  0.8160  1.3011
  388MOL0     C53471   0.401   1.750   1.096 -0.6728 -0.2886 -0.2558
  388MOL0     C53472   0.147   2.306   0.657 -0.1985  0.7711  0.0618
  388MOL0     C53473   0.214   2.416   0.599 -0.3070  0.3226  0.1634
  388MOL0     C53474   0.288   2.387   0.468  0.5246  0.5232 -0.0397
  388MOL0     H53475   0.584   2.782   0.559  0.7405 -1.0772 -3.9430
  388MOL0     H53476   0.650   3.011   0.497  1.0303 -1.4903 -1.7188
  388MOL0     H53477   0.415   3.273   0.245  0.5965  0.1809  2.0768
  388MOL0     H53478   0.498   3.159   0.129  0.6771 -1.4458  0.1498
  388MOL0     H53479   0.567   3.401   0.111  3.4781  0.5214 -0.1948
  388MOL0     H53480   0.575   3.412   0.289 -1.1994  0.7112  0.6258
  388MOL0     H53481   0.795   3.312   0.292 -2.5124 -1.1716  1.1594
  388MOL0     H53482   0.785   3.255   0.126 -2.7452  0.3701 -4.3037
  388MOL0     H53483   0.764   3.493   0.049  0.3842 -0.7794  0.1861
  388MOL0     H53484   0.782   3.563   0.211  2.5548  0.8306  0.6121
  388MOL0     H53485   0.988   3.372   0.095  0.2761 -0.7732  1.5208
  388MOL0     H53486   1.001   3.466   0.235 -0.4236  0.4032 -0.1223
  388MOL0     H53487   0.987   3.672   0.098 -0.5733  0.2852 -0.0260
  388MOL0     H53488   1.124   3.562   0.052 -0.6385  1.9930 -2.3579
  388MOL0     H53489   1.001   3.669  -0.159 -1.8817 -0.7524 -1.3740
  388MOL0     H53490   0.875   3.564  -0.121 -0.6528  1.5645 -1.3332
  388MOL0     H53491   1.172   3.494  -0.170  0.0574  0.9004  6.0706
  388MOL0     H53492   1.071   3.366  -0.120  1.6813 -0.3941 -0.7147
  388MOL0     H53493   0.813   3.474  -0.335 -0.2525  0.6047  1.8443
  388MOL0     H53494   0.816   3.485  -0.686 -1.6555  2.1620  1.7889
  388MOL0     H53495   0.730   3.403  -0.563 -0.6571 -0.9780  0.8658
  388MOL0     H53496   0.830   3.194  -0.604 -1.0495  0.2579  1.3019
  388MOL0     H53497   0.731   3.251  -0.733  0.1859  0.4679 -0.4870
  388MOL0     H53498   0.928   3.351  -0.863 -0.4776 -0.4223  0.2280
  388MOL0     H53499   1.037   3.269  -0.762 -1.2935 -2.5510  4.0486
  388MOL0     H53500   0.830   3.122  -0.926  0.2880 -1.6291 -1.7566
  388MOL0     H53501   1.006   3.114  -0.944 -0.6585 -0.7676 -0.5705
  388MOL0     H53502   0.885   2.780  -0.704  0.3610 -1.1221  2.8458
  388MOL0     H53503   0.948   2.557  -0.623  0.5056  1.0105  5.2673
  388MOL0     H53504   1.081   2.595  -0.532  1.2317  1.4037 -0.7711
  388MOL0     H53505   1.092   2.494  -0.680  1.4998  0.5850 -0.0495
  388MOL0     H53506   1.315   2.289  -0.723  0.2513  2.0426  1.2799
  388MOL0     H53507   1.486   2.124  -0.766 -1.5524 -0.0180 -0.8573
  388MOL0     H53508   1.711   1.990  -0.833 -0.2882 -2.2070 -0.0051
  388MOL0     H53509   1.561   2.014  -0.925  0.3082  1.4054 -0.1865
  388MOL0     H53510   1.687   1.894  -1.077  0.6231  0.3577 -3.4135
  388MOL0     H53511   1.681   2.055  -1.135 -2.2655  1.0374  2.4563
  388MOL0     H53512   1.919   1.970  -0.969  0.0887 -0.8122 -1.0537
  388MOL0     H53513   1.907   2.105  -1.078 -0.2858  0.3588 -1.2101
  388MOL0     H53514   2.043   1.918  -1.149  0.4533 -2.9359 -2.0517
  388MOL0     H53515   1.909   1.935  -1.272 -1.1129 -0.7419 -0.5424
  388MOL0     H53516   1.976   1.740  -1.050  1.3638  5.1223  1.5364
  388MOL0     H53517   1.828   1.716  -1.138 -0.9196  2.3430 -0.1637
  388MOL0     H53518   2.119   1.732  -1.265 -1.7326  2.2942 -1.5589
  388MOL0     H53519   1.989   1.715  -1.361 -0.4750 -0.4272 -0.3911
  388MOL0     H53520   1.929   1.501  -1.302  2.4751 -3.9197 -0.1796
  388MOL0     H53521   2.005   1.485  -1.147  0.2506 -2.3165 -1.2812
  388MOL0     H53522   2.153   1.365  -1.299  1.5979 -0.1070  1.2856
  388MOL0     H53523   2.234   1.519  -1.301 -0.6688  0.2005  0.7135
  388MOL0     H53524   1.704   2.434  -0.972 -1.0286  0.2215 -2.9282
  388MOL0     H53525   1.525   2.597  -0.910 -1.7254  0.1960  0.7032
  388MOL0     H53526   1.351   2.920  -0.769 -0.6685  1.9699  1.6844
  388MOL0     H53527   1.170   3.079  -0.789 -0.8546  0.2689 -5.9738
  388MOL0     H53528   0.325   3.024   0.213  1.4932 -0.8304 -2.1120
  388MOL0     H53529   0.239   2.825   0.287  1.1919  1.2779 -2.2934
  388MOL0     H53530   0.108   2.649   0.835 -0.8161 -0.1086  1.4011
  388MOL0     H53531   0.005   2.449   0.924 -1.6611  1.7912 -1.3093
  388MOL0     H53532   0.096   2.277   1.029  2.9900  1.0464  0.1916
  388MOL0     H53533   0.034   2.117   1.048  1.3922  1.7491  0.8241
  388MOL0     H53534   0.297   2.211   0.937 -2.6391  0.9814 -1.8609
  388MOL0     H53535   0.229   2.053   0.896 -0.8216  2.1049 -2.0706
  388MOL0     H53536   0.247   2.123   1.191  1.1114  3.4093 -2.9465
  388MOL0     H53537   0.199   1.975   1.116 -1.5296  1.2802  2.6263
  388MOL0     H53538   0.465   2.038   1.212  1.7870 -5.1699  0.8772
  388MOL0     H53539   0.478   2.081   1.047 -0.3533 -2.1681 -1.2563
  388MOL0     H53540   0.401   1.643   1.083 -3.2805 -0.4943  0.7365
  388MOL0     H53541   0.151   2.207   0.612 -2.1704 -0.0505  1.5539
  388MOL0     H53542   0.377   2.450   0.469  0.8391  0.0911 -0.3025
  388MOL0     H53543   0.319   2.283   0.460 -1.3103  0.0268 -1.5835
  388MOL0     H53544   0.224   2.410   0.382 -1.2081 -3.4271 -0.0338
  389MOL0     O53545   5.424   1.120   5.369  0.1012  0.0076  0.2248
  389MOL0     C53546   5.535   1.166   5.331  0.6358  0.6031 -0.2010
  389MOL0     O53547   5.661   1.108   5.316  0.9740 -0.3037  0.6187
  389MOL0     C53548   5.665   0.983   5.377  0.2909  0.4728 -0.0202
  389MOL0     C53549   5.615   0.937   5.499  0.4304 -0.0308  0.2247
  389MOL0     C53550   5.638   0.807   5.550 -0.6533 -0.1552 -0.4495
  389MOL0     C53551   5.705   0.716   5.467  0.0546 -0.2344 -0.2514
  389MOL0     O53552   5.742   0.585   5.517  0.3280  0.1286 -0.2408
  389MOL0     C53553   5.636   0.523   5.588 -0.0719  0.0061  0.1394
  389MOL0     C53554   5.643   0.380   5.533  0.6681  0.3551  0.7599
  389MOL0     C53555   5.517   0.302   5.548  0.1240 -0.3555  0.2584
  389MOL0     C53556   5.527   0.176   5.457  0.3875 -0.4924 -0.0604
  389MOL0     C53557   5.398   0.094   5.475  0.3894  0.6669 -0.4976
  389MOL0     C53558   5.276   0.136   5.386 -0.3748  0.9844 -0.4522
  389MOL0     C53559   5.294   0.100   5.240 -0.1062 -0.2609  0.3617
  389MOL0     C53560   5.157   0.120   5.156 -0.5006 -0.3805 -0.3469
  389MOL0     N53561   5.149   0.248   5.105 -0.6063  0.0683  0.0167
  389MOL0     C53562   5.141   0.364   5.170 -0.2377 -0.6177  1.3164
  389MOL0     C53563   5.197   0.461   5.089  0.4312  0.2259  0.3066
  389MOL0     C53564   5.189   0.605   5.113  0.2888 -0.3869 -0.0340
  389MOL0     C53565   5.303   0.649   5.205  0.1541  0.5957 -0.1802
  389MOL0     C53566   5.326   0.801   5.225  0.4179  0.4011  0.5972
  389MOL0     C53567   5.403   0.872   5.114  0.2975  0.6554  0.3637
  389MOL0     O53568   5.332   0.877   4.992  1.2520  0.3767  0.2719
  389MOL0     C53569   5.252   0.987   4.970  0.7442  0.5869 -0.2746
  389MOL0     C53570   5.214   1.016   4.844 -0.0503 -0.5291 -0.7778
  389MOL0     C53571   5.139   1.121   4.810  0.3735 -0.8785  0.3122
  389MOL0     C53572   5.130   1.128   4.656  0.5598  0.3800 -0.7484
  389MOL0     C53573   5.096   1.218   4.907  0.0767 -0.0036 -0.0852
  389MOL0     C53574   5.009   1.331   4.883 -0.4738  0.7983 -0.2073
  389MOL0     O53575   5.008   1.386   4.760  1.0794 -0.4860 -0.8679
  389MOL0     C53576   4.921   1.480   4.719  0.3852 -0.3753 -0.0585
  389MOL0     C53577   4.804   1.533   4.787 -0.6969  0.1074  0.2329
  389MOL0     C53578   4.725   1.628   4.714 -0.1474 -0.1636  0.5995
  389MOL0     C53579   4.760   1.656   4.579 -0.6374 -0.3663 -0.1271
  389MOL0     O53580   4.698   1.731   4.494 -0.1448 -0.1592  1.1852
  389MOL0     C53581   4.609   1.835   4.539 -0.2183  0.0554  0.7309
  389MOL0     C53582   4.463   1.809   4.518 -0.5400 -0.0668  0.4953
  389MOL0     C53583   4.371   1.922   4.560 -0.5910 -0.2571  0.6161
  389MOL0     C53584   4.361   2.037   4.454 -0.1839 -0.0489 -0.2633
  389MOL0     C53585   4.237   2.130   4.485 -0.1198  0.2324  0.2522
  389MOL0     C53586   4.242   2.182   4.632  1.0523  0.2562 -0.2174
  389MOL0     C53587   4.123   2.269   4.654  0.2441 -0.3208  0.3763
  389MOL0     C53588   4.171   2.389   4.734  0.0883 -1.2709 -0.4116
  389MOL0    Cl53589   4.270   2.349   4.888  0.4748 -0.6941  0.2373
  389MOL0     C53590   4.875   1.615   4.524 -0.6325  0.2652 -0.5812
  389MOL0     C53591   4.955   1.520   4.592 -0.0106 -0.6235 -0.4400
  389MOL0     O53592   4.943   1.370   4.982 -0.4857 -0.5983  0.1223
  389MOL0     C53593   5.133   1.184   5.040 -0.5912 -0.2241 -0.0055
  389MOL0     C53594   5.221   1.085   5.066  0.4100 -0.8074 -0.4243
  389MOL0     N53595   5.234   0.405   4.969 -0.0574  0.1136  0.2666
  389MOL0     N53596   5.213   0.277   4.984  0.0066 -0.1431  0.3010
  389MOL0     C53597   5.748   0.761   5.339  0.4602  0.4274  0.2450
  389MOL0     C53598   5.723   0.890   5.292  0.5169 -0.0139  0.2515
  389MOL0     C53599   5.527   1.302   5.272  0.3998  0.5944 -0.4343
  389MOL0     C53600   5.585   1.312   5.154 -0.2344 -0.2674 -0.1236
  389MOL0     C53601   5.567   1.431   5.083 -0.5989 -0.6423  1.0511
  389MOL0     C53602   5.505   1.540   5.140  0.7382 -0.3901  0.1464
  389MOL0     O53603   5.498   1.662   5.082 -0.4159  0.3655 -0.3957
  389MOL0     C53604   5.371   1.688   5.020 -0.5162  0.7932  0.3168
  389MOL0     C53605   5.325   1.604   4.900 -0.3295 -0.0394  0.5188
  389MOL0     C53606   5.409   1.615   4.774 -0.0488  0.2038  0.3678
  389MOL0     C53607   5.369   1.525   4.656  0.8155  0.6338  0.0448
  389MOL0     C53608   5.410   1.386   4.669 -0.4100 -0.3671  0.5461
  389MOL0     C53609   5.444   1.275   4.693 -1.1818  0.1499 -0.6673
  389MOL0     C53610   5.456   1.528   5.267  0.5151  0.2619 -0.4437
  389MOL0     C53611   5.457   1.406   5.336 -0.2993  0.8276 -0.3121
  389MOL0     C53612   5.407   1.395   5.486  0.3611  0.1936 -0.3909
  389MOL0     H53613   5.563   1.007   5.564 -0.2539  1.1934 -1.5564
  389MOL0     H53614   5.614   0.782   5.653 -1.0936  2.9446  0.3056
  389MOL0     H53615   5.536   0.565   5.572 -0.4216 -0.4628  0.9802
  389MOL0     H53616   5.653   0.518   5.696  1.8733  2.4209  0.0131
  389MOL0     H53617   5.658   0.387   5.425 -3.3835 -1.5909 -0.1353
  389MOL0     H53618   5.721   0.324   5.585 -0.4929 -1.7557  0.3352
  389MOL0     H53619   5.510   0.275   5.654  2.5845  1.9478  1.1223
  389MOL0     H53620   5.426   0.352   5.516  0.9369  0.3960 -0.9772
  389MOL0     H53621   5.537   0.213   5.355 -5.0573 -0.7580 -0.9990
  389MOL0     H53622   5.602   0.107   5.496 -2.2253 -1.8027  3.2062
  389MOL0     H53623   5.367   0.110   5.578 -1.4056  1.6805 -1.1414
  389MOL0     H53624   5.419  -0.013   5.466  0.3659  0.6797 -0.7186
  389MOL0     H53625   5.189   0.079   5.422  1.0942 -1.4060 -0.4366
  389MOL0     H53626   5.245   0.237   5.414 -0.3833  1.0372 -0.6474
  389MOL0     H53627   5.323  -0.004   5.221  1.1048  0.2331 -0.6519
  389MOL0     H53628   5.369   0.163   5.192 -0.2387 -0.9919 -0.8656
  389MOL0     H53629   5.170   0.062   5.064 -0.1541  0.6175 -0.9431
  389MOL0     H53630   5.064   0.090   5.204 -0.1470 -0.8469  0.0548
  389MOL0     H53631   5.097   0.384   5.267 -1.0403 -0.9450  1.0309
  389MOL0     H53632   5.089   0.630   5.151  0.5106 -1.0179  1.0160
  389MOL0     H53633   5.199   0.661   5.019  1.0315 -0.8242 -0.2206
  389MOL0     H53634   5.286   0.606   5.304  0.7969 -1.8976 -1.0960
  389MOL0     H53635   5.397   0.604   5.172  0.1599  0.1890  0.3906
  389MOL0     H53636   5.228   0.849   5.231  0.0412 -0.0601 -1.2741
  389MOL0     H53637   5.382   0.808   5.319 -1.3728 -2.4936  2.0291
  389MOL0     H53638   5.439   0.971   5.144 -1.3109  0.9847  1.3447
  389MOL0     H53639   5.489   0.810   5.088  1.0117  1.4097  0.8687
  389MOL0     H53640   5.257   0.943   4.775  2.4944  0.4513 -0.3416
  389MOL0     H53641   5.206   1.062   4.613  1.5486  0.2514  1.0900
  389MOL0     H53642   5.143   1.231   4.622  2.9151  0.5416  0.4670
  389MOL0     H53643   5.032   1.094   4.619  1.2360 -2.6141 -0.0658
  389MOL0     H53644   4.779   1.512   4.891 -2.4641 -1.2093 -0.4091
  389MOL0     H53645   4.653   1.685   4.772  0.1003  0.2937  0.4610
  389MOL0     H53646   4.645   1.860   4.639 -1.1362 -1.6102  1.5334
  389MOL0     H53647   4.625   1.917   4.470 -1.1190 -0.6186 -0.3200
  389MOL0     H53648   4.451   1.777   4.414  3.7231  0.6511 -0.4121
  389MOL0     H53649   4.442   1.723   4.583  4.4649 -0.5186  1.9636
  389MOL0     H53650   4.408   1.956   4.657 -0.0151 -1.7086  0.9301
  389MOL0     H53651   4.272   1.877   4.574 -0.3126 -1.3763 -0.7507
  389MOL0     H53652   4.367   1.991   4.355  7.8605 -3.9121  1.1853
  389MOL0     H53653   4.445   2.106   4.469  1.2684 -1.7458 -0.2923
  389MOL0     H53654   4.233   2.206   4.406 -1.2191 -0.4949 -0.4237
  389MOL0     H53655   4.148   2.067   4.477 -0.5258  0.9605 -1.5902
  389MOL0     H53656   4.334   2.237   4.649  0.6653  1.1795 -0.9680
  389MOL0     H53657   4.241   2.100   4.704  2.2233 -0.4183 -0.9436
  389MOL0     H53658   4.051   2.214   4.715 -2.3924 -0.3831 -2.5796
  389MOL0     H53659   4.084   2.306   4.559  0.0004 -2.1964 -0.2931
  389MOL0     H53660   4.087   2.458   4.747 -0.3165 -1.5872 -1.3261
  389MOL0     H53661   4.226   2.466   4.678 -1.3717 -1.3143 -1.9712
  389MOL0     H53662   4.906   1.649   4.426 -1.8546  1.1530 -0.6834
  389MOL0     H53663   5.049   1.476   4.559  1.5547  0.1949  2.5215
  389MOL0     H53664   5.100   1.256   5.114 -1.7699 -1.2573  0.5127
  389MOL0     H53665   5.261   1.096   5.166 -1.3174  0.0888  0.1925
  389MOL0     H53666   5.814   0.701   5.277 -1.1176  0.6757 -1.7423
  389MOL0     H53667   5.751   0.913   5.189  0.3072  2.6937  0.7213
  389MOL0     H53668   5.637   1.225   5.113 -1.1397 -0.4477 -0.9072
  389MOL0     H53669   5.625   1.438   4.991  0.9696  0.6001  2.0676
  389MOL0     H53670   5.296   1.672   5.098 -0.2314  1.3252  0.7021
  389MOL0     H53671   5.373   1.790   4.980  1.0285  0.7246  0.1730
  389MOL0     H53672   5.221   1.637   4.891  0.0303  1.8678  2.3969
  389MOL0     H53673   5.330   1.501   4.936 -0.5235  0.6870  2.7962
  389MOL0     H53674   5.408   1.722   4.753  0.9789  0.3631  1.0279
  389MOL0     H53675   5.515   1.593   4.787 -0.5351 -2.5857  0.1850
  389MOL0     H53676   5.420   1.566   4.568  2.6142  0.0875  0.7809
  389MOL0     H53677   5.262   1.539   4.641  1.1776  1.2441 -2.3666
  389MOL0     H53678   5.483   1.178   4.715  2.8679  1.3324 -1.8989
  389MOL0     H53679   5.410   1.621   5.297 -3.4627 -1.0850 -1.6676
  389MOL0     H53680   5.477   1.335   5.545  0.2987  0.1682 -0.3418
  389MOL0     H53681   5.398   1.497   5.523  2.8408 -0.6056  2.8564
  389MOL0     H53682   5.311   1.342   5.489  0.9582 -0.9482 -0.6731
  390MOL0     O53683   1.866   5.977   8.869 -0.1712 -0.0648 -0.1224
  390MOL0     C53684   1.874   6.054   8.775 -0.4129  0.1277  0.2147
  390MOL0     O53685   1.780   6.137   8.730 -0.0567  0.5627 -0.4612
  390MOL0     C53686   1.660   6.117   8.795 -0.0107 -0.4010 -0.1083
  390MOL0     C53687   1.628   6.168   8.919 -0.5591 -0.3201 -0.5285
  390MOL0     C53688   1.524   6.126   8.995 -0.0928  0.0536  0.1910
  390MOL0     C53689   1.438   6.034   8.947 -1.0264 -0.2750  0.0403
  390MOL0     O53690   1.343   5.993   9.032 -1.3510 -0.3572  0.1433
  390MOL0     C53691   1.325   5.855   9.043  0.2942  0.0035 -0.3361
  390MOL0     C53692   1.177   5.825   9.077 -0.0397 -0.7009 -0.0281
  390MOL0     C53693   1.154   5.870   9.219  0.2363 -1.1386 -0.5609
  390MOL0     C53694   1.001   5.898   9.235 -0.5072  0.0127  0.5375
  390MOL0     C53695   0.979   5.928   9.382  0.5829 -0.6129 -0.2286
  390MOL0     C53696   0.835   5.957   9.405  0.6400 -0.9285 -0.3744
  390MOL0     C53697   0.808   5.989   9.554 -0.0133 -0.0036 -0.9799
  390MOL0     C53698   0.693   6.071   9.572  0.4075  0.2428 -0.0867
  390MOL0     N53699   0.579   5.989   9.540  0.0876 -0.0864  0.7578
  390MOL0     C53700   0.516   5.914   9.638 -0.6615  0.2006  0.2308
  390MOL0     C53701   0.414   5.854   9.567  0.1853  0.5079  0.4295
  390MOL0     C53702   0.321   5.753   9.628 -0.4557 -0.7577 -0.0733
  390MOL0     C53703   0.172   5.812   9.609  0.2379  0.1391  0.6450
  390MOL0     C53704   0.067   5.713   9.679 -0.5354 -0.0333  0.4296
  390MOL0     C53705  -0.062   5.714   9.600  0.0473 -0.3588 -0.3691
  390MOL0     O53706  -0.106   5.850   9.574  0.2093  0.7286  0.2632
  390MOL0     C53707  -0.195   5.925   9.643  0.7196  0.7630 -0.4136
  390MOL0     C53708  -0.296   5.857   9.719 -0.2642 -0.4740  0.6015
  390MOL0     C53709  -0.412   5.922   9.771 -0.1760 -0.6061 -0.2472
  390MOL0     C53710  -0.509   5.833   9.850  0.0902 -0.0110 -0.5424
  390MOL0     C53711  -0.436   6.060   9.764 -0.5687  0.2405 -0.4701
  390MOL0     C53712  -0.559   6.138   9.812  0.6098  0.1346  0.0139
  390MOL0     O53713  -0.538   6.266   9.854 -0.9473  0.5397  0.1857
  390MOL0     C53714  -0.643   6.340   9.901 -0.2487  0.2209 -0.4897
  390MOL0     C53715  -0.634   6.479   9.891 -0.2162 -0.8212 -0.0036
  390MOL0     C53716  -0.737   6.565   9.915 -0.2860  0.2356  0.2098
  390MOL0     C53717  -0.858   6.511   9.965 -0.3843 -0.1640  0.2506
  390MOL0     O53718  -0.963   6.576  10.001 -0.0813 -0.4286 -1.0612
  390MOL0     C53719  -0.955   6.714  10.032 -0.0360  0.5862  0.6987
  390MOL0     C53720  -1.065   6.754  10.132  0.6351 -0.0660  0.4620
  390MOL0     C53721  -1.059   6.677  10.262 -1.1802  0.3906  0.0835
  390MOL0     C53722  -1.111   6.747  10.382  0.7424  0.6156 -0.5116
  390MOL0     C53723  -1.084   6.655  10.519 -0.5465 -0.0718  0.7829
  390MOL0     C53724  -1.145   6.708  10.655 -0.1093  0.5123 -0.7650
  390MOL0     C53725  -1.099   6.626  10.771 -1.1118  0.0364 -0.3872
  390MOL0     C53726  -1.154   6.665  10.909 -0.4409  0.1774  0.0724
  390MOL0    Cl53727  -1.334   6.738  10.895 -0.6174  0.1494 -0.0172
  390MOL0     C53728  -0.863   6.375  10.004  0.0574 -0.7090 -0.5456
  390MOL0     C53729  -0.762   6.288   9.971  0.4391  0.4389  0.4676
  390MOL0     O53730  -0.665   6.085   9.791 -0.1531  0.2840 -0.0421
  390MOL0     C53731  -0.328   6.123   9.696 -0.3752  0.2458 -0.4477
  390MOL0     C53732  -0.224   6.058   9.629 -1.5093 -0.3486  0.0652
  390MOL0     N53733   0.408   5.905   9.438 -0.0315 -0.2347 -1.0432
  390MOL0     N53734   0.510   5.992   9.424 -0.3400 -0.1922 -1.1209
  390MOL0     C53735   1.459   5.987   8.812 -0.0914 -0.3462 -0.4352
  390MOL0     C53736   1.575   6.024   8.744 -0.4125  0.4307  0.9291
  390MOL0     C53737   2.003   6.054   8.703  0.0965 -1.0610  0.4493
  390MOL0     C53738   2.015   5.953   8.609 -0.7777 -0.4895 -0.1381
  390MOL0     C53739   2.132   5.930   8.543 -0.0788 -0.4678  0.2210
  390MOL0     C53740   2.234   6.032   8.542  0.6534  0.6792  1.4474
  390MOL0     O53741   2.348   6.028   8.463 -0.6219  0.3916 -0.3963
  390MOL0     C53742   2.373   5.918   8.376 -1.0474 -1.2112  0.3319
  390MOL0     C53743   2.312   5.925   8.236 -0.0654  0.6944 -0.3218
  390MOL0     C53744   2.407   6.028   8.166  0.9325 -0.2277  0.9466
  390MOL0     C53745   2.356   6.055   8.018 -0.2875  1.2252  0.1115
  390MOL0     C53746   2.405   6.176   7.976 -0.4552 -0.1806 -0.0059
  390MOL0     C53747   2.461   6.281   7.951  0.9436  0.5528 -0.6269
  390MOL0     C53748   2.219   6.135   8.630 -0.3932  0.0091  0.1363
  390MOL0     C53749   2.108   6.145   8.714  1.2662 -0.2041  0.3656
  390MOL0     C53750   2.102   6.261   8.816  0.9015 -0.5140  0.6555
  390MOL0     H53751   1.702   6.239   8.955 -1.4471 -0.3785  1.5464
  390MOL0     H53752   1.502   6.179   9.087  1.6783 -1.2808  1.4544
  390MOL0     H53753   1.396   5.826   9.121 -0.5021  0.2976  0.5056
  390MOL0     H53754   1.363   5.805   8.953  1.2710  0.9000 -0.4342
  390MOL0     H53755   1.109   5.876   9.008 -2.4558 -0.0706  2.6675
  390MOL0     H53756   1.173   5.716   9.071  2.4075 -0.9430  1.3661
  390MOL0     H53757   1.166   5.784   9.286 -2.6954 -1.4674 -0.3294
  390MOL0     H53758   1.217   5.954   9.249 -3.2844  1.5149  0.0459
  390MOL0     H53759   0.980   5.986   9.174 -0.5010 -1.8077 -2.2483
  390MOL0     H53760   0.948   5.810   9.198 -0.2099  0.4273 -0.9514
  390MOL0     H53761   1.044   6.012   9.407  2.0796 -1.3381 -1.4774
  390MOL0     H53762   1.012   5.844   9.445  1.2452  0.1735  0.4875
  390MOL0     H53763   0.807   6.050   9.355 -0.7779 -1.3767 -0.4506
  390MOL0     H53764   0.778   5.869   9.375  0.0600 -0.2699 -1.2547
  390MOL0     H53765   0.892   6.049   9.589 -0.2170 -1.4405  2.4496
  390MOL0     H53766   0.800   5.897   9.614  2.6924  0.7957  0.8012
  390MOL0     H53767   0.674   6.092   9.677 -4.3133 -1.5096 -0.3228
  390MOL0     H53768   0.698   6.166   9.519  0.2507 -0.0710 -0.6715
  390MOL0     H53769   0.538   5.915   9.744 -0.2155  1.7348  0.1517
  390MOL0     H53770   0.333   5.754   9.737  0.4390 -2.7600 -0.1051
  390MOL0     H53771   0.325   5.650   9.593 -0.5363 -0.7230 -0.1866
  390MOL0     H53772   0.154   5.915   9.640 -0.4260  0.0356  0.6060
  390MOL0     H53773   0.141   5.799   9.505  0.4359 -4.2211  0.9391
  390MOL0     H53774   0.110   5.613   9.691  1.6007  0.8016  0.2035
  390MOL0     H53775   0.050   5.756   9.778 -1.7654 -0.7021  0.5331
  390MOL0     H53776  -0.034   5.662   9.508  1.5218 -2.3191  1.1030
  390MOL0     H53777  -0.133   5.643   9.644 -0.0165  0.0975  0.2786
  390MOL0     H53778  -0.297   5.749   9.724 -1.6838 -0.4626  0.9226
  390MOL0     H53779  -0.466   5.770   9.928 -0.1421  1.6065  0.9662
  390MOL0     H53780  -0.564   5.774   9.777  0.2859 -1.5468  0.5167
  390MOL0     H53781  -0.588   5.884   9.906 -0.4956  1.0259 -2.2479
  390MOL0     H53782  -0.548   6.531   9.851 -1.9178  2.6281  0.4762
  390MOL0     H53783  -0.720   6.669   9.893 -0.5137  0.0570 -0.8412
  390MOL0     H53784  -0.860   6.753  10.070  0.3332  1.3430 -0.8773
  390MOL0     H53785  -0.980   6.759   9.935 -0.2835 -1.8811 -0.4510
  390MOL0     H53786  -1.044   6.858  10.157 -1.5566  0.7906 -0.8991
  390MOL0     H53787  -1.165   6.740  10.090  1.0169 -1.9267  0.0770
  390MOL0     H53788  -0.961   6.633  10.282 -1.5007 -0.6151 -0.5142
  390MOL0     H53789  -1.120   6.588  10.247  0.3370 -0.6291 -0.2069
  390MOL0     H53790  -1.216   6.774  10.374  0.8222  1.3192  0.5780
  390MOL0     H53791  -1.052   6.837  10.401  2.3004 -0.4728  0.1146
  390MOL0     H53792  -1.123   6.557  10.491 -0.3103 -0.5547  2.0984
  390MOL0     H53793  -0.975   6.648  10.514 -0.3656  2.4268 -1.7627
  390MOL0     H53794  -1.252   6.725  10.635 -0.1948  0.4506 -0.3606
  390MOL0     H53795  -1.112   6.811  10.673  3.3056 -0.3554 -1.4589
  390MOL0     H53796  -0.990   6.620  10.777 -1.2035 -0.3842  3.4685
  390MOL0     H53797  -1.130   6.523  10.749 -1.7183 -0.0306  0.7092
  390MOL0     H53798  -1.084   6.732  10.960  0.1222 -0.1402 -0.2841
  390MOL0     H53799  -1.149   6.580  10.978  1.6188  2.2235  2.7084
  390MOL0     H53800  -0.954   6.332  10.045 -0.2167  0.2291 -0.1521
  390MOL0     H53801  -0.781   6.181   9.981 -4.5295  1.0348 -0.0498
  390MOL0     H53802  -0.331   6.232   9.695  0.4614  0.3025  0.7931
  390MOL0     H53803  -0.146   6.122   9.588  0.7291 -1.0976  2.8498
  390MOL0     H53804   1.399   5.907   8.767  2.2264 -2.2842 -0.2820
  390MOL0     H53805   1.584   5.976   8.648 -2.0705  2.2015 -0.1876
  390MOL0     H53806   1.929   5.888   8.597 -0.3955 -1.2038  0.8269
  390MOL0     H53807   2.149   5.833   8.499 -4.1865 -1.8969  1.3732
  390MOL0     H53808   2.481   5.906   8.363 -1.1308 -0.3917 -1.3909
  390MOL0     H53809   2.355   5.827   8.434  1.0872 -0.6791  1.9883
  390MOL0     H53810   2.209   5.963   8.235 -0.6595 -0.7465 -2.8260
  390MOL0     H53811   2.328   5.827   8.192 -2.1154 -0.3918  1.1695
  390MOL0     H53812   2.420   6.122   8.221 -2.4443  2.5866 -2.4511
  390MOL0     H53813   2.501   5.973   8.154 -0.0530 -1.3581 -5.3550
  390MOL0     H53814   2.247   6.048   8.021 -0.5555  2.0368 -3.2550
  390MOL0     H53815   2.381   5.964   7.962 -1.8588  0.8193  0.0293
  390MOL0     H53816   2.514   6.374   7.958 -2.3312  2.5120  0.4097
  390MOL0     H53817   2.302   6.205   8.636 -0.2751 -0.0211 -0.8981
  390MOL0     H53818   2.070   6.357   8.775 -0.4752  0.9984  4.7663
  390MOL0     H53819   2.026   6.242   8.893  1.5192 -0.0391  1.3981
  390MOL0     H53820   2.202   6.280   8.857  0.1973  2.3456  1.2348
  391MOL0     O53821   7.065   1.485   3.312 -0.3532  0.0551  0.1388
  391MOL0     C53822   6.979   1.526   3.233  0.1970 -0.3117  0.2196
  391MOL0     O53823   6.852   1.479   3.230  0.3055 -0.3526 -0.0066
  391MOL0     C53824   6.815   1.366   3.308 -0.0838 -0.8498 -0.3005
  391MOL0     C53825   6.780   1.241   3.247 -0.2901  0.2273 -0.3259
  391MOL0     C53826   6.746   1.134   3.324  0.3039  0.3698 -0.4196
  391MOL0     C53827   6.742   1.147   3.461  1.3735  0.0516  0.4396
  391MOL0     O53828   6.723   1.045   3.549 -0.1570 -0.2633 -0.0966
  391MOL0     C53829   6.580   1.005   3.555  0.0678 -0.2495 -0.1315
  391MOL0     C53830   6.527   0.934   3.679 -0.3289  0.2853 -1.1510
  391MOL0     C53831   6.598   0.803   3.713 -0.6514  0.1459  0.1767
  391MOL0     C53832   6.554   0.692   3.612 -0.5430  0.3301  0.0722
  391MOL0     C53833   6.653   0.578   3.616 -0.6784 -0.4659 -0.5718
  391MOL0     C53834   6.692   0.512   3.746  0.5625  1.5098 -0.5390
  391MOL0     C53835   6.574   0.437   3.814 -0.6218 -0.3509  0.6365
  391MOL0     C53836   6.617   0.332   3.909 -0.0154 -0.8347  0.3816
  391MOL0     N53837   6.518   0.235   3.944 -0.2608  0.5586  1.0199
  391MOL0     C53838   6.413   0.255   4.034 -0.5058 -0.9426  0.2878
  391MOL0     C53839   6.341   0.137   4.016 -0.9473  0.1162  0.2968
  391MOL0     C53840   6.207   0.112   4.083  1.0411 -1.0842  0.0249
  391MOL0     C53841   6.094   0.074   3.982 -0.6764  0.2914 -0.4199
  391MOL0     C53842   6.019   0.194   3.935  0.1683  0.0167  0.4135
  391MOL0     C53843   6.079   0.268   3.818 -0.7738 -1.0374 -0.6552
  391MOL0     O53844   6.126   0.190   3.702  0.3439 -0.5956 -1.1454
  391MOL0     C53845   6.224   0.239   3.620  0.2647 -0.2775 -0.9280
  391MOL0     C53846   6.209   0.372   3.553 -0.3075 -0.5529 -0.3732
  391MOL0     C53847   6.299   0.410   3.451  0.3070 -1.0529 -0.4551
  391MOL0     C53848   6.254   0.539   3.385 -0.5475 -0.5114 -0.4670
  391MOL0     C53849   6.403   0.330   3.422  0.0400 -0.3983  0.3114
  391MOL0     C53850   6.512   0.365   3.323  0.8000  0.0494  0.1329
  391MOL0     O53851   6.626   0.288   3.319  0.1897 -0.2589 -0.4605
  391MOL0     C53852   6.746   0.351   3.284 -0.7367  0.8384  0.8268
  391MOL0     C53853   6.850   0.256   3.251 -0.2829 -0.8245 -0.0235
  391MOL0     C53854   6.977   0.306   3.209 -0.6711  0.0308  0.8243
  391MOL0     C53855   7.002   0.442   3.212  0.5072  0.4736 -0.1485
  391MOL0     O53856   7.123   0.477   3.162  0.3847  0.1116  0.1364
  391MOL0     C53857   7.169   0.612   3.206 -0.3433 -0.3144  0.4628
  391MOL0     C53858   7.315   0.645   3.178  0.2403  0.5905  1.0757
  391MOL0     C53859   7.325   0.704   3.032 -0.2786 -0.5241 -0.7471
  391MOL0     C53860   7.459   0.747   2.996  0.5524  0.1314 -1.1782
  391MOL0     C53861   7.470   0.773   2.851 -0.1510 -0.6514 -0.4431
  391MOL0     C53862   7.523   0.653   2.775 -0.7666 -0.2068 -0.3723
  391MOL0     C53863   7.569   0.693   2.634  0.0725 -0.4959 -0.2224
  391MOL0     C53864   7.709   0.757   2.636 -0.0168 -0.4496 -0.1311
  391MOL0    Cl53865   7.744   0.847   2.482  0.1414 -0.4715 -0.0674
  391MOL0     C53866   6.898   0.531   3.250 -0.0284  1.1422  0.3932
  391MOL0     C53867   6.774   0.487   3.282  0.5997 -0.2710  0.0141
  391MOL0     O53868   6.495   0.475   3.260 -0.2810  0.9910  0.2077
  391MOL0     C53869   6.432   0.209   3.485  0.6784  0.2435 -0.2754
  391MOL0     C53870   6.330   0.168   3.574 -1.3542  0.0038  0.0753
  391MOL0     N53871   6.390   0.053   3.924 -0.3414 -0.5362  0.4272
  391MOL0     N53872   6.505   0.110   3.888 -0.0743 -0.1417 -0.7314
  391MOL0     C53873   6.772   1.263   3.519 -0.3238 -0.3074 -2.2003
  391MOL0     C53874   6.804   1.383   3.447  0.0117 -0.6400 -0.0814
  391MOL0     C53875   7.008   1.641   3.146 -0.6115 -0.0133  0.1320
  391MOL0     C53876   6.922   1.755   3.143 -0.0050  0.2711 -0.6925
  391MOL0     C53877   6.955   1.875   3.073  0.1918  0.5727  0.0857
  391MOL0     C53878   7.078   1.885   3.006 -0.5271  0.9917 -0.4656
  391MOL0     O53879   7.136   1.997   2.955  0.3087  0.1200  0.5365
  391MOL0     C53880   7.066   2.124   2.952 -0.7011  0.1782 -0.7661
  391MOL0     C53881   7.091   2.208   3.073 -0.4334 -0.8593 -0.1320
  391MOL0     C53882   7.066   2.359   3.030 -0.2304  0.2410 -0.4018
  391MOL0     C53883   7.104   2.455   3.149  0.1502 -0.8571 -0.3911
  391MOL0     C53884   7.111   2.603   3.121 -0.1737 -0.1052  0.7041
  391MOL0     C53885   7.099   2.718   3.101 -0.0673 -0.6532  0.3714
  391MOL0     C53886   7.149   1.764   2.996  0.8300  0.4503  1.3098
  391MOL0     C53887   7.111   1.639   3.056 -0.6348 -0.1355 -0.0050
  391MOL0     C53888   7.209   1.520   3.035 -0.2620 -0.3142  0.7703
  391MOL0     H53889   6.781   1.229   3.139 -3.1433 -0.0151 -0.3966
  391MOL0     H53890   6.733   1.037   3.276 -0.3248  0.6293 -0.7903
  391MOL0     H53891   6.545   0.942   3.472 -0.3286 -1.7070  1.0986
  391MOL0     H53892   6.507   1.086   3.556 -0.1057 -0.4120  1.1677
  391MOL0     H53893   6.539   1.004   3.763  0.8384 -1.0384 -0.1680
  391MOL0     H53894   6.422   0.905   3.668 -0.5874  1.0720 -0.8209
  391MOL0     H53895   6.704   0.820   3.692 -0.3372 -1.2372  0.5341
  391MOL0     H53896   6.589   0.768   3.816 -0.6824 -3.7485 -0.9850
  391MOL0     H53897   6.455   0.670   3.654 -0.3992  2.8440  1.9420
  391MOL0     H53898   6.533   0.718   3.507 -1.2928  0.3959  0.2302
  391MOL0     H53899   6.748   0.617   3.578 -0.7353  2.0208  1.5072
  391MOL0     H53900   6.605   0.505   3.551 -1.6712 -2.6042  2.3244
  391MOL0     H53901   6.764   0.432   3.726 -1.2608 -0.8522  1.5490
  391MOL0     H53902   6.741   0.588   3.808  0.2883  0.2189  1.3660
  391MOL0     H53903   6.518   0.385   3.736 -1.8874 -2.6473  2.8799
  391MOL0     H53904   6.512   0.515   3.859 -0.7263  0.9688 -1.6750
  391MOL0     H53905   6.694   0.279   3.851  2.2351  0.8165  1.6746
  391MOL0     H53906   6.659   0.387   3.994 -0.8854  1.5611 -0.6547
  391MOL0     H53907   6.386   0.334   4.103  3.8379 -2.3099  3.9948
  391MOL0     H53908   6.185   0.207   4.134 -0.6370 -1.8654  0.8208
  391MOL0     H53909   6.221   0.027   4.150  0.2528 -0.0130  1.6213
  391MOL0     H53910   6.143   0.013   3.905 -0.7913 -0.7008  0.2750
  391MOL0     H53911   6.024   0.008   4.034  0.3057 -0.3829  0.0861
  391MOL0     H53912   5.920   0.158   3.904  0.4133 -1.0812  0.8741
  391MOL0     H53913   5.989   0.266   4.012  1.7078  0.6413  0.4577
  391MOL0     H53914   6.004   0.341   3.788  1.9629  1.8155 -1.1006
  391MOL0     H53915   6.158   0.339   3.845 -1.1698 -0.8877  0.1396
  391MOL0     H53916   6.124   0.437   3.573  0.3029  0.0423  0.3226
  391MOL0     H53917   6.148   0.553   3.407 -1.7597 -1.3251 -4.7727
  391MOL0     H53918   6.257   0.537   3.275  0.0679 -1.0855 -0.4444
  391MOL0     H53919   6.312   0.625   3.419 -1.3773  0.1273 -0.6442
  391MOL0     H53920   6.808   0.156   3.256 -0.3541 -0.8434 -0.9307
  391MOL0     H53921   7.053   0.235   3.176 -1.6200 -1.9922  2.7360
  391MOL0     H53922   7.096   0.682   3.165  0.4136 -1.0541 -2.3254
  391MOL0     H53923   7.163   0.624   3.315  1.6106  4.2553  0.2525
  391MOL0     H53924   7.339   0.735   3.236  0.2598  1.1596  0.2000
  391MOL0     H53925   7.385   0.563   3.199 -1.4407 -1.6360 -1.3307
  391MOL0     H53926   7.253   0.786   3.028  1.8434  1.3895 -1.2947
  391MOL0     H53927   7.289   0.629   2.960 -1.5638  0.0550 -0.7384
  391MOL0     H53928   7.532   0.673   3.029  1.9452  1.5100 -1.0203
  391MOL0     H53929   7.483   0.842   3.046 -0.3432 -0.4494  0.4120
  391MOL0     H53930   7.375   0.803   2.807  0.5826  2.6797 -0.0373
  391MOL0     H53931   7.537   0.858   2.836 -0.6840 -0.2999 -0.8615
  391MOL0     H53932   7.440   0.583   2.765 -0.0765 -0.9298 -1.2359
  391MOL0     H53933   7.603   0.596   2.825 -2.3582 -1.6288  0.6811
  391MOL0     H53934   7.500   0.771   2.600 -0.1186 -0.5957 -0.0645
  391MOL0     H53935   7.570   0.607   2.566 -3.3987 -2.3290  1.7926
  391MOL0     H53936   7.782   0.677   2.652 -1.8781 -1.8255  2.1597
  391MOL0     H53937   7.714   0.827   2.720  2.9047 -0.0899 -0.4912
  391MOL0     H53938   6.904   0.639   3.253 -1.9858  1.2761  0.6932
  391MOL0     H53939   6.704   0.564   3.313 -0.0678 -0.9246  0.1285
  391MOL0     H53940   6.520   0.149   3.465  0.8164 -0.2014  1.5004
  391MOL0     H53941   6.339   0.067   3.614 -0.7709 -1.2488 -2.9738
  391MOL0     H53942   6.787   1.253   3.626 -0.2093 -0.1832 -2.2048
  391MOL0     H53943   6.825   1.483   3.483  3.5557 -1.8854  1.7957
  391MOL0     H53944   6.841   1.754   3.215  0.8828  1.3756  0.3796
  391MOL0     H53945   6.892   1.962   3.084 -0.7147 -0.2534  1.9651
  391MOL0     H53946   7.099   2.177   2.863  0.0966 -1.6933 -1.6404
  391MOL0     H53947   6.961   2.122   2.923 -0.7334 -0.7681 -0.6062
  391MOL0     H53948   7.194   2.192   3.107 -0.2174  0.3122 -0.1973
  391MOL0     H53949   7.019   2.179   3.150 -0.6713  3.8001  1.7534
  391MOL0     H53950   7.123   2.394   2.943  1.6065  1.7577  1.2989
  391MOL0     H53951   6.959   2.371   3.012 -0.8358 -0.9110  1.9463
  391MOL0     H53952   7.206   2.421   3.171  0.4751  0.8685  0.9308
  391MOL0     H53953   7.036   2.421   3.227  3.0046 -5.1107  0.6362
  391MOL0     H53954   7.103   2.825   3.090  0.0718 -0.4861  1.8889
  391MOL0     H53955   7.235   1.767   2.929 -0.5502  1.6239 -0.4894
  391MOL0     H53956   7.187   1.430   3.092  0.2945  0.6983  2.6594
  391MOL0     H53957   7.216   1.486   2.931 -0.2113 -2.1443  1.3472
  391MOL0     H53958   7.311   1.551   3.057 -0.9126  2.2352  0.5648
  392MOL0     O53959   3.550  11.458   4.943  0.4420 -0.0923 -0.9439
  392MOL0     C53960   3.614  11.491   4.839 -0.2546 -0.4890 -0.5742
  392MOL0     O53961   3.743  11.540   4.838 -0.2879 -0.7036 -0.6157
  392MOL0     C53962   3.806  11.581   4.950 -0.2206  0.0796 -0.3681
  392MOL0     C53963   3.746  11.668   5.045 -0.0695  0.0451  0.2016
  392MOL0     C53964   3.811  11.708   5.159  0.2988  0.4313  0.1244
  392MOL0     C53965   3.942  11.668   5.187 -0.5451 -0.3974 -0.6649
  392MOL0     O53966   4.002  11.723   5.305 -0.1713 -0.2964  0.0044
  392MOL0     C53967   4.146  11.700   5.316 -0.1680 -0.4748  0.8890
  392MOL0     C53968   4.217  11.772   5.433  0.4960 -0.6338  0.0952
  392MOL0     C53969   4.171  11.698   5.559 -0.5193  0.9860  0.0542
  392MOL0     C53970   4.121  11.784   5.678 -0.7858  0.8942  0.0330
  392MOL0     C53971   3.975  11.837   5.657  0.3344 -0.3383 -0.5789
  392MOL0     C53972   3.861  11.740   5.655  0.2307 -0.1210 -0.4994
  392MOL0     C53973   3.729  11.816   5.678 -0.5858 -0.0758  0.6184
  392MOL0     C53974   3.696  11.920   5.573 -0.2271  0.8655 -0.5963
  392MOL0     N53975   3.551  11.937   5.564  0.3294 -0.0906  0.0008
  392MOL0     C53976   3.475  11.969   5.676 -0.3134  0.2110 -0.9493
  392MOL0     C53977   3.356  12.016   5.639  0.4579  0.4350  0.3461
  392MOL0     C53978   3.241  12.068   5.720 -0.2247 -0.1219  0.5927
  392MOL0     C53979   3.112  12.012   5.673 -0.4407 -0.0729 -0.9844
  392MOL0     C53980   2.997  12.064   5.770  0.3950  0.9486 -0.2833
  392MOL0     C53981   2.861  12.028   5.710 -0.1778 -0.4101 -0.4688
  392MOL0     O53982   2.846  11.889   5.692 -0.3650  0.2568  0.3350
  392MOL0     C53983   2.723  11.845   5.641  0.2127  0.1640  0.8508
  392MOL0     C53984   2.605  11.925   5.636  0.1262 -0.1595  0.1387
  392MOL0     C53985   2.486  11.881   5.586  0.8509  0.1318  0.9381
  392MOL0     C53986   2.364  11.972   5.594 -0.4887 -0.6034 -0.1510
  392MOL0     C53987   2.470  11.736   5.553 -0.5523  0.1214  0.0579
  392MOL0     C53988   2.336  11.680   5.513  0.2424 -0.2496 -0.7716
  392MOL0     O53989   2.338  11.545   5.476  0.0599  0.1315 -0.7481
  392MOL0     C53990   2.224  11.470   5.497  0.1519 -0.1066  0.3202
  392MOL0     C53991   2.159  11.467   5.620  0.8603 -0.5217  1.0296
  392MOL0     C53992   2.040  11.394   5.634  0.0426  0.4362  0.6317
  392MOL0     C53993   1.996  11.317   5.522 -0.0357 -0.8125  1.0372
  392MOL0     O53994   1.876  11.249   5.526 -0.1300  1.0271  0.0321
  392MOL0     C53995   1.762  11.289   5.608  0.7056 -1.0730 -0.3571
  392MOL0     C53996   1.642  11.221   5.524 -0.0591 -1.0565 -0.8552
  392MOL0     C53997   1.517  11.273   5.573  0.0483 -0.3609 -0.5258
  392MOL0     C53998   1.410  11.183   5.509  0.3675 -0.8987 -0.0330
  392MOL0     C53999   1.279  11.233   5.576 -0.8813  0.3706  0.0154
  392MOL0     C54000   1.249  11.151   5.702 -0.2352 -0.1134  0.5602
  392MOL0     C54001   1.153  11.239   5.785 -0.2320 -0.8427 -0.6703
  392MOL0     C54002   1.087  11.164   5.893 -0.6140 -0.0307 -0.4807
  392MOL0    Cl54003   0.989  11.041   5.832 -0.0488 -0.2666 -0.1047
  392MOL0     C54004   2.061  11.323   5.403  0.0259 -0.5194  0.7121
  392MOL0     C54005   2.178  11.394   5.394 -0.5344 -0.3734  0.3689
  392MOL0     O54006   2.235  11.753   5.520 -0.4193  0.3980 -0.2272
  392MOL0     C54007   2.585  11.656   5.565  0.4773  0.5731  0.7030
  392MOL0     C54008   2.714  11.711   5.602 -0.2808  0.3006  0.1641
  392MOL0     N54009   3.357  12.000   5.501  0.1414 -0.0669 -0.0492
  392MOL0     N54010   3.471  11.953   5.456 -0.2097 -0.3941  0.4139
  392MOL0     C54011   4.004  11.584   5.098  0.1784  0.0494 -1.1525
  392MOL0     C54012   3.937  11.535   4.981 -0.0456 -0.0501 -0.1578
  392MOL0     C54013   3.541  11.463   4.717 -0.7066 -0.1614 -0.2373
  392MOL0     C54014   3.623  11.425   4.611 -0.1864 -0.4515  0.4520
  392MOL0     C54015   3.566  11.401   4.491  0.1552  0.4542 -0.1478
  392MOL0     C54016   3.422  11.406   4.472 -0.2489 -0.0029  0.2404
  392MOL0     O54017   3.360  11.372   4.349 -0.6879 -0.0218  0.1469
  392MOL0     C54018   3.430  11.306   4.235 -0.7062  0.1981 -1.4724
  392MOL0     C54019   3.490  11.415   4.149 -0.1360 -0.1345 -1.0077
  392MOL0     C54020   3.396  11.537   4.126 -0.3626  0.2233  0.1860
  392MOL0     C54021   3.452  11.628   4.012 -0.1163  0.3670 -0.1900
  392MOL0     C54022   3.349  11.714   3.944 -0.2186  0.4299  0.4823
  392MOL0     C54023   3.273  11.784   3.880  0.1622  0.3547 -0.2543
  392MOL0     C54024   3.347  11.446   4.580  0.4543 -0.4164 -0.0471
  392MOL0     C54025   3.409  11.482   4.698  1.6886  0.1961 -0.9455
  392MOL0     C54026   3.311  11.534   4.801 -0.9602  0.5602 -0.4845
  392MOL0     H54027   3.640  11.681   5.029  0.4008  2.1818 -1.5683
  392MOL0     H54028   3.765  11.780   5.227  0.0835 -0.1563  0.6133
  392MOL0     H54029   4.190  11.743   5.225 -1.2980 -0.9657  0.0886
  392MOL0     H54030   4.166  11.593   5.315  0.6785 -0.3825 -1.8465
  392MOL0     H54031   4.326  11.764   5.424  0.6152  0.9916 -0.2443
  392MOL0     H54032   4.197  11.879   5.436 -0.9421 -0.8499 -0.9970
  392MOL0     H54033   4.117  11.606   5.537  1.5605 -0.8240  1.9741
  392MOL0     H54034   4.264  11.656   5.597 -0.9127 -0.7057 -0.7822
  392MOL0     H54035   4.111  11.740   5.777 -3.0584  1.0699 -0.0582
  392MOL0     H54036   4.202  11.854   5.700  1.9834 -2.3609  0.9474
  392MOL0     H54037   3.966  11.903   5.571 -0.4298  0.1479 -0.1430
  392MOL0     H54038   3.959  11.900   5.745  1.6671  0.9948 -1.2451
  392MOL0     H54039   3.864  11.690   5.558  0.4269 -0.9738 -0.0606
  392MOL0     H54040   3.864  11.663   5.732 -3.5398 -2.0030 -1.9773
  392MOL0     H54041   3.744  11.858   5.778 -3.2259 -0.8029  1.4156
  392MOL0     H54042   3.647  11.743   5.679 -0.2771 -0.4384 -0.1160
  392MOL0     H54043   3.727  12.018   5.611 -1.9283  1.4327 -0.5958
  392MOL0     H54044   3.743  11.907   5.475  1.9075  2.1557  0.1969
  392MOL0     H54045   3.512  11.981   5.778  2.2576 -3.8697 -1.1496
  392MOL0     H54046   3.231  12.175   5.701 -4.7201 -0.4651 -0.1052
  392MOL0     H54047   3.265  12.042   5.823  3.2290 -3.2159 -0.7188
  392MOL0     H54048   3.093  12.032   5.567  3.8059  3.2587 -1.3965
  392MOL0     H54049   3.112  11.905   5.693  3.0473  0.3297  2.3741
  392MOL0     H54050   3.013  12.030   5.873  3.1352 -1.1768 -1.2788
  392MOL0     H54051   3.006  12.173   5.764 -1.4648  1.0807 -1.5334
  392MOL0     H54052   2.788  12.077   5.775 -2.1095 -3.8360  0.1594
  392MOL0     H54053   2.859  12.069   5.608 -1.9615 -1.1381 -0.7491
  392MOL0     H54054   2.595  12.020   5.687 -1.7796  0.9311 -2.0402
  392MOL0     H54055   2.399  12.073   5.614 -1.3337  0.4255 -3.3214
  392MOL0     H54056   2.304  11.935   5.678 -3.4445 -0.4617 -2.0267
  392MOL0     H54057   2.302  11.976   5.504 -0.7780 -2.4541 -0.0830
  392MOL0     H54058   2.186  11.530   5.704 -0.4663  0.9366  0.4094
  392MOL0     H54059   1.997  11.383   5.733 -1.1709 -3.2147 -0.1264
  392MOL0     H54060   1.767  11.240   5.706 -1.8973 -0.2180  0.2830
  392MOL0     H54061   1.756  11.397   5.624 -0.5556 -1.1727 -0.0274
  392MOL0     H54062   1.655  11.237   5.417 -0.8876  2.3879 -0.5532
  392MOL0     H54063   1.647  11.115   5.551  0.3020 -0.5438  1.3333
  392MOL0     H54064   1.512  11.382   5.562  2.4954  0.3349  3.3820
  392MOL0     H54065   1.510  11.260   5.681 -1.9886  1.3408 -0.3807
  392MOL0     H54066   1.430  11.075   5.515  1.1031 -0.7444  0.3477
  392MOL0     H54067   1.396  11.205   5.403 -0.1668  0.0514  0.2284
  392MOL0     H54068   1.293  11.338   5.602  0.6673 -0.1504  1.4973
  392MOL0     H54069   1.198  11.222   5.503 -0.4602 -1.9656 -0.1985
  392MOL0     H54070   1.338  11.124   5.759 -0.5324 -1.4446  0.4102
  392MOL0     H54071   1.204  11.060   5.661  1.4938 -1.9582  2.5284
  392MOL0     H54072   1.084  11.276   5.709 -2.2774 -2.3484  0.3546
  392MOL0     H54073   1.210  11.314   5.841 -1.1928  0.5478 -1.4936
  392MOL0     H54074   1.017  11.230   5.943 -2.1639 -2.0743  0.1972
  392MOL0     H54075   1.146  11.118   5.973  0.2346  1.5453 -0.1547
  392MOL0     H54076   2.037  11.258   5.320  1.3981  0.6183 -0.6458
  392MOL0     H54077   2.239  11.398   5.304  0.9008  0.6467  1.3459
  392MOL0     H54078   2.586  11.554   5.527  0.1648  1.2062 -1.0851
  392MOL0     H54079   2.804  11.651   5.614 -0.7407 -0.7677 -1.2861
  392MOL0     H54080   4.101  11.538   5.112  0.1699  0.2027 -0.5496
  392MOL0     H54081   3.990  11.468   4.913  0.9653  0.7124 -0.1405
  392MOL0     H54082   3.731  11.417   4.623  0.8084  4.3467 -2.4015
  392MOL0     H54083   3.622  11.372   4.403 -0.7444  1.8259 -1.2086
  392MOL0     H54084   3.505  11.234   4.269 -0.9081  1.2707  1.5242
  392MOL0     H54085   3.360  11.249   4.173  0.4745 -2.1955 -0.7158
  392MOL0     H54086   3.509  11.370   4.051 -2.4564 -1.0039 -1.1227
  392MOL0     H54087   3.582  11.452   4.194 -1.0245 -0.3204  1.0421
  392MOL0     H54088   3.299  11.494   4.100  0.9126 -2.2476 -0.8828
  392MOL0     H54089   3.387  11.603   4.213 -0.7008 -1.2457  1.3003
  392MOL0     H54090   3.500  11.561   3.940  2.1344  0.4508  1.1204
  392MOL0     H54091   3.526  11.700   4.048  1.3460 -0.0238 -2.2712
  392MOL0     H54092   3.195  11.846   3.841 -2.3354 -1.6508  1.2320
  392MOL0     H54093   3.241  11.465   4.562  0.3412  1.1093  1.8146
  392MOL0     H54094   3.283  11.448   4.863  3.4680 -1.2092 -0.5813
  392MOL0     H54095   3.354  11.615   4.861 -0.5013 -0.3778  0.4743
  392MOL0     H54096   3.215  11.573   4.765 -0.1473  2.4387 -0.7447
  393MOL0     O54097  10.598   8.383   3.183 -0.4726 -0.2916 -0.5720
  393MOL0     C54098  10.555   8.311   3.105 -0.2936 -0.2637  0.6740
  393MOL0     O54099  10.618   8.253   2.999  0.3166 -0.2089  0.1900
  393MOL0     C54100  10.746   8.293   2.970 -0.6634  0.1150  0.8490
  393MOL0     C54101  10.839   8.188   2.941 -0.7759 -0.3582  0.4401
  393MOL0     C54102  10.972   8.223   2.909 -0.1903  0.1505  0.0171
  393MOL0     C54103  11.020   8.356   2.926 -1.3039 -0.0036 -0.0525
  393MOL0     O54104  11.154   8.391   2.902 -0.1288 -0.0867  0.5939
  393MOL0     C54105  11.211   8.501   2.971  0.6633  0.0493 -0.1424
  393MOL0     C54106  11.349   8.525   2.909  0.0078  0.9361 -0.5058
  393MOL0     C54107  11.465   8.447   2.986  0.2153  0.5007  1.0612
  393MOL0     C54108  11.483   8.489   3.125  0.7849  0.2948 -0.6422
  393MOL0     C54109  11.596   8.404   3.192  0.0565 -0.7088 -0.6133
  393MOL0     C54110  11.614   8.434   3.344  0.5915  0.3204 -0.3988
  393MOL0     C54111  11.739   8.371   3.414  1.0379 -0.9417  0.5327
  393MOL0     C54112  11.757   8.226   3.379 -0.5216 -0.5265  0.5188
  393MOL0     N54113  11.669   8.128   3.440  0.8075  0.1311 -0.1588
  393MOL0     C54114  11.655   8.105   3.571 -0.2176 -1.3702 -0.9213
  393MOL0     C54115  11.559   8.014   3.585  0.5596  0.4725 -0.0435
  393MOL0     C54116  11.497   7.976   3.715  0.6089  0.3048 -0.6454
  393MOL0     C54117  11.557   7.878   3.809 -0.0184  0.6090  0.1884
  393MOL0     C54118  11.573   7.732   3.753 -0.0870 -0.1407  1.2396
  393MOL0     C54119  11.642   7.713   3.620  0.3274  0.3707 -0.2421
  393MOL0     O54120  11.771   7.787   3.622 -0.8893 -0.4153 -0.7564
  393MOL0     C54121  11.846   7.837   3.521 -0.2329 -0.9391 -1.8672
  393MOL0     C54122  11.810   7.820   3.391 -0.7617 -0.5143 -0.8975
  393MOL0     C54123  11.870   7.904   3.289  0.2116 -0.9563  0.1115
  393MOL0     C54124  11.812   7.891   3.150 -0.5623 -0.4892 -1.0823
  393MOL0     C54125  11.977   7.993   3.322 -0.4516 -0.5154 -0.3896
  393MOL0     C54126  12.057   8.076   3.219 -0.7015  1.3835 -0.7155
  393MOL0     O54127  12.131   8.174   3.273  0.2031 -0.3591  0.3189
  393MOL0     C54128  12.206   8.269   3.203 -0.0334  0.6845  0.1924
  393MOL0     C54129  12.290   8.223   3.101 -0.6006  0.4297  0.4680
  393MOL0     C54130  12.387   8.307   3.039  0.3455  0.4984  0.4183
  393MOL0     C54131  12.388   8.445   3.062 -0.6064 -0.0275  0.0286
  393MOL0     O54132  12.469   8.520   2.985 -0.5618 -0.1882 -0.1135
  393MOL0     C54133  12.599   8.479   2.959 -0.1359  0.3823 -0.0459
  393MOL0     C54134  12.693   8.599   2.951 -0.9502 -0.1097 -0.1842
  393MOL0     C54135  12.751   8.657   3.084 -0.2099  0.5999  0.3566
  393MOL0     C54136  12.649   8.686   3.194  0.4759 -0.1565  0.4742
  393MOL0     C54137  12.691   8.773   3.309 -0.1518 -0.8106  0.1365
  393MOL0     C54138  12.823   8.736   3.357  0.9676 -0.2272 -0.1445
  393MOL0     C54139  12.856   8.789   3.496  0.4750  0.8307  0.4256
  393MOL0     C54140  12.836   8.940   3.523  0.0337  0.4256  0.5649
  393MOL0    Cl54141  12.880   8.986   3.701  0.2729  0.6361 -0.8263
  393MOL0     C54142  12.314   8.485   3.177  0.1092  0.2159 -0.5333
  393MOL0     C54143  12.231   8.400   3.244  0.3294 -0.2721  0.6363
  393MOL0     O54144  12.060   8.042   3.099  0.3969 -0.6822 -0.2622
  393MOL0     C54145  12.012   8.002   3.459 -0.3228  0.1335 -1.0304
  393MOL0     C54146  11.944   7.927   3.562 -0.4892 -0.5051 -0.6945
  393MOL0     N54147  11.507   7.997   3.465  0.0424 -0.4378  0.7817
  393MOL0     N54148  11.575   8.059   3.369 -0.1038  0.0985  0.1650
  393MOL0     C54149  10.926   8.450   2.958  0.1705  0.5434  0.7517
  393MOL0     C54150  10.794   8.421   2.975  0.4277 -0.5443  1.8507
  393MOL0     C54151  10.407   8.274   3.108  0.2500 -0.4940  0.0344
  393MOL0     C54152  10.363   8.175   3.026  0.7095  0.0782 -0.0005
  393MOL0     C54153  10.230   8.145   3.021  0.2216  0.7397  0.1269
  393MOL0     C54154  10.127   8.191   3.111 -1.2288 -0.2373  0.0899
  393MOL0     O54155   9.997   8.138   3.115 -0.1043  0.2412 -0.0944
  393MOL0     C54156   9.941   8.083   2.993  0.2585 -0.2290 -0.8987
  393MOL0     C54157   9.786   8.081   3.008 -0.6016 -0.5842 -0.7105
  393MOL0     C54158   9.718   8.021   2.895  0.4748 -0.2251  0.6139
  393MOL0     C54159   9.752   8.089   2.766 -0.2093  0.2105  0.1168
  393MOL0     C54160   9.704   8.006   2.659  0.1962  0.2932 -0.0271
  393MOL0     C54161   9.670   7.934   2.564 -0.5390  0.3450  0.4729
  393MOL0     C54162  10.179   8.283   3.205 -0.7492 -1.0961  0.7065
  393MOL0     C54163  10.319   8.334   3.198  0.1923 -0.3938 -0.2317
  393MOL0     C54164  10.342   8.443   3.298 -1.1447 -0.6057  0.5671
  393MOL0     H54165  10.798   8.087   2.936 -2.2951  0.2767 -0.5248
  393MOL0     H54166  11.031   8.146   2.860 -1.6719 -2.0237  1.4466
  393MOL0     H54167  11.213   8.492   3.080 -2.0889 -1.3556 -0.1276
  393MOL0     H54168  11.148   8.589   2.953  1.4847  0.9635  1.2385
  393MOL0     H54169  11.357   8.504   2.802  2.3724  1.0783 -0.4229
  393MOL0     H54170  11.376   8.631   2.916 -0.4207  1.3537 -3.8292
  393MOL0     H54171  11.461   8.338   2.974  2.4732  0.6373 -2.3273
  393MOL0     H54172  11.564   8.471   2.945  2.6235  0.7806  6.3146
  393MOL0     H54173  11.522   8.591   3.124  1.8258 -0.0957 -1.1800
  393MOL0     H54174  11.397   8.476   3.192  1.0143  3.4520  0.4254
  393MOL0     H54175  11.685   8.427   3.132 -0.4078  0.4381 -0.9003
  393MOL0     H54176  11.568   8.300   3.180  1.3031 -1.1532  0.0636
  393MOL0     H54177  11.604   8.543   3.346 -0.8049  0.2163 -0.9332
  393MOL0     H54178  11.530   8.404   3.406  0.9845  0.5248  0.2496
  393MOL0     H54179  11.739   8.388   3.522  0.2405  2.5857  0.0864
  393MOL0     H54180  11.826   8.418   3.367  0.0900 -1.6377 -2.1351
  393MOL0     H54181  11.754   8.211   3.271 -1.6092 -1.8562  0.6940
  393MOL0     H54182  11.858   8.201   3.413 -0.5174  0.4929  1.2918
  393MOL0     H54183  11.722   8.150   3.644 -0.4197  0.6637 -1.9400
  393MOL0     H54184  11.393   7.949   3.695  1.0063 -1.7279 -0.1997
  393MOL0     H54185  11.487   8.069   3.772 -4.5708 -0.0503 -0.5393
  393MOL0     H54186  11.648   7.923   3.849 -2.4722  2.8146  3.9408
  393MOL0     H54187  11.481   7.878   3.888  0.2161  0.2607  0.4154
  393MOL0     H54188  11.642   7.678   3.819  1.0619 -0.6415 -0.3086
  393MOL0     H54189  11.477   7.680   3.752 -1.5170  2.3344  1.2850
  393MOL0     H54190  11.663   7.606   3.607 -0.7357 -0.1377  1.7692
  393MOL0     H54191  11.576   7.750   3.542 -0.0091 -1.1282 -0.6985
  393MOL0     H54192  11.745   7.741   3.356 -3.1579  0.5993  0.8266
  393MOL0     H54193  11.746   7.804   3.155  0.8118 -1.5504 -1.0583
  393MOL0     H54194  11.894   7.873   3.080 -0.0204  1.4446 -0.9915
  393MOL0     H54195  11.762   7.983   3.118 -2.2124 -0.7892  0.4691
  393MOL0     H54196  12.286   8.120   3.066 -1.5493  0.6910 -0.2464
  393MOL0     H54197  12.447   8.256   2.964 -1.3678 -0.1848 -0.5359
  393MOL0     H54198  12.650   8.411   3.028 -0.2692  0.4744  0.1450
  393MOL0     H54199  12.590   8.425   2.864  0.7539  1.2050 -0.6121
  393MOL0     H54200  12.782   8.570   2.896 -0.2063  1.8084 -0.0646
  393MOL0     H54201  12.630   8.674   2.901 -1.1091  0.7292  1.2014
  393MOL0     H54202  12.807   8.750   3.072  4.0527 -1.7663 -0.1619
  393MOL0     H54203  12.826   8.588   3.124 -1.8747  1.9437  7.0212
  393MOL0     H54204  12.637   8.586   3.237  1.3439 -0.9711 -1.0931
  393MOL0     H54205  12.554   8.719   3.152  1.5001 -1.6650 -3.5267
  393MOL0     H54206  12.672   8.874   3.271 -2.1584 -0.9681  0.5922
  393MOL0     H54207  12.616   8.754   3.386 -0.9523 -0.4688 -0.5275
  393MOL0     H54208  12.890   8.768   3.277  2.2980  1.7467  1.6453
  393MOL0     H54209  12.822   8.627   3.361  1.0572 -0.2593 -0.8453
  393MOL0     H54210  12.955   8.759   3.530 -0.8430 -0.8997  3.1567
  393MOL0     H54211  12.787   8.741   3.567 -0.7673 -1.3750 -2.0995
  393MOL0     H54212  12.730   8.962   3.515 -1.3537 -5.3057 -1.0831
  393MOL0     H54213  12.907   8.996   3.461  0.2929 -0.5116  0.0019
  393MOL0     H54214  12.321   8.589   3.210 -1.8917  0.3501 -0.4319
  393MOL0     H54215  12.170   8.431   3.328  0.4256 -1.4074  1.1423
  393MOL0     H54216  12.094   8.068   3.487 -0.2557 -0.4537  0.1865
  393MOL0     H54217  11.988   7.934   3.661  2.1359  1.7973 -1.9025
  393MOL0     H54218  10.951   8.556   2.953  2.1200  0.1227 -5.1050
  393MOL0     H54219  10.725   8.504   2.982 -1.1764 -1.7135  0.6514
  393MOL0     H54220  10.432   8.125   2.959  0.8832 -1.3290  1.1884
  393MOL0     H54221  10.215   8.070   2.944  4.8179 -0.4943  0.0965
  393MOL0     H54222   9.978   8.142   2.909  0.5169 -0.2056 -0.7683
  393MOL0     H54223   9.983   7.985   2.968  1.8678  0.3433 -0.5762
  393MOL0     H54224   9.734   8.177   3.022 -3.0936 -2.0414  0.8944
  393MOL0     H54225   9.759   8.017   3.093 -1.3174 -0.3572 -0.7606
  393MOL0     H54226   9.760   7.920   2.891 -1.5279 -1.1904  1.9693
  393MOL0     H54227   9.609   8.014   2.903  0.4565 -0.0217  0.5351
  393MOL0     H54228   9.857   8.115   2.754 -0.0550 -1.5159 -4.0108
  393MOL0     H54229   9.690   8.179   2.764 -0.8551 -0.1350  2.1419
  393MOL0     H54230   9.617   7.871   2.496 -0.5694  1.9383 -1.0315
  393MOL0     H54231  10.108   8.315   3.280  0.6322  0.5179  1.3810
  393MOL0     H54232  10.357   8.537   3.242  3.6277  0.2241  2.7505
  393MOL0     H54233  10.273   8.446   3.382 -0.4431  0.6911  1.1443
  393MOL0     H54234  10.443   8.418   3.333  1.4156  2.8879 -3.2220
  394MOL0     O54235   9.409   7.560   8.139  0.0581  0.3246 -0.2510
  394MOL0     C54236   9.443   7.440   8.151 -0.7784 -0.2375  0.0241
  394MOL0     O54237   9.466   7.381   8.272  0.0159 -0.0461 -0.1344
  394MOL0     C54238   9.422   7.452   8.378 -0.6556 -0.1789 -0.5343
  394MOL0     C54239   9.480   7.580   8.414 -0.2067 -0.5781 -0.5733
  394MOL0     C54240   9.424   7.651   8.521 -1.3586  0.7463 -0.5729
  394MOL0     C54241   9.320   7.598   8.598 -0.4923 -0.3602  0.6516
  394MOL0     O54242   9.265   7.675   8.695  0.1684  0.2048  0.5302
  394MOL0     C54243   9.230   7.611   8.822  0.0235 -0.5147 -0.1852
  394MOL0     C54244   9.200   7.721   8.926  0.3189  0.1285  0.5367
  394MOL0     C54245   9.114   7.844   8.887  0.2919 -0.1110  0.1096
  394MOL0     C54246   8.971   7.813   8.862  0.4440 -0.1153 -0.8116
  394MOL0     C54247   8.882   7.931   8.925  0.0591 -0.1357 -0.0190
  394MOL0     C54248   8.887   8.054   8.832 -0.5551 -0.0281  1.1637
  394MOL0     C54249   8.802   8.176   8.875 -0.1119  0.1374  0.7378
  394MOL0     C54250   8.655   8.157   8.822  0.4376 -0.7252 -0.3950
  394MOL0     N54251   8.584   8.280   8.855  0.8562  0.3911  0.2105
  394MOL0     C54252   8.517   8.316   8.963  0.0593  0.5223 -0.0162
  394MOL0     C54253   8.479   8.445   8.937  0.5239  0.9057 -0.2623
  394MOL0     C54254   8.392   8.528   9.031  0.5305 -0.2299  0.2644
  394MOL0     C54255   8.474   8.637   9.100  0.5774  0.0467 -0.5408
  394MOL0     C54256   8.371   8.714   9.193 -0.8772 -0.2883 -0.3033
  394MOL0     C54257   8.274   8.798   9.118  0.7183 -1.0870 -0.6894
  394MOL0     O54258   8.335   8.908   9.061 -0.5827  0.8719  0.1590
  394MOL0     C54259   8.341   9.027   9.136 -1.3811  0.3448  0.3401
  394MOL0     C54260   8.225   9.086   9.183 -0.5741  0.4637 -0.1712
  394MOL0     C54261   8.240   9.215   9.250  0.1944  0.7576  0.3114
  394MOL0     C54262   8.122   9.298   9.297  1.1349  0.4028 -0.6505
  394MOL0     C54263   8.368   9.275   9.265  0.4438  0.3794 -0.9667
  394MOL0     C54264   8.393   9.396   9.346 -0.4554 -0.9829  0.9612
  394MOL0     O54265   8.490   9.467   9.292 -0.4427 -0.2006 -0.4933
  394MOL0     C54266   8.516   9.597   9.339 -0.2800  0.6935  0.5376
  394MOL0     C54267   8.539   9.692   9.238  0.9495 -0.3462  0.0642
  394MOL0     C54268   8.565   9.816   9.266  0.5465 -0.8246 -0.6235
  394MOL0     C54269   8.552   9.872   9.398 -0.1935 -0.4207 -0.0186
  394MOL0     O54270   8.584  10.006   9.428  0.0305 -0.4625  0.0863
  394MOL0     C54271   8.544  10.112   9.335  0.1915  0.7904 -0.4496
  394MOL0     C54272   8.410  10.179   9.382  0.2526  0.6834 -0.4591
  394MOL0     C54273   8.420  10.236   9.526 -0.7883 -0.4951 -0.1190
  394MOL0     C54274   8.298  10.309   9.565 -0.0660  0.2069  0.0483
  394MOL0     C54275   8.296  10.375   9.704 -0.4195  0.0849  0.7130
  394MOL0     C54276   8.175  10.472   9.721 -0.4551 -0.0682  0.8640
  394MOL0     C54277   8.191  10.529   9.862 -0.1460  0.5387  0.3429
  394MOL0     C54278   8.062  10.612   9.898 -1.4862 -0.2801  0.4732
  394MOL0    Cl54279   8.052  10.767   9.802 -0.8058 -0.7140  0.0899
  394MOL0     C54280   8.533   9.781   9.495  0.6992 -0.0293  0.8354
  394MOL0     C54281   8.524   9.641   9.466  0.0311  0.6219 -0.0371
  394MOL0     O54282   8.340   9.419   9.457 -0.2069  0.0099 -0.3913
  394MOL0     C54283   8.482   9.204   9.205  0.1232 -0.2069 -0.0038
  394MOL0     C54284   8.469   9.081   9.143 -0.5665 -0.2789  0.1778
  394MOL0     N54285   8.516   8.482   8.814 -1.1075  0.2455 -0.6949
  394MOL0     N54286   8.575   8.382   8.762 -0.2916  1.2945 -0.2327
  394MOL0     C54287   9.276   7.471   8.576  0.9219 -0.5181  0.2878
  394MOL0     C54288   9.325   7.401   8.460 -1.2358 -0.8245  0.1993
  394MOL0     C54289   9.473   7.361   8.022  0.1999  0.1989  0.2187
  394MOL0     C54290   9.562   7.253   8.040  0.6974  0.0665  0.5973
  394MOL0     C54291   9.593   7.170   7.932 -0.8449 -0.7163  0.2034
  394MOL0     C54292   9.550   7.192   7.811 -0.1592  0.5710  0.6088
  394MOL0     O54293   9.610   7.106   7.724 -0.6946  1.3426 -0.3004
  394MOL0     C54294   9.566   7.090   7.586 -0.2656  0.6023 -0.5937
  394MOL0     C54295   9.573   6.948   7.531  0.5588 -0.0927 -0.2701
  394MOL0     C54296   9.507   6.926   7.391  0.5702 -0.2874 -0.0792
  394MOL0     C54297   9.544   6.800   7.329 -1.4355  1.7362  0.1913
  394MOL0     C54298   9.689   6.786   7.289 -0.1215  0.4735  0.6745
  394MOL0     C54299   9.810   6.772   7.262  0.3963 -0.1217 -0.4234
  394MOL0     C54300   9.462   7.291   7.794  0.1173 -0.0982  1.1301
  394MOL0     C54301   9.412   7.375   7.895  0.1314  0.2752 -0.2220
  394MOL0     C54302   9.295   7.468   7.869 -0.7199 -0.2679 -0.3527
  394MOL0     H54303   9.560   7.621   8.355  1.7317 -1.4458  1.3028
  394MOL0     H54304   9.459   7.752   8.541  2.7101 -0.5391 -0.2406
  394MOL0     H54305   9.316   7.551   8.854  0.4193  0.2855  0.2583
  394MOL0     H54306   9.148   7.538   8.822  0.0756 -0.5729 -0.0872
  394MOL0     H54307   9.137   7.676   9.003 -1.5226 -0.4784 -1.2429
  394MOL0     H54308   9.295   7.764   8.960  1.4486  0.3593 -2.6281
  394MOL0     H54309   9.109   7.905   8.978 -2.2148  0.0957 -0.0995
  394MOL0     H54310   9.154   7.896   8.799 -0.8166 -0.0636 -0.3885
  394MOL0     H54311   8.952   7.806   8.755  1.7856  1.4291 -1.1855
  394MOL0     H54312   8.948   7.721   8.918  1.1819 -0.3324 -0.8571
  394MOL0     H54313   8.916   7.954   9.026 -1.7236  1.1393  0.3355
  394MOL0     H54314   8.780   7.893   8.936  0.7794 -2.4720 -0.6554
  394MOL0     H54315   8.989   8.093   8.825 -0.8346  0.6606  0.8447
  394MOL0     H54316   8.872   8.015   8.731  0.2191 -1.4698  1.5807
  394MOL0     H54317   8.841   8.264   8.823 -2.3122 -0.8623 -2.9918
  394MOL0     H54318   8.811   8.199   8.981 -2.9376  1.1818  0.8286
  394MOL0     H54319   8.643   8.143   8.714  3.2351 -1.1507 -0.7361
  394MOL0     H54320   8.609   8.070   8.869 -2.2815 -0.4815 -2.3515
  394MOL0     H54321   8.485   8.259   9.050 -0.0644  3.1139  1.7386
  394MOL0     H54322   8.348   8.463   9.107 -2.7195  0.1328 -1.1102
  394MOL0     H54323   8.302   8.560   8.977 -1.2324 -3.2318  1.1716
  394MOL0     H54324   8.549   8.596   9.167 -0.9316 -0.0366  1.1834
  394MOL0     H54325   8.522   8.697   9.022 -0.3379 -0.1244 -1.2506
  394MOL0     H54326   8.318   8.647   9.260 -1.6264  0.1782 -0.4178
  394MOL0     H54327   8.438   8.772   9.259  2.0278 -4.4667  0.8585
  394MOL0     H54328   8.205   8.747   9.050  1.6178 -3.9044  0.3766
  394MOL0     H54329   8.201   8.829   9.193  0.0132 -0.3614 -1.6547
  394MOL0     H54330   8.132   9.032   9.187  0.1456 -0.7858  0.1891
  394MOL0     H54331   8.126   9.407   9.291 -2.1203  0.8762  2.3919
  394MOL0     H54332   8.092   9.267   9.397 -0.6743  3.9003  0.0503
  394MOL0     H54333   8.048   9.264   9.224  0.2234  2.7925 -0.9381
  394MOL0     H54334   8.543   9.676   9.131  0.2169  1.3829 -0.2576
  394MOL0     H54335   8.577   9.887   9.185  0.3931  2.2025  1.8257
  394MOL0     H54336   8.621  10.189   9.327  0.0067  0.9439 -0.7831
  394MOL0     H54337   8.523  10.079   9.233 -2.6211  1.5019 -0.1930
  394MOL0     H54338   8.384  10.261   9.315 -0.1266  0.0199 -1.1328
  394MOL0     H54339   8.325  10.109   9.384 -0.3077  1.3536  1.3495
  394MOL0     H54340   8.509  10.300   9.536 -2.1368  1.2376  1.7374
  394MOL0     H54341   8.432  10.148   9.589  0.8972 -0.6903 -0.6475
  394MOL0     H54342   8.208  10.254   9.537  0.0032  0.5788 -0.9682
  394MOL0     H54343   8.296  10.387   9.487  1.3768 -0.3401 -0.5568
  394MOL0     H54344   8.291  10.294   9.777 -2.1221 -1.0481 -0.5892
  394MOL0     H54345   8.397  10.416   9.718  0.0760 -1.7896  3.3110
  394MOL0     H54346   8.083  10.416   9.701 -0.2193 -0.0740 -0.3042
  394MOL0     H54347   8.179  10.550   9.644  1.0106 -3.3946 -2.7526
  394MOL0     H54348   8.277  10.596   9.860 -0.3378  0.7632 -1.1188
  394MOL0     H54349   8.211  10.450   9.935  4.1666  0.2157 -0.9185
  394MOL0     H54350   8.067  10.631  10.006  2.1987  0.7763  0.2418
  394MOL0     H54351   7.977  10.544   9.883 -1.3706 -0.5901  1.1679
  394MOL0     H54352   8.536   9.824   9.594  1.6719 -2.0559  1.7574
  394MOL0     H54353   8.518   9.563   9.541  1.3177 -1.7007 -2.2266
  394MOL0     H54354   8.581   9.244   9.223  0.7261 -0.8187 -1.7446
  394MOL0     H54355   8.557   9.031   9.105  1.4915  2.1827  1.3940
  394MOL0     H54356   9.190   7.439   8.634 -1.6992  4.7613 -0.0637
  394MOL0     H54357   9.287   7.302   8.434 -0.5763 -1.2247  0.7514
  394MOL0     H54358   9.612   7.229   8.133  3.9977 -2.1396 -1.4959
  394MOL0     H54359   9.675   7.104   7.959 -0.8426  0.2646  2.9120
  394MOL0     H54360   9.461   7.119   7.585  0.5427  4.1163  0.9233
  394MOL0     H54361   9.631   7.150   7.521  0.5662 -1.0372 -1.3228
  394MOL0     H54362   9.541   6.868   7.597 -0.9966 -1.0324 -2.0572
  394MOL0     H54363   9.680   6.932   7.513  0.3636 -0.3249 -1.2833
  394MOL0     H54364   9.398   6.928   7.398  0.3832  2.8009 -1.7386
  394MOL0     H54365   9.510   7.015   7.327 -1.7365  2.0494  2.8004
  394MOL0     H54366   9.482   6.806   7.239 -3.3848  0.0270  1.3473
  394MOL0     H54367   9.517   6.715   7.392  0.2315 -0.5239 -1.9272
  394MOL0     H54368   9.907   6.774   7.218  0.7479 -0.5693  0.3146
  394MOL0     H54369   9.415   7.303   7.697 -0.3012  3.5195  1.6391
  394MOL0     H54370   9.229   7.434   7.789 -3.3536  0.2833  1.4458
  394MOL0     H54371   9.237   7.465   7.962  1.4308 -0.5460  1.0608
  394MOL0     H54372   9.333   7.570   7.856 -1.4181  0.3077  1.7818
  395MOL0     O54373   3.607   6.348   8.715 -0.2618  0.1609 -0.5257
  395MOL0     C54374   3.683   6.440   8.732 -1.0537 -1.0168 -0.4631
  395MOL0     O54375   3.693   6.520   8.840 -0.1441  0.1183  0.2344
  395MOL0     C54376   3.588   6.519   8.932 -1.1102  0.3171  0.1809
  395MOL0     C54377   3.586   6.426   9.033 -0.5655 -0.2208  0.3833
  395MOL0     C54378   3.497   6.435   9.137 -0.5889 -0.1405 -0.5738
  395MOL0     C54379   3.395   6.528   9.144 -0.1055  0.0232  0.2396
  395MOL0     O54380   3.311   6.546   9.250 -0.0463  0.0928  0.7007
  395MOL0     C54381   3.334   6.462   9.364 -0.1853 -0.3855  0.0090
  395MOL0     C54382   3.271   6.323   9.348 -0.7197  0.4383  0.5473
  395MOL0     C54383   3.122   6.320   9.363  0.4379 -0.3269  0.0795
  395MOL0     C54384   3.084   6.230   9.475  1.1569  0.2335 -0.0070
  395MOL0     C54385   2.955   6.266   9.540 -0.5291 -0.2917  0.1133
  395MOL0     C54386   2.910   6.167   9.640  0.2090  1.3438  0.2330
  395MOL0     C54387   2.975   6.190   9.785 -1.2719 -0.5480  0.4554
  395MOL0     C54388   2.974   6.075   9.878 -0.6374 -0.5042  0.6476
  395MOL0     N54389   2.838   6.026   9.911  0.7085 -0.1404  0.3748
  395MOL0     C54390   2.811   5.902   9.968 -0.3036 -0.6168  0.1629
  395MOL0     C54391   2.694   5.915  10.030  0.3318  0.0193 -0.1462
  395MOL0     C54392   2.636   5.802  10.117 -0.4827 -0.2631  0.0661
  395MOL0     C54393   2.617   5.668  10.035 -0.2760  1.1055  0.1640
  395MOL0     C54394   2.491   5.673   9.940  0.8258 -0.2364  0.4216
  395MOL0     C54395   2.518   5.734   9.800  0.1731 -0.0258  0.6711
  395MOL0     O54396   2.556   5.620   9.733  0.8683  0.7170 -1.2252
  395MOL0     C54397   2.570   5.640   9.592  0.2384  0.2277 -0.4227
  395MOL0     C54398   2.685   5.694   9.540  0.5242  0.4320 -0.3401
  395MOL0     C54399   2.690   5.701   9.386  0.1754 -0.6470 -0.2463
  395MOL0     C54400   2.805   5.778   9.331 -0.6256  0.0922 -0.0755
  395MOL0     C54401   2.584   5.657   9.308  0.6757  0.3182  0.9504
  395MOL0     C54402   2.587   5.652   9.158 -0.3539 -0.0261  0.2841
  395MOL0     O54403   2.647   5.743   9.086  0.0908  0.2766  0.7287
  395MOL0     C54404   2.631   5.733   8.950  0.2640 -0.3165  0.5788
  395MOL0     C54405   2.700   5.636   8.884 -0.1577 -0.9412  0.3781
  395MOL0     C54406   2.697   5.629   8.742 -1.1181  0.7960 -0.4205
  395MOL0     C54407   2.614   5.715   8.665  0.1878  0.0984  0.7045
  395MOL0     O54408   2.622   5.720   8.527 -0.1663  0.3296 -0.3367
  395MOL0     C54409   2.676   5.604   8.451 -0.5539  0.3094 -0.0962
  395MOL0     C54410   2.622   5.621   8.309  0.1502 -0.2750  0.3702
  395MOL0     C54411   2.728   5.613   8.206  0.1994 -1.1294  0.1433
  395MOL0     C54412   2.696   5.694   8.076 -1.5958  0.5459  0.9524
  395MOL0     C54413   2.821   5.654   7.984  0.7173  0.1327 -0.0320
  395MOL0     C54414   2.836   5.751   7.860  0.9263 -0.8458 -0.7795
  395MOL0     C54415   2.720   5.774   7.761  0.9987  0.4235 -0.6410
  395MOL0     C54416   2.761   5.852   7.632  0.0988 -0.3872 -0.2278
  395MOL0    Cl54417   2.798   6.019   7.654  0.1571 -0.0277  0.0814
  395MOL0     C54418   2.540   5.810   8.731  0.3891  0.2250 -1.0459
  395MOL0     C54419   2.546   5.818   8.871  0.0034  0.8188 -0.4735
  395MOL0     O54420   2.520   5.561   9.115  0.3078  0.2062  0.3346
  395MOL0     C54421   2.468   5.622   9.375  0.1837 -0.4823 -0.0560
  395MOL0     C54422   2.458   5.616   9.517  0.0946  0.7894  1.0470
  395MOL0     N54423   2.645   6.047  10.013  0.6964 -0.0626 -0.1050
  395MOL0     N54424   2.731   6.107   9.934  0.3998 -0.3501 -0.1007
  395MOL0     C54425   3.377   6.600   9.016  1.0048  0.3589 -0.9497
  395MOL0     C54426   3.483   6.604   8.917  0.2878  1.3567  0.7949
  395MOL0     C54427   3.791   6.457   8.625  0.5650  0.4730 -0.2268
  395MOL0     C54428   3.747   6.462   8.495  0.4018  0.6757  0.2011
  395MOL0     C54429   3.830   6.495   8.389 -0.4328 -0.1146  0.2483
  395MOL0     C54430   3.969   6.506   8.408  0.0561 -0.2387  0.9692
  395MOL0     O54431   4.043   6.526   8.293  0.1756  0.2535 -0.3535
  395MOL0     C54432   4.192   6.511   8.291  1.0080 -0.1341  0.1907
  395MOL0     C54433   4.275   6.638   8.331 -0.4121 -1.2600  0.5295
  395MOL0     C54434   4.214   6.768   8.277 -0.4434 -0.7925  0.3136
  395MOL0     C54435   4.303   6.889   8.294 -1.3889  0.3251  0.2109
  395MOL0     C54436   4.389   6.893   8.411  0.2492 -0.5128  0.5389
  395MOL0     C54437   4.469   6.908   8.500 -0.6875 -0.1364 -0.3580
  395MOL0     C54438   4.020   6.509   8.539 -0.1265  0.4460  0.5669
  395MOL0     C54439   3.926   6.484   8.650 -0.0906  1.4828  0.3218
  395MOL0     C54440   3.983   6.470   8.788 -0.0550 -0.6091  0.5921
  395MOL0     H54441   3.658   6.346   9.043  0.1114  0.5022  1.5169
  395MOL0     H54442   3.498   6.353   9.208 -0.8455 -0.9947 -1.5274
  395MOL0     H54443   3.286   6.501   9.454 -1.7271  0.9480 -1.3290
  395MOL0     H54444   3.439   6.463   9.393 -0.5896 -0.2092  1.5675
  395MOL0     H54445   3.300   6.284   9.250  1.5408  1.7122  0.6267
  395MOL0     H54446   3.324   6.252   9.411  0.0505  0.6212  0.1193
  395MOL0     H54447   3.080   6.414   9.398 -2.7531 -1.5236 -0.2296
  395MOL0     H54448   3.079   6.289   9.268 -0.7987 -0.8883  0.7914
  395MOL0     H54449   3.079   6.129   9.434  1.3365 -0.3057  1.2428
  395MOL0     H54450   3.164   6.234   9.550  0.2692  1.3842  0.9223
  395MOL0     H54451   2.872   6.277   9.470  0.1851 -4.4089 -1.6308
  395MOL0     H54452   2.960   6.364   9.588  1.9310 -0.7374  0.9157
  395MOL0     H54453   2.801   6.172   9.645  0.1614  2.0811 -0.9946
  395MOL0     H54454   2.924   6.065   9.603  0.4151  1.9263 -1.4290
  395MOL0     H54455   2.941   6.279   9.839 -1.7002 -2.2898  3.2567
  395MOL0     H54456   3.082   6.211   9.774 -1.6115  0.5363 -1.1321
  395MOL0     H54457   3.039   5.997   9.835  2.6451  2.2581  0.1648
  395MOL0     H54458   3.025   6.103   9.971  2.0027 -2.1447 -0.1982
  395MOL0     H54459   2.887   5.826   9.985 -0.9581 -1.2736  0.1726
  395MOL0     H54460   2.534   5.830  10.146  0.1557  0.0825  2.1168
  395MOL0     H54461   2.700   5.783  10.203  1.8283  3.1872 -0.6875
  395MOL0     H54462   2.715   5.643   9.993  1.5141  0.7957  4.0918
  395MOL0     H54463   2.603   5.587  10.106 -1.8346 -0.2789 -1.6302
  395MOL0     H54464   2.461   5.568   9.930 -0.0357  0.1113 -0.8323
  395MOL0     H54465   2.408   5.734   9.979  2.0784  3.1178 -1.7148
  395MOL0     H54466   2.425   5.764   9.753  1.4431 -0.8509 -2.6680
  395MOL0     H54467   2.592   5.815   9.805  1.3879 -1.1386  1.5030
  395MOL0     H54468   2.777   5.715   9.593  0.5181  2.8609 -1.1440
  395MOL0     H54469   2.874   5.802   9.412  2.4984 -1.8652 -1.9513
  395MOL0     H54470   2.762   5.874   9.300  1.6339  0.7567 -1.3957
  395MOL0     H54471   2.857   5.735   9.245 -2.9308 -2.0073 -0.5274
  395MOL0     H54472   2.772   5.586   8.947  2.8482  1.9327 -0.5029
  395MOL0     H54473   2.768   5.561   8.697 -2.6734 -1.3548  0.1787
  395MOL0     H54474   2.785   5.619   8.452 -0.4543 -0.4001  0.1465
  395MOL0     H54475   2.651   5.506   8.493 -0.1529 -0.8237 -2.3658
  395MOL0     H54476   2.549   5.541   8.292  1.3325 -0.9872 -1.7155
  395MOL0     H54477   2.567   5.715   8.310  0.2930 -0.0830  4.0504
  395MOL0     H54478   2.757   5.510   8.183  1.0998 -1.3005  1.9013
  395MOL0     H54479   2.815   5.659   8.254  0.8790 -0.4736 -1.6220
  395MOL0     H54480   2.698   5.801   8.097 -1.5430  0.9762 -1.0581
  395MOL0     H54481   2.597   5.667   8.038 -2.4292  0.2525  3.1627
  395MOL0     H54482   2.919   5.652   8.033  1.0247  0.2631 -0.6225
  395MOL0     H54483   2.801   5.556   7.941 -4.3576  1.3496 -1.1380
  395MOL0     H54484   2.924   5.725   7.800  0.3171 -1.6716 -1.3442
  395MOL0     H54485   2.866   5.847   7.903 -0.0893 -1.5328  1.6203
  395MOL0     H54486   2.629   5.814   7.806 -1.3293  0.8406 -5.1246
  395MOL0     H54487   2.678   5.680   7.722  2.5317 -0.5747  0.0204
  395MOL0     H54488   2.679   5.838   7.561 -0.0015 -1.5905  0.0971
  395MOL0     H54489   2.849   5.801   7.592  1.1482 -0.2169  1.7104
  395MOL0     H54490   2.486   5.886   8.675 -2.2549 -0.2686  0.6323
  395MOL0     H54491   2.486   5.874   8.942 -2.4746 -1.2664 -0.8078
  395MOL0     H54492   2.372   5.603   9.329 -0.5756  1.3337  0.6877
  395MOL0     H54493   2.364   5.581   9.558  0.3159  1.1994  1.9378
  395MOL0     H54494   3.290   6.664   9.010  0.4172 -0.1024  1.7880
  395MOL0     H54495   3.485   6.671   8.832 -0.2914  1.1171  0.5868
  395MOL0     H54496   3.642   6.443   8.475  0.0201  2.3620  0.4192
  395MOL0     H54497   3.793   6.497   8.287 -0.5655 -0.5534  0.2868
  395MOL0     H54498   4.220   6.436   8.366  4.3174 -0.9676 -1.6849
  395MOL0     H54499   4.229   6.462   8.201  1.6814 -1.7406  1.2915
  395MOL0     H54500   4.378   6.628   8.294 -1.1446  1.8499 -2.9546
  395MOL0     H54501   4.272   6.641   8.440 -1.2544  1.9218  0.5349
  395MOL0     H54502   4.192   6.772   8.170  1.1873  0.3039 -0.0184
  395MOL0     H54503   4.123   6.791   8.333 -1.5828 -1.2677 -1.2927
  395MOL0     H54504   4.242   6.978   8.312  1.1271  2.0124  0.8492
  395MOL0     H54505   4.359   6.900   8.200 -1.5611 -1.2859 -0.1097
  395MOL0     H54506   4.530   6.912   8.588 -1.0276 -0.2595 -0.1103
  395MOL0     H54507   4.124   6.520   8.566  0.0428  1.0016 -0.2884
  395MOL0     H54508   3.958   6.560   8.843  1.8298  0.0070  0.4807
  395MOL0     H54509   3.943   6.381   8.839 -1.3422  0.8641  2.2841
  395MOL0     H54510   4.092   6.472   8.788 -0.0491  0.3201 -0.5883
  396MOL0     O54511   9.207   9.077   5.212 -0.7466  0.5710 -0.0873
  396MOL0     C54512   9.088   9.071   5.214  0.8869 -0.0549  0.5139
  396MOL0     O54513   9.009   9.043   5.102 -0.4899  0.3579 -0.5464
  396MOL0     C54514   9.061   9.048   4.977 -1.4398 -0.2719  0.1124
  396MOL0     C54515   9.097   9.160   4.897  0.6920 -0.6792 -0.1324
  396MOL0     C54516   9.133   9.145   4.763 -0.1485  0.1086  0.4017
  396MOL0     C54517   9.136   9.020   4.694 -0.3606  0.0233 -0.9704
  396MOL0     O54518   9.149   8.981   4.562 -0.1550 -0.2233 -1.1388
  396MOL0     C54519   9.265   9.036   4.507 -0.1311  0.9727  0.4948
  396MOL0     C54520   9.250   9.171   4.437 -0.5667  0.7302 -0.0069
  396MOL0     C54521   9.146   9.175   4.318 -0.6781  0.0046 -0.7271
  396MOL0     C54522   9.112   9.309   4.297  0.1909 -0.0314 -0.4398
  396MOL0     C54523   9.020   9.316   4.176  0.6392 -0.3388 -0.5587
  396MOL0     C54524   8.953   9.459   4.153 -0.6162  0.1950  0.3550
  396MOL0     C54525   8.885   9.452   4.011 -0.2599 -0.1686 -0.3068
  396MOL0     C54526   8.855   9.598   3.967 -0.2990  0.5635  0.3552
  396MOL0     N54527   8.970   9.664   3.910  0.1054 -0.1047 -0.4327
  396MOL0     C54528   8.984   9.799   3.930  0.4762 -0.2971  0.4782
  396MOL0     C54529   9.078   9.831   3.835  0.0791  0.5725  0.6616
  396MOL0     C54530   9.131   9.971   3.827  0.6083 -0.8682  1.4478
  396MOL0     C54531   9.026  10.076   3.770 -0.2583  0.2422 -0.5367
  396MOL0     C54532   9.073  10.222   3.768 -0.3491 -0.2400 -0.0263
  396MOL0     C54533   8.985  10.319   3.692  0.4036  0.8638  0.1396
  396MOL0     O54534   8.838  10.301   3.709  0.1924  0.0573 -0.0374
  396MOL0     C54535   8.748  10.383   3.645 -0.1425  0.8460 -0.9665
  396MOL0     C54536   8.773  10.502   3.589  0.7582 -0.6589  0.6115
  396MOL0     C54537   8.678  10.587   3.530  0.0218 -0.3981  1.1573
  396MOL0     C54538   8.734  10.710   3.474 -0.2778  0.5887  0.0700
  396MOL0     C54539   8.546  10.547   3.532  0.2099  0.0879  0.1973
  396MOL0     C54540   8.423  10.624   3.497 -0.2033  0.5596 -0.6327
  396MOL0     O54541   8.448  10.752   3.457 -0.1849  0.2333 -0.1914
  396MOL0     C54542   8.340  10.822   3.416 -0.8605  0.6321 -0.3661
  396MOL0     C54543   8.281  10.902   3.518 -0.9621  0.1273 -0.6518
  396MOL0     C54544   8.169  10.989   3.486 -0.1601  0.2738 -0.4825
  396MOL0     C54545   8.127  11.002   3.353 -0.3602 -0.6974 -0.5034
  396MOL0     O54546   8.026  11.094   3.340  0.5924 -0.3254 -0.3598
  396MOL0     C54547   8.017  11.162   3.218  0.3010  0.0007 -1.0629
  396MOL0     C54548   7.976  11.312   3.254  0.5367  0.2610  0.1449
  396MOL0     C54549   7.987  11.394   3.128  0.0891 -0.3205  0.6650
  396MOL0     C54550   7.951  11.544   3.149  0.1145  0.7709  0.4904
  396MOL0     C54551   7.898  11.614   3.021  0.2821 -0.1836 -0.7085
  396MOL0     C54552   7.837  11.754   3.037 -0.1570  0.7932  0.3951
  396MOL0     C54553   7.947  11.859   3.006  0.2417  0.0737 -0.8713
  396MOL0     C54554   7.921  11.990   3.078  0.5294 -1.2365  0.2244
  396MOL0    Cl54555   7.732  12.024   3.075  0.4778  0.5918  0.1310
  396MOL0     C54556   8.188  10.935   3.252 -0.5604  0.0385 -0.4974
  396MOL0     C54557   8.290  10.843   3.286 -0.5823 -0.7960  0.0679
  396MOL0     O54558   8.321  10.562   3.491 -0.3906  0.2387  0.4407
  396MOL0     C54559   8.521  10.416   3.591 -0.5469  0.1659 -0.5410
  396MOL0     C54560   8.619  10.339   3.655  0.1355  0.4502 -0.4822
  396MOL0     N54561   9.124   9.721   3.765  1.1435  0.0883 -0.3140
  396MOL0     N54562   9.050   9.619   3.813 -0.3809  0.5399  0.7918
  396MOL0     C54563   9.107   8.910   4.781 -0.0243  0.0419 -0.0014
  396MOL0     C54564   9.077   8.923   4.917 -0.2037 -0.5689 -0.1431
  396MOL0     C54565   9.013   9.097   5.335 -0.4360  0.3636  0.0371
  396MOL0     C54566   8.874   9.058   5.342 -0.0738 -0.4878 -0.1775
  396MOL0     C54567   8.798   9.082   5.456  0.3319  0.1349 -0.1038
  396MOL0     C54568   8.865   9.138   5.572  0.2891  0.3456 -0.6438
  396MOL0     O54569   8.792   9.169   5.687 -0.0458  1.6361  0.1060
  396MOL0     C54570   8.695   9.073   5.736 -0.4548 -0.9544 -0.7550
  396MOL0     C54571   8.584   9.154   5.807  0.4891  0.9360 -0.1185
  396MOL0     C54572   8.482   9.201   5.718 -0.6489 -0.0738  0.4870
  396MOL0     C54573   8.378   9.286   5.769  0.4164 -0.4426  0.8891
  396MOL0     C54574   8.430   9.422   5.787 -0.3356 -0.0858 -0.9713
  396MOL0     C54575   8.448   9.540   5.795  0.4802 -0.4590  0.1471
  396MOL0     C54576   8.998   9.178   5.566  0.3133  0.4509  0.5726
  396MOL0     C54577   9.074   9.141   5.456  0.0601  0.2523  0.5044
  396MOL0     C54578   9.214   9.167   5.478 -0.7253 -0.6355 -0.1422
  396MOL0     H54579   9.097   9.256   4.948 -2.3081 -0.7326  0.1967
  396MOL0     H54580   9.152   9.235   4.705 -0.7805  0.7207  1.1103
  396MOL0     H54581   9.312   8.961   4.443  1.3883  3.0326 -0.9646
  396MOL0     H54582   9.347   9.052   4.579  2.0871 -1.4852 -1.2974
  396MOL0     H54583   9.231   9.243   4.516  0.9982 -1.3240  2.4037
  396MOL0     H54584   9.352   9.192   4.401  0.2584 -0.2114  1.6561
  396MOL0     H54585   9.200   9.139   4.230 -0.6944 -2.1602  0.0774
  396MOL0     H54586   9.058   9.112   4.334  0.5762 -1.8289 -0.7151
  396MOL0     H54587   9.074   9.339   4.395  1.8672  2.0957 -0.3651
  396MOL0     H54588   9.195   9.378   4.280 -0.7146  1.0165 -0.7422
  396MOL0     H54589   8.948   9.235   4.192  2.9041 -1.8432  3.2339
  396MOL0     H54590   9.077   9.292   4.086  1.1517 -0.4754 -0.2028
  396MOL0     H54591   8.869   9.476   4.221 -1.4692  4.5630 -1.4388
  396MOL0     H54592   9.019   9.546   4.149 -2.6813  1.7859 -0.5713
  396MOL0     H54593   8.799   9.385   4.020  1.1453 -1.8578  1.7789
  396MOL0     H54594   8.959   9.405   3.945  0.8921  1.7328 -0.4419
  396MOL0     H54595   8.779   9.586   3.889  0.2773  1.7276 -0.4118
  396MOL0     H54596   8.808   9.654   4.048 -4.2357 -2.0075  0.1417
  396MOL0     H54597   8.933   9.874   3.990  0.9544  4.0095 -3.8922
  396MOL0     H54598   9.221   9.977   3.765  0.6409  0.8356  1.6061
  396MOL0     H54599   9.176  10.011   3.919  3.2275  1.7599 -0.7648
  396MOL0     H54600   9.002  10.039   3.670  0.7680  2.4617 -1.6774
  396MOL0     H54601   8.934  10.070   3.830 -2.2837  2.8305 -3.1205
  396MOL0     H54602   9.083  10.259   3.870 -4.4937  0.6895  0.2102
  396MOL0     H54603   9.171  10.222   3.718  0.0779 -1.2693  0.7753
  396MOL0     H54604   9.025  10.420   3.706 -0.1524  1.1525 -0.3359
  396MOL0     H54605   9.008  10.300   3.586  0.0443  1.1072  0.0203
  396MOL0     H54606   8.873  10.544   3.595 -0.0083  1.1310  1.6129
  396MOL0     H54607   8.836  10.740   3.502 -0.7792  1.9325  0.5593
  396MOL0     H54608   8.674  10.790   3.520  0.2335  4.3612 -4.9512
  396MOL0     H54609   8.721  10.715   3.366  0.9794 -3.2575 -0.4141
  396MOL0     H54610   8.326  10.893   3.617 -0.1038 -1.3825 -1.1581
  396MOL0     H54611   8.115  11.035   3.568  0.6249  2.2698 -1.0327
  396MOL0     H54612   8.105  11.155   3.154  0.5518  0.0541 -0.7238
  396MOL0     H54613   7.930  11.116   3.170 -0.6597  1.3858 -0.7096
  396MOL0     H54614   7.885  11.327   3.313  1.1039 -1.4956  1.5378
  396MOL0     H54615   8.057  11.353   3.314  2.2047  0.3382 -2.0359
  396MOL0     H54616   7.915  11.358   3.053 -0.7549  0.5788  1.0207
  396MOL0     H54617   8.083  11.381   3.077 -0.3356 -4.6095  0.6259
  396MOL0     H54618   8.034  11.594   3.201  1.4190 -2.5171  1.8676
  396MOL0     H54619   7.869  11.555   3.220 -1.7097  0.5302 -1.4875
  396MOL0     H54620   7.979  11.613   2.947  2.9781  0.0769  2.0239
  396MOL0     H54621   7.818  11.552   2.981 -0.3324  0.0536  0.1293
  396MOL0     H54622   7.803  11.751   3.141 -0.0829 -0.2817  0.3945
  396MOL0     H54623   7.745  11.757   2.977  1.9188 -0.9526 -3.2268
  396MOL0     H54624   7.943  11.880   2.899  1.5437  1.1124 -0.7391
  396MOL0     H54625   8.043  11.821   3.042 -0.2382  0.8117  1.3279
  396MOL0     H54626   7.976  12.067   3.023  0.3538 -1.2073  0.0899
  396MOL0     H54627   7.948  11.992   3.184 -3.0612  1.6108  1.3336
  396MOL0     H54628   8.163  10.963   3.150 -1.5486  3.3865  0.5406
  396MOL0     H54629   8.341  10.799   3.200 -1.3177  0.9074 -1.3062
  396MOL0     H54630   8.419  10.380   3.590 -0.8726  0.4487  3.8200
  396MOL0     H54631   8.601  10.240   3.695  3.1906 -1.1532 -2.7051
  396MOL0     H54632   9.105   8.816   4.726 -0.6624 -0.6411  1.1507
  396MOL0     H54633   9.047   8.834   4.971  0.7037 -2.6404 -2.8364
  396MOL0     H54634   8.825   9.003   5.263  2.7791 -1.0177 -1.7224
  396MOL0     H54635   8.692   9.059   5.452  0.2427 -0.1233  2.4635
  396MOL0     H54636   8.665   9.006   5.656  1.2701 -0.4904 -1.8522
  396MOL0     H54637   8.754   9.018   5.810 -0.6422  0.6731  0.6634
  396MOL0     H54638   8.648   9.225   5.862  2.9905 -1.9169  0.9681
  396MOL0     H54639   8.524   9.105   5.885 -1.2510  2.2639 -0.5536
  396MOL0     H54640   8.536   9.256   5.640 -0.4845 -0.7612  0.1077
  396MOL0     H54641   8.422   9.127   5.665 -2.2867  2.7671 -2.0145
  396MOL0     H54642   8.325   9.243   5.854 -1.4358  1.8405  0.9778
  396MOL0     H54643   8.302   9.297   5.691  0.0987 -1.0366  1.1067
  396MOL0     H54644   8.459   9.646   5.802 -0.0407 -0.4946  2.0810
  396MOL0     H54645   9.041   9.230   5.651 -2.1018  1.8498  1.0426
  396MOL0     H54646   9.247   9.212   5.571  0.1693  0.4190 -0.9395
  396MOL0     H54647   9.264   9.070   5.478 -3.1665 -2.0343  2.6965
  396MOL0     H54648   9.252   9.243   5.409 -0.6205 -1.4706 -1.0220
  397MOL0     O54649   1.091   6.093   8.127 -1.2593  0.5641 -0.9058
  397MOL0     C54650   0.980   6.090   8.082 -0.7864 -0.8116 -0.8758
  397MOL0     O54651   0.896   6.200   8.079  0.6738 -0.0856  0.5028
  397MOL0     C54652   0.952   6.317   8.065 -0.6769 -0.6249  0.1549
  397MOL0     C54653   0.950   6.413   8.166  0.4767 -0.5934  0.2736
  397MOL0     C54654   1.020   6.533   8.148 -0.4584 -0.8961 -0.5728
  397MOL0     C54655   1.067   6.574   8.023 -0.1645 -0.4567  0.3089
  397MOL0     O54656   1.136   6.694   7.990  0.5832  0.0643  0.4799
  397MOL0     C54657   1.157   6.786   8.098 -0.1037 -0.0077  1.1885
  397MOL0     C54658   1.292   6.769   8.164 -0.8779  0.3441 -0.0163
  397MOL0     C54659   1.303   6.852   8.301  0.5488 -0.4878 -0.3846
  397MOL0     C54660   1.239   6.778   8.426 -0.6771 -0.2204  0.5518
  397MOL0     C54661   1.302   6.837   8.558  0.7062 -0.4823 -0.6409
  397MOL0     C54662   1.320   6.992   8.563 -0.0788 -0.2939  1.1081
  397MOL0     C54663   1.337   7.045   8.700  0.3411 -0.1973  0.3296
  397MOL0     C54664   1.472   7.011   8.767 -0.4643  0.4654  0.7002
  397MOL0     N54665   1.577   7.113   8.724 -0.1717  0.1021  0.5848
  397MOL0     C54666   1.685   7.085   8.648 -0.1774 -0.6186 -0.4813
  397MOL0     C54667   1.754   7.196   8.635  0.3853 -0.6870  0.5049
  397MOL0     C54668   1.889   7.198   8.558 -0.0627 -0.1439  0.1102
  397MOL0     C54669   1.992   7.280   8.635 -0.1515 -0.6801  0.2351
  397MOL0     C54670   2.029   7.231   8.775  0.7429 -0.5464 -0.6205
  397MOL0     C54671   1.955   7.308   8.900  0.2159  0.6786 -0.2095
  397MOL0     O54672   1.988   7.447   8.888 -0.4008 -0.3614  0.6189
  397MOL0     C54673   1.959   7.546   8.985 -0.4814 -0.3066 -0.2799
  397MOL0     C54674   1.988   7.682   8.953 -0.5094  0.2271  0.0669
  397MOL0     C54675   1.952   7.794   9.041  0.0124  0.7329  0.7632
  397MOL0     C54676   1.991   7.934   8.983 -0.0236 -0.0785 -0.0481
  397MOL0     C54677   1.890   7.767   9.160 -0.3282 -0.0854 -0.6311
  397MOL0     C54678   1.839   7.883   9.246 -0.0017  0.1187  0.6930
  397MOL0     O54679   1.931   7.992   9.256  0.0402  0.0324 -0.4529
  397MOL0     C54680   1.888   8.121   9.294 -0.3876  0.9562 -0.1714
  397MOL0     C54681   1.938   8.228   9.221  0.1660 -0.1506 -0.7106
  397MOL0     C54682   1.911   8.349   9.277 -0.3104 -0.4811  0.1852
  397MOL0     C54683   1.836   8.378   9.387 -0.6442  0.5661  0.3662
  397MOL0     O54684   1.805   8.497   9.441  0.0390  0.0361  0.3940
  397MOL0     C54685   1.847   8.621   9.373 -0.6136  0.4054  0.0394
  397MOL0     C54686   1.776   8.745   9.435  0.7170  0.0138  0.0144
  397MOL0     C54687   1.621   8.748   9.452  0.7176  1.0103 -0.8854
  397MOL0     C54688   1.577   8.852   9.549 -0.8292 -0.1532  0.2642
  397MOL0     C54689   1.421   8.852   9.565 -0.5569 -0.3017 -0.0109
  397MOL0     C54690   1.379   8.929   9.692 -0.0165  0.9097  0.0091
  397MOL0     C54691   1.228   8.942   9.691 -0.1768  0.0534 -0.7413
  397MOL0     C54692   1.172   8.997   9.819  0.3349  0.0197  0.3537
  397MOL0    Cl54693   1.004   9.063   9.804  0.6377  0.3113 -0.0455
  397MOL0     C54694   1.796   8.271   9.455 -0.0977 -0.3633 -0.1471
  397MOL0     C54695   1.815   8.138   9.414 -0.5922  0.0423 -0.1583
  397MOL0     O54696   1.740   7.864   9.313  0.3771 -0.4257 -0.0662
  397MOL0     C54697   1.853   7.632   9.185  1.1132 -0.5176  0.4712
  397MOL0     C54698   1.897   7.522   9.103  1.1805  0.3335  0.3135
  397MOL0     N54699   1.690   7.296   8.706  0.2521 -0.3824 -0.1665
  397MOL0     N54700   1.592   7.236   8.766  0.0524 -1.2583  0.1591
  397MOL0     C54701   1.074   6.479   7.926 -0.6472 -0.0057  0.7567
  397MOL0     C54702   1.017   6.357   7.946  0.3273 -0.8664  1.0205
  397MOL0     C54703   0.924   5.961   8.026  0.0865  0.5316 -0.2544
  397MOL0     C54704   0.796   5.961   7.975  0.7220 -1.0687  0.2178
  397MOL0     C54705   0.731   5.853   7.917 -0.1085  0.2470  0.1972
  397MOL0     C54706   0.812   5.741   7.882 -0.8171  0.0390  0.1168
  397MOL0     O54707   0.772   5.614   7.826  0.3092 -0.7746 -0.4261
  397MOL0     C54708   0.641   5.601   7.779  0.2069  0.2003  0.1303
  397MOL0     C54709   0.614   5.470   7.711  0.5538  0.4623  0.2637
  397MOL0     C54710   0.636   5.343   7.794  1.2028  0.3543 -0.4456
  397MOL0     C54711   0.787   5.316   7.837  0.1014  0.1653 -0.0382
  397MOL0     C54712   0.874   5.323   7.716 -0.4574  0.5757  0.6169
  397MOL0     C54713   0.966   5.316   7.637 -0.7276 -0.2789 -0.0484
  397MOL0     C54714   0.936   5.742   7.937  0.3917 -0.0693 -0.4758
  397MOL0     C54715   0.992   5.840   8.011  0.6296 -0.4899  0.0091
  397MOL0     C54716   1.133   5.824   8.048 -0.0890  0.3681 -0.2449
  397MOL0     H54717   0.909   6.409   8.267  2.4010  0.2412  1.1417
  397MOL0     H54718   1.032   6.604   8.229  1.2293  0.3047 -1.8034
  397MOL0     H54719   1.084   6.804   8.177 -1.1844  1.0232  0.0028
  397MOL0     H54720   1.154   6.882   8.044  0.4307 -1.1764 -1.0560
  397MOL0     H54721   1.315   6.664   8.186  2.6127  1.0001  0.0921
  397MOL0     H54722   1.364   6.807   8.090 -1.3289  2.1601  0.4268
  397MOL0     H54723   1.410   6.869   8.316  0.3062  0.7187  0.0361
  397MOL0     H54724   1.253   6.948   8.288  0.2539 -0.8032 -1.7060
  397MOL0     H54725   1.131   6.792   8.424 -0.7319 -0.4351  1.6518
  397MOL0     H54726   1.259   6.671   8.433 -0.6505 -0.2617 -0.1070
  397MOL0     H54727   1.398   6.786   8.569  0.1108 -1.5322 -0.1806
  397MOL0     H54728   1.236   6.804   8.638 -0.5974  0.7258 -1.1632
  397MOL0     H54729   1.403   7.029   8.502 -1.9016 -1.1414 -2.0919
  397MOL0     H54730   1.230   7.039   8.522  0.3834  1.6448  2.2107
  397MOL0     H54731   1.253   7.003   8.756 -1.0285  0.8731 -0.8477
  397MOL0     H54732   1.322   7.152   8.716  1.1245 -0.1034  0.4593
  397MOL0     H54733   1.473   7.015   8.876  2.4198  2.2146  0.7146
  397MOL0     H54734   1.506   6.911   8.736  0.4071  0.1961  2.4079
  397MOL0     H54735   1.705   6.990   8.600 -0.0788 -0.1220 -1.4526
  397MOL0     H54736   1.880   7.234   8.455 -1.2672 -1.9967 -0.4620
  397MOL0     H54737   1.928   7.097   8.544  0.0302 -0.1368  0.3007
  397MOL0     H54738   2.081   7.272   8.573 -2.1052  1.2754 -3.1170
  397MOL0     H54739   1.952   7.382   8.637  1.1443 -0.1508 -0.1282
  397MOL0     H54740   2.033   7.124   8.794 -0.7328 -0.2189  1.9446
  397MOL0     H54741   2.133   7.261   8.791  0.1696 -0.3991  4.3286
  397MOL0     H54742   1.847   7.294   8.896  0.1094  1.7160 -1.5192
  397MOL0     H54743   2.003   7.268   8.990 -0.7079  0.6167  0.2641
  397MOL0     H54744   2.052   7.698   8.867 -1.0769 -1.6523 -0.7523
  397MOL0     H54745   1.907   8.004   8.972  0.3568  0.2669 -0.8042
  397MOL0     H54746   2.048   7.928   8.890 -1.2408  0.6456 -0.8612
  397MOL0     H54747   2.053   7.980   9.061 -1.0427 -0.5743  1.0866
  397MOL0     H54748   1.977   8.210   9.121 -1.0771  1.1207 -1.4744
  397MOL0     H54749   1.956   8.439   9.235 -0.9819  1.2415  2.8953
  397MOL0     H54750   1.953   8.634   9.395 -0.1380 -3.3563  0.5060
  397MOL0     H54751   1.819   8.612   9.268 -3.3507  1.8285  0.5306
  397MOL0     H54752   1.807   8.750   9.540  4.0491  1.1492 -0.9076
  397MOL0     H54753   1.803   8.835   9.379 -1.1274  1.2929  1.0671
  397MOL0     H54754   1.579   8.650   9.478  3.1951 -0.1180 -0.9084
  397MOL0     H54755   1.582   8.776   9.354 -0.6117  0.5334 -0.5175
  397MOL0     H54756   1.623   8.949   9.528  3.6919 -2.0274  0.5462
  397MOL0     H54757   1.620   8.818   9.643  1.0475 -1.3827 -0.9832
  397MOL0     H54758   1.374   8.901   9.479  0.0739  1.2329  0.4695
  397MOL0     H54759   1.376   8.753   9.574 -0.2439 -0.3005  1.9267
  397MOL0     H54760   1.424   9.029   9.698  2.0511  0.1494 -1.6789
  397MOL0     H54761   1.406   8.876   9.784 -0.5740 -0.6670 -0.7160
  397MOL0     H54762   1.182   8.843   9.685  2.3087 -1.2315 -0.0804
  397MOL0     H54763   1.201   9.014   9.612  0.5379  0.7343 -0.3765
  397MOL0     H54764   1.225   9.082   9.865 -0.5647  2.2287 -2.4025
  397MOL0     H54765   1.174   8.918   9.895  2.8865 -0.6133 -0.3009
  397MOL0     H54766   1.744   8.281   9.550 -0.1705  1.1559 -0.3245
  397MOL0     H54767   1.782   8.056   9.477 -0.8194 -0.3742 -0.8046
  397MOL0     H54768   1.797   7.598   9.271 -1.1706  0.5465 -0.5204
  397MOL0     H54769   1.863   7.424   9.133 -0.6854  1.0674  0.7435
  397MOL0     H54770   1.108   6.514   7.829 -1.6992  0.2107  0.4487
  397MOL0     H54771   1.026   6.289   7.862  0.5309 -0.9146  1.0823
  397MOL0     H54772   0.745   6.057   7.983  0.0620 -1.3590 -0.4076
  397MOL0     H54773   0.631   5.850   7.876 -1.4062 -1.2512  3.1330
  397MOL0     H54774   0.584   5.600   7.872 -1.1178 -2.7971 -0.5956
  397MOL0     H54775   0.610   5.692   7.727  0.1692 -0.7562 -1.6116
  397MOL0     H54776   0.662   5.466   7.612 -1.2766 -0.2596 -0.6380
  397MOL0     H54777   0.508   5.467   7.685  0.5823 -1.9659  0.1752
  397MOL0     H54778   0.566   5.356   7.876 -0.8488  0.3615 -2.1147
  397MOL0     H54779   0.598   5.254   7.742 -2.0952  2.8885 -2.8263
  397MOL0     H54780   0.798   5.222   7.891  0.6210  0.3513  0.1832
  397MOL0     H54781   0.812   5.397   7.906  2.3276  2.8367 -3.5969
  397MOL0     H54782   1.054   5.316   7.575 -0.7794  0.0067 -0.1214
  397MOL0     H54783   0.995   5.652   7.923 -0.4806 -1.0257  1.4943
  397MOL0     H54784   1.184   5.730   8.024  0.7531  1.3534 -2.6816
  397MOL0     H54785   1.184   5.905   7.994 -0.8241  0.4740 -0.8013
  397MOL0     H54786   1.154   5.826   8.155 -1.5598 -2.9109  0.2296
  398MOL0     O54787   1.373   3.753   0.061 -0.0125  0.0452  0.5511
  398MOL0     C54788   1.271   3.818   0.055  0.3074  0.0001 -0.0245
  398MOL0     O54789   1.180   3.842   0.156  0.1645  0.3150  0.0689
  398MOL0     C54790   1.242   3.811   0.276 -0.0242  1.9334 -0.6138
  398MOL0     C54791   1.299   3.907   0.358 -0.7032 -1.3765 -0.3388
  398MOL0     C54792   1.354   3.877   0.484 -0.1011  0.3879  0.0415
  398MOL0     C54793   1.353   3.752   0.541  0.1810  1.1397 -1.0193
  398MOL0     O54794   1.402   3.718   0.664 -0.6533 -0.4238 -0.0646
  398MOL0     C54795   1.499   3.611   0.655  0.9156 -0.0690  0.2264
  398MOL0     C54796   1.603   3.627   0.767 -0.3191  0.1913 -0.5819
  398MOL0     C54797   1.544   3.658   0.913 -0.3197 -0.6265  1.0622
  398MOL0     C54798   1.575   3.539   1.006  0.4095  0.3033 -0.5331
  398MOL0     C54799   1.503   3.545   1.149  0.7508  0.1202  1.0657
  398MOL0     C54800   1.522   3.665   1.233 -0.5167 -0.0682 -0.0267
  398MOL0     C54801   1.486   3.646   1.378  0.7509 -0.5045 -1.2991
  398MOL0     C54802   1.338   3.633   1.411  0.4313 -0.0068 -0.4907
  398MOL0     N54803   1.313   3.700   1.537  1.1286 -0.3229  0.2410
  398MOL0     C54804   1.365   3.818   1.582  0.6269 -0.6698 -0.8512
  398MOL0     C54805   1.317   3.842   1.706  0.7976  0.5895  0.5557
  398MOL0     C54806   1.359   3.952   1.796 -0.3151 -0.0353 -0.3649
  398MOL0     C54807   1.275   3.965   1.925  0.7289 -0.5726  0.4866
  398MOL0     C54808   1.127   3.999   1.903 -0.2124 -0.1136  0.8807
  398MOL0     C54809   1.108   4.139   1.826 -0.0864  0.2319  0.0068
  398MOL0     O54810   1.183   4.246   1.889 -0.8564 -0.3172  0.2757
  398MOL0     C54811   1.115   4.371   1.881 -0.7116 -0.3983  0.8433
  398MOL0     C54812   1.041   4.409   1.991 -1.3043  0.0867  0.1402
  398MOL0     C54813   0.974   4.532   1.991 -0.2399  0.3305  0.0847
  398MOL0     C54814   0.885   4.564   2.117  0.2139 -0.2689 -0.1095
  398MOL0     C54815   1.003   4.621   1.886 -0.3057  0.4844  0.5719
  398MOL0     C54816   0.952   4.768   1.873  0.3196 -0.3664 -0.0493
  398MOL0     O54817   0.944   4.832   1.744 -0.1523 -0.7041  0.0798
  398MOL0     C54818   0.900   4.958   1.726 -0.1918 -0.0904  0.5875
  398MOL0     C54819   0.984   5.064   1.755 -0.6113  0.6510 -0.4089
  398MOL0     C54820   0.941   5.194   1.746  0.9685  0.0879 -0.3686
  398MOL0     C54821   0.804   5.222   1.711 -0.7876 -0.4627 -0.9116
  398MOL0     O54822   0.763   5.354   1.695  0.5464  0.2289  0.3427
  398MOL0     C54823   0.762   5.443   1.799  0.3253  0.3311 -1.6266
  398MOL0     C54824   0.615   5.466   1.839 -0.1126 -0.2134 -0.9442
  398MOL0     C54825   0.594   5.584   1.938 -0.3656 -0.6413 -0.7828
  398MOL0     C54826   0.453   5.591   2.005 -0.3682  0.1545  0.4413
  398MOL0     C54827   0.401   5.716   2.068 -0.6396 -0.6973 -0.7461
  398MOL0     C54828   0.280   5.714   2.164  1.1492  0.3227 -0.7051
  398MOL0     C54829   0.298   5.639   2.292 -0.1172 -0.3526 -0.6274
  398MOL0     C54830   0.189   5.661   2.398  0.0133 -0.8290 -0.6677
  398MOL0    Cl54831   0.157   5.827   2.428  0.3193 -0.6484  0.2889
  398MOL0     C54832   0.715   5.122   1.680 -0.4355 -0.3207 -0.0931
  398MOL0     C54833   0.765   4.987   1.690 -0.0611  0.0453  0.7155
  398MOL0     O54834   0.896   4.803   1.970 -0.0139  0.4524  0.1210
  398MOL0     C54835   1.076   4.581   1.767 -0.3123  0.1799 -0.3831
  398MOL0     C54836   1.136   4.460   1.769  0.2429 -0.8841  0.6331
  398MOL0     N54837   1.240   3.733   1.737  0.0204 -0.0859  0.1223
  398MOL0     N54838   1.237   3.652   1.638  0.4443  0.3067  1.0501
  398MOL0     C54839   1.282   3.655   0.466 -0.3162 -1.1599 -0.0641
  398MOL0     C54840   1.226   3.680   0.335  0.0444 -0.3740  0.6107
  398MOL0     C54841   1.242   3.895  -0.065  0.5052  0.7099 -0.5282
  398MOL0     C54842   1.168   4.012  -0.055  0.7897 -0.4850 -0.1148
  398MOL0     C54843   1.146   4.089  -0.172  0.4745  0.8155  1.3526
  398MOL0     C54844   1.197   4.051  -0.301 -0.2927 -0.0419  0.0875
  398MOL0     O54845   1.178   4.119  -0.416  0.2422 -0.5929 -0.7634
  398MOL0     C54846   1.097   4.072  -0.522 -0.4384 -0.0902 -0.1242
  398MOL0     C54847   0.957   4.015  -0.484 -0.5506 -0.8617  0.3690
  398MOL0     C54848   0.941   3.857  -0.477  0.5564  0.5348  0.2093
  398MOL0     C54849   0.791   3.819  -0.463  0.1333  1.1928  0.6984
  398MOL0     C54850   0.727   3.770  -0.586 -0.4045  0.0714 -0.0576
  398MOL0     C54851   0.656   3.729  -0.675  0.6016 -0.7103 -0.5770
  398MOL0     C54852   1.276   3.936  -0.303 -0.5179  0.0851  1.1377
  398MOL0     C54853   1.292   3.858  -0.192  0.3303 -0.0557  0.6494
  398MOL0     C54854   1.388   3.739  -0.216  0.3078  0.0918  0.1729
  398MOL0     H54855   1.297   4.013   0.333 -1.3809 -0.6884  2.3698
  398MOL0     H54856   1.398   3.954   0.547  3.2659 -2.6930  1.8234
  398MOL0     H54857   1.544   3.619   0.555 -1.9985  1.2680 -1.0988
  398MOL0     H54858   1.446   3.516   0.670 -0.0488  0.5535  0.8751
  398MOL0     H54859   1.677   3.547   0.774 -0.9812 -0.5089 -1.4104
  398MOL0     H54860   1.662   3.717   0.746 -0.0025  0.7814  2.3525
  398MOL0     H54861   1.566   3.763   0.937 -2.0419  0.7947 -2.7676
  398MOL0     H54862   1.434   3.660   0.917 -0.3380  1.8463  0.8021
  398MOL0     H54863   1.554   3.443   0.957  0.0085 -1.6060  3.0249
  398MOL0     H54864   1.682   3.543   1.029 -0.0812  0.4729  2.0440
  398MOL0     H54865   1.538   3.451   1.193  0.3129 -0.6832 -0.2199
  398MOL0     H54866   1.395   3.541   1.132  1.2648 -0.4745 -3.6151
  398MOL0     H54867   1.620   3.711   1.225  0.4854 -2.2930 -1.3528
  398MOL0     H54868   1.456   3.738   1.186 -2.3784 -3.1810 -2.6231
  398MOL0     H54869   1.533   3.732   1.427 -0.3188 -1.1311  0.9557
  398MOL0     H54870   1.531   3.559   1.426 -0.3665  0.6896  2.2113
  398MOL0     H54871   1.291   3.684   1.327  1.9155  2.3806  0.0247
  398MOL0     H54872   1.307   3.528   1.416 -0.7524  0.3624  0.3026
  398MOL0     H54873   1.425   3.891   1.530  0.9188  1.0794  1.7685
  398MOL0     H54874   1.359   4.043   1.735 -1.6566  0.2730  0.0712
  398MOL0     H54875   1.464   3.941   1.826 -0.2037 -0.7270 -0.9946
  398MOL0     H54876   1.281   3.873   1.983  0.9410  0.5337  2.2994
  398MOL0     H54877   1.321   4.038   1.993 -0.8672  0.6141  0.3460
  398MOL0     H54878   1.076   3.928   1.838 -0.8464 -0.0087  1.2605
  398MOL0     H54879   1.073   4.000   1.998  2.7268  1.4321  2.7203
  398MOL0     H54880   1.149   4.133   1.724 -0.1499  1.1829 -0.0789
  398MOL0     H54881   1.000   4.157   1.821 -0.3819 -0.7896  1.8328
  398MOL0     H54882   1.025   4.338   2.072 -3.3201  1.2778  0.8533
  398MOL0     H54883   0.788   4.605   2.088  0.1819 -1.8720 -2.5847
  398MOL0     H54884   0.934   4.632   2.187 -0.2973 -0.6762  0.6604
  398MOL0     H54885   0.860   4.476   2.177  0.2458  0.7850  1.5015
  398MOL0     H54886   1.086   5.044   1.784  0.4944  1.3755 -3.4229
  398MOL0     H54887   1.002   5.279   1.774 -0.1549  0.6877  0.3472
  398MOL0     H54888   0.818   5.401   1.883 -0.6678  1.0368 -0.5689
  398MOL0     H54889   0.803   5.541   1.774 -0.7542  1.4985  0.8039
  398MOL0     H54890   0.553   5.476   1.749 -0.7490 -0.6662 -0.5661
  398MOL0     H54891   0.585   5.369   1.879 -0.1473 -0.3250 -1.2398
  398MOL0     H54892   0.614   5.672   1.877  2.9965  0.0236  1.0370
  398MOL0     H54893   0.662   5.585   2.024 -3.8667 -1.7533  2.2377
  398MOL0     H54894   0.451   5.513   2.081 -2.5366 -0.7510 -0.4710
  398MOL0     H54895   0.380   5.570   1.926  1.0677 -1.5164 -0.5228
  398MOL0     H54896   0.477   5.772   2.122 -0.9238 -1.4345  0.4499
  398MOL0     H54897   0.378   5.780   1.982  2.5908  0.0565 -1.1641
  398MOL0     H54898   0.194   5.678   2.107  2.3383  1.5759 -3.4874
  398MOL0     H54899   0.260   5.816   2.197 -0.4869 -0.2179  0.1067
  398MOL0     H54900   0.390   5.681   2.334 -2.7921  4.1887  1.4845
  398MOL0     H54901   0.310   5.531   2.280 -0.6796 -0.7442  1.7519
  398MOL0     H54902   0.217   5.606   2.489  0.8372 -0.9120 -0.9590
  398MOL0     H54903   0.097   5.616   2.362  1.4820 -2.4977 -2.5661
  398MOL0     H54904   0.612   5.153   1.661 -0.0286  1.8647  1.0222
  398MOL0     H54905   0.699   4.913   1.646  2.6180 -2.0634 -0.0605
  398MOL0     H54906   1.105   4.641   1.681  2.4295 -2.7322 -1.6401
  398MOL0     H54907   1.209   4.444   1.690 -0.1568 -0.0046  0.0757
  398MOL0     H54908   1.284   3.554   0.505 -0.8370 -0.9959  0.3977
  398MOL0     H54909   1.188   3.599   0.274  0.2127 -0.3027  0.4112
  398MOL0     H54910   1.135   4.058   0.037  1.1972  1.9823 -1.1233
  398MOL0     H54911   1.082   4.177  -0.166 -0.7045 -0.0118  1.2009
  398MOL0     H54912   1.090   4.147  -0.601 -1.3194  0.7783  0.7506
  398MOL0     H54913   1.146   3.982  -0.561  1.0865  1.0759 -1.0544
  398MOL0     H54914   0.873   4.051  -0.543  0.3723 -2.3735 -2.0041
  398MOL0     H54915   0.932   4.038  -0.380 -0.6307  0.2661  0.1115
  398MOL0     H54916   0.972   3.825  -0.577  2.0921  1.3366  0.3962
  398MOL0     H54917   1.011   3.803  -0.412 -1.8693 -2.5147  0.5076
  398MOL0     H54918   0.732   3.905  -0.430  1.0316  2.1980 -0.2374
  398MOL0     H54919   0.789   3.743  -0.384 -2.4106  1.0247  0.5675
  398MOL0     H54920   0.597   3.699  -0.760 -0.4399  0.9298 -0.4678
  398MOL0     H54921   1.320   3.925  -0.402  0.1458 -1.1649  1.5565
  398MOL0     H54922   1.488   3.757  -0.175  0.5769 -0.7739 -0.0676
  398MOL0     H54923   1.348   3.646  -0.175  2.7195 -1.8165 -1.4633
  398MOL0     H54924   1.402   3.713  -0.322  1.0611  0.5274  0.1555
  399MOL0     O54925   9.778   7.906   7.578  0.2054  0.7411 -0.3062
  399MOL0     C54926   9.801   7.956   7.469  0.3005  0.1696 -0.0057
  399MOL0     O54927   9.922   7.965   7.407  0.2836 -0.6990  0.3900
  399MOL0     C54928  10.018   7.871   7.443  0.0185 -1.0099  0.6535
  399MOL0     C54929   9.982   7.743   7.446  0.0191  0.1584 -0.0461
  399MOL0     C54930  10.076   7.639   7.466  0.2584 -1.0375  0.2977
  399MOL0     C54931  10.207   7.672   7.509  0.0186  0.3479 -0.3328
  399MOL0     O54932  10.295   7.573   7.558  0.3971 -0.1194  0.0846
  399MOL0     C54933  10.244   7.428   7.582 -0.5118 -1.3274 -0.2461
  399MOL0     C54934  10.347   7.349   7.664 -0.3391  0.1567  0.9507
  399MOL0     C54935  10.424   7.265   7.565 -0.4036 -0.2787 -0.2810
  399MOL0     C54936  10.490   7.351   7.466  0.1475 -0.2798  0.0924
  399MOL0     C54937  10.564   7.278   7.352 -0.1291  0.3911 -0.0032
  399MOL0     C54938  10.570   7.366   7.233 -0.5616  0.6688  0.8074
  399MOL0     C54939  10.658   7.304   7.130 -1.3814  0.3541  0.2950
  399MOL0     C54940  10.668   7.403   7.004 -0.1688  0.3216  0.5134
  399MOL0     N54941  10.551   7.407   6.908 -0.1585 -0.4249  0.6319
  399MOL0     C54942  10.497   7.309   6.816  1.0955 -0.0029 -1.0842
  399MOL0     C54943  10.389   7.365   6.768  1.2616  0.1058 -0.3615
  399MOL0     C54944  10.296   7.309   6.668 -0.6926  0.7990  0.1565
  399MOL0     C54945  10.349   7.339   6.526 -0.0143  0.3410 -0.0968
  399MOL0     C54946  10.243   7.417   6.449 -0.5758  0.0565 -0.2747
  399MOL0     C54947  10.298   7.480   6.318 -0.1842 -0.3056 -0.4713
  399MOL0     O54948  10.354   7.370   6.241  0.8426  0.0727 -0.0456
  399MOL0     C54949  10.279   7.299   6.144  0.2819 -0.0014  0.6580
  399MOL0     C54950  10.349   7.250   6.029  0.6788  0.2958 -0.0920
  399MOL0     C54951  10.298   7.174   5.929 -0.2075 -0.2061 -0.1810
  399MOL0     C54952  10.376   7.131   5.806 -0.8885  0.2393  0.2746
  399MOL0     C54953  10.155   7.147   5.939 -0.1872  0.3131 -1.2009
  399MOL0     C54954  10.079   7.082   5.834 -0.4191  0.0422 -0.0502
  399MOL0     O54955   9.947   7.117   5.823 -0.3060  0.3026 -0.5566
  399MOL0     C54956   9.886   7.098   5.704 -0.3144 -0.3378 -0.1376
  399MOL0     C54957   9.911   7.182   5.589 -0.3776  0.1664 -0.0510
  399MOL0     C54958   9.841   7.160   5.475  0.1883 -0.8710  0.1447
  399MOL0     C54959   9.748   7.060   5.472  0.3778 -0.3500 -0.3671
  399MOL0     O54960   9.688   7.046   5.348  0.5070 -0.0103 -0.5982
  399MOL0     C54961   9.651   6.913   5.307  0.4127  0.2953  0.3923
  399MOL0     C54962   9.638   6.907   5.158 -0.1997 -1.0935  0.1218
  399MOL0     C54963   9.597   6.765   5.118  0.1288 -0.5414 -0.8979
  399MOL0     C54964   9.608   6.742   4.967 -0.9293  0.6790  0.0125
  399MOL0     C54965   9.617   6.595   4.935 -0.5203 -0.3148  0.1533
  399MOL0     C54966   9.634   6.571   4.782 -0.4112 -0.7180 -0.2095
  399MOL0     C54967   9.657   6.414   4.763  0.4842  0.0120  0.4421
  399MOL0     C54968   9.641   6.367   4.625 -1.0295 -0.0379 -0.5001
  399MOL0    Cl54969   9.749   6.476   4.532 -0.0397  0.0215 -1.0392
  399MOL0     C54970   9.718   6.980   5.584 -0.7419  0.3108  0.0218
  399MOL0     C54971   9.789   7.001   5.699  0.0829 -0.5881  0.2656
  399MOL0     O54972  10.132   6.989   5.773  0.2494 -0.4082 -0.0911
  399MOL0     C54973  10.084   7.190   6.053  0.3809 -0.2761 -0.0452
  399MOL0     C54974  10.141   7.268   6.147 -0.2954  0.4719  0.1653
  399MOL0     N54975  10.372   7.497   6.825  0.7231 -0.0792 -0.4152
  399MOL0     N54976  10.469   7.517   6.906 -0.1400  0.5161 -0.4383
  399MOL0     C54977  10.246   7.804   7.496 -0.2041  0.2596 -0.4614
  399MOL0     C54978  10.151   7.902   7.473  0.0626 -0.4841 -0.4400
  399MOL0     C54979   9.679   8.024   7.403 -0.1028 -0.0276  0.5133
  399MOL0     C54980   9.706   8.151   7.339  0.3361  0.4843  0.1171
  399MOL0     C54981   9.606   8.222   7.273 -0.8468  1.0902  0.2709
  399MOL0     C54982   9.481   8.167   7.289  1.3075  0.6605  1.1171
  399MOL0     O54983   9.370   8.242   7.255  0.5458 -1.4898  0.2882
  399MOL0     C54984   9.380   8.370   7.193  0.5052  0.7641  0.4999
  399MOL0     C54985   9.252   8.452   7.217 -0.2039  0.3060  0.3652
  399MOL0     C54986   9.144   8.394   7.129  1.1177  0.2203 -0.1143
  399MOL0     C54987   9.039   8.503   7.100 -0.5708 -0.6035  0.1917
  399MOL0     C54988   8.975   8.546   7.223  0.6043 -0.5498  0.4323
  399MOL0     C54989   8.944   8.583   7.337  0.3633 -0.2244  0.3301
  399MOL0     C54990   9.453   8.053   7.362  0.0034 -0.7029  0.2035
  399MOL0     C54991   9.551   7.965   7.409 -0.0761  0.6441 -0.2775
  399MOL0     C54992   9.512   7.834   7.471  0.0383  0.1818  0.1118
  399MOL0     H54993   9.884   7.725   7.403  0.7296 -1.6291 -1.0475
  399MOL0     H54994  10.050   7.535   7.449  3.4311 -2.2349  1.8169
  399MOL0     H54995  10.215   7.380   7.488  0.9295 -0.0917 -1.3774
  399MOL0     H54996  10.154   7.436   7.644  1.0323  1.2332  1.8886
  399MOL0     H54997  10.426   7.407   7.711 -0.0306  1.0063 -0.5616
  399MOL0     H54998  10.287   7.285   7.730 -1.6047  0.9231  0.5903
  399MOL0     H54999  10.502   7.215   7.622  0.3116 -2.1366 -2.7586
  399MOL0     H55000  10.364   7.189   7.516 -2.0496  0.0840  1.0468
  399MOL0     H55001  10.415   7.401   7.404  2.1489  1.5756 -0.9512
  399MOL0     H55002  10.549   7.430   7.513 -0.1423 -0.6902  1.1855
  399MOL0     H55003  10.515   7.191   7.307  0.9281  0.8038 -2.0788
  399MOL0     H55004  10.660   7.240   7.390  0.7076  1.4089 -1.0310
  399MOL0     H55005  10.472   7.378   7.185  0.0672 -1.5098 -1.1983
  399MOL0     H55006  10.593   7.471   7.252  2.3687  0.7254 -2.2647
  399MOL0     H55007  10.629   7.210   7.082  3.6302 -0.8960 -0.8523
  399MOL0     H55008  10.758   7.305   7.174 -1.1554 -2.0666 -0.0437
  399MOL0     H55009  10.668   7.506   7.042 -3.2349  1.9017 -3.1121
  399MOL0     H55010  10.758   7.385   6.946 -0.8636 -1.0221 -0.1722
  399MOL0     H55011  10.534   7.211   6.787  0.9155  0.1535 -1.8433
  399MOL0     H55012  10.194   7.341   6.691 -1.5083 -0.9674 -0.7945
  399MOL0     H55013  10.279   7.202   6.685  0.2364  1.2021  5.9926
  399MOL0     H55014  10.441   7.398   6.536  0.6802 -1.0245  2.0822
  399MOL0     H55015  10.363   7.243   6.476 -1.3940 -0.6908  1.4238
  399MOL0     H55016  10.152   7.357   6.445 -1.6581  1.3264  2.8310
  399MOL0     H55017  10.196   7.497   6.506 -1.0978 -0.9672  0.7641
  399MOL0     H55018  10.212   7.526   6.269 -2.5995 -4.1063 -0.2233
  399MOL0     H55019  10.363   7.560   6.354 -0.5308  0.9329 -2.4476
  399MOL0     H55020  10.453   7.279   6.017  0.2391  1.8382 -0.3897
  399MOL0     H55021  10.398   7.026   5.828 -0.7340  0.4675  1.2573
  399MOL0     H55022  10.471   7.183   5.795  0.1382 -1.9988 -2.5857
  399MOL0     H55023  10.313   7.147   5.718  0.2560  2.8199 -0.1388
  399MOL0     H55024   9.995   7.250   5.595 -1.9017  2.0060  2.0818
  399MOL0     H55025   9.870   7.210   5.384 -0.9910  0.8492  0.6634
  399MOL0     H55026   9.715   6.838   5.354  0.3360  1.0602  1.7967
  399MOL0     H55027   9.554   6.896   5.354  2.2062 -0.7825  4.1140
  399MOL0     H55028   9.564   6.978   5.120 -0.3465 -1.9068 -1.1901
  399MOL0     H55029   9.729   6.933   5.103 -1.4632  2.2063 -0.6442
  399MOL0     H55030   9.500   6.734   5.159 -0.8406  2.1439 -0.9541
  399MOL0     H55031   9.665   6.701   5.174  2.6385  2.4412 -0.2542
  399MOL0     H55032   9.697   6.793   4.930  0.8062 -0.7304  1.9431
  399MOL0     H55033   9.519   6.780   4.916 -1.9994 -0.7925  0.6770
  399MOL0     H55034   9.698   6.552   4.994 -0.5126 -0.1339  0.2787
  399MOL0     H55035   9.534   6.536   4.976 -0.2812  1.4004  3.4769
  399MOL0     H55036   9.718   6.626   4.741  0.7389 -1.9715  0.3802
  399MOL0     H55037   9.544   6.606   4.729  0.3990 -0.8824 -1.7371
  399MOL0     H55038   9.600   6.353   4.834  0.3753  0.5347  0.8137
  399MOL0     H55039   9.762   6.395   4.787  1.1113 -0.0101 -2.0470
  399MOL0     H55040   9.539   6.375   4.586 -0.7548 -2.3733 -1.9199
  399MOL0     H55041   9.658   6.259   4.621 -1.1662 -0.1730  1.4472
  399MOL0     H55042   9.640   6.905   5.575 -1.2912  0.8936 -0.1612
  399MOL0     H55043   9.774   6.945   5.790  1.7508 -0.4168  0.6763
  399MOL0     H55044   9.981   7.163   6.070  0.4194  0.4514  1.4288
  399MOL0     H55045  10.073   7.299   6.226 -1.6192  1.2104 -1.2025
  399MOL0     H55046  10.346   7.839   7.520 -1.3654  2.2302  1.9993
  399MOL0     H55047  10.189   8.004   7.474  2.4700 -1.2681  2.8458
  399MOL0     H55048   9.803   8.196   7.359  1.0973 -1.0324  0.0433
  399MOL0     H55049   9.641   8.311   7.222  2.7408  2.1291  3.9858
  399MOL0     H55050   9.467   8.428   7.226  1.8927 -1.8404  1.7142
  399MOL0     H55051   9.400   8.356   7.086 -0.6903 -3.4592  0.6575
  399MOL0     H55052   9.268   8.556   7.185  0.1269 -0.2032 -1.1917
  399MOL0     H55053   9.220   8.439   7.320 -2.3156  0.2452 -0.2413
  399MOL0     H55054   9.176   8.365   7.029  0.4608 -0.0741 -0.2412
  399MOL0     H55055   9.089   8.318   7.185 -1.4724  3.1793  1.7118
  399MOL0     H55056   8.970   8.463   7.025 -1.1137 -3.2495  1.9925
  399MOL0     H55057   9.091   8.590   7.059 -1.4135 -0.7223 -1.2091
  399MOL0     H55058   8.897   8.618   7.426  2.1159  1.1644  0.7688
  399MOL0     H55059   9.347   8.030   7.372 -0.0208 -0.2946  0.9836
  399MOL0     H55060   9.524   7.848   7.579 -1.9947 -2.8026  0.8457
  399MOL0     H55061   9.413   7.805   7.435  0.8532 -0.6296 -1.5554
  399MOL0     H55062   9.586   7.759   7.441 -1.1337 -1.6931  1.6631
  400MOL0     O55063   8.328   2.474   6.348 -0.6383 -0.3182  0.7253
  400MOL0     C55064   8.323   2.492   6.228 -1.0615  0.8490 -0.5254
  400MOL0     O55065   8.235   2.573   6.166 -1.1205 -0.0250  0.1604
  400MOL0     C55066   8.219   2.703   6.201  0.3684 -0.3311 -0.8252
  400MOL0     C55067   8.278   2.765   6.313 -0.5571  0.5169  0.3204
  400MOL0     C55068   8.249   2.903   6.343 -0.5266 -0.7801  0.3045
  400MOL0     C55069   8.157   2.974   6.273  0.3764 -0.4438  0.9559
  400MOL0     O55070   8.120   3.095   6.324  0.2574 -0.0491 -0.2384
  400MOL0     C55071   8.028   3.175   6.248  0.3983 -0.4698 -0.8867
  400MOL0     C55072   8.023   3.311   6.308 -1.1418 -0.5774 -0.5780
  400MOL0     C55073   8.162   3.386   6.314 -0.9070 -0.4740 -0.1464
  400MOL0     C55074   8.178   3.536   6.289 -0.3077 -0.3041 -0.2812
  400MOL0     C55075   8.120   3.621   6.404  0.7456  0.6711 -0.2257
  400MOL0     C55076   8.132   3.767   6.365  0.4955  0.5777  1.2879
  400MOL0     C55077   8.051   3.861   6.465  0.2542  0.7708 -0.5587
  400MOL0     C55078   7.897   3.831   6.467  0.3826  0.3148  0.1808
  400MOL0     N55079   7.829   3.803   6.593  0.3072 -0.6352 -0.2503
  400MOL0     C55080   7.846   3.876   6.709 -0.0631 -0.2513 -0.1349
  400MOL0     C55081   7.744   3.842   6.792  0.3295 -0.4797  0.6943
  400MOL0     C55082   7.717   3.889   6.932 -0.5203  0.0712 -0.2489
  400MOL0     C55083   7.797   3.818   7.046 -0.3960  0.7639  0.0033
  400MOL0     C55084   7.953   3.809   7.019  0.5222 -0.0424 -0.2470
  400MOL0     C55085   8.036   3.726   7.115 -0.3817  0.2349 -0.5577
  400MOL0     O55086   8.180   3.720   7.074  0.7773  0.2324 -0.4791
  400MOL0     C55087   8.257   3.828   7.102  0.0778  0.1873 -0.5968
  400MOL0     C55088   8.395   3.840   7.075 -0.5449 -0.4895  0.6605
  400MOL0     C55089   8.483   3.946   7.112  1.0387 -0.2695 -0.2829
  400MOL0     C55090   8.629   3.937   7.072  0.0221 -0.7021  0.5839
  400MOL0     C55091   8.434   4.046   7.192  0.3926 -0.9909  0.5533
  400MOL0     C55092   8.515   4.170   7.233  0.8686 -1.0510 -0.1862
  400MOL0     O55093   8.598   4.249   7.152  0.0397  1.1820 -0.0563
  400MOL0     C55094   8.704   4.309   7.214 -0.1450 -0.6719 -0.2509
  400MOL0     C55095   8.729   4.449   7.192 -0.6240  0.1324  1.3006
  400MOL0     C55096   8.847   4.501   7.243  0.2798  0.1230  0.8351
  400MOL0     C55097   8.940   4.429   7.317 -0.0431 -0.2276 -0.5504
  400MOL0     O55098   9.049   4.484   7.382 -0.1115 -0.3401 -0.4747
  400MOL0     C55099   9.104   4.603   7.333  0.2773 -0.0775 -0.3726
  400MOL0     C55100   9.252   4.618   7.379 -0.4483  0.1004  0.6536
  400MOL0     C55101   9.253   4.628   7.528  0.7388 -1.0656 -0.4213
  400MOL0     C55102   9.386   4.679   7.589  0.3598 -0.7534 -0.0117
  400MOL0     C55103   9.502   4.575   7.560  0.3521 -0.1868 -0.5868
  400MOL0     C55104   9.630   4.619   7.643  0.9763  0.9179  0.5686
  400MOL0     C55105   9.754   4.566   7.567  0.7310 -0.1655  0.4871
  400MOL0     C55106   9.872   4.660   7.611 -0.7113  0.2884 -0.6518
  400MOL0    Cl55107   9.901   4.641   7.798  0.3234 -0.0642  0.4485
  400MOL0     C55108   8.912   4.300   7.346 -0.5102  0.8587 -0.4154
  400MOL0     C55109   8.799   4.232   7.287  0.6975  0.1801 -1.1221
  400MOL0     O55110   8.495   4.193   7.350  0.1674  0.5793  0.4635
  400MOL0     C55111   8.295   4.052   7.211 -0.0905  0.8237 -0.1807
  400MOL0     C55112   8.213   3.947   7.163 -0.7133  0.0938  0.3120
  400MOL0     N55113   7.660   3.748   6.723 -0.4724  0.7212  0.2239
  400MOL0     N55114   7.706   3.740   6.597  0.2192  0.0659  0.5506
  400MOL0     C55115   8.093   2.909   6.169  1.2747 -0.5277 -0.0404
  400MOL0     C55116   8.116   2.777   6.129 -0.0190  0.5309 -0.8237
  400MOL0     C55117   8.419   2.407   6.146  0.7479 -1.2829  0.3652
  400MOL0     C55118   8.423   2.436   6.008 -1.1953 -0.2898 -0.5684
  400MOL0     C55119   8.511   2.376   5.921  0.7254  0.1208 -0.0963
  400MOL0     C55120   8.602   2.282   5.967  0.9077  0.1473  1.2478
  400MOL0     O55121   8.700   2.230   5.886  0.1963  0.9344 -0.0708
  400MOL0     C55122   8.774   2.314   5.804  1.1522  0.2194 -0.0517
  400MOL0     C55123   8.853   2.428   5.881  0.1432  0.1980 -0.2629
  400MOL0     C55124   8.977   2.365   5.957 -0.8768  0.0600 -0.1144
  400MOL0     C55125   9.063   2.456   6.038  0.2639 -0.4370  0.9120
  400MOL0     C55126   9.130   2.551   5.952 -0.3416  0.0878 -0.7524
  400MOL0     C55127   9.177   2.608   5.855 -0.3564 -0.2218  2.0696
  400MOL0     C55128   8.614   2.258   6.099  0.1187  0.3298  0.4959
  400MOL0     C55129   8.530   2.323   6.189 -0.5703  1.4239 -0.8928
  400MOL0     C55130   8.567   2.289   6.339  0.9128 -0.0827  0.4176
  400MOL0     H55131   8.342   2.714   6.383  0.9625  1.6403 -0.1928
  400MOL0     H55132   8.292   2.953   6.429 -2.9952 -0.7080  1.5779
  400MOL0     H55133   7.927   3.133   6.259  0.4076 -0.9144 -2.2426
  400MOL0     H55134   8.046   3.189   6.141  4.4431 -4.6586 -1.0376
  400MOL0     H55135   7.951   3.369   6.250 -1.0433 -1.1463 -1.2861
  400MOL0     H55136   7.986   3.311   6.411 -5.1866  0.1501 -1.8342
  400MOL0     H55137   8.210   3.354   6.408  0.4522  0.5699 -0.4451
  400MOL0     H55138   8.225   3.335   6.241  2.9297 -0.4745  2.7793
  400MOL0     H55139   8.285   3.551   6.271 -0.6073 -0.1841 -2.2315
  400MOL0     H55140   8.130   3.566   6.195  2.3862  0.5843 -1.4883
  400MOL0     H55141   8.166   3.609   6.503 -1.3589  2.5146  1.0452
  400MOL0     H55142   8.017   3.586   6.412  0.8333  0.2265 -0.9682
  400MOL0     H55143   8.235   3.798   6.344  0.9424 -1.1750  0.7645
  400MOL0     H55144   8.101   3.788   6.262  4.4896  2.0187  0.1825
  400MOL0     H55145   8.064   3.966   6.435  1.4665  0.8091  0.0246
  400MOL0     H55146   8.095   3.853   6.565  0.7635 -0.3792 -0.8607
  400MOL0     H55147   7.846   3.909   6.409  1.6494  2.6122  1.9747
  400MOL0     H55148   7.871   3.751   6.397 -0.4429  1.7673 -1.2538
  400MOL0     H55149   7.915   3.956   6.734 -0.2890 -0.5950  1.7793
  400MOL0     H55150   7.612   3.887   6.962  0.3708 -0.7850  3.3058
  400MOL0     H55151   7.748   3.994   6.941  2.1813 -0.7140  0.3738
  400MOL0     H55152   7.779   3.874   7.138 -1.2270  0.8625 -0.2069
  400MOL0     H55153   7.749   3.721   7.055 -0.1352  0.8483  3.6968
  400MOL0     H55154   7.971   3.764   6.921 -0.0109  1.2739 -0.9907
  400MOL0     H55155   8.002   3.905   6.999 -1.2955  1.2700  1.1998
  400MOL0     H55156   8.015   3.747   7.220 -2.9577 -3.2804 -0.1500
  400MOL0     H55157   8.007   3.624   7.089 -0.9461 -0.1939  1.5734
  400MOL0     H55158   8.434   3.747   7.033 -2.9464 -1.3473  0.1910
  400MOL0     H55159   8.669   4.037   7.054 -0.6482 -0.1886  1.8247
  400MOL0     H55160   8.637   3.879   6.979  2.3755  1.8896 -1.0046
  400MOL0     H55161   8.685   3.890   7.153 -0.3642 -0.1444  1.1759
  400MOL0     H55162   8.677   4.504   7.115  1.0204 -0.0343  0.0203
  400MOL0     H55163   8.867   4.603   7.214  1.8032  0.5086  3.0274
  400MOL0     H55164   9.096   4.607   7.224  3.1252  1.4211 -0.6246
  400MOL0     H55165   9.055   4.694   7.368  0.7004  0.5668 -1.4268
  400MOL0     H55166   9.316   4.542   7.332 -0.6353 -1.1480  2.3404
  400MOL0     H55167   9.272   4.715   7.333 -2.4825 -1.2463 -3.6042
  400MOL0     H55168   9.216   4.533   7.568 -1.1272 -0.2627 -0.1479
  400MOL0     H55169   9.178   4.696   7.570  0.6525 -1.6930  0.4871
  400MOL0     H55170   9.354   4.685   7.693 -0.5186 -0.0709 -0.3108
  400MOL0     H55171   9.416   4.777   7.553 -1.5777  0.3687  1.2670
  400MOL0     H55172   9.467   4.472   7.571 -3.6413  1.0154 -0.3939
  400MOL0     H55173   9.524   4.587   7.453 -0.1883  2.1704 -0.4907
  400MOL0     H55174   9.629   4.581   7.745  2.2150  1.4200  0.7819
  400MOL0     H55175   9.628   4.727   7.658 -6.0547  1.4407 -0.8081
  400MOL0     H55176   9.751   4.572   7.458  5.4247 -1.3190  0.0731
  400MOL0     H55177   9.755   4.462   7.601  1.1749  0.3136  2.0284
  400MOL0     H55178   9.860   4.764   7.579  3.4978  0.7622 -1.2158
  400MOL0     H55179   9.960   4.619   7.561 -1.2211 -3.7965  1.3494
  400MOL0     H55180   8.972   4.241   7.414  0.7386  1.3646 -1.0545
  400MOL0     H55181   8.775   4.128   7.309 -2.0852  1.0037  0.2921
  400MOL0     H55182   8.253   4.140   7.258 -1.1423  0.3690 -0.2358
  400MOL0     H55183   8.108   3.954   7.189 -1.0832 -1.2192 -0.7329
  400MOL0     H55184   8.009   2.948   6.112  1.0662 -0.4497  0.3137
  400MOL0     H55185   8.062   2.717   6.056  0.6619  0.6291 -1.4185
  400MOL0     H55186   8.354   2.507   5.964  2.4602  1.9078 -3.3264
  400MOL0     H55187   8.507   2.411   5.818 -1.3338 -0.6190 -0.3043
  400MOL0     H55188   8.842   2.250   5.747 -0.8360 -0.6068 -1.5892
  400MOL0     H55189   8.707   2.365   5.735 -1.3010 -0.9559  1.3295
  400MOL0     H55190   8.784   2.479   5.949  0.4745 -0.2011  0.3862
  400MOL0     H55191   8.880   2.499   5.803  2.5077 -0.6929 -0.3334
  400MOL0     H55192   8.946   2.278   6.016  1.7827 -1.1911 -0.4489
  400MOL0     H55193   9.044   2.320   5.884  0.0006  0.5442  0.3829
  400MOL0     H55194   9.147   2.403   6.084  2.7497  2.1275 -0.2970
  400MOL0     H55195   9.007   2.508   6.115 -1.3156 -1.7238  0.6703
  400MOL0     H55196   9.241   2.640   5.775 -0.0157 -1.5260  1.7943
  400MOL0     H55197   8.696   2.198   6.137  0.5561  0.7161  0.1663
  400MOL0     H55198   8.471   2.246   6.370  1.0314 -0.5328  0.1751
  400MOL0     H55199   8.647   2.216   6.355 -0.0118 -1.7031 -1.8440
  400MOL0     H55200   8.573   2.375   6.406  0.3572 -0.5413  1.0711
  401MOL0     O55201  11.258   0.538   6.885  0.5128  0.3003 -1.1353
  401MOL0     C55202  11.271   0.655   6.916 -0.1326 -0.1969 -0.3832
  401MOL0     O55203  11.218   0.711   7.029  0.2212 -0.3931  0.3342
  401MOL0     C55204  11.188   0.639   7.147 -0.6933 -0.1809 -0.5957
  401MOL0     C55205  11.104   0.698   7.232 -0.4927  0.2581  0.2819
  401MOL0     C55206  11.071   0.631   7.353 -0.4783  1.1522  0.4134
  401MOL0     C55207  11.122   0.493   7.380  0.1518 -0.6184 -0.0901
  401MOL0     O55208  11.081   0.415   7.486  0.1240 -0.7340 -0.6617
  401MOL0     C55209  11.083   0.477   7.617 -0.3964  0.5571 -0.2688
  401MOL0     C55210  10.944   0.449   7.683 -0.0061 -1.5965 -0.2856
  401MOL0     C55211  10.899   0.307   7.699 -0.1354 -0.1920  0.0304
  401MOL0     C55212  10.992   0.218   7.772  1.0989  0.2293 -0.3572
  401MOL0     C55213  11.067   0.140   7.678 -0.4698  0.1042 -0.4887
  401MOL0     C55214  11.149   0.032   7.748  0.2429 -0.6899  0.2761
  401MOL0     C55215  11.050  -0.061   7.835  0.7958  0.3160 -0.1961
  401MOL0     C55216  11.123  -0.188   7.857 -0.3753  0.8910  0.0959
  401MOL0     N55217  11.121  -0.285   7.746 -0.7026  0.0470  0.5339
  401MOL0     C55218  11.005  -0.340   7.700 -0.1056 -0.0989 -0.4413
  401MOL0     C55219  11.056  -0.432   7.617 -0.1452 -0.1543 -0.6548
  401MOL0     C55220  10.977  -0.530   7.530 -0.5982  0.2459 -0.1359
  401MOL0     C55221  10.861  -0.458   7.474  0.1313 -0.2384  0.4377
  401MOL0     C55222  10.775  -0.545   7.381  0.4979 -0.0242 -0.4642
  401MOL0     C55223  10.834  -0.587   7.243  0.7603  0.0549 -0.8073
  401MOL0     O55224  10.755  -0.681   7.164 -0.2209 -0.3172  0.3161
  401MOL0     C55225  10.639  -0.643   7.096  0.0857  0.0193 -0.5259
  401MOL0     C55226  10.578  -0.509   7.085  0.1039 -0.1930  0.1493
  401MOL0     C55227  10.448  -0.495   7.032 -0.1599 -1.1682  0.0474
  401MOL0     C55228  10.389  -0.348   7.044 -0.0949 -0.2276  1.2006
  401MOL0     C55229  10.379  -0.609   6.989  0.7292 -0.7633 -0.1257
  401MOL0     C55230  10.245  -0.611   6.941  1.0739  0.1157  0.5922
  401MOL0     O55231  10.205  -0.499   6.870  0.8392 -0.5405 -0.2735
  401MOL0     C55232  10.078  -0.518   6.811 -1.2995 -0.0475 -0.5462
  401MOL0     C55233  10.064  -0.591   6.696  0.5837  0.4827 -0.2358
  401MOL0     C55234   9.936  -0.588   6.633 -0.3607  0.7269  0.6195
  401MOL0     C55235   9.824  -0.523   6.688 -0.0503  1.0838  0.6153
  401MOL0     O55236   9.698  -0.516   6.633 -1.0626  0.2157 -0.5673
  401MOL0     C55237   9.661  -0.589   6.514  0.3330 -0.2170 -0.2996
  401MOL0     C55238   9.507  -0.597   6.490  0.7043  0.5048 -0.0679
  401MOL0     C55239   9.457  -0.627   6.346  0.4469 -0.6792 -0.0534
  401MOL0     C55240   9.470  -0.776   6.304  0.4664  1.0749 -0.6459
  401MOL0     C55241   9.410  -0.808   6.171 -0.0230  0.5952  0.8787
  401MOL0     C55242   9.448  -0.952   6.131 -1.1396  0.1904  0.2809
  401MOL0     C55243   9.422  -0.981   5.993 -0.2017  0.3632  0.7510
  401MOL0     C55244   9.425  -1.135   5.959  1.3238 -0.0371 -0.4101
  401MOL0    Cl55245   9.273  -1.205   6.023 -0.1802  0.0509  0.2285
  401MOL0     C55246   9.842  -0.465   6.807 -0.5205  0.1237 -0.1556
  401MOL0     C55247   9.966  -0.453   6.864  0.0763 -0.3496 -0.0187
  401MOL0     O55248  10.178  -0.711   6.955 -0.0720  0.0981 -0.0399
  401MOL0     C55249  10.449  -0.734   6.992  0.5679  0.5885 -0.2855
  401MOL0     C55250  10.579  -0.750   7.043  0.4474  0.0962  0.7202
  401MOL0     N55251  11.191  -0.428   7.612 -0.8341  0.0966  0.0574
  401MOL0     N55252  11.223  -0.324   7.675 -0.8256  0.6670  0.2419
  401MOL0     C55253  11.213   0.445   7.294  1.0135  0.4790  0.3266
  401MOL0     C55254  11.238   0.505   7.173 -0.0924  0.0148  0.5119
  401MOL0     C55255  11.359   0.739   6.835  0.5520  0.9136 -0.1500
  401MOL0     C55256  11.357   0.881   6.855 -0.8865 -0.5669  0.6015
  401MOL0     C55257  11.447   0.964   6.780  0.3182  0.6463 -0.3805
  401MOL0     C55258  11.529   0.914   6.684 -0.6595 -0.1366 -0.7437
  401MOL0     O55259  11.606   1.002   6.612  0.5287 -1.1031 -0.2158
  401MOL0     C55260  11.603   0.993   6.469 -0.6268  0.6546 -0.7328
  401MOL0     C55261  11.660   1.122   6.413  0.4442  0.2900 -0.4781
  401MOL0     C55262  11.738   1.102   6.276  1.2081  0.9405 -0.6485
  401MOL0     C55263  11.804   1.222   6.212 -0.5954  0.5902 -0.1924
  401MOL0     C55264  11.709   1.331   6.203 -0.5860  0.3562 -0.3622
  401MOL0     C55265  11.627   1.411   6.177  0.8419 -0.4354  0.0820
  401MOL0     C55266  11.530   0.781   6.665  0.4769  0.6870  1.6731
  401MOL0     C55267  11.452   0.685   6.738  0.7955 -0.6107  0.3310
  401MOL0     C55268  11.476   0.544   6.702 -1.1129  0.6568 -0.1212
  401MOL0     H55269  11.069   0.799   7.212  1.1659  0.6514 -0.7552
  401MOL0     H55270  11.016   0.679   7.432  0.9188 -1.3042  3.0934
  401MOL0     H55271  11.109   0.583   7.620  2.2988 -0.0231 -0.1141
  401MOL0     H55272  11.153   0.419   7.678 -2.5386 -3.1118 -0.9567
  401MOL0     H55273  10.958   0.507   7.775  2.7591 -3.5303  0.6394
  401MOL0     H55274  10.863   0.502   7.632  1.5026 -0.3829 -1.4887
  401MOL0     H55275  10.809   0.325   7.757  1.1951  2.6040  1.4151
  401MOL0     H55276  10.870   0.258   7.605 -1.1647 -1.0289  0.7584
  401MOL0     H55277  11.062   0.275   7.833 -1.4642  2.4610  0.7085
  401MOL0     H55278  10.932   0.161   7.845 -0.1519 -0.7653 -2.0788
  401MOL0     H55279  11.142   0.198   7.623  0.6899  1.0907  1.9769
  401MOL0     H55280  11.006   0.095   7.599 -2.9076 -2.6369  2.6971
  401MOL0     H55281  11.204  -0.036   7.683  1.9916 -1.3777  2.3717
  401MOL0     H55282  11.234   0.073   7.803 -0.3798 -0.5910  1.1914
  401MOL0     H55283  10.952  -0.078   7.789  1.0001 -0.3988 -0.3807
  401MOL0     H55284  11.034  -0.012   7.932  3.9274  0.7535  0.1922
  401MOL0     H55285  11.227  -0.167   7.884  0.1784  0.6526 -1.7397
  401MOL0     H55286  11.069  -0.239   7.937 -2.9176 -0.8116 -2.4954
  401MOL0     H55287  10.905  -0.316   7.734  0.2369 -0.1280  0.6090
  401MOL0     H55288  10.935  -0.615   7.585 -4.4265  1.4834 -0.8198
  401MOL0     H55289  11.046  -0.573   7.456 -0.0413 -0.8198  0.9657
  401MOL0     H55290  10.782  -0.434   7.546 -1.4229 -1.6518 -0.7173
  401MOL0     H55291  10.898  -0.367   7.426  1.7284 -1.2751 -0.3877
  401MOL0     H55292  10.751  -0.634   7.441  0.3826 -1.6257 -2.7716
  401MOL0     H55293  10.679  -0.493   7.372  0.4693  0.0608  0.2783
  401MOL0     H55294  10.852  -0.493   7.190 -0.0169  0.6059 -0.1244
  401MOL0     H55295  10.931  -0.632   7.267 -0.4557 -3.1646 -1.4109
  401MOL0     H55296  10.631  -0.420   7.118  2.7432 -0.8024 -2.0690
  401MOL0     H55297  10.414  -0.295   6.952 -0.6064 -2.6323 -0.4191
  401MOL0     H55298  10.426  -0.298   7.134  0.8962 -2.2338  1.9735
  401MOL0     H55299  10.279  -0.355   7.046 -0.1431  0.4775  1.1136
  401MOL0     H55300  10.146  -0.639   6.642  2.1275  1.7710  0.8650
  401MOL0     H55301   9.929  -0.650   6.545 -1.2571 -2.9318  3.0479
  401MOL0     H55302   9.714  -0.541   6.431  1.8949 -0.2557  0.6407
  401MOL0     H55303   9.702  -0.690   6.518 -0.4783 -0.7128 -2.8619
  401MOL0     H55304   9.466  -0.674   6.557  0.6021 -0.6600 -1.4300
  401MOL0     H55305   9.470  -0.498   6.519  3.6633  1.3509  1.3121
  401MOL0     H55306   9.512  -0.566   6.274  0.8038 -1.2991 -0.3090
  401MOL0     H55307   9.350  -0.615   6.325 -0.2136 -3.6718  1.1067
  401MOL0     H55308   9.423  -0.838   6.382 -0.6688  3.6480  0.8224
  401MOL0     H55309   9.577  -0.798   6.295  0.4347 -0.3855  1.6233
  401MOL0     H55310   9.301  -0.803   6.173 -0.3035 -0.6804 -2.9901
  401MOL0     H55311   9.442  -0.736   6.095  0.3963 -0.5892 -0.0884
  401MOL0     H55312   9.396  -1.022   6.197 -1.2710 -1.7288 -1.7300
  401MOL0     H55313   9.553  -0.974   6.155 -0.1484 -0.4900 -3.9129
  401MOL0     H55314   9.499  -0.947   5.923  1.0125 -1.7396  0.9787
  401MOL0     H55315   9.327  -0.941   5.955  1.6936  4.2609 -0.4908
  401MOL0     H55316   9.510  -1.195   5.992  1.1322 -1.6216 -2.6121
  401MOL0     H55317   9.427  -1.161   5.853 -0.1412 -0.3818 -0.3757
  401MOL0     H55318   9.761  -0.412   6.857 -2.1163 -3.0266  0.8399
  401MOL0     H55319   9.990  -0.385   6.946  0.8810 -2.2281  1.3704
  401MOL0     H55320  10.400  -0.820   6.946 -2.0260  1.2276  1.1041
  401MOL0     H55321  10.637  -0.841   7.037  0.4083  0.0814  0.5780
  401MOL0     H55322  11.261   0.348   7.308  2.0178  0.9415  0.1021
  401MOL0     H55323  11.317   0.460   7.113  0.3158  1.2036  0.1284
  401MOL0     H55324  11.288   0.933   6.920 -1.5115  0.7687 -1.0622
  401MOL0     H55325  11.444   1.072   6.793  2.2213  0.9839 -2.2546
  401MOL0     H55326  11.672   0.916   6.434  0.6130  2.8752 -3.5381
  401MOL0     H55327  11.506   0.965   6.427  0.0351 -0.4768 -1.5430
  401MOL0     H55328  11.738   1.170   6.473 -0.9424  3.3009 -0.8926
  401MOL0     H55329  11.575   1.189   6.402  0.3170  1.0874  3.8189
  401MOL0     H55330  11.816   1.026   6.292 -0.6663 -0.6301  1.8394
  401MOL0     H55331  11.662   1.060   6.210  0.5188  1.3736 -0.1548
  401MOL0     H55332  11.837   1.187   6.114  0.1622  1.9542 -0.4466
  401MOL0     H55333  11.892   1.256   6.268  1.0283  4.0737 -4.3081
  401MOL0     H55334  11.551   1.485   6.163  0.9055  0.0028  1.8697
  401MOL0     H55335  11.600   0.747   6.590 -3.1635  1.0156 -2.3065
  401MOL0     H55336  11.575   0.528   6.658 -0.7588 -1.1631  1.2026
  401MOL0     H55337  11.470   0.489   6.796  1.0339  1.6532  0.6740
  401MOL0     H55338  11.394   0.515   6.635  2.0812  0.0082 -4.1628
  402MOL0     O55339   5.452   1.906   1.710  0.1874  0.0563 -1.2078
  402MOL0     C55340   5.488   1.960   1.811  0.1723 -0.8921 -0.6817
  402MOL0     O55341   5.592   2.048   1.830 -0.5917 -0.2218  0.0159
  402MOL0     C55342   5.650   2.118   1.719  0.0565  0.4184  0.2535
  402MOL0     C55343   5.636   2.094   1.578  0.5584 -0.3911 -0.6819
  402MOL0     C55344   5.707   2.172   1.483 -0.1029  0.5145  0.2737
  402MOL0     C55345   5.779   2.281   1.533 -0.0253 -0.1658 -0.0271
  402MOL0     O55346   5.823   2.359   1.428 -0.5592 -0.0987  0.2595
  402MOL0     C55347   5.818   2.502   1.439 -0.4289 -0.8835 -0.4406
  402MOL0     C55348   5.860   2.581   1.310  0.6938 -0.6489 -0.5156
  402MOL0     C55349   5.886   2.742   1.311 -0.4591  0.4412  0.3270
  402MOL0     C55350   5.928   2.804   1.182  0.1286 -0.8663 -0.0602
  402MOL0     C55351   5.999   2.935   1.192 -0.5460  0.5958  0.3546
  402MOL0     C55352   6.046   2.982   1.056  0.1794 -0.6886  0.8328
  402MOL0     C55353   6.085   3.128   1.037  0.3703 -0.2373 -0.8299
  402MOL0     C55354   6.136   3.153   0.891  0.7500  0.0779 -0.4372
  402MOL0     N55355   6.188   3.289   0.881 -0.5832  0.3970 -0.3501
  402MOL0     C55356   6.121   3.405   0.861 -0.0765  0.4679 -0.5659
  402MOL0     C55357   6.218   3.495   0.817 -0.5960 -0.8967  0.6904
  402MOL0     C55358   6.185   3.635   0.774  0.6619 -0.3697  0.1942
  402MOL0     C55359   6.087   3.609   0.647 -0.3781 -0.2099 -0.2769
  402MOL0     C55360   6.165   3.599   0.512  0.1745  0.0471 -0.4335
  402MOL0     C55361   6.199   3.463   0.471 -0.0569 -0.2617  0.0291
  402MOL0     O55362   6.223   3.461   0.327  0.8745  0.8320 -0.2559
  402MOL0     C55363   6.251   3.339   0.272  0.6434  0.1177 -0.3267
  402MOL0     C55364   6.198   3.298   0.152 -0.3020  0.1930  0.2461
  402MOL0     C55365   6.222   3.169   0.083  0.5331  0.0845 -1.1142
  402MOL0     C55366   6.150   3.133  -0.049 -0.0240  0.1030 -0.3242
  402MOL0     C55367   6.319   3.086   0.140 -0.1539 -0.4487  0.8077
  402MOL0     C55368   6.375   2.959   0.077  0.0147 -0.1761 -0.0634
  402MOL0     O55369   6.513   2.934   0.071 -0.1312  0.4154  0.2549
  402MOL0     C55370   6.556   2.815   0.021 -0.1206  0.1983  0.1654
  402MOL0     C55371   6.635   2.815  -0.094  0.3606 -0.2002 -0.2230
  402MOL0     C55372   6.668   2.693  -0.155 -0.8604  0.8605  0.2220
  402MOL0     C55373   6.648   2.574  -0.086  0.0590  0.7658  1.0223
  402MOL0     O55374   6.689   2.452  -0.147  0.0485 -0.4540 -0.1387
  402MOL0     C55375   6.704   2.340  -0.059 -0.3628  0.1979 -0.3721
  402MOL0     C55376   6.759   2.218  -0.140 -0.3419 -0.5218  0.4482
  402MOL0     C55377   6.651   2.140  -0.224 -1.0867 -0.2142 -0.3750
  402MOL0     C55378   6.533   2.087  -0.151  0.6233  0.2796  0.3200
  402MOL0     C55379   6.429   2.002  -0.232  0.2899  0.7963  0.3841
  402MOL0     C55380   6.489   1.875  -0.279 -0.7432  0.3353  0.6064
  402MOL0     C55381   6.374   1.778  -0.330  0.2784 -0.2509  0.7056
  402MOL0     C55382   6.274   1.847  -0.422  0.1378  0.0889  0.1721
  402MOL0    Cl55383   6.163   1.712  -0.477  0.0908 -0.3622  0.3054
  402MOL0     C55384   6.574   2.573   0.036 -1.0602  0.0868  0.7869
  402MOL0     C55385   6.525   2.689   0.081 -0.0244 -0.7715 -0.2872
  402MOL0     O55386   6.286   2.884   0.033  0.0605 -0.2160  0.2462
  402MOL0     C55387   6.387   3.136   0.250 -0.4484  0.9272 -1.1530
  402MOL0     C55388   6.351   3.253   0.312  0.1701 -1.0227 -0.4783
  402MOL0     N55389   6.343   3.439   0.820  1.0827  0.4077 -1.0353
  402MOL0     N55390   6.329   3.308   0.868  0.8086  0.6905 -0.2334
  402MOL0     C55391   5.790   2.315   1.676 -0.1644  0.5898  0.0690
  402MOL0     C55392   5.714   2.234   1.762  0.5793 -0.4332  0.6391
  402MOL0     C55393   5.434   1.898   1.939 -0.0956  0.1167 -0.3816
  402MOL0     C55394   5.505   1.939   2.049  0.5026 -0.1423  1.0140
  402MOL0     C55395   5.468   1.896   2.177  0.6651  0.8306  0.1046
  402MOL0     C55396   5.354   1.811   2.193 -0.1822 -0.1524  0.4221
  402MOL0     O55397   5.336   1.750   2.325 -0.6389  0.0375  0.0047
  402MOL0     C55398   5.256   1.632   2.338  0.3087 -0.0494 -0.1527
  402MOL0     C55399   5.255   1.573   2.480 -0.2737  0.2821  0.5068
  402MOL0     C55400   5.389   1.531   2.527  0.2579 -0.4459 -0.6081
  402MOL0     C55401   5.398   1.531   2.678 -1.2720 -0.5856 -0.1952
  402MOL0     C55402   5.308   1.422   2.733  0.0836 -0.6689  0.3234
  402MOL0     C55403   5.225   1.337   2.766 -0.1023 -0.3477 -0.2730
  402MOL0     C55404   5.285   1.768   2.072 -0.6035  0.3342 -1.0321
  402MOL0     C55405   5.315   1.806   1.943  0.1354 -0.5985 -0.2178
  402MOL0     C55406   5.225   1.755   1.840  0.8239  0.0306  0.6274
  402MOL0     H55407   5.574   2.017   1.534 -0.1514  0.2406 -0.8237
  402MOL0     H55408   5.705   2.152   1.377 -0.9423 -2.4680  0.7659
  402MOL0     H55409   5.892   2.538   1.511 -0.0474  3.2117 -2.6180
  402MOL0     H55410   5.718   2.538   1.464 -0.1369  0.9757 -1.7317
  402MOL0     H55411   5.950   2.534   1.269  1.2663  0.4127 -0.5216
  402MOL0     H55412   5.779   2.565   1.239  2.2367 -1.0001 -2.2853
  402MOL0     H55413   5.796   2.796   1.342 -2.3012 -1.6890 -1.0450
  402MOL0     H55414   5.967   2.762   1.382  1.1009  1.1669 -1.5708
  402MOL0     H55415   5.993   2.733   1.130 -1.3157 -1.6485 -0.8670
  402MOL0     H55416   5.845   2.823   1.112 -1.4261 -0.1956  1.8674
  402MOL0     H55417   6.091   2.908   1.245  0.5077  2.5594 -0.3513
  402MOL0     H55418   5.937   3.008   1.246 -0.1674  1.2185 -0.0443
  402MOL0     H55419   6.123   2.908   1.029 -1.2179 -1.0308 -2.8133
  402MOL0     H55420   5.954   2.964   1.000  0.0690  0.0987  0.7562
  402MOL0     H55421   6.170   3.141   1.105  0.9062 -2.1059 -1.0743
  402MOL0     H55422   6.007   3.203   1.056  0.7595  0.0709 -0.4294
  402MOL0     H55423   6.221   3.094   0.857  0.6589  0.2130 -0.9083
  402MOL0     H55424   6.055   3.138   0.819  1.4001  0.8909 -1.3742
  402MOL0     H55425   6.015   3.421   0.841 -0.1231  0.1104 -0.5969
  402MOL0     H55426   6.266   3.706   0.758 -0.0925  0.1431 -1.5980
  402MOL0     H55427   6.118   3.683   0.846 -2.0930  0.4840 -2.6809
  402MOL0     H55428   6.026   3.518   0.652 -0.1790 -0.6641 -3.6467
  402MOL0     H55429   6.011   3.688   0.644 -0.8996 -0.6528  0.8433
  402MOL0     H55430   6.094   3.645   0.443  3.6761  3.8044 -1.9722
  402MOL0     H55431   6.251   3.662   0.487  0.8657 -1.7300 -2.7727
  402MOL0     H55432   6.287   3.424   0.523  0.4623 -1.9411 -1.9904
  402MOL0     H55433   6.122   3.392   0.501 -0.6460 -0.5553 -1.9963
  402MOL0     H55434   6.139   3.377   0.106 -0.9282 -0.7920 -0.6706
  402MOL0     H55435   6.224   3.110  -0.127 -0.2098 -0.6994 -0.2682
  402MOL0     H55436   6.091   3.218  -0.085  0.9656  1.5243  1.2168
  402MOL0     H55437   6.069   3.061  -0.036 -1.8230  1.2505 -3.7265
  402MOL0     H55438   6.673   2.912  -0.125 -3.3853  1.7549  0.6771
  402MOL0     H55439   6.726   2.690  -0.247  2.9154  1.2581  2.3671
  402MOL0     H55440   6.767   2.363   0.028 -0.3884  2.6049 -0.9404
  402MOL0     H55441   6.605   2.316  -0.019 -1.9475  3.3387 -2.0535
  402MOL0     H55442   6.839   2.246  -0.209 -2.5178  4.5717 -0.4069
  402MOL0     H55443   6.803   2.140  -0.076 -0.9551 -1.5813 -0.3794
  402MOL0     H55444   6.699   2.061  -0.282  1.8783  2.2176 -1.4928
  402MOL0     H55445   6.623   2.207  -0.306 -2.7265 -1.4128 -0.8355
  402MOL0     H55446   6.478   2.175  -0.117  1.1454  1.5485 -1.8788
  402MOL0     H55447   6.570   2.031  -0.066 -0.2140  2.4869  2.2481
  402MOL0     H55448   6.342   1.970  -0.175  2.0267 -1.3636  2.0237
  402MOL0     H55449   6.398   2.061  -0.319 -0.7497 -1.0334 -0.5453
  402MOL0     H55450   6.545   1.814  -0.207  2.6637  1.6390 -0.7440
  402MOL0     H55451   6.563   1.901  -0.354  1.8857 -2.1288  2.1187
  402MOL0     H55452   6.310   1.722  -0.261  0.3891  0.3687  1.3138
  402MOL0     H55453   6.424   1.701  -0.391  1.0364 -0.3519  1.4343
  402MOL0     H55454   6.330   1.899  -0.500  1.9895  2.3108  2.7857
  402MOL0     H55455   6.213   1.921  -0.370 -0.7795  1.0083 -2.0868
  402MOL0     H55456   6.541   2.483   0.087  2.1104 -2.2976 -1.0407
  402MOL0     H55457   6.457   2.695   0.165  1.1835 -0.8373  0.7228
  402MOL0     H55458   6.471   3.081   0.291 -3.4369 -1.5825  2.2776
  402MOL0     H55459   6.421   3.277   0.392  1.2973 -0.5707 -1.5686
  402MOL0     H55460   5.845   2.401   1.711 -0.1840  0.9563 -0.7760
  402MOL0     H55461   5.719   2.268   1.865  2.5605  1.9086 -0.1509
  402MOL0     H55462   5.592   2.003   2.041  1.6965 -1.5556  2.0547
  402MOL0     H55463   5.516   1.928   2.269 -1.2086  1.9578  0.7536
  402MOL0     H55464   5.153   1.664   2.323  0.1036  0.3161  1.7823
  402MOL0     H55465   5.296   1.559   2.267 -1.0118 -1.5459  0.5700
  402MOL0     H55466   5.192   1.484   2.486 -2.4772  1.5154 -2.0434
  402MOL0     H55467   5.216   1.652   2.545  0.3845  0.4405  0.7192
  402MOL0     H55468   5.404   1.431   2.486  2.9575  1.0862 -3.8337
  402MOL0     H55469   5.466   1.598   2.486  0.4659  0.2140  0.7883
  402MOL0     H55470   5.360   1.624   2.723 -3.9106 -1.4992 -0.3708
  402MOL0     H55471   5.501   1.506   2.705 -0.7830 -1.6424 -2.7747
  402MOL0     H55472   5.162   1.257   2.798  2.8494 -2.6463  0.3150
  402MOL0     H55473   5.196   1.708   2.089  0.2761 -0.5864  0.6410
  402MOL0     H55474   5.215   1.827   1.758  0.6045 -1.7066 -0.9491
  402MOL0     H55475   5.258   1.662   1.793 -0.9294  0.3152 -1.3574
  402MOL0     H55476   5.122   1.732   1.871  1.3448 -1.9938  1.0430
  403MOL0     O55477  10.308   5.689   0.421 -0.0879  0.4513 -0.0251
  403MOL0     C55478  10.189   5.695   0.443  0.3872 -0.2730  0.2857
  403MOL0     O55479  10.130   5.779   0.537  0.0403  0.4439 -0.6678
  403MOL0     C55480  10.210   5.862   0.613  0.2777 -0.1988  0.6459
  403MOL0     C55481  10.265   5.980   0.551 -0.1807  0.4287  0.3554
  403MOL0     C55482  10.363   6.058   0.611  0.2507 -0.5398 -1.0696
  403MOL0     C55483  10.399   6.016   0.742  0.4507 -0.7528 -0.0279
  403MOL0     O55484  10.483   6.096   0.812 -0.0270 -0.3182 -0.4789
  403MOL0     C55485  10.596   6.144   0.734  1.1612  0.7131  0.0082
  403MOL0     C55486  10.708   6.209   0.807  0.1812 -0.4472 -0.1693
  403MOL0     C55487  10.672   6.318   0.906  0.4421 -1.1589 -0.4532
  403MOL0     C55488  10.805   6.384   0.961  0.7591  0.9965 -0.0612
  403MOL0     C55489  10.764   6.496   1.057  0.7483  0.4401  0.1278
  403MOL0     C55490  10.669   6.611   0.999  0.3622 -0.5823 -0.2168
  403MOL0     C55491  10.594   6.690   1.103 -0.0827 -0.2612  0.1922
  403MOL0     C55492  10.528   6.817   1.046  0.1317  0.2401  0.3498
  403MOL0     N55493  10.616   6.924   1.062 -0.8392  0.4635  0.2557
  403MOL0     C55494  10.661   6.978   1.177 -0.4564  0.6318 -0.6385
  403MOL0     C55495  10.748   7.073   1.148  0.8544  0.8809  0.3125
  403MOL0     C55496  10.826   7.141   1.260  0.9589  1.0305 -0.3571
  403MOL0     C55497  10.831   7.299   1.247 -0.0835 -0.7009 -0.2079
  403MOL0     C55498  10.932   7.363   1.338  0.4625  0.2900 -0.3149
  403MOL0     C55499  10.928   7.509   1.315  0.2075 -0.1656 -0.2542
  403MOL0     O55500  10.980   7.551   1.187 -0.3061 -0.4197 -0.4009
  403MOL0     C55501  11.101   7.602   1.171  0.3329 -0.1090  1.0068
  403MOL0     C55502  11.212   7.567   1.248 -0.2371 -0.0691  0.7629
  403MOL0     C55503  11.344   7.630   1.235  0.4611  0.5248  0.2761
  403MOL0     C55504  11.444   7.590   1.339  0.3964 -0.1695  1.1965
  403MOL0     C55505  11.352   7.741   1.147 -0.4088  0.4828 -1.1911
  403MOL0     C55506  11.486   7.823   1.135  0.6516 -0.4043  0.0060
  403MOL0     O55507  11.484   7.927   1.050 -0.0950 -0.4533 -0.1776
  403MOL0     C55508  11.588   8.021   1.049 -0.6207  0.6144 -1.2844
  403MOL0     C55509  11.612   8.110   1.157 -0.7466  0.0964 -0.1779
  403MOL0     C55510  11.710   8.205   1.153  0.7574 -0.3201  0.0021
  403MOL0     C55511  11.792   8.217   1.042  0.0439 -0.0426  0.2380
  403MOL0     O55512  11.896   8.309   1.034  0.7533  0.9001 -0.6660
  403MOL0     C55513  12.034   8.277   1.000 -0.4800 -0.7981 -1.3015
  403MOL0     C55514  12.111   8.371   1.093 -0.0185 -0.1413 -0.3573
  403MOL0     C55515  12.265   8.355   1.106 -0.1933 -0.0704  0.7440
  403MOL0     C55516  12.300   8.232   1.182  0.1005  0.8183 -0.7683
  403MOL0     C55517  12.453   8.216   1.207 -0.1924  0.4612  0.1583
  403MOL0     C55518  12.527   8.192   1.075 -0.4297 -0.9943  0.2395
  403MOL0     C55519  12.675   8.243   1.081  0.2995  0.1631 -0.0680
  403MOL0     C55520  12.689   8.395   1.088  0.1722 -0.4689 -0.1572
  403MOL0    Cl55521  12.594   8.481   0.961 -0.9550 -0.1859 -0.3825
  403MOL0     C55522  11.760   8.146   0.925 -0.3858  0.6592 -0.7641
  403MOL0     C55523  11.657   8.051   0.932 -0.7707  1.0671  0.9885
  403MOL0     O55524  11.578   7.803   1.217 -0.6980  0.4280  0.6214
  403MOL0     C55525  11.245   7.776   1.061 -0.0893  0.7023  0.2695
  403MOL0     C55526  11.124   7.706   1.077 -0.1090  0.1067  0.5074
  403MOL0     N55527  10.756   7.074   1.006  1.0978 -1.1032  0.4589
  403MOL0     N55528  10.675   6.986   0.958  0.1851 -0.1886 -0.2352
  403MOL0     C55529  10.347   5.907   0.810 -0.7314  0.1098  0.2203
  403MOL0     C55530  10.251   5.831   0.739 -0.2753  0.3375 -0.9039
  403MOL0     C55531  10.112   5.608   0.356 -0.3024  0.0290  0.3566
  403MOL0     C55532  10.160   5.588   0.227 -0.6907 -0.7492 -0.3663
  403MOL0     C55533  10.089   5.520   0.127  0.0812  0.1098  0.9989
  403MOL0     C55534   9.961   5.471   0.154  0.3339 -0.3417 -0.2007
  403MOL0     O55535   9.876   5.403   0.067  0.2809  0.3810  0.6763
  403MOL0     C55536   9.908   5.413  -0.073 -0.4057  0.4343 -0.1264
  403MOL0     C55537   9.798   5.372  -0.170  0.5088  0.4474  0.4355
  403MOL0     C55538   9.670   5.456  -0.166  1.2729 -0.2235  1.2284
  403MOL0     C55539   9.576   5.423  -0.282  0.6756 -0.0833 -0.4969
  403MOL0     C55540   9.631   5.481  -0.407  0.6628  0.3446  0.0692
  403MOL0     C55541   9.679   5.547  -0.497  0.1997 -1.6038 -0.3814
  403MOL0     C55542   9.914   5.492   0.282  0.0283 -0.3455 -0.0581
  403MOL0     C55543   9.980   5.564   0.385 -0.4684 -0.4244 -0.1587
  403MOL0     C55544   9.908   5.587   0.519  0.1208  0.4154  0.8773
  403MOL0     H55545  10.243   6.008   0.449  1.0725  1.2248  0.2833
  403MOL0     H55546  10.391   6.151   0.564 -3.3038  0.9193 -0.5900
  403MOL0     H55547  10.556   6.222   0.668 -1.6913  1.0695  1.9405
  403MOL0     H55548  10.623   6.055   0.677 -4.2933 -3.5408  3.0782
  403MOL0     H55549  10.767   6.131   0.854  1.3301  0.9357  0.7805
  403MOL0     H55550  10.775   6.252   0.732 -0.9023 -1.3446 -1.7038
  403MOL0     H55551  10.599   6.380   0.854 -1.6979 -2.4615  0.8297
  403MOL0     H55552  10.615   6.269   0.986 -0.8442  0.9630  0.0085
  403MOL0     H55553  10.868   6.310   1.011 -0.4773 -0.6259 -0.7896
  403MOL0     H55554  10.851   6.440   0.880 -0.0648  2.1043  0.2161
  403MOL0     H55555  10.855   6.550   1.084  0.3709  2.0984 -1.6446
  403MOL0     H55556  10.720   6.450   1.146  0.8765  1.7853  0.9167
  403MOL0     H55557  10.733   6.663   0.927  1.7540 -1.8175  0.0703
  403MOL0     H55558  10.579   6.567   0.954 -0.6035 -1.1572  2.0990
  403MOL0     H55559  10.670   6.720   1.176  0.6237  2.0533 -1.3871
  403MOL0     H55560  10.517   6.628   1.149 -0.1902 -0.1417  0.1739
  403MOL0     H55561  10.513   6.800   0.939  0.3705 -0.6273  0.4483
  403MOL0     H55562  10.431   6.832   1.094  0.0118  0.0481  0.1695
  403MOL0     H55563  10.641   6.935   1.274 -2.9748  1.0374 -0.9169
  403MOL0     H55564  10.926   7.096   1.251  1.5529  2.0749  0.8257
  403MOL0     H55565  10.795   7.086   1.349  2.1472 -0.0850 -0.5867
  403MOL0     H55566  10.869   7.326   1.148 -0.1639 -0.3570 -0.1449
  403MOL0     H55567  10.729   7.337   1.256  1.1768  3.3655 -0.8599
  403MOL0     H55568  10.904   7.348   1.442 -1.2496  1.8107 -0.5050
  403MOL0     H55569  11.034   7.330   1.314  0.7534  1.7492 -1.2452
  403MOL0     H55570  10.826   7.545   1.326  0.2480 -0.4625  1.3110
  403MOL0     H55571  10.989   7.569   1.383  0.7432  2.3626 -2.7857
  403MOL0     H55572  11.196   7.487   1.320 -4.9856  0.6585  0.8407
  403MOL0     H55573  11.404   7.499   1.385 -1.0396 -0.8240 -1.1674
  403MOL0     H55574  11.459   7.663   1.419  2.1080  3.1471 -1.8319
  403MOL0     H55575  11.545   7.567   1.304  0.6922  0.1408  1.8133
  403MOL0     H55576  11.563   8.079   1.249 -0.7328  0.5080 -0.0315
  403MOL0     H55577  11.719   8.267   1.242  0.3728 -0.8974  0.4532
  403MOL0     H55578  12.067   8.175   1.025  2.4344  0.9668  3.3849
  403MOL0     H55579  12.058   8.293   0.895  2.5268  1.4683 -0.3910
  403MOL0     H55580  12.074   8.469   1.066 -3.5867 -0.7470  1.6925
  403MOL0     H55581  12.078   8.373   1.197  0.1588  0.5194 -0.3131
  403MOL0     H55582  12.300   8.440   1.165 -1.4067 -0.0603  1.4751
  403MOL0     H55583  12.310   8.368   1.007 -2.6412 -1.4728 -0.6592
  403MOL0     H55584  12.268   8.138   1.136 -0.7429  0.7431 -0.0548
  403MOL0     H55585  12.263   8.244   1.284  0.1165 -3.8390 -0.0099
  403MOL0     H55586  12.478   8.313   1.251  0.0959  0.4993 -0.0837
  403MOL0     H55587  12.472   8.133   1.276 -1.5500  0.3633  0.4492
  403MOL0     H55588  12.477   8.238   0.990 -0.2969  1.0386  1.2075
  403MOL0     H55589  12.535   8.083   1.071  1.4724 -0.8466 -0.9192
  403MOL0     H55590  12.722   8.214   0.987 -0.3710 -0.0952 -0.3267
  403MOL0     H55591  12.724   8.193   1.165  1.0358  1.9866  0.6425
  403MOL0     H55592  12.793   8.423   1.071  0.6981 -0.3749  2.7967
  403MOL0     H55593  12.649   8.435   1.181 -3.4421 -1.4710 -1.1153
  403MOL0     H55594  11.844   8.146   0.856  0.5449 -1.0687  0.2800
  403MOL0     H55595  11.646   7.995   0.840 -0.3169  4.3215 -1.1918
  403MOL0     H55596  11.234   7.858   0.991 -1.1233  0.8300  0.5531
  403MOL0     H55597  11.042   7.749   1.021  0.7477  1.9278  0.5777
  403MOL0     H55598  10.378   5.887   0.912  0.0544 -1.1973 -0.2449
  403MOL0     H55599  10.214   5.732   0.765 -0.3569 -0.8079 -4.7478
  403MOL0     H55600  10.251   5.641   0.201  0.4714 -2.2688  0.4420
  403MOL0     H55601  10.133   5.500   0.030  0.1969 -1.1859  1.3004
  403MOL0     H55602   9.955   5.505  -0.108  0.3741  1.5644  3.4833
  403MOL0     H55603   9.991   5.344  -0.095 -0.0086  1.3638 -1.6691
  403MOL0     H55604   9.770   5.267  -0.154  0.9962  0.4619  1.4609
  403MOL0     H55605   9.842   5.386  -0.269 -0.7637 -0.3025 -0.2670
  403MOL0     H55606   9.617   5.433  -0.074  0.8743  0.8944  1.2910
  403MOL0     H55607   9.689   5.564  -0.176  2.0269 -0.4089  0.5249
  403MOL0     H55608   9.473   5.458  -0.283  0.3703 -0.7641  1.5467
  403MOL0     H55609   9.557   5.315  -0.284 -3.0495  0.3904  1.3562
  403MOL0     H55610   9.735   5.613  -0.561 -0.2330  0.5901  1.3920
  403MOL0     H55611   9.814   5.469   0.316 -0.4795  0.3895 -1.0006
  403MOL0     H55612   9.986   5.591   0.596 -1.2320 -1.5169  2.4635
  403MOL0     H55613   9.862   5.685   0.513  0.8752  0.7734  0.7771
  403MOL0     H55614   9.836   5.507   0.539 -0.6432  1.0812  0.7926
  404MOL0     O55615  10.220   8.894   4.918  0.3646 -0.7532  1.1186
  404MOL0     C55616  10.146   8.958   4.837 -0.1187  0.3476  0.1429
  404MOL0     O55617  10.020   8.938   4.810  0.5146  0.3640  0.9652
  404MOL0     C55618   9.949   8.828   4.843  0.2737  0.7520 -0.9593
  404MOL0     C55619   9.926   8.787   4.974 -0.1328  0.1640 -0.2643
  404MOL0     C55620   9.847   8.677   5.003 -0.0016  0.5379 -0.7598
  404MOL0     C55621   9.788   8.601   4.905 -0.2173  0.7790  0.1114
  404MOL0     O55622   9.708   8.494   4.940 -0.9092 -0.1165 -0.1224
  404MOL0     C55623   9.639   8.421   4.841  0.9411  0.9255  0.9357
  404MOL0     C55624   9.548   8.334   4.919 -0.6994  0.2577  0.0855
  404MOL0     C55625   9.457   8.254   4.827 -0.0487  0.2318 -0.0055
  404MOL0     C55626   9.396   8.142   4.904  0.9355  0.3277  1.3537
  404MOL0     C55627   9.324   8.052   4.796  0.1502  0.6292 -0.0627
  404MOL0     C55628   9.284   7.912   4.845 -0.2011  0.5691  0.6457
  404MOL0     C55629   9.173   7.852   4.774  0.1768  0.2145  0.4201
  404MOL0     C55630   9.215   7.818   4.637  0.4044  0.5349 -0.7468
  404MOL0     N55631   9.102   7.779   4.546 -0.7583 -0.3828 -0.1362
  404MOL0     C55632   9.029   7.867   4.469 -0.5597 -0.6849 -0.4931
  404MOL0     C55633   8.938   7.794   4.408  0.0551  0.2145  0.5071
  404MOL0     C55634   8.821   7.859   4.340  0.2459  0.3262  0.0106
  404MOL0     C55635   8.687   7.862   4.412  0.7464 -0.4709 -0.3928
  404MOL0     C55636   8.637   7.724   4.467 -0.1490  0.1507 -0.1139
  404MOL0     C55637   8.632   7.600   4.375 -0.5772 -0.7137  0.7967
  404MOL0     O55638   8.579   7.489   4.447 -0.2647 -0.1106  1.2014
  404MOL0     C55639   8.568   7.367   4.395 -0.2321 -0.1791 -0.0525
  404MOL0     C55640   8.628   7.309   4.284  0.0388  0.1861 -0.3231
  404MOL0     C55641   8.608   7.175   4.242  0.1442 -0.0652  0.4473
  404MOL0     C55642   8.664   7.131   4.109 -0.0349 -0.3888 -0.2411
  404MOL0     C55643   8.516   7.093   4.320 -0.1142 -0.3516  1.2402
  404MOL0     C55644   8.483   6.949   4.285 -0.4997  0.8448  0.1821
  404MOL0     O55645   8.351   6.907   4.277  0.2066  0.0893 -0.0407
  404MOL0     C55646   8.320   6.777   4.274 -0.0078  0.5414 -0.1584
  404MOL0     C55647   8.182   6.745   4.274 -0.6370  0.0506  1.0252
  404MOL0     C55648   8.127   6.614   4.275 -0.3819 -0.1181 -0.0136
  404MOL0     C55649   8.213   6.514   4.291  0.0227 -0.3437 -0.6565
  404MOL0     O55650   8.148   6.394   4.306 -0.3121  0.4608  0.2696
  404MOL0     C55651   8.193   6.294   4.413  0.2625 -0.3032 -0.6516
  404MOL0     C55652   8.141   6.150   4.374 -0.3020  1.0252  0.0758
  404MOL0     C55653   7.990   6.152   4.370 -0.0786  0.8522 -0.1314
  404MOL0     C55654   7.931   6.021   4.321 -0.5149  0.3121 -0.3351
  404MOL0     C55655   7.966   5.986   4.172  0.3126  0.3423  0.4142
  404MOL0     C55656   7.887   5.861   4.133  0.5924  1.1725 -0.7686
  404MOL0     C55657   7.955   5.729   4.180 -0.4383  1.1781 -0.4621
  404MOL0     C55658   8.097   5.703   4.126 -0.0921  0.9560 -0.2669
  404MOL0    Cl55659   8.146   5.531   4.167  0.2539  0.0243 -0.0478
  404MOL0     C55660   8.349   6.534   4.315 -0.0202  0.6483 -0.3719
  404MOL0     C55661   8.402   6.659   4.294 -0.4359  0.6206 -0.6534
  404MOL0     O55662   8.574   6.881   4.246  0.2710  0.2102 -0.0610
  404MOL0     C55663   8.437   7.154   4.414 -0.8012  0.6276  0.0114
  404MOL0     C55664   8.473   7.283   4.454 -0.3721 -0.2917  0.1726
  404MOL0     N55665   8.964   7.665   4.447 -0.2627  0.0060 -0.6052
  404MOL0     N55666   9.064   7.651   4.521 -0.2972 -0.3209  0.5945
  404MOL0     C55667   9.818   8.640   4.774  0.7935  0.2696  0.1091
  404MOL0     C55668   9.901   8.750   4.742 -0.5408 -0.1148 -0.5778
  404MOL0     C55669  10.203   9.081   4.784 -0.7172  0.2561  0.8435
  404MOL0     C55670  10.277   9.165   4.867 -0.8513 -0.2070 -0.2594
  404MOL0     C55671  10.335   9.282   4.830  0.3732  0.6490 -0.1279
  404MOL0     C55672  10.336   9.323   4.695 -0.4678  0.1531 -0.7420
  404MOL0     O55673  10.415   9.424   4.656  0.2470 -0.6844  0.1392
  404MOL0     C55674  10.387   9.494   4.537 -0.0901  0.6100  0.1940
  404MOL0     C55675  10.473   9.622   4.540  0.3913 -0.8001  1.3676
  404MOL0     C55676  10.474   9.702   4.407  0.0923  0.0228 -0.2728
  404MOL0     C55677  10.576   9.819   4.414 -0.3446 -0.2733 -0.7532
  404MOL0     C55678  10.558   9.920   4.310 -0.4703 -0.2493  1.3280
  404MOL0     C55679  10.554  10.011   4.217 -0.5048 -1.1631 -1.6147
  404MOL0     C55680  10.257   9.246   4.608  0.2979 -0.2173  0.9383
  404MOL0     C55681  10.190   9.129   4.649 -0.6851  1.2441  0.5530
  404MOL0     C55682  10.106   9.052   4.542  0.3175  0.5131 -0.7717
  404MOL0     H55683   9.960   8.862   5.045  1.3975 -0.4163 -0.3579
  404MOL0     H55684   9.826   8.631   5.099  1.6555  0.0920 -0.5926
  404MOL0     H55685   9.706   8.357   4.783  1.9554  2.2998  0.5248
  404MOL0     H55686   9.568   8.472   4.775 -0.5136 -1.7201  0.3532
  404MOL0     H55687   9.608   8.256   4.967 -1.6127 -2.8161 -3.2972
  404MOL0     H55688   9.492   8.403   4.983  1.2870  1.4250  0.6532
  404MOL0     H55689   9.379   8.314   4.780  0.6287  1.0983 -0.0373
  404MOL0     H55690   9.519   8.211   4.748  1.6660 -0.0307  1.4172
  404MOL0     H55691   9.455   8.085   4.976 -0.0519  1.3385  3.0071
  404MOL0     H55692   9.325   8.201   4.962  2.6235  2.8586  0.9916
  404MOL0     H55693   9.388   8.041   4.709 -0.5825 -0.7894 -0.4503
  404MOL0     H55694   9.232   8.104   4.766  0.8442 -0.4536 -4.7123
  404MOL0     H55695   9.377   7.853   4.848 -1.8804 -2.3209 -0.2980
  404MOL0     H55696   9.253   7.922   4.949  1.8871  0.3161  1.3346
  404MOL0     H55697   9.098   7.931   4.758  0.1502  0.0013 -0.5820
  404MOL0     H55698   9.133   7.765   4.827 -1.0514  0.0408 -0.7413
  404MOL0     H55699   9.257   7.909   4.593 -0.7251  0.9207 -1.0675
  404MOL0     H55700   9.290   7.738   4.641  1.5866  1.4660 -2.7705
  404MOL0     H55701   9.048   7.973   4.461  2.9663 -1.2417 -1.1575
  404MOL0     H55702   8.797   7.819   4.241  1.3773 -0.5923  0.0827
  404MOL0     H55703   8.854   7.962   4.321  3.2099 -0.6680 -0.8666
  404MOL0     H55704   8.693   7.927   4.500 -1.8246 -0.3558 -0.2222
  404MOL0     H55705   8.607   7.911   4.356 -0.6812 -1.8065  0.4232
  404MOL0     H55706   8.705   7.717   4.553  1.5447  1.5574 -1.2651
  404MOL0     H55707   8.538   7.740   4.510 -0.6898 -1.5606 -0.6510
  404MOL0     H55708   8.568   7.621   4.289 -3.8329 -4.7605  1.9244
  404MOL0     H55709   8.733   7.589   4.335 -0.0737  4.4185 -0.1386
  404MOL0     H55710   8.696   7.367   4.223 -0.1709 -0.6812 -1.4185
  404MOL0     H55711   8.707   7.212   4.049  2.1542 -0.9335  0.5236
  404MOL0     H55712   8.593   7.085   4.040 -1.0686  1.4957 -0.5257
  404MOL0     H55713   8.742   7.060   4.135  1.8435  1.4762 -0.4717
  404MOL0     H55714   8.118   6.831   4.257  1.0433  1.3695  1.0829
  404MOL0     H55715   8.024   6.588   4.252 -0.3083  0.1739 -0.6953
  404MOL0     H55716   8.302   6.288   4.420  0.8334  1.4029 -4.8172
  404MOL0     H55717   8.139   6.330   4.501 -0.9332  0.6576 -1.7257
  404MOL0     H55718   8.175   6.105   4.280 -0.0789  3.0396 -0.8526
  404MOL0     H55719   8.178   6.089   4.456  0.7657 -1.8297 -2.3326
  404MOL0     H55720   7.955   6.235   4.308 -1.6719  0.5563  0.3331
  404MOL0     H55721   7.953   6.174   4.471 -1.0029  0.8109 -0.4532
  404MOL0     H55722   7.823   6.025   4.337 -0.2650 -2.6018  3.6848
  404MOL0     H55723   7.975   5.934   4.372 -0.6326 -0.3721 -1.3657
  404MOL0     H55724   7.933   6.076   4.120 -0.1344  0.5065  0.9680
  404MOL0     H55725   8.072   5.965   4.154  0.0716 -0.0950 -0.5447
  404MOL0     H55726   7.871   5.856   4.025 -0.6183 -2.2635 -0.5512
  404MOL0     H55727   7.793   5.860   4.188  0.0589 -1.9604 -1.5545
  404MOL0     H55728   7.890   5.652   4.137  0.0999 -0.1561  0.9918
  404MOL0     H55729   7.950   5.726   4.290  0.5443 -2.4593 -0.3928
  404MOL0     H55730   8.174   5.766   4.172  3.0518 -3.6051  1.4408
  404MOL0     H55731   8.091   5.722   4.018 -1.5474 -2.6430 -0.9446
  404MOL0     H55732   8.411   6.448   4.338 -0.5474 -0.0406 -1.4543
  404MOL0     H55733   8.510   6.660   4.302 -0.5029 -2.0986  2.9096
  404MOL0     H55734   8.364   7.089   4.462 -0.2087 -0.6677 -0.7842
  404MOL0     H55735   8.414   7.326   4.534 -0.0687 -0.0094  0.2449
  404MOL0     H55736   9.788   8.570   4.697 -2.1061  0.9041  0.5351
  404MOL0     H55737   9.921   8.787   4.642 -4.1763 -0.3245 -1.5199
  404MOL0     H55738  10.290   9.144   4.973  0.6726  3.4806  0.4234
  404MOL0     H55739  10.399   9.337   4.899 -0.1047  1.8925 -0.6406
  404MOL0     H55740  10.406   9.433   4.449 -6.0067 -0.7276 -0.5392
  404MOL0     H55741  10.283   9.521   4.519 -0.6084 -1.6585 -0.5351
  404MOL0     H55742  10.579   9.610   4.565  1.3652  1.7421 -0.9547
  404MOL0     H55743  10.424   9.685   4.615  0.4230  0.6234  0.2535
  404MOL0     H55744  10.499   9.632   4.327  4.4994  3.6209 -2.4564
  404MOL0     H55745  10.376   9.749   4.389  0.3757  1.2887  1.1979
  404MOL0     H55746  10.682   9.793   4.401 -0.5682 -2.3707  0.9649
  404MOL0     H55747  10.566   9.874   4.507  0.9137 -1.8913  0.4006
  404MOL0     H55748  10.554  10.089   4.144  0.2789  0.6981  0.2482
  404MOL0     H55749  10.241   9.299   4.514 -2.3862 -1.0417  0.8651
  404MOL0     H55750   9.997   9.047   4.556  0.5952  0.1864  1.7026
  404MOL0     H55751  10.116   9.116   4.454 -2.5917  0.8156 -0.9809
  404MOL0     H55752  10.140   8.950   4.527 -0.2873  0.2657 -0.5039
  405MOL0     O55753   0.464   0.927   8.434  0.3032 -0.3832  0.5047
  405MOL0     C55754   0.449   0.855   8.527 -1.2600  0.7858 -0.3459
  405MOL0     O55755   0.372   0.747   8.546 -0.5806  0.0455 -0.1265
  405MOL0     C55756   0.280   0.724   8.451  0.6871  0.1024  0.4799
  405MOL0     C55757   0.268   0.607   8.369 -0.2410  0.1913  0.1385
  405MOL0     C55758   0.162   0.590   8.288  0.1460  0.1980  0.2028
  405MOL0     C55759   0.067   0.683   8.276  1.0621 -0.5366  0.4509
  405MOL0     O55760  -0.051   0.670   8.202  0.6258  0.9853  0.2635
  405MOL0     C55761  -0.155   0.586   8.255 -0.2286  0.3915 -0.3440
  405MOL0     C55762  -0.144   0.443   8.211  0.5466 -0.5904 -0.3249
  405MOL0     C55763  -0.164   0.429   8.055 -0.1949  0.1746  0.9400
  405MOL0     C55764  -0.126   0.294   8.001  0.4266  0.4245  0.4566
  405MOL0     C55765  -0.134   0.273   7.849 -0.2198  1.0113  0.1650
  405MOL0     C55766  -0.004   0.295   7.782  0.3455  0.0430 -0.0284
  405MOL0     C55767  -0.029   0.335   7.640  0.1502 -0.1383  0.5258
  405MOL0     C55768   0.111   0.342   7.572  0.3745 -1.5676  0.4117
  405MOL0     N55769   0.085   0.402   7.441  0.0130  0.3659  0.0375
  405MOL0     C55770   0.076   0.534   7.408  0.0171 -0.0460  1.1605
  405MOL0     C55771   0.025   0.546   7.278  0.0724 -0.6728  0.9327
  405MOL0     C55772   0.001   0.678   7.205  1.3431  0.7968 -0.2826
  405MOL0     C55773   0.113   0.703   7.104  0.1080  0.8814  0.5420
  405MOL0     C55774   0.234   0.785   7.170 -0.6665 -0.1561 -0.5504
  405MOL0     C55775   0.198   0.922   7.239 -0.2424 -0.0134 -0.4348
  405MOL0     O55776   0.138   0.894   7.373  0.2426  0.2739  0.3504
  405MOL0     C55777   0.106   1.000   7.454  0.5955 -0.9474 -0.4368
  405MOL0     C55778   0.110   1.139   7.419 -0.8549  0.2608  0.0417
  405MOL0     C55779   0.083   1.242   7.506  0.2033  0.3240  0.0310
  405MOL0     C55780   0.110   1.377   7.449  0.2627  0.1717  0.5883
  405MOL0     C55781   0.043   1.210   7.637 -0.0647  0.1574 -0.7554
  405MOL0     C55782   0.018   1.307   7.744  0.5360 -0.3607  0.4457
  405MOL0     O55783   0.027   1.437   7.716 -0.1908  0.4216 -0.5379
  405MOL0     C55784  -0.023   1.533   7.797  0.3488 -0.3445 -0.3166
  405MOL0     C55785   0.063   1.632   7.859  0.1934  0.2950  0.0340
  405MOL0     C55786   0.024   1.723   7.953  0.9147  0.4967 -0.0223
  405MOL0     C55787  -0.114   1.728   7.994  0.2357  0.8688  0.7278
  405MOL0     O55788  -0.164   1.806   8.088  0.0161 -0.0061  0.0437
  405MOL0     C55789  -0.084   1.877   8.186  0.1208 -0.5369  1.0208
  405MOL0     C55790  -0.161   1.951   8.299  0.3125 -0.6078 -0.4233
  405MOL0     C55791  -0.080   2.058   8.378  0.2461  0.1093 -0.4032
  405MOL0     C55792  -0.004   1.998   8.507 -0.3417  0.5706 -0.4331
  405MOL0     C55793   0.096   1.894   8.458  0.1972 -0.6494 -0.2664
  405MOL0     C55794   0.194   1.860   8.565  0.3745 -0.7822 -0.8415
  405MOL0     C55795   0.141   1.821   8.706 -0.2520 -0.2283  0.5989
  405MOL0     C55796   0.260   1.785   8.778 -1.1162  0.2706  0.3482
  405MOL0    Cl55797   0.206   1.710   8.940  0.2956  0.0323 -0.4867
  405MOL0     C55798  -0.206   1.645   7.919  0.4932 -0.2685  0.1742
  405MOL0     C55799  -0.159   1.550   7.824 -0.1268  0.4119 -0.5321
  405MOL0     O55800  -0.019   1.271   7.856  0.1291  0.4361  0.0253
  405MOL0     C55801   0.024   1.077   7.667  0.0115 -0.2937 -0.1951
  405MOL0     C55802   0.048   0.978   7.574 -0.9511  0.7785 -0.1042
  405MOL0     N55803   0.006   0.418   7.237 -0.5134  0.8392  0.0214
  405MOL0     N55804   0.037   0.334   7.332  0.6914  0.5559 -0.1473
  405MOL0     C55805   0.065   0.790   8.359 -0.5110 -1.2897  0.0496
  405MOL0     C55806   0.171   0.811   8.449  0.8486  0.5004  0.1619
  405MOL0     C55807   0.535   0.893   8.642 -0.1961  0.1493 -0.3331
  405MOL0     C55808   0.469   0.888   8.760  0.4043  0.2553 -0.6331
  405MOL0     C55809   0.528   0.914   8.883 -0.7119 -0.8962  0.3756
  405MOL0     C55810   0.658   0.965   8.886 -0.0906 -0.3139  0.3392
  405MOL0     O55811   0.714   1.006   9.004  0.2403 -0.0594 -0.9318
  405MOL0     C55812   0.858   1.034   9.021 -0.6734  0.4552 -0.3407
  405MOL0     C55813   0.892   1.092   9.151  0.0608  0.5486 -0.1646
  405MOL0     C55814   0.835   1.024   9.272 -0.4702  0.4585 -0.4817
  405MOL0     C55815   0.900   0.886   9.307 -0.2656  0.0269  0.1947
  405MOL0     C55816   0.969   0.879   9.430  0.1068 -0.6034 -0.6653
  405MOL0     C55817   1.040   0.895   9.530  0.4483  0.1508 -0.3010
  405MOL0     C55818   0.725   0.974   8.769 -0.4474  1.2506 -0.0351
  405MOL0     C55819   0.668   0.945   8.644 -0.3742 -0.1592  0.6966
  405MOL0     C55820   0.737   0.972   8.517 -0.7502 -0.2393  0.2114
  405MOL0     H55821   0.349   0.535   8.378  0.1952  0.4586 -1.3363
  405MOL0     H55822   0.152   0.509   8.216 -0.5182  0.4694 -0.0206
  405MOL0     H55823  -0.246   0.631   8.215  1.2389  0.4694 -3.9507
  405MOL0     H55824  -0.168   0.593   8.364 -3.5262 -0.3562 -0.5950
  405MOL0     H55825  -0.054   0.393   8.247  1.7751  1.7786  0.1194
  405MOL0     H55826  -0.222   0.383   8.258  0.4662 -0.7262 -0.6298
  405MOL0     H55827  -0.263   0.449   8.014 -0.0879 -0.0101  0.5877
  405MOL0     H55828  -0.088   0.496   8.016  0.4235 -2.3320 -2.6623
  405MOL0     H55829  -0.022   0.275   8.025  1.2930  1.2049 -2.2782
  405MOL0     H55830  -0.192   0.219   8.045  0.2025  0.1972 -0.2488
  405MOL0     H55831  -0.218   0.331   7.810 -0.9658 -1.4960 -2.2335
  405MOL0     H55832  -0.149   0.166   7.836  0.2940  1.1768 -2.1236
  405MOL0     H55833   0.048   0.372   7.841  1.0155  0.1644 -0.7572
  405MOL0     H55834   0.057   0.204   7.783 -1.1569 -1.0037  0.5819
  405MOL0     H55835  -0.073   0.435   7.643 -1.8054 -0.9785  2.5878
  405MOL0     H55836  -0.096   0.277   7.575  1.6856  1.5272 -2.8202
  405MOL0     H55837   0.192   0.387   7.631  0.1258  0.5803 -0.7921
  405MOL0     H55838   0.147   0.240   7.560  1.7855 -1.2181  1.4362
  405MOL0     H55839   0.106   0.616   7.473 -1.3828  2.7479 -1.4992
  405MOL0     H55840  -0.028   0.755   7.277 -1.4047  1.7480 -2.2199
  405MOL0     H55841  -0.092   0.669   7.148 -0.2620 -0.1868  2.3445
  405MOL0     H55842   0.141   0.608   7.058 -1.4513  0.7816 -0.2683
  405MOL0     H55843   0.080   0.768   7.023 -2.3341  1.2034  1.7078
  405MOL0     H55844   0.292   0.725   7.241  0.9144  1.4732 -0.4028
  405MOL0     H55845   0.315   0.804   7.099 -0.1858  0.8629  0.2544
  405MOL0     H55846   0.288   0.984   7.236 -0.0182 -0.3108  0.0187
  405MOL0     H55847   0.122   0.970   7.176  0.4108  2.5244  0.5713
  405MOL0     H55848   0.145   1.157   7.318 -0.8641 -0.6356 -0.1290
  405MOL0     H55849   0.019   1.436   7.434  0.6519  0.4343 -0.9064
  405MOL0     H55850   0.163   1.370   7.354 -0.9882 -2.9239 -0.0053
  405MOL0     H55851   0.174   1.430   7.520 -1.7238 -1.4862  3.8603
  405MOL0     H55852   0.171   1.629   7.848  0.2828  1.8198  0.2795
  405MOL0     H55853   0.096   1.787   8.002  0.3359 -0.3743  2.0369
  405MOL0     H55854  -0.008   1.806   8.221 -2.2932 -3.1486  1.2811
  405MOL0     H55855  -0.027   1.950   8.127  0.5826 -2.1969 -0.6786
  405MOL0     H55856  -0.255   2.001   8.274 -2.9633 -5.1405  1.3495
  405MOL0     H55857  -0.181   1.869   8.369 -3.1277  0.8814  0.5635
  405MOL0     H55858  -0.139   2.145   8.410  0.4892  1.4802 -3.3263
  405MOL0     H55859  -0.009   2.097   8.305 -1.9436  1.6299 -1.8659
  405MOL0     H55860  -0.082   1.952   8.569  0.2220 -1.9672 -1.4669
  405MOL0     H55861   0.035   2.086   8.560  0.7864 -0.0578 -0.1977
  405MOL0     H55862   0.055   1.794   8.449  2.2508 -1.5737 -0.0397
  405MOL0     H55863   0.143   1.921   8.363  0.7826 -0.6392  0.0202
  405MOL0     H55864   0.245   1.956   8.577 -3.1570  1.4741 -2.3397
  405MOL0     H55865   0.251   1.783   8.512 -3.6399 -1.9846 -3.9404
  405MOL0     H55866   0.065   1.743   8.693 -0.7988  0.0622  1.8498
  405MOL0     H55867   0.094   1.905   8.759 -0.8745 -0.7995  0.9693
  405MOL0     H55868   0.328   1.871   8.783 -1.8572  0.7865  3.1826
  405MOL0     H55869   0.309   1.707   8.719 -1.9434  0.9309 -1.2575
  405MOL0     H55870  -0.310   1.644   7.950  0.5525  2.4675  0.7155
  405MOL0     H55871  -0.227   1.476   7.783 -0.3026 -1.1450  2.3820
  405MOL0     H55872  -0.027   1.049   7.758 -2.5671  2.9981 -0.4455
  405MOL0     H55873   0.003   0.880   7.586 -1.7079  1.1246 -0.0552
  405MOL0     H55874  -0.016   0.862   8.364  1.3713  0.9216  0.5764
  405MOL0     H55875   0.167   0.897   8.515  0.7113 -0.0209  0.8409
  405MOL0     H55876   0.363   0.868   8.761  0.3516 -0.3381  3.5299
  405MOL0     H55877   0.456   0.916   8.965 -0.8445  2.5417  0.3441
  405MOL0     H55878   0.919   0.943   9.021  0.0667  0.9412 -0.2979
  405MOL0     H55879   0.917   1.089   8.947  1.4737 -1.4710 -0.1576
  405MOL0     H55880   0.869   1.199   9.159  1.6605  0.8769  0.2779
  405MOL0     H55881   1.001   1.092   9.159 -0.0094  0.8477  0.8944
  405MOL0     H55882   0.846   1.086   9.361 -0.4333 -1.1862  0.7219
  405MOL0     H55883   0.729   1.011   9.247 -0.6301  0.7498  0.0372
  405MOL0     H55884   0.969   0.865   9.225 -1.4016 -1.8336 -0.3578
  405MOL0     H55885   0.821   0.811   9.295 -1.2514  1.4421 -3.3457
  405MOL0     H55886   1.123   0.901   9.597  2.9236 -3.4563 -2.6676
  405MOL0     H55887   0.831   0.997   8.765 -0.1048  0.0430  1.2704
  405MOL0     H55888   0.831   1.027   8.532 -1.7904  1.2312  1.7513
  405MOL0     H55889   0.762   0.879   8.467  0.1653  0.8033 -1.3551
  405MOL0     H55890   0.687   1.040   8.448  1.3513  0.4286 -0.7204
  406MOL0     O55891   0.583   1.876   1.704 -0.1377  1.0529 -0.3222
  406MOL0     C55892   0.601   1.990   1.666  0.3247 -0.3570  0.3967
  406MOL0     O55893   0.509   2.064   1.586  0.0310 -0.6592  0.2432
  406MOL0     C55894   0.380   2.012   1.575 -0.9062 -0.1686  0.3645
  406MOL0     C55895   0.273   2.074   1.654  0.0584  0.0637  0.5548
  406MOL0     C55896   0.139   2.024   1.637  0.1826 -0.2353  0.8529
  406MOL0     C55897   0.119   1.911   1.544  0.4093 -0.9228  0.7157
  406MOL0     O55898   0.001   1.837   1.523  0.0622 -0.2585 -0.1848
  406MOL0     C55899  -0.112   1.912   1.561  0.8280 -0.1069  0.5755
  406MOL0     C55900  -0.229   1.831   1.511 -0.5010  0.5065 -0.8730
  406MOL0     C55901  -0.265   1.725   1.618 -1.4073  0.2571  0.1190
  406MOL0     C55902  -0.360   1.620   1.572 -0.4022 -0.1649  0.3260
  406MOL0     C55903  -0.309   1.502   1.486 -0.7822  0.4106  0.5675
  406MOL0     C55904  -0.421   1.392   1.490  0.4272 -0.0494 -0.4839
  406MOL0     C55905  -0.412   1.277   1.393 -0.0851 -0.7899  0.3663
  406MOL0     C55906  -0.557   1.215   1.359  0.4858 -0.2868 -0.4655
  406MOL0     N55907  -0.636   1.197   1.482 -0.1869 -0.2431  0.5844
  406MOL0     C55908  -0.601   1.159   1.613  0.0424  0.0094  0.4779
  406MOL0     C55909  -0.719   1.182   1.689 -1.3994  0.0991 -0.8179
  406MOL0     C55910  -0.751   1.144   1.830 -0.2458  0.1635  0.7667
  406MOL0     C55911  -0.780   0.991   1.829  1.2275 -0.2374 -0.9576
  406MOL0     C55912  -0.763   0.917   1.962  0.3882 -0.7846  0.2315
  406MOL0     C55913  -0.674   0.796   1.961  0.5323  0.6278  0.5540
  406MOL0     O55914  -0.532   0.826   1.959 -0.1195 -0.3170  0.0087
  406MOL0     C55915  -0.477   0.933   2.031  0.9642  0.5101 -0.3250
  406MOL0     C55916  -0.475   0.939   2.171 -0.5386  0.1895 -0.2553
  406MOL0     C55917  -0.421   1.055   2.230  0.2497  0.9403 -0.1859
  406MOL0     C55918  -0.433   1.045   2.384  0.6770  0.7696 -0.7155
  406MOL0     C55919  -0.364   1.156   2.155  0.4141 -0.2652 -0.9343
  406MOL0     C55920  -0.300   1.284   2.210 -0.9503  0.0462 -0.0034
  406MOL0     O55921  -0.270   1.386   2.129  0.4803  0.1242 -0.1386
  406MOL0     C55922  -0.177   1.476   2.179 -0.3915 -0.5334 -0.1231
  406MOL0     C55923  -0.041   1.443   2.151  0.2017 -0.3891 -0.2530
  406MOL0     C55924   0.067   1.527   2.198 -0.8498  0.7394  0.3596
  406MOL0     C55925   0.038   1.633   2.284 -0.8299  0.2083  0.4438
  406MOL0     O55926   0.143   1.702   2.338  0.0649  0.0616 -0.3477
  406MOL0     C55927   0.120   1.833   2.390  0.3271 -0.4847 -0.7170
  406MOL0     C55928   0.263   1.882   2.443  0.3289  0.0372  0.4962
  406MOL0     C55929   0.268   2.036   2.464  0.6734  0.0362  0.1328
  406MOL0     C55930   0.393   2.077   2.541 -0.7629 -0.5743 -0.8514
  406MOL0     C55931   0.387   2.223   2.592 -0.0308 -0.3822  0.1543
  406MOL0     C55932   0.513   2.277   2.655 -0.9205  0.5233 -0.4409
  406MOL0     C55933   0.520   2.429   2.649 -0.0198 -0.3481  0.3023
  406MOL0     C55934   0.641   2.500   2.713  0.0635 -0.4545 -0.2033
  406MOL0    Cl55935   0.670   2.656   2.653 -0.2531  0.4036 -0.3875
  406MOL0     C55936  -0.092   1.660   2.315  0.2424 -0.1001  0.1436
  406MOL0     C55937  -0.201   1.586   2.259  0.2434 -0.2160  0.8258
  406MOL0     O55938  -0.280   1.290   2.330  0.5290  0.0713  0.1063
  406MOL0     C55939  -0.359   1.140   2.019  0.2053 -0.0996  0.0961
  406MOL0     C55940  -0.423   1.035   1.959  0.8135 -0.0377 -0.8838
  406MOL0     N55941  -0.810   1.238   1.604 -1.2973 -1.1701  0.3773
  406MOL0     N55942  -0.755   1.251   1.486 -0.0422 -0.3426  0.3065
  406MOL0     C55943   0.226   1.850   1.484  0.3127  0.7729  1.3124
  406MOL0     C55944   0.356   1.906   1.495  0.2354  0.4338  0.5291
  406MOL0     C55945   0.706   2.083   1.717  0.1903 -0.1273 -0.1126
  406MOL0     C55946   0.669   2.205   1.762 -0.4620 -0.5101 -0.3548
  406MOL0     C55947   0.771   2.301   1.800 -0.9266 -0.1702  0.0460
  406MOL0     C55948   0.911   2.279   1.768  0.0557  0.4013  0.2291
  406MOL0     O55949   1.004   2.382   1.773 -0.2761 -0.0921 -0.2761
  406MOL0     C55950   1.146   2.367   1.738  0.3762 -0.3991  0.7602
  406MOL0     C55951   1.218   2.503   1.751 -0.0515  0.0946 -0.4352
  406MOL0     C55952   1.253   2.539   1.905  0.9205  0.3971  0.6127
  406MOL0     C55953   1.220   2.689   1.937 -0.1637  0.3561  0.3343
  406MOL0     C55954   1.273   2.722   2.071 -0.2772 -1.2574 -0.3045
  406MOL0     C55955   1.326   2.757   2.178 -0.0240 -0.8830 -0.1656
  406MOL0     C55956   0.944   2.157   1.714 -0.5128 -0.0084 -1.3762
  406MOL0     C55957   0.844   2.058   1.699 -0.7358 -0.1992  0.1804
  406MOL0     C55958   0.903   1.927   1.640  0.0600 -0.7634  0.1769
  406MOL0     H55959   0.290   2.143   1.736 -1.0084  1.4379 -0.3338
  406MOL0     H55960   0.058   2.079   1.685 -0.5327  0.1407 -0.7176
  406MOL0     H55961  -0.111   1.999   1.494 -1.5629 -1.3851 -1.2926
  406MOL0     H55962  -0.109   1.926   1.669  0.1207 -0.0118  0.5857
  406MOL0     H55963  -0.320   1.889   1.490  0.8782  2.3515 -2.1063
  406MOL0     H55964  -0.200   1.775   1.421  4.1930 -0.0073  0.6608
  406MOL0     H55965  -0.168   1.691   1.657  0.8043 -1.0035 -5.4287
  406MOL0     H55966  -0.315   1.774   1.701 -2.7220  0.3321 -0.6799
  406MOL0     H55967  -0.406   1.578   1.662  3.1422 -0.8111  1.9809
  406MOL0     H55968  -0.436   1.668   1.509  1.9453  1.6237 -1.3106
  406MOL0     H55969  -0.230   1.452   1.542 -0.9286  1.4546  1.7631
  406MOL0     H55970  -0.275   1.527   1.385 -2.9891  0.0922 -0.3203
  406MOL0     H55971  -0.436   1.359   1.593  0.5850  0.8907 -0.1530
  406MOL0     H55972  -0.511   1.448   1.463  0.8156  2.5457  2.9513
  406MOL0     H55973  -0.352   1.197   1.436  0.0283 -0.2181  1.3066
  406MOL0     H55974  -0.378   1.315   1.297 -1.4341  1.8482  0.8225
  406MOL0     H55975  -0.617   1.268   1.285 -1.4519  0.1446  1.3151
  406MOL0     H55976  -0.540   1.118   1.312  3.7588  1.0316 -2.3563
  406MOL0     H55977  -0.504   1.118   1.639  0.9811  0.0449 -2.6360
  406MOL0     H55978  -0.843   1.198   1.853  0.0767  0.9163  0.3277
  406MOL0     H55979  -0.682   1.180   1.907  1.1854  0.7200 -0.7131
  406MOL0     H55980  -0.887   0.989   1.805  0.5317  1.3856  1.6456
  406MOL0     H55981  -0.738   0.942   1.740  0.9967  1.3429 -1.9706
  406MOL0     H55982  -0.740   0.987   2.044 -0.3456 -1.0983  0.7139
  406MOL0     H55983  -0.859   0.870   1.985  1.2820 -1.0269  4.1922
  406MOL0     H55984  -0.705   0.735   2.047  2.5122 -3.8687 -1.5952
  406MOL0     H55985  -0.695   0.734   1.873 -1.3705 -0.2064  1.5258
  406MOL0     H55986  -0.517   0.852   2.220  1.4313 -1.7599 -1.8169
  406MOL0     H55987  -0.523   0.992   2.416 -0.1369  1.0156 -2.4691
  406MOL0     H55988  -0.444   1.145   2.425 -2.1730  0.0734  0.4315
  406MOL0     H55989  -0.339   1.005   2.423 -0.4811 -0.7335  0.6704
  406MOL0     H55990  -0.017   1.356   2.090  0.1171 -2.0117  1.9319
  406MOL0     H55991   0.170   1.495   2.183 -0.5869  1.8375 -0.2716
  406MOL0     H55992   0.092   1.887   2.299 -2.3495  0.5733  0.6485
  406MOL0     H55993   0.045   1.842   2.469  1.3702  1.4618  0.1183
  406MOL0     H55994   0.289   1.830   2.535  3.9092 -0.0963 -0.4586
  406MOL0     H55995   0.335   1.843   2.371 -3.7278 -5.7423 -1.1961
  406MOL0     H55996   0.180   2.072   2.518  0.0465 -0.1155 -0.7702
  406MOL0     H55997   0.269   2.080   2.364 -0.9023  1.6717  0.7833
  406MOL0     H55998   0.472   2.077   2.466  2.2454  0.2869  2.0754
  406MOL0     H55999   0.417   2.008   2.623 -1.1858 -2.3652 -2.1866
  406MOL0     H56000   0.367   2.280   2.501 -0.5829  1.2706  1.2678
  406MOL0     H56001   0.307   2.235   2.666  1.2125  4.2799  1.0909
  406MOL0     H56002   0.593   2.232   2.594 -0.3190 -0.4761  1.0257
  406MOL0     H56003   0.511   2.238   2.757  1.5074 -2.0514 -1.2264
  406MOL0     H56004   0.427   2.470   2.690  1.7136  3.0689  1.2193
  406MOL0     H56005   0.537   2.451   2.543  0.6967 -1.4908  0.1579
  406MOL0     H56006   0.726   2.434   2.692  1.9250  2.0320 -0.9981
  406MOL0     H56007   0.627   2.500   2.822  0.7552  0.6278 -0.0970
  406MOL0     H56008  -0.119   1.739   2.384 -1.3143  1.6979 -2.3476
  406MOL0     H56009  -0.304   1.610   2.284  0.4930 -0.0656  1.7372
  406MOL0     H56010  -0.313   1.215   1.956 -3.3680  1.0505 -1.3935
  406MOL0     H56011  -0.428   1.024   1.851 -0.8109  2.0403 -1.0839
  406MOL0     H56012   0.213   1.752   1.438  1.4779  2.7823 -4.1211
  406MOL0     H56013   0.435   1.869   1.431 -0.6016 -0.9109  0.2330
  406MOL0     H56014   0.568   2.240   1.780  0.1414  1.0153  0.3079
  406MOL0     H56015   0.747   2.398   1.842  1.2588  0.2745  0.4161
  406MOL0     H56016   1.202   2.299   1.803 -1.7848 -1.5267  1.5448
  406MOL0     H56017   1.179   2.333   1.640  0.7661  0.1787  0.6831
  406MOL0     H56018   1.144   2.576   1.716 -0.6835 -0.3185  0.0143
  406MOL0     H56019   1.312   2.510   1.695  0.3394  3.3535  0.4183
  406MOL0     H56020   1.203   2.470   1.974  1.2094  2.0547  2.5291
  406MOL0     H56021   1.362   2.526   1.909  1.3321  0.4561 -4.2877
  406MOL0     H56022   1.112   2.706   1.937 -0.2552 -0.0530 -1.5229
  406MOL0     H56023   1.264   2.753   1.860  2.4111  1.7605  2.7500
  406MOL0     H56024   1.345   2.781   2.280  1.2398 -0.7303 -0.4248
  406MOL0     H56025   1.046   2.140   1.682  0.0010 -0.9808  0.6155
  406MOL0     H56026   0.897   1.844   1.711  0.1682 -0.1952  0.8547
  406MOL0     H56027   0.858   1.909   1.542  0.7940  0.3797 -0.3856
  406MOL0     H56028   1.007   1.928   1.607  0.1843 -1.5351  0.5192
  407MOL0     O56029   4.508   7.990   1.832  0.6176  0.0363  0.1121
  407MOL0     C56030   4.441   7.895   1.872  0.5569  0.8130  0.8259
  407MOL0     O56031   4.319   7.853   1.826 -0.1425  0.2836 -0.5779
  407MOL0     C56032   4.297   7.863   1.698  0.2661 -0.4548  0.7620
  407MOL0     C56033   4.397   7.869   1.595 -0.3478  0.1628  0.0904
  407MOL0     C56034   4.370   7.838   1.466  0.1978  0.5803  0.2940
  407MOL0     C56035   4.242   7.820   1.426  0.6590  0.4490  0.4105
  407MOL0     O56036   4.226   7.803   1.293 -0.1705 -0.1081  0.5115
  407MOL0     C56037   4.109   7.856   1.222 -0.0491 -0.9191 -0.6641
  407MOL0     C56038   4.036   7.718   1.180 -0.1908 -0.2976  0.1682
  407MOL0     C56039   3.885   7.712   1.200  0.2334 -0.2056  0.1593
  407MOL0     C56040   3.855   7.710   1.350  0.3853  0.4716  0.2902
  407MOL0     C56041   3.719   7.667   1.401  0.1366  0.0602 -0.4603
  407MOL0     C56042   3.597   7.764   1.363 -0.0429 -0.5397 -1.2267
  407MOL0     C56043   3.481   7.749   1.466 -0.5180 -0.0498  0.0240
  407MOL0     C56044   3.517   7.825   1.596 -0.0637  0.0399  0.4144
  407MOL0     N56045   3.413   7.896   1.667  0.6021  0.9241 -0.6940
  407MOL0     C56046   3.311   7.967   1.617  0.1111 -0.9290  0.4227
  407MOL0     C56047   3.229   7.990   1.727 -0.3956 -0.6079  0.4731
  407MOL0     C56048   3.090   8.047   1.719 -0.2504 -0.2383 -0.4837
  407MOL0     C56049   3.075   8.191   1.758 -0.0011  0.7063 -0.2667
  407MOL0     C56050   2.933   8.235   1.705 -0.2232 -0.2458 -0.1533
  407MOL0     C56051   2.902   8.383   1.742  0.0338 -0.2677  0.4631
  407MOL0     O56052   2.885   8.404   1.882 -0.4953  0.1105  0.8588
  407MOL0     C56053   2.856   8.529   1.913  0.3254 -0.0341 -1.5696
  407MOL0     C56054   2.836   8.552   2.060  0.2142  0.5969  0.3580
  407MOL0     C56055   2.816   8.684   2.107  0.3349  0.4293 -0.0054
  407MOL0     C56056   2.782   8.695   2.259  0.1983 -0.0855  1.1683
  407MOL0     C56057   2.806   8.793   2.021  0.0663  0.3314  1.3751
  407MOL0     C56058   2.764   8.931   2.064 -0.1841 -0.4632  0.1144
  407MOL0     O56059   2.848   9.038   2.026 -0.0353 -0.5925 -0.3683
  407MOL0     C56060   2.792   9.169   2.048  0.4239  1.1484  0.9934
  407MOL0     C56061   2.669   9.210   1.991  0.4333 -1.4012  0.4905
  407MOL0     C56062   2.631   9.346   2.006  0.5796 -0.7124 -0.3205
  407MOL0     C56063   2.696   9.437   2.093 -0.7694 -0.2086 -1.0916
  407MOL0     O56064   2.638   9.563   2.124 -1.6253 -0.2395 -0.2934
  407MOL0     C56065   2.688   9.628   2.230 -0.5144 -0.2952 -0.1393
  407MOL0     C56066   2.592   9.740   2.264  0.5002  0.1647  0.2177
  407MOL0     C56067   2.629   9.845   2.367 -0.8130  0.5364 -0.8202
  407MOL0     C56068   2.761   9.915   2.336 -0.0689 -0.0924 -0.3124
  407MOL0     C56069   2.752  10.017   2.224  0.2032  0.0437  1.0358
  407MOL0     C56070   2.886  10.076   2.185  0.5006  0.2453  0.7470
  407MOL0     C56071   2.940  10.177   2.286  0.4309  0.3125 -0.0807
  407MOL0     C56072   3.061  10.249   2.233  0.1805 -0.1270 -0.2103
  407MOL0    Cl56073   3.124  10.363   2.361  0.0901  0.7694  0.0548
  407MOL0     C56074   2.818   9.392   2.143 -0.4514  0.2026  0.0789
  407MOL0     C56075   2.870   9.260   2.119  0.1244 -0.8106  0.1900
  407MOL0     O56076   2.670   8.946   2.146 -1.0210 -0.5364 -0.6694
  407MOL0     C56077   2.826   8.778   1.891  1.6782  0.5107 -0.4348
  407MOL0     C56078   2.843   8.648   1.838 -1.2508  0.2258 -0.1074
  407MOL0     N56079   3.292   7.933   1.836  0.1096  0.4427  0.2939
  407MOL0     N56080   3.399   7.875   1.799 -0.4115 -0.4405 -0.1663
  407MOL0     C56081   4.144   7.831   1.529  0.5927 -0.8767 -0.9870
  407MOL0     C56082   4.168   7.840   1.659  0.5549 -0.3611  0.2950
  407MOL0     C56083   4.482   7.839   2.004 -0.5331 -0.9548  0.2501
  407MOL0     C56084   4.531   7.932   2.098 -0.3220  0.9966 -0.6594
  407MOL0     C56085   4.572   7.882   2.228  0.5848  0.0644 -0.8762
  407MOL0     C56086   4.580   7.745   2.252 -0.4797 -1.0648  0.5357
  407MOL0     O56087   4.631   7.703   2.373 -0.4697 -0.3048 -0.2859
  407MOL0     C56088   4.648   7.557   2.406  0.1688  0.6025  0.3069
  407MOL0     C56089   4.706   7.546   2.552  0.3946 -0.3185  0.0374
  407MOL0     C56090   4.707   7.408   2.621  0.4865  0.3495 -0.6046
  407MOL0     C56091   4.764   7.437   2.764  0.1485  1.3881 -0.6501
  407MOL0     C56092   4.755   7.313   2.843 -0.8542 -0.0761  0.0467
  407MOL0     C56093   4.750   7.217   2.917  0.3659  0.4116  0.1280
  407MOL0     C56094   4.528   7.660   2.151  0.4842  0.6416 -0.1776
  407MOL0     C56095   4.475   7.700   2.037  0.2910 -0.1988 -0.0845
  407MOL0     C56096   4.439   7.584   1.936 -0.5963 -0.4598 -0.5417
  407MOL0     H56097   4.504   7.874   1.611 -0.1933  0.2894 -0.9686
  407MOL0     H56098   4.440   7.850   1.385  0.8229  0.1074  0.7504
  407MOL0     H56099   4.133   7.923   1.139 -0.0616 -1.7352 -1.3370
  407MOL0     H56100   4.043   7.914   1.287  1.0435  0.1831 -0.4923
  407MOL0     H56101   4.053   7.713   1.072  1.0201 -1.0878  0.3799
  407MOL0     H56102   4.083   7.636   1.234 -0.3821  0.7941  2.0720
  407MOL0     H56103   3.834   7.791   1.145  0.4015 -1.1956 -1.5100
  407MOL0     H56104   3.851   7.620   1.151  1.3151 -0.5399 -0.0023
  407MOL0     H56105   3.929   7.640   1.390 -0.1626 -0.8752 -0.9504
  407MOL0     H56106   3.878   7.811   1.382 -2.4424  1.0209  0.8369
  407MOL0     H56107   3.721   7.660   1.510  0.2070  1.6469 -0.3386
  407MOL0     H56108   3.688   7.569   1.363 -3.6209  0.9955 -0.2164
  407MOL0     H56109   3.626   7.869   1.365 -2.0807  0.0548  0.3303
  407MOL0     H56110   3.563   7.748   1.261 -2.5426 -2.8842 -0.1335
  407MOL0     H56111   3.467   7.644   1.495 -2.9674  1.0728  3.5240
  407MOL0     H56112   3.396   7.802   1.423 -1.8077 -1.2446  0.9824
  407MOL0     H56113   3.572   7.759   1.664  3.0354  2.3404  0.3733
  407MOL0     H56114   3.587   7.902   1.560  0.1012 -0.1210  0.3846
  407MOL0     H56115   3.296   7.996   1.514 -0.2282 -2.4897  0.0112
  407MOL0     H56116   3.011   7.997   1.776 -1.1368  1.4861 -0.1502
  407MOL0     H56117   3.071   8.024   1.614 -0.1993 -3.5002  0.0966
  407MOL0     H56118   3.084   8.201   1.867 -1.4697  1.8892 -0.2361
  407MOL0     H56119   3.163   8.239   1.713 -0.2744  1.9058  0.4501
  407MOL0     H56120   2.931   8.217   1.597  1.7791 -0.0071 -0.2639
  407MOL0     H56121   2.858   8.170   1.752  0.1781 -0.0727  0.7338
  407MOL0     H56122   2.987   8.443   1.708  0.6931 -1.7178 -0.5536
  407MOL0     H56123   2.830   8.419   1.668  2.7016  0.0299 -2.1877
  407MOL0     H56124   2.837   8.469   2.130  1.0510 -0.3100 -0.6688
  407MOL0     H56125   2.849   8.773   2.295 -0.1830  1.6384 -1.5209
  407MOL0     H56126   2.796   8.600   2.312 -0.2413 -1.5871 -1.2306
  407MOL0     H56127   2.685   8.735   2.288  0.5666 -0.3943  2.9050
  407MOL0     H56128   2.594   9.141   1.955  0.7059 -0.5344 -1.9010
  407MOL0     H56129   2.533   9.382   1.975  0.3342 -0.4968  0.6625
  407MOL0     H56130   2.708   9.568   2.319 -1.2537  0.6178  0.6601
  407MOL0     H56131   2.779   9.678   2.195 -1.0359  2.2423  1.8624
  407MOL0     H56132   2.569   9.787   2.168  2.5621 -0.8618 -0.8458
  407MOL0     H56133   2.499   9.687   2.288  0.1398  0.2878 -0.8504
  407MOL0     H56134   2.640   9.796   2.464  1.9645  0.0792 -1.2753
  407MOL0     H56135   2.549   9.919   2.372 -1.1230  0.1256  1.4404
  407MOL0     H56136   2.839   9.843   2.308  0.4731  0.4187 -0.1511
  407MOL0     H56137   2.790   9.978   2.421 -0.2030  2.1550 -1.8357
  407MOL0     H56138   2.705   9.972   2.136 -3.2942  1.7449  1.8422
  407MOL0     H56139   2.690  10.100   2.259  1.4507  1.8692 -0.9304
  407MOL0     H56140   2.870  10.134   2.094  0.0140 -1.5771 -0.3646
  407MOL0     H56141   2.953   9.990   2.171  1.7961  1.4165 -0.5464
  407MOL0     H56142   2.991  10.138   2.374  1.9770 -0.1982 -1.1669
  407MOL0     H56143   2.866  10.251   2.320  0.3885 -0.6465  2.0871
  407MOL0     H56144   3.043  10.306   2.141 -2.3454  0.1533  0.3720
  407MOL0     H56145   3.140  10.178   2.207 -1.6492 -1.4094 -2.7950
  407MOL0     H56146   2.884   9.459   2.197 -1.4775  1.1041  0.2502
  407MOL0     H56147   2.964   9.221   2.157 -0.4975 -0.6740  1.9554
  407MOL0     H56148   2.837   8.866   1.829 -1.7048  2.2629  1.1883
  407MOL0     H56149   2.877   8.642   1.735  0.8002  0.6053  0.4923
  407MOL0     H56150   4.039   7.832   1.502 -0.2486 -0.6088  1.9291
  407MOL0     H56151   4.080   7.834   1.723  0.5899 -1.6559  0.2524
  407MOL0     H56152   4.546   8.035   2.070  0.8548  0.5473 -1.7654
  407MOL0     H56153   4.610   7.947   2.306  0.4657 -0.5784 -0.2791
  407MOL0     H56154   4.547   7.516   2.408 -0.2535  1.6155  0.5718
  407MOL0     H56155   4.707   7.499   2.336  0.3809 -2.2120  2.6327
  407MOL0     H56156   4.654   7.624   2.609  3.1625  3.3695 -2.0834
  407MOL0     H56157   4.805   7.592   2.553 -0.0907  0.7418  0.7761
  407MOL0     H56158   4.607   7.364   2.626  1.1827 -1.5246 -1.9127
  407MOL0     H56159   4.765   7.341   2.557 -0.3165  1.8514 -3.0082
  407MOL0     H56160   4.707   7.512   2.821  0.9862  1.6357 -0.1177
  407MOL0     H56161   4.867   7.473   2.756  0.3193  0.6285 -2.0583
  407MOL0     H56162   4.749   7.130   2.981  3.7131  0.0293 -0.1529
  407MOL0     H56163   4.527   7.553   2.164 -2.9933  0.6703  0.7859
  407MOL0     H56164   4.342   7.540   1.960  0.0018 -2.2344 -1.1827
  407MOL0     H56165   4.426   7.619   1.833  2.3223  1.5207 -0.3762
  407MOL0     H56166   4.516   7.505   1.935  1.4074  1.3988 -1.5615
  408MOL0     O56167   2.627  11.051   2.723  0.1448  0.1653  0.5447
  408MOL0     C56168   2.623  10.931   2.707  0.2436 -0.8867  0.0930
  408MOL0     O56169   2.513  10.856   2.658  0.3823 -0.5678  0.0027
  408MOL0     C56170   2.386  10.908   2.620  0.6168  0.2940  0.2304
  408MOL0     C56171   2.278  10.825   2.595 -0.6719  0.0948  0.4051
  408MOL0     C56172   2.158  10.865   2.544 -0.1143 -0.6326 -0.0544
  408MOL0     C56173   2.148  10.989   2.482  0.6506 -0.5911 -0.3949
  408MOL0     O56174   2.037  11.024   2.411  0.1505 -0.0770  0.3761
  408MOL0     C56175   2.019  11.164   2.363  0.3257  0.8141  0.5169
  408MOL0     C56176   1.874  11.198   2.334  0.1994 -0.2148  0.2944
  408MOL0     C56177   1.815  11.116   2.215 -0.5078 -0.0958 -1.0682
  408MOL0     C56178   1.663  11.126   2.211  0.3169 -0.4939 -0.2425
  408MOL0     C56179   1.592  11.029   2.115  0.5914 -0.4958 -0.9579
  408MOL0     C56180   1.647  11.040   1.978  0.2986  0.9608  0.1589
  408MOL0     C56181   1.570  10.968   1.868 -0.5822 -0.7881 -0.4047
  408MOL0     C56182   1.650  10.958   1.739 -0.3485 -0.4399  0.1241
  408MOL0     N56183   1.716  10.827   1.733 -0.2860  0.1758 -0.0858
  408MOL0     C56184   1.698  10.720   1.645  0.2080 -0.4948 -0.7620
  408MOL0     C56185   1.801  10.631   1.675  0.5804  0.1764  0.3933
  408MOL0     C56186   1.851  10.518   1.585  0.0844  1.1008  0.8680
  408MOL0     C56187   1.996  10.530   1.552 -0.8315 -0.1513 -0.9137
  408MOL0     C56188   2.015  10.565   1.406 -0.6108  0.0769 -0.3877
  408MOL0     C56189   2.158  10.571   1.335  1.0139  0.0701 -1.4761
  408MOL0     O56190   2.194  10.707   1.313 -0.2073  0.0212 -0.8467
  408MOL0     C56191   2.270  10.773   1.414  0.3406 -0.3246  0.9324
  408MOL0     C56192   2.328  10.713   1.525 -0.5237 -1.4435  0.0848
  408MOL0     C56193   2.415  10.786   1.616 -0.1180  0.3221  0.0765
  408MOL0     C56194   2.472  10.697   1.724 -0.2666  0.4039 -0.6689
  408MOL0     C56195   2.449  10.924   1.599 -0.3744  0.9579 -0.6271
  408MOL0     C56196   2.542  11.009   1.678  0.4400  1.1284  0.4740
  408MOL0     O56197   2.552  11.143   1.641  0.4125  0.3729 -0.4543
  408MOL0     C56198   2.656  11.210   1.704 -0.3529  0.4142 -0.3417
  408MOL0     C56199   2.775  11.237   1.624  0.7284  0.6481  0.1164
  408MOL0     C56200   2.881  11.302   1.682 -1.0432  0.8701 -0.7186
  408MOL0     C56201   2.880  11.345   1.813 -0.3714 -0.3181 -0.2402
  408MOL0     O56202   2.988  11.412   1.854  0.4436  0.2594 -0.3688
  408MOL0     C56203   3.065  11.342   1.957 -0.2175  0.4551  0.5271
  408MOL0     C56204   3.125  11.440   2.053  0.2288  0.2445  0.0702
  408MOL0     C56205   3.220  11.541   1.992 -0.1730 -0.0394 -0.0562
  408MOL0     C56206   3.227  11.678   2.070  0.1186 -0.1490 -1.3775
  408MOL0     C56207   3.331  11.682   2.192  0.8826 -0.7344  0.4500
  408MOL0     C56208   3.329  11.802   2.283 -0.7527 -0.1487 -0.0904
  408MOL0     C56209   3.344  11.768   2.426  0.0381  0.2724 -0.1698
  408MOL0     C56210   3.317  11.892   2.513  0.5812 -0.7775  0.1754
  408MOL0    Cl56211   3.385  11.870   2.667 -0.1632 -0.2535 -0.6937
  408MOL0     C56212   2.761  11.328   1.879  0.0714 -0.1693 -0.6515
  408MOL0     C56213   2.650  11.256   1.829  0.1199 -0.6055 -0.2816
  408MOL0     O56214   2.600  10.958   1.770 -0.8821 -0.2434  0.0078
  408MOL0     C56215   2.409  10.971   1.469  0.3535 -0.2232 -1.0330
  408MOL0     C56216   2.312  10.907   1.386  0.4301  0.6947  0.5578
  408MOL0     N56217   1.875  10.682   1.776  0.2116 -0.7235 -0.1406
  408MOL0     N56218   1.823  10.787   1.816 -0.0571 -0.2589 -0.0997
  408MOL0     C56219   2.256  11.075   2.492 -0.2932  0.1208 -0.7847
  408MOL0     C56220   2.368  11.038   2.569 -0.6330 -0.3219  0.5965
  408MOL0     C56221   2.748  10.851   2.724 -0.3614 -0.7815  0.3552
  408MOL0     C56222   2.776  10.747   2.630 -0.3222 -0.2749  0.0213
  408MOL0     C56223   2.893  10.667   2.649 -0.5546 -0.0900  0.2552
  408MOL0     C56224   2.973  10.684   2.764 -1.2929  0.3175  0.5806
  408MOL0     O56225   3.078  10.601   2.779 -0.9524 -0.6856 -0.0474
  408MOL0     C56226   3.164  10.617   2.904  0.4711 -0.5303 -0.1666
  408MOL0     C56227   3.265  10.503   2.918  0.1537  0.2116 -0.1663
  408MOL0     C56228   3.373  10.537   3.013  0.7265 -0.1785  0.7980
  408MOL0     C56229   3.464  10.419   3.048 -0.5379  0.4749  0.0737
  408MOL0     C56230   3.459  10.365   3.187  0.2487  0.5948  0.5413
  408MOL0     C56231   3.432  10.348   3.303  0.3533  0.2018 -0.5037
  408MOL0     C56232   2.938  10.787   2.846  0.3974  0.0794 -0.0371
  408MOL0     C56233   2.835  10.873   2.835  0.3453  0.4618 -0.8974
  408MOL0     C56234   2.801  10.982   2.936 -0.3068  1.0322  0.2700
  408MOL0     H56235   2.297  10.718   2.597  2.8966  0.6093  2.1145
  408MOL0     H56236   2.074  10.799   2.526 -0.2582 -0.3631 -0.3643
  408MOL0     H56237   2.085  11.175   2.276  1.0117  1.5563  1.1156
  408MOL0     H56238   2.055  11.233   2.439  3.1668  1.3526 -1.1586
  408MOL0     H56239   1.822  11.166   2.425  0.3517 -2.0913 -0.2446
  408MOL0     H56240   1.864  11.303   2.305 -2.6131 -0.3602  0.5361
  408MOL0     H56241   1.858  11.155   2.122  0.0538 -3.1088 -2.1974
  408MOL0     H56242   1.840  11.010   2.226 -1.4217 -0.3305 -1.2158
  408MOL0     H56243   1.624  11.098   2.309 -0.2895 -6.0416 -1.6744
  408MOL0     H56244   1.634  11.229   2.190 -1.8779 -1.5941 -3.6248
  408MOL0     H56245   1.486  11.054   2.111  1.2144  3.4328  1.6118
  408MOL0     H56246   1.606  10.930   2.161  2.3725  0.0538 -0.2517
  408MOL0     H56247   1.635  11.147   1.958 -2.8905  0.5958 -0.3732
  408MOL0     H56248   1.753  11.011   1.979  0.2586  0.8085  0.0414
  408MOL0     H56249   1.475  11.019   1.847 -0.0441  0.3961 -0.0059
  408MOL0     H56250   1.543  10.867   1.901 -4.6806 -0.2559 -1.5092
  408MOL0     H56251   1.587  10.968   1.650  0.5774 -1.0867 -0.6295
  408MOL0     H56252   1.719  11.043   1.733 -0.0849 -0.4841  2.0929
  408MOL0     H56253   1.626  10.701   1.566  0.5978  1.4842 -1.6584
  408MOL0     H56254   1.794  10.531   1.492 -0.6675 -2.4036  0.7091
  408MOL0     H56255   1.836  10.415   1.619  5.0956 -1.2626 -2.8185
  408MOL0     H56256   2.034  10.615   1.609 -1.7909  1.3855 -2.4961
  408MOL0     H56257   2.047  10.433   1.557 -1.6999 -0.5660  0.1181
  408MOL0     H56258   1.950  10.499   1.347  1.0264 -0.6721 -1.4145
  408MOL0     H56259   1.976  10.667   1.399  1.1133  1.0428  2.5224
  408MOL0     H56260   2.233  10.515   1.391 -0.4489  3.3728  4.5835
  408MOL0     H56261   2.151  10.524   1.236  1.7472 -1.2078 -0.9352
  408MOL0     H56262   2.313  10.608   1.549  0.2018 -0.9568  3.0401
  408MOL0     H56263   2.553  10.625   1.705 -0.6028  0.6070 -3.1992
  408MOL0     H56264   2.390  10.634   1.758  0.1377  1.2179  2.1309
  408MOL0     H56265   2.489  10.750   1.818 -0.4231 -1.0996  0.2393
  408MOL0     H56266   2.783  11.214   1.518 -0.6023  0.3822  0.0544
  408MOL0     H56267   2.971  11.330   1.628 -0.5422 -2.6090 -1.9283
  408MOL0     H56268   2.987  11.284   2.008 -0.8248  1.0794  0.3225
  408MOL0     H56269   3.146  11.285   1.911 -1.1757 -0.3416 -0.2247
  408MOL0     H56270   3.043  11.495   2.100 -0.7014 -0.6268 -0.4984
  408MOL0     H56271   3.163  11.384   2.139  0.5468 -0.4649 -0.5212
  408MOL0     H56272   3.181  11.574   1.895 -0.7195  2.5003  0.9525
  408MOL0     H56273   3.319  11.495   1.989  1.1058  2.4993  0.1201
  408MOL0     H56274   3.131  11.693   2.120 -0.1439 -2.7283 -0.9755
  408MOL0     H56275   3.249  11.765   2.009 -0.5546  1.9005  1.1114
  408MOL0     H56276   3.338  11.590   2.250  1.8740 -1.9553 -1.4829
  408MOL0     H56277   3.432  11.677   2.151  0.7542  0.0582  0.0074
  408MOL0     H56278   3.236  11.858   2.265  1.1094  2.9661 -0.8282
  408MOL0     H56279   3.411  11.864   2.246 -2.4599  2.7467  0.6018
  408MOL0     H56280   3.440  11.725   2.456  0.7128  3.3920  2.7046
  408MOL0     H56281   3.279  11.688   2.464  0.1638  0.5863  0.7274
  408MOL0     H56282   3.210  11.909   2.525  0.7510 -0.2340  1.0025
  408MOL0     H56283   3.356  11.983   2.465 -1.5432  1.3655  2.2600
  408MOL0     H56284   2.755  11.363   1.982  1.7867 -3.3271  0.6741
  408MOL0     H56285   2.573  11.246   1.905  2.7882 -2.5522  2.4107
  408MOL0     H56286   2.423  11.073   1.436 -0.7092  0.7786  1.3886
  408MOL0     H56287   2.286  10.963   1.297  0.5979 -0.9957 -0.6078
  408MOL0     H56288   2.240  11.175   2.454 -1.3478 -0.2252 -1.3154
  408MOL0     H56289   2.450  11.109   2.573 -0.2668 -0.6895 -0.1820
  408MOL0     H56290   2.696  10.728   2.559 -1.9408 -1.7288  2.0947
  408MOL0     H56291   2.909  10.582   2.583 -0.4075  0.4614 -0.4394
  408MOL0     H56292   3.215  10.714   2.904  0.6661 -0.6153 -1.1918
  408MOL0     H56293   3.092  10.610   2.986  0.7370 -3.3935 -0.0753
  408MOL0     H56294   3.316  10.483   2.823  3.1111 -1.2514  1.5680
  408MOL0     H56295   3.214  10.411   2.945  0.8226 -0.4755 -1.1961
  408MOL0     H56296   3.424  10.625   2.974 -2.7395  1.7943  0.3608
  408MOL0     H56297   3.319  10.579   3.098 -1.6328  0.8618 -1.0904
  408MOL0     H56298   3.568  10.448   3.031  0.4756 -2.2252  1.0767
  408MOL0     H56299   3.448  10.332   2.984  1.3076 -0.0772  0.3105
  408MOL0     H56300   3.398  10.339   3.404 -0.5921 -0.2396 -0.8489
  408MOL0     H56301   3.011  10.819   2.920 -0.2091  1.7529 -0.1089
  408MOL0     H56302   2.882  10.988   3.010 -0.1225 -1.1783  0.3038
  408MOL0     H56303   2.795  11.083   2.894  2.3631  1.5752  0.9703
  408MOL0     H56304   2.708  10.954   2.987  0.2969 -0.2059  0.7457
  409MOL0     O56305   4.947   8.822   2.395  0.0054  0.2520 -0.7549
  409MOL0     C56306   4.969   8.909   2.476  0.0538 -0.6729 -0.7864
  409MOL0     O56307   4.949   8.894   2.611  0.2392 -0.7963  0.3722
  409MOL0     C56308   4.908   8.782   2.675 -0.8081  0.2870  0.7728
  409MOL0     C56309   4.966   8.767   2.804 -0.3425 -0.3204  0.1783
  409MOL0     C56310   4.925   8.662   2.888 -0.7220  0.2479 -0.1502
  409MOL0     C56311   4.836   8.559   2.839 -1.3432  1.1211 -0.4017
  409MOL0     O56312   4.801   8.449   2.909  0.5345 -0.3201  0.2538
  409MOL0     C56313   4.777   8.461   3.051  0.0159 -0.5889 -0.5675
  409MOL0     C56314   4.689   8.340   3.096 -0.7015 -0.6018  0.3765
  409MOL0     C56315   4.620   8.372   3.226 -0.4789 -0.1859 -0.0565
  409MOL0     C56316   4.534   8.254   3.273 -0.1235  0.5163  1.0335
  409MOL0     C56317   4.432   8.272   3.387 -0.1059 -0.1032  0.0915
  409MOL0     C56318   4.327   8.385   3.375 -0.5209  0.2387 -0.0371
  409MOL0     C56319   4.197   8.350   3.299  0.0298  0.1594 -0.2054
  409MOL0     C56320   4.220   8.317   3.150 -0.1565  0.1448 -0.4426
  409MOL0     N56321   4.093   8.346   3.084 -0.2006  0.2280  0.7184
  409MOL0     C56322   4.083   8.441   2.986  0.9003  0.7496  0.2105
  409MOL0     C56323   3.970   8.403   2.923 -0.4517 -0.9909 -0.2405
  409MOL0     C56324   3.941   8.478   2.799  0.2113 -0.2128 -0.5888
  409MOL0     C56325   3.802   8.431   2.745 -0.4175 -0.8056  0.1684
  409MOL0     C56326   3.750   8.512   2.631 -0.1505  0.7797 -0.1212
  409MOL0     C56327   3.604   8.482   2.606 -0.4924 -0.6028 -0.5210
  409MOL0     O56328   3.508   8.562   2.694 -0.5755  0.8508 -0.1044
  409MOL0     C56329   3.397   8.617   2.636 -0.2186  0.8109  0.9581
  409MOL0     C56330   3.311   8.555   2.544 -0.1155  0.0318  0.3444
  409MOL0     C56331   3.186   8.616   2.512  0.4398  0.5067 -0.5740
  409MOL0     C56332   3.087   8.538   2.419 -0.0782 -0.9253  0.2721
  409MOL0     C56333   3.144   8.740   2.571  0.1074  0.2384  0.9749
  409MOL0     C56334   3.016   8.803   2.554  1.0969  0.3271  0.1395
  409MOL0     O56335   3.013   8.933   2.572 -0.1904  0.2085  1.0561
  409MOL0     C56336   2.889   9.001   2.575 -1.7048  0.5438  0.6686
  409MOL0     C56337   2.823   9.039   2.691 -0.9256  0.7491 -0.1680
  409MOL0     C56338   2.712   9.126   2.698 -0.8206 -0.1334 -0.1029
  409MOL0     C56339   2.671   9.181   2.571 -0.1264 -0.5669  0.0080
  409MOL0     O56340   2.569   9.271   2.573 -0.6896 -1.0214  0.2784
  409MOL0     C56341   2.453   9.219   2.630 -0.5164  0.1325 -0.4319
  409MOL0     C56342   2.331   9.307   2.582 -0.4037  0.2784 -0.2613
  409MOL0     C56343   2.287   9.284   2.437  1.3262  0.1066  0.4273
  409MOL0     C56344   2.169   9.374   2.392  0.2156 -0.3845 -0.0001
  409MOL0     C56345   2.117   9.332   2.257  0.1769  0.1851 -0.9594
  409MOL0     C56346   2.222   9.334   2.142  0.5611 -0.8444  0.4725
  409MOL0     C56347   2.265   9.478   2.101 -0.3569 -0.4616 -0.0160
  409MOL0     C56348   2.146   9.561   2.037 -0.5602  0.7652  0.4788
  409MOL0    Cl56349   2.093   9.492   1.879  0.6385 -0.1467  0.1594
  409MOL0     C56350   2.729   9.144   2.449  0.5965 -0.8925 -0.1061
  409MOL0     C56351   2.838   9.054   2.447  0.6165  0.6007 -0.3961
  409MOL0     O56352   2.919   8.728   2.538  0.5610 -0.1815  0.0932
  409MOL0     C56353   3.237   8.806   2.663  1.0410 -0.5275 -0.8385
  409MOL0     C56354   3.354   8.735   2.691 -0.6322  0.4817 -0.0063
  409MOL0     N56355   3.921   8.291   2.975  0.4604 -0.0928 -0.9361
  409MOL0     N56356   3.990   8.260   3.083  0.4183 -0.8066  0.8883
  409MOL0     C56357   4.792   8.570   2.710  0.5658 -0.7437 -0.2711
  409MOL0     C56358   4.831   8.681   2.630  0.2826  0.0044 -0.6244
  409MOL0     C56359   5.029   9.045   2.428  0.2284  0.7504  0.3592
  409MOL0     C56360   5.092   9.133   2.529  0.1832 -0.3817 -0.1392
  409MOL0     C56361   5.154   9.253   2.482 -0.1467 -0.1455 -0.3612
  409MOL0     C56362   5.150   9.295   2.342  0.6691  0.7694 -0.5913
  409MOL0     O56363   5.222   9.406   2.301 -0.1899  0.4630  0.5490
  409MOL0     C56364   5.248   9.422   2.150  0.5645 -0.3233 -0.8318
  409MOL0     C56365   5.161   9.535   2.080 -0.0852  0.3572  0.9133
  409MOL0     C56366   5.186   9.525   1.926 -0.2328  0.3650  0.0318
  409MOL0     C56367   5.121   9.390   1.861  0.2136  0.2789  0.0394
  409MOL0     C56368   4.997   9.358   1.923  0.1041 -0.1864  0.7603
  409MOL0     C56369   4.880   9.345   1.965  0.6943 -0.2344  0.5235
  409MOL0     C56370   5.085   9.206   2.260  0.3611  0.3886 -0.3977
  409MOL0     C56371   5.012   9.093   2.302  0.6717  0.1098  0.2841
  409MOL0     C56372   4.952   9.018   2.183  0.4064 -0.4499  0.1760
  409MOL0     H56373   5.034   8.835   2.853 -0.1217 -0.2616 -0.2096
  409MOL0     H56374   4.959   8.671   2.991 -0.0243  2.7382 -0.5321
  409MOL0     H56375   4.711   8.547   3.064  1.0575  0.2640 -0.7035
  409MOL0     H56376   4.864   8.479   3.115  0.6087  0.3760 -1.6150
  409MOL0     H56377   4.623   8.327   3.010  0.6334 -0.1931 -0.7544
  409MOL0     H56378   4.758   8.257   3.113  0.4906 -0.1337 -1.8494
  409MOL0     H56379   4.700   8.384   3.300 -0.3469 -2.4770  0.2331
  409MOL0     H56380   4.565   8.465   3.210  1.9175  1.6155  1.4267
  409MOL0     H56381   4.479   8.212   3.188  2.2293 -0.4488 -0.1255
  409MOL0     H56382   4.597   8.167   3.296  0.6876 -0.6691 -4.2139
  409MOL0     H56383   4.500   8.294   3.470  2.8573 -1.2273 -1.8606
  409MOL0     H56384   4.377   8.185   3.426 -0.2397 -0.3837 -0.7031
  409MOL0     H56385   4.305   8.416   3.477  2.9347  1.0115  0.6046
  409MOL0     H56386   4.365   8.478   3.332 -1.6680  0.5272 -0.4568
  409MOL0     H56387   4.131   8.437   3.295 -0.5054 -0.2875 -1.6330
  409MOL0     H56388   4.141   8.266   3.343 -2.0345 -1.3594 -5.0554
  409MOL0     H56389   4.290   8.388   3.102 -1.3873  1.8769  0.2130
  409MOL0     H56390   4.245   8.211   3.155  0.9197  0.4085  0.2220
  409MOL0     H56391   4.156   8.515   2.958 -1.3609  2.1666 -2.3929
  409MOL0     H56392   4.004   8.445   2.717  0.8595 -3.7043  1.1198
  409MOL0     H56393   3.964   8.585   2.809  1.5177 -0.2292 -2.8543
  409MOL0     H56394   3.816   8.331   2.704 -1.5348 -1.0682  0.4159
  409MOL0     H56395   3.731   8.421   2.828 -2.3597 -0.5511 -1.4066
  409MOL0     H56396   3.759   8.619   2.653 -0.1197  0.3546  2.1275
  409MOL0     H56397   3.809   8.485   2.543  0.6349 -0.2865  0.7028
  409MOL0     H56398   3.585   8.511   2.502  1.8453 -0.1885 -0.8740
  409MOL0     H56399   3.580   8.375   2.612 -0.2387 -0.5998  0.7012
  409MOL0     H56400   3.341   8.457   2.509  0.5357 -0.4111  2.0451
  409MOL0     H56401   3.141   8.458   2.367 -2.5466 -2.7834  0.3870
  409MOL0     H56402   3.047   8.602   2.340 -0.5091 -0.1559  1.0857
  409MOL0     H56403   2.995   8.496   2.461 -3.2787  0.6491 -4.4281
  409MOL0     H56404   2.862   8.995   2.783  0.4380 -1.0064 -1.5131
  409MOL0     H56405   2.654   9.143   2.788 -0.0072 -1.1275  0.6277
  409MOL0     H56406   2.430   9.121   2.589  0.8444 -0.0880 -0.7218
  409MOL0     H56407   2.468   9.218   2.739  2.7746  0.8290 -0.7842
  409MOL0     H56408   2.249   9.290   2.652  0.6971 -2.4295  0.5121
  409MOL0     H56409   2.369   9.409   2.589  2.6214 -0.7184 -0.6717
  409MOL0     H56410   2.269   9.181   2.408  0.5930  0.7180 -1.4862
  409MOL0     H56411   2.368   9.314   2.369  2.0953 -2.8687 -0.0777
  409MOL0     H56412   2.197   9.480   2.385 -1.9838  0.1945 -0.7734
  409MOL0     H56413   2.081   9.375   2.457  0.1665  0.9208 -0.0561
  409MOL0     H56414   2.075   9.231   2.267  1.1109 -0.0136  1.7388
  409MOL0     H56415   2.024   9.385   2.235 -0.5510  0.6251  2.5823
  409MOL0     H56416   2.182   9.286   2.053 -0.7600  3.0146 -1.2366
  409MOL0     H56417   2.309   9.276   2.175  0.3090 -0.7784  1.2627
  409MOL0     H56418   2.361   9.494   2.050  0.3521 -2.2776  0.6980
  409MOL0     H56419   2.297   9.538   2.186  1.9972  1.7524 -2.2843
  409MOL0     H56420   2.176   9.666   2.027 -0.9181  0.7317 -1.1204
  409MOL0     H56421   2.061   9.566   2.106  0.0494  0.8121  1.2464
  409MOL0     H56422   2.681   9.175   2.357 -1.5876 -4.7184 -0.4585
  409MOL0     H56423   2.892   9.022   2.358  1.7734 -0.2499  0.5826
  409MOL0     H56424   3.206   8.894   2.719 -0.2972 -1.7900  0.4780
  409MOL0     H56425   3.426   8.768   2.766 -1.0696 -1.7851  1.5189
  409MOL0     H56426   4.720   8.505   2.663 -0.5831  1.7035 -2.1420
  409MOL0     H56427   4.792   8.670   2.529 -1.4210 -2.0486  0.1837
  409MOL0     H56428   5.101   9.099   2.631  4.6530  2.1033  0.5356
  409MOL0     H56429   5.204   9.326   2.545 -0.4785 -0.5869  0.4254
  409MOL0     H56430   5.353   9.453   2.151  1.1766 -2.1921  0.7506
  409MOL0     H56431   5.263   9.324   2.104  5.4869 -0.6423  0.8077
  409MOL0     H56432   5.173   9.636   2.120  0.6384  1.3495 -1.6271
  409MOL0     H56433   5.055   9.526   2.103 -0.8045  0.9974 -1.8115
  409MOL0     H56434   5.141   9.613   1.880  1.8923  1.5430  0.0695
  409MOL0     H56435   5.292   9.544   1.907 -0.4669 -0.5510 -2.5132
  409MOL0     H56436   5.183   9.304   1.888 -0.0674  1.2377  4.4821
  409MOL0     H56437   5.117   9.404   1.752 -0.3111 -0.7747 -0.0810
  409MOL0     H56438   4.783   9.330   2.008 -1.9139  2.0671 -3.8470
  409MOL0     H56439   5.091   9.226   2.153 -0.9196  1.8132 -0.2406
  409MOL0     H56440   4.940   9.079   2.093 -2.1155  1.1364  1.4802
  409MOL0     H56441   5.020   8.933   2.167 -1.0003 -1.4865 -0.5271
  409MOL0     H56442   4.851   8.980   2.203  0.2104  1.3246  3.1359
  410MOL0     O56443  10.140   5.137   7.160 -0.1451  0.1556  0.0322
  410MOL0     C56444  10.032   5.125   7.214 -0.2122 -0.5981  0.4735
  410MOL0     O56445  10.001   5.038   7.315  0.8029 -0.3444 -0.3820
  410MOL0     C56446  10.092   4.952   7.382  0.2935  0.2063 -0.0370
  410MOL0     C56447  10.082   4.937   7.520 -0.3913  0.2246  0.4150
  410MOL0     C56448  10.170   4.858   7.596 -0.4012  0.4681 -0.3514
  410MOL0     C56449  10.280   4.796   7.537  1.0330 -0.4952  0.0751
  410MOL0     O56450  10.353   4.720   7.616  0.4652  0.4514 -0.3702
  410MOL0     C56451  10.449   4.633   7.556  0.1627  0.4615  0.2701
  410MOL0     C56452  10.401   4.518   7.460 -0.2805 -0.5682 -1.3470
  410MOL0     C56453  10.361   4.395   7.535 -0.8867 -0.1238 -0.3304
  410MOL0     C56454  10.232   4.415   7.614  0.0753 -0.6316 -0.1040
  410MOL0     C56455  10.147   4.296   7.643  0.0555 -1.0395  1.3497
  410MOL0     C56456  10.065   4.246   7.519  0.5091  0.1649 -0.0167
  410MOL0     C56457  10.016   4.102   7.558 -0.3051  0.4657  1.0818
  410MOL0     C56458   9.895   4.114   7.650  0.3281 -0.2308  0.0424
  410MOL0     N56459   9.833   3.989   7.649 -0.3229  0.3431 -0.5103
  410MOL0     C56460   9.836   3.887   7.735 -0.0820 -0.8365  0.4535
  410MOL0     C56461   9.752   3.790   7.688  0.8314 -0.2031 -0.3703
  410MOL0     C56462   9.702   3.671   7.759  0.0773  0.0783  0.0053
  410MOL0     C56463   9.753   3.545   7.700 -0.0283 -0.3643  0.8475
  410MOL0     C56464   9.644   3.475   7.607  0.1975  0.4035 -0.2560
  410MOL0     C56465   9.692   3.334   7.577 -0.7134  0.0907  0.1468
  410MOL0     O56466   9.705   3.260   7.700 -0.4507  0.2819 -0.3709
  410MOL0     C56467   9.700   3.119   7.691 -0.2212 -0.6526  0.6006
  410MOL0     C56468   9.685   3.050   7.570 -0.4881 -0.5514 -0.5904
  410MOL0     C56469   9.676   2.912   7.559  1.2056 -0.3610  0.9736
  410MOL0     C56470   9.660   2.851   7.424 -0.1295 -0.3991 -1.1537
  410MOL0     C56471   9.691   2.835   7.677 -0.6485  0.3293 -0.7251
  410MOL0     C56472   9.709   2.684   7.674 -0.7561  0.1291 -0.2038
  410MOL0     O56473   9.661   2.618   7.781 -0.0112  0.2266  0.0322
  410MOL0     C56474   9.701   2.494   7.798 -0.2761  0.6162  0.8219
  410MOL0     C56475   9.822   2.459   7.860  0.2679  0.4279  0.6284
  410MOL0     C56476   9.850   2.329   7.912 -0.5604  0.2787  0.3824
  410MOL0     C56477   9.760   2.230   7.891  0.0705 -0.4406  0.5147
  410MOL0     O56478   9.796   2.102   7.920  0.8042  0.8222  0.0863
  410MOL0     C56479   9.767   1.998   7.825 -0.6308  0.0428  0.4044
  410MOL0     C56480   9.880   1.889   7.844  0.2781  0.2514  0.3983
  410MOL0     C56481   9.918   1.791   7.744  0.0417  0.0153  1.1646
  410MOL0     C56482  10.001   1.847   7.625 -0.1360 -0.4600  0.0165
  410MOL0     C56483  10.147   1.912   7.661  0.0699 -1.0103  0.7349
  410MOL0     C56484  10.146   2.068   7.688 -1.4935 -0.2820  0.0056
  410MOL0     C56485  10.102   2.149   7.561 -0.1516 -0.7244 -0.1812
  410MOL0     C56486  10.086   2.295   7.609  0.1178 -0.7020 -0.3199
  410MOL0    Cl56487  10.228   2.357   7.686  0.4646  0.2076 -0.1410
  410MOL0     C56488   9.638   2.269   7.837 -0.5350  0.8116 -0.0125
  410MOL0     C56489   9.608   2.393   7.779  0.0861  0.3103  0.1959
  410MOL0     O56490   9.775   2.629   7.580 -0.6076 -0.8503 -0.0135
  410MOL0     C56491   9.697   2.908   7.797  0.6618 -0.6335 -1.1622
  410MOL0     C56492   9.711   3.050   7.803  0.3358  0.7769 -0.1885
  410MOL0     N56493   9.691   3.842   7.581  0.2232  1.3902  0.1511
  410MOL0     N56494   9.746   3.954   7.548  1.0052 -1.0816 -0.2586
  410MOL0     C56495  10.299   4.825   7.402  0.3738  0.2104  0.2942
  410MOL0     C56496  10.201   4.880   7.319  1.1832 -0.5748  0.1690
  410MOL0     C56497   9.914   5.213   7.167 -0.4820 -0.6619  0.9987
  410MOL0     C56498   9.788   5.183   7.212 -0.4527  0.7277 -0.2621
  410MOL0     C56499   9.671   5.262   7.190  0.0273  0.2832  0.2333
  410MOL0     C56500   9.685   5.362   7.091  1.0061  0.9292  0.6803
  410MOL0     O56501   9.571   5.427   7.062 -0.1496 -0.4906 -0.8908
  410MOL0     C56502   9.560   5.561   7.100 -0.1546  0.3548  0.2330
  410MOL0     C56503   9.436   5.625   7.039  0.4091  0.1869  0.6069
  410MOL0     C56504   9.446   5.663   6.890 -0.4353  0.1516 -0.8106
  410MOL0     C56505   9.317   5.717   6.834 -0.2140 -0.6037  0.5031
  410MOL0     C56506   9.279   5.854   6.880  0.0546  0.5554  0.2656
  410MOL0     C56507   9.268   5.972   6.919  0.4599 -0.7277  0.7254
  410MOL0     C56508   9.806   5.394   7.041 -0.8647  0.5773 -0.0823
  410MOL0     C56509   9.927   5.334   7.089 -0.6450 -0.0411  0.4330
  410MOL0     C56510  10.053   5.408   7.052  0.2796 -0.4494 -0.4191
  410MOL0     H56511   9.990   4.964   7.571  1.6303  0.8806  4.1101
  410MOL0     H56512  10.163   4.839   7.702  0.4767 -1.4351 -0.5853
  410MOL0     H56513  10.514   4.590   7.631 -1.0122 -1.0538  0.4716
  410MOL0     H56514  10.503   4.696   7.484 -1.7600  1.0737 -0.7204
  410MOL0     H56515  10.307   4.547   7.413 -0.1650  3.3824  0.4981
  410MOL0     H56516  10.477   4.486   7.388  0.9737 -0.1295 -0.2472
  410MOL0     H56517  10.348   4.334   7.445 -0.2919  1.8706 -1.8207
  410MOL0     H56518  10.442   4.354   7.596 -0.6070  0.1733 -0.5038
  410MOL0     H56519  10.255   4.462   7.710  1.6093 -1.5507 -0.0002
  410MOL0     H56520  10.166   4.484   7.561 -1.8636 -0.1855  2.6578
  410MOL0     H56521  10.070   4.318   7.718 -0.8405 -0.8709  0.4092
  410MOL0     H56522  10.209   4.214   7.679 -2.2966 -3.0918  1.0252
  410MOL0     H56523   9.976   4.309   7.503 -0.5637 -1.8905 -3.0135
  410MOL0     H56524  10.124   4.242   7.428  0.2075  0.5797 -0.2384
  410MOL0     H56525  10.088   4.035   7.606 -2.2380 -1.0072  2.0676
  410MOL0     H56526   9.979   4.067   7.460  3.1397  0.5581 -0.3982
  410MOL0     H56527   9.926   4.142   7.751  1.6927  0.6665 -0.5878
  410MOL0     H56528   9.835   4.196   7.611  0.2794 -1.4913 -2.8419
  410MOL0     H56529   9.901   3.869   7.820 -2.6777 -1.5508  2.4179
  410MOL0     H56530   9.593   3.675   7.760  0.0189 -1.1881  1.1684
  410MOL0     H56531   9.739   3.678   7.861  1.5209 -1.3840 -0.3823
  410MOL0     H56532   9.852   3.552   7.654  0.8252  1.1952  2.7773
  410MOL0     H56533   9.762   3.491   7.795 -3.4270 -0.8211  1.0370
  410MOL0     H56534   9.552   3.471   7.666  1.7558  0.7689  2.3794
  410MOL0     H56535   9.644   3.538   7.518  0.5464  1.7551  0.6689
  410MOL0     H56536   9.613   3.286   7.520  1.5839 -3.5871 -0.2823
  410MOL0     H56537   9.785   3.330   7.519 -0.0541  2.4419  0.9271
  410MOL0     H56538   9.679   3.108   7.479 -1.8391  1.9786  1.0098
  410MOL0     H56539   9.595   2.912   7.361 -1.9091 -0.9277  0.1068
  410MOL0     H56540   9.610   2.754   7.428  1.6924 -1.3962 -1.4200
  410MOL0     H56541   9.753   2.819   7.376 -0.9256 -3.3656 -0.9063
  410MOL0     H56542   9.895   2.539   7.871  2.0123 -0.9444 -0.4873
  410MOL0     H56543   9.942   2.319   7.969  0.2109  0.0625 -0.8712
  410MOL0     H56544   9.672   1.947   7.839  0.1780 -1.9537 -0.8398
  410MOL0     H56545   9.786   2.048   7.729  0.8958  0.4797  0.9042
  410MOL0     H56546   9.972   1.938   7.877 -0.2939  0.9977  0.9201
  410MOL0     H56547   9.838   1.832   7.927  2.5567  2.6323  3.4314
  410MOL0     H56548   9.832   1.736   7.704  1.5026 -1.1966 -0.4703
  410MOL0     H56549   9.978   1.714   7.792 -1.2900  0.3434  3.5100
  410MOL0     H56550   9.955   1.927   7.567 -1.1006 -2.6672 -2.5151
  410MOL0     H56551  10.029   1.770   7.552  2.3551  2.2717 -2.1106
  410MOL0     H56552  10.188   1.865   7.751 -1.1166 -0.6697  1.4771
  410MOL0     H56553  10.206   1.890   7.572 -2.5907 -3.4832 -0.5555
  410MOL0     H56554  10.251   2.092   7.708 -1.0741 -1.9062 -0.1227
  410MOL0     H56555  10.083   2.094   7.774 -1.1602 -4.0870  1.6096
  410MOL0     H56556  10.009   2.117   7.513 -1.0772  1.1076  0.2969
  410MOL0     H56557  10.174   2.153   7.478 -0.1748 -1.0095 -0.2154
  410MOL0     H56558   9.995   2.308   7.669 -0.6518 -0.6674 -1.4817
  410MOL0     H56559  10.084   2.358   7.520  2.1010 -1.2051 -0.7844
  410MOL0     H56560   9.549   2.207   7.845 -0.9217  1.3791  0.1589
  410MOL0     H56561   9.511   2.412   7.734 -1.2872 -0.4322  2.6476
  410MOL0     H56562   9.705   2.850   7.889  0.3338  2.2961  0.8713
  410MOL0     H56563   9.744   3.090   7.898  1.7957 -0.2517 -0.2210
  410MOL0     H56564  10.386   4.782   7.354  1.1770 -1.7400  3.2383
  410MOL0     H56565  10.209   4.877   7.211 -2.3697 -0.1010 -0.2276
  410MOL0     H56566   9.777   5.093   7.272  0.7710 -0.5781 -1.8740
  410MOL0     H56567   9.572   5.231   7.221  0.5665  0.1884  1.9856
  410MOL0     H56568   9.541   5.568   7.208  0.4864  5.2633  0.2595
  410MOL0     H56569   9.646   5.628   7.086 -0.9298  1.2454 -0.3879
  410MOL0     H56570   9.416   5.715   7.098  0.6714  0.6598 -0.0193
  410MOL0     H56571   9.357   5.552   7.058 -1.7498  2.0081 -0.8403
  410MOL0     H56572   9.523   5.739   6.875 -0.8428  0.4666 -1.3497
  410MOL0     H56573   9.490   5.583   6.830  1.0448 -0.2264  0.7244
  410MOL0     H56574   9.249   5.639   6.870  0.4896 -1.6951 -0.4370
  410MOL0     H56575   9.318   5.711   6.725 -0.6254  1.6591  0.3400
  410MOL0     H56576   9.244   6.074   6.941 -2.1056  0.0329 -4.0763
  410MOL0     H56577   9.829   5.482   6.981  4.9423 -0.5008 -0.0333
  410MOL0     H56578  10.046   5.508   7.097 -1.0498  0.0587 -1.6851
  410MOL0     H56579  10.139   5.350   7.088 -0.9719 -1.9296  0.2813
  410MOL0     H56580  10.064   5.414   6.944 -0.7742  0.8695 -0.4860
  411MOL0     O56581   1.635   6.588   2.182 -0.3523 -1.1806  0.8711
  411MOL0     C56582   1.752   6.616   2.164 -0.3371  1.0645  0.2391
  411MOL0     O56583   1.860   6.541   2.218  0.1479  0.5675 -0.0436
  411MOL0     C56584   1.838   6.418   2.288  0.4813  0.8967 -0.0767
  411MOL0     C56585   1.792   6.417   2.418  0.1904  1.2124 -1.0327
  411MOL0     C56586   1.771   6.291   2.485  1.1021  0.2020  0.9737
  411MOL0     C56587   1.815   6.167   2.425 -0.0163 -0.4370  0.0028
  411MOL0     O56588   1.813   6.049   2.500  0.2689 -0.2314 -0.0446
  411MOL0     C56589   1.846   5.926   2.436  0.1755  0.0155  1.0440
  411MOL0     C56590   1.751   5.880   2.327  0.0219 -1.0982 -0.2579
  411MOL0     C56591   1.733   5.725   2.343 -0.6483  0.1298  0.7574
  411MOL0     C56592   1.730   5.663   2.198 -0.0921  0.3862  0.7756
  411MOL0     C56593   1.766   5.511   2.206 -0.7871  0.9576 -0.0203
  411MOL0     C56594   1.703   5.432   2.090  0.0558  0.2247  0.0057
  411MOL0     C56595   1.753   5.298   2.072 -0.6161 -0.0907 -0.0812
  411MOL0     C56596   1.893   5.299   2.024  0.6341  0.0159  1.0720
  411MOL0     N56597   1.935   5.163   1.980 -0.0457  0.7874 -0.3167
  411MOL0     C56598   2.032   5.149   1.883  0.4655  0.1967  0.4530
  411MOL0     C56599   2.087   5.022   1.890 -0.4477 -0.4384 -0.4091
  411MOL0     C56600   2.174   4.952   1.794  0.0456 -0.1036 -0.5575
  411MOL0     C56601   2.317   4.932   1.852  0.1006  0.6524 -0.7109
  411MOL0     C56602   2.323   4.831   1.972 -0.0350 -0.3244 -0.4770
  411MOL0     C56603   2.427   4.874   2.073  0.1487  0.0918  0.0948
  411MOL0     O56604   2.442   4.777   2.174  0.1856  0.4665 -0.3057
  411MOL0     C56605   2.345   4.742   2.267 -0.1179 -0.6514  0.0894
  411MOL0     C56606   2.231   4.806   2.292  0.3935  0.0757 -0.1153
  411MOL0     C56607   2.149   4.763   2.397  0.0900 -0.3354  0.8684
  411MOL0     C56608   2.023   4.838   2.418 -0.0977  0.8363  0.1406
  411MOL0     C56609   2.200   4.663   2.478 -0.0934  0.2848 -0.4196
  411MOL0     C56610   2.126   4.609   2.601  0.2453  0.7230 -0.7578
  411MOL0     O56611   2.198   4.554   2.698  0.1320 -0.6414 -0.9275
  411MOL0     C56612   2.128   4.491   2.804  0.0565  0.5217  0.4666
  411MOL0     C56613   2.124   4.345   2.800 -0.3641 -0.4932  0.5545
  411MOL0     C56614   2.033   4.286   2.891 -1.2226  0.7620 -0.7173
  411MOL0     C56615   1.969   4.362   2.991 -1.3016 -0.2578 -0.4133
  411MOL0     O56616   1.894   4.290   3.080 -0.3934  0.4281  0.5194
  411MOL0     C56617   1.955   4.260   3.196 -0.2064  1.2177  0.8111
  411MOL0     C56618   1.936   4.110   3.214 -0.1051 -0.1805 -0.5135
  411MOL0     C56619   2.052   4.023   3.157  0.5717 -0.6106  0.8259
  411MOL0     C56620   2.042   3.871   3.184 -0.2722 -0.7378 -0.5038
  411MOL0     C56621   2.172   3.807   3.243 -1.1688 -0.2817  0.7105
  411MOL0     C56622   2.290   3.767   3.144  0.8743 -0.3566  0.0901
  411MOL0     C56623   2.417   3.736   3.216 -0.1053  0.2428  1.1290
  411MOL0     C56624   2.539   3.751   3.121  0.2588  0.5591 -0.3340
  411MOL0    Cl56625   2.529   3.895   3.008 -0.1443 -0.0380 -0.1889
  411MOL0     C56626   1.984   4.500   3.001 -0.2353  0.8112  0.3366
  411MOL0     C56627   2.069   4.560   2.909 -0.5422  1.1296  0.6932
  411MOL0     O56628   2.001   4.620   2.594  0.1902 -0.2807  0.4007
  411MOL0     C56629   2.313   4.596   2.452 -0.5150  0.7621  0.2418
  411MOL0     C56630   2.397   4.637   2.346  0.2960 -0.0699  0.7166
  411MOL0     N56631   2.020   4.959   1.992  0.4657  0.3485 -0.4308
  411MOL0     N56632   1.941   5.041   2.048 -0.2824 -0.8244  0.9213
  411MOL0     C56633   1.881   6.184   2.295  0.3033  0.2515 -0.4710
  411MOL0     C56634   1.887   6.303   2.226 -0.0305  0.3763  0.8396
  411MOL0     C56635   1.796   6.738   2.088 -0.0683 -0.9434 -1.3209
  411MOL0     C56636   1.909   6.809   2.136 -0.3152 -0.3870  0.2856
  411MOL0     C56637   1.947   6.927   2.071 -0.5872  0.2518 -0.2423
  411MOL0     C56638   1.879   6.971   1.954 -0.5003  0.5903  0.5756
  411MOL0     O56639   1.926   7.070   1.871  0.4090  0.3088 -0.6011
  411MOL0     C56640   2.072   7.104   1.877  0.8288  0.8529 -0.2159
  411MOL0     C56641   2.151   6.998   1.796  0.5230  0.5260  0.0888
  411MOL0     C56642   2.285   7.053   1.755 -1.0059 -0.4528  0.3585
  411MOL0     C56643   2.385   6.942   1.685  0.3572 -0.2919  0.4087
  411MOL0     C56644   2.525   6.994   1.655  0.8199 -0.5145  0.3509
  411MOL0     C56645   2.644   7.015   1.644  0.5575 -0.4168 -0.1676
  411MOL0     C56646   1.763   6.908   1.919 -0.1116  0.3836 -0.3297
  411MOL0     C56647   1.723   6.792   1.986 -0.2061 -0.5332  0.4593
  411MOL0     C56648   1.610   6.718   1.913  0.2086  0.0365  1.0101
  411MOL0     H56649   1.762   6.512   2.462 -1.4543  1.3284 -2.2956
  411MOL0     H56650   1.719   6.296   2.581 -1.3248  0.8413 -0.2732
  411MOL0     H56651   1.839   5.860   2.523 -3.2271  0.8580  1.5467
  411MOL0     H56652   1.951   5.916   2.408  0.5537 -0.7184  2.5853
  411MOL0     H56653   1.650   5.920   2.344  0.7903  1.2481 -0.8045
  411MOL0     H56654   1.794   5.908   2.231  0.9630  1.2934  0.7678
  411MOL0     H56655   1.825   5.688   2.388  1.0488  0.5867 -2.0956
  411MOL0     H56656   1.646   5.708   2.407  0.4412  0.5676  2.4343
  411MOL0     H56657   1.634   5.674   2.148  0.7343  1.8068 -0.5823
  411MOL0     H56658   1.810   5.699   2.133 -2.9415 -1.5121 -4.2889
  411MOL0     H56659   1.732   5.460   2.297  2.9517  0.6414  1.3685
  411MOL0     H56660   1.873   5.492   2.213 -1.0792 -0.7535  0.2525
  411MOL0     H56661   1.598   5.414   2.115  0.0614 -2.1830 -1.3765
  411MOL0     H56662   1.702   5.487   1.996 -0.0847 -0.8471 -0.6399
  411MOL0     H56663   1.701   5.250   1.989  1.4787  1.1527 -2.2648
  411MOL0     H56664   1.750   5.239   2.164 -0.0128 -1.4207 -0.8894
  411MOL0     H56665   1.894   5.373   1.943  0.2634 -0.5944  0.5036
  411MOL0     H56666   1.966   5.340   2.094 -2.2766  0.3875  4.1414
  411MOL0     H56667   2.073   5.224   1.815  0.9632 -2.6572 -2.6481
  411MOL0     H56668   2.175   5.010   1.702  2.8138 -1.6920 -1.6321
  411MOL0     H56669   2.125   4.855   1.777 -2.8143  1.0477  0.4169
  411MOL0     H56670   2.371   4.887   1.768 -3.5800  1.2339 -3.6458
  411MOL0     H56671   2.361   5.029   1.875  2.1607 -0.4008  0.0808
  411MOL0     H56672   2.231   4.823   2.030  0.6615 -1.0552  0.5684
  411MOL0     H56673   2.358   4.733   1.936  0.8704  0.8094 -2.8584
  411MOL0     H56674   2.522   4.873   2.018  0.4484  0.8880  0.5937
  411MOL0     H56675   2.427   4.978   2.104 -0.8459  0.2860 -0.5185
  411MOL0     H56676   2.193   4.884   2.227  2.3629  1.8087  0.7053
  411MOL0     H56677   2.043   4.940   2.385  0.5536  0.6427 -0.0698
  411MOL0     H56678   1.997   4.838   2.525  1.8362  0.6103  0.6508
  411MOL0     H56679   1.946   4.800   2.350  1.6191  0.9681 -1.9568
  411MOL0     H56680   2.186   4.286   2.732  2.1854  0.0702  2.2386
  411MOL0     H56681   2.018   4.179   2.879 -0.8181  0.6180  0.0097
  411MOL0     H56682   2.060   4.291   3.199  0.1292  0.0878  2.0965
  411MOL0     H56683   1.904   4.305   3.282 -0.5841  1.3073  0.5419
  411MOL0     H56684   1.923   4.094   3.321 -1.2443 -1.7599 -0.8577
  411MOL0     H56685   1.840   4.069   3.182 -1.3247  0.2530  2.2580
  411MOL0     H56686   2.145   4.060   3.202 -1.2966  3.4301  1.8763
  411MOL0     H56687   2.051   4.025   3.048 -4.7663 -3.0694  0.5035
  411MOL0     H56688   2.035   3.828   3.084  1.7488  0.9899 -1.4653
  411MOL0     H56689   1.962   3.845   3.254  0.3550 -0.3483  0.3705
  411MOL0     H56690   2.206   3.862   3.331  0.4354 -2.0137  1.2433
  411MOL0     H56691   2.140   3.711   3.284 -0.7492 -0.3767  0.8273
  411MOL0     H56692   2.304   3.856   3.081  1.3816  0.3013  1.0849
  411MOL0     H56693   2.262   3.680   3.085 -2.0706  1.9554 -2.2735
  411MOL0     H56694   2.415   3.629   3.240  0.4920 -0.2509 -0.8390
  411MOL0     H56695   2.426   3.791   3.310 -0.7130 -3.2139  3.4273
  411MOL0     H56696   2.557   3.656   3.070  3.1339 -0.7486  2.7100
  411MOL0     H56697   2.622   3.763   3.192 -1.3460 -1.6494  2.1080
  411MOL0     H56698   1.938   4.563   3.075 -1.4918  3.0884 -2.2029
  411MOL0     H56699   2.068   4.668   2.898 -2.8579  0.9052 -2.8802
  411MOL0     H56700   2.339   4.507   2.508  1.2802 -2.2168 -4.7061
  411MOL0     H56701   2.490   4.591   2.316 -0.5147 -0.0490 -2.0371
  411MOL0     H56702   1.920   6.097   2.245 -1.2801 -0.6282 -0.2425
  411MOL0     H56703   1.929   6.312   2.126  0.0254  1.3505  0.9397
  411MOL0     H56704   1.957   6.794   2.232  0.0250  0.6337  0.2846
  411MOL0     H56705   2.037   6.974   2.110  0.5777 -1.4746 -0.7289
  411MOL0     H56706   2.085   7.202   1.829 -1.0257  0.7229 -1.0599
  411MOL0     H56707   2.110   7.115   1.979 -1.6706  0.1651  0.8654
  411MOL0     H56708   2.099   6.949   1.713 -1.4807 -1.3414  2.3024
  411MOL0     H56709   2.163   6.907   1.857 -0.1334 -0.6373 -1.4513
  411MOL0     H56710   2.280   7.129   1.676  0.9059 -0.5631  0.0595
  411MOL0     H56711   2.339   7.092   1.841  4.4781 -1.5070 -2.1400
  411MOL0     H56712   2.332   6.896   1.601 -2.1186 -0.0154  1.7131
  411MOL0     H56713   2.389   6.854   1.751 -1.4654  0.9224  2.2883
  411MOL0     H56714   2.751   7.024   1.643  0.4549  1.7707  1.7624
  411MOL0     H56715   1.699   6.946   1.840 -0.9046  3.2823  1.5442
  411MOL0     H56716   1.526   6.696   1.980  1.2518  0.6102  2.5487
  411MOL0     H56717   1.583   6.775   1.824  0.3409  2.5718  2.4828
  411MOL0     H56718   1.640   6.618   1.881 -2.1698 -0.6825  0.8036
  412MOL0     O56719   8.230   2.302   6.912  0.5680  0.4538  0.4943
  412MOL0     C56720   8.232   2.233   6.812  0.1500 -0.4853  0.3896
  412MOL0     O56721   8.340   2.194   6.749 -0.3412  0.2099 -0.3316
  412MOL0     C56722   8.457   2.246   6.788  0.1889 -0.0413 -0.0234
  412MOL0     C56723   8.539   2.181   6.876 -1.3119 -0.0001  0.1632
  412MOL0     C56724   8.657   2.237   6.911 -0.2911 -0.2166  0.4172
  412MOL0     C56725   8.705   2.359   6.852  0.5980  0.8899  0.7587
  412MOL0     O56726   8.802   2.444   6.899 -0.0086 -0.6465 -0.0089
  412MOL0     C56727   8.923   2.388   6.936 -0.9817 -0.6628  0.3035
  412MOL0     C56728   9.018   2.419   6.825 -0.2745  0.0464  0.1909
  412MOL0     C56729   9.138   2.321   6.818  0.1595  1.0262  0.2286
  412MOL0     C56730   9.238   2.356   6.934 -0.2008 -0.4637 -0.2674
  412MOL0     C56731   9.387   2.363   6.877  0.4748  0.6214  0.0995
  412MOL0     C56732   9.432   2.227   6.832  0.1992 -0.4327  0.5532
  412MOL0     C56733   9.584   2.214   6.821  0.9705  0.1960 -0.0934
  412MOL0     C56734   9.626   2.064   6.802 -0.5517 -0.3117  0.6542
  412MOL0     N56735   9.596   2.015   6.655 -0.2098  0.1874 -1.5722
  412MOL0     C56736   9.675   2.038   6.547 -0.5245 -0.1745 -0.0139
  412MOL0     C56737   9.639   1.948   6.456 -0.6723 -0.0253  0.0816
  412MOL0     C56738   9.693   1.939   6.320  0.4141  0.9583  0.6585
  412MOL0     C56739   9.769   1.806   6.289  0.1140  0.9568  0.3322
  412MOL0     C56740   9.805   1.800   6.143  0.6323 -0.5528  0.0361
  412MOL0     C56741   9.887   1.686   6.089  0.8098 -0.5348 -0.3743
  412MOL0     O56742   9.810   1.570   6.085 -0.3608 -0.3721  0.0139
  412MOL0     C56743   9.775   1.517   5.955 -0.8376  0.1101 -0.4541
  412MOL0     C56744   9.690   1.587   5.876 -0.6197  0.5692 -0.2125
  412MOL0     C56745   9.669   1.536   5.749 -0.8653 -0.9674 -0.1258
  412MOL0     C56746   9.580   1.630   5.665 -0.4480  0.1238 -0.7457
  412MOL0     C56747   9.736   1.415   5.699  0.1986 -0.0472 -0.2039
  412MOL0     C56748   9.725   1.366   5.568  0.8378  0.3159 -0.2777
  412MOL0     O56749   9.826   1.293   5.522  0.4869 -0.3678 -0.5049
  412MOL0     C56750   9.840   1.253   5.393 -0.6839  0.1264 -0.0847
  412MOL0     C56751   9.781   1.310   5.276 -0.7268  0.1774 -0.2540
  412MOL0     C56752   9.801   1.257   5.147 -0.4217  0.1544 -0.7080
  412MOL0     C56753   9.886   1.144   5.136  0.2166 -0.6876  0.7919
  412MOL0     O56754   9.923   1.076   5.021  0.4056 -0.2568  0.1429
  412MOL0     C56755   9.834   1.094   4.905 -0.5231  0.0221 -0.0900
  412MOL0     C56756   9.888   1.007   4.785  1.0656 -0.2288 -0.9267
  412MOL0     C56757   9.789   1.011   4.670 -1.2182  0.8998  0.2235
  412MOL0     C56758   9.814   1.123   4.574 -0.3947  0.7637  0.2739
  412MOL0     C56759   9.725   1.112   4.447 -0.4025  0.7282 -0.0328
  412MOL0     C56760   9.746   1.229   4.360 -0.8872  0.6475  0.1404
  412MOL0     C56761   9.668   1.210   4.228 -0.1590  0.0569  0.4243
  412MOL0     C56762   9.762   1.126   4.131  0.0650 -0.2717 -0.2357
  412MOL0    Cl56763   9.650   1.032   4.031 -0.3468  0.2543  0.0132
  412MOL0     C56764   9.946   1.085   5.245 -0.2271  0.1714 -0.8691
  412MOL0     C56765   9.919   1.141   5.371 -0.4748  0.6956  0.4126
  412MOL0     O56766   9.615   1.375   5.518  0.1825 -0.0233  0.5391
  412MOL0     C56767   9.823   1.344   5.792 -0.5671  0.0608 -0.3745
  412MOL0     C56768   9.832   1.397   5.919 -0.1682  0.6772 -0.4548
  412MOL0     N56769   9.526   1.886   6.499 -0.8139 -0.7041 -0.2039
  412MOL0     N56770   9.504   1.925   6.621  0.0580  0.1271 -0.7726
  412MOL0     C56771   8.637   2.399   6.741 -0.2435 -0.0642 -0.7822
  412MOL0     C56772   8.506   2.355   6.722  0.8564 -0.6850 -0.2522
  412MOL0     C56773   8.109   2.187   6.763  0.1060  0.2788  0.1075
  412MOL0     C56774   8.006   2.158   6.853  0.3722  0.3776 -0.4314
  412MOL0     C56775   7.877   2.124   6.811 -0.6730 -0.6598 -0.2949
  412MOL0     C56776   7.854   2.093   6.672 -0.7145  0.3339 -0.2606
  412MOL0     O56777   7.740   2.067   6.612  0.1231 -0.1522  0.1209
  412MOL0     C56778   7.619   2.030   6.686 -0.4121  0.3216 -0.5130
  412MOL0     C56779   7.524   1.979   6.571 -0.3632 -0.4401  0.3023
  412MOL0     C56780   7.578   1.850   6.494  0.4401  0.7435  0.3916
  412MOL0     C56781   7.592   1.722   6.576  0.1533  0.2675 -0.2217
  412MOL0     C56782   7.685   1.631   6.504  0.5498  0.6788  0.3327
  412MOL0     C56783   7.757   1.547   6.466  0.7718 -0.7211  0.0970
  412MOL0     C56784   7.959   2.119   6.585 -0.3770  0.6033  1.0715
  412MOL0     C56785   8.079   2.169   6.623  0.7889  0.5465 -0.7717
  412MOL0     C56786   8.168   2.227   6.517  0.4189  0.1986  0.5447
  412MOL0     H56787   8.502   2.092   6.926  1.0852 -1.5525 -0.6305
  412MOL0     H56788   8.714   2.181   6.985  3.6383  0.0722 -2.0703
  412MOL0     H56789   8.916   2.280   6.955  4.2499 -1.6992 -2.0262
  412MOL0     H56790   8.952   2.455   7.017  1.7620 -0.4265 -0.7689
  412MOL0     H56791   8.966   2.406   6.730  0.7983 -0.8019 -0.3088
  412MOL0     H56792   9.049   2.523   6.837  2.1829 -0.1180 -3.1267
  412MOL0     H56793   9.095   2.221   6.822  2.3825 -0.0256 -0.8747
  412MOL0     H56794   9.186   2.335   6.721  1.5971  0.6637  0.8648
  412MOL0     H56795   9.223   2.457   6.974  2.1697  0.1932 -0.8282
  412MOL0     H56796   9.215   2.286   7.015 -0.3582  0.4106  0.4714
  412MOL0     H56797   9.457   2.408   6.948 -0.8351  1.4258  0.9375
  412MOL0     H56798   9.383   2.425   6.786 -0.6510  1.6749  0.8333
  412MOL0     H56799   9.403   2.155   6.909  1.7871 -0.6221  0.9952
  412MOL0     H56800   9.390   2.205   6.733  0.4086  4.1078 -0.7467
  412MOL0     H56801   9.621   2.251   6.916 -0.4446 -1.4906  1.1772
  412MOL0     H56802   9.626   2.277   6.741 -0.6810  0.4777 -0.7785
  412MOL0     H56803   9.735   2.059   6.810 -0.2506  1.8579 -1.2337
  412MOL0     H56804   9.576   2.001   6.877 -2.6187  0.7471  0.2434
  412MOL0     H56805   9.765   2.095   6.526  0.5040 -2.1649 -1.3008
  412MOL0     H56806   9.770   2.014   6.299 -0.1741  0.9279 -1.8320
  412MOL0     H56807   9.598   1.962   6.271  0.8374 -0.4416 -0.9208
  412MOL0     H56808   9.859   1.818   6.350  1.1578 -1.0993 -0.6750
  412MOL0     H56809   9.709   1.719   6.319 -0.0943  1.6429  2.0425
  412MOL0     H56810   9.712   1.803   6.086  0.1756  1.3781  0.7953
  412MOL0     H56811   9.855   1.893   6.113  0.0344 -0.2698 -0.1002
  412MOL0     H56812   9.914   1.724   5.990 -2.5611  5.2995  0.4702
  412MOL0     H56813   9.968   1.678   6.162 -1.1902 -0.2388  1.9960
  412MOL0     H56814   9.643   1.679   5.908 -1.6043  0.5862 -1.6201
  412MOL0     H56815   9.483   1.589   5.636 -1.8505  2.0137  0.9510
  412MOL0     H56816   9.631   1.666   5.575  1.9289 -1.4836 -0.1262
  412MOL0     H56817   9.563   1.729   5.708  1.9102  1.3626 -2.4471
  412MOL0     H56818   9.708   1.389   5.286 -1.9464 -0.3773 -3.4865
  412MOL0     H56819   9.752   1.297   5.059 -1.6857  1.9208  0.7298
  412MOL0     H56820   9.737   1.051   4.930  0.3212 -0.7619  2.2028
  412MOL0     H56821   9.839   1.198   4.872  1.1585  1.0223  2.9001
  412MOL0     H56822   9.988   1.038   4.752 -0.2595  2.2792 -2.9070
  412MOL0     H56823   9.891   0.907   4.829 -2.6501 -0.7731 -1.6046
  412MOL0     H56824   9.684   1.014   4.701 -0.7712  2.5533  1.7757
  412MOL0     H56825   9.790   0.911   4.628  2.3523  1.1298 -0.4978
  412MOL0     H56826   9.914   1.128   4.529 -0.0067  1.3514  1.1896
  412MOL0     H56827   9.803   1.215   4.632 -0.3097  0.1520  1.2765
  412MOL0     H56828   9.758   1.027   4.388  0.4857  1.4825 -0.6623
  412MOL0     H56829   9.621   1.097   4.476 -0.3871 -0.6291 -0.6328
  412MOL0     H56830   9.853   1.237   4.342  0.0756  0.5707  4.6803
  412MOL0     H56831   9.721   1.320   4.414 -2.5749  0.8899 -0.9627
  412MOL0     H56832   9.646   1.305   4.179  3.8090  0.6226 -0.6026
  412MOL0     H56833   9.570   1.163   4.238 -2.2901  3.7275 -1.4902
  412MOL0     H56834   9.830   1.053   4.176  1.6344  1.2395 -0.0445
  412MOL0     H56835   9.839   1.185   4.079 -0.1913 -1.5714 -2.2214
  412MOL0     H56836  10.016   1.003   5.238 -1.6561 -1.2039  0.2939
  412MOL0     H56837   9.971   1.094   5.454 -2.3512 -2.7053 -0.1449
  412MOL0     H56838   9.879   1.257   5.757 -0.9182  0.6887 -2.6777
  412MOL0     H56839   9.906   1.352   5.985 -0.8739 -1.5921 -1.1167
  412MOL0     H56840   8.674   2.492   6.699 -0.0722 -0.5761 -1.7868
  412MOL0     H56841   8.446   2.426   6.664  2.5768 -0.6300 -2.0830
  412MOL0     H56842   8.027   2.173   6.958 -0.2825 -1.1265 -0.0561
  412MOL0     H56843   7.807   2.107   6.893  0.9170 -0.1872  1.2275
  412MOL0     H56844   7.634   1.951   6.761 -2.6338  2.0901  1.9933
  412MOL0     H56845   7.571   2.112   6.740 -0.2463 -1.0939  1.9543
  412MOL0     H56846   7.510   2.055   6.494  2.3066 -2.4213 -2.4043
  412MOL0     H56847   7.426   1.959   6.614 -1.7015  0.9670 -1.9196
  412MOL0     H56848   7.497   1.834   6.422  0.6076  2.3644 -0.2084
  412MOL0     H56849   7.666   1.884   6.438  3.1734  0.4079  4.0682
  412MOL0     H56850   7.494   1.688   6.610  0.2829  1.6952  1.8396
  412MOL0     H56851   7.639   1.739   6.674 -0.9485 -5.1521  1.5710
  412MOL0     H56852   7.821   1.475   6.418 -1.2912 -1.5410 -1.6306
  412MOL0     H56853   7.931   2.093   6.483 -1.4021  0.3665  1.4004
  412MOL0     H56854   8.221   2.144   6.471  1.8402 -0.0283  2.4816
  412MOL0     H56855   8.103   2.279   6.445 -0.2730 -1.8254 -0.3513
  412MOL0     H56856   8.244   2.302   6.541 -0.8187  2.5035 -2.1356
  413MOL0     O56857   5.904   4.669   2.904 -0.6975  0.2508 -0.2056
  413MOL0     C56858   5.792   4.718   2.886 -0.1518  0.0618 -0.6413
  413MOL0     O56859   5.730   4.730   2.769 -0.4967 -0.5035 -0.1263
  413MOL0     C56860   5.787   4.698   2.649  0.3159  1.0286 -0.2060
  413MOL0     C56861   5.704   4.625   2.560  0.0299  0.1427  0.4764
  413MOL0     C56862   5.762   4.603   2.432  0.0626  0.7758 -0.5924
  413MOL0     C56863   5.888   4.636   2.399  0.4260 -0.4325  0.2736
  413MOL0     O56864   5.933   4.598   2.273 -0.0848  0.2111  0.9023
  413MOL0     C56865   6.065   4.646   2.232 -0.3204  0.0092  0.8722
  413MOL0     C56866   6.097   4.603   2.086  0.6884  0.4040  0.1839
  413MOL0     C56867   6.238   4.634   2.031 -0.2828  1.1738  0.0809
  413MOL0     C56868   6.220   4.648   1.880 -0.0035  0.9565 -0.5335
  413MOL0     C56869   6.360   4.646   1.809 -0.3916  0.8265 -1.3068
  413MOL0     C56870   6.464   4.740   1.863 -1.2186  0.0680 -0.6004
  413MOL0     C56871   6.585   4.765   1.755  0.1263 -0.1089 -0.0895
  413MOL0     C56872   6.654   4.901   1.770  1.2363  1.0987 -0.3356
  413MOL0     N56873   6.784   4.909   1.693  0.4821 -0.2013 -0.7674
  413MOL0     C56874   6.797   4.939   1.555  0.1936  1.0929 -0.6540
  413MOL0     C56875   6.917   4.912   1.512 -0.5540 -0.1975 -0.5886
  413MOL0     C56876   6.971   4.914   1.378 -0.4113 -0.1304  0.3660
  413MOL0     C56877   7.038   4.785   1.336  0.1799 -0.4533  0.1021
  413MOL0     C56878   7.092   4.773   1.190  0.8540 -0.1802 -0.0778
  413MOL0     C56879   7.198   4.869   1.133  0.3147  0.0561  0.2893
  413MOL0     O56880   7.270   4.919   1.249  0.2983 -0.7264 -1.1009
  413MOL0     C56881   7.292   5.054   1.269  0.5073  0.8819  0.9783
  413MOL0     C56882   7.319   5.104   1.403  0.3836  0.8722  0.1754
  413MOL0     C56883   7.355   5.229   1.435  0.1483  0.3412 -0.1059
  413MOL0     C56884   7.375   5.252   1.579  1.1838  0.3333  0.2087
  413MOL0     C56885   7.368   5.325   1.331 -0.3216  0.7059  0.0142
  413MOL0     C56886   7.417   5.463   1.341 -0.5045 -0.6381 -0.3240
  413MOL0     O56887   7.385   5.550   1.240 -0.0988  0.1248  0.6920
  413MOL0     C56888   7.377   5.682   1.254 -0.6875 -0.1561  0.4128
  413MOL0     C56889   7.315   5.734   1.139  0.6191 -0.5600 -0.9763
  413MOL0     C56890   7.279   5.872   1.136 -0.1383 -0.3995  0.3779
  413MOL0     C56891   7.296   5.958   1.246 -0.1618  0.3856 -0.5188
  413MOL0     O56892   7.253   6.086   1.253 -0.8033 -0.2153  0.8648
  413MOL0     C56893   7.246   6.164   1.137  0.7226  0.2522  0.9291
  413MOL0     C56894   7.180   6.299   1.159 -0.0564 -0.8889  0.0180
  413MOL0     C56895   7.263   6.385   1.259 -0.1046  1.1516  0.0218
  413MOL0     C56896   7.385   6.446   1.197  0.5247  1.2120 -0.1105
  413MOL0     C56897   7.423   6.580   1.270 -0.7147  0.0163  0.4735
  413MOL0     C56898   7.331   6.687   1.213  0.1053 -0.0905  0.3051
  413MOL0     C56899   7.358   6.835   1.271 -0.4873  0.9404 -1.1527
  413MOL0     C56900   7.353   6.822   1.430 -0.4163  0.1220 -0.8821
  413MOL0    Cl56901   7.211   6.735   1.505  0.1190  0.1212 -0.0735
  413MOL0     C56902   7.375   5.898   1.354  1.5431  0.2847  0.3800
  413MOL0     C56903   7.412   5.765   1.358 -0.4634  1.0444 -0.9246
  413MOL0     O56904   7.475   5.496   1.442 -0.2340 -0.2497  0.5661
  413MOL0     C56905   7.334   5.282   1.200  0.0717 -0.4243 -0.2384
  413MOL0     C56906   7.298   5.149   1.166 -0.4006  0.1725 -0.0017
  413MOL0     N56907   6.985   4.867   1.629 -0.6663 -0.2901  0.2774
  413MOL0     N56908   6.902   4.865   1.735 -0.2709 -0.9721  0.0004
  413MOL0     C56909   5.959   4.713   2.488  0.0900  0.7156  0.2660
  413MOL0     C56910   5.912   4.752   2.608 -0.6327  0.1645  0.4491
  413MOL0     C56911   5.708   4.765   3.003 -0.3116  0.5378  0.2184
  413MOL0     C56912   5.600   4.855   2.982 -0.1978  0.0182 -0.1420
  413MOL0     C56913   5.530   4.907   3.085  0.6736 -0.0255  0.1520
  413MOL0     C56914   5.555   4.876   3.216 -0.5856  0.0540  0.1861
  413MOL0     O56915   5.482   4.931   3.314 -0.6710 -0.8766  0.2960
  413MOL0     C56916   5.551   4.958   3.440 -0.1278 -0.7304  0.3968
  413MOL0     C56917   5.655   5.068   3.432  0.1106 -0.6743  0.2670
  413MOL0     C56918   5.695   5.103   3.579  0.3545 -0.2319 -0.0004
  413MOL0     C56919   5.625   5.227   3.640 -0.2794  0.1666  0.5545
  413MOL0     C56920   5.480   5.206   3.672 -1.0752  1.2213  0.2192
  413MOL0     C56921   5.364   5.179   3.688 -0.1724 -0.2392  0.8322
  413MOL0     C56922   5.668   4.796   3.242  0.8740 -0.2538 -0.2124
  413MOL0     C56923   5.738   4.732   3.139  0.0789  0.1298  0.9000
  413MOL0     C56924   5.838   4.629   3.183  0.1370 -0.0780 -0.8671
  413MOL0     H56925   5.602   4.603   2.590 -0.0231  2.4795  2.3903
  413MOL0     H56926   5.708   4.551   2.354 -1.6556 -0.0153  1.0491
  413MOL0     H56927   6.134   4.614   2.311  1.7642  1.7362 -0.1551
  413MOL0     H56928   6.059   4.754   2.222  2.6449  0.1928  0.1158
  413MOL0     H56929   6.093   4.494   2.086  0.8576  0.3735 -1.6114
  413MOL0     H56930   6.031   4.642   2.008  3.1415 -0.9313 -2.7832
  413MOL0     H56931   6.283   4.727   2.067  2.0102 -0.0455  0.5171
  413MOL0     H56932   6.302   4.552   2.065 -4.2045 -3.0517 -1.6706
  413MOL0     H56933   6.162   4.558   1.854  0.0521  0.2214  1.6617
  413MOL0     H56934   6.160   4.731   1.840 -2.1984 -0.5019 -0.4721
  413MOL0     H56935   6.354   4.652   1.700  2.9688  1.2035 -1.5794
  413MOL0     H56936   6.387   4.541   1.825 -4.2149  0.1391  2.5458
  413MOL0     H56937   6.425   4.840   1.887  0.3946  1.4955 -3.4504
  413MOL0     H56938   6.496   4.695   1.958  3.0053  0.5892 -1.6105
  413MOL0     H56939   6.542   4.749   1.656  0.2957 -0.1608 -0.1539
  413MOL0     H56940   6.662   4.688   1.765 -0.1859 -0.4131  0.0095
  413MOL0     H56941   6.589   4.982   1.738 -1.1876 -0.5727  0.0423
  413MOL0     H56942   6.679   4.914   1.876  2.1900  0.1264 -0.4215
  413MOL0     H56943   6.719   4.963   1.483  1.1158 -1.8787 -2.8803
  413MOL0     H56944   7.040   4.999   1.374  2.5713 -2.3810  0.3439
  413MOL0     H56945   6.886   4.925   1.310 -0.0975  1.2464  0.1568
  413MOL0     H56946   7.119   4.773   1.408 -0.7807  4.0235  2.2709
  413MOL0     H56947   6.968   4.700   1.339 -1.6057  0.9569  0.1948
  413MOL0     H56948   7.141   4.676   1.175 -0.9148 -0.9503 -1.2678
  413MOL0     H56949   7.002   4.758   1.131 -1.7840 -3.3472  4.1961
  413MOL0     H56950   7.270   4.815   1.071 -1.9131 -3.2743  0.3545
  413MOL0     H56951   7.159   4.944   1.063  1.8828  0.7339  0.0890
  413MOL0     H56952   7.296   5.035   1.483 -0.1935 -1.3566 -1.8360
  413MOL0     H56953   7.482   5.237   1.596  1.0186  0.9403  1.9687
  413MOL0     H56954   7.313   5.193   1.648 -1.6049 -0.5388 -2.7975
  413MOL0     H56955   7.355   5.358   1.598  0.7986  0.5046 -1.0569
  413MOL0     H56956   7.297   5.662   1.059  2.9206 -2.6278  0.2526
  413MOL0     H56957   7.226   5.911   1.049  1.8266 -0.5518 -0.9388
  413MOL0     H56958   7.333   6.188   1.074  1.0042  0.7004  1.4836
  413MOL0     H56959   7.182   6.110   1.067  2.0742 -1.0445  0.6376
  413MOL0     H56960   7.184   6.330   1.055  3.6961 -1.7359 -0.2173
  413MOL0     H56961   7.083   6.288   1.210 -1.3714  0.6702 -1.9834
  413MOL0     H56962   7.287   6.323   1.346  0.4776  0.2531 -0.7523
  413MOL0     H56963   7.195   6.462   1.295 -3.0950 -1.5434  0.6878
  413MOL0     H56964   7.364   6.466   1.091 -0.4896  1.5833  0.1585
  413MOL0     H56965   7.473   6.381   1.192 -0.3432  0.0822 -3.4546
  413MOL0     H56966   7.433   6.574   1.379  0.9243 -4.3268  0.2857
  413MOL0     H56967   7.522   6.609   1.232  0.2411 -4.1152 -0.6983
  413MOL0     H56968   7.226   6.659   1.225  0.1620 -0.8600 -0.8312
  413MOL0     H56969   7.344   6.700   1.105  0.2680 -1.5026  0.1371
  413MOL0     H56970   7.276   6.899   1.236 -2.3193  0.8255  2.5024
  413MOL0     H56971   7.455   6.879   1.248 -0.5061  2.3974  1.2321
  413MOL0     H56972   7.356   6.927   1.458  0.1136 -0.0282 -0.3432
  413MOL0     H56973   7.445   6.779   1.471 -1.8755  0.2985  3.0513
  413MOL0     H56974   7.403   5.969   1.431  2.4555 -1.6942  1.9764
  413MOL0     H56975   7.480   5.728   1.434  0.0445 -3.2117 -3.1699
  413MOL0     H56976   7.339   5.346   1.113 -0.3627 -1.2482 -0.8910
  413MOL0     H56977   7.291   5.129   1.059 -1.5360  1.2146 -0.1592
  413MOL0     H56978   6.062   4.738   2.467 -0.2126  0.9048 -1.0817
  413MOL0     H56979   5.970   4.799   2.686  1.2971  0.6066 -1.1451
  413MOL0     H56980   5.575   4.889   2.882  1.8114 -2.3987 -1.5579
  413MOL0     H56981   5.453   4.979   3.060  1.3611 -0.0745 -2.3807
  413MOL0     H56982   5.474   4.992   3.510 -1.7379 -0.7708 -1.2753
  413MOL0     H56983   5.598   4.870   3.486  1.9705 -0.9309 -1.9081
  413MOL0     H56984   5.623   5.151   3.369  0.2449  0.8206  2.0703
  413MOL0     H56985   5.751   5.031   3.394  1.0619  1.4141  0.4674
  413MOL0     H56986   5.677   5.019   3.647 -1.0307 -0.6105 -0.8224
  413MOL0     H56987   5.802   5.126   3.567  0.1603 -0.6227 -3.4634
  413MOL0     H56988   5.643   5.312   3.574  3.9807 -1.1070 -0.2694
  413MOL0     H56989   5.684   5.254   3.728  0.4575  1.9404 -0.4307
  413MOL0     H56990   5.262   5.159   3.711 -1.6935  2.2986 -2.7411
  413MOL0     H56991   5.700   4.780   3.344  0.5331 -0.2224 -0.0978
  413MOL0     H56992   5.862   4.557   3.104 -0.3767 -1.1043 -0.1266
  413MOL0     H56993   5.928   4.684   3.211  0.1263 -1.3772  2.1376
  413MOL0     H56994   5.806   4.565   3.267 -0.2385  1.1461 -0.0549
  414MOL0     O56995   9.276  10.322  10.180 -0.2941  0.5771 -0.1835
  414MOL0     C56996   9.186  10.248  10.158 -0.0311  0.2668 -0.0670
  414MOL0     O56997   9.190  10.150  10.065  0.1679 -0.5090 -0.6300
  414MOL0     C56998   9.312  10.120  10.015 -0.2930 -0.0214  0.3484
  414MOL0     C56999   9.388  10.016  10.059  0.0971  0.5041 -0.2452
  414MOL0     C57000   9.509   9.978   9.994  0.7542 -0.1109 -0.3347
  414MOL0     C57001   9.550  10.053   9.877 -0.1290  0.1900  0.2307
  414MOL0     O57002   9.659  10.020   9.812 -0.0583  0.3299 -0.8501
  414MOL0     C57003   9.653   9.895   9.737  0.0583  0.5135 -0.1127
  414MOL0     C57004   9.580   9.893   9.602 -0.5293  0.1214 -0.1775
  414MOL0     C57005   9.607  10.005   9.501  0.3077 -1.0517 -0.0794
  414MOL0     C57006   9.761  10.027   9.482  0.2754 -1.0739 -0.1330
  414MOL0     C57007   9.800  10.125   9.373  0.5088 -0.4569 -0.2434
  414MOL0     C57008   9.773  10.072   9.233  0.2962  0.2191 -0.5470
  414MOL0     C57009   9.778  10.193   9.135 -0.8150 -0.4936 -0.5745
  414MOL0     C57010   9.654  10.291   9.147  0.2804  0.4269  0.5671
  414MOL0     N57011   9.654  10.403   9.044  0.8164 -0.4045  0.0838
  414MOL0     C57012   9.655  10.381   8.909  0.7231 -0.3468  0.5074
  414MOL0     C57013   9.648  10.506   8.847  0.2080  0.0887  0.2796
  414MOL0     C57014   9.659  10.530   8.698 -0.9705  0.1465  0.3616
  414MOL0     C57015   9.767  10.642   8.676 -0.6629 -0.5085 -0.2400
  414MOL0     C57016   9.725  10.787   8.720  0.3754 -0.1990 -0.0900
  414MOL0     C57017   9.593  10.833   8.643 -0.2811 -1.3445  0.4943
  414MOL0     O57018   9.504  10.903   8.733 -0.6993  0.4581  0.3547
  414MOL0     C57019   9.548  11.011   8.802  0.2048 -0.1221 -0.9663
  414MOL0     C57020   9.506  11.041   8.930 -0.1998  0.5422 -0.8563
  414MOL0     C57021   9.533  11.164   8.997  0.2140  0.0230  0.8009
  414MOL0     C57022   9.494  11.174   9.142 -0.3001  0.7009  0.1350
  414MOL0     C57023   9.615  11.262   8.928  0.4436  0.7196  0.7958
  414MOL0     C57024   9.654  11.386   8.985  0.1817 -0.0550  0.6398
  414MOL0     O57025   9.779  11.428   8.967 -0.6084  0.1620 -0.6234
  414MOL0     C57026   9.802  11.551   9.028 -0.5724  0.4577  0.7245
  414MOL0     C57027   9.854  11.563   9.160 -0.3577 -0.2975 -0.4591
  414MOL0     C57028   9.879  11.692   9.214 -0.4593  0.6148  0.0857
  414MOL0     C57029   9.831  11.811   9.147 -0.4648 -0.7646  0.6085
  414MOL0     O57030   9.851  11.937   9.193 -0.4792 -0.2871  0.7803
  414MOL0     C57031   9.919  11.958   9.322  0.4759  0.3488  0.1601
  414MOL0     C57032   9.920  12.103   9.363  1.0489  0.9071  0.2978
  414MOL0     C57033   9.776  12.145   9.396  0.4306  0.9059  0.5462
  414MOL0     C57034   9.768  12.280   9.480 -0.5315  0.3441  0.4040
  414MOL0     C57035   9.625  12.304   9.521 -0.4544 -0.7441  1.0215
  414MOL0     C57036   9.526  12.340   9.409  0.5786  0.4849 -0.2942
  414MOL0     C57037   9.395  12.380   9.480  0.6905  0.2664  0.4785
  414MOL0     C57038   9.272  12.404   9.382  0.2233 -0.7743  0.1454
  414MOL0    Cl57039   9.136  12.351   9.475 -0.1499  0.2513 -0.0800
  414MOL0     C57040   9.776  11.794   9.019  0.1381 -0.3665  0.3807
  414MOL0     C57041   9.773  11.665   8.960 -0.2557 -0.8426  0.7745
  414MOL0     O57042   9.566  11.440   9.057 -0.4022  0.2208  1.1932
  414MOL0     C57043   9.660  11.235   8.798 -0.0504  0.4565 -0.3438
  414MOL0     C57044   9.632  11.114   8.736  0.3239 -0.4951 -0.5255
  414MOL0     N57045   9.614  10.589   8.945 -0.4107 -0.0725  0.3997
  414MOL0     N57046   9.615  10.531   9.062 -0.4921 -0.5269  0.5332
  414MOL0     C57047   9.461  10.151   9.826 -0.4755  0.5399  0.3622
  414MOL0     C57048   9.358  10.194   9.901  0.2370 -0.2521  0.9413
  414MOL0     C57049   9.053  10.277  10.224 -0.0277 -0.9084 -0.7377
  414MOL0     C57050   8.939  10.289  10.136 -1.5717  1.1245 -0.6373
  414MOL0     C57051   8.819  10.309  10.196  0.1721  0.4718 -0.4823
  414MOL0     C57052   8.796  10.308  10.334 -0.6224 -0.5225  1.2632
  414MOL0     O57053   8.674  10.351  10.385 -0.0617  0.1051 -0.5729
  414MOL0     C57054   8.659  10.327  10.528  0.9165 -0.1832 -0.0194
  414MOL0     C57055   8.505  10.342  10.568  0.2743  0.2558  0.4801
  414MOL0     C57056   8.458  10.492  10.547 -0.3956 -0.2154  0.3840
  414MOL0     C57057   8.537  10.615  10.590  0.0844 -0.1265  1.1155
  414MOL0     C57058   8.532  10.640  10.731 -0.0681  0.3319 -1.0011
  414MOL0     C57059   8.520  10.662  10.853  0.4303 -0.0228 -0.6124
  414MOL0     C57060   8.909  10.279  10.419  0.3175 -0.3205  0.3320
  414MOL0     C57061   9.038  10.280  10.370  0.9748 -0.4084 -0.5107
  414MOL0     C57062   9.160  10.281  10.458  0.9251  0.2046 -0.1507
  414MOL0     H57063   9.364   9.969  10.154 -0.7602  1.6017  0.0955
  414MOL0     H57064   9.562   9.891  10.031 -2.1220 -0.8270  2.5702
  414MOL0     H57065   9.604   9.825   9.804 -1.3775  1.1254 -0.4841
  414MOL0     H57066   9.757   9.863   9.718 -0.2638 -1.6931  1.5058
  414MOL0     H57067   9.615   9.802   9.551 -0.2250  0.5931 -0.8229
  414MOL0     H57068   9.473   9.890   9.624 -0.7064 -5.4442 -0.1704
  414MOL0     H57069   9.569   9.972   9.404 -0.2403  1.4152 -0.7548
  414MOL0     H57070   9.559  10.100   9.525  1.2711 -0.8171  1.0205
  414MOL0     H57071   9.810  10.053   9.577 -0.0022 -0.4300 -0.1577
  414MOL0     H57072   9.774   9.921   9.461 -2.2945 -1.5869  0.4949
  414MOL0     H57073   9.909  10.135   9.385  0.6224 -2.1062  0.3001
  414MOL0     H57074   9.758  10.222   9.401  0.8856 -0.3182 -0.1411
  414MOL0     H57075   9.858  10.005   9.216  0.0003 -0.3836  0.2825
  414MOL0     H57076   9.676  10.022   9.222 -0.0661  0.9211 -0.5990
  414MOL0     H57077   9.787  10.143   9.038  1.8307 -1.5949  0.1467
  414MOL0     H57078   9.870  10.250   9.155 -0.7714  0.2381 -2.6686
  414MOL0     H57079   9.565  10.227   9.145  1.2960 -1.0095  0.1320
  414MOL0     H57080   9.651  10.340   9.244 -0.2900 -0.4165  0.9889
  414MOL0     H57081   9.673  10.287   8.858  0.8235  0.5295 -1.1547
  414MOL0     H57082   9.559  10.548   8.656  0.0964 -1.3554 -3.2724
  414MOL0     H57083   9.706  10.444   8.649 -1.5654 -0.7179  1.2727
  414MOL0     H57084   9.860  10.605   8.719 -0.4456  0.0167 -0.2530
  414MOL0     H57085   9.780  10.644   8.568 -1.5084  1.5703 -0.3492
  414MOL0     H57086   9.714  10.788   8.829  0.9715 -1.0598 -0.0083
  414MOL0     H57087   9.808  10.855   8.697  0.5416 -0.0511  0.8661
  414MOL0     H57088   9.621  10.901   8.561 -0.9005 -0.0576  1.3099
  414MOL0     H57089   9.531  10.752   8.605 -1.1661 -0.3807 -0.1922
  414MOL0     H57090   9.443  10.965   8.974  1.0977 -0.8202 -1.2474
  414MOL0     H57091   9.472  11.081   9.194  0.8594  1.3100  1.8014
  414MOL0     H57092   9.409  11.242   9.154 -0.5946  0.4422 -0.4344
  414MOL0     H57093   9.577  11.218   9.198  1.1299  1.5199 -2.4083
  414MOL0     H57094   9.877  11.474   9.218 -0.9808 -0.2341 -0.1008
  414MOL0     H57095   9.920  11.695   9.315  3.1451 -4.4241 -0.8458
  414MOL0     H57096   9.868  11.909   9.405  0.6335 -2.1487 -1.1313
  414MOL0     H57097  10.024  11.931   9.311  0.0068 -1.0618 -1.2617
  414MOL0     H57098   9.971  12.103   9.460  0.4054 -0.5764  0.6613
  414MOL0     H57099   9.971  12.147   9.277  1.1866 -0.0280 -0.1135
  414MOL0     H57100   9.727  12.063   9.450 -0.5088  0.2416 -1.2151
  414MOL0     H57101   9.719  12.152   9.303  2.1799 -1.9631 -0.9031
  414MOL0     H57102   9.806  12.358   9.413  2.3139  0.0285  1.4934
  414MOL0     H57103   9.829  12.278   9.571 -1.3985  0.4152  0.9925
  414MOL0     H57104   9.588  12.223   9.583  3.3113 -4.6462 -1.2067
  414MOL0     H57105   9.643  12.398   9.574 -2.7449  1.3767 -1.6620
  414MOL0     H57106   9.505  12.254   9.345 -1.0036  0.5021  0.1499
  414MOL0     H57107   9.566  12.424   9.352  3.0864  0.2486  0.9782
  414MOL0     H57108   9.423  12.469   9.537  3.5935 -0.5655  0.4906
  414MOL0     H57109   9.378  12.304   9.557 -0.1876 -0.1728 -0.1314
  414MOL0     H57110   9.276  12.357   9.283  0.5069 -1.9109  0.6793
  414MOL0     H57111   9.267  12.512   9.367  3.4466 -0.3708  1.1629
  414MOL0     H57112   9.730  11.878   8.967  0.9649  0.3149  0.7203
  414MOL0     H57113   9.733  11.662   8.859  0.7166  1.3454  0.2615
  414MOL0     H57114   9.722  11.301   8.739 -0.6115  0.8895 -0.4532
  414MOL0     H57115   9.655  11.111   8.630  2.9062  2.8697 -0.1849
  414MOL0     H57116   9.478  10.200   9.730  0.9962 -1.0804 -0.2457
  414MOL0     H57117   9.298  10.278   9.868  0.1345 -1.5254 -2.5532
  414MOL0     H57118   8.944  10.267  10.030 -3.0584 -1.9348 -0.1852
  414MOL0     H57119   8.732  10.328  10.133  0.0025  2.2276  0.2324
  414MOL0     H57120   8.689  10.223  10.547 -1.7193 -1.3627 -1.6687
  414MOL0     H57121   8.723  10.395  10.584 -1.5173  0.2346  2.5057
  414MOL0     H57122   8.488  10.320  10.674 -3.2120 -0.1084 -0.0581
  414MOL0     H57123   8.436  10.281  10.510 -0.8708  0.4690  1.5847
  414MOL0     H57124   8.440  10.498  10.439 -3.3189 -2.1127  0.6430
  414MOL0     H57125   8.351  10.501  10.567 -0.6610  2.4484 -1.6687
  414MOL0     H57126   8.483  10.693  10.535  3.0273 -0.4696 -2.6899
  414MOL0     H57127   8.634  10.604  10.541  1.1580 -0.4473  3.2177
  414MOL0     H57128   8.504  10.675  10.958  0.9815  2.6211 -0.7929
  414MOL0     H57129   8.893  10.259  10.524 -2.9213 -2.0385 -0.3598
  414MOL0     H57130   9.235  10.210  10.423 -0.1678 -1.4367  0.7247
  414MOL0     H57131   9.218  10.374  10.463  2.6764 -0.8459 -0.1758
  414MOL0     H57132   9.134  10.263  10.563  1.7125  1.9116  0.3757
  415MOL0     O57133   1.163   6.484   0.911  1.5314  0.2436 -0.0244
  415MOL0     C57134   1.113   6.557   0.828 -0.0000  0.7907  0.4309
  415MOL0     O57135   1.187   6.653   0.757  0.6585  0.4509  0.3229
  415MOL0     C57136   1.284   6.721   0.825 -1.2367  0.0419 -0.3648
  415MOL0     C57137   1.401   6.758   0.755  0.0717 -0.7094  0.8706
  415MOL0     C57138   1.504   6.833   0.812  0.4186 -0.5779  0.0683
  415MOL0     C57139   1.497   6.870   0.949  0.1866  0.4055 -0.6984
  415MOL0     O57140   1.588   6.939   1.022  0.1757  0.0494  0.1845
  415MOL0     C57141   1.710   6.968   0.952  0.4866 -0.4559  0.6190
  415MOL0     C57142   1.797   7.042   1.054  0.3410  0.4773  0.2267
  415MOL0     C57143   1.933   7.068   1.002  0.5732  1.3869 -0.0492
  415MOL0     C57144   2.017   7.126   1.112 -0.0860  0.3321 -0.1644
  415MOL0     C57145   2.165   7.129   1.076 -0.6265  0.2005  1.2559
  415MOL0     C57146   2.264   7.174   1.194  0.7963  0.6982 -0.6205
  415MOL0     C57147   2.410   7.134   1.169  0.4633  0.3681  0.3494
  415MOL0     C57148   2.485   7.113   1.303  0.2040 -0.4553 -0.3692
  415MOL0     N57149   2.486   7.231   1.382 -0.1097 -0.0897 -0.1316
  415MOL0     C57150   2.381   7.273   1.469  0.2362 -0.0566  0.4439
  415MOL0     C57151   2.431   7.392   1.517 -0.4392  0.1021 -0.2557
  415MOL0     C57152   2.351   7.471   1.618  0.0974 -0.7484 -0.2014
  415MOL0     C57153   2.398   7.451   1.765  0.3535 -0.8221 -0.1982
  415MOL0     C57154   2.460   7.570   1.834 -0.2076 -0.4631  0.4107
  415MOL0     C57155   2.479   7.529   1.977  0.7206 -0.3385  0.8699
  415MOL0     O57156   2.596   7.597   2.030 -0.2539  0.3575  0.2627
  415MOL0     C57157   2.660   7.539   2.131 -0.3937 -0.1118  0.5244
  415MOL0     C57158   2.597   7.461   2.214  1.1050  0.0872  0.3805
  415MOL0     C57159   2.658   7.402   2.321 -0.2946  0.2440  0.3101
  415MOL0     C57160   2.570   7.328   2.417 -0.0372  0.4212  0.0896
  415MOL0     C57161   2.801   7.410   2.340 -0.2612 -0.4441  0.3415
  415MOL0     C57162   2.881   7.361   2.454 -0.5276 -0.7626  0.0890
  415MOL0     O57163   2.996   7.432   2.484 -0.4500 -0.1123 -0.2543
  415MOL0     C57164   3.033   7.443   2.613 -0.3468  0.0105  0.5868
  415MOL0     C57165   3.027   7.573   2.667  0.2221  0.7799 -0.7443
  415MOL0     C57166   3.056   7.602   2.800 -0.0330 -0.2148 -0.6956
  415MOL0     C57167   3.107   7.499   2.883 -0.1086 -0.4644  0.0489
  415MOL0     O57168   3.148   7.545   3.005 -0.1934 -0.0243 -0.8802
  415MOL0     C57169   3.217   7.451   3.083 -0.6021 -0.5053  0.1059
  415MOL0     C57170   3.103   7.396   3.169  0.1558 -0.4473  0.0149
  415MOL0     C57171   3.143   7.316   3.280 -0.7362  0.0428  0.1103
  415MOL0     C57172   3.019   7.228   3.316 -0.1672  0.5391  0.4164
  415MOL0     C57173   3.070   7.132   3.426 -0.4325 -0.5749 -0.7462
  415MOL0     C57174   2.951   7.058   3.483  0.6823 -0.2834 -0.1170
  415MOL0     C57175   3.004   6.965   3.591  0.8089 -1.1423 -0.3965
  415MOL0     C57176   2.898   6.872   3.659  0.1891 -1.1246  0.3257
  415MOL0    Cl57177   2.805   6.941   3.794  0.2671  0.1654 -0.2636
  415MOL0     C57178   3.099   7.364   2.833 -0.1210 -0.8539 -0.0818
  415MOL0     C57179   3.072   7.335   2.696  0.1194 -0.2866 -0.1829
  415MOL0     O57180   2.850   7.255   2.504  0.4517 -0.1463  0.1346
  415MOL0     C57181   2.872   7.495   2.243 -0.2342 -0.5785 -1.1992
  415MOL0     C57182   2.803   7.553   2.141 -0.4116  0.2986  0.2304
  415MOL0     N57183   2.545   7.419   1.453  0.0175  0.3533  0.6630
  415MOL0     N57184   2.578   7.328   1.364 -0.0134 -0.4144 -0.3495
  415MOL0     C57185   1.378   6.832   1.011 -1.0775  0.8901 -0.6416
  415MOL0     C57186   1.274   6.758   0.959  0.4725  0.1298  0.3838
  415MOL0     C57187   0.975   6.535   0.797  0.4782 -0.1740 -0.3327
  415MOL0     C57188   0.938   6.539   0.660  0.1537  1.3728 -0.7210
  415MOL0     C57189   0.806   6.516   0.627 -0.7256  0.8801  0.7901
  415MOL0     C57190   0.708   6.505   0.723  0.1008 -0.0788  0.4501
  415MOL0     O57191   0.575   6.492   0.690  0.4583  0.5382  0.0848
  415MOL0     C57192   0.520   6.548   0.567 -0.8528 -1.5830 -0.1096
  415MOL0     C57193   0.392   6.622   0.592 -0.9573  0.8425 -0.4036
  415MOL0     C57194   0.305   6.673   0.472  0.3757 -0.1306  0.1984
  415MOL0     C57195   0.195   6.767   0.512 -0.7851  0.3990 -0.5590
  415MOL0     C57196   0.099   6.697   0.600  0.5364 -0.6796  0.3286
  415MOL0     C57197   0.035   6.637   0.674 -0.7753 -0.2892  0.4628
  415MOL0     C57198   0.734   6.502   0.857  0.0043 -0.7551  0.9399
  415MOL0     C57199   0.862   6.531   0.891 -0.7436  0.1128 -0.7170
  415MOL0     C57200   0.894   6.554   1.031 -0.0674 -0.1425  0.3158
  415MOL0     H57201   1.405   6.735   0.649  3.2733 -0.2850  0.8005
  415MOL0     H57202   1.575   6.848   0.732 -1.3076  2.1736 -1.0923
  415MOL0     H57203   1.697   7.017   0.855  2.5925 -2.3528 -0.7098
  415MOL0     H57204   1.753   6.877   0.910  1.2809  0.8192 -1.4913
  415MOL0     H57205   1.754   7.135   1.092 -0.3351 -0.2001  1.1852
  415MOL0     H57206   1.798   6.973   1.139 -2.8746  1.7802  1.4906
  415MOL0     H57207   1.972   6.974   0.961  0.0052 -0.7189  3.7767
  415MOL0     H57208   1.924   7.127   0.910  2.5349 -4.2866 -4.4917
  415MOL0     H57209   1.991   7.230   1.135  3.1545  1.3989 -0.7817
  415MOL0     H57210   2.003   7.054   1.194  0.4623  0.4825  0.0642
  415MOL0     H57211   2.159   7.197   0.991 -2.5740  0.4612  1.5391
  415MOL0     H57212   2.201   7.026   1.064  0.5545  0.6994  0.4006
  415MOL0     H57213   2.248   7.280   1.213  1.8225  0.1897  4.3148
  415MOL0     H57214   2.227   7.118   1.281 -0.2183 -0.6078 -1.8416
  415MOL0     H57215   2.462   7.214   1.114 -0.2069  2.1778  2.2216
  415MOL0     H57216   2.409   7.045   1.105  0.5927  0.1749  0.6176
  415MOL0     H57217   2.457   7.025   1.362  0.1351  0.4800  1.0381
  415MOL0     H57218   2.588   7.092   1.272  1.1682  0.3538  2.0427
  415MOL0     H57219   2.282   7.231   1.483  1.0856 -2.1921  0.4201
  415MOL0     H57220   2.246   7.442   1.611 -0.3349  0.6413  0.3802
  415MOL0     H57221   2.352   7.577   1.591 -1.6167 -0.7564 -0.3654
  415MOL0     H57222   2.313   7.413   1.822 -0.5964  1.1873 -0.1718
  415MOL0     H57223   2.466   7.366   1.772  0.0617 -0.9094  2.2190
  415MOL0     H57224   2.558   7.585   1.787  1.1836  3.1655  3.8432
  415MOL0     H57225   2.400   7.662   1.829  2.4908  1.3985 -0.5193
  415MOL0     H57226   2.395   7.563   2.040  0.7772 -3.3946  2.8015
  415MOL0     H57227   2.497   7.421   1.980  0.4265 -0.4184 -0.1158
  415MOL0     H57228   2.490   7.448   2.200  1.1619  1.1348 -1.2416
  415MOL0     H57229   2.472   7.373   2.435 -0.4687 -0.7013  0.6884
  415MOL0     H57230   2.623   7.315   2.512 -1.3170  0.5980  0.8563
  415MOL0     H57231   2.560   7.227   2.376 -2.1526 -0.3308  2.2139
  415MOL0     H57232   3.005   7.657   2.601  1.5841  1.7241 -0.0477
  415MOL0     H57233   3.063   7.706   2.828 -0.0129 -0.0970 -1.1251
  415MOL0     H57234   3.285   7.389   3.024  0.7757  2.6918 -1.9865
  415MOL0     H57235   3.285   7.510   3.146 -0.7704 -2.6779  2.4677
  415MOL0     H57236   3.043   7.480   3.206  1.8236  1.1636 -0.7859
  415MOL0     H57237   3.047   7.325   3.107  1.1954 -3.0757  1.9305
  415MOL0     H57238   3.169   7.389   3.357 -0.6106 -0.3970  0.4892
  415MOL0     H57239   3.227   7.250   3.256  0.1824  0.5547  1.7419
  415MOL0     H57240   2.976   7.169   3.234 -4.1834  3.6417 -0.0492
  415MOL0     H57241   2.952   7.303   3.359  0.4337  2.0846 -1.1941
  415MOL0     H57242   3.146   7.064   3.386  0.8749 -0.2239  1.0509
  415MOL0     H57243   3.123   7.192   3.500 -3.0583  1.2409 -0.1965
  415MOL0     H57244   2.904   7.003   3.400  3.0115 -1.2846 -0.8611
  415MOL0     H57245   2.886   7.132   3.529  1.1184 -0.7152  1.2209
  415MOL0     H57246   3.052   7.026   3.668 -3.0458  1.0822  0.5122
  415MOL0     H57247   3.082   6.906   3.543  2.0053  1.8002 -2.3055
  415MOL0     H57248   2.938   6.779   3.700  0.4227 -0.3920  1.8253
  415MOL0     H57249   2.832   6.828   3.583  1.1919 -2.3071  0.1071
  415MOL0     H57250   3.100   7.278   2.899  0.1486  0.9941  2.5050
  415MOL0     H57251   3.094   7.239   2.649  2.3764 -0.6488  1.4712
  415MOL0     H57252   2.980   7.495   2.237 -0.2320 -0.8953 -1.1762
  415MOL0     H57253   2.864   7.601   2.065  1.6518 -0.0364  1.6164
  415MOL0     H57254   1.370   6.882   1.108  0.0755 -1.4354  0.7358
  415MOL0     H57255   1.186   6.735   1.019 -0.8710  1.8491 -0.8317
  415MOL0     H57256   1.011   6.553   0.581  1.1011 -0.5039 -0.2417
  415MOL0     H57257   0.779   6.501   0.523 -1.5162  0.7208  1.0104
  415MOL0     H57258   0.589   6.618   0.521 -0.8696  0.0086  2.1348
  415MOL0     H57259   0.499   6.466   0.497  1.6702 -0.4115 -2.3694
  415MOL0     H57260   0.415   6.708   0.656 -0.4898  0.0109  0.5741
  415MOL0     H57261   0.313   6.559   0.632 -1.8053  0.1611 -2.9739
  415MOL0     H57262   0.369   6.731   0.406  3.1084 -2.3909  0.6855
  415MOL0     H57263   0.257   6.588   0.423 -1.4224  0.3539  1.0076
  415MOL0     H57264   0.146   6.811   0.425 -2.7045 -0.0886  0.2099
  415MOL0     H57265   0.221   6.851   0.577 -1.3907  2.0594 -2.3705
  415MOL0     H57266  -0.021   6.572   0.738  0.0658 -0.0673  1.4420
  415MOL0     H57267   0.653   6.488   0.929  1.1434 -1.2448  2.1744
  415MOL0     H57268   0.979   6.622   1.043 -1.8009  2.5331 -1.5408
  415MOL0     H57269   0.816   6.602   1.091  0.6449 -1.1031  2.0944
  415MOL0     H57270   0.909   6.456   1.077  1.2722 -0.2682 -0.3307
  416MOL0     O57271   9.670   4.951   0.301  0.2349  0.6008 -0.8321
  416MOL0     C57272   9.738   4.961   0.402 -0.5534  0.6320  0.2553
  416MOL0     O57273   9.694   4.941   0.534 -0.4442  0.0603  0.0039
  416MOL0     C57274   9.569   4.891   0.555  0.3735  0.0547 -0.4970
  416MOL0     C57275   9.455   4.970   0.570  0.4602 -1.6855 -0.0374
  416MOL0     C57276   9.338   4.898   0.601 -0.2595  1.0311  0.5729
  416MOL0     C57277   9.325   4.759   0.609 -0.6953 -0.3222  0.0599
  416MOL0     O57278   9.197   4.709   0.612  0.2901  0.3619  0.1525
  416MOL0     C57279   9.169   4.597   0.702 -0.7627  0.1431  0.5678
  416MOL0     C57280   9.216   4.641   0.843 -0.3670  0.5006 -0.5450
  416MOL0     C57281   9.112   4.578   0.951 -0.0203  1.1237  0.2842
  416MOL0     C57282   9.113   4.427   0.946  0.4890 -0.7599  0.1145
  416MOL0     C57283   9.257   4.371   0.974  0.8983  0.3921 -0.1914
  416MOL0     C57284   9.249   4.215   1.004 -0.1703  0.0230  0.2486
  416MOL0     C57285   9.373   4.161   1.082 -0.0935 -0.1399  0.2333
  416MOL0     C57286   9.481   4.109   0.985  0.9670  0.2419  0.7329
  416MOL0     N57287   9.624   4.107   1.032  0.3649  0.1536  0.5389
  416MOL0     C57288   9.690   3.999   1.088  0.3511 -0.1651 -0.3047
  416MOL0     C57289   9.821   4.042   1.100  0.6703  1.3458  0.0071
  416MOL0     C57290   9.940   3.958   1.140 -0.4917 -1.2155 -0.2106
  416MOL0     C57291  10.053   4.044   1.196  0.5909 -0.0938  0.1805
  416MOL0     C57292  10.122   4.122   1.083 -0.0449  0.6958  0.5801
  416MOL0     C57293  10.235   4.203   1.139  0.4394 -0.4934  0.2641
  416MOL0     O57294  10.313   4.266   1.028 -0.4593 -0.0849  0.7046
  416MOL0     C57295  10.237   4.357   0.949 -0.1710  0.7288 -0.3789
  416MOL0     C57296  10.119   4.434   0.971  0.4201 -0.3375  0.0407
  416MOL0     C57297  10.054   4.507   0.875  0.2861 -0.2294  0.4218
  416MOL0     C57298   9.925   4.566   0.924  0.2624 -0.2161  1.0620
  416MOL0     C57299  10.120   4.521   0.750 -0.0630 -0.8037  1.3737
  416MOL0     C57300  10.040   4.594   0.642 -0.5037  0.4848  0.0112
  416MOL0     O57301  10.054   4.535   0.512 -0.0306  0.5541 -0.2664
  416MOL0     C57302   9.972   4.577   0.418 -0.0797  0.0713 -0.0751
  416MOL0     C57303  10.029   4.660   0.319  0.4129  0.3811  0.4414
  416MOL0     C57304   9.961   4.710   0.216 -0.4939 -0.1021 -0.5964
  416MOL0     C57305   9.827   4.675   0.200  0.6919  0.2133 -0.6360
  416MOL0     O57306   9.758   4.713   0.087 -0.6190  0.0272  0.3316
  416MOL0     C57307   9.617   4.696   0.079 -0.7234  0.3115  0.5390
  416MOL0     C57308   9.558   4.790  -0.022 -0.3074  0.5477  1.0616
  416MOL0     C57309   9.605   4.782  -0.174  0.0344 -0.9729 -0.4878
  416MOL0     C57310   9.688   4.898  -0.215 -1.0011  0.2617  0.1686
  416MOL0     C57311   9.725   4.888  -0.363  0.1286  1.4001 -0.5905
  416MOL0     C57312   9.777   5.019  -0.411 -0.7791 -1.4989 -0.7195
  416MOL0     C57313   9.811   5.021  -0.557  0.3662  0.7193 -0.4637
  416MOL0     C57314   9.842   5.160  -0.625  0.3496  0.1464 -0.3102
  416MOL0    Cl57315   9.973   5.245  -0.540 -0.0302 -0.0417  0.7515
  416MOL0     C57316   9.764   4.589   0.293 -0.0832 -0.4021  0.4373
  416MOL0     C57317   9.836   4.540   0.403 -0.4876 -0.4900 -0.3522
  416MOL0     O57318   9.978   4.698   0.666  0.0519 -0.0482 -0.0124
  416MOL0     C57319  10.248   4.460   0.730  0.2029 -0.1967  0.3627
  416MOL0     C57320  10.300   4.375   0.830 -0.4158 -0.0079  0.3035
  416MOL0     N57321   9.825   4.172   1.061  0.0048 -0.4473  0.1638
  416MOL0     N57322   9.714   4.208   1.008  0.7044 -0.8312 -0.8376
  416MOL0     C57323   9.445   4.682   0.591  0.2995 -0.1121 -0.9011
  416MOL0     C57324   9.564   4.753   0.574 -0.1640 -1.1795  0.6026
  416MOL0     C57325   9.885   4.999   0.376  1.8017  0.4908  0.6876
  416MOL0     C57326   9.967   4.983   0.485  0.2389  0.6078 -0.0125
  416MOL0     C57327  10.101   5.015   0.480 -0.4612 -0.2910  1.1007
  416MOL0     C57328  10.162   5.065   0.363 -0.0953 -0.0045 -0.4572
  416MOL0     O57329  10.294   5.100   0.361  0.0600  0.0293 -0.0577
  416MOL0     C57330  10.334   5.204   0.268  1.0030  0.1424  0.1445
  416MOL0     C57331  10.448   5.288   0.314 -0.0327 -0.3792 -0.4519
  416MOL0     C57332  10.504   5.367   0.198  1.1183  0.4897 -0.3658
  416MOL0     C57333  10.589   5.483   0.255  0.3055 -0.9338 -0.5920
  416MOL0     C57334  10.696   5.433   0.345  0.4214 -0.3822  0.8254
  416MOL0     C57335  10.785   5.392   0.421  0.4072  0.2935 -0.5996
  416MOL0     C57336  10.081   5.068   0.247 -0.2083 -0.0222 -0.5274
  416MOL0     C57337   9.937   5.043   0.250 -0.1589  0.8618 -0.8125
  416MOL0     C57338   9.862   5.048   0.124 -0.0704  0.1498  0.7932
  416MOL0     H57339   9.470   5.077   0.557  1.8207 -1.9204 -0.6297
  416MOL0     H57340   9.242   4.948   0.610 -2.2519 -2.1655 -1.1975
  416MOL0     H57341   9.230   4.515   0.662 -0.2650  0.0185  1.5393
  416MOL0     H57342   9.065   4.565   0.715 -0.2781 -1.0569  1.6979
  416MOL0     H57343   9.321   4.620   0.865  0.0009  1.2608 -1.5303
  416MOL0     H57344   9.215   4.749   0.858  0.8762  0.0858  4.1849
  416MOL0     H57345   9.125   4.616   1.053  0.3641  1.8675 -0.0335
  416MOL0     H57346   9.011   4.613   0.927 -0.6692 -0.8447 -0.0352
  416MOL0     H57347   9.055   4.399   1.034  0.2703  1.6297  0.8197
  416MOL0     H57348   9.059   4.401   0.856  3.3213  2.1797 -2.7440
  416MOL0     H57349   9.311   4.418   1.057  1.0089 -1.9939  1.1878
  416MOL0     H57350   9.320   4.389   0.886  1.0494  1.0406  0.0502
  416MOL0     H57351   9.163   4.212   1.071  0.3137  3.0918  1.1727
  416MOL0     H57352   9.222   4.148   0.921 -0.6452 -3.2508  2.8483
  416MOL0     H57353   9.339   4.081   1.148  1.3501 -0.2811  0.8539
  416MOL0     H57354   9.404   4.242   1.149 -0.3342 -0.9892  1.4069
  416MOL0     H57355   9.463   4.004   0.960  2.5759 -0.0161  0.5850
  416MOL0     H57356   9.476   4.172   0.895 -3.5417 -1.0475 -0.1940
  416MOL0     H57357   9.656   3.898   1.111  2.1688 -1.2698 -2.1590
  416MOL0     H57358   9.979   3.905   1.053  1.3667 -0.1859 -0.0725
  416MOL0     H57359   9.909   3.885   1.215  0.7080 -1.2527  0.2655
  416MOL0     H57360  10.039   4.105   1.285  4.2573 -0.7636  1.3903
  416MOL0     H57361  10.120   3.967   1.235  0.0155 -0.9879 -0.5483
  416MOL0     H57362  10.162   4.050   1.012 -0.7535  2.0892 -1.3334
  416MOL0     H57363  10.053   4.188   1.030  0.4330  1.6179  1.0774
  416MOL0     H57364  10.203   4.277   1.213  2.7491  0.6070  0.2447
  416MOL0     H57365  10.290   4.122   1.189 -0.8071 -0.7978  1.1901
  416MOL0     H57366  10.073   4.423   1.068 -0.1782 -0.0501 -0.2058
  416MOL0     H57367   9.891   4.647   0.859 -1.7701 -1.2474  0.7618
  416MOL0     H57368   9.941   4.626   1.015  2.1201  2.2659 -0.7439
  416MOL0     H57369   9.844   4.493   0.935 -0.8861  1.0151  1.0704
  416MOL0     H57370  10.132   4.691   0.325  1.0263 -1.5347  0.6514
  416MOL0     H57371  10.010   4.769   0.139 -0.0282  0.8044  0.3760
  416MOL0     H57372   9.584   4.599   0.039  0.1551  0.2924 -0.1704
  416MOL0     H57373   9.581   4.729   0.177 -0.7419 -0.4846  0.8056
  416MOL0     H57374   9.450   4.771  -0.010 -0.2928 -2.1541 -1.7721
  416MOL0     H57375   9.583   4.889   0.015 -0.5473  0.6094  1.0613
  416MOL0     H57376   9.517   4.772  -0.238  0.2304 -0.9157 -0.7696
  416MOL0     H57377   9.653   4.686  -0.195 -1.9933 -2.1283 -0.0445
  416MOL0     H57378   9.772   4.912  -0.147 -1.4400 -2.7573  1.5048
  416MOL0     H57379   9.630   4.989  -0.200  1.2060  1.7745  0.0389
  416MOL0     H57380   9.799   4.809  -0.370 -0.2051  0.5322  3.3921
  416MOL0     H57381   9.640   4.857  -0.425  2.4352 -3.5606 -1.7367
  416MOL0     H57382   9.868   5.047  -0.356 -2.0374 -0.1657  0.7703
  416MOL0     H57383   9.698   5.091  -0.389 -0.6233 -1.2272 -1.0305
  416MOL0     H57384   9.725   4.969  -0.599  0.2598 -0.8088  1.5220
  416MOL0     H57385   9.897   4.956  -0.576 -0.3516 -0.3588 -0.0846
  416MOL0     H57386   9.749   5.217  -0.628  0.0045 -0.3241  0.8201
  416MOL0     H57387   9.856   5.145  -0.732 -2.2296  3.3354 -1.2651
  416MOL0     H57388   9.664   4.548   0.278 -0.1497  0.1500 -0.7549
  416MOL0     H57389   9.807   4.472   0.482  2.6155  0.3734  1.7190
  416MOL0     H57390  10.299   4.478   0.635  2.6714 -0.1287  1.6162
  416MOL0     H57391  10.402   4.343   0.813 -0.9503 -0.8202 -1.6979
  416MOL0     H57392   9.454   4.574   0.586  1.5350 -0.1337  0.6989
  416MOL0     H57393   9.658   4.702   0.559  0.7465  0.9313 -1.5542
  416MOL0     H57394   9.925   4.931   0.570  0.1567 -0.8466 -0.9006
  416MOL0     H57395  10.177   5.002   0.557  1.8390 -0.7774 -1.1252
  416MOL0     H57396  10.359   5.147   0.178  0.8501 -0.1517  0.2865
  416MOL0     H57397  10.249   5.269   0.245  1.2022  0.9609  1.6159
  416MOL0     H57398  10.531   5.232   0.359 -0.0038 -0.0356 -0.0702
  416MOL0     H57399  10.407   5.351   0.394 -1.5234 -0.6520 -0.9656
  416MOL0     H57400  10.576   5.314   0.134  2.0099  2.5959 -1.2051
  416MOL0     H57401  10.424   5.408   0.134  1.3602 -0.2682 -1.1747
  416MOL0     H57402  10.517   5.548   0.304  1.7128  1.3901 -1.4447
  416MOL0     H57403  10.641   5.539   0.177  1.3685  0.0519  0.7694
  416MOL0     H57404  10.870   5.360   0.479  0.2581 -0.0841 -0.5865
  416MOL0     H57405  10.139   5.066   0.155  0.9336 -1.6932  0.1948
  416MOL0     H57406   9.923   5.097   0.048  1.4379 -0.2196  1.7072
  416MOL0     H57407   9.832   4.955   0.075  2.0612  0.0266 -0.4190
  416MOL0     H57408   9.778   5.118   0.123  0.5558  0.9095  0.7316
  417MOL0     O57409  11.533   4.327   1.341 -0.0936  0.5583 -0.4357
  417MOL0     C57410  11.548   4.218   1.290 -0.4855  0.6630  0.9971
  417MOL0     O57411  11.666   4.174   1.241  0.5279 -0.1081 -0.6579
  417MOL0     C57412  11.772   4.260   1.252 -0.4012  0.2511  0.1650
  417MOL0     C57413  11.786   4.382   1.185 -0.0105  1.0940 -1.0899
  417MOL0     C57414  11.902   4.457   1.192 -0.3302 -0.3266 -0.2056
  417MOL0     C57415  12.001   4.421   1.283 -0.8979  0.5786 -0.3516
  417MOL0     O57416  12.115   4.488   1.305  0.9833  0.3000 -0.4093
  417MOL0     C57417  12.106   4.632   1.286  0.0901 -0.0793  0.5244
  417MOL0     C57418  12.233   4.695   1.329 -1.3137  0.3371  0.0520
  417MOL0     C57419  12.232   4.845   1.304 -0.7623  0.4784  0.2780
  417MOL0     C57420  12.375   4.902   1.324  0.9050 -0.4035  0.4969
  417MOL0     C57421  12.379   5.050   1.294  0.0510  0.4435  0.6548
  417MOL0     C57422  12.520   5.108   1.313  0.0533 -0.4376 -0.4659
  417MOL0     C57423  12.530   5.254   1.293 -0.1508  0.0359  0.5443
  417MOL0     C57424  12.673   5.319   1.343  0.4052 -0.3816 -0.3065
  417MOL0     N57425  12.661   5.469   1.346 -0.5164 -0.1344 -0.5124
  417MOL0     C57426  12.652   5.548   1.458 -0.0405  0.0316 -0.5170
  417MOL0     C57427  12.630   5.673   1.408 -0.0490 -0.2332 -0.1109
  417MOL0     C57428  12.611   5.805   1.483  0.1317 -0.4102 -0.4310
  417MOL0     C57429  12.484   5.880   1.429  0.7060  0.6849  1.3935
  417MOL0     C57430  12.356   5.791   1.445  0.3412  0.0557 -0.8459
  417MOL0     C57431  12.292   5.837   1.582  0.2612  0.0136  0.9151
  417MOL0     O57432  12.167   5.775   1.601 -0.2600  0.4483 -1.0870
  417MOL0     C57433  12.072   5.805   1.510  0.8988 -0.3433  0.5291
  417MOL0     C57434  12.022   5.939   1.503 -0.2250  0.6176 -1.1346
  417MOL0     C57435  11.921   5.978   1.428  0.0395 -0.4484  0.0676
  417MOL0     C57436  11.862   6.120   1.443 -0.2709 -0.2087 -0.8032
  417MOL0     C57437  11.859   5.882   1.343  1.2340 -0.1365 -0.5687
  417MOL0     C57438  11.757   5.912   1.236 -0.8155 -0.2281  0.2549
  417MOL0     O57439  11.680   5.807   1.204 -0.1669 -0.1716 -0.6212
  417MOL0     C57440  11.622   5.788   1.080  0.3803  0.5640  0.9178
  417MOL0     C57441  11.531   5.681   1.080 -0.2417 -0.1421  0.8657
  417MOL0     C57442  11.466   5.636   0.959 -0.3187  0.0495  0.2265
  417MOL0     C57443  11.500   5.703   0.842 -0.5753  0.2979  0.5020
  417MOL0     O57444  11.458   5.671   0.720  0.4920  0.4403 -0.0098
  417MOL0     C57445  11.313   5.650   0.708 -1.2546  1.2663 -1.0597
  417MOL0     C57446  11.251   5.737   0.597  0.4805  0.2589  0.2199
  417MOL0     C57447  11.104   5.694   0.567 -0.4652 -0.2347  1.0079
  417MOL0     C57448  11.001   5.696   0.689 -0.7782 -0.6227 -0.3700
  417MOL0     C57449  10.857   5.684   0.646 -0.1340 -0.5373 -0.6824
  417MOL0     C57450  10.815   5.805   0.570 -0.0324  0.5701 -0.1234
  417MOL0     C57451  10.710   5.755   0.475  0.5360  0.3087 -0.5160
  417MOL0     C57452  10.609   5.864   0.434 -0.3300  0.7608  0.2339
  417MOL0    Cl57453  10.684   6.015   0.384  0.2987 -0.0599 -0.3502
  417MOL0     C57454  11.591   5.812   0.852 -0.2956 -0.1428  1.1098
  417MOL0     C57455  11.663   5.845   0.964 -0.7407  0.1865 -0.3943
  417MOL0     O57456  11.762   6.015   1.178  0.0586 -0.3746  0.1004
  417MOL0     C57457  11.913   5.746   1.336  1.6768  0.4471 -0.6884
  417MOL0     C57458  12.012   5.709   1.433 -0.0598 -0.1817  0.9191
  417MOL0     N57459  12.641   5.671   1.263 -0.3456  0.6280  0.3700
  417MOL0     N57460  12.663   5.544   1.234 -0.5995 -0.6534 -0.2652
  417MOL0     C57461  11.990   4.291   1.350 -0.5497  0.2436 -0.1020
  417MOL0     C57462  11.883   4.206   1.329  0.3897  0.3065 -0.0523
  417MOL0     C57463  11.427   4.133   1.294  0.4653  0.0280  0.4887
  417MOL0     C57464  11.296   4.198   1.288 -0.6607  0.1270  0.4547
  417MOL0     C57465  11.176   4.129   1.301 -0.5319 -0.6517  0.5340
  417MOL0     C57466  11.177   3.991   1.298  0.0446  0.0286  0.7659
  417MOL0     O57467  11.076   3.915   1.322 -0.3717 -0.6641  0.1189
  417MOL0     C57468  10.998   3.866   1.209  0.2981 -0.3147 -0.1277
  417MOL0     C57469  11.031   3.718   1.160  0.8020 -0.0103  0.6360
  417MOL0     C57470  11.012   3.609   1.276  0.0299  0.2245 -0.6718
  417MOL0     C57471  10.876   3.567   1.311  0.6703  0.1203  0.2082
  417MOL0     C57472  10.803   3.527   1.196  0.7261  0.4572  0.8553
  417MOL0     C57473  10.747   3.501   1.088 -0.8711  0.7032 -1.0108
  417MOL0     C57474  11.303   3.920   1.292  0.0359  0.0778 -0.1320
  417MOL0     C57475  11.420   3.990   1.290 -0.3384  1.0038 -0.2947
  417MOL0     C57476  11.539   3.902   1.304 -0.5485  0.2133 -1.0450
  417MOL0     H57477  11.703   4.413   1.122 -0.4443  1.5318 -0.3158
  417MOL0     H57478  11.910   4.552   1.140 -2.0155 -0.8117 -1.4656
  417MOL0     H57479  12.032   4.679   1.352  0.3923  3.4761 -1.4846
  417MOL0     H57480  12.087   4.668   1.185  2.2127 -0.8602 -0.2046
  417MOL0     H57481  12.254   4.678   1.435 -0.2559  3.4430  0.4582
  417MOL0     H57482  12.315   4.648   1.274  2.0386  2.2771  2.9228
  417MOL0     H57483  12.207   4.870   1.201  0.1010  2.3245  0.4678
  417MOL0     H57484  12.164   4.880   1.382  1.9843 -0.3097  3.2640
  417MOL0     H57485  12.408   4.881   1.427  1.4797 -1.2788  0.1476
  417MOL0     H57486  12.449   4.859   1.257  3.0403 -0.6821  2.8624
  417MOL0     H57487  12.311   5.101   1.362 -0.2491  0.9663 -0.0235
  417MOL0     H57488  12.360   5.081   1.191  0.9177  3.0353  1.2006
  417MOL0     H57489  12.561   5.099   1.414  2.2240  2.6635 -0.9357
  417MOL0     H57490  12.592   5.068   1.242  1.1432  1.4464 -0.5055
  417MOL0     H57491  12.444   5.291   1.349  0.2883  1.8721  0.0773
  417MOL0     H57492  12.520   5.287   1.189  2.3990  0.0492  0.2279
  417MOL0     H57493  12.700   5.286   1.444 -3.4811  1.0710  1.3663
  417MOL0     H57494  12.753   5.287   1.274  0.5538  0.5312 -0.5686
  417MOL0     H57495  12.647   5.519   1.562 -0.4362 -0.4403 -0.6608
  417MOL0     H57496  12.690   5.874   1.452  0.7725 -0.9728 -0.0546
  417MOL0     H57497  12.592   5.797   1.590 -0.9819 -1.1454 -0.6604
  417MOL0     H57498  12.461   5.981   1.467 -2.7424  1.3507 -1.8575
  417MOL0     H57499  12.502   5.909   1.325  0.9376  0.2838  1.3208
  417MOL0     H57500  12.286   5.818   1.365 -3.3050  0.2164  2.1063
  417MOL0     H57501  12.375   5.684   1.436 -1.3789 -0.2889 -0.8168
  417MOL0     H57502  12.361   5.804   1.660  1.1539 -1.0384 -0.2644
  417MOL0     H57503  12.284   5.946   1.587 -0.0039  0.1236 -1.1672
  417MOL0     H57504  12.067   6.004   1.578 -1.3343 -0.0686  0.1852
  417MOL0     H57505  11.926   6.198   1.401 -0.7920  0.4793 -0.3586
  417MOL0     H57506  11.853   6.129   1.552 -1.2288 -1.7310 -0.7254
  417MOL0     H57507  11.766   6.135   1.392  0.0468  0.2126 -1.2853
  417MOL0     H57508  11.495   5.627   1.168  4.9764 -3.6989  1.2753
  417MOL0     H57509  11.397   5.552   0.957 -0.9569  0.5666 -0.2401
  417MOL0     H57510  11.301   5.546   0.677  1.4032  1.0571 -1.6194
  417MOL0     H57511  11.266   5.670   0.805 -3.2523  0.5194 -1.8055
  417MOL0     H57512  11.245   5.840   0.634  1.9826  1.1938 -1.9274
  417MOL0     H57513  11.306   5.737   0.503 -4.1642 -0.5374 -2.8495
  417MOL0     H57514  11.107   5.593   0.526 -0.2251  0.8574 -1.8599
  417MOL0     H57515  11.073   5.750   0.478 -0.4410 -1.6607  0.0742
  417MOL0     H57516  11.016   5.788   0.745  3.4576 -2.2601  1.6102
  417MOL0     H57517  11.025   5.615   0.758  0.4477 -0.8966 -1.1011
  417MOL0     H57518  10.848   5.584   0.602 -2.1581 -1.1977  1.0598
  417MOL0     H57519  10.788   5.673   0.730  0.2128  1.4496 -0.0995
  417MOL0     H57520  10.894   5.854   0.512 -0.7099  1.3979 -0.3688
  417MOL0     H57521  10.776   5.873   0.646 -2.2180 -1.9072  1.1261
  417MOL0     H57522  10.648   5.669   0.503  1.1848  0.1434  0.4312
  417MOL0     H57523  10.764   5.719   0.387 -2.2953 -2.3877 -1.3379
  417MOL0     H57524  10.552   5.877   0.526  2.6747 -1.8582  2.7047
  417MOL0     H57525  10.546   5.809   0.364  1.3322 -3.3238  1.5685
  417MOL0     H57526  11.623   5.870   0.767 -0.5469 -0.8583  0.5108
  417MOL0     H57527  11.744   5.918   0.967  3.0294 -3.6493  1.5790
  417MOL0     H57528  11.858   5.681   1.269 -3.4739  1.1229  2.3056
  417MOL0     H57529  12.042   5.606   1.449 -3.3161 -1.4388 -0.2271
  417MOL0     H57530  12.059   4.261   1.427  0.5265  2.5942 -0.0571
  417MOL0     H57531  11.882   4.108   1.375 -0.2107  1.5874  2.8808
  417MOL0     H57532  11.295   4.305   1.304  2.3541  0.1595  1.0006
  417MOL0     H57533  11.081   4.182   1.311 -0.1070 -0.1942  2.6844
  417MOL0     H57534  10.895   3.870   1.245 -0.7357 -1.5089 -2.6864
  417MOL0     H57535  11.007   3.922   1.116  0.3777 -0.4466 -0.2008
  417MOL0     H57536  11.136   3.719   1.129  0.4038  1.7458 -0.8124
  417MOL0     H57537  10.977   3.679   1.073 -0.0236  1.1681  0.6034
  417MOL0     H57538  11.070   3.521   1.245 -1.7679 -1.5989  0.8665
  417MOL0     H57539  11.053   3.633   1.375 -1.2577 -0.6083  0.0919
  417MOL0     H57540  10.821   3.650   1.357 -4.2767 -0.6425 -3.4751
  417MOL0     H57541  10.872   3.482   1.379  1.9134 -0.0122  0.1415
  417MOL0     H57542  10.693   3.477   0.999  0.3599 -0.4090 -1.4970
  417MOL0     H57543  11.303   3.814   1.270 -1.3967  0.6677 -3.5620
  417MOL0     H57544  11.528   3.848   1.398  1.2348 -1.3065 -1.6478
  417MOL0     H57545  11.546   3.835   1.218 -1.1485 -1.1945 -0.0149
  417MOL0     H57546  11.635   3.954   1.307  1.5688 -3.1465  4.8067
  418MOL0     O57547   6.392   4.781   4.742 -0.1757  0.6769 -0.2932
  418MOL0     C57548   6.297   4.712   4.744 -0.2543  0.0026 -1.4354
  418MOL0     O57549   6.180   4.757   4.804 -0.6596 -0.4851  0.4273
  418MOL0     C57550   6.063   4.729   4.745 -0.1358  0.3742  1.0825
  418MOL0     C57551   5.947   4.673   4.803  0.2864  0.6245 -0.2689
  418MOL0     C57552   5.829   4.643   4.736  0.1983 -0.8253 -0.3123
  418MOL0     C57553   5.816   4.675   4.602 -0.5273 -0.5164  0.9055
  418MOL0     O57554   5.688   4.654   4.555  0.3331 -0.2605  0.4021
  418MOL0     C57555   5.665   4.597   4.425 -0.5072  0.0523 -0.1010
  418MOL0     C57556   5.546   4.501   4.443  0.2923 -0.6197  0.1747
  418MOL0     C57557   5.525   4.403   4.328  0.2954 -0.3245  0.3000
  418MOL0     C57558   5.394   4.328   4.347  0.7434 -0.2767  1.0723
  418MOL0     C57559   5.380   4.215   4.232  0.3650 -0.4932 -0.2449
  418MOL0     C57560   5.242   4.145   4.232  0.2120  0.1634 -0.2532
  418MOL0     C57561   5.232   4.009   4.163 -0.4351  0.0259 -0.7967
  418MOL0     C57562   5.274   4.017   4.019  0.5369  0.0564  0.0368
  418MOL0     N57563   5.280   3.882   3.955  0.4334 -0.3723 -1.1383
  418MOL0     C57564   5.354   3.775   3.999 -0.8265 -0.2218 -0.1035
  418MOL0     C57565   5.326   3.672   3.924  0.3723 -0.3815  0.4348
  418MOL0     C57566   5.369   3.529   3.937 -0.3633  1.1586  0.2027
  418MOL0     C57567   5.503   3.520   3.848 -0.2045 -0.1163 -0.0741
  418MOL0     C57568   5.625   3.566   3.935  0.1967  0.2090 -0.0237
  418MOL0     C57569   5.749   3.590   3.855 -0.1253  0.8643 -0.9537
  418MOL0     O57570   5.813   3.468   3.825  0.6763 -0.0392 -0.3050
  418MOL0     C57571   5.910   3.416   3.909  0.0982  0.5620 -0.4126
  418MOL0     C57572   6.043   3.448   3.899  0.2537 -0.5460 -0.2494
  418MOL0     C57573   6.133   3.394   3.992  0.5309  0.7308  0.0545
  418MOL0     C57574   6.282   3.412   3.964  0.0865  0.3385 -0.1004
  418MOL0     C57575   6.087   3.301   4.091 -0.1606  0.7361  0.1869
  418MOL0     C57576   6.171   3.249   4.201 -0.3109 -0.5198 -0.3144
  418MOL0     O57577   6.131   3.128   4.244  0.2223  0.1503 -0.4025
  418MOL0     C57578   6.221   3.062   4.313  1.1188 -0.1975  0.5161
  418MOL0     C57579   6.297   2.970   4.244  0.0123  0.3888 -0.3860
  418MOL0     C57580   6.382   2.877   4.316  0.0165  0.4994 -0.5043
  418MOL0     C57581   6.385   2.867   4.462  0.0552  0.5695 -0.0762
  418MOL0     O57582   6.468   2.796   4.528  0.2207  0.7068 -1.1437
  418MOL0     C57583   6.607   2.784   4.500  0.0804  0.0741  0.2133
  418MOL0     C57584   6.669   2.895   4.590 -0.3042 -0.6028  0.2873
  418MOL0     C57585   6.651   2.871   4.742 -0.0417  0.3668  0.1957
  418MOL0     C57586   6.649   3.003   4.822 -0.7251  0.4950 -0.1049
  418MOL0     C57587   6.615   2.998   4.967  0.2189 -0.0283  0.5603
  418MOL0     C57588   6.697   2.897   5.043 -0.2689 -0.8502  0.0981
  418MOL0     C57589   6.719   2.920   5.199  0.8694  0.3667 -0.1294
  418MOL0     C57590   6.807   2.820   5.272  0.7618  0.4374  0.1100
  418MOL0    Cl57591   6.773   2.651   5.241  0.4085 -0.2840 -0.2476
  418MOL0     C57592   6.294   2.947   4.525 -1.0291 -0.4222  0.6494
  418MOL0     C57593   6.216   3.039   4.455  0.5984 -0.0253 -0.2851
  418MOL0     O57594   6.266   3.316   4.244  0.1249  0.1823 -0.1827
  418MOL0     C57595   5.953   3.276   4.099  0.0588 -1.2668 -0.2063
  418MOL0     C57596   5.862   3.327   4.009 -0.1678  1.1235  0.4011
  418MOL0     N57597   5.248   3.717   3.821  0.8474 -1.0658 -0.2086
  418MOL0     N57598   5.224   3.839   3.840  0.1474  0.2796 -0.3671
  418MOL0     C57599   5.931   4.719   4.535  0.3715 -1.0223  0.4273
  418MOL0     C57600   6.049   4.745   4.601 -0.4567 -0.1433 -0.4422
  418MOL0     C57601   6.324   4.577   4.704  0.4381 -0.5178  0.2822
  418MOL0     C57602   6.368   4.561   4.574  0.1864  0.2706  0.6186
  418MOL0     C57603   6.374   4.437   4.516  0.6077 -0.6602  0.7003
  418MOL0     C57604   6.351   4.324   4.585 -0.0217  0.7137 -0.3816
  418MOL0     O57605   6.328   4.201   4.532 -0.0580 -0.2805 -0.3514
  418MOL0     C57606   6.417   4.170   4.432  0.0671  1.0991 -0.0360
  418MOL0     C57607   6.430   4.015   4.409  0.0496 -0.9380  0.1307
  418MOL0     C57608   6.339   3.965   4.299 -0.0153  0.2736  0.6871
  418MOL0     C57609   6.182   4.008   4.305 -0.4700  0.8352  0.5378
  418MOL0     C57610   6.103   3.919   4.213 -0.5098 -0.5214  0.4381
  418MOL0     C57611   6.048   3.838   4.142  0.5193  0.5030  0.6808
  418MOL0     C57612   6.307   4.338   4.720 -0.2456 -0.0204  0.5720
  418MOL0     C57613   6.297   4.463   4.783 -0.1273 -0.1524 -0.5910
  418MOL0     C57614   6.248   4.476   4.925 -0.2035 -0.2124 -0.7517
  418MOL0     H57615   5.947   4.646   4.908 -0.5908  0.6267 -0.2609
  418MOL0     H57616   5.744   4.583   4.768  0.7348 -3.2445 -2.9806
  418MOL0     H57617   5.749   4.546   4.378  2.3363  3.5190  0.8197
  418MOL0     H57618   5.631   4.679   4.362  1.8868  0.0836 -1.4581
  418MOL0     H57619   5.547   4.446   4.538 -2.5032  2.0334  1.9683
  418MOL0     H57620   5.458   4.566   4.453 -0.9745 -1.7977 -2.5647
  418MOL0     H57621   5.514   4.456   4.232  0.5595 -3.1269 -1.3938
  418MOL0     H57622   5.611   4.336   4.323  0.6460 -0.1294  2.6209
  418MOL0     H57623   5.394   4.279   4.445 -1.7368 -1.2416  0.6540
  418MOL0     H57624   5.302   4.387   4.343  1.2276  0.4380 -2.2005
  418MOL0     H57625   5.454   4.139   4.258 -0.0493 -0.8596 -0.1341
  418MOL0     H57626   5.402   4.258   4.133  1.0845 -1.6395 -0.5989
  418MOL0     H57627   5.211   4.122   4.335  0.9900 -1.4469 -0.3365
  418MOL0     H57628   5.173   4.218   4.190 -1.2684  0.3777  2.3181
  418MOL0     H57629   5.127   3.981   4.176 -1.0515  2.6118  0.5760
  418MOL0     H57630   5.291   3.938   4.221  2.1473  2.7299  0.1322
  418MOL0     H57631   5.201   4.085   3.973 -2.2215 -0.0259  3.7923
  418MOL0     H57632   5.375   4.057   4.015  0.5845  0.0269  0.8416
  418MOL0     H57633   5.425   3.779   4.081 -2.1307 -0.2860  1.0496
  418MOL0     H57634   5.305   3.451   3.893  1.5264 -0.3465 -0.0204
  418MOL0     H57635   5.394   3.505   4.041  1.8158 -0.0721 -0.5459
  418MOL0     H57636   5.523   3.416   3.820 -1.1265 -0.1520 -0.6485
  418MOL0     H57637   5.491   3.581   3.758 -0.4272  0.2849  0.2208
  418MOL0     H57638   5.596   3.659   3.984  0.8293 -1.1309  3.0927
  418MOL0     H57639   5.648   3.495   4.015  3.9644 -0.7843 -1.7563
  418MOL0     H57640   5.733   3.650   3.765 -0.9701 -0.2258 -1.5490
  418MOL0     H57641   5.813   3.654   3.917 -0.6044  0.5208 -0.0923
  418MOL0     H57642   6.047   3.522   3.819 -0.2696  0.0801  0.2894
  418MOL0     H57643   6.306   3.468   3.874  1.6566 -2.0814 -1.2986
  418MOL0     H57644   6.322   3.313   3.941  2.2832  0.7760  1.4815
  418MOL0     H57645   6.341   3.448   4.049  0.0073 -1.5146  0.7935
  418MOL0     H57646   6.276   2.963   4.138  0.0997  0.9359 -0.4370
  418MOL0     H57647   6.436   2.802   4.259  1.7868 -0.5205  2.3203
  418MOL0     H57648   6.641   2.690   4.544  0.4833  0.4680  0.7643
  418MOL0     H57649   6.644   2.805   4.399  0.9926  1.6360  0.8290
  418MOL0     H57650   6.776   2.903   4.569 -0.5085  2.5413  0.0625
  418MOL0     H57651   6.622   2.989   4.562  1.5269  0.3133  0.1614
  418MOL0     H57652   6.730   2.798   4.761 -1.6868 -1.0763  1.7955
  418MOL0     H57653   6.549   2.834   4.753  0.0732 -0.7724 -1.9879
  418MOL0     H57654   6.578   3.071   4.773 -1.7703  0.8740  1.8535
  418MOL0     H57655   6.751   3.043   4.818 -1.4552  2.4656 -0.1116
  418MOL0     H57656   6.637   3.098   5.004 -0.1628  0.2669 -0.0032
  418MOL0     H57657   6.512   2.965   4.986 -0.2782 -0.8973 -2.9652
  418MOL0     H57658   6.795   2.888   4.995 -0.1880 -1.3801  0.3452
  418MOL0     H57659   6.657   2.797   5.023  0.0428 -0.2026 -4.8155
  418MOL0     H57660   6.620   2.900   5.240  1.0070  0.3621  0.2025
  418MOL0     H57661   6.759   3.021   5.218  2.2980 -0.4147  1.2212
  418MOL0     H57662   6.807   2.843   5.379 -1.2568 -5.6315  1.8382
  418MOL0     H57663   6.904   2.839   5.224  0.7313  0.9744  0.2586
  418MOL0     H57664   6.291   2.928   4.632 -2.3086 -5.1293 -0.0440
  418MOL0     H57665   6.142   3.097   4.508 -1.5560 -0.9563 -2.1324
  418MOL0     H57666   5.915   3.207   4.173  2.2878 -2.3773 -0.0239
  418MOL0     H57667   5.758   3.297   4.015  0.0373  0.3172 -0.0375
  418MOL0     H57668   5.924   4.742   4.430 -0.8326  1.7201  1.0192
  418MOL0     H57669   6.134   4.772   4.541  0.6537  2.1558  1.9794
  418MOL0     H57670   6.392   4.649   4.515  0.3342  1.5673  2.5154
  418MOL0     H57671   6.401   4.440   4.411  0.8472 -0.4204  0.7669
  418MOL0     H57672   6.400   4.223   4.338  1.1793 -1.1946 -1.6371
  418MOL0     H57673   6.518   4.206   4.457  0.9999 -0.8780 -0.7456
  418MOL0     H57674   6.398   3.951   4.491 -0.0120 -1.2349 -0.1242
  418MOL0     H57675   6.533   3.985   4.386 -0.1553 -3.6252  2.2047
  418MOL0     H57676   6.390   3.983   4.204  2.0480  0.4208  1.7551
  418MOL0     H57677   6.347   3.856   4.299  2.1799  0.3871 -0.5622
  418MOL0     H57678   6.155   4.113   4.289 -3.4881 -0.1574 -1.8556
  418MOL0     H57679   6.143   3.983   4.404 -0.9326  5.6045  1.8292
  418MOL0     H57680   5.994   3.761   4.091  1.9799  0.3721 -0.7315
  418MOL0     H57681   6.276   4.262   4.791  1.6418 -1.0151  0.4082
  418MOL0     H57682   6.260   4.380   4.976 -2.7866 -0.1309  0.1577
  418MOL0     H57683   6.314   4.550   4.972  3.0472 -2.3941 -1.5206
  418MOL0     H57684   6.145   4.513   4.925 -1.6421 -3.7628 -1.6954
  419MOL0     O57685   0.402   8.107  10.002  0.7025 -0.0717 -0.2307
  419MOL0     C57686   0.329   8.073   9.916 -0.1526  0.0579  0.8383
  419MOL0     O57687   0.212   7.995   9.923 -0.3341 -0.0283 -0.1163
  419MOL0     C57688   0.163   7.987  10.053  0.3212  0.6246  0.7979
  419MOL0     C57689   0.071   8.083  10.088 -0.0541 -0.6571 -0.2904
  419MOL0     C57690   0.010   8.074  10.205  0.3723  0.2854  1.2134
  419MOL0     C57691   0.032   7.963  10.288  0.1694  0.2401  0.1278
  419MOL0     O57692  -0.042   7.956  10.400 -0.6583 -0.1903  0.2259
  419MOL0     C57693   0.013   7.930  10.531  0.0888  0.0520 -0.3743
  419MOL0     C57694  -0.060   7.837  10.610  0.2105 -0.5651 -0.1268
  419MOL0     C57695  -0.033   7.684  10.591 -0.2738 -0.4228 -1.2537
  419MOL0     C57696  -0.130   7.614  10.678  0.2720  0.3442  0.1587
  419MOL0     C57697  -0.105   7.458  10.689 -0.0220  0.9789  0.2999
  419MOL0     C57698  -0.238   7.391  10.725 -0.7145 -0.7886  0.0191
  419MOL0     C57699  -0.208   7.249  10.785 -0.4705 -0.6359 -0.3209
  419MOL0     C57700  -0.329   7.173  10.812 -0.2166 -0.1091 -1.6657
  419MOL0     N57701  -0.298   7.063  10.913  0.4154  0.0181  0.2407
  419MOL0     C57702  -0.260   6.941  10.892  0.0970  0.3255 -0.3515
  419MOL0     C57703  -0.299   6.875  11.000 -0.8043 -0.9720 -0.2273
  419MOL0     C57704  -0.274   6.733  11.019  0.6714  0.5328  0.4806
  419MOL0     C57705  -0.392   6.671  11.097  0.2475 -0.8878  0.3527
  419MOL0     C57706  -0.411   6.509  11.079 -0.9024  0.1344  0.8503
  419MOL0     C57707  -0.505   6.464  11.202  0.2232 -0.5038  0.7922
  419MOL0     O57708  -0.418   6.451  11.314  0.8875 -0.7344 -0.2445
  419MOL0     C57709  -0.371   6.324  11.345  0.4137  0.2110  1.1272
  419MOL0     C57710  -0.364   6.213  11.262  0.0128  0.9643 -0.3780
  419MOL0     C57711  -0.278   6.110  11.299  0.3026  0.6519 -0.5938
  419MOL0     C57712  -0.254   6.004  11.196 -0.2779  1.5152 -0.2399
  419MOL0     C57713  -0.224   6.108  11.428  0.1380  1.5724  0.1951
  419MOL0     C57714  -0.133   6.000  11.469 -1.3876  0.5089  0.5206
  419MOL0     O57715  -0.097   5.895  11.384 -0.5318  0.4531 -0.7935
  419MOL0     C57716   0.009   5.816  11.417 -0.2083  0.2567  0.0342
  419MOL0     C57717   0.144   5.865  11.419  0.4504 -0.6332 -0.1775
  419MOL0     C57718   0.257   5.784  11.441 -0.3390 -0.3488  0.4044
  419MOL0     C57719   0.243   5.650  11.447  0.7534  0.5770  0.1894
  419MOL0     O57720   0.352   5.562  11.454  0.2832 -0.1326 -0.2739
  419MOL0     C57721   0.442   5.558  11.343  0.1997  0.7624  0.2555
  419MOL0     C57722   0.478   5.404  11.329 -0.5388  0.4862  0.2820
  419MOL0     C57723   0.364   5.330  11.275  0.4041 -0.1351  0.2705
  419MOL0     C57724   0.391   5.175  11.277  0.1905  0.1535 -0.9431
  419MOL0     C57725   0.499   5.136  11.174 -0.4898  0.0687  0.1389
  419MOL0     C57726   0.528   4.987  11.166  0.6487  0.2629  0.3020
  419MOL0     C57727   0.618   4.944  11.050  0.2103 -0.7227 -1.2428
  419MOL0     C57728   0.651   4.791  11.047 -0.7981  0.5398 -0.3858
  419MOL0    Cl57729   0.507   4.695  11.022 -0.5180 -0.0121  0.0345
  419MOL0     C57730   0.108   5.595  11.444 -0.3009 -0.6497 -0.2708
  419MOL0     C57731  -0.003   5.674  11.430 -0.1801  0.0142  0.3675
  419MOL0     O57732  -0.070   6.017  11.569  0.2168 -0.3316 -0.0884
  419MOL0     C57733  -0.251   6.216  11.511  0.3963  0.5184 -0.2628
  419MOL0     C57734  -0.325   6.319  11.472  0.6813 -0.1031 -0.1582
  419MOL0     N57735  -0.372   6.957  11.089 -0.7410 -0.0468  0.5037
  419MOL0     N57736  -0.354   7.070  11.034  0.0545  0.4185 -0.2983
  419MOL0     C57737   0.130   7.870  10.253 -0.0545  0.6070  0.1942
  419MOL0     C57738   0.196   7.876  10.134 -0.4660 -0.0385  0.7002
  419MOL0     C57739   0.346   8.138   9.792 -0.4596  0.3882  0.3593
  419MOL0     C57740   0.319   8.070   9.674 -0.7237  0.0604  0.8412
  419MOL0     C57741   0.335   8.146   9.545 -0.5120  0.5372 -0.2066
  419MOL0     C57742   0.380   8.274   9.546 -0.6477 -0.1062  0.0343
  419MOL0     O57743   0.413   8.351   9.436  0.5392 -0.9631  0.7982
  419MOL0     C57744   0.407   8.303   9.295 -0.1851 -0.4996 -0.3124
  419MOL0     C57745   0.548   8.316   9.242 -0.4363 -0.8088 -0.3808
  419MOL0     C57746   0.551   8.289   9.088  1.1245  0.4181  0.2127
  419MOL0     C57747   0.669   8.326   9.024  0.0349  0.7711  0.2204
  419MOL0     C57748   0.657   8.282   8.880  0.7329  0.6168 -0.4026
  419MOL0     C57749   0.663   8.253   8.763  0.3084  0.3322  0.8617
  419MOL0     C57750   0.399   8.328   9.665 -0.4447  0.1031  0.6266
  419MOL0     C57751   0.369   8.274   9.788 -0.1496  0.5048 -0.3707
  419MOL0     C57752   0.389   8.376   9.908  0.3640  1.0753 -1.0459
  419MOL0     H57753   0.065   8.172  10.027  1.2600  0.3472  1.0002
  419MOL0     H57754  -0.068   8.144  10.229 -0.5121  0.0803 -0.8781
  419MOL0     H57755   0.025   8.028  10.578 -0.2924  0.2853 -0.7643
  419MOL0     H57756   0.119   7.903  10.521  1.1204  3.2944  0.5212
  419MOL0     H57757  -0.023   7.846  10.713 -4.2103 -0.0878  1.6871
  419MOL0     H57758  -0.167   7.859  10.599  0.5832  0.1359 -3.3324
  419MOL0     H57759  -0.058   7.645  10.491 -1.0577 -1.1049 -0.8100
  419MOL0     H57760   0.069   7.654  10.614 -1.2287 -1.7438  1.7130
  419MOL0     H57761  -0.125   7.658  10.778 -0.3674  0.9906 -0.0792
  419MOL0     H57762  -0.225   7.646  10.634  0.5367 -0.0036 -0.6766
  419MOL0     H57763  -0.031   7.438  10.767  0.2162 -2.1933 -0.6199
  419MOL0     H57764  -0.071   7.422  10.591 -1.4915 -0.1592  0.1819
  419MOL0     H57765  -0.305   7.443  10.793 -2.3485 -2.7531  0.0254
  419MOL0     H57766  -0.302   7.393  10.636  3.4363 -0.0513 -3.2287
  419MOL0     H57767  -0.164   7.269  10.883 -3.0020  1.0274  0.5806
  419MOL0     H57768  -0.136   7.198  10.719 -3.0813 -2.7903 -1.7054
  419MOL0     H57769  -0.410   7.236  10.851  0.9915  1.2309 -1.2234
  419MOL0     H57770  -0.357   7.135  10.713  0.4892  1.9353 -2.7144
  419MOL0     H57771  -0.188   6.896  10.824 -0.3843 -1.6216  0.3690
  419MOL0     H57772  -0.172   6.716  11.055  0.5311  1.7827  1.5341
  419MOL0     H57773  -0.282   6.698  10.916  1.7651  2.4969 -0.3169
  419MOL0     H57774  -0.378   6.690  11.203  0.3880  3.3495 -0.2443
  419MOL0     H57775  -0.488   6.715  11.068 -0.0965  0.0581  2.7360
  419MOL0     H57776  -0.445   6.484  10.978  2.2233  1.9104 -0.7818
  419MOL0     H57777  -0.322   6.446  11.088 -3.2184 -4.2123 -2.7633
  419MOL0     H57778  -0.586   6.537  11.214  0.1212  0.0183 -2.2686
  419MOL0     H57779  -0.551   6.372  11.165 -0.2210 -0.1312  0.3894
  419MOL0     H57780  -0.411   6.204  11.164 -2.3751 -1.1614  0.8561
  419MOL0     H57781  -0.278   5.908  11.241 -1.1469  1.7733 -0.1312
  419MOL0     H57782  -0.151   5.996  11.159  0.1404  0.3951  1.0703
  419MOL0     H57783  -0.319   6.013  11.109 -0.3770  0.5381 -0.2794
  419MOL0     H57784   0.149   5.973  11.416  2.4205 -0.6529  0.6093
  419MOL0     H57785   0.361   5.810  11.457 -0.7348  0.6409  1.5072
  419MOL0     H57786   0.397   5.586  11.247 -1.6418  1.4774  1.2855
  419MOL0     H57787   0.539   5.604  11.362  0.3418 -0.2808  2.3455
  419MOL0     H57788   0.566   5.393  11.264 -4.5780  0.2505 -5.9305
  419MOL0     H57789   0.494   5.374  11.433  0.0990  1.5163  0.4948
  419MOL0     H57790   0.343   5.363  11.173 -0.9818  0.9163  0.8736
  419MOL0     H57791   0.279   5.352  11.340  1.6090 -1.1479  2.2836
  419MOL0     H57792   0.298   5.117  11.272  0.5225 -0.5001  0.1353
  419MOL0     H57793   0.424   5.147  11.378  0.7344 -2.5258 -1.7939
  419MOL0     H57794   0.465   5.165  11.074  0.4377  1.8837  0.3035
  419MOL0     H57795   0.591   5.186  11.206 -1.1897 -0.3138  3.0237
  419MOL0     H57796   0.431   4.936  11.167 -1.1185  3.3868  1.2582
  419MOL0     H57797   0.586   4.960  11.255 -0.0556  2.0037  1.3502
  419MOL0     H57798   0.711   4.996  11.075 -0.8157 -0.4108  2.3896
  419MOL0     H57799   0.584   4.970  10.949 -0.5716  2.4893 -0.2600
  419MOL0     H57800   0.699   4.762  11.141  1.9347 -1.6808 -2.2875
  419MOL0     H57801   0.715   4.772  10.960  0.5943 -1.8713  1.0625
  419MOL0     H57802   0.090   5.488  11.450 -0.1533 -0.7821 -1.7381
  419MOL0     H57803  -0.097   5.620  11.428 -0.8348  1.0130  1.8031
  419MOL0     H57804  -0.200   6.227  11.607 -1.0564  0.3135  0.5679
  419MOL0     H57805  -0.340   6.398  11.544  0.7979 -1.4364  1.3897
  419MOL0     H57806   0.142   7.794  10.329  2.2471  2.7569  2.1768
  419MOL0     H57807   0.267   7.804  10.093 -0.8599 -0.4236  0.6856
  419MOL0     H57808   0.296   7.964   9.670  0.2115 -0.2977  3.1133
  419MOL0     H57809   0.330   8.079   9.460  0.3404 -2.0879  1.6677
  419MOL0     H57810   0.379   8.197   9.288  0.9066 -0.8673  0.5836
  419MOL0     H57811   0.329   8.360   9.244 -0.4156  1.1571  1.7951
  419MOL0     H57812   0.614   8.245   9.293  1.4203  1.3236  0.3356
  419MOL0     H57813   0.573   8.420   9.264 -1.9999 -0.8735  2.1019
  419MOL0     H57814   0.524   8.183   9.075 -0.7086  0.7538  0.9911
  419MOL0     H57815   0.462   8.342   9.051 -1.2838 -1.3853  2.9311
  419MOL0     H57816   0.761   8.280   9.062  2.2217  3.3980 -1.5168
  419MOL0     H57817   0.688   8.432   9.045 -0.1449  0.2226  3.8039
  419MOL0     H57818   0.646   8.228   8.661 -2.5729  1.7734  0.8773
  419MOL0     H57819   0.416   8.435   9.650  0.9489 -0.5245 -3.5626
  419MOL0     H57820   0.479   8.344   9.962 -0.5758 -0.6099 -0.4137
  419MOL0     H57821   0.411   8.470   9.857  1.0648 -0.4936 -3.7894
  419MOL0     H57822   0.303   8.392   9.974  1.2804 -0.1446  0.5305
  420MOL0     O57823   5.207   2.036  11.541 -0.4117  0.2122  0.5801
  420MOL0     C57824   5.119   1.986  11.457  0.4298 -0.6761 -0.1103
  420MOL0     O57825   5.040   1.879  11.478 -0.5441 -0.7013  0.0151
  420MOL0     C57826   5.031   1.840  11.609  0.1336 -0.3866 -0.2443
  420MOL0     C57827   4.961   1.921  11.702  0.2523 -0.9446 -0.6143
  420MOL0     C57828   4.928   1.870  11.827 -0.4367 -0.6206  1.1679
  420MOL0     C57829   4.962   1.745  11.856 -0.2542  0.4155  0.1336
  420MOL0     O57830   4.954   1.688  11.983 -1.2000  0.6941 -0.5145
  420MOL0     C57831   4.867   1.737  12.081 -0.6964 -0.0683 -0.3744
  420MOL0     C57832   4.875   1.647  12.207  0.4448 -0.1060  0.7931
  420MOL0     C57833   5.016   1.658  12.268 -0.2352 -0.0778  0.1500
  420MOL0     C57834   5.029   1.579  12.402  0.4270 -0.2589 -0.0594
  420MOL0     C57835   5.170   1.616  12.473  0.3025 -0.1726 -0.3950
  420MOL0     C57836   5.182   1.550  12.611  0.5480 -0.1120 -0.4897
  420MOL0     C57837   5.306   1.591  12.697 -0.1878  0.7968 -0.5369
  420MOL0     C57838   5.397   1.470  12.702 -0.4863 -0.4272  0.4440
  420MOL0     N57839   5.366   1.375  12.803 -0.0850 -0.1607 -0.7599
  420MOL0     C57840   5.437   1.339  12.920  1.3262  0.0455 -0.7398
  420MOL0     C57841   5.348   1.271  12.990 -0.1496 -0.0221 -0.1850
  420MOL0     C57842   5.382   1.215  13.124  0.5559  0.0988  0.1709
  420MOL0     C57843   5.302   1.275  13.238  0.2851 -0.0310  0.2022
  420MOL0     C57844   5.361   1.219  13.362 -0.1750  0.9095  0.1667
  420MOL0     C57845   5.333   1.296  13.495 -0.0215 -0.2493 -0.0256
  420MOL0     O57846   5.192   1.282  13.527  0.2025  0.5678  0.5363
  420MOL0     C57847   5.175   1.192  13.621 -0.9706 -0.3653  0.0664
  420MOL0     C57848   5.205   1.228  13.754  0.9705 -0.8377 -0.2182
  420MOL0     C57849   5.210   1.136  13.850 -0.8746 -0.7835 -0.2087
  420MOL0     C57850   5.260   1.185  13.982 -1.3207  0.6532  0.1619
  420MOL0     C57851   5.178   1.004  13.822 -0.1520 -0.2114  0.1519
  420MOL0     C57852   5.200   0.884  13.913  0.6589 -0.8585  0.7189
  420MOL0     O57853   5.185   0.908  14.045 -0.8948  0.4559  0.5089
  420MOL0     C57854   5.231   0.821  14.134  0.9325  0.5946 -0.0793
  420MOL0     C57855   5.162   0.815  14.250 -0.1383 -0.6166  0.0626
  420MOL0     C57856   5.198   0.741  14.359  0.3037 -0.0373 -0.1172
  420MOL0     C57857   5.309   0.665  14.363 -0.1089  0.2155 -0.8279
  420MOL0     O57858   5.328   0.588  14.476 -0.2260 -0.1416  0.4552
  420MOL0     C57859   5.423   0.487  14.483  0.4531  0.0396 -0.1904
  420MOL0     C57860   5.443   0.452  14.630 -0.0352  0.0436  0.4308
  420MOL0     C57861   5.327   0.407  14.718 -1.4620  0.8570 -0.4939
  420MOL0     C57862   5.399   0.358  14.853 -0.3044 -0.1808  0.8267
  420MOL0     C57863   5.308   0.323  14.969  0.1030  0.9420  0.3364
  420MOL0     C57864   5.392   0.283  15.088 -0.4104 -0.3281 -0.9652
  420MOL0     C57865   5.297   0.241  15.200  0.7314 -0.5087  0.6284
  420MOL0     C57866   5.379   0.210  15.328  0.3008  0.3383  0.3243
  420MOL0    Cl57867   5.284   0.098  15.422 -0.1429  0.1134  0.4673
  420MOL0     C57868   5.389   0.674  14.252 -0.3551  0.9516 -0.2899
  420MOL0     C57869   5.354   0.750  14.137 -0.2458  1.2458  0.1879
  420MOL0     O57870   5.230   0.781  13.858  0.4987  0.4191 -0.7504
  420MOL0     C57871   5.150   0.966  13.688 -0.6378  0.1429 -0.0128
  420MOL0     C57872   5.149   1.065  13.595  0.0667  0.3830  0.4135
  420MOL0     N57873   5.227   1.265  12.937 -0.1159 -1.0619  0.0379
  420MOL0     N57874   5.240   1.323  12.823 -0.4334  0.2390 -0.3468
  420MOL0     C57875   5.041   1.666  11.763  0.1420  0.0172  1.0185
  420MOL0     C57876   5.066   1.711  11.632  0.1605  0.3234  0.4184
  420MOL0     C57877   5.108   2.051  11.318 -0.5290 -1.5158 -0.3177
  420MOL0     C57878   5.028   1.991  11.221  0.4975  0.0796  0.0612
  420MOL0     C57879   5.016   2.036  11.091  1.1245 -0.4166 -1.0367
  420MOL0     C57880   5.075   2.150  11.053 -0.6919  0.1090  0.3157
  420MOL0     O57881   5.050   2.190  10.920  0.0198 -0.8784 -0.0397
  420MOL0     C57882   5.161   2.172  10.834  0.6467 -0.1844  0.6301
  420MOL0     C57883   5.117   2.162  10.692  0.8830 -0.0372  0.8098
  420MOL0     C57884   4.994   2.066  10.686  0.4509  0.6679  0.6085
  420MOL0     C57885   4.915   2.050  10.557 -0.1395 -0.7480 -0.2031
  420MOL0     C57886   4.833   1.927  10.558  0.1164  0.0951  0.0941
  420MOL0     C57887   4.771   1.825  10.568  1.0174  0.6572 -1.0950
  420MOL0     C57888   5.147   2.220  11.145 -0.2208 -0.1295  1.1168
  420MOL0     C57889   5.172   2.172  11.279 -0.2315 -0.0360 -0.2864
  420MOL0     C57890   5.244   2.263  11.371 -0.9175 -0.0435 -0.3958
  420MOL0     H57891   4.929   2.022  11.679  1.8200 -0.4896 -0.9266
  420MOL0     H57892   4.871   1.946  11.881 -0.1924  0.1822  0.3254
  420MOL0     H57893   4.764   1.736  12.045 -1.3693 -0.9540  1.4909
  420MOL0     H57894   4.888   1.842  12.103 -4.5635  0.3574  2.1675
  420MOL0     H57895   4.802   1.680  12.282 -2.6985 -2.3137 -1.0497
  420MOL0     H57896   4.846   1.542  12.197 -0.8399  0.1947  1.2201
  420MOL0     H57897   5.100   1.623  12.207  1.7140  0.2031  2.5097
  420MOL0     H57898   5.036   1.764  12.285  1.5523 -0.3111 -0.2429
  420MOL0     H57899   4.949   1.603  12.474  2.7225 -0.2041  2.6564
  420MOL0     H57900   5.030   1.472  12.382 -1.9325 -0.3378 -0.1114
  420MOL0     H57901   5.182   1.724  12.481  2.4469 -0.4569  0.7958
  420MOL0     H57902   5.260   1.577  12.424  1.1277 -0.3106  1.1794
  420MOL0     H57903   5.092   1.572  12.669  0.1482 -1.5650 -0.5117
  420MOL0     H57904   5.171   1.444  12.586  0.4535 -0.1326 -0.3591
  420MOL0     H57905   5.278   1.615  12.800 -1.6250 -0.2557 -0.6431
  420MOL0     H57906   5.358   1.685  12.675 -0.1803  0.8628 -0.2392
  420MOL0     H57907   5.403   1.418  12.606 -3.9196 -0.5922  0.1979
  420MOL0     H57908   5.503   1.496  12.711  0.0032 -1.7618 -1.1332
  420MOL0     H57909   5.534   1.376  12.953 -0.4568  3.1107  1.5876
  420MOL0     H57910   5.485   1.249  13.144  1.0076  1.3143 -3.4478
  420MOL0     H57911   5.366   1.108  13.131 -0.4588  0.3579  3.0514
  420MOL0     H57912   5.318   1.383  13.245 -1.4106  0.1736  1.6579
  420MOL0     H57913   5.193   1.263  13.231  0.5468 -2.5279 -0.9939
  420MOL0     H57914   5.341   1.112  13.372  2.0402  0.4756  0.4692
  420MOL0     H57915   5.470   1.216  13.354 -0.2419  3.2238 -3.7895
  420MOL0     H57916   5.412   1.285  13.570 -0.2020  0.3946  0.2678
  420MOL0     H57917   5.355   1.403  13.486  3.7849 -0.7205  1.6124
  420MOL0     H57918   5.229   1.333  13.767 -0.5072 -0.5114  0.1252
  420MOL0     H57919   5.192   1.165  14.065 -2.4414  1.6565 -0.4673
  420MOL0     H57920   5.275   1.294  13.981 -1.3531  0.6800  1.3638
  420MOL0     H57921   5.354   1.133  14.004 -3.2182 -3.0695  0.1589
  420MOL0     H57922   5.059   0.849  14.258 -1.0364 -1.9579 -3.6821
  420MOL0     H57923   5.120   0.723  14.432 -0.9213 -2.0282 -1.8159
  420MOL0     H57924   5.390   0.403  14.421  1.8182 -1.1258  0.5919
  420MOL0     H57925   5.519   0.514  14.436 -0.1462  1.2809 -0.7381
  420MOL0     H57926   5.526   0.382  14.638 -1.0544 -1.4019 -1.1406
  420MOL0     H57927   5.480   0.546  14.674 -0.4593  0.4444 -0.0505
  420MOL0     H57928   5.272   0.321  14.678 -1.3565  0.8157 -0.5513
  420MOL0     H57929   5.270   0.497  14.740 -0.6551  0.8583  1.8695
  420MOL0     H57930   5.464   0.440  14.883  1.1709  0.0109 -2.5801
  420MOL0     H57931   5.460   0.272  14.825 -0.8548 -0.1137 -0.6455
  420MOL0     H57932   5.244   0.409  14.990  2.4396  2.4063  1.9589
  420MOL0     H57933   5.248   0.237  14.937 -0.5250  0.1361  3.3408
  420MOL0     H57934   5.448   0.359  15.143  1.8655 -3.1894  0.9632
  420MOL0     H57935   5.456   0.198  15.063  1.4266 -0.5896  3.6650
  420MOL0     H57936   5.242   0.158  15.155  1.1321  0.3360 -1.5100
  420MOL0     H57937   5.228   0.326  15.210  1.9468  1.0626 -2.8153
  420MOL0     H57938   5.409   0.298  15.386  0.1769  0.0699  0.8001
  420MOL0     H57939   5.468   0.154  15.297 -0.9185 -1.3043 -0.3717
  420MOL0     H57940   5.482   0.619  14.241 -0.7282  0.6639 -2.5076
  420MOL0     H57941   5.415   0.752  14.048 -0.5000 -0.5426 -0.0602
  420MOL0     H57942   5.117   0.867  13.659 -0.2845 -0.5439  1.8054
  420MOL0     H57943   5.137   1.026  13.494  0.7769 -0.0508  0.4864
  420MOL0     H57944   5.069   1.566  11.793  0.9208 -1.0308 -2.6491
  420MOL0     H57945   5.113   1.647  11.558 -1.7879  0.2135 -0.8133
  420MOL0     H57946   4.961   1.909  11.247 -1.2997  0.5885 -2.6300
  420MOL0     H57947   4.960   1.982  11.016  0.6087 -0.5134 -0.5823
  420MOL0     H57948   5.234   2.251  10.851 -2.0704  2.0060  3.1463
  420MOL0     H57949   5.215   2.081  10.860  2.8722  0.5827 -1.0379
  420MOL0     H57950   5.189   2.122  10.620 -0.0720 -0.4397  0.0550
  420MOL0     H57951   5.089   2.264  10.663 -0.2439 -0.5446  0.0522
  420MOL0     H57952   5.032   1.967  10.712 -0.5241  0.4065  1.0573
  420MOL0     H57953   4.911   2.091  10.752  1.2537  0.6055  1.6689
  420MOL0     H57954   4.985   2.034  10.475 -1.4016 -1.8148 -1.1142
  420MOL0     H57955   4.861   2.140  10.529 -0.3148 -1.8728 -3.9529
  420MOL0     H57956   4.704   1.744  10.589 -0.3928  0.9546 -3.9922
  420MOL0     H57957   5.196   2.312  11.117  0.2332  0.0298  2.3731
  420MOL0     H57958   5.342   2.229  11.406 -0.5658  1.6177  0.3599
  420MOL0     H57959   5.261   2.357  11.316 -2.5610  2.3550  2.8480
  420MOL0     H57960   5.184   2.276  11.461 -0.8113 -2.4855  0.0874
  421MOL0     O57961   7.255   1.140   8.035 -0.0423 -0.2273 -0.2927
  421MOL0     C57962   7.232   1.216   8.122 -0.8734  0.6311 -0.2549
  421MOL0     O57963   7.202   1.354   8.111 -0.4137 -0.5844  0.4914
  421MOL0     C57964   7.161   1.422   7.993  0.5054  0.2836 -0.2929
  421MOL0     C57965   7.067   1.531   7.992  1.4865  0.4200 -0.3250
  421MOL0     C57966   7.037   1.601   7.875 -0.5581  0.2520 -0.4309
  421MOL0     C57967   7.090   1.570   7.753 -0.5653 -0.8611  0.5459
  421MOL0     O57968   7.040   1.637   7.638 -0.0938 -0.7143 -0.1547
  421MOL0     C57969   7.026   1.566   7.519  0.2073  0.4579  1.2246
  421MOL0     C57970   6.959   1.661   7.418  0.2687 -0.4211 -0.4066
  421MOL0     C57971   6.974   1.600   7.281 -0.7582  0.2491 -0.0578
  421MOL0     C57972   6.913   1.702   7.181  0.1660 -1.0196  0.0811
  421MOL0     C57973   6.836   1.634   7.063  0.1456  0.0796  0.0415
  421MOL0     C57974   6.696   1.578   7.082  0.0032  0.0296 -0.7275
  421MOL0     C57975   6.583   1.674   7.150 -0.2981  0.1832 -0.0257
  421MOL0     C57976   6.517   1.771   7.042 -0.0131  0.2836 -0.9971
  421MOL0     N57977   6.584   1.898   7.035  0.3746 -0.5549  0.1690
  421MOL0     C57978   6.595   2.000   7.135 -0.3768  1.4606 -0.2458
  421MOL0     C57979   6.673   2.097   7.084  1.0333  0.3006  0.8440
  421MOL0     C57980   6.723   2.219   7.153  0.4102 -0.5436 -1.2146
  421MOL0     C57981   6.822   2.163   7.258  0.6844 -0.2043 -0.0237
  421MOL0     C57982   6.897   2.278   7.314  0.3685 -0.1044 -0.0483
  421MOL0     C57983   6.988   2.234   7.427 -0.5604  1.5095  0.4639
  421MOL0     O57984   7.079   2.127   7.392  0.0009  0.0638  0.0219
  421MOL0     C57985   7.140   2.057   7.490 -0.7782  0.5182  0.2469
  421MOL0     C57986   7.239   1.973   7.457  0.5175 -0.6065 -0.2041
  421MOL0     C57987   7.321   1.893   7.548 -0.0624  0.0197  0.6047
  421MOL0     C57988   7.434   1.810   7.493  0.5182 -0.0032  1.0270
  421MOL0     C57989   7.300   1.923   7.691  0.8527  0.0195  0.3881
  421MOL0     C57990   7.372   1.850   7.798 -1.0454  0.1834  0.0435
  421MOL0     O57991   7.359   1.896   7.923  0.5351 -0.6852  0.0460
  421MOL0     C57992   7.430   1.834   8.030  0.6619 -0.0398  0.6150
  421MOL0     C57993   7.505   1.923   8.102  0.8301 -0.3700  0.9049
  421MOL0     C57994   7.583   1.878   8.213  0.0936 -0.2036 -0.8454
  421MOL0     C57995   7.573   1.745   8.262  0.3305  0.5917 -0.6348
  421MOL0     O57996   7.654   1.711   8.372 -0.1696 -0.3270  0.1805
  421MOL0     C57997   7.707   1.576   8.361  0.3549  0.1391 -0.1925
  421MOL0     C57998   7.847   1.580   8.431 -0.3957 -0.2581  0.3336
  421MOL0     C57999   7.935   1.468   8.397  0.6118 -0.6044  0.2062
  421MOL0     C58000   8.065   1.487   8.471  0.1836 -0.1244 -0.6946
  421MOL0     C58001   8.149   1.366   8.468 -1.0243  0.4350  0.9309
  421MOL0     C58002   8.272   1.422   8.541  0.9200 -1.2484  0.2648
  421MOL0     C58003   8.376   1.322   8.590 -0.6754  0.2763 -0.1983
  421MOL0     C58004   8.514   1.387   8.610  0.1599 -1.1235 -0.4026
  421MOL0    Cl58005   8.503   1.486   8.753 -0.5080 -0.1004  0.1781
  421MOL0     C58006   7.484   1.653   8.192  0.0600 -0.1603 -0.1363
  421MOL0     C58007   7.413   1.701   8.081  0.1751  0.8282 -0.9309
  421MOL0     O58008   7.445   1.757   7.774  0.2677 -0.1665 -0.1493
  421MOL0     C58009   7.206   2.015   7.729 -0.7204 -0.8788 -0.6127
  421MOL0     C58010   7.134   2.081   7.631  0.6575  0.1681 -0.5540
  421MOL0     N58011   6.685   2.078   6.953 -0.3213 -0.1209  0.1366
  421MOL0     N58012   6.637   1.960   6.925 -1.0592  0.9706  0.3777
  421MOL0     C58013   7.193   1.471   7.751 -0.6731  0.3871 -1.1314
  421MOL0     C58014   7.226   1.398   7.869  0.7324  0.7963 -0.2115
  421MOL0     C58015   7.244   1.161   8.258 -0.1331 -0.4774  0.9798
  421MOL0     C58016   7.200   1.240   8.370 -0.4976 -0.7017  0.3172
  421MOL0     C58017   7.194   1.192   8.503 -1.1016  0.1714 -0.0188
  421MOL0     C58018   7.212   1.059   8.527  0.8406 -0.2773  0.3818
  421MOL0     O58019   7.210   1.001   8.653  0.2118  0.6886 -0.0693
  421MOL0     C58020   7.152   1.077   8.765  0.3163 -0.1450  0.3560
  421MOL0     C58021   7.075   0.975   8.854  0.2987  0.2596  0.8097
  421MOL0     C58022   7.183   0.892   8.922 -0.0279  0.8507 -0.2107
  421MOL0     C58023   7.130   0.802   9.037 -0.0083  0.1080 -0.3181
  421MOL0     C58024   7.241   0.726   9.096 -0.3460 -0.1607  0.1244
  421MOL0     C58025   7.341   0.665   9.138 -0.6406  0.2822 -0.0048
  421MOL0     C58026   7.256   0.982   8.423  0.1117  0.7631 -0.2291
  421MOL0     C58027   7.267   1.022   8.289  0.1890 -0.4927  1.0082
  421MOL0     C58028   7.308   0.926   8.183 -0.8956  1.2610 -0.0600
  421MOL0     H58029   7.037   1.577   8.086 -0.3512  1.3858 -1.3241
  421MOL0     H58030   6.953   1.669   7.882  0.5255  1.4245  2.4465
  421MOL0     H58031   6.961   1.482   7.544 -0.1326  0.6414  0.9726
  421MOL0     H58032   7.116   1.526   7.472  0.1956 -0.0232  1.6086
  421MOL0     H58033   6.851   1.670   7.434  0.2992 -1.2901  0.3555
  421MOL0     H58034   7.009   1.758   7.413 -2.7455  1.2557 -0.1823
  421MOL0     H58035   7.082   1.591   7.264 -0.7453 -1.1376  0.6430
  421MOL0     H58036   6.925   1.502   7.279 -2.7765  0.9370  4.0558
  421MOL0     H58037   6.850   1.773   7.236  1.6168 -0.0994  0.5983
  421MOL0     H58038   6.996   1.756   7.135 -1.7495  2.0629 -0.1072
  421MOL0     H58039   6.895   1.553   7.018 -2.0085 -1.4516 -0.2053
  421MOL0     H58040   6.835   1.702   6.977 -0.4734 -2.0791 -1.7653
  421MOL0     H58041   6.657   1.549   6.984 -1.1856 -0.7760 -0.0402
  421MOL0     H58042   6.701   1.483   7.137  0.1851  0.6040  0.2705
  421MOL0     H58043   6.620   1.736   7.232 -3.8247  0.6076  1.4176
  421MOL0     H58044   6.511   1.607   7.196 -2.0605  1.1253 -1.3062
  421MOL0     H58045   6.528   1.727   6.943 -0.7019  3.1819 -2.4929
  421MOL0     H58046   6.410   1.780   7.066 -0.9788 -1.1496 -4.1972
  421MOL0     H58047   6.553   2.000   7.235 -1.5273 -0.1332 -0.6856
  421MOL0     H58048   6.636   2.273   7.191  1.3522  0.7090 -0.7906
  421MOL0     H58049   6.772   2.291   7.088 -2.3141  1.7269 -0.9466
  421MOL0     H58050   6.790   2.099   7.342 -0.4516  0.0582 -0.2385
  421MOL0     H58051   6.892   2.104   7.197 -0.8412  1.1491 -3.3207
  421MOL0     H58052   6.964   2.304   7.231 -2.3392 -1.5363 -2.8959
  421MOL0     H58053   6.828   2.359   7.337  0.3057  0.0557 -0.7623
  421MOL0     H58054   7.052   2.313   7.466 -0.0657  1.7318 -0.7421
  421MOL0     H58055   6.927   2.186   7.504  0.6601  0.3653  0.7704
  421MOL0     H58056   7.261   1.957   7.352 -1.6046 -3.8105 -0.3004
  421MOL0     H58057   7.398   1.709   7.471  0.1152  0.6489 -1.5381
  421MOL0     H58058   7.523   1.803   7.557  0.6368 -1.5666  0.7454
  421MOL0     H58059   7.454   1.857   7.397  1.6515  0.6798  1.5825
  421MOL0     H58060   7.514   2.028   8.076 -2.5862 -0.6243 -2.2193
  421MOL0     H58061   7.641   1.954   8.266 -2.9423  0.4768  1.8403
  421MOL0     H58062   7.645   1.502   8.412  1.8964 -0.9194  0.1952
  421MOL0     H58063   7.716   1.550   8.255  1.5877 -1.9360  0.3740
  421MOL0     H58064   7.903   1.669   8.403  0.6032 -1.4355 -1.6904
  421MOL0     H58065   7.822   1.573   8.537 -2.5405 -3.1431 -0.2324
  421MOL0     H58066   7.960   1.460   8.291  2.5912 -2.4282  0.7493
  421MOL0     H58067   7.878   1.378   8.423 -0.4260 -0.0216 -0.0090
  421MOL0     H58068   8.028   1.503   8.573  0.6064 -0.9168 -0.4101
  421MOL0     H58069   8.109   1.576   8.424 -1.5141  0.7346 -0.7573
  421MOL0     H58070   8.111   1.285   8.530 -2.4643  2.3976  2.7497
  421MOL0     H58071   8.168   1.343   8.362 -1.1128  2.9059  0.3090
  421MOL0     H58072   8.249   1.493   8.621  1.3501 -0.1515 -0.5649
  421MOL0     H58073   8.327   1.480   8.467 -1.7305 -2.4962 -2.8847
  421MOL0     H58074   8.393   1.237   8.523  1.0608  1.6477 -1.5909
  421MOL0     H58075   8.337   1.285   8.686 -0.5347 -4.0591 -1.5896
  421MOL0     H58076   8.535   1.460   8.531 -2.5061 -1.6756 -1.7292
  421MOL0     H58077   8.595   1.318   8.635  2.4787  1.2036 -1.0132
  421MOL0     H58078   7.469   1.550   8.222 -1.9625 -0.1052 -0.8326
  421MOL0     H58079   7.347   1.631   8.030  1.9257 -2.0514  0.5342
  421MOL0     H58080   7.188   2.031   7.835  2.9311  0.8173 -0.0999
  421MOL0     H58081   7.056   2.153   7.655  1.2636  0.5052  0.4730
  421MOL0     H58082   7.250   1.453   7.661 -0.7025  0.1913 -1.1111
  421MOL0     H58083   7.296   1.315   7.864  0.4741  0.5252  0.5650
  421MOL0     H58084   7.176   1.345   8.355 -0.6538 -0.8604 -0.6226
  421MOL0     H58085   7.157   1.263   8.575 -3.5081  0.3549 -1.3521
  421MOL0     H58086   7.228   1.121   8.830  0.4288  0.1782  0.0084
  421MOL0     H58087   7.081   1.153   8.731 -2.0757 -1.4911  2.0594
  421MOL0     H58088   7.007   0.911   8.797 -0.8191  0.0261  2.3413
  421MOL0     H58089   7.021   1.026   8.935 -1.9400  0.1102 -0.5051
  421MOL0     H58090   7.235   0.826   8.852 -2.6551 -2.8899  1.0284
  421MOL0     H58091   7.255   0.957   8.973 -1.2470  2.6433 -0.7075
  421MOL0     H58092   7.061   0.723   9.007  0.6776 -1.5541  2.1596
  421MOL0     H58093   7.090   0.867   9.115 -0.0318  1.5580 -1.5089
  421MOL0     H58094   7.422   0.606   9.176  0.3054  0.1755 -2.0039
  421MOL0     H58095   7.279   0.881   8.455 -2.0529  0.5612  0.8205
  421MOL0     H58096   7.239   0.901   8.102  1.2941 -0.2675 -1.5768
  421MOL0     H58097   7.404   0.957   8.140 -0.4402 -0.9422 -0.7963
  421MOL0     H58098   7.326   0.824   8.219  1.1550  0.5619 -2.7157
  422MOL0     O58099   3.706   8.845   5.822  0.1791 -0.0775  0.3788
  422MOL0     C58100   3.676   8.753   5.742  0.5580  0.5793 -0.2184
  422MOL0     O58101   3.748   8.636   5.733 -0.6003  0.3003  0.0031
  422MOL0     C58102   3.704   8.530   5.672 -0.8757 -0.4977  0.8951
  422MOL0     C58103   3.795   8.469   5.587  0.6585  0.2892 -0.5448
  422MOL0     C58104   3.761   8.366   5.503 -0.1610  0.4536 -0.3595
  422MOL0     C58105   3.631   8.307   5.506  0.0762 -1.0269  0.2977
  422MOL0     O58106   3.582   8.202   5.429  0.1823 -0.3202  0.3038
  422MOL0     C58107   3.642   8.187   5.298  0.3408 -0.1170 -0.0723
  422MOL0     C58108   3.609   8.044   5.256  0.7233 -0.4554 -0.6898
  422MOL0     C58109   3.458   8.020   5.229  0.2402 -0.6998 -1.4891
  422MOL0     C58110   3.441   7.900   5.143  0.2960  0.2257  0.2199
  422MOL0     C58111   3.291   7.853   5.131 -0.6359  0.5545  0.3885
  422MOL0     C58112   3.289   7.751   5.020 -0.2152  1.6970 -0.4405
  422MOL0     C58113   3.161   7.671   5.032  0.5312 -0.6408 -0.0439
  422MOL0     C58114   3.152   7.545   5.119  0.1037  0.0598 -0.2389
  422MOL0     N58115   3.016   7.497   5.125 -0.1727 -0.3061 -0.5453
  422MOL0     C58116   2.963   7.409   5.035  0.7365 -0.7992 -0.3822
  422MOL0     C58117   2.823   7.430   5.054  0.8424 -0.9657 -0.6319
  422MOL0     C58118   2.719   7.353   4.988  1.0474 -0.5110  0.8218
  422MOL0     C58119   2.663   7.242   5.078  0.5065 -0.2522  0.6569
  422MOL0     C58120   2.565   7.149   4.998  0.9184 -0.2120  0.5342
  422MOL0     C58121   2.614   7.049   4.895 -0.6177 -0.3355 -0.6991
  422MOL0     O58122   2.516   6.962   4.834  0.2499 -0.0253  0.3607
  422MOL0     C58123   2.464   6.868   4.922  0.7656 -0.3714  0.1532
  422MOL0     C58124   2.337   6.883   4.977  0.4833 -0.1792  0.3282
  422MOL0     C58125   2.299   6.787   5.066  0.3121 -0.2002  0.2739
  422MOL0     C58126   2.162   6.803   5.123  0.3042 -0.0775  0.8292
  422MOL0     C58127   2.369   6.664   5.077 -0.8257 -0.1846 -0.4320
  422MOL0     C58128   2.310   6.535   5.135 -0.6015 -1.0176 -0.2753
  422MOL0     O58129   2.403   6.454   5.198  0.7623  0.4199  0.2309
  422MOL0     C58130   2.390   6.318   5.213  1.1509 -0.3582 -0.2323
  422MOL0     C58131   2.436   6.260   5.330 -0.9261  1.2322 -0.3015
  422MOL0     C58132   2.436   6.116   5.337 -0.9103 -0.0358  0.2228
  422MOL0     C58133   2.384   6.035   5.229  0.6410 -0.1888 -0.7359
  422MOL0     O58134   2.396   5.900   5.261  0.7372 -0.4914  0.3458
  422MOL0     C58135   2.363   5.805   5.157  0.7642 -0.5790 -1.5174
  422MOL0     C58136   2.338   5.661   5.217 -0.5132  0.3744  0.5513
  422MOL0     C58137   2.342   5.555   5.110 -0.5087  0.0545 -0.7219
  422MOL0     C58138   2.335   5.410   5.174  0.3891  1.0895  0.2029
  422MOL0     C58139   2.291   5.330   5.052  0.1911  0.0986  0.0484
  422MOL0     C58140   2.273   5.186   5.097  0.3121  0.0659 -0.1320
  422MOL0     C58141   2.390   5.129   5.165 -0.5872  0.9137 -0.4281
  422MOL0     C58142   2.407   4.975   5.155 -0.1959 -0.5497 -1.0639
  422MOL0    Cl58143   2.552   4.904   5.249  0.0092 -0.0299  0.3555
  422MOL0     C58144   2.352   6.101   5.108 -0.3443  0.9050  0.3781
  422MOL0     C58145   2.340   6.240   5.103  0.3310  0.4628  0.7271
  422MOL0     O58146   2.190   6.513   5.124 -0.0382 -0.7770 -0.1032
  422MOL0     C58147   2.504   6.656   5.033  0.7431  0.5551 -0.8972
  422MOL0     C58148   2.549   6.754   4.953 -0.5201 -0.0225 -0.1678
  422MOL0     N58149   2.801   7.518   5.160  0.2269 -0.3148 -1.6012
  422MOL0     N58150   2.921   7.559   5.198  0.2125  0.1015  1.0324
  422MOL0     C58151   3.544   8.365   5.603 -0.5235  0.0844 -0.3969
  422MOL0     C58152   3.576   8.477   5.690 -0.2497 -1.0536  0.5408
  422MOL0     C58153   3.547   8.780   5.667  0.3973 -0.2566 -0.5471
  422MOL0     C58154   3.548   8.793   5.535  0.4678  0.5769  0.8588
  422MOL0     C58155   3.435   8.823   5.457 -0.2888 -0.3578 -0.4062
  422MOL0     C58156   3.316   8.834   5.534 -0.1866  0.3118  1.5965
  422MOL0     O58157   3.196   8.854   5.462 -0.1601 -1.2452 -0.4228
  422MOL0     C58158   3.116   8.733   5.471  0.3867 -0.1250 -0.9607
  422MOL0     C58159   3.142   8.621   5.364  0.4542  0.1338 -0.6708
  422MOL0     C58160   3.218   8.499   5.422 -0.0611  0.1531 -0.2978
  422MOL0     C58161   3.232   8.375   5.333 -0.7006 -0.7559  0.2968
  422MOL0     C58162   3.104   8.339   5.268  0.3108  0.9684  0.3083
  422MOL0     C58163   2.987   8.317   5.230  0.9634  0.2727 -0.1607
  422MOL0     C58164   3.315   8.824   5.668  0.3101  1.2081 -0.8389
  422MOL0     C58165   3.431   8.810   5.745 -0.5196  0.4837  0.9290
  422MOL0     C58166   3.431   8.804   5.893 -0.0562  0.2997 -0.3763
  422MOL0     H58167   3.892   8.516   5.571  2.1728 -3.4197 -3.9324
  422MOL0     H58168   3.838   8.319   5.443 -2.1096 -0.7195 -2.0493
  422MOL0     H58169   3.750   8.170   5.298  0.1867 -1.5221 -2.6546
  422MOL0     H58170   3.618   8.263   5.224 -2.4766  1.9593  2.6947
  422MOL0     H58171   3.670   8.024   5.168  2.8940  4.7507 -0.7884
  422MOL0     H58172   3.640   7.968   5.328  5.0006 -0.0768 -1.8688
  422MOL0     H58173   3.402   8.019   5.322  1.1574  0.2615 -0.9120
  422MOL0     H58174   3.421   8.097   5.161 -2.6945 -3.2793 -3.0558
  422MOL0     H58175   3.470   7.923   5.040  1.3651 -1.7515  0.0407
  422MOL0     H58176   3.510   7.818   5.165 -0.3928 -0.0128  1.6213
  422MOL0     H58177   3.232   7.936   5.091  1.5525  1.1647 -1.8372
  422MOL0     H58178   3.264   7.806   5.225  0.8637 -3.7576 -1.1197
  422MOL0     H58179   3.302   7.796   4.922  2.9428  3.2641  0.5563
  422MOL0     H58180   3.374   7.684   5.036 -0.5374  1.5962  1.0390
  422MOL0     H58181   3.141   7.633   4.931 -0.6856  2.3812 -1.0483
  422MOL0     H58182   3.083   7.738   5.069  1.0891 -1.7897  3.6126
  422MOL0     H58183   3.214   7.467   5.074 -1.1094 -0.1449 -1.6255
  422MOL0     H58184   3.172   7.567   5.225 -0.2487  0.6028 -0.2807
  422MOL0     H58185   3.020   7.344   4.969  1.1226 -0.9254  0.0725
  422MOL0     H58186   2.759   7.313   4.894 -0.2616  0.8051 -0.3390
  422MOL0     H58187   2.637   7.419   4.960  2.1828  1.5986  2.1322
  422MOL0     H58188   2.734   7.178   5.132  2.2581  1.2347  0.2187
  422MOL0     H58189   2.591   7.297   5.139 -1.5741 -2.1965  0.0920
  422MOL0     H58190   2.514   7.090   5.075 -0.6501  0.2652 -0.1063
  422MOL0     H58191   2.490   7.212   4.948 -0.7539 -1.7804  0.9775
  422MOL0     H58192   2.657   7.102   4.809  1.4424 -1.8018 -0.6596
  422MOL0     H58193   2.697   6.998   4.945 -1.6664 -0.0744  1.4208
  422MOL0     H58194   2.278   6.971   4.953 -0.2760 -0.7500  0.0666
  422MOL0     H58195   2.120   6.900   5.095 -0.7074 -0.4676  0.9583
  422MOL0     H58196   2.167   6.790   5.232 -1.9425 -2.6408  0.7351
  422MOL0     H58197   2.094   6.732   5.075 -0.7711  1.7531 -0.4733
  422MOL0     H58198   2.474   6.320   5.411  4.3944 -1.0690 -0.6467
  422MOL0     H58199   2.486   6.071   5.422  2.3407  2.9323  0.1411
  422MOL0     H58200   2.269   5.825   5.104  1.1136  1.0073 -1.5751
  422MOL0     H58201   2.431   5.797   5.071  4.0176 -1.1003  0.9171
  422MOL0     H58202   2.427   5.630   5.271 -0.4797  1.1378  0.9546
  422MOL0     H58203   2.247   5.656   5.279  0.5784  3.0425  2.6152
  422MOL0     H58204   2.440   5.558   5.063 -0.8609  0.1255 -1.4597
  422MOL0     H58205   2.258   5.571   5.041 -1.1955 -0.7022 -0.0933
  422MOL0     H58206   2.258   5.402   5.251 -0.6592 -0.4320 -0.9529
  422MOL0     H58207   2.428   5.381   5.222  1.5580  0.9084 -2.0262
  422MOL0     H58208   2.193   5.355   5.011  0.4484 -2.9196 -2.8227
  422MOL0     H58209   2.370   5.341   4.977 -0.3159 -2.0414 -0.8765
  422MOL0     H58210   2.242   5.130   5.008 -1.0628 -0.0489  0.3815
  422MOL0     H58211   2.197   5.186   5.176  0.2646 -3.4371 -0.0192
  422MOL0     H58212   2.391   5.152   5.272 -2.9090 -0.2687 -0.0955
  422MOL0     H58213   2.485   5.164   5.123  0.5208 -3.4135 -2.0390
  422MOL0     H58214   2.408   4.954   5.047  0.7672 -1.2571 -0.9359
  422MOL0     H58215   2.319   4.931   5.202 -2.8257  2.0820 -3.1474
  422MOL0     H58216   2.311   6.045   5.024 -2.4152  2.3858  0.3219
  422MOL0     H58217   2.297   6.282   5.013 -0.3511  2.3494  1.8728
  422MOL0     H58218   2.571   6.573   5.054 -1.8570 -1.8852 -1.6668
  422MOL0     H58219   2.653   6.756   4.921 -0.6182  0.7646 -0.4696
  422MOL0     H58220   3.442   8.327   5.599  0.3503 -2.6484  0.8422
  422MOL0     H58221   3.513   8.518   5.768 -0.3341  0.1085 -0.1106
  422MOL0     H58222   3.647   8.780   5.491  0.7087 -0.3971  1.6579
  422MOL0     H58223   3.423   8.831   5.349 -0.5326  2.8491 -0.2306
  422MOL0     H58224   3.132   8.685   5.567  0.6581  0.1538 -0.8641
  422MOL0     H58225   3.012   8.766   5.478  1.0424  1.6183  1.7538
  422MOL0     H58226   3.210   8.661   5.288  0.3773  1.3432 -0.1267
  422MOL0     H58227   3.044   8.600   5.320  0.9935  0.6727 -2.1843
  422MOL0     H58228   3.323   8.520   5.443  0.2691 -0.2148 -1.5099
  422MOL0     H58229   3.175   8.460   5.514  1.4510  2.5853  1.5664
  422MOL0     H58230   3.280   8.288   5.379  0.2469 -1.4595 -1.8903
  422MOL0     H58231   3.307   8.401   5.258  0.2700 -0.3108  1.3897
  422MOL0     H58232   2.882   8.300   5.216  1.2889 -2.0040 -0.1548
  422MOL0     H58233   3.221   8.832   5.723  1.5741  3.4540  1.1867
  422MOL0     H58234   3.469   8.713   5.940 -2.1065 -0.9362 -0.9670
  422MOL0     H58235   3.499   8.882   5.927  1.3884 -2.6346  4.5631
  422MOL0     H58236   3.328   8.802   5.930 -0.9153 -1.1329 -2.6471
  423MOL0     O58237   8.607   7.447   7.638 -0.3526 -0.0680 -0.6507
  423MOL0     C58238   8.499   7.458   7.699  0.6633 -0.6319 -0.3130
  423MOL0     O58239   8.489   7.505   7.828 -0.2400 -0.0688  0.5520
  423MOL0     C58240   8.598   7.560   7.888 -0.0832 -0.2503 -0.4560
  423MOL0     C58241   8.689   7.645   7.822 -0.3572  0.8321 -0.3274
  423MOL0     C58242   8.805   7.687   7.878 -0.2380 -0.6090 -0.4072
  423MOL0     C58243   8.835   7.644   8.016 -0.3055 -0.2635  0.5440
  423MOL0     O58244   8.946   7.683   8.086  0.2209 -0.6035  0.1117
  423MOL0     C58245   9.033   7.777   8.024 -0.0354  0.6118 -0.0929
  423MOL0     C58246   9.164   7.807   8.097 -0.0773 -0.1198 -0.3600
  423MOL0     C58247   9.201   7.956   8.071 -0.4205 -0.1328 -0.0198
  423MOL0     C58248   9.234   7.981   7.925 -0.1058  0.4910  0.4941
  423MOL0     C58249   9.331   8.094   7.895 -0.2779  0.2888 -0.2229
  423MOL0     C58250   9.387   8.107   7.748  0.1841 -0.8458 -0.0425
  423MOL0     C58251   9.459   8.249   7.725 -0.0865  0.9025  0.4755
  423MOL0     C58252   9.602   8.234   7.753  0.0234  0.6013 -0.1739
  423MOL0     N58253   9.658   8.345   7.825  0.1773  0.0594  0.8994
  423MOL0     C58254   9.721   8.342   7.941  0.1066  0.5407 -0.0183
  423MOL0     C58255   9.786   8.461   7.951 -0.4707  0.0470  0.2443
  423MOL0     C58256   9.883   8.485   8.062  0.6682 -0.0491  0.1529
  423MOL0     C58257  10.002   8.392   8.061  0.7374  0.1226 -0.9423
  423MOL0     C58258  10.126   8.472   8.101 -0.4675  0.9409  0.2516
  423MOL0     C58259  10.126   8.535   8.247 -0.1697 -0.1241 -0.4460
  423MOL0     O58260  10.061   8.454   8.353 -0.0130  0.3010 -0.4256
  423MOL0     C58261  10.115   8.334   8.400 -0.0062  0.6621  0.0606
  423MOL0     C58262  10.032   8.238   8.464  0.0768  0.2858 -0.4674
  423MOL0     C58263  10.087   8.123   8.527 -0.4228 -0.4590 -0.0546
  423MOL0     C58264   9.984   8.043   8.594 -0.1255 -0.3158  0.5098
  423MOL0     C58265  10.229   8.102   8.540  1.0913  0.8079  0.5391
  423MOL0     C58266  10.297   7.985   8.599  0.5667  0.2467  0.3781
  423MOL0     O58267  10.237   7.866   8.571  0.7282  0.5200 -0.4015
  423MOL0     C58268  10.252   7.761   8.656 -0.4646 -0.4422  0.6462
  423MOL0     C58269  10.249   7.628   8.608 -0.1894  0.2131  1.1512
  423MOL0     C58270  10.268   7.518   8.687  0.1860  0.8640  0.2058
  423MOL0     C58271  10.281   7.532   8.826 -0.5017 -0.4512 -0.5098
  423MOL0     O58272  10.305   7.417   8.885  0.3538  0.5871  0.0778
  423MOL0     C58273  10.304   7.420   9.023 -0.8096 -0.4508 -0.1060
  423MOL0     C58274  10.279   7.284   9.094  0.0976 -0.5039 -0.2838
  423MOL0     C58275  10.315   7.284   9.244 -0.2667 -0.1851 -0.0294
  423MOL0     C58276  10.192   7.339   9.324 -0.4346 -0.0476  0.3900
  423MOL0     C58277  10.238   7.364   9.462  0.1245  0.1909 -0.2697
  423MOL0     C58278  10.131   7.405   9.559 -1.2855  0.3835 -0.4733
  423MOL0     C58279  10.072   7.543   9.543 -1.4700 -0.3364 -0.5487
  423MOL0     C58280   9.968   7.565   9.427 -0.5503 -0.6684  0.1496
  423MOL0    Cl58281   9.879   7.727   9.456 -0.2592  0.4029 -0.0032
  423MOL0     C58282  10.264   7.663   8.880 -0.0084  0.1346  0.2983
  423MOL0     C58283  10.253   7.777   8.794 -0.5778 -0.3774 -1.4661
  423MOL0     O58284  10.394   8.003   8.664 -0.7762  0.9372 -0.0592
  423MOL0     C58285  10.308   8.204   8.481 -0.0346 -0.2178 -0.7948
  423MOL0     C58286  10.251   8.303   8.409 -0.4723 -0.3420  0.0077
  423MOL0     N58287   9.765   8.529   7.834 -0.2907  0.6765 -0.5885
  423MOL0     N58288   9.689   8.463   7.758 -0.3395  0.0560  0.1582
  423MOL0     C58289   8.749   7.561   8.080  0.1776  1.4400 -1.1595
  423MOL0     C58290   8.630   7.515   8.017 -0.2200  0.0188 -0.1178
  423MOL0     C58291   8.382   7.396   7.628 -0.0209 -0.2230  0.1497
  423MOL0     C58292   8.400   7.311   7.517  1.1919 -0.3860  0.2883
  423MOL0     C58293   8.295   7.242   7.453 -0.4707 -0.3327 -0.5826
  423MOL0     C58294   8.167   7.259   7.498  0.4148 -0.3556  0.0763
  423MOL0     O58295   8.070   7.196   7.441  0.3692  0.1565 -0.3931
  423MOL0     C58296   8.044   7.246   7.309  1.0111 -0.1994  0.6989
  423MOL0     C58297   8.088   7.157   7.194  0.7777  0.3171  0.0579
  423MOL0     C58298   8.032   7.015   7.219 -0.0136  0.3414  0.3015
  423MOL0     C58299   7.886   7.004   7.178 -0.0081  0.1823 -0.0970
  423MOL0     C58300   7.805   6.924   7.278 -0.2033 -0.5314  0.4839
  423MOL0     C58301   7.744   6.836   7.323  0.0393  1.3744 -0.4373
  423MOL0     C58302   8.143   7.348   7.597 -0.3658 -0.8316 -1.2620
  423MOL0     C58303   8.244   7.419   7.659 -0.1356 -0.7328  0.8815
  423MOL0     C58304   8.198   7.525   7.760  0.0008 -1.1965 -0.1181
  423MOL0     H58305   8.659   7.676   7.722 -3.6257 -0.6612  0.0587
  423MOL0     H58306   8.883   7.735   7.820 -1.3886  0.3831 -1.1732
  423MOL0     H58307   8.974   7.867   8.003 -0.3763  0.0821 -1.5218
  423MOL0     H58308   9.073   7.740   7.929  0.4177  0.5551  0.1208
  423MOL0     H58309   9.151   7.796   8.205 -1.0652 -1.1530 -0.5757
  423MOL0     H58310   9.244   7.736   8.071 -0.1804 -0.1410 -0.6210
  423MOL0     H58311   9.120   8.022   8.102 -1.0282 -1.8309  2.2667
  423MOL0     H58312   9.297   7.973   8.120  0.6804  1.2647 -2.4758
  423MOL0     H58313   9.287   7.890   7.894 -1.7361 -0.3811  0.1339
  423MOL0     H58314   9.141   7.996   7.870 -0.5134 -1.3269  0.5958
  423MOL0     H58315   9.422   8.078   7.955  0.2594  0.7505 -0.9059
  423MOL0     H58316   9.286   8.188   7.926 -0.7891 -0.3646  1.1317
  423MOL0     H58317   9.446   8.021   7.715 -2.8257 -1.6490 -4.1308
  423MOL0     H58318   9.299   8.112   7.683  1.5553 -1.1868 -2.0075
  423MOL0     H58319   9.418   8.325   7.792  1.7977  1.6587  0.8375
  423MOL0     H58320   9.442   8.292   7.626  0.1091 -0.0620  0.0060
  423MOL0     H58321   9.626   8.141   7.806  0.0746  0.3582 -0.6200
  423MOL0     H58322   9.659   8.220   7.661 -1.5355  1.0035 -1.2354
  423MOL0     H58323   9.723   8.255   8.006 -0.3425  1.0217  0.6515
  423MOL0     H58324   9.834   8.486   8.160  0.2168  0.6851 -0.0718
  423MOL0     H58325   9.923   8.586   8.051 -1.1222  0.5778 -0.9188
  423MOL0     H58326   9.992   8.312   8.134 -0.2156  0.5007 -0.6358
  423MOL0     H58327  10.012   8.350   7.961  0.7306  1.8537 -1.7181
  423MOL0     H58328  10.213   8.409   8.082 -0.8203  0.4626  0.1981
  423MOL0     H58329  10.152   8.560   8.041 -0.9594  2.2537  1.8933
  423MOL0     H58330  10.226   8.552   8.289 -0.5414 -0.2197  0.5196
  423MOL0     H58331  10.070   8.628   8.248  1.6565  1.0473  1.2786
  423MOL0     H58332   9.925   8.257   8.463 -0.5008 -2.5355 -0.7848
  423MOL0     H58333  10.007   7.937   8.580  2.5770  0.1475  0.7826
  423MOL0     H58334   9.887   8.073   8.553 -0.7901 -3.0509 -0.1345
  423MOL0     H58335   9.978   8.059   8.702  1.9228  0.3119  0.5787
  423MOL0     H58336  10.242   7.611   8.501  0.4901  3.0300  0.5702
  423MOL0     H58337  10.272   7.416   8.650  1.0269  0.3624  1.5889
  423MOL0     H58338  10.406   7.442   9.055 -0.2965 -3.8870  1.0864
  423MOL0     H58339  10.234   7.494   9.062 -0.7559  0.0919 -0.9976
  423MOL0     H58340  10.174   7.258   9.080 -0.0731  0.1107 -0.1895
  423MOL0     H58341  10.347   7.210   9.051  0.7848 -0.7335  1.1166
  423MOL0     H58342  10.393   7.359   9.263 -0.9308  0.8745 -1.2556
  423MOL0     H58343  10.333   7.180   9.273  0.8017  0.1269  0.4945
  423MOL0     H58344  10.117   7.262   9.304  0.0645  0.3308 -3.9078
  423MOL0     H58345  10.161   7.435   9.281  1.1790  0.2596 -0.1890
  423MOL0     H58346  10.298   7.278   9.492  0.2330  0.6656  0.9363
  423MOL0     H58347  10.306   7.450   9.466 -0.2882  0.4600  2.1656
  423MOL0     H58348  10.169   7.406   9.661  1.0767  0.8808 -1.3039
  423MOL0     H58349  10.050   7.331   9.556 -0.9447  0.0369 -1.9486
  423MOL0     H58350  10.152   7.616   9.525 -1.2142 -1.1583 -3.1799
  423MOL0     H58351  10.024   7.567   9.638 -0.4132  0.6341 -0.2435
  423MOL0     H58352   9.888   7.491   9.428 -0.4999 -0.7575  2.3835
  423MOL0     H58353  10.015   7.571   9.328 -0.2618  1.1548  0.3468
  423MOL0     H58354  10.264   7.676   8.987 -2.1542  2.5421  0.1099
  423MOL0     H58355  10.260   7.872   8.846 -3.5789 -1.5581  1.5204
  423MOL0     H58356  10.416   8.213   8.491 -0.2892  0.2923  3.2047
  423MOL0     H58357  10.321   8.378   8.371 -2.2495  2.2787  1.5978
  423MOL0     H58358   8.770   7.533   8.182  1.1271 -1.9715 -2.1699
  423MOL0     H58359   8.553   7.457   8.065 -0.9999 -0.5587 -1.9848
  423MOL0     H58360   8.493   7.290   7.466  1.1567 -1.8734  0.8068
  423MOL0     H58361   8.316   7.182   7.364  1.1456 -0.8764  0.1209
  423MOL0     H58362   7.941   7.274   7.289  0.9139 -0.3315  1.0099
  423MOL0     H58363   8.095   7.342   7.299 -0.2941  0.3566 -1.1777
  423MOL0     H58364   8.196   7.156   7.208  0.5074  2.8239  3.7831
  423MOL0     H58365   8.050   7.199   7.100 -2.9719 -1.4461  0.6019
  423MOL0     H58366   8.091   6.945   7.159 -1.5973 -0.4307 -0.4190
  423MOL0     H58367   8.047   6.989   7.324 -1.8485  0.7433  0.6966
  423MOL0     H58368   7.874   6.965   7.076  4.8514  0.1661 -0.8842
  423MOL0     H58369   7.844   7.103   7.195  1.4485  1.2020 -2.0898
  423MOL0     H58370   7.684   6.748   7.334  1.5283  0.2514 -0.9435
  423MOL0     H58371   8.045   7.363   7.641  0.7268  1.9052  0.4885
  423MOL0     H58372   8.112   7.578   7.717 -0.4299 -0.7470  1.2429
  423MOL0     H58373   8.161   7.479   7.852 -2.0920 -2.9635 -1.7422
  423MOL0     H58374   8.279   7.595   7.783  0.7976 -2.1987  0.2065
  424MOL0     O58375  10.293   7.218  10.604 -0.4569 -0.2722  1.0184
  424MOL0     C58376  10.338   7.290  10.514  0.3348 -0.3945  0.3451
  424MOL0     O58377  10.389   7.420  10.530 -0.5751  0.1818 -0.3636
  424MOL0     C58378  10.365   7.479  10.649 -0.2543 -0.4155 -0.9072
  424MOL0     C58379  10.247   7.554  10.651  0.2153  0.3520 -0.2041
  424MOL0     C58380  10.200   7.596  10.781  0.5704  1.3051  0.3241
  424MOL0     C58381  10.262   7.574  10.895 -0.3577 -0.0873 -0.6403
  424MOL0     O58382  10.203   7.613  11.016  1.1382 -0.2106 -0.0433
  424MOL0     C58383  10.231   7.553  11.140 -0.2669  0.6630 -0.1185
  424MOL0     C58384  10.154   7.625  11.243  0.2356 -0.3765 -0.4069
  424MOL0     C58385  10.228   7.748  11.291  1.2776 -0.2075 -0.1460
  424MOL0     C58386  10.144   7.830  11.395 -0.3658 -1.2085 -0.2833
  424MOL0     C58387  10.223   7.945  11.467 -0.4776  0.4184  0.0561
  424MOL0     C58388  10.129   7.974  11.593  0.2290 -0.0513 -0.1646
  424MOL0     C58389  10.185   8.077  11.686  1.2535  0.6703  0.5844
  424MOL0     C58390  10.093   8.193  11.710  0.1102 -0.1884  0.0247
  424MOL0     N58391  10.157   8.306  11.785  0.1671 -0.2332 -0.2961
  424MOL0     C58392  10.208   8.276  11.911 -0.1234  0.1849 -0.0276
  424MOL0     C58393  10.304   8.370  11.933  0.0578  1.0643  0.0061
  424MOL0     C58394  10.408   8.386  12.044  0.1522 -0.5394  0.5777
  424MOL0     C58395  10.344   8.411  12.177  0.0337 -0.1531  0.3834
  424MOL0     C58396  10.455   8.426  12.285  0.3922 -0.3449  1.2601
  424MOL0     C58397  10.411   8.495  12.417  0.7019  0.5076 -0.1058
  424MOL0     O58398  10.530   8.501  12.503  0.4165 -0.2999  0.4462
  424MOL0     C58399  10.528   8.581  12.618 -1.1846 -0.6517  0.6019
  424MOL0     C58400  10.642   8.564  12.703 -0.4054 -0.2206 -0.7263
  424MOL0     C58401  10.649   8.633  12.826 -0.2907  0.4422  1.4537
  424MOL0     C58402  10.777   8.630  12.916 -0.3332 -0.0084  0.1783
  424MOL0     C58403  10.542   8.713  12.860  1.1421 -0.4802 -0.1121
  424MOL0     C58404  10.532   8.779  12.989 -0.4950 -0.0515 -0.9716
  424MOL0     O58405  10.456   8.890  13.005  0.1825 -0.2752  0.4205
  424MOL0     C58406  10.445   8.940  13.135  1.3635 -0.0701 -0.1700
  424MOL0     C58407  10.488   9.068  13.172 -0.0878 -0.0751 -0.1980
  424MOL0     C58408  10.436   9.122  13.294 -0.9263  0.5338  0.6958
  424MOL0     C58409  10.374   9.043  13.386 -0.3114 -0.1706 -0.9183
  424MOL0     O58410  10.322   9.080  13.505  0.0539  0.0220 -0.5104
  424MOL0     C58411  10.382   9.194  13.571  0.3130 -0.2923 -0.0077
  424MOL0     C58412  10.330   9.192  13.709 -0.5486 -0.0821  0.0071
  424MOL0     C58413  10.410   9.072  13.785  0.5932 -0.0893 -0.3954
  424MOL0     C58414  10.368   9.071  13.925  0.1994  0.5603  0.2840
  424MOL0     C58415  10.415   9.197  13.996  0.2759 -0.3472 -0.6442
  424MOL0     C58416  10.397   9.182  14.146 -0.6263 -0.4164  0.2270
  424MOL0     C58417  10.453   9.299  14.229  0.3703 -0.1660  0.9314
  424MOL0     C58418  10.479   9.276  14.374  0.0453 -1.6026  0.0328
  424MOL0    Cl58419  10.560   9.427  14.446 -0.3294 -0.1268 -0.1755
  424MOL0     C58420  10.343   8.916  13.353  0.1010 -0.1039  0.1370
  424MOL0     C58421  10.374   8.863  13.227  0.4751 -0.2681 -0.1502
  424MOL0     O58422  10.581   8.717  13.081  0.0411  0.4205  0.0016
  424MOL0     C58423  10.439   8.734  12.776  0.3785  0.3543 -0.3457
  424MOL0     C58424  10.428   8.676  12.653  0.5074 -0.3226  0.5483
  424MOL0     N58425  10.305   8.460  11.824 -1.0959  0.1017  0.1337
  424MOL0     N58426  10.214   8.423  11.733 -0.1357 -0.1054  0.3597
  424MOL0     C58427  10.392   7.513  10.881  0.3678 -0.2920 -0.0794
  424MOL0     C58428  10.444   7.466  10.760 -0.4054 -0.3822 -0.1760
  424MOL0     C58429  10.335   7.234  10.369 -0.2611 -0.0905  0.2273
  424MOL0     C58430  10.421   7.293  10.278 -0.7815  0.9234  0.3397
  424MOL0     C58431  10.443   7.233  10.153 -0.0166  0.2815 -0.2301
  424MOL0     C58432  10.384   7.124  10.105 -0.1305  1.4651  0.1659
  424MOL0     O58433  10.406   7.083   9.974  0.6140  0.4097 -0.6121
  424MOL0     C58434  10.321   6.982   9.914  0.2736  0.7231 -0.2052
  424MOL0     C58435  10.362   6.940   9.781 -0.3717 -0.0869 -0.2951
  424MOL0     C58436  10.308   7.040   9.673  0.2668 -1.0164 -0.0094
  424MOL0     C58437  10.151   7.029   9.639 -0.0586 -0.6521  0.3970
  424MOL0     C58438  10.135   6.919   9.539  0.4225  0.3707  0.4734
  424MOL0     C58439  10.102   6.835   9.455  0.4685 -0.6695 -0.6608
  424MOL0     C58440  10.300   7.065  10.195  0.1607  0.7514  0.7372
  424MOL0     C58441  10.279   7.117  10.322 -0.2071  0.6138 -1.0398
  424MOL0     C58442  10.182   7.035  10.404 -0.1183 -0.0408 -1.7413
  424MOL0     H58443  10.177   7.578  10.572 -3.0122  0.1543  2.3668
  424MOL0     H58444  10.108   7.653  10.782 -0.2006  0.2151 -1.9965
  424MOL0     H58445  10.338   7.571  11.159  0.2652  0.0303 -2.2201
  424MOL0     H58446  10.205   7.447  11.150  1.4359  0.4578  4.6647
  424MOL0     H58447  10.059   7.657  11.200 -0.4763 -0.2786  1.1711
  424MOL0     H58448  10.142   7.571  11.338  2.7694 -0.8682 -0.3032
  424MOL0     H58449  10.319   7.713  11.341  2.6959 -2.3464 -3.8400
  424MOL0     H58450  10.260   7.818  11.213 -1.6008  2.3597  0.8200
  424MOL0     H58451  10.050   7.862  11.351  0.5461 -0.7387 -1.9800
  424MOL0     H58452  10.124   7.760  11.478  0.6563 -2.4493 -1.0326
  424MOL0     H58453  10.230   8.035  11.404 -4.1086 -1.0630 -2.8181
  424MOL0     H58454  10.323   7.914  11.499  0.0410  0.5586 -1.3633
  424MOL0     H58455  10.029   7.996  11.555 -0.7728 -2.6382  0.7376
  424MOL0     H58456  10.118   7.886  11.656  2.6539  0.4377  1.0480
  424MOL0     H58457  10.284   8.110  11.652 -0.0088  2.5686 -1.5693
  424MOL0     H58458  10.203   8.025  11.780  0.8839 -0.4424  0.0548
  424MOL0     H58459  10.069   8.230  11.609 -0.7617 -0.4776  0.1172
  424MOL0     H58460   9.994   8.163  11.747  0.3793  0.2930  1.1699
  424MOL0     H58461  10.169   8.202  11.980 -1.1120  1.7565  1.1579
  424MOL0     H58462  10.488   8.455  12.016  1.5521 -1.6681  1.5986
  424MOL0     H58463  10.462   8.293  12.063  0.2687 -0.7955 -0.9429
  424MOL0     H58464  10.278   8.499  12.175 -0.1628 -0.3007 -0.8425
  424MOL0     H58465  10.285   8.325  12.210 -0.9623  1.4193  2.9636
  424MOL0     H58466  10.493   8.330  12.320 -0.1166 -0.4150  1.6292
  424MOL0     H58467  10.539   8.482  12.242  0.3302  1.1200  2.9181
  424MOL0     H58468  10.367   8.593  12.399 -1.6993 -0.8034 -1.8944
  424MOL0     H58469  10.347   8.426  12.472 -0.6471 -0.3391 -2.5799
  424MOL0     H58470  10.733   8.512  12.676  1.0230  1.4374  0.7157
  424MOL0     H58471  10.760   8.571  13.006 -1.6548  2.2186  1.4668
  424MOL0     H58472  10.791   8.730  12.958  0.7201 -0.7578  1.7196
  424MOL0     H58473  10.871   8.592  12.873 -0.0599 -2.0957  2.4135
  424MOL0     H58474  10.526   9.141  13.101 -0.1066 -0.1034 -0.2370
  424MOL0     H58475  10.464   9.225  13.313  1.0000  0.8192 -2.7851
  424MOL0     H58476  10.491   9.200  13.561  0.3021 -1.9372 -1.8135
  424MOL0     H58477  10.344   9.285  13.522  0.6649 -0.2326 -0.1734
  424MOL0     H58478  10.355   9.291  13.748 -2.1439  0.7211 -0.8876
  424MOL0     H58479  10.221   9.184  13.712 -0.7721  2.3963  1.3609
  424MOL0     H58480  10.516   9.099  13.778  0.5858  0.1026  0.1761
  424MOL0     H58481  10.389   8.976  13.739 -1.5403 -0.9445  2.1397
  424MOL0     H58482  10.424   8.992  13.976 -0.2591 -0.3812 -0.6086
  424MOL0     H58483  10.259   9.064  13.936  0.2943 -1.8805  0.2165
  424MOL0     H58484  10.518   9.225  13.972  0.3352 -0.9416 -1.1182
  424MOL0     H58485  10.351   9.279  13.960 -0.0715 -0.9287 -1.3801
  424MOL0     H58486  10.458   9.095  14.174  2.6348  1.5847 -0.2002
  424MOL0     H58487  10.293   9.168  14.176 -1.6364  3.3189 -0.9778
  424MOL0     H58488  10.382   9.383  14.224  1.0539  0.3595 -0.3325
  424MOL0     H58489  10.536   9.336  14.168 -0.5439  0.3756 -0.0155
  424MOL0     H58490  10.534   9.183  14.395  2.4129 -0.5451 -1.0676
  424MOL0     H58491  10.386   9.266  14.430 -1.2950  2.4924 -1.1276
  424MOL0     H58492  10.277   8.857  13.415 -0.3444 -0.7657 -0.9405
  424MOL0     H58493  10.327   8.768  13.206 -1.0548  0.1574  1.1759
  424MOL0     H58494  10.351   8.789  12.806 -1.7304 -1.4530 -2.7179
  424MOL0     H58495  10.338   8.678  12.592 -0.7672  0.8276  2.3633
  424MOL0     H58496  10.449   7.502  10.973 -1.6392  0.0639  1.2604
  424MOL0     H58497  10.532   7.406  10.741  0.2015  0.4853 -0.1992
  424MOL0     H58498  10.476   7.383  10.306  0.6906 -0.9737  4.4767
  424MOL0     H58499  10.516   7.291  10.098  0.2822 -0.2169 -0.3631
  424MOL0     H58500  10.335   6.889   9.969  1.8373  1.7010  1.1737
  424MOL0     H58501  10.218   7.016   9.932 -0.0449 -1.6086  3.6331
  424MOL0     H58502  10.338   6.837   9.755  0.7764 -0.3462 -0.3933
  424MOL0     H58503  10.472   6.940   9.784 -0.3741 -1.8015  1.3156
  424MOL0     H58504  10.322   7.141   9.712 -1.7130 -0.2539 -1.1367
  424MOL0     H58505  10.363   7.026   9.579  1.3987 -1.1038  0.6569
  424MOL0     H58506  10.109   7.125   9.607  0.7155  0.1198  1.6241
  424MOL0     H58507  10.098   6.993   9.728  0.7271  0.1787  1.2220
  424MOL0     H58508  10.058   6.773   9.380 -1.6696  4.8977 -4.7277
  424MOL0     H58509  10.253   6.970  10.170 -0.4513  1.6704 -1.8200
  424MOL0     H58510  10.146   6.953  10.339  0.3931 -0.8911 -0.9716
  424MOL0     H58511  10.223   6.983  10.490 -0.2308 -0.3676 -1.8816
  424MOL0     H58512  10.092   7.092  10.428  0.8061  1.6138 -2.0523
  425MOL0     O58513   0.113   0.082  10.443  0.9934 -0.4875 -0.1645
  425MOL0     C58514   0.205   0.041  10.502 -0.6508  0.7478  0.6760
  425MOL0     O58515   0.206   0.033  10.639 -0.4105  0.1744 -0.5877
  425MOL0     C58516   0.112   0.088  10.719  0.3775 -0.7218  0.2180
  425MOL0     C58517   0.036   0.207  10.677 -0.6206  0.3173 -0.0299
  425MOL0     C58518  -0.063   0.262  10.770 -0.2898 -0.2179 -0.4151
  425MOL0     C58519  -0.093   0.194  10.882 -0.1002  0.3708  0.1537
  425MOL0     O58520  -0.187   0.266  10.955  0.2792  0.7927  0.0753
  425MOL0     C58521  -0.200   0.249  11.095  0.1853  0.1612  0.7196
  425MOL0     C58522  -0.330   0.318  11.156 -0.2942 -0.6039  0.2639
  425MOL0     C58523  -0.457   0.249  11.105 -0.2479  0.1390  0.4787
  425MOL0     C58524  -0.574   0.350  11.117 -0.1275  0.7328  0.9369
  425MOL0     C58525  -0.704   0.263  11.098 -1.3477 -0.2979 -0.6270
  425MOL0     C58526  -0.709   0.202  10.965  0.0642  1.0982  0.1047
  425MOL0     C58527  -0.813   0.076  10.962  0.0798  0.3356 -0.9300
  425MOL0     C58528  -0.807   0.006  10.820  0.6616  0.5647  0.1548
  425MOL0     N58529  -0.880  -0.115  10.792 -0.0418  0.8259 -0.0415
  425MOL0     C58530  -0.893  -0.220  10.882  0.4426  0.3105 -0.5573
  425MOL0     C58531  -0.976  -0.302  10.813  1.4497 -0.6113  0.4931
  425MOL0     C58532  -1.005  -0.438  10.861  0.1903 -0.1047 -0.1704
  425MOL0     C58533  -0.924  -0.545  10.786 -0.5649  0.6252  0.8181
  425MOL0     C58534  -0.777  -0.559  10.824  0.2904  0.4636  0.5878
  425MOL0     C58535  -0.748  -0.571  10.972 -0.6860  0.2132  0.3959
  425MOL0     O58536  -0.624  -0.644  10.985 -0.1845 -0.5008 -0.2622
  425MOL0     C58537  -0.576  -0.658  11.112 -0.2043  0.7109  0.0240
  425MOL0     C58538  -0.631  -0.639  11.247 -0.9554 -1.0116 -0.6091
  425MOL0     C58539  -0.551  -0.657  11.370 -0.1344  0.3724  0.8064
  425MOL0     C58540  -0.603  -0.619  11.513 -0.0037 -0.5005 -0.2353
  425MOL0     C58541  -0.424  -0.709  11.362  0.0415  0.0814  0.4078
  425MOL0     C58542  -0.348  -0.739  11.490  0.5122  0.4463  0.0423
  425MOL0     O58543  -0.407  -0.836  11.575  0.7316  0.5828  0.3229
  425MOL0     C58544  -0.344  -0.872  11.692 -0.1958 -0.2018  0.4959
  425MOL0     C58545  -0.363  -0.786  11.799 -0.0246  1.1259 -0.3926
  425MOL0     C58546  -0.305  -0.814  11.925  0.0151  0.5974  0.4284
  425MOL0     C58547  -0.243  -0.938  11.944  0.1480  0.4554 -0.1536
  425MOL0     O58548  -0.200  -0.973  12.070 -0.4639 -0.4880 -0.2592
  425MOL0     C58549  -0.184  -1.111  12.111  0.0325  0.2556  0.6773
  425MOL0     C58550  -0.034  -1.130  12.114 -0.5413 -0.3521 -1.1315
  425MOL0     C58551   0.023  -1.256  12.160  0.0789  1.0180  0.0600
  425MOL0     C58552  -0.044  -1.384  12.105  0.2105  0.2269  0.4047
  425MOL0     C58553   0.020  -1.513  12.161 -0.1590  0.8961 -0.6533
  425MOL0     C58554  -0.060  -1.643  12.145  0.2292 -0.2572 -0.1252
  425MOL0     C58555   0.018  -1.773  12.184 -0.6272  0.1719 -0.1252
  425MOL0     C58556  -0.060  -1.897  12.146 -0.5512  1.0601  0.2973
  425MOL0    Cl58557  -0.235  -1.896  12.188  0.1865 -0.0841 -0.2316
  425MOL0     C58558  -0.227  -1.024  11.834  0.1771 -0.6199  0.0364
  425MOL0     C58559  -0.269  -0.994  11.703  0.9335  0.3415  0.0690
  425MOL0     O58560  -0.234  -0.702  11.500  0.2847 -0.4820  0.0691
  425MOL0     C58561  -0.375  -0.730  11.231 -0.0378  0.1878  0.7701
  425MOL0     C58562  -0.448  -0.703  11.118  0.0947 -0.6658  0.1031
  425MOL0     N58563  -1.008  -0.252  10.685 -0.8864  0.6230 -0.3706
  425MOL0     N58564  -0.953  -0.137  10.674 -0.4954 -0.1420 -0.2862
  425MOL0     C58565  -0.022   0.079  10.926 -0.0673 -0.3578  0.4321
  425MOL0     C58566   0.092   0.038  10.850 -0.4194  0.3995 -0.5609
  425MOL0     C58567   0.305  -0.031  10.426 -1.0662 -0.2785  0.1690
  425MOL0     C58568   0.348   0.030  10.300  0.5448 -0.2849  0.2583
  425MOL0     C58569   0.416  -0.048  10.215 -0.3246  0.0587 -0.5594
  425MOL0     C58570   0.471  -0.168  10.250  0.4339 -0.7433 -0.0243
  425MOL0     O58571   0.562  -0.215  10.160 -0.1805  0.9810  0.2914
  425MOL0     C58572   0.619  -0.344  10.184 -0.0999  0.4332 -0.7726
  425MOL0     C58573   0.517  -0.457  10.135  0.1182 -0.7283 -0.5545
  425MOL0     C58574   0.579  -0.597  10.166 -0.1610  0.0946 -0.5832
  425MOL0     C58575   0.482  -0.698  10.102  0.1017 -0.4665  0.4021
  425MOL0     C58576   0.506  -0.724   9.962  0.2754 -0.4295 -0.2146
  425MOL0     C58577   0.537  -0.751   9.846 -0.7622 -0.1383 -0.9196
  425MOL0     C58578   0.431  -0.225  10.372 -0.4599 -0.7620  0.1836
  425MOL0     C58579   0.352  -0.158  10.466  0.0097  0.1495  0.7197
  425MOL0     C58580   0.300  -0.227  10.590  0.9006  0.1307 -0.0433
  425MOL0     H58581   0.070   0.272  10.597 -3.6258  1.6665 -0.3664
  425MOL0     H58582  -0.123   0.349  10.748  1.8997  1.2412 -0.8999
  425MOL0     H58583  -0.119   0.294  11.152  0.8407 -1.2246  0.9212
  425MOL0     H58584  -0.200   0.143  11.121  0.7758  0.0454  0.2648
  425MOL0     H58585  -0.330   0.305  11.265 -0.1032  0.1177  0.3580
  425MOL0     H58586  -0.324   0.421  11.121  0.6621 -1.0627 -1.0076
  425MOL0     H58587  -0.445   0.224  10.999 -1.1964 -4.3497  1.2336
  425MOL0     H58588  -0.479   0.150  11.144  1.9610 -0.3300  0.6888
  425MOL0     H58589  -0.574   0.384  11.221  0.3630  1.6539  0.6504
  425MOL0     H58590  -0.554   0.431  11.046 -0.1448 -1.6354 -1.9280
  425MOL0     H58591  -0.791   0.327  11.116 -2.1155 -1.3758 -0.4197
  425MOL0     H58592  -0.697   0.186  11.176  2.4202  2.3776  2.0537
  425MOL0     H58593  -0.751   0.271  10.890 -3.1825  0.9424  1.6074
  425MOL0     H58594  -0.615   0.165  10.923 -0.9999 -0.0949 -1.3767
  425MOL0     H58595  -0.910   0.122  10.980  0.0630  0.1299 -0.5097
  425MOL0     H58596  -0.802  -0.002  11.038 -4.1283  3.1785  3.1328
  425MOL0     H58597  -0.831   0.075  10.738 -0.7805 -0.9119 -0.7421
  425MOL0     H58598  -0.701  -0.022  10.819  0.4945 -0.0693 -0.0260
  425MOL0     H58599  -0.835  -0.235  10.973  1.0267  0.4460 -0.8996
  425MOL0     H58600  -1.112  -0.451  10.848  0.1882 -1.0229  0.6304
  425MOL0     H58601  -0.972  -0.451  10.965  0.5199 -1.0068 -0.3770
  425MOL0     H58602  -0.978  -0.638  10.807  1.8362 -0.8367  1.0011
  425MOL0     H58603  -0.933  -0.510  10.683 -2.3046  1.1682  1.1231
  425MOL0     H58604  -0.743  -0.651  10.775 -1.0257 -1.5057  3.0951
  425MOL0     H58605  -0.724  -0.473  10.783 -0.2616 -0.0988 -1.4330
  425MOL0     H58606  -0.743  -0.469  11.011 -1.1984  1.8577 -3.4084
  425MOL0     H58607  -0.818  -0.627  11.034 -2.4401  1.2796 -0.5260
  425MOL0     H58608  -0.735  -0.609  11.252  0.0541  2.8480  1.5001
  425MOL0     H58609  -0.682  -0.543  11.511  0.0466 -0.3372  1.5472
  425MOL0     H58610  -0.521  -0.580  11.575 -0.5464 -1.0375  0.8428
  425MOL0     H58611  -0.634  -0.716  11.553  2.5830 -1.5280 -0.5153
  425MOL0     H58612  -0.423  -0.696  11.791 -0.2206  1.0339  0.0362
  425MOL0     H58613  -0.312  -0.749  12.011 -1.7329 -1.2094  1.7473
  425MOL0     H58614  -0.234  -1.118  12.208 -1.1202 -2.1812 -0.0147
  425MOL0     H58615  -0.238  -1.186  12.052  0.6280  1.8999 -2.1211
  425MOL0     H58616   0.011  -1.114  12.016  0.6190 -0.7375 -0.6859
  425MOL0     H58617   0.007  -1.055  12.183  1.0243 -0.5569 -1.7801
  425MOL0     H58618   0.030  -1.266  12.269 -0.4040  1.1539  0.1090
  425MOL0     H58619   0.132  -1.257  12.146  0.4974 -3.5150  1.8390
  425MOL0     H58620  -0.038  -1.379  11.996  1.5048 -3.3112  0.1953
  425MOL0     H58621  -0.150  -1.394  12.132 -1.1544 -0.6614 -4.3809
  425MOL0     H58622   0.122  -1.518  12.121 -0.7178  3.9452 -2.8667
  425MOL0     H58623   0.022  -1.503  12.269  2.2546 -1.0288 -0.4173
  425MOL0     H58624  -0.103  -1.642  12.044 -1.2605  3.6335  0.3845
  425MOL0     H58625  -0.135  -1.626  12.224  1.2328 -1.6311  1.1810
  425MOL0     H58626   0.037  -1.778  12.292  2.1623  0.0849 -0.5593
  425MOL0     H58627   0.110  -1.770  12.125 -2.7540 -3.5521 -4.2608
  425MOL0     H58628  -0.007  -1.978  12.196 -0.3530  0.7656 -0.3733
  425MOL0     H58629  -0.047  -1.915  12.039 -0.3197 -2.3557  0.7817
  425MOL0     H58630  -0.188  -1.124  11.849  1.7426 -0.3501 -1.8170
  425MOL0     H58631  -0.258  -1.063  11.620  1.3186 -1.0734  1.2522
  425MOL0     H58632  -0.269  -0.749  11.216  0.4210  0.3792  3.3450
  425MOL0     H58633  -0.407  -0.729  11.021  2.2464 -1.6952  1.2041
  425MOL0     H58634  -0.054   0.021  11.012  1.8649  0.1672  1.5843
  425MOL0     H58635   0.157  -0.043  10.881  1.1076  0.9274 -2.1578
  425MOL0     H58636   0.324   0.135  10.284  2.4207  0.1238 -0.0916
  425MOL0     H58637   0.437  -0.004  10.118 -0.1041 -1.0641 -1.0384
  425MOL0     H58638   0.723  -0.353  10.151  0.1133 -1.5830  0.2719
  425MOL0     H58639   0.638  -0.355  10.292 -0.2745  0.2945 -0.7546
  425MOL0     H58640   0.515  -0.440  10.027  2.7006  1.8055 -0.3482
  425MOL0     H58641   0.419  -0.438  10.180  0.9923  0.4195  0.9726
  425MOL0     H58642   0.684  -0.591  10.137 -0.2873  1.3088 -0.8496
  425MOL0     H58643   0.576  -0.614  10.274 -2.3204  0.7824 -0.4995
  425MOL0     H58644   0.380  -0.672  10.130  1.2020  2.7592  1.9093
  425MOL0     H58645   0.498  -0.794  10.151  3.4271  0.2019  0.9157
  425MOL0     H58646   0.571  -0.782   9.750  1.7566 -1.1345  0.1944
  425MOL0     H58647   0.471  -0.324  10.392  2.3662  0.3513  0.4128
  425MOL0     H58648   0.206  -0.187  10.627  0.1694 -0.2958 -1.3747
  425MOL0     H58649   0.279  -0.327  10.552  0.8643  0.6191 -1.3585
  425MOL0     H58650   0.382  -0.220  10.663  1.3413  0.1472 -0.5311
  426MOL0     O58651   3.910   6.361   5.307 -0.0549 -0.0244  0.0016
  426MOL0     C58652   3.813   6.380   5.231 -0.6386 -0.2066 -0.4731
  426MOL0     O58653   3.736   6.492   5.218 -0.5531 -0.0076 -0.3621
  426MOL0     C58654   3.803   6.614   5.238  0.1946  0.4893 -0.1864
  426MOL0     C58655   3.922   6.651   5.179 -0.3019  0.9093 -0.5936
  426MOL0     C58656   3.974   6.779   5.184 -0.0238 -0.1555 -0.3213
  426MOL0     C58657   3.890   6.880   5.237 -0.1821 -0.1114  1.1705
  426MOL0     O58658   3.942   7.008   5.231  0.3869 -0.1026 -0.4177
  426MOL0     C58659   3.848   7.111   5.252  0.5916  0.2920 -0.5872
  426MOL0     C58660   3.926   7.233   5.219 -0.5724 -0.0355  0.0259
  426MOL0     C58661   3.966   7.233   5.069  0.0194 -0.4249 -0.3640
  426MOL0     C58662   3.866   7.317   4.989 -0.0251 -0.0659 -0.5262
  426MOL0     C58663   3.895   7.333   4.842  0.7576 -0.4870 -0.1579
  426MOL0     C58664   3.776   7.391   4.766 -0.2779 -0.5679  0.6647
  426MOL0     C58665   3.809   7.458   4.633 -1.1957 -0.7653 -0.5996
  426MOL0     C58666   3.863   7.367   4.524 -0.7108 -0.3712  0.4335
  426MOL0     N58667   3.869   7.415   4.393 -0.2085 -0.2388  0.2226
  426MOL0     C58668   3.789   7.393   4.282  0.4954  0.2746  0.4535
  426MOL0     C58669   3.840   7.461   4.176 -0.4207 -0.0132 -0.1382
  426MOL0     C58670   3.764   7.467   4.042 -0.5932 -0.0438 -0.3149
  426MOL0     C58671   3.631   7.547   4.069  0.0536 -0.4360  0.1827
  426MOL0     C58672   3.576   7.596   3.933 -0.9516  0.5356  0.3674
  426MOL0     C58673   3.416   7.603   3.926  0.1906 -0.0630  0.4644
  426MOL0     O58674   3.367   7.709   4.013  0.1937 -0.5439 -0.3952
  426MOL0     C58675   3.230   7.711   4.022 -0.1928  0.4332  0.1971
  426MOL0     C58676   3.164   7.797   3.937 -0.4246  1.2720  0.7976
  426MOL0     C58677   3.026   7.832   3.952  0.0956  0.6538  0.5986
  426MOL0     C58678   2.957   7.908   3.847 -0.7622  0.1289 -0.4925
  426MOL0     C58679   2.948   7.756   4.045 -1.4018  0.6201  0.1016
  426MOL0     C58680   2.801   7.751   4.054  0.0099  0.7496  0.1244
  426MOL0     O58681   2.750   7.636   4.098  0.8119  0.3333  0.3229
  426MOL0     C58682   2.618   7.636   4.147  0.4031 -0.4980  0.2682
  426MOL0     C58683   2.535   7.547   4.085 -0.4250 -1.0041  0.4153
  426MOL0     C58684   2.394   7.541   4.107  0.8708  0.1867  0.0157
  426MOL0     C58685   2.338   7.640   4.183 -0.2211 -0.4231 -0.2851
  426MOL0     O58686   2.211   7.654   4.212  0.5180  0.3536 -0.0373
  426MOL0     C58687   2.100   7.603   4.132  0.0164  0.5641  0.2690
  426MOL0     C58688   1.974   7.688   4.140 -1.2877  0.2023 -0.2743
  426MOL0     C58689   1.990   7.833   4.082  0.9792 -0.4536 -0.5396
  426MOL0     C58690   1.852   7.888   4.078 -0.1440 -0.5086 -0.2230
  426MOL0     C58691   1.846   8.031   4.019 -0.1441  0.4471  0.2250
  426MOL0     C58692   1.697   8.051   4.000  0.0342 -0.1858  0.2397
  426MOL0     C58693   1.670   8.193   3.971 -0.1307 -0.8841 -0.6719
  426MOL0     C58694   1.727   8.234   3.834  1.0300  0.0778  0.4180
  426MOL0    Cl58695   1.753   8.413   3.823 -0.0945 -0.1595  0.1640
  426MOL0     C58696   2.420   7.726   4.254  0.5552 -0.2725  0.2161
  426MOL0     C58697   2.563   7.726   4.238 -0.7524  0.7102 -0.3258
  426MOL0     O58698   2.748   7.857   4.050  0.0165 -0.7456  0.2539
  426MOL0     C58699   3.023   7.673   4.134 -0.3232 -0.6027  0.0446
  426MOL0     C58700   3.166   7.650   4.120 -0.5503 -0.2020 -0.5871
  426MOL0     N58701   3.961   7.524   4.216 -0.0642  1.3533  0.5589
  426MOL0     N58702   3.973   7.494   4.349  0.6276  0.7699 -0.0973
  426MOL0     C58703   3.767   6.847   5.285  0.3922 -0.1925 -0.8984
  426MOL0     C58704   3.724   6.717   5.296  0.3816 -0.9367  0.1036
  426MOL0     C58705   3.768   6.269   5.144 -0.1122  0.0508  0.0126
  426MOL0     C58706   3.717   6.298   5.016  0.2199 -0.4943 -0.3929
  426MOL0     C58707   3.666   6.203   4.932 -0.0268  0.2261  0.4573
  426MOL0     C58708   3.650   6.073   4.980  0.2687 -0.3550  0.6858
  426MOL0     O58709   3.575   5.990   4.892  0.9257 -0.2409 -0.0523
  426MOL0     C58710   3.564   5.852   4.915  0.3583  0.4267  0.2918
  426MOL0     C58711   3.590   5.781   4.786  0.2280 -0.1531 -0.3522
  426MOL0     C58712   3.520   5.651   4.789  0.3993  0.6791 -0.1214
  426MOL0     C58713   3.512   5.582   4.652 -0.8539  0.0326  0.0122
  426MOL0     C58714   3.442   5.646   4.548  0.0204 -1.0319  0.0954
  426MOL0     C58715   3.379   5.723   4.471 -0.5651  0.0887 -0.4309
  426MOL0     C58716   3.702   6.038   5.107  0.1086  0.2095  0.5554
  426MOL0     C58717   3.762   6.133   5.187 -0.4425 -1.3528 -1.2699
  426MOL0     C58718   3.810   6.090   5.332  1.0296  0.2208  0.0098
  426MOL0     H58719   3.976   6.572   5.127  2.0160  1.8613  0.2479
  426MOL0     H58720   4.063   6.820   5.136  1.3347  0.0703  2.2443
  426MOL0     H58721   3.810   7.108   5.354  0.0355  1.1768 -0.7544
  426MOL0     H58722   3.758   7.108   5.189 -2.1534  0.1384  2.9912
  426MOL0     H58723   3.861   7.315   5.251 -0.7577  1.3514 -3.4681
  426MOL0     H58724   4.014   7.241   5.283 -1.7330 -1.1818  1.8620
  426MOL0     H58725   4.071   7.264   5.061  0.5386 -2.5134 -3.0783
  426MOL0     H58726   3.973   7.134   5.023 -1.4681  0.1517 -1.9307
  426MOL0     H58727   3.767   7.276   5.009 -1.3307  2.5886 -1.0918
  426MOL0     H58728   3.853   7.415   5.037 -1.5834 -0.4968 -0.0132
  426MOL0     H58729   3.926   7.235   4.805 -1.2453 -2.2877  2.5292
  426MOL0     H58730   3.978   7.405   4.842  0.8815 -0.6259  0.0737
  426MOL0     H58731   3.713   7.304   4.748 -0.8017 -0.5932  2.4499
  426MOL0     H58732   3.732   7.464   4.835  1.7913  1.3036  0.1439
  426MOL0     H58733   3.883   7.538   4.644  1.6136 -3.2752  0.1544
  426MOL0     H58734   3.717   7.503   4.594 -0.3869  1.6595  0.1784
  426MOL0     H58735   3.961   7.330   4.554 -0.3442  2.5858  3.5461
  426MOL0     H58736   3.798   7.279   4.526 -2.6581  0.9948  0.1322
  426MOL0     H58737   3.708   7.322   4.268 -1.1024  2.1150 -0.0468
  426MOL0     H58738   3.738   7.372   3.994  0.8194 -1.0760  0.8744
  426MOL0     H58739   3.822   7.518   3.965  0.5182 -1.4848 -0.4809
  426MOL0     H58740   3.556   7.487   4.121 -1.7428 -0.5272 -2.3741
  426MOL0     H58741   3.641   7.623   4.148  2.2716 -3.3895  3.0128
  426MOL0     H58742   3.629   7.687   3.904  3.1801 -1.4048  1.1374
  426MOL0     H58743   3.602   7.520   3.859 -0.7570  1.1732 -0.2336
  426MOL0     H58744   3.381   7.623   3.825 -0.2385 -0.8920  0.4338
  426MOL0     H58745   3.371   7.503   3.940  2.2306 -1.1445 -0.3098
  426MOL0     H58746   3.241   7.839   3.872  0.7970 -2.6599 -0.5838
  426MOL0     H58747   2.896   7.859   3.771 -1.6470  0.6661 -0.1460
  426MOL0     H58748   3.035   7.964   3.794  1.8404 -1.0390  1.8611
  426MOL0     H58749   2.896   7.986   3.893  2.2119  1.1438  2.0860
  426MOL0     H58750   2.581   7.484   4.010 -0.1053  1.4880 -1.6252
  426MOL0     H58751   2.328   7.462   4.071  1.2113  0.8227 -2.1071
  426MOL0     H58752   2.129   7.601   4.027 -0.6162  1.5130  0.0660
  426MOL0     H58753   2.074   7.504   4.173 -3.5551  0.9879 -0.7054
  426MOL0     H58754   1.892   7.636   4.089 -1.9117  2.2061 -1.4447
  426MOL0     H58755   1.954   7.687   4.247  1.9938  0.6145  0.4504
  426MOL0     H58756   2.033   7.834   3.981 -4.8823  0.0018 -3.4957
  426MOL0     H58757   2.051   7.900   4.143  0.8846 -0.4527 -0.4461
  426MOL0     H58758   1.813   7.907   4.178  0.9037 -2.8011  0.6974
  426MOL0     H58759   1.779   7.823   4.030 -0.2974 -0.6743  0.2299
  426MOL0     H58760   1.871   8.109   4.092 -0.0883 -0.2172  0.9272
  426MOL0     H58761   1.906   8.038   3.927 -0.9182  1.1142 -0.2491
  426MOL0     H58762   1.643   8.021   4.090 -0.0928  2.2354  1.0546
  426MOL0     H58763   1.655   7.992   3.919 -1.0725  0.7287  0.1286
  426MOL0     H58764   1.720   8.256   4.045 -0.9858 -1.4041  0.3786
  426MOL0     H58765   1.566   8.228   3.969  0.1406 -0.0344 -0.4179
  426MOL0     H58766   1.661   8.199   3.753 -0.7949  3.6691  0.1388
  426MOL0     H58767   1.823   8.182   3.827  0.6313 -0.7147  0.7699
  426MOL0     H58768   2.375   7.803   4.315  2.2189 -0.8399  2.2710
  426MOL0     H58769   2.634   7.792   4.287  1.0497 -1.6040  0.3695
  426MOL0     H58770   2.963   7.647   4.221 -1.2878  0.6569 -0.2233
  426MOL0     H58771   3.210   7.582   4.192  0.5601 -0.2865 -1.3268
  426MOL0     H58772   3.709   6.919   5.342  3.3547 -0.7261  3.2713
  426MOL0     H58773   3.633   6.684   5.344  0.8023 -1.5569  0.4892
  426MOL0     H58774   3.728   6.401   4.983  0.4100 -0.3376  0.1539
  426MOL0     H58775   3.622   6.236   4.839 -0.9723 -0.3468  0.6950
  426MOL0     H58776   3.632   5.799   4.982  0.5363 -2.8811 -2.2777
  426MOL0     H58777   3.463   5.835   4.953  0.6611 -0.7043  0.6286
  426MOL0     H58778   3.699   5.766   4.779  0.2001 -0.0105 -1.0659
  426MOL0     H58779   3.540   5.840   4.710 -2.6525  3.2507  3.7276
  426MOL0     H58780   3.584   5.591   4.855  1.1166 -0.0358 -1.4406
  426MOL0     H58781   3.421   5.654   4.836  1.3294 -2.0430  2.3063
  426MOL0     H58782   3.481   5.477   4.664  1.1124 -0.5431  0.4754
  426MOL0     H58783   3.617   5.585   4.622 -0.2581 -1.0257  1.8557
  426MOL0     H58784   3.322   5.802   4.428 -0.4776 -1.1406 -2.9510
  426MOL0     H58785   3.681   5.934   5.131 -0.1694  0.0442 -0.3680
  426MOL0     H58786   3.765   6.158   5.405  1.5584  0.3127  0.2557
  426MOL0     H58787   3.773   5.990   5.359 -1.4167  0.4974 -1.9574
  426MOL0     H58788   3.917   6.107   5.349  1.0049 -0.7548  1.3819
  427MOL0     O58789   1.634   9.511   5.671  0.5076  0.5453 -0.1225
  427MOL0     C58790   1.661   9.577   5.577 -0.9042  0.3855  0.2865
  427MOL0     O58791   1.765   9.552   5.490  0.3864  0.3822  0.6091
  427MOL0     C58792   1.838   9.446   5.512 -0.8837  0.0442  1.1543
  427MOL0     C58793   1.808   9.314   5.475  0.5879 -0.5104 -0.0699
  427MOL0     C58794   1.892   9.212   5.500  0.0790  0.4118  0.1729
  427MOL0     C58795   2.024   9.239   5.555 -0.6827  0.2439  0.6581
  427MOL0     O58796   2.109   9.132   5.589 -0.5184 -0.1185  0.1390
  427MOL0     C58797   2.250   9.146   5.595  0.6214 -0.0669 -0.0882
  427MOL0     C58798   2.320   9.168   5.455  0.8427 -0.7352  0.2154
  427MOL0     C58799   2.305   9.054   5.359 -0.0773 -0.2883  0.1922
  427MOL0     C58800   2.423   9.058   5.255 -0.1021  0.3660 -0.5787
  427MOL0     C58801   2.403   8.958   5.144  0.4748 -0.2954  0.8409
  427MOL0     C58802   2.487   8.836   5.157  0.0079  0.6538 -0.4192
  427MOL0     C58803   2.463   8.748   5.032  1.1331  1.5128  0.0702
  427MOL0     C58804   2.565   8.628   5.010  0.7879 -0.4486  0.1167
  427MOL0     N58805   2.575   8.540   5.121 -0.2961 -0.2622 -0.1016
  427MOL0     C58806   2.467   8.495   5.195 -0.7201 -0.3945  0.2233
  427MOL0     C58807   2.524   8.442   5.306  1.2495  0.0239 -0.0350
  427MOL0     C58808   2.443   8.386   5.413  0.1849  0.9147 -0.5771
  427MOL0     C58809   2.414   8.238   5.394 -0.2796 -0.1080 -0.2068
  427MOL0     C58810   2.528   8.150   5.449  0.4411  0.4088  0.0067
  427MOL0     C58811   2.501   7.995   5.454  0.7546  0.3256  0.5186
  427MOL0     O58812   2.456   7.936   5.323 -0.1540 -0.1359 -0.0788
  427MOL0     C58813   2.542   7.913   5.214  0.3914  0.5234 -0.1907
  427MOL0     C58814   2.473   7.906   5.093  0.9901 -0.5635  0.0420
  427MOL0     C58815   2.542   7.861   4.978  0.4791 -0.3175  0.6891
  427MOL0     C58816   2.464   7.866   4.844  0.1504  1.2786  0.8224
  427MOL0     C58817   2.680   7.822   4.987 -0.5337  0.3350  0.0938
  427MOL0     C58818   2.763   7.767   4.878 -0.9349  1.8377  0.6788
  427MOL0     O58819   2.684   7.711   4.778 -0.0570  0.3219 -0.6387
  427MOL0     C58820   2.745   7.641   4.679  0.4290  0.5274  1.0135
  427MOL0     C58821   2.668   7.542   4.620  0.4476 -1.0582 -0.1089
  427MOL0     C58822   2.727   7.457   4.530  0.2683  0.1164  0.4505
  427MOL0     C58823   2.863   7.467   4.484 -0.5971 -0.0919 -0.5516
  427MOL0     O58824   2.924   7.388   4.389  0.1473  0.1456 -0.2465
  427MOL0     C58825   2.833   7.304   4.296 -0.2820 -0.7770 -0.0337
  427MOL0     C58826   2.931   7.205   4.222 -0.3642  0.8907 -1.0378
  427MOL0     C58827   2.863   7.088   4.148  0.2515  0.0689  0.0174
  427MOL0     C58828   2.816   6.975   4.240  0.3296 -0.1846  0.0699
  427MOL0     C58829   2.746   6.874   4.151 -0.2769 -0.1005  0.5031
  427MOL0     C58830   2.693   6.748   4.238 -0.1138 -0.7630  0.3518
  427MOL0     C58831   2.586   6.665   4.160 -0.5438 -0.7516 -0.2621
  427MOL0     C58832   2.532   6.553   4.252 -0.2652 -0.3702 -0.4198
  427MOL0    Cl58833   2.408   6.459   4.184  0.0041 -0.5120  0.5807
  427MOL0     C58834   2.940   7.567   4.535  1.0188 -0.7202  0.0419
  427MOL0     C58835   2.889   7.664   4.631  0.7460 -2.0062  1.3579
  427MOL0     O58836   2.887   7.771   4.887  0.6367 -0.7954 -0.0703
  427MOL0     C58837   2.747   7.853   5.110  0.2265  0.4104  0.2461
  427MOL0     C58838   2.680   7.891   5.224  0.0593  0.8423 -0.1795
  427MOL0     N58839   2.666   8.467   5.304  0.9651 -0.0355  0.0512
  427MOL0     N58840   2.689   8.523   5.191  0.0292 -0.3896  0.2202
  427MOL0     C58841   2.052   9.377   5.582  0.2072 -0.8923 -0.7810
  427MOL0     C58842   1.965   9.484   5.550  0.6878 -0.1249  0.6157
  427MOL0     C58843   1.597   9.712   5.558  0.3536  0.0540 -0.7081
  427MOL0     C58844   1.660   9.803   5.470  0.9589  0.4821 -0.1301
  427MOL0     C58845   1.607   9.922   5.441  0.3180 -0.3602 -0.3731
  427MOL0     C58846   1.500   9.972   5.513 -0.6211  0.2918 -0.4053
  427MOL0     O58847   1.444  10.100   5.499 -0.4254 -0.2437 -0.3644
  427MOL0     C58848   1.540  10.192   5.439 -0.6964  0.0357  1.0858
  427MOL0     C58849   1.517  10.333   5.479  1.3177  0.0578  0.3025
  427MOL0     C58850   1.508  10.342   5.635  0.3211 -0.0123 -0.9307
  427MOL0     C58851   1.516  10.496   5.679 -0.5172 -0.1212 -1.1777
  427MOL0     C58852   1.392  10.575   5.649  0.4431  0.9205 -0.4337
  427MOL0     C58853   1.306  10.662   5.636  0.7060  0.9240 -0.4878
  427MOL0     C58854   1.434   9.888   5.603 -0.1396 -0.8552  0.3407
  427MOL0     C58855   1.485   9.763   5.628  0.5055 -0.2103 -0.9582
  427MOL0     C58856   1.408   9.685   5.741 -0.7489 -0.2624  0.0531
  427MOL0     H58857   1.709   9.284   5.443  1.0481  0.5740 -2.7621
  427MOL0     H58858   1.879   9.105   5.489  1.8450  0.0130  1.5220
  427MOL0     H58859   2.274   9.049   5.638  1.6768  0.9478  1.7469
  427MOL0     H58860   2.286   9.223   5.664 -1.2155  0.8755 -0.1201
  427MOL0     H58861   2.272   9.252   5.403  0.7980 -0.9882 -0.1574
  427MOL0     H58862   2.425   9.200   5.460  0.5350  0.4730 -0.5220
  427MOL0     H58863   2.301   8.953   5.402 -0.6393 -1.1356 -1.7251
  427MOL0     H58864   2.206   9.062   5.312 -0.0345 -0.1278  0.1303
  427MOL0     H58865   2.429   9.163   5.224 -2.5696  0.5111 -0.6865
  427MOL0     H58866   2.521   9.044   5.303 -0.7498  0.4395  0.8379
  427MOL0     H58867   2.420   9.017   5.053 -2.0660  2.2743  1.8638
  427MOL0     H58868   2.300   8.922   5.148  1.0642 -2.4409 -1.2262
  427MOL0     H58869   2.591   8.865   5.169 -0.1519  1.5502 -1.0708
  427MOL0     H58870   2.460   8.780   5.248  3.1170  2.1898  1.6043
  427MOL0     H58871   2.490   8.813   4.947  1.6686 -0.1392 -1.0831
  427MOL0     H58872   2.363   8.708   5.020  0.9002  2.5448 -2.0821
  427MOL0     H58873   2.528   8.564   4.929  3.4551  0.8418 -2.3104
  427MOL0     H58874   2.663   8.670   4.984  0.3048 -0.8053 -2.5958
  427MOL0     H58875   2.362   8.515   5.173 -0.6658  0.0931  0.3904
  427MOL0     H58876   2.345   8.436   5.414 -1.0713 -1.4098  0.2441
  427MOL0     H58877   2.495   8.415   5.505  1.4519  2.4311 -1.7153
  427MOL0     H58878   2.322   8.210   5.445  1.2812 -2.6677  1.4792
  427MOL0     H58879   2.391   8.222   5.288 -0.5145  1.2401 -0.3823
  427MOL0     H58880   2.612   8.177   5.383  0.8898 -0.3473  0.2554
  427MOL0     H58881   2.550   8.181   5.551  0.2246 -0.6876  0.3941
  427MOL0     H58882   2.591   7.937   5.478  0.0387 -1.3963 -0.6850
  427MOL0     H58883   2.428   7.966   5.530  0.9552 -2.1052 -0.1139
  427MOL0     H58884   2.369   7.937   5.096  1.6780  2.0635  4.0312
  427MOL0     H58885   2.531   7.884   4.759 -0.7807 -0.1394 -0.2513
  427MOL0     H58886   2.390   7.946   4.833  0.5449  1.3639 -2.1145
  427MOL0     H58887   2.407   7.775   4.825  1.8172  0.2609  0.4856
  427MOL0     H58888   2.567   7.512   4.649 -0.0019  0.9346  0.5197
  427MOL0     H58889   2.664   7.382   4.482  1.5758 -1.2009  0.6925
  427MOL0     H58890   2.761   7.250   4.359 -0.2042  0.8746  1.5677
  427MOL0     H58891   2.770   7.361   4.228 -2.7930  0.3376  2.9622
  427MOL0     H58892   2.992   7.259   4.149  2.3769  1.2420  1.3357
  427MOL0     H58893   2.999   7.171   4.301 -2.6504  3.6811  2.4260
  427MOL0     H58894   2.927   7.056   4.065 -2.2768  1.4739 -2.6117
  427MOL0     H58895   2.774   7.132   4.103 -0.2868  0.5381  1.4716
  427MOL0     H58896   2.753   7.003   4.324 -0.1175 -1.0203  0.0286
  427MOL0     H58897   2.901   6.926   4.288  1.3768  0.5068 -1.0179
  427MOL0     H58898   2.668   6.927   4.096  1.2170  1.0732 -0.5613
  427MOL0     H58899   2.824   6.847   4.079  2.4851 -0.3816  3.3587
  427MOL0     H58900   2.639   6.792   4.323  0.1287  2.5785 -1.0717
  427MOL0     H58901   2.775   6.683   4.271  1.0201  0.6336  0.3778
  427MOL0     H58902   2.641   6.621   4.076 -1.4763 -1.0673 -0.7139
  427MOL0     H58903   2.500   6.717   4.117 -0.0309 -0.3262 -0.7887
  427MOL0     H58904   2.482   6.607   4.334  1.6035 -0.2841  0.7120
  427MOL0     H58905   2.613   6.496   4.299 -1.4212  0.1587  2.4188
  427MOL0     H58906   3.044   7.582   4.508  1.4763 -0.4589  1.8363
  427MOL0     H58907   2.960   7.741   4.658 -1.2540  1.0780 -1.4323
  427MOL0     H58908   2.848   7.813   5.111  0.0208 -0.2038 -1.1524
  427MOL0     H58909   2.732   7.880   5.318 -0.2609  0.0284 -0.0923
  427MOL0     H58910   2.150   9.411   5.614  1.2990 -1.2806 -3.4844
  427MOL0     H58911   1.987   9.589   5.566 -3.8919  1.1967 -0.4387
  427MOL0     H58912   1.748   9.767   5.418 -1.3836 -3.2660 -1.9409
  427MOL0     H58913   1.653   9.968   5.354  0.2526  1.1038  0.3502
  427MOL0     H58914   1.639  10.160   5.472 -0.7181  1.9219  3.2231
  427MOL0     H58915   1.530  10.179   5.330  1.8957 -2.9326  1.0566
  427MOL0     H58916   1.419  10.362   5.441  0.2645 -3.5484 -0.1263
  427MOL0     H58917   1.592  10.399   5.434  2.9932 -2.0513 -0.1451
  427MOL0     H58918   1.415  10.306   5.682  0.3252  3.9138  2.6599
  427MOL0     H58919   1.592  10.288   5.679  0.3524 -0.4498 -1.5149
  427MOL0     H58920   1.598  10.551   5.634  0.5700  1.4154  2.3245
  427MOL0     H58921   1.525  10.500   5.788  2.1224  2.6796 -1.3754
  427MOL0     H58922   1.224  10.731   5.632  1.6156  2.0924  0.5174
  427MOL0     H58923   1.348   9.930   5.655  1.2279  0.0949  1.9288
  427MOL0     H58924   1.377   9.583   5.717  0.5484 -0.7795  0.4846
  427MOL0     H58925   1.475   9.676   5.827  1.7903 -3.9291 -2.0290
  427MOL0     H58926   1.318   9.740   5.771 -0.3919  0.7004 -0.6095
  428MOL0     O58927   2.155   5.412   3.649 -0.1851  1.0894 -0.7263
  428MOL0     C58928   2.066   5.332   3.680 -0.5922  1.1934 -0.2781
  428MOL0     O58929   1.959   5.295   3.601 -0.3842  0.5298 -0.0236
  428MOL0     C58930   1.972   5.331   3.468 -0.9799 -1.3058 -0.4647
  428MOL0     C58931   2.051   5.264   3.381  0.1991  0.4128  0.0944
  428MOL0     C58932   2.054   5.298   3.247 -0.1208 -0.7605 -0.5237
  428MOL0     C58933   1.976   5.409   3.205  0.2575 -1.0143  0.5585
  428MOL0     O58934   1.983   5.462   3.077 -0.1922 -0.6921  0.0599
  428MOL0     C58935   2.024   5.373   2.968  0.0590 -0.3834 -0.1656
  428MOL0     C58936   1.977   5.426   2.828  0.6406 -0.0811 -0.9200
  428MOL0     C58937   2.071   5.353   2.727  0.0169 -0.5115 -0.6286
  428MOL0     C58938   2.014   5.342   2.588 -0.0334 -0.3901 -0.2634
  428MOL0     C58939   2.131   5.274   2.503 -0.1328  0.4822 -1.1231
  428MOL0     C58940   2.073   5.249   2.364  0.0404  0.6373 -0.7207
  428MOL0     C58941   2.182   5.204   2.263 -0.7774  0.0816 -0.1135
  428MOL0     C58942   2.240   5.325   2.195 -0.1390  0.5147 -0.2748
  428MOL0     N58943   2.336   5.279   2.088 -0.5103 -0.2047  0.0483
  428MOL0     C58944   2.461   5.233   2.130 -1.5508 -1.1806  1.2543
  428MOL0     C58945   2.531   5.258   2.014 -0.5315 -0.2490 -1.7414
  428MOL0     C58946   2.678   5.266   2.012 -0.6635  0.0719  0.2798
  428MOL0     C58947   2.739   5.120   2.014 -0.3034  0.4035  0.1553
  428MOL0     C58948   2.867   5.098   1.928 -0.0268  0.5371  0.3846
  428MOL0     C58949   2.980   5.176   1.993 -0.5638  0.3080 -0.4704
  428MOL0     O58950   3.103   5.158   1.930 -0.1209  0.9499  0.0829
  428MOL0     C58951   3.172   5.035   1.952  0.4130 -0.1466 -0.0252
  428MOL0     C58952   3.300   5.042   1.890 -0.4994  0.9599  0.4649
  428MOL0     C58953   3.371   4.923   1.871  0.1592 -0.0421 -0.1178
  428MOL0     C58954   3.511   4.939   1.812 -0.4519 -0.7190 -0.7265
  428MOL0     C58955   3.312   4.803   1.907 -0.7354  0.6934  0.1459
  428MOL0     C58956   3.371   4.664   1.883  0.0125  0.4575 -0.2921
  428MOL0     O58957   3.285   4.565   1.916 -0.2821 -0.2438 -0.1935
  428MOL0     C58958   3.343   4.446   1.897 -0.6605 -0.3783 -0.1601
  428MOL0     C58959   3.462   4.407   1.965  0.8287  0.8010  0.5455
  428MOL0     C58960   3.538   4.292   1.942  0.5516  0.4120 -0.3183
  428MOL0     C58961   3.490   4.210   1.839  0.0097  0.5431 -0.1920
  428MOL0     O58962   3.559   4.096   1.794 -0.4201  0.2974  0.0158
  428MOL0     C58963   3.698   4.085   1.783 -0.9311 -0.5134  1.1745
  428MOL0     C58964   3.739   4.170   1.652  0.2999  0.8430 -0.0122
  428MOL0     C58965   3.670   4.113   1.520 -0.7916  0.2237  1.0306
  428MOL0     C58966   3.747   4.100   1.386  0.7078 -0.0840 -0.2212
  428MOL0     C58967   3.704   3.976   1.304  0.3751 -0.3578 -0.2828
  428MOL0     C58968   3.544   3.952   1.298 -0.8187  0.3445  0.0935
  428MOL0     C58969   3.494   3.848   1.189 -0.0539  0.3234  0.3840
  428MOL0     C58970   3.464   3.918   1.057 -0.4641  0.3300 -0.1955
  428MOL0    Cl58971   3.583   4.034   0.979 -0.0122  0.2273 -0.3174
  428MOL0     C58972   3.365   4.227   1.779  0.3095 -0.7559 -0.4115
  428MOL0     C58973   3.293   4.352   1.798 -0.2213 -0.2058 -0.3839
  428MOL0     O58974   3.481   4.652   1.824 -0.4999 -0.4586  0.1648
  428MOL0     C58975   3.199   4.807   1.995 -0.6354 -0.2436 -0.2987
  428MOL0     C58976   3.121   4.921   2.013  0.4172 -0.5084 -0.9185
  428MOL0     N58977   2.443   5.294   1.914  0.2618 -0.8746 -0.1351
  428MOL0     N58978   2.325   5.296   1.956 -0.5812  0.5283 -0.2286
  428MOL0     C58979   1.883   5.472   3.292 -0.2985  1.0087  0.5989
  428MOL0     C58980   1.886   5.437   3.433  0.4660 -0.9844  0.5320
  428MOL0     C58981   2.086   5.263   3.812  0.5831  0.3643  0.4364
  428MOL0     C58982   2.146   5.343   3.912  0.3888  1.2480  0.1793
  428MOL0     C58983   2.170   5.287   4.036  0.0582 -0.1249  0.4625
  428MOL0     C58984   2.135   5.153   4.064 -0.1812 -0.4910 -0.0558
  428MOL0     O58985   2.138   5.118   4.198  0.1641  0.0392  0.8586
  428MOL0     C58986   2.265   5.114   4.266 -0.4025  0.2116  0.5201
  428MOL0     C58987   2.252   5.093   4.420  0.1755 -0.0405 -0.2779
  428MOL0     C58988   2.163   5.211   4.478  0.6375  0.6704  0.3402
  428MOL0     C58989   2.212   5.353   4.474  0.5931  0.7605  0.4199
  428MOL0     C58990   2.351   5.370   4.501 -0.2979  0.5890 -0.1903
  428MOL0     C58991   2.466   5.393   4.540 -0.0676  0.6283 -0.3587
  428MOL0     C58992   2.083   5.070   3.963  0.2514 -0.4421 -0.0700
  428MOL0     C58993   2.071   5.119   3.832 -0.3712 -0.2408 -0.2333
  428MOL0     C58994   2.049   5.024   3.716 -1.1648  0.1031  0.0032
  428MOL0     H58995   2.117   5.184   3.417 -1.9347 -0.1710  3.1302
  428MOL0     H58996   2.114   5.242   3.176  1.1946  0.6373 -0.5587
  428MOL0     H58997   1.989   5.272   2.990 -0.5671  0.2385  1.9391
  428MOL0     H58998   2.133   5.373   2.960  0.1969  2.1028  0.7066
  428MOL0     H58999   1.872   5.399   2.816 -0.0246  2.1693 -0.6360
  428MOL0     H59000   1.999   5.532   2.822  1.5590 -0.1378  0.8700
  428MOL0     H59001   2.161   5.415   2.731  0.6180 -1.3096 -1.3258
  428MOL0     H59002   2.098   5.253   2.764 -1.9406 -0.1988  1.9680
  428MOL0     H59003   1.923   5.281   2.588 -1.1132  1.1583 -0.3053
  428MOL0     H59004   1.990   5.436   2.538  0.1169  0.7032  1.6311
  428MOL0     H59005   2.145   5.177   2.552  1.1293  0.7266 -0.9723
  428MOL0     H59006   2.220   5.338   2.508 -1.4001  2.4512 -2.5004
  428MOL0     H59007   1.996   5.172   2.366 -1.9359  2.5127 -1.6335
  428MOL0     H59008   2.022   5.339   2.328 -0.7116  0.0817 -1.0550
  428MOL0     H59009   2.129   5.131   2.201 -0.8976 -1.0708  1.2885
  428MOL0     H59010   2.259   5.146   2.315  1.4933  3.0209  0.0418
  428MOL0     H59011   2.163   5.385   2.146 -1.1741 -3.6221 -4.4996
  428MOL0     H59012   2.288   5.385   2.272  0.6430  1.9020 -1.7890
  428MOL0     H59013   2.493   5.198   2.228 -0.7124 -2.9546  0.4023
  428MOL0     H59014   2.731   5.306   2.099  0.8710 -4.0276  1.4776
  428MOL0     H59015   2.719   5.319   1.926  0.9537  1.2950  1.7252
  428MOL0     H59016   2.753   5.096   2.120  0.9484  1.0471  0.1556
  428MOL0     H59017   2.672   5.038   1.985 -0.7514  1.0804 -0.7610
  428MOL0     H59018   2.889   4.993   1.907 -1.6588  0.0289  1.0911
  428MOL0     H59019   2.840   5.151   1.836  0.1316  1.1672  0.6894
  428MOL0     H59020   2.955   5.282   1.986 -2.2915 -0.1190 -1.6912
  428MOL0     H59021   2.988   5.145   2.098  0.3803  3.9027  0.6511
  428MOL0     H59022   3.329   5.141   1.857 -0.1656  1.7041  2.7792
  428MOL0     H59023   3.541   5.042   1.793  1.4561 -0.4774  2.7282
  428MOL0     H59024   3.538   4.881   1.723  0.0957  0.1162 -1.1097
  428MOL0     H59025   3.574   4.906   1.896  1.4777  0.3227 -1.6893
  428MOL0     H59026   3.494   4.470   2.047 -0.2141 -0.4009  1.9416
  428MOL0     H59027   3.624   4.263   2.002  1.5017  2.1617 -0.7497
  428MOL0     H59028   3.751   4.133   1.866 -0.9242  2.7765 -0.5630
  428MOL0     H59029   3.724   3.981   1.764  0.4172  0.2639 -1.6807
  428MOL0     H59030   3.705   4.273   1.665  0.9496  1.2649 -1.4366
  428MOL0     H59031   3.848   4.172   1.639  0.0546  2.0370 -2.2718
  428MOL0     H59032   3.576   4.167   1.511 -0.8351  0.0958  0.6994
  428MOL0     H59033   3.649   4.008   1.542  0.2569  0.1410  1.6853
  428MOL0     H59034   3.856   4.097   1.399  0.5749  0.0985  1.0153
  428MOL0     H59035   3.728   4.189   1.324 -2.1953  1.2736  2.3374
  428MOL0     H59036   3.746   3.992   1.205 -0.5323  3.1014 -0.2422
  428MOL0     H59037   3.755   3.891   1.350  1.8940  1.3295  1.3671
  428MOL0     H59038   3.501   4.049   1.270 -0.1577 -0.0035 -2.3228
  428MOL0     H59039   3.500   3.912   1.390 -1.6103 -1.2488 -0.9366
  428MOL0     H59040   3.402   3.802   1.227 -0.4571 -1.0549 -2.0682
  428MOL0     H59041   3.560   3.765   1.163 -1.7291 -0.7091 -0.7416
  428MOL0     H59042   3.372   3.976   1.068 -0.1332  0.7411  0.4356
  428MOL0     H59043   3.431   3.849   0.979 -0.6391  0.7710 -0.5160
  428MOL0     H59044   3.324   4.154   1.709 -0.4957 -0.7387  0.0307
  428MOL0     H59045   3.205   4.380   1.741 -0.7828  0.9535  0.9571
  428MOL0     H59046   3.155   4.719   2.041  0.7149 -1.5512 -1.4036
  428MOL0     H59047   3.028   4.924   2.070  1.4076 -0.0640  0.7340
  428MOL0     H59048   1.821   5.551   3.252 -1.9804  0.1657  1.4122
  428MOL0     H59049   1.829   5.490   3.508 -0.7694 -0.9956 -0.3697
  428MOL0     H59050   2.161   5.450   3.904  1.3273  1.4539  3.5186
  428MOL0     H59051   2.215   5.351   4.112 -1.6950  1.6900  0.0812
  428MOL0     H59052   2.322   5.026   4.235 -0.5058 -0.2077  1.4885
  428MOL0     H59053   2.327   5.203   4.252 -0.5317  0.1847 -0.2638
  428MOL0     H59054   2.348   5.103   4.472  1.2361  1.2153 -2.3454
  428MOL0     H59055   2.206   4.994   4.430 -2.4298  1.1891  0.8723
  428MOL0     H59056   2.061   5.208   4.439  0.2820 -0.3359  1.2954
  428MOL0     H59057   2.154   5.180   4.582  2.5911  0.1211  0.3950
  428MOL0     H59058   2.158   5.398   4.558  1.1813 -0.3993  1.4515
  428MOL0     H59059   2.191   5.411   4.384  1.7528  1.7416  0.7606
  428MOL0     H59060   2.561   5.416   4.583  0.6821 -0.2272 -1.5049
  428MOL0     H59061   2.050   4.968   3.981 -0.7638  0.1083  1.4151
  428MOL0     H59062   1.949   5.040   3.674 -1.0549  0.6686 -0.0495
  428MOL0     H59063   2.128   5.034   3.641 -1.5536  4.7906 -0.0882
  428MOL0     H59064   2.045   4.925   3.761 -2.5599 -0.8266 -2.0277
  429MOL0     O59065   4.187   6.281   8.989  0.7081  0.1009 -0.0196
  429MOL0     C59066   4.307   6.296   8.981  0.1277 -0.4820 -0.1485
  429MOL0     O59067   4.395   6.283   9.086  0.2164 -0.0948 -0.8187
  429MOL0     C59068   4.344   6.281   9.217  0.1214  1.6099  0.5779
  429MOL0     C59069   4.313   6.396   9.287 -0.5075  0.3990  0.3963
  429MOL0     C59070   4.263   6.397   9.418  0.6223  0.2294 -0.4344
  429MOL0     C59071   4.241   6.268   9.476  0.2919 -0.3965  0.0044
  429MOL0     O59072   4.189   6.291   9.605 -0.9694  0.8321  0.2092
  429MOL0     C59073   4.122   6.181   9.672  0.2916  0.1242  0.5029
  429MOL0     C59074   4.042   6.229   9.788 -0.8225  0.7669 -0.2232
  429MOL0     C59075   4.138   6.292   9.891  0.9909 -0.3383 -0.7668
  429MOL0     C59076   4.068   6.382   9.999 -0.1697 -0.4644  0.3536
  429MOL0     C59077   4.047   6.316  10.130  0.2925  0.2332  0.1037
  429MOL0     C59078   4.006   6.411  10.233 -0.1462 -0.3387 -0.1135
  429MOL0     C59079   3.988   6.344  10.368 -0.7298 -1.2210 -0.3513
  429MOL0     C59080   4.006   6.446  10.476 -0.1018 -0.1350 -0.4540
  429MOL0     N59081   3.958   6.391  10.607  0.3601  0.3262 -0.2238
  429MOL0     C59082   3.824   6.353  10.644 -0.0513 -0.2917  0.5837
  429MOL0     C59083   3.835   6.308  10.766  0.1785  0.8321  0.1427
  429MOL0     C59084   3.735   6.260  10.856  0.7063 -0.0067 -0.8264
  429MOL0     C59085   3.701   6.362  10.964  0.7341 -0.0060  0.5996
  429MOL0     C59086   3.600   6.305  11.060  0.6226 -0.7852 -0.7442
  429MOL0     C59087   3.471   6.286  10.985  0.7994  0.3999  0.1630
  429MOL0     O59088   3.426   6.416  10.936 -0.5499 -0.1026  0.7775
  429MOL0     C59089   3.370   6.512  11.015  0.0601  0.7404 -0.9993
  429MOL0     C59090   3.314   6.476  11.133  0.4408  0.1886 -0.8559
  429MOL0     C59091   3.233   6.561  11.207 -0.5640  0.2588 -0.0521
  429MOL0     C59092   3.165   6.505  11.323 -0.0746 -0.5327 -0.1891
  429MOL0     C59093   3.228   6.701  11.168  0.6012 -0.7197  0.1318
  429MOL0     C59094   3.160   6.799  11.249 -0.5213  0.3066 -0.1033
  429MOL0     O59095   3.149   6.774  11.389  0.0705 -0.1052 -0.6346
  429MOL0     C59096   3.169   6.883  11.467  1.5686 -0.0319  0.6860
  429MOL0     C59097   3.127   6.869  11.594 -1.0898  0.3283 -0.8631
  429MOL0     C59098   3.126   6.966  11.681  0.0535 -0.0272 -0.0292
  429MOL0     C59099   3.187   7.095  11.650 -0.9938  0.3403  0.8943
  429MOL0     O59100   3.175   7.209  11.728 -0.6893  0.5398  0.3036
  429MOL0     C59101   3.148   7.185  11.867  1.1001  0.3938  0.3504
  429MOL0     C59102   3.185   7.304  11.954 -0.8553 -0.9422 -0.2507
  429MOL0     C59103   3.181   7.255  12.091 -0.2853 -0.0838  0.2414
  429MOL0     C59104   3.191   7.375  12.190  0.6509  0.8081  0.9032
  429MOL0     C59105   3.330   7.418  12.235 -0.0414 -0.1932  0.6126
  429MOL0     C59106   3.312   7.503  12.365  0.3959  0.3984 -0.1596
  429MOL0     C59107   3.450   7.548  12.414 -1.0153 -0.0265 -0.0201
  429MOL0     C59108   3.533   7.425  12.465 -0.4241  0.5431  0.5830
  429MOL0    Cl59109   3.691   7.471  12.534  0.0913 -0.1910 -0.8557
  429MOL0     C59110   3.237   7.114  11.520 -0.6075  0.1496 -1.0869
  429MOL0     C59111   3.235   7.003  11.431 -0.7623  0.3253 -0.5577
  429MOL0     O59112   3.122   6.899  11.189 -0.5423  0.4979  0.3741
  429MOL0     C59113   3.298   6.744  11.050 -0.2981 -0.9510 -0.0055
  429MOL0     C59114   3.364   6.646  10.973 -0.3833 -0.0205 -0.4354
  429MOL0     N59115   3.967   6.317  10.814  0.4031 -0.0829 -0.4654
  429MOL0     N59116   4.037   6.371  10.711  0.1069 -0.9395  0.2428
  429MOL0     C59117   4.274   6.146   9.412 -0.4195 -1.0751 -0.4993
  429MOL0     C59118   4.325   6.158   9.279  0.4224 -0.8000 -0.0454
  429MOL0     C59119   4.364   6.310   8.846  0.7390  0.3762 -0.8118
  429MOL0     C59120   4.298   6.242   8.748 -0.2454  1.0032  0.3588
  429MOL0     C59121   4.338   6.251   8.617  0.2318  0.5185 -0.5798
  429MOL0     C59122   4.461   6.318   8.586  0.2389 -0.8146 -0.3931
  429MOL0     O59123   4.517   6.341   8.463  0.1269 -0.8472 -0.0071
  429MOL0     C59124   4.526   6.235   8.370  0.5666  0.2012 -1.7110
  429MOL0     C59125   4.413   6.246   8.269  0.6860 -0.4982 -0.4578
  429MOL0     C59126   4.391   6.142   8.174  0.4585  0.6906 -0.5915
  429MOL0     C59127   4.254   6.144   8.097 -0.6251  0.3202  0.7911
  429MOL0     C59128   4.142   6.137   8.189  0.0322  0.4591  0.1879
  429MOL0     C59129   4.045   6.126   8.264 -0.0510 -0.2085 -0.2005
  429MOL0     C59130   4.515   6.390   8.678 -0.7845 -0.5922  0.4419
  429MOL0     C59131   4.468   6.394   8.812  0.0846 -0.0960  0.1406
  429MOL0     C59132   4.540   6.488   8.912 -0.3038 -0.0096  0.8556
  429MOL0     H59133   4.340   6.487   9.234  2.6012  0.6432  2.1758
  429MOL0     H59134   4.242   6.485   9.477 -2.7338 -0.0079 -1.0914
  429MOL0     H59135   4.199   6.113   9.711  0.5540 -0.8730 -1.5949
  429MOL0     H59136   4.051   6.130   9.606 -1.6330  1.2854  1.6228
  429MOL0     H59137   3.967   6.293   9.740 -0.7078  0.6136 -0.6148
  429MOL0     H59138   3.993   6.144   9.837 -0.9497  1.7103  1.3191
  429MOL0     H59139   4.199   6.209   9.928 -1.3226 -1.9500 -0.2681
  429MOL0     H59140   4.206   6.353   9.832  1.1518 -2.6668 -3.1930
  429MOL0     H59141   4.123   6.476   9.994 -1.6429  0.4590  0.7949
  429MOL0     H59142   3.972   6.419   9.963 -0.2005 -0.0915  0.8062
  429MOL0     H59143   4.146   6.278  10.158 -0.7835 -2.0250  1.0571
  429MOL0     H59144   3.970   6.239  10.123 -0.2394  0.6544  1.0733
  429MOL0     H59145   4.083   6.488  10.240 -0.6090  0.0422  1.0029
  429MOL0     H59146   3.914   6.458  10.196 -0.8902 -1.2994  0.4821
  429MOL0     H59147   4.065   6.267  10.382 -1.1155 -1.8832 -1.6698
  429MOL0     H59148   3.898   6.284  10.384 -0.6204 -1.2092  0.3272
  429MOL0     H59149   4.107   6.488  10.486  0.1605 -0.3805 -1.9379
  429MOL0     H59150   3.951   6.539  10.455 -0.0084 -0.0872 -0.4875
  429MOL0     H59151   3.737   6.352  10.580  1.6386  0.1311 -1.8385
  429MOL0     H59152   3.767   6.165  10.899  0.1093 -0.2062 -0.8160
  429MOL0     H59153   3.643   6.234  10.803 -3.4309  0.5311  5.0840
  429MOL0     H59154   3.794   6.390  11.015  1.2191 -1.6732  0.7052
  429MOL0     H59155   3.665   6.448  10.907 -2.0721 -0.9831  0.7358
  429MOL0     H59156   3.646   6.215  11.102  1.4259  0.6155  1.5577
  429MOL0     H59157   3.587   6.373  11.145 -0.6754  0.3618 -1.8085
  429MOL0     H59158   3.486   6.213  10.904 -4.3500  1.3484 -2.0753
  429MOL0     H59159   3.399   6.240  11.054 -0.5487  0.5364 -1.0915
  429MOL0     H59160   3.322   6.376  11.174 -2.1068  0.4134  0.3881
  429MOL0     H59161   3.167   6.396  11.328 -0.7962 -0.5351  0.2359
  429MOL0     H59162   3.062   6.542  11.332 -0.8975 -1.9314 -2.6234
  429MOL0     H59163   3.230   6.531  11.406  1.8767 -1.6420 -1.2953
  429MOL0     H59164   3.082   6.778  11.633 -0.3044  0.5378  0.6199
  429MOL0     H59165   3.070   6.947  11.772  1.0953  0.0493  0.6443
  429MOL0     H59166   3.040   7.172  11.871  1.3210 -2.3008 -0.6289
  429MOL0     H59167   3.187   7.090  11.904 -1.8283 -2.0642 -2.3149
  429MOL0     H59168   3.287   7.336  11.930 -1.1470 -1.2859 -2.1725
  429MOL0     H59169   3.119   7.387  11.928 -2.0723 -1.9314 -0.4119
  429MOL0     H59170   3.264   7.184  12.101 -1.3572 -1.4095 -0.0200
  429MOL0     H59171   3.095   7.192  12.113  1.0141 -1.2406  2.2974
  429MOL0     H59172   3.141   7.349  12.284 -0.1459 -0.5880  0.1307
  429MOL0     H59173   3.125   7.454  12.154 -0.1101 -0.6992 -1.1761
  429MOL0     H59174   3.379   7.323  12.259 -0.1846  0.0133  1.7686
  429MOL0     H59175   3.382   7.474  12.156 -0.3806  1.3204  1.4254
  429MOL0     H59176   3.259   7.450  12.444 -2.3931  1.3427 -1.2738
  429MOL0     H59177   3.251   7.587  12.330 -1.6453 -2.1814 -3.4413
  429MOL0     H59178   3.432   7.620  12.494  2.1207  0.2978  0.5057
  429MOL0     H59179   3.497   7.593  12.326 -2.6459  0.2553 -0.7927
  429MOL0     H59180   3.554   7.383  12.367 -2.1688 -0.4652  0.5927
  429MOL0     H59181   3.469   7.368  12.534  1.9821 -1.9432  0.9144
  429MOL0     H59182   3.277   7.212  11.496  0.4160  0.1236  0.3720
  429MOL0     H59183   3.257   7.016  11.326 -1.9782  1.5276 -0.6950
  429MOL0     H59184   3.313   6.844  11.011  3.6315 -0.7860  1.4552
  429MOL0     H59185   3.406   6.669  10.876 -1.4147 -0.9042 -1.1106
  429MOL0     H59186   4.262   6.055   9.470  1.8122 -1.6279 -0.8302
  429MOL0     H59187   4.362   6.061   9.248  0.9834 -0.8006  0.6076
  429MOL0     H59188   4.206   6.186   8.759 -0.4034  1.2003  0.0328
  429MOL0     H59189   4.294   6.192   8.538  4.1138 -0.9903 -1.8415
  429MOL0     H59190   4.619   6.241   8.311  0.9040 -1.2913 -1.3506
  429MOL0     H59191   4.531   6.147   8.433  0.0690 -0.5156 -2.6528
  429MOL0     H59192   4.423   6.331   8.202  1.6315 -0.6763 -0.5549
  429MOL0     H59193   4.318   6.260   8.322  0.1729  0.1404 -1.5061
  429MOL0     H59194   4.474   6.139   8.103  1.3407  1.0950  0.4014
  429MOL0     H59195   4.404   6.051   8.234 -1.3851  0.7546 -0.0571
  429MOL0     H59196   4.257   6.057   8.031 -1.8562  0.1163  0.9745
  429MOL0     H59197   4.248   6.232   8.034 -1.2876  0.4662  1.0455
  429MOL0     H59198   3.959   6.125   8.327  1.5801 -0.1267  2.1794
  429MOL0     H59199   4.579   6.470   8.643  0.8185 -2.0642 -0.0970
  429MOL0     H59200   4.603   6.437   8.986 -0.7180  0.4297  1.5270
  429MOL0     H59201   4.597   6.562   8.857 -3.1379  1.5205 -0.2289
  429MOL0     H59202   4.468   6.557   8.958  0.5613  2.3727 -1.1553
  430MOL0     O59203   1.406   1.233   8.816 -0.0020 -0.0877 -0.7160
  430MOL0     C59204   1.467   1.343   8.836 -0.1627  0.1281  0.1380
  430MOL0     O59205   1.498   1.392   8.960 -0.3424 -0.3698 -0.5248
  430MOL0     C59206   1.427   1.371   9.071  0.8110  0.8659  0.1325
  430MOL0     C59207   1.419   1.481   9.163 -0.3569  0.2819 -0.1192
  430MOL0     C59208   1.338   1.468   9.284  0.2971 -0.7302  0.1500
  430MOL0     C59209   1.269   1.351   9.302  0.0086 -1.0192  0.3964
  430MOL0     O59210   1.179   1.358   9.401 -0.3983 -0.6647 -0.5704
  430MOL0     C59211   1.102   1.243   9.435  0.2839  0.5016  0.1282
  430MOL0     C59212   0.976   1.291   9.512  0.1008 -0.6742  0.6932
  430MOL0     C59213   0.991   1.395   9.617  0.4695 -0.3071 -0.2891
  430MOL0     C59214   1.101   1.374   9.726 -0.3092  1.0783 -0.5050
  430MOL0     C59215   1.072   1.417   9.864  0.3615 -0.2179 -1.4138
  430MOL0     C59216   1.186   1.372   9.965 -0.1744 -0.0742 -0.2599
  430MOL0     C59217   1.207   1.221   9.969 -0.2198 -0.1035  0.3820
  430MOL0     C59218   1.287   1.161  10.082 -0.0933  0.7558 -0.9462
  430MOL0     N59219   1.423   1.122  10.042 -0.2021 -0.2290 -0.7055
  430MOL0     C59220   1.541   1.199  10.050  0.0515  0.4972  0.7988
  430MOL0     C59221   1.643   1.116  10.009 -0.5328 -0.2706  0.0668
  430MOL0     C59222   1.791   1.149   9.992 -0.1259 -0.3457  0.0467
  430MOL0     C59223   1.826   1.161   9.848 -0.8859  1.1512  0.1169
  430MOL0     C59224   1.952   1.240   9.806 -0.0638 -0.9430 -0.3339
  430MOL0     C59225   2.092   1.202   9.866 -0.8678 -0.7475 -1.0517
  430MOL0     O59226   2.119   1.080   9.827 -0.5936 -0.0352  0.6822
  430MOL0     C59227   2.253   1.041   9.823  0.0232 -0.2865 -0.1677
  430MOL0     C59228   2.281   0.925   9.753 -0.4293  0.0659 -0.6847
  430MOL0     C59229   2.408   0.868   9.733 -0.8903  0.0589  1.1492
  430MOL0     C59230   2.429   0.744   9.649  0.0281  0.7035 -0.5218
  430MOL0     C59231   2.522   0.939   9.783  1.7292  0.1368  0.1822
  430MOL0     C59232   2.669   0.900   9.779 -0.2681 -0.3998 -0.8423
  430MOL0     O59233   2.695   0.778   9.720  0.5076  0.6737  0.1409
  430MOL0     C59234   2.821   0.739   9.698 -0.0239  0.0100 -0.3483
  430MOL0     C59235   2.898   0.690   9.801  0.2160  0.7190  0.4243
  430MOL0     C59236   3.034   0.652   9.785 -0.0035 -0.0347 -0.7538
  430MOL0     C59237   3.088   0.639   9.658  0.6471 -0.6486 -0.5582
  430MOL0     O59238   3.219   0.602   9.656  0.7794  0.5509 -0.4878
  430MOL0     C59239   3.268   0.538   9.532 -1.3532  0.8066  0.3056
  430MOL0     C59240   3.396   0.614   9.504  0.6266 -0.9487  0.7680
  430MOL0     C59241   3.449   0.637   9.363 -0.1174 -0.8478  0.5419
  430MOL0     C59242   3.341   0.705   9.270  0.0125  0.1419  0.7033
  430MOL0     C59243   3.403   0.740   9.131 -0.3907 -0.0241 -0.5517
  430MOL0     C59244   3.484   0.874   9.152  0.8823 -0.4952  0.8071
  430MOL0     C59245   3.552   0.929   9.029  0.0798 -0.2450 -0.1068
  430MOL0     C59246   3.458   0.972   8.917 -1.3104  0.2592  0.1705
  430MOL0    Cl59247   3.320   1.077   8.971  0.1298 -0.4282 -0.1100
  430MOL0     C59248   3.012   0.680   9.548  0.5450 -0.2381 -0.6422
  430MOL0     C59249   2.876   0.724   9.566 -0.6270 -0.1298  0.6143
  430MOL0     O59250   2.756   0.968   9.832  0.8115  0.3993 -0.8295
  430MOL0     C59251   2.494   1.057   9.856  0.3552 -0.3129 -0.4304
  430MOL0     C59252   2.367   1.111   9.879  0.5873  0.1793 -0.0055
  430MOL0     N59253   1.585   0.996   9.978  0.4415 -0.0575 -0.1160
  430MOL0     N59254   1.458   1.001  10.003  0.7671  0.4954 -0.8911
  430MOL0     C59255   1.299   1.241   9.223 -0.4021 -0.7925  0.7314
  430MOL0     C59256   1.377   1.251   9.103  0.0744 -0.7209  0.7891
  430MOL0     C59257   1.515   1.419   8.725 -0.2543 -0.1636 -1.4603
  430MOL0     C59258   1.601   1.364   8.624 -0.1508 -0.3850 -0.0353
  430MOL0     C59259   1.656   1.445   8.526  1.5323 -1.0642  0.4568
  430MOL0     C59260   1.605   1.578   8.516  0.7082  0.6215  0.5330
  430MOL0     O59261   1.652   1.665   8.417 -0.6820  0.3629 -0.2932
  430MOL0     C59262   1.783   1.723   8.451  0.3087  0.2967 -0.0954
  430MOL0     C59263   1.908   1.649   8.402  0.5634 -0.1898  0.0364
  430MOL0     C59264   2.039   1.701   8.462  0.2654  0.1818 -1.0282
  430MOL0     C59265   2.161   1.628   8.412  0.3556  0.1623  0.6262
  430MOL0     C59266   2.173   1.510   8.500  0.3691  1.3420 -0.2432
  430MOL0     C59267   2.192   1.428   8.585 -0.4519  0.2241  0.2382
  430MOL0     C59268   1.511   1.637   8.598 -0.0434  0.2083  0.1985
  430MOL0     C59269   1.463   1.555   8.699  0.3273 -0.6387  0.3422
  430MOL0     C59270   1.363   1.622   8.779  0.3346 -0.0600 -1.1714
  430MOL0     H59271   1.478   1.571   9.151 -0.6089  0.3522 -0.8810
  430MOL0     H59272   1.332   1.552   9.353  2.3222 -1.0097  0.7341
  430MOL0     H59273   1.154   1.176   9.505  0.1095 -0.4251 -0.6102
  430MOL0     H59274   1.075   1.182   9.348 -0.8437  1.9731 -0.5862
  430MOL0     H59275   0.902   1.330   9.442  2.1136 -0.7881 -1.6317
  430MOL0     H59276   0.927   1.205   9.560  0.3186 -1.6006 -0.6762
  430MOL0     H59277   1.005   1.485   9.557 -1.3100  0.4413  0.3381
  430MOL0     H59278   0.896   1.400   9.672  0.9111 -1.4909  0.6169
  430MOL0     H59279   1.120   1.266   9.725  1.7979  1.4290 -1.0737
  430MOL0     H59280   1.192   1.425   9.695  0.2510  1.6218  1.8665
  430MOL0     H59281   0.972   1.387   9.896 -0.4010  1.8332 -1.7736
  430MOL0     H59282   1.056   1.525   9.865  0.6045  0.0378  3.9419
  430MOL0     H59283   1.280   1.414   9.929  0.5519 -0.5221  1.0240
  430MOL0     H59284   1.162   1.404  10.067 -0.0579 -4.4493  1.3692
  430MOL0     H59285   1.237   1.177   9.874 -0.3246  1.0384 -0.1988
  430MOL0     H59286   1.112   1.172   9.988 -0.2605 -0.6989 -1.2551
  430MOL0     H59287   1.306   1.247  10.147  0.0756  0.4344 -0.5624
  430MOL0     H59288   1.237   1.075  10.128  0.6150  1.7293  1.8979
  430MOL0     H59289   1.556   1.294  10.101 -1.1426  0.8881  0.4426
  430MOL0     H59290   1.849   1.068  10.036  1.3064 -0.3842 -1.7959
  430MOL0     H59291   1.803   1.241  10.050 -1.1411  0.3909 -0.8717
  430MOL0     H59292   1.848   1.063   9.805 -1.1689  0.8675  0.6031
  430MOL0     H59293   1.738   1.193   9.791 -2.5538 -1.7051  0.8551
  430MOL0     H59294   1.958   1.220   9.699 -4.1991 -0.1259 -0.8866
  430MOL0     H59295   1.946   1.348   9.824  2.2855 -0.4020 -2.2652
  430MOL0     H59296   2.178   1.259   9.829 -1.4253  0.2747 -0.7987
  430MOL0     H59297   2.098   1.203   9.975  1.8149 -1.2172 -1.1213
  430MOL0     H59298   2.195   0.871   9.714 -0.1824  0.3206 -1.5940
  430MOL0     H59299   2.341   0.718   9.589  2.2191 -1.6617 -3.0494
  430MOL0     H59300   2.467   0.671   9.720  1.5547 -0.9091 -2.8231
  430MOL0     H59301   2.504   0.759   9.571 -1.2375 -0.3012 -2.0089
  430MOL0     H59302   2.856   0.664   9.897  2.7935 -2.0538  0.9308
  430MOL0     H59303   3.091   0.605   9.864  0.2943  2.8155  0.8873
  430MOL0     H59304   3.294   0.432   9.541 -2.7323  0.3282 -0.8753
  430MOL0     H59305   3.204   0.537   9.443  1.4583  0.0467 -1.8795
  430MOL0     H59306   3.377   0.715   9.541  4.0096 -0.3083  1.1406
  430MOL0     H59307   3.483   0.586   9.565 -0.4201 -0.9556  2.3156
  430MOL0     H59308   3.488   0.541   9.328  0.2417 -1.0743  1.5164
  430MOL0     H59309   3.541   0.695   9.377  0.1926 -1.5518  1.5420
  430MOL0     H59310   3.293   0.793   9.314 -1.8020 -1.8116  2.9224
  430MOL0     H59311   3.269   0.627   9.245 -0.4421  0.8910 -0.3769
  430MOL0     H59312   3.468   0.657   9.101 -1.6384 -1.5536  0.7999
  430MOL0     H59313   3.328   0.762   9.054 -0.0553  1.1627 -0.5546
  430MOL0     H59314   3.570   0.858   9.217  2.0607 -0.7216 -0.7608
  430MOL0     H59315   3.418   0.946   9.200  3.3926  1.2122  1.8797
  430MOL0     H59316   3.624   0.855   8.993 -0.1194 -1.1613  1.2820
  430MOL0     H59317   3.599   1.025   9.051 -0.4107  0.3924 -1.7191
  430MOL0     H59318   3.418   0.881   8.871  0.4659  0.0390 -1.0284
  430MOL0     H59319   3.517   1.018   8.837 -0.7213 -1.6663 -0.5576
  430MOL0     H59320   3.051   0.670   9.447  3.4406 -0.8137  0.4138
  430MOL0     H59321   2.820   0.761   9.481  0.2795 -0.1338  0.0037
  430MOL0     H59322   2.572   1.118   9.902  1.3396 -0.4944 -1.7801
  430MOL0     H59323   2.362   1.204   9.935 -2.2042 -1.5091  2.8411
  430MOL0     H59324   1.257   1.141   9.235  0.6467 -1.2097  0.9969
  430MOL0     H59325   1.387   1.168   9.033 -1.3052  1.3111 -2.0027
  430MOL0     H59326   1.635   1.261   8.637 -2.1835 -0.8643  2.2680
  430MOL0     H59327   1.726   1.398   8.458  2.6003  2.2277 -0.9156
  430MOL0     H59328   1.785   1.820   8.399  1.1833  1.4767  2.0302
  430MOL0     H59329   1.795   1.738   8.558 -1.1909 -2.1894  0.4976
  430MOL0     H59330   1.905   1.672   8.295 -2.0245  0.1319  0.1012
  430MOL0     H59331   1.900   1.543   8.426  0.8084 -0.6922 -1.9349
  430MOL0     H59332   2.035   1.802   8.422 -0.7698 -0.4599 -2.6645
  430MOL0     H59333   2.029   1.713   8.570 -2.1137 -0.3656 -1.1250
  430MOL0     H59334   2.242   1.699   8.428  0.2422 -0.1761  3.0733
  430MOL0     H59335   2.151   1.602   8.306  1.1066 -0.1534  0.6269
  430MOL0     H59336   2.211   1.365   8.669 -3.6403  0.6947  1.4674
  430MOL0     H59337   1.475   1.736   8.573 -1.0965 -0.3725 -0.6610
  430MOL0     H59338   1.273   1.566   8.753 -0.7258  2.0661 -2.4359
  430MOL0     H59339   1.381   1.626   8.886 -0.6789 -0.9045 -0.9520
  430MOL0     H59340   1.350   1.725   8.745 -1.6850 -0.3760 -1.4680
  431MOL0     O59341   3.425   9.816   0.317 -0.3914  0.8004  0.5063
  431MOL0     C59342   3.442   9.753   0.207  0.6280  0.7110  0.0253
  431MOL0     O59343   3.344   9.728   0.108 -0.0503  0.8178  0.1884
  431MOL0     C59344   3.247   9.818   0.109  0.3486 -0.6252 -0.9899
  431MOL0     C59345   3.251   9.891  -0.005  0.1329  0.1546 -0.2227
  431MOL0     C59346   3.147   9.987  -0.037  0.0855 -0.8622 -1.1153
  431MOL0     C59347   3.043   9.995   0.054  0.2283 -0.4096 -0.1017
  431MOL0     O59348   2.929  10.066   0.039 -0.1836  0.3791  0.3016
  431MOL0     C59349   2.875  10.078  -0.091 -0.0567 -0.6091 -0.0629
  431MOL0     C59350   2.729  10.112  -0.100 -0.3335 -0.4916 -0.7151
  431MOL0     C59351   2.703  10.238  -0.017 -0.8333  0.6433  0.0583
  431MOL0     C59352   2.547  10.274  -0.027  0.6503  0.4702 -0.4077
  431MOL0     C59353   2.454  10.206   0.081  0.4427  0.3539 -0.8430
  431MOL0     C59354   2.302  10.233   0.087 -0.7503  0.6811  0.1239
  431MOL0     C59355   2.214  10.132   0.172  0.2408 -0.7890  0.0138
  431MOL0     C59356   2.239  10.158   0.323  0.0631 -0.4600  0.7173
  431MOL0     N59357   2.179  10.065   0.419  0.0664  0.6007  0.6256
  431MOL0     C59358   2.105  10.110   0.519  0.3319 -0.0732 -0.6995
  431MOL0     C59359   2.129  10.031   0.625 -0.0377 -0.6112 -1.2475
  431MOL0     C59360   2.092  10.047   0.772  0.4367  0.2376 -0.1026
  431MOL0     C59361   1.998   9.941   0.806 -0.1989  0.0496  0.6285
  431MOL0     C59362   1.906   9.954   0.933  0.7863  0.6319 -0.2675
  431MOL0     C59363   1.843   9.808   0.957 -0.2336 -0.2766  0.5294
  431MOL0     O59364   1.817   9.778   1.099 -0.6542  0.9185 -0.0728
  431MOL0     C59365   1.725   9.845   1.170 -0.0781  0.2829 -1.1229
  431MOL0     C59366   1.612   9.898   1.120  0.0454  0.2412  0.0473
  431MOL0     C59367   1.512   9.955   1.205  0.1895 -0.0498 -0.7516
  431MOL0     C59368   1.387  10.009   1.150  0.4230 -0.2707  0.4036
  431MOL0     C59369   1.530   9.950   1.347  0.1718 -0.4251 -0.5363
  431MOL0     C59370   1.433  10.006   1.442  0.6119 -0.2955  0.5869
  431MOL0     O59371   1.459   9.970   1.572 -0.2551  0.0404 -0.3718
  431MOL0     C59372   1.411  10.070   1.651  0.2411  0.4673  0.8986
  431MOL0     C59373   1.301  10.056   1.732 -0.3172  0.6974 -0.5724
  431MOL0     C59374   1.266  10.161   1.821 -0.0344  0.6387  0.9911
  431MOL0     C59375   1.340  10.284   1.821 -0.2266  0.4011  0.0367
  431MOL0     O59376   1.305  10.383   1.909  0.6945 -0.8625 -0.9643
  431MOL0     C59377   1.340  10.521   1.892  0.1149 -0.5605  0.5106
  431MOL0     C59378   1.313  10.610   2.013 -0.0888  0.3881  0.1412
  431MOL0     C59379   1.173  10.670   2.006 -0.6169  0.2434 -0.2239
  431MOL0     C59380   1.105  10.700   2.140 -1.2625 -0.2963 -0.4528
  431MOL0     C59381   1.168  10.823   2.204  0.3561 -0.4032  0.2357
  431MOL0     C59382   1.104  10.844   2.343 -0.7112  0.1472 -0.4238
  431MOL0     C59383   1.184  10.942   2.417 -0.4943  0.8695 -0.0599
  431MOL0     C59384   1.164  10.923   2.571 -0.7201 -0.3580  0.1635
  431MOL0    Cl59385   1.228  10.755   2.628  0.0136  0.5143  0.2621
  431MOL0     C59386   1.449  10.299   1.735  1.2910  0.0477 -0.3167
  431MOL0     C59387   1.478  10.193   1.651 -0.0481 -0.1519 -0.4632
  431MOL0     O59388   1.353  10.091   1.406  0.0749 -0.5362  0.1122
  431MOL0     C59389   1.651   9.903   1.396 -0.7334  0.4490 -0.9731
  431MOL0     C59390   1.749   9.857   1.305 -0.8531 -0.1638  0.2741
  431MOL0     N59391   2.227   9.940   0.576  0.6432 -0.0331 -0.1971
  431MOL0     N59392   2.253   9.965   0.455  0.2542  0.4736  0.3937
  431MOL0     C59393   3.037   9.910   0.170 -0.4536  0.1061 -1.1762
  431MOL0     C59394   3.137   9.821   0.197 -0.9553 -0.4889 -0.0978
  431MOL0     C59395   3.574   9.688   0.183  0.2432  0.0056 -1.5309
  431MOL0     C59396   3.615   9.664   0.053 -0.3088 -0.3104 -0.1773
  431MOL0     C59397   3.737   9.604   0.019  0.1566  0.5718 -0.9714
  431MOL0     C59398   3.830   9.563   0.119  0.4094 -0.5220  0.5442
  431MOL0     O59399   3.944   9.492   0.090 -0.2428  0.0650  0.1155
  431MOL0     C59400   3.981   9.436  -0.037 -1.1077 -1.1892  0.0092
  431MOL0     C59401   4.102   9.523  -0.094 -0.3568  0.0885 -0.0511
  431MOL0     C59402   4.215   9.543   0.012  0.4358  0.0142 -0.3243
  431MOL0     C59403   4.264   9.414   0.068  0.4172  0.6695  0.1498
  431MOL0     C59404   4.362   9.341  -0.013  0.9102 -0.2596 -0.5186
  431MOL0     C59405   4.428   9.288  -0.093 -0.0501  0.8466  0.5559
  431MOL0     C59406   3.787   9.581   0.257 -0.0917  0.9652  0.4613
  431MOL0     C59407   3.657   9.635   0.290  0.6016 -0.0813  0.7264
  431MOL0     C59408   3.616   9.643   0.436  0.0335 -0.1595 -0.4588
  431MOL0     H59409   3.339   9.881  -0.068  2.0936  0.9273  2.2290
  431MOL0     H59410   3.160  10.040  -0.130  1.7379 -2.5100 -1.8871
  431MOL0     H59411   2.871   9.989  -0.154 -2.5423 -0.0754 -0.7703
  431MOL0     H59412   2.929  10.151  -0.152 -0.7825 -1.5969 -1.9752
  431MOL0     H59413   2.699  10.126  -0.204  0.6958 -1.8649 -1.2226
  431MOL0     H59414   2.684  10.022  -0.056  3.3253 -1.9300  0.5004
  431MOL0     H59415   2.746  10.216   0.081  0.9810  1.0013 -0.6209
  431MOL0     H59416   2.753  10.326  -0.057  2.8240 -0.5693  1.5218
  431MOL0     H59417   2.535  10.382  -0.016 -0.7252  0.5332 -2.0626
  431MOL0     H59418   2.510  10.241  -0.125  0.1295  2.9108 -1.1114
  431MOL0     H59419   2.500  10.227   0.178 -0.6420  3.4211 -0.9064
  431MOL0     H59420   2.464  10.099   0.060 -0.3051  0.5325 -2.1784
  431MOL0     H59421   2.286  10.339   0.110  1.2025  1.6607 -2.5253
  431MOL0     H59422   2.273  10.220  -0.017 -0.4724  1.8823 -0.1198
  431MOL0     H59423   2.242  10.026   0.162 -0.7069 -1.6273  4.1929
  431MOL0     H59424   2.113  10.156   0.138  2.1838  3.9511 -3.5620
  431MOL0     H59425   2.342  10.156   0.358 -0.3934 -3.0274  2.1337
  431MOL0     H59426   2.193  10.254   0.349 -0.4217 -0.7588  0.9682
  431MOL0     H59427   2.049  10.202   0.521 -1.2907 -1.0398  0.0213
  431MOL0     H59428   2.053  10.147   0.790  2.8284  1.0248  1.2375
  431MOL0     H59429   2.180  10.027   0.834 -1.2352 -0.9279  2.0182
  431MOL0     H59430   1.924   9.919   0.728  0.3379 -0.4006  0.2315
  431MOL0     H59431   2.055   9.848   0.815  2.0716  1.3495  0.4215
  431MOL0     H59432   1.965   9.974   1.023 -0.0994  2.2634 -0.0080
  431MOL0     H59433   1.836  10.035   0.914  1.2425  0.7903 -1.3106
  431MOL0     H59434   1.753   9.795   0.897 -1.0602  1.3380  1.3233
  431MOL0     H59435   1.916   9.732   0.928 -0.9486 -0.8920  0.3099
  431MOL0     H59436   1.602   9.894   1.012 -0.5525 -1.0643  0.1373
  431MOL0     H59437   1.376   9.991   1.042  1.6960 -2.1300  0.5489
  431MOL0     H59438   1.373  10.114   1.179  0.9436 -0.4681  1.3906
  431MOL0     H59439   1.304   9.955   1.198  1.7978 -2.1050  0.8123
  431MOL0     H59440   1.243   9.966   1.715 -1.4832  0.9953  1.4687
  431MOL0     H59441   1.170  10.161   1.872 -1.8139  1.0385 -2.1109
  431MOL0     H59442   1.443  10.536   1.859  0.8912 -0.1064  2.9569
  431MOL0     H59443   1.286  10.563   1.806  3.2968  2.1329 -0.3793
  431MOL0     H59444   1.332  10.547   2.101 -2.0229 -1.3900 -0.6400
  431MOL0     H59445   1.390  10.687   2.007  1.0936 -0.8469 -1.8142
  431MOL0     H59446   1.111  10.589   1.966  1.0536  0.2408 -3.1454
  431MOL0     H59447   1.182  10.766   1.953  3.2041  0.3842  0.3473
  431MOL0     H59448   1.104  10.603   2.191 -0.1488  0.1725  0.5087
  431MOL0     H59449   0.998  10.723   2.127 -1.6274 -2.1609 -1.0046
  431MOL0     H59450   1.277  10.811   2.207  1.0173  3.6078 -1.4270
  431MOL0     H59451   1.140  10.910   2.144 -1.0929 -1.2224 -0.3361
  431MOL0     H59452   1.096  10.753   2.403  0.7708  0.8617  0.9127
  431MOL0     H59453   1.008  10.894   2.329  0.4746  1.6811 -4.7127
  431MOL0     H59454   1.156  11.048   2.407 -0.1373  1.2667  2.4012
  431MOL0     H59455   1.290  10.923   2.403  0.1510  2.6171  1.9078
  431MOL0     H59456   1.061  10.937   2.606  0.2512  0.6300  2.8771
  431MOL0     H59457   1.217  10.999   2.629 -0.5259 -1.2644  1.2174
  431MOL0     H59458   1.518  10.383   1.741  1.9368 -0.4232 -1.0286
  431MOL0     H59459   1.558  10.221   1.583  0.8874  0.4180  0.8295
  431MOL0     H59460   1.688   9.895   1.498  2.1490 -3.1742 -2.1193
  431MOL0     H59461   1.844   9.817   1.340 -0.8712  0.5551  1.1906
  431MOL0     H59462   2.949   9.900   0.233 -0.4989 -1.4224 -1.4415
  431MOL0     H59463   3.118   9.750   0.277 -3.0642  0.8700  0.6835
  431MOL0     H59464   3.554   9.701  -0.028 -2.6239 -2.8586  0.2734
  431MOL0     H59465   3.758   9.612  -0.088  0.7722  0.7873 -0.8409
  431MOL0     H59466   4.007   9.331  -0.021 -2.0379 -1.6873 -1.5418
  431MOL0     H59467   3.896   9.431  -0.104 -1.4409 -1.5060  0.4500
  431MOL0     H59468   4.062   9.620  -0.124 -0.7290  0.7365  2.3590
  431MOL0     H59469   4.136   9.480  -0.189 -0.6469 -0.0953 -0.0729
  431MOL0     H59470   4.299   9.600  -0.028 -1.2853  1.2709 -2.3479
  431MOL0     H59471   4.164   9.593   0.094 -1.0497 -2.8115  0.6371
  431MOL0     H59472   4.184   9.340   0.077 -2.0181  2.9503 -1.3277
  431MOL0     H59473   4.317   9.436   0.161 -0.4745 -1.6711  1.2874
  431MOL0     H59474   4.477   9.234  -0.171  0.0869  4.0647 -1.8084
  431MOL0     H59475   3.862   9.553   0.330 -0.3895  0.5535  0.6141
  431MOL0     H59476   3.676   9.569   0.490  1.7133  1.0886 -0.5371
  431MOL0     H59477   3.617   9.747   0.467 -0.8223  1.0279 -3.9315
  431MOL0     H59478   3.514   9.609   0.453 -0.1853  0.9141  0.4288
  432MOL0     O59479   3.494  10.671   2.144 -0.1284 -0.6462 -0.3473
  432MOL0     C59480   3.579  10.587   2.115 -0.7003  0.9322  0.7947
  432MOL0     O59481   3.706  10.610   2.045 -0.0039 -0.8442  0.2701
  432MOL0     C59482   3.716  10.731   1.986  0.7827  0.5136  0.1077
  432MOL0     C59483   3.618  10.781   1.892 -0.2809 -0.1540  0.6507
  432MOL0     C59484   3.633  10.903   1.831 -0.2731 -0.0271  0.4389
  432MOL0     C59485   3.748  10.982   1.854  0.0471  0.5667  0.3367
  432MOL0     O59486   3.774  11.099   1.788 -0.1696  0.5737 -0.2162
  432MOL0     C59487   3.759  11.108   1.650 -1.2505 -1.2236 -1.0691
  432MOL0     C59488   3.700  11.240   1.607  0.6180 -0.3025 -0.4813
  432MOL0     C59489   3.546  11.224   1.621 -0.4425 -0.3968 -0.0896
  432MOL0     C59490   3.471  11.361   1.605 -0.2188  1.0740  0.4600
  432MOL0     C59491   3.323  11.359   1.625  0.3330 -0.1107  0.0821
  432MOL0     C59492   3.247  11.229   1.584  0.0222  0.8616  0.5415
  432MOL0     C59493   3.216  11.223   1.435  0.0252 -0.9560  0.2045
  432MOL0     C59494   3.165  11.082   1.407  0.4762 -0.5165  0.5015
  432MOL0     N59495   3.278  10.987   1.406  0.1680 -0.5554  0.5352
  432MOL0     C59496   3.361  10.961   1.298  0.7729 -0.6252  0.5513
  432MOL0     C59497   3.441  10.853   1.325 -1.1005 -0.6876 -0.5331
  432MOL0     C59498   3.551  10.796   1.240 -0.1311  0.8382  1.4068
  432MOL0     C59499   3.626  10.684   1.323  0.3586 -0.2493 -0.3371
  432MOL0     C59500   3.728  10.606   1.243  0.3854 -0.2042  0.5627
  432MOL0     C59501   3.664  10.555   1.104  0.2411  1.4667  1.2091
  432MOL0     O59502   3.670  10.657   0.999 -0.3176  0.5851  0.3596
  432MOL0     C59503   3.795  10.680   0.933  0.7696 -0.2330 -0.4528
  432MOL0     C59504   3.794  10.766   0.832  0.3359 -0.2940 -0.5800
  432MOL0     C59505   3.911  10.804   0.756 -0.8867  0.1578  0.6982
  432MOL0     C59506   3.897  10.907   0.648 -0.6400 -0.1699  0.0398
  432MOL0     C59507   4.028  10.740   0.785 -0.7455  0.0180 -0.2299
  432MOL0     C59508   4.161  10.766   0.729  0.6227 -1.5695  0.5946
  432MOL0     O59509   4.224  10.653   0.698  0.2250  0.3388  0.6380
  432MOL0     C59510   4.338  10.648   0.621  0.6769 -0.5416 -0.1232
  432MOL0     C59511   4.330  10.628   0.483  0.6194 -0.2228 -0.2299
  432MOL0     C59512   4.443  10.628   0.408 -0.2806 -0.0057 -0.4339
  432MOL0     C59513   4.564  10.645   0.464 -0.6219 -0.4129 -0.8897
  432MOL0     O59514   4.673  10.643   0.381 -0.5067  0.3738 -0.7178
  432MOL0     C59515   4.789  10.562   0.421  1.4283 -0.0757 -0.9048
  432MOL0     C59516   4.889  10.574   0.313 -0.0895  0.3917 -0.0636
  432MOL0     C59517   4.922  10.722   0.270 -0.2284 -0.3622 -0.8392
  432MOL0     C59518   5.010  10.791   0.372 -0.1622 -0.2427  0.2925
  432MOL0     C59519   5.154  10.740   0.368 -0.5204 -0.3631 -0.0770
  432MOL0     C59520   5.234  10.756   0.231  0.8514  0.0142  0.6838
  432MOL0     C59521   5.214  10.887   0.155  0.3383  0.4493 -0.5900
  432MOL0     C59522   5.290  10.892   0.021 -0.3773 -1.0959  0.0811
  432MOL0    Cl59523   5.477  10.880   0.064 -0.1898  0.6353 -0.1783
  432MOL0     C59524   4.569  10.675   0.605  0.3221  0.2195  0.4194
  432MOL0     C59525   4.455  10.674   0.685 -0.4877  0.4566 -0.6668
  432MOL0     O59526   4.201  10.880   0.724 -0.0846  0.0177  0.0587
  432MOL0     C59527   4.038  10.651   0.895  1.1077 -0.2856 -0.6414
  432MOL0     C59528   3.919  10.622   0.960 -0.4567 -0.8010 -0.0527
  432MOL0     N59529   3.418  10.820   1.464 -0.0745 -0.4050  0.2594
  432MOL0     N59530   3.324  10.894   1.506  0.3802 -0.8704 -0.1216
  432MOL0     C59531   3.833  10.935   1.960  0.4927  0.1099 -0.2302
  432MOL0     C59532   3.823  10.809   2.019  0.3727  0.4746 -0.2647
  432MOL0     C59533   3.554  10.443   2.147 -0.7892  0.4758  0.6240
  432MOL0     C59534   3.585  10.345   2.056 -0.5453  0.2016  0.2948
  432MOL0     C59535   3.558  10.210   2.073 -0.7992  0.0528  0.4925
  432MOL0     C59536   3.495  10.163   2.185  0.4108  0.2396 -0.6020
  432MOL0     O59537   3.490  10.028   2.206  0.8754 -0.2201 -0.1755
  432MOL0     C59538   3.414   9.969   2.314 -0.6703 -0.2148  0.8943
  432MOL0     C59539   3.417   9.816   2.306  1.3030  0.0450  0.8826
  432MOL0     C59540   3.324   9.774   2.189 -0.1398 -0.0361  1.5580
  432MOL0     C59541   3.187   9.828   2.188 -0.2010 -0.3740 -0.1234
  432MOL0     C59542   3.102   9.783   2.080 -0.2218  0.0294  0.2583
  432MOL0     C59543   3.040   9.721   1.996  0.3306 -0.4769 -0.2404
  432MOL0     C59544   3.470  10.258   2.287 -0.1431 -0.3821  0.7421
  432MOL0     C59545   3.496  10.395   2.266 -0.3789 -0.7923  0.1864
  432MOL0     C59546   3.466  10.494   2.378 -0.2618  0.2380 -0.4184
  432MOL0     H59547   3.533  10.727   1.852  0.1331  0.3364 -0.9356
  432MOL0     H59548   3.551  10.925   1.762  0.1760 -1.5716 -0.6409
  432MOL0     H59549   3.711  11.016   1.614  0.0480 -2.1333 -0.5513
  432MOL0     H59550   3.863  11.109   1.617 -0.7461  1.4106  0.3194
  432MOL0     H59551   3.749  11.319   1.663  1.7678 -1.8275  0.7572
  432MOL0     H59552   3.728  11.253   1.501  0.9597  2.1448 -0.1458
  432MOL0     H59553   3.517  11.149   1.547  0.4404 -2.5176  1.6128
  432MOL0     H59554   3.527  11.176   1.717  0.5733 -5.0842 -1.9659
  432MOL0     H59555   3.511  11.424   1.685 -1.1476  2.4609 -0.1320
  432MOL0     H59556   3.490  11.414   1.511  1.3173  0.0726  0.1649
  432MOL0     H59557   3.282  11.451   1.583  0.9659 -1.1937 -3.2267
  432MOL0     H59558   3.303  11.356   1.733 -1.7314  2.0322 -0.1724
  432MOL0     H59559   3.283  11.134   1.625  0.4219  0.3421 -0.9756
  432MOL0     H59560   3.154  11.256   1.637  0.3177  0.3678  1.3348
  432MOL0     H59561   3.311  11.241   1.384 -0.3128 -0.4422 -0.2483
  432MOL0     H59562   3.149  11.309   1.429  0.4331 -0.2293  3.6932
  432MOL0     H59563   3.084  11.060   1.478  1.5389  1.3296  2.4147
  432MOL0     H59564   3.117  11.080   1.309  0.2308  0.3014  0.5956
  432MOL0     H59565   3.367  11.022   1.209 -0.9783  0.3388  1.0609
  432MOL0     H59566   3.629  10.864   1.205  0.3065 -0.8934 -1.2173
  432MOL0     H59567   3.500  10.738   1.163 -0.8324 -2.6499  4.2038
  432MOL0     H59568   3.678  10.721   1.411  2.7489  0.8541 -2.0957
  432MOL0     H59569   3.559  10.605   1.358 -0.6275 -0.7978 -3.1422
  432MOL0     H59570   3.811  10.673   1.220 -2.0882  2.5397 -1.0035
  432MOL0     H59571   3.748  10.518   1.305 -0.8387 -0.8998  0.0179
  432MOL0     H59572   3.725  10.471   1.069 -1.5588 -0.2684  2.0670
  432MOL0     H59573   3.564  10.511   1.108  0.5609 -0.0349 -3.0054
  432MOL0     H59574   3.703  10.821   0.812  0.2997 -1.2680 -3.4439
  432MOL0     H59575   3.821  10.864   0.583  0.5963 -0.5631 -1.2154
  432MOL0     H59576   3.987  10.909   0.586  1.4029  0.7812  2.7789
  432MOL0     H59577   3.868  11.002   0.694 -1.6250  1.0243 -2.8544
  432MOL0     H59578   4.232  10.632   0.436  1.4914  3.8703 -2.1672
  432MOL0     H59579   4.429  10.628   0.300 -2.1389 -1.4679 -0.2501
  432MOL0     H59580   4.842  10.593   0.511  1.8918  1.7230 -1.7403
  432MOL0     H59581   4.758  10.457   0.425  2.4169 -0.3444  0.0987
  432MOL0     H59582   4.970  10.506   0.340  0.0638 -0.3721 -2.2406
  432MOL0     H59583   4.837  10.522   0.232  1.2972 -3.2162  1.1608
  432MOL0     H59584   4.822  10.764   0.276  0.2818  1.4126 -3.5818
  432MOL0     H59585   4.964  10.735   0.170  4.3867  3.0997  1.1646
  432MOL0     H59586   4.979  10.785   0.477 -5.4052 -1.7571 -1.0421
  432MOL0     H59587   5.014  10.894   0.335  2.4529 -0.5720 -0.5543
  432MOL0     H59588   5.205  10.798   0.444 -0.9330 -0.5068  0.3150
  432MOL0     H59589   5.152  10.637   0.405  0.5937 -0.2328  0.3714
  432MOL0     H59590   5.217  10.674   0.161  1.4665  0.8551 -0.4876
  432MOL0     H59591   5.337  10.753   0.268  0.8733 -0.9898  0.5860
  432MOL0     H59592   5.231  10.975   0.218 -1.2334  0.3353  0.0275
  432MOL0     H59593   5.107  10.900   0.134  0.0569  0.8048  0.9596
  432MOL0     H59594   5.288  10.987  -0.034  0.0289 -0.4784  1.1093
  432MOL0     H59595   5.265  10.817  -0.055 -0.3323 -0.2758 -0.7597
  432MOL0     H59596   4.671  10.686   0.641  0.8024 -2.1816 -0.0573
  432MOL0     H59597   4.479  10.682   0.791 -1.4342  0.2828 -0.4251
  432MOL0     H59598   4.133  10.612   0.928  1.9701  1.3204 -1.1340
  432MOL0     H59599   3.929  10.559   1.048 -1.8601  1.5881  1.9384
  432MOL0     H59600   3.918  10.995   1.991  3.3889 -3.8587  0.3423
  432MOL0     H59601   3.892  10.774   2.095  1.5665  3.0954 -0.0100
  432MOL0     H59602   3.641  10.369   1.967 -0.4753 -0.5460  0.1274
  432MOL0     H59603   3.602  10.137   2.006  0.3625  0.5338  0.6966
  432MOL0     H59604   3.450  10.003   2.412 -1.2397  3.6491 -0.0497
  432MOL0     H59605   3.314  10.014   2.306  0.6968  3.1904  1.2698
  432MOL0     H59606   3.386   9.787   2.407 -1.0194 -3.7245 -0.6850
  432MOL0     H59607   3.517   9.774   2.296  3.0070  3.6507  0.9762
  432MOL0     H59608   3.382   9.778   2.096 -1.8295  1.6010  0.4961
  432MOL0     H59609   3.313   9.666   2.200 -2.1136  0.0658  0.9445
  432MOL0     H59610   3.183   9.937   2.181  1.4101 -0.3447 -1.1361
  432MOL0     H59611   3.141   9.812   2.286  1.7528  1.2560  1.1447
  432MOL0     H59612   2.968   9.659   1.947 -0.9845  1.5452 -0.9899
  432MOL0     H59613   3.433  10.233   2.386 -3.7686 -0.7375 -0.5494
  432MOL0     H59614   3.374  10.544   2.347  0.2410 -0.8225 -4.1755
  432MOL0     H59615   3.468  10.432   2.468 -0.7118 -1.2181 -1.3786
  432MOL0     H59616   3.537  10.576   2.396 -1.0873  0.2936  3.2566
  433MOL0     O59617   7.723   3.207  10.567  0.2051  0.3009  0.4755
  433MOL0     C59618   7.708   3.101  10.512  0.1780  0.2684 -0.3278
  433MOL0     O59619   7.593   3.064  10.439  0.2774 -0.3084  0.5023
  433MOL0     C59620   7.534   3.168  10.357 -0.8059 -0.0492  0.3504
  433MOL0     C59621   7.412   3.134  10.295  0.1200 -1.0735  0.4970
  433MOL0     C59622   7.354   3.206  10.183 -0.1800  0.2434  0.0672
  433MOL0     C59623   7.422   3.321  10.139  0.5325 -0.2214  0.3508
  433MOL0     O59624   7.353   3.396  10.039 -1.0330  0.6963  0.3080
  433MOL0     C59625   7.346   3.337   9.910  0.0672 -0.9068  0.1525
  433MOL0     C59626   7.233   3.416   9.836 -0.2578 -0.3959 -0.8344
  433MOL0     C59627   7.265   3.572   9.839  0.9089  0.9491 -0.2897
  433MOL0     C59628   7.204   3.657   9.724  0.1727  0.5895 -0.4210
  433MOL0     C59629   7.243   3.801   9.715  1.0026  0.2652 -0.4418
  433MOL0     C59630   7.204   3.891   9.833  0.0531  0.4126 -0.2734
  433MOL0     C59631   7.051   3.849   9.869 -0.0691 -0.3845  0.5817
  433MOL0     C59632   6.990   3.938   9.975  0.3056 -0.4706 -0.4359
  433MOL0     N59633   6.883   3.876  10.064  0.4712 -0.1714 -0.9147
  433MOL0     C59634   6.753   3.856  10.040 -0.1513  0.3624 -0.0277
  433MOL0     C59635   6.704   3.773  10.138 -0.2360  0.4430  0.1940
  433MOL0     C59636   6.552   3.725  10.165 -0.2690  0.0089 -0.1823
  433MOL0     C59637   6.535   3.601  10.255 -0.7436 -0.6679  0.3130
  433MOL0     C59638   6.550   3.481  10.166 -0.0193  0.0631 -0.1390
  433MOL0     C59639   6.528   3.361  10.253 -0.0696  0.1805 -0.4309
  433MOL0     O59640   6.535   3.243  10.169 -0.9704  0.6425 -0.6284
  433MOL0     C59641   6.506   3.125  10.229  0.3185  0.3458  0.0261
  433MOL0     C59642   6.511   3.007  10.151 -0.6214 -0.3653  0.2760
  433MOL0     C59643   6.483   2.884  10.201  0.7778  0.2954 -0.1894
  433MOL0     C59644   6.504   2.762  10.105 -0.1457 -0.1968 -0.3056
  433MOL0     C59645   6.441   2.872  10.334 -0.0344 -0.7165 -0.9314
  433MOL0     C59646   6.402   2.740  10.408  0.1362 -0.8516  1.1363
  433MOL0     O59647   6.305   2.762  10.507 -0.4674 -0.5046 -0.2798
  433MOL0     C59648   6.244   2.655  10.562  1.1224  0.1895 -0.4932
  433MOL0     C59649   6.135   2.590  10.500 -0.4281  0.4925  0.0057
  433MOL0     C59650   6.075   2.489  10.572 -0.3138  0.0518 -0.4859
  433MOL0     C59651   6.128   2.442  10.700  0.0554 -0.7125  0.0230
  433MOL0     O59652   6.067   2.326  10.749 -0.0760 -0.4726 -0.3118
  433MOL0     C59653   6.131   2.274  10.870  0.3311 -0.2641 -0.0616
  433MOL0     C59654   6.031   2.162  10.917 -0.0132 -0.2699 -0.2259
  433MOL0     C59655   6.045   2.033  10.838 -0.2868  0.3331  0.5616
  433MOL0     C59656   5.951   1.931  10.899  0.5572  0.5859 -1.1976
  433MOL0     C59657   5.950   1.793  10.832 -0.4710  0.0624 -0.7066
  433MOL0     C59658   5.906   1.816  10.686 -0.4075 -0.1400 -0.1420
  433MOL0     C59659   5.870   1.692  10.616 -0.7335 -0.1059  0.6499
  433MOL0     C59660   5.879   1.703  10.467 -1.1482 -0.6045  0.5359
  433MOL0    Cl59661   6.049   1.683  10.401 -0.7763 -0.4080  0.4077
  433MOL0     C59662   6.229   2.518  10.763  0.0882 -0.0264  0.5988
  433MOL0     C59663   6.282   2.621  10.695 -0.0730 -0.9268  0.6676
  433MOL0     O59664   6.435   2.632  10.364  0.8195  0.8243  0.1195
  433MOL0     C59665   6.438   2.989  10.412  0.2769 -0.0084 -0.6651
  433MOL0     C59666   6.479   3.115  10.363 -0.9825  0.2548 -0.8320
  433MOL0     N59667   6.813   3.729  10.221  0.6421  0.1455  0.0936
  433MOL0     N59668   6.917   3.796  10.174  1.0444 -0.6793 -0.2743
  433MOL0     C59669   7.538   3.359  10.204  0.4333  0.0494  0.5690
  433MOL0     C59670   7.595   3.284  10.312 -0.0324  0.5795  0.5488
  433MOL0     C59671   7.804   2.990  10.547  0.8135  0.6791  1.1271
  433MOL0     C59672   7.758   2.855  10.555  0.4048 -0.6646 -0.2447
  433MOL0     C59673   7.848   2.750  10.577 -0.0817 -0.3919 -0.5508
  433MOL0     C59674   7.980   2.767  10.571 -0.4423 -0.1067 -0.1016
  433MOL0     O59675   8.059   2.657  10.592  0.1918  0.1995  0.1265
  433MOL0     C59676   8.182   2.649  10.519 -0.5505  0.0096 -0.0669
  433MOL0     C59677   8.214   2.497  10.503 -0.4784  0.0111  0.4564
  433MOL0     C59678   8.089   2.431  10.437 -0.6429 -0.0528 -0.0730
  433MOL0     C59679   8.113   2.285  10.397 -0.4054 -0.1643 -0.2115
  433MOL0     C59680   8.187   2.275  10.268 -0.3844 -0.9396 -0.2722
  433MOL0     C59681   8.238   2.292  10.158 -0.1283  0.7974  0.1180
  433MOL0     C59682   8.028   2.898  10.555  0.4071  1.2262 -0.0358
  433MOL0     C59683   7.950   3.010  10.545  0.7647  1.2140  0.4663
  433MOL0     C59684   7.999   3.143  10.507 -0.1982  0.5416 -0.2381
  433MOL0     H59685   7.350   3.047  10.316 -0.0722 -1.2968 -0.8778
  433MOL0     H59686   7.270   3.169  10.125  0.4560 -2.9568  0.9765
  433MOL0     H59687   7.337   3.229   9.923 -0.1091 -0.9657 -0.4321
  433MOL0     H59688   7.438   3.366   9.860 -1.0953 -0.6504 -1.9414
  433MOL0     H59689   7.233   3.381   9.733 -0.6460  1.9696 -1.7145
  433MOL0     H59690   7.133   3.401   9.878  0.4413 -0.2822  0.9811
  433MOL0     H59691   7.215   3.603   9.932 -0.6481 -3.2841  0.5224
  433MOL0     H59692   7.370   3.603   9.831  1.8641 -2.1006 -0.9527
  433MOL0     H59693   7.243   3.612   9.633 -2.0399 -2.0097 -0.2133
  433MOL0     H59694   7.095   3.650   9.712 -0.0292  2.3414  0.0682
  433MOL0     H59695   7.177   3.839   9.637 -0.4466 -0.9417  0.1427
  433MOL0     H59696   7.348   3.809   9.686  0.5020  2.0969 -1.9271
  433MOL0     H59697   7.270   3.867   9.917 -2.3925  1.5123  2.1148
  433MOL0     H59698   7.212   3.997   9.809  0.9577  0.8070  1.6115
  433MOL0     H59699   7.065   3.757   9.927  0.2277  1.0097  2.8339
  433MOL0     H59700   6.983   3.842   9.783  0.5212  1.2589 -0.0677
  433MOL0     H59701   7.059   3.986  10.045 -0.3871 -1.3597  0.8933
  433MOL0     H59702   6.935   4.016   9.921  1.0586 -0.5749 -1.3771
  433MOL0     H59703   6.689   3.909   9.972  0.8436 -1.1119 -2.2307
  433MOL0     H59704   6.487   3.705  10.079  0.2889  0.3429 -0.6913
  433MOL0     H59705   6.499   3.803  10.220 -1.8858 -0.7304 -0.6435
  433MOL0     H59706   6.598   3.617  10.343  2.2402  1.7508 -2.0329
  433MOL0     H59707   6.430   3.594  10.286 -0.5365 -1.6654  0.8149
  433MOL0     H59708   6.483   3.479  10.080  2.2541  2.8733 -2.1806
  433MOL0     H59709   6.650   3.486  10.123  1.2350  3.4673  2.6611
  433MOL0     H59710   6.599   3.369  10.335 -3.2111  2.0578  2.3675
  433MOL0     H59711   6.429   3.359  10.300 -2.1231 -0.5956 -4.3665
  433MOL0     H59712   6.542   3.016  10.048  0.4725  1.4223  0.7113
  433MOL0     H59713   6.439   2.677  10.124 -2.6157  1.9720  1.6550
  433MOL0     H59714   6.605   2.726  10.127  0.2562  2.2583  2.5923
  433MOL0     H59715   6.495   2.801  10.003 -0.8253  1.4017  0.3383
  433MOL0     H59716   6.096   2.620  10.403 -1.8977 -0.8506  0.1381
  433MOL0     H59717   5.994   2.423  10.543  0.1084 -1.9554  2.4520
  433MOL0     H59718   6.227   2.227  10.848  0.7694 -0.0458  1.2792
  433MOL0     H59719   6.145   2.346  10.951  0.0331  0.4193 -0.5964
  433MOL0     H59720   6.056   2.137  11.021 -2.7979 -0.8253  0.3934
  433MOL0     H59721   5.930   2.203  10.917 -0.7653 -2.0067 -1.7791
  433MOL0     H59722   6.141   1.982  10.847 -1.4869 -1.7936  2.5317
  433MOL0     H59723   6.024   2.062  10.734  0.8887  3.3220  1.0633
  433MOL0     H59724   5.853   1.978  10.890  1.6840  3.1968 -0.8317
  433MOL0     H59725   5.972   1.917  11.005 -0.5571  0.8343 -0.9314
  433MOL0     H59726   6.044   1.739  10.844 -1.7122 -2.2746 -0.9527
  433MOL0     H59727   5.874   1.730  10.879  1.7023 -1.2540  1.2103
  433MOL0     H59728   5.989   1.864  10.633 -0.3896 -0.3883 -0.3443
  433MOL0     H59729   5.824   1.887  10.677 -0.3376  0.0769  0.8174
  433MOL0     H59730   5.767   1.666  10.642 -1.4235  1.5357 -0.2790
  433MOL0     H59731   5.950   1.621  10.642  2.1460  2.3911 -0.7591
  433MOL0     H59732   5.844   1.801  10.433 -1.5261 -0.7635  0.4548
  433MOL0     H59733   5.826   1.620  10.418 -0.0817 -1.1475  0.2738
  433MOL0     H59734   6.286   2.479  10.847 -0.7029 -0.6484  0.8594
  433MOL0     H59735   6.367   2.679  10.730  1.0835 -1.7161 -0.7492
  433MOL0     H59736   6.392   2.991  10.510  3.6893  0.5100  1.0610
  433MOL0     H59737   6.470   3.200  10.429  1.1762  3.2761 -4.0765
  433MOL0     H59738   7.589   3.448  10.167  0.6430 -0.5604 -0.6492
  433MOL0     H59739   7.684   3.334  10.350  0.4679  1.1521 -1.2530
  433MOL0     H59740   7.654   2.829  10.538 -0.4134  1.9043  0.4119
  433MOL0     H59741   7.810   2.648  10.573  0.7677 -0.8067  1.0127
  433MOL0     H59742   8.172   2.696  10.420 -2.4897  0.4783  0.3036
  433MOL0     H59743   8.258   2.708  10.571 -0.2836  0.3190 -0.7815
  433MOL0     H59744   8.241   2.461  10.603 -2.4910 -1.3573  0.5512
  433MOL0     H59745   8.302   2.475  10.443 -0.7162 -0.4207  0.2708
  433MOL0     H59746   8.019   2.423  10.521  0.7011 -2.2812  0.9340
  433MOL0     H59747   8.054   2.491  10.353 -0.8819 -2.0547 -1.4959
  433MOL0     H59748   8.020   2.227  10.391  1.6665 -3.9403  1.0589
  433MOL0     H59749   8.174   2.242  10.477 -1.0012  0.0792  0.3895
  433MOL0     H59750   8.274   2.295  10.057 -1.9051 -0.0278 -0.5856
  433MOL0     H59751   8.135   2.901  10.541  0.8428 -3.8611  0.3522
  433MOL0     H59752   7.973   3.219  10.582  0.8663  0.5559  0.1312
  433MOL0     H59753   8.108   3.140  10.508 -0.2032 -1.8803 -0.6050
  433MOL0     H59754   7.972   3.178  10.407  3.7186  1.5840 -1.0848
  434MOL0     O59755   5.684   6.883   8.250  0.1000 -0.2114 -0.1820
  434MOL0     C59756   5.630   6.910   8.137  0.2555 -0.0978 -1.0704
  434MOL0     O59757   5.694   6.968   8.029  0.3605 -0.4337  0.0451
  434MOL0     C59758   5.831   6.997   8.039  0.1255 -0.2971 -1.0967
  434MOL0     C59759   5.876   7.127   8.053 -1.0741 -0.2924  0.3533
  434MOL0     C59760   6.015   7.161   8.079  1.0595  0.2743  0.5898
  434MOL0     C59761   6.113   7.067   8.077 -0.1523 -0.3868  0.1107
  434MOL0     O59762   6.243   7.118   8.086 -0.0634 -0.2329  0.6529
  434MOL0     C59763   6.358   7.035   8.070  0.7118 -0.4232 -0.6269
  434MOL0     C59764   6.486   7.114   8.078 -0.2017 -0.1540 -0.0602
  434MOL0     C59765   6.478   7.251   8.000  0.0683 -0.4720  0.1689
  434MOL0     C59766   6.611   7.333   7.989  0.7768 -1.1200  0.3663
  434MOL0     C59767   6.594   7.467   7.910  0.6295  0.0442 -0.6502
  434MOL0     C59768   6.714   7.507   7.834 -1.1916 -0.0894 -0.4068
  434MOL0     C59769   6.751   7.440   7.702  0.2243  0.0484 -0.8540
  434MOL0     C59770   6.649   7.432   7.601  0.5450  0.5037 -0.8855
  434MOL0     N59771   6.664   7.542   7.510 -0.7157  0.4636  0.2842
  434MOL0     C59772   6.737   7.539   7.396  0.2155  0.0767 -0.9720
  434MOL0     C59773   6.733   7.667   7.341 -0.9624  0.4547  0.7710
  434MOL0     C59774   6.801   7.717   7.217  0.0472 -1.0328 -0.1876
  434MOL0     C59775   6.934   7.787   7.236 -1.0231 -0.4656 -0.3235
  434MOL0     C59776   6.955   7.872   7.357  0.5833  0.0526  0.0277
  434MOL0     C59777   7.105   7.874   7.396 -0.0352 -0.0568  0.1112
  434MOL0     O59778   7.121   7.952   7.517 -0.2380 -0.8905 -0.0074
  434MOL0     C59779   7.121   7.886   7.633 -0.3778 -0.0768  0.1361
  434MOL0     C59780   7.160   7.960   7.746 -0.6037 -0.8083 -0.2077
  434MOL0     C59781   7.143   7.908   7.878  0.4115  0.2288  0.1630
  434MOL0     C59782   7.169   8.004   7.992 -0.7348 -0.1192 -0.0495
  434MOL0     C59783   7.108   7.771   7.897 -0.5946 -0.1006 -0.1495
  434MOL0     C59784   7.085   7.708   8.027 -0.4491 -0.3804  0.1910
  434MOL0     O59785   6.988   7.617   8.018 -0.1129 -0.0345 -1.0247
  434MOL0     C59786   6.957   7.544   8.124  0.3767 -0.0595  1.2838
  434MOL0     C59787   6.851   7.591   8.201  0.8782  1.0008  0.6582
  434MOL0     C59788   6.815   7.523   8.317  0.4157 -0.3998  0.4223
  434MOL0     C59789   6.875   7.405   8.366 -0.5805  0.5026 -0.9974
  434MOL0     O59790   6.831   7.352   8.486 -0.4184 -0.4575  0.3532
  434MOL0     C59791   6.902   7.235   8.531 -0.3813  0.2957  0.5139
  434MOL0     C59792   6.842   7.117   8.455  0.9373  0.7645  0.5283
  434MOL0     C59793   6.687   7.111   8.488 -0.0237 -0.0965  0.3105
  434MOL0     C59794   6.649   7.099   8.637  0.2410  0.4532 -0.2937
  434MOL0     C59795   6.504   7.061   8.663 -0.5180 -0.6878  0.6954
  434MOL0     C59796   6.480   7.018   8.808 -0.5500  0.2217  0.0321
  434MOL0     C59797   6.347   6.948   8.828 -0.0487  0.8322  0.6307
  434MOL0     C59798   6.298   6.973   8.975  0.0362  0.9469 -0.3158
  434MOL0    Cl59799   6.227   7.149   8.991 -0.1637 -0.0280 -0.3688
  434MOL0     C59800   6.989   7.366   8.289 -0.0135 -0.5132  0.4228
  434MOL0     C59801   7.027   7.434   8.172  0.6240 -0.3880  0.4597
  434MOL0     O59802   7.140   7.737   8.129 -0.6803  0.0392  0.2004
  434MOL0     C59803   7.094   7.699   7.781  0.2652 -0.3417 -0.5718
  434MOL0     C59804   7.077   7.751   7.655 -0.1105 -0.0418 -0.7353
  434MOL0     N59805   6.658   7.745   7.419  0.1730 -0.4643  0.1248
  434MOL0     N59806   6.624   7.672   7.522 -0.2396 -0.0625 -1.1043
  434MOL0     C59807   6.071   6.941   8.046 -0.1050  1.0516  0.7009
  434MOL0     C59808   5.934   6.899   8.036 -0.8105  0.2549  0.7074
  434MOL0     C59809   5.483   6.874   8.122  0.3016  0.0421  1.0761
  434MOL0     C59810   5.423   6.896   7.989 -0.7618 -0.9609 -0.3559
  434MOL0     C59811   5.289   6.876   7.958  0.3439 -0.1674 -0.3633
  434MOL0     C59812   5.201   6.831   8.067  0.3956  0.7345  0.8051
  434MOL0     O59813   5.057   6.815   8.056 -0.6659 -0.5238 -0.2863
  434MOL0     C59814   5.003   6.827   7.923  0.2324 -0.1067 -0.5089
  434MOL0     C59815   5.022   6.696   7.841  0.4635 -0.2611  0.2025
  434MOL0     C59816   4.883   6.643   7.799 -0.1543 -0.1779 -0.7137
  434MOL0     C59817   4.775   6.650   7.910 -0.9147  0.1998  0.6207
  434MOL0     C59818   4.693   6.529   7.911  0.1032 -1.0608  0.5203
  434MOL0     C59819   4.631   6.425   7.932 -0.0020 -0.9512 -0.2175
  434MOL0     C59820   5.248   6.807   8.193 -0.2706  0.3283  0.3601
  434MOL0     C59821   5.385   6.824   8.221 -0.2909  1.2657  0.2550
  434MOL0     C59822   5.416   6.769   8.364  0.6170 -1.0734  0.1794
  434MOL0     H59823   5.802   7.206   8.055  1.2735  2.0964 -1.0555
  434MOL0     H59824   6.047   7.259   8.115  0.1054  1.5423 -1.7571
  434MOL0     H59825   6.359   6.980   7.975  1.8198 -1.3740 -0.0945
  434MOL0     H59826   6.355   6.959   8.148  0.6420  1.2977  1.1180
  434MOL0     H59827   6.521   7.126   8.181  2.3453 -0.6819 -0.7876
  434MOL0     H59828   6.562   7.048   8.035 -0.0893 -2.7872  3.6490
  434MOL0     H59829   6.439   7.225   7.902 -0.2468  2.3745 -0.5384
  434MOL0     H59830   6.397   7.312   8.041 -1.3516  1.8409 -5.2259
  434MOL0     H59831   6.649   7.352   8.089  1.6420 -1.8698  0.1992
  434MOL0     H59832   6.692   7.279   7.938 -0.3941  0.1775 -3.1514
  434MOL0     H59833   6.580   7.554   7.975 -1.2227 -0.8189  0.1682
  434MOL0     H59834   6.501   7.477   7.853 -0.4735 -0.5949  0.9788
  434MOL0     H59835   6.710   7.611   7.801 -2.9286 -0.0010 -0.0213
  434MOL0     H59836   6.797   7.493   7.905 -1.4336  2.3485  0.4475
  434MOL0     H59837   6.784   7.340   7.730 -3.0100 -0.8095  0.3276
  434MOL0     H59838   6.836   7.492   7.658  1.3438 -1.3106 -0.3637
  434MOL0     H59839   6.663   7.341   7.542  2.2920 -0.4099  0.8273
  434MOL0     H59840   6.547   7.420   7.640  0.9519  1.5767  0.5785
  434MOL0     H59841   6.797   7.458   7.357  0.8916  1.1746 -2.3218
  434MOL0     H59842   6.741   7.787   7.159  2.8835  0.7841 -1.1080
  434MOL0     H59843   6.810   7.635   7.145 -0.0652 -2.9602  1.8781
  434MOL0     H59844   7.009   7.708   7.226  0.0252  0.5243 -0.4401
  434MOL0     H59845   6.945   7.849   7.146 -1.1592 -1.1975 -0.8585
  434MOL0     H59846   6.911   7.973   7.351 -2.6087 -1.2702 -1.3554
  434MOL0     H59847   6.893   7.837   7.441 -1.0561 -0.0231 -1.1615
  434MOL0     H59848   7.153   7.775   7.403  0.1453 -0.2915 -2.9439
  434MOL0     H59849   7.177   7.917   7.326  0.8798 -0.8555  0.5433
  434MOL0     H59850   7.188   8.060   7.716  2.4373 -1.1657  1.0925
  434MOL0     H59851   7.196   8.106   7.966  3.3180 -1.4044 -1.7511
  434MOL0     H59852   7.260   7.969   8.042  1.3177  3.6872 -0.7820
  434MOL0     H59853   7.082   8.001   8.058  0.0632  1.9474  1.1596
  434MOL0     H59854   6.802   7.685   8.176 -0.0957  0.1487 -0.8161
  434MOL0     H59855   6.733   7.570   8.370  0.1027 -0.3990 -0.0518
  434MOL0     H59856   7.011   7.248   8.534 -0.6393  3.0231 -0.2386
  434MOL0     H59857   6.880   7.223   8.638 -2.3267 -0.4291  0.0723
  434MOL0     H59858   6.856   7.136   8.348 -0.9882 -1.7122 -0.2620
  434MOL0     H59859   6.883   7.021   8.487 -2.8325 -0.0296  3.9144
  434MOL0     H59860   6.637   7.031   8.434  0.7589 -0.4205  0.0496
  434MOL0     H59861   6.634   7.195   8.444  1.8495  0.8102 -0.3287
  434MOL0     H59862   6.668   7.195   8.685  0.2927  0.0852  0.4464
  434MOL0     H59863   6.716   7.034   8.695  0.2732  3.3658  3.3382
  434MOL0     H59864   6.448   7.150   8.633  0.4732 -0.8911 -2.0947
  434MOL0     H59865   6.469   6.982   8.596 -0.5393 -2.4237  2.6518
  434MOL0     H59866   6.497   7.112   8.861 -0.6929 -1.7725  3.9649
  434MOL0     H59867   6.564   6.954   8.838  0.6201  2.1295  1.0381
  434MOL0     H59868   6.357   6.846   8.789  0.0977  0.4838  1.5691
  434MOL0     H59869   6.286   7.001   8.753  0.0386  1.2384  0.8447
  434MOL0     H59870   6.378   6.958   9.048 -1.0783  3.0834  1.4889
  434MOL0     H59871   6.222   6.898   9.000  1.0278 -0.2246 -0.7192
  434MOL0     H59872   7.047   7.278   8.315  1.5200  0.3641  0.1268
  434MOL0     H59873   7.123   7.427   8.123  0.8594 -1.2040  1.0272
  434MOL0     H59874   7.072   7.593   7.783 -0.7283 -0.1502 -0.9124
  434MOL0     H59875   7.046   7.693   7.569  4.2437 -1.5039 -1.6115
  434MOL0     H59876   6.139   6.859   8.026 -1.5279  0.7024 -3.7491
  434MOL0     H59877   5.917   6.793   8.019  1.3231 -0.3631  1.9763
  434MOL0     H59878   5.477   6.949   7.911 -1.0208  0.0733  0.1476
  434MOL0     H59879   5.251   6.903   7.860 -0.9966  0.2465  0.2589
  434MOL0     H59880   4.900   6.861   7.938  0.4015 -0.7228  2.8969
  434MOL0     H59881   5.054   6.904   7.865  1.0761 -0.9061 -0.8617
  434MOL0     H59882   5.076   6.611   7.884 -0.4588 -2.2037 -2.2583
  434MOL0     H59883   5.064   6.719   7.743 -2.0297 -1.5732 -1.2874
  434MOL0     H59884   4.850   6.706   7.716  2.5114  0.7424 -1.1550
  434MOL0     H59885   4.899   6.539   7.770 -0.6009 -1.1252  2.1149
  434MOL0     H59886   4.708   6.736   7.917 -1.8657 -0.6348  2.8835
  434MOL0     H59887   4.827   6.654   8.006  3.2385  2.8093 -1.4647
  434MOL0     H59888   4.580   6.334   7.952  0.9669 -1.6204 -0.6825
  434MOL0     H59889   5.179   6.767   8.266 -0.1761  1.6680  1.2123
  434MOL0     H59890   5.341   6.812   8.430 -1.0237  1.1437 -2.9046
  434MOL0     H59891   5.405   6.660   8.366  0.0654 -1.0160  0.2580
  434MOL0     H59892   5.512   6.803   8.403 -0.7752 -0.0810  2.9792
  435MOL0     O59893   3.153  10.971   9.536  0.0488 -0.1415 -1.2115
  435MOL0     C59894   3.093  10.948   9.640 -0.6017  0.7284 -0.0950
  435MOL0     O59895   3.125  10.992   9.765  0.4220  0.2233  0.0439
  435MOL0     C59896   3.221  11.087   9.788 -0.6639  0.1155  0.7474
  435MOL0     C59897   3.279  11.089   9.908 -0.0033 -0.5917  0.4278
  435MOL0     C59898   3.375  11.183   9.954  0.8261 -0.2681 -0.3536
  435MOL0     C59899   3.414  11.285   9.857 -0.0240 -0.1817 -0.1897
  435MOL0     O59900   3.506  11.375   9.878 -0.7729 -0.8708  0.6524
  435MOL0     C59901   3.582  11.375  10.002  0.3711  0.5628  0.6712
  435MOL0     C59902   3.690  11.477  10.010 -0.1877  0.4476  1.0296
  435MOL0     C59903   3.797  11.444   9.900  0.4018  0.0286 -0.6561
  435MOL0     C59904   3.905  11.551   9.895 -0.2591 -0.4236  0.0919
  435MOL0     C59905   3.990  11.497   9.773 -0.0956 -0.0280 -0.8762
  435MOL0     C59906   4.095  11.597   9.729  0.9448  0.1912  0.3607
  435MOL0     C59907   4.035  11.703   9.625  0.1557  0.4690  0.2459
  435MOL0     C59908   4.148  11.784   9.560  0.4663 -0.6779  0.5840
  435MOL0     N59909   4.235  11.840   9.669 -0.0156 -0.4268  0.5208
  435MOL0     C59910   4.190  11.933   9.762 -0.1505 -0.2424 -0.1086
  435MOL0     C59911   4.298  11.944   9.846  0.2349 -0.1682 -0.3789
  435MOL0     C59912   4.301  12.027   9.968  0.2349 -0.7154  0.4000
  435MOL0     C59913   4.336  12.169   9.932  0.5015 -1.3821 -0.1807
  435MOL0     C59914   4.316  12.266  10.057 -0.6353 -0.3879 -0.3317
  435MOL0     C59915   4.156  12.274  10.092 -0.1119 -0.7843 -0.2382
  435MOL0     O59916   4.092  12.345   9.986  0.4737  0.1376 -1.3943
  435MOL0     C59917   3.962  12.392  10.015  0.6440 -0.3466  0.0022
  435MOL0     C59918   3.883  12.353  10.122  0.4972 -0.0085  0.1391
  435MOL0     C59919   3.755  12.406  10.140 -0.0536 -0.4678 -0.2283
  435MOL0     C59920   3.679  12.374  10.261 -0.6846 -0.0571 -1.0641
  435MOL0     C59921   3.701  12.503  10.053 -0.5582 -0.0609  0.7533
  435MOL0     C59922   3.559  12.555  10.042  0.2619 -0.1117  0.0403
  435MOL0     O59923   3.544  12.670   9.972  0.5551  0.5480  0.1537
  435MOL0     C59924   3.421  12.694   9.906 -0.1284 -0.6607 -0.0870
  435MOL0     C59925   3.357  12.590   9.845 -1.0014  0.4299  0.3704
  435MOL0     C59926   3.235  12.607   9.771  0.8031  0.8862  0.0072
  435MOL0     C59927   3.178  12.737   9.750  0.4265  0.4754  0.7468
  435MOL0     O59928   3.068  12.763   9.665 -0.6423 -0.0761  0.4292
  435MOL0     C59929   2.995  12.650   9.609 -0.2939 -0.4378 -0.7718
  435MOL0     C59930   2.865  12.713   9.561 -0.6040  0.3721 -0.1471
  435MOL0     C59931   2.772  12.625   9.475 -0.0414 -0.3667 -1.1154
  435MOL0     C59932   2.676  12.689   9.385 -0.1282 -0.9746 -0.3101
  435MOL0     C59933   2.574  12.593   9.324  0.7014 -0.7687  0.6319
  435MOL0     C59934   2.474  12.672   9.229  0.6262  0.2103 -0.2651
  435MOL0     C59935   2.380  12.574   9.165 -0.9709  0.5314  0.1147
  435MOL0     C59936   2.271  12.648   9.089  0.3418  0.2403  0.0192
  435MOL0    Cl59937   2.330  12.705   8.929  0.4617  0.1363  1.0656
  435MOL0     C59938   3.251  12.842   9.814  0.5668 -0.0096  1.0268
  435MOL0     C59939   3.373  12.825   9.884  0.6043  1.0786 -0.7554
  435MOL0     O59940   3.463  12.492  10.078 -0.4294 -0.2424  0.8472
  435MOL0     C59941   3.793  12.552   9.952  0.5894 -0.4673 -1.0808
  435MOL0     C59942   3.908  12.487   9.928 -0.0582  0.4614  0.0607
  435MOL0     N59943   4.407  11.869   9.801  0.3656  0.6685 -0.1974
  435MOL0     N59944   4.371  11.822   9.685 -0.9787 -0.3158  0.1417
  435MOL0     C59945   3.368  11.280   9.722  0.3200 -0.5876  0.4003
  435MOL0     C59946   3.269  11.186   9.698 -0.7832 -0.1074  0.5344
  435MOL0     C59947   2.975  10.853   9.627  0.6701  0.4027  0.5692
  435MOL0     C59948   2.950  10.784   9.498  0.0692  0.3452 -0.6706
  435MOL0     C59949   2.834  10.707   9.482 -0.3245  0.5441 -0.5752
  435MOL0     C59950   2.739  10.689   9.591  0.3101  0.1467  0.1804
  435MOL0     O59951   2.625  10.616   9.579 -0.1955  0.3416  0.6275
  435MOL0     C59952   2.592  10.556   9.448 -0.0742 -0.6301 -0.6574
  435MOL0     C59953   2.540  10.670   9.360  0.7531 -0.4642  0.5575
  435MOL0     C59954   2.472  10.598   9.248  0.5145 -0.5892  0.3540
  435MOL0     C59955   2.427  10.698   9.139  0.1121 -0.2467  0.2139
  435MOL0     C59956   2.321  10.777   9.190  0.2869  0.8804  0.9629
  435MOL0     C59957   2.233  10.852   9.230  0.4596 -0.4347 -0.4354
  435MOL0     C59958   2.764  10.751   9.710  0.2118 -0.1714 -0.6829
  435MOL0     C59959   2.878  10.828   9.737 -0.3510 -0.1953 -0.6125
  435MOL0     C59960   2.871  10.894   9.868  0.3660 -0.0661  0.4638
  435MOL0     H59961   3.246  11.018   9.983 -4.2072  1.2886  0.6787
  435MOL0     H59962   3.423  11.164  10.049  1.0579  1.7493 -0.0373
  435MOL0     H59963   3.616  11.272  10.009  0.0425  0.4690  0.9184
  435MOL0     H59964   3.507  11.385  10.081 -2.6562  0.9918 -2.0315
  435MOL0     H59965   3.651  11.578   9.995  0.6153  0.3636 -2.4419
  435MOL0     H59966   3.731  11.462  10.110 -0.6225 -2.3404  0.8694
  435MOL0     H59967   3.839  11.347   9.929  1.5490  0.2443 -1.5016
  435MOL0     H59968   3.747  11.429   9.803 -1.6080  1.1306  0.1551
  435MOL0     H59969   3.857  11.645   9.867  1.5815  0.2268 -1.1144
  435MOL0     H59970   3.972  11.559   9.981  2.0338  1.9815 -1.7271
  435MOL0     H59971   3.929  11.471   9.686 -0.7274  4.7615 -2.1541
  435MOL0     H59972   4.039  11.405   9.808 -0.6192 -0.9230 -2.3961
  435MOL0     H59973   4.140  11.642   9.817  1.4120  1.1241 -0.3391
  435MOL0     H59974   4.173  11.541   9.676  0.6852  2.4651 -2.6732
  435MOL0     H59975   3.961  11.763   9.679  2.1254  1.4367  1.9837
  435MOL0     H59976   3.985  11.661   9.537  0.8513  2.1643 -1.0086
  435MOL0     H59977   4.208  11.719   9.495  0.5189 -1.2102  1.1555
  435MOL0     H59978   4.111  11.862   9.493  1.2243 -1.4845 -0.8431
  435MOL0     H59979   4.091  11.976   9.773  0.5131  1.7497 -1.4054
  435MOL0     H59980   4.369  11.992  10.045  0.9143  2.8967  1.6291
  435MOL0     H59981   4.203  12.048  10.013  0.3358  0.9866 -0.0991
  435MOL0     H59982   4.442  12.181   9.906  0.0395  1.1104 -1.2217
  435MOL0     H59983   4.280  12.199   9.843  0.1089  2.2195  1.1084
  435MOL0     H59984   4.361  12.209  10.139  1.9580 -0.6789 -1.8639
  435MOL0     H59985   4.369  12.358  10.034 -1.3168 -0.5092 -2.6300
  435MOL0     H59986   4.105  12.183  10.123 -0.1192 -1.2023 -1.4308
  435MOL0     H59987   4.152  12.333  10.184 -0.1904 -0.5102 -0.4144
  435MOL0     H59988   3.913  12.255  10.157  0.7948 -0.4839 -1.3753
  435MOL0     H59989   3.602  12.450  10.278 -1.8759 -1.2171 -1.1357
  435MOL0     H59990   3.752  12.367  10.343 -0.3944 -0.6591 -1.3731
  435MOL0     H59991   3.638  12.275  10.240 -2.7118  0.1766  1.2328
  435MOL0     H59992   3.396  12.489   9.851 -1.4970  0.1769 -0.5458
  435MOL0     H59993   3.187  12.514   9.741 -0.5761  1.5773  0.0310
  435MOL0     H59994   3.053  12.600   9.530  0.4187 -1.7400  0.5153
  435MOL0     H59995   2.981  12.578   9.690  6.2554 -0.5285  0.8603
  435MOL0     H59996   2.815  12.757   9.648 -1.2614 -0.4517 -0.0906
  435MOL0     H59997   2.900  12.795   9.497  2.8041 -1.4990 -0.9372
  435MOL0     H59998   2.725  12.545   9.533 -0.2476  0.3251 -0.3152
  435MOL0     H59999   2.841  12.590   9.397  2.5964 -2.3048  1.8238
  435MOL0     H60000   2.737  12.739   9.310  1.1039 -4.2519 -1.7018
  435MOL0     H60001   2.620  12.770   9.431  3.2308  2.4500 -1.7308
  435MOL0     H60002   2.628  12.514   9.271  0.1356 -1.0800  0.5152
  435MOL0     H60003   2.506  12.562   9.404 -0.3131  2.1898  1.0132
  435MOL0     H60004   2.545  12.720   9.161  2.6142 -1.1403  0.7736
  435MOL0     H60005   2.422  12.752   9.284  1.4934  0.4632  0.2024
  435MOL0     H60006   2.330  12.510   9.238  0.2986 -3.0181 -1.8638
  435MOL0     H60007   2.429  12.503   9.097  1.2734 -0.5425  2.6775
  435MOL0     H60008   2.234  12.733   9.148  0.0565 -3.0297  5.0586
  435MOL0     H60009   2.178  12.593   9.072  1.1747 -0.9197 -0.8795
  435MOL0     H60010   3.214  12.938   9.780  0.2814 -1.5165 -3.6708
  435MOL0     H60011   3.436  12.908   9.914  0.1048  1.5348 -0.9591
  435MOL0     H60012   3.767  12.644   9.901 -2.2359  1.0919  2.6960
  435MOL0     H60013   3.974  12.525   9.850  1.5348 -1.7196  0.2596
  435MOL0     H60014   3.395  11.348   9.642 -2.6139 -1.8067 -1.7616
  435MOL0     H60015   3.226  11.187   9.598 -4.4343  2.4427  1.9457
  435MOL0     H60016   3.024  10.780   9.418 -0.7689 -1.7768 -1.3996
  435MOL0     H60017   2.818  10.652   9.391 -2.6120  0.7907 -0.3891
  435MOL0     H60018   2.681  10.514   9.399  0.3469 -0.1680 -0.3028
  435MOL0     H60019   2.510  10.485   9.458 -0.7747  0.2132 -0.3208
  435MOL0     H60020   2.618  10.737   9.325 -1.8308  2.6180  0.2428
  435MOL0     H60021   2.473  10.731   9.421 -0.0599 -0.4071 -0.3713
  435MOL0     H60022   2.538  10.537   9.186 -1.4106  1.0878 -3.7457
  435MOL0     H60023   2.390  10.535   9.285 -1.5128  0.3218 -2.2610
  435MOL0     H60024   2.407  10.655   9.040 -0.1023  3.7836 -1.6793
  435MOL0     H60025   2.513  10.761   9.114 -1.3391  2.6626  2.0424
  435MOL0     H60026   2.146  10.905   9.264  0.2603  1.5235 -3.6138
  435MOL0     H60027   2.683  10.735   9.781  0.6087  1.0211  0.0723
  435MOL0     H60028   2.868  11.003   9.875 -1.1158 -0.1748  2.6108
  435MOL0     H60029   2.777  10.865   9.916 -0.3542  1.9714  0.3398
  435MOL0     H60030   2.950  10.836   9.918  0.0705 -4.2460 -3.3536
  436MOL0     O60031  11.057  10.971  10.088  0.7348  0.1759  0.3042
  436MOL0     C60032  11.038  10.905   9.987 -0.3931  0.1323 -0.5034
  436MOL0     O60033  11.140  10.839   9.917  0.6641  0.3379  0.2990
  436MOL0     C60034  11.277  10.870   9.936 -0.6825 -0.2331  0.0043
  436MOL0     C60035  11.333  10.961  10.028 -0.4509 -0.4592  0.7480
  436MOL0     C60036  11.470  10.987  10.012 -0.5837 -0.8550 -0.0797
  436MOL0     C60037  11.547  10.937   9.904  0.9007  0.6200 -0.3215
  436MOL0     O60038  11.681  10.964   9.876 -0.2136  0.0851 -0.2103
  436MOL0     C60039  11.758  11.041   9.970 -0.3514 -0.2944  0.3592
  436MOL0     C60040  11.738  11.192   9.963 -0.0422 -0.8739 -0.0103
  436MOL0     C60041  11.736  11.245   9.820 -0.6849  0.1165 -0.0362
  436MOL0     C60042  11.760  11.400   9.820  0.4065 -0.1890 -0.0494
  436MOL0     C60043  11.804  11.433   9.677  0.3979 -0.8908  0.7751
  436MOL0     C60044  11.787  11.583   9.657 -0.4463 -0.0598  0.1055
  436MOL0     C60045  11.848  11.640   9.525 -0.2581  0.1006 -0.2284
  436MOL0     C60046  11.827  11.554   9.396  0.1276 -0.5735 -0.5661
  436MOL0     N60047  11.889  11.617   9.279 -0.6679  0.1701 -0.4341
  436MOL0     C60048  12.009  11.685   9.269  0.3222 -0.8132  0.1136
  436MOL0     C60049  12.030  11.688   9.132 -0.5259 -0.0734  0.0915
  436MOL0     C60050  12.164  11.724   9.064  0.0234  0.1427 -0.1479
  436MOL0     C60051  12.153  11.723   8.908  0.1422  0.1117  0.0813
  436MOL0     C60052  12.087  11.857   8.861 -0.7187 -0.4591 -0.7097
  436MOL0     C60053  11.932  11.850   8.837 -0.4562  0.0485 -0.2168
  436MOL0     O60054  11.873  11.977   8.810 -0.3051  0.9481 -0.5655
  436MOL0     C60055  11.742  11.983   8.770 -0.6421 -0.2145  0.1996
  436MOL0     C60056  11.648  11.881   8.801  0.0853  0.5373 -0.7046
  436MOL0     C60057  11.509  11.887   8.769 -0.9023  0.1060  0.3617
  436MOL0     C60058  11.432  11.786   8.830  0.4041 -0.2056 -0.2219
  436MOL0     C60059  11.461  12.005   8.706  0.1205 -0.8031 -0.1008
  436MOL0     C60060  11.318  12.021   8.682 -0.8223 -0.6334  0.4354
  436MOL0     O60061  11.272  12.108   8.575 -0.0503  0.3706  0.5633
  436MOL0     C60062  11.150  12.168   8.583  0.0028 -0.6289 -0.0055
  436MOL0     C60063  11.029  12.101   8.562  0.7639  0.1169 -0.5795
  436MOL0     C60064  10.914  12.179   8.578 -0.0693 -0.2446 -0.8739
  436MOL0     C60065  10.917  12.322   8.581 -0.3130 -0.0465 -0.6898
  436MOL0     O60066  10.806  12.395   8.577 -0.4732 -0.7903  0.8452
  436MOL0     C60067  10.765  12.455   8.698 -0.1655 -1.3151  0.3987
  436MOL0     C60068  10.733  12.369   8.816 -0.1233  0.2217 -1.2327
  436MOL0     C60069  10.615  12.273   8.803  0.4077  0.0665 -0.4161
  436MOL0     C60070  10.495  12.299   8.902 -0.8025  0.3458  0.6909
  436MOL0     C60071  10.377  12.198   8.893  0.3916 -0.4323  1.0959
  436MOL0     C60072  10.256  12.254   8.973  0.2463  0.5773  0.4390
  436MOL0     C60073  10.143  12.156   9.013 -0.0172 -0.1783 -0.4226
  436MOL0     C60074  10.092  12.078   8.894  0.1174  0.6958 -0.1263
  436MOL0    Cl60075  10.044  12.181   8.760  0.0891  0.1443  0.6303
  436MOL0     C60076  11.043  12.387   8.595  0.9171  0.0258  0.1104
  436MOL0     C60077  11.157  12.312   8.598  0.7082 -0.6794  0.5339
  436MOL0     O60078  11.243  11.974   8.764 -0.3631  0.0273  0.0393
  436MOL0     C60079  11.559  12.101   8.660 -0.4856  0.3896 -0.2886
  436MOL0     C60080  11.692  12.088   8.700  0.2222  0.0207  0.2549
  436MOL0     N60081  11.917  11.635   9.067  0.1149  0.5465 -0.3706
  436MOL0     N60082  11.829  11.596   9.160 -0.2485  0.3979  0.1446
  436MOL0     C60083  11.484  10.851   9.813 -0.3047 -0.4649  0.5136
  436MOL0     C60084  11.354  10.824   9.834  0.1763 -0.3031  0.3033
  436MOL0     C60085  10.902  10.881   9.946 -0.7313 -0.2657  0.6670
  436MOL0     C60086  10.810  10.885  10.053 -0.1884  1.1928 -0.0835
  436MOL0     C60087  10.676  10.846  10.035 -0.3682 -0.4928  0.1434
  436MOL0     C60088  10.614  10.833   9.910 -0.8622 -0.0729  0.1206
  436MOL0     O60089  10.481  10.807   9.904  0.7582  0.1946  0.0189
  436MOL0     C60090  10.417  10.740   9.793 -0.1164 -0.1396  0.3217
  436MOL0     C60091  10.270  10.753   9.814 -0.3576 -0.0525  0.7100
  436MOL0     C60092  10.207  10.711   9.952  1.4699  0.1128 -0.9958
  436MOL0     C60093  10.061  10.647   9.953 -0.1879 -0.5867 -0.1300
  436MOL0     C60094   9.953  10.759   9.948  0.1686 -0.0344  0.0078
  436MOL0     C60095   9.879  10.852   9.924  0.0307 -0.0422  1.7354
  436MOL0     C60096  10.704  10.825   9.802 -0.1371 -0.3282  0.2768
  436MOL0     C60097  10.845  10.847   9.818  0.3461 -0.2133 -0.0911
  436MOL0     C60098  10.926  10.833   9.686 -0.1940 -0.5800 -0.0558
  436MOL0     H60099  11.288  11.016  10.111  0.2639  0.1705  0.7330
  436MOL0     H60100  11.504  11.049  10.095  0.4127  2.9200 -3.0431
  436MOL0     H60101  11.855  11.009   9.933 -0.9017 -1.1461 -0.3991
  436MOL0     H60102  11.740  11.007  10.072 -0.4517 -0.5866  0.2444
  436MOL0     H60103  11.658  11.219  10.032  0.5178 -1.7724  1.0260
  436MOL0     H60104  11.829  11.230  10.010  0.0223  1.6189 -1.9269
  436MOL0     H60105  11.821  11.218   9.757 -0.6836  0.9321 -0.4052
  436MOL0     H60106  11.641  11.220   9.772 -0.1027 -0.2017 -1.0441
  436MOL0     H60107  11.666  11.452   9.836 -0.2304 -1.3612  0.1616
  436MOL0     H60108  11.834  11.421   9.898  1.9137  0.9485 -1.7128
  436MOL0     H60109  11.744  11.387   9.598  0.6792 -0.3586  0.2425
  436MOL0     H60110  11.913  11.425   9.671  0.8134  2.9849  0.2257
  436MOL0     H60111  11.689  11.626   9.683  1.7205  2.8040  4.9676
  436MOL0     H60112  11.846  11.635   9.733 -0.4558  2.1344 -1.2806
  436MOL0     H60113  11.953  11.668   9.538  0.3761 -3.0617  2.8200
  436MOL0     H60114  11.788  11.731   9.527  0.0230  0.3124 -0.9224
  436MOL0     H60115  11.862  11.453   9.419 -0.9373 -0.8856 -0.2597
  436MOL0     H60116  11.718  11.548   9.393  0.1197 -1.2825  0.5284
  436MOL0     H60117  12.073  11.706   9.354  0.4973  1.6410 -0.5329
  436MOL0     H60118  12.239  11.654   9.102  2.0528  1.9357 -0.6597
  436MOL0     H60119  12.200  11.815   9.113  2.2636 -0.7976  0.0169
  436MOL0     H60120  12.254  11.723   8.866 -0.2718 -0.2809 -0.9377
  436MOL0     H60121  12.106  11.637   8.861  1.0190  0.2263 -1.0484
  436MOL0     H60122  12.112  11.932   8.937  3.0504  0.6721 -2.7929
  436MOL0     H60123  12.148  11.897   8.779  1.9488 -0.1313  1.2763
  436MOL0     H60124  11.903  11.787   8.753 -1.0422  1.4516 -1.1208
  436MOL0     H60125  11.890  11.830   8.936  1.6406  1.9701  1.1726
  436MOL0     H60126  11.698  11.803   8.857  1.7909  1.5899 -0.6838
  436MOL0     H60127  11.347  11.762   8.765  0.1966  1.7095 -0.7195
  436MOL0     H60128  11.399  11.835   8.922  2.3818  0.1421  0.3413
  436MOL0     H60129  11.492  11.695   8.833  3.4370  1.5686 -2.1164
  436MOL0     H60130  11.023  11.995   8.541 -0.7999  0.0648  0.0257
  436MOL0     H60131  10.816  12.132   8.577 -0.2508  0.1013 -0.3325
  436MOL0     H60132  10.833  12.531   8.737 -3.0762 -0.0639  3.5850
  436MOL0     H60133  10.670  12.507   8.680  0.8785  0.6137  0.1584
  436MOL0     H60134  10.827  12.319   8.843  0.2050 -0.2316 -3.0644
  436MOL0     H60135  10.712  12.441   8.896  0.2104  2.5378 -3.0863
  436MOL0     H60136  10.653  12.172   8.823  1.4247  1.0576  3.8527
  436MOL0     H60137  10.576  12.272   8.701 -2.3906  1.9090  0.5259
  436MOL0     H60138  10.453  12.397   8.875  1.8643  1.5016  0.4864
  436MOL0     H60139  10.534  12.308   9.004 -0.9909  0.4033  0.7606
  436MOL0     H60140  10.362  12.193   8.785 -0.1147  1.1219  1.0705
  436MOL0     H60141  10.414  12.108   8.943 -1.4901 -1.4545  0.7347
  436MOL0     H60142  10.213  12.333   8.910 -1.7656  0.1697  1.2182
  436MOL0     H60143  10.295  12.302   9.063  3.5276 -0.8951 -0.0473
  436MOL0     H60144  10.060  12.214   9.052  0.0809 -2.3730  3.6478
  436MOL0     H60145  10.174  12.086   9.091 -0.9511 -1.4202 -1.1258
  436MOL0     H60146  10.015  12.015   8.939  0.5952  1.0893  1.3022
  436MOL0     H60147  10.179  12.017   8.867  1.8174  3.5623 -1.6337
  436MOL0     H60148  11.037  12.496   8.599 -1.3635 -0.0728  1.6645
  436MOL0     H60149  11.257  12.354   8.599 -0.9297  3.7088  1.9120
  436MOL0     H60150  11.525  12.192   8.612  1.0827 -0.0566 -2.3920
  436MOL0     H60151  11.763  12.161   8.662  0.6348  0.0423  1.0477
  436MOL0     H60152  11.554  10.808   9.742  0.0897  0.0567  0.5790
  436MOL0     H60153  11.297  10.761   9.766 -2.4860  1.0348  1.1567
  436MOL0     H60154  10.840  10.906  10.156  3.1306 -3.0552  0.0913
  436MOL0     H60155  10.614  10.838  10.124  0.6676 -1.1766  0.8203
  436MOL0     H60156  10.446  10.772   9.693 -2.0208 -0.9748 -0.5392
  436MOL0     H60157  10.444  10.635   9.807 -0.2133 -0.3770 -1.1987
  436MOL0     H60158  10.229  10.697   9.730 -1.4212  2.6089 -0.6751
  436MOL0     H60159  10.249  10.858   9.791 -0.3909  0.6391  3.5217
  436MOL0     H60160  10.261  10.625   9.995  1.6936  0.9413  0.4547
  436MOL0     H60161  10.215  10.794  10.023  3.1733  0.0222 -1.0416
  436MOL0     H60162  10.050  10.594  10.048 -0.1357 -0.3366  0.0170
  436MOL0     H60163  10.046  10.583   9.865 -1.9966  1.0273 -1.0837
  436MOL0     H60164   9.816  10.935   9.901  3.6336  2.0493 -1.9143
  436MOL0     H60165  10.676  10.803   9.699  0.0245  2.2429 -0.3841
  436MOL0     H60166  10.862  10.813   9.599 -0.6473  0.0830  0.1131
  436MOL0     H60167  10.973  10.930   9.665  1.8957 -1.7194 -0.8755
  436MOL0     H60168  10.992  10.749   9.708  1.1738  0.5331  0.2926
  437MOL0     O60169   8.065   7.705   0.754 -0.4411  0.1711 -1.0623
  437MOL0     C60170   7.952   7.690   0.809 -0.2405  0.2143  0.6876
  437MOL0     O60171   7.829   7.711   0.743 -0.0329 -0.0492 -0.4655
  437MOL0     C60172   7.829   7.751   0.607 -0.4052  0.4967 -0.5072
  437MOL0     C60173   7.862   7.657   0.502  0.5965 -0.2767 -0.6999
  437MOL0     C60174   7.838   7.685   0.369  0.3597  0.1797 -1.2211
  437MOL0     C60175   7.791   7.821   0.342  0.0599 -0.1493 -0.3604
  437MOL0     O60176   7.798   7.871   0.212 -0.7281 -0.9798 -0.0487
  437MOL0     C60177   7.927   7.868   0.140  0.7327 -0.2059 -0.0528
  437MOL0     C60178   8.015   7.991   0.196 -0.2693 -0.0559  0.4558
  437MOL0     C60179   8.144   7.993   0.100  0.7597 -0.4877  0.3637
  437MOL0     C60180   8.259   8.075   0.164  0.0906 -0.3627  0.0983
  437MOL0     C60181   8.386   8.070   0.073  0.1994 -0.4986 -1.0824
  437MOL0     C60182   8.496   8.149   0.142  0.0386  0.3371  0.9976
  437MOL0     C60183   8.634   8.150   0.061  0.5892 -0.4427  0.7266
  437MOL0     C60184   8.637   8.241  -0.064 -0.0800 -1.0404  0.9199
  437MOL0     N60185   8.672   8.151  -0.173 -0.3840 -0.4400  0.0474
  437MOL0     C60186   8.795   8.102  -0.205 -0.2951 -1.7440  0.3584
  437MOL0     C60187   8.776   8.030  -0.325  0.4324 -0.5786 -0.6604
  437MOL0     C60188   8.877   7.971  -0.416  0.3963  0.0329  0.8264
  437MOL0     C60189   8.913   8.064  -0.527 -0.9718 -0.1596 -0.4053
  437MOL0     C60190   8.899   7.980  -0.650  0.3201 -0.0001 -0.2937
  437MOL0     C60191   8.950   8.065  -0.758  0.3765 -1.0701  0.5709
  437MOL0     O60192   8.905   8.207  -0.776 -0.3922  0.0439 -1.0947
  437MOL0     C60193   8.941   8.285  -0.885 -0.5191  0.3475 -0.5901
  437MOL0     C60194   8.975   8.421  -0.851  1.2812 -0.1961  0.3411
  437MOL0     C60195   9.017   8.506  -0.957 -0.7960 -0.4748  0.0983
  437MOL0     C60196   9.032   8.659  -0.933  0.1565 -0.1622  0.1899
  437MOL0     C60197   9.038   8.448  -1.087 -0.4145  0.8762 -0.9139
  437MOL0     C60198   9.056   8.527  -1.202  0.3404 -0.8303  0.2997
  437MOL0     O60199   8.967   8.635  -1.220  0.1167  0.3277 -0.8201
  437MOL0     C60200   8.987   8.725  -1.323 -1.1396 -0.5700  0.7803
  437MOL0     C60201   9.032   8.688  -1.457  0.2596  0.3253 -0.6463
  437MOL0     C60202   9.036   8.793  -1.543 -0.5254 -0.3439 -0.4927
  437MOL0     C60203   9.016   8.927  -1.504 -0.0073  0.7211 -0.2743
  437MOL0     O60204   9.018   9.027  -1.594  0.3586 -0.0513 -0.1756
  437MOL0     C60205   9.095   9.014  -1.711 -0.4942  0.1589  0.5426
  437MOL0     C60206   9.222   9.099  -1.679 -0.2592 -0.5931  0.1897
  437MOL0     C60207   9.206   9.247  -1.674 -0.2309 -0.5919  0.5558
  437MOL0     C60208   9.284   9.297  -1.547  1.0204 -0.1917 -0.2891
  437MOL0     C60209   9.432   9.314  -1.561  0.2904 -0.0918  0.3926
  437MOL0     C60210   9.472   9.411  -1.668 -1.0713  0.5291 -0.6676
  437MOL0     C60211   9.625   9.399  -1.687 -0.4275 -0.0745  0.5900
  437MOL0     C60212   9.674   9.467  -1.825  1.1666  0.4951 -0.4114
  437MOL0    Cl60213   9.822   9.373  -1.852 -0.7929 -0.4543 -0.0241
  437MOL0     C60214   8.993   8.958  -1.372  0.0627 -0.4911  0.2593
  437MOL0     C60215   8.973   8.858  -1.281  0.2846 -0.7249  0.2027
  437MOL0     O60216   9.150   8.493  -1.273  0.8220 -0.5164  0.4275
  437MOL0     C60217   9.007   8.310  -1.104 -0.9259 -0.2583 -0.7420
  437MOL0     C60218   8.965   8.231  -1.002  0.3330 -0.4962  0.0129
  437MOL0     N60219   8.640   8.040  -0.357  0.6351 -0.1250 -0.6604
  437MOL0     N60220   8.586   8.108  -0.266 -0.5084  0.1111 -0.1010
  437MOL0     C60221   7.752   7.911   0.441 -0.5549  0.3119 -0.3969
  437MOL0     C60222   7.762   7.867   0.568 -0.4165  0.5265 -0.6148
  437MOL0     C60223   7.935   7.630   0.946 -0.3297  0.1355 -0.7599
  437MOL0     C60224   7.828   7.674   1.026  0.3526 -1.0044  0.4993
  437MOL0     C60225   7.834   7.652   1.161 -0.0747 -0.6163  0.4448
  437MOL0     C60226   7.921   7.560   1.217  0.0461 -0.5468 -0.2369
  437MOL0     O60227   7.908   7.541   1.348  0.2628 -0.5302 -0.1961
  437MOL0     C60228   8.037   7.531   1.411 -0.5035  0.1039  0.2079
  437MOL0     C60229   8.043   7.576   1.555  0.2600  0.8176  0.5770
  437MOL0     C60230   7.941   7.697   1.580  0.2938  0.5240  0.8718
  437MOL0     C60231   7.973   7.805   1.686  0.3373 -0.1466 -0.0627
  437MOL0     C60232   8.112   7.864   1.679 -0.1518 -0.0204 -0.8418
  437MOL0     C60233   8.222   7.902   1.673  0.2523  0.1263  0.5437
  437MOL0     C60234   8.023   7.507   1.132  0.0061  1.6281 -0.1862
  437MOL0     C60235   8.037   7.546   0.999  0.7149 -0.6990 -0.3606
  437MOL0     C60236   8.163   7.495   0.919  0.2654 -0.2721  1.1056
  437MOL0     H60237   7.903   7.559   0.527  0.7625  0.5323  2.6958
  437MOL0     H60238   7.865   7.612   0.294  2.8359  0.7826 -1.0047
  437MOL0     H60239   7.916   7.862   0.031 -0.2235 -1.4504  0.0928
  437MOL0     H60240   7.982   7.775   0.160  0.2084 -0.8957 -1.6085
  437MOL0     H60241   7.966   8.088   0.198  2.6226  1.4996  1.2241
  437MOL0     H60242   8.047   7.979   0.299  0.4706 -0.0654  0.2320
  437MOL0     H60243   8.176   7.890   0.083 -0.0091 -0.6231 -0.3445
  437MOL0     H60244   8.114   8.039   0.005  3.7433 -0.3390 -0.6019
  437MOL0     H60245   8.227   8.180   0.163  2.6582  0.6227 -3.5890
  437MOL0     H60246   8.282   8.052   0.268 -0.4278  1.4182  0.6497
  437MOL0     H60247   8.363   8.115  -0.025  0.6732 -1.5334 -1.6810
  437MOL0     H60248   8.408   7.965   0.054  0.0213 -0.6206 -0.6284
  437MOL0     H60249   8.468   8.253   0.159  1.7414  0.8951  0.5606
  437MOL0     H60250   8.530   8.105   0.237  2.1249  4.2433  2.2654
  437MOL0     H60251   8.654   8.044   0.043 -0.7594 -0.6929  0.5567
  437MOL0     H60252   8.726   8.174   0.116  1.1490 -4.0367  1.6499
  437MOL0     H60253   8.541   8.290  -0.082  1.1142  1.6910  1.4013
  437MOL0     H60254   8.716   8.316  -0.061 -0.5502 -0.3944 -1.2846
  437MOL0     H60255   8.891   8.125  -0.159  0.8424 -0.7251 -2.2670
  437MOL0     H60256   8.837   7.873  -0.442 -0.8325  0.7833 -0.2199
  437MOL0     H60257   8.963   7.939  -0.356  0.0008 -0.6203  1.0537
  437MOL0     H60258   8.836   8.141  -0.525 -0.2463  0.6128 -1.2933
  437MOL0     H60259   9.011   8.109  -0.508  0.0452 -0.9414 -3.2537
  437MOL0     H60260   8.961   7.891  -0.642  2.0885  1.1933 -0.0225
  437MOL0     H60261   8.796   7.953  -0.674  0.0762 -0.2875  1.0161
  437MOL0     H60262   9.059   8.070  -0.749  0.4449 -0.8878 -0.2457
  437MOL0     H60263   8.932   8.009  -0.851 -0.1707  1.1567 -0.7446
  437MOL0     H60264   8.958   8.456  -0.750  1.0260  1.0617 -0.1203
  437MOL0     H60265   8.940   8.706  -0.970  0.0893 -2.5600 -3.1799
  437MOL0     H60266   9.112   8.706  -0.991  0.5571 -3.0397 -1.7949
  437MOL0     H60267   9.063   8.662  -0.829  2.1527  1.1053 -0.3858
  437MOL0     H60268   9.030   8.584  -1.488 -1.6060  0.6437 -1.7785
  437MOL0     H60269   9.051   8.765  -1.646  1.5846  1.9543 -0.9070
  437MOL0     H60270   9.105   8.913  -1.753  0.4272  0.3553  0.2551
  437MOL0     H60271   9.048   9.061  -1.798  2.0150  0.2853 -0.8468
  437MOL0     H60272   9.258   9.052  -1.587  0.5950 -2.5759 -1.0886
  437MOL0     H60273   9.300   9.091  -1.756  0.1528  1.1858  0.3682
  437MOL0     H60274   9.101   9.275  -1.665  0.4570  3.3963 -1.5368
  437MOL0     H60275   9.242   9.291  -1.767 -4.5970  0.9251 -0.6583
  437MOL0     H60276   9.256   9.227  -1.468  0.0432  1.3365  0.7656
  437MOL0     H60277   9.243   9.392  -1.512 -1.1090 -0.9767 -0.5002
  437MOL0     H60278   9.475   9.329  -1.462 -0.3104  2.3236  0.3517
  437MOL0     H60279   9.468   9.221  -1.606  0.5794 -0.0067  0.4481
  437MOL0     H60280   9.439   9.514  -1.648 -0.3379  0.4337  1.2107
  437MOL0     H60281   9.426   9.379  -1.762  1.3070  1.8154 -2.3621
  437MOL0     H60282   9.652   9.293  -1.683 -2.1442 -0.5282  1.5001
  437MOL0     H60283   9.674   9.459  -1.611 -2.0326  0.9031  0.9009
  437MOL0     H60284   9.684   9.573  -1.804 -1.6170  0.5240  1.2603
  437MOL0     H60285   9.607   9.438  -1.907  1.5079 -0.2117 -0.4483
  437MOL0     H60286   8.981   9.065  -1.362 -2.5807 -0.6676 -0.2287
  437MOL0     H60287   8.938   8.869  -1.179  0.7201  1.5387  0.1569
  437MOL0     H60288   9.050   8.272  -1.196  0.4357 -3.5192  1.0713
  437MOL0     H60289   8.953   8.124  -1.019  2.6354 -1.0183  1.1624
  437MOL0     H60290   7.721   8.012   0.416 -0.1071  0.5163 -0.1204
  437MOL0     H60291   7.716   7.935   0.640 -2.5968 -0.8948 -0.5681
  437MOL0     H60292   7.745   7.738   0.998 -0.7049 -0.5893  4.0641
  437MOL0     H60293   7.764   7.708   1.222  0.8727 -0.6371  1.5871
  437MOL0     H60294   8.076   7.431   1.391 -3.7869 -0.9885 -1.3010
  437MOL0     H60295   8.104   7.601   1.360 -1.4364  0.6598 -0.2863
  437MOL0     H60296   8.145   7.607   1.578  0.1510  2.0605 -0.4832
  437MOL0     H60297   8.020   7.490   1.619  1.9860 -1.6098 -1.8300
  437MOL0     H60298   7.924   7.745   1.483  0.8156  0.6997  0.8672
  437MOL0     H60299   7.850   7.650   1.619  0.1725  0.3057  0.3280
  437MOL0     H60300   7.969   7.749   1.780  1.0479  0.6465  0.4619
  437MOL0     H60301   7.891   7.876   1.672  0.4721  0.0370  0.0708
  437MOL0     H60302   8.323   7.937   1.677  0.9334 -1.8445  2.7350
  437MOL0     H60303   8.107   7.449   1.167 -0.8734 -0.2764 -1.1108
  437MOL0     H60304   8.217   7.421   0.979 -0.1632  1.8751  4.3629
  437MOL0     H60305   8.132   7.454   0.823  2.0088  1.0952 -0.1073
  437MOL0     H60306   8.226   7.580   0.894 -1.4276  0.5155 -0.7813
  438MOL0     O60307   8.572   1.279   4.000  0.0861  0.5526  0.1813
  438MOL0     C60308   8.552   1.236   4.114  0.4997 -0.4065  0.1665
  438MOL0     O60309   8.533   1.096   4.139  0.2532  0.7689 -0.5707
  438MOL0     C60310   8.568   1.015   4.038  0.1560  0.0967  0.7123
  438MOL0     C60311   8.478   0.941   3.951 -0.6083 -0.8111  0.3209
  438MOL0     C60312   8.526   0.858   3.849 -0.3249  0.9086  0.4529
  438MOL0     C60313   8.661   0.846   3.825 -0.0614 -0.6268  0.6569
  438MOL0     O60314   8.705   0.750   3.740  0.4901 -0.7746 -0.2255
  438MOL0     C60315   8.671   0.762   3.603  0.0856 -0.6806 -0.2981
  438MOL0     C60316   8.751   0.666   3.518 -0.1148  0.1116  0.3449
  438MOL0     C60317   8.686   0.527   3.523 -0.8753  0.2599 -0.0119
  438MOL0     C60318   8.757   0.443   3.634 -0.3622 -0.1442 -0.3125
  438MOL0     C60319   8.702   0.302   3.640  0.3813  0.5776  0.8009
  438MOL0     C60320   8.799   0.200   3.714 -0.2620  0.5215 -0.3141
  438MOL0     C60321   8.739   0.164   3.851 -0.6049 -1.0248 -1.1549
  438MOL0     C60322   8.802   0.046   3.929 -1.3669  0.1650 -0.5381
  438MOL0     N60323   8.734   0.021   4.056  0.8176 -0.2478 -0.9348
  438MOL0     C60324   8.642  -0.083   4.068  0.4102  0.0781  0.2820
  438MOL0     C60325   8.618  -0.091   4.198  0.4227  0.1369 -0.5322
  438MOL0     C60326   8.526  -0.183   4.281 -0.2752 -0.0139  0.5972
  438MOL0     C60327   8.393  -0.121   4.286 -0.6015 -0.6422  0.0738
  438MOL0     C60328   8.277  -0.214   4.328 -0.6766  0.6432 -0.1953
  438MOL0     C60329   8.175  -0.127   4.397 -0.3323 -0.7041 -0.3225
  438MOL0     O60330   8.082  -0.227   4.448  0.3695 -0.6085  0.9334
  438MOL0     C60331   7.981  -0.181   4.526  0.5402  0.2676  0.1499
  438MOL0     C60332   7.924  -0.051   4.545 -0.7404  0.5258  0.1619
  438MOL0     C60333   7.819  -0.025   4.627  1.0233 -0.6657 -0.0913
  438MOL0     C60334   7.781   0.128   4.639 -0.6256  0.7330  0.2464
  438MOL0     C60335   7.754  -0.127   4.696  0.0459 -0.3922  0.4523
  438MOL0     C60336   7.647  -0.128   4.790 -0.2768  0.3992  0.0183
  438MOL0     O60337   7.596  -0.256   4.815 -0.3660  0.0708  1.4575
  438MOL0     C60338   7.522  -0.284   4.923  0.1533 -0.3865  0.2394
  438MOL0     C60339   7.593  -0.290   5.047  0.7203 -1.0871 -0.2645
  438MOL0     C60340   7.514  -0.292   5.164 -0.0488  0.0589 -0.2434
  438MOL0     C60341   7.374  -0.319   5.165 -0.5578  0.2293  0.3440
  438MOL0     O60342   7.318  -0.339   5.289  0.3907 -0.0667  0.6159
  438MOL0     C60343   7.181  -0.333   5.305 -0.4567 -0.1378  0.3304
  438MOL0     C60344   7.136  -0.306   5.447  0.8566  0.0558  0.0201
  438MOL0     C60345   7.160  -0.158   5.485 -0.0573  0.3151 -0.0919
  438MOL0     C60346   7.115  -0.129   5.628  1.0705 -0.0570  0.1512
  438MOL0     C60347   6.965  -0.105   5.659  0.1749 -0.2278 -0.7155
  438MOL0     C60348   6.899   0.013   5.580 -0.3509  0.1880 -0.0199
  438MOL0     C60349   6.948   0.151   5.618 -0.0999  0.4752  0.1309
  438MOL0     C60350   6.869   0.266   5.540  0.3196  0.5384  0.0321
  438MOL0    Cl60351   6.923   0.280   5.374  0.7430  0.7875 -0.3805
  438MOL0     C60352   7.310  -0.332   5.038  0.4185 -0.1998 -0.2259
  438MOL0     C60353   7.380  -0.311   4.921 -0.1788  0.8306  0.3676
  438MOL0     O60354   7.609  -0.025   4.835  0.1089 -0.0210  0.2298
  438MOL0     C60355   7.810  -0.263   4.670  0.4851 -0.0811 -0.5598
  438MOL0     C60356   7.920  -0.281   4.596 -0.5259 -0.3977  0.7016
  438MOL0     N60357   8.687   0.008   4.265 -0.5365 -0.5398  1.5140
  438MOL0     N60358   8.758   0.082   4.175 -0.0191 -0.0124  0.0993
  438MOL0     C60359   8.747   0.924   3.898 -0.0901 -0.1640  0.5882
  438MOL0     C60360   8.701   1.004   4.006 -0.3048 -0.2355  0.3014
  438MOL0     C60361   8.524   1.342   4.217 -0.2526  0.1156 -0.0672
  438MOL0     C60362   8.424   1.310   4.312  0.2644  0.7722 -0.2210
  438MOL0     C60363   8.376   1.404   4.395  0.5586 -0.5311  0.3500
  438MOL0     C60364   8.428   1.531   4.396 -0.9448  0.6209 -0.3360
  438MOL0     O60365   8.395   1.617   4.498  0.2642 -0.1456  1.3016
  438MOL0     C60366   8.379   1.567   4.630 -0.1607  1.1089 -0.4225
  438MOL0     C60367   8.492   1.641   4.709  0.0724  0.2437 -0.3294
  438MOL0     C60368   8.632   1.593   4.693  0.1876 -0.4098 -0.7047
  438MOL0     C60369   8.656   1.444   4.689 -0.1917 -0.3426  0.3419
  438MOL0     C60370   8.798   1.412   4.686 -0.5313  1.0512  0.1977
  438MOL0     C60371   8.917   1.380   4.699  0.5204 -0.5156  0.2955
  438MOL0     C60372   8.523   1.564   4.301  0.1140  0.1458  0.5498
  438MOL0     C60373   8.572   1.477   4.204  0.9436  1.1839 -0.6631
  438MOL0     C60374   8.673   1.542   4.112 -0.1588  0.1900 -0.5377
  438MOL0     H60375   8.372   0.954   3.971 -0.9278 -0.5885 -1.3767
  438MOL0     H60376   8.451   0.800   3.796 -1.8890  2.7845  0.4756
  438MOL0     H60377   8.707   0.852   3.553  3.7703 -2.1158 -0.5627
  438MOL0     H60378   8.566   0.737   3.585 -0.1597  0.1545 -0.0638
  438MOL0     H60379   8.749   0.714   3.420  0.0557 -0.6656 -0.0458
  438MOL0     H60380   8.849   0.675   3.564 -1.6841  0.8115  3.8885
  438MOL0     H60381   8.577   0.520   3.522 -0.8804 -3.8680 -4.0920
  438MOL0     H60382   8.702   0.486   3.423 -0.8619  4.0835 -1.7493
  438MOL0     H60383   8.864   0.446   3.611 -0.4717  0.6513 -0.7431
  438MOL0     H60384   8.733   0.498   3.726 -2.8058 -1.7379  0.0955
  438MOL0     H60385   8.694   0.256   3.541  0.9167 -0.4767  1.2289
  438MOL0     H60386   8.604   0.306   3.687 -0.5147 -0.2561 -0.9124
  438MOL0     H60387   8.815   0.116   3.645  2.3865  3.1720 -3.2264
  438MOL0     H60388   8.893   0.250   3.736  0.0994  0.1501 -0.9743
  438MOL0     H60389   8.634   0.134   3.846 -1.2268  0.3492  1.7881
  438MOL0     H60390   8.738   0.253   3.915  2.5935 -0.6561 -1.4568
  438MOL0     H60391   8.807  -0.037   3.858  1.5361  1.9553 -2.6381
  438MOL0     H60392   8.906   0.064   3.959 -1.5205 -1.5304  1.2209
  438MOL0     H60393   8.613  -0.157   3.994 -1.1461  0.6321  0.2920
  438MOL0     H60394   8.560  -0.195   4.385 -0.6260 -1.9111  0.5231
  438MOL0     H60395   8.522  -0.282   4.235  3.6271 -2.1811  4.1626
  438MOL0     H60396   8.409  -0.035   4.351  2.0808 -0.1787 -1.0865
  438MOL0     H60397   8.371  -0.096   4.181  1.3861  0.1549 -0.1918
  438MOL0     H60398   8.240  -0.274   4.245 -0.2036  1.1614 -0.7880
  438MOL0     H60399   8.322  -0.277   4.405  2.0866  1.2217 -1.2383
  438MOL0     H60400   8.208  -0.061   4.479 -2.0880  2.1747 -1.8032
  438MOL0     H60401   8.132  -0.062   4.321  1.1164 -0.3328 -0.8710
  438MOL0     H60402   7.972   0.031   4.491 -0.5390  1.0105  1.0654
  438MOL0     H60403   7.798   0.181   4.733  0.0782  1.6395 -0.3752
  438MOL0     H60404   7.674   0.126   4.619 -0.7817  0.2618  1.0556
  438MOL0     H60405   7.825   0.190   4.561  1.3848 -0.5820  0.2417
  438MOL0     H60406   7.700  -0.276   5.044  0.6612 -0.7424 -2.5088
  438MOL0     H60407   7.575  -0.275   5.252 -4.8518 -0.2064  3.5550
  438MOL0     H60408   7.151  -0.249   5.242  1.7949  0.2402 -0.3289
  438MOL0     H60409   7.142  -0.427   5.264  1.0182 -1.1504  1.1502
  438MOL0     H60410   7.030  -0.334   5.454  0.4071  1.1039 -1.8167
  438MOL0     H60411   7.193  -0.371   5.514 -0.4996 -1.1060  0.0955
  438MOL0     H60412   7.103  -0.108   5.406 -1.0960 -1.8420 -0.8055
  438MOL0     H60413   7.265  -0.130   5.487  1.1237 -3.2476 -2.9805
  438MOL0     H60414   7.160  -0.033   5.657 -0.0794 -0.2928  3.0079
  438MOL0     H60415   7.163  -0.196   5.700 -1.1916 -2.6588 -0.6266
  438MOL0     H60416   6.902  -0.191   5.635  2.1330 -0.9871 -3.5980
  438MOL0     H60417   6.965  -0.083   5.767 -1.8228 -0.0162 -0.7287
  438MOL0     H60418   6.790   0.006   5.589 -0.1927 -1.6652  0.8831
  438MOL0     H60419   6.918  -0.008   5.475  1.1395  3.8472 -0.6357
  438MOL0     H60420   7.055   0.160   5.597  0.3871  2.2590  2.9197
  438MOL0     H60421   6.932   0.160   5.726  0.7575  4.5341  0.0522
  438MOL0     H60422   6.890   0.361   5.590  2.8542 -0.6113  1.3747
  438MOL0     H60423   6.762   0.243   5.537  0.5156 -0.3199 -2.7765
  438MOL0     H60424   7.207  -0.364   5.029  0.0747  0.9215 -0.4800
  438MOL0     H60425   7.320  -0.318   4.831 -1.7420 -0.4758  1.4493
  438MOL0     H60426   7.766  -0.353   4.710 -0.7416  1.4396  1.7019
  438MOL0     H60427   7.957  -0.382   4.583  2.8818  1.0582 -3.1365
  438MOL0     H60428   8.855   0.919   3.887  0.0069  0.5310  1.1400
  438MOL0     H60429   8.770   1.054   4.073 -0.2450 -1.5175  1.2339
  438MOL0     H60430   8.376   1.213   4.319  0.4593  0.7783  1.6325
  438MOL0     H60431   8.290   1.388   4.459  0.4818  4.3841  1.8444
  438MOL0     H60432   8.278   1.590   4.665 -0.6027 -2.1087  0.7425
  438MOL0     H60433   8.394   1.458   4.631  0.9953  1.2401 -1.7315
  438MOL0     H60434   8.463   1.641   4.815  0.8692 -3.0468 -0.0193
  438MOL0     H60435   8.488   1.746   4.678 -0.5807  1.5538  3.5838
  438MOL0     H60436   8.661   1.637   4.597 -3.0841  1.2849 -1.0717
  438MOL0     H60437   8.686   1.636   4.777 -1.1746  2.4667 -1.1773
  438MOL0     H60438   8.618   1.414   4.591  0.4801 -1.9599  0.5451
  438MOL0     H60439   8.601   1.395   4.770 -0.7507  0.9859  0.7923
  438MOL0     H60440   9.009   1.339   4.734  1.4601  2.1863  1.2053
  438MOL0     H60441   8.556   1.668   4.296 -0.6073  0.3218 -1.9455
  438MOL0     H60442   8.765   1.483   4.100  0.3076  1.1464 -1.9695
  438MOL0     H60443   8.632   1.548   4.011 -2.5532 -0.0984  0.3455
  438MOL0     H60444   8.711   1.632   4.161  1.5333 -0.9758  0.4139
  439MOL0     O60445   0.519   9.963   9.317 -0.5574 -0.2583  0.3920
  439MOL0     C60446   0.589   9.884   9.386 -0.0153  0.2984  0.2573
  439MOL0     O60447   0.582   9.873   9.523 -0.0652  0.3724 -0.2169
  439MOL0     C60448   0.585   9.980   9.605  1.1112  0.0287 -0.0482
  439MOL0     C60449   0.609   9.963   9.738  0.4114  0.0187 -0.6641
  439MOL0     C60450   0.607  10.073   9.824 -0.3529 -1.1107 -0.6084
  439MOL0     C60451   0.577  10.200   9.775 -0.2063  0.0050 -0.5251
  439MOL0     O60452   0.556  10.297   9.862 -0.5131 -0.4029 -0.0659
  439MOL0     C60453   0.416  10.332   9.877 -0.7743  0.4140  0.5610
  439MOL0     C60454   0.401  10.459   9.957 -0.1723  0.2655 -1.2093
  439MOL0     C60455   0.256  10.510   9.945  0.4242 -0.3738  0.0178
  439MOL0     C60456   0.217  10.592  10.072  0.2966  0.0404  0.3003
  439MOL0     C60457   0.061  10.607  10.081 -0.2769 -0.7364  0.6172
  439MOL0     C60458  -0.019  10.484  10.079 -0.2902 -0.3218 -0.5939
  439MOL0     C60459  -0.141  10.498  10.165  0.5654 -0.3263 -0.7244
  439MOL0     C60460  -0.240  10.381  10.151  1.0868  0.9159  0.2576
  439MOL0     N60461  -0.298  10.348  10.018 -0.1581  0.0237 -0.2543
  439MOL0     C60462  -0.319  10.444   9.925  0.1027 -0.1294  0.6188
  439MOL0     C60463  -0.348  10.375   9.811  0.6332  0.2448  0.7537
  439MOL0     C60464  -0.359  10.430   9.670  0.4175 -0.8724 -0.7697
  439MOL0     C60465  -0.227  10.386   9.611 -0.2119  1.1139 -0.1689
  439MOL0     C60466  -0.120  10.496   9.633 -1.1920  0.6496  0.6609
  439MOL0     C60467   0.023  10.491   9.564  0.5432  1.1673  0.1067
  439MOL0     O60468   0.114  10.591   9.623 -0.1760  0.1598 -0.4997
  439MOL0     C60469   0.213  10.641   9.544 -0.1094 -0.2534 -0.3998
  439MOL0     C60470   0.303  10.736   9.582  1.2092 -0.4652 -0.4001
  439MOL0     C60471   0.377  10.819   9.492  0.1300  0.5022 -0.4165
  439MOL0     C60472   0.437  10.949   9.544  0.2500  0.2928  0.6931
  439MOL0     C60473   0.404  10.770   9.362  0.0856 -0.2376 -0.1042
  439MOL0     C60474   0.486  10.835   9.257 -0.1744 -1.2814  0.0272
  439MOL0     O60475   0.491  10.793   9.136  0.7116  0.1662 -0.0650
  439MOL0     C60476   0.584  10.830   9.051 -0.7257 -0.8703 -0.3274
  439MOL0     C60477   0.555  10.921   8.944 -0.0931 -0.5757  0.5774
  439MOL0     C60478   0.658  10.973   8.862  0.6761  0.7552  0.1900
  439MOL0     C60479   0.792  10.929   8.879  0.4368 -0.7172 -0.7704
  439MOL0     O60480   0.883  10.998   8.797  0.2839  0.4045  0.1762
  439MOL0     C60481   1.008  10.935   8.765  0.6197  0.5840 -0.6044
  439MOL0     C60482   1.092  10.982   8.646  0.3299  0.8846 -0.2983
  439MOL0     C60483   0.998  11.001   8.526  0.5134 -0.4155  0.8594
  439MOL0     C60484   1.066  10.969   8.391 -0.4700  0.4556  0.1359
  439MOL0     C60485   1.049  10.809   8.369  0.1245  0.0806  0.0921
  439MOL0     C60486   1.080  10.746   8.232  0.0799  0.3578 -0.6800
  439MOL0     C60487   1.205  10.811   8.165 -0.1116 -0.2764 -0.1454
  439MOL0     C60488   1.233  10.731   8.035 -0.4322 -0.4384  0.1185
  439MOL0    Cl60489   1.131  10.748   7.905 -0.4231 -0.2747 -0.0620
  439MOL0     C60490   0.821  10.846   8.988 -0.1180  0.5998  1.5208
  439MOL0     C60491   0.722  10.795   9.068  1.2170  0.7881 -0.5140
  439MOL0     O60492   0.549  10.929   9.288 -0.5032 -0.6515 -0.6753
  439MOL0     C60493   0.334  10.656   9.330 -1.1392 -0.0717 -0.3370
  439MOL0     C60494   0.241  10.592   9.419  0.0575 -0.3537  0.7726
  439MOL0     N60495  -0.354  10.242   9.840 -0.5302  0.4231  0.8021
  439MOL0     N60496  -0.325  10.222   9.969 -0.7705 -0.2413  0.0974
  439MOL0     C60497   0.565  10.222   9.639 -0.0181 -1.2274 -0.9325
  439MOL0     C60498   0.574  10.113   9.560  0.1294 -0.4293  0.8072
  439MOL0     C60499   0.678   9.793   9.304 -0.0593 -0.9643  0.0938
  439MOL0     C60500   0.623   9.737   9.194  0.1621  0.1582 -0.3586
  439MOL0     C60501   0.699   9.655   9.116 -1.1108  0.3777 -0.2160
  439MOL0     C60502   0.822   9.610   9.151  0.5609  0.0505  0.5918
  439MOL0     O60503   0.876   9.531   9.051 -1.0609  0.2283  0.6572
  439MOL0     C60504   0.995   9.458   9.080 -0.6091 -0.0251 -1.0444
  439MOL0     C60505   1.018   9.372   8.964  0.1032  0.2805  0.4305
  439MOL0     C60506   1.146   9.283   8.969 -0.7543  0.6999 -0.4182
  439MOL0     C60507   1.173   9.200   8.847 -0.6544  0.1461 -0.0619
  439MOL0     C60508   1.293   9.244   8.773 -0.2056  0.1854 -0.2862
  439MOL0     C60509   1.395   9.278   8.716  0.1971  0.6729 -0.0076
  439MOL0     C60510   0.867   9.646   9.277  0.4290 -0.3794  1.2279
  439MOL0     C60511   0.802   9.743   9.356  0.1387 -0.1634  0.4357
  439MOL0     C60512   0.870   9.811   9.473  0.0753 -0.3391  0.4302
  439MOL0     H60513   0.610   9.858   9.766 -1.5088 -0.3926 -1.9369
  439MOL0     H60514   0.614  10.050   9.930 -2.5029  1.2857  0.1390
  439MOL0     H60515   0.362  10.251   9.927 -2.5216  0.4877 -1.0679
  439MOL0     H60516   0.385  10.344   9.773  1.0528 -0.2115 -0.1022
  439MOL0     H60517   0.445  10.449  10.057  0.2857  0.1227 -1.4254
  439MOL0     H60518   0.464  10.538   9.916  1.7391  0.3923  1.6694
  439MOL0     H60519   0.240  10.587   9.870  0.6292 -1.7408 -1.4720
  439MOL0     H60520   0.191  10.424   9.924 -0.4812  0.4672 -0.6928
  439MOL0     H60521   0.255  10.550  10.165 -0.0412 -3.1454 -0.8566
  439MOL0     H60522   0.263  10.690  10.064 -0.5056  0.5318  1.5033
  439MOL0     H60523   0.021  10.664   9.997  1.0467 -0.3414  0.2296
  439MOL0     H60524   0.050  10.658  10.177  1.4646 -0.5826  0.7675
  439MOL0     H60525  -0.052  10.466   9.976  0.7936  2.9486 -1.6205
  439MOL0     H60526   0.055  10.410  10.109  0.2762 -0.0371 -1.2599
  439MOL0     H60527  -0.202  10.587  10.145 -1.4265 -1.4062  0.2605
  439MOL0     H60528  -0.117  10.506  10.272 -2.0333  0.7311 -0.1441
  439MOL0     H60529  -0.193  10.293  10.195  0.6898  0.3098 -0.5066
  439MOL0     H60530  -0.319  10.413  10.219  1.7639  2.1013  0.4993
  439MOL0     H60531  -0.311  10.550   9.946  0.2307 -0.0749  0.2937
  439MOL0     H60532  -0.383  10.537   9.670 -1.3681 -1.2451 -0.5402
  439MOL0     H60533  -0.440  10.376   9.620  1.9816 -2.2058 -1.9599
  439MOL0     H60534  -0.196  10.285   9.641 -0.9804  0.4202 -1.6130
  439MOL0     H60535  -0.237  10.377   9.503  1.1800 -1.6830 -0.1579
  439MOL0     H60536  -0.165  10.590   9.599 -4.6778 -0.8760  0.7018
  439MOL0     H60537  -0.097  10.496   9.740  0.3547  2.6014  0.4008
  439MOL0     H60538   0.057  10.387   9.563 -3.1809 -0.2041  0.0297
  439MOL0     H60539  -0.000  10.511   9.459  1.5194  3.8423  0.3360
  439MOL0     H60540   0.293  10.787   9.678  0.4820 -0.8459 -0.2623
  439MOL0     H60541   0.377  10.966   9.633  0.0065 -4.1299  1.5735
  439MOL0     H60542   0.423  11.030   9.471  0.4713  3.0956  3.5466
  439MOL0     H60543   0.543  10.938   9.567  0.2565 -1.4409 -0.0643
  439MOL0     H60544   0.449  10.946   8.940  0.5014  2.1626  0.0573
  439MOL0     H60545   0.635  11.033   8.774  4.0610  0.2992 -1.1441
  439MOL0     H60546   1.069  10.951   8.854 -2.7893  1.5321  1.7544
  439MOL0     H60547   0.983  10.830   8.746 -0.0705  0.6356 -0.0193
  439MOL0     H60548   1.132  11.072   8.693  0.3514  2.6418 -3.3681
  439MOL0     H60549   1.161  10.899   8.626  1.4794  1.8378 -0.3864
  439MOL0     H60550   0.960  11.103   8.516 -3.8320 -2.0411 -3.7168
  439MOL0     H60551   0.900  10.951   8.532 -1.2681  2.8874  2.6625
  439MOL0     H60552   1.171  10.997   8.403 -0.6686  0.2119  3.2962
  439MOL0     H60553   1.035  11.024   8.301  1.6789  1.6865  0.0964
  439MOL0     H60554   1.120  10.764   8.440 -1.0701 -3.4286 -0.7422
  439MOL0     H60555   0.955  10.769   8.407  1.1752 -0.3851  2.4324
  439MOL0     H60556   1.001  10.762   8.158 -1.5328 -0.6816  0.7339
  439MOL0     H60557   1.101  10.638   8.230 -1.5495  0.0177 -2.1578
  439MOL0     H60558   1.290  10.807   8.233 -0.3693  0.5875  0.2504
  439MOL0     H60559   1.195  10.916   8.137 -1.2739 -0.9868 -2.7300
  439MOL0     H60560   1.226  10.627   8.068  0.5296 -0.8264 -0.8423
  439MOL0     H60561   1.335  10.754   8.005  0.0963  2.7051  3.6121
  439MOL0     H60562   0.929  10.833   8.984  0.4183  4.1029  1.8107
  439MOL0     H60563   0.746  10.725   9.148  0.6290  0.9313 -0.2036
  439MOL0     H60564   0.329  10.624   9.227 -1.0933 -0.9178 -0.0858
  439MOL0     H60565   0.205  10.496   9.381  0.5048  0.5633 -2.2752
  439MOL0     H60566   0.569  10.327   9.609  1.6321 -0.8181  0.5506
  439MOL0     H60567   0.590  10.129   9.454 -1.8918  0.9188  0.6337
  439MOL0     H60568   0.519   9.750   9.166  0.1021 -0.3536 -0.3807
  439MOL0     H60569   0.662   9.606   9.027  1.0805  1.0856 -1.6054
  439MOL0     H60570   1.077   9.530   9.088 -1.2301  0.4799  1.7686
  439MOL0     H60571   0.981   9.406   9.175 -1.5957  0.3939 -0.9443
  439MOL0     H60572   1.019   9.436   8.875  0.2482 -0.9906 -0.5223
  439MOL0     H60573   0.929   9.308   8.960 -1.2590  2.1442 -0.0148
  439MOL0     H60574   1.235   9.346   8.981  0.2390 -0.4553 -1.4833
  439MOL0     H60575   1.136   9.213   9.053  0.9227 -0.4660 -1.1372
  439MOL0     H60576   1.084   9.200   8.783 -1.4538 -2.0398  0.9530
  439MOL0     H60577   1.185   9.095   8.877 -1.3550  0.3357  0.9620
  439MOL0     H60578   1.481   9.319   8.667 -1.1093  4.1336  0.3662
  439MOL0     H60579   0.963   9.598   9.298  0.4222 -0.9956 -0.0599
  439MOL0     H60580   0.854   9.920   9.469  2.9338  0.1179 -1.3275
  439MOL0     H60581   0.830   9.787   9.572  0.6309  2.3661  1.3954
  439MOL0     H60582   0.979   9.810   9.464  0.0293  0.7247 -0.6471
  440MOL0     O60583   3.862   0.139   7.589  0.3983 -0.0809 -0.5287
  440MOL0     C60584   3.776   0.051   7.626 -0.2406 -0.1278 -0.3073
  440MOL0     O60585   3.677   0.007   7.542 -0.4600 -0.5314  0.5437
  440MOL0     C60586   3.650   0.073   7.427 -0.3462  1.2908  0.5226
  440MOL0     C60587   3.602   0.200   7.415  0.6963 -1.1203 -0.2702
  440MOL0     C60588   3.575   0.258   7.291  0.2392  0.8288  0.0959
  440MOL0     C60589   3.584   0.174   7.173 -0.6503  0.1357  0.2371
  440MOL0     O60590   3.551   0.218   7.048 -0.2608 -0.0578  0.4277
  440MOL0     C60591   3.409   0.258   7.042 -0.1348 -0.7146  0.1900
  440MOL0     C60592   3.386   0.398   7.027 -0.1817 -0.6946  0.0926
  440MOL0     C60593   3.476   0.461   6.916  0.0033  0.2131  0.2288
  440MOL0     C60594   3.441   0.614   6.902 -0.5752 -1.3118 -0.1820
  440MOL0     C60595   3.552   0.688   6.825  0.3022  1.0229 -0.1721
  440MOL0     C60596   3.561   0.633   6.680 -0.5001  1.2110 -0.2564
  440MOL0     C60597   3.676   0.698   6.609 -0.0730  0.2678 -0.7672
  440MOL0     C60598   3.708   0.627   6.475 -0.5143  0.5750  1.7493
  440MOL0     N60599   3.789   0.714   6.391  0.9579 -0.5099  0.1144
  440MOL0     C60600   3.735   0.780   6.273  0.2743 -0.3915 -0.7178
  440MOL0     C60601   3.828   0.868   6.246 -0.2334  0.1741  0.2890
  440MOL0     C60602   3.826   0.986   6.161  0.2009  0.2461  0.5007
  440MOL0     C60603   3.706   0.987   6.057 -0.2511  1.0581 -0.4301
  440MOL0     C60604   3.696   1.121   5.976 -0.3921  0.7127  0.3411
  440MOL0     C60605   3.659   1.242   6.064 -0.9565  0.6201 -0.3167
  440MOL0     O60606   3.524   1.222   6.111  0.2527  0.7125 -0.2378
  440MOL0     C60607   3.495   1.303   6.221 -0.8805 -0.6400  0.0606
  440MOL0     C60608   3.563   1.419   6.263  0.5190 -0.2712  0.7983
  440MOL0     C60609   3.514   1.487   6.379 -0.4784 -0.3634  1.1335
  440MOL0     C60610   3.601   1.607   6.418 -0.4222  0.4703  0.1507
  440MOL0     C60611   3.396   1.448   6.449 -0.5079 -0.0975  0.7512
  440MOL0     C60612   3.351   1.525   6.565 -0.0613  0.1153 -1.0875
  440MOL0     O60613   3.218   1.513   6.589  1.1910 -0.2914 -0.3391
  440MOL0     C60614   3.154   1.597   6.689 -0.9315  1.2088 -0.2321
  440MOL0     C60615   3.201   1.716   6.748  0.3486  0.2447 -0.0966
  440MOL0     C60616   3.130   1.782   6.853  0.6412 -0.3587 -0.4496
  440MOL0     C60617   3.004   1.724   6.899 -0.1130  0.3835 -1.1682
  440MOL0     O60618   2.920   1.785   6.991  0.3849  0.9874  0.1928
  440MOL0     C60619   2.981   1.868   7.088  0.4065 -0.1641  0.0355
  440MOL0     C60620   2.880   1.886   7.206  0.4869 -0.8103 -0.4636
  440MOL0     C60621   2.933   1.971   7.319  0.0990 -0.4800 -0.5429
  440MOL0     C60622   3.022   1.898   7.404 -0.4427  0.1726 -0.9806
  440MOL0     C60623   3.083   1.984   7.509 -0.0598 -0.1917 -0.4654
  440MOL0     C60624   3.211   2.054   7.455  0.9504  0.7733  0.1344
  440MOL0     C60625   3.310   2.106   7.553 -0.0760  0.1215  0.8865
  440MOL0     C60626   3.416   2.180   7.473 -0.2581  0.8780  0.9620
  440MOL0    Cl60627   3.520   2.035   7.434  0.0496  0.2815  0.2159
  440MOL0     C60628   2.957   1.608   6.832  0.5868 -0.8316 -0.0948
  440MOL0     C60629   3.032   1.543   6.739  0.2262  0.3249  0.2311
  440MOL0     O60630   3.426   1.576   6.646  0.0567 -0.3845  0.9609
  440MOL0     C60631   3.324   1.343   6.400 -0.5595  0.2521 -0.0425
  440MOL0     C60632   3.375   1.269   6.288 -1.9238 -0.1633  0.5210
  440MOL0     N60633   3.939   0.847   6.323  1.2436  0.4925  0.6620
  440MOL0     N60634   3.921   0.743   6.401  0.0455 -0.3435 -1.1426
  440MOL0     C60635   3.641   0.049   7.195 -0.5500  0.7377 -0.3461
  440MOL0     C60636   3.673  -0.006   7.315  0.6293 -0.4789  0.0821
  440MOL0     C60637   3.807  -0.029   7.745  0.1409 -0.0442  0.6707
  440MOL0     C60638   3.802  -0.175   7.725  0.6788 -0.0731  0.4389
  440MOL0     C60639   3.847  -0.260   7.829  0.1695 -0.2711  0.6220
  440MOL0     C60640   3.912  -0.200   7.937 -0.0845 -0.5973  0.3625
  440MOL0     O60641   3.984  -0.256   8.031 -0.2294 -0.3066 -0.2688
  440MOL0     C60642   3.919  -0.362   8.102 -0.7867  0.8538 -0.4165
  440MOL0     C60643   3.869  -0.302   8.233 -0.6107 -0.3822 -0.7317
  440MOL0     C60644   3.850  -0.405   8.348  0.9019  0.6422  0.8627
  440MOL0     C60645   3.756  -0.517   8.296  0.0072 -0.5993  0.7106
  440MOL0     C60646   3.826  -0.641   8.256  0.4487  0.2135  0.6620
  440MOL0     C60647   3.879  -0.738   8.229 -0.0318 -0.5450 -0.3784
  440MOL0     C60648   3.916  -0.060   7.954  0.0780 -1.1103  0.3865
  440MOL0     C60649   3.851   0.025   7.864 -0.5107  0.1059  0.9623
  440MOL0     C60650   3.840   0.176   7.883  0.5502 -0.3915 -0.1693
  440MOL0     H60651   3.591   0.256   7.508  1.1064  1.1466 -1.4965
  440MOL0     H60652   3.554   0.363   7.273 -0.3019  0.4714 -1.6389
  440MOL0     H60653   3.344   0.217   7.120 -1.6998 -0.1256 -0.7516
  440MOL0     H60654   3.363   0.218   6.951 -4.3949  0.4341  1.5720
  440MOL0     H60655   3.279   0.410   7.008 -0.4423  0.4666  2.0859
  440MOL0     H60656   3.404   0.449   7.122  1.3754  0.4703 -0.7811
  440MOL0     H60657   3.582   0.437   6.932 -0.4849 -4.1101 -1.4531
  440MOL0     H60658   3.466   0.415   6.817  1.4880  0.2064  0.0552
  440MOL0     H60659   3.346   0.620   6.848 -0.1218  2.3256 -0.8614
  440MOL0     H60660   3.433   0.657   7.003 -2.3159  0.7980 -1.1322
  440MOL0     H60661   3.642   0.675   6.886 -0.1367  0.1702  0.3156
  440MOL0     H60662   3.519   0.793   6.830 -2.3764  0.2012  2.1211
  440MOL0     H60663   3.569   0.524   6.690 -3.4908  0.9736  0.6029
  440MOL0     H60664   3.473   0.655   6.619  1.9248  2.8870 -3.4315
  440MOL0     H60665   3.770   0.676   6.660  0.1795 -1.9855 -2.0502
  440MOL0     H60666   3.655   0.803   6.590 -2.1429  0.4375  1.7159
  440MOL0     H60667   3.772   0.540   6.487  1.4547  1.4961 -1.1431
  440MOL0     H60668   3.618   0.603   6.418 -0.2255  1.0606  1.0797
  440MOL0     H60669   3.631   0.766   6.246 -0.3250  0.0612  1.1597
  440MOL0     H60670   3.923   0.987   6.111 -1.0914 -0.5847 -2.2808
  440MOL0     H60671   3.808   1.075   6.221  0.0151  1.0340 -0.6888
  440MOL0     H60672   3.725   0.897   5.998 -1.0990 -0.5367  1.6077
  440MOL0     H60673   3.615   0.958   6.112  0.7394  0.5148  0.9822
  440MOL0     H60674   3.791   1.124   5.922 -1.8088  0.5212 -2.2915
  440MOL0     H60675   3.621   1.101   5.900  0.4461 -0.0214 -0.3119
  440MOL0     H60676   3.724   1.254   6.151 -2.5091  1.3553  0.7943
  440MOL0     H60677   3.652   1.330   5.999 -1.3478  1.4295  0.7914
  440MOL0     H60678   3.653   1.460   6.219  1.0746 -0.2070  1.9711
  440MOL0     H60679   3.670   1.626   6.336 -2.2118  0.7332 -1.3478
  440MOL0     H60680   3.661   1.592   6.509  2.3480  0.9319 -1.4991
  440MOL0     H60681   3.542   1.697   6.441  2.3880  1.9316  2.2748
  440MOL0     H60682   3.293   1.762   6.714  0.2334  0.6854  0.1804
  440MOL0     H60683   3.153   1.880   6.894 -0.5944 -1.5385  3.5305
  440MOL0     H60684   3.077   1.824   7.119 -1.1117 -1.4327  3.4810
  440MOL0     H60685   3.011   1.963   7.043 -3.1809  2.1421  2.0943
  440MOL0     H60686   2.800   1.945   7.159  3.6623  1.0559 -4.0970
  440MOL0     H60687   2.851   1.790   7.247  1.3845 -1.2869 -0.9190
  440MOL0     H60688   2.842   1.995   7.374  1.2887  1.0771  0.8370
  440MOL0     H60689   2.990   2.056   7.281 -0.9057  0.8073  0.7291
  440MOL0     H60690   3.106   1.851   7.352 -0.4955 -0.2296 -0.7043
  440MOL0     H60691   2.978   1.822   7.468  0.6490  1.3459  1.2855
  440MOL0     H60692   3.011   2.047   7.563 -0.7347 -2.2481  1.1971
  440MOL0     H60693   3.124   1.923   7.590  2.1122  1.2437 -0.4101
  440MOL0     H60694   3.184   2.143   7.398  0.9117  0.8220  0.2273
  440MOL0     H60695   3.265   1.989   7.386  0.8880 -0.3241  1.0883
  440MOL0     H60696   3.347   2.025   7.617 -0.4745 -0.1737  0.7420
  440MOL0     H60697   3.248   2.177   7.609 -1.6550  1.3261 -2.1215
  440MOL0     H60698   3.460   2.258   7.535 -1.0549  1.8573  0.3197
  440MOL0     H60699   3.373   2.222   7.382  1.4711 -1.0904 -0.8807
  440MOL0     H60700   2.859   1.566   6.852 -0.4035  1.1672 -0.4816
  440MOL0     H60701   3.000   1.446   6.703  4.6325 -0.9200 -0.8424
  440MOL0     H60702   3.238   1.297   6.447  1.3198 -2.8606  0.6178
  440MOL0     H60703   3.311   1.187   6.258 -2.3603  1.6106 -4.2821
  440MOL0     H60704   3.660  -0.028   7.122 -0.5249 -1.0499  1.4688
  440MOL0     H60705   3.701  -0.110   7.318 -2.2218 -1.3361  0.2401
  440MOL0     H60706   3.775  -0.214   7.627 -0.4444  2.5638 -0.3653
  440MOL0     H60707   3.846  -0.366   7.805 -1.2890 -0.2745  0.6066
  440MOL0     H60708   3.837  -0.417   8.054 -0.7487 -1.4572  1.8958
  440MOL0     H60709   3.993  -0.438   8.130 -0.1626  0.9625 -1.7388
  440MOL0     H60710   3.773  -0.254   8.214 -0.9311 -1.0403 -0.7942
  440MOL0     H60711   3.940  -0.227   8.271 -0.7098 -0.4357 -0.4353
  440MOL0     H60712   3.953  -0.442   8.358  0.1516 -2.3386 -1.0457
  440MOL0     H60713   3.807  -0.377   8.444  0.9922  0.9307  0.8189
  440MOL0     H60714   3.695  -0.496   8.208  2.0075 -5.0373 -2.1144
  440MOL0     H60715   3.684  -0.544   8.373 -0.4019  1.7307  1.1976
  440MOL0     H60716   3.929  -0.832   8.216 -0.5621 -0.5209 -2.9277
  440MOL0     H60717   3.960  -0.025   8.047  0.2750  0.6021 -0.2996
  440MOL0     H60718   3.853   0.201   7.989  0.7283  2.2162 -0.7610
  440MOL0     H60719   3.916   0.228   7.825  0.7239 -1.7117 -1.1752
  440MOL0     H60720   3.737   0.204   7.860  1.1484  0.0891 -2.4719
  441MOL0     O60721   1.256   1.669   8.170  0.1846  0.0999 -0.1892
  441MOL0     C60722   1.287   1.590   8.252 -0.1934 -0.4592  0.0124
  441MOL0     O60723   1.223   1.568   8.369 -1.1453 -0.3014 -0.4147
  441MOL0     C60724   1.176   1.672   8.446  0.7495 -1.1472  0.3204
  441MOL0     C60725   1.063   1.648   8.521  0.0481 -0.7462  0.6927
  441MOL0     C60726   1.018   1.739   8.618  0.4363  0.8168  0.2018
  441MOL0     C60727   1.067   1.864   8.627 -0.4528  0.8333 -0.0896
  441MOL0     O60728   1.022   1.959   8.717  0.1273  0.2125  0.1237
  441MOL0     C60729   0.950   1.916   8.832  0.5284 -0.1428 -0.0866
  441MOL0     C60730   0.945   2.046   8.919  0.2348  0.7622  0.8887
  441MOL0     C60731   0.934   2.002   9.065  0.1448  0.9939 -0.0735
  441MOL0     C60732   0.870   2.109   9.169  1.1514 -1.1505  0.5104
  441MOL0     C60733   0.825   2.032   9.295 -0.3570  0.1304  0.6780
  441MOL0     C60734   0.784   2.137   9.403  0.8042 -0.3877 -0.6301
  441MOL0     C60735   0.909   2.209   9.465 -0.3527  1.3638  0.5965
  441MOL0     C60736   0.871   2.310   9.566 -0.3164 -0.0893 -0.0351
  441MOL0     N60737   0.802   2.252   9.685  0.5331  0.5809 -0.0169
  441MOL0     C60738   0.668   2.262   9.708 -0.0956  0.3187  0.0608
  441MOL0     C60739   0.642   2.175   9.803  0.3306 -0.1257 -0.8698
  441MOL0     C60740   0.507   2.140   9.871  0.6788 -0.3321 -1.8005
  441MOL0     C60741   0.457   1.996   9.862  0.2055 -0.0263  0.0364
  441MOL0     C60742   0.318   1.981   9.920  1.0643  0.4847  0.9959
  441MOL0     C60743   0.333   1.933  10.061  0.1600 -0.8657  0.0072
  441MOL0     O60744   0.287   1.795  10.068  0.0524 -0.2352 -0.1006
  441MOL0     C60745   0.279   1.743  10.188 -0.4357  0.4861  0.3828
  441MOL0     C60746   0.293   1.610  10.200  0.0893  0.7964  0.2408
  441MOL0     C60747   0.281   1.547  10.328  0.0742  0.2850  0.4919
  441MOL0     C60748   0.338   1.412  10.324  0.1109  0.0581  0.5098
  441MOL0     C60749   0.230   1.619  10.439 -0.7005  0.1051  0.4953
  441MOL0     C60750   0.197   1.562  10.569 -0.3089 -0.0046  0.0112
  441MOL0     O60751   0.163   1.653  10.668 -0.6737  0.1595  0.0505
  441MOL0     C60752   0.172   1.599  10.795  0.1298 -0.9384  0.0757
  441MOL0     C60753   0.051   1.583  10.867 -0.2840 -0.1120 -0.4627
  441MOL0     C60754   0.055   1.545  11.007  0.3953 -0.5838 -0.1567
  441MOL0     C60755   0.173   1.536  11.078 -0.3316 -0.1912  0.3516
  441MOL0     O60756   0.175   1.489  11.211  0.0386  0.3374 -0.9551
  441MOL0     C60757   0.069   1.400  11.258  0.9326 -0.6321 -0.0668
  441MOL0     C60758   0.083   1.253  11.198  0.1316 -0.2572  0.1987
  441MOL0     C60759  -0.018   1.161  11.275 -0.4715  0.2568  0.7740
  441MOL0     C60760  -0.006   1.018  11.207 -0.1846  0.2835 -0.0493
  441MOL0     C60761  -0.137   0.974  11.140  0.5072  0.1097  0.4972
  441MOL0     C60762  -0.241   0.967  11.258 -0.5261 -0.5993  0.3832
  441MOL0     C60763  -0.359   0.872  11.224  0.4586 -0.9096  1.4619
  441MOL0     C60764  -0.337   0.725  11.246 -0.3614 -0.1544  0.1534
  441MOL0    Cl60765  -0.488   0.635  11.262  0.3803  0.1080  0.0069
  441MOL0     C60766   0.295   1.556  11.001 -0.2531 -0.0534 -0.1476
  441MOL0     C60767   0.294   1.571  10.863 -0.3196 -0.2583 -0.2037
  441MOL0     O60768   0.201   1.439  10.586  0.0057  0.2099  0.5803
  441MOL0     C60769   0.222   1.753  10.423  0.5497 -0.0875 -0.2599
  441MOL0     C60770   0.244   1.814  10.304  0.5306  0.2234  1.0744
  441MOL0     N60771   0.759   2.141   9.856  0.0156  0.2441 -0.5080
  441MOL0     N60772   0.858   2.176   9.780 -0.2201  0.5485 -0.0685
  441MOL0     C60773   1.176   1.900   8.543  0.1052  0.7188  0.6735
  441MOL0     C60774   1.230   1.803   8.453  0.8045  0.5640 -0.2605
  441MOL0     C60775   1.407   1.504   8.228 -0.2956  0.0121 -0.1945
  441MOL0     C60776   1.390   1.374   8.277 -0.2815 -0.0305 -0.0960
  441MOL0     C60777   1.503   1.289   8.260  0.0895 -1.5608 -0.3380
  441MOL0     C60778   1.621   1.335   8.202  1.3435 -0.7156 -0.2303
  441MOL0     O60779   1.730   1.257   8.184  0.4821  0.9641  0.0377
  441MOL0     C60780   1.727   1.121   8.236  0.3375 -0.6131 -0.3489
  441MOL0     C60781   1.736   1.119   8.392  0.2047  0.1067 -0.0263
  441MOL0     C60782   1.789   0.980   8.431  0.5328 -1.9563  1.5096
  441MOL0     C60783   1.822   0.984   8.578 -0.0239 -0.2585  0.1521
  441MOL0     C60784   1.709   1.012   8.671  0.1989  0.1675  0.0591
  441MOL0     C60785   1.618   1.021   8.748  0.5288  0.3784  0.0356
  441MOL0     C60786   1.643   1.467   8.159  0.4267 -0.1337 -0.1278
  441MOL0     C60787   1.525   1.547   8.161 -0.5098  0.5990  0.0707
  441MOL0     C60788   1.536   1.691   8.108 -0.1454 -0.5106 -0.7933
  441MOL0     H60789   1.014   1.554   8.499  0.0370  0.0256 -3.2354
  441MOL0     H60790   0.937   1.714   8.687 -1.2947  4.4589 -0.2551
  441MOL0     H60791   1.006   1.836   8.881 -1.2064  0.2236  2.6728
  441MOL0     H60792   0.858   1.861   8.812  0.7300 -0.5330  0.0494
  441MOL0     H60793   1.046   2.086   8.904  1.1596 -1.9310 -0.7504
  441MOL0     H60794   0.875   2.125   8.890  0.3941 -0.0302 -1.9142
  441MOL0     H60795   0.861   1.922   9.079 -2.7672  3.1829 -1.7482
  441MOL0     H60796   1.032   1.973   9.106 -0.7794 -1.1291  0.7806
  441MOL0     H60797   0.943   2.186   9.197 -1.3788  2.3367 -1.6728
  441MOL0     H60798   0.793   2.171   9.123  1.2707 -0.7279  0.8749
  441MOL0     H60799   0.911   1.970   9.323  2.0720  2.8201 -0.3207
  441MOL0     H60800   0.738   1.969   9.275 -0.6671 -0.5981  3.8570
  441MOL0     H60801   0.716   2.215   9.371 -1.0686 -1.1716  1.1989
  441MOL0     H60802   0.732   2.077   9.478 -3.6717  0.5228 -2.7006
  441MOL0     H60803   0.961   2.261   9.384  0.9235 -0.7472 -0.0231
  441MOL0     H60804   0.966   2.128   9.512  0.2296  1.6897  0.4613
  441MOL0     H60805   0.959   2.366   9.597 -2.2981  3.7987 -0.8526
  441MOL0     H60806   0.808   2.389   9.524 -1.6633 -0.7612  0.6373
  441MOL0     H60807   0.608   2.310   9.632  0.2723 -0.6677 -0.8941
  441MOL0     H60808   0.434   2.201   9.818  0.9768  1.8216  0.1025
  441MOL0     H60809   0.502   2.172   9.976 -1.9322 -0.7833 -1.7336
  441MOL0     H60810   0.470   1.966   9.758  3.3623  0.6735  0.1205
  441MOL0     H60811   0.534   1.942   9.918  0.6258  2.1786  1.7365
  441MOL0     H60812   0.258   2.072   9.913  0.2036 -0.2068 -3.0793
  441MOL0     H60813   0.257   1.909   9.864  1.6704  0.0299  0.9089
  441MOL0     H60814   0.434   1.944  10.101 -0.3124  2.1720  0.5806
  441MOL0     H60815   0.271   2.002  10.118  0.9249 -1.2867  1.4033
  441MOL0     H60816   0.320   1.558  10.108  0.3766 -0.6362  1.1038
  441MOL0     H60817   0.287   1.338  10.386 -0.8214 -1.6627 -2.1542
  441MOL0     H60818   0.442   1.414  10.359 -0.6301  0.8811  2.8666
  441MOL0     H60819   0.338   1.370  10.223 -0.7283 -1.3863  1.0727
  441MOL0     H60820  -0.040   1.613  10.815  0.2821  0.9046 -0.9205
  441MOL0     H60821  -0.031   1.541  11.072  1.7904 -1.2644  1.7261
  441MOL0     H60822   0.065   1.407  11.367 -1.6641  0.0246 -0.1275
  441MOL0     H60823  -0.031   1.442  11.241  1.4580  0.6974  0.0446
  441MOL0     H60824   0.056   1.269  11.094 -0.5245  0.1597  0.4260
  441MOL0     H60825   0.188   1.223  11.204  0.1449  0.0656  2.4746
  441MOL0     H60826  -0.117   1.203  11.252 -0.5659 -0.7544 -0.8826
  441MOL0     H60827  -0.003   1.148  11.382  0.0816 -1.5567  0.5117
  441MOL0     H60828   0.024   0.951  11.288  0.9205  1.8173  0.8723
  441MOL0     H60829   0.077   1.012  11.136  0.9588 -0.7091  1.3139
  441MOL0     H60830  -0.158   1.057  11.071 -1.4227 -1.7072 -1.2559
  441MOL0     H60831  -0.135   0.877  11.091 -3.7085 -0.7141  1.5150
  441MOL0     H60832  -0.283   1.067  11.272 -3.0002 -1.7243  1.7807
  441MOL0     H60833  -0.179   0.936  11.343  1.1039 -1.5251 -1.0957
  441MOL0     H60834  -0.383   0.897  11.120 -1.6469 -1.8342  1.6729
  441MOL0     H60835  -0.436   0.908  11.292  0.0549  1.4136 -0.1187
  441MOL0     H60836  -0.278   0.721  11.337 -1.2350  2.9422  0.9583
  441MOL0     H60837  -0.284   0.671  11.167 -0.8591 -0.1400 -0.1979
  441MOL0     H60838   0.387   1.534  11.054 -1.3836 -2.3667  0.9755
  441MOL0     H60839   0.388   1.568  10.808  0.0818  1.3631  0.3385
  441MOL0     H60840   0.185   1.815  10.504 -2.6807  0.4445 -1.9805
  441MOL0     H60841   0.240   1.922  10.301  1.6954  0.2588  0.1305
  441MOL0     H60842   1.221   1.996   8.564 -1.6659  1.5400  0.8676
  441MOL0     H60843   1.309   1.826   8.382  0.0731  1.0762 -0.9256
  441MOL0     H60844   1.301   1.356   8.336 -1.8352  1.2106 -1.9316
  441MOL0     H60845   1.508   1.188   8.299 -2.0304 -0.6885  2.5610
  441MOL0     H60846   1.643   1.062   8.199  0.5493  0.0336 -1.9493
  441MOL0     H60847   1.815   1.072   8.194  1.4762 -0.5733  1.8756
  441MOL0     H60848   1.639   1.125   8.443  1.2562 -0.0832  2.1113
  441MOL0     H60849   1.798   1.202   8.426  0.5867 -1.1700  2.6810
  441MOL0     H60850   1.709   0.911   8.404 -0.8598  0.3075 -0.5321
  441MOL0     H60851   1.872   0.958   8.363  1.3398  2.3266  0.8377
  441MOL0     H60852   1.899   1.060   8.596  1.5222 -1.6539 -0.2848
  441MOL0     H60853   1.856   0.886   8.611 -1.7312 -1.5814 -1.7674
  441MOL0     H60854   1.550   1.015   8.830  0.4772  0.2341 -0.0158
  441MOL0     H60855   1.739   1.503   8.123  1.1124 -1.6006  0.1703
  441MOL0     H60856   1.469   1.715   8.024  1.4001  2.2351 -1.3830
  441MOL0     H60857   1.517   1.750   8.198 -1.1797  0.5459 -1.6604
  441MOL0     H60858   1.639   1.703   8.073  1.4511  2.6000  3.9800
  442MOL0     O60859   3.253   5.267   4.186  1.2334 -0.0125  1.0333
  442MOL0     C60860   3.223   5.221   4.295  0.1023 -0.4944  0.3262
  442MOL0     O60861   3.135   5.277   4.387 -0.5721 -0.0623 -0.6434
  442MOL0     C60862   3.045   5.370   4.359  1.1282 -1.2887  0.2392
  442MOL0     C60863   3.057   5.499   4.405  0.1934 -0.2360 -1.0706
  442MOL0     C60864   2.957   5.597   4.367  0.3539 -0.4851  0.8132
  442MOL0     C60865   2.866   5.558   4.269 -0.5985 -0.7594  0.2089
  442MOL0     O60866   2.780   5.658   4.224 -0.2969 -0.0766  0.2879
  442MOL0     C60867   2.768   5.671   4.082  1.1607 -0.4502 -0.0983
  442MOL0     C60868   2.774   5.822   4.034  0.2172  0.4680  0.0697
  442MOL0     C60869   2.647   5.906   4.072 -0.2477  0.3485  0.0827
  442MOL0     C60870   2.620   6.023   3.981 -0.3478  0.4692  0.3525
  442MOL0     C60871   2.651   6.149   4.059 -0.1481  0.9062 -0.3618
  442MOL0     C60872   2.610   6.278   3.995 -0.4893 -0.0874  1.2146
  442MOL0     C60873   2.668   6.298   3.848 -0.2663  0.0442 -0.7507
  442MOL0     C60874   2.703   6.449   3.835 -0.7348 -0.1867  0.7554
  442MOL0     N60875   2.753   6.486   3.706 -0.0429  0.5984 -1.3109
  442MOL0     C60876   2.862   6.421   3.646  0.3955  0.1204  0.3457
  442MOL0     C60877   2.890   6.496   3.537  0.5211 -0.3374 -0.9630
  442MOL0     C60878   2.993   6.454   3.432 -0.7979 -0.3565 -0.5726
  442MOL0     C60879   2.992   6.565   3.322  0.5097  0.4929 -1.2241
  442MOL0     C60880   3.024   6.512   3.184  0.1815  0.0743 -0.4579
  442MOL0     C60881   3.170   6.456   3.161 -0.9445  0.2721 -0.2616
  442MOL0     O60882   3.187   6.465   3.016 -0.4158  0.8487 -0.2149
  442MOL0     C60883   3.314   6.490   2.973  0.0069 -0.2967  0.3996
  442MOL0     C60884   3.432   6.488   3.051  0.9445 -0.3230 -0.3826
  442MOL0     C60885   3.562   6.514   3.007  0.3584 -0.5270 -0.4270
  442MOL0     C60886   3.685   6.501   3.089  0.0895 -0.6281 -0.1023
  442MOL0     C60887   3.577   6.549   2.874 -0.2759  0.1783  0.4628
  442MOL0     C60888   3.698   6.581   2.810  0.0810 -0.8164  0.6850
  442MOL0     O60889   3.715   6.555   2.673 -0.4484  0.2401  0.1486
  442MOL0     C60890   3.840   6.555   2.612 -0.2005 -0.3578 -0.3244
  442MOL0     C60891   3.954   6.525   2.684  0.4111  0.7952 -0.9152
  442MOL0     C60892   4.079   6.514   2.619  0.4243  1.1683  0.4379
  442MOL0     C60893   4.097   6.533   2.481  0.0429  0.0163 -0.1647
  442MOL0     O60894   4.215   6.550   2.415 -0.3252  0.3869  0.5670
  442MOL0     C60895   4.326   6.606   2.494 -0.4059 -0.1298  0.1139
  442MOL0     C60896   4.429   6.657   2.396 -0.2314 -0.2065  1.0448
  442MOL0     C60897   4.528   6.545   2.356 -0.3820  0.3249  0.1711
  442MOL0     C60898   4.625   6.591   2.254  0.7400  0.4493 -0.3507
  442MOL0     C60899   4.700   6.476   2.195 -0.6678  0.7444  0.1426
  442MOL0     C60900   4.811   6.532   2.109  0.6660 -0.4900 -0.6316
  442MOL0     C60901   4.892   6.413   2.055  0.4966 -0.1308  0.2674
  442MOL0     C60902   4.801   6.326   1.963  0.1315 -0.7591 -0.6661
  442MOL0    Cl60903   4.910   6.212   1.889 -0.2127 -0.0045  0.2949
  442MOL0     C60904   3.982   6.564   2.413  0.9019 -0.3925 -0.0291
  442MOL0     C60905   3.857   6.574   2.475  0.0915  0.0543 -0.5414
  442MOL0     O60906   3.775   6.664   2.863  0.0924  0.5411  0.0426
  442MOL0     C60907   3.460   6.565   2.792  0.3271  0.0866 -0.1427
  442MOL0     C60908   3.337   6.526   2.837  0.4309  0.4543 -0.4244
  442MOL0     N60909   2.794   6.602   3.536 -0.2588  0.5230  0.9327
  442MOL0     N60910   2.734   6.604   3.646 -0.3284  0.5493  0.2899
  442MOL0     C60911   2.859   5.432   4.223 -0.6618 -0.0919 -0.0498
  442MOL0     C60912   2.939   5.336   4.281  0.3570  0.2207 -0.3923
  442MOL0     C60913   3.297   5.100   4.333 -0.6134 -0.1979  0.1497
  442MOL0     C60914   3.260   4.989   4.269  0.1670  0.7013  0.2271
  442MOL0     C60915   3.317   4.858   4.301 -0.5466 -0.7813  0.3684
  442MOL0     C60916   3.415   4.858   4.404 -0.3836  0.3390 -0.3371
  442MOL0     O60917   3.467   4.739   4.439  0.3163 -0.7453 -0.3898
  442MOL0     C60918   3.602   4.732   4.491 -0.4417  0.3568  0.4757
  442MOL0     C60919   3.598   4.582   4.536  0.2628  0.6558 -1.0187
  442MOL0     C60920   3.714   4.551   4.626 -0.0563  0.2491  0.3845
  442MOL0     C60921   3.704   4.409   4.670 -0.7693  0.3520  0.1060
  442MOL0     C60922   3.817   4.363   4.742 -0.3515 -0.6325 -0.2335
  442MOL0     C60923   3.915   4.308   4.794  0.4039 -0.8396 -0.0910
  442MOL0     C60924   3.449   4.980   4.464  0.9959  1.4020  0.1253
  442MOL0     C60925   3.388   5.098   4.431  0.5688 -0.3574 -0.1529
  442MOL0     C60926   3.428   5.216   4.512 -0.9631  1.1407  0.0757
  442MOL0     H60927   3.130   5.525   4.481 -0.7363 -1.2499  0.2326
  442MOL0     H60928   2.952   5.702   4.394 -1.3482  0.3241 -2.2558
  442MOL0     H60929   2.677   5.619   4.052 -0.1241  1.1206  0.9561
  442MOL0     H60930   2.849   5.618   4.031  1.7465 -0.1118  0.4549
  442MOL0     H60931   2.865   5.864   4.078  0.7227 -0.0248 -0.4867
  442MOL0     H60932   2.795   5.805   3.928  1.2400 -0.6229  0.4211
  442MOL0     H60933   2.559   5.843   4.057  1.2215 -2.1230  1.2888
  442MOL0     H60934   2.644   5.925   4.179 -3.5788 -2.5148  0.6906
  442MOL0     H60935   2.694   6.023   3.901 -0.8596  0.6193 -0.1289
  442MOL0     H60936   2.523   6.015   3.932 -1.2202 -0.8834  2.1907
  442MOL0     H60937   2.757   6.154   4.087 -0.0892  3.8307 -0.7574
  442MOL0     H60938   2.603   6.143   4.157  2.1424 -0.9736  0.7504
  442MOL0     H60939   2.501   6.275   3.991 -0.5807  2.1019 -1.2982
  442MOL0     H60940   2.648   6.352   4.066 -1.1519 -2.3573  4.1115
  442MOL0     H60941   2.603   6.258   3.770  0.8793 -0.0196 -1.6997
  442MOL0     H60942   2.756   6.236   3.833 -0.0503  0.2973 -0.5438
  442MOL0     H60943   2.611   6.507   3.850 -2.2298 -2.0296 -0.6533
  442MOL0     H60944   2.790   6.482   3.892 -0.3871  2.3676 -1.0872
  442MOL0     H60945   2.905   6.324   3.665 -0.0696  0.0732  1.2229
  442MOL0     H60946   2.960   6.354   3.402 -0.2999 -0.0159 -2.3357
  442MOL0     H60947   3.090   6.453   3.484 -0.6686 -0.5901 -0.8168
  442MOL0     H60948   2.892   6.607   3.311  0.7339  1.3734 -0.1161
  442MOL0     H60949   3.069   6.639   3.346  1.6829 -0.7985 -0.8780
  442MOL0     H60950   2.944   6.439   3.168 -3.3273  3.6566 -0.6704
  442MOL0     H60951   3.013   6.591   3.109  0.1309  0.7350  0.2360
  442MOL0     H60952   3.247   6.510   3.218 -1.4420  1.9499 -1.1047
  442MOL0     H60953   3.182   6.351   3.191 -1.9196  0.1843 -0.1419
  442MOL0     H60954   3.435   6.467   3.158 -0.7973  3.1968  0.4995
  442MOL0     H60955   3.674   6.469   3.193 -1.1756 -0.2501 -0.1122
  442MOL0     H60956   3.737   6.597   3.080 -0.8434 -0.2074 -1.1779
  442MOL0     H60957   3.740   6.419   3.040  0.2020 -1.6167  1.5783
  442MOL0     H60958   3.960   6.512   2.791 -1.4588 -0.0926 -0.8900
  442MOL0     H60959   4.157   6.495   2.693 -0.7383  0.7208  1.5845
  442MOL0     H60960   4.284   6.680   2.562  0.9105 -0.2303  1.0776
  442MOL0     H60961   4.360   6.525   2.559 -1.0466  1.7886  3.0435
  442MOL0     H60962   4.370   6.685   2.308  1.3692  0.2790  0.1020
  442MOL0     H60963   4.494   6.728   2.448 -0.8134  0.4535  0.8896
  442MOL0     H60964   4.464   6.464   2.322  2.3050 -2.1831  0.7150
  442MOL0     H60965   4.580   6.513   2.447 -0.0398 -0.0722 -0.1619
  442MOL0     H60966   4.701   6.654   2.302  2.4228 -1.9928  0.3795
  442MOL0     H60967   4.574   6.651   2.178  0.5513 -0.8067 -1.2495
  442MOL0     H60968   4.750   6.422   2.276 -0.7017  0.6139  0.0761
  442MOL0     H60969   4.628   6.409   2.147  2.2773 -2.2804 -0.3647
  442MOL0     H60970   4.879   6.595   2.167  3.6426  0.2202 -4.4038
  442MOL0     H60971   4.768   6.592   2.028  0.0458 -0.2330 -0.1159
  442MOL0     H60972   4.927   6.350   2.137  0.4786 -3.8203 -2.3114
  442MOL0     H60973   4.983   6.446   2.003  0.9188  0.0947  1.1337
  442MOL0     H60974   4.752   6.387   1.888  0.7765 -0.5371 -0.9133
  442MOL0     H60975   4.719   6.280   2.019 -0.4946  2.5630  1.4034
  442MOL0     H60976   3.988   6.580   2.306  1.5230 -2.6139 -0.3719
  442MOL0     H60977   3.779   6.593   2.403 -0.0659 -0.5713 -0.5409
  442MOL0     H60978   3.465   6.598   2.689  0.6760  1.2655  0.2401
  442MOL0     H60979   3.257   6.520   2.764  2.0329  0.0976 -2.2266
  442MOL0     H60980   2.785   5.403   4.149  0.1922  3.6489 -2.6337
  442MOL0     H60981   2.916   5.240   4.236  1.0023  0.9653 -2.4345
  442MOL0     H60982   3.176   4.995   4.200 -1.0602  0.2336  1.6309
  442MOL0     H60983   3.287   4.766   4.251 -0.6383 -1.5376  1.7838
  442MOL0     H60984   3.678   4.743   4.414  0.7359  1.2579  1.7056
  442MOL0     H60985   3.626   4.807   4.567 -0.4077  1.9438 -1.0411
  442MOL0     H60986   3.606   4.516   4.449  2.8860 -0.8030  0.2086
  442MOL0     H60987   3.500   4.568   4.583 -0.4560  1.2116 -2.3132
  442MOL0     H60988   3.807   4.567   4.569  0.5120  2.5252  1.8094
  442MOL0     H60989   3.719   4.626   4.705 -1.8365  2.2564 -1.2906
  442MOL0     H60990   3.687   4.344   4.583  0.1854  2.9894 -2.1722
  442MOL0     H60991   3.614   4.395   4.731  0.7454 -3.6514  1.7977
  442MOL0     H60992   4.001   4.259   4.834  1.2067 -0.2326 -1.0192
  442MOL0     H60993   3.524   4.976   4.542  0.3924 -1.8074  0.6814
  442MOL0     H60994   3.350   5.280   4.556 -2.8336  1.2705 -3.1506
  442MOL0     H60995   3.492   5.184   4.595 -1.9035  0.7425  0.6521
  442MOL0     H60996   3.483   5.279   4.441 -0.2813 -1.4877 -1.8394
  443MOL0     O60997   3.910   1.776  11.419 -0.4067  0.5487  0.5111
  443MOL0     C60998   3.816   1.716  11.370 -0.8143 -0.5212 -0.3409
  443MOL0     O60999   3.828   1.629  11.277 -0.0174  0.0499  0.3163
  443MOL0     C61000   3.955   1.596  11.230 -0.1358 -0.0009  1.1627
  443MOL0     C61001   4.011   1.686  11.139 -0.3667  0.1691  0.1664
  443MOL0     C61002   4.123   1.649  11.067  0.1038 -0.4006  0.8504
  443MOL0     C61003   4.175   1.525  11.077  0.6409  0.4449 -0.3217
  443MOL0     O61004   4.277   1.495  11.009 -0.2082 -0.8366  0.0698
  443MOL0     C61005   4.254   1.410  10.900  0.3903 -0.0934 -0.1184
  443MOL0     C61006   4.329   1.468  10.781  0.1693 -0.3472  1.0559
  443MOL0     C61007   4.334   1.358  10.667 -0.3301 -0.7272 -0.1108
  443MOL0     C61008   4.355   1.424  10.527  0.3038  0.4898 -0.0615
  443MOL0     C61009   4.227   1.502  10.477  0.7071 -0.3490 -0.6606
  443MOL0     C61010   4.192   1.500  10.321  0.4652 -0.2574 -0.7505
  443MOL0     C61011   4.299   1.536  10.219 -0.2222  0.4028  0.2985
  443MOL0     C61012   4.250   1.560  10.072 -0.8460  0.4669 -0.1558
  443MOL0     N61013   4.119   1.617  10.059 -0.1865 -0.7945 -0.1545
  443MOL0     C61014   4.014   1.545  10.017 -0.0495 -0.4295 -0.0098
  443MOL0     C61015   3.918   1.643  10.006  0.5708  0.3258 -0.8923
  443MOL0     C61016   3.775   1.611   9.973 -0.9812  0.2569  0.6747
  443MOL0     C61017   3.704   1.516  10.077 -0.2207 -0.3281  0.1831
  443MOL0     C61018   3.658   1.610  10.195 -0.6106 -0.6459  0.2644
  443MOL0     C61019   3.533   1.692  10.172 -1.3374 -0.4106 -0.3388
  443MOL0     O61020   3.431   1.595  10.153 -0.1896 -0.3668  0.4975
  443MOL0     C61021   3.313   1.637  10.092  0.4354  1.1499  0.2853
  443MOL0     C61022   3.270   1.762  10.048 -0.8230  0.7190  0.0261
  443MOL0     C61023   3.141   1.778   9.979  1.2030  0.7659  0.6054
  443MOL0     C61024   3.125   1.921   9.931 -0.8254 -0.0641 -0.5860
  443MOL0     C61025   3.057   1.670   9.966 -0.3711  0.2999  0.1822
  443MOL0     C61026   2.935   1.678   9.892  0.0415  0.3173 -0.6884
  443MOL0     O61027   2.864   1.565   9.865  0.3400 -0.0665 -0.9074
  443MOL0     C61028   2.776   1.570   9.762  0.1713 -0.1854  0.0095
  443MOL0     C61029   2.844   1.530   9.639  0.1920 -0.9585 -0.7181
  443MOL0     C61030   2.784   1.535   9.516  0.9402  1.0896  0.0485
  443MOL0     C61031   2.648   1.578   9.505  0.0079  0.2062  0.3469
  443MOL0     O61032   2.568   1.573   9.396 -0.8174 -0.2672 -0.0885
  443MOL0     C61033   2.595   1.478   9.287  0.2432 -0.2524 -0.2007
  443MOL0     C61034   2.467   1.458   9.207 -0.0687  0.6594  0.5917
  443MOL0     C61035   2.394   1.585   9.169  0.4014 -0.3175  0.4199
  443MOL0     C61036   2.296   1.573   9.056 -0.0514  0.1712  0.1100
  443MOL0     C61037   2.188   1.468   9.088  0.4229  0.3160 -0.0929
  443MOL0     C61038   2.094   1.447   8.961 -0.5487  0.3602 -0.4486
  443MOL0     C61039   1.981   1.352   8.990  1.1797  0.7179 -0.7114
  443MOL0     C61040   1.894   1.336   8.866  0.4178 -1.0611  0.1213
  443MOL0    Cl61041   1.821   1.490   8.799 -0.4052 -0.0821  0.2597
  443MOL0     C61042   2.578   1.610   9.622 -0.0797  0.3393 -0.3816
  443MOL0     C61043   2.643   1.603   9.747 -0.3857 -0.7087 -0.5052
  443MOL0     O61044   2.895   1.788   9.862 -0.4050  0.8106  0.5588
  443MOL0     C61045   3.094   1.552  10.026 -0.5119 -0.2897  0.5904
  443MOL0     C61046   3.218   1.537  10.089 -0.3041  0.2372  0.4380
  443MOL0     N61047   3.960   1.774  10.027  0.4794  0.6500  0.1699
  443MOL0     N61048   4.087   1.753  10.055 -0.1865  0.2809 -0.5756
  443MOL0     C61049   4.123   1.439  11.178 -0.3694 -0.5324  0.0071
  443MOL0     C61050   4.008   1.471  11.245 -0.3984 -0.6105  0.1229
  443MOL0     C61051   3.684   1.729  11.433  1.1562 -0.3773 -0.6172
  443MOL0     C61052   3.567   1.778  11.355  0.2703  0.2909 -0.3583
  443MOL0     C61053   3.441   1.767  11.414 -0.6307 -0.1576  0.7475
  443MOL0     C61054   3.424   1.706  11.535  0.0421 -0.0863  0.5799
  443MOL0     O61055   3.298   1.696  11.586 -0.8344  0.8996 -0.5485
  443MOL0     C61056   3.261   1.583  11.657  1.3698 -0.5356 -0.6479
  443MOL0     C61057   3.119   1.584  11.647  0.2133 -0.8204 -0.3095
  443MOL0     C61058   3.070   1.534  11.506  0.2805  0.9237  0.8373
  443MOL0     C61059   2.965   1.429  11.512 -0.1356  0.3900  0.5997
  443MOL0     C61060   3.024   1.305  11.569  0.1837  0.5943 -0.7297
  443MOL0     C61061   3.070   1.207  11.627 -0.4976 -0.6035 -0.9442
  443MOL0     C61062   3.535   1.668  11.611 -0.7251  0.1664 -0.0981
  443MOL0     C61063   3.661   1.671  11.559 -0.8055 -0.4856 -0.4753
  443MOL0     C61064   3.772   1.608  11.641 -0.6168  0.2713  0.6173
  443MOL0     H61065   3.960   1.782  11.130  1.7951  1.2192 -2.0642
  443MOL0     H61066   4.165   1.716  10.992 -2.2001  2.1765  1.7179
  443MOL0     H61067   4.148   1.385  10.888  0.3444  0.4788 -1.0068
  443MOL0     H61068   4.310   1.319  10.925  2.0188  0.9644  0.1969
  443MOL0     H61069   4.286   1.564  10.748 -3.4545 -0.7585  3.8655
  443MOL0     H61070   4.432   1.477  10.814  0.1751 -1.3463  1.3470
  443MOL0     H61071   4.402   1.276  10.692  1.7987  1.4369  1.8122
  443MOL0     H61072   4.233   1.317  10.660 -0.5415 -0.2171 -0.0754
  443MOL0     H61073   4.445   1.485  10.529  1.8676 -1.6857 -0.7045
  443MOL0     H61074   4.370   1.341  10.458 -2.5778 -0.6498  0.5165
  443MOL0     H61075   4.235   1.606  10.509  1.3619 -0.6083  0.0324
  443MOL0     H61076   4.136   1.471  10.528  1.4695 -2.4537 -0.5060
  443MOL0     H61077   4.154   1.405  10.284  2.8026 -0.6154 -2.5074
  443MOL0     H61078   4.113   1.575  10.314 -0.6994 -1.1124  2.0644
  443MOL0     H61079   4.380   1.463  10.227 -2.9290 -2.9935 -0.7405
  443MOL0     H61080   4.338   1.637  10.239 -6.9415  4.5405 -3.6492
  443MOL0     H61081   4.332   1.617  10.027  1.9809 -1.7360  1.8062
  443MOL0     H61082   4.253   1.461  10.026 -1.7314 -1.6155  3.8610
  443MOL0     H61083   3.996   1.439  10.007  1.3935 -1.1240  3.3260
  443MOL0     H61084   3.777   1.560   9.876 -1.5484 -0.1208  0.8649
  443MOL0     H61085   3.709   1.697   9.959 -2.1601 -0.8960 -1.3687
  443MOL0     H61086   3.625   1.470  10.016  0.2497 -0.2402 -0.5055
  443MOL0     H61087   3.767   1.443  10.128 -1.7238 -1.4481  0.5259
  443MOL0     H61088   3.650   1.549  10.285  3.5123 -0.1824  1.1437
  443MOL0     H61089   3.738   1.679  10.225  0.6630 -2.1302  0.4053
  443MOL0     H61090   3.522   1.758  10.258 -1.4290  1.8979 -2.0260
  443MOL0     H61091   3.548   1.755  10.084  0.5102  1.1982  1.0604
  443MOL0     H61092   3.333   1.851  10.052  1.5988 -0.7890 -1.8484
  443MOL0     H61093   3.172   1.935   9.833 -0.8762 -2.1474 -0.9435
  443MOL0     H61094   3.185   1.985   9.997  0.1171 -0.1823 -1.3110
  443MOL0     H61095   3.023   1.959   9.945 -1.2212 -1.7445  1.5785
  443MOL0     H61096   2.942   1.486   9.648  1.0214  0.7441 -1.0110
  443MOL0     H61097   2.842   1.491   9.435 -1.3360 -2.7968  0.2347
  443MOL0     H61098   2.682   1.515   9.231  0.9311 -1.6439 -0.1048
  443MOL0     H61099   2.615   1.376   9.322 -2.5079 -0.4518  1.0651
  443MOL0     H61100   2.494   1.398   9.120 -0.0718  0.9039  0.4201
  443MOL0     H61101   2.392   1.409   9.270 -0.6226  0.7020 -0.0285
  443MOL0     H61102   2.466   1.658   9.133 -2.4796  2.2959 -0.5130
  443MOL0     H61103   2.349   1.642   9.251 -2.4461  0.9253 -1.8306
  443MOL0     H61104   2.353   1.541   8.968 -3.2825  0.2465 -2.1496
  443MOL0     H61105   2.255   1.667   9.017  1.0691  0.7201  0.1912
  443MOL0     H61106   2.234   1.375   9.122  0.0547  0.1636 -0.0083
  443MOL0     H61107   2.144   1.515   9.176  1.1483  0.4731  0.1950
  443MOL0     H61108   2.154   1.397   8.886  0.5700  0.8751  0.0814
  443MOL0     H61109   2.052   1.546   8.941  0.5820  1.1824  1.0719
  443MOL0     H61110   1.932   1.389   9.080  0.9638 -0.3475 -0.3726
  443MOL0     H61111   2.011   1.252   9.022 -2.4757  0.4646  2.6181
  443MOL0     H61112   1.809   1.269   8.881 -1.4619  1.4719  1.8706
  443MOL0     H61113   1.957   1.301   8.785  2.0553 -0.6343  1.1641
  443MOL0     H61114   2.471   1.627   9.616 -0.6567 -2.5935 -0.2098
  443MOL0     H61115   2.592   1.627   9.840  1.1970  1.5951 -0.1401
  443MOL0     H61116   3.031   1.465  10.040 -1.9577  0.9060  1.8551
  443MOL0     H61117   3.248   1.446  10.140 -0.9968 -2.0503 -2.9375
  443MOL0     H61118   4.165   1.341  11.196  0.7700  0.3010  2.2023
  443MOL0     H61119   3.970   1.389  11.306 -0.3776 -0.1606  0.7456
  443MOL0     H61120   3.573   1.819  11.255 -0.5760  3.3181  0.7052
  443MOL0     H61121   3.361   1.793  11.346  1.1887 -0.0097 -1.4323
  443MOL0     H61122   3.289   1.491  11.604 -1.9201 -1.7401 -0.5458
  443MOL0     H61123   3.280   1.591  11.764 -0.6476  1.5760 -0.3813
  443MOL0     H61124   3.087   1.686  11.670  3.8547  0.8490 -1.7544
  443MOL0     H61125   3.080   1.516  11.724 -0.0715  0.1192  0.3929
  443MOL0     H61126   3.037   1.621  11.447 -0.8960  0.8092  1.2940
  443MOL0     H61127   3.153   1.494  11.448  2.6465  5.2290  0.8240
  443MOL0     H61128   2.929   1.418  11.410  1.7484  0.4788 -0.1121
  443MOL0     H61129   2.890   1.474  11.578  1.0514 -1.1203  3.1548
  443MOL0     H61130   3.108   1.118  11.674  0.0387 -0.0588 -0.3307
  443MOL0     H61131   3.502   1.640  11.711 -0.9062 -0.9750 -0.4620
  443MOL0     H61132   3.841   1.682  11.683  0.5335 -0.8139  0.6718
  443MOL0     H61133   3.733   1.546  11.722 -0.0472  1.8167  2.1508
  443MOL0     H61134   3.823   1.539  11.574 -1.7604 -0.3811  0.3826
  444MOL0     O61135   7.321  10.453   9.819 -0.2380 -0.2356 -0.5740
  444MOL0     C61136   7.250  10.347   9.821 -0.3226  0.1220  0.2359
  444MOL0     O61137   7.178  10.309   9.709 -0.5081 -0.2209 -0.3214
  444MOL0     C61138   7.122  10.402   9.623  0.4136 -0.5224  1.0338
  444MOL0     C61139   7.148  10.543   9.596  0.3204  0.2165 -0.2595
  444MOL0     C61140   7.058  10.624   9.525  1.4060  0.1873  0.1714
  444MOL0     C61141   6.960  10.557   9.446  0.3143  0.7106 -0.1764
  444MOL0     O61142   6.864  10.606   9.364 -0.3262 -0.2253  0.5426
  444MOL0     C61143   6.835  10.743   9.397  1.2610 -1.0998  0.1874
  444MOL0     C61144   6.724  10.799   9.299 -0.6806 -0.7075 -0.9017
  444MOL0     C61145   6.582  10.727   9.304  1.6818 -0.0965  0.3855
  444MOL0     C61146   6.475  10.786   9.407  0.2329  0.5305 -0.4018
  444MOL0     C61147   6.339  10.714   9.397 -0.8275  0.0418 -0.4321
  444MOL0     C61148   6.220  10.784   9.449  0.6850 -0.4295 -0.1389
  444MOL0     C61149   6.220  10.797   9.607 -0.1605 -0.0860  0.6180
  444MOL0     C61150   6.106  10.881   9.658  0.5269 -0.3969  0.2012
  444MOL0     N61151   6.120  11.031   9.643  0.0142 -0.1406 -0.4570
  444MOL0     C61152   6.071  11.113   9.540 -0.1920  0.2124  0.0168
  444MOL0     C61153   6.113  11.233   9.577  0.1641 -0.8350 -0.8195
  444MOL0     C61154   6.063  11.365   9.521 -0.2449  0.7173  0.5344
  444MOL0     C61155   6.023  11.359   9.367 -0.3213 -0.5884 -0.8440
  444MOL0     C61156   6.017  11.511   9.317 -0.7985  1.2384 -0.0898
  444MOL0     C61157   5.876  11.536   9.241  0.0903  0.2165 -0.1107
  444MOL0     O61158   5.865  11.444   9.130  0.6725 -0.3592 -0.3100
  444MOL0     C61159   5.924  11.475   9.014 -0.3274 -0.7027  0.2799
  444MOL0     C61160   6.023  11.583   8.992 -0.0385  1.3114  0.4400
  444MOL0     C61161   6.090  11.593   8.864 -0.5319  0.6262 -0.9045
  444MOL0     C61162   6.179  11.712   8.849 -0.0126 -0.1470 -0.3668
  444MOL0     C61163   6.082  11.489   8.767  0.1965 -0.6215  0.0193
  444MOL0     C61164   6.159  11.481   8.643  0.8325 -0.3507  0.2679
  444MOL0     O61165   6.249  11.578   8.614 -0.5094 -0.1114 -0.9386
  444MOL0     C61166   6.331  11.573   8.507  0.6116  0.5935  0.3367
  444MOL0     C61167   6.296  11.643   8.385  0.4615  0.4051 -1.0771
  444MOL0     C61168   6.387  11.646   8.280  0.6527 -0.8898  0.3054
  444MOL0     C61169   6.507  11.566   8.292  0.0867 -0.0353  0.1642
  444MOL0     O61170   6.606  11.571   8.191 -0.2996 -0.2742 -0.3700
  444MOL0     C61171   6.566  11.605   8.064  0.1762  0.0529  1.2255
  444MOL0     C61172   6.685  11.592   7.970 -0.7593  0.4127 -0.0036
  444MOL0     C61173   6.689  11.448   7.908 -0.1649 -0.0107 -0.1538
  444MOL0     C61174   6.836  11.403   7.861  0.6180  1.8197 -1.6913
  444MOL0     C61175   6.909  11.504   7.773 -0.6815  0.3184 -0.3652
  444MOL0     C61176   6.825  11.539   7.649 -0.5226  0.4740 -0.1532
  444MOL0     C61177   6.900  11.626   7.537  0.3598  1.1457 -0.6076
  444MOL0     C61178   6.980  11.739   7.594  0.1866  0.4624 -0.2034
  444MOL0    Cl61179   6.878  11.846   7.710 -0.1824  0.2684 -0.3785
  444MOL0     C61180   6.539  11.486   8.401  0.9482  0.1260 -0.1100
  444MOL0     C61181   6.451  11.495   8.515 -0.3860  0.5782  0.9219
  444MOL0     O61182   6.152  11.376   8.583 -0.2034  0.0060 -0.3678
  444MOL0     C61183   5.988  11.396   8.792  0.9737  0.1906 -0.6503
  444MOL0     C61184   5.919  11.382   8.909  0.0933  0.0485 -0.7966
  444MOL0     N61185   6.187  11.232   9.697  0.4332 -0.2830 -1.0591
  444MOL0     N61186   6.189  11.116   9.738 -0.1710 -0.1573 -0.2944
  444MOL0     C61187   6.944  10.421   9.452 -0.3960  0.4359  0.1049
  444MOL0     C61188   7.016  10.349   9.543  0.5693  0.2226  0.7800
  444MOL0     C61189   7.279  10.252   9.928 -0.7414  0.1750  0.4971
  444MOL0     C61190   7.418  10.230   9.963 -0.5114  0.0949  0.9104
  444MOL0     C61191   7.449  10.122  10.056 -0.6862 -0.9449 -0.1318
  444MOL0     C61192   7.349  10.048  10.126  0.1334 -0.5954 -0.3178
  444MOL0     O61193   7.390   9.961  10.221  0.1366  0.0909  0.5236
  444MOL0     C61194   7.296   9.856  10.265  0.2304 -0.3064  0.2381
  444MOL0     C61195   7.364   9.717  10.273 -0.9905 -0.4131 -0.5486
  444MOL0     C61196   7.247   9.617  10.260 -0.9026  0.6597  0.0466
  444MOL0     C61197   7.304   9.465  10.251  0.4107  0.5750 -1.2003
  444MOL0     C61198   7.407   9.450  10.149  1.3083 -0.1153  0.6165
  444MOL0     C61199   7.465   9.427  10.039 -0.0420  0.1150  0.1139
  444MOL0     C61200   7.212  10.085  10.099 -0.1668  0.1252 -0.3529
  444MOL0     C61201   7.175  10.179   9.998  0.6075  0.2279 -0.3654
  444MOL0     C61202   7.038  10.193   9.959 -0.3955  0.1727  0.4800
  444MOL0     H61203   7.225  10.598   9.648  2.1724 -1.4665 -1.0799
  444MOL0     H61204   7.088  10.728   9.513  2.0289 -0.0466 -0.3201
  444MOL0     H61205   6.920  10.810   9.383  1.2905 -0.2618  3.6132
  444MOL0     H61206   6.794  10.750   9.498 -0.0312 -0.4110 -0.3481
  444MOL0     H61207   6.712  10.906   9.318  1.5067 -0.4746 -0.5620
  444MOL0     H61208   6.763  10.788   9.198 -0.4078 -1.7372 -0.6927
  444MOL0     H61209   6.532  10.723   9.207  3.0490 -0.4575 -0.3346
  444MOL0     H61210   6.601  10.622   9.328  5.9048 -0.1838 -2.1704
  444MOL0     H61211   6.517  10.769   9.506 -2.8602  4.5170  1.9196
  444MOL0     H61212   6.464  10.894   9.389  1.4529  1.1034  1.8784
  444MOL0     H61213   6.339  10.618   9.450  0.2571  0.7898  0.9906
  444MOL0     H61214   6.317  10.675   9.297  1.3202  3.5547 -2.4843
  444MOL0     H61215   6.198  10.882   9.407 -2.0106 -0.8504  0.0988
  444MOL0     H61216   6.128  10.727   9.431 -0.4217  1.1479  0.2988
  444MOL0     H61217   6.312  10.846   9.641 -1.2182  0.0649  3.5829
  444MOL0     H61218   6.215  10.700   9.659  0.4933 -0.9368 -0.8457
  444MOL0     H61219   6.005  10.854   9.626  1.2747 -2.3396 -0.6402
  444MOL0     H61220   6.109  10.854   9.764 -2.1837 -0.0678  0.4367
  444MOL0     H61221   6.013  11.082   9.453  1.1066  0.6505 -1.0359
  444MOL0     H61222   6.125  11.449   9.553 -0.3962 -0.2647  3.7957
  444MOL0     H61223   5.967  11.391   9.567 -0.4935  0.8648 -0.0585
  444MOL0     H61224   6.099  11.306   9.310  2.8655  0.5437  2.0078
  444MOL0     H61225   5.926  11.310   9.355  0.2088 -1.9026  0.1037
  444MOL0     H61226   6.044  11.581   9.396  1.6477  2.0772 -1.5569
  444MOL0     H61227   6.097  11.528   9.243  0.9771  1.1588  1.7110
  444MOL0     H61228   5.789  11.527   9.307 -0.4438  0.9043 -0.7005
  444MOL0     H61229   5.873  11.641   9.211 -0.8551 -0.1660 -1.4084
  444MOL0     H61230   6.042  11.656   9.071 -0.5051  2.2549 -0.3021
  444MOL0     H61231   6.285  11.689   8.858 -0.0578  0.1292  1.3905
  444MOL0     H61232   6.151  11.779   8.931 -1.2731 -2.9529  1.6516
  444MOL0     H61233   6.156  11.762   8.755 -2.0267  1.4504  0.8698
  444MOL0     H61234   6.197  11.687   8.369 -0.0756  0.3452  1.6068
  444MOL0     H61235   6.361  11.711   8.198 -0.2108  1.4242  2.2892
  444MOL0     H61236   6.485  11.546   8.022 -0.6481  1.5969  0.5572
  444MOL0     H61237   6.518  11.703   8.058 -2.6603 -1.3168 -2.2083
  444MOL0     H61238   6.688  11.672   7.896  0.1298  0.8008  0.4308
  444MOL0     H61239   6.782  11.610   8.017  0.1603  0.3039 -1.7754
  444MOL0     H61240   6.609  11.422   7.838 -1.0666 -0.7305  1.1026
  444MOL0     H61241   6.660  11.386   7.992  0.0674 -1.3051 -1.0010
  444MOL0     H61242   6.826  11.301   7.822 -2.5448  1.4526 -0.2595
  444MOL0     H61243   6.900  11.387   7.949 -3.0022 -0.2528  0.8547
  444MOL0     H61244   6.939  11.592   7.831 -1.3831  0.2550  0.1071
  444MOL0     H61245   6.999  11.448   7.747  0.3169 -0.0986  3.4234
  444MOL0     H61246   6.738  11.597   7.677 -0.8992 -0.3511  0.4302
  444MOL0     H61247   6.804  11.450   7.589 -0.6100  2.0247 -2.5411
  444MOL0     H61248   6.827  11.661   7.464 -1.1097  0.7917  0.6349
  444MOL0     H61249   6.970  11.564   7.481 -1.1902 -1.6364  0.3870
  444MOL0     H61250   7.013  11.809   7.517 -1.8709 -1.0687 -2.6537
  444MOL0     H61251   7.074  11.697   7.631  0.3576  2.3880  1.7857
  444MOL0     H61252   6.636  11.440   8.414  2.3518  2.1365 -2.3853
  444MOL0     H61253   6.480  11.438   8.602  0.5184  0.6828  0.6918
  444MOL0     H61254   5.970  11.315   8.721  0.7287 -2.3619  2.1026
  444MOL0     H61255   5.858  11.299   8.945  1.1386  0.1291  1.3138
  444MOL0     H61256   6.866  10.364   9.402 -0.5312 -0.8471  1.6843
  444MOL0     H61257   6.986  10.246   9.559 -1.0047  0.7441  1.3855
  444MOL0     H61258   7.501  10.281   9.916  0.6323 -1.0263  1.6448
  444MOL0     H61259   7.555  10.107  10.075  0.3800  4.3353 -0.3049
  444MOL0     H61260   7.240   9.886  10.354  1.5245  2.9929  0.0752
  444MOL0     H61261   7.230   9.839  10.179  1.0598  1.1818 -0.7358
  444MOL0     H61262   7.427   9.706  10.361  2.2890  1.5108 -2.4335
  444MOL0     H61263   7.446   9.714  10.200 -0.3883  1.7586 -0.0259
  444MOL0     H61264   7.171   9.631  10.337 -0.5148 -1.2513  0.8284
  444MOL0     H61265   7.198   9.642  10.165  2.2769  2.6886 -1.2550
  444MOL0     H61266   7.227   9.397  10.213 -0.3973  0.7408  0.1100
  444MOL0     H61267   7.352   9.426  10.341  0.8226  1.6571 -0.9416
  444MOL0     H61268   7.502   9.387   9.947  0.5922 -0.4212  0.5996
  444MOL0     H61269   7.129  10.037  10.149 -1.8851 -2.2334 -4.9443
  444MOL0     H61270   7.006  10.280  10.017 -1.0208 -0.1848  0.6863
  444MOL0     H61271   7.032  10.203   9.850  1.4037  0.0131  0.3440
  444MOL0     H61272   6.979  10.108   9.995  1.1057 -0.5659  1.2893
  445MOL0     O61273   6.858   3.792   0.324  0.3169  0.2128 -0.2218
  445MOL0     C61274   6.757   3.728   0.328  0.6107 -0.7625  0.9519
  445MOL0     O61275   6.637   3.782   0.292  0.3010  0.5540 -0.5055
  445MOL0     C61276   6.620   3.922   0.288 -0.2483 -0.1979  0.4794
  445MOL0     C61277   6.685   4.012   0.200  0.6856  0.0498  0.3917
  445MOL0     C61278   6.647   4.144   0.201  0.9596  0.0876 -0.4142
  445MOL0     C61279   6.548   4.198   0.295  0.0360 -1.1148  0.4299
  445MOL0     O61280   6.523   4.336   0.297  0.0297 -0.1430  0.1885
  445MOL0     C61281   6.426   4.397   0.379 -0.2192 -0.6156  1.1417
  445MOL0     C61282   6.372   4.521   0.285 -0.1288 -0.9251 -0.0232
  445MOL0     C61283   6.479   4.607   0.222  0.1273 -0.1273 -0.6296
  445MOL0     C61284   6.418   4.718   0.127  0.4519 -0.1934  0.1522
  445MOL0     C61285   6.525   4.801   0.048  0.4320  0.4233  0.2775
  445MOL0     C61286   6.468   4.880  -0.062 -0.1903  0.2697  0.2282
  445MOL0     C61287   6.396   5.005  -0.008 -1.1234 -0.2264  0.0903
  445MOL0     C61288   6.389   5.109  -0.119  1.0280  0.1871  0.2849
  445MOL0     N61289   6.520   5.167  -0.162 -1.0087 -0.0130 -0.6153
  445MOL0     C61290   6.604   5.242  -0.088  0.1480  0.8871  0.1839
  445MOL0     C61291   6.706   5.272  -0.177  0.7025  0.8050  0.3962
  445MOL0     C61292   6.832   5.344  -0.150  0.1189 -0.1578  1.0848
  445MOL0     C61293   6.866   5.330  -0.003  0.2908  0.0058  0.2789
  445MOL0     C61294   6.989   5.414   0.026 -0.1733 -0.2176  0.8028
  445MOL0     C61295   7.126   5.353  -0.016 -0.0503 -0.5197  0.6258
  445MOL0     O61296   7.139   5.394  -0.158 -0.2618 -0.4201 -0.6020
  445MOL0     C61297   7.265   5.406  -0.202  0.2666 -0.0377  0.1178
  445MOL0     C61298   7.364   5.304  -0.190  0.4149 -0.6822  0.5133
  445MOL0     C61299   7.497   5.330  -0.228 -0.2191  0.9619 -0.2526
  445MOL0     C61300   7.599   5.222  -0.201  0.3911 -0.1044  0.2993
  445MOL0     C61301   7.534   5.454  -0.283  0.6731 -0.0334  0.7494
  445MOL0     C61302   7.669   5.494  -0.327 -0.5444 -0.3753 -0.0990
  445MOL0     O61303   7.760   5.398  -0.367 -0.6387  1.0792 -0.3302
  445MOL0     C61304   7.897   5.405  -0.356  0.7103  0.1288 -0.5762
  445MOL0     C61305   7.977   5.294  -0.382  0.4463  0.5212 -0.5032
  445MOL0     C61306   8.111   5.302  -0.380 -1.0451  0.7108  0.7768
  445MOL0     C61307   8.182   5.407  -0.330  0.0727 -1.5223 -0.4261
  445MOL0     O61308   8.312   5.405  -0.313 -0.1909  0.6827 -0.0940
  445MOL0     C61309   8.364   5.360  -0.184 -0.3350  0.0007 -0.8361
  445MOL0     C61310   8.515   5.369  -0.176  0.2352  0.5930 -0.3124
  445MOL0     C61311   8.544   5.512  -0.166  0.4035 -0.4033  0.2626
  445MOL0     C61312   8.688   5.542  -0.202  0.8457 -0.3396  0.0088
  445MOL0     C61313   8.729   5.689  -0.182  0.7211  0.7713  0.4539
  445MOL0     C61314   8.736   5.734  -0.039  0.0745  0.7232 -0.4276
  445MOL0     C61315   8.793   5.875  -0.028 -0.5231 -0.6897  0.2468
  445MOL0     C61316   8.786   5.934   0.112  0.8260 -0.1264 -0.3185
  445MOL0    Cl61317   8.949   5.982   0.168  0.1247  0.2344 -0.0678
  445MOL0     C61318   8.102   5.517  -0.294 -0.3875  0.6988  1.0425
  445MOL0     C61319   7.961   5.517  -0.305  0.0048 -0.7833  1.0173
  445MOL0     O61320   7.689   5.611  -0.353  0.4859 -0.4138 -0.1705
  445MOL0     C61321   7.429   5.548  -0.298  0.0491 -0.5466  0.2211
  445MOL0     C61322   7.293   5.524  -0.267 -1.3493  1.2648  1.0722
  445MOL0     N61323   6.670   5.196  -0.293 -0.9971  0.3758 -0.5555
  445MOL0     N61324   6.565   5.143  -0.277 -0.3681  0.2585  0.7590
  445MOL0     C61325   6.495   4.109   0.395  0.0538 -0.4250  0.6215
  445MOL0     C61326   6.520   3.969   0.379  0.7218 -1.1499  0.0216
  445MOL0     C61327   6.763   3.585   0.370 -0.0112  0.1795  0.5462
  445MOL0     C61328   6.850   3.507   0.293 -0.6012 -0.5333 -0.3506
  445MOL0     C61329   6.846   3.369   0.314  0.4055 -0.9703  0.5042
  445MOL0     C61330   6.758   3.308   0.404  0.0530  0.3913  0.5219
  445MOL0     O61331   6.751   3.175   0.426 -0.7253  0.4890  0.5392
  445MOL0     C61332   6.830   3.096   0.342 -0.3325  0.3239  0.3753
  445MOL0     C61333   6.781   2.954   0.348  0.1331 -0.0585 -0.0903
  445MOL0     C61334   6.839   2.865   0.234  0.8227 -0.0997  0.6443
  445MOL0     C61335   6.970   2.787   0.271 -0.0629 -1.3388 -0.6189
  445MOL0     C61336   7.098   2.879   0.293  0.2513 -0.2877  0.2142
  445MOL0     C61337   7.198   2.952   0.291  0.1346  1.0998  0.1048
  445MOL0     C61338   6.666   3.388   0.477  0.8528  0.1096  1.1591
  445MOL0     C61339   6.671   3.527   0.459  0.5010  0.3073  0.0071
  445MOL0     C61340   6.570   3.603   0.540  0.0514  0.1595 -1.4364
  445MOL0     H61341   6.759   3.991   0.123  1.7879  3.5558  0.3246
  445MOL0     H61342   6.694   4.209   0.128  2.0469 -1.1056 -0.8204
  445MOL0     H61343   6.464   4.432   0.475 -0.5932 -0.1162  1.1180
  445MOL0     H61344   6.346   4.323   0.391 -1.9377  0.5171 -1.9808
  445MOL0     H61345   6.313   4.484   0.201  0.1893  0.3187 -0.8263
  445MOL0     H61346   6.307   4.587   0.343 -0.0524  0.4981 -1.4707
  445MOL0     H61347   6.528   4.653   0.309 -1.6510 -1.2201  1.0469
  445MOL0     H61348   6.559   4.554   0.171 -0.0111  0.3589 -1.3726
  445MOL0     H61349   6.345   4.677   0.057  1.3862 -1.2903 -0.2035
  445MOL0     H61350   6.373   4.800   0.184  1.5675  0.2215  0.4711
  445MOL0     H61351   6.591   4.724   0.006 -0.5906 -0.8440  0.9455
  445MOL0     H61352   6.581   4.865   0.117  1.9976  1.4220 -1.7906
  445MOL0     H61353   6.551   4.907  -0.129  1.1798 -2.9815  0.4771
  445MOL0     H61354   6.401   4.817  -0.121 -0.8027  0.9173  0.2107
  445MOL0     H61355   6.439   5.054   0.080  0.0482 -2.5058  0.8586
  445MOL0     H61356   6.295   4.975   0.020 -1.3653  0.6026  0.1278
  445MOL0     H61357   6.347   5.048  -0.200 -0.2084 -1.7610  2.2458
  445MOL0     H61358   6.314   5.179  -0.082 -1.3296 -4.1190  5.0217
  445MOL0     H61359   6.590   5.283   0.011 -4.1660 -0.3676  0.3115
  445MOL0     H61360   6.815   5.451  -0.169 -0.4790 -0.0538  2.1293
  445MOL0     H61361   6.904   5.296  -0.217 -0.0201 -1.0626  1.5726
  445MOL0     H61362   6.789   5.367   0.065 -0.5448 -2.0775  0.5116
  445MOL0     H61363   6.892   5.228   0.025  3.4305 -0.1769 -2.6023
  445MOL0     H61364   6.981   5.521   0.005  1.7718 -0.1764  0.0753
  445MOL0     H61365   7.009   5.403   0.133  4.2635 -0.8468  0.1063
  445MOL0     H61366   7.197   5.407   0.048 -3.2161  6.8920 -1.0364
  445MOL0     H61367   7.127   5.245  -0.001  0.6705 -0.5414  0.4404
  445MOL0     H61368   7.338   5.211  -0.141  0.3620 -0.4104  1.0140
  445MOL0     H61369   7.554   5.138  -0.148  2.1230 -1.3617 -0.1274
  445MOL0     H61370   7.669   5.259  -0.126  0.6343  0.5253 -0.2367
  445MOL0     H61371   7.636   5.194  -0.301 -0.5642  2.2261 -0.7795
  445MOL0     H61372   7.919   5.204  -0.403 -0.5416  0.9902  0.1238
  445MOL0     H61373   8.162   5.208  -0.401  1.4111  1.6982  1.8995
  445MOL0     H61374   8.315   5.421  -0.108  0.6336  0.7702 -0.8215
  445MOL0     H61375   8.334   5.259  -0.152  0.7923  0.2059  1.0191
  445MOL0     H61376   8.549   5.320  -0.084 -0.4175  1.3202  0.3449
  445MOL0     H61377   8.561   5.312  -0.256  2.3974 -1.7820  2.3918
  445MOL0     H61378   8.522   5.552  -0.066 -0.6550 -1.4952  0.4849
  445MOL0     H61379   8.481   5.568  -0.236  0.1745  1.0840  1.6000
  445MOL0     H61380   8.698   5.513  -0.307 -0.0145 -1.6671  0.2766
  445MOL0     H61381   8.759   5.480  -0.148 -1.5813 -2.8942  0.4752
  445MOL0     H61382   8.828   5.701  -0.227  0.6705 -1.0659 -0.2459
  445MOL0     H61383   8.653   5.753  -0.228 -2.6355 -3.4758 -0.5843
  445MOL0     H61384   8.796   5.655   0.006 -1.3796 -1.4144 -2.0345
  445MOL0     H61385   8.636   5.717   0.000 -0.7675  1.1770 -2.2375
  445MOL0     H61386   8.741   5.941  -0.098 -0.3013 -2.5074 -1.7492
  445MOL0     H61387   8.895   5.872  -0.066 -1.4138 -3.8923 -2.4563
  445MOL0     H61388   8.765   5.853   0.182  2.0777 -0.2683 -0.0816
  445MOL0     H61389   8.717   6.017   0.130 -0.3570 -1.6487  3.1999
  445MOL0     H61390   8.155   5.605  -0.258  0.1328 -0.1198  2.3625
  445MOL0     H61391   7.904   5.607  -0.282  1.6926  0.8661 -0.7821
  445MOL0     H61392   7.456   5.650  -0.324 -0.8388 -0.0248  1.2430
  445MOL0     H61393   7.213   5.593  -0.292 -0.3816  0.7172 -5.0492
  445MOL0     H61394   6.424   4.138   0.471  0.0042 -0.4030  0.5674
  445MOL0     H61395   6.467   3.892   0.434  0.8566 -0.4060  1.2502
  445MOL0     H61396   6.918   3.552   0.221 -2.3842  1.0276 -1.1586
  445MOL0     H61397   6.916   3.316   0.251  1.5280 -0.7940  1.5575
  445MOL0     H61398   6.820   3.126   0.238  1.7854  0.1870  0.0924
  445MOL0     H61399   6.936   3.098   0.368 -0.5746 -1.2009  1.6395
  445MOL0     H61400   6.673   2.955   0.334  0.2445 -3.9764 -2.8123
  445MOL0     H61401   6.806   2.914   0.447  1.3009  2.3788  0.6868
  445MOL0     H61402   6.776   2.780   0.207 -0.5591  1.7067 -2.3363
  445MOL0     H61403   6.845   2.922   0.140 -1.1008 -0.2670  0.3776
  445MOL0     H61404   6.986   2.706   0.199 -0.2157 -1.9852  0.0602
  445MOL0     H61405   6.947   2.743   0.368 -1.4980 -0.1287 -0.3682
  445MOL0     H61406   7.270   3.030   0.278  1.4670 -0.4564 -2.8442
  445MOL0     H61407   6.597   3.341   0.545  0.3617  0.3000  0.7963
  445MOL0     H61408   6.548   3.560   0.638 -0.1678  1.9699 -0.6592
  445MOL0     H61409   6.624   3.695   0.563 -1.4732  0.9889 -0.9974
  445MOL0     H61410   6.476   3.621   0.486  1.0298  1.5811 -2.7674
  446MOL0     O61411  10.203   8.281   7.420  0.5787  0.3876  0.3819
  446MOL0     C61412  10.091   8.329   7.451  0.2845 -0.3278  0.5914
  446MOL0     O61413  10.039   8.317   7.576  0.5531 -0.3743  0.0053
  446MOL0     C61414  10.091   8.219   7.663 -0.4328 -0.1758 -0.5911
  446MOL0     C61415  10.000   8.139   7.736  0.1910  0.0885  1.3993
  446MOL0     C61416  10.055   8.041   7.816 -1.7043  0.5061 -0.2669
  446MOL0     C61417  10.190   8.024   7.834 -0.6539 -0.1100 -0.4392
  446MOL0     O61418  10.233   7.920   7.916  0.0880  0.3287  0.3552
  446MOL0     C61419  10.267   7.805   7.841  0.1786 -0.4770 -0.3422
  446MOL0     C61420  10.317   7.680   7.913 -0.0228 -0.5199 -0.0154
  446MOL0     C61421  10.211   7.658   8.016 -0.1587 -0.0785 -0.4521
  446MOL0     C61422  10.237   7.725   8.152  0.1850 -0.1427  0.2311
  446MOL0     C61423  10.107   7.712   8.236 -0.7238 -0.1901 -0.1935
  446MOL0     C61424   9.987   7.801   8.192 -0.4578  0.4877 -1.2732
  446MOL0     C61425   9.877   7.788   8.311 -0.8886  0.5063 -0.7422
  446MOL0     C61426   9.774   7.901   8.302 -0.9793 -0.8602  0.8107
  446MOL0     N61427   9.734   7.896   8.166 -0.9376 -0.1525  0.2875
  446MOL0     C61428   9.663   7.798   8.102 -0.2618 -0.3116  0.4215
  446MOL0     C61429   9.666   7.843   7.973 -0.9858 -0.0886  0.2282
  446MOL0     C61430   9.594   7.763   7.864  0.2556  0.3138 -0.4388
  446MOL0     C61431   9.688   7.680   7.768 -0.1518 -0.7955 -0.2255
  446MOL0     C61432   9.733   7.556   7.845 -0.3542  0.2341  0.3931
  446MOL0     C61433   9.780   7.467   7.733  0.2510  0.7638 -0.9553
  446MOL0     O61434   9.858   7.373   7.805  0.7582  0.3425 -0.9788
  446MOL0     C61435   9.924   7.282   7.728  0.5992  0.0300  0.2191
  446MOL0     C61436  10.009   7.200   7.798  0.6541 -0.8114 -0.0535
  446MOL0     C61437  10.080   7.093   7.731 -0.5642  0.6847 -0.8782
  446MOL0     C61438  10.177   7.017   7.822  0.7734 -1.2863 -1.4960
  446MOL0     C61439  10.070   7.080   7.591 -0.2448  0.1934  0.2670
  446MOL0     C61440  10.143   6.980   7.511  0.4209 -0.0476 -0.7870
  446MOL0     O61441  10.250   6.913   7.571  0.1711  0.2311 -0.1269
  446MOL0     C61442  10.353   6.874   7.493 -1.0903  0.7139  0.6713
  446MOL0     C61443  10.429   6.766   7.543  0.6957  0.0488 -0.1412
  446MOL0     C61444  10.538   6.723   7.469 -0.3507  0.3005 -0.7195
  446MOL0     C61445  10.578   6.776   7.344  0.2016  0.6019 -0.5900
  446MOL0     O61446  10.688   6.734   7.286 -0.0769 -0.6207  0.5135
  446MOL0     C61447  10.672   6.605   7.220  0.1831  0.1466  0.0118
  446MOL0     C61448  10.809   6.534   7.208  0.2256  0.3581 -0.9596
  446MOL0     C61449  10.867   6.511   7.344 -0.8350  0.7135 -0.1774
  446MOL0     C61450  10.981   6.411   7.355 -0.1840  0.4919 -0.1597
  446MOL0     C61451  11.054   6.442   7.485 -0.3488 -0.7129  1.4345
  446MOL0     C61452  11.169   6.353   7.527 -0.9257  0.6281 -0.0204
  446MOL0     C61453  11.137   6.196   7.558  0.3137 -0.2706 -1.4099
  446MOL0     C61454  11.252   6.123   7.656  0.4104  0.0906  1.0824
  446MOL0    Cl61455  11.194   5.953   7.700 -0.1087 -0.5054  0.0028
  446MOL0     C61456  10.499   6.879   7.293 -0.4337 -0.8186 -0.0896
  446MOL0     C61457  10.400   6.942   7.368 -0.1261 -0.2257 -0.5860
  446MOL0     O61458  10.106   6.964   7.396 -0.3796  0.2940 -0.2114
  446MOL0     C61459   9.973   7.161   7.524 -1.2728 -0.2503 -0.6135
  446MOL0     C61460   9.897   7.258   7.591 -0.1388  0.3530  0.2320
  446MOL0     N61461   9.720   7.972   7.963  0.6627  0.8489 -0.2130
  446MOL0     N61462   9.752   7.996   8.079 -0.1247 -0.0548 -0.5579
  446MOL0     C61463  10.285   8.111   7.788  0.8773  0.0683 -0.0142
  446MOL0     C61464  10.232   8.208   7.694  0.0795 -0.5802  0.6523
  446MOL0     C61465  10.010   8.403   7.347  0.2934 -0.2019  1.0128
  446MOL0     C61466   9.884   8.451   7.381  0.3214 -0.3959 -0.2620
  446MOL0     C61467   9.800   8.517   7.300  0.0843  0.2906  0.0440
  446MOL0     C61468   9.827   8.531   7.165 -0.4831  0.3069 -0.0075
  446MOL0     O61469   9.728   8.579   7.083  0.0526  0.0089  0.2955
  446MOL0     C61470   9.733   8.722   7.038 -0.7277 -0.6364  0.2810
  446MOL0     C61471   9.623   8.764   6.953  0.8480 -0.7392 -0.9018
  446MOL0     C61472   9.482   8.743   7.023  0.3910  0.4448  0.1864
  446MOL0     C61473   9.477   8.810   7.157  0.7050 -0.5580 -1.1803
  446MOL0     C61474   9.338   8.824   7.219 -0.5270 -0.4954 -0.0943
  446MOL0     C61475   9.231   8.834   7.272 -0.3037 -0.5609  0.2377
  446MOL0     C61476   9.955   8.505   7.115 -0.0106  0.3681  0.6217
  446MOL0     C61477  10.048   8.434   7.205 -0.2277  0.3189  0.3289
  446MOL0     C61478  10.178   8.388   7.145 -0.2665  0.8496  0.9926
  446MOL0     H61479   9.892   8.145   7.731  0.1832 -0.5531  0.5607
  446MOL0     H61480   9.985   7.988   7.881  2.6963 -0.3656  4.3694
  446MOL0     H61481  10.337   7.850   7.769 -3.3223  0.8069 -3.2760
  446MOL0     H61482  10.183   7.774   7.778  0.8786  3.1608 -3.4787
  446MOL0     H61483  10.327   7.597   7.843 -0.7054 -1.2744  0.7606
  446MOL0     H61484  10.415   7.692   7.962  0.0884  0.9948 -0.5507
  446MOL0     H61485  10.110   7.689   7.989 -0.8782  1.5500  3.4282
  446MOL0     H61486  10.200   7.550   8.031  1.6826  0.0970  3.7210
  446MOL0     H61487  10.327   7.688   8.203  1.3350 -0.0877 -1.6519
  446MOL0     H61488  10.251   7.832   8.137  0.8347 -0.5114 -2.2927
  446MOL0     H61489  10.140   7.731   8.338  1.6923  0.0194 -0.9397
  446MOL0     H61490  10.073   7.608   8.238 -1.2538 -0.0357 -0.7105
  446MOL0     H61491  10.028   7.901   8.172  3.5358  0.0141  2.7908
  446MOL0     H61492   9.938   7.784   8.096 -0.6704  1.6127 -1.3843
  446MOL0     H61493   9.941   7.784   8.400  1.3401  1.1977 -2.2162
  446MOL0     H61494   9.812   7.701   8.301 -1.5619  1.1598 -2.3585
  446MOL0     H61495   9.684   7.874   8.358 -3.6363 -0.9028 -3.1373
  446MOL0     H61496   9.826   7.996   8.319  1.2077 -1.2347 -2.8941
  446MOL0     H61497   9.627   7.700   8.131 -1.2651 -1.0609 -2.9840
  446MOL0     H61498   9.538   7.831   7.799 -1.6859  0.1278  0.9383
  446MOL0     H61499   9.512   7.711   7.914  0.7782  0.1839  0.3035
  446MOL0     H61500   9.630   7.660   7.678 -2.8961 -0.2378  1.3049
  446MOL0     H61501   9.776   7.740   7.742  1.0054 -1.8941  1.0007
  446MOL0     H61502   9.820   7.591   7.902  1.1695 -0.8550 -1.1813
  446MOL0     H61503   9.652   7.512   7.904 -0.8676  0.0850 -0.4036
  446MOL0     H61504   9.694   7.415   7.687 -0.1544  1.0621 -0.5457
  446MOL0     H61505   9.836   7.530   7.664 -2.3793  3.3404 -0.9492
  446MOL0     H61506  10.020   7.208   7.905 -1.3209 -0.2577  0.1356
  446MOL0     H61507  10.151   6.911   7.830  0.6745 -1.2539 -1.3929
  446MOL0     H61508  10.164   7.061   7.921 -0.0102 -0.3560 -1.9907
  446MOL0     H61509  10.283   7.036   7.804  1.3004  0.0347  2.2393
  446MOL0     H61510  10.409   6.720   7.639  0.0823 -3.2715 -1.7001
  446MOL0     H61511  10.587   6.643   7.524 -3.7025 -1.4871 -0.0383
  446MOL0     H61512  10.598   6.537   7.263  0.6006  0.2775  0.9561
  446MOL0     H61513  10.641   6.630   7.118 -1.1606 -1.1769  0.0625
  446MOL0     H61514  10.790   6.445   7.148  1.5305 -0.4733 -0.1829
  446MOL0     H61515  10.881   6.593   7.151  0.4122  2.0390  0.8987
  446MOL0     H61516  10.793   6.471   7.414 -0.7889  0.8933 -0.0248
  446MOL0     H61517  10.896   6.608   7.385  0.0397 -0.0134  0.9769
  446MOL0     H61518  11.053   6.404   7.273 -0.3698 -2.8045 -0.1814
  446MOL0     H61519  10.945   6.308   7.363  4.6059 -1.3200  2.0457
  446MOL0     H61520  11.094   6.543   7.476 -0.5869 -0.7441 -0.3773
  446MOL0     H61521  10.983   6.433   7.567 -1.0630  1.9228  1.1927
  446MOL0     H61522  11.210   6.403   7.616 -1.7335  3.8915 -1.3373
  446MOL0     H61523  11.249   6.352   7.452  0.8508 -0.8549  1.7689
  446MOL0     H61524  11.144   6.147   7.461  0.0617 -2.4456 -0.3699
  446MOL0     H61525  11.043   6.183   7.612  1.0368 -0.0594 -0.0668
  446MOL0     H61526  11.260   6.181   7.748 -1.5714  1.4895  0.4342
  446MOL0     H61527  11.346   6.109   7.601 -0.0908 -3.6432  0.8800
  446MOL0     H61528  10.540   6.923   7.203  2.8331  0.1765  1.7256
  446MOL0     H61529  10.347   7.026   7.324 -0.0006  1.1781  1.7584
  446MOL0     H61530   9.955   7.142   7.419  0.6072  2.2342 -1.4829
  446MOL0     H61531   9.818   7.311   7.540  0.3290 -0.5414 -1.5083
  446MOL0     H61532  10.384   8.103   7.833  0.5830 -1.5972  0.4046
  446MOL0     H61533  10.289   8.286   7.644 -0.3749 -0.3169  0.5480
  446MOL0     H61534   9.848   8.431   7.482  0.2534 -0.7135 -0.3456
  446MOL0     H61535   9.720   8.561   7.358 -0.2596 -0.9116  0.5088
  446MOL0     H61536   9.742   8.795   7.119  2.4598  0.4615 -0.9258
  446MOL0     H61537   9.817   8.753   6.976 -1.1195 -1.2449 -0.5779
  446MOL0     H61538   9.636   8.701   6.865  0.1828 -1.6813 -0.3416
  446MOL0     H61539   9.615   8.871   6.931 -2.2679 -1.4446 -4.1114
  446MOL0     H61540   9.408   8.786   6.955 -0.6748 -1.8578 -0.1788
  446MOL0     H61541   9.463   8.636   7.019  1.3153  0.3141 -2.2222
  446MOL0     H61542   9.529   8.906   7.152  1.3537 -0.3049  4.2135
  446MOL0     H61543   9.539   8.756   7.230 -2.8869 -2.6725  0.6221
  446MOL0     H61544   9.133   8.834   7.315  0.1913 -1.8549  1.4366
  446MOL0     H61545   9.981   8.528   7.012 -0.5115 -0.3426  0.3297
  446MOL0     H61546  10.181   8.420   7.041 -1.4469  1.6249  1.1856
  446MOL0     H61547  10.269   8.430   7.188  0.2822 -0.4480  1.1538
  446MOL0     H61548  10.187   8.279   7.152  0.7757  0.9509  1.3923
  447MOL0     O61549   4.792  11.520   6.506  0.0602 -0.7553 -0.0353
  447MOL0     C61550   4.743  11.594   6.422 -0.3915  0.3653 -0.3855
  447MOL0     O61551   4.623  11.654   6.431  0.6594 -0.0078  0.1816
  447MOL0     C61552   4.552  11.683   6.545 -0.0002  0.4656  0.0231
  447MOL0     C61553   4.596  11.662   6.673 -0.2213  1.1823  0.0961
  447MOL0     C61554   4.515  11.680   6.786  0.3130 -0.5099 -0.1283
  447MOL0     C61555   4.382  11.717   6.769 -0.3425 -0.3057  0.0533
  447MOL0     O61556   4.296  11.726   6.874  0.4180  0.0331  0.4941
  447MOL0     C61557   4.344  11.684   7.006  0.4508  0.8382 -0.9183
  447MOL0     C61558   4.241  11.726   7.105  0.0530  1.0936 -0.3192
  447MOL0     C61559   4.257  11.660   7.246  0.7879 -0.0862 -0.2840
  447MOL0     C61560   4.180  11.526   7.258  0.5943 -0.7387  0.5071
  447MOL0     C61561   4.163  11.464   7.389 -0.9597 -0.9408 -1.1636
  447MOL0     C61562   4.079  11.341   7.394 -0.2135 -0.7405  0.5437
  447MOL0     C61563   4.077  11.280   7.545 -0.8556  0.2732  0.1459
  447MOL0     C61564   4.209  11.213   7.591 -0.1836 -0.2283  0.1498
  447MOL0     N61565   4.181  11.157   7.727 -0.6395 -0.3831  0.4116
  447MOL0     C61566   4.144  11.028   7.747 -0.3487  0.0793  0.4486
  447MOL0     C61567   4.154  10.992   7.874 -0.3218  0.9420  0.1129
  447MOL0     C61568   4.138  10.851   7.933  0.9939  0.2106  0.4123
  447MOL0     C61569   3.998  10.804   7.900  0.3808  0.2526  0.1923
  447MOL0     C61570   3.997  10.658   7.951 -0.7271 -0.2334 -0.1274
  447MOL0     C61571   3.858  10.625   7.948 -0.3902 -0.6077  0.2085
  447MOL0     O61572   3.836  10.597   7.804 -0.6530  0.0572 -0.2697
  447MOL0     C61573   3.816  10.476   7.751 -0.2771  0.9487  1.3882
  447MOL0     C61574   3.764  10.481   7.619 -0.5826 -0.0520  0.1773
  447MOL0     C61575   3.737  10.351   7.557  0.1455  0.8110  0.5606
  447MOL0     C61576   3.679  10.347   7.430  0.3459 -0.3189  0.6565
  447MOL0     C61577   3.779  10.233   7.620 -0.1439  0.3578 -0.7838
  447MOL0     C61578   3.792  10.095   7.549 -0.6009 -0.1030 -0.2565
  447MOL0     O61579   3.855  10.084   7.432  0.7376 -0.8851  0.5154
  447MOL0     C61580   3.843   9.977   7.357 -0.6078 -0.6642  0.1226
  447MOL0     C61581   3.742   9.979   7.257  0.1852  0.0865  0.6329
  447MOL0     C61582   3.731   9.877   7.164 -0.1034 -1.0282 -0.2503
  447MOL0     C61583   3.812   9.768   7.176  0.2120  1.5580 -0.5109
  447MOL0     O61584   3.798   9.663   7.078 -0.4387  0.4267  0.1398
  447MOL0     C61585   3.928   9.618   7.032 -0.1056 -0.4305  0.4275
  447MOL0     C61586   3.920   9.573   6.884 -0.4988 -0.7475  0.3533
  447MOL0     C61587   4.052   9.516   6.817  0.0779  0.0493 -0.4049
  447MOL0     C61588   4.040   9.542   6.670 -0.4546 -0.3514  0.4016
  447MOL0     C61589   4.168   9.506   6.588  0.4555  0.3397 -0.1174
  447MOL0     C61590   4.227   9.367   6.619  0.6991 -0.5209  0.0783
  447MOL0     C61591   4.362   9.346   6.543  1.1062 -0.1411 -0.1325
  447MOL0     C61592   4.401   9.203   6.525 -0.8250  0.1780 -1.1059
  447MOL0    Cl61593   4.314   9.128   6.391  0.0258  0.3434  0.2663
  447MOL0     C61594   3.910   9.762   7.275  0.0197  0.5225 -0.0262
  447MOL0     C61595   3.927   9.869   7.361 -0.3665 -0.4030 -0.7217
  447MOL0     O61596   3.740  10.005   7.610 -0.1128 -0.0711  0.3897
  447MOL0     C61597   3.830  10.241   7.744 -0.1994  0.1965  0.0416
  447MOL0     C61598   3.837  10.358   7.810  0.1795  0.0422 -0.2339
  447MOL0     N61599   4.193  11.103   7.938  0.4005 -0.2696 -0.0661
  447MOL0     N61600   4.203  11.202   7.851 -0.6944 -0.6062 -0.1804
  447MOL0     C61601   4.339  11.761   6.644  0.5672 -0.7297 -0.1152
  447MOL0     C61602   4.424  11.745   6.533  0.4421  0.6732 -0.1672
  447MOL0     C61603   4.816  11.592   6.290  0.2131  0.1018 -0.2277
  447MOL0     C61604   4.939  11.524   6.285 -0.5832  0.1205 -0.6980
  447MOL0     C61605   5.008  11.523   6.166  0.4778 -0.1287  0.3196
  447MOL0     C61606   4.973  11.603   6.052  0.2700  0.8803  0.7044
  447MOL0     O61607   5.033  11.584   5.929  0.4671  0.2085 -0.0294
  447MOL0     C61608   4.954  11.619   5.815  0.1880 -0.4126  0.3553
  447MOL0     C61609   5.040  11.573   5.695  0.3345  0.2018 -0.0566
  447MOL0     C61610   5.012  11.421   5.676 -0.9716 -0.7864  0.0286
  447MOL0     C61611   5.041  11.386   5.529  0.3044  0.2036 -0.4201
  447MOL0     C61612   5.181  11.351   5.515 -0.5509  0.0071 -0.5248
  447MOL0     C61613   5.296  11.309   5.515  0.6404  0.5088 -0.4237
  447MOL0     C61614   4.865  11.693   6.072 -0.0802  0.1878  0.0700
  447MOL0     C61615   4.778  11.676   6.175  0.3873  0.0412  0.6535
  447MOL0     C61616   4.656  11.748   6.153 -0.2158  0.4678 -0.3003
  447MOL0     H61617   4.697  11.627   6.687 -0.7091 -1.5395 -2.3723
  447MOL0     H61618   4.569  11.665   6.879 -1.2767  2.7131  1.4908
  447MOL0     H61619   4.438  11.729   7.038  1.3280 -1.6873  0.2999
  447MOL0     H61620   4.346  11.575   7.009 -0.6492  0.7099  3.9638
  447MOL0     H61621   4.255  11.834   7.114  1.8127  1.0177 -1.6052
  447MOL0     H61622   4.142  11.706   7.063  0.9145 -1.0267 -1.5515
  447MOL0     H61623   4.362  11.645   7.271  1.3653  3.5564  0.0773
  447MOL0     H61624   4.215  11.733   7.316  0.3108 -2.3796  1.9583
  447MOL0     H61625   4.074  11.549   7.242  0.2034 -1.9459  1.2430
  447MOL0     H61626   4.216  11.456   7.182  0.5575  1.0010 -1.2131
  447MOL0     H61627   4.128  11.542   7.458 -0.3977 -0.2590 -1.6259
  447MOL0     H61628   4.261  11.449   7.435 -1.7183 -0.1214  0.8513
  447MOL0     H61629   3.971  11.345   7.373 -0.1833 -0.4497  0.4390
  447MOL0     H61630   4.118  11.262   7.331  0.2875  1.2221 -1.7619
  447MOL0     H61631   3.997  11.207   7.558 -0.3999 -0.0251  1.4977
  447MOL0     H61632   4.067  11.366   7.613  3.8980  0.6375  0.6950
  447MOL0     H61633   4.227  11.128   7.525 -0.9110 -1.4671  1.4805
  447MOL0     H61634   4.287  11.290   7.592  0.6364 -1.0421  0.2433
  447MOL0     H61635   4.117  10.966   7.662 -2.1067 -0.5693  1.4321
  447MOL0     H61636   4.159  10.860   8.040  1.0584  1.2593  0.3183
  447MOL0     H61637   4.200  10.777   7.882 -2.7082 -1.8674 -1.4888
  447MOL0     H61638   3.936  10.875   7.955  1.7826 -0.4747  2.9372
  447MOL0     H61639   3.980  10.822   7.794 -0.2400  1.1739  0.4392
  447MOL0     H61640   4.058  10.596   7.885 -0.4175 -1.0932  0.9441
  447MOL0     H61641   4.034  10.651   8.053 -1.1269  1.7593  0.1937
  447MOL0     H61642   3.827  10.535   8.003  0.2735 -2.0412 -1.6539
  447MOL0     H61643   3.790  10.706   7.974  0.6328  0.4507 -0.3384
  447MOL0     H61644   3.738  10.570   7.562 -1.2296 -0.9919 -1.0529
  447MOL0     H61645   3.741  10.399   7.356  0.5352 -0.8464  0.4407
  447MOL0     H61646   3.580  10.392   7.439  0.7714  1.0318 -0.9311
  447MOL0     H61647   3.651  10.246   7.399 -0.4321 -0.2915  1.2460
  447MOL0     H61648   3.675  10.063   7.241  0.1343 -0.5686 -3.8457
  447MOL0     H61649   3.656   9.881   7.085 -0.1236  1.6880 -0.1944
  447MOL0     H61650   4.002   9.699   7.032  1.2761 -1.5675 -2.3028
  447MOL0     H61651   3.962   9.541   7.101 -0.7045 -0.9099  0.1892
  447MOL0     H61652   3.855   9.486   6.888  0.0881 -1.2372 -0.4278
  447MOL0     H61653   3.871   9.649   6.823  0.2528  0.7700  1.5608
  447MOL0     H61654   4.054   9.407   6.826  1.9045  0.1917  1.6545
  447MOL0     H61655   4.150   9.547   6.855  2.0147  0.0493 -4.7687
  447MOL0     H61656   4.012   9.645   6.648  0.8583 -0.3892 -1.6973
  447MOL0     H61657   3.960   9.480   6.628 -0.1986 -1.2704  1.2226
  447MOL0     H61658   4.140   9.494   6.483  1.1729  0.0568 -0.2796
  447MOL0     H61659   4.245   9.583   6.598 -0.0182  0.6443  1.4719
  447MOL0     H61660   4.156   9.289   6.590 -0.3599  0.2063  0.6214
  447MOL0     H61661   4.235   9.366   6.728 -1.5116  3.2291  0.4392
  447MOL0     H61662   4.443   9.382   6.607  1.9993 -1.2435 -0.6010
  447MOL0     H61663   4.350   9.398   6.447  1.4116 -0.4280 -0.3305
  447MOL0     H61664   4.386   9.139   6.613 -2.1834  1.4062 -0.4119
  447MOL0     H61665   4.507   9.197   6.500 -0.7110  0.7104 -0.7496
  447MOL0     H61666   3.986   9.684   7.273 -2.1385 -1.7062 -1.6522
  447MOL0     H61667   4.009   9.864   7.432 -1.2617 -0.2360  0.3490
  447MOL0     H61668   3.860  10.156   7.805  1.9466  1.0732  0.2993
  447MOL0     H61669   3.872  10.345   7.912 -1.7713 -1.0301  0.3760
  447MOL0     H61670   4.240  11.803   6.628  1.6662  1.2775 -2.4760
  447MOL0     H61671   4.383  11.775   6.437 -1.6711  0.9597  0.7479
  447MOL0     H61672   4.967  11.448   6.357 -4.3009 -0.4192  0.3479
  447MOL0     H61673   5.096  11.460   6.156  1.5516  1.3754 -0.0078
  447MOL0     H61674   4.847  11.594   5.817 -0.0397  0.5241  1.7524
  447MOL0     H61675   4.949  11.728   5.821 -2.2458 -0.4386  0.0797
  447MOL0     H61676   5.144  11.606   5.700 -0.2191  1.8903  3.1216
  447MOL0     H61677   5.006  11.629   5.607  0.0571 -2.3643 -1.7219
  447MOL0     H61678   5.072  11.363   5.746  0.4538  4.0684  3.3889
  447MOL0     H61679   4.912  11.400   5.715  0.0624 -0.3660  3.1474
  447MOL0     H61680   5.013  11.457   5.450  0.5741  3.7542  2.4421
  447MOL0     H61681   4.990  11.292   5.506  0.1660  0.3690 -0.8034
  447MOL0     H61682   5.400  11.283   5.519  0.2635 -1.3645  4.3262
  447MOL0     H61683   4.847  11.763   5.991  3.4624 -0.5905 -1.6053
  447MOL0     H61684   4.565  11.705   6.196 -0.8305  1.4415 -0.6039
  447MOL0     H61685   4.670  11.846   6.200  3.5208  1.5054 -3.1697
  447MOL0     H61686   4.627  11.766   6.049  2.8029 -0.9331 -1.5157
  448MOL0     O61687   4.766   9.303   0.948 -0.2874  0.5161 -0.2802
  448MOL0     C61688   4.712   9.239   1.042 -0.3640 -0.6842 -0.2795
  448MOL0     O61689   4.745   9.116   1.088 -0.5801  0.3698 -0.4113
  448MOL0     C61690   4.843   9.039   1.017  0.0095 -0.0521  0.0550
  448MOL0     C61691   4.959   8.999   1.090 -0.4564  0.9856  0.3225
  448MOL0     C61692   5.062   8.924   1.024 -0.3672  0.9427  0.8025
  448MOL0     C61693   5.062   8.893   0.889 -0.4705 -0.9261  0.0095
  448MOL0     O61694   5.155   8.818   0.825  0.4164  0.1043  0.1856
  448MOL0     C61695   5.281   8.785   0.894  0.2299  0.3447 -0.6311
  448MOL0     C61696   5.358   8.706   0.799  0.0746  0.2921 -0.1369
  448MOL0     C61697   5.496   8.677   0.851  0.0134 -1.0723 -0.2766
  448MOL0     C61698   5.566   8.578   0.755  0.0613 -0.2518 -0.5034
  448MOL0     C61699   5.711   8.548   0.802 -0.8876 -0.5074  0.1131
  448MOL0     C61700   5.747   8.503   0.942 -0.1003 -0.0348 -0.1221
  448MOL0     C61701   5.910   8.529   0.950  0.1802  0.3889  0.6958
  448MOL0     C61702   5.978   8.464   1.073  0.9804 -0.2963 -0.6775
  448MOL0     N61703   5.951   8.551   1.192  0.3903  0.7086 -0.0243
  448MOL0     C61704   6.010   8.674   1.215 -0.0267  0.2035 -0.3102
  448MOL0     C61705   5.951   8.717   1.325  0.0332 -0.4316 -0.1553
  448MOL0     C61706   5.956   8.842   1.397 -0.3678 -0.2979 -1.2161
  448MOL0     C61707   5.833   8.925   1.394  1.1364  0.2953  0.2780
  448MOL0     C61708   5.839   9.061   1.472 -0.2952 -0.5968  0.1588
  448MOL0     C61709   5.869   9.048   1.616  0.7434 -1.3021 -0.3941
  448MOL0     O61710   6.001   9.012   1.636 -0.2189 -0.2329  0.3188
  448MOL0     C61711   6.047   9.035   1.762 -0.6768 -0.1401  1.1043
  448MOL0     C61712   5.973   9.045   1.883 -0.9577 -0.9257  0.6222
  448MOL0     C61713   6.032   9.060   2.008  0.1520 -0.1618  0.3218
  448MOL0     C61714   5.934   9.068   2.120 -0.0335  0.0428 -0.3874
  448MOL0     C61715   6.168   9.057   2.020 -1.1950  0.6768 -0.9394
  448MOL0     C61716   6.249   9.078   2.133  0.5444  0.7805 -1.7893
  448MOL0     O61717   6.389   9.058   2.125 -0.4503 -0.6001  0.7366
  448MOL0     C61718   6.479   9.073   2.227  0.6517 -0.0480 -0.2395
  448MOL0     C61719   6.470   8.977   2.333  0.1854 -0.3457 -0.0366
  448MOL0     C61720   6.563   8.968   2.430  0.6477 -0.4203 -0.2457
  448MOL0     C61721   6.669   9.061   2.434 -0.4324  0.7969 -0.9809
  448MOL0     O61722   6.772   9.037   2.514 -0.4001 -0.5336  0.0060
  448MOL0     C61723   6.834   9.136   2.591  0.1688 -0.2427 -0.2828
  448MOL0     C61724   6.970   9.082   2.614 -0.7540 -1.4130 -0.9772
  448MOL0     C61725   6.983   8.962   2.714  0.1538 -0.1454  0.7358
  448MOL0     C61726   6.926   8.991   2.847 -0.6427  0.2208  0.5730
  448MOL0     C61727   6.931   8.883   2.953  0.6823  0.4909 -0.2271
  448MOL0     C61728   6.871   8.916   3.092 -0.2131  1.2553 -0.3013
  448MOL0     C61729   6.713   8.910   3.108  0.8433  0.3428  0.6037
  448MOL0     C61730   6.661   8.955   3.246 -0.6654  0.0501  0.3866
  448MOL0    Cl61731   6.664   9.134   3.249  0.3856  0.1947 -0.5222
  448MOL0     C61732   6.672   9.168   2.345  0.5792 -0.3470 -0.7472
  448MOL0     C61733   6.581   9.170   2.235 -0.4345  0.2117 -0.3413
  448MOL0     O61734   6.195   9.130   2.231  0.2341  0.3416 -0.2776
  448MOL0     C61735   6.245   9.044   1.903 -0.4999 -0.2833 -0.5127
  448MOL0     C61736   6.180   9.034   1.775 -0.0976  0.3317  0.2832
  448MOL0     N61737   5.874   8.615   1.372 -0.1664  0.7535 -0.3484
  448MOL0     N61738   5.876   8.512   1.294  0.8229  1.0071  0.4645
  448MOL0     C61739   4.944   8.931   0.819  0.5272 -0.6823  0.3642
  448MOL0     C61740   4.834   8.999   0.879 -0.3973 -0.2384  0.1434
  448MOL0     C61741   4.592   9.303   1.101  0.2648 -0.9709  0.0382
  448MOL0     C61742   4.504   9.220   1.162 -0.0611  0.3762 -0.1434
  448MOL0     C61743   4.391   9.276   1.229  0.7669 -0.3571 -0.0607
  448MOL0     C61744   4.358   9.411   1.230  0.0092 -0.8440 -0.8765
  448MOL0     O61745   4.250   9.469   1.294 -0.2185 -0.4653  0.3254
  448MOL0     C61746   4.201   9.397   1.408 -0.0448  0.0028 -0.3594
  448MOL0     C61747   4.064   9.332   1.371 -0.8556 -0.1093 -0.0959
  448MOL0     C61748   3.974   9.423   1.295  0.1550  0.4982 -0.1448
  448MOL0     C61749   3.826   9.364   1.258  0.1635 -0.1176 -0.3187
  448MOL0     C61750   3.724   9.411   1.351 -0.6374  0.2511  0.6541
  448MOL0     C61751   3.628   9.452   1.420 -0.6471  0.3501 -0.0948
  448MOL0     C61752   4.442   9.492   1.154  0.4421  0.5557  0.1034
  448MOL0     C61753   4.555   9.446   1.095 -0.1376 -0.3718  0.7023
  448MOL0     C61754   4.645   9.548   1.033 -1.1349 -1.0239  0.5430
  448MOL0     H61755   4.978   9.023   1.194  2.8455 -2.7834  0.8415
  448MOL0     H61756   5.143   8.881   1.082  0.1637 -0.0531 -0.6182
  448MOL0     H61757   5.256   8.733   0.987  2.7568  1.3572  0.7084
  448MOL0     H61758   5.323   8.879   0.930 -4.7526  1.8315  2.3089
  448MOL0     H61759   5.312   8.607   0.808  1.3813 -0.1791  2.2126
  448MOL0     H61760   5.350   8.764   0.706 -1.3840  0.5863  0.1448
  448MOL0     H61761   5.549   8.772   0.847 -2.4480  0.3557 -3.5105
  448MOL0     H61762   5.474   8.623   0.944 -1.3371 -2.0039 -1.0981
  448MOL0     H61763   5.508   8.486   0.754 -3.2361  1.6397  0.9258
  448MOL0     H61764   5.570   8.628   0.658 -1.2714  0.4190 -0.2416
  448MOL0     H61765   5.766   8.640   0.783 -3.4216  0.7953 -1.4080
  448MOL0     H61766   5.749   8.465   0.740 -0.7822 -0.7090  0.4443
  448MOL0     H61767   5.702   8.568   1.019  2.1588  1.4255  0.0746
  448MOL0     H61768   5.725   8.400   0.969 -1.7636 -0.1047 -1.5586
  448MOL0     H61769   5.918   8.638   0.954 -1.8459  0.7790 -2.3038
  448MOL0     H61770   5.958   8.481   0.865 -1.0720 -0.8493  0.6454
  448MOL0     H61771   5.953   8.359   1.087  0.0313  0.1938  2.0365
  448MOL0     H61772   6.085   8.453   1.052  0.5439 -1.5848 -2.3575
  448MOL0     H61773   6.087   8.727   1.162 -0.2693  1.6513  0.7258
  448MOL0     H61774   6.046   8.899   1.371 -0.7942  0.8740 -0.2209
  448MOL0     H61775   5.960   8.813   1.503 -4.4673  1.5953 -0.3661
  448MOL0     H61776   5.826   8.959   1.290  3.2591  2.9323  0.8850
  448MOL0     H61777   5.747   8.874   1.439  1.9851  0.3705  2.0943
  448MOL0     H61778   5.921   9.122   1.432 -0.2832  0.8926  2.3112
  448MOL0     H61779   5.754   9.128   1.461  0.5686  0.4191 -0.6161
  448MOL0     H61780   5.850   9.142   1.668  1.7602 -0.7943 -0.9042
  448MOL0     H61781   5.799   8.978   1.663 -1.5510 -1.5093 -3.8063
  448MOL0     H61782   5.865   9.049   1.867 -0.6944 -1.3525 -1.6448
  448MOL0     H61783   5.988   9.023   2.204 -1.8331 -3.4396 -0.8847
  448MOL0     H61784   5.847   9.002   2.111  0.1559 -0.6715  2.3397
  448MOL0     H61785   5.903   9.166   2.156 -1.6533 -1.7100  3.6486
  448MOL0     H61786   6.383   8.913   2.325 -2.5758  3.1090 -0.1086
  448MOL0     H61787   6.556   8.884   2.499  0.0320  1.8716  2.6950
  448MOL0     H61788   6.838   9.234   2.541  0.2556 -1.0240 -1.8640
  448MOL0     H61789   6.769   9.155   2.677 -0.8132 -1.8778 -0.6394
  448MOL0     H61790   7.006   9.059   2.514 -0.3229  1.1369 -1.4699
  448MOL0     H61791   7.042   9.157   2.647 -0.0690 -2.4140 -0.1301
  448MOL0     H61792   7.089   8.944   2.731  0.4189  0.1705 -0.5280
  448MOL0     H61793   6.935   8.875   2.668  0.7393  1.0762 -2.3887
  448MOL0     H61794   6.818   9.007   2.835 -1.7891 -3.9648  3.1764
  448MOL0     H61795   6.972   9.084   2.881  2.4238 -0.8590 -0.3511
  448MOL0     H61796   6.879   8.796   2.912  1.0819  1.2765 -2.5648
  448MOL0     H61797   7.037   8.861   2.972  0.5858  0.1301 -0.1055
  448MOL0     H61798   6.903   9.014   3.130 -3.1409  2.3985 -0.5367
  448MOL0     H61799   6.906   8.836   3.158 -0.1155 -0.2688 -2.0911
  448MOL0     H61800   6.679   8.811   3.077  1.3119 -0.7351  3.2721
  448MOL0     H61801   6.658   8.977   3.042 -0.2648 -1.6182 -0.5778
  448MOL0     H61802   6.722   8.912   3.325  1.4539  0.8412 -0.7496
  448MOL0     H61803   6.555   8.931   3.263 -0.6318  1.1724  2.4836
  448MOL0     H61804   6.758   9.234   2.336 -0.0555  0.4960 -0.8583
  448MOL0     H61805   6.596   9.237   2.151 -0.6255 -0.9000 -1.2872
  448MOL0     H61806   6.352   9.060   1.903 -0.6219  0.6096 -1.0605
  448MOL0     H61807   6.243   9.052   1.689 -1.5037  0.4186 -0.7601
  448MOL0     H61808   4.930   8.919   0.712  1.0249  0.9306  0.0846
  448MOL0     H61809   4.745   9.025   0.823 -0.0519 -0.5354 -0.5687
  448MOL0     H61810   4.515   9.112   1.171  0.9855  0.4269 -0.6742
  448MOL0     H61811   4.332   9.197   1.275 -2.6363  0.1843 -3.0403
  448MOL0     H61812   4.271   9.337   1.466  0.2925  0.9756  0.2682
  448MOL0     H61813   4.175   9.477   1.479  1.8132 -0.1178  0.5096
  448MOL0     H61814   4.014   9.317   1.467  3.9830 -1.3078  2.6162
  448MOL0     H61815   4.066   9.241   1.310 -4.4553  0.4868 -1.2889
  448MOL0     H61816   3.964   9.515   1.354 -0.5545  0.4607 -0.1974
  448MOL0     H61817   4.026   9.451   1.202 -0.4669  1.8474 -0.1160
  448MOL0     H61818   3.833   9.256   1.272  0.2047  0.2626  4.3266
  448MOL0     H61819   3.805   9.392   1.155 -0.0588  1.5281  0.1421
  448MOL0     H61820   3.545   9.499   1.467 -0.9765  0.6315 -0.9463
  448MOL0     H61821   4.423   9.599   1.150  0.3495  0.5018 -2.2663
  448MOL0     H61822   4.609   9.651   1.027 -0.5942 -0.8384 -4.6898
  448MOL0     H61823   4.745   9.539   1.075 -1.0523  0.7263  0.7839
  448MOL0     H61824   4.657   9.539   0.924  0.7622  2.0448  0.3862
  449MOL0     O61825   7.342   1.214   2.295  0.2017  0.3942  0.2850
  449MOL0     C61826   7.448   1.166   2.335 -0.2664 -0.1249  0.1911
  449MOL0     O61827   7.462   1.096   2.452 -0.5338 -1.2066  0.1463
  449MOL0     C61828   7.400   1.129   2.559  0.0639  0.0800  0.3370
  449MOL0     C61829   7.300   1.043   2.602 -0.2487  0.2044  1.1489
  449MOL0     C61830   7.217   1.088   2.701 -0.6026  0.0042 -0.0289
  449MOL0     C61831   7.224   1.225   2.756  0.8032  0.4800 -0.1927
  449MOL0     O61832   7.151   1.278   2.861 -0.5917 -0.1294  0.1874
  449MOL0     C61833   7.023   1.222   2.908 -0.5688  0.6891  0.4877
  449MOL0     C61834   7.048   1.107   3.006 -0.8365 -0.7670  0.4210
  449MOL0     C61835   7.131   1.160   3.126  0.7314 -0.1226  0.2718
  449MOL0     C61836   7.153   1.038   3.211 -0.3827  0.1712 -0.4315
  449MOL0     C61837   7.216   1.067   3.342  0.1147 -0.5085  0.1369
  449MOL0     C61838   7.302   0.949   3.400 -0.1436 -0.7398 -0.2132
  449MOL0     C61839   7.332   0.987   3.543 -0.2862  0.6007  0.4297
  449MOL0     C61840   7.461   0.924   3.603  0.9942 -0.2812  0.0403
  449MOL0     N61841   7.428   0.777   3.606 -0.3120 -0.6085 -0.1852
  449MOL0     C61842   7.498   0.680   3.532  0.7762 -0.3645 -0.5459
  449MOL0     C61843   7.497   0.574   3.615  0.8760  0.2414  0.1497
  449MOL0     C61844   7.554   0.433   3.581  1.0706 -0.3440  0.9163
  449MOL0     C61845   7.691   0.422   3.646 -0.4402 -0.1876  0.5930
  449MOL0     C61846   7.751   0.282   3.624 -0.6556  0.8619 -0.2691
  449MOL0     C61847   7.895   0.280   3.672 -0.2184  0.6208 -0.5215
  449MOL0     O61848   7.959   0.163   3.644  0.5541 -0.2246 -0.2544
  449MOL0     C61849   7.918   0.045   3.701  0.4155 -0.7021 -0.6562
  449MOL0     C61850   7.907  -0.069   3.626  0.5227 -0.4951  0.3656
  449MOL0     C61851   7.888  -0.197   3.680 -0.7965 -0.0745  0.6472
  449MOL0     C61852   7.876  -0.317   3.598 -0.2304  0.7593  0.4154
  449MOL0     C61853   7.877  -0.209   3.819 -0.0083 -0.1903 -0.3411
  449MOL0     C61854   7.870  -0.336   3.901  0.3685  0.0753  0.1851
  449MOL0     O61855   7.821  -0.334   4.029 -0.6423 -0.0347  0.5482
  449MOL0     C61856   7.847  -0.453   4.103 -0.3244 -0.6523  0.1908
  449MOL0     C61857   7.752  -0.554   4.093 -0.5624  0.2871  0.0475
  449MOL0     C61858   7.758  -0.668   4.167 -1.0122 -0.4231  0.1256
  449MOL0     C61859   7.858  -0.683   4.258 -1.7754  0.3481 -0.0848
  449MOL0     O61860   7.860  -0.799   4.337 -0.1045  0.1403  0.1980
  449MOL0     C61861   7.807  -0.779   4.470  1.3310  1.1279  0.2211
  449MOL0     C61862   7.807  -0.890   4.560 -0.4714  0.6391 -0.6988
  449MOL0     C61863   7.707  -0.895   4.673 -0.2529 -0.1262  0.1425
  449MOL0     C61864   7.712  -1.028   4.742  0.9232  0.1574 -0.3789
  449MOL0     C61865   7.642  -1.026   4.881 -0.0945 -0.6579 -0.1744
  449MOL0     C61866   7.665  -1.157   4.963 -0.8369  0.1966 -0.2997
  449MOL0     C61867   7.595  -1.156   5.093 -0.7473  1.1556  0.5067
  449MOL0     C61868   7.631  -1.269   5.178  0.0420 -0.3420  0.1742
  449MOL0    Cl61869   7.573  -1.426   5.125  0.0867  0.4672  0.1826
  449MOL0     C61870   7.954  -0.583   4.278 -0.4505  0.9558  0.0983
  449MOL0     C61871   7.938  -0.467   4.202  0.1539  0.4237 -0.1227
  449MOL0     O61872   7.922  -0.440   3.845 -0.0526  0.0036  0.6079
  449MOL0     C61873   7.898  -0.088   3.899  0.0454  0.6887 -0.2698
  449MOL0     C61874   7.914   0.031   3.844  0.3077  0.4983 -0.5270
  449MOL0     N61875   7.425   0.606   3.725 -0.2007 -0.7570  0.2680
  449MOL0     N61876   7.375   0.726   3.722 -0.3456 -0.5079  0.4734
  449MOL0     C61877   7.330   1.305   2.703 -0.2447 -0.1844  0.7489
  449MOL0     C61878   7.422   1.254   2.616 -0.4655 -0.4177  0.2887
  449MOL0     C61879   7.580   1.172   2.264 -0.1007  0.5367 -0.0934
  449MOL0     C61880   7.701   1.149   2.331  0.1006  0.4013 -0.6900
  449MOL0     C61881   7.824   1.151   2.264 -0.6253  0.0016 -0.6137
  449MOL0     C61882   7.820   1.152   2.124 -0.2582  0.2036  1.1809
  449MOL0     O61883   7.937   1.138   2.046 -0.0422 -0.8338 -0.4228
  449MOL0     C61884   8.068   1.141   2.114 -0.4349 -0.5062  1.5457
  449MOL0     C61885   8.114   1.276   2.171  0.5391 -0.3384  0.6520
  449MOL0     C61886   8.260   1.306   2.122  0.0779 -0.0526  1.0837
  449MOL0     C61887   8.330   1.435   2.188 -0.0747 -0.2627 -0.1949
  449MOL0     C61888   8.417   1.503   2.096 -0.1236  0.8638  0.6935
  449MOL0     C61889   8.514   1.560   2.034 -0.3263  1.1476 -0.3944
  449MOL0     C61890   7.700   1.175   2.055 -0.1581  0.5563  0.1979
  449MOL0     C61891   7.579   1.177   2.122  0.3158 -0.8504  0.6045
  449MOL0     C61892   7.457   1.155   2.042  0.5511  0.3475  0.6436
  449MOL0     H61893   7.299   0.946   2.554  0.6397  0.7848 -0.0940
  449MOL0     H61894   7.139   1.017   2.725 -0.7585  0.3045  0.3762
  449MOL0     H61895   6.973   1.169   2.826 -2.0929  0.9595  1.2053
  449MOL0     H61896   6.958   1.301   2.946  1.2163  0.5438  4.2877
  449MOL0     H61897   6.951   1.062   3.028 -0.7596 -1.2686 -0.2279
  449MOL0     H61898   7.107   1.031   2.954 -1.2317 -1.2429  0.6667
  449MOL0     H61899   7.227   1.198   3.089 -0.2917  0.5592 -1.8610
  449MOL0     H61900   7.068   1.232   3.179  1.9697 -0.1048  1.7614
  449MOL0     H61901   7.056   0.994   3.232 -0.4965  0.5825 -0.0839
  449MOL0     H61902   7.212   0.972   3.147 -1.7081 -1.7956  0.2977
  449MOL0     H61903   7.139   1.107   3.408 -0.6166  1.6921 -1.9118
  449MOL0     H61904   7.291   1.147   3.342  0.4724 -0.8270  1.0603
  449MOL0     H61905   7.244   0.856   3.399  0.4019 -1.2420  2.7286
  449MOL0     H61906   7.386   0.947   3.330 -0.3404 -1.9760 -0.4451
  449MOL0     H61907   7.244   0.951   3.598 -3.0174  0.0193 -3.8784
  449MOL0     H61908   7.329   1.095   3.559 -4.3901  0.3021  3.1369
  449MOL0     H61909   7.552   0.937   3.545  0.4037  0.0442 -0.8435
  449MOL0     H61910   7.489   0.969   3.699 -1.3852 -0.5022  0.9051
  449MOL0     H61911   7.555   0.698   3.442  2.3833  5.8237  1.1767
  449MOL0     H61912   7.555   0.437   3.472 -2.1627  2.9923  0.8157
  449MOL0     H61913   7.478   0.362   3.616  0.5009 -0.2143 -0.0343
  449MOL0     H61914   7.755   0.499   3.602 -1.5893  1.0642  1.0324
  449MOL0     H61915   7.698   0.446   3.753  0.6971  3.4490 -0.1565
  449MOL0     H61916   7.685   0.216   3.681  1.8384 -0.0881  1.7354
  449MOL0     H61917   7.741   0.255   3.518  2.0701  0.0961 -0.4019
  449MOL0     H61918   7.939   0.354   3.603  3.2199 -2.4818 -2.0034
  449MOL0     H61919   7.912   0.305   3.777  1.8349 -2.8989  0.1602
  449MOL0     H61920   7.927  -0.055   3.520 -0.7344 -2.1027 -0.1096
  449MOL0     H61921   7.813  -0.288   3.514  1.2691 -1.8368 -1.7425
  449MOL0     H61922   7.819  -0.394   3.651 -0.6954  1.8681  1.5947
  449MOL0     H61923   7.970  -0.351   3.553  1.7477  3.6424  2.0072
  449MOL0     H61924   7.659  -0.543   4.038 -2.0429 -2.5466  1.7520
  449MOL0     H61925   7.678  -0.741   4.157 -0.4046 -0.8882 -1.7453
  449MOL0     H61926   7.854  -0.696   4.523 -1.3720  2.1962  1.1750
  449MOL0     H61927   7.708  -0.738   4.448  1.6776  0.6632 -2.4675
  449MOL0     H61928   7.784  -0.974   4.495 -0.2188 -1.1032  1.3674
  449MOL0     H61929   7.906  -0.895   4.607 -0.7906 -2.5704 -0.1602
  449MOL0     H61930   7.605  -0.864   4.649 -2.1358 -1.9095  4.7325
  449MOL0     H61931   7.738  -0.825   4.751 -1.3679 -1.4221  1.8286
  449MOL0     H61932   7.813  -1.069   4.749  0.4658 -1.1155 -1.0247
  449MOL0     H61933   7.656  -1.093   4.675  1.7060 -1.1651  0.2227
  449MOL0     H61934   7.681  -0.940   4.936 -0.6140  1.1158 -2.4062
  449MOL0     H61935   7.536  -1.007   4.859 -0.3823  0.8712  2.1310
  449MOL0     H61936   7.770  -1.147   4.989 -1.3784 -1.4087  3.0394
  449MOL0     H61937   7.640  -1.244   4.903 -1.4928  0.5561 -0.5638
  449MOL0     H61938   7.487  -1.164   5.074 -0.5514 -1.8768  0.1208
  449MOL0     H61939   7.626  -1.065   5.145  1.7400  0.9678 -0.4989
  449MOL0     H61940   7.604  -1.258   5.284  0.6205 -3.5383  0.7353
  449MOL0     H61941   7.739  -1.284   5.180 -0.1316 -1.9494 -1.0875
  449MOL0     H61942   8.028  -0.587   4.358 -1.8709  0.7416  1.4345
  449MOL0     H61943   8.004  -0.381   4.205  1.4200 -0.4768 -0.8019
  449MOL0     H61944   7.888  -0.079   4.007 -0.2336  2.0608 -0.4061
  449MOL0     H61945   7.925   0.115   3.912 -1.5721  0.0232  0.4501
  449MOL0     H61946   7.338   1.402   2.750  3.2221 -0.9188  2.0058
  449MOL0     H61947   7.509   1.314   2.593  0.5726 -0.9438  2.5398
  449MOL0     H61948   7.704   1.132   2.438  0.6283 -0.6963 -0.8700
  449MOL0     H61949   7.916   1.136   2.321 -0.2156  2.2577 -0.5703
  449MOL0     H61950   8.072   1.062   2.190 -2.4871 -2.0767  0.1488
  449MOL0     H61951   8.141   1.099   2.044 -1.7352 -0.2670  0.0033
  449MOL0     H61952   8.101   1.274   2.280 -0.9110 -3.4333  0.5234
  449MOL0     H61953   8.049   1.356   2.136 -0.5051 -2.3669 -2.3814
  449MOL0     H61954   8.326   1.226   2.156 -0.4382  0.2690  2.9668
  449MOL0     H61955   8.259   1.324   2.014  2.7714 -1.5504  0.7307
  449MOL0     H61956   8.388   1.400   2.273 -0.7266 -3.2811 -0.8619
  449MOL0     H61957   8.266   1.514   2.226  2.6412  1.0320  2.0206
  449MOL0     H61958   8.592   1.608   1.977 -1.0290  1.0513 -1.4634
  449MOL0     H61959   7.703   1.174   1.946 -0.8332  0.3527  0.1795
  449MOL0     H61960   7.401   1.248   2.030  0.6238  0.0914 -2.5672
  449MOL0     H61961   7.484   1.105   1.948 -3.4946  0.8770 -0.9682
  449MOL0     H61962   7.389   1.081   2.086  2.7025 -1.5363  1.0038
  450MOL0     O61963   7.019   7.234   9.354 -0.2904 -0.4482  0.7578
  450MOL0     C61964   7.103   7.326   9.350 -0.1279  0.3867  0.0353
  450MOL0     O61965   7.172   7.361   9.450  0.5819 -0.4595  0.3618
  450MOL0     C61966   7.193   7.293   9.564  0.8794  0.4022 -0.7225
  450MOL0     C61967   7.224   7.362   9.684  0.2278 -0.4744 -0.5357
  450MOL0     C61968   7.245   7.291   9.797  0.5776 -0.8432 -0.3018
  450MOL0     C61969   7.228   7.157   9.800 -0.0233  1.1455 -0.2693
  450MOL0     O61970   7.246   7.101   9.925 -0.1570  0.0154  0.0806
  450MOL0     C61971   7.285   6.961   9.913  0.6529  0.6977 -0.4996
  450MOL0     C61972   7.298   6.899  10.056  0.4082 -0.0725 -0.2202
  450MOL0     C61973   7.172   6.915  10.139  0.4202  0.2549 -0.4986
  450MOL0     C61974   7.180   6.837  10.269  0.5034 -0.1487 -0.1273
  450MOL0     C61975   7.076   6.724  10.279 -0.2399  1.2249 -0.5552
  450MOL0     C61976   7.120   6.624  10.390  0.3310 -0.7273  0.2928
  450MOL0     C61977   7.021   6.503  10.398 -0.7885 -0.3972 -0.7155
  450MOL0     C61978   7.054   6.391  10.514  0.3207 -1.0693  0.1166
  450MOL0     N61979   7.156   6.278  10.480 -0.1326  0.5259  0.0104
  450MOL0     C61980   7.112   6.146  10.464  0.2664 -0.0316 -0.5732
  450MOL0     C61981   7.223   6.076  10.464 -0.1553  0.6515 -0.0953
  450MOL0     C61982   7.245   5.926  10.443  0.3369  0.4049  0.5855
  450MOL0     C61983   7.159   5.840  10.535 -0.1122 -0.0275  0.2822
  450MOL0     C61984   7.209   5.851  10.679 -0.2236 -0.1674 -0.3649
  450MOL0     C61985   7.152   5.969  10.762  0.9277 -0.5613  0.1448
  450MOL0     O61986   7.144   5.950  10.906 -0.6631 -0.4485  0.9442
  450MOL0     C61987   7.265   5.946  10.973 -0.2599  0.8566 -0.2011
  450MOL0     C61988   7.356   5.841  10.952  0.0328  0.1208 -0.1996
  450MOL0     C61989   7.481   5.844  10.991 -0.2230  0.0304 -0.5550
  450MOL0     C61990   7.569   5.730  10.950  0.1869  0.2490 -0.4133
  450MOL0     C61991   7.528   5.952  11.070  1.1351 -0.7579  0.2104
  450MOL0     C61992   7.660   5.962  11.139  0.4828  0.4319  0.6243
  450MOL0     O61993   7.764   6.028  11.082 -0.3823 -0.4601 -0.1071
  450MOL0     C61994   7.883   5.968  11.121  0.2377  0.1679  0.4939
  450MOL0     C61995   7.916   5.832  11.099  0.1012  0.3207  0.1891
  450MOL0     C61996   8.048   5.786  11.125  0.6787 -0.1580 -0.1522
  450MOL0     C61997   8.150   5.877  11.159  0.2385 -1.0715 -0.1098
  450MOL0     O61998   8.269   5.829  11.206  0.4638  0.4844 -0.2262
  450MOL0     C61999   8.345   5.763  11.106  0.1912 -0.5858  0.6424
  450MOL0     C62000   8.482   5.839  11.110  0.2929 -0.7065  0.2522
  450MOL0     C62001   8.488   5.966  11.022  0.5565  1.3738 -1.0126
  450MOL0     C62002   8.456   5.936  10.878 -0.0966  0.1196  1.3419
  450MOL0     C62003   8.461   6.066  10.798 -0.3194  0.2884 -0.1075
  450MOL0     C62004   8.609   6.096  10.775  1.0756  0.4001  0.5001
  450MOL0     C62005   8.614   6.227  10.688 -0.1675 -0.9939 -0.2588
  450MOL0     C62006   8.737   6.302  10.732  0.2025  0.2880  0.9182
  450MOL0    Cl62007   8.881   6.239  10.649 -0.5793  0.1240 -0.4039
  450MOL0     C62008   8.119   6.004  11.193  0.4568 -0.5213 -0.0502
  450MOL0     C62009   7.989   6.051  11.166 -0.5180  0.0200 -0.0547
  450MOL0     O62010   7.651   5.912  11.249 -0.0033  0.6185 -0.0469
  450MOL0     C62011   7.439   6.065  11.092  0.1125  0.9431  0.7798
  450MOL0     C62012   7.310   6.065  11.036 -0.1392  0.1814 -0.4846
  450MOL0     N62013   7.335   6.164  10.482 -0.3367 -0.0516  0.5876
  450MOL0     N62014   7.293   6.285  10.484 -0.4382 -0.4534  0.1773
  450MOL0     C62015   7.205   7.088   9.681 -0.3542  0.0001  0.0551
  450MOL0     C62016   7.189   7.151   9.564  0.0332  0.8300 -0.1265
  450MOL0     C62017   7.129   7.390   9.221 -0.2275 -0.0978  0.7211
  450MOL0     C62018   7.060   7.343   9.110 -0.4829 -0.1130  0.3371
  450MOL0     C62019   7.043   7.411   8.991 -1.2958 -0.1757 -0.1828
  450MOL0     C62020   7.119   7.529   8.966  0.0618  0.1574  0.0376
  450MOL0     O62021   7.118   7.596   8.847 -0.2494 -0.8579 -0.3817
  450MOL0     C62022   7.119   7.514   8.725  0.1333  0.2457 -0.4518
  450MOL0     C62023   7.177   7.595   8.610 -0.1080  0.2303  0.8609
  450MOL0     C62024   7.328   7.613   8.624  0.3074 -0.2677 -0.6114
  450MOL0     C62025   7.385   7.724   8.546  0.1040  0.3901  0.5213
  450MOL0     C62026   7.404   7.830   8.645  0.3730 -0.4140  0.3271
  450MOL0     C62027   7.411   7.927   8.722  0.4700 -0.1021  0.1243
  450MOL0     C62028   7.193   7.576   9.070 -0.5324  0.6023 -0.5403
  450MOL0     C62029   7.191   7.522   9.203  0.4962  1.2394 -0.2482
  450MOL0     C62030   7.270   7.586   9.307  0.1908 -0.4127  0.3213
  450MOL0     H62031   7.213   7.470   9.677 -1.5884 -0.6398 -0.8235
  450MOL0     H62032   7.268   7.347   9.887 -1.4386 -1.7951  0.8809
  450MOL0     H62033   7.386   6.960   9.871  1.8352  2.1558  2.0257
  450MOL0     H62034   7.196   6.913   9.872  1.5532 -3.3507  1.8231
  450MOL0     H62035   7.326   6.794  10.049  0.0891 -0.3873  2.2868
  450MOL0     H62036   7.382   6.951  10.104 -0.4357  0.6107  0.5522
  450MOL0     H62037   7.156   7.019  10.167 -3.0211  0.1606 -1.5813
  450MOL0     H62038   7.093   6.869  10.079  2.0190 -2.6029 -0.6295
  450MOL0     H62039   7.277   6.786  10.269  1.2259  1.1611  0.8342
  450MOL0     H62040   7.170   6.905  10.354 -0.0726 -0.1657 -0.1745
  450MOL0     H62041   7.071   6.668  10.186 -0.8714  0.2236  0.0686
  450MOL0     H62042   6.979   6.771  10.298 -1.2632 -0.9199 -0.2253
  450MOL0     H62043   7.220   6.585  10.367  0.6654 -0.2355  0.8862
  450MOL0     H62044   7.127   6.674  10.487  0.7435 -1.3163  0.5792
  450MOL0     H62045   7.015   6.446  10.305  4.1149  0.1624 -1.6784
  450MOL0     H62046   6.929   6.556  10.422  0.9227  2.5805 -0.1529
  450MOL0     H62047   7.093   6.436  10.606  0.6091 -4.2321  1.6820
  450MOL0     H62048   6.962   6.340  10.544 -0.0396  0.4351  1.7302
  450MOL0     H62049   7.013   6.106  10.445  0.4589 -1.2379  0.7985
  450MOL0     H62050   7.351   5.898  10.449  0.2457  0.0732  0.6643
  450MOL0     H62051   7.198   5.920  10.345 -2.9248 -0.3604  2.0532
  450MOL0     H62052   7.055   5.863  10.511  0.7772  3.7293 -0.6107
  450MOL0     H62053   7.184   5.743  10.492  2.6252 -0.6650  2.9430
  450MOL0     H62054   7.177   5.763  10.736 -1.0717 -0.3380 -1.0768
  450MOL0     H62055   7.318   5.849  10.680 -0.1848 -0.3737 -1.9666
  450MOL0     H62056   7.187   6.070  10.735 -2.0639  0.1379 -1.6016
  450MOL0     H62057   7.048   5.977  10.731  0.8699  1.0294  0.6634
  450MOL0     H62058   7.309   5.749  10.917 -1.2327  0.5434  0.3466
  450MOL0     H62059   7.551   5.672  10.859  2.0036 -2.3576  0.7476
  450MOL0     H62060   7.558   5.655  11.029 -0.2441  2.2498  1.5214
  450MOL0     H62061   7.674   5.760  10.954 -0.0154  1.0365 -0.9379
  450MOL0     H62062   7.836   5.767  11.066  0.1074  0.7556 -0.7204
  450MOL0     H62063   8.066   5.681  11.106  0.6036 -0.1568 -0.2351
  450MOL0     H62064   8.357   5.658  11.134  3.7626  0.4790  3.9369
  450MOL0     H62065   8.311   5.767  11.002  0.6637  1.0463  0.5210
  450MOL0     H62066   8.505   5.873  11.211 -0.8818  4.8172 -0.9966
  450MOL0     H62067   8.562   5.771  11.080  0.5218 -2.6402  4.4677
  450MOL0     H62068   8.588   6.006  11.040  0.7642  0.9827 -1.2971
  450MOL0     H62069   8.413   6.036  11.063  1.0053  1.3761 -0.1743
  450MOL0     H62070   8.356   5.896  10.858 -0.0055  0.1668  0.7715
  450MOL0     H62071   8.526   5.859  10.842  1.2639  1.6381  0.6236
  450MOL0     H62072   8.405   6.059  10.704 -0.4775  2.3011 -0.2165
  450MOL0     H62073   8.418   6.145  10.860  1.8913  0.8218  0.8393
  450MOL0     H62074   8.646   6.007  10.725  0.1982 -0.2853  1.0298
  450MOL0     H62075   8.655   6.115  10.873  1.2188 -0.0497  0.5224
  450MOL0     H62076   8.528   6.293  10.694  1.5048  1.4211 -1.4062
  450MOL0     H62077   8.629   6.196  10.584 -2.8151 -1.9924 -0.4220
  450MOL0     H62078   8.754   6.299  10.840  2.4570 -1.5843  0.5817
  450MOL0     H62079   8.723   6.406  10.700 -2.3188 -1.0367 -3.0406
  450MOL0     H62080   8.185   6.080  11.234  0.4263  0.2724 -1.4177
  450MOL0     H62081   7.988   6.159  11.172  0.7569  0.0825 -0.5207
  450MOL0     H62082   7.470   6.154  11.147 -1.5540  0.4997  2.5212
  450MOL0     H62083   7.248   6.153  11.048  3.1471  2.3324  2.5650
  450MOL0     H62084   7.189   6.981   9.674 -2.1517  0.2672 -0.6481
  450MOL0     H62085   7.171   7.076   9.487 -0.7618 -0.6020  1.4050
  450MOL0     H62086   7.008   7.248   9.118 -0.7024  0.1461  2.7080
  450MOL0     H62087   6.979   7.376   8.910 -0.7905  0.8559 -1.0475
  450MOL0     H62088   7.188   7.429   8.734  1.4004  1.4036  1.2911
  450MOL0     H62089   7.017   7.481   8.703  1.3327 -2.0724 -3.1842
  450MOL0     H62090   7.120   7.688   8.599 -2.1006 -0.8423  1.5830
  450MOL0     H62091   7.143   7.540   8.522 -1.4392  0.7429  1.0259
  450MOL0     H62092   7.359   7.619   8.729  3.8572 -0.5428 -1.5128
  450MOL0     H62093   7.377   7.523   8.587 -4.4216 -3.7940  0.6958
  450MOL0     H62094   7.324   7.763   8.464 -2.0660 -0.9510  1.4200
  450MOL0     H62095   7.484   7.705   8.502  0.6489 -1.0088  2.2460
  450MOL0     H62096   7.426   8.014   8.782 -1.1531  1.2118 -1.2633
  450MOL0     H62097   7.239   7.674   9.059  1.1730 -0.1888 -0.7046
  450MOL0     H62098   7.309   7.686   9.292  0.7829  0.0295  3.8889
  450MOL0     H62099   7.198   7.592   9.389 -2.0654  1.1817 -1.6466
  450MOL0     H62100   7.350   7.521   9.346 -0.6734 -1.4501  0.4271
  451MOL0     O62101   5.140   8.767   3.623 -0.0540 -0.3332  0.7101
  451MOL0     C62102   5.178   8.671   3.558 -0.0553 -0.2062 -0.4948
  451MOL0     O62103   5.093   8.580   3.498 -0.1587  0.1547  0.9238
  451MOL0     C62104   4.963   8.608   3.514  0.3378  0.9810  0.3945
  451MOL0     C62105   4.890   8.585   3.636 -0.2949 -0.5941  0.0208
  451MOL0     C62106   4.751   8.614   3.648  0.4010 -0.4340  0.4104
  451MOL0     C62107   4.686   8.641   3.529 -0.5943 -0.3047 -0.1633
  451MOL0     O62108   4.553   8.647   3.552  0.0487 -0.6273  0.3394
  451MOL0     C62109   4.476   8.739   3.471 -0.0693 -0.1024  0.5351
  451MOL0     C62110   4.335   8.736   3.532 -1.0199  0.2594  0.3240
  451MOL0     C62111   4.252   8.859   3.492 -0.8701  0.3703  0.6375
  451MOL0     C62112   4.214   8.846   3.343  0.3163  0.1551 -0.3927
  451MOL0     C62113   4.136   8.960   3.279  0.9633 -0.0429 -0.2262
  451MOL0     C62114   4.055   8.918   3.151 -0.1545  0.1417 -0.4286
  451MOL0     C62115   4.023   9.029   3.055  0.1388 -0.3979  1.0471
  451MOL0     C62116   4.144   9.085   2.983  0.4483 -0.1986 -0.1092
  451MOL0     N62117   4.118   9.096   2.838  0.1834 -0.6221  0.5344
  451MOL0     C62118   4.135   8.997   2.747  0.0312  0.1303  0.0897
  451MOL0     C62119   4.070   9.045   2.631  0.2659  0.2802  0.7525
  451MOL0     C62120   4.042   8.962   2.508 -0.0279 -0.1590 -0.2017
  451MOL0     C62121   4.007   8.818   2.551  0.2506 -0.1288 -0.9044
  451MOL0     C62122   4.018   8.718   2.431  0.1606  0.4420  0.0840
  451MOL0     C62123   3.903   8.731   2.337 -0.8038 -0.6887 -0.3017
  451MOL0     O62124   3.781   8.703   2.402  0.0737  0.4215  0.7503
  451MOL0     C62125   3.689   8.796   2.384 -0.2600  0.3718 -0.6346
  451MOL0     C62126   3.643   8.829   2.259 -0.4764  0.5642 -0.0425
  451MOL0     C62127   3.535   8.910   2.239  0.3056 -0.3417  0.4296
  451MOL0     C62128   3.486   8.923   2.103  0.2106 -0.6597 -0.3473
  451MOL0     C62129   3.480   8.984   2.347  0.1688  0.1187  0.7886
  451MOL0     C62130   3.371   9.096   2.335 -0.6061  0.9475  0.5903
  451MOL0     O62131   3.354   9.157   2.452 -0.2421  0.9045  0.7031
  451MOL0     C62132   3.248   9.242   2.447 -0.8264  0.0415 -0.1506
  451MOL0     C62133   3.152   9.212   2.547 -0.3975 -0.5990  0.3145
  451MOL0     C62134   3.052   9.308   2.570  0.2620 -0.0883 -0.3788
  451MOL0     C62135   3.045   9.430   2.492 -1.3545 -0.0316  0.0957
  451MOL0     O62136   2.958   9.538   2.532 -0.6516  0.2310  0.3032
  451MOL0     C62137   2.848   9.505   2.620 -0.5300  0.6158  0.7012
  451MOL0     C62138   2.736   9.604   2.632 -0.2951 -0.0066  0.4809
  451MOL0     C62139   2.673   9.557   2.767  0.6915  0.5630 -0.4985
  451MOL0     C62140   2.537   9.630   2.788 -1.1680  0.0390 -0.4916
  451MOL0     C62141   2.460   9.593   2.915 -0.5404  0.4289 -0.2506
  451MOL0     C62142   2.348   9.693   2.951 -0.0499  0.3372  0.2918
  451MOL0     C62143   2.315   9.694   3.103  0.6426 -0.8922 -0.1917
  451MOL0     C62144   2.222   9.576   3.131 -0.2653 -0.6109  0.0485
  451MOL0    Cl62145   2.140   9.600   3.288 -0.2606 -0.0231 -0.1377
  451MOL0     C62146   3.142   9.452   2.386 -0.0474  0.2414  0.8184
  451MOL0     C62147   3.239   9.355   2.362  0.6925 -0.7417 -0.5508
  451MOL0     O62148   3.298   9.103   2.233  0.2349  0.4425  1.1825
  451MOL0     C62149   3.536   8.959   2.474  0.5260  0.3077  0.0254
  451MOL0     C62150   3.624   8.857   2.495 -0.2848  0.1691  0.1957
  451MOL0     N62151   4.035   9.176   2.647  0.7072 -0.3045 -0.0020
  451MOL0     N62152   4.064   9.199   2.774 -0.1556 -0.6634  0.2085
  451MOL0     C62153   4.755   8.653   3.406  0.4464  0.4848 -0.9404
  451MOL0     C62154   4.892   8.645   3.400  0.0494 -0.2771 -0.0936
  451MOL0     C62155   5.319   8.645   3.537 -0.5361  0.1482  0.9007
  451MOL0     C62156   5.371   8.594   3.413  0.6290  0.8455 -0.6761
  451MOL0     C62157   5.507   8.561   3.398 -0.7933  0.2118  0.1313
  451MOL0     C62158   5.595   8.574   3.504  0.2979 -0.4263  0.1650
  451MOL0     O62159   5.718   8.521   3.494 -0.3269  0.7759 -0.3977
  451MOL0     C62160   5.717   8.381   3.477  0.6658  0.0538 -0.0309
  451MOL0     C62161   5.853   8.311   3.528 -0.0892 -0.7063 -0.0752
  451MOL0     C62162   5.928   8.378   3.634 -0.2451 -0.4695 -0.6657
  451MOL0     C62163   6.060   8.322   3.677 -0.3467  0.7051  0.3685
  451MOL0     C62164   6.060   8.183   3.713 -0.2999  0.2295  0.5837
  451MOL0     C62165   6.042   8.063   3.730  0.1730  0.2085  0.1887
  451MOL0     C62166   5.550   8.623   3.623 -0.1963  0.0944  0.3718
  451MOL0     C62167   5.417   8.659   3.642  0.1387 -0.6308 -0.2251
  451MOL0     C62168   5.376   8.732   3.771  0.3276  0.4162  0.0671
  451MOL0     H62169   4.930   8.550   3.731 -2.9214  1.2262  1.9201
  451MOL0     H62170   4.702   8.590   3.742  0.3250  2.3784  1.1932
  451MOL0     H62171   4.474   8.706   3.367  1.2329  3.0671 -0.6342
  451MOL0     H62172   4.511   8.842   3.463 -3.1035  0.8678 -2.9503
  451MOL0     H62173   4.280   8.645   3.509  3.0518 -2.1001 -1.0206
  451MOL0     H62174   4.337   8.735   3.642 -0.6367  0.2063  0.3167
  451MOL0     H62175   4.163   8.871   3.555 -0.7141  0.4260  0.8472
  451MOL0     H62176   4.297   8.958   3.506 -1.5476  0.6531  0.8791
  451MOL0     H62177   4.304   8.840   3.281 -0.6550  2.7133 -2.2188
  451MOL0     H62178   4.152   8.756   3.341  0.0249  0.3623 -1.4044
  451MOL0     H62179   4.214   9.035   3.259  1.2843  0.4277  2.4531
  451MOL0     H62180   4.062   8.989   3.354 -2.2867 -0.7229 -2.9226
  451MOL0     H62181   4.095   8.830   3.101 -5.0341 -0.7948 -3.2885
  451MOL0     H62182   3.958   8.883   3.190  0.2152  1.2172  1.6258
  451MOL0     H62183   3.980   9.115   3.107  2.5551  0.7416  1.3351
  451MOL0     H62184   3.948   8.986   2.988 -0.3593 -2.9755  3.0539
  451MOL0     H62185   4.163   9.183   3.027  0.1505  0.5767 -1.6288
  451MOL0     H62186   4.237   9.029   2.994 -0.3321 -1.3257  1.0736
  451MOL0     H62187   4.183   8.902   2.771  0.3595  0.6557  1.7100
  451MOL0     H62188   4.131   8.961   2.444 -0.9371  2.5591 -1.6787
  451MOL0     H62189   3.954   8.996   2.453 -0.8089 -2.9553 -0.8734
  451MOL0     H62190   4.079   8.784   2.626  1.1728 -1.0696 -2.1771
  451MOL0     H62191   3.906   8.821   2.592 -0.9832  1.7575 -3.7168
  451MOL0     H62192   4.108   8.739   2.373  1.4216 -0.4746  1.6272
  451MOL0     H62193   4.042   8.618   2.468  0.8927  0.7028  0.3308
  451MOL0     H62194   3.913   8.834   2.303 -0.3614  0.2204  2.3370
  451MOL0     H62195   3.912   8.658   2.256 -1.3681 -0.9628 -0.1303
  451MOL0     H62196   3.691   8.774   2.178 -1.5872  0.3962 -0.6029
  451MOL0     H62197   3.519   9.021   2.068  0.7867 -0.3422  0.9812
  451MOL0     H62198   3.377   8.922   2.097 -0.0067 -2.8005  1.9638
  451MOL0     H62199   3.522   8.838   2.044  0.1865  0.5890 -2.2438
  451MOL0     H62200   3.152   9.128   2.616 -1.5022 -0.4340  0.5312
  451MOL0     H62201   2.976   9.287   2.644 -0.1304  1.7436 -0.2241
  451MOL0     H62202   2.801   9.413   2.585 -0.3710 -0.2545  2.6252
  451MOL0     H62203   2.879   9.477   2.721 -2.5919 -3.5871  0.3522
  451MOL0     H62204   2.770   9.708   2.633  0.2851 -0.1504 -1.2211
  451MOL0     H62205   2.657   9.595   2.557 -1.2433 -3.6645  1.6806
  451MOL0     H62206   2.733   9.562   2.858 -1.5781 -2.9781  1.3900
  451MOL0     H62207   2.653   9.450   2.764  3.2459 -0.0963  2.1448
  451MOL0     H62208   2.476   9.612   2.699 -0.0735  0.3077 -1.3280
  451MOL0     H62209   2.564   9.736   2.792 -1.3560  0.1476 -1.7117
  451MOL0     H62210   2.419   9.493   2.903 -1.2986  0.7825 -0.6838
  451MOL0     H62211   2.528   9.589   3.001  1.5010  1.9033 -1.7066
  451MOL0     H62212   2.258   9.655   2.903 -0.6212 -0.7410  2.1332
  451MOL0     H62213   2.377   9.793   2.916  1.5871 -0.1130  0.2647
  451MOL0     H62214   2.255   9.782   3.128 -1.5741 -1.9627 -1.3764
  451MOL0     H62215   2.398   9.685   3.174 -0.6552  2.9953  2.1265
  451MOL0     H62216   2.284   9.486   3.129 -1.0613 -1.2448  1.7259
  451MOL0     H62217   2.150   9.552   3.053 -0.5990 -2.0197  0.7648
  451MOL0     H62218   3.131   9.536   2.318 -1.3052  1.1033  2.0161
  451MOL0     H62219   3.316   9.373   2.288 -1.3485 -2.3419 -3.3041
  451MOL0     H62220   3.511   8.995   2.573  0.1351 -3.9920  1.7022
  451MOL0     H62221   3.656   8.830   2.595 -0.7707 -2.0868 -0.2019
  451MOL0     H62222   4.692   8.670   3.319 -0.9338  0.8127  0.0801
  451MOL0     H62223   4.937   8.665   3.303 -1.7863 -1.8840 -1.3504
  451MOL0     H62224   5.294   8.571   3.340 -0.9282  1.1928  0.7889
  451MOL0     H62225   5.541   8.526   3.301 -0.3356  2.2153 -0.4792
  451MOL0     H62226   5.634   8.338   3.535  0.7216  0.7688  0.5941
  451MOL0     H62227   5.717   8.366   3.369 -1.8968 -1.3105  0.0871
  451MOL0     H62228   5.912   8.297   3.437 -1.5395  0.1088 -1.1773
  451MOL0     H62229   5.829   8.211   3.566  0.1240 -0.9129 -0.4818
  451MOL0     H62230   5.956   8.481   3.612 -2.4038  0.2307 -0.3217
  451MOL0     H62231   5.868   8.364   3.724 -0.5210 -0.5428 -0.8598
  451MOL0     H62232   6.109   8.383   3.753  2.0487 -1.2118  0.4952
  451MOL0     H62233   6.131   8.342   3.595 -1.8078  1.8094 -0.6713
  451MOL0     H62234   6.013   7.961   3.746 -0.4147  0.4366  0.6248
  451MOL0     H62235   5.620   8.640   3.704 -0.2158  0.6025  0.2897
  451MOL0     H62236   5.460   8.748   3.839  0.6310  2.4325 -0.7418
  451MOL0     H62237   5.345   8.832   3.742  2.9595  1.3113  0.1394
  451MOL0     H62238   5.287   8.683   3.814 -0.9547  0.9805 -1.8292
  452MOL0     O62239   5.785   2.904  11.081  0.2155 -0.5349  0.2116
  452MOL0     C62240   5.840   2.795  11.089  0.7719  0.7752  0.3748
  452MOL0     O62241   5.834   2.703  10.986 -0.5252 -0.4206  0.2613
  452MOL0     C62242   5.847   2.746  10.856  0.7143 -0.1493 -0.1787
  452MOL0     C62243   5.935   2.838  10.821  0.3242  0.4750  0.1705
  452MOL0     C62244   5.951   2.878  10.685  0.9170 -0.5912  0.9841
  452MOL0     C62245   5.871   2.814  10.584 -0.7041  0.2475 -0.5095
  452MOL0     O62246   5.862   2.833  10.450 -0.0093 -0.9219 -0.0104
  452MOL0     C62247   5.978   2.905  10.397 -0.6159 -0.0159  0.2879
  452MOL0     C62248   5.989   2.876  10.244  0.1675  1.0692  0.1212
  452MOL0     C62249   6.102   2.967  10.176 -0.4201  0.1852  0.3828
  452MOL0     C62250   6.057   3.019  10.041 -0.0692 -0.0127  0.6678
  452MOL0     C62251   6.068   2.918   9.935  0.2488 -0.1542 -0.1816
  452MOL0     C62252   5.978   2.952   9.821  0.3303 -0.4228 -0.0302
  452MOL0     C62253   5.991   2.840   9.708 -0.4876 -0.2757  0.1872
  452MOL0     C62254   5.960   2.885   9.565  0.2889 -0.1586  0.2987
  452MOL0     N62255   6.001   3.027   9.544 -0.9564  0.6163 -0.8236
  452MOL0     C62256   5.921   3.140   9.548  0.4806  0.7191 -0.3863
  452MOL0     C62257   6.002   3.239   9.515 -0.8499  0.3457  0.1200
  452MOL0     C62258   5.973   3.384   9.529  0.8347  0.4806 -0.5043
  452MOL0     C62259   5.950   3.471   9.402 -0.1688 -0.6577  0.4793
  452MOL0     C62260   5.954   3.618   9.430 -0.8014  0.2447 -0.4409
  452MOL0     C62261   5.895   3.696   9.314 -0.6918 -0.6364 -0.1042
  452MOL0     O62262   5.985   3.679   9.203 -0.7075 -0.1626  0.1639
  452MOL0     C62263   5.979   3.777   9.112 -0.5999 -0.5274  0.9220
  452MOL0     C62264   6.087   3.773   9.030 -0.5182 -0.7295  0.2020
  452MOL0     C62265   6.105   3.874   8.930 -0.4719  0.1932 -0.4755
  452MOL0     C62266   6.240   3.865   8.864 -0.4042  0.0307  0.5682
  452MOL0     C62267   6.006   3.967   8.909  0.3236 -0.1255  0.5396
  452MOL0     C62268   6.011   4.066   8.801 -0.3260 -0.2355 -0.5065
  452MOL0     O62269   5.899   4.134   8.781  0.4169  0.3985 -1.1319
  452MOL0     C62270   5.866   4.186   8.665  0.1813  0.1923 -0.4771
  452MOL0     C62271   5.769   4.298   8.647  1.0490  0.2695 -0.5425
  452MOL0     C62272   5.732   4.348   8.518  0.3192 -1.2226  0.2622
  452MOL0     C62273   5.793   4.295   8.405 -0.0979  1.0425 -0.6361
  452MOL0     O62274   5.790   4.350   8.288  0.4256 -0.0764  0.2190
  452MOL0     C62275   5.679   4.437   8.258 -0.5004  1.4941  0.0170
  452MOL0     C62276   5.671   4.490   8.116  0.6544 -0.0056  0.3325
  452MOL0     C62277   5.796   4.564   8.076  0.5018  0.0733 -0.5404
  452MOL0     C62278   5.750   4.649   7.956 -0.5414 -0.4481  0.3650
  452MOL0     C62279   5.865   4.738   7.914 -0.4115  0.2364  0.3706
  452MOL0     C62280   5.805   4.851   7.830 -0.0299  0.1318  0.2016
  452MOL0     C62281   5.901   4.968   7.792  0.0641 -1.1983  0.0130
  452MOL0     C62282   5.837   5.067   7.698 -0.0373  0.0367 -0.2892
  452MOL0    Cl62283   5.831   4.977   7.536  0.1440  0.2279  0.4682
  452MOL0     C62284   5.878   4.188   8.420 -0.6530  0.2651 -0.5721
  452MOL0     C62285   5.915   4.134   8.543 -0.1851 -0.0653  0.1625
  452MOL0     O62286   6.121   4.078   8.734  0.0346 -0.6439  0.3047
  452MOL0     C62287   5.884   3.958   8.992 -0.9760 -0.0824 -0.2164
  452MOL0     C62288   5.873   3.862   9.085 -0.3513  0.4510 -0.5732
  452MOL0     N62289   6.125   3.182   9.480 -0.5587  0.0479  0.5427
  452MOL0     N62290   6.123   3.054   9.492 -0.0229  0.3978  0.1815
  452MOL0     C62291   5.795   2.701  10.622 -0.0496  0.8291 -0.1837
  452MOL0     C62292   5.788   2.672  10.763 -0.4942 -0.6253  0.2487
  452MOL0     C62293   5.885   2.749  11.224 -0.6769 -0.5945  0.4027
  452MOL0     C62294   5.862   2.614  11.258 -0.8890 -1.3644 -0.5748
  452MOL0     C62295   5.903   2.578  11.385 -0.1642  0.4554  0.1089
  452MOL0     C62296   5.969   2.651  11.484  0.4768  0.7204 -0.5035
  452MOL0     O62297   6.000   2.590  11.605 -0.3095 -0.8792 -0.3983
  452MOL0     C62298   6.089   2.653  11.698  0.2499 -0.5334 -0.6892
  452MOL0     C62299   6.130   2.557  11.807 -0.1834  0.0621  0.5918
  452MOL0     C62300   6.196   2.440  11.732  0.1811 -0.3851 -0.3246
  452MOL0     C62301   6.228   2.320  11.819 -0.3681  0.2342  0.7306
  452MOL0     C62302   6.135   2.276  11.917  0.5052  0.2913 -0.2464
  452MOL0     C62303   6.060   2.224  12.004 -0.3079  0.0109 -0.8241
  452MOL0     C62304   5.975   2.787  11.448  0.6409  0.1214 -0.9337
  452MOL0     C62305   5.935   2.838  11.318  0.6343 -0.5384 -0.5153
  452MOL0     C62306   5.967   2.986  11.289 -0.2963 -0.0457 -0.3081
  452MOL0     H62307   6.000   2.877  10.899  0.2822  0.5534  0.1660
  452MOL0     H62308   6.020   2.956  10.654 -1.2220  1.8844  2.1164
  452MOL0     H62309   6.068   2.857  10.436 -0.5827 -1.4983 -1.4633
  452MOL0     H62310   5.974   3.012  10.418 -0.8982  0.2476 -1.0060
  452MOL0     H62311   5.999   2.768  10.231 -0.3576  1.1526 -1.0936
  452MOL0     H62312   5.889   2.906  10.212 -0.5560 -1.3688 -0.1322
  452MOL0     H62313   6.128   3.046  10.247 -0.2961 -1.6463  2.4644
  452MOL0     H62314   6.196   2.914  10.161  1.4353  3.5750 -1.3104
  452MOL0     H62315   5.957   3.059  10.057  0.6206  1.7023  0.9194
  452MOL0     H62316   6.124   3.092   9.995  1.4112 -0.6119  1.7466
  452MOL0     H62317   6.039   2.823   9.981 -0.1708  0.6497  1.3017
  452MOL0     H62318   6.173   2.901   9.907 -0.0643 -0.3583 -1.2469
  452MOL0     H62319   5.874   2.940   9.851 -0.2033 -3.4902 -2.6732
  452MOL0     H62320   6.003   3.055   9.795  1.2660 -0.4929  0.5142
  452MOL0     H62321   5.928   2.758   9.742 -2.3463  0.4970 -1.2451
  452MOL0     H62322   6.097   2.817   9.695 -0.9441 -1.4367 -1.7060
  452MOL0     H62323   6.010   2.829   9.486 -1.1074  1.1881 -1.6496
  452MOL0     H62324   5.851   2.880   9.550 -0.0082  3.5227  0.3047
  452MOL0     H62325   5.822   3.153   9.589  1.1280  0.2929  1.3947
  452MOL0     H62326   6.064   3.426   9.572 -0.7331  0.3685  3.3290
  452MOL0     H62327   5.899   3.396   9.609  2.7735 -0.1223  1.4730
  452MOL0     H62328   6.024   3.445   9.326  1.4491  1.6370  1.1767
  452MOL0     H62329   5.850   3.461   9.360 -0.3689  3.0144 -0.2062
  452MOL0     H62330   5.912   3.630   9.530  4.3030 -0.2410  2.0755
  452MOL0     H62331   6.058   3.646   9.448 -0.7993  0.0340 -0.1221
  452MOL0     H62332   5.795   3.659   9.289 -1.7585  1.8166  0.2655
  452MOL0     H62333   5.889   3.797   9.355 -0.6062 -0.7152  0.1043
  452MOL0     H62334   6.175   3.712   9.047  0.3577  0.6717  0.8235
  452MOL0     H62335   6.296   3.775   8.891  0.3818 -0.2057 -1.7075
  452MOL0     H62336   6.297   3.954   8.894 -1.7626  1.0439  0.2652
  452MOL0     H62337   6.229   3.859   8.756 -1.3462 -2.8108  0.7381
  452MOL0     H62338   5.714   4.324   8.737 -4.2738 -4.1966 -1.9486
  452MOL0     H62339   5.668   4.435   8.513  1.9967  0.0923  0.8878
  452MOL0     H62340   5.585   4.382   8.264  0.3618  0.1136  1.5622
  452MOL0     H62341   5.681   4.526   8.322 -0.7842  1.7738 -0.3568
  452MOL0     H62342   5.666   4.405   8.047  1.1565  1.7387 -1.9685
  452MOL0     H62343   5.574   4.530   8.089  0.4487  0.8159  2.1563
  452MOL0     H62344   5.870   4.495   8.034 -0.0416 -1.5832  1.1264
  452MOL0     H62345   5.842   4.620   8.158 -0.4813 -2.1299  1.6335
  452MOL0     H62346   5.670   4.716   7.991 -1.3099 -2.1268  1.9866
  452MOL0     H62347   5.723   4.604   7.860  1.6810 -0.3481 -0.3577
  452MOL0     H62348   5.918   4.786   7.997  3.8453  0.0451 -1.9634
  452MOL0     H62349   5.939   4.674   7.867 -1.1915 -0.7415  0.4431
  452MOL0     H62350   5.717   4.892   7.881 -0.2135  0.2560 -0.2098
  452MOL0     H62351   5.770   4.800   7.740 -2.0497  1.0706  0.4080
  452MOL0     H62352   5.989   4.926   7.743 -0.3807 -1.7405 -0.3344
  452MOL0     H62353   5.929   5.025   7.881 -3.2414 -0.5461  0.7519
  452MOL0     H62354   5.909   5.149   7.706  0.2773 -0.2941  0.4679
  452MOL0     H62355   5.733   5.089   7.723  0.0246 -1.1118  1.1830
  452MOL0     H62356   5.909   4.145   8.325 -1.0886 -2.0613  0.2635
  452MOL0     H62357   5.974   4.043   8.537  0.7863  0.5834 -0.4074
  452MOL0     H62358   5.798   4.022   8.981 -0.6581  0.7077  1.5381
  452MOL0     H62359   5.787   3.868   9.150  1.2372  1.3280  1.5604
  452MOL0     H62360   5.733   2.645  10.552 -1.0565 -2.5676  3.0991
  452MOL0     H62361   5.738   2.583  10.799 -0.8634  0.3847  2.3415
  452MOL0     H62362   5.798   2.553  11.195 -3.7115 -0.8273  1.5461
  452MOL0     H62363   5.914   2.470  11.388  3.9646  0.6881 -0.9875
  452MOL0     H62364   6.179   2.686  11.645 -0.3685  1.1435 -0.7496
  452MOL0     H62365   6.040   2.740  11.743 -1.0817 -1.5033 -0.1958
  452MOL0     H62366   6.046   2.536  11.874  0.5040 -1.4891  1.0092
  452MOL0     H62367   6.200   2.595  11.882 -0.7935 -2.0588  2.3246
  452MOL0     H62368   6.137   2.411  11.644 -0.5943 -1.9862  0.6769
  452MOL0     H62369   6.291   2.475  11.691  0.0273  0.1567 -0.2383
  452MOL0     H62370   6.329   2.315  11.860 -0.5855  1.5433  1.4946
  452MOL0     H62371   6.226   2.234  11.751 -1.6705  0.1836  0.8191
  452MOL0     H62372   5.983   2.176  12.062  3.0591 -4.8789  0.2779
  452MOL0     H62373   6.010   2.854  11.527 -0.4668  0.6231 -0.8474
  452MOL0     H62374   5.943   3.019  11.188 -2.2564 -0.7164 -0.1154
  452MOL0     H62375   5.922   3.049  11.367  0.6630 -0.4020  0.5536
  452MOL0     H62376   6.073   3.009  11.295 -0.6200  2.4808 -2.5535
  453MOL0     O62377   4.571   5.677   9.218 -0.5310  0.3459 -0.6743
  453MOL0     C62378   4.572   5.792   9.260 -0.1042 -0.2990 -0.4846
  453MOL0     O62379   4.590   5.899   9.183 -0.5270 -0.8334 -0.0544
  453MOL0     C62380   4.623   5.895   9.045  0.1168  0.4370 -0.0504
  453MOL0     C62381   4.706   5.797   8.979  0.8288 -0.2995 -0.4927
  453MOL0     C62382   4.716   5.795   8.842 -0.5035  0.4669 -0.1412
  453MOL0     C62383   4.664   5.904   8.766  0.3882 -0.5647  0.3641
  453MOL0     O62384   4.677   5.912   8.630 -0.5880 -0.3637 -0.3382
  453MOL0     C62385   4.776   5.830   8.563  0.9596 -0.1352  0.0335
  453MOL0     C62386   4.763   5.846   8.409  0.6374 -0.5092 -0.0134
  453MOL0     C62387   4.831   5.977   8.365 -0.1396 -0.4363 -0.2313
  453MOL0     C62388   4.797   6.011   8.222 -0.5626 -0.4047  0.1134
  453MOL0     C62389   4.872   6.132   8.177 -1.2988  0.1878 -0.3284
  453MOL0     C62390   4.843   6.182   8.042  0.2180  0.1218  0.3582
  453MOL0     C62391   4.902   6.084   7.926 -0.2663 -0.3620 -1.1297
  453MOL0     C62392   5.055   6.077   7.899  0.2699  0.5240 -0.1257
  453MOL0     N62393   5.123   6.205   7.872  0.9682 -0.2169  0.6918
  453MOL0     C62394   5.174   6.279   7.968  0.3511  0.4121  0.6668
  453MOL0     C62395   5.258   6.361   7.904 -0.8884 -0.2506  0.7115
  453MOL0     C62396   5.356   6.447   7.978 -0.4886 -0.5456  0.6719
  453MOL0     C62397   5.487   6.473   7.888 -0.4039 -0.4230 -0.9347
  453MOL0     C62398   5.602   6.558   7.949  0.2818 -0.2846 -0.8982
  453MOL0     C62399   5.621   6.538   8.103  0.3740 -0.8607 -0.1799
  453MOL0     O62400   5.621   6.397   8.138  0.1564 -0.5194 -0.0925
  453MOL0     C62401   5.728   6.311   8.126 -0.0335 -0.3095 -0.5071
  453MOL0     C62402   5.729   6.176   8.162  0.4818 -0.5150 -1.1397
  453MOL0     C62403   5.838   6.092   8.132 -0.2484 -0.4646  0.6297
  453MOL0     C62404   5.815   5.946   8.166 -0.4247 -0.0617  0.7015
  453MOL0     C62405   5.963   6.148   8.080  0.0592 -0.7532  1.0920
  453MOL0     C62406   6.079   6.078   8.029 -0.7859 -0.0788 -0.9450
  453MOL0     O62407   6.099   5.938   8.057 -0.1736  0.0647  0.3369
  453MOL0     C62408   6.205   5.874   7.992  0.8555 -1.1371 -0.1987
  453MOL0     C62409   6.285   5.791   8.072 -1.2901  0.1911  0.2524
  453MOL0     C62410   6.378   5.706   8.007 -0.7381 -0.3673  0.1352
  453MOL0     C62411   6.395   5.706   7.864 -0.9314 -0.3948 -0.2472
  453MOL0     O62412   6.494   5.635   7.819 -0.1435 -0.2939  0.2764
  453MOL0     C62413   6.496   5.603   7.680  0.4934  0.1741 -0.4263
  453MOL0     C62414   6.615   5.508   7.650 -0.0298  1.5420 -0.1631
  453MOL0     C62415   6.617   5.484   7.499 -0.4056 -0.4190 -0.4146
  453MOL0     C62416   6.732   5.398   7.469 -0.1474 -0.1518 -0.8749
  453MOL0     C62417   6.783   5.404   7.321 -0.5277 -0.7670  0.5747
  453MOL0     C62418   6.878   5.285   7.298  1.0805 -0.1261 -0.0296
  453MOL0     C62419   6.933   5.303   7.160  0.0367  0.3896  0.4861
  453MOL0     C62420   6.952   5.152   7.097 -0.5706 -1.0645 -0.1068
  453MOL0    Cl62421   6.807   5.055   7.083 -0.1610 -0.2656  0.3957
  453MOL0     C62422   6.318   5.791   7.792  0.1525 -1.1391 -0.9256
  453MOL0     C62423   6.223   5.880   7.855  0.0566 -0.1516  0.2445
  453MOL0     O62424   6.167   6.149   7.989  0.0502 -0.1256  0.3277
  453MOL0     C62425   5.962   6.297   8.063  0.0541  0.1875 -0.3487
  453MOL0     C62426   5.850   6.372   8.085  0.2772  0.5390  0.8346
  453MOL0     N62427   5.245   6.344   7.766 -0.0457  0.2240  0.0517
  453MOL0     N62428   5.161   6.249   7.750 -0.6970 -0.7167  0.4559
  453MOL0     C62429   4.585   6.001   8.827 -0.1960 -0.1595  0.5891
  453MOL0     C62430   4.564   5.996   8.962  0.3897  0.6767 -0.5098
  453MOL0     C62431   4.557   5.819   9.405  0.3647 -0.1448  1.1015
  453MOL0     C62432   4.599   5.946   9.446 -0.7162  0.5851  0.4558
  453MOL0     C62433   4.581   5.983   9.584  0.0054 -0.5132  0.0317
  453MOL0     C62434   4.553   5.891   9.684  0.2732  0.3197 -0.2902
  453MOL0     O62435   4.569   5.930   9.818  0.6022 -0.5169 -0.3925
  453MOL0     C62436   4.542   5.834   9.916 -0.3756 -0.7123 -1.2796
  453MOL0     C62437   4.550   5.898  10.059  0.2632  0.6791  0.2560
  453MOL0     C62438   4.489   6.031  10.062 -0.6409 -0.2644 -0.0149
  453MOL0     C62439   4.505   6.081  10.206  0.3462 -0.6533 -1.4103
  453MOL0     C62440   4.458   6.220  10.227 -0.4703 -0.8493  1.0060
  453MOL0     C62441   4.415   6.332  10.238  0.1823  0.0604  0.0773
  453MOL0     C62442   4.520   5.758   9.639  0.7392 -0.6773 -0.5983
  453MOL0     C62443   4.514   5.725   9.498  0.9966 -0.5057  0.2681
  453MOL0     C62444   4.445   5.591   9.471  0.9222 -0.8436  1.2012
  453MOL0     H62445   4.743   5.710   9.033 -1.1988 -1.5201 -0.9809
  453MOL0     H62446   4.766   5.711   8.796 -1.8313 -0.8773  0.7939
  453MOL0     H62447   4.750   5.727   8.588 -1.6444  0.2266 -0.8321
  453MOL0     H62448   4.875   5.862   8.595  1.3413  3.5835 -3.9853
  453MOL0     H62449   4.798   5.751   8.368  2.0089 -0.3691  0.7650
  453MOL0     H62450   4.661   5.857   8.371  1.3395  0.3105 -1.7403
  453MOL0     H62451   4.798   6.057   8.432  5.0397  3.0975 -1.3047
  453MOL0     H62452   4.939   5.970   8.381  0.4014 -0.0702 -3.1717
  453MOL0     H62453   4.814   5.922   8.160  2.9954  0.7460 -0.7741
  453MOL0     H62454   4.692   6.041   8.213 -0.2495  1.0585  0.9315
  453MOL0     H62455   4.980   6.130   8.189 -1.3793  2.9391  2.1835
  453MOL0     H62456   4.843   6.215   8.242 -2.3438  1.7799 -2.6705
  453MOL0     H62457   4.737   6.209   8.038  0.1908  0.1484  1.1110
  453MOL0     H62458   4.888   6.282   8.039  0.4758 -0.0165 -0.9462
  453MOL0     H62459   4.848   6.116   7.836 -1.3986 -0.2079 -0.4223
  453MOL0     H62460   4.873   5.982   7.952  2.4917 -0.9876 -0.2599
  453MOL0     H62461   5.099   6.017   7.979 -0.7409 -4.9744 -3.1546
  453MOL0     H62462   5.063   5.999   7.823 -4.1562 -1.0681  0.7729
  453MOL0     H62463   5.151   6.268   8.073 -1.8142 -3.1117 -0.0121
  453MOL0     H62464   5.383   6.403   8.074 -2.1124  3.2825  3.1149
  453MOL0     H62465   5.303   6.535   8.015  3.0311  1.2256  1.9267
  453MOL0     H62466   5.537   6.380   7.860  2.6791  0.6844  0.4416
  453MOL0     H62467   5.450   6.522   7.797  0.3520  0.9868 -0.5219
  453MOL0     H62468   5.695   6.532   7.899  0.7919 -0.4041  0.0796
  453MOL0     H62469   5.580   6.663   7.926 -0.9127 -0.1716  0.5778
  453MOL0     H62470   5.711   6.595   8.130  0.6077 -1.2567 -0.0976
  453MOL0     H62471   5.530   6.576   8.150  0.7842  0.1890 -0.2112
  453MOL0     H62472   5.641   6.144   8.215  0.5023  0.8426 -0.2304
  453MOL0     H62473   5.766   5.903   8.078  1.3040 -0.5455 -0.0593
  453MOL0     H62474   5.755   5.922   8.254  2.3095  1.2305  3.0958
  453MOL0     H62475   5.905   5.884   8.167  2.4696  3.6936 -0.6763
  453MOL0     H62476   6.265   5.785   8.178  0.2409 -3.0916  0.4762
  453MOL0     H62477   6.431   5.631   8.065  0.4983 -0.4704 -1.1006
  453MOL0     H62478   6.400   5.564   7.645  0.3554  0.1868 -0.0697
  453MOL0     H62479   6.516   5.695   7.624 -0.2094  0.8757  0.4293
  453MOL0     H62480   6.707   5.556   7.683  1.7214 -2.0541  0.7528
  453MOL0     H62481   6.605   5.418   7.712  3.1061  2.2441  1.5622
  453MOL0     H62482   6.611   5.582   7.450 -3.0073  1.4820  3.1864
  453MOL0     H62483   6.522   5.440   7.468 -2.1275  2.7116 -0.0734
  453MOL0     H62484   6.705   5.297   7.503  1.8216 -0.1972  0.7616
  453MOL0     H62485   6.824   5.430   7.517 -0.8290  0.9908 -0.2759
  453MOL0     H62486   6.699   5.406   7.251  0.9913  1.6700 -1.3472
  453MOL0     H62487   6.834   5.501   7.309 -0.1045 -1.0782 -0.1864
  453MOL0     H62488   6.826   5.191   7.318  1.0155  0.2752  1.8453
  453MOL0     H62489   6.956   5.305   7.373  1.7451  1.4882 -1.0938
  453MOL0     H62490   7.031   5.350   7.172  0.8608 -1.2597  0.4752
  453MOL0     H62491   6.876   5.368   7.093 -1.5560 -0.2143  1.2260
  453MOL0     H62492   7.008   5.096   7.172 -0.2692 -0.3119  0.2315
  453MOL0     H62493   6.998   5.148   6.997 -1.9005  0.9363 -0.8583
  453MOL0     H62494   6.331   5.796   7.685  1.5920 -0.1813 -0.7468
  453MOL0     H62495   6.170   5.954   7.795 -1.3336 -2.5518 -1.6851
  453MOL0     H62496   6.042   6.340   8.003 -0.6311 -0.1038 -1.5041
  453MOL0     H62497   5.852   6.473   8.047  0.0798  0.1261 -0.3218
  453MOL0     H62498   4.539   6.085   8.776  1.9314  0.5670 -0.2353
  453MOL0     H62499   4.507   6.077   9.005 -1.1698 -0.6432  0.0148
  453MOL0     H62500   4.644   6.017   9.378 -0.7131  0.3064  0.1640
  453MOL0     H62501   4.604   6.087   9.605  0.3084 -0.3893 -0.8548
  453MOL0     H62502   4.441   5.797   9.898 -0.2705 -0.7186 -1.8793
  453MOL0     H62503   4.614   5.752   9.908  2.6664  1.8826 -2.5198
  453MOL0     H62504   4.654   5.892  10.094 -0.2000 -0.4549  1.5178
  453MOL0     H62505   4.487   5.846  10.132  0.6545  0.6512  0.5805
  453MOL0     H62506   4.540   6.096   9.990  1.4945 -1.0061  0.7606
  453MOL0     H62507   4.385   6.016  10.029  0.1039 -2.9641 -1.4408
  453MOL0     H62508   4.610   6.085  10.234  0.3807  2.1945 -1.6493
  453MOL0     H62509   4.440   6.023  10.273  0.8696  0.3378 -0.0074
  453MOL0     H62510   4.371   6.427  10.261  1.8207  1.6499 -2.7365
  453MOL0     H62511   4.484   5.692   9.717  1.4910  0.9533  1.2055
  453MOL0     H62512   4.373   5.601   9.389  3.3094  4.6500 -0.6941
  453MOL0     H62513   4.520   5.526   9.425  0.1175  0.6033 -2.5511
  453MOL0     H62514   4.391   5.546   9.555 -2.9123  0.3948 -0.3797
  454MOL0     O62515   6.012  10.108   0.985  0.7830 -0.4541  0.6118
  454MOL0     C62516   5.942  10.079   1.084  0.0137 -0.2680 -0.3687
  454MOL0     O62517   5.945   9.959   1.149 -0.2120  0.1777 -0.8069
  454MOL0     C62518   6.008   9.853   1.084  0.0755  0.0485  0.0093
  454MOL0     C62519   5.955   9.816   0.955 -0.3826 -0.3803  0.2356
  454MOL0     C62520   6.020   9.708   0.892 -0.4297 -0.0138 -1.1568
  454MOL0     C62521   6.117   9.633   0.960  0.6425  0.9692  0.4009
  454MOL0     O62522   6.163   9.527   0.887  0.0396  0.3435  0.4764
  454MOL0     C62523   6.239   9.421   0.952 -0.3738  0.0362 -1.6091
  454MOL0     C62524   6.217   9.293   0.870  0.7301  0.5877 -0.0011
  454MOL0     C62525   6.331   9.281   0.772  0.6941 -0.1398 -0.5894
  454MOL0     C62526   6.289   9.271   0.625  0.1788 -0.0642 -0.8939
  454MOL0     C62527   6.390   9.188   0.556 -0.5329  0.4014  0.4643
  454MOL0     C62528   6.383   9.034   0.581  0.4156 -0.5537 -0.4374
  454MOL0     C62529   6.484   8.964   0.490 -0.1475  0.0742  0.1658
  454MOL0     C62530   6.629   8.970   0.532  0.9994  0.6522  0.1910
  454MOL0     N62531   6.711   8.894   0.437 -1.0961  0.0479  0.5315
  454MOL0     C62532   6.740   8.928   0.316  0.3405  0.3140  0.4127
  454MOL0     C62533   6.814   8.831   0.258  0.5840  0.7642 -0.0588
  454MOL0     C62534   6.874   8.829   0.118  1.1160 -0.7055 -0.7414
  454MOL0     C62535   6.828   8.709   0.028 -0.2928  1.3670 -0.3828
  454MOL0     C62536   6.908   8.584   0.044 -0.0923  0.0133 -0.3166
  454MOL0     C62537   6.864   8.479  -0.056  0.3250 -0.7066  0.0208
  454MOL0     O62538   6.860   8.344  -0.009 -0.5337 -0.1478 -0.0369
  454MOL0     C62539   6.979   8.284   0.019  0.0524 -0.0490 -0.4107
  454MOL0     C62540   7.112   8.338   0.006 -0.5314  0.0334 -0.9943
  454MOL0     C62541   7.228   8.253   0.012 -0.1422  0.7865  0.4367
  454MOL0     C62542   7.350   8.297  -0.062  0.5360  0.7677 -0.4580
  454MOL0     C62543   7.214   8.132   0.084 -0.1084  0.7865  0.0175
  454MOL0     C62544   7.327   8.047   0.133  0.0124  0.7944  0.8707
  454MOL0     O62545   7.296   7.952   0.223  0.4088  0.0062  0.2378
  454MOL0     C62546   7.350   7.832   0.183  0.3531 -0.3538  0.1843
  454MOL0     C62547   7.484   7.803   0.179  0.1835  0.7068  0.0634
  454MOL0     C62548   7.527   7.668   0.160 -0.7765  0.5405 -0.5136
  454MOL0     C62549   7.435   7.570   0.132  0.1527  0.4357 -0.4521
  454MOL0     O62550   7.494   7.449   0.096 -0.1899 -0.0665 -0.7135
  454MOL0     C62551   7.430   7.320   0.134 -0.0859 -1.3386 -1.0442
  454MOL0     C62552   7.493   7.200   0.068 -0.5053  0.5077 -0.6582
  454MOL0     C62553   7.444   7.182  -0.076  0.3101 -0.7997  0.0453
  454MOL0     C62554   7.503   7.282  -0.171 -0.9872  0.3861  0.9886
  454MOL0     C62555   7.435   7.274  -0.307  0.4189  0.0733 -0.0453
  454MOL0     C62556   7.500   7.358  -0.422  0.2360  0.0604 -0.4691
  454MOL0     C62557   7.635   7.300  -0.465  1.0566  0.4096 -0.2986
  454MOL0     C62558   7.697   7.392  -0.580  0.0797  0.0941  0.7368
  454MOL0    Cl62559   7.850   7.313  -0.618  0.0813  0.3168 -0.1091
  454MOL0     C62560   7.301   7.593   0.137 -0.4344  0.1528  0.6997
  454MOL0     C62561   7.259   7.728   0.157 -0.1644  0.3526 -0.2849
  454MOL0     O62562   7.445   8.076   0.112  0.0765 -0.3349 -0.1004
  454MOL0     C62563   7.083   8.086   0.119 -0.2218 -0.1773  0.2008
  454MOL0     C62564   6.972   8.161   0.082  0.5083 -0.9457 -0.3017
  454MOL0     N62565   6.827   8.728   0.352  0.0932 -0.0867  0.2796
  454MOL0     N62566   6.762   8.768   0.457 -0.3387 -0.4609  0.3417
  454MOL0     C62567   6.177   9.675   1.078 -0.3116 -0.3452  0.2399
  454MOL0     C62568   6.135   9.799   1.132 -0.2237  0.0580  0.1164
  454MOL0     C62569   5.865  10.186   1.156  0.5797  0.0411  0.2530
  454MOL0     C62570   5.808  10.148   1.285 -0.7681  0.1760  0.2247
  454MOL0     C62571   5.749  10.241   1.374 -0.5300  0.3941  0.4882
  454MOL0     C62572   5.741  10.379   1.342 -0.5297  0.3779 -0.1674
  454MOL0     O62573   5.702  10.483   1.429  0.0475  0.2713  0.3957
  454MOL0     C62574   5.618  10.459   1.537  0.4481 -0.2775 -0.1469
  454MOL0     C62575   5.474  10.434   1.488  0.2091 -0.0568  0.6052
  454MOL0     C62576   5.392  10.405   1.607 -0.0658  1.4309 -0.0024
  454MOL0     C62577   5.377  10.262   1.642  0.0362 -0.0304  0.9644
  454MOL0     C62578   5.321  10.167   1.549  0.3223  0.2850 -0.0407
  454MOL0     C62579   5.284  10.079   1.478 -0.0292  0.8463  0.8800
  454MOL0     C62580   5.796  10.418   1.217  0.0002  0.2198 -0.5190
  454MOL0     C62581   5.852  10.321   1.128 -0.4021 -0.6139 -0.2249
  454MOL0     C62582   5.913  10.382   1.011  1.1620  0.0458 -0.4184
  454MOL0     H62583   5.875   9.877   0.915 -0.6937  0.7645  2.4429
  454MOL0     H62584   5.987   9.669   0.797 -0.8251 -0.9041 -0.6632
  454MOL0     H62585   6.193   9.396   1.048 -0.7268 -0.2825 -1.8618
  454MOL0     H62586   6.344   9.444   0.972 -0.6552  1.6529 -1.8247
  454MOL0     H62587   6.215   9.204   0.934 -3.2072  1.2319  0.9853
  454MOL0     H62588   6.122   9.275   0.819  0.7418 -1.9983  0.7175
  454MOL0     H62589   6.407   9.360   0.780 -1.6256  2.0607  1.1113
  454MOL0     H62590   6.363   9.181   0.804 -2.4048 -1.2764 -0.6925
  454MOL0     H62591   6.188   9.229   0.619 -0.2974  0.9288 -0.1607
  454MOL0     H62592   6.279   9.372   0.586 -3.6753  0.8071  1.7331
  454MOL0     H62593   6.492   9.224   0.573  1.1920 -3.1662 -1.1818
  454MOL0     H62594   6.382   9.206   0.449  1.0953 -0.5715  0.1328
  454MOL0     H62595   6.414   9.021   0.685 -1.4409  4.4799  1.0727
  454MOL0     H62596   6.282   8.999   0.560 -0.1385  1.1134 -0.7390
  454MOL0     H62597   6.475   9.001   0.387 -0.4944  2.7323  1.0822
  454MOL0     H62598   6.456   8.858   0.493 -4.5603  1.0293 -0.3322
  454MOL0     H62599   6.675   9.069   0.531  0.9073  0.7151  1.1637
  454MOL0     H62600   6.639   8.928   0.633 -0.2668 -1.3612 -0.4634
  454MOL0     H62601   6.727   9.025   0.269  2.1721 -0.9170 -2.9935
  454MOL0     H62602   6.982   8.820   0.133  1.1977  1.2431  0.1746
  454MOL0     H62603   6.853   8.930   0.080 -1.4082 -0.7244  0.3504
  454MOL0     H62604   6.721   8.693   0.045 -0.1041  0.9976  0.5070
  454MOL0     H62605   6.833   8.749  -0.074 -1.3462 -0.2064 -1.0898
  454MOL0     H62606   7.013   8.612   0.032  0.5140 -2.3983 -1.1402
  454MOL0     H62607   6.909   8.537   0.143  2.0732 -2.2085 -1.3135
  454MOL0     H62608   6.758   8.484  -0.081  0.0176 -1.9778  1.0164
  454MOL0     H62609   6.932   8.495  -0.141  0.3142 -0.2638  0.0904
  454MOL0     H62610   7.128   8.441  -0.025  4.0965 -0.5289 -1.1554
  454MOL0     H62611   7.316   8.326  -0.162  2.0479  0.5131 -1.0813
  454MOL0     H62612   7.424   8.220  -0.088 -1.3709 -1.7033  1.0173
  454MOL0     H62613   7.400   8.381  -0.013  1.5440 -0.0424 -0.0623
  454MOL0     H62614   7.571   7.868   0.186  3.1691 -2.8204 -0.8916
  454MOL0     H62615   7.631   7.636   0.160 -0.5956  1.1324 -0.5291
  454MOL0     H62616   7.445   7.313   0.242  0.5197 -0.0376 -1.0339
  454MOL0     H62617   7.322   7.320   0.117 -0.7092  0.2066  2.2026
  454MOL0     H62618   7.600   7.224   0.057 -0.7085  1.8417  0.0313
  454MOL0     H62619   7.497   7.101   0.114  3.0190  0.6238 -0.4128
  454MOL0     H62620   7.336   7.197  -0.080  0.7197  6.0403  1.7800
  454MOL0     H62621   7.471   7.083  -0.115 -1.7243 -1.8232  1.0888
  454MOL0     H62622   7.609   7.265  -0.193 -1.6802 -2.0111 -1.1151
  454MOL0     H62623   7.484   7.381  -0.131 -1.5018 -0.1096  2.0058
  454MOL0     H62624   7.451   7.172  -0.342 -6.9182 -1.8667  0.7576
  454MOL0     H62625   7.327   7.288  -0.299 -1.0232 -6.1139 -2.8494
  454MOL0     H62626   7.497   7.466  -0.406 -3.3191 -0.0956  0.8815
  454MOL0     H62627   7.425   7.352  -0.502 -3.2344  0.8399  2.4235
  454MOL0     H62628   7.632   7.194  -0.492  2.4591 -0.2918  2.0391
  454MOL0     H62629   7.711   7.304  -0.387  0.5615  1.0405  0.1580
  454MOL0     H62630   7.709   7.495  -0.546 -4.3502  0.8627  0.5592
  454MOL0     H62631   7.646   7.390  -0.677  2.5818 -1.8424 -0.6594
  454MOL0     H62632   7.229   7.514   0.116  0.8225 -0.2482 -2.5948
  454MOL0     H62633   7.155   7.750   0.136  0.3188  0.1312 -3.2994
  454MOL0     H62634   7.072   7.988   0.163 -0.3812 -0.3174 -0.1446
  454MOL0     H62635   6.869   8.129   0.093 -0.2951  1.1532 -1.2002
  454MOL0     H62636   6.265   9.626   1.118  0.5328  0.7598 -0.2098
  454MOL0     H62637   6.173   9.834   1.227 -2.5959  1.2256  0.7257
  454MOL0     H62638   5.829  10.049   1.325  3.0029  0.7823  0.1731
  454MOL0     H62639   5.699  10.208   1.465 -3.6643 -1.4240 -1.6678
  454MOL0     H62640   5.662  10.385   1.604 -4.0058 -1.2556  2.1311
  454MOL0     H62641   5.622  10.547   1.603  0.4806 -2.9140  3.6893
  454MOL0     H62642   5.480  10.344   1.427 -2.3806  1.2260 -1.8174
  454MOL0     H62643   5.422  10.517   1.439 -0.9841  0.3028  2.3712
  454MOL0     H62644   5.440  10.465   1.686  1.8854  0.1983 -0.2085
  454MOL0     H62645   5.291  10.442   1.589 -0.9989 -1.2664 -0.7726
  454MOL0     H62646   5.333  10.231   1.738 -3.2909  1.7858  0.2112
  454MOL0     H62647   5.479  10.228   1.660  0.7633  1.0304 -0.9488
  454MOL0     H62648   5.265   9.983   1.436  2.4617  1.2638 -1.4538
  454MOL0     H62649   5.780  10.525   1.206 -0.0355  0.3831  0.9393
  454MOL0     H62650   5.879  10.485   1.001  0.9547  0.3032  2.2920
  454MOL0     H62651   6.021  10.396   1.025  0.6541  2.3102  2.3179
  454MOL0     H62652   5.893  10.335   0.914  2.3329 -2.2099  0.3536
  455MOL0     O62653   1.051   1.471   5.781 -0.2095 -0.7614 -0.7099
  455MOL0     C62654   1.120   1.561   5.731 -0.6159  0.5293  0.9066
  455MOL0     O62655   1.256   1.555   5.704 -0.8530  0.3061 -0.1773
  455MOL0     C62656   1.328   1.470   5.783  0.5698  0.0885  0.2022
  455MOL0     C62657   1.416   1.527   5.872 -0.7314  0.9121  1.0016
  455MOL0     C62658   1.486   1.437   5.961  0.1056 -1.3965 -0.2741
  455MOL0     C62659   1.463   1.299   5.964 -0.3989 -0.5998  0.2991
  455MOL0     O62660   1.519   1.228   6.067 -0.7634 -0.0198  0.7743
  455MOL0     C62661   1.625   1.135   6.037  0.2456  0.2202 -0.5966
  455MOL0     C62662   1.741   1.175   5.939  0.7337  0.0817  0.0658
  455MOL0     C62663   1.818   1.295   5.983  0.9844  0.0792 -0.7250
  455MOL0     C62664   1.874   1.371   5.861 -0.3232  0.3122 -0.5399
  455MOL0     C62665   1.923   1.506   5.888  0.3663  0.5130 -0.0823
  455MOL0     C62666   2.016   1.548   5.776  0.0862  0.1936  0.2235
  455MOL0     C62667   2.073   1.697   5.785  0.0887  0.7057  0.1077
  455MOL0     C62668   2.158   1.726   5.903 -0.2825 -0.0828  0.7335
  455MOL0     N62669   2.273   1.805   5.875  0.4515  0.4225  0.0675
  455MOL0     C62670   2.360   1.774   5.774 -0.4876  0.7016  0.8301
  455MOL0     C62671   2.463   1.863   5.792 -0.1783  0.4443 -0.2413
  455MOL0     C62672   2.595   1.865   5.704 -0.3813 -0.4885 -0.5204
  455MOL0     C62673   2.694   1.768   5.765 -0.0364 -0.3808  0.9162
  455MOL0     C62674   2.825   1.738   5.679  1.1510 -0.5127  1.0206
  455MOL0     C62675   2.929   1.639   5.731 -0.3803  0.2593 -0.1134
  455MOL0     O62676   2.864   1.535   5.802 -0.0498  0.3210  0.2027
  455MOL0     C62677   2.803   1.429   5.738 -0.1317 -0.3810 -0.2557
  455MOL0     C62678   2.836   1.398   5.597  1.0581 -0.4542  0.2064
  455MOL0     C62679   2.775   1.284   5.536 -0.4174 -0.1779  0.7198
  455MOL0     C62680   2.786   1.263   5.389  0.6133 -0.6724 -0.5345
  455MOL0     C62681   2.704   1.194   5.620 -0.1235  0.4661  0.3568
  455MOL0     C62682   2.608   1.093   5.571  0.6553  0.3767  0.8000
  455MOL0     O62683   2.521   1.130   5.467 -0.6259 -0.5255 -0.0616
  455MOL0     C62684   2.458   1.037   5.395  0.0186  0.1197  0.3779
  455MOL0     C62685   2.347   0.972   5.446 -0.1046 -0.8056  0.0567
  455MOL0     C62686   2.283   0.863   5.381 -0.6720  0.6387 -0.8657
  455MOL0     C62687   2.326   0.825   5.253 -0.2501  1.0293  0.3634
  455MOL0     O62688   2.249   0.718   5.199 -0.6101  0.1975  0.1199
  455MOL0     C62689   2.302   0.597   5.241  0.0756 -0.0851  0.7829
  455MOL0     C62690   2.243   0.504   5.138 -0.1028  0.6569  0.0887
  455MOL0     C62691   2.292   0.354   5.161 -0.3544  0.9886  0.1355
  455MOL0     C62692   2.231   0.244   5.064  0.1627  0.4138  0.1813
  455MOL0     C62693   2.271   0.114   5.127  0.8998  0.3995  0.6556
  455MOL0     C62694   2.228   0.008   5.021 -0.3995  0.9426  0.4837
  455MOL0     C62695   2.075  -0.008   5.032  0.3948 -0.2390 -0.5850
  455MOL0     C62696   2.014  -0.124   4.971  1.1535  0.0348 -0.1609
  455MOL0    Cl62697   2.037  -0.112   4.796  0.0607  0.2713  0.3029
  455MOL0     C62698   2.423   0.906   5.180  0.1042 -0.1331  0.1541
  455MOL0     C62699   2.486   1.004   5.261  1.4590  0.6962  0.3096
  455MOL0     O62700   2.606   0.992   5.638 -0.6812  0.3479 -0.7289
  455MOL0     C62701   2.684   1.231   5.765 -0.1406  0.3576 -0.1906
  455MOL0     C62702   2.733   1.345   5.818  0.0973 -0.7425 -0.0517
  455MOL0     N62703   2.425   1.955   5.883 -0.1138 -0.2110 -1.0904
  455MOL0     N62704   2.315   1.915   5.939  0.1676 -0.2717  1.2077
  455MOL0     C62705   1.377   1.244   5.867 -0.5959  0.0429  0.2516
  455MOL0     C62706   1.308   1.330   5.781  0.5629  0.3805  0.2199
  455MOL0     C62707   1.048   1.689   5.692  0.3592  0.7333 -0.0246
  455MOL0     C62708   0.926   1.712   5.746  0.1419 -0.4994 -0.7782
  455MOL0     C62709   0.844   1.827   5.717  0.1309 -0.6423 -0.3422
  455MOL0     C62710   0.900   1.935   5.640  0.7843 -0.0087 -0.4163
  455MOL0     O62711   0.823   2.036   5.605  0.3915 -0.4998 -0.7549
  455MOL0     C62712   0.876   2.138   5.521  0.2824 -0.4223  0.7110
  455MOL0     C62713   0.783   2.249   5.493  0.1855 -0.2842  0.6332
  455MOL0     C62714   0.840   2.335   5.375 -0.5045 -0.5665  0.1723
  455MOL0     C62715   0.735   2.431   5.328  0.2659  0.1005 -0.1758
  455MOL0     C62716   0.728   2.543   5.416 -0.7917  1.0248  0.3975
  455MOL0     C62717   0.719   2.648   5.482  0.1395  0.1618  0.3267
  455MOL0     C62718   1.024   1.906   5.585 -0.1361  0.2209 -0.5368
  455MOL0     C62719   1.102   1.789   5.600 -1.1633 -0.2137 -0.6735
  455MOL0     C62720   1.230   1.777   5.523 -0.0732  0.0698 -0.2779
  455MOL0     H62721   1.438   1.633   5.870 -0.2410  0.8071  0.5437
  455MOL0     H62722   1.558   1.498   6.014 -0.9210 -1.5159  1.3120
  455MOL0     H62723   1.568   1.052   5.993 -1.2517  1.3635 -0.8855
  455MOL0     H62724   1.676   1.110   6.131  0.8172  3.3442  0.0306
  455MOL0     H62725   1.811   1.091   5.933  1.1045  0.4646 -1.4502
  455MOL0     H62726   1.689   1.190   5.844  0.1640 -1.1815  0.1588
  455MOL0     H62727   1.747   1.351   6.044  1.2556 -1.8145  1.4457
  455MOL0     H62728   1.895   1.258   6.052 -0.2009 -3.2227 -0.9838
  455MOL0     H62729   1.960   1.310   5.830 -1.8621 -2.3508  0.0900
  455MOL0     H62730   1.805   1.365   5.776 -0.1035  2.0580 -0.8717
  455MOL0     H62731   1.983   1.508   5.980 -0.9289  0.8511  0.7821
  455MOL0     H62732   1.855   1.591   5.899 -0.3475 -0.3428  3.7730
  455MOL0     H62733   2.103   1.482   5.782 -1.1438 -1.6397 -0.9317
  455MOL0     H62734   1.973   1.541   5.676 -1.0744  1.6320  0.5928
  455MOL0     H62735   1.984   1.760   5.790 -0.2219  0.3261 -0.4761
  455MOL0     H62736   2.130   1.712   5.692  0.5688 -2.5347 -0.2254
  455MOL0     H62737   2.098   1.775   5.981 -0.2527  0.6314  0.3139
  455MOL0     H62738   2.198   1.634   5.947 -2.9726 -2.0257 -0.5767
  455MOL0     H62739   2.373   1.696   5.700 -1.3558  1.4449 -0.1297
  455MOL0     H62740   2.645   1.962   5.701  0.5652 -0.5005  4.8265
  455MOL0     H62741   2.570   1.837   5.601  0.6844 -1.1165 -0.6188
  455MOL0     H62742   2.728   1.804   5.863  1.0645 -0.2316  0.4886
  455MOL0     H62743   2.648   1.671   5.787 -0.8122 -0.2036  0.1260
  455MOL0     H62744   2.780   1.700   5.587  2.3598 -0.0275  0.2024
  455MOL0     H62745   2.874   1.832   5.652  0.3054 -0.2617  0.3174
  455MOL0     H62746   2.995   1.613   5.647  3.6807  0.7062  2.6734
  455MOL0     H62747   3.000   1.688   5.798  0.9110 -2.7886  0.9280
  455MOL0     H62748   2.901   1.460   5.536 -0.8264 -0.2898 -1.7595
  455MOL0     H62749   2.771   1.159   5.357 -1.1753 -0.5543 -0.1755
  455MOL0     H62750   2.881   1.301   5.351  0.2716  0.1649 -0.5521
  455MOL0     H62751   2.705   1.322   5.346  1.0499  1.2694  1.2119
  455MOL0     H62752   2.319   0.983   5.551  1.5722 -2.2208  0.6904
  455MOL0     H62753   2.213   0.799   5.434 -0.7048 -0.6246 -2.3969
  455MOL0     H62754   2.412   0.599   5.242  0.1030  0.5935 -0.6264
  455MOL0     H62755   2.253   0.583   5.337 -2.2661 -1.5138 -0.5231
  455MOL0     H62756   2.134   0.500   5.138 -0.1012  0.6464 -0.0976
  455MOL0     H62757   2.283   0.535   5.041 -1.8046 -0.6634 -1.1006
  455MOL0     H62758   2.250   0.331   5.259  0.1014 -0.8048 -0.0689
  455MOL0     H62759   2.401   0.349   5.166 -0.0997  1.9156 -2.5382
  455MOL0     H62760   2.274   0.264   4.965  0.7094  3.1853  0.8886
  455MOL0     H62761   2.123   0.255   5.046 -0.2929 -1.8863  1.1480
  455MOL0     H62762   2.380   0.113   5.135  1.0319 -2.5647 -0.4699
  455MOL0     H62763   2.230   0.091   5.226 -0.2434 -1.2254 -0.1582
  455MOL0     H62764   2.277  -0.087   5.039  0.3430  0.1864 -4.1942
  455MOL0     H62765   2.268   0.033   4.922  0.7121 -0.8584  0.4288
  455MOL0     H62766   2.022   0.077   4.988  0.9262  2.2984  3.2175
  455MOL0     H62767   2.047  -0.000   5.138  1.9989  1.8396 -0.2552
  455MOL0     H62768   1.907  -0.115   4.989  0.3965 -2.4359 -2.6147
  455MOL0     H62769   2.037  -0.226   5.004  0.3045 -0.0130  0.3131
  455MOL0     H62770   2.453   0.870   5.082 -2.5072 -3.4149  0.3926
  455MOL0     H62771   2.561   1.072   5.220  1.2216  0.4131 -0.6111
  455MOL0     H62772   2.617   1.167   5.821 -2.6222  0.5493 -2.7423
  455MOL0     H62773   2.720   1.393   5.915 -1.4049 -1.5901  0.1978
  455MOL0     H62774   1.354   1.138   5.861 -2.6658  0.5440 -2.1541
  455MOL0     H62775   1.244   1.291   5.702 -0.0935 -0.5270  1.1646
  455MOL0     H62776   0.886   1.624   5.797  2.4314 -2.0882 -1.5676
  455MOL0     H62777   0.743   1.836   5.754 -0.2483 -2.3250 -0.8686
  455MOL0     H62778   0.970   2.183   5.554  1.1162 -0.7035 -1.1968
  455MOL0     H62779   0.898   2.090   5.426  3.0540  1.1271  0.4709
  455MOL0     H62780   0.775   2.314   5.581  2.5019  1.0442 -0.0635
  455MOL0     H62781   0.687   2.201   5.472  0.5311 -1.4351  1.6214
  455MOL0     H62782   0.932   2.393   5.384 -0.4512 -0.7372  0.7322
  455MOL0     H62783   0.865   2.273   5.288  2.6842 -0.1944  0.7134
  455MOL0     H62784   0.637   2.383   5.326  0.1671  0.2690 -2.6078
  455MOL0     H62785   0.755   2.457   5.224 -1.4492 -4.9343 -2.0935
  455MOL0     H62786   0.683   2.720   5.553 -0.9617  0.0882 -0.1382
  455MOL0     H62787   1.069   1.988   5.531 -0.7887  0.2506 -1.0402
  455MOL0     H62788   1.307   1.771   5.600 -2.6883 -3.1546  2.3966
  455MOL0     H62789   1.233   1.687   5.462 -3.6143  1.0571 -2.2376
  455MOL0     H62790   1.246   1.860   5.453 -1.0782  1.5902  1.1891
  456MOL0     O62791   7.419   8.613   4.429  0.5572  1.0860 -0.0172
  456MOL0     C62792   7.428   8.531   4.518 -0.0502  0.1905  0.2261
  456MOL0     O62793   7.513   8.537   4.628 -0.3803 -0.3518 -0.6198
  456MOL0     C62794   7.608   8.629   4.638  0.3766 -0.1937  0.0633
  456MOL0     C62795   7.734   8.583   4.600 -0.1705  0.9329 -0.3405
  456MOL0     C62796   7.847   8.666   4.595  0.4598 -0.2394  0.7733
  456MOL0     C62797   7.826   8.799   4.632  0.2278 -0.4159  0.6040
  456MOL0     O62798   7.931   8.892   4.637 -0.3798 -0.4815 -0.9062
  456MOL0     C62799   7.967   8.974   4.528 -1.1770  0.3758 -0.5548
  456MOL0     C62800   8.083   9.074   4.551 -0.0135 -0.5142  0.8132
  456MOL0     C62801   8.209   9.005   4.612  0.7626  0.5204  0.0287
  456MOL0     C62802   8.306   9.109   4.667  0.4411 -0.1179 -0.7107
  456MOL0     C62803   8.431   9.040   4.710 -0.4366  0.3896 -0.9270
  456MOL0     C62804   8.547   9.129   4.742  0.0157  0.2946 -0.5077
  456MOL0     C62805   8.679   9.060   4.799  0.9236 -0.2478 -0.2322
  456MOL0     C62806   8.695   9.076   4.953  0.6359 -0.4651 -0.9572
  456MOL0     N62807   8.645   8.951   5.023  0.0021 -0.3393  1.1953
  456MOL0     C62808   8.696   8.829   5.003 -0.3911 -0.4806  0.1435
  456MOL0     C62809   8.640   8.752   5.098 -0.5640  0.3089 -0.3580
  456MOL0     C62810   8.685   8.606   5.119  0.6954  0.8687 -0.2800
  456MOL0     C62811   8.570   8.535   5.206 -0.2482  0.2180 -0.7863
  456MOL0     C62812   8.583   8.378   5.219 -0.3769 -0.6621  0.9327
  456MOL0     C62813   8.471   8.303   5.300  1.0960 -0.3017 -0.4410
  456MOL0     O62814   8.350   8.345   5.238 -0.2340  0.0512 -0.6745
  456MOL0     C62815   8.242   8.374   5.320  0.2962 -0.3034 -0.8206
  456MOL0     C62816   8.169   8.269   5.377  0.3267  0.3471  0.0143
  456MOL0     C62817   8.085   8.287   5.491 -0.0477  0.6433  0.6501
  456MOL0     C62818   8.013   8.166   5.544 -0.1845 -0.2929 -0.2098
  456MOL0     C62819   8.079   8.418   5.554  0.7105  0.5933  0.5503
  456MOL0     C62820   7.985   8.466   5.659  0.3321 -0.4153 -0.3693
  456MOL0     O62821   8.031   8.575   5.728 -0.1340  0.7275  0.3455
  456MOL0     C62822   7.937   8.640   5.799 -0.4005 -0.8362 -0.1511
  456MOL0     C62823   7.943   8.650   5.937 -0.9157  0.3019  0.4662
  456MOL0     C62824   7.857   8.732   6.004 -0.4288 -0.2527  0.2404
  456MOL0     C62825   7.766   8.820   5.943 -0.3115 -0.2079  0.0457
  456MOL0     O62826   7.691   8.913   6.013  0.4443 -0.1228  0.4983
  456MOL0     C62827   7.729   8.936   6.149 -0.1882 -0.2993  0.8658
  456MOL0     C62828   7.715   9.086   6.180  0.4928  0.1429 -0.1844
  456MOL0     C62829   7.584   9.146   6.138  0.0637 -0.0491  0.1795
  456MOL0     C62830   7.554   9.291   6.180  0.5302 -0.2447 -0.6011
  456MOL0     C62831   7.429   9.334   6.114  0.2100  0.2995 -0.4959
  456MOL0     C62832   7.403   9.481   6.149 -0.3559 -0.4984  0.8933
  456MOL0     C62833   7.277   9.537   6.092 -0.4341  0.4180 -0.7039
  456MOL0     C62834   7.248   9.680   6.151  0.2754 -0.6615 -0.5177
  456MOL0    Cl62835   7.118   9.748   6.048  0.0278  0.0786  0.1577
  456MOL0     C62836   7.756   8.802   5.806  0.2919 -0.4098 -0.5546
  456MOL0     C62837   7.837   8.721   5.737  0.1418  0.6905  0.3493
  456MOL0     O62838   7.873   8.415   5.667 -0.1075 -0.5482 -0.5491
  456MOL0     C62839   8.155   8.521   5.488 -0.8356 -0.3498  0.4303
  456MOL0     C62840   8.240   8.498   5.380 -0.5405  0.1630 -0.3362
  456MOL0     N62841   8.541   8.818   5.165  0.2637 -0.0985  0.0037
  456MOL0     N62842   8.535   8.936   5.103  0.2103  0.4799 -0.8377
  456MOL0     C62843   7.706   8.847   4.673  0.7812  0.1725  0.0369
  456MOL0     C62844   7.594   8.763   4.690 -0.2404  0.2277  0.2652
  456MOL0     C62845   7.357   8.404   4.519 -0.0859 -0.4900  0.6005
  456MOL0     C62846   7.402   8.293   4.599 -0.6958 -0.7738 -0.4822
  456MOL0     C62847   7.340   8.164   4.599 -1.4357 -0.4373  1.2783
  456MOL0     C62848   7.231   8.150   4.517 -0.4094  0.4830 -0.7382
  456MOL0     O62849   7.167   8.033   4.491  0.4602  1.1817  0.3646
  456MOL0     C62850   7.243   7.910   4.502  0.6538  0.2383  0.7755
  456MOL0     C62851   7.360   7.918   4.406  0.6813 -0.0047  0.1440
  456MOL0     C62852   7.337   7.924   4.254 -0.5184  0.5861 -1.0155
  456MOL0     C62853   7.267   7.795   4.192  0.6526  0.2153  0.1234
  456MOL0     C62854   7.313   7.781   4.048 -0.1394 -0.3140 -0.7956
  456MOL0     C62855   7.328   7.772   3.932  0.1771  0.2734  0.1341
  456MOL0     C62856   7.186   8.258   4.440 -0.6682 -0.1193 -0.2076
  456MOL0     C62857   7.245   8.378   4.436  0.3153  0.8236 -0.5150
  456MOL0     C62858   7.188   8.464   4.330  0.7356 -0.2580  0.1564
  456MOL0     H62859   7.757   8.479   4.579  2.1154  1.3384 -0.0472
  456MOL0     H62860   7.942   8.621   4.565 -0.4544 -0.0755 -2.7769
  456MOL0     H62861   7.878   9.033   4.503 -3.6760 -1.5213  2.9475
  456MOL0     H62862   7.989   8.900   4.451 -0.2702 -2.6947  2.4116
  456MOL0     H62863   8.105   9.128   4.459  1.9345  0.8105  1.9815
  456MOL0     H62864   8.040   9.148   4.619 -0.1304 -1.2940  1.6145
  456MOL0     H62865   8.175   8.954   4.703 -2.6120  4.3743  1.2885
  456MOL0     H62866   8.254   8.939   4.538 -0.8109 -0.8762  0.2532
  456MOL0     H62867   8.334   9.173   4.583 -0.9174  0.3588 -0.8304
  456MOL0     H62868   8.266   9.171   4.747 -2.1128 -1.4119 -0.8654
  456MOL0     H62869   8.478   8.968   4.642  1.0959 -1.0509  1.4736
  456MOL0     H62870   8.406   8.977   4.797  1.0490 -2.4321 -2.3979
  456MOL0     H62871   8.575   9.175   4.646 -0.8679 -0.6654 -1.2479
  456MOL0     H62872   8.513   9.203   4.815  2.6389 -1.4186  2.7330
  456MOL0     H62873   8.766   9.098   4.746  0.9389  1.2551  0.8011
  456MOL0     H62874   8.671   8.954   4.774 -1.6202  0.1751 -1.5206
  456MOL0     H62875   8.804   9.082   4.961  0.4709  1.8666  0.5246
  456MOL0     H62876   8.638   9.159   4.996  2.7682  0.4487  0.2844
  456MOL0     H62877   8.779   8.792   4.944  0.0276  1.8395 -0.8346
  456MOL0     H62878   8.782   8.597   5.169 -0.0068 -0.1701  0.9624
  456MOL0     H62879   8.687   8.558   5.021 -0.4342 -0.2540  0.2270
  456MOL0     H62880   8.573   8.567   5.310 -1.9060  0.4382 -0.7780
  456MOL0     H62881   8.465   8.551   5.182 -0.8087  1.3109  2.0727
  456MOL0     H62882   8.585   8.336   5.118 -0.4492 -1.2902  1.1845
  456MOL0     H62883   8.671   8.345   5.276 -0.8217 -2.6916  0.5313
  456MOL0     H62884   8.488   8.198   5.274  1.0314 -0.1741 -1.0062
  456MOL0     H62885   8.468   8.330   5.406 -2.3875  0.7467 -0.6986
  456MOL0     H62886   8.177   8.168   5.340 -0.1998 -0.7687  2.7227
  456MOL0     H62887   7.921   8.170   5.485  0.5236 -0.5354 -1.3661
  456MOL0     H62888   7.987   8.160   5.650 -1.1881 -2.1027 -0.5044
  456MOL0     H62889   8.054   8.070   5.512 -1.2315  0.7753 -5.7315
  456MOL0     H62890   8.016   8.577   5.972  0.8259  1.5847 -0.3392
  456MOL0     H62891   7.843   8.727   6.112  1.4276  0.1881  0.5277
  456MOL0     H62892   7.673   8.879   6.224  1.1997 -0.6783  1.6372
  456MOL0     H62893   7.836   8.921   6.165 -0.0314  1.9557  2.4144
  456MOL0     H62894   7.728   9.089   6.288  2.0030  0.2939 -0.3481
  456MOL0     H62895   7.801   9.146   6.147  3.3573 -2.5678  1.8057
  456MOL0     H62896   7.512   9.068   6.160 -0.7371 -0.0578 -2.1339
  456MOL0     H62897   7.602   9.145   6.030  2.4744 -0.3319  0.5238
  456MOL0     H62898   7.647   9.346   6.158  0.9777 -1.2449 -1.3320
  456MOL0     H62899   7.538   9.302   6.287 -1.9238  2.3954 -1.1446
  456MOL0     H62900   7.431   9.324   6.005 -3.2932  1.3869 -0.7918
  456MOL0     H62901   7.340   9.275   6.140  0.1709 -0.2865 -1.8766
  456MOL0     H62902   7.479   9.539   6.096 -1.5049 -0.0376 -0.2942
  456MOL0     H62903   7.403   9.502   6.256 -3.1102  0.8279  0.7221
  456MOL0     H62904   7.194   9.469   6.113 -0.4143  0.7910  0.6921
  456MOL0     H62905   7.294   9.553   5.985  3.0480  1.6869 -0.0944
  456MOL0     H62906   7.338   9.741   6.169 -1.2155  0.9518  2.2690
  456MOL0     H62907   7.205   9.667   6.251 -0.0613 -0.8546 -0.6902
  456MOL0     H62908   7.686   8.861   5.747 -0.1925 -0.4346 -0.0078
  456MOL0     H62909   7.830   8.712   5.629 -1.1997  0.8470  0.4039
  456MOL0     H62910   8.143   8.623   5.523 -4.2801 -0.7486  0.7349
  456MOL0     H62911   8.302   8.579   5.340 -0.6991  0.8604  0.7974
  456MOL0     H62912   7.694   8.942   4.724 -2.1638 -1.0617  1.9162
  456MOL0     H62913   7.494   8.792   4.720 -0.4482 -2.5412  2.8209
  456MOL0     H62914   7.476   8.296   4.679 -0.2916 -1.0347 -0.8426
  456MOL0     H62915   7.363   8.080   4.664  0.6562 -0.3675  0.6916
  456MOL0     H62916   7.291   7.901   4.601  2.6876  0.7679 -0.0978
  456MOL0     H62917   7.188   7.822   4.469 -2.8675  2.0085  1.4134
  456MOL0     H62918   7.431   7.838   4.429  0.0803 -0.9685 -1.2233
  456MOL0     H62919   7.406   8.017   4.417 -2.8126  1.5013  3.8833
  456MOL0     H62920   7.271   8.008   4.232 -0.0180  0.9490 -1.1422
  456MOL0     H62921   7.429   7.948   4.200 -1.2535  1.2206 -2.0251
  456MOL0     H62922   7.158   7.800   4.188  0.5695 -0.9947  0.5983
  456MOL0     H62923   7.288   7.703   4.247  0.5319 -0.4979 -0.9943
  456MOL0     H62924   7.346   7.751   3.828 -2.3357 -0.1172 -0.3064
  456MOL0     H62925   7.096   8.233   4.385 -2.8859  1.0208  2.6378
  456MOL0     H62926   7.145   8.556   4.371 -1.6029 -0.8914 -0.7183
  456MOL0     H62927   7.268   8.487   4.260  0.5746 -1.4396 -0.4466
  456MOL0     H62928   7.107   8.412   4.277  0.0591 -0.7602  1.5997
  457MOL0     O62929  11.370   2.748   4.912 -0.5158 -0.5771  0.2484
  457MOL0     C62930  11.381   2.734   5.033  0.2337 -0.9370 -0.8594
  457MOL0     O62931  11.274   2.717   5.113 -0.6819  0.5911 -0.2637
  457MOL0     C62932  11.162   2.665   5.060 -0.0873 -0.5688  0.4158
  457MOL0     C62933  11.044   2.749   5.055 -0.0601  0.0841  0.1910
  457MOL0     C62934  10.926   2.678   5.020  0.9437 -0.2934 -1.4499
  457MOL0     C62935  10.924   2.539   4.999  0.2552  0.7065  0.7461
  457MOL0     O62936  10.824   2.454   4.968 -0.5086  0.3806  0.0111
  457MOL0     C62937  10.742   2.492   4.862  1.2470 -0.1220  0.3219
  457MOL0     C62938  10.779   2.398   4.742  1.1334  0.5435  1.2332
  457MOL0     C62939  10.688   2.432   4.626  1.2007 -0.2283  1.6361
  457MOL0     C62940  10.734   2.392   4.479  0.2048 -1.1180  0.0508
  457MOL0     C62941  10.606   2.386   4.390  0.0256 -0.4779 -0.1564
  457MOL0     C62942  10.648   2.361   4.243 -0.4749  0.0307  0.6198
  457MOL0     C62943  10.543   2.400   4.133  0.6947  0.6815  0.9572
  457MOL0     C62944  10.613   2.398   3.991 -0.2417  0.1805 -0.7841
  457MOL0     N62945  10.663   2.267   3.951  0.4355 -0.2873 -0.0754
  457MOL0     C62946  10.771   2.251   3.872 -0.8924 -0.1398  1.0866
  457MOL0     C62947  10.786   2.117   3.859  0.7222 -0.0742 -0.1154
  457MOL0     C62948  10.867   2.069   3.742 -0.6724 -0.2382  0.0054
  457MOL0     C62949  10.955   1.953   3.787  0.3966  1.1403  0.1890
  457MOL0     C62950  11.050   1.905   3.684  0.4363 -0.3341  1.3262
  457MOL0     C62951  11.144   1.796   3.748 -0.2316  0.2773  0.1416
  457MOL0     O62952  11.222   1.735   3.648 -0.1670  0.3725 -0.0013
  457MOL0     C62953  11.318   1.653   3.696  0.0947  0.0381  0.3675
  457MOL0     C62954  11.444   1.693   3.664 -0.5617 -0.5007 -0.1568
  457MOL0     C62955  11.557   1.622   3.702 -0.7426 -0.2813  0.1238
  457MOL0     C62956  11.682   1.687   3.649 -0.2559 -0.1301  0.1797
  457MOL0     C62957  11.543   1.510   3.792  0.7335  1.0194 -0.1908
  457MOL0     C62958  11.652   1.435   3.849  0.2030  0.2078  0.3472
  457MOL0     O62959  11.776   1.496   3.849 -0.3507  0.6872  1.3234
  457MOL0     C62960  11.877   1.433   3.913  0.6306  0.7879 -0.2403
  457MOL0     C62961  11.867   1.407   4.049  0.5576 -0.2118  0.0019
  457MOL0     C62962  11.976   1.346   4.116  0.2747  0.2910 -0.7620
  457MOL0     C62963  12.087   1.299   4.049 -0.7639 -0.1577  0.4150
  457MOL0     O62964  12.191   1.241   4.114 -0.7608  0.6540 -1.0828
  457MOL0     C62965  12.186   1.237   4.255  0.0934  0.0149 -0.6687
  457MOL0     C62966  12.326   1.183   4.301 -0.0326  0.2027  0.7783
  457MOL0     C62967  12.429   1.293   4.303 -0.5584  0.3034  0.7218
  457MOL0     C62968  12.556   1.245   4.388 -0.0500 -0.8982 -0.8559
  457MOL0     C62969  12.658   1.362   4.394 -0.0232 -0.2507 -0.5129
  457MOL0     C62970  12.782   1.334   4.486  0.1562 -0.1521  0.0445
  457MOL0     C62971  12.866   1.459   4.488  0.4243  0.4228 -0.4287
  457MOL0     C62972  13.007   1.436   4.547 -0.0657 -0.1818  0.3488
  457MOL0    Cl62973  13.001   1.329   4.698  0.5863  0.0984  0.2535
  457MOL0     C62974  12.094   1.316   3.917  1.5096  0.4302  1.3797
  457MOL0     C62975  11.994   1.377   3.845  0.4460 -0.6623 -1.3177
  457MOL0     O62976  11.624   1.331   3.912 -0.0654  0.8651 -0.2255
  457MOL0     C62977  11.412   1.470   3.816  0.4102 -0.6228  0.2583
  457MOL0     C62978  11.301   1.538   3.759 -0.5447  1.2713 -0.8630
  457MOL0     N62979  10.683   2.053   3.932 -0.3999  0.2674  0.1873
  457MOL0     N62980  10.608   2.146   3.980 -0.6619 -0.1398  0.0933
  457MOL0     C62981  11.049   2.466   4.996  1.1324 -0.6481 -0.3807
  457MOL0     C62982  11.160   2.528   5.036  0.7648 -1.0140 -0.2928
  457MOL0     C62983  11.517   2.751   5.107  0.8713  0.2587  0.1035
  457MOL0     C62984  11.545   2.680   5.224 -0.5482  0.8748 -0.0920
  457MOL0     C62985  11.668   2.694   5.293  1.3685 -0.1380  0.0677
  457MOL0     C62986  11.757   2.793   5.240  1.1934  0.1320  0.1198
  457MOL0     O62987  11.894   2.809   5.270  0.0565  0.6098 -0.2087
  457MOL0     C62988  11.979   2.695   5.303  0.0027 -0.6682 -0.9866
  457MOL0     C62989  12.035   2.629   5.174  1.0710  1.0302 -0.4954
  457MOL0     C62990  12.146   2.720   5.114  0.5470 -0.1167 -0.5123
  457MOL0     C62991  12.146   2.706   4.966 -0.2377 -0.1866 -0.6050
  457MOL0     C62992  12.256   2.792   4.914 -0.2885  0.5132 -0.1576
  457MOL0     C62993  12.348   2.869   4.882 -0.4595 -0.1258  1.0205
  457MOL0     C62994  11.724   2.865   5.120 -0.3181  1.0808 -1.1634
  457MOL0     C62995  11.612   2.840   5.050  0.8935  0.4729  0.3186
  457MOL0     C62996  11.592   2.915   4.922  0.2452 -0.1913 -0.9280
  457MOL0     H62997  11.043   2.852   5.088  1.9453  0.3035 -0.3635
  457MOL0     H62998  10.832   2.733   5.029  1.6413  0.8854 -1.2541
  457MOL0     H62999  10.747   2.596   4.830 -2.2056  0.5155  1.4088
  457MOL0     H63000  10.641   2.478   4.902  0.8063  0.2843 -0.6244
  457MOL0     H63001  10.881   2.417   4.709 -0.0758  1.1716 -2.6719
  457MOL0     H63002  10.764   2.291   4.759 -1.9814  1.0929  2.6911
  457MOL0     H63003  10.592   2.383   4.643 -0.8547  0.5299 -4.8037
  457MOL0     H63004  10.669   2.539   4.636 -0.1826 -0.4608  1.7930
  457MOL0     H63005  10.793   2.474   4.437  3.5192 -3.0088  0.6700
  457MOL0     H63006  10.791   2.300   4.471  2.0830 -0.0687  0.7996
  457MOL0     H63007  10.547   2.478   4.393  0.4695 -0.2164  1.5490
  457MOL0     H63008  10.531   2.318   4.430 -2.5347  2.6763  0.8685
  457MOL0     H63009  10.731   2.430   4.224 -1.4287  0.2927 -3.6429
  457MOL0     H63010  10.677   2.256   4.230 -2.5166 -0.4599 -0.3862
  457MOL0     H63011  10.500   2.498   4.158 -0.6371  0.7497 -1.3032
  457MOL0     H63012  10.459   2.330   4.128  1.2239  0.0551  0.7326
  457MOL0     H63013  10.547   2.447   3.919 -3.3875 -1.1680  0.9720
  457MOL0     H63014  10.699   2.466   4.001  1.3727 -1.7557 -0.9427
  457MOL0     H63015  10.818   2.331   3.815 -1.3818  0.3692  1.3932
  457MOL0     H63016  10.928   2.156   3.715 -0.4469  0.6137  2.9346
  457MOL0     H63017  10.804   2.046   3.655 -1.1901 -1.0382  0.5837
  457MOL0     H63018  11.002   1.965   3.885  0.5277 -2.9367  0.8176
  457MOL0     H63019  10.890   1.867   3.809 -3.4670  2.6741 -3.8071
  457MOL0     H63020  10.994   1.859   3.601 -0.4160  2.3903  0.2671
  457MOL0     H63021  11.119   1.983   3.651 -3.4994  3.4892  1.0569
  457MOL0     H63022  11.202   1.841   3.829 -1.4045  2.7529 -0.3256
  457MOL0     H63023  11.082   1.710   3.774 -1.1555  0.4171 -1.4906
  457MOL0     H63024  11.448   1.791   3.616 -0.2310  0.3280  1.4791
  457MOL0     H63025  11.761   1.705   3.723 -0.6687 -0.0179  0.5966
  457MOL0     H63026  11.666   1.784   3.602 -0.6294 -0.2673  0.0267
  457MOL0     H63027  11.721   1.613   3.578 -0.9403  3.2213 -4.0471
  457MOL0     H63028  11.782   1.439   4.108  0.5045  3.5596 -1.8107
  457MOL0     H63029  11.967   1.352   4.224 -0.5489  1.3242 -0.8714
  457MOL0     H63030  12.164   1.334   4.301  1.9595  0.3598 -0.4063
  457MOL0     H63031  12.115   1.165   4.295  1.2415  0.4670  2.4715
  457MOL0     H63032  12.295   1.138   4.396 -2.2344 -1.6206 -0.6645
  457MOL0     H63033  12.353   1.098   4.238 -2.8786 -0.0585 -0.2580
  457MOL0     H63034  12.377   1.374   4.356 -1.6417  1.3024 -1.6909
  457MOL0     H63035  12.459   1.325   4.203 -1.0228  0.5738  0.6627
  457MOL0     H63036  12.595   1.158   4.335 -0.3209 -0.3195 -2.0284
  457MOL0     H63037  12.533   1.223   4.493  0.1437 -1.8988 -1.0118
  457MOL0     H63038  12.702   1.374   4.295  2.9779 -2.2224  0.4206
  457MOL0     H63039  12.604   1.449   4.430  0.0051 -0.3982 -0.1028
  457MOL0     H63040  12.833   1.246   4.446  0.1172  0.5993 -1.7344
  457MOL0     H63041  12.745   1.304   4.585  0.6543 -1.3573 -0.1147
  457MOL0     H63042  12.804   1.530   4.543  0.9897 -2.1002  3.9201
  457MOL0     H63043  12.886   1.493   4.386 -1.8264  2.2208 -0.3514
  457MOL0     H63044  13.053   1.530   4.576 -2.6084  1.6990 -1.3049
  457MOL0     H63045  13.072   1.402   4.467  1.5695  0.6070  1.2933
  457MOL0     H63046  12.177   1.282   3.856 -0.3782 -2.2726  0.1234
  457MOL0     H63047  12.000   1.386   3.737  1.1804  5.3328 -1.1286
  457MOL0     H63048  11.386   1.384   3.876 -0.8701  0.8325  1.8898
  457MOL0     H63049  11.206   1.492   3.783  0.0338  1.3708  1.9690
  457MOL0     H63050  11.046   2.360   4.975  1.0484 -0.3169 -2.2229
  457MOL0     H63051  11.255   2.476   5.043  0.9749 -0.4258  1.8946
  457MOL0     H63052  11.470   2.611   5.261 -1.4137  3.3293  3.2112
  457MOL0     H63053  11.693   2.640   5.384 -0.6003  1.0464  1.4023
  457MOL0     H63054  12.054   2.723   5.378 -0.7767  0.4121 -0.5911
  457MOL0     H63055  11.925   2.622   5.364  0.6249  0.4157  0.9383
  457MOL0     H63056  11.961   2.607   5.097  2.1625  3.4735 -2.3706
  457MOL0     H63057  12.078   2.533   5.205 -1.9177 -1.0474 -2.2557
  457MOL0     H63058  12.122   2.824   5.135 -1.0678 -0.9536  2.2922
  457MOL0     H63059  12.242   2.683   5.153  0.3980 -0.8066 -0.7785
  457MOL0     H63060  12.057   2.751   4.921 -1.4591 -0.2466  1.6015
  457MOL0     H63061  12.158   2.600   4.941 -1.4920 -0.0639 -1.8703
  457MOL0     H63062  12.425   2.936   4.851 -0.0652 -0.7263  0.6926
  457MOL0     H63063  11.805   2.926   5.081 -0.9068  2.5424 -0.1539
  457MOL0     H63064  11.579   2.846   4.838 -3.4226 -0.1708 -0.5122
  457MOL0     H63065  11.499   2.968   4.942  0.7434 -0.4015  2.7231
  457MOL0     H63066  11.648   3.007   4.903 -2.1513  1.9953  1.7102
  458MOL0     O63067   1.905   8.833   9.079 -1.1921  0.0961  0.3157
  458MOL0     C63068   2.007   8.764   9.099 -0.5209  0.5883 -0.0715
  458MOL0     O63069   2.099   8.776   9.204  0.6179  0.1511  0.8813
  458MOL0     C63070   2.084   8.868   9.304 -0.5980 -0.2303 -0.0331
  458MOL0     C63071   2.139   8.824   9.425  0.6433 -0.0110  0.5006
  458MOL0     C63072   2.138   8.907   9.534  0.0516  0.8603  0.2703
  458MOL0     C63073   2.093   9.036   9.523 -0.4258 -0.6244  0.0552
  458MOL0     O63074   2.112   9.106   9.643  0.1494  0.0018  1.1233
  458MOL0     C63075   2.150   9.241   9.656  0.4037  0.5290  0.1616
  458MOL0     C63076   2.297   9.260   9.619 -0.1830  0.5489  0.0896
  458MOL0     C63077   2.384   9.145   9.691 -1.4609 -0.3336 -0.5681
  458MOL0     C63078   2.333   9.134   9.842 -0.4729 -0.1272  0.4087
  458MOL0     C63079   2.436   9.060   9.938 -0.0147 -0.4271  0.3442
  458MOL0     C63080   2.494   9.161  10.039  0.6643 -0.4527 -0.6800
  458MOL0     C63081   2.579   9.267   9.984 -0.0965  0.1334 -0.0855
  458MOL0     C63082   2.651   9.350  10.091 -0.3300 -0.3249 -0.2331
  458MOL0     N63083   2.724   9.274  10.189 -0.1958  0.5974  0.3522
  458MOL0     C63084   2.697   9.258  10.322 -0.0108  0.1439 -1.1179
  458MOL0     C63085   2.782   9.158  10.358  0.6432  0.1717 -0.1325
  458MOL0     C63086   2.812   9.117  10.497 -0.9879  1.0568  0.5202
  458MOL0     C63087   2.708   9.030  10.564  0.2526 -0.3878  0.3892
  458MOL0     C63088   2.764   8.960  10.684  0.1507  0.6703 -0.4776
  458MOL0     C63089   2.668   8.852  10.751  0.3493  0.1845 -1.0349
  458MOL0     O63090   2.687   8.732  10.689  0.0787  0.0523 -0.1568
  458MOL0     C63091   2.609   8.625  10.711  0.0246  0.5340 -0.2136
  458MOL0     C63092   2.483   8.622  10.776  0.0030 -0.0225 -0.3441
  458MOL0     C63093   2.420   8.500  10.801 -0.1093  0.0758  0.9246
  458MOL0     C63094   2.282   8.506  10.854 -0.4242 -0.4761  0.8583
  458MOL0     C63095   2.482   8.377  10.767 -0.8246 -1.3173 -0.2730
  458MOL0     C63096   2.426   8.251  10.792  0.3447  0.6179  0.5590
  458MOL0     O63097   2.414   8.175  10.688  0.9850  0.0484  0.1577
  458MOL0     C63098   2.437   8.041  10.701  0.5401  0.1067 -0.5036
  458MOL0     C63099   2.371   7.940  10.625  0.7254  0.0408  0.6612
  458MOL0     C63100   2.400   7.805  10.637  0.3878 -1.4649  0.2011
  458MOL0     C63101   2.473   7.757  10.744 -0.6837  0.3131 -0.4162
  458MOL0     O63102   2.491   7.621  10.746  0.4660  0.1962  0.3108
  458MOL0     C63103   2.542   7.558  10.868  0.1571 -0.9963  0.4465
  458MOL0     C63104   2.691   7.547  10.856  0.0726  0.7670  0.2389
  458MOL0     C63105   2.763   7.489  10.981 -0.0133 -0.0889 -0.7546
  458MOL0     C63106   2.900   7.434  10.956  0.7455  1.4186  0.5761
  458MOL0     C63107   2.965   7.398  11.090  0.2514  0.2207 -0.2216
  458MOL0     C63108   3.073   7.300  11.080  1.0022 -0.3358 -0.1969
  458MOL0     C63109   3.194   7.360  11.008  0.3573 -0.3130 -1.3745
  458MOL0     C63110   3.310   7.257  11.024  0.1462  0.2698 -0.3219
  458MOL0    Cl63111   3.453   7.319  10.940  0.0815  0.1414 -0.5186
  458MOL0     C63112   2.535   7.852  10.835  0.3711  0.0069  0.0901
  458MOL0     C63113   2.519   7.988  10.811  0.1182 -0.3696 -0.1495
  458MOL0     O63114   2.380   8.234  10.901  0.1111  0.4607  0.2258
  458MOL0     C63115   2.614   8.380  10.701 -0.0602 -0.9228  0.6422
  458MOL0     C63116   2.671   8.503  10.674  0.5296  0.9695  0.5574
  458MOL0     N63117   2.857   9.127  10.249  0.4193 -0.1815 -0.5137
  458MOL0     N63118   2.818   9.180  10.148  0.8472 -0.4118  0.2699
  458MOL0     C63119   2.031   9.083   9.403 -1.0942 -0.0758 -0.0453
  458MOL0     C63120   2.032   8.996   9.292  0.0663 -0.5686  0.5721
  458MOL0     C63121   2.038   8.653   8.998  0.3025 -0.0863  0.0171
  458MOL0     C63122   2.140   8.565   9.017 -0.4008 -0.8261 -1.0046
  458MOL0     C63123   2.202   8.472   8.924 -0.0557 -0.1842 -0.6455
  458MOL0     C63124   2.153   8.477   8.794 -0.1527 -0.5031 -0.3604
  458MOL0     O63125   2.192   8.405   8.684 -0.5800 -0.2098  0.3719
  458MOL0     C63126   2.291   8.297   8.707  0.3753  0.4458  0.6610
  458MOL0     C63127   2.246   8.188   8.615 -0.8019 -0.7927 -0.0998
  458MOL0     C63128   2.110   8.132   8.636 -0.3911 -0.1797  0.1442
  458MOL0     C63129   2.079   8.030   8.514  0.2543  1.0373  0.0858
  458MOL0     C63130   2.153   7.913   8.537  0.2005 -0.7061 -0.6234
  458MOL0     C63131   2.228   7.821   8.557 -0.0236  0.5969  0.0553
  458MOL0     C63132   2.055   8.572   8.772  1.0693  0.9163 -0.2220
  458MOL0     C63133   1.991   8.657   8.867  0.3208 -0.4178  0.5709
  458MOL0     C63134   1.864   8.732   8.824  0.4721  0.1100 -0.4014
  458MOL0     H63135   2.184   8.726   9.434  1.5829  0.4245  0.7671
  458MOL0     H63136   2.206   8.879   9.614  1.7124  2.8119 -0.3537
  458MOL0     H63137   2.128   9.284   9.754  1.2923 -2.7905  1.9965
  458MOL0     H63138   2.095   9.300   9.583  2.0161  0.7259 -0.9639
  458MOL0     H63139   2.306   9.261   9.510  0.9953  0.8858  0.1756
  458MOL0     H63140   2.334   9.356   9.656 -0.6022 -0.6007  3.8885
  458MOL0     H63141   2.391   9.050   9.637 -0.4052 -0.8358  0.3904
  458MOL0     H63142   2.488   9.179   9.687 -1.4065  0.3156  3.0998
  458MOL0     H63143   2.296   9.226   9.886 -5.3033 -1.4615 -0.3463
  458MOL0     H63144   2.242   9.073   9.838 -0.0957 -0.6967  0.3489
  458MOL0     H63145   2.518   9.013   9.882  2.1889  1.1016  2.1188
  458MOL0     H63146   2.380   8.980   9.987  0.6290 -1.6955 -0.9149
  458MOL0     H63147   2.409   9.209  10.089  0.2301 -1.2463 -0.6496
  458MOL0     H63148   2.543   9.098  10.114  1.4612 -0.9176 -1.5705
  458MOL0     H63149   2.514   9.332   9.924  1.7766  0.0795 -2.3556
  458MOL0     H63150   2.660   9.212   9.934  2.5043  0.0257  3.8113
  458MOL0     H63151   2.711   9.425  10.040 -2.7652  1.2645 -0.9589
  458MOL0     H63152   2.576   9.412  10.142 -1.6220 -1.0510 -1.1818
  458MOL0     H63153   2.626   9.305  10.389  2.2095 -0.2499  1.7175
  458MOL0     H63154   2.825   9.205  10.562 -1.4228 -0.4584  2.7812
  458MOL0     H63155   2.912   9.074  10.506 -0.5044  1.6021 -1.6709
  458MOL0     H63156   2.624   9.094  10.593  1.1562 -0.2372  2.8777
  458MOL0     H63157   2.673   8.966  10.482 -2.1160  0.9347  0.2732
  458MOL0     H63158   2.858   8.911  10.657 -0.7137 -0.4603 -1.5547
  458MOL0     H63159   2.799   9.032  10.759  1.5019 -0.1580 -0.2889
  458MOL0     H63160   2.685   8.837  10.858  2.2461 -0.8982 -1.4525
  458MOL0     H63161   2.562   8.882  10.752  0.2669  0.6090  4.0732
  458MOL0     H63162   2.435   8.716  10.798  1.8568  1.0522 -0.6360
  458MOL0     H63163   2.242   8.599  10.896 -3.6728 -0.4749 -1.8117
  458MOL0     H63164   2.282   8.446  10.945  0.2238  1.9607  2.5789
  458MOL0     H63165   2.219   8.476  10.770  1.8440  1.7207 -1.8578
  458MOL0     H63166   2.294   7.962  10.552 -1.8083  0.2492  3.2350
  458MOL0     H63167   2.351   7.733  10.572 -2.5161 -0.2712  0.8795
  458MOL0     H63168   2.521   7.618  10.956 -0.0795  3.7736 -2.5100
  458MOL0     H63169   2.508   7.455  10.879  2.1881 -2.2216 -3.0389
  458MOL0     H63170   2.723   7.494  10.766  3.4788  0.3521  1.5536
  458MOL0     H63171   2.732   7.648  10.851 -1.7256  1.5944  1.0373
  458MOL0     H63172   2.696   7.419  11.031 -2.0546  1.6696 -0.8730
  458MOL0     H63173   2.785   7.576  11.043  0.2757 -1.3315  0.9299
  458MOL0     H63174   2.954   7.520  10.915  2.1117  1.3540  2.1015
  458MOL0     H63175   2.898   7.345  10.892  2.0849  0.4563  1.7811
  458MOL0     H63176   3.006   7.483  11.146  1.8036 -1.3998  1.1971
  458MOL0     H63177   2.887   7.350  11.150 -0.3016  1.2332 -0.1082
  458MOL0     H63178   3.041   7.207  11.033  3.7657 -1.4308 -0.1031
  458MOL0     H63179   3.103   7.260  11.178  3.3957 -1.1766 -1.2025
  458MOL0     H63180   3.219   7.460  11.044  0.3823 -1.6214  2.7826
  458MOL0     H63181   3.162   7.380  10.905 -2.6466  0.2255 -0.4343
  458MOL0     H63182   3.270   7.170  10.971 -1.2876  0.0711  0.9960
  458MOL0     H63183   3.328   7.229  11.128  0.3566  1.1735 -0.1106
  458MOL0     H63184   2.584   7.808  10.921 -2.6885  2.2924  3.2466
  458MOL0     H63185   2.569   8.044  10.889  0.6174 -0.5214 -0.3579
  458MOL0     H63186   2.665   8.287  10.677  1.1061 -0.1530  0.1107
  458MOL0     H63187   2.758   8.517  10.611 -0.0518 -3.0201 -1.4423
  458MOL0     H63188   1.998   9.186   9.392 -0.1341  0.2503  0.0101
  458MOL0     H63189   1.996   9.025   9.194  2.1152  0.3842  0.0433
  458MOL0     H63190   2.193   8.563   9.112 -2.4222 -2.2645  0.1670
  458MOL0     H63191   2.288   8.424   8.970  0.7628  4.5573  3.6606
  458MOL0     H63192   2.386   8.329   8.663  1.0613 -1.3548  0.7690
  458MOL0     H63193   2.314   8.269   8.810 -2.8245  0.0758  1.3912
  458MOL0     H63194   2.327   8.115   8.622  0.9828  1.1208  0.2172
  458MOL0     H63195   2.257   8.221   8.512  2.8784 -0.3916  0.2668
  458MOL0     H63196   2.095   8.092   8.737  0.1980  6.0316  3.1753
  458MOL0     H63197   2.038   8.213   8.618  1.6271  1.3331 -1.6476
  458MOL0     H63198   2.110   8.076   8.419 -0.3752 -1.1845 -1.2791
  458MOL0     H63199   1.973   8.003   8.513 -0.1368  2.4526  0.7619
  458MOL0     H63200   2.306   7.748   8.571  0.8349  1.3090 -0.8674
  458MOL0     H63201   2.025   8.582   8.668 -0.3308  5.2808  0.4014
  458MOL0     H63202   1.778   8.677   8.863 -0.2771  0.1732 -1.9029
  458MOL0     H63203   1.863   8.837   8.855 -1.1582  0.9091 -2.8978
  458MOL0     H63204   1.861   8.734   8.715  3.3008  2.8457 -0.5794
  459MOL0     O63205   8.661   8.795   6.335  0.6827  0.4852  0.1676
  459MOL0     C63206   8.781   8.817   6.357 -0.2538 -0.2070 -0.3292
  459MOL0     O63207   8.857   8.758   6.463 -0.2860  0.0604  0.4370
  459MOL0     C63208   8.824   8.638   6.524 -0.0915  1.0333  0.5205
  459MOL0     C63209   8.858   8.628   6.653 -0.1970 -0.2124 -0.0779
  459MOL0     C63210   8.818   8.516   6.730  0.1828 -0.2183  0.3633
  459MOL0     C63211   8.742   8.409   6.685 -0.2601  0.2811  1.1517
  459MOL0     O63212   8.708   8.297   6.754 -0.2578 -0.0264 -0.6818
  459MOL0     C63213   8.782   8.267   6.872  0.4151 -0.4218 -0.4004
  459MOL0     C63214   8.767   8.123   6.922  1.3173  0.7908 -1.0894
  459MOL0     C63215   8.859   8.022   6.863 -0.1683  0.6147 -0.5474
  459MOL0     C63216   8.849   7.875   6.924  0.3240 -0.0887  0.2164
  459MOL0     C63217   8.973   7.792   6.951 -0.0081 -1.1375 -0.6556
  459MOL0     C63218   9.046   7.729   6.835  0.0995  0.4344  0.4187
  459MOL0     C63219   9.165   7.650   6.868  0.1346 -0.3318  0.7955
  459MOL0     C63220   9.230   7.599   6.736 -0.4941 -0.2476  0.3128
  459MOL0     N63221   9.302   7.700   6.651 -1.1403 -1.3951 -0.7528
  459MOL0     C63222   9.303   7.715   6.516 -0.1963  0.9832  0.2449
  459MOL0     C63223   9.379   7.817   6.491 -0.4965 -0.1499 -0.5191
  459MOL0     C63224   9.425   7.877   6.361  0.6791  0.3684  1.0765
  459MOL0     C63225   9.585   7.874   6.350  0.6571  0.4825  0.2466
  459MOL0     C63226   9.660   7.991   6.420 -0.5082 -0.5456 -0.0806
  459MOL0     C63227   9.627   8.132   6.362  0.1507  0.5218  0.7572
  459MOL0     O63228   9.754   8.199   6.335  0.0096  0.0278 -0.5206
  459MOL0     C63229   9.749   8.286   6.226 -0.3029  0.6325 -0.0436
  459MOL0     C63230   9.866   8.298   6.151 -0.5849  0.2949  0.6453
  459MOL0     C63231   9.871   8.390   6.040 -0.2137  0.9218 -0.3634
  459MOL0     C63232  10.000   8.396   5.959 -0.3693  0.5862 -0.3382
  459MOL0     C63233   9.751   8.477   6.016 -0.7524  1.1963 -0.0574
  459MOL0     C63234   9.739   8.593   5.931  0.4385  0.7890 -0.0817
  459MOL0     O63235   9.692   8.706   5.991 -0.1867  1.0668  0.3399
  459MOL0     C63236   9.681   8.830   5.927  0.5645 -0.0494 -0.0217
  459MOL0     C63237   9.681   8.858   5.781 -0.4630  0.0127 -0.3095
  459MOL0     C63238   9.663   8.989   5.733  0.3768 -0.5580  0.6281
  459MOL0     C63239   9.633   9.101   5.824  0.1756  0.0919  0.1588
  459MOL0     O63240   9.595   9.227   5.782  0.8905 -0.6293  0.3659
  459MOL0     C63241   9.548   9.250   5.646 -0.2251  0.4732 -0.0850
  459MOL0     C63242   9.486   9.388   5.651  0.8847 -0.6443  0.7924
  459MOL0     C63243   9.602   9.481   5.671 -0.1162 -0.1486  0.5432
  459MOL0     C63244   9.565   9.628   5.671  0.0047 -0.5319  0.4782
  459MOL0     C63245   9.669   9.727   5.631  0.2461  0.4610  0.1014
  459MOL0     C63246   9.617   9.871   5.631  0.8025  0.1250  0.5662
  459MOL0     C63247   9.720   9.978   5.592 -0.2369  0.3589 -0.3623
  459MOL0     C63248   9.668  10.122   5.613  0.1890  0.8345 -0.0471
  459MOL0    Cl63249   9.663  10.176   5.779  0.0859  0.0202  0.2393
  459MOL0     C63250   9.623   9.076   5.957 -0.4401  0.4863 -0.7697
  459MOL0     C63251   9.647   8.946   6.007  0.5222 -0.2454 -0.1735
  459MOL0     O63252   9.787   8.582   5.817 -0.9104 -0.8147 -0.0812
  459MOL0     C63253   9.639   8.466   6.106 -1.0865 -0.3415 -0.9405
  459MOL0     C63254   9.639   8.367   6.204 -0.3930  0.2527  0.5403
  459MOL0     N63255   9.418   7.868   6.617  0.4304  0.2748  0.3545
  459MOL0     N63256   9.375   7.798   6.710 -0.3495  0.5551 -0.4552
  459MOL0     C63257   8.716   8.418   6.546 -0.5723 -0.8737 -0.3171
  459MOL0     C63258   8.756   8.525   6.467  0.2964 -0.2561 -0.4932
  459MOL0     C63259   8.851   8.902   6.265 -0.3824  0.3933 -0.1343
  459MOL0     C63260   8.999   8.892   6.264  0.2622  0.1180  0.1453
  459MOL0     C63261   9.062   8.948   6.158  0.5884 -0.0338  0.3873
  459MOL0     C63262   9.007   9.019   6.055  1.1714  0.0574 -0.4958
  459MOL0     O63263   9.071   9.070   5.943 -0.2784  1.0245 -0.0975
  459MOL0     C63264   9.216   9.064   5.943  0.3252 -0.4666  0.2833
  459MOL0     C63265   9.262   8.924   5.901  0.9266 -0.4319 -0.0247
  459MOL0     C63266   9.229   8.912   5.749  1.3963  0.0241 -0.6212
  459MOL0     C63267   9.233   8.770   5.691  0.2976  0.0017 -0.0766
  459MOL0     C63268   9.368   8.707   5.690 -0.1790 -0.6812  0.1268
  459MOL0     C63269   9.466   8.637   5.683  0.2288 -1.2963  0.0246
  459MOL0     C63270   8.872   9.056   6.077  0.1309  0.4315 -0.8849
  459MOL0     C63271   8.792   8.993   6.178  0.1706 -0.1126  0.4938
  459MOL0     C63272   8.643   9.032   6.172  0.2934  0.3838 -0.1367
  459MOL0     H63273   8.905   8.717   6.695 -1.9189  0.6010  0.1881
  459MOL0     H63274   8.843   8.511   6.835 -0.6849  0.4314  0.6129
  459MOL0     H63275   8.741   8.333   6.948  1.8821  1.6037 -1.2757
  459MOL0     H63276   8.887   8.297   6.875  0.6365 -1.0769  4.0034
  459MOL0     H63277   8.787   8.117   7.030  1.9817  0.3549 -1.2312
  459MOL0     H63278   8.661   8.103   6.906  0.5906  2.6696  0.9827
  459MOL0     H63279   8.861   8.027   6.753 -1.9045 -2.6716 -0.8697
  459MOL0     H63280   8.954   8.066   6.890 -1.7115  2.2064  2.8078
  459MOL0     H63281   8.800   7.894   7.020  0.3267  0.2328  0.1547
  459MOL0     H63282   8.787   7.814   6.857  2.6865 -2.1918 -0.2001
  459MOL0     H63283   8.946   7.713   7.022 -2.0457  0.4269  0.4290
  459MOL0     H63284   9.050   7.851   7.002 -0.7271  0.2687 -1.1612
  459MOL0     H63285   8.985   7.656   6.782  1.1699  0.1108 -0.4248
  459MOL0     H63286   9.059   7.809   6.762 -5.1770  0.8177 -0.4561
  459MOL0     H63287   9.140   7.566   6.933 -0.0093 -1.2189 -0.3874
  459MOL0     H63288   9.242   7.707   6.920 -0.4080 -0.0014  1.2543
  459MOL0     H63289   9.301   7.524   6.771 -1.4764 -0.9384  0.8830
  459MOL0     H63290   9.154   7.542   6.681 -3.2075  0.0286  3.5002
  459MOL0     H63291   9.258   7.653   6.439 -0.8277 -1.4299  2.3959
  459MOL0     H63292   9.391   7.980   6.348  0.0712  0.4727  3.0605
  459MOL0     H63293   9.383   7.817   6.280  0.5832 -0.2903  1.6000
  459MOL0     H63294   9.616   7.775   6.383 -1.0412 -0.7366 -1.5999
  459MOL0     H63295   9.607   7.872   6.242 -3.3348 -5.3939 -0.8752
  459MOL0     H63296   9.627   7.991   6.524  1.0796  2.4441  0.5509
  459MOL0     H63297   9.769   7.986   6.416 -0.3212  1.9108  0.2344
  459MOL0     H63298   9.571   8.131   6.269  0.6080  2.6634  0.4119
  459MOL0     H63299   9.566   8.186   6.436  2.1155  1.4900  1.7476
  459MOL0     H63300   9.950   8.242   6.191 -0.4372 -1.5812 -1.9767
  459MOL0     H63301  10.083   8.353   6.016  0.6966  1.2751 -1.3138
  459MOL0     H63302  10.019   8.502   5.938 -1.5733  0.1931 -4.1935
  459MOL0     H63303  10.000   8.360   5.856 -5.0569  0.4093 -0.4954
  459MOL0     H63304   9.700   8.780   5.708  2.2239  0.6104 -0.3575
  459MOL0     H63305   9.675   9.005   5.626 -2.3718  1.4638  0.5135
  459MOL0     H63306   9.624   9.257   5.568 -0.9206  0.9537 -0.7368
  459MOL0     H63307   9.484   9.168   5.613 -0.3981 -0.1470  1.6836
  459MOL0     H63308   9.437   9.414   5.557  0.7202  1.0862  1.3148
  459MOL0     H63309   9.417   9.396   5.735  0.0151 -0.1968  0.0483
  459MOL0     H63310   9.670   9.456   5.589 -1.4851 -1.5092 -0.2250
  459MOL0     H63311   9.653   9.444   5.761 -0.2427 -1.5728  0.0598
  459MOL0     H63312   9.537   9.641   5.776  0.5175 -2.3844  0.8677
  459MOL0     H63313   9.475   9.646   5.612 -0.5428 -0.2716  1.3670
  459MOL0     H63314   9.760   9.723   5.691 -1.5702  0.1495  3.0287
  459MOL0     H63315   9.703   9.708   5.529  2.6683 -1.3595  1.1614
  459MOL0     H63316   9.572   9.892   5.728 -0.5247 -0.2572  0.0571
  459MOL0     H63317   9.528   9.879   5.566  0.5433  1.9638  1.0759
  459MOL0     H63318   9.752   9.954   5.490 -0.5113  0.7496 -0.5442
  459MOL0     H63319   9.809   9.962   5.653 -1.0091  1.4441  1.1070
  459MOL0     H63320   9.579  10.135   5.551  0.8836 -2.6076 -1.9938
  459MOL0     H63321   9.750  10.187   5.580 -1.0100  1.4196 -2.0405
  459MOL0     H63322   9.599   9.160   6.021  1.5344  0.9834 -0.6295
  459MOL0     H63323   9.647   8.924   6.114  0.0493  2.3761  0.4184
  459MOL0     H63324   9.559   8.538   6.111 -0.7804 -0.0946  2.4401
  459MOL0     H63325   9.551   8.343   6.263  0.2967 -4.7222 -0.0206
  459MOL0     H63326   8.662   8.332   6.506  2.3399 -1.5169 -3.3173
  459MOL0     H63327   8.730   8.516   6.362 -1.0492  1.6273 -0.3762
  459MOL0     H63328   9.044   8.813   6.322  0.7945 -0.3130 -0.8263
  459MOL0     H63329   9.167   8.921   6.156  0.3541 -1.1742  1.4067
  459MOL0     H63330   9.245   9.141   5.871  3.1259 -3.3007 -1.9219
  459MOL0     H63331   9.244   9.100   6.043 -3.1786 -0.1485  1.3167
  459MOL0     H63332   9.207   8.854   5.965 -2.4628  2.7656  0.8923
  459MOL0     H63333   9.371   8.918   5.914  1.0185  0.3641 -0.4062
  459MOL0     H63334   9.133   8.956   5.719  1.7706  2.7012  1.6326
  459MOL0     H63335   9.295   8.975   5.688  1.7287 -2.0042 -2.4330
  459MOL0     H63336   9.199   8.774   5.588  1.9302 -0.7385 -0.6902
  459MOL0     H63337   9.160   8.712   5.747  1.6859 -1.3873  0.3692
  459MOL0     H63338   9.555   8.580   5.671  1.5961  1.0171 -1.7634
  459MOL0     H63339   8.835   9.123   6.000  2.6184  3.3064  0.2264
  459MOL0     H63340   8.600   8.961   6.102 -1.6085 -0.3608  1.6833
  459MOL0     H63341   8.592   9.044   6.268  4.3096 -0.4885  2.3930
  459MOL0     H63342   8.645   9.129   6.122 -0.2789 -1.0819 -3.1956
  460MOL0     O63343   7.156  10.897   5.117  0.2012  0.5543  0.0361
  460MOL0     C63344   7.263  10.869   5.181  0.1414  0.1894  0.3529
  460MOL0     O63345   7.381  10.850   5.124 -0.2163 -0.2378  0.9161
  460MOL0     C63346   7.400  10.866   4.989  0.0755 -0.3693  0.5270
  460MOL0     C63347   7.307  10.831   4.891 -0.2146  0.1818  0.0722
  460MOL0     C63348   7.329  10.858   4.760 -0.0337  0.4294 -0.5476
  460MOL0     C63349   7.444  10.924   4.732 -0.5677  0.4402  0.6602
  460MOL0     O63350   7.483  10.929   4.603  0.6647  0.2415  0.0369
  460MOL0     C63351   7.496  11.062   4.545 -0.4757 -0.9901 -0.3586
  460MOL0     C63352   7.502  11.059   4.400  0.1223 -0.2086  0.7971
  460MOL0     C63353   7.584  11.173   4.336  0.8652 -0.2353  0.0677
  460MOL0     C63354   7.502  11.303   4.361 -0.9657 -0.8875 -0.4495
  460MOL0     C63355   7.576  11.430   4.338 -0.7798  1.0135 -0.1489
  460MOL0     C63356   7.498  11.559   4.340 -0.6934 -0.2694 -0.2483
  460MOL0     C63357   7.586  11.691   4.319  0.7474  0.9690  0.1189
  460MOL0     C63358   7.672  11.683   4.189  0.8669 -0.2653  0.2712
  460MOL0     N63359   7.583  11.689   4.073 -0.0927 -0.3949 -0.8834
  460MOL0     C63360   7.547  11.580   3.998 -0.0643 -0.5061 -0.4022
  460MOL0     C63361   7.501  11.619   3.883  1.2922  0.4805  0.4240
  460MOL0     C63362   7.447  11.526   3.775 -0.0535  0.5020  0.5319
  460MOL0     C63363   7.542  11.518   3.656  0.0152  0.2925  0.3143
  460MOL0     C63364   7.494  11.428   3.531  0.2752  0.2111 -0.5067
  460MOL0     C63365   7.415  11.304   3.558  0.1538 -0.4444 -0.1855
  460MOL0     O63366   7.491  11.207   3.641 -0.0184 -0.8480  0.4830
  460MOL0     C63367   7.429  11.090   3.672  0.0823 -0.4190 -0.1545
  460MOL0     C63368   7.504  11.004   3.747  0.0057  0.3635  0.1989
  460MOL0     C63369   7.460  10.876   3.775  0.5057 -0.6677 -0.2824
  460MOL0     C63370   7.561  10.790   3.846 -0.0932  0.3805 -0.9853
  460MOL0     C63371   7.333  10.835   3.738  0.3803 -0.4721  0.3191
  460MOL0     C63372   7.277  10.710   3.763  0.6272  0.1072  0.2281
  460MOL0     O63373   7.178  10.674   3.680  0.0487  0.8120  0.3636
  460MOL0     C63374   7.093  10.568   3.711 -1.0025 -0.5767 -0.7006
  460MOL0     C63375   7.030  10.498   3.606  1.4316  0.7057  0.1585
  460MOL0     C63376   6.929  10.399   3.637  0.8219 -0.7077  1.2155
  460MOL0     C63377   6.906  10.375   3.768  0.7558  1.2502 -0.4724
  460MOL0     O63378   6.831  10.262   3.801  0.8702  0.2293 -1.0324
  460MOL0     C63379   6.732  10.197   3.723 -0.3925  0.0323  0.2395
  460MOL0     C63380   6.624  10.151   3.822  0.6948 -0.3297 -0.8304
  460MOL0     C63381   6.553  10.259   3.911 -0.1727  0.0666  0.7213
  460MOL0     C63382   6.619  10.290   4.043 -0.0857 -0.2539  0.4617
  460MOL0     C63383   6.641  10.444   4.047  0.5738  0.0481  0.2681
  460MOL0     C63384   6.712  10.489   4.175  0.3106 -0.1248  0.4709
  460MOL0     C63385   6.638  10.454   4.307 -0.6185 -0.4794  0.2604
  460MOL0     C63386   6.691  10.526   4.431 -0.7270  0.1007 -0.6849
  460MOL0    Cl63387   6.581  10.485   4.561  0.0905  0.4013 -0.0353
  460MOL0     C63388   6.966  10.448   3.871  0.2289 -0.0213 -0.1802
  460MOL0     C63389   7.063  10.541   3.845  1.0377 -0.0638 -0.9285
  460MOL0     O63390   7.321  10.641   3.860  0.2733  0.5589  0.9201
  460MOL0     C63391   7.249  10.927   3.679  0.8749  0.0493  0.4782
  460MOL0     C63392   7.289  11.062   3.648  0.4704 -0.2350  0.5276
  460MOL0     N63393   7.495  11.759   3.896 -0.1358  0.0344 -0.3494
  460MOL0     N63394   7.568  11.794   3.999  0.8863  0.2952  0.2032
  460MOL0     C63395   7.535  10.971   4.829 -0.6449 -0.5871 -0.5007
  460MOL0     C63396   7.523  10.928   4.962 -0.2105 -0.3147 -0.7029
  460MOL0     C63397   7.263  10.872   5.329  0.8373  0.2156  0.2102
  460MOL0     C63398   7.372  10.944   5.380 -0.7991  0.0666 -1.2135
  460MOL0     C63399   7.384  10.961   5.518 -0.6335  0.3878  0.2474
  460MOL0     C63400   7.271  10.930   5.608 -0.3423  0.5657 -0.3086
  460MOL0     O63401   7.265  10.965   5.741 -0.2985 -0.0649 -0.3852
  460MOL0     C63402   7.372  10.996   5.825 -0.2662  0.2387 -0.6378
  460MOL0     C63403   7.412  10.877   5.907 -0.4215 -0.8081  0.1268
  460MOL0     C63404   7.509  10.786   5.832  0.1460 -0.3432  0.2369
  460MOL0     C63405   7.566  10.673   5.912  0.1216 -0.1372 -0.8088
  460MOL0     C63406   7.451  10.594   5.959 -0.0432 -0.2752 -0.4518
  460MOL0     C63407   7.372  10.539   6.036  0.4007  0.3623  0.0867
  460MOL0     C63408   7.152  10.869   5.548 -0.2699 -0.0152 -0.1565
  460MOL0     C63409   7.148  10.843   5.411 -1.1984  0.4645  0.2071
  460MOL0     C63410   7.023  10.789   5.365  0.6100  0.3415  0.6497
  460MOL0     H63411   7.213  10.786   4.921  0.2094 -0.9515 -0.2478
  460MOL0     H63412   7.272  10.815   4.678  1.7365 -2.0929 -0.5919
  460MOL0     H63413   7.587  11.103   4.589 -2.6902  2.6747  1.2965
  460MOL0     H63414   7.414  11.123   4.585  0.8841 -0.8657  2.4934
  460MOL0     H63415   7.550  10.965   4.368 -1.6714 -1.3074  1.1725
  460MOL0     H63416   7.403  11.065   4.353  1.2294  0.6216 -1.5794
  460MOL0     H63417   7.681  11.182   4.385 -0.0714  1.0249  1.7806
  460MOL0     H63418   7.587  11.145   4.230 -1.0435 -1.7981  0.3584
  460MOL0     H63419   7.408  11.294   4.306 -2.2821  0.8747  1.3438
  460MOL0     H63420   7.467  11.326   4.462 -0.7030 -1.9063 -0.1177
  460MOL0     H63421   7.632  11.422   4.244  1.0277  0.6536  0.9182
  460MOL0     H63422   7.642  11.438   4.425 -0.8551  1.4662 -0.1322
  460MOL0     H63423   7.415  11.555   4.268  2.0541 -1.1982 -3.6307
  460MOL0     H63424   7.449  11.573   4.437  0.5042 -1.5738  0.5868
  460MOL0     H63425   7.670  11.695   4.390  1.3669  0.4719 -0.5661
  460MOL0     H63426   7.522  11.778   4.329  1.0223  1.0459  1.5395
  460MOL0     H63427   7.754  11.755   4.194  3.2331 -2.8140  0.6174
  460MOL0     H63428   7.735  11.594   4.183  1.4443  0.2276 -1.6380
  460MOL0     H63429   7.552  11.478   4.037 -0.0237 -0.0965  0.7031
  460MOL0     H63430   7.350  11.563   3.739 -0.5601 -1.2916 -0.0530
  460MOL0     H63431   7.432  11.424   3.813 -1.1314  0.8770  1.1460
  460MOL0     H63432   7.563  11.618   3.618  2.0886 -1.1938 -2.8337
  460MOL0     H63433   7.634  11.474   3.696  0.4126  0.3013 -0.5661
  460MOL0     H63434   7.429  11.501   3.481  2.4912  1.9079 -1.0328
  460MOL0     H63435   7.568  11.416   3.452  0.4934 -0.6284 -0.1865
  460MOL0     H63436   7.321  11.339   3.601  2.0977  1.8775  2.6277
  460MOL0     H63437   7.390  11.265   3.459  0.0148 -4.4552  1.2541
  460MOL0     H63438   7.605  11.026   3.781  0.7751 -0.7674 -1.2558
  460MOL0     H63439   7.664  10.826   3.837  0.2581 -0.5403 -0.8580
  460MOL0     H63440   7.559  10.686   3.810  2.4177  0.0145 -0.2442
  460MOL0     H63441   7.555  10.793   3.955 -2.5652 -1.4633 -0.9868
  460MOL0     H63442   7.065  10.519   3.506  1.9572 -0.4927  0.0720
  460MOL0     H63443   6.879  10.337   3.564 -1.7604  1.7815  0.6838
  460MOL0     H63444   6.680  10.272   3.663  0.6746  2.9687  2.7264
  460MOL0     H63445   6.778  10.109   3.676 -1.9033  0.2509 -1.7775
  460MOL0     H63446   6.559  10.084   3.763  0.2498 -1.2747  0.6833
  460MOL0     H63447   6.674  10.080   3.888  0.9076 -2.4503 -3.0857
  460MOL0     H63448   6.460  10.207   3.937 -1.1568  0.2657 -2.1070
  460MOL0     H63449   6.527  10.345   3.848  0.8037 -0.5463 -0.5817
  460MOL0     H63450   6.717  10.245   4.053  0.6504  0.9351 -0.9325
  460MOL0     H63451   6.560  10.257   4.129  0.0652 -1.4830  0.1126
  460MOL0     H63452   6.703  10.470   3.961  1.2867 -2.7526 -0.1707
  460MOL0     H63453   6.548  10.499   4.037  1.0549  0.7404 -0.4188
  460MOL0     H63454   6.722  10.597   4.157  1.0342 -0.7513 -3.9284
  460MOL0     H63455   6.815  10.452   4.172 -0.4299 -3.3279  4.9633
  460MOL0     H63456   6.662  10.349   4.328  0.8867 -0.0508  0.7990
  460MOL0     H63457   6.532  10.479   4.305  0.0545  2.7580  0.2164
  460MOL0     H63458   6.692  10.634   4.413 -3.2378  0.7686  2.2195
  460MOL0     H63459   6.791  10.492   4.458 -1.0502 -0.2930  0.0774
  460MOL0     H63460   6.947  10.430   3.976 -0.7637 -2.4905 -0.7171
  460MOL0     H63461   7.101  10.599   3.929 -0.6042 -0.0555 -0.1524
  460MOL0     H63462   7.149  10.909   3.643  1.1679 -1.5196  0.3912
  460MOL0     H63463   7.217  11.132   3.605 -0.8552 -2.6052 -1.3741
  460MOL0     H63464   7.625  11.026   4.803 -0.5347  0.4089  1.7456
  460MOL0     H63465   7.594  10.960   5.038 -0.3364  1.0868 -1.1387
  460MOL0     H63466   7.450  10.988   5.319 -0.0592  2.9711  1.5824
  460MOL0     H63467   7.469  11.016   5.558  1.4260 -2.2974 -0.1055
  460MOL0     H63468   7.459  11.034   5.772 -0.1774  0.4761 -0.3245
  460MOL0     H63469   7.336  11.061   5.906 -0.3032 -1.2057  0.5527
  460MOL0     H63470   7.320  10.823   5.931 -0.3395 -2.0964 -2.1655
  460MOL0     H63471   7.470  10.908   5.994  3.2802 -2.8431 -1.3554
  460MOL0     H63472   7.465  10.758   5.736 -0.3331 -2.2331  0.9603
  460MOL0     H63473   7.601  10.842   5.817  0.8118 -0.9479  1.8652
  460MOL0     H63474   7.626  10.710   5.996 -1.6054  0.3850  0.2519
  460MOL0     H63475   7.622  10.602   5.851 -0.8953 -3.6594  2.0221
  460MOL0     H63476   7.297  10.501   6.102 -1.6374  1.3333 -1.5444
  460MOL0     H63477   7.079  10.842   5.622 -0.3107 -0.0721 -0.2167
  460MOL0     H63478   6.961  10.766   5.452  1.0372 -0.9838  0.6293
  460MOL0     H63479   6.969  10.867   5.310 -2.9283 -2.9959 -1.1249
  460MOL0     H63480   7.024  10.714   5.286 -0.9327  1.4386 -0.4737
  461MOL0     O63481   1.070   7.633   3.796  0.3102  0.1009 -0.6557
  461MOL0     C63482   1.012   7.735   3.767  1.2132 -0.6226 -0.1664
  461MOL0     O63483   1.038   7.824   3.666 -0.1872  0.3596  0.0682
  461MOL0     C63484   1.160   7.833   3.605  0.1430 -0.1810 -0.1873
  461MOL0     C63485   1.277   7.815   3.676 -0.0579  0.2103 -0.4869
  461MOL0     C63486   1.400   7.802   3.606 -0.2647  0.0167  0.4015
  461MOL0     C63487   1.403   7.794   3.468 -0.2148  0.7823  0.3564
  461MOL0     O63488   1.514   7.747   3.395  0.0608  0.6987  0.1112
  461MOL0     C63489   1.500   7.605   3.363  0.9952  0.2295 -0.6396
  461MOL0     C63490   1.586   7.594   3.239  0.2821  0.5007 -0.5737
  461MOL0     C63491   1.589   7.462   3.174  0.6685  0.8467  0.2280
  461MOL0     C63492   1.458   7.416   3.123  0.0047 -0.6033  0.1784
  461MOL0     C63493   1.473   7.269   3.073 -0.2646 -1.1740 -0.2196
  461MOL0     C63494   1.340   7.198   3.098 -0.1826  0.1805  0.2174
  461MOL0     C63495   1.361   7.044   3.113 -0.0106  0.4384  0.3216
  461MOL0     C63496   1.405   7.014   3.261 -0.0414  1.3802  0.7781
  461MOL0     N63497   1.404   6.868   3.297  0.1031 -0.1292 -0.6816
  461MOL0     C63498   1.291   6.797   3.313 -0.1114  0.4159 -0.0346
  461MOL0     C63499   1.328   6.689   3.383 -0.0569 -0.2173 -0.2048
  461MOL0     C63500   1.238   6.577   3.439 -0.1056 -0.0289 -0.7206
  461MOL0     C63501   1.147   6.610   3.565 -0.8785 -0.7572 -0.7351
  461MOL0     C63502   1.208   6.673   3.687  0.9164 -0.0259  0.1357
  461MOL0     C63503   1.302   6.577   3.758  0.2318  0.6652 -0.2831
  461MOL0     O63504   1.250   6.464   3.834 -0.2058  0.5471  0.6017
  461MOL0     C63505   1.332   6.384   3.913 -0.1784 -0.2373  0.1282
  461MOL0     C63506   1.399   6.277   3.865 -0.1053 -0.4589  0.0146
  461MOL0     C63507   1.471   6.189   3.944  0.3132 -0.1496 -0.8716
  461MOL0     C63508   1.530   6.063   3.877  0.3673 -0.3029 -0.0655
  461MOL0     C63509   1.490   6.221   4.078 -1.0847 -0.2379 -0.6871
  461MOL0     C63510   1.606   6.168   4.152 -0.6633  0.8688 -0.3409
  461MOL0     O63511   1.637   6.243   4.263 -0.1715  0.5468 -0.2026
  461MOL0     C63512   1.766   6.234   4.321 -0.3420 -0.0019  0.5139
  461MOL0     C63513   1.781   6.317   4.427  0.7555  0.1449  0.4770
  461MOL0     C63514   1.877   6.309   4.522 -0.4469  0.2923 -0.2739
  461MOL0     C63515   1.986   6.226   4.494  0.5286  0.4551 -0.4570
  461MOL0     O63516   2.081   6.217   4.596 -0.2316 -0.0521 -0.1808
  461MOL0     C63517   2.218   6.181   4.558 -0.8869  0.6098  0.4896
  461MOL0     C63518   2.324   6.239   4.659 -0.5321 -0.2548 -0.2365
  461MOL0     C63519   2.335   6.396   4.653  0.3286  1.0844 -1.9776
  461MOL0     C63520   2.213   6.479   4.644 -0.4006  0.1370  0.6911
  461MOL0     C63521   2.254   6.632   4.648 -0.4851 -0.4838 -0.0338
  461MOL0     C63522   2.146   6.730   4.620  0.8561 -0.0603  0.7152
  461MOL0     C63523   2.102   6.751   4.474 -0.3001 -0.2437  0.4342
  461MOL0     C63524   2.002   6.868   4.472 -0.1750  0.0440 -0.0922
  461MOL0    Cl63525   1.860   6.831   4.569  0.0009 -0.1887 -0.0108
  461MOL0     C63526   1.987   6.150   4.379 -0.1267  0.4267 -1.0241
  461MOL0     C63527   1.874   6.158   4.293 -0.5066  0.2996  0.1581
  461MOL0     O63528   1.649   6.052   4.134  0.1766 -0.3227 -0.4345
  461MOL0     C63529   1.423   6.331   4.136  0.1922 -0.9171 -0.3070
  461MOL0     C63530   1.336   6.405   4.053  1.1254  0.4192  0.1902
  461MOL0     N63531   1.470   6.688   3.382 -1.0653 -0.1176  0.3630
  461MOL0     N63532   1.514   6.796   3.331 -0.4083  0.9307  0.3322
  461MOL0     C63533   1.288   7.823   3.392 -0.0763 -0.4868 -0.2050
  461MOL0     C63534   1.172   7.840   3.465  0.4526 -0.8061 -0.7323
  461MOL0     C63535   0.892   7.773   3.849  0.3904  0.0567 -0.2240
  461MOL0     C63536   0.797   7.868   3.801  0.2272  0.7094 -0.0824
  461MOL0     C63537   0.676   7.899   3.862 -0.5088 -1.0347 -0.0844
  461MOL0     C63538   0.645   7.841   3.982 -0.0196  0.1982  0.5345
  461MOL0     O63539   0.531   7.897   4.049 -0.0392  1.2063 -0.6811
  461MOL0     C63540   0.473   7.826   4.156 -1.3103 -0.1112 -0.7470
  461MOL0     C63541   0.366   7.922   4.213 -0.5096 -0.3245  0.8594
  461MOL0     C63542   0.422   8.042   4.299 -0.1380 -0.2378  0.3246
  461MOL0     C63543   0.307   8.137   4.341 -0.7309  0.4095  0.4830
  461MOL0     C63544   0.220   8.063   4.434 -0.0754  0.6524  0.4010
  461MOL0     C63545   0.158   7.997   4.519  0.2658 -0.2743  0.2485
  461MOL0     C63546   0.732   7.734   4.030 -0.9319 -0.0256  0.4219
  461MOL0     C63547   0.851   7.694   3.968 -0.9608  0.0545 -0.1059
  461MOL0     C63548   0.931   7.585   4.038  0.4102  0.4133 -0.8660
  461MOL0     H63549   1.269   7.820   3.784  0.3835  3.6619 -0.4797
  461MOL0     H63550   1.492   7.792   3.663  2.3366 -1.3785 -3.5825
  461MOL0     H63551   1.396   7.577   3.343  1.2156 -0.7373 -0.4695
  461MOL0     H63552   1.545   7.551   3.446 -0.8432  1.6830  1.4172
  461MOL0     H63553   1.555   7.669   3.166 -0.0847 -0.3374 -1.2928
  461MOL0     H63554   1.684   7.629   3.272  0.1276  1.0324 -0.6523
  461MOL0     H63555   1.657   7.484   3.092 -2.5623  2.0946 -2.3349
  461MOL0     H63556   1.631   7.388   3.243 -1.5468 -3.1728 -2.2965
  461MOL0     H63557   1.380   7.421   3.199  0.6264  1.1818  0.7383
  461MOL0     H63558   1.435   7.479   3.037  5.1341  2.2407  0.4812
  461MOL0     H63559   1.562   7.217   3.108  1.8294 -0.6893 -4.2009
  461MOL0     H63560   1.495   7.272   2.965 -3.4453 -2.2123 -0.9972
  461MOL0     H63561   1.296   7.235   3.191 -1.5930 -0.3113 -0.2328
  461MOL0     H63562   1.276   7.213   3.010  0.4145 -0.2962 -0.3109
  461MOL0     H63563   1.428   6.998   3.040 -2.8279  2.2075 -3.7009
  461MOL0     H63564   1.266   6.994   3.092 -0.3793  0.8696  0.9301
  461MOL0     H63565   1.507   7.048   3.280 -0.6474  1.9885  3.3141
  461MOL0     H63566   1.329   7.056   3.328 -2.6873 -2.0632  0.2549
  461MOL0     H63567   1.187   6.818   3.291 -0.2756 -0.5511 -0.2387
  461MOL0     H63568   1.306   6.496   3.469  1.0416  1.0417 -0.3164
  461MOL0     H63569   1.171   6.547   3.358  1.7796 -0.4300 -2.2224
  461MOL0     H63570   1.067   6.678   3.533 -0.8174  0.6775  1.8919
  461MOL0     H63571   1.093   6.518   3.591 -1.4282 -0.0058  0.8435
  461MOL0     H63572   1.256   6.766   3.655  2.7128 -0.8537  0.2930
  461MOL0     H63573   1.126   6.698   3.755 -0.8253 -4.8344  0.1895
  461MOL0     H63574   1.374   6.545   3.682  0.1550 -3.1670  1.0769
  461MOL0     H63575   1.345   6.649   3.829 -0.8926  0.1355  0.9657
  461MOL0     H63576   1.384   6.246   3.763  0.5192 -0.4030 -0.0971
  461MOL0     H63577   1.482   5.978   3.927  2.0985 -0.0479  2.2006
  461MOL0     H63578   1.639   6.052   3.880  1.0936  4.2777 -1.7262
  461MOL0     H63579   1.506   6.057   3.770  2.1257  1.8393 -0.6543
  461MOL0     H63580   1.700   6.387   4.445  1.0432  0.8970 -1.0260
  461MOL0     H63581   1.874   6.357   4.619 -0.3181 -0.0808 -0.0838
  461MOL0     H63582   2.237   6.074   4.548  0.3260  0.6121  2.3252
  461MOL0     H63583   2.241   6.235   4.466 -0.8229 -1.8992 -1.0509
  461MOL0     H63584   2.306   6.197   4.758 -0.7114 -2.0701 -1.0003
  461MOL0     H63585   2.418   6.192   4.627  0.6281  1.0212  1.1561
  461MOL0     H63586   2.395   6.430   4.567 -0.1324  2.2034 -1.8669
  461MOL0     H63587   2.371   6.422   4.753 -0.6714 -1.1792 -0.9552
  461MOL0     H63588   2.141   6.467   4.726  1.3868  4.7055  3.3331
  461MOL0     H63589   2.177   6.465   4.541  1.9076 -1.0971 -0.0062
  461MOL0     H63590   2.279   6.645   4.753 -2.1714 -2.3700  0.6658
  461MOL0     H63591   2.334   6.665   4.582 -1.7439 -1.2064 -2.0155
  461MOL0     H63592   2.171   6.827   4.666 -2.2557  0.8610  0.7053
  461MOL0     H63593   2.068   6.681   4.680  3.2016 -2.2661  2.1630
  461MOL0     H63594   2.044   6.667   4.435  2.4344  0.1010 -5.4156
  461MOL0     H63595   2.192   6.753   4.411 -0.6730 -0.0725 -0.0939
  461MOL0     H63596   1.975   6.892   4.368  1.5231 -2.7906 -1.3186
  461MOL0     H63597   2.056   6.955   4.511 -0.0745 -0.1511  0.2063
  461MOL0     H63598   2.067   6.078   4.367  1.1663  1.6610 -0.1413
  461MOL0     H63599   1.862   6.102   4.200  0.3807 -0.6398  0.5889
  461MOL0     H63600   1.429   6.350   4.242  0.2844  0.6513 -0.5698
  461MOL0     H63601   1.285   6.496   4.085  0.2677  0.1174 -0.2709
  461MOL0     H63602   1.291   7.809   3.284  1.4376 -0.4205 -0.1928
  461MOL0     H63603   1.076   7.840   3.412 -0.3118 -0.3875  0.6163
  461MOL0     H63604   0.816   7.934   3.717 -0.8093 -0.5260 -1.3507
  461MOL0     H63605   0.611   7.975   3.819 -1.1937 -2.8627 -2.5136
  461MOL0     H63606   0.441   7.730   4.116  1.5602 -1.3149 -0.4118
  461MOL0     H63607   0.545   7.800   4.235 -1.2883 -0.1030 -0.7644
  461MOL0     H63608   0.304   7.864   4.283  0.8679 -0.2403  2.1932
  461MOL0     H63609   0.306   7.956   4.128  1.1172  1.0230  0.2199
  461MOL0     H63610   0.478   7.990   4.376 -0.0767  1.9716  1.8556
  461MOL0     H63611   0.490   8.101   4.237 -1.2643 -0.0142 -0.7466
  461MOL0     H63612   0.252   8.183   4.258 -0.2186  0.2792  0.0675
  461MOL0     H63613   0.352   8.217   4.400  1.9509 -0.5028 -0.2039
  461MOL0     H63614   0.100   7.940   4.589 -0.6706  0.3545 -0.0051
  461MOL0     H63615   0.709   7.691   4.127  0.5863  2.5271  2.0266
  461MOL0     H63616   0.895   7.585   4.141 -4.1963 -0.2026 -2.2835
  461MOL0     H63617   0.920   7.486   3.993  4.8676 -0.6047 -0.1808
  461MOL0     H63618   1.039   7.604   4.041  0.7687 -1.4545 -1.2591
  462MOL0     O63619   1.630   6.363   7.269 -0.7798  0.3478 -0.0582
  462MOL0     C63620   1.623   6.254   7.211  0.0393 -0.0031  0.2242
  462MOL0     O63621   1.722   6.160   7.211  0.6406  0.2979  0.1422
  462MOL0     C63622   1.854   6.178   7.244  0.3438 -0.5439  0.2521
  462MOL0     C63623   1.930   6.068   7.214 -0.2955  0.6035  0.4651
  462MOL0     C63624   2.067   6.062   7.235  0.3401  0.6379  0.2197
  462MOL0     C63625   2.127   6.181   7.266 -0.4451 -0.4622  0.3839
  462MOL0     O63626   2.260   6.197   7.270 -0.4295  0.4121  0.4485
  462MOL0     C63627   2.334   6.255   7.158 -0.5841 -0.5919  0.0938
  462MOL0     C63628   2.355   6.160   7.048  0.8729 -0.2541 -0.8947
  462MOL0     C63629   2.418   6.230   6.923  0.8132  0.3495 -0.1329
  462MOL0     C63630   2.537   6.150   6.872  1.1024  0.3532  0.1458
  462MOL0     C63631   2.635   6.232   6.792  0.8458 -0.7063  0.3469
  462MOL0     C63632   2.755   6.164   6.764 -0.6856  0.2230 -1.0077
  462MOL0     C63633   2.856   6.261   6.693  0.0859  1.3584  0.8281
  462MOL0     C63634   2.990   6.171   6.669  0.4484  0.0018 -0.8520
  462MOL0     N63635   3.091   6.277   6.648 -0.7079 -0.4003  0.1116
  462MOL0     C63636   3.196   6.274   6.561 -0.0343 -0.0122 -0.0073
  462MOL0     C63637   3.288   6.371   6.601  0.9102 -0.4895  0.5916
  462MOL0     C63638   3.420   6.395   6.543 -0.5656 -0.1278  0.9106
  462MOL0     C63639   3.429   6.366   6.392  0.4290  0.0929 -0.3034
  462MOL0     C63640   3.540   6.439   6.326  0.6711 -0.9250  0.1118
  462MOL0     C63641   3.682   6.392   6.367 -0.6815  0.5172 -0.5195
  462MOL0     O63642   3.712   6.261   6.308 -0.1177 -0.2058  0.3098
  462MOL0     C63643   3.749   6.147   6.384 -0.8409  0.2136  0.1637
  462MOL0     C63644   3.796   6.040   6.315 -0.3638  0.0516  0.1838
  462MOL0     C63645   3.859   5.927   6.374 -0.0692 -0.4273  0.8166
  462MOL0     C63646   3.917   5.810   6.291  0.4785  0.8494  0.2035
  462MOL0     C63647   3.846   5.922   6.517 -0.3695 -0.7744 -0.9567
  462MOL0     C63648   3.880   5.807   6.595 -0.3465  0.3341 -0.8750
  462MOL0     O63649   3.890   5.829   6.735 -0.5405  0.4154  0.1776
  462MOL0     C63650   3.971   5.756   6.822 -0.4577  0.0171  0.0915
  462MOL0     C63651   3.975   5.615   6.831 -0.1295 -0.5840 -0.2690
  462MOL0     C63652   4.042   5.544   6.934 -0.6149 -0.1359  0.2499
  462MOL0     C63653   4.121   5.622   7.018  0.0795 -0.2343 -0.6086
  462MOL0     O63654   4.207   5.575   7.112  0.1634  0.5439 -0.1074
  462MOL0     C63655   4.146   5.489   7.210  0.1490  1.3436  0.1047
  462MOL0     C63656   4.221   5.484   7.335 -0.0149 -0.0332  0.5627
  462MOL0     C63657   4.234   5.611   7.413  0.0130  0.0852 -0.5142
  462MOL0     C63658   4.339   5.589   7.531  1.2989 -0.0093  0.7123
  462MOL0     C63659   4.363   5.725   7.601 -0.0575 -0.5068  0.0553
  462MOL0     C63660   4.247   5.781   7.686  0.1974 -0.7475 -0.3114
  462MOL0     C63661   4.282   5.909   7.757 -0.6203  0.5105  0.0022
  462MOL0     C63662   4.351   6.013   7.674 -0.5879 -0.3088 -0.6210
  462MOL0    Cl63663   4.361   6.154   7.774 -0.0841 -0.6135  0.1564
  462MOL0     C63664   4.120   5.765   7.013 -0.2030  0.6440 -0.9984
  462MOL0     C63665   4.043   5.838   6.916  0.1372 -0.3112  0.0376
  462MOL0     O63666   3.896   5.701   6.544 -0.2312 -0.0598  0.2620
  462MOL0     C63667   3.792   6.030   6.590  0.0888  0.0749  0.3253
  462MOL0     C63668   3.748   6.140   6.522 -1.4801 -0.0798 -1.0689
  462MOL0     N63669   3.224   6.447   6.698 -0.6686  0.5945 -0.2804
  462MOL0     N63670   3.123   6.377   6.739 -0.0073  0.0210  0.5165
  462MOL0     C63671   2.065   6.296   7.300  0.0981 -0.5298  0.5876
  462MOL0     C63672   1.921   6.302   7.280  0.3852 -0.4482  1.0471
  462MOL0     C63673   1.496   6.213   7.142 -0.1522 -0.0065 -0.6363
  462MOL0     C63674   1.411   6.321   7.128 -0.5302  0.6559  0.7892
  462MOL0     C63675   1.280   6.302   7.082 -0.3096  0.1001  0.2565
  462MOL0     C63676   1.229   6.178   7.050 -0.5952  0.7673 -0.4201
  462MOL0     O63677   1.098   6.167   7.003  0.1603  0.0216 -0.4504
  462MOL0     C63678   0.999   6.206   7.096 -1.0165 -0.3244 -0.2865
  462MOL0     C63679   0.890   6.104   7.117 -0.9420  1.8245 -0.0394
  462MOL0     C63680   0.802   6.074   7.000 -0.6688 -0.1081  0.5214
  462MOL0     C63681   0.737   5.935   7.002 -0.0908 -0.2801  0.3384
  462MOL0     C63682   0.612   5.929   6.916 -0.3419 -0.1629  0.2386
  462MOL0     C63683   0.529   5.943   6.821 -0.1636  0.2510 -0.7319
  462MOL0     C63684   1.324   6.072   7.054  0.5757  0.2030  0.6277
  462MOL0     C63685   1.453   6.091   7.100  0.7017  0.0360 -0.5462
  462MOL0     C63686   1.554   5.985   7.086 -0.1679 -0.1959  0.0667
  462MOL0     H63687   1.870   5.981   7.189 -0.4600  0.7144  0.4727
  462MOL0     H63688   2.119   5.967   7.228 -3.0810 -1.8405  3.9697
  462MOL0     H63689   2.434   6.278   7.195 -0.3017 -0.1839 -0.8975
  462MOL0     H63690   2.280   6.345   7.128 -2.3624 -1.2488  1.1432
  462MOL0     H63691   2.410   6.068   7.069 -0.4410 -1.3829 -2.1463
  462MOL0     H63692   2.255   6.118   7.035  1.2759 -1.8942  0.8217
  462MOL0     H63693   2.340   6.246   6.849  2.3926  0.9716 -1.7343
  462MOL0     H63694   2.450   6.328   6.960 -0.5781  0.8911 -0.2879
  462MOL0     H63695   2.596   6.114   6.957  3.1115  2.6267 -0.1599
  462MOL0     H63696   2.501   6.067   6.811  3.8227 -1.6010  1.0047
  462MOL0     H63697   2.657   6.321   6.852 -1.7049  0.3902 -0.1699
  462MOL0     H63698   2.580   6.266   6.704 -3.7659  0.2726  3.2190
  462MOL0     H63699   2.793   6.117   6.855 -1.9080  0.1225 -0.5252
  462MOL0     H63700   2.731   6.079   6.699 -0.9940 -1.0941  0.7325
  462MOL0     H63701   2.864   6.355   6.749 -0.6615  0.1088  3.1772
  462MOL0     H63702   2.815   6.280   6.593  3.4414  3.7203 -0.2799
  462MOL0     H63703   3.016   6.124   6.765  0.1299  0.4489 -0.5456
  462MOL0     H63704   2.976   6.096   6.591 -0.6704 -1.6241  0.8248
  462MOL0     H63705   3.198   6.200   6.481  0.3631 -0.3578  0.3116
  462MOL0     H63706   3.492   6.327   6.590 -0.2025 -0.8293 -0.5972
  462MOL0     H63707   3.446   6.498   6.565 -2.0961  0.5951 -0.4294
  462MOL0     H63708   3.441   6.258   6.381  3.7097  0.2246  0.8940
  462MOL0     H63709   3.333   6.395   6.348  1.1181 -1.4272 -3.0477
  462MOL0     H63710   3.519   6.430   6.219 -2.5913  3.7822  0.0343
  462MOL0     H63711   3.519   6.544   6.349 -3.9490 -2.3162  3.9623
  462MOL0     H63712   3.762   6.458   6.332  0.7240 -2.0940 -2.6570
  462MOL0     H63713   3.692   6.395   6.476 -0.4503  2.4731 -0.5587
  462MOL0     H63714   3.800   6.038   6.206  2.2210 -0.8381  0.2186
  462MOL0     H63715   4.003   5.754   6.328  0.8970  1.8788  0.7970
  462MOL0     H63716   3.927   5.837   6.185  0.8011  2.3821  0.6121
  462MOL0     H63717   3.841   5.730   6.289 -2.9660  3.7671  2.0053
  462MOL0     H63718   3.926   5.553   6.755  0.8308 -1.8738  0.1166
  462MOL0     H63719   4.043   5.436   6.945  1.1632 -0.9641 -5.1453
  462MOL0     H63720   4.051   5.526   7.250  1.1700  2.3744  1.7252
  462MOL0     H63721   4.127   5.390   7.168  4.2186  0.5806 -0.3787
  462MOL0     H63722   4.190   5.403   7.402  1.5028 -0.8472  0.3169
  462MOL0     H63723   4.326   5.465   7.311  0.3496  1.5586  0.7950
  462MOL0     H63724   4.133   5.626   7.454 -0.1455 -1.2199 -0.4006
  462MOL0     H63725   4.266   5.696   7.352 -0.7241  0.3809 -0.5063
  462MOL0     H63726   4.425   5.551   7.476  0.4189 -0.7857 -0.1697
  462MOL0     H63727   4.319   5.512   7.606  4.1658  1.1134  2.8293
  462MOL0     H63728   4.457   5.719   7.658 -1.8325 -1.8981  3.0579
  462MOL0     H63729   4.382   5.789   7.514 -0.0933 -1.5975 -0.7839
  462MOL0     H63730   4.203   5.711   7.757 -1.1190 -0.1282 -0.4932
  462MOL0     H63731   4.164   5.800   7.617  0.1885  2.1633  0.3770
  462MOL0     H63732   4.335   5.895   7.852 -1.3983 -0.2216  0.3388
  462MOL0     H63733   4.181   5.949   7.776 -2.2771 -3.2399 -0.0430
  462MOL0     H63734   4.302   6.036   7.579 -1.9434  1.7144  0.4873
  462MOL0     H63735   4.448   5.967   7.651  0.5036  2.3606 -1.6821
  462MOL0     H63736   4.191   5.822   7.072  1.4426 -0.1947 -2.0972
  462MOL0     H63737   4.036   5.945   6.896 -2.6152  0.0939  2.5175
  462MOL0     H63738   3.769   6.029   6.696 -0.2865  1.0088  0.2645
  462MOL0     H63739   3.720   6.227   6.581  1.1815 -0.2424  0.6026
  462MOL0     H63740   2.124   6.380   7.335  1.8417 -1.7948  0.8307
  462MOL0     H63741   1.870   6.398   7.283  1.7214  0.2618  1.8551
  462MOL0     H63742   1.447   6.423   7.140  0.3033  0.7108 -1.5770
  462MOL0     H63743   1.216   6.386   7.060  0.0488  0.5392  0.8326
  462MOL0     H63744   1.037   6.234   7.195  3.0905 -2.0336 -1.1704
  462MOL0     H63745   0.960   6.299   7.052 -2.1214 -1.1567 -1.1344
  462MOL0     H63746   0.833   6.123   7.208  0.7410  2.5418  0.9125
  462MOL0     H63747   0.957   6.018   7.130 -2.2521  0.8303  0.3569
  462MOL0     H63748   0.727   6.153   6.998 -0.2314  0.3245  1.0331
  462MOL0     H63749   0.862   6.076   6.909  0.7420 -2.3110  1.3229
  462MOL0     H63750   0.712   5.913   7.106  2.0063 -0.8354  0.7907
  462MOL0     H63751   0.812   5.858   6.983 -1.6677 -1.7295 -0.1660
  462MOL0     H63752   0.460   5.973   6.746 -1.4998  3.3239  1.4722
  462MOL0     H63753   1.300   5.973   7.017 -2.4438  1.3244 -0.8204
  462MOL0     H63754   1.576   5.928   7.176  0.0021  0.8307  0.6952
  462MOL0     H63755   1.527   5.914   7.008 -0.1692  0.0503 -0.1605
  462MOL0     H63756   1.648   6.022   7.043  0.5445 -0.5927  1.2521
  463MOL0     O63757   0.467   7.217   7.558  0.1480 -0.6375 -0.2231
  463MOL0     C63758   0.531   7.320   7.550  0.2159 -0.8019 -0.6404
  463MOL0     O63759   0.516   7.404   7.439  0.5068  0.2161 -0.9436
  463MOL0     C63760   0.460   7.350   7.324  0.4399  0.7135  0.3563
  463MOL0     C63761   0.528   7.374   7.202  0.1333  0.2247 -0.3270
  463MOL0     C63762   0.482   7.341   7.076 -0.0172 -0.9231  0.0213
  463MOL0     C63763   0.365   7.274   7.063 -0.2950 -0.1933 -0.5059
  463MOL0     O63764   0.308   7.241   6.942  0.4826  0.2093  0.1374
  463MOL0     C63765   0.279   7.105   6.920 -0.4153  0.9703 -0.4493
  463MOL0     C63766   0.411   7.046   6.855 -0.5033 -0.2227  0.0266
  463MOL0     C63767   0.412   6.898   6.811 -0.3642 -0.0451 -0.1248
  463MOL0     C63768   0.405   6.811   6.945 -0.2899 -0.0238 -0.6767
  463MOL0     C63769   0.488   6.683   6.945 -0.4380  0.4629 -0.1547
  463MOL0     C63770   0.643   6.711   6.940 -1.0981 -0.2499 -0.9657
  463MOL0     C63771   0.689   6.803   7.067  1.9596  0.5056 -0.5168
  463MOL0     C63772   0.837   6.787   7.111  0.1439  0.4390  0.3990
  463MOL0     N63773   0.846   6.663   7.185  0.3472  0.9063  0.3275
  463MOL0     C63774   0.831   6.656   7.318 -0.3925 -0.9626  0.6441
  463MOL0     C63775   0.872   6.534   7.364  0.2258  1.4035 -0.9824
  463MOL0     C63776   0.874   6.482   7.503  0.0384  0.0816  0.6340
  463MOL0     C63777   0.751   6.500   7.586  0.4865 -0.3625 -0.1096
  463MOL0     C63778   0.763   6.454   7.733 -0.0360  0.0890  0.0945
  463MOL0     C63779   0.636   6.478   7.808 -0.0539  0.1279  0.1943
  463MOL0     O63780   0.555   6.354   7.811  0.7002  0.5880  0.0628
  463MOL0     C63781   0.461   6.327   7.899  1.1634 -0.6818 -0.3675
  463MOL0     C63782   0.405   6.433   7.966  0.6578  1.6683 -0.1557
  463MOL0     C63783   0.294   6.418   8.059 -0.3826  0.2441  0.0781
  463MOL0     C63784   0.246   6.545   8.115 -0.0691 -0.6454 -0.2124
  463MOL0     C63785   0.248   6.282   8.078 -0.4114  0.7746  0.2740
  463MOL0     C63786   0.126   6.259   8.166 -0.2605 -0.1858 -0.5871
  463MOL0     O63787   0.096   6.128   8.196  0.5748 -0.7178  0.4670
  463MOL0     C63788   0.069   6.091   8.328  0.3316  0.3476 -0.0478
  463MOL0     C63789   0.172   6.097   8.428  0.0452 -0.6566  0.8341
  463MOL0     C63790   0.158   6.031   8.547 -0.0081  0.0996  0.2665
  463MOL0     C63791   0.048   5.942   8.568 -0.5894 -0.1865  0.5697
  463MOL0     O63792   0.034   5.860   8.687 -0.3629  0.5067  0.2867
  463MOL0     C63793   0.114   5.871   8.802 -0.2919 -0.0838 -0.3568
  463MOL0     C63794   0.086   5.770   8.910 -0.6918  1.3506 -0.2193
  463MOL0     C63795   0.204   5.758   9.001  0.0634 -0.2583 -0.2929
  463MOL0     C63796   0.181   5.648   9.103  0.0110  0.0934 -0.3285
  463MOL0     C63797   0.296   5.636   9.204 -0.5267 -0.9183 -0.5262
  463MOL0     C63798   0.270   5.538   9.330 -0.2654  0.6864  0.7153
  463MOL0     C63799   0.276   5.397   9.288  0.5882  0.7209 -0.7313
  463MOL0     C63800   0.222   5.319   9.405  0.2511 -0.5679 -0.7651
  463MOL0    Cl63801   0.358   5.311   9.530 -0.6241 -0.4659 -0.0992
  463MOL0     C63802  -0.049   5.942   8.477 -0.4486  1.1927 -0.0226
  463MOL0     C63803  -0.047   6.022   8.356 -0.5044 -0.1930 -0.5866
  463MOL0     O63804   0.056   6.346   8.209  0.5125 -0.1203 -0.0198
  463MOL0     C63805   0.323   6.172   8.017 -0.8492  0.0688 -0.7325
  463MOL0     C63806   0.421   6.196   7.922 -1.1551 -0.8270 -0.1803
  463MOL0     N63807   0.922   6.468   7.255  0.1455  0.5861 -0.7373
  463MOL0     N63808   0.897   6.546   7.150  0.4491  0.2003 -0.7729
  463MOL0     C63809   0.299   7.237   7.179  0.1280  0.4386  0.9053
  463MOL0     C63810   0.339   7.274   7.309 -0.4592  1.0443  0.2872
  463MOL0     C63811   0.598   7.376   7.678  0.5226 -0.6937 -0.1220
  463MOL0     C63812   0.628   7.280   7.781  0.1109 -0.0391  0.6307
  463MOL0     C63813   0.688   7.309   7.908  0.3745  0.1613  0.6561
  463MOL0     C63814   0.735   7.436   7.923  0.0320 -0.3513 -0.1157
  463MOL0     O63815   0.788   7.455   8.046 -0.7910  0.2193 -0.2376
  463MOL0     C63816   0.815   7.587   8.084 -0.5638 -0.4692 -0.6765
  463MOL0     C63817   0.891   7.610   8.224 -0.6671 -0.5521  0.1067
  463MOL0     C63818   0.812   7.560   8.342 -0.7295 -0.7777 -0.3510
  463MOL0     C63819   0.870   7.629   8.477  0.5150 -0.9020 -0.6085
  463MOL0     C63820   0.792   7.590   8.598  0.1668  0.5724 -0.6712
  463MOL0     C63821   0.724   7.572   8.698  0.2868  0.2426  0.7512
  463MOL0     C63822   0.708   7.538   7.829  0.2565 -0.4043  0.2088
  463MOL0     C63823   0.638   7.513   7.711  0.4651 -0.3996  0.0702
  463MOL0     C63824   0.610   7.620   7.615  0.3524 -0.6812  0.1767
  463MOL0     H63825   0.626   7.418   7.214  0.6096 -0.1957 -2.2950
  463MOL0     H63826   0.542   7.368   6.990 -0.7631  0.1950 -0.1705
  463MOL0     H63827   0.199   7.085   6.849 -1.2030  0.8936  0.4369
  463MOL0     H63828   0.254   7.051   7.012 -0.2454 -0.8413 -1.4203
  463MOL0     H63829   0.430   7.100   6.762 -1.0323 -0.4357 -0.2144
  463MOL0     H63830   0.497   7.053   6.921  1.0587  2.0109 -2.0676
  463MOL0     H63831   0.322   6.876   6.753 -1.3620 -0.2361  1.4475
  463MOL0     H63832   0.492   6.870   6.741 -1.6397 -2.1171 -0.8565
  463MOL0     H63833   0.433   6.872   7.031  1.5464  2.0080 -2.5636
  463MOL0     H63834   0.301   6.791   6.971  0.6376 -1.9265  2.0328
  463MOL0     H63835   0.455   6.614   6.866  0.9486 -1.1820  0.6412
  463MOL0     H63836   0.477   6.633   7.042 -0.4442 -0.0953 -0.4412
  463MOL0     H63837   0.703   6.620   6.945 -1.2124 -0.3870 -1.8216
  463MOL0     H63838   0.674   6.769   6.852 -2.0442 -0.9574 -1.7915
  463MOL0     H63839   0.628   6.787   7.156 -1.7546  0.0520 -2.9001
  463MOL0     H63840   0.668   6.909   7.049 -1.4188  0.4802  2.1473
  463MOL0     H63841   0.907   6.797   7.028  1.7710 -0.0423  1.6544
  463MOL0     H63842   0.869   6.872   7.173  1.2780  2.0904 -2.2662
  463MOL0     H63843   0.818   6.744   7.379 -2.3979 -0.9228  0.2458
  463MOL0     H63844   0.956   6.540   7.547  1.1669 -0.9534 -0.0634
  463MOL0     H63845   0.895   6.375   7.499 -1.1090 -0.1403  0.0471
  463MOL0     H63846   0.737   6.607   7.599 -0.3535 -0.7039  2.3536
  463MOL0     H63847   0.656   6.464   7.546 -0.2516 -0.3685  1.5512
  463MOL0     H63848   0.784   6.347   7.731  0.3310  0.1183 -3.3773
  463MOL0     H63849   0.848   6.504   7.780  0.8705 -1.3973  0.0955
  463MOL0     H63850   0.655   6.505   7.913  4.3576  0.3623 -0.4741
  463MOL0     H63851   0.579   6.556   7.757 -1.4109 -0.1140  1.2863
  463MOL0     H63852   0.442   6.534   7.950 -0.4869  1.8914 -1.6503
  463MOL0     H63853   0.290   6.631   8.063  2.1945 -1.2374  0.6023
  463MOL0     H63854   0.270   6.547   8.221 -0.4928  1.0647 -0.1132
  463MOL0     H63855   0.137   6.559   8.108 -0.4051 -0.7364  3.1907
  463MOL0     H63856   0.268   6.144   8.409 -0.8463  2.7174  3.5760
  463MOL0     H63857   0.235   6.048   8.622 -0.2450  0.8616  0.3415
  463MOL0     H63858   0.218   5.861   8.769 -0.0767 -2.7226  0.8279
  463MOL0     H63859   0.112   5.969   8.851 -0.4033 -0.5915  0.6804
  463MOL0     H63860  -0.009   5.792   8.960 -1.3535 -1.7635  0.1160
  463MOL0     H63861   0.075   5.673   8.860  4.6100 -0.0465  0.7254
  463MOL0     H63862   0.216   5.856   9.048  3.1761  0.5188 -2.3795
  463MOL0     H63863   0.295   5.737   8.943 -0.4405 -2.0644 -0.4937
  463MOL0     H63864   0.168   5.551   9.054 -1.6584 -0.8660  1.8489
  463MOL0     H63865   0.089   5.680   9.153 -0.5712  3.4356 -3.1387
  463MOL0     H63866   0.385   5.606   9.147 -0.0959  0.3379 -0.5424
  463MOL0     H63867   0.313   5.739   9.235 -1.5138 -0.6172 -0.9522
  463MOL0     H63868   0.177   5.574   9.376  0.0814  3.4075 -0.4960
  463MOL0     H63869   0.350   5.554   9.403  0.5191 -0.0784  0.0355
  463MOL0     H63870   0.383   5.385   9.269  0.4003  0.7454 -1.8924
  463MOL0     H63871   0.212   5.373   9.202  1.9333 -2.6389 -0.9457
  463MOL0     H63872   0.180   5.225   9.370 -2.8686  0.8841 -1.2198
  463MOL0     H63873   0.135   5.376   9.439 -1.4901 -2.2956 -2.1805
  463MOL0     H63874  -0.135   5.881   8.502  0.4018  0.4489  1.1602
  463MOL0     H63875  -0.120   6.022   8.276 -0.3754 -0.7452 -0.7034
  463MOL0     H63876   0.296   6.070   8.044 -0.9278  0.6907  1.8520
  463MOL0     H63877   0.477   6.127   7.860  1.1689  1.1103 -0.4286
  463MOL0     H63878   0.206   7.184   7.160 -0.2631  1.9850 -1.9958
  463MOL0     H63879   0.280   7.243   7.395  0.5116  0.5828  0.8073
  463MOL0     H63880   0.595   7.178   7.765 -2.7355  0.8255  0.4470
  463MOL0     H63881   0.684   7.238   7.990 -4.7431  0.6331  1.1226
  463MOL0     H63882   0.863   7.645   8.004  1.9177 -0.5152  0.6747
  463MOL0     H63883   0.721   7.643   8.091 -0.8210 -1.0240  0.5762
  463MOL0     H63884   0.897   7.719   8.232  2.6892 -0.7433  2.8373
  463MOL0     H63885   0.987   7.558   8.217  1.1853  2.6632 -0.5720
  463MOL0     H63886   0.709   7.592   8.325 -0.0317  0.4148 -2.5606
  463MOL0     H63887   0.815   7.451   8.353 -1.0926 -0.6422  1.5291
  463MOL0     H63888   0.864   7.737   8.464 -2.3336 -0.8706  0.2869
  463MOL0     H63889   0.972   7.592   8.491  0.5684 -0.9721 -1.1530
  463MOL0     H63890   0.674   7.544   8.788 -0.3657  0.8981  0.5961
  463MOL0     H63891   0.724   7.643   7.850  0.8523 -1.1212  4.3548
  463MOL0     H63892   0.514   7.611   7.565 -0.2353  0.2344  1.1003
  463MOL0     H63893   0.609   7.718   7.665  2.8029  0.5442 -1.9080
  463MOL0     H63894   0.684   7.634   7.535 -0.4267 -1.0639 -0.6276
  464MOL0     O63895   2.338   5.143   2.969 -0.1281  0.2095 -0.7001
  464MOL0     C63896   2.395   5.045   3.030  0.0385  0.2308 -0.8650
  464MOL0     O63897   2.321   4.933   3.058  0.3800  0.2682 -0.1340
  464MOL0     C63898   2.188   4.951   3.026  0.3156 -0.0489 -0.1877
  464MOL0     C63899   2.157   4.923   2.886  0.5462 -0.0526 -0.7672
  464MOL0     C63900   2.036   4.947   2.829  0.1355  0.5920 -0.8294
  464MOL0     C63901   1.925   4.966   2.909 -0.0450 -0.0509  0.7267
  464MOL0     O63902   1.798   4.993   2.850 -0.7992  0.5392 -0.4189
  464MOL0     C63903   1.695   4.903   2.890 -0.8579  0.1973  0.4655
  464MOL0     C63904   1.701   4.785   2.783  0.1338 -1.6829  0.1487
  464MOL0     C63905   1.605   4.668   2.808 -0.2874  0.4061  0.0486
  464MOL0     C63906   1.662   4.540   2.891  0.0222  0.0825  0.1791
  464MOL0     C63907   1.661   4.537   3.048  0.4451 -0.5128 -0.3143
  464MOL0     C63908   1.521   4.557   3.115  0.6723 -0.8585 -1.0321
  464MOL0     C63909   1.502   4.493   3.254  0.0370 -0.5833 -0.0574
  464MOL0     C63910   1.608   4.554   3.350  1.2149 -0.0350 -0.4158
  464MOL0     N63911   1.590   4.700   3.375 -0.4410  0.7580 -1.0126
  464MOL0     C63912   1.534   4.754   3.489 -0.0275  0.6356 -0.0810
  464MOL0     C63913   1.558   4.888   3.481 -0.5039  0.0269 -0.1175
  464MOL0     C63914   1.499   4.997   3.565  0.4984 -1.0992 -0.7950
  464MOL0     C63915   1.615   5.083   3.632 -0.0223 -0.4763  0.2610
  464MOL0     C63916   1.580   5.210   3.699 -0.0300  0.0484  0.4175
  464MOL0     C63917   1.508   5.185   3.827  0.0407  0.5071 -0.0229
  464MOL0     O63918   1.610   5.149   3.929  0.0546  0.3412 -0.2867
  464MOL0     C63919   1.591   5.181   4.059  0.0501  0.3723 -1.0097
  464MOL0     C63920   1.468   5.227   4.115 -0.0906  0.1175 -0.7284
  464MOL0     C63921   1.463   5.278   4.247  0.2381  0.1992 -0.7267
  464MOL0     C63922   1.337   5.348   4.291 -0.3606  0.4832  0.5937
  464MOL0     C63923   1.583   5.277   4.329 -0.4203 -0.2345 -0.1032
  464MOL0     C63924   1.598   5.326   4.469 -0.2273  0.0759  0.2124
  464MOL0     O63925   1.725   5.369   4.521 -0.1078  0.6207 -0.2187
  464MOL0     C63926   1.728   5.451   4.635 -0.2765  0.3136 -0.5391
  464MOL0     C63927   1.852   5.451   4.690  0.3230 -0.0123 -0.0825
  464MOL0     C63928   1.880   5.532   4.803 -0.0006  0.0711  1.1034
  464MOL0     C63929   1.782   5.614   4.860 -0.6194  0.7183  0.3018
  464MOL0     O63930   1.823   5.695   4.963 -0.1024 -0.0113  0.6659
  464MOL0     C63931   1.733   5.768   5.047 -0.6596  0.1833 -1.1664
  464MOL0     C63932   1.811   5.881   5.112  0.4943 -0.6460  0.1569
  464MOL0     C63933   1.914   5.841   5.224  0.3975 -0.1492  0.4131
  464MOL0     C63934   1.986   5.965   5.279 -0.7817 -0.8492 -0.4108
  464MOL0     C63935   1.903   6.054   5.374  1.0923  0.0267  0.5486
  464MOL0     C63936   1.982   6.111   5.488 -0.3706 -0.1392  0.3080
  464MOL0     C63937   2.043   6.011   5.588  0.9710 -0.8220 -0.4379
  464MOL0     C63938   1.962   6.015   5.710 -0.5236 -0.5188  0.6175
  464MOL0    Cl63939   1.797   5.930   5.695  0.4143 -0.3179  0.2869
  464MOL0     C63940   1.653   5.616   4.795 -0.4031 -0.5118  0.4192
  464MOL0     C63941   1.640   5.532   4.690  0.3144 -0.2432  0.5947
  464MOL0     O63942   1.488   5.326   4.529 -0.6315 -0.1616 -0.0407
  464MOL0     C63943   1.701   5.229   4.276  0.1367 -0.0249  0.3693
  464MOL0     C63944   1.703   5.195   4.140  0.3565 -0.1201 -0.4960
  464MOL0     N63945   1.639   4.904   3.367 -0.0537 -0.2574 -0.3659
  464MOL0     N63946   1.662   4.797   3.310  0.2278  0.1947  0.8799
  464MOL0     C63947   1.949   4.972   3.044  0.9536  0.2813  0.4293
  464MOL0     C63948   2.078   4.960   3.107  0.2175 -0.1065  0.0098
  464MOL0     C63949   2.544   5.041   3.049 -0.3778  0.2874  0.2767
  464MOL0     C63950   2.599   4.919   3.085  0.2431 -1.1332 -0.2699
  464MOL0     C63951   2.734   4.904   3.103  0.2245 -0.1111 -0.3952
  464MOL0     C63952   2.823   5.002   3.091  0.0197  0.3350 -0.3050
  464MOL0     O63953   2.951   4.975   3.111 -0.0661  0.5090 -0.4184
  464MOL0     C63954   3.060   5.057   3.072 -0.5354 -0.7368 -0.4889
  464MOL0     C63955   3.091   5.151   3.183 -0.4642 -0.9679  0.5544
  464MOL0     C63956   3.175   5.272   3.145 -0.8033  1.8249  0.5440
  464MOL0     C63957   3.322   5.213   3.116 -0.0636  0.3192 -0.6297
  464MOL0     C63958   3.368   5.258   2.991 -0.1903  0.9026 -0.2955
  464MOL0     C63959   3.407   5.298   2.883  0.2995 -0.9340  0.0763
  464MOL0     C63960   2.773   5.123   3.053 -0.5548 -0.4103  0.2093
  464MOL0     C63961   2.642   5.149   3.031  0.2888  0.3607 -0.0231
  464MOL0     C63962   2.598   5.277   2.961  0.4845  0.3698 -0.1157
  464MOL0     H63963   2.236   4.893   2.818 -0.4132 -0.8440 -1.5737
  464MOL0     H63964   2.036   4.931   2.721  4.5800 -0.1226 -0.9511
  464MOL0     H63965   1.598   4.953   2.885  0.1480  2.2418  0.3103
  464MOL0     H63966   1.699   4.862   2.991 -3.0091 -0.9656  0.1398
  464MOL0     H63967   1.674   4.824   2.684 -1.6622 -1.1497  0.8038
  464MOL0     H63968   1.803   4.746   2.795  0.8747  0.6044  1.9800
  464MOL0     H63969   1.512   4.706   2.852 -1.3524 -0.6356 -1.2323
  464MOL0     H63970   1.588   4.629   2.707  0.2276  0.5612 -0.1004
  464MOL0     H63971   1.605   4.458   2.848  0.8160  0.0446 -0.8215
  464MOL0     H63972   1.766   4.519   2.865  0.8510  1.6696  1.8901
  464MOL0     H63973   1.730   4.611   3.091  3.5738 -2.1637 -2.1530
  464MOL0     H63974   1.700   4.437   3.071  2.6169  0.1939 -0.7282
  464MOL0     H63975   1.488   4.661   3.119  1.3671 -0.6316 -1.0518
  464MOL0     H63976   1.447   4.505   3.053 -1.1089 -0.1421  0.4173
  464MOL0     H63977   1.525   4.386   3.244 -2.7681 -1.1291 -2.0303
  464MOL0     H63978   1.406   4.503   3.305  0.7725  1.3375  1.0620
  464MOL0     H63979   1.591   4.497   3.442 -0.8916 -1.3425 -1.5396
  464MOL0     H63980   1.712   4.545   3.315  1.7373  0.2651  0.9748
  464MOL0     H63981   1.486   4.704   3.573  1.3266 -0.5250  0.0343
  464MOL0     H63982   1.443   4.939   3.639  0.7387 -2.3328 -1.5433
  464MOL0     H63983   1.426   5.049   3.503 -1.9599 -2.8433  0.4706
  464MOL0     H63984   1.656   5.016   3.707  0.5602  0.9617  1.2832
  464MOL0     H63985   1.687   5.121   3.558 -1.2299  3.0063  0.6543
  464MOL0     H63986   1.665   5.276   3.718 -3.0488  5.4724 -2.6679
  464MOL0     H63987   1.517   5.268   3.632 -0.8039 -0.4988  0.6535
  464MOL0     H63988   1.444   5.271   3.846 -0.4693 -0.0859  0.9972
  464MOL0     H63989   1.443   5.097   3.821 -1.6606  1.7226 -0.2019
  464MOL0     H63990   1.373   5.226   4.062 -0.5015 -0.5256  0.0061
  464MOL0     H63991   1.374   5.449   4.310  6.1103 -1.2340 -0.5728
  464MOL0     H63992   1.284   5.309   4.378  1.0646  1.2874  1.8663
  464MOL0     H63993   1.269   5.350   4.206  0.2995 -0.3116  0.0229
  464MOL0     H63994   1.928   5.383   4.653  1.7785  0.6815  1.4993
  464MOL0     H63995   1.980   5.527   4.845  0.6379  0.2217 -0.3071
  464MOL0     H63996   1.648   5.814   4.995 -0.2608 -0.2332 -2.2200
  464MOL0     H63997   1.697   5.703   5.127 -3.0239  3.0095  0.2380
  464MOL0     H63998   1.873   5.926   5.034 -1.3054  3.3544  0.7409
  464MOL0     H63999   1.734   5.956   5.137  1.1990  0.7973 -1.7782
  464MOL0     H64000   1.986   5.768   5.185 -1.3350 -4.4784  4.3053
  464MOL0     H64001   1.860   5.796   5.308  1.4355  2.5395  2.6460
  464MOL0     H64002   2.035   6.021   5.199  0.2382 -1.9828 -0.6177
  464MOL0     H64003   2.074   5.933   5.336  0.0045  2.5747  0.4767
  464MOL0     H64004   1.844   6.127   5.319  0.6320 -2.3632 -2.3890
  464MOL0     H64005   1.830   5.983   5.412  1.6723 -0.8002  0.1644
  464MOL0     H64006   1.898   6.163   5.535 -2.8431 -2.5253 -1.2134
  464MOL0     H64007   2.058   6.184   5.457 -0.8440 -0.3920 -1.5492
  464MOL0     H64008   2.139   6.051   5.622 -0.7017  3.1366  0.2245
  464MOL0     H64009   2.049   5.911   5.544 -1.0304 -1.5660  0.8088
  464MOL0     H64010   1.950   6.120   5.735  0.0130  0.2994 -2.2341
  464MOL0     H64011   2.018   5.960   5.786 -1.2701  0.4474  1.8987
  464MOL0     H64012   1.583   5.693   4.825  0.4499  0.6641 -0.4879
  464MOL0     H64013   1.551   5.546   4.630  0.3772  1.1969  0.8016
  464MOL0     H64014   1.791   5.227   4.336 -0.5909 -0.0951  1.4829
  464MOL0     H64015   1.791   5.155   4.091 -0.0557 -2.2735  0.3805
  464MOL0     H64016   1.856   4.977   3.098 -0.5946  1.6146 -2.1563
  464MOL0     H64017   2.099   4.959   3.213  0.0535 -0.2279  0.0413
  464MOL0     H64018   2.537   4.831   3.095 -2.3246  0.6372  0.4294
  464MOL0     H64019   2.761   4.801   3.125  0.1569 -0.0316  0.0559
  464MOL0     H64020   3.142   4.986   3.058 -0.5115 -0.8061 -0.0035
  464MOL0     H64021   3.025   5.104   2.980 -2.4399 -2.0851 -0.5259
  464MOL0     H64022   3.149   5.100   3.260  2.3087  0.6967 -0.2636
  464MOL0     H64023   2.997   5.188   3.224 -0.1946  0.8963 -0.3954
  464MOL0     H64024   3.139   5.306   3.047 -0.3621 -1.8715 -1.0948
  464MOL0     H64025   3.183   5.352   3.219  2.9887  0.4378  1.8986
  464MOL0     H64026   3.314   5.105   3.109  0.3238  0.2685 -0.3431
  464MOL0     H64027   3.395   5.248   3.191 -1.0013  3.4712 -1.0200
  464MOL0     H64028   3.444   5.307   2.783 -0.8437 -1.3258 -0.4021
  464MOL0     H64029   2.835   5.207   3.024 -3.4083  1.6196 -0.4885
  464MOL0     H64030   2.575   5.261   2.855  1.6579 -3.7401  0.0897
  464MOL0     H64031   2.515   5.327   3.011 -0.3910 -1.9150  0.8338
  464MOL0     H64032   2.678   5.351   2.958  1.2631 -0.3689  1.4498
  465MOL0     O64033   3.000   4.490   9.017  0.1693  0.7354  0.7077
  465MOL0     C64034   3.038   4.596   9.061 -0.2059  0.0025  0.2175
  465MOL0     O64035   2.953   4.687   9.134 -0.3803 -0.1518  0.6083
  465MOL0     C64036   2.820   4.670   9.163 -0.3911 -0.6033 -0.6408
  465MOL0     C64037   2.726   4.595   9.099 -0.0926  0.9625  0.4246
  465MOL0     C64038   2.594   4.591   9.138  0.8183  0.2258  0.1089
  465MOL0     C64039   2.550   4.677   9.239  0.5080  0.7450 -0.2124
  465MOL0     O64040   2.419   4.689   9.268 -0.1666  0.0460 -0.6086
  465MOL0     C64041   2.328   4.689   9.154  0.8792  0.4535 -0.0986
  465MOL0     C64042   2.197   4.748   9.192  0.3670 -0.3268 -0.2083
  465MOL0     C64043   2.113   4.752   9.065  0.6987  0.2554  0.1632
  465MOL0     C64044   1.967   4.778   9.099 -0.3061  0.0328  0.0661
  465MOL0     C64045   1.874   4.752   8.976 -0.2739 -1.1098 -0.7447
  465MOL0     C64046   1.895   4.855   8.872 -0.6337  0.0055 -0.4964
  465MOL0     C64047   1.899   5.009   8.911 -0.2220  0.4389 -0.1216
  465MOL0     C64048   1.788   5.061   9.000  0.1010  1.1731  0.0011
  465MOL0     N64049   1.774   5.202   9.014 -0.0286 -1.5340 -0.5857
  465MOL0     C64050   1.763   5.292   8.916 -0.0343  0.4958 -0.2592
  465MOL0     C64051   1.760   5.421   8.964  0.1656  0.2033 -1.3504
  465MOL0     C64052   1.760   5.550   8.895  0.3425 -0.2748 -0.4792
  465MOL0     C64053   1.696   5.675   8.973 -0.1948 -0.5653  0.1709
  465MOL0     C64054   1.812   5.729   9.058 -0.1674  0.2925 -0.6963
  465MOL0     C64055   1.775   5.852   9.149  0.3853 -0.3239  0.0280
  465MOL0     O64056   1.666   5.807   9.237 -0.4456  1.4357  0.8855
  465MOL0     C64057   1.587   5.889   9.310  0.3483  0.0112 -0.1013
  465MOL0     C64058   1.603   6.022   9.313  0.6242 -0.5768 -0.6530
  465MOL0     C64059   1.520   6.103   9.390  0.7230  0.5645  0.1870
  465MOL0     C64060   1.569   6.252   9.388  0.1426  0.4531 -0.2561
  465MOL0     C64061   1.415   6.054   9.466 -0.2745  0.3586  0.0642
  465MOL0     C64062   1.330   6.141   9.552 -0.2715  0.7905 -0.3406
  465MOL0     O64063   1.254   6.073   9.636  0.4361  0.0927 -0.5577
  465MOL0     C64064   1.190   6.149   9.737  0.6244 -0.0193  0.2474
  465MOL0     C64065   1.244   6.168   9.863 -0.9669 -0.1960  0.3967
  465MOL0     C64066   1.171   6.232   9.962  0.4979 -0.9918  0.7373
  465MOL0     C64067   1.043   6.291   9.930 -0.0125 -0.0799 -0.6729
  465MOL0     O64068   0.969   6.375  10.015  0.1075  0.7922  0.2315
  465MOL0     C64069   1.039   6.499  10.062  1.0981 -0.0420 -0.1804
  465MOL0     C64070   1.008   6.609   9.959  0.1095 -0.2190 -0.6598
  465MOL0     C64071   1.102   6.734   9.979  0.5151 -0.5711  0.2555
  465MOL0     C64072   1.041   6.859   9.899  0.3762  0.1213 -0.9175
  465MOL0     C64073   0.937   6.930   9.988  0.0019 -0.6286 -0.1990
  465MOL0     C64074   0.876   7.054   9.917 -0.3915 -0.0177 -0.0656
  465MOL0     C64075   0.758   7.113   9.986  0.2479  0.5154 -0.1557
  465MOL0     C64076   0.793   7.203  10.099  0.3961 -0.4078  0.3753
  465MOL0    Cl64077   0.635   7.279  10.174 -0.3306  0.4402  0.1531
  465MOL0     C64078   0.989   6.264   9.801 -0.5455 -0.6075  0.0894
  465MOL0     C64079   1.066   6.203   9.698 -0.8022 -0.7731 -0.3692
  465MOL0     O64080   1.336   6.262   9.538 -0.6558 -0.2590 -0.0058
  465MOL0     C64081   1.401   5.917   9.471  0.3313 -0.1730 -0.3356
  465MOL0     C64082   1.486   5.836   9.392  0.2866 -0.0752 -0.0979
  465MOL0     N64083   1.755   5.406   9.103  0.1850  0.7838  0.1191
  465MOL0     N64084   1.763   5.280   9.128 -0.4247  0.2167 -0.6219
  465MOL0     C64085   2.644   4.752   9.309 -0.2457  0.2972  0.7100
  465MOL0     C64086   2.777   4.749   9.271  0.1977 -0.0286  0.6513
  465MOL0     C64087   3.189   4.617   9.032 -0.5615 -0.1138 -0.4986
  465MOL0     C64088   3.253   4.527   8.941  0.2374 -0.2803 -0.7335
  465MOL0     C64089   3.385   4.540   8.919 -0.5048 -0.7797  0.0551
  465MOL0     C64090   3.463   4.653   8.966 -1.3465  1.0153 -0.5350
  465MOL0     O64091   3.591   4.677   8.921 -0.2018 -0.2932  0.1028
  465MOL0     C64092   3.630   4.624   8.793 -1.0456  0.3374 -0.0492
  465MOL0     C64093   3.561   4.687   8.675  0.1288  0.4582 -0.4277
  465MOL0     C64094   3.626   4.819   8.649 -0.1599  0.0833  0.2058
  465MOL0     C64095   3.751   4.825   8.563 -0.5319 -0.8233  0.6260
  465MOL0     C64096   3.703   4.780   8.431 -0.0832  0.9929  0.7307
  465MOL0     C64097   3.644   4.745   8.329 -0.3537 -1.9563  0.4491
  465MOL0     C64098   3.393   4.733   9.058 -0.8221  0.2838  0.7635
  465MOL0     C64099   3.256   4.720   9.095  0.3232  0.8393 -0.6752
  465MOL0     C64100   3.198   4.810   9.202 -0.0157  0.2144  1.1126
  465MOL0     H64101   2.730   4.529   9.013 -0.2296  1.0308  0.3661
  465MOL0     H64102   2.524   4.526   9.086  2.4536 -1.0660 -0.5744
  465MOL0     H64103   2.320   4.583   9.127  0.0416 -0.0832  2.0510
  465MOL0     H64104   2.363   4.748   9.069  3.4772  0.0508  0.6123
  465MOL0     H64105   2.149   4.681   9.264 -1.0529  2.9160  2.0804
  465MOL0     H64106   2.217   4.847   9.234  1.6502 -1.4719  2.1110
  465MOL0     H64107   2.155   4.824   8.994  1.3698  0.8435  1.1256
  465MOL0     H64108   2.110   4.657   9.011 -0.8380  2.5111 -4.2248
  465MOL0     H64109   1.932   4.704   9.170  0.0255 -1.4237 -1.2312
  465MOL0     H64110   1.948   4.874   9.148  3.4529  1.5870 -1.1034
  465MOL0     H64111   1.769   4.741   9.006  0.1448  1.2679  2.0276
  465MOL0     H64112   1.903   4.654   8.935  1.1280 -1.5470  1.1553
  465MOL0     H64113   1.969   4.815   8.802 -1.2218  0.0149 -1.1321
  465MOL0     H64114   1.802   4.855   8.815  0.5145 -0.7195 -2.4568
  465MOL0     H64115   1.906   5.062   8.815  0.8095 -0.4121 -0.5350
  465MOL0     H64116   1.996   5.035   8.953 -0.1481  1.6285 -0.9843
  465MOL0     H64117   1.693   5.031   8.955  0.2925 -0.1493  0.4511
  465MOL0     H64118   1.788   5.018   9.100  2.7317 -1.8714 -1.1757
  465MOL0     H64119   1.765   5.258   8.813 -2.2472 -1.6211  0.3039
  465MOL0     H64120   1.687   5.533   8.815 -0.6690  1.2783  0.0518
  465MOL0     H64121   1.851   5.575   8.840 -1.3137  0.7465 -2.9277
  465MOL0     H64122   1.665   5.760   8.913 -1.2693 -1.8650 -1.1985
  465MOL0     H64123   1.608   5.642   9.029  0.1903 -0.9293  0.5792
  465MOL0     H64124   1.847   5.649   9.124  0.8075  1.2907  0.0279
  465MOL0     H64125   1.898   5.754   8.995  1.0539 -0.5011  0.5949
  465MOL0     H64126   1.857   5.886   9.213 -0.4754 -1.5345  1.8678
  465MOL0     H64127   1.744   5.933   9.082 -0.1620  0.8410  1.6112
  465MOL0     H64128   1.684   6.063   9.253 -1.4170  4.6099 -0.3575
  465MOL0     H64129   1.581   6.278   9.494 -2.0585 -0.0275  0.1563
  465MOL0     H64130   1.480   6.308   9.358  0.4043  0.3797 -1.2046
  465MOL0     H64131   1.667   6.275   9.344  1.7143  1.1733  3.2697
  465MOL0     H64132   1.343   6.133   9.891 -1.7165 -2.8892  0.0364
  465MOL0     H64133   1.211   6.262  10.058 -0.9942  1.4100  0.6790
  465MOL0     H64134   0.992   6.526  10.157  4.2045  2.5671  0.7844
  465MOL0     H64135   1.145   6.483  10.081  1.2015  0.7872 -0.0447
  465MOL0     H64136   1.032   6.564   9.862  0.1496 -2.9246  0.5023
  465MOL0     H64137   0.905   6.643   9.972  1.2374  4.3809 -2.0439
  465MOL0     H64138   1.198   6.700   9.938 -0.0097 -2.3574  0.3867
  465MOL0     H64139   1.120   6.759  10.083  1.0892  1.7366 -0.3597
  465MOL0     H64140   1.014   6.834   9.796 -1.3135 -0.4285 -0.3810
  465MOL0     H64141   1.122   6.931   9.891  2.3053 -1.6325  1.5481
  465MOL0     H64142   0.862   6.861  10.029  2.4199 -3.3296  0.0090
  465MOL0     H64143   0.993   6.962  10.077  0.3571 -1.3523 -0.1535
  465MOL0     H64144   0.858   7.021   9.814 -1.2242 -1.5876  0.5384
  465MOL0     H64145   0.956   7.128   9.911 -0.4181  0.0424  0.2992
  465MOL0     H64146   0.699   7.033  10.031  1.1783  1.6415  3.3453
  465MOL0     H64147   0.705   7.170   9.909 -4.1472 -0.8148  1.5899
  465MOL0     H64148   0.854   7.286  10.061 -0.2059 -1.1244 -2.3999
  465MOL0     H64149   0.839   7.152  10.184 -2.4678 -2.4025  0.8634
  465MOL0     H64150   0.899   6.319   9.777  1.8797  4.7862  1.8240
  465MOL0     H64151   1.040   6.196   9.593  0.5638 -0.2734 -0.7598
  465MOL0     H64152   1.317   5.880   9.529 -2.6522  1.4823 -3.2736
  465MOL0     H64153   1.477   5.728   9.398 -0.0082 -0.0880 -0.6526
  465MOL0     H64154   2.617   4.822   9.388 -0.8040 -0.5344  1.2655
  465MOL0     H64155   2.851   4.822   9.303  1.2435 -0.1426 -1.2998
  465MOL0     H64156   3.199   4.452   8.884  3.7192 -3.4707 -0.2245
  465MOL0     H64157   3.437   4.461   8.866 -0.6576 -0.3141 -0.8100
  465MOL0     H64158   3.738   4.627   8.779 -0.7890 -0.7268  1.4533
  465MOL0     H64159   3.607   4.517   8.802 -1.4861  0.3913 -0.4588
  465MOL0     H64160   3.453   4.696   8.690  0.3115 -0.6431  2.3593
  465MOL0     H64161   3.574   4.609   8.600  0.5032  2.7036 -2.8208
  465MOL0     H64162   3.560   4.897   8.611  0.9615  2.7971  3.3935
  465MOL0     H64163   3.652   4.863   8.746 -0.4939 -2.5476  1.6017
  465MOL0     H64164   3.835   4.766   8.600  0.5004  1.9116  3.0487
  465MOL0     H64165   3.792   4.925   8.550  0.0413 -1.0536  0.6336
  465MOL0     H64166   3.591   4.704   8.245 -3.4225  3.5974 -0.8692
  465MOL0     H64167   3.450   4.819   9.090  4.1514 -1.9428 -1.1501
  465MOL0     H64168   3.282   4.863   9.247 -0.3054  0.3147  1.5395
  465MOL0     H64169   3.128   4.881   9.156 -0.8454  0.1478  2.2364
  465MOL0     H64170   3.147   4.770   9.290 -1.4812  0.6004  0.4670
  466MOL0     O64171   8.529   8.378   8.235 -0.2495  0.0575 -0.4375
  466MOL0     C64172   8.638   8.421   8.277  0.2533  0.0187 -0.1400
  466MOL0     O64173   8.658   8.555   8.308 -0.1702 -0.0522  0.6305
  466MOL0     C64174   8.577   8.653   8.256 -0.2681  0.0873 -1.2031
  466MOL0     C64175   8.552   8.658   8.120 -0.6985 -0.0518 -0.1180
  466MOL0     C64176   8.473   8.755   8.056 -0.9710  0.3808  0.6318
  466MOL0     C64177   8.426   8.870   8.126  1.1537  0.8287 -0.4843
  466MOL0     O64178   8.344   8.962   8.071  0.3983 -0.3134  0.2356
  466MOL0     C64179   8.378   9.017   7.946  0.6949  0.1362 -0.0068
  466MOL0     C64180   8.292   9.134   7.913  0.4236 -0.3826  0.0816
  466MOL0     C64181   8.287   9.150   7.758 -0.2721 -0.0076 -1.0614
  466MOL0     C64182   8.215   9.278   7.715 -0.0555  0.4855  0.0034
  466MOL0     C64183   8.202   9.286   7.566 -0.2738 -0.8961 -0.7523
  466MOL0     C64184   8.164   9.425   7.511 -0.2293  0.0984 -0.7794
  466MOL0     C64185   8.280   9.530   7.521  0.3288 -0.2093 -1.0044
  466MOL0     C64186   8.247   9.656   7.443 -0.4466  0.1182  0.0728
  466MOL0     N64187   8.135   9.723   7.504 -0.2703  0.2943 -0.5493
  466MOL0     C64188   8.008   9.732   7.444  0.4376 -0.4078 -0.2299
  466MOL0     C64189   7.943   9.845   7.498  0.8540  0.5336 -0.0619
  466MOL0     C64190   7.809   9.904   7.464  0.0086 -1.3561 -1.1288
  466MOL0     C64191   7.747   9.990   7.584  0.5739 -0.6702  0.7208
  466MOL0     C64192   7.611  10.057   7.540 -0.2944  0.4436 -1.2282
  466MOL0     C64193   7.568  10.163   7.633 -0.0638  0.2050  0.2730
  466MOL0     O64194   7.560  10.109   7.769 -0.4477 -0.4395 -0.4724
  466MOL0     C64195   7.506  10.190   7.874  0.6230  0.1350  0.2233
  466MOL0     C64196   7.424  10.308   7.861 -0.2606 -0.1841  1.1365
  466MOL0     C64197   7.372  10.371   7.969 -0.4982 -0.3584 -0.9182
  466MOL0     C64198   7.298  10.496   7.931 -0.1310 -0.0326  0.1207
  466MOL0     C64199   7.402  10.325   8.100  0.2443 -0.5287 -0.2493
  466MOL0     C64200   7.381  10.405   8.229  0.7658 -0.4038 -0.3161
  466MOL0     O64201   7.441  10.359   8.342  0.4921  0.0541 -0.0634
  466MOL0     C64202   7.427  10.414   8.463 -0.2101  0.1784 -0.6797
  466MOL0     C64203   7.373  10.336   8.563  0.6372 -0.5707  1.2795
  466MOL0     C64204   7.359  10.393   8.687  0.0785 -1.0188  0.0061
  466MOL0     C64205   7.386  10.522   8.719 -0.4118 -0.7704 -0.0149
  466MOL0     O64206   7.347  10.567   8.839 -0.0628 -0.2276 -0.5143
  466MOL0     C64207   7.277  10.684   8.839 -0.2677 -0.3512  0.2382
  466MOL0     C64208   7.134  10.657   8.792  0.1278 -0.5013  0.5447
  466MOL0     C64209   7.072  10.795   8.783  0.5058  0.1065 -0.6339
  466MOL0     C64210   7.025  10.856   8.911  0.4598  0.0802 -0.6565
  466MOL0     C64211   6.950  10.981   8.881 -0.1287  0.2312 -0.1005
  466MOL0     C64212   6.881  11.053   8.988 -0.0802 -1.0003  0.1064
  466MOL0     C64213   6.961  11.056   9.115 -0.2616  0.2267  0.6730
  466MOL0     C64214   6.910  11.156   9.216  0.0610  0.0869 -0.4475
  466MOL0    Cl64215   7.025  11.199   9.350  0.7627  0.0554  0.3699
  466MOL0     C64216   7.447  10.600   8.613  0.0318  0.6730 -0.6563
  466MOL0     C64217   7.473  10.543   8.487  0.2235 -0.1671 -0.4834
  466MOL0     O64218   7.298  10.492   8.229 -0.5743 -0.5594  0.9668
  466MOL0     C64219   7.480  10.204   8.113 -0.6214  0.2860  0.2893
  466MOL0     C64220   7.531  10.139   7.996  0.8555 -0.4686 -0.1397
  466MOL0     N64221   8.031   9.892   7.594 -0.3865  0.0765 -0.2535
  466MOL0     N64222   8.144   9.827   7.590  0.6881 -0.2592 -0.0415
  466MOL0     C64223   8.440   8.863   8.270  0.1006  1.4497 -0.3700
  466MOL0     C64224   8.524   8.764   8.330  0.0902 -0.1920 -0.4264
  466MOL0     C64225   8.736   8.314   8.317  1.2150  0.8303  0.4267
  466MOL0     C64226   8.731   8.191   8.245  0.6801  0.3864 -0.7212
  466MOL0     C64227   8.791   8.077   8.297  0.6110  0.6084  1.1728
  466MOL0     C64228   8.852   8.079   8.423 -0.1067 -0.7353  0.0553
  466MOL0     O64229   8.908   7.973   8.484  0.8505  0.1142  0.2290
  466MOL0     C64230   8.960   7.864   8.409  0.3996  0.5007  0.5204
  466MOL0     C64231   8.870   7.741   8.412 -0.5837 -0.4595 -0.2114
  466MOL0     C64232   8.942   7.627   8.486 -0.0986 -0.0045  0.2711
  466MOL0     C64233   8.892   7.480   8.464 -0.1097 -0.6883 -0.5427
  466MOL0     C64234   8.903   7.398   8.590  0.0001  0.0789 -0.9832
  466MOL0     C64235   8.895   7.342   8.694 -0.6525 -0.1342 -0.6984
  466MOL0     C64236   8.865   8.207   8.489 -0.3189  0.6431  0.7944
  466MOL0     C64237   8.808   8.324   8.429 -0.6786 -0.3273 -0.2048
  466MOL0     C64238   8.822   8.439   8.518  0.7304  1.1245 -0.1351
  466MOL0     H64239   8.613   8.592   8.058  1.1728  2.4389 -1.0991
  466MOL0     H64240   8.452   8.747   7.950 -0.7429  0.5167  0.5765
  466MOL0     H64241   8.371   8.944   7.864 -2.9097  0.0535  0.2466
  466MOL0     H64242   8.481   9.054   7.945  0.5562  0.5573  0.9357
  466MOL0     H64243   8.196   9.123   7.964  0.9600 -0.7480  1.0316
  466MOL0     H64244   8.343   9.220   7.957 -2.0022  0.5665  1.2139
  466MOL0     H64245   8.390   9.153   7.721  0.0729  3.2575 -0.1136
  466MOL0     H64246   8.234   9.061   7.721  1.6878 -0.1475 -3.8304
  466MOL0     H64247   8.116   9.294   7.758 -1.4663  0.8751 -3.0698
  466MOL0     H64248   8.271   9.362   7.757  0.8871 -0.0492 -0.1497
  466MOL0     H64249   8.131   9.217   7.520 -0.7847  0.4633 -2.0942
  466MOL0     H64250   8.296   9.254   7.519 -0.5133 -0.7591 -1.3414
  466MOL0     H64251   8.137   9.410   7.406 -0.9871  2.3781 -0.9656
  466MOL0     H64252   8.079   9.455   7.573 -1.3737 -1.7054 -1.3941
  466MOL0     H64253   8.368   9.484   7.475  0.2191 -4.1997  2.1942
  466MOL0     H64254   8.303   9.539   7.627 -0.2844 -0.5950 -0.8311
  466MOL0     H64255   8.337   9.718   7.441 -0.3644 -0.0164 -0.5252
  466MOL0     H64256   8.237   9.616   7.342 -1.5973  0.7733 -0.0839
  466MOL0     H64257   7.969   9.654   7.379  4.9162 -1.7850 -1.6324
  466MOL0     H64258   7.741   9.821   7.440 -3.5703  1.0925 -0.3492
  466MOL0     H64259   7.821   9.972   7.379  1.1176 -0.4802 -0.2950
  466MOL0     H64260   7.743   9.936   7.679 -1.0126  0.1885  1.1811
  466MOL0     H64261   7.811  10.079   7.593 -0.1526 -0.2627  2.1465
  466MOL0     H64262   7.617  10.082   7.434  0.3676  2.3644 -0.7767
  466MOL0     H64263   7.542   9.972   7.543  1.4861 -1.1880  3.9117
  466MOL0     H64264   7.629  10.254   7.631 -0.7937  0.8224  2.4480
  466MOL0     H64265   7.475  10.195   7.584  1.9449  3.7987 -1.5907
  466MOL0     H64266   7.398  10.329   7.758  1.6441 -0.8115  0.4752
  466MOL0     H64267   7.236  10.479   7.842 -0.8998 -3.8653  1.2383
  466MOL0     H64268   7.381  10.566   7.917  1.0713 -1.6019 -0.8900
  466MOL0     H64269   7.232  10.538   8.008  1.1298 -0.0719  1.2644
  466MOL0     H64270   7.332  10.236   8.556 -0.2263 -0.2307  1.4526
  466MOL0     H64271   7.312  10.336   8.767 -1.1898 -0.2439 -0.1532
  466MOL0     H64272   7.273  10.725   8.940 -1.7628 -0.4910  0.2610
  466MOL0     H64273   7.323  10.763   8.779  0.6389 -0.1192  1.2127
  466MOL0     H64274   7.129  10.627   8.687 -1.9970 -1.1462  0.7875
  466MOL0     H64275   7.086  10.583   8.857  0.6558  0.3605  1.9722
  466MOL0     H64276   6.985  10.779   8.719 -0.1393  0.5249  0.1202
  466MOL0     H64277   7.146  10.861   8.737  2.2180  0.9353  2.9593
  466MOL0     H64278   7.101  10.861   8.989 -1.2268 -0.5850  1.0907
  466MOL0     H64279   6.956  10.784   8.955  0.3297 -0.1044 -1.1510
  466MOL0     H64280   7.031  11.046   8.848  2.5353 -0.4851  4.1841
  466MOL0     H64281   6.876  10.945   8.808 -0.4890 -0.7148  0.6995
  466MOL0     H64282   6.784  11.005   9.006 -0.6977  0.9826  2.7129
  466MOL0     H64283   6.861  11.155   8.954 -3.6574 -1.1814  1.2657
  466MOL0     H64284   7.065  11.081   9.093  0.7374 -4.3037 -0.8515
  466MOL0     H64285   6.982  10.959   9.161  0.1009 -0.3986 -0.7297
  466MOL0     H64286   6.811  11.136   9.257  1.3569 -1.8631  1.9824
  466MOL0     H64287   6.893  11.242   9.150  0.8292 -0.3219 -1.2087
  466MOL0     H64288   7.472  10.702   8.638 -0.7003  0.1513  2.6807
  466MOL0     H64289   7.525  10.588   8.403  2.3641 -0.4421  0.6434
  466MOL0     H64290   7.533  10.164   8.199  0.5660  1.5777  0.2165
  466MOL0     H64291   7.598  10.055   8.010  2.0171  0.1591 -1.6504
  466MOL0     H64292   8.395   8.946   8.324 -2.9740 -0.3432  0.0699
  466MOL0     H64293   8.546   8.764   8.436  2.6912 -0.5919 -0.8919
  466MOL0     H64294   8.678   8.176   8.152  1.8699 -0.4067 -1.3059
  466MOL0     H64295   8.773   7.980   8.250  0.9109  1.3558 -0.5475
  466MOL0     H64296   8.977   7.892   8.304  0.7402 -2.2212 -0.2327
  466MOL0     H64297   9.053   7.844   8.462  0.7900  2.3035  0.5678
  466MOL0     H64298   8.840   7.699   8.316 -1.1016 -1.2045  0.2657
  466MOL0     H64299   8.775   7.769   8.459 -1.6138 -2.4902 -0.9764
  466MOL0     H64300   9.039   7.624   8.437 -0.5400  0.2262 -0.6487
  466MOL0     H64301   8.961   7.660   8.588  2.5287  2.3298 -0.8527
  466MOL0     H64302   8.960   7.428   8.396  3.0231 -3.5717  4.1731
  466MOL0     H64303   8.787   7.478   8.431 -0.0529  2.2044 -1.1582
  466MOL0     H64304   8.892   7.283   8.783  1.5185  0.3656 -0.2416
  466MOL0     H64305   8.920   8.203   8.582  1.9204  1.8821 -0.3811
  466MOL0     H64306   8.865   8.518   8.456 -0.1162  2.4059  0.8677
  466MOL0     H64307   8.724   8.465   8.557  1.2950  1.8395  0.8403
  466MOL0     H64308   8.892   8.423   8.600  0.2562 -1.7387 -0.1816
  467MOL0     O64309  10.409   8.990   5.706 -1.2019 -0.4661 -0.0878
  467MOL0     C64310  10.331   8.954   5.619 -0.8413 -0.5249 -0.3912
  467MOL0     O64311  10.241   8.858   5.639  0.3879  0.7913  0.0086
  467MOL0     C64312  10.209   8.816   5.767  0.1498 -0.1475 -0.5572
  467MOL0     C64313  10.120   8.889   5.845  0.1759  0.7844 -0.2404
  467MOL0     C64314  10.091   8.846   5.977 -1.0768 -0.8848  0.0629
  467MOL0     C64315  10.160   8.734   6.035 -0.1017 -0.4136  0.3508
  467MOL0     O64316  10.160   8.685   6.157  0.4663 -0.1233  1.0228
  467MOL0     C64317  10.087   8.755   6.258  0.9618  0.4776 -0.8305
  467MOL0     C64318  10.091   8.693   6.401  0.3127 -0.4226 -0.2865
  467MOL0     C64319  10.035   8.556   6.397 -0.4606  0.1465 -0.4458
  467MOL0     C64320  10.044   8.480   6.525 -0.0226 -0.3061 -0.7712
  467MOL0     C64321   9.944   8.376   6.518  1.0192  0.0461  0.4843
  467MOL0     C64322   9.961   8.287   6.639 -0.1245 -0.0670  0.2186
  467MOL0     C64323  10.088   8.195   6.642  0.0603  0.4329  0.7865
  467MOL0     C64324  10.101   8.118   6.511 -0.9037 -0.3181  0.1130
  467MOL0     N64325  10.196   8.009   6.521  0.8664  0.6571  0.1242
  467MOL0     C64326  10.289   7.997   6.621 -1.0476 -0.3012 -0.0588
  467MOL0     C64327  10.350   7.874   6.588 -1.1586  0.4398  0.0522
  467MOL0     C64328  10.464   7.803   6.663  0.1844 -0.6937  0.7598
  467MOL0     C64329  10.562   7.711   6.586  0.3125  0.2468 -0.2362
  467MOL0     C64330  10.705   7.720   6.643  0.6457  0.4336 -0.8183
  467MOL0     C64331  10.798   7.788   6.554 -0.3070  0.2486  0.7956
  467MOL0     O64332  10.928   7.793   6.606 -0.2810 -0.6575 -0.9229
  467MOL0     C64333  11.039   7.790   6.520  0.1480  0.5444 -0.9827
  467MOL0     C64334  11.160   7.765   6.567  0.3066 -0.2037  0.4291
  467MOL0     C64335  11.280   7.781   6.499 -0.5135  0.5127  0.5801
  467MOL0     C64336  11.404   7.719   6.564  0.6791  0.6732 -0.1694
  467MOL0     C64337  11.277   7.821   6.363  0.2041 -0.1908  0.0152
  467MOL0     C64338  11.405   7.837   6.283  1.0216  0.1345 -0.6027
  467MOL0     O64339  11.467   7.728   6.240 -0.0451 -0.4164  0.0423
  467MOL0     C64340  11.577   7.737   6.154  0.6016 -0.5111  0.0239
  467MOL0     C64341  11.682   7.655   6.182 -0.2034  0.7626 -0.0358
  467MOL0     C64342  11.803   7.652   6.113  0.4639 -1.1090  0.5868
  467MOL0     C64343  11.822   7.746   6.008  0.2092  0.2801 -0.3820
  467MOL0     O64344  11.929   7.739   5.928 -0.0864  0.3883  0.3467
  467MOL0     C64345  12.062   7.740   5.996  0.4479 -0.6350  0.2630
  467MOL0     C64346  12.142   7.816   5.900  0.3694  0.2751 -0.5855
  467MOL0     C64347  12.294   7.804   5.941 -0.5287  0.5756  0.0145
  467MOL0     C64348  12.382   7.920   5.869  0.0193 -0.6144  0.0997
  467MOL0     C64349  12.519   7.929   5.922 -0.1020  0.8489 -0.7594
  467MOL0     C64350  12.521   7.973   6.070 -0.3344 -1.0022  0.0378
  467MOL0     C64351  12.667   7.980   6.128  0.2197  0.2844 -0.2162
  467MOL0     C64352  12.690   8.005   6.272 -0.1594  0.8877 -0.0221
  467MOL0    Cl64353  12.666   8.173   6.328  0.3163  0.5277  0.1377
  467MOL0     C64354  11.716   7.834   5.981  0.6579  0.6442  0.7103
  467MOL0     C64355  11.595   7.828   6.047 -0.3723  0.4295 -0.3062
  467MOL0     O64356  11.436   7.952   6.268  0.2827  0.3729  0.1395
  467MOL0     C64357  11.144   7.834   6.310 -0.0673  0.0802 -0.3198
  467MOL0     C64358  11.034   7.836   6.386  0.8278 -0.3154 -0.6886
  467MOL0     N64359  10.285   7.826   6.474  0.6485 -0.0580 -0.2916
  467MOL0     N64360  10.199   7.901   6.435  0.2068 -0.9549 -0.2511
  467MOL0     C64361  10.243   8.654   5.956  0.6658  0.0171  0.0991
  467MOL0     C64362  10.261   8.697   5.826 -0.2750  0.1242  0.6462
  467MOL0     C64363  10.317   9.033   5.497  0.5130 -0.2526  0.3706
  467MOL0     C64364  10.361   9.167   5.490  0.0907 -0.1201  0.5109
  467MOL0     C64365  10.337   9.256   5.381 -0.7843 -0.9310  0.1838
  467MOL0     C64366  10.268   9.212   5.269 -0.6538 -0.1116 -0.3506
  467MOL0     O64367  10.230   9.279   5.163 -0.2333 -0.7632  0.2138
  467MOL0     C64368  10.254   9.415   5.157 -0.1836  0.7271 -0.7251
  467MOL0     C64369  10.159   9.485   5.257  0.2634  0.7897  0.0924
  467MOL0     C64370  10.186   9.630   5.278 -0.2445 -0.5738  0.6744
  467MOL0     C64371  10.066   9.683   5.364  0.1324 -0.1577 -0.1219
  467MOL0     C64372  10.058   9.834   5.382 -0.8539  0.2374 -0.3820
  467MOL0     C64373  10.065   9.950   5.418  0.4439 -0.4155  0.6530
  467MOL0     C64374  10.225   9.075   5.266 -0.1259  0.1450  0.1632
  467MOL0     C64375  10.244   8.989   5.381 -1.0045 -0.0377 -0.1476
  467MOL0     C64376  10.189   8.852   5.370  0.5210  0.0641  0.2718
  467MOL0     H64377  10.071   8.975   5.803 -1.0222  0.5786  0.6849
  467MOL0     H64378  10.024   8.910   6.034  2.1858  1.5029  1.5750
  467MOL0     H64379   9.985   8.762   6.219  1.5103  2.9618 -2.0160
  467MOL0     H64380  10.117   8.858   6.279 -0.7950  0.9775 -0.6118
  467MOL0     H64381  10.191   8.704   6.444 -0.8625 -0.3444  2.7298
  467MOL0     H64382  10.033   8.752   6.474  1.5412  0.0833  0.3190
  467MOL0     H64383   9.928   8.570   6.382 -0.3927  0.4697 -0.6209
  467MOL0     H64384  10.078   8.495   6.316 -1.3330 -0.4731 -0.4548
  467MOL0     H64385  10.144   8.442   6.549 -0.6958 -0.9869  1.1382
  467MOL0     H64386  10.028   8.550   6.608  3.3929 -0.9740  0.6102
  467MOL0     H64387   9.960   8.314   6.429 -1.9069 -0.3854  0.1530
  467MOL0     H64388   9.843   8.417   6.515  0.0851 -1.6695  3.8839
  467MOL0     H64389   9.965   8.343   6.733  2.3667 -1.8360  1.2877
  467MOL0     H64390   9.878   8.217   6.648 -0.7804  0.5512 -0.7654
  467MOL0     H64391  10.064   8.118   6.716 -4.4064  0.0422 -0.7658
  467MOL0     H64392  10.174   8.261   6.651  1.6757 -1.5529  0.7696
  467MOL0     H64393  10.008   8.072   6.477 -0.2516  0.3906 -3.0257
  467MOL0     H64394  10.143   8.191   6.441  0.9335  0.2930  1.7610
  467MOL0     H64395  10.314   8.055   6.709  1.2908  0.7234 -1.3127
  467MOL0     H64396  10.408   7.733   6.727  0.9953  0.7256  3.1649
  467MOL0     H64397  10.512   7.877   6.728 -2.1913  0.9039  0.7992
  467MOL0     H64398  10.526   7.608   6.580  1.2861 -0.0828 -0.5608
  467MOL0     H64399  10.562   7.743   6.482  0.6057 -0.7526 -0.5513
  467MOL0     H64400  10.699   7.779   6.735 -0.3819 -0.1095 -0.5228
  467MOL0     H64401  10.728   7.616   6.668 -0.5480  0.0462 -1.2390
  467MOL0     H64402  10.794   7.725   6.465  0.0578  0.3911  0.6793
  467MOL0     H64403  10.769   7.887   6.518 -0.0555  0.4454  1.1275
  467MOL0     H64404  11.154   7.718   6.665  1.2974 -0.0159  0.5908
  467MOL0     H64405  11.446   7.634   6.509  2.3222  0.8823  0.7024
  467MOL0     H64406  11.376   7.685   6.664 -0.5093  2.9201  0.3159
  467MOL0     H64407  11.485   7.791   6.579  0.3156  0.8511  1.0366
  467MOL0     H64408  11.663   7.593   6.269 -0.6627  1.7183  0.5644
  467MOL0     H64409  11.880   7.578   6.130  1.0321 -0.3553  1.4145
  467MOL0     H64410  12.068   7.798   6.089  2.7029  2.2724 -1.5389
  467MOL0     H64411  12.088   7.635   6.016 -1.0666 -1.1943 -0.5257
  467MOL0     H64412  12.154   7.774   5.800  0.1926  0.5235 -0.7143
  467MOL0     H64413  12.104   7.919   5.898 -1.4978 -0.3485  0.6079
  467MOL0     H64414  12.332   7.705   5.913 -2.2834 -0.2924  0.5741
  467MOL0     H64415  12.296   7.801   6.050  4.7464  0.8189  0.1743
  467MOL0     H64416  12.328   8.015   5.876 -0.3673 -0.8094 -0.2057
  467MOL0     H64417  12.394   7.893   5.764  1.3255 -1.7658  0.5107
  467MOL0     H64418  12.570   7.832   5.923  1.8247  1.8321  0.2061
  467MOL0     H64419  12.579   7.980   5.846  2.0038 -2.6732 -1.7124
  467MOL0     H64420  12.457   7.908   6.130  0.1764 -0.1502  1.5429
  467MOL0     H64421  12.486   8.076   6.074 -1.6965 -1.4803  0.9692
  467MOL0     H64422  12.733   8.039   6.064 -1.7913  1.3088 -1.4543
  467MOL0     H64423  12.699   7.878   6.106  0.3283  0.5048 -1.1091
  467MOL0     H64424  12.798   7.998   6.292 -0.4340  0.5372  1.4347
  467MOL0     H64425  12.641   7.930   6.335  0.0364 -1.2023 -2.2197
  467MOL0     H64426  11.723   7.903   5.897  0.4993  0.9686  0.9664
  467MOL0     H64427  11.511   7.895   6.032 -2.3710 -1.7221  0.5854
  467MOL0     H64428  11.145   7.876   6.209  0.4533 -1.6832 -1.0925
  467MOL0     H64429  10.939   7.853   6.335  1.4837  1.3604 -1.4466
  467MOL0     H64430  10.279   8.559   5.993 -0.5108 -2.0526 -3.6139
  467MOL0     H64431  10.323   8.630   5.767  0.2359  2.2969 -1.4733
  467MOL0     H64432  10.420   9.201   5.574 -0.2198 -2.9158  1.9874
  467MOL0     H64433  10.376   9.356   5.399 -0.6610 -0.6287 -1.5665
  467MOL0     H64434  10.361   9.424   5.179  0.5887 -3.2774 -2.0439
  467MOL0     H64435  10.242   9.450   5.054 -3.2983  2.6172  0.1388
  467MOL0     H64436  10.179   9.441   5.355  4.6584  0.4824 -0.7287
  467MOL0     H64437  10.059   9.465   5.217 -0.9240  0.9477  2.7488
  467MOL0     H64438  10.285   9.651   5.319 -0.0892  0.9859 -0.4165
  467MOL0     H64439  10.179   9.672   5.177 -2.1762  1.1723  1.4734
  467MOL0     H64440  10.077   9.641   5.464  2.3153 -2.2526 -1.1402
  467MOL0     H64441   9.971   9.658   5.315 -0.7180  2.0542  0.2845
  467MOL0     H64442  10.073  10.053   5.445  3.8375 -0.9117  2.0359
  467MOL0     H64443  10.178   9.038   5.175  1.8095 -1.9417 -0.0757
  467MOL0     H64444  10.170   8.831   5.264 -2.1244  3.2022 -0.0607
  467MOL0     H64445  10.252   8.770   5.405  1.7994  1.2560  0.8561
  467MOL0     H64446  10.094   8.837   5.422  0.9199  1.5727  1.5104
  468MOL0     O64447   7.903  10.486   7.862 -0.2946  0.0450  0.5235
  468MOL0     C64448   7.845  10.476   7.966 -0.2501  0.1703 -0.3172
  468MOL0     O64449   7.851  10.372   8.064 -0.1832 -0.1857 -0.2296
  468MOL0     C64450   7.922  10.255   8.043  1.1219  0.6849  0.9704
  468MOL0     C64451   7.895  10.181   7.933  0.5092  0.5684  0.5131
  468MOL0     C64452   7.973  10.064   7.922  0.9143 -0.0076 -0.4901
  468MOL0     C64453   8.066  10.025   8.016  0.4225 -1.0155 -0.6140
  468MOL0     O64454   8.142   9.910   8.017 -0.0898 -0.2234 -0.1972
  468MOL0     C64455   8.104   9.795   7.954  0.7981 -0.3563 -0.4896
  468MOL0     C64456   8.212   9.704   7.912 -0.3408  0.1535 -1.2606
  468MOL0     C64457   8.291   9.674   8.039 -0.4693 -0.7471  0.2470
  468MOL0     C64458   8.253   9.539   8.101  1.2370 -0.7797  0.3773
  468MOL0     C64459   8.275   9.539   8.254  0.0571 -1.4944  0.6578
  468MOL0     C64460   8.265   9.397   8.294 -0.0250 -0.4727 -0.2225
  468MOL0     C64461   8.256   9.377   8.445 -1.1388  0.1859  0.3433
  468MOL0     C64462   8.224   9.233   8.487  0.3106  0.0644  0.4030
  468MOL0     N64463   8.102   9.173   8.416 -0.0016  0.2506  0.6855
  468MOL0     C64464   8.100   9.059   8.333  0.2158 -0.6761 -0.8178
  468MOL0     C64465   7.968   9.028   8.308 -0.0521  0.7930  0.2086
  468MOL0     C64466   7.921   8.921   8.208 -1.2959  0.2925  0.4647
  468MOL0     C64467   7.965   8.777   8.258 -0.3922 -0.5367 -0.3842
  468MOL0     C64468   8.114   8.724   8.235  0.4408 -1.1735  0.4125
  468MOL0     C64469   8.159   8.617   8.333 -0.3689  0.0193  0.4377
  468MOL0     O64470   8.084   8.493   8.330 -0.1575 -0.1393 -0.1577
  468MOL0     C64471   8.083   8.411   8.214  0.4946  0.4354  0.5277
  468MOL0     C64472   7.966   8.384   8.148  0.0941  0.3803 -0.7427
  468MOL0     C64473   7.963   8.308   8.024  0.5109 -0.8051 -0.3490
  468MOL0     C64474   7.825   8.286   7.954 -0.1585 -0.0317 -0.1149
  468MOL0     C64475   8.082   8.258   7.968 -0.2165 -0.7983 -0.9500
  468MOL0     C64476   8.086   8.187   7.841 -0.5217  0.9736 -0.3664
  468MOL0     O64477   7.983   8.101   7.799 -0.5388 -0.1662  0.6372
  468MOL0     C64478   7.983   8.030   7.683 -0.9984  0.1690 -1.2537
  468MOL0     C64479   8.065   8.049   7.570 -0.4432  0.3963  0.4585
  468MOL0     C64480   8.060   7.956   7.466  0.2466  0.1130 -0.0257
  468MOL0     C64481   7.969   7.850   7.448 -0.2323  0.6149 -0.7311
  468MOL0     O64482   7.968   7.785   7.321 -0.4327  0.0788 -0.2542
  468MOL0     C64483   7.901   7.659   7.316 -0.0331  0.4473  0.7070
  468MOL0     C64484   7.945   7.566   7.204  0.7719  0.2776  0.8926
  468MOL0     C64485   7.933   7.630   7.064  0.6580  1.3532 -0.1007
  468MOL0     C64486   7.976   7.530   6.955  0.3788  0.3039 -0.0061
  468MOL0     C64487   8.008   7.614   6.823 -0.5222  0.0187  0.0132
  468MOL0     C64488   7.878   7.680   6.773 -0.2348  0.4547 -0.5793
  468MOL0     C64489   7.883   7.736   6.633 -0.9169  0.3451  0.0071
  468MOL0     C64490   7.760   7.815   6.583 -0.2438  0.7441 -0.6007
  468MOL0    Cl64491   7.758   7.991   6.628 -0.4188 -0.1962 -0.3600
  468MOL0     C64492   7.888   7.831   7.569 -0.9336 -0.6052  1.0075
  468MOL0     C64493   7.901   7.917   7.679 -0.8914 -0.2540 -0.1640
  468MOL0     O64494   8.195   8.194   7.790 -0.2742  0.0467 -0.4483
  468MOL0     C64495   8.205   8.304   8.033  0.7788  0.7299 -0.4929
  468MOL0     C64496   8.202   8.378   8.150  0.4203 -0.0999 -0.0594
  468MOL0     N64497   7.886   9.117   8.379 -0.6865  0.2305  0.1675
  468MOL0     N64498   7.970   9.193   8.445 -0.1921 -0.9262  0.5574
  468MOL0     C64499   8.081  10.099   8.132  0.5291 -0.1184 -0.0168
  468MOL0     C64500   8.005  10.215   8.146  0.1491  0.0079  0.6501
  468MOL0     C64501   7.754  10.594   8.007 -1.0467  0.5929 -0.0377
  468MOL0     C64502   7.665  10.575   8.117 -0.3722  0.3605  0.4743
  468MOL0     C64503   7.567  10.673   8.145 -0.4690  0.7271 -1.3050
  468MOL0     C64504   7.575  10.799   8.093  0.2580  0.0282  0.4446
  468MOL0     O64505   7.492  10.905   8.137  0.5121 -0.2129  0.3702
  468MOL0     C64506   7.409  10.885   8.256 -0.8988 -1.0688 -0.3083
  468MOL0     C64507   7.389  11.019   8.331 -0.1823 -0.5751  0.3809
  468MOL0     C64508   7.322  11.002   8.465 -0.1076 -0.0195 -0.4452
  468MOL0     C64509   7.178  10.960   8.436  0.2041  0.3885  0.4631
  468MOL0     C64510   7.156  10.814   8.427  1.0018  0.2015  0.1523
  468MOL0     C64511   7.130  10.690   8.416  0.1236 -0.5332  0.5003
  468MOL0     C64512   7.667  10.821   7.988  0.2726 -0.6454  0.0690
  468MOL0     C64513   7.748  10.721   7.939  0.1501 -1.0111  0.6926
  468MOL0     C64514   7.841  10.772   7.823  1.1681 -0.4406 -0.7862
  468MOL0     H64515   7.831  10.217   7.853 -0.1932 -0.3265  0.6526
  468MOL0     H64516   7.943   9.995   7.845  0.3608 -0.1336 -0.1637
  468MOL0     H64517   8.048   9.818   7.863  2.2984  2.1584 -0.8503
  468MOL0     H64518   8.038   9.737   8.021  2.5985  0.0235  1.7250
  468MOL0     H64519   8.174   9.622   7.852  0.8368 -0.1078 -1.6790
  468MOL0     H64520   8.280   9.761   7.848  0.8255 -0.6536 -0.7920
  468MOL0     H64521   8.399   9.659   8.029 -0.5080 -2.4477  1.7451
  468MOL0     H64522   8.293   9.756   8.112  4.8071 -1.5511  1.4549
  468MOL0     H64523   8.144   9.527   8.092  0.9838  0.5853  1.2892
  468MOL0     H64524   8.311   9.459   8.056 -0.1554 -0.4717 -2.1701
  468MOL0     H64525   8.182   9.592   8.275 -0.2542 -0.9446 -1.7567
  468MOL0     H64526   8.353   9.603   8.296 -1.6731  4.6025 -3.8259
  468MOL0     H64527   8.174   9.348   8.259  0.0941 -0.6483 -0.2846
  468MOL0     H64528   8.353   9.339   8.264  2.3208  1.8088  1.6873
  468MOL0     H64529   8.182   9.452   8.476  0.9189  2.0845  0.9652
  468MOL0     H64530   8.348   9.402   8.498 -1.8586 -1.7433  2.6752
  468MOL0     H64531   8.307   9.165   8.470 -0.1326 -0.8126  1.5786
  468MOL0     H64532   8.200   9.226   8.594  0.7265 -0.5863  0.4554
  468MOL0     H64533   8.187   9.009   8.292  0.1569  0.4505 -2.3845
  468MOL0     H64534   7.948   8.949   8.106  3.1041 -2.6382  0.4973
  468MOL0     H64535   7.812   8.919   8.216 -1.5463 -2.2064 -1.9665
  468MOL0     H64536   7.945   8.770   8.365 -1.0021  0.7149 -0.4047
  468MOL0     H64537   7.893   8.713   8.205 -0.7439 -1.5418  1.2306
  468MOL0     H64538   8.125   8.700   8.129  1.9923 -1.8017  0.6879
  468MOL0     H64539   8.181   8.808   8.256 -0.4387  0.6870 -3.4233
  468MOL0     H64540   8.266   8.598   8.323  0.0137  0.8229  2.4265
  468MOL0     H64541   8.158   8.657   8.435  0.6073 -1.2285  0.9591
  468MOL0     H64542   7.875   8.417   8.198  0.9810 -1.8049  2.6359
  468MOL0     H64543   7.765   8.370   7.988  3.1380  2.7350 -0.5400
  468MOL0     H64544   7.776   8.195   7.990  2.9180 -1.0948  1.8910
  468MOL0     H64545   7.842   8.288   7.846  2.0810  0.9785  0.1961
  468MOL0     H64546   8.137   8.129   7.555 -0.7991  1.2132  2.7009
  468MOL0     H64547   8.113   7.980   7.374 -0.0432  0.5735 -0.0761
  468MOL0     H64548   7.924   7.602   7.407  2.2399 -0.8335 -0.5675
  468MOL0     H64549   7.794   7.679   7.307 -0.0592  0.9013  1.8959
  468MOL0     H64550   8.050   7.552   7.233  1.2662  0.3006 -0.7873
  468MOL0     H64551   7.888   7.473   7.206 -0.8409  1.2236  0.4176
  468MOL0     H64552   8.004   7.713   7.060 -0.3326  2.1892 -1.3391
  468MOL0     H64553   7.832   7.671   7.055 -0.7695 -1.6017  1.0383
  468MOL0     H64554   7.898   7.456   6.935  3.0269 -1.7952 -3.9695
  468MOL0     H64555   8.070   7.484   6.988  1.1841  0.1030 -2.4343
  468MOL0     H64556   8.088   7.687   6.839 -1.8935  1.4385  0.7039
  468MOL0     H64557   8.041   7.546   6.744 -1.0347 -1.1535  0.7881
  468MOL0     H64558   7.873   7.764   6.844  1.2071  0.1010 -0.0279
  468MOL0     H64559   7.789   7.623   6.799 -1.9143  4.4711  4.0984
  468MOL0     H64560   7.902   7.661   6.555  4.5674  0.5675  0.7838
  468MOL0     H64561   7.968   7.804   6.635 -0.8126  0.2332  2.9856
  468MOL0     H64562   7.665   7.769   6.611  0.3964 -0.4137 -0.2833
  468MOL0     H64563   7.768   7.808   6.474  2.7955 -0.8270 -0.3971
  468MOL0     H64564   7.804   7.763   7.574 -0.5540 -1.5180 -2.6701
  468MOL0     H64565   7.836   7.903   7.764 -1.7201  2.5525 -0.2495
  468MOL0     H64566   8.297   8.263   7.994 -1.6542 -4.3841 -1.6951
  468MOL0     H64567   8.301   8.399   8.188  2.0420 -1.3192 -3.2258
  468MOL0     H64568   8.150  10.058   8.206 -1.4391 -0.5488  1.6801
  468MOL0     H64569   8.031  10.279   8.229  0.3709  0.4890  0.2199
  468MOL0     H64570   7.661  10.478   8.166  0.9017 -0.2976 -0.6427
  468MOL0     H64571   7.497  10.635   8.219  0.9910 -4.3670 -2.1723
  468MOL0     H64572   7.313  10.841   8.228 -0.9439 -1.0631 -0.1655
  468MOL0     H64573   7.456  10.822   8.332  0.0976  3.3237  3.1929
  468MOL0     H64574   7.323  11.083   8.271  0.3327 -0.8988 -0.5548
  468MOL0     H64575   7.482  11.075   8.347 -1.6431  2.5011 -0.9986
  468MOL0     H64576   7.378  10.928   8.522  1.3923  1.9203  0.7307
  468MOL0     H64577   7.329  11.093   8.526 -0.2644 -2.0421  2.8362
  468MOL0     H64578   7.135  10.992   8.340  2.3537 -3.0812 -1.8851
  468MOL0     H64579   7.124  10.982   8.528 -0.5641 -1.2231  0.4159
  468MOL0     H64580   7.117  10.586   8.393  0.8974 -0.5328  0.0126
  468MOL0     H64581   7.672  10.924   7.952  2.7604 -1.5298 -2.4846
  468MOL0     H64582   7.947  10.750   7.843  0.8867  0.3186  1.9589
  468MOL0     H64583   7.803  10.756   7.722 -0.0864  1.4639 -0.6690
  468MOL0     H64584   7.838  10.881   7.827 -2.5264 -0.2488 -3.9256
  469MOL0     O64585   3.223   0.140   0.098 -0.8969 -0.9947  0.1683
  469MOL0     C64586   3.300   0.235   0.113 -0.3702 -0.5388 -0.1056
  469MOL0     O64587   3.342   0.293   0.230  0.4455 -0.1423 -0.3899
  469MOL0     C64588   3.319   0.236   0.354 -0.0883 -0.4215 -0.4063
  469MOL0     C64589   3.336   0.318   0.464 -0.5019 -0.5859 -0.0253
  469MOL0     C64590   3.312   0.275   0.590  0.0442 -0.8547 -0.0968
  469MOL0     C64591   3.282   0.141   0.626  0.1494 -0.1303  0.7739
  469MOL0     O64592   3.284   0.091   0.753 -0.0135  0.0355  0.3606
  469MOL0     C64593   3.183  -0.004   0.779  1.1558  0.5557  0.1666
  469MOL0     C64594   3.166  -0.035   0.932  0.2778 -1.2032 -1.0296
  469MOL0     C64595   3.297  -0.025   1.012 -0.3809  0.3596 -0.0621
  469MOL0     C64596   3.415  -0.097   0.955 -0.5340 -0.1114  0.4344
  469MOL0     C64597   3.496  -0.180   1.057  0.4294 -0.3174  0.9380
  469MOL0     C64598   3.634  -0.179   1.002  0.3482 -1.1347 -0.4511
  469MOL0     C64599   3.738  -0.264   1.076 -0.5194  0.1191 -0.0820
  469MOL0     C64600   3.698  -0.408   1.074 -0.5403 -0.1911  0.3199
  469MOL0     N64601   3.805  -0.498   1.099  0.6335  0.1928 -1.3739
  469MOL0     C64602   3.908  -0.532   1.016  0.3546  0.2553  0.2701
  469MOL0     C64603   4.004  -0.565   1.104  0.7376 -0.7400 -0.8261
  469MOL0     C64604   4.146  -0.581   1.073  0.0726 -0.3072  0.4795
  469MOL0     C64605   4.203  -0.478   0.969  0.2948  0.5349  0.2312
  469MOL0     C64606   4.206  -0.333   1.030  0.2765 -0.3845  0.4298
  469MOL0     C64607   4.302  -0.312   1.145 -0.3173  0.2827  0.3018
  469MOL0     O64608   4.431  -0.282   1.088 -0.3206  0.1162 -0.7163
  469MOL0     C64609   4.548  -0.274   1.168  0.1198  0.1322 -0.2565
  469MOL0     C64610   4.661  -0.312   1.101 -0.3607 -0.1660 -0.3858
  469MOL0     C64611   4.785  -0.323   1.162  0.0532  1.0590 -0.3075
  469MOL0     C64612   4.909  -0.327   1.077  0.2217 -0.1730  0.7198
  469MOL0     C64613   4.791  -0.310   1.305  0.6775 -0.0501  0.0773
  469MOL0     C64614   4.909  -0.312   1.390  0.5750  0.2350 -0.8831
  469MOL0     O64615   4.888  -0.373   1.513 -0.8625 -0.2631  0.5742
  469MOL0     C64616   4.964  -0.323   1.615 -0.2083  0.4715  0.0596
  469MOL0     C64617   5.078  -0.402   1.657  0.4114 -0.0613  0.7840
  469MOL0     C64618   5.147  -0.360   1.770  0.5760 -0.1259  0.4222
  469MOL0     C64619   5.122  -0.233   1.827  0.1072  0.4367 -0.1125
  469MOL0     O64620   5.202  -0.176   1.922  0.1073  0.1640 -0.7929
  469MOL0     C64621   5.258  -0.257   2.034  0.8498  0.1406 -0.6534
  469MOL0     C64622   5.380  -0.190   2.102 -0.0884  0.6292 -0.0301
  469MOL0     C64623   5.492  -0.158   2.013  0.0179  0.4827  0.4919
  469MOL0     C64624   5.603  -0.088   2.096 -0.1499 -0.3472  0.5800
  469MOL0     C64625   5.723  -0.039   2.012  0.3401 -0.1522 -0.6179
  469MOL0     C64626   5.850  -0.011   2.097  0.0779  0.8232 -0.0365
  469MOL0     C64627   5.977   0.014   2.020  0.1894  0.2240 -0.6517
  469MOL0     C64628   6.030   0.158   2.019  0.4483  0.2849  0.5530
  469MOL0    Cl64629   5.895   0.253   1.966 -0.7064  0.0674 -0.0454
  469MOL0     C64630   5.024  -0.156   1.777  0.1753  0.3576 -0.1923
  469MOL0     C64631   4.942  -0.205   1.677  0.3379 -0.1742  0.8337
  469MOL0     O64632   5.014  -0.257   1.357 -0.3140  0.0084  0.6708
  469MOL0     C64633   4.669  -0.288   1.370 -1.0235 -0.7186 -0.1584
  469MOL0     C64634   4.543  -0.281   1.312 -0.0418 -0.4069  1.1916
  469MOL0     N64635   3.949  -0.594   1.224  0.2859 -0.3411  0.7071
  469MOL0     N64636   3.842  -0.535   1.230 -0.2756 -0.6378  0.5935
  469MOL0     C64637   3.256   0.062   0.515 -0.1939 -0.3238 -0.2188
  469MOL0     C64638   3.283   0.101   0.378 -0.5043  0.2664 -0.4190
  469MOL0     C64639   3.374   0.303   0.001  0.1012 -0.1856 -0.1072
  469MOL0     C64640   3.396   0.439   0.014  0.7884  0.3123 -0.3168
  469MOL0     C64641   3.491   0.506  -0.073  0.4343  0.5251 -0.1520
  469MOL0     C64642   3.540   0.432  -0.184  0.4701 -0.0302  0.1181
  469MOL0     O64643   3.638   0.481  -0.264 -0.3665  0.3211 -0.4848
  469MOL0     C64644   3.591   0.581  -0.353  0.9404  1.1061 -0.4818
  469MOL0     C64645   3.693   0.645  -0.442 -1.0483  0.4164  0.5140
  469MOL0     C64646   3.827   0.656  -0.374  0.6744  0.3247 -0.3231
  469MOL0     C64647   3.811   0.760  -0.263  0.1873 -0.5214 -0.1651
  469MOL0     C64648   3.930   0.777  -0.169  0.2490  1.0666  0.6571
  469MOL0     C64649   4.031   0.775  -0.110 -0.8625 -0.0373  0.7097
  469MOL0     C64650   3.494   0.309  -0.205 -0.1430  0.2315  0.4533
  469MOL0     C64651   3.414   0.233  -0.114 -0.7836  1.5691 -0.0710
  469MOL0     C64652   3.397   0.086  -0.133  0.4158 -0.8823  0.2263
  469MOL0     H64653   3.374   0.419   0.451  2.2274 -0.9812  3.3379
  469MOL0     H64654   3.313   0.348   0.670 -1.5054  0.0319 -0.8457
  469MOL0     H64655   3.193  -0.101   0.728  0.3279  1.6364 -2.2154
  469MOL0     H64656   3.087   0.023   0.734  1.0756 -1.5746 -1.0477
  469MOL0     H64657   3.091   0.035   0.970  1.4164 -0.6780  0.3315
  469MOL0     H64658   3.117  -0.132   0.944  0.1546 -0.9020  1.4033
  469MOL0     H64659   3.325   0.078   1.036 -0.3744 -0.3677  3.7185
  469MOL0     H64660   3.285  -0.073   1.110  1.0501  2.0862  1.0175
  469MOL0     H64661   3.382  -0.168   0.878  2.2840  0.0498 -1.0395
  469MOL0     H64662   3.482  -0.026   0.906  0.9277 -0.9895  1.1004
  469MOL0     H64663   3.455  -0.280   1.077 -1.7026  0.1920 -0.5177
  469MOL0     H64664   3.501  -0.130   1.154 -2.8285  0.5980  0.7619
  469MOL0     H64665   3.630  -0.219   0.900 -2.3634  0.4717 -1.0595
  469MOL0     H64666   3.672  -0.079   0.981  0.6397 -1.1667 -0.1017
  469MOL0     H64667   3.743  -0.233   1.181  2.7445  2.1055 -0.6897
  469MOL0     H64668   3.834  -0.261   1.024 -0.2736  0.3674  0.3815
  469MOL0     H64669   3.632  -0.434   1.157 -2.0566 -0.2193 -0.8602
  469MOL0     H64670   3.639  -0.434   0.986  0.4105  5.5279 -2.4829
  469MOL0     H64671   3.907  -0.536   0.908 -2.3492  0.3418  0.2081
  469MOL0     H64672   4.162  -0.681   1.031  3.6217  0.6736 -0.8657
  469MOL0     H64673   4.197  -0.579   1.169 -2.9680  1.3088  2.2150
  469MOL0     H64674   4.306  -0.498   0.939  0.5482  0.9667  0.7788
  469MOL0     H64675   4.146  -0.477   0.876  2.0974  1.1772 -0.9263
  469MOL0     H64676   4.217  -0.258   0.950 -1.0683  0.4549  0.9918
  469MOL0     H64677   4.111  -0.289   1.061 -0.2129 -0.1340 -1.3219
  469MOL0     H64678   4.279  -0.225   1.207  0.7896  0.6637  0.1984
  469MOL0     H64679   4.312  -0.394   1.217 -0.9244 -0.8742 -0.8786
  469MOL0     H64680   4.649  -0.341   0.997 -1.0044  0.6558 -0.5482
  469MOL0     H64681   4.962  -0.421   1.095  0.6101  0.1720  1.4589
  469MOL0     H64682   4.990  -0.259   1.106 -0.8900  0.8728  1.4727
  469MOL0     H64683   4.910  -0.328   0.968  2.3111  0.7047  0.6837
  469MOL0     H64684   5.091  -0.500   1.613 -0.5278 -0.6679  1.8156
  469MOL0     H64685   5.222  -0.422   1.816  0.9758  1.0345  1.3973
  469MOL0     H64686   5.189  -0.289   2.112  1.8151  1.0678  0.6073
  469MOL0     H64687   5.302  -0.344   1.984  1.4232  0.2575 -0.3524
  469MOL0     H64688   5.344  -0.098   2.148 -2.8260  0.5686 -1.8598
  469MOL0     H64689   5.418  -0.261   2.177 -1.2837  1.6413  1.5980
  469MOL0     H64690   5.450  -0.088   1.940 -1.0713 -1.4876 -0.8487
  469MOL0     H64691   5.523  -0.255   1.973 -0.1444 -0.7493  3.1643
  469MOL0     H64692   5.634  -0.168   2.165 -1.3685 -0.5845  0.8702
  469MOL0     H64693   5.555  -0.012   2.158  0.6870  0.3473  0.3862
  469MOL0     H64694   5.745  -0.117   1.939 -1.8035 -0.4152 -1.0728
  469MOL0     H64695   5.690   0.049   1.956 -1.7467 -1.2577 -1.2572
  469MOL0     H64696   5.864  -0.089   2.173  0.1824  3.0521  2.3838
  469MOL0     H64697   5.839   0.078   2.161  1.7271  2.8017 -2.3342
  469MOL0     H64698   5.965  -0.010   1.914  0.0816  1.0424 -0.8327
  469MOL0     H64699   6.051  -0.051   2.068  1.9483  2.8247  0.4392
  469MOL0     H64700   6.117   0.174   1.954 -0.2837  1.3520 -0.2009
  469MOL0     H64701   6.050   0.185   2.123  0.8691  0.0570  0.5316
  469MOL0     H64702   5.011  -0.050   1.799  1.1500  0.9657 -2.2846
  469MOL0     H64703   4.864  -0.143   1.635  1.7425 -0.1384 -1.9215
  469MOL0     H64704   4.668  -0.267   1.476  0.2555 -0.1026 -0.2534
  469MOL0     H64705   4.457  -0.268   1.377 -2.5568  1.0997 -2.1517
  469MOL0     H64706   3.235  -0.044   0.522 -2.1353  0.1495  2.5985
  469MOL0     H64707   3.263   0.022   0.306  2.8445 -2.3129  1.2255
  469MOL0     H64708   3.365   0.485   0.107  1.2471 -3.5699  1.9451
  469MOL0     H64709   3.504   0.612  -0.054 -1.8960  0.9851 -0.7626
  469MOL0     H64710   3.519   0.535  -0.421  0.3203  0.1087  0.8079
  469MOL0     H64711   3.539   0.654  -0.291  1.9950  0.0636  1.7558
  469MOL0     H64712   3.662   0.745  -0.476 -0.5953 -0.3936 -2.5897
  469MOL0     H64713   3.726   0.582  -0.525 -1.5648 -1.8057  1.9310
  469MOL0     H64714   3.855   0.564  -0.321 -1.1363 -0.6981 -1.0607
  469MOL0     H64715   3.907   0.677  -0.446  1.8860 -0.3193  0.7822
  469MOL0     H64716   3.731   0.740  -0.191  0.7459 -0.9256  0.3489
  469MOL0     H64717   3.792   0.861  -0.302 -2.2001 -0.1429  1.7450
  469MOL0     H64718   4.127   0.769  -0.063  0.7586  0.0462 -2.3798
  469MOL0     H64719   3.526   0.266  -0.299  0.6716  1.6126  0.0492
  469MOL0     H64720   3.435   0.050  -0.037 -0.7657  0.7777  1.3755
  469MOL0     H64721   3.295   0.051  -0.151  0.4217 -0.4267 -0.8026
  469MOL0     H64722   3.468   0.048  -0.208 -0.5493  0.5969 -1.5204
  470MOL0     O64723   2.221  10.127   2.815 -1.0822 -0.5795 -0.8951
  470MOL0     C64724   2.299  10.154   2.909  0.3748  0.1597 -0.3739
  470MOL0     O64725   2.421  10.205   2.896  0.0457  0.3418 -0.2121
  470MOL0     C64726   2.468  10.245   2.777  0.4205  0.6176 -0.2858
  470MOL0     C64727   2.536  10.172   2.677  0.5256 -0.3240 -0.1838
  470MOL0     C64728   2.587  10.236   2.558  0.4920  0.0804 -0.2771
  470MOL0     C64729   2.557  10.371   2.537  0.6009  0.7176 -0.5940
  470MOL0     O64730   2.598  10.428   2.419  0.5292  0.0576  0.1599
  470MOL0     C64731   2.515  10.527   2.357  0.8418  0.0046 -0.2568
  470MOL0     C64732   2.545  10.553   2.213  0.1122  1.2389  0.5396
  470MOL0     C64733   2.527  10.415   2.138 -0.8837  0.3501 -0.3987
  470MOL0     C64734   2.567  10.398   1.995  0.1165  0.6927  0.1730
  470MOL0     C64735   2.723  10.409   1.967  1.0574  0.8810  0.6633
  470MOL0     C64736   2.767  10.396   1.818  0.1343  0.5814  0.8696
  470MOL0     C64737   2.924  10.421   1.800  0.7295 -0.5376 -0.1548
  470MOL0     C64738   2.990  10.390   1.666  0.9549  0.9679 -0.5129
  470MOL0     N64739   2.984  10.247   1.629  0.0740  0.5949 -0.1297
  470MOL0     C64740   3.094  10.161   1.649 -0.2191 -0.2545 -1.1267
  470MOL0     C64741   3.062  10.050   1.581  0.5186 -0.8251  0.1691
  470MOL0     C64742   3.134   9.911   1.591  0.3728  0.0583 -0.5065
  470MOL0     C64743   3.220   9.867   1.478 -0.2065  0.0038  0.4045
  470MOL0     C64744   3.360   9.934   1.488  0.2226  0.1319  0.1256
  470MOL0     C64745   3.469   9.885   1.390 -0.2086 -0.7723  0.6130
  470MOL0     O64746   3.424   9.860   1.255  0.6018 -0.5621 -0.3268
  470MOL0     C64747   3.507   9.807   1.157 -0.4670 -0.1793  0.1600
  470MOL0     C64748   3.443   9.756   1.048 -0.6875  0.6440  1.1048
  470MOL0     C64749   3.510   9.687   0.952 -0.3483  0.9499 -0.2997
  470MOL0     C64750   3.421   9.651   0.831  0.5310 -0.2220 -0.4121
  470MOL0     C64751   3.644   9.665   0.957 -0.2705 -1.1266 -0.0509
  470MOL0     C64752   3.723   9.584   0.854  0.6939  1.5413 -0.4528
  470MOL0     O64753   3.857   9.571   0.886 -0.2676 -0.3909 -0.4932
  470MOL0     C64754   3.950   9.533   0.789 -0.4499  0.5993 -0.0233
  470MOL0     C64755   4.064   9.469   0.839  1.3301  0.0793  0.0846
  470MOL0     C64756   4.163   9.426   0.751 -0.4564 -0.5817 -0.0250
  470MOL0     C64757   4.153   9.436   0.609 -0.6106  0.7547  0.8544
  470MOL0     O64758   4.245   9.370   0.520  0.2994 -0.6527  0.0194
  470MOL0     C64759   4.381   9.426   0.515  0.4133 -0.1120  0.8878
  470MOL0     C64760   4.385   9.576   0.504 -0.6401 -0.6953 -0.4891
  470MOL0     C64761   4.327   9.623   0.372 -0.7525  0.3619  0.1464
  470MOL0     C64762   4.292   9.773   0.393  0.3159 -0.1298 -0.1056
  470MOL0     C64763   4.312   9.867   0.275 -0.0199 -0.1634 -0.8730
  470MOL0     C64764   4.270  10.022   0.304 -0.3607  0.4370 -0.3570
  470MOL0     C64765   4.385  10.091   0.395  0.2179  0.6388  0.5765
  470MOL0     C64766   4.344  10.201   0.487 -0.4721 -0.1278 -0.0122
  470MOL0    Cl64767   4.490  10.298   0.517  0.3461 -0.1358 -0.0829
  470MOL0     C64768   4.050   9.519   0.565  0.2521 -0.6236 -0.8780
  470MOL0     C64769   3.954   9.561   0.654  0.0380  0.2136  0.0449
  470MOL0     O64770   3.673   9.523   0.762  0.2709  0.2093  0.4184
  470MOL0     C64771   3.705   9.714   1.069 -0.3815 -0.8154 -0.9545
  470MOL0     C64772   3.646   9.802   1.169  1.0967 -0.3513  0.4810
  470MOL0     N64773   2.942  10.072   1.513 -0.7790 -0.6482 -0.0767
  470MOL0     N64774   2.899  10.193   1.533 -0.2650  0.8060  0.6632
  470MOL0     C64775   2.486  10.450   2.639 -1.2782  0.9700  0.2396
  470MOL0     C64776   2.449  10.384   2.752 -1.2824  0.9295 -0.5342
  470MOL0     C64777   2.259  10.117   3.046  0.6777 -1.4045 -0.8157
  470MOL0     C64778   2.348  10.142   3.160  0.4473  0.7548  0.0951
  470MOL0     C64779   2.305  10.119   3.297 -0.3747 -0.2550 -0.3299
  470MOL0     C64780   2.188  10.062   3.329 -0.3118 -0.4581  1.0425
  470MOL0     O64781   2.161  10.034   3.461 -0.9675  0.3240 -0.8774
  470MOL0     C64782   2.028  10.024   3.513  0.1064 -0.2428 -0.2499
  470MOL0     C64783   1.983   9.869   3.522 -0.9688 -0.6846 -0.6510
  470MOL0     C64784   1.866   9.838   3.624  0.3959 -0.0482  0.4121
  470MOL0     C64785   1.848   9.686   3.650 -0.5175 -0.4872 -0.4719
  470MOL0     C64786   1.974   9.610   3.701 -0.1366  0.2959 -0.0357
  470MOL0     C64787   2.076   9.545   3.723  0.1177 -0.1862  0.7582
  470MOL0     C64788   2.098  10.036   3.215  0.1559  0.2384 -1.0054
  470MOL0     C64789   2.131  10.053   3.080 -0.3759  0.7537  0.3671
  470MOL0     C64790   2.040  10.005   2.972 -0.5551 -0.8664 -0.5405
  470MOL0     H64791   2.549  10.065   2.682  0.9604 -0.4477 -2.7370
  470MOL0     H64792   2.630  10.178   2.477  0.6174  1.8054 -1.5199
  470MOL0     H64793   2.534  10.619   2.414 -1.3864  0.7715 -0.6646
  470MOL0     H64794   2.412  10.499   2.377  1.2008  0.9810  4.0825
  470MOL0     H64795   2.464  10.617   2.179 -0.9440 -1.4415 -2.5784
  470MOL0     H64796   2.647  10.588   2.195  0.5299 -0.9920 -2.2980
  470MOL0     H64797   2.578  10.331   2.185  2.3564  0.2137 -3.7012
  470MOL0     H64798   2.420  10.391   2.135 -0.0543 -4.0014 -1.0422
  470MOL0     H64799   2.528  10.301   1.961  6.3570 -1.9560 -0.8413
  470MOL0     H64800   2.523  10.478   1.934  3.2860  1.7060 -0.9955
  470MOL0     H64801   2.760  10.319   2.016 -2.3855 -1.6724 -1.0166
  470MOL0     H64802   2.744  10.508   2.009 -2.0252  2.1378 -0.4433
  470MOL0     H64803   2.726  10.300   1.785  2.6427 -0.9711  2.0173
  470MOL0     H64804   2.716  10.458   1.744  0.1862 -2.6534 -2.1650
  470MOL0     H64805   2.966  10.365   1.884 -1.1539 -1.4399  0.2364
  470MOL0     H64806   2.945  10.527   1.813 -0.4584  0.0205 -2.2794
  470MOL0     H64807   2.954  10.448   1.581  0.2765  1.6733  0.2447
  470MOL0     H64808   3.098  10.405   1.678  1.4913 -3.3905  2.1992
  470MOL0     H64809   3.186  10.183   1.702 -1.4348 -1.5010  1.7031
  470MOL0     H64810   3.055   9.842   1.621  1.5090 -0.7183  0.7987
  470MOL0     H64811   3.181   9.917   1.689  3.6355  3.0822 -2.0423
  470MOL0     H64812   3.230   9.758   1.479  0.0100 -0.0566 -1.9644
  470MOL0     H64813   3.173   9.900   1.384  1.3735  0.5128 -0.2442
  470MOL0     H64814   3.349  10.042   1.474  0.4944  0.7111  3.4957
  470MOL0     H64815   3.394   9.926   1.592 -3.0248 -2.9059  1.1394
  470MOL0     H64816   3.551   9.956   1.380  0.6957 -1.8661  0.0596
  470MOL0     H64817   3.520   9.797   1.429 -0.2268 -0.4066  1.4863
  470MOL0     H64818   3.335   9.760   1.034 -0.6873 -2.2245 -0.2970
  470MOL0     H64819   3.382   9.551   0.847 -1.9475  0.7691  0.1497
  470MOL0     H64820   3.467   9.652   0.732 -2.4829 -1.0430 -1.9048
  470MOL0     H64821   3.332   9.714   0.830  0.6229 -0.0821 -0.0326
  470MOL0     H64822   4.078   9.458   0.946  1.0663 -2.0836 -0.0563
  470MOL0     H64823   4.249   9.387   0.804  0.5487  0.6522 -0.6856
  470MOL0     H64824   4.443   9.386   0.595  0.6599 -1.2745  0.1295
  470MOL0     H64825   4.428   9.384   0.426  0.3475  3.2132 -0.8963
  470MOL0     H64826   4.341   9.621   0.593  1.9327 -0.8147  0.9461
  470MOL0     H64827   4.489   9.610   0.504 -1.1370  0.9456  1.0586
  470MOL0     H64828   4.238   9.568   0.340  0.2565 -3.1037  2.7155
  470MOL0     H64829   4.405   9.617   0.296  0.3556 -0.5250  1.3083
  470MOL0     H64830   4.357   9.812   0.472  0.5055 -1.5555  0.4769
  470MOL0     H64831   4.186   9.778   0.422 -0.3203 -1.9897 -1.8840
  470MOL0     H64832   4.418   9.869   0.247 -0.6776  1.1874 -3.7189
  470MOL0     H64833   4.246   9.839   0.192 -3.2297  0.8523  1.1639
  470MOL0     H64834   4.176  10.025   0.359 -1.1369  2.1184 -1.7121
  470MOL0     H64835   4.257  10.070   0.207 -2.3849  1.1401  0.2251
  470MOL0     H64836   4.446  10.140   0.319 -1.8382  0.4623 -1.2938
  470MOL0     H64837   4.439  10.015   0.453  0.2005 -0.3154 -0.6121
  470MOL0     H64838   4.293  10.169   0.578 -3.1753 -0.1771 -1.4557
  470MOL0     H64839   4.272  10.265   0.435 -2.5968 -1.8663  0.6480
  470MOL0     H64840   4.042   9.535   0.458  1.5802  2.2922 -0.6360
  470MOL0     H64841   3.882   9.625   0.604 -0.4047  1.9419  2.7071
  470MOL0     H64842   3.809   9.694   1.093 -0.6982 -0.2438  1.1251
  470MOL0     H64843   3.696   9.822   1.263  0.0907  2.6032  0.5100
  470MOL0     H64844   2.463  10.554   2.621 -2.0870  0.4366 -2.2182
  470MOL0     H64845   2.398  10.439   2.830  1.1099  2.4121  0.0808
  470MOL0     H64846   2.447  10.184   3.141  1.3085 -0.7303  1.0918
  470MOL0     H64847   2.364  10.126   3.388  0.0163  0.9805 -0.6611
  470MOL0     H64848   2.032  10.071   3.611  0.5630  2.2881 -1.3910
  470MOL0     H64849   1.957  10.072   3.445  0.2653  0.1137 -0.1668
  470MOL0     H64850   2.069   9.815   3.563 -0.2969 -0.4663 -1.7580
  470MOL0     H64851   1.963   9.824   3.424 -0.0567 -1.1831 -0.6160
  470MOL0     H64852   1.885   9.863   3.729  1.1758 -2.5551  0.9341
  470MOL0     H64853   1.773   9.879   3.583 -0.2437 -2.6085 -0.9292
  470MOL0     H64854   1.832   9.649   3.548  4.1577  1.5688 -2.2610
  470MOL0     H64855   1.767   9.675   3.722  1.3233 -2.7706  1.4319
  470MOL0     H64856   2.166   9.486   3.727  1.6586  2.0916  3.2578
  470MOL0     H64857   2.006   9.994   3.252  0.2201  1.7778  1.0931
  470MOL0     H64858   1.966   9.942   3.021 -0.8372  0.2620  0.5569
  470MOL0     H64859   1.992  10.093   2.928 -3.2037 -2.1165 -0.3484
  470MOL0     H64860   2.094   9.947   2.897  1.9945  0.7893 -0.1268
  471MOL0     O64861   9.308   8.069   0.891  0.5134  0.9208 -0.7426
  471MOL0     C64862   9.245   8.173   0.866 -0.4939  0.7527  0.6438
  471MOL0     O64863   9.278   8.256   0.758  0.4247  0.0488 -0.1139
  471MOL0     C64864   9.367   8.239   0.662  0.1830  1.1593 -0.3772
  471MOL0     C64865   9.420   8.117   0.622 -0.2625  1.3341  0.5745
  471MOL0     C64866   9.517   8.099   0.520 -0.4260  0.0212 -0.2885
  471MOL0     C64867   9.570   8.210   0.451 -0.2517 -0.8017  0.0712
  471MOL0     O64868   9.657   8.192   0.346 -0.8638 -0.5282  0.2104
  471MOL0     C64869   9.695   8.316   0.266 -0.5684  0.7660  0.6963
  471MOL0     C64870   9.789   8.409   0.341  0.0432  0.8035 -0.0391
  471MOL0     C64871   9.828   8.536   0.271 -0.2412 -0.1232 -0.0462
  471MOL0     C64872   9.951   8.604   0.320 -0.8615  0.1833 -0.7129
  471MOL0     C64873   9.964   8.749   0.259 -1.1974 -0.3163 -0.6905
  471MOL0     C64874   9.971   8.754   0.107  0.6186  1.3816 -0.8160
  471MOL0     C64875  10.067   8.863   0.054 -0.2372  0.2152  0.5235
  471MOL0     C64876  10.024   8.880  -0.098 -0.0799  0.7209 -0.2968
  471MOL0     N64877  10.056   8.755  -0.176 -0.1700 -0.9559 -0.6854
  471MOL0     C64878  10.144   8.647  -0.152 -0.5648  0.5902 -0.1265
  471MOL0     C64879  10.114   8.558  -0.254  0.4464 -0.7640  0.6158
  471MOL0     C64880  10.169   8.414  -0.263 -0.2097  0.0189  0.4372
  471MOL0     C64881  10.220   8.385  -0.401  0.2750  0.1833 -1.0765
  471MOL0     C64882  10.278   8.245  -0.387  0.1786 -0.7682  1.0052
  471MOL0     C64883  10.373   8.218  -0.497 -0.8712  0.7110 -1.8605
  471MOL0     O64884  10.321   8.252  -0.625  0.1398 -0.5062  0.3809
  471MOL0     C64885  10.357   8.161  -0.720  0.9776  0.4344  0.0199
  471MOL0     C64886  10.477   8.180  -0.778 -0.2660 -0.9590  0.5157
  471MOL0     C64887  10.541   8.090  -0.862 -0.7647  0.1369 -0.1011
  471MOL0     C64888  10.654   8.130  -0.954 -0.3251 -1.0789  0.6526
  471MOL0     C64889  10.471   7.962  -0.887 -0.1629 -0.6245  0.3407
  471MOL0     C64890  10.520   7.852  -0.967 -0.0936  0.7633 -0.0144
  471MOL0     O64891  10.649   7.831  -0.991 -0.1133  0.1326  0.1649
  471MOL0     C64892  10.680   7.765  -1.109  1.5131  0.8876 -0.5754
  471MOL0     C64893  10.718   7.632  -1.101 -1.0924 -0.0101  0.4032
  471MOL0     C64894  10.728   7.548  -1.216  0.4533 -0.2250 -0.8923
  471MOL0     C64895  10.672   7.599  -1.335 -0.4333  0.2341  0.3671
  471MOL0     O64896  10.658   7.512  -1.441  0.3554 -0.2156  0.8042
  471MOL0     C64897  10.630   7.566  -1.568  0.2122 -0.9027  0.1063
  471MOL0     C64898  10.647   7.465  -1.688 -0.3995 -0.6333  0.1292
  471MOL0     C64899  10.627   7.536  -1.833 -0.0580 -0.2363 -0.1688
  471MOL0     C64900  10.485   7.555  -1.891 -1.0732 -0.3337 -0.1987
  471MOL0     C64901  10.482   7.632  -2.021  0.7472  0.1783  0.1046
  471MOL0     C64902  10.540   7.771  -2.032  0.3006 -0.7760  0.2018
  471MOL0     C64903  10.499   7.867  -1.923 -0.3727  0.0909  0.3525
  471MOL0     C64904  10.559   8.002  -1.947 -0.1359 -0.5369 -0.4427
  471MOL0    Cl64905  10.514   8.129  -1.828 -0.3503 -0.4160  0.3266
  471MOL0     C64906  10.638   7.734  -1.346  0.2067 -0.8050 -0.6564
  471MOL0     C64907  10.653   7.816  -1.236 -1.0910  0.2763  0.7703
  471MOL0     O64908  10.432   7.779  -1.017 -0.7336 -0.7094  0.5922
  471MOL0     C64909  10.348   7.950  -0.818 -0.5790 -0.4403  0.4796
  471MOL0     C64910  10.283   8.043  -0.741 -0.0181  0.3877 -0.3764
  471MOL0     N64911   9.999   8.598  -0.317 -0.6603 -0.7473  0.8479
  471MOL0     N64912   9.977   8.723  -0.289 -0.3647  0.0532 -0.4905
  471MOL0     C64913   9.498   8.342   0.479 -0.4910  0.3998 -0.3321
  471MOL0     C64914   9.400   8.351   0.583 -0.4789  0.6885  0.1365
  471MOL0     C64915   9.148   8.233   0.964 -0.4009 -0.2784 -0.5615
  471MOL0     C64916   9.148   8.190   1.090 -0.9256  0.0581  1.3866
  471MOL0     C64917   9.062   8.245   1.188  0.3301  0.3360 -0.1336
  471MOL0     C64918   8.979   8.348   1.149 -0.5673 -0.3643 -0.2318
  471MOL0     O64919   8.895   8.410   1.245 -0.0862  0.2818 -0.2609
  471MOL0     C64920   8.756   8.355   1.245 -0.1745  0.7647  0.0502
  471MOL0     C64921   8.688   8.405   1.372 -0.1885 -0.1472  0.2051
  471MOL0     C64922   8.541   8.361   1.377  1.3210 -0.5338 -0.1385
  471MOL0     C64923   8.435   8.469   1.314  0.6058  0.4032 -0.7507
  471MOL0     C64924   8.347   8.523   1.422 -0.7524  0.2648  0.2675
  471MOL0     C64925   8.281   8.572   1.516 -0.4805 -0.4652 -0.5311
  471MOL0     C64926   8.984   8.409   1.025 -0.7370  1.2926  0.0019
  471MOL0     C64927   9.060   8.343   0.925 -0.5225 -0.1631 -0.8274
  471MOL0     C64928   9.044   8.407   0.792 -0.1527 -0.2707  0.0044
  471MOL0     H64929   9.395   8.020   0.664 -1.0964  0.2082 -2.2383
  471MOL0     H64930   9.536   8.002   0.475 -0.6968  0.0756 -0.5193
  471MOL0     H64931   9.609   8.370   0.224 -2.2011 -0.6957  1.9989
  471MOL0     H64932   9.749   8.276   0.179  2.0014  2.8245  1.2258
  471MOL0     H64933   9.745   8.430   0.439  0.0308  0.5492  0.0104
  471MOL0     H64934   9.884   8.356   0.354  0.9886  1.4583 -3.2038
  471MOL0     H64935   9.842   8.516   0.165  0.3592  1.9602 -0.4023
  471MOL0     H64936   9.743   8.602   0.293  0.6990  1.4368 -0.8781
  471MOL0     H64937   9.965   8.601   0.428  2.2162 -2.2818 -1.0356
  471MOL0     H64938  10.037   8.545   0.286  2.6815  5.4729 -2.1133
  471MOL0     H64939  10.053   8.797   0.303 -0.9499 -1.5645  0.2144
  471MOL0     H64940   9.876   8.795   0.304 -1.0021 -0.9513  0.3767
  471MOL0     H64941   9.995   8.651   0.077  1.8924  1.2797  0.4600
  471MOL0     H64942   9.869   8.779   0.074 -0.2067  0.8596  1.1561
  471MOL0     H64943  10.170   8.839   0.083  0.9846  1.4651 -2.4313
  471MOL0     H64944  10.039   8.963   0.087  1.0239  0.7120  0.1421
  471MOL0     H64945   9.918   8.903  -0.109  0.5961  3.7021 -1.6142
  471MOL0     H64946  10.084   8.961  -0.144  0.5426  1.7956  2.2391
  471MOL0     H64947  10.220   8.640  -0.074  0.4359  3.1710 -0.7667
  471MOL0     H64948  10.093   8.339  -0.241  1.9656 -2.2573  0.7249
  471MOL0     H64949  10.248   8.395  -0.189 -0.7917 -2.4049  0.5124
  471MOL0     H64950  10.143   8.393  -0.479  0.8374 -0.8337 -1.7767
  471MOL0     H64951  10.297   8.462  -0.415  0.7564 -0.2997 -1.1430
  471MOL0     H64952  10.327   8.239  -0.289  2.3056 -1.7324 -0.0447
  471MOL0     H64953  10.195   8.174  -0.394 -1.4918  1.0148  1.6248
  471MOL0     H64954  10.472   8.265  -0.495  1.5142 -3.7956  0.1992
  471MOL0     H64955  10.391   8.111  -0.483 -1.0873  0.9950  1.2869
  471MOL0     H64956  10.529   8.276  -0.773 -1.9688  0.0763 -0.7075
  471MOL0     H64957  10.741   8.072  -0.920 -0.6807  0.3845  4.5301
  471MOL0     H64958  10.692   8.232  -0.955  0.4104 -1.2711  3.0268
  471MOL0     H64959  10.633   8.098  -1.056  1.7542 -1.1688  0.2015
  471MOL0     H64960  10.753   7.604  -1.003  0.2099  2.0744  0.5901
  471MOL0     H64961  10.763   7.445  -1.211  1.5381  0.1805  1.2648
  471MOL0     H64962  10.524   7.589  -1.577 -0.2209 -2.4993  0.7226
  471MOL0     H64963  10.675   7.662  -1.594 -1.9860 -0.1664 -1.2540
  471MOL0     H64964  10.746   7.419  -1.686  0.3338  0.8095 -1.2704
  471MOL0     H64965  10.577   7.381  -1.695  0.4904 -1.2262 -3.6203
  471MOL0     H64966  10.687   7.481  -1.907  0.0058  0.4239 -0.6175
  471MOL0     H64967  10.671   7.637  -1.835  1.1891 -0.7661 -0.9707
  471MOL0     H64968  10.429   7.612  -1.817  1.9231 -0.9115  2.7863
  471MOL0     H64969  10.443   7.455  -1.907 -1.6621  0.1244 -1.6541
  471MOL0     H64970  10.506   7.572  -2.109 -0.2412 -0.0044 -0.0561
  471MOL0     H64971  10.374   7.642  -2.036  0.6398 -3.4884 -3.1012
  471MOL0     H64972  10.496   7.814  -2.122 -2.8186 -0.6898  1.6473
  471MOL0     H64973  10.649   7.770  -2.034  0.3306 -1.3783  1.1339
  471MOL0     H64974  10.534   7.830  -1.826  1.3084  1.7792  0.4389
  471MOL0     H64975  10.390   7.879  -1.920 -0.2340  2.2592 -1.0454
  471MOL0     H64976  10.526   8.033  -2.046  2.3700 -2.4319 -1.9866
  471MOL0     H64977  10.668   8.002  -1.957 -0.2005  2.6413 -2.1323
  471MOL0     H64978  10.592   7.786  -1.429 -0.8398 -0.5402  0.0602
  471MOL0     H64979  10.617   7.917  -1.255 -1.3079  0.3746  1.6526
  471MOL0     H64980  10.298   7.855  -0.827 -2.1351  0.3870  0.0480
  471MOL0     H64981  10.199   8.026  -0.674 -1.5066  1.5240 -1.8581
  471MOL0     H64982   9.512   8.429   0.416  2.0925  0.5771  0.4058
  471MOL0     H64983   9.342   8.438   0.613 -1.0898  1.0371 -1.8674
  471MOL0     H64984   9.216   8.106   1.099  0.0884  0.2331 -2.7052
  471MOL0     H64985   9.067   8.212   1.291 -0.5152 -1.0431 -0.5025
  471MOL0     H64986   8.709   8.397   1.156 -1.7763 -0.6990  0.1519
  471MOL0     H64987   8.741   8.247   1.244 -2.8449  1.0697 -0.8737
  471MOL0     H64988   8.703   8.514   1.377  0.0384 -0.2281  1.8984
  471MOL0     H64989   8.755   8.369   1.450 -0.2741 -1.1061 -0.1578
  471MOL0     H64990   8.530   8.269   1.319 -1.9609 -0.3060 -0.0390
  471MOL0     H64991   8.509   8.336   1.478 -3.0934 -1.0467 -1.4927
  471MOL0     H64992   8.377   8.424   1.233  1.1186  1.5421 -1.7692
  471MOL0     H64993   8.482   8.560   1.277  3.2564 -0.6855 -0.2838
  471MOL0     H64994   8.218   8.619   1.589 -0.5192 -1.6203  0.2065
  471MOL0     H64995   8.910   8.486   1.006 -1.9228 -0.0928 -1.2011
  471MOL0     H64996   9.039   8.336   0.709  2.8465 -0.9721  0.3187
  471MOL0     H64997   8.957   8.474   0.783 -0.0821  0.3256  2.8827
  471MOL0     H64998   9.142   8.453   0.776 -0.6584  0.9861  0.3657
  472MOL0     O64999   9.481   9.130   6.981  0.1797  0.8232  0.1192
  472MOL0     C65000   9.466   9.217   7.067 -0.3375 -0.3374 -0.4437
  472MOL0     O65001   9.408   9.344   7.043  0.5441  0.0565  0.3864
  472MOL0     C65002   9.464   9.453   7.107  0.5879 -0.0124 -1.0208
  472MOL0     C65003   9.404   9.497   7.226 -0.1600  0.9284 -0.2266
  472MOL0     C65004   9.457   9.608   7.293 -0.3284 -0.4399 -0.1045
  472MOL0     C65005   9.566   9.682   7.243 -0.4541 -1.2657 -0.7961
  472MOL0     O65006   9.607   9.789   7.314 -0.1409  0.5911 -0.0094
  472MOL0     C65007   9.635   9.913   7.245 -0.9607 -0.3570 -0.0513
  472MOL0     C65008   9.510  10.011   7.250 -0.0835  1.0628  0.9648
  472MOL0     C65009   9.504  10.082   7.381  1.4668  0.1955  1.0204
  472MOL0     C65010   9.407  10.203   7.372 -0.4562 -0.1931  0.0304
  472MOL0     C65011   9.383  10.266   7.508 -0.7285 -0.1065  0.7430
  472MOL0     C65012   9.269  10.368   7.487 -0.1532  0.5538 -0.2519
  472MOL0     C65013   9.267  10.478   7.597  0.3965  0.8616  0.8173
  472MOL0     C65014   9.190  10.442   7.719 -0.7683  0.5993  0.0997
  472MOL0     N65015   9.155  10.546   7.813 -0.2170  0.2529 -0.2036
  472MOL0     C65016   9.104  10.661   7.780  0.8321  0.0026  0.6371
  472MOL0     C65017   9.102  10.719   7.909  0.3555  0.2698  0.6022
  472MOL0     C65018   9.030  10.857   7.920 -0.5901  0.1048  0.4985
  472MOL0     C65019   9.109  10.968   7.858  0.5437  0.8045  0.1752
  472MOL0     C65020   9.255  10.980   7.910  0.3878 -0.4528 -1.1097
  472MOL0     C65021   9.248  11.018   8.062 -0.7394 -0.6824  0.5952
  472MOL0     O65022   9.348  11.118   8.104 -0.2884  0.9467 -0.1010
  472MOL0     C65023   9.478  11.079   8.124 -0.0586 -0.1135  0.8386
  472MOL0     C65024   9.573  11.170   8.168 -0.3609 -0.1243 -0.5983
  472MOL0     C65025   9.697  11.134   8.214 -0.1723  0.3503 -0.3375
  472MOL0     C65026   9.790  11.239   8.273 -0.1669  0.0819 -0.3392
  472MOL0     C65027   9.735  10.996   8.207 -0.6929 -0.5346  0.6044
  472MOL0     C65028   9.859  10.934   8.251  0.1226  0.9665  0.0586
  472MOL0     O65029   9.866  10.907   8.385 -0.3636  0.9861 -1.1677
  472MOL0     C65030   9.988  10.872   8.444  0.0073 -0.6266  0.3219
  472MOL0     C65031  10.084  10.974   8.455  0.4180 -0.3812  0.1464
  472MOL0     C65032  10.207  10.961   8.519  0.2761 -0.0707 -0.6596
  472MOL0     C65033  10.231  10.835   8.586  0.1973 -0.6774  0.0300
  472MOL0     O65034  10.339  10.839   8.670 -0.2149  0.0682  0.0759
  472MOL0     C65035  10.383  10.722   8.737 -0.3250 -0.2759 -0.2352
  472MOL0     C65036  10.508  10.763   8.826 -0.0374  0.6942  0.1183
  472MOL0     C65037  10.494  10.764   8.987  0.7702 -0.4377  0.5333
  472MOL0     C65038  10.351  10.809   9.036 -0.1987 -0.1579 -0.3425
  472MOL0     C65039  10.356  10.802   9.188  0.0667  0.1489 -0.3801
  472MOL0     C65040  10.231  10.886   9.252  0.7562 -0.1053  0.0273
  472MOL0     C65041  10.200  10.848   9.399  0.2713  0.2555  0.0014
  472MOL0     C65042  10.069  10.906   9.450  0.9407  0.3521  0.0642
  472MOL0    Cl65043  10.084  10.958   9.609  0.2454 -0.0951  0.0534
  472MOL0     C65044  10.148  10.732   8.557 -0.8396 -0.4211  0.3536
  472MOL0     C65045  10.028  10.750   8.491  0.5046  0.3201  0.1084
  472MOL0     O65046   9.954  10.935   8.174 -0.0184 -0.1251 -1.2859
  472MOL0     C65047   9.648  10.910   8.146 -0.3529 -0.6895  0.0763
  472MOL0     C65048   9.513  10.946   8.118 -0.1776 -0.0172  0.0593
  472MOL0     N65049   9.151  10.645   8.010 -0.2512  0.1716 -0.0710
  472MOL0     N65050   9.178  10.535   7.945 -0.0428 -0.2787  0.7737
  472MOL0     C65051   9.620   9.639   7.117 -0.5428 -0.4534 -0.2743
  472MOL0     C65052   9.570   9.523   7.047 -0.6184  0.5623 -0.8847
  472MOL0     C65053   9.514   9.186   7.202 -0.2190  0.4757 -0.7506
  472MOL0     C65054   9.419   9.184   7.306 -0.5152 -0.3177 -0.4843
  472MOL0     C65055   9.454   9.133   7.434  1.1068  0.9056  0.7694
  472MOL0     C65056   9.582   9.087   7.457 -0.2048  0.5388  0.8034
  472MOL0     O65057   9.601   9.028   7.580  0.5169 -0.1010  1.2310
  472MOL0     C65058   9.696   8.922   7.601  0.0836  0.5313 -0.2706
  472MOL0     C65059   9.672   8.785   7.530 -0.2622  0.6060  0.8602
  472MOL0     C65060   9.538   8.733   7.568  0.6129  0.4535 -1.3011
  472MOL0     C65061   9.486   8.593   7.509 -1.1472 -0.7865 -0.3962
  472MOL0     C65062   9.345   8.559   7.535 -0.1814  0.8808 -0.6185
  472MOL0     C65063   9.243   8.538   7.595  0.3263 -0.4790 -0.6478
  472MOL0     C65064   9.680   9.096   7.350  0.4113  1.1735  0.5122
  472MOL0     C65065   9.645   9.142   7.218 -0.0254  0.4820  0.0798
  472MOL0     C65066   9.752   9.146   7.121  0.6083  0.2262 -0.6631
  472MOL0     H65067   9.309   9.448   7.244 -0.0813 -0.0403 -2.2081
  472MOL0     H65068   9.413   9.633   7.389  0.9007 -2.2475  0.9824
  472MOL0     H65069   9.661   9.905   7.139 -2.0593  3.2321 -0.7189
  472MOL0     H65070   9.708   9.970   7.304 -2.4003  0.8237  0.6612
  472MOL0     H65071   9.527  10.081   7.167  0.4529 -1.7396 -1.4701
  472MOL0     H65072   9.420   9.952   7.230 -0.5390  2.5237 -1.8719
  472MOL0     H65073   9.459  10.014   7.454 -3.5619  3.1316  1.1708
  472MOL0     H65074   9.605  10.112   7.408  1.0281  2.1672  0.6655
  472MOL0     H65075   9.445  10.282   7.307 -1.4177  2.3199  2.2989
  472MOL0     H65076   9.318  10.159   7.326  0.6068 -1.2427 -1.0866
  472MOL0     H65077   9.480  10.309   7.534  0.8983 -0.7983 -3.4371
  472MOL0     H65078   9.356  10.195   7.587  0.0058 -1.1917  0.0263
  472MOL0     H65079   9.286  10.420   7.392 -1.1251  1.4953  0.0719
  472MOL0     H65080   9.167  10.329   7.479 -0.4837  1.4170 -0.3939
  472MOL0     H65081   9.233  10.570   7.549 -1.3746  0.4746  1.2565
  472MOL0     H65082   9.371  10.506   7.615  1.5776  0.5611 -4.0787
  472MOL0     H65083   9.100  10.388   7.688  2.2141 -2.8467 -3.7092
  472MOL0     H65084   9.241  10.362   7.774 -0.6477  1.5863  1.4704
  472MOL0     H65085   9.069  10.704   7.687  0.2146 -1.9014 -0.0499
  472MOL0     H65086   9.025  10.880   8.027  2.6948 -1.1312  1.0397
  472MOL0     H65087   8.938  10.851   7.861  2.1777  1.0913 -4.4569
  472MOL0     H65088   9.120  10.934   7.754 -0.1675  3.9991 -1.0542
  472MOL0     H65089   9.059  11.065   7.852  1.4837  1.3108  0.2822
  472MOL0     H65090   9.308  10.891   7.876  0.0775 -1.1088  0.0602
  472MOL0     H65091   9.298  11.065   7.856 -0.2839 -0.3245 -1.4580
  472MOL0     H65092   9.157  11.070   8.092  0.8010  0.7815  3.1087
  472MOL0     H65093   9.255  10.925   8.118  0.4935 -2.1450 -1.8268
  472MOL0     H65094   9.544  11.274   8.180  2.9444  1.2019 -2.6953
  472MOL0     H65095   9.884  11.235   8.218 -0.3323 -3.5409 -0.6090
  472MOL0     H65096   9.788  11.224   8.381 -0.2995 -2.7410 -0.6579
  472MOL0     H65097   9.744  11.338   8.259 -3.9050 -1.3939  0.3504
  472MOL0     H65098  10.069  11.078   8.429  1.1079  0.0039  1.2083
  472MOL0     H65099  10.275  11.042   8.542  0.6430 -0.5132 -0.1631
  472MOL0     H65100  10.304  10.690   8.806 -0.8787 -3.6666 -2.2271
  472MOL0     H65101  10.407  10.641   8.667 -1.7904  2.1897 -3.8649
  472MOL0     H65102  10.575  10.681   8.798  0.4613  0.9636  0.4972
  472MOL0     H65103  10.557  10.856   8.794 -2.0343  2.2408  1.3252
  472MOL0     H65104  10.566  10.833   9.033  4.6172 -2.3179 -2.0714
  472MOL0     H65105  10.535  10.672   9.029 -0.2220  0.4129  3.6857
  472MOL0     H65106  10.268  10.744   9.006 -0.2079 -1.6547  2.5725
  472MOL0     H65107  10.331  10.907   8.993  1.6184 -0.1818 -1.3672
  472MOL0     H65108  10.343  10.694   9.205  3.8778 -0.4354 -0.2871
  472MOL0     H65109  10.449  10.830   9.237 -0.8176 -0.7316  1.9765
  472MOL0     H65110  10.148  10.870   9.183 -0.3107  1.1323  0.9817
  472MOL0     H65111  10.256  10.992   9.245 -1.8551  0.9768  3.8855
  472MOL0     H65112  10.284  10.884   9.459 -0.2414 -0.5137  1.2220
  472MOL0     H65113  10.211  10.739   9.403 -5.0379 -0.4965  1.5252
  472MOL0     H65114   9.980  10.841   9.448 -0.6581  2.4374 -1.7551
  472MOL0     H65115  10.051  10.994   9.388  0.4861  0.8191  0.8456
  472MOL0     H65116  10.170  10.633   8.597 -2.5216 -0.4346  1.3119
  472MOL0     H65117   9.966  10.665   8.465  3.0787 -2.6030  2.8585
  472MOL0     H65118   9.669  10.804   8.156  2.9490 -0.1126  0.1068
  472MOL0     H65119   9.453  10.859   8.094  2.0741 -1.5047 -0.4988
  472MOL0     H65120   9.707   9.696   7.087 -1.1952  0.9280  0.3539
  472MOL0     H65121   9.610   9.492   6.952  1.9916 -1.6687  0.7882
  472MOL0     H65122   9.320   9.227   7.300 -1.0205 -1.5889 -1.5989
  472MOL0     H65123   9.372   9.118   7.504 -2.1679 -0.4700 -2.9262
  472MOL0     H65124   9.795   8.961   7.574  0.6527  0.5926  1.6801
  472MOL0     H65125   9.707   8.897   7.707 -1.0861 -0.6575 -0.4062
  472MOL0     H65126   9.746   8.712   7.565  0.0286  0.6361  0.3245
  472MOL0     H65127   9.668   8.808   7.423  0.6827  5.4698  1.6086
  472MOL0     H65128   9.536   8.720   7.677 -2.3843 -1.3283 -1.4682
  472MOL0     H65129   9.463   8.809   7.544  1.2975  1.7619  0.4583
  472MOL0     H65130   9.559   8.519   7.543  3.3674  3.1716 -0.3188
  472MOL0     H65131   9.503   8.593   7.401  2.1507  1.4973 -0.0471
  472MOL0     H65132   9.154   8.524   7.652  0.4471 -1.8534 -0.7593
  472MOL0     H65133   9.776   9.048   7.366  0.2746  1.8847  4.8594
  472MOL0     H65134   9.730   9.212   7.037 -2.3901  0.0820 -0.0771
  472MOL0     H65135   9.842   9.183   7.172  0.8849  0.1868 -1.1218
  472MOL0     H65136   9.782   9.046   7.088  3.0825  0.8499 -0.5558
  473MOL0     O65137   5.018  11.544   0.712 -0.3634 -0.6541  0.6910
  473MOL0     C65138   4.931  11.595   0.642  0.6593  0.5905  0.4061
  473MOL0     O65139   4.947  11.622   0.508 -0.6183  0.9304 -0.0689
  473MOL0     C65140   5.063  11.599   0.442 -0.3273  0.3024  0.1823
  473MOL0     C65141   5.173  11.690   0.452  1.1471 -0.3190  0.2125
  473MOL0     C65142   5.296  11.643   0.399  0.7552 -0.2924  0.8719
  473MOL0     C65143   5.300  11.527   0.321 -0.9884  0.3181 -0.1726
  473MOL0     O65144   5.424  11.505   0.270  0.0955 -0.3598  0.4758
  473MOL0     C65145   5.461  11.365   0.245 -0.4747 -0.1315  0.1773
  473MOL0     C65146   5.480  11.287   0.373 -0.3798 -0.0957  0.1710
  473MOL0     C65147   5.599  11.339   0.444 -0.5257 -0.0652  0.9993
  473MOL0     C65148   5.646  11.246   0.559 -0.0573  0.8102  0.2287
  473MOL0     C65149   5.777  11.293   0.605 -0.9449  0.4748  0.5412
  473MOL0     C65150   5.814  11.211   0.736 -1.1221 -1.2618  0.5559
  473MOL0     C65151   5.885  11.084   0.716 -0.6669  0.0248  0.1939
  473MOL0     C65152   6.039  11.105   0.684  0.3418  0.9308 -1.2612
  473MOL0     N65153   6.101  10.969   0.670  0.9025  0.2549 -0.6032
  473MOL0     C65154   6.095  10.872   0.760 -0.9608 -0.4096  0.1201
  473MOL0     C65155   6.148  10.762   0.700 -0.2502  0.7302  0.1895
  473MOL0     C65156   6.153  10.617   0.751 -0.5848  0.2404 -1.0072
  473MOL0     C65157   6.279  10.535   0.698 -0.4004 -0.8988  0.8592
  473MOL0     C65158   6.272  10.391   0.739  0.4995 -0.5746  0.9918
  473MOL0     C65159   6.383  10.317   0.674  0.1276 -0.2655 -0.7219
  473MOL0     O65160   6.342  10.287   0.539  0.8038  0.3005  0.1966
  473MOL0     C65161   6.427  10.227   0.450  0.0384 -0.5747 -1.0240
  473MOL0     C65162   6.518  10.126   0.480  0.7091  0.5351  0.1336
  473MOL0     C65163   6.594  10.058   0.382 -0.0204  0.6792 -0.3956
  473MOL0     C65164   6.678   9.943   0.429  0.8347 -0.6397  0.2953
  473MOL0     C65165   6.593  10.103   0.252 -1.0264 -0.1419 -0.0310
  473MOL0     C65166   6.693  10.053   0.151 -1.2621 -0.7780  0.4669
  473MOL0     O65167   6.707  10.125   0.036 -0.4441  0.5838  0.1694
  473MOL0     C65168   6.778  10.076  -0.072  0.1874 -0.0889 -0.2429
  473MOL0     C65169   6.745   9.961  -0.144  0.2277 -0.2955 -0.7943
  473MOL0     C65170   6.792   9.922  -0.272  0.6367  0.4170  0.3696
  473MOL0     C65171   6.890  10.010  -0.327 -0.2477  1.2423 -0.5007
  473MOL0     O65172   6.945   9.989  -0.451  0.7204  0.0827  0.1158
  473MOL0     C65173   6.887   9.906  -0.544  0.5685 -0.1065 -0.3105
  473MOL0     C65174   6.782   9.973  -0.635 -1.1656  0.2726  0.1744
  473MOL0     C65175   6.640   9.910  -0.645  0.0598 -0.3078  0.0337
  473MOL0     C65176   6.560   9.996  -0.741 -0.1084  0.1870 -0.1683
  473MOL0     C65177   6.424   9.941  -0.754 -0.6229  0.4565  0.5653
  473MOL0     C65178   6.313  10.011  -0.833  0.3406  1.1981 -0.2478
  473MOL0     C65179   6.343  10.059  -0.980 -0.3257  0.9932 -1.0201
  473MOL0     C65180   6.454  10.158  -0.985 -0.0596 -0.4716 -0.3172
  473MOL0    Cl65181   6.446  10.254  -1.140 -0.0878 -0.0901  0.6730
  473MOL0     C65182   6.921  10.131  -0.249 -0.6567 -0.5881  0.0925
  473MOL0     C65183   6.874  10.156  -0.117  0.0030 -0.3383  0.2290
  473MOL0     O65184   6.750   9.944   0.163  0.0410  0.5204  0.8805
  473MOL0     C65185   6.511  10.205   0.219  0.0800  0.0179  0.5774
  473MOL0     C65186   6.421  10.266   0.314  0.5662 -0.0324 -0.6993
  473MOL0     N65187   6.178  10.796   0.575  0.3769  0.1107  0.3249
  473MOL0     N65188   6.146  10.912   0.555 -0.6217  0.0127 -0.2194
  473MOL0     C65189   5.192  11.439   0.318 -0.3997 -0.2584  0.1798
  473MOL0     C65190   5.074  11.479   0.375 -0.1297  0.5097  0.6338
  473MOL0     C65191   4.797  11.613   0.691  0.2525  0.3008 -0.7585
  473MOL0     C65192   4.743  11.501   0.758 -0.3637 -0.9167  0.8055
  473MOL0     C65193   4.611  11.513   0.801  0.0978  0.7932  0.0624
  473MOL0     C65194   4.544  11.632   0.780 -0.6732  0.9789  0.3201
  473MOL0     O65195   4.438  11.662   0.857 -0.8986  0.4335 -0.2535
  473MOL0     C65196   4.340  11.557   0.849  0.0393  0.1685 -0.3451
  473MOL0     C65197   4.208  11.608   0.858 -0.2820  0.0991  0.8723
  473MOL0     C65198   4.143  11.651   0.720  0.1488  0.3876 -0.2114
  473MOL0     C65199   4.172  11.797   0.693  0.0913 -0.4014 -0.3719
  473MOL0     C65200   4.130  11.828   0.558  0.5061 -0.3303 -0.5185
  473MOL0     C65201   4.102  11.880   0.446 -0.2814  0.3336 -0.5120
  473MOL0     C65202   4.601  11.738   0.722  0.3335  0.1709 -0.0276
  473MOL0     C65203   4.722  11.733   0.667 -1.2930 -0.2233 -0.1002
  473MOL0     C65204   4.775  11.857   0.605 -0.5445 -0.9279  0.5824
  473MOL0     H65205   5.156  11.790   0.488  2.0029 -0.3965  0.8701
  473MOL0     H65206   5.377  11.715   0.389 -0.2668  1.2496  2.9930
  473MOL0     H65207   5.557  11.372   0.194  0.7615  0.7582  2.4867
  473MOL0     H65208   5.385  11.316   0.184 -0.2577  1.9224 -1.8911
  473MOL0     H65209   5.393  11.303   0.437 -1.1489  0.7755 -1.0376
  473MOL0     H65210   5.493  11.182   0.347 -0.9428  0.0546 -0.7432
  473MOL0     H65211   5.692  11.342   0.388  0.3643  0.5535  2.4641
  473MOL0     H65212   5.581  11.438   0.487  2.7036  0.9832  0.1946
  473MOL0     H65213   5.567  11.245   0.634 -0.6689  0.2078 -0.4188
  473MOL0     H65214   5.662  11.150   0.510 -1.5538 -1.6604  4.1241
  473MOL0     H65215   5.779  11.398   0.636 -0.4598  0.7507 -0.3848
  473MOL0     H65216   5.853  11.285   0.527 -0.1482  2.3178  1.0687
  473MOL0     H65217   5.890  11.271   0.787 -1.3100 -0.8221  0.3195
  473MOL0     H65218   5.729  11.204   0.805 -0.4569  0.0391  1.5549
  473MOL0     H65219   5.834  11.023   0.641 -0.0459 -0.8313  0.4505
  473MOL0     H65220   5.879  11.038   0.815  0.9763  0.1486  0.3790
  473MOL0     H65221   6.058  11.158   0.590  1.9218  1.9758 -0.3840
  473MOL0     H65222   6.089  11.154   0.767  2.4885 -0.6613 -1.5277
  473MOL0     H65223   6.040  10.870   0.854 -1.1571 -1.7210 -0.0009
  473MOL0     H65224   6.057  10.569   0.733 -1.5921  0.9562  1.8921
  473MOL0     H65225   6.158  10.627   0.860  2.7655  0.0669 -1.0235
  473MOL0     H65226   6.286  10.544   0.589 -0.8087 -2.3183  0.6970
  473MOL0     H65227   6.370  10.571   0.746 -0.1264 -2.9071  1.9473
  473MOL0     H65228   6.263  10.392   0.848  1.4279 -0.2633  1.0707
  473MOL0     H65229   6.179  10.352   0.697  0.1526  2.9319 -1.9546
  473MOL0     H65230   6.476  10.372   0.662 -0.3320  0.1639 -2.4851
  473MOL0     H65231   6.391  10.224   0.732 -0.2109  0.5219  0.6208
  473MOL0     H65232   6.514  10.090   0.582 -2.7888  1.8464  0.5972
  473MOL0     H65233   6.646   9.848   0.385  0.2463 -0.7529  0.9480
  473MOL0     H65234   6.653   9.923   0.533 -1.2229 -0.1375 -0.0470
  473MOL0     H65235   6.783   9.968   0.410  0.4900  3.4633  2.6977
  473MOL0     H65236   6.670   9.902  -0.092 -0.3782  2.7052  2.0226
  473MOL0     H65237   6.753   9.838  -0.329  4.0575  0.0443 -1.6918
  473MOL0     H65238   6.972   9.877  -0.606  2.2300  0.1159  1.7465
  473MOL0     H65239   6.849   9.813  -0.501 -0.7432 -0.4508 -2.1026
  473MOL0     H65240   6.784  10.080  -0.614  1.8831  0.0524  1.4387
  473MOL0     H65241   6.821   9.963  -0.737 -0.1068  0.9482  0.5007
  473MOL0     H65242   6.586   9.913  -0.550  1.5837 -0.0643  0.9382
  473MOL0     H65243   6.654   9.805  -0.675  5.0283  0.1823 -0.2870
  473MOL0     H65244   6.607   9.985  -0.840 -1.8026  0.0228 -0.9937
  473MOL0     H65245   6.556  10.096  -0.698 -0.8225  0.6697 -1.3035
  473MOL0     H65246   6.436   9.849  -0.813 -2.3679  1.0092 -0.7045
  473MOL0     H65247   6.389   9.911  -0.655  1.6527 -2.5270  0.6105
  473MOL0     H65248   6.263  10.093  -0.779 -1.8165 -0.0471 -0.2097
  473MOL0     H65249   6.240   9.930  -0.840  3.0514 -1.4844  0.8243
  473MOL0     H65250   6.247  10.107  -1.001 -3.4150 -2.8676  2.7674
  473MOL0     H65251   6.365   9.982  -1.055 -1.0403  0.1032 -0.3183
  473MOL0     H65252   6.551  10.110  -0.969  1.5655  2.4643 -0.7596
  473MOL0     H65253   6.440  10.234  -0.908  1.3897 -1.3028  0.8045
  473MOL0     H65254   6.977  10.206  -0.304 -1.8071  0.6191  0.5232
  473MOL0     H65255   6.899  10.246  -0.062  1.2110 -1.2329  1.2088
  473MOL0     H65256   6.497  10.242   0.118 -4.1221  0.6210  1.2049
  473MOL0     H65257   6.346  10.339   0.288 -1.4179 -2.5901 -2.6523
  473MOL0     H65258   5.213  11.348   0.262  1.6039  1.1125 -1.4714
  473MOL0     H65259   4.991  11.411   0.353  3.5461 -3.8656 -1.3277
  473MOL0     H65260   4.802  11.414   0.786  0.2328 -0.1563  1.9607
  473MOL0     H65261   4.576  11.427   0.857  0.2212  1.3075  0.9463
  473MOL0     H65262   4.353  11.487   0.765 -0.7245  0.8382 -1.0396
  473MOL0     H65263   4.367  11.503   0.940  3.1579  0.3470 -1.0527
  473MOL0     H65264   4.192  11.681   0.938 -0.8298  0.4795  0.4125
  473MOL0     H65265   4.150  11.518   0.880 -1.8076  1.1301  1.2100
  473MOL0     H65266   4.175  11.593   0.633  0.0446 -0.2141  0.1480
  473MOL0     H65267   4.036  11.633   0.714  0.2814 -1.1437  1.1480
  473MOL0     H65268   4.279  11.820   0.697 -0.2828  1.8646  4.7478
  473MOL0     H65269   4.120  11.869   0.756 -0.3693 -0.2786 -0.8789
  473MOL0     H65270   4.054  11.939   0.370 -1.7566  2.4244  1.8697
  473MOL0     H65271   4.544  11.830   0.723 -1.2908 -0.7387 -1.4287
  473MOL0     H65272   4.879  11.840   0.576  0.0861  2.9090 -0.0626
  473MOL0     H65273   4.711  11.875   0.518  0.1219 -1.0855  0.0444
  473MOL0     H65274   4.770  11.946   0.668  4.1426 -0.7307  1.0432
  474MOL0     O65275   0.626   7.355   3.155  0.1983  0.9528  0.4491
  474MOL0     C65276   0.701   7.451   3.126  0.1979 -0.1213  0.4571
  474MOL0     O65277   0.662   7.545   3.037 -0.1548  0.0651  0.7092
  474MOL0     C65278   0.559   7.526   2.951  0.0385  0.3520 -0.2514
  474MOL0     C65279   0.533   7.404   2.879 -0.0066  0.3467 -0.3242
  474MOL0     C65280   0.434   7.396   2.783 -0.6584 -0.5318 -0.3162
  474MOL0     C65281   0.374   7.510   2.734  0.2590  0.3079  0.3707
  474MOL0     O65282   0.286   7.512   2.627 -0.3669 -0.2503 -0.0327
  474MOL0     C65283   0.156   7.461   2.657  0.2533  0.1703  0.9564
  474MOL0     C65284   0.091   7.458   2.511 -0.2551 -0.1324  0.5119
  474MOL0     C65285   0.057   7.595   2.456 -0.1670  1.4487  0.1936
  474MOL0     C65286  -0.006   7.598   2.308 -0.6377  0.3008  0.0563
  474MOL0     C65287  -0.022   7.745   2.278  0.0746 -0.0841  0.6038
  474MOL0     C65288   0.027   7.763   2.127 -0.2407 -0.8571 -0.6429
  474MOL0     C65289  -0.057   7.683   2.031 -0.3811 -0.6536  0.1653
  474MOL0     C65290  -0.055   7.757   1.886  0.9143 -0.1227 -0.6357
  474MOL0     N65291  -0.178   7.705   1.812  0.6623  0.0325 -0.8031
  474MOL0     C65292  -0.295   7.777   1.776 -0.4855  0.1088 -0.3687
  474MOL0     C65293  -0.365   7.701   1.694  0.3434 -0.2596  0.2134
  474MOL0     C65294  -0.486   7.738   1.616 -0.0183 -0.3659 -0.5561
  474MOL0     C65295  -0.445   7.842   1.516 -0.1059 -0.5405  0.5955
  474MOL0     C65296  -0.537   7.874   1.397 -0.4080 -0.1466 -0.6432
  474MOL0     C65297  -0.685   7.915   1.438 -0.7152 -0.1245 -0.2736
  474MOL0     O65298  -0.756   7.800   1.478 -0.1117 -0.0993 -0.5313
  474MOL0     C65299  -0.887   7.817   1.509  0.4348 -0.4171 -0.4139
  474MOL0     C65300  -0.962   7.697   1.529  0.6833  0.4401 -0.4093
  474MOL0     C65301  -1.094   7.693   1.591  0.3747 -0.3460  0.4615
  474MOL0     C65302  -1.168   7.566   1.610  0.7779  1.0658  0.2033
  474MOL0     C65303  -1.152   7.819   1.627 -1.4692 -0.0527 -0.0618
  474MOL0     C65304  -1.272   7.832   1.711  0.0647  0.0631  0.6954
  474MOL0     O65305  -1.350   7.928   1.662 -0.1031  0.6269 -0.2084
  474MOL0     C65306  -1.461   7.965   1.722  0.5631 -0.0935 -0.6361
  474MOL0     C65307  -1.584   7.918   1.688 -0.8703  0.1073 -0.4691
  474MOL0     C65308  -1.705   7.961   1.752 -0.0658 -1.2801  0.7014
  474MOL0     C65309  -1.687   8.059   1.851 -0.1038  1.1850  0.9735
  474MOL0     O65310  -1.807   8.099   1.906 -0.6009  0.6301 -0.5097
  474MOL0     C65311  -1.815   8.203   2.013 -0.1704  0.3579  0.0161
  474MOL0     C65312  -1.936   8.175   2.098  0.6044  0.2886 -0.7988
  474MOL0     C65313  -2.065   8.212   2.033  0.1650 -0.9168  0.3316
  474MOL0     C65314  -2.191   8.179   2.117 -0.2777  0.2903 -0.3194
  474MOL0     C65315  -2.324   8.190   2.039 -0.0407 -0.2537  0.4178
  474MOL0     C65316  -2.330   8.117   1.906  0.3563  0.6601  0.1145
  474MOL0     C65317  -2.314   7.963   1.918  0.1306  0.4818 -0.3667
  474MOL0     C65318  -2.420   7.889   2.006  0.1500 -0.2437  1.2948
  474MOL0    Cl65319  -2.580   7.904   1.923 -0.0418  0.2505  0.6703
  474MOL0     C65320  -1.561   8.118   1.873  0.4877  0.9238 -0.1459
  474MOL0     C65321  -1.446   8.073   1.812  1.0399  0.7138  0.4319
  474MOL0     O65322  -1.294   7.754   1.808 -0.0776 -0.4031 -0.2638
  474MOL0     C65323  -1.079   7.930   1.602  0.9905 -0.4579 -0.3130
  474MOL0     C65324  -0.957   7.941   1.533 -0.1951 -0.7665 -0.3346
  474MOL0     N65325  -0.286   7.590   1.679  0.4716  0.4744 -0.5622
  474MOL0     N65326  -0.186   7.584   1.757 -0.3023 -0.1116 -0.3304
  474MOL0     C65327   0.401   7.628   2.803  0.5322  1.4454 -0.0424
  474MOL0     C65328   0.487   7.634   2.913  0.3187 -1.2166 -0.3148
  474MOL0     C65329   0.832   7.459   3.206  0.4513 -0.2746  0.1988
  474MOL0     C65330   0.838   7.459   3.347 -0.7062 -0.2426  0.7067
  474MOL0     C65331   0.955   7.445   3.409 -1.2374  0.1591 -0.0296
  474MOL0     C65332   1.079   7.457   3.342  0.7343  0.4942  0.9079
  474MOL0     O65333   1.208   7.461   3.405  0.2162  0.2291 -0.0602
  474MOL0     C65334   1.203   7.441   3.547 -0.2588  0.3681  0.2065
  474MOL0     C65335   1.343   7.424   3.615 -0.2408  1.4566  0.9276
  474MOL0     C65336   1.422   7.317   3.543 -0.5027 -1.0238  0.8649
  474MOL0     C65337   1.553   7.287   3.619  0.7740 -0.0440  0.4235
  474MOL0     C65338   1.546   7.247   3.760 -0.2197  0.4092 -0.0959
  474MOL0     C65339   1.540   7.211   3.875  1.1547 -0.9448 -0.4582
  474MOL0     C65340   1.075   7.474   3.206 -0.4795 -0.5116 -0.5736
  474MOL0     C65341   0.950   7.463   3.135 -0.0146  0.0811 -0.3337
  474MOL0     C65342   0.956   7.469   2.988  0.3722 -0.1055  0.0217
  474MOL0     H65343   0.583   7.310   2.898 -2.7346 -0.4514  4.5427
  474MOL0     H65344   0.422   7.304   2.727 -3.2845  1.3908 -3.2471
  474MOL0     H65345   0.099   7.520   2.729  1.0536  0.0713  1.6784
  474MOL0     H65346   0.173   7.360   2.693 -0.1422  1.2314  4.4129
  474MOL0     H65347   0.160   7.408   2.444  0.2779  0.8139  0.3418
  474MOL0     H65348   0.004   7.392   2.511  0.1557 -0.6945 -0.7753
  474MOL0     H65349   0.014   7.658   2.534  1.1753  1.9365  0.5612
  474MOL0     H65350   0.156   7.641   2.463  0.1507  0.7515  0.4473
  474MOL0     H65351   0.070   7.550   2.245  1.4192  0.7881  2.0235
  474MOL0     H65352  -0.104   7.551   2.307 -2.0874  3.0671 -1.5324
  474MOL0     H65353   0.033   7.811   2.346 -0.5657 -0.6803  1.7342
  474MOL0     H65354  -0.127   7.773   2.291 -0.1747 -1.3439  1.5934
  474MOL0     H65355   0.023   7.868   2.096  1.2218  0.3687  2.8490
  474MOL0     H65356   0.132   7.738   2.108 -0.1753  0.2451 -1.8429
  474MOL0     H65357  -0.158   7.694   2.070 -0.9762 -0.9922 -1.2382
  474MOL0     H65358  -0.035   7.577   2.019  0.2919 -0.3213 -1.9025
  474MOL0     H65359  -0.052   7.865   1.900 -2.2421 -0.3219  3.1887
  474MOL0     H65360   0.034   7.722   1.832 -0.1322 -0.9244 -1.9190
  474MOL0     H65361  -0.325   7.870   1.823 -3.6998 -0.1745 -1.6287
  474MOL0     H65362  -0.556   7.784   1.686  0.4262  2.9076 -2.0573
  474MOL0     H65363  -0.535   7.652   1.569  1.9546 -0.5112 -2.4938
  474MOL0     H65364  -0.431   7.937   1.567  0.4446 -0.9040  1.1441
  474MOL0     H65365  -0.344   7.823   1.478 -0.0215  0.3981  0.3273
  474MOL0     H65366  -0.498   7.965   1.350 -0.5781  0.6846  0.7473
  474MOL0     H65367  -0.548   7.801   1.316 -0.3647  1.9627 -2.6559
  474MOL0     H65368  -0.673   7.981   1.525  1.3724 -0.8549  0.0427
  474MOL0     H65369  -0.730   7.971   1.355  1.9821 -1.1191 -2.5822
  474MOL0     H65370  -0.904   7.608   1.505  1.1165  0.1601  1.5196
  474MOL0     H65371  -1.267   7.578   1.566 -0.2106 -3.6450  0.5914
  474MOL0     H65372  -1.169   7.553   1.719 -1.9256  0.6046  0.1799
  474MOL0     H65373  -1.118   7.473   1.581 -0.6013  0.2716  0.2970
  474MOL0     H65374  -1.600   7.838   1.616 -0.9585 -1.3581  1.1099
  474MOL0     H65375  -1.808   7.930   1.743 -1.8566  3.4207  2.0128
  474MOL0     H65376  -1.720   8.198   2.066  0.0826  0.1333 -0.4597
  474MOL0     H65377  -1.824   8.302   1.968 -1.0755 -0.1121 -0.9008
  474MOL0     H65378  -1.942   8.072   2.136 -2.6177  0.5986 -0.1969
  474MOL0     H65379  -1.929   8.227   2.194 -2.0345 -2.8227  1.3121
  474MOL0     H65380  -2.064   8.154   1.941 -2.7790 -1.5088  0.5811
  474MOL0     H65381  -2.067   8.321   2.020 -1.5679 -1.0293 -0.5673
  474MOL0     H65382  -2.192   8.243   2.205  4.5939  0.6675 -0.2636
  474MOL0     H65383  -2.183   8.079   2.161 -5.7574  0.1520  1.0689
  474MOL0     H65384  -2.412   8.167   2.100 -1.1892  1.1816 -0.6194
  474MOL0     H65385  -2.350   8.293   2.014  1.8526  0.5170  1.3972
  474MOL0     H65386  -2.250   8.154   1.842  0.2794  0.1227 -0.2991
  474MOL0     H65387  -2.430   8.134   1.866 -0.5008  2.5365  2.7758
  474MOL0     H65388  -2.216   7.939   1.959 -2.2742 -3.7570  4.0570
  474MOL0     H65389  -2.314   7.915   1.820  2.7891 -3.4903  1.3151
  474MOL0     H65390  -2.416   7.933   2.106  5.3532  2.4576  0.2098
  474MOL0     H65391  -2.399   7.782   1.995 -1.0494 -0.2789 -1.7860
  474MOL0     H65392  -1.556   8.203   1.940 -2.1829  0.1130  1.2696
  474MOL0     H65393  -1.360   8.135   1.835  0.3550  1.3925  1.2246
  474MOL0     H65394  -1.114   8.030   1.627 -0.1585 -1.6047  3.2367
  474MOL0     H65395  -0.906   8.036   1.521 -2.3594  0.7603  1.6491
  474MOL0     H65396   0.338   7.708   2.764 -1.6843 -0.0567  0.2251
  474MOL0     H65397   0.504   7.733   2.953  2.3775 -0.1023 -3.5285
  474MOL0     H65398   0.740   7.461   3.395  0.0782 -0.8086  2.4029
  474MOL0     H65399   0.948   7.430   3.516  0.8347 -0.0932  0.1137
  474MOL0     H65400   1.144   7.528   3.578 -0.4956  1.9472 -4.0488
  474MOL0     H65401   1.149   7.346   3.544  1.7353 -0.8085 -1.8849
  474MOL0     H65402   1.334   7.399   3.721  1.8835  1.6476  1.2038
  474MOL0     H65403   1.407   7.511   3.596  3.3393 -1.3023 -1.0168
  474MOL0     H65404   1.366   7.224   3.530 -0.5997 -1.0589  1.4811
  474MOL0     H65405   1.466   7.354   3.451  0.3666  1.3697  2.1621
  474MOL0     H65406   1.616   7.376   3.620  1.8050 -0.7626  1.0518
  474MOL0     H65407   1.608   7.211   3.562  0.2946  2.2701 -3.4224
  474MOL0     H65408   1.525   7.196   3.980  2.2143 -1.2202 -0.3329
  474MOL0     H65409   1.166   7.483   3.146  0.3875 -1.7895  0.4989
  474MOL0     H65410   1.057   7.450   2.952  0.4958 -0.6006  0.6146
  474MOL0     H65411   0.884   7.397   2.947 -1.5355  1.3774  0.6090
  474MOL0     H65412   0.920   7.563   2.947  0.0892 -1.0390 -1.9912
  475MOL0     O65413   6.787   3.910   4.391 -0.4313 -0.9859  0.7912
  475MOL0     C65414   6.783   3.898   4.515 -0.0456 -0.2239 -0.2596
  475MOL0     O65415   6.783   3.775   4.577  0.3042  0.8756  0.8771
  475MOL0     C65416   6.777   3.657   4.502 -0.1544 -0.0604 -0.3954
  475MOL0     C65417   6.824   3.548   4.569 -0.0059 -0.0478  0.6899
  475MOL0     C65418   6.805   3.415   4.535 -0.8990  0.3082 -0.8695
  475MOL0     C65419   6.743   3.394   4.410  0.0355  0.1138  0.3114
  475MOL0     O65420   6.727   3.258   4.380 -0.6808  0.6866  0.2397
  475MOL0     C65421   6.612   3.234   4.305  0.1595 -0.2186  0.7335
  475MOL0     C65422   6.619   3.187   4.159  0.2094 -0.2529 -0.3753
  475MOL0     C65423   6.701   3.055   4.159 -0.2590 -0.1278  0.4527
  475MOL0     C65424   6.703   3.010   4.018 -0.5365  0.0993  0.2727
  475MOL0     C65425   6.787   2.881   3.986  0.8488 -0.6833  0.3130
  475MOL0     C65426   6.723   2.767   4.050 -0.2219 -0.4217 -0.1854
  475MOL0     C65427   6.760   2.642   3.977 -1.0343  0.2014 -0.3553
  475MOL0     C65428   6.909   2.604   3.986  0.4896 -1.0991 -0.0879
  475MOL0     N65429   6.960   2.565   4.119  0.5234 -0.4158  0.3941
  475MOL0     C65430   6.912   2.466   4.195 -0.0727 -0.0407 -0.1210
  475MOL0     C65431   6.974   2.482   4.315  0.2321 -0.4446  0.7207
  475MOL0     C65432   6.944   2.422   4.444 -0.6956  0.1123  0.6177
  475MOL0     C65433   7.072   2.344   4.472 -0.4339  0.1439  0.3983
  475MOL0     C65434   7.063   2.211   4.394 -0.0943  0.0173 -0.6384
  475MOL0     C65435   7.199   2.146   4.382 -0.5175 -1.0590 -0.1379
  475MOL0     O65436   7.206   2.046   4.481 -0.3791  0.1427  0.4445
  475MOL0     C65437   7.333   1.982   4.518  0.0945 -0.9592 -0.3958
  475MOL0     C65438   7.451   1.989   4.447 -1.3164 -0.4553  0.2132
  475MOL0     C65439   7.566   1.902   4.484  0.4787  2.0748  0.1064
  475MOL0     C65440   7.693   1.921   4.405 -0.2480 -0.1339  0.4738
  475MOL0     C65441   7.550   1.802   4.584  0.3741 -0.6576  0.6573
  475MOL0     C65442   7.664   1.716   4.609 -0.4789 -0.8620  1.1321
  475MOL0     O65443   7.671   1.585   4.571  0.6391 -0.2396  0.0268
  475MOL0     C65444   7.781   1.509   4.603  0.3575 -0.2116  0.5434
  475MOL0     C65445   7.774   1.423   4.718 -0.3765 -0.2788 -0.0221
  475MOL0     C65446   7.904   1.367   4.753  0.1214  0.5367  0.5184
  475MOL0     C65447   8.020   1.374   4.679 -0.6067 -0.2654 -0.0685
  475MOL0     O65448   8.143   1.312   4.708  0.5376 -0.0200 -0.0113
  475MOL0     C65449   8.140   1.172   4.744 -0.5914 -0.5693  0.1202
  475MOL0     C65450   8.276   1.122   4.789 -0.1287  0.7469  1.2301
  475MOL0     C65451   8.374   1.123   4.658 -1.3169 -0.6893  1.0192
  475MOL0     C65452   8.522   1.062   4.695  0.3889  0.4634 -0.0358
  475MOL0     C65453   8.589   0.982   4.585  0.2454  0.6643 -0.0982
  475MOL0     C65454   8.647   1.081   4.495  0.1922 -1.0028 -0.2720
  475MOL0     C65455   8.795   1.064   4.482 -0.1771 -0.7716 -0.7801
  475MOL0     C65456   8.835   0.952   4.397 -0.8672 -0.3581  0.6850
  475MOL0    Cl65457   9.015   0.959   4.398 -0.5992 -0.3017  0.0132
  475MOL0     C65458   8.012   1.455   4.558 -0.0755  0.0040 -0.9616
  475MOL0     C65459   7.895   1.528   4.530 -0.2640 -0.4383 -0.4993
  475MOL0     O65460   7.759   1.773   4.659 -0.4990  0.0206 -0.1200
  475MOL0     C65461   7.427   1.792   4.647 -0.5018  0.1015 -0.1643
  475MOL0     C65462   7.328   1.888   4.624  1.1599  1.4983 -0.5141
  475MOL0     N65463   7.058   2.595   4.303 -0.1037  0.0477  0.3304
  475MOL0     N65464   7.048   2.639   4.187 -0.0613  0.1602  0.1527
  475MOL0     C65465   6.697   3.504   4.331 -0.1081  0.5203  0.1740
  475MOL0     C65466   6.712   3.637   4.377  0.8947 -0.3421 -0.6609
  475MOL0     C65467   6.794   4.017   4.594 -0.1792 -0.7694 -0.9684
  475MOL0     C65468   6.865   4.128   4.541  0.0251 -0.2399 -0.9892
  475MOL0     C65469   6.882   4.251   4.609  0.5392  0.1948  0.3960
  475MOL0     C65470   6.831   4.260   4.740 -1.1856  0.1030 -0.0739
  475MOL0     O65471   6.837   4.382   4.801 -0.0879 -0.0526 -0.4614
  475MOL0     C65472   6.781   4.484   4.718  0.2638  0.6181  0.0775
  475MOL0     C65473   6.780   4.618   4.790  1.2154  0.2829  0.1986
  475MOL0     C65474   6.688   4.603   4.907 -0.0436 -0.6798 -0.5251
  475MOL0     C65475   6.758   4.559   5.035  0.1350 -0.7110 -0.1224
  475MOL0     C65476   6.878   4.635   5.074 -0.1350  0.1665 -0.5312
  475MOL0     C65477   6.977   4.704   5.107  0.6535  0.5223 -0.9371
  475MOL0     C65478   6.760   4.149   4.794  0.4130  0.1022 -0.6656
  475MOL0     C65479   6.747   4.034   4.725  0.3178  0.2204  0.8299
  475MOL0     C65480   6.671   3.930   4.806 -0.2393 -0.4637  0.6109
  475MOL0     H65481   6.889   3.567   4.654 -1.1742 -1.1551  1.8842
  475MOL0     H65482   6.847   3.335   4.595 -1.0784  0.4392 -0.5690
  475MOL0     H65483   6.544   3.319   4.304  0.1486  0.0249 -4.3486
  475MOL0     H65484   6.568   3.152   4.361  2.3006 -0.4727  2.1855
  475MOL0     H65485   6.515   3.167   4.131 -0.4633  1.6604  0.5688
  475MOL0     H65486   6.657   3.262   4.089 -1.2625  2.0817  1.1921
  475MOL0     H65487   6.800   3.089   4.192  0.6843 -0.6402 -1.6535
  475MOL0     H65488   6.647   2.980   4.217 -3.4465  0.1156 -1.9273
  475MOL0     H65489   6.600   2.988   3.988 -0.2660 -0.9095  0.0390
  475MOL0     H65490   6.737   3.093   3.956  2.2424 -0.3181  1.1001
  475MOL0     H65491   6.890   2.905   4.014  0.2915  1.2373  0.8700
  475MOL0     H65492   6.797   2.870   3.877 -1.3872  0.1812 -0.0455
  475MOL0     H65493   6.755   2.759   4.154  0.7829 -3.3466 -0.6058
  475MOL0     H65494   6.614   2.763   4.045 -0.1975 -0.1007 -1.1584
  475MOL0     H65495   6.728   2.642   3.873  0.0041  1.0516 -0.6919
  475MOL0     H65496   6.701   2.560   4.020  0.3417 -1.0779 -0.8021
  475MOL0     H65497   6.931   2.530   3.910 -0.5894 -0.9535 -0.5567
  475MOL0     H65498   6.959   2.697   3.955 -1.9060  0.3719  0.2211
  475MOL0     H65499   6.816   2.422   4.174 -1.3837  3.1200 -1.5043
  475MOL0     H65500   6.861   2.351   4.445 -0.3556 -0.2910  1.6688
  475MOL0     H65501   6.909   2.502   4.511 -3.7980  2.5469 -3.3629
  475MOL0     H65502   7.157   2.409   4.453 -1.2646  1.2604  0.4304
  475MOL0     H65503   7.084   2.325   4.579  0.2197 -0.4647  0.2256
  475MOL0     H65504   6.995   2.150   4.454 -0.6146  3.9560  3.2484
  475MOL0     H65505   7.023   2.215   4.292  0.1973 -2.2177 -0.9042
  475MOL0     H65506   7.209   2.102   4.282  9.0475  0.8084 -0.9683
  475MOL0     H65507   7.285   2.213   4.387  0.2668 -2.0383 -0.1281
  475MOL0     H65508   7.461   2.072   4.377 -0.2154  0.4395  1.3636
  475MOL0     H65509   7.717   2.027   4.419 -0.1533 -0.4387  3.3581
  475MOL0     H65510   7.689   1.903   4.297  2.9109 -0.5112  0.3322
  475MOL0     H65511   7.780   1.866   4.444 -1.3124 -1.8465  0.5430
  475MOL0     H65512   7.680   1.412   4.772 -1.5783 -1.9804 -2.2949
  475MOL0     H65513   7.900   1.314   4.847 -1.7604  0.4461  0.4316
  475MOL0     H65514   8.080   1.159   4.834  1.2851  4.2583  2.4220
  475MOL0     H65515   8.101   1.109   4.663  0.5173  0.5804 -1.3818
  475MOL0     H65516   8.316   1.182   4.872 -0.7576  0.0070  2.0910
  475MOL0     H65517   8.262   1.027   4.842 -0.8848 -0.3242 -0.7799
  475MOL0     H65518   8.400   1.219   4.612 -1.2254 -1.1512  0.0783
  475MOL0     H65519   8.326   1.063   4.581 -0.5301  0.2658 -0.2707
  475MOL0     H65520   8.496   0.990   4.774 -4.9797  2.1455  0.1436
  475MOL0     H65521   8.592   1.128   4.746  3.0101 -2.2969  0.2624
  475MOL0     H65522   8.667   0.921   4.633  0.2624  2.4933  2.3765
  475MOL0     H65523   8.523   0.927   4.518  0.4217  1.7281 -1.1735
  475MOL0     H65524   8.637   1.182   4.537 -2.0499 -2.3898  2.9093
  475MOL0     H65525   8.595   1.083   4.399  0.5343 -0.4484 -0.4522
  475MOL0     H65526   8.837   1.052   4.582  3.6651  3.3739 -1.5856
  475MOL0     H65527   8.822   1.157   4.431  0.3085 -0.8244 -0.6236
  475MOL0     H65528   8.807   0.981   4.295  2.0051  5.3230  1.0640
  475MOL0     H65529   8.792   0.859   4.435 -1.7614 -0.2832 -0.1046
  475MOL0     H65530   8.100   1.484   4.501  0.6273  5.1123  2.1368
  475MOL0     H65531   7.911   1.595   4.446  2.1947 -1.4707 -0.9691
  475MOL0     H65532   7.395   1.711   4.712 -1.6114 -0.5887 -1.5112
  475MOL0     H65533   7.235   1.876   4.678  1.0679  1.9393 -0.5759
  475MOL0     H65534   6.655   3.478   4.234 -1.1242  0.6754  0.5593
  475MOL0     H65535   6.668   3.719   4.320  1.5450  0.3505 -0.1914
  475MOL0     H65536   6.907   4.116   4.442  6.3030 -4.3327  1.4943
  475MOL0     H65537   6.935   4.339   4.573  0.7032  1.3381  3.2129
  475MOL0     H65538   6.832   4.510   4.625  0.9475 -0.0415  0.2599
  475MOL0     H65539   6.678   4.454   4.694 -0.6026  0.2261  3.6088
  475MOL0     H65540   6.740   4.692   4.719 -1.4166 -1.0618  0.1705
  475MOL0     H65541   6.876   4.663   4.816 -0.0323  2.9169  0.6619
  475MOL0     H65542   6.643   4.695   4.945  1.7759 -0.1938  0.5755
  475MOL0     H65543   6.605   4.538   4.879  0.5389 -0.5671 -2.7006
  475MOL0     H65544   6.785   4.454   5.029 -2.1168 -1.3357 -0.2030
  475MOL0     H65545   6.684   4.578   5.113  3.0235 -1.2528  2.9826
  475MOL0     H65546   7.065   4.760   5.129  1.1366  0.4110 -2.4624
  475MOL0     H65547   6.729   4.160   4.897  1.0052 -0.2888 -0.4401
  475MOL0     H65548   6.738   3.843   4.807  1.1423  0.5664  0.6624
  475MOL0     H65549   6.656   3.950   4.913 -1.2187  0.3769  0.3322
  475MOL0     H65550   6.577   3.913   4.754 -0.0615  0.5170 -0.0522
  476MOL0     O65551   6.772   4.309   6.119  0.0598 -0.3892  0.4097
  476MOL0     C65552   6.889   4.289   6.157  0.1503 -0.3995 -0.2836
  476MOL0     O65553   6.951   4.336   6.268 -0.6968  0.2243  0.0014
  476MOL0     C65554   6.887   4.414   6.362  0.0340 -0.1110 -0.7763
  476MOL0     C65555   6.935   4.540   6.376 -0.2247  0.9382 -0.0817
  476MOL0     C65556   6.877   4.637   6.455  0.0045  0.3845 -0.2308
  476MOL0     C65557   6.764   4.606   6.528  0.0108 -0.5770 -0.1502
  476MOL0     O65558   6.717   4.714   6.600  0.8052 -0.1594  0.2822
  476MOL0     C65559   6.582   4.713   6.651 -0.0512 -0.1133 -0.6897
  476MOL0     C65560   6.548   4.840   6.721  1.1281  0.7474 -0.5924
  476MOL0     C65561   6.508   4.956   6.617 -0.0818  1.2218 -0.4103
  476MOL0     C65562   6.445   5.073   6.687  0.4767  0.9125  0.3121
  476MOL0     C65563   6.427   5.204   6.599 -0.1474  0.6590 -0.7941
  476MOL0     C65564   6.356   5.171   6.467 -0.1453 -0.6455  0.3159
  476MOL0     C65565   6.206   5.144   6.481 -0.1161  0.0511  0.4105
  476MOL0     C65566   6.150   5.089   6.345  0.6539 -0.0828  0.3538
  476MOL0     N65567   6.200   4.952   6.329  0.1042  0.0739 -0.3258
  476MOL0     C65568   6.294   4.909   6.238 -0.2362 -1.3606 -0.1949
  476MOL0     C65569   6.316   4.782   6.275  0.0040 -0.3262  0.3953
  476MOL0     C65570   6.412   4.688   6.223  0.4616  0.0019  0.2429
  476MOL0     C65571   6.537   4.742   6.166  0.1284  0.2800 -0.3606
  476MOL0     C65572   6.632   4.625   6.144  0.7901 -0.6696 -0.4611
  476MOL0     C65573   6.733   4.666   6.051  0.2681 -0.2086  0.2879
  476MOL0     O65574   6.812   4.779   6.088 -0.2181 -1.0944 -0.1371
  476MOL0     C65575   6.943   4.777   6.066  0.3874  0.4029 -0.0492
  476MOL0     C65576   7.007   4.704   5.965  0.3705  0.5287  0.4883
  476MOL0     C65577   7.144   4.678   5.976  0.1827  0.1199  0.2591
  476MOL0     C65578   7.207   4.612   5.862 -1.0540  0.7353 -0.2210
  476MOL0     C65579   7.221   4.734   6.083  0.6698 -0.4603 -0.3281
  476MOL0     C65580   7.367   4.713   6.105 -0.5864  0.4878  0.4506
  476MOL0     O65581   7.440   4.710   5.986 -0.9092 -0.2006  0.2041
  476MOL0     C65582   7.567   4.660   5.995 -0.3176 -0.0088 -1.0939
  476MOL0     C65583   7.671   4.727   6.067  1.2923 -0.5710 -0.1315
  476MOL0     C65584   7.803   4.684   6.072 -0.6898  0.2169  0.6163
  476MOL0     C65585   7.846   4.583   5.986  0.3684 -0.0746  0.2767
  476MOL0     O65586   7.978   4.535   5.993  0.2338  0.5268 -0.0518
  476MOL0     C65587   8.029   4.472   6.112 -0.0273  0.9899 -1.1912
  476MOL0     C65588   8.064   4.329   6.081  0.0280  0.0168  0.4879
  476MOL0     C65589   8.105   4.238   6.203 -0.2378 -1.3182 -0.1721
  476MOL0     C65590   8.244   4.288   6.258  0.4751  0.1246 -0.3634
  476MOL0     C65591   8.303   4.180   6.355 -0.2417  0.5087  0.7359
  476MOL0     C65592   8.423   4.225   6.431 -0.1058  0.2629  0.6750
  476MOL0     C65593   8.535   4.280   6.344 -0.8538 -0.1040  1.2964
  476MOL0     C65594   8.661   4.328   6.426 -0.4600  0.2176  0.3849
  476MOL0    Cl65595   8.612   4.472   6.521 -0.0313  0.1421  0.4175
  476MOL0     C65596   7.754   4.529   5.893 -0.5527 -0.3869  0.1947
  476MOL0     C65597   7.623   4.571   5.900  1.4938 -0.5658  0.0895
  476MOL0     O65598   7.407   4.694   6.215 -0.6481 -0.1325 -0.7113
  476MOL0     C65599   7.151   4.820   6.172 -0.0773  0.3441  0.6298
  476MOL0     C65600   7.018   4.836   6.176  0.0564 -0.0819  0.4756
  476MOL0     N65601   6.225   4.743   6.377 -0.0418 -1.1175  0.6432
  476MOL0     N65602   6.156   4.847   6.416 -0.6582  0.5437  0.0142
  476MOL0     C65603   6.711   4.474   6.524 -0.5858  0.3032  0.1013
  476MOL0     C65604   6.782   4.372   6.445  0.8491  0.0302  0.0692
  476MOL0     C65605   6.971   4.215   6.071  0.5755 -0.1369  0.3744
  476MOL0     C65606   7.063   4.117   6.125 -0.4777 -0.1587  0.4973
  476MOL0     C65607   7.128   4.027   6.039  0.1348 -0.0403  0.0305
  476MOL0     C65608   7.107   4.023   5.894  0.1925  0.2986 -0.0172
  476MOL0     O65609   7.171   3.917   5.825  0.3412  0.5324  0.1122
  476MOL0     C65610   7.165   3.883   5.680 -0.2350  0.2895  0.0707
  476MOL0     C65611   7.062   3.777   5.659 -0.0784  0.6478  0.4464
  476MOL0     C65612   7.108   3.708   5.524 -0.0903  0.4632  0.0294
  476MOL0     C65613   7.230   3.610   5.545 -0.2594  0.3551  0.7908
  476MOL0     C65614   7.256   3.565   5.403 -0.3119  0.8702 -0.2938
  476MOL0     C65615   7.257   3.520   5.291  0.4376 -1.0586 -0.1648
  476MOL0     C65616   7.012   4.118   5.849 -0.6025 -0.4580  0.5377
  476MOL0     C65617   6.941   4.211   5.934 -0.6302  0.5239 -0.2697
  476MOL0     C65618   6.854   4.311   5.866  0.5241  0.1545  0.1547
  476MOL0     H65619   7.027   4.563   6.322  2.0343  0.3267  3.2379
  476MOL0     H65620   6.912   4.740   6.455 -1.9911  1.3863 -5.3519
  476MOL0     H65621   6.582   4.629   6.721  2.2711  1.1447  0.9794
  476MOL0     H65622   6.506   4.690   6.576 -0.9826 -0.5711  0.3545
  476MOL0     H65623   6.464   4.823   6.789  2.6368 -0.5556  1.0558
  476MOL0     H65624   6.631   4.877   6.782 -1.1765  2.1246  1.8971
  476MOL0     H65625   6.600   4.990   6.569  1.0658 -2.4764 -1.2071
  476MOL0     H65626   6.437   4.903   6.554  2.2092 -1.8318 -0.6773
  476MOL0     H65627   6.346   5.055   6.731  0.5981  3.1145  1.6115
  476MOL0     H65628   6.514   5.102   6.767  2.7962 -0.8997 -0.9032
  476MOL0     H65629   6.519   5.258   6.575  0.6968  0.7264  2.2129
  476MOL0     H65630   6.362   5.270   6.659  0.9877  0.2977  0.8945
  476MOL0     H65631   6.366   5.264   6.410  1.7154 -1.8031 -1.3535
  476MOL0     H65632   6.414   5.092   6.418  0.5322  0.7818 -1.2718
  476MOL0     H65633   6.155   5.238   6.500  0.6017  0.3794  0.7628
  476MOL0     H65634   6.204   5.080   6.570  2.6190 -1.8597 -0.7505
  476MOL0     H65635   6.043   5.095   6.365 -0.0043  0.8207 -2.8806
  476MOL0     H65636   6.188   5.149   6.262  2.0815  2.3735  2.6190
  476MOL0     H65637   6.357   4.969   6.172  1.0122 -0.3966  1.7764
  476MOL0     H65638   6.352   4.643   6.144 -1.0825  0.8410  0.8930
  476MOL0     H65639   6.439   4.609   6.294  2.3101  0.6007  0.2806
  476MOL0     H65640   6.539   4.807   6.078  1.3908  2.8310  1.4123
  476MOL0     H65641   6.578   4.800   6.250 -1.9476  0.9967  0.2214
  476MOL0     H65642   6.683   4.599   6.237 -0.7213 -2.1628 -0.0060
  476MOL0     H65643   6.584   4.538   6.100 -1.4639  0.3781 -0.2058
  476MOL0     H65644   6.803   4.584   6.035  1.5669  1.0379 -0.6676
  476MOL0     H65645   6.686   4.693   5.956 -1.8354 -2.2934  0.6376
  476MOL0     H65646   6.955   4.671   5.876  2.4822 -0.8211 -0.3391
  476MOL0     H65647   7.128   4.577   5.795 -0.3398 -0.7012 -0.3474
  476MOL0     H65648   7.258   4.520   5.893  1.2313  2.3749  1.1744
  476MOL0     H65649   7.272   4.675   5.801 -1.9974  0.3624 -1.6494
  476MOL0     H65650   7.657   4.818   6.125 -2.8487 -0.2157 -1.3680
  476MOL0     H65651   7.879   4.742   6.123  3.1663 -2.9014 -1.0601
  476MOL0     H65652   8.116   4.520   6.158  0.3305 -0.6559 -0.0636
  476MOL0     H65653   7.951   4.467   6.188 -2.7138 -1.4085 -3.8333
  476MOL0     H65654   7.979   4.285   6.028  0.2481  0.6217 -0.3946
  476MOL0     H65655   8.139   4.318   6.002  0.4909  2.0755  0.5668
  476MOL0     H65656   8.116   4.134   6.171  2.1612 -1.4379  0.8563
  476MOL0     H65657   8.033   4.250   6.285  0.6240  1.7542  0.2635
  476MOL0     H65658   8.219   4.384   6.305 -1.5946  0.9140 -2.8520
  476MOL0     H65659   8.310   4.298   6.172 -0.6644 -0.4683 -1.3395
  476MOL0     H65660   8.218   4.144   6.413 -1.2262  2.6193  0.6707
  476MOL0     H65661   8.319   4.088   6.298 -2.5102  0.2731  0.3935
  476MOL0     H65662   8.467   4.146   6.493  0.8372 -0.0613 -0.3748
  476MOL0     H65663   8.387   4.297   6.504 -1.8106 -0.6669  0.7867
  476MOL0     H65664   8.509   4.370   6.288  1.7759  1.3336  2.2268
  476MOL0     H65665   8.562   4.209   6.265 -0.9301  1.3228 -0.0353
  476MOL0     H65666   8.746   4.357   6.363  2.3627 -1.5206  3.1536
  476MOL0     H65667   8.697   4.252   6.495 -1.2791 -1.0023 -0.4996
  476MOL0     H65668   7.787   4.456   5.819  3.2962 -0.7827  2.0478
  476MOL0     H65669   7.545   4.531   5.836 -1.6279  0.9304  2.6820
  476MOL0     H65670   7.209   4.873   6.246  1.2390  1.4382 -1.0917
  476MOL0     H65671   6.968   4.890   6.255  0.9094  0.8974  0.3713
  476MOL0     H65672   6.625   4.450   6.586  1.2939  0.4610  2.9837
  476MOL0     H65673   6.739   4.273   6.431  1.2927 -0.4748  1.9481
  476MOL0     H65674   7.085   4.129   6.231  0.9679 -1.2327  0.3443
  476MOL0     H65675   7.193   3.949   6.079  0.4433  0.5464  0.6940
  476MOL0     H65676   7.136   3.974   5.626 -0.9966 -1.0038 -1.7577
  476MOL0     H65677   7.258   3.844   5.638 -2.0979 -2.8111 -1.5177
  476MOL0     H65678   6.969   3.834   5.653 -1.8672 -1.8286  2.5548
  476MOL0     H65679   7.063   3.706   5.742  3.0465  2.1813  1.8772
  476MOL0     H65680   7.027   3.644   5.489  0.5874 -0.9414  0.9076
  476MOL0     H65681   7.132   3.788   5.453  0.8574 -1.1659 -1.5592
  476MOL0     H65682   7.204   3.524   5.607  1.8895 -3.1121 -2.6485
  476MOL0     H65683   7.322   3.659   5.580  0.9860 -1.0390 -0.3890
  476MOL0     H65684   7.243   3.467   5.199 -0.7559 -3.7733  1.4519
  476MOL0     H65685   6.982   4.116   5.745 -0.6230  2.8233  0.3742
  476MOL0     H65686   6.878   4.410   5.905 -2.6395 -0.0180  3.0256
  476MOL0     H65687   6.865   4.302   5.757  0.8787 -0.6701  0.2519
  476MOL0     H65688   6.751   4.282   5.889  0.4446  1.0266  0.9618
  477MOL0     O65689   1.401  10.221   2.575 -0.0810 -0.5424  1.2863
  477MOL0     C65690   1.474  10.205   2.473  1.0187  0.3179  0.0121
  477MOL0     O65691   1.429  10.204   2.342  0.6280  0.2346 -0.0523
  477MOL0     C65692   1.295  10.233   2.326 -0.0007 -0.0143 -0.3451
  477MOL0     C65693   1.242  10.350   2.373 -0.2711  0.5632 -0.2367
  477MOL0     C65694   1.108  10.380   2.349 -0.1110  0.3660 -0.6333
  477MOL0     C65695   1.030  10.307   2.260 -0.3192 -0.1771  0.7656
  477MOL0     O65696   0.910  10.357   2.214 -0.5259  0.2696 -1.3826
  477MOL0     C65697   0.920  10.375   2.072 -0.6423 -0.6451  0.3261
  477MOL0     C65698   0.805  10.444   2.005  0.1607  0.8230 -0.2257
  477MOL0     C65699   0.822  10.458   1.853  1.0898 -0.8404 -0.2294
  477MOL0     C65700   0.785  10.332   1.768 -0.8156 -0.2705  0.0459
  477MOL0     C65701   0.905  10.235   1.747  0.6060  0.3990 -0.3341
  477MOL0     C65702   0.863  10.127   1.636  0.0352  0.6194  0.2073
  477MOL0     C65703   0.986  10.048   1.591  0.0228  0.5527  0.4071
  477MOL0     C65704   0.963   9.967   1.457 -0.7482 -0.0808 -0.2483
  477MOL0     N65705   0.937  10.052   1.343 -0.0800 -0.7260  0.8208
  477MOL0     C65706   1.014  10.150   1.306 -0.0490  0.3116 -0.8681
  477MOL0     C65707   0.953  10.207   1.199  1.0094  1.1135  0.0892
  477MOL0     C65708   0.960  10.336   1.119 -0.1444 -0.9778 -0.2446
  477MOL0     C65709   0.901  10.347   0.981 -0.3069  0.6519 -0.4354
  477MOL0     C65710   0.993  10.263   0.885 -0.0194 -0.4767 -0.4825
  477MOL0     C65711   1.125  10.333   0.853 -0.2057  0.6359  0.1217
  477MOL0     O65712   1.232  10.249   0.846  0.1033 -0.6300  0.5708
  477MOL0     C65713   1.353  10.289   0.796  0.1079 -0.2088  0.4190
  477MOL0     C65714   1.437  10.186   0.769 -0.5032 -0.5138 -1.3567
  477MOL0     C65715   1.566  10.207   0.712 -0.2825  0.2987 -0.4072
  477MOL0     C65716   1.642  10.079   0.679 -0.7855  0.3601 -0.1603
  477MOL0     C65717   1.613  10.340   0.685  0.1297  0.5112  0.2378
  477MOL0     C65718   1.747  10.373   0.639  0.5478 -0.1589 -0.2620
  477MOL0     O65719   1.782  10.506   0.665  0.3774  0.5363  0.1944
  477MOL0     C65720   1.891  10.560   0.601  0.1764  0.1368 -1.0484
  477MOL0     C65721   2.018  10.525   0.656  0.0537 -0.6212  0.1291
  477MOL0     C65722   2.135  10.562   0.590  0.3718 -0.0854  0.9002
  477MOL0     C65723   2.128  10.616   0.452  0.5217 -0.0674 -0.2235
  477MOL0     O65724   2.249  10.650   0.391  0.1214  0.1659  0.4694
  477MOL0     C65725   2.337  10.544   0.348  0.2822 -0.3533  0.6065
  477MOL0     C65726   2.406  10.609   0.228  0.2349  0.0940  0.3540
  477MOL0     C65727   2.508  10.715   0.269 -0.0993 -0.1130 -0.1127
  477MOL0     C65728   2.620  10.666   0.361  0.0899 -0.1105 -0.2288
  477MOL0     C65729   2.736  10.774   0.357 -0.6672  0.0779  0.1903
  477MOL0     C65730   2.831  10.758   0.474 -0.5485 -0.3005 -0.0626
  477MOL0     C65731   2.936  10.868   0.483 -0.1385  0.2347 -0.8255
  477MOL0     C65732   3.040  10.892   0.371  0.2535 -0.3160 -0.2924
  477MOL0    Cl65733   3.187  10.781   0.380  0.1177 -0.0510  0.4580
  477MOL0     C65734   1.993  10.645   0.403 -0.4762  0.9257  0.5697
  477MOL0     C65735   1.876  10.621   0.475  0.2093  0.9928 -0.2284
  477MOL0     O65736   1.832  10.289   0.618  0.0453  1.3163  0.6441
  477MOL0     C65737   1.520  10.440   0.720  0.5145 -0.7086 -0.1737
  477MOL0     C65738   1.393  10.420   0.769 -1.5455  0.6861  0.5220
  477MOL0     N65739   0.836  10.131   1.174 -0.3650 -0.7034  0.4529
  477MOL0     N65740   0.831  10.031   1.261  0.5288 -0.3138 -1.0287
  477MOL0     C65741   1.087  10.194   2.205 -0.1267  0.5883 -0.4884
  477MOL0     C65742   1.219  10.151   2.248 -0.3406  0.5640 -0.8098
  477MOL0     C65743   1.623  10.198   2.495 -0.1121 -1.2201  0.0983
  477MOL0     C65744   1.696  10.212   2.374 -0.1996 -0.0021  0.8042
  477MOL0     C65745   1.832  10.212   2.373  0.3860 -0.9711 -0.3380
  477MOL0     C65746   1.910  10.207   2.486 -0.4287 -0.0162 -0.9388
  477MOL0     O65747   2.046  10.204   2.458 -0.0649 -0.2986  0.2613
  477MOL0     C65748   2.128  10.299   2.527 -0.0164  1.0202  0.1707
  477MOL0     C65749   2.100  10.444   2.490 -0.2479 -0.6515  1.1067
  477MOL0     C65750   2.108  10.460   2.335  0.4996 -0.3921 -0.2055
  477MOL0     C65751   2.141  10.596   2.294  0.1365 -0.0813  0.0030
  477MOL0     C65752   2.153  10.594   2.142  0.7230 -0.3539  0.1714
  477MOL0     C65753   2.175  10.617   2.020 -0.9276 -0.2800 -0.0687
  477MOL0     C65754   1.842  10.186   2.610  0.5952 -0.2084 -0.1554
  477MOL0     C65755   1.698  10.176   2.611 -0.8582 -0.4056 -1.0019
  477MOL0     C65756   1.633  10.156   2.753 -0.3691  0.1218  0.3676
  477MOL0     H65757   1.296  10.412   2.443 -1.4824  1.7185 -0.2810
  477MOL0     H65758   1.061  10.465   2.398  0.0092 -0.2268  0.5510
  477MOL0     H65759   0.910  10.273   2.033  2.2715 -0.9849  0.2807
  477MOL0     H65760   1.017  10.420   2.052 -0.7865 -0.3511  0.2802
  477MOL0     H65761   0.725  10.384   2.050  1.7862  0.8214  2.9204
  477MOL0     H65762   0.786  10.538   2.056  0.8216  0.5181  0.6160
  477MOL0     H65763   0.749  10.538   1.841  0.6399 -0.8137  2.1311
  477MOL0     H65764   0.921  10.497   1.827  0.4047 -0.0713 -1.8346
  477MOL0     H65765   0.709  10.277   1.824 -0.3168 -1.2620 -0.2323
  477MOL0     H65766   0.748  10.370   1.672 -3.1671 -3.3134 -0.4125
  477MOL0     H65767   0.926  10.175   1.836 -1.2176 -0.7665 -0.6280
  477MOL0     H65768   0.990  10.298   1.723  0.2818  1.9761  2.3275
  477MOL0     H65769   0.783  10.062   1.672 -0.6714  1.0826 -0.4889
  477MOL0     H65770   0.815  10.171   1.548 -1.9044  1.1503  1.4743
  477MOL0     H65771   1.014   9.972   1.665  0.5170  0.8420  0.5191
  477MOL0     H65772   1.069  10.117   1.576 -0.2999  0.5824 -1.3599
  477MOL0     H65773   1.049   9.902   1.440 -0.2462  0.8176 -1.2839
  477MOL0     H65774   0.878   9.900   1.475 -1.7796  1.1151 -0.5001
  477MOL0     H65775   1.102  10.173   1.366 -1.0400 -1.1265  1.2416
  477MOL0     H65776   1.064  10.372   1.118 -0.6967  1.0146  2.6296
  477MOL0     H65777   0.911  10.406   1.186 -0.5442 -1.9565  0.5092
  477MOL0     H65778   0.797  10.314   0.969 -0.2936  0.6544 -0.5582
  477MOL0     H65779   0.895  10.452   0.950 -3.4643  0.3339 -1.3264
  477MOL0     H65780   1.009  10.170   0.940  0.7263 -0.6968 -1.0524
  477MOL0     H65781   0.946  10.241   0.789 -2.3624  1.0943  0.2203
  477MOL0     H65782   1.097  10.392   0.765 -2.8515  1.4357  1.3700
  477MOL0     H65783   1.146  10.420   0.917  1.7707 -0.3931  0.9473
  477MOL0     H65784   1.391  10.092   0.796 -0.6085 -0.4851 -1.4353
  477MOL0     H65785   1.743  10.085   0.722 -0.4597  1.1654 -1.0004
  477MOL0     H65786   1.651  10.060   0.572 -0.3009 -0.5077  0.0221
  477MOL0     H65787   1.587   9.992   0.715  2.6780 -1.5898  0.9723
  477MOL0     H65788   2.018  10.464   0.746 -1.3351 -1.6635 -0.5396
  477MOL0     H65789   2.226  10.553   0.647 -0.0213  0.2103  1.5848
  477MOL0     H65790   2.408  10.515   0.426  5.6349  4.5425 -1.7297
  477MOL0     H65791   2.287  10.452   0.317 -1.5977  0.3491  1.4195
  477MOL0     H65792   2.445  10.530   0.164 -1.0888  1.2155 -1.9563
  477MOL0     H65793   2.344  10.658   0.153 -1.4029  0.1265  1.6558
  477MOL0     H65794   2.466  10.806   0.313  2.2141  0.5059  0.9132
  477MOL0     H65795   2.557  10.751   0.178 -1.4286  3.4495  0.3948
  477MOL0     H65796   2.670  10.576   0.324 -0.2853  0.4066 -2.0842
  477MOL0     H65797   2.581  10.652   0.462  2.8244  1.6456  1.1846
  477MOL0     H65798   2.788  10.768   0.261  1.0415 -2.9569  1.1653
  477MOL0     H65799   2.690  10.872   0.374 -0.2764  0.4674 -0.9133
  477MOL0     H65800   2.889  10.666   0.470  0.6057  0.3414  1.0061
  477MOL0     H65801   2.781  10.760   0.572 -1.4987  0.6172 -0.5523
  477MOL0     H65802   2.992  10.851   0.576  4.3463  0.7998 -3.1377
  477MOL0     H65803   2.881  10.962   0.491  1.0731  1.0936 -2.1282
  477MOL0     H65804   3.083  10.992   0.380  4.2231 -1.7495 -1.4553
  477MOL0     H65805   2.994  10.882   0.273  0.8676  0.5274 -0.6827
  477MOL0     H65806   1.994  10.704   0.312 -1.4155  0.0563 -0.0254
  477MOL0     H65807   1.780  10.640   0.430  1.9539  9.5447 -2.1152
  477MOL0     H65808   1.564  10.537   0.697  0.6718 -0.8123 -0.3137
  477MOL0     H65809   1.335  10.509   0.793 -1.0903  1.8434 -2.2774
  477MOL0     H65810   1.031  10.124   2.144  0.2935 -1.6712  1.5764
  477MOL0     H65811   1.247  10.056   2.203 -1.6390 -0.3085  0.1495
  477MOL0     H65812   1.649  10.235   2.279  0.8377  0.9078  0.5009
  477MOL0     H65813   1.902  10.214   2.290  0.5195 -0.5692 -0.2209
  477MOL0     H65814   2.115  10.286   2.635 -1.5163 -1.6779 -0.2536
  477MOL0     H65815   2.230  10.276   2.496  0.1867  1.9510  0.1153
  477MOL0     H65816   2.179  10.504   2.535  0.8073  1.2275 -2.8157
  477MOL0     H65817   2.014  10.498   2.530  1.5498  1.9814  1.6852
  477MOL0     H65818   2.168  10.380   2.291  0.8183 -3.8609  5.5661
  477MOL0     H65819   2.005  10.451   2.297  1.0809 -0.1797 -1.9261
  477MOL0     H65820   2.243  10.609   2.331  0.2734 -3.3074  1.0499
  477MOL0     H65821   2.069  10.670   2.328 -1.8993 -1.6610 -0.6438
  477MOL0     H65822   2.181  10.631   1.914  0.9927  0.4953  0.0952
  477MOL0     H65823   1.889  10.152   2.702  2.8177 -2.8013 -2.0792
  477MOL0     H65824   1.526  10.171   2.767 -0.3384 -0.8194  1.8283
  477MOL0     H65825   1.664  10.059   2.793  1.8497  0.8033  0.4601
  477MOL0     H65826   1.681  10.232   2.816 -0.0578  2.0517 -2.0380
  478MOL0     O65827  11.112   4.205   7.267 -0.1463 -0.4953  0.3162
  478MOL0     C65828  11.140   4.290   7.181 -0.7765  0.1059  0.0653
  478MOL0     O65829  11.087   4.417   7.166  0.0576  0.1063 -0.0393
  478MOL0     C65830  10.987   4.464   7.253  0.4615 -0.6477  0.6956
  478MOL0     C65831  10.862   4.404   7.281 -0.7122 -0.1526  0.2305
  478MOL0     C65832  10.776   4.459   7.379 -0.5271 -0.6067  0.4540
  478MOL0     C65833  10.818   4.572   7.454  0.1614 -0.6857 -1.0405
  478MOL0     O65834  10.763   4.599   7.572  0.2997  0.2220 -0.5471
  478MOL0     C65835  10.806   4.715   7.664  1.1803 -1.0518  0.0781
  478MOL0     C65836  10.724   4.714   7.792 -0.5464  0.1645  0.1547
  478MOL0     C65837  10.718   4.570   7.864  0.8028  0.3876 -0.4052
  478MOL0     C65838  10.636   4.571   7.988 -0.7440  0.3059 -0.1066
  478MOL0     C65839  10.657   4.428   8.059  0.1651  0.4823  0.1513
  478MOL0     C65840  10.588   4.402   8.189 -0.3614  0.1153 -0.2486
  478MOL0     C65841  10.605   4.524   8.283 -0.4166  0.5438  0.0672
  478MOL0     C65842  10.557   4.489   8.423 -0.0934 -0.4293 -0.1042
  478MOL0     N65843  10.604   4.599   8.514  0.1580  0.3065  0.1719
  478MOL0     C65844  10.707   4.587   8.603 -1.4156  0.6270  0.0528
  478MOL0     C65845  10.706   4.707   8.664  0.2328 -0.4593 -1.6034
  478MOL0     C65846  10.819   4.747   8.775 -0.1188  0.5364  0.1633
  478MOL0     C65847  10.963   4.753   8.723  0.0656 -0.0701 -0.7065
  478MOL0     C65848  11.001   4.894   8.680  0.1737 -0.1725 -0.4033
  478MOL0     C65849  10.889   4.962   8.597 -0.3999  0.1256  0.0589
  478MOL0     O65850  10.937   5.086   8.535  0.2737  0.7589 -0.1832
  478MOL0     C65851  10.858   5.147   8.438 -0.6243 -0.4857 -0.1443
  478MOL0     C65852  10.718   5.129   8.425  0.2837  0.6968  1.2162
  478MOL0     C65853  10.651   5.187   8.309 -0.3503  1.2453 -0.5611
  478MOL0     C65854  10.504   5.182   8.309  0.6736 -0.1582 -0.7176
  478MOL0     C65855  10.738   5.238   8.202  0.0581 -0.3998 -0.5918
  478MOL0     C65856  10.686   5.272   8.072 -0.1372 -0.9547 -0.0893
  478MOL0     O65857  10.782   5.290   7.967  0.0863 -0.2819 -0.0466
  478MOL0     C65858  10.741   5.342   7.850 -1.1489  0.1120  0.3520
  478MOL0     C65859  10.773   5.258   7.742 -0.3914 -1.1376 -0.3763
  478MOL0     C65860  10.756   5.315   7.610 -0.2501  0.0915 -0.3862
  478MOL0     C65861  10.712   5.454   7.604 -0.8119  0.0462 -0.0497
  478MOL0     O65862  10.703   5.508   7.482  1.2371 -0.1629 -0.0403
  478MOL0     C65863  10.682   5.645   7.463  0.1142  0.4854 -0.2132
  478MOL0     C65864  10.537   5.672   7.433  0.2033  0.1117 -0.3433
  478MOL0     C65865  10.497   5.631   7.297  0.6232 -0.2677  1.0932
  478MOL0     C65866  10.346   5.643   7.265 -1.4992  0.4421 -0.9124
  478MOL0     C65867  10.267   5.523   7.340  0.2245  0.6032 -0.6523
  478MOL0     C65868  10.127   5.572   7.370 -0.0539  0.2124 -1.1210
  478MOL0     C65869  10.033   5.466   7.427  0.2943  0.7341  0.3521
  478MOL0     C65870   9.894   5.510   7.469  0.1597  0.0834 -0.4982
  478MOL0    Cl65871   9.829   5.631   7.358 -0.0782 -0.0841  0.0077
  478MOL0     C65872  10.676   5.526   7.713  0.5945 -0.7822 -0.4145
  478MOL0     C65873  10.679   5.467   7.832  0.0981  0.0126 -0.5793
  478MOL0     O65874  10.568   5.276   8.049 -0.2343 -0.4051 -0.5834
  478MOL0     C65875  10.874   5.261   8.223 -0.3344  0.8042 -0.2546
  478MOL0     C65876  10.932   5.209   8.338  0.6425  0.4403 -0.7959
  478MOL0     N65877  10.607   4.794   8.604  0.9694  1.4697 -0.1491
  478MOL0     N65878  10.543   4.720   8.517 -0.5573 -0.7291 -0.3605
  478MOL0     C65879  10.929   4.642   7.404  0.5532 -0.8205  0.5307
  478MOL0     C65880  11.006   4.598   7.300 -0.5408  0.1552 -0.0946
  478MOL0     C65881  11.240   4.252   7.077  0.5031 -0.5167  0.1378
  478MOL0     C65882  11.239   4.321   6.956  0.4665  0.7015  0.0991
  478MOL0     C65883  11.335   4.298   6.861  0.2862 -0.4965  0.0826
  478MOL0     C65884  11.423   4.202   6.867  0.8846 -0.2181  0.1989
  478MOL0     O65885  11.525   4.181   6.772  0.1485 -0.4578 -0.2119
  478MOL0     C65886  11.494   4.071   6.685  0.0713  0.6912  0.3526
  478MOL0     C65887  11.406   4.116   6.574  0.2527 -0.4587 -1.0192
  478MOL0     C65888  11.493   4.189   6.470 -0.4061 -0.9336  0.4255
  478MOL0     C65889  11.414   4.292   6.377 -0.9623  0.0871  0.3418
  478MOL0     C65890  11.308   4.223   6.290 -0.1512 -0.5125  0.2348
  478MOL0     C65891  11.227   4.172   6.221  0.4339 -0.1537  0.6059
  478MOL0     C65892  11.431   4.126   6.979  0.6539 -0.7518 -0.4403
  478MOL0     C65893  11.341   4.157   7.090 -0.3280  0.2892  0.3316
  478MOL0     C65894  11.369   4.071   7.214 -0.9871 -0.2987  0.0542
  478MOL0     H65895  10.832   4.317   7.224  0.8601 -1.3733  1.2055
  478MOL0     H65896  10.691   4.398   7.408  1.2942 -3.0788  0.9890
  478MOL0     H65897  10.795   4.812   7.616 -1.4745 -2.0233 -1.4888
  478MOL0     H65898  10.909   4.702   7.697  1.9361 -0.7647 -2.0600
  478MOL0     H65899  10.760   4.780   7.872 -0.2633  0.1611  0.0307
  478MOL0     H65900  10.626   4.760   7.776 -0.8059 -0.1869  0.6853
  478MOL0     H65901  10.671   4.498   7.797  0.0615  0.9761 -0.5298
  478MOL0     H65902  10.819   4.536   7.889  0.9695  2.0432  1.4410
  478MOL0     H65903  10.674   4.650   8.053  0.3057 -0.1605 -0.1310
  478MOL0     H65904  10.530   4.586   7.968 -0.5141 -0.0739 -1.7264
  478MOL0     H65905  10.763   4.405   8.068  0.2660 -0.4168 -2.6009
  478MOL0     H65906  10.622   4.353   7.987 -0.3393  1.5635 -0.7617
  478MOL0     H65907  10.479   4.388   8.182 -0.6024  0.2464  2.4057
  478MOL0     H65908  10.608   4.302   8.227 -1.8199 -0.1119 -0.0097
  478MOL0     H65909  10.555   4.614   8.246  0.0830  1.2277  1.0082
  478MOL0     H65910  10.711   4.546   8.297 -0.1509 -0.1644 -0.8152
  478MOL0     H65911  10.449   4.503   8.422  0.1015  1.2743 -0.6552
  478MOL0     H65912  10.589   4.392   8.463  2.6919 -0.0566 -1.1813
  478MOL0     H65913  10.783   4.513   8.626  2.4087  4.2075  0.3296
  478MOL0     H65914  10.842   4.668   8.847 -1.3990  0.2106  0.2512
  478MOL0     H65915  10.781   4.831   8.834  1.2956 -0.9447  3.4355
  478MOL0     H65916  11.028   4.706   8.798 -1.9635  0.8616  1.7870
  478MOL0     H65917  10.973   4.687   8.636 -1.5756  1.8757 -2.4599
  478MOL0     H65918  11.020   4.952   8.771  1.8017  0.4042 -1.0745
  478MOL0     H65919  11.095   4.897   8.624  0.4780 -0.9320  0.0533
  478MOL0     H65920  10.847   4.895   8.521 -2.7021  2.1756 -0.5959
  478MOL0     H65921  10.804   4.986   8.662  0.4391  1.3526  0.7571
  478MOL0     H65922  10.649   5.071   8.486 -1.0688  0.4177 -0.4752
  478MOL0     H65923  10.461   5.161   8.408  0.9313 -1.4273 -0.8553
  478MOL0     H65924  10.461   5.110   8.239 -0.7662 -0.5458  0.5270
  478MOL0     H65925  10.466   5.284   8.300  1.9204  0.2258 -2.0793
  478MOL0     H65926  10.825   5.164   7.753 -1.8473 -2.0311 -0.9096
  478MOL0     H65927  10.793   5.260   7.525  1.8988 -1.6154  1.5161
  478MOL0     H65928  10.715   5.702   7.550  0.6389 -2.3761  1.6073
  478MOL0     H65929  10.747   5.680   7.383  0.1506 -0.2936 -0.5349
  478MOL0     H65930  10.476   5.620   7.507 -0.4487 -1.0608 -1.6473
  478MOL0     H65931  10.508   5.778   7.431 -1.7455 -0.3586  0.4738
  478MOL0     H65932  10.525   5.525   7.286  3.3147  0.0995  3.3989
  478MOL0     H65933  10.549   5.696   7.227 -0.2975 -0.1566  0.4982
  478MOL0     H65934  10.324   5.636   7.158 -0.7709 -1.0633 -0.9928
  478MOL0     H65935  10.301   5.734   7.306 -2.9495 -1.8069  3.0114
  478MOL0     H65936  10.258   5.430   7.284 -2.1640 -2.6836  4.4885
  478MOL0     H65937  10.312   5.493   7.435 -0.8782  0.6826 -0.0898
  478MOL0     H65938  10.078   5.618   7.284 -0.7740 -1.5539 -1.6879
  478MOL0     H65939  10.141   5.647   7.449  3.9369 -1.8733  0.4783
  478MOL0     H65940  10.087   5.406   7.499 -0.5052 -2.1315 -1.2826
  478MOL0     H65941  10.008   5.405   7.340 -1.0366 -0.0951  1.2684
  478MOL0     H65942   9.898   5.547   7.572  2.6797  0.3040 -0.6124
  478MOL0     H65943   9.819   5.430   7.470 -1.9528  1.8301  3.3216
  478MOL0     H65944  10.647   5.630   7.722  2.8680 -0.0461 -0.8828
  478MOL0     H65945  10.659   5.523   7.923  2.6716  0.1173  0.0099
  478MOL0     H65946  10.940   5.315   8.157  0.3702  0.9969  0.5744
  478MOL0     H65947  11.036   5.225   8.366  0.0537  2.3342  0.5443
  478MOL0     H65948  10.954   4.737   7.452  0.5613 -1.8374  2.6777
  478MOL0     H65949  11.095   4.649   7.264  1.7729 -2.1982  1.9293
  478MOL0     H65950  11.173   4.401   6.924 -0.5570 -0.9808 -2.3487
  478MOL0     H65951  11.327   4.360   6.772  0.5133 -2.4533 -1.3727
  478MOL0     H65952  11.585   4.030   6.641 -1.3662  1.9128 -4.3423
  478MOL0     H65953  11.439   3.988   6.729 -0.7282  0.3477 -1.2063
  478MOL0     H65954  11.326   4.186   6.599  0.3446  0.0426 -2.0315
  478MOL0     H65955  11.358   4.028   6.530  1.4462 -1.3704 -0.5457
  478MOL0     H65956  11.586   4.235   6.504 -0.8196  0.4231 -0.2292
  478MOL0     H65957  11.526   4.112   6.399  1.3963  1.4850 -1.4971
  478MOL0     H65958  11.481   4.328   6.299  0.2710 -2.2504  0.2355
  478MOL0     H65959  11.353   4.366   6.429 -2.5637 -1.5996  1.0112
  478MOL0     H65960  11.169   4.119   6.148 -1.4304  0.6206  1.4426
  478MOL0     H65961  11.507   4.049   6.984  0.0058 -1.4026 -0.5912
  478MOL0     H65962  11.285   4.002   7.225 -1.3387  0.0311 -0.5468
  478MOL0     H65963  11.462   4.015   7.202 -1.4331 -0.8963 -0.7940
  478MOL0     H65964  11.380   4.149   7.290 -1.5794  1.8646 -1.9848
  479MOL0     O65965   5.442   5.749   7.826  0.4149  0.1278 -0.5093
  479MOL0     C65966   5.394   5.704   7.929  0.2609  0.2254 -0.4224
  479MOL0     O65967   5.344   5.574   7.945  0.5608  0.2077 -0.6497
  479MOL0     C65968   5.310   5.499   7.839 -1.3476  0.9859  0.3286
  479MOL0     C65969   5.194   5.515   7.771 -0.0044 -0.2566 -0.0895
  479MOL0     C65970   5.163   5.439   7.661  0.9991 -0.0367  0.5315
  479MOL0     C65971   5.262   5.356   7.601  0.3046 -0.5911 -0.2271
  479MOL0     O65972   5.218   5.282   7.497  0.4868  0.1852  0.4851
  479MOL0     C65973   5.312   5.259   7.395 -0.2121  0.1979  0.1512
  479MOL0     C65974   5.314   5.102   7.382 -0.5495  0.0923  0.1308
  479MOL0     C65975   5.361   5.022   7.502  0.6669  0.0255 -0.6361
  479MOL0     C65976   5.427   4.886   7.472  0.5143 -0.5262 -0.7704
  479MOL0     C65977   5.463   4.821   7.610 -0.2850 -0.9615  1.5650
  479MOL0     C65978   5.353   4.733   7.666  0.0482 -0.6968 -0.8834
  479MOL0     C65979   5.401   4.641   7.779 -0.6413 -0.1867 -0.5975
  479MOL0     C65980   5.437   4.499   7.730 -0.1476 -0.0049  0.0991
  479MOL0     N65981   5.326   4.418   7.675  0.0023 -0.0934 -0.2759
  479MOL0     C65982   5.323   4.352   7.555 -0.7442 -0.2773  0.2879
  479MOL0     C65983   5.203   4.292   7.557 -0.3897 -0.1547  0.9687
  479MOL0     C65984   5.149   4.214   7.449  0.4439  0.6675 -0.5240
  479MOL0     C65985   5.078   4.306   7.353 -0.3745 -0.7383  0.7352
  479MOL0     C65986   5.009   4.247   7.233 -1.1048  0.4773 -0.7709
  479MOL0     C65987   4.940   4.349   7.152  1.0380 -0.0230 -0.4423
  479MOL0     O65988   4.840   4.423   7.220  0.3350  0.3899 -0.1439
  479MOL0     C65989   4.784   4.536   7.161  0.4748  0.0783  0.8422
  479MOL0     C65990   4.793   4.554   7.016  0.7960  0.2949  0.0712
  479MOL0     C65991   4.742   4.666   6.956  0.6336  0.0924  0.0309
  479MOL0     C65992   4.776   4.698   6.812  0.7446  0.5498 -0.4498
  479MOL0     C65993   4.664   4.756   7.031  0.4737  0.4924  0.2585
  479MOL0     C65994   4.609   4.878   6.976  0.7533 -0.4780 -0.9472
  479MOL0     O65995   4.671   4.993   7.011  0.7366 -0.9480 -0.1452
  479MOL0     C65996   4.645   5.110   6.954 -0.0271 -0.3553 -0.8940
  479MOL0     C65997   4.536   5.147   6.871  0.3367 -0.6854 -0.1026
  479MOL0     C65998   4.506   5.276   6.825  0.4432  0.6111  0.0131
  479MOL0     C65999   4.592   5.375   6.867 -0.5935 -0.7737 -0.5882
  479MOL0     O66000   4.572   5.504   6.826 -0.4039 -0.2070 -0.2592
  479MOL0     C66001   4.442   5.563   6.851  0.0652  0.6733  0.1270
  479MOL0     C66002   4.419   5.690   6.769 -1.5766 -0.0701 -0.2708
  479MOL0     C66003   4.447   5.685   6.618 -0.2521 -0.3476 -0.2593
  479MOL0     C66004   4.392   5.565   6.537 -1.3421 -1.0085 -0.7096
  479MOL0     C66005   4.236   5.569   6.525 -0.2507 -0.3099  0.1414
  479MOL0     C66006   4.200   5.436   6.472  1.4245 -0.4499  0.3525
  479MOL0     C66007   4.044   5.424   6.452 -0.7070 -0.5735  0.0710
  479MOL0     C66008   4.004   5.299   6.386 -0.1636  0.0599  0.1212
  479MOL0    Cl66009   3.816   5.274   6.391 -0.0936 -0.1185 -0.0571
  479MOL0     C66010   4.700   5.343   6.945  0.1924  0.3563  0.2660
  479MOL0     C66011   4.722   5.212   6.990  0.3364 -1.1599 -0.1693
  479MOL0     O66012   4.496   4.866   6.921  0.2072  0.2313 -0.7629
  479MOL0     C66013   4.657   4.734   7.170  0.3162  0.2204  0.7585
  479MOL0     C66014   4.720   4.633   7.232 -0.0365  0.8753 -0.4659
  479MOL0     N66015   5.143   4.321   7.677  0.8102 -0.1058 -0.0173
  479MOL0     N66016   5.213   4.393   7.751  0.0165 -0.0935  0.7072
  479MOL0     C66017   5.383   5.349   7.665 -0.9326  0.2568  0.2198
  479MOL0     C66018   5.410   5.417   7.782  0.3769 -0.8081  0.7753
  479MOL0     C66019   5.385   5.797   8.045  0.3093  0.2876 -0.5507
  479MOL0     C66020   5.364   5.744   8.175 -0.5802  0.3853  0.2041
  479MOL0     C66021   5.342   5.827   8.286  0.1473 -0.4831 -0.0672
  479MOL0     C66022   5.354   5.970   8.281  0.2072  1.5447  0.9933
  479MOL0     O66023   5.336   6.058   8.387 -1.0063 -0.2336 -0.3308
  479MOL0     C66024   5.414   6.019   8.503  0.1985  0.8549  0.1926
  479MOL0     C66025   5.562   6.012   8.488  0.9557 -0.2644  0.5892
  479MOL0     C66026   5.622   5.990   8.636 -0.5476  0.5792  0.8112
  479MOL0     C66027   5.766   5.962   8.637 -0.7477 -0.3512  0.0613
  479MOL0     C66028   5.803   5.876   8.753 -0.6004 -0.4325  0.8630
  479MOL0     C66029   5.831   5.816   8.853  0.4115 -0.6267  1.1408
  479MOL0     C66030   5.387   6.021   8.157  0.1256 -0.1793  0.2333
  479MOL0     C66031   5.399   5.942   8.038  0.3851  0.6693 -0.4070
  479MOL0     C66032   5.404   6.013   7.902  0.0741  0.4028 -0.1148
  479MOL0     H66033   5.109   5.568   7.813 -0.8506  0.1427 -2.1686
  479MOL0     H66034   5.064   5.434   7.616  0.9909 -2.8761  0.7190
  479MOL0     H66035   5.413   5.299   7.396  0.5382 -1.3526 -2.8023
  479MOL0     H66036   5.279   5.284   7.294 -0.5602  0.1224  0.2452
  479MOL0     H66037   5.215   5.069   7.350 -3.2523  2.2326  5.1099
  479MOL0     H66038   5.392   5.092   7.306 -0.0243  2.1910  0.3270
  479MOL0     H66039   5.432   5.095   7.542 -0.8224  0.2014  1.9113
  479MOL0     H66040   5.273   5.001   7.564  0.6720  0.0503 -0.6202
  479MOL0     H66041   5.360   4.815   7.423  1.2730 -3.5359  2.1133
  479MOL0     H66042   5.515   4.899   7.408  2.1608  0.6051  1.5514
  479MOL0     H66043   5.479   4.895   7.689 -0.4012 -0.4462  1.1120
  479MOL0     H66044   5.558   4.767   7.604 -0.0680 -0.4493 -1.7661
  479MOL0     H66045   5.269   4.796   7.698 -0.8372 -0.0582 -4.0787
  479MOL0     H66046   5.310   4.669   7.589 -0.6767 -2.1706  0.6781
  479MOL0     H66047   5.319   4.639   7.852 -2.8242  1.8814 -2.8118
  479MOL0     H66048   5.496   4.677   7.819 -0.4677  0.7931 -1.8356
  479MOL0     H66049   5.521   4.514   7.661  0.6059 -0.5072  0.8784
  479MOL0     H66050   5.476   4.432   7.809  0.0953 -4.0773 -3.1263
  479MOL0     H66051   5.389   4.362   7.469 -1.3969 -1.9894 -0.4636
  479MOL0     H66052   5.086   4.129   7.474  1.1208 -0.4886 -2.5269
  479MOL0     H66053   5.232   4.165   7.397 -1.3416 -2.5024 -0.6270
  479MOL0     H66054   4.995   4.344   7.413 -0.3071  0.4328  0.1182
  479MOL0     H66055   5.134   4.396   7.328 -1.8578  0.4837  1.6163
  479MOL0     H66056   5.085   4.197   7.172 -1.5380 -2.3899  0.8599
  479MOL0     H66057   4.946   4.166   7.271  1.4867 -0.5766  1.6374
  479MOL0     H66058   5.014   4.424   7.121  0.6825  0.6153  0.2160
  479MOL0     H66059   4.885   4.293   7.076 -2.1162  1.5478  0.5173
  479MOL0     H66060   4.830   4.470   6.958  0.0489 -1.5977  2.1943
  479MOL0     H66061   4.782   4.601   6.760 -1.5823 -0.4066  0.8998
  479MOL0     H66062   4.874   4.744   6.825  0.7420  0.1114  1.4512
  479MOL0     H66063   4.706   4.758   6.753  1.0981 -0.3741 -1.8547
  479MOL0     H66064   4.467   5.066   6.849 -2.0751  1.3175 -0.4568
  479MOL0     H66065   4.428   5.302   6.754 -1.2284 -0.9692  1.1649
  479MOL0     H66066   4.362   5.502   6.809 -0.2904  1.8937 -1.0283
  479MOL0     H66067   4.425   5.583   6.957  0.9832 -1.3198  0.6811
  479MOL0     H66068   4.315   5.718   6.790 -1.1874  0.0468  1.6929
  479MOL0     H66069   4.478   5.773   6.807  2.8533 -2.0536 -2.1833
  479MOL0     H66070   4.552   5.703   6.594 -0.9409  0.8644 -2.7077
  479MOL0     H66071   4.404   5.780   6.585  3.5270  1.4878 -0.3344
  479MOL0     H66072   4.430   5.479   6.592  4.1768  1.8027  0.5649
  479MOL0     H66073   4.442   5.553   6.441 -1.7229  0.2287 -1.0857
  479MOL0     H66074   4.188   5.609   6.615  1.5470  0.8762  0.6333
  479MOL0     H66075   4.214   5.645   6.450  0.0369 -0.8744 -0.5266
  479MOL0     H66076   4.228   5.351   6.536  0.1225 -0.5808  0.7784
  479MOL0     H66077   4.235   5.419   6.370 -0.4997 -1.9366 -0.1323
  479MOL0     H66078   3.995   5.512   6.410 -0.6529 -0.7485 -0.3675
  479MOL0     H66079   4.014   5.404   6.555  1.7604 -0.5528  0.8679
  479MOL0     H66080   4.050   5.212   6.434  2.3470 -0.7784 -3.3976
  479MOL0     H66081   4.046   5.300   6.285 -2.6158  0.7118 -0.9665
  479MOL0     H66082   4.765   5.425   6.972  1.3047 -1.1961  2.6834
  479MOL0     H66083   4.800   5.183   7.060  1.9445 -1.9796 -2.2160
  479MOL0     H66084   4.596   4.794   7.236  0.4660 -0.3258  1.4084
  479MOL0     H66085   4.710   4.619   7.339 -1.0464  1.8391 -0.4153
  479MOL0     H66086   5.474   5.294   7.643  1.8622  2.3753  4.8418
  479MOL0     H66087   5.508   5.408   7.829  2.3712  2.7911 -2.1714
  479MOL0     H66088   5.363   5.636   8.182  1.7086  0.1381 -1.8072
  479MOL0     H66089   5.323   5.785   8.384  2.4503  1.0481  1.1477
  479MOL0     H66090   5.391   6.097   8.576 -2.0360  0.0250  0.4552
  479MOL0     H66091   5.372   5.928   8.546 -1.3603  1.5135  0.1149
  479MOL0     H66092   5.595   6.101   8.433 -0.0907  0.2576  0.7821
  479MOL0     H66093   5.590   5.940   8.410 -1.6303 -0.0055 -0.7077
  479MOL0     H66094   5.611   6.084   8.691 -3.4099 -0.4835  2.2997
  479MOL0     H66095   5.573   5.908   8.690  1.6748 -1.1559  0.3321
  479MOL0     H66096   5.833   6.048   8.628  1.8674 -2.4275 -2.4592
  479MOL0     H66097   5.790   5.908   8.545 -3.0217  1.3863 -1.6756
  479MOL0     H66098   5.864   5.780   8.948  2.2535  1.2338  1.2983
  479MOL0     H66099   5.386   6.129   8.144 -0.3379 -0.3085 -0.8694
  479MOL0     H66100   5.333   5.981   7.826  2.3642  2.8420 -3.5518
  479MOL0     H66101   5.391   6.121   7.916  1.6814  0.5620  0.3107
  479MOL0     H66102   5.505   6.018   7.862  0.4097  1.1228  0.7743
  480MOL0     O66103   3.612  10.147   0.780 -0.4204 -0.2757 -0.7819
  480MOL0     C66104   3.571  10.056   0.712  0.3468 -0.5251  0.0188
  480MOL0     O66105   3.641   9.966   0.646  0.5869  0.4290  0.2228
  480MOL0     C66106   3.778   9.943   0.675 -0.8344 -0.1594 -0.2072
  480MOL0     C66107   3.862   9.950   0.568 -0.9886 -0.3544 -0.0904
  480MOL0     C66108   4.002   9.913   0.589  0.1428 -0.1869  0.7566
  480MOL0     C66109   4.049   9.872   0.711  0.2325 -0.3977 -0.5976
  480MOL0     O66110   4.178   9.827   0.725 -0.1113  0.3511 -0.4297
  480MOL0     C66111   4.216   9.791   0.857  0.8950  0.3824  0.0206
  480MOL0     C66112   4.367   9.772   0.865  0.4681  0.1889 -1.5430
  480MOL0     C66113   4.434   9.909   0.878 -0.8716 -0.0979  0.5746
  480MOL0     C66114   4.584   9.899   0.826 -0.3903 -0.8155 -0.2921
  480MOL0     C66115   4.641  10.045   0.812 -0.4089 -0.4959 -0.3347
  480MOL0     C66116   4.792  10.048   0.771  0.0865 -0.8527  0.6635
  480MOL0     C66117   4.811  10.001   0.626  0.5337 -1.0222 -0.5661
  480MOL0     C66118   4.961  10.006   0.603 -0.3154 -0.0454  0.9141
  480MOL0     N66119   5.035   9.905   0.671  0.6076  0.4615  0.0565
  480MOL0     C66120   5.023   9.766   0.665 -0.1761 -0.2619 -0.4980
  480MOL0     C66121   5.093   9.721   0.771 -0.7480 -0.6740  0.0606
  480MOL0     C66122   5.127   9.585   0.792  0.6824  0.6478 -0.3774
  480MOL0     C66123   5.172   9.562   0.938  0.3305  0.6450  0.9980
  480MOL0     C66124   5.063   9.561   1.047 -1.1680  0.1184  1.2806
  480MOL0     C66125   5.093   9.449   1.134 -1.0092 -0.3290 -0.2302
  480MOL0     O66126   4.965   9.423   1.201  0.1378  0.2301 -0.1363
  480MOL0     C66127   4.957   9.330   1.307 -0.9746 -0.2432  0.2984
  480MOL0     C66128   5.059   9.263   1.362 -0.6196  0.4400  0.2065
  480MOL0     C66129   5.046   9.179   1.466  0.4264  0.2782  0.5055
  480MOL0     C66130   5.171   9.120   1.521 -0.0409  0.1108 -0.6918
  480MOL0     C66131   4.916   9.163   1.523 -0.4359  1.5545 -0.9934
  480MOL0     C66132   4.900   9.067   1.631 -0.0789 -0.1829  0.7209
  480MOL0     O66133   4.949   8.935   1.610 -0.3318  0.4812  0.4083
  480MOL0     C66134   4.921   8.844   1.707 -0.7525  0.2087 -0.6535
  480MOL0     C66135   4.869   8.726   1.663  0.2195  0.0951  1.1503
  480MOL0     C66136   4.837   8.623   1.755  0.0398 -0.0628  0.3219
  480MOL0     C66137   4.869   8.633   1.884 -0.9796 -0.2724 -0.7323
  480MOL0     O66138   4.852   8.531   1.980  0.6129 -0.0454  0.6672
  480MOL0     C66139   4.877   8.562   2.121  1.1450  0.9522 -0.0391
  480MOL0     C66140   4.775   8.489   2.212  0.2102  0.4698 -0.1659
  480MOL0     C66141   4.803   8.342   2.246  0.4997 -0.7656  1.1852
  480MOL0     C66142   4.739   8.314   2.385  0.8151 -0.0270 -0.3166
  480MOL0     C66143   4.777   8.170   2.426 -0.5697  0.6017  0.0895
  480MOL0     C66144   4.744   8.139   2.574 -0.4146 -0.5364  0.1991
  480MOL0     C66145   4.817   8.011   2.610 -1.0212  0.1066 -0.1540
  480MOL0     C66146   4.787   7.940   2.746  0.8935 -0.7275 -0.1181
  480MOL0    Cl66147   4.883   7.790   2.769  0.0551  0.1701 -0.4075
  480MOL0     C66148   4.935   8.755   1.929  0.3051  0.1709 -0.6808
  480MOL0     C66149   4.955   8.861   1.840  0.0764  0.2730 -0.3250
  480MOL0     O66150   4.854   9.110   1.736  0.4800  0.5787  0.1408
  480MOL0     C66151   4.804   9.233   1.467  0.4479  0.1084 -0.1808
  480MOL0     C66152   4.826   9.319   1.364 -0.0226  0.0813  0.1847
  480MOL0     N66153   5.161   9.835   0.832 -0.0248  0.4008 -0.1294
  480MOL0     N66154   5.130   9.935   0.758 -0.2184  1.2956 -0.1790
  480MOL0     C66155   3.950   9.853   0.817  0.6094 -0.4460  0.2552
  480MOL0     C66156   3.823   9.902   0.796  0.5931  0.1169 -0.4685
  480MOL0     C66157   3.427  10.025   0.719 -0.8857 -0.4612  0.8332
  480MOL0     C66158   3.372   9.950   0.608  0.1354  0.6256 -0.4841
  480MOL0     C66159   3.235   9.923   0.591 -0.2775  1.0946  0.3618
  480MOL0     C66160   3.155   9.949   0.688 -0.0600 -0.5443 -0.1199
  480MOL0     O66161   3.022   9.917   0.670  0.0028 -0.0162 -0.7125
  480MOL0     C66162   2.913  10.004   0.710  0.5742 -0.6381 -0.1708
  480MOL0     C66163   2.776   9.954   0.652 -1.2910 -0.4985  0.0855
  480MOL0     C66164   2.781   9.941   0.501  0.1581 -0.5209  0.5487
  480MOL0     C66165   2.654  10.002   0.438 -0.1574  0.2152  0.2747
  480MOL0     C66166   2.665  10.147   0.409  0.6499  0.3201  0.3044
  480MOL0     C66167   2.667  10.266   0.373 -0.0308  0.2370 -0.1889
  480MOL0     C66168   3.198  10.023   0.798  0.3868 -0.1178 -0.7289
  480MOL0     C66169   3.330  10.072   0.813  0.1719  0.9930 -0.4779
  480MOL0     C66170   3.349  10.159   0.934  0.3746  0.1772 -0.1025
  480MOL0     H66171   3.841   9.989   0.469  5.6458 -0.5167 -2.0735
  480MOL0     H66172   4.086   9.925   0.521  1.8089  0.3164  2.8003
  480MOL0     H66173   4.175   9.692   0.878  0.8526  0.4252  0.1377
  480MOL0     H66174   4.177   9.868   0.925 -1.9391  0.2907 -1.3936
  480MOL0     H66175   4.388   9.724   0.961  0.9945  0.8780 -1.3110
  480MOL0     H66176   4.417   9.709   0.791  1.3501 -0.4311 -0.4342
  480MOL0     H66177   4.383   9.977   0.809  1.9896  0.6684 -0.9317
  480MOL0     H66178   4.433   9.952   0.979 -2.9467  1.8623 -0.1892
  480MOL0     H66179   4.640   9.839   0.899  1.8475 -1.9822 -2.7707
  480MOL0     H66180   4.599   9.839   0.735  1.1165  2.9531 -2.7650
  480MOL0     H66181   4.641  10.104   0.904 -2.1523 -0.4308 -0.3357
  480MOL0     H66182   4.588  10.103   0.737 -2.9235 -2.4751 -0.2368
  480MOL0     H66183   4.822  10.152   0.782 -3.8775  0.4816  0.3845
  480MOL0     H66184   4.850   9.984   0.838 -0.3137 -0.4417  1.4147
  480MOL0     H66185   4.774  10.080   0.561 -2.0572 -0.5409  1.3520
  480MOL0     H66186   4.774   9.900   0.607 -0.0403 -1.2890  1.6146
  480MOL0     H66187   4.984  10.007   0.496 -1.3973  2.8342  0.6183
  480MOL0     H66188   4.996  10.101   0.644  1.8989 -0.2954 -0.2698
  480MOL0     H66189   4.962   9.700   0.605 -0.3524  1.1112 -1.8861
  480MOL0     H66190   5.208   9.559   0.723 -1.7337  1.4589 -3.7647
  480MOL0     H66191   5.042   9.519   0.773 -0.8216  2.8322 -1.6376
  480MOL0     H66192   5.218   9.462   0.929  1.4477  1.0840  1.6133
  480MOL0     H66193   5.254   9.630   0.964  0.9304  1.3270 -2.3118
  480MOL0     H66194   5.061   9.658   1.099 -2.1223 -0.0939  1.6686
  480MOL0     H66195   4.976   9.542   0.983  0.8972 -0.9360 -1.4136
  480MOL0     H66196   5.125   9.362   1.076  1.3373 -1.5988  2.6884
  480MOL0     H66197   5.168   9.473   1.210 -1.6218  3.0748 -0.5402
  480MOL0     H66198   5.163   9.292   1.346  0.1546 -1.9947  0.5092
  480MOL0     H66199   5.247   9.198   1.511 -1.7049  1.4987 -5.7298
  480MOL0     H66200   5.195   9.031   1.462 -2.4474  0.4682 -2.3987
  480MOL0     H66201   5.173   9.098   1.628  0.5566  2.2037 -0.2260
  480MOL0     H66202   4.836   8.720   1.560 -0.1583  1.3362  1.1826
  480MOL0     H66203   4.806   8.522   1.730  1.0753  0.1211 -2.0005
  480MOL0     H66204   4.980   8.547   2.153  1.5749  2.0529 -0.8441
  480MOL0     H66205   4.851   8.666   2.143 -2.1014  0.3505 -0.4558
  480MOL0     H66206   4.783   8.543   2.307  0.4772  1.0636 -0.5240
  480MOL0     H66207   4.677   8.501   2.164  0.5093 -3.5817 -2.1794
  480MOL0     H66208   4.910   8.327   2.261  0.4697  0.7005  3.5579
  480MOL0     H66209   4.771   8.281   2.161  2.9538  0.3767 -0.6959
  480MOL0     H66210   4.632   8.333   2.374  0.7303  0.3913  1.1286
  480MOL0     H66211   4.768   8.392   2.456  0.3626  0.4869 -0.6783
  480MOL0     H66212   4.725   8.102   2.357 -1.5096  1.2086  0.1717
  480MOL0     H66213   4.884   8.164   2.407 -1.2278  0.4318 -4.7254
  480MOL0     H66214   4.638   8.118   2.590 -0.4177 -1.4317 -0.8712
  480MOL0     H66215   4.773   8.216   2.646 -1.2252  0.0951 -0.1346
  480MOL0     H66216   4.917   8.055   2.606 -0.7878 -0.1942  1.5223
  480MOL0     H66217   4.810   7.929   2.538  3.8782 -1.7097  1.0272
  480MOL0     H66218   4.682   7.912   2.761  0.9954  0.1078  2.6805
  480MOL0     H66219   4.812   8.011   2.825 -2.0737  1.0419 -0.5949
  480MOL0     H66220   4.963   8.772   2.032 -1.2981  0.5006 -0.2682
  480MOL0     H66221   5.000   8.948   1.886 -2.8364  1.2264  0.9755
  480MOL0     H66222   4.710   9.210   1.518  0.6839 -2.7928 -0.8785
  480MOL0     H66223   4.753   9.388   1.321  1.5087  1.5871 -0.1238
  480MOL0     H66224   3.963   9.814   0.917  2.1993  2.1675  1.1847
  480MOL0     H66225   3.748   9.878   0.872  1.0754  0.0596 -0.0036
  480MOL0     H66226   3.438   9.917   0.528  1.2344  1.1238  0.1920
  480MOL0     H66227   3.200   9.868   0.503  0.3926  1.7280 -0.3154
  480MOL0     H66228   2.922  10.006   0.819 -0.2480 -0.4422 -0.1048
  480MOL0     H66229   2.928  10.099   0.659  0.1418  0.6882  2.0413
  480MOL0     H66230   2.714  10.032   0.698  0.4206  0.6092  0.5753
  480MOL0     H66231   2.755   9.852   0.686  2.6792 -2.4526 -2.5628
  480MOL0     H66232   2.869   9.988   0.457 -1.6518  1.6069 -1.0446
  480MOL0     H66233   2.774   9.834   0.476 -2.1274 -0.2473 -0.2274
  480MOL0     H66234   2.559   9.990   0.491 -0.6922  2.9760  0.0937
  480MOL0     H66235   2.644   9.963   0.337  0.4007 -2.1164  1.0667
  480MOL0     H66236   2.666  10.370   0.345 -1.8026  0.2865 -0.0393
  480MOL0     H66237   3.135  10.048   0.882 -0.4823  0.6043 -1.5816
  480MOL0     H66238   3.392  10.258   0.917  0.9993 -0.2858 -1.3368
  480MOL0     H66239   3.260  10.167   0.996 -0.6079 -1.0539 -1.3034
  480MOL0     H66240   3.423  10.112   1.001  2.7285  4.7787  0.9417
  481MOL0     O66241   1.873   9.405   4.415 -0.7769  0.3849  0.1421
  481MOL0     C66242   1.937   9.495   4.473 -0.5839  0.0869 -0.2917
  481MOL0     O66243   1.975   9.616   4.414 -0.0908  0.7418  0.4045
  481MOL0     C66244   1.899   9.638   4.299  0.4303  0.2734 -0.4812
  481MOL0     C66245   1.944   9.613   4.173 -0.8103  0.1539  0.4878
  481MOL0     C66246   1.874   9.648   4.056  0.1522  0.0635  1.3062
  481MOL0     C66247   1.749   9.707   4.067  0.9654  0.4873 -0.2171
  481MOL0     O66248   1.686   9.728   3.954 -0.6369 -0.1459 -0.1414
  481MOL0     C66249   1.552   9.703   3.943  0.5855  0.0409 -0.0322
  481MOL0     C66250   1.492   9.773   3.811  0.4880 -0.2348 -0.3004
  481MOL0     C66251   1.485   9.925   3.810  0.6978 -0.6091 -0.5330
  481MOL0     C66252   1.375   9.988   3.726  0.2308  0.5933 -0.2105
  481MOL0     C66253   1.339   9.917   3.597 -0.3131 -0.2549 -0.0183
  481MOL0     C66254   1.456   9.918   3.493 -0.5072  0.0110 -0.0406
  481MOL0     C66255   1.425   9.869   3.354  0.5516  0.5376 -0.4349
  481MOL0     C66256   1.541   9.897   3.252 -0.3171 -0.2547 -0.1549
  481MOL0     N66257   1.537   9.795   3.146  0.4358 -0.2189 -0.3700
  481MOL0     C66258   1.424   9.726   3.089 -0.2163 -0.5209  0.0010
  481MOL0     C66259   1.480   9.644   2.995  0.3815  0.0726 -0.1446
  481MOL0     C66260   1.418   9.541   2.908 -0.7508 -0.7884 -0.3138
  481MOL0     C66261   1.270   9.497   2.950 -0.1449  0.2584 -0.0764
  481MOL0     C66262   1.207   9.396   2.862  0.5714  0.1490 -0.0002
  481MOL0     C66263   1.069   9.344   2.909  0.2191 -0.4076  0.0715
  481MOL0     O66264   0.999   9.431   2.994  0.7046  0.0930  0.1247
  481MOL0     C66265   0.923   9.527   2.936 -0.1351 -0.9693  1.0628
  481MOL0     C66266   0.921   9.561   2.798 -0.5990  0.4401 -0.4876
  481MOL0     C66267   0.844   9.662   2.750  1.0802 -0.1053  0.2089
  481MOL0     C66268   0.854   9.678   2.590 -0.1739 -0.2421 -0.2805
  481MOL0     C66269   0.746   9.731   2.834  0.4688 -0.0575  0.6438
  481MOL0     C66270   0.650   9.832   2.786  0.4459 -0.1975  0.5401
  481MOL0     O66271   0.667   9.959   2.835  0.1681 -0.0951  0.4502
  481MOL0     C66272   0.649  10.066   2.746 -0.0905 -0.7133 -0.4898
  481MOL0     C66273   0.616  10.182   2.812  0.3080  0.5202 -0.6403
  481MOL0     C66274   0.604  10.296   2.734 -0.3378 -0.4376  0.1014
  481MOL0     C66275   0.615  10.298   2.598  0.5660  0.4672 -0.0868
  481MOL0     O66276   0.616  10.420   2.530 -0.7522 -0.2329 -0.1295
  481MOL0     C66277   0.485  10.448   2.484  0.0857 -0.0064  0.3433
  481MOL0     C66278   0.494  10.592   2.445  0.2217  0.5471 -0.6841
  481MOL0     C66279   0.412  10.622   2.314 -1.0459  0.0150  0.1759
  481MOL0     C66280   0.483  10.555   2.200 -0.4290  0.5812 -0.1995
  481MOL0     C66281   0.399  10.560   2.082 -0.3497 -0.5792  0.3640
  481MOL0     C66282   0.470  10.530   1.944  0.4540  0.2820 -0.4487
  481MOL0     C66283   0.370  10.534   1.828 -0.1094 -1.4923  0.6516
  481MOL0     C66284   0.337  10.668   1.748 -0.1669  0.7221  0.1766
  481MOL0    Cl66285   0.236  10.766   1.853  0.2544 -0.5857 -0.4392
  481MOL0     C66286   0.657  10.175   2.540 -0.7033  0.4534 -0.1053
  481MOL0     C66287   0.679  10.057   2.614 -0.1153 -0.0326  0.8253
  481MOL0     O66288   0.554   9.795   2.714 -0.3385  0.5643 -1.0244
  481MOL0     C66289   0.758   9.702   2.977  0.1035  0.7019  0.1294
  481MOL0     C66290   0.847   9.608   3.026  0.3410  0.4848 -0.7598
  481MOL0     N66291   1.616   9.671   2.990  0.0659  0.6227  0.2594
  481MOL0     N66292   1.642   9.751   3.079 -0.0934 -0.2143 -0.5463
  481MOL0     C66293   1.709   9.750   4.200  0.1225  0.9959 -0.2625
  481MOL0     C66294   1.777   9.711   4.316  0.4381 -0.2057 -0.4874
  481MOL0     C66295   2.012   9.467   4.597  0.6982 -1.0680 -0.1333
  481MOL0     C66296   2.132   9.533   4.629 -0.2959 -0.0941  0.3540
  481MOL0     C66297   2.205   9.508   4.741  1.0115  0.2787  0.7685
  481MOL0     C66298   2.178   9.408   4.828  0.3837 -0.2806  0.1981
  481MOL0     O66299   2.255   9.391   4.940 -0.4568 -0.5949  0.3621
  481MOL0     C66300   2.214   9.337   5.064 -0.9266 -0.1119  0.1288
  481MOL0     C66301   2.145   9.439   5.153 -1.1303  0.7417  0.1727
  481MOL0     C66302   2.020   9.495   5.097  0.4037  0.7379  0.4058
  481MOL0     C66303   1.925   9.548   5.206  0.1405  0.0744  0.6179
  481MOL0     C66304   1.977   9.667   5.275  0.0791  0.2182 -0.3685
  481MOL0     C66305   2.011   9.773   5.327 -0.2400 -0.5410  1.0041
  481MOL0     C66306   2.059   9.337   4.793 -0.3513  0.0619  0.0143
  481MOL0     C66307   1.971   9.370   4.688 -0.3436  0.2512 -0.0966
  481MOL0     C66308   1.840   9.305   4.690  0.1391  0.2610 -0.3631
  481MOL0     H66309   2.035   9.554   4.177 -0.9795 -0.4012 -2.1236
  481MOL0     H66310   1.918   9.615   3.962  1.2735  0.6072  1.6207
  481MOL0     H66311   1.490   9.733   4.028  1.8496  1.8343  0.3114
  481MOL0     H66312   1.549   9.594   3.927  1.9551  0.1035 -0.8147
  481MOL0     H66313   1.555   9.746   3.726 -0.0255  2.2022 -1.5409
  481MOL0     H66314   1.401   9.716   3.796  1.3308 -1.1453 -2.1655
  481MOL0     H66315   1.462   9.958   3.912  1.6536  0.3505 -0.6059
  481MOL0     H66316   1.579   9.977   3.787 -0.7187  2.7988  0.6776
  481MOL0     H66317   1.287   9.998   3.789 -1.7167  3.2958 -3.1025
  481MOL0     H66318   1.414  10.084   3.692  2.5042 -0.8049 -1.8860
  481MOL0     H66319   1.247   9.963   3.560 -0.7065  0.0669  1.3150
  481MOL0     H66320   1.314   9.812   3.611  2.8939 -1.0551  0.4194
  481MOL0     H66321   1.484  10.023   3.479 -0.2494  0.1422  1.3272
  481MOL0     H66322   1.542   9.866   3.536 -2.6387 -3.8806 -0.0899
  481MOL0     H66323   1.334   9.913   3.313 -0.6343  2.3404  3.6065
  481MOL0     H66324   1.409   9.761   3.364 -0.8703  0.8844  1.7230
  481MOL0     H66325   1.538   9.997   3.206  1.0910 -1.7013 -3.7840
  481MOL0     H66326   1.638   9.891   3.301  0.0584 -0.1390 -0.8711
  481MOL0     H66327   1.319   9.727   3.116 -0.2460  1.7916 -0.0616
  481MOL0     H66328   1.487   9.457   2.919  0.6061  0.0879 -1.5927
  481MOL0     H66329   1.419   9.565   2.801 -0.3882 -0.0512 -0.1507
  481MOL0     H66330   1.275   9.469   3.056 -0.1478  0.5189 -0.0065
  481MOL0     H66331   1.203   9.584   2.955 -3.0448 -1.9029  3.3961
  481MOL0     H66332   1.196   9.443   2.764 -3.3629  0.8550  0.6014
  481MOL0     H66333   1.260   9.302   2.844  1.6622  1.0541 -1.7127
  481MOL0     H66334   1.011   9.305   2.825 -0.5226  0.7492  0.0142
  481MOL0     H66335   1.078   9.259   2.976 -1.7925  1.6837  3.2602
  481MOL0     H66336   0.972   9.509   2.718 -0.8632 -2.3833  1.0418
  481MOL0     H66337   0.848   9.584   2.533 -0.4470 -0.6379  0.3896
  481MOL0     H66338   0.941   9.734   2.556 -0.5558  0.2261 -0.5049
  481MOL0     H66339   0.774   9.739   2.546  3.4034  0.3660 -7.3519
  481MOL0     H66340   0.604  10.169   2.919  4.2573 -3.5895 -0.4150
  481MOL0     H66341   0.577  10.387   2.787  0.3626 -1.6522  2.7746
  481MOL0     H66342   0.445  10.385   2.404  0.2893  3.0384 -2.3676
  481MOL0     H66343   0.410  10.460   2.563  1.2917  3.4808  1.1744
  481MOL0     H66344   0.466  10.655   2.530  4.6479  2.3035 -0.2546
  481MOL0     H66345   0.596  10.623   2.419 -0.1863  0.9987 -1.8221
  481MOL0     H66346   0.420  10.730   2.300  1.1738 -0.0373  0.6155
  481MOL0     H66347   0.307  10.594   2.327 -1.9968  2.4752 -1.5186
  481MOL0     H66348   0.490  10.448   2.220 -0.8782 -0.0310 -2.9540
  481MOL0     H66349   0.580  10.594   2.169  1.2253 -2.4784  0.7305
  481MOL0     H66350   0.318  10.491   2.108 -1.3003  0.6985  0.8543
  481MOL0     H66351   0.347  10.655   2.070 -1.1508 -1.1174 -0.5967
  481MOL0     H66352   0.504  10.427   1.951 -1.3251 -0.4361 -1.5692
  481MOL0     H66353   0.552  10.602   1.935 -1.7589  3.4663  2.0716
  481MOL0     H66354   0.275  10.493   1.864 -1.2481 -2.3831 -2.9265
  481MOL0     H66355   0.407  10.474   1.744 -1.6676 -1.4367 -0.1071
  481MOL0     H66356   0.274  10.653   1.660  0.3186  0.1442 -0.0739
  481MOL0     H66357   0.425  10.724   1.716 -1.0482  1.1862 -1.5460
  481MOL0     H66358   0.693  10.158   2.439  1.8483 -1.3649  1.0064
  481MOL0     H66359   0.716   9.965   2.568  0.5196  0.5322  0.1820
  481MOL0     H66360   0.693   9.752   3.047 -1.7579 -0.3523 -0.7778
  481MOL0     H66361   0.865   9.580   3.129  0.8124 -2.3784 -1.5215
  481MOL0     H66362   1.623   9.814   4.217 -0.8892 -0.4997  0.4073
  481MOL0     H66363   1.741   9.735   4.415 -2.8669 -0.5630 -1.4816
  481MOL0     H66364   2.165   9.602   4.551  1.9906 -2.1529 -0.6283
  481MOL0     H66365   2.300   9.561   4.749  0.8530  0.8634 -0.8066
  481MOL0     H66366   2.156   9.248   5.039  0.0885 -0.6211 -0.4836
  481MOL0     H66367   2.311   9.321   5.112  0.4228  2.2644 -1.5708
  481MOL0     H66368   2.219   9.517   5.177 -0.7220  0.9010 -1.5041
  481MOL0     H66369   2.125   9.385   5.247 -2.1949  0.4851 -0.1921
  481MOL0     H66370   2.052   9.575   5.029 -0.0980  2.1591  1.7671
  481MOL0     H66371   1.972   9.423   5.031  3.3254  0.6668 -1.8847
  481MOL0     H66372   1.908   9.469   5.279  0.4658 -1.1200 -0.5759
  481MOL0     H66373   1.825   9.570   5.167  0.1162 -2.3070 -0.8893
  481MOL0     H66374   2.056   9.857   5.376  2.5892 -0.4223 -1.5525
  481MOL0     H66375   2.023   9.258   4.859 -2.9033  0.4370 -0.7845
  481MOL0     H66376   1.822   9.230   4.613  3.3499 -2.1974  1.0581
  481MOL0     H66377   1.823   9.259   4.788  1.4055  1.5298  0.5115
  481MOL0     H66378   1.770   9.389   4.679 -0.1402 -0.2026 -2.6413
  482MOL0     O66379   6.229   9.820  11.213 -0.5205  0.6274 -0.0464
  482MOL0     C66380   6.138   9.793  11.290  0.0063  0.0852 -1.5497
  482MOL0     O66381   6.006   9.774  11.258 -0.2421  0.2058  0.4366
  482MOL0     C66382   5.970   9.783  11.123  0.1658 -0.8146 -0.3426
  482MOL0     C66383   5.900   9.671  11.074 -0.6120 -1.0896  0.0882
  482MOL0     C66384   5.877   9.656  10.938 -0.0524 -0.5731 -0.8369
  482MOL0     C66385   5.911   9.759  10.846  0.0410 -0.2289 -0.0675
  482MOL0     O66386   5.884   9.741  10.709  0.2401  0.2190 -0.0425
  482MOL0     C66387   5.747   9.738  10.675  0.1348 -0.4986  0.1721
  482MOL0     C66388   5.707   9.880  10.633 -0.2166  0.5316  0.3051
  482MOL0     C66389   5.577   9.885  10.548  0.1043 -0.4373  0.1695
  482MOL0     C66390   5.619   9.831  10.407 -0.3213 -0.4191 -0.3350
  482MOL0     C66391   5.525   9.875  10.298  0.3721  0.3371  0.4480
  482MOL0     C66392   5.381   9.826  10.320 -0.5943 -0.6539  0.1369
  482MOL0     C66393   5.306   9.840  10.189  0.1009  0.4620  0.4182
  482MOL0     C66394   5.330   9.712  10.096 -0.7881 -0.6652  0.2575
  482MOL0     N66395   5.234   9.708   9.978  0.3150  0.7366 -0.6499
  482MOL0     C66396   5.236   9.774   9.856  0.4190  0.1768  0.5719
  482MOL0     C66397   5.144   9.725   9.774  0.6578 -0.0869 -0.8239
  482MOL0     C66398   5.092   9.781   9.635  0.8414  0.4101 -1.0416
  482MOL0     C66399   5.198   9.779   9.524  0.2038  0.1137 -0.0370
  482MOL0     C66400   5.300   9.660   9.514  0.6496 -0.2554 -0.2096
  482MOL0     C66401   5.221   9.525   9.520 -0.5355 -0.1384 -0.4491
  482MOL0     O66402   5.112   9.510   9.433  0.0642  0.0052 -0.2875
  482MOL0     C66403   5.127   9.413   9.344 -0.1858  0.9099  0.5325
  482MOL0     C66404   5.230   9.415   9.250  0.1572  0.2713 -0.0593
  482MOL0     C66405   5.253   9.324   9.149 -0.7398 -0.1870 -0.0486
  482MOL0     C66406   5.379   9.327   9.069 -0.1562  0.0608  0.3241
  482MOL0     C66407   5.148   9.232   9.117 -1.0744 -0.0105 -0.6513
  482MOL0     C66408   5.143   9.148   8.998 -0.8546 -0.7192 -0.3342
  482MOL0     O66409   5.246   9.161   8.898  0.1707  0.2978 -0.3420
  482MOL0     C66410   5.246   9.068   8.788 -0.7159  0.6787  0.1239
  482MOL0     C66411   5.172   8.946   8.777  0.2379 -0.4580  0.7364
  482MOL0     C66412   5.198   8.867   8.667  0.4042 -0.1460 -0.8265
  482MOL0     C66413   5.292   8.903   8.568  0.1665 -0.3241  0.6727
  482MOL0     O66414   5.292   8.819   8.454 -0.8326  0.5492  0.7064
  482MOL0     C66415   5.317   8.876   8.325  0.5027  0.3185  0.4659
  482MOL0     C66416   5.260   8.793   8.208  0.0837  0.2035  0.3959
  482MOL0     C66417   5.274   8.868   8.077  0.3324  0.1010  0.1840
  482MOL0     C66418   5.244   8.781   7.943  0.1899  0.3639  0.4798
  482MOL0     C66419   5.097   8.802   7.885  0.1248  0.4493  0.6780
  482MOL0     C66420   5.065   8.706   7.763  0.5643  0.2295 -0.4879
  482MOL0     C66421   4.913   8.716   7.723 -0.4785 -0.0656  0.4657
  482MOL0     C66422   4.870   8.586   7.661  0.8016  0.0421  0.3781
  482MOL0    Cl66423   4.890   8.450   7.775  0.5785  0.2088  0.2801
  482MOL0     C66424   5.379   9.011   8.591  0.4455 -0.0886 -0.0128
  482MOL0     C66425   5.349   9.094   8.702 -0.1397  0.4086 -0.3560
  482MOL0     O66426   5.042   9.083   8.991 -0.2493 -0.2733 -0.4503
  482MOL0     C66427   5.038   9.234   9.211  0.2999 -0.5071  0.2972
  482MOL0     C66428   5.026   9.325   9.320 -0.5290  0.1296 -0.4425
  482MOL0     N66429   5.090   9.623   9.845 -0.3949 -0.1746  0.1238
  482MOL0     N66430   5.131   9.612   9.965 -0.9014 -0.0371 -0.1277
  482MOL0     C66431   5.972   9.880  10.893 -0.1046  0.1096  0.8039
  482MOL0     C66432   5.996   9.897  11.035 -0.9273 -0.1167  1.0643
  482MOL0     C66433   6.177   9.786  11.435 -1.5821 -0.3951 -0.0801
  482MOL0     C66434   6.276   9.873  11.478  0.4350  0.2857 -0.8871
  482MOL0     C66435   6.326   9.864  11.605 -0.6639  0.7853 -0.5206
  482MOL0     C66436   6.274   9.775  11.694 -0.8675 -0.0163 -0.1422
  482MOL0     O66437   6.336   9.775  11.819 -0.6590 -0.8687 -0.2283
  482MOL0     C66438   6.322   9.658  11.906  0.3957  0.0037  1.1939
  482MOL0     C66439   6.408   9.684  12.034 -0.1833  0.8566  0.3079
  482MOL0     C66440   6.352   9.790  12.126 -0.7374 -0.6727  0.5555
  482MOL0     C66441   6.419   9.783  12.259  0.0783  0.0194 -0.4118
  482MOL0     C66442   6.372   9.896  12.335  0.0364 -0.2577 -0.6174
  482MOL0     C66443   6.338   9.989  12.410  0.3987 -0.2395  0.5012
  482MOL0     C66444   6.168   9.696  11.652 -0.4140 -0.2467  0.6372
  482MOL0     C66445   6.116   9.698  11.521 -0.7510 -0.9551  0.1469
  482MOL0     C66446   6.006   9.601  11.474  0.5951 -0.7709 -0.4409
  482MOL0     H66447   5.889   9.585  11.140  0.6342 -0.2091  1.5104
  482MOL0     H66448   5.840   9.560  10.905  2.6029 -2.0400  0.1778
  482MOL0     H66449   5.678   9.715  10.757  0.6458  0.8741  1.0101
  482MOL0     H66450   5.761   9.661  10.599  6.4305 -0.4955  0.8354
  482MOL0     H66451   5.704   9.941  10.724  2.3385 -1.5568  1.9453
  482MOL0     H66452   5.791   9.916  10.574  0.1248  1.4393  1.3043
  482MOL0     H66453   5.492   9.836  10.595  0.1214 -2.3790 -1.6893
  482MOL0     H66454   5.548   9.991  10.542  1.8090  0.0445 -0.1065
  482MOL0     H66455   5.716   9.862  10.367 -1.0388  1.0874 -1.0327
  482MOL0     H66456   5.620   9.722  10.416 -4.4031 -0.3939  3.8998
  482MOL0     H66457   5.559   9.832  10.203 -0.3393 -0.6010  0.6060
  482MOL0     H66458   5.531   9.983  10.282 -0.6432  0.3831  0.2983
  482MOL0     H66459   5.395   9.721  10.344  1.4590 -0.6693 -0.9348
  482MOL0     H66460   5.329   9.886  10.396  0.6157 -1.1232  1.3769
  482MOL0     H66461   5.327   9.936  10.140  3.4421 -0.6570 -0.5537
  482MOL0     H66462   5.198   9.841  10.210  0.1082 -3.0055  1.1405
  482MOL0     H66463   5.432   9.714  10.055 -0.4387  2.3867  1.0329
  482MOL0     H66464   5.326   9.615  10.146 -0.4827 -0.9951 -0.3443
  482MOL0     H66465   5.295   9.859   9.824  1.6359  0.0146  2.2197
  482MOL0     H66466   5.062   9.885   9.653  2.3744  0.5239  1.4272
  482MOL0     H66467   5.007   9.721   9.602  2.1339 -0.4098 -3.1129
  482MOL0     H66468   5.147   9.776   9.428  0.2800  2.3887 -0.2083
  482MOL0     H66469   5.253   9.874   9.529  2.6324 -1.2013 -0.2763
  482MOL0     H66470   5.375   9.659   9.434  2.6935 -2.1556  1.6171
  482MOL0     H66471   5.364   9.654   9.602  0.9259  2.8541 -0.0967
  482MOL0     H66472   5.301   9.451   9.512  1.3687  2.0115 -3.2505
  482MOL0     H66473   5.170   9.514   9.617  0.9621 -1.0231  0.2668
  482MOL0     H66474   5.307   9.490   9.266 -0.8492  1.1950  0.6320
  482MOL0     H66475   5.368   9.346   8.962  0.5779  1.6037  0.4832
  482MOL0     H66476   5.426   9.231   9.092 -0.8682 -1.1814 -2.8695
  482MOL0     H66477   5.447   9.407   9.102  0.7737 -1.2238  1.6970
  482MOL0     H66478   5.099   8.920   8.854  1.5528 -0.4994  1.9963
  482MOL0     H66479   5.139   8.776   8.660  0.9805 -0.4815 -1.5865
  482MOL0     H66480   5.257   8.966   8.341 -0.9560 -1.0118  3.2978
  482MOL0     H66481   5.423   8.892   8.307  0.3501  0.2658 -0.5462
  482MOL0     H66482   5.321   8.702   8.210 -1.9780 -1.2730 -0.0757
  482MOL0     H66483   5.155   8.769   8.224  0.1684 -1.5470 -1.2283
  482MOL0     H66484   5.375   8.907   8.066 -1.0373  3.9277 -0.5511
  482MOL0     H66485   5.202   8.951   8.079  0.9004  0.5884  0.9179
  482MOL0     H66486   5.260   8.677   7.970 -4.1310  0.3721  4.1164
  482MOL0     H66487   5.318   8.803   7.865 -0.4758  0.8210 -0.0409
  482MOL0     H66488   5.037   8.766   7.969 -0.6835 -1.2576 -0.5549
  482MOL0     H66489   5.079   8.905   7.852 -0.0997  0.2737  0.2376
  482MOL0     H66490   5.090   8.604   7.794 -2.4907 -0.6872 -0.7152
  482MOL0     H66491   5.126   8.736   7.676  1.2571 -0.2260 -0.1723
  482MOL0     H66492   4.897   8.787   7.642 -1.3306 -0.9325 -0.1422
  482MOL0     H66493   4.856   8.750   7.810 -0.8850 -3.2758  1.6112
  482MOL0     H66494   4.925   8.559   7.571  2.2433  0.9726  0.9485
  482MOL0     H66495   4.762   8.597   7.644  0.4001 -0.5037  2.2984
  482MOL0     H66496   5.451   9.048   8.519  0.3803  4.7703  1.9999
  482MOL0     H66497   5.429   9.166   8.720 -0.2553  0.6572 -0.8172
  482MOL0     H66498   4.955   9.165   9.199  0.3659 -0.3234 -1.5588
  482MOL0     H66499   4.938   9.345   9.379  0.4351 -0.3478  1.2257
  482MOL0     H66500   5.981   9.949  10.810 -4.4411 -0.4188 -0.3515
  482MOL0     H66501   6.051   9.981  11.076 -1.2579  1.3072 -1.2312
  482MOL0     H66502   6.306   9.957  11.417  1.4161 -0.0715 -0.9133
  482MOL0     H66503   6.416   9.922  11.621 -0.7351  0.4061  1.4401
  482MOL0     H66504   6.218   9.630  11.929  0.3082 -0.3602  0.3763
  482MOL0     H66505   6.367   9.580  11.844  1.4779  2.0341 -0.6852
  482MOL0     H66506   6.515   9.688  12.012  0.2035 -1.4245  1.4929
  482MOL0     H66507   6.382   9.591  12.087 -0.1748  0.3330 -0.5781
  482MOL0     H66508   6.382   9.882  12.074  3.9508 -2.2781 -0.0148
  482MOL0     H66509   6.248   9.762  12.145 -0.9535 -0.5086 -0.3390
  482MOL0     H66510   6.528   9.787  12.249  0.3710  3.7879  2.1418
  482MOL0     H66511   6.385   9.703  12.325 -0.1717  2.1033  2.1899
  482MOL0     H66512   6.293  10.065  12.471 -1.8559 -1.3344  0.3169
  482MOL0     H66513   6.133   9.626  11.727  0.3342  2.4027  3.6983
  482MOL0     H66514   5.909   9.650  11.461  1.3784  0.5886 -1.3817
  482MOL0     H66515   6.028   9.550  11.379  0.2012 -1.6241 -0.0869
  482MOL0     H66516   5.987   9.519  11.545  1.3419 -0.5402  0.0351
  483MOL0     O66517   8.825   6.918   6.983 -0.6148 -0.2561  0.4111
  483MOL0     C66518   8.944   6.953   7.012 -0.3275 -0.1315 -0.3526
  483MOL0     O66519   9.018   6.906   7.114 -0.4762 -0.0109 -0.4800
  483MOL0     C66520   8.957   6.825   7.205 -0.7868  0.4012  1.1894
  483MOL0     C66521   8.881   6.874   7.305 -1.4111 -0.7530 -0.3274
  483MOL0     C66522   8.823   6.792   7.402 -0.2224 -0.5499 -0.4634
  483MOL0     C66523   8.854   6.657   7.404 -0.4922  0.1737  0.1488
  483MOL0     O66524   8.807   6.572   7.505 -0.8667 -0.2203  0.2480
  483MOL0     C66525   8.714   6.609   7.612 -0.3472 -0.6239  0.0158
  483MOL0     C66526   8.624   6.497   7.662  0.6473  0.3667  0.2988
  483MOL0     C66527   8.538   6.535   7.786  0.0029  0.2279 -0.0864
  483MOL0     C66528   8.597   6.635   7.904  0.4489  0.2520  0.0058
  483MOL0     C66529   8.506   6.670   8.019  0.8069  0.2674 -0.1775
  483MOL0     C66530   8.568   6.610   8.151  0.5784 -1.0288  0.0507
  483MOL0     C66531   8.497   6.655   8.277 -1.5440 -0.1076 -1.0622
  483MOL0     C66532   8.541   6.799   8.310 -0.5338 -0.4441 -0.0597
  483MOL0     N66533   8.531   6.813   8.456  0.1629  0.7737  0.5860
  483MOL0     C66534   8.417   6.830   8.533 -0.4618 -0.0443 -0.7867
  483MOL0     C66535   8.456   6.863   8.655  0.6123  0.0743  0.2868
  483MOL0     C66536   8.376   6.907   8.777 -0.7270  0.3739 -0.2772
  483MOL0     C66537   8.231   6.946   8.751  0.3976 -0.1446  0.2603
  483MOL0     C66538   8.211   7.078   8.678  0.1104 -0.7067  0.3782
  483MOL0     C66539   8.064   7.109   8.654 -0.4361  0.0614 -0.2226
  483MOL0     O66540   7.993   7.153   8.771  0.8208 -0.1668  0.5764
  483MOL0     C66541   7.912   7.068   8.843  0.4746  0.3119 -0.0594
  483MOL0     C66542   7.862   6.947   8.799  0.1584 -1.3491  0.3650
  483MOL0     C66543   7.774   6.872   8.873 -0.1063 -0.5972  0.3343
  483MOL0     C66544   7.723   6.743   8.805 -0.5653 -0.4341 -0.3943
  483MOL0     C66545   7.730   6.927   8.998  0.4654  0.3232  0.4450
  483MOL0     C66546   7.623   6.866   9.080  0.6690 -0.1949  0.5989
  483MOL0     O66547   7.603   6.929   9.200  0.2892  0.2020  0.1765
  483MOL0     C66548   7.505   6.876   9.284 -0.7220  0.6309  0.4715
  483MOL0     C66549   7.365   6.871   9.252  0.2206 -0.1463  0.1952
  483MOL0     C66550   7.264   6.832   9.329 -0.7483  0.0011 -0.3084
  483MOL0     C66551   7.290   6.783   9.458 -1.1441 -0.2187  0.0667
  483MOL0     O66552   7.176   6.743   9.521  0.2985 -0.2334 -0.0718
  483MOL0     C66553   7.164   6.609   9.565  0.4217  0.4880  0.5019
  483MOL0     C66554   7.134   6.497   9.464  0.8397  0.0086 -0.3621
  483MOL0     C66555   6.992   6.505   9.408  0.0117  0.3230  0.3943
  483MOL0     C66556   6.877   6.490   9.512  0.1334  0.9249 -0.8581
  483MOL0     C66557   6.750   6.438   9.452  0.6246 -1.2768  0.3450
  483MOL0     C66558   6.674   6.553   9.390  0.2282 -0.4044  0.0031
  483MOL0     C66559   6.542   6.499   9.344  0.2660 -0.0301  0.6521
  483MOL0     C66560   6.456   6.618   9.286  0.4905 -0.6747 -0.8664
  483MOL0    Cl66561   6.418   6.748   9.405 -0.4412 -0.1940 -1.0514
  483MOL0     C66562   7.425   6.777   9.500 -0.2073 -0.1102 -0.3269
  483MOL0     C66563   7.529   6.823   9.414 -0.2285  0.2764 -1.2957
  483MOL0     O66564   7.551   6.772   9.040 -0.3010  0.3238  0.0359
  483MOL0     C66565   7.801   7.045   9.055  1.2757 -0.5759 -0.1578
  483MOL0     C66566   7.884   7.105   8.965 -0.4312  0.4434  0.0213
  483MOL0     N66567   8.589   6.863   8.651  0.6006  0.0612 -0.3484
  483MOL0     N66568   8.632   6.842   8.536  0.2191  0.7520 -0.6047
  483MOL0     C66569   8.938   6.603   7.304 -0.8598  1.3893 -0.2422
  483MOL0     C66570   9.000   6.684   7.209  0.8261 -0.2699 -0.1507
  483MOL0     C66571   9.007   7.060   6.922  0.0710 -0.7159 -0.4111
  483MOL0     C66572   9.134   7.110   6.958 -0.3841  0.0961 -0.2781
  483MOL0     C66573   9.211   7.183   6.878  0.4116  0.1002 -0.4112
  483MOL0     C66574   9.171   7.215   6.745 -0.5810 -0.3025  0.5323
  483MOL0     O66575   9.232   7.283   6.638  0.8523 -0.3359 -0.0687
  483MOL0     C66576   9.380   7.295   6.651 -0.6045 -0.4856  0.2668
  483MOL0     C66577   9.441   7.171   6.602 -0.1323  0.0717 -0.5513
  483MOL0     C66578   9.409   7.149   6.463  0.8105 -1.1098  0.5300
  483MOL0     C66579   9.493   7.223   6.361 -0.7239  0.7276  0.0113
  483MOL0     C66580   9.476   7.360   6.329  0.1147 -0.7979  0.4515
  483MOL0     C66581   9.460   7.472   6.291 -0.6106 -0.1637 -0.8220
  483MOL0     C66582   9.041   7.181   6.712  0.0505  0.0252  0.4683
  483MOL0     C66583   8.959   7.106   6.798  0.2567  0.6423 -0.0528
  483MOL0     C66584   8.833   7.056   6.738 -0.2331 -0.3916 -0.1696
  483MOL0     H66585   8.871   6.982   7.304  5.8779  0.3966 -0.2988
  483MOL0     H66586   8.749   6.837   7.467  1.0343 -1.4362  1.6961
  483MOL0     H66587   8.656   6.698   7.587 -0.8392 -0.6689  0.9667
  483MOL0     H66588   8.782   6.634   7.694  0.1827 -3.1381  0.4380
  483MOL0     H66589   8.555   6.476   7.580  1.6612 -0.6356 -0.3369
  483MOL0     H66590   8.685   6.406   7.670  0.6719  0.4308  0.8560
  483MOL0     H66591   8.443   6.578   7.750 -0.9575 -0.5790  1.4011
  483MOL0     H66592   8.494   6.442   7.823 -2.4998  0.9536 -0.9876
  483MOL0     H66593   8.696   6.604   7.939 -0.3318 -1.6397  0.6348
  483MOL0     H66594   8.595   6.730   7.849 -1.2692 -0.2487 -0.8710
  483MOL0     H66595   8.417   6.608   8.012 -0.0358  1.1545  1.8834
  483MOL0     H66596   8.490   6.776   8.044  0.1616  0.1912 -0.2553
  483MOL0     H66597   8.549   6.503   8.144  1.8077 -1.1981 -1.3686
  483MOL0     H66598   8.677   6.623   8.154  0.5505 -0.4390 -0.8597
  483MOL0     H66599   8.511   6.584   8.359 -1.7932  1.8911  0.8101
  483MOL0     H66600   8.389   6.659   8.261 -1.4108 -1.3812 -2.5598
  483MOL0     H66601   8.645   6.820   8.284 -0.5850  0.3765  0.3762
  483MOL0     H66602   8.468   6.861   8.256 -0.4057 -2.7184 -3.1634
  483MOL0     H66603   8.314   6.821   8.502  0.0620  0.6698 -2.9669
  483MOL0     H66604   8.431   6.986   8.827  5.1084 -0.9657 -3.6357
  483MOL0     H66605   8.375   6.825   8.849 -0.5412 -0.1938 -0.9041
  483MOL0     H66606   8.185   6.865   8.695  0.6130  0.3873 -0.7228
  483MOL0     H66607   8.187   6.950   8.850  2.0375  5.4040  1.1436
  483MOL0     H66608   8.259   7.167   8.720 -2.5434 -0.5607  3.4116
  483MOL0     H66609   8.248   7.052   8.578  0.4426 -0.2414  0.3772
  483MOL0     H66610   8.051   7.185   8.577 -0.2804 -0.2878 -0.6015
  483MOL0     H66611   8.033   7.016   8.605  0.8926  1.2445 -3.6079
  483MOL0     H66612   7.878   6.909   8.699 -0.3205  0.7383 -0.5558
  483MOL0     H66613   7.802   6.705   8.740  0.0081  1.0130 -0.5711
  483MOL0     H66614   7.635   6.756   8.741 -0.7274 -0.7123 -0.2356
  483MOL0     H66615   7.696   6.658   8.869 -1.4506  1.3278  1.6868
  483MOL0     H66616   7.345   6.919   9.156  1.0657  0.0503  0.1123
  483MOL0     H66617   7.160   6.833   9.297  0.1483 -1.1111 -3.6725
  483MOL0     H66618   7.256   6.582   9.619  0.6352  2.1149  0.9929
  483MOL0     H66619   7.093   6.598   9.648  0.7127 -0.9784  0.5833
  483MOL0     H66620   7.212   6.490   9.388  1.7841 -0.9982  0.6581
  483MOL0     H66621   7.125   6.406   9.523 -0.8820  0.4546  0.1235
  483MOL0     H66622   6.989   6.440   9.320 -0.5291  1.3535 -0.3656
  483MOL0     H66623   6.968   6.600   9.359 -1.8649 -0.5524 -0.5068
  483MOL0     H66624   6.857   6.580   9.571 -0.2727 -0.2606  0.8765
  483MOL0     H66625   6.913   6.404   9.568 -2.8338 -1.2064 -1.9644
  483MOL0     H66626   6.781   6.375   9.369  1.7554  1.6712 -1.6443
  483MOL0     H66627   6.687   6.394   9.530  0.8353  1.5747  2.3055
  483MOL0     H66628   6.723   6.595   9.302 -0.3465  1.5437  0.5555
  483MOL0     H66629   6.665   6.636   9.460  0.7323 -0.8380  0.5910
  483MOL0     H66630   6.487   6.453   9.427 -0.1144  2.5928  1.9606
  483MOL0     H66631   6.556   6.428   9.262  1.8104  2.1999 -1.1368
  483MOL0     H66632   6.371   6.573   9.234 -0.5198 -0.3185  0.4191
  483MOL0     H66633   6.511   6.684   9.218  0.7603  0.9600  0.8557
  483MOL0     H66634   7.460   6.745   9.597  0.6273 -0.5414 -0.7518
  483MOL0     H66635   7.634   6.823   9.441 -0.2532  3.4973 -0.8632
  483MOL0     H66636   7.766   7.077   9.152  0.8566 -2.3302  0.3067
  483MOL0     H66637   7.940   7.190   9.003  3.1714 -1.8912  0.4376
  483MOL0     H66638   8.964   6.498   7.295 -1.2787  1.3705 -1.4227
  483MOL0     H66639   9.057   6.655   7.121 -2.4055  1.1918 -2.9445
  483MOL0     H66640   9.175   7.077   7.053  1.9336  0.8255 -0.9439
  483MOL0     H66641   9.309   7.216   6.913  0.9345 -2.6660  0.9529
  483MOL0     H66642   9.421   7.380   6.595 -3.0688  0.8072  0.3122
  483MOL0     H66643   9.409   7.311   6.755  0.3841 -1.0132  0.0951
  483MOL0     H66644   9.406   7.088   6.664  2.7733 -2.1528 -1.6259
  483MOL0     H66645   9.548   7.180   6.624 -0.4269  2.5014  0.1712
  483MOL0     H66646   9.416   7.045   6.430  1.0197 -0.0710 -3.1392
  483MOL0     H66647   9.304   7.176   6.452  1.5545  1.0156 -2.5540
  483MOL0     H66648   9.491   7.168   6.267 -1.4482  1.0655 -0.1745
  483MOL0     H66649   9.597   7.224   6.395 -0.4965  1.8686 -0.6628
  483MOL0     H66650   9.447   7.575   6.267  1.6943  1.3126  3.1573
  483MOL0     H66651   9.008   7.213   6.614 -0.3803  1.7929  1.1627
  483MOL0     H66652   8.843   6.956   6.695  0.9421 -0.2742 -0.2070
  483MOL0     H66653   8.751   7.049   6.810  0.1787  0.2865  0.3886
  483MOL0     H66654   8.800   7.127   6.662  0.3307 -0.1803 -0.2217
  484MOL0     O66655  10.908   2.761   8.121  0.2695  0.4183  0.1891
  484MOL0     C66656  10.884   2.822   8.013 -0.3959 -0.4480 -0.8584
  484MOL0     O66657  10.836   2.952   8.004  0.2804  0.8454  1.1793
  484MOL0     C66658  10.786   3.000   8.119  0.9072  0.1162 -0.5862
  484MOL0     C66659  10.645   3.028   8.131 -0.0808 -0.2580  0.0035
  484MOL0     C66660  10.592   3.084   8.247 -0.4211 -0.2372  0.3570
  484MOL0     C66661  10.676   3.096   8.361 -0.6245 -0.0564  1.1073
  484MOL0     O66662  10.635   3.134   8.485  0.3839 -0.3318 -0.4479
  484MOL0     C66663  10.677   3.047   8.596  0.3164 -0.2375  0.1240
  484MOL0     C66664  10.633   2.902   8.565  0.6418  0.1211 -0.5092
  484MOL0     C66665  10.641   2.819   8.685  0.2407 -0.6451  0.2614
  484MOL0     C66666  10.590   2.676   8.664  0.9474 -0.9785 -0.5686
  484MOL0     C66667  10.581   2.603   8.802  0.3484  0.0694 -0.4717
  484MOL0     C66668  10.464   2.632   8.890  1.1663  0.4434  0.8710
  484MOL0     C66669  10.339   2.564   8.828 -0.8291  0.6159  0.7745
  484MOL0     C66670  10.230   2.540   8.921 -0.3294  0.5687 -1.1327
  484MOL0     N66671  10.265   2.439   9.012 -0.4152 -1.1093  0.6016
  484MOL0     C66672  10.315   2.456   9.136 -0.0209  0.8730  0.9952
  484MOL0     C66673  10.354   2.334   9.174  0.2684  0.0658 -0.3191
  484MOL0     C66674  10.420   2.281   9.297  1.4040  0.5657 -0.8697
  484MOL0     C66675  10.573   2.280   9.308  0.8857 -0.5868  0.4369
  484MOL0     C66676  10.618   2.227   9.445 -1.0409 -0.5760  0.1836
  484MOL0     C66677  10.718   2.122   9.406  0.7346 -0.6476  0.1382
  484MOL0     O66678  10.840   2.174   9.348 -0.3915  0.0497  0.6494
  484MOL0     C66679  10.912   2.269   9.414 -0.1913  0.3242 -0.1382
  484MOL0     C66680  10.982   2.365   9.341  0.1483 -0.5289  0.6133
  484MOL0     C66681  11.053   2.466   9.400 -0.2766  0.1575 -0.0992
  484MOL0     C66682  11.120   2.559   9.309 -0.3636 -0.2348 -0.1159
  484MOL0     C66683  11.049   2.462   9.544  0.3466  0.1048 -0.6376
  484MOL0     C66684  11.118   2.564   9.628 -0.8836 -0.3591  0.1430
  484MOL0     O66685  11.100   2.551   9.761  0.7659  0.5091  0.0840
  484MOL0     C66686  11.085   2.657   9.837  0.7670 -1.0095  0.8235
  484MOL0     C66687  11.064   2.636   9.974  1.1032  0.3480  0.4553
  484MOL0     C66688  11.062   2.736  10.072  0.0931 -0.2470 -0.1920
  484MOL0     C66689  11.074   2.874  10.039  0.6456 -0.2920 -0.2256
  484MOL0     O66690  11.070   2.971  10.138  0.4353  0.1290 -0.5282
  484MOL0     C66691  11.110   3.108  10.114 -0.3437  0.6621  0.2891
  484MOL0     C66692  11.262   3.111  10.104 -0.1004  0.5202  0.2764
  484MOL0     C66693  11.305   3.261  10.095 -0.0530 -1.0786 -0.3345
  484MOL0     C66694  11.459   3.272  10.083 -0.3530  0.2492 -0.1024
  484MOL0     C66695  11.508   3.413  10.078  0.6875 -0.3746  0.4400
  484MOL0     C66696  11.649   3.417  10.029 -0.4076  0.5860 -0.0030
  484MOL0     C66697  11.718   3.557  10.040  0.4268  0.0572 -0.2309
  484MOL0     C66698  11.863   3.548  10.001  0.9828  1.1644 -0.7431
  484MOL0    Cl66699  11.934   3.673  10.104  0.1283  0.0699  0.1685
  484MOL0     C66700  11.082   2.898   9.901 -0.2599  0.1729  0.0574
  484MOL0     C66701  11.088   2.796   9.800  0.1676 -0.0768 -0.2415
  484MOL0     O66702  11.189   2.647   9.572 -0.0518 -0.1362 -0.2674
  484MOL0     C66703  10.988   2.359   9.616 -1.2247 -0.2362 -0.2082
  484MOL0     C66704  10.914   2.267   9.547 -0.4592  0.4151 -0.7328
  484MOL0     N66705  10.310   2.240   9.084 -1.1615  0.3332  0.9609
  484MOL0     N66706  10.241   2.311   8.988  0.0342  0.7195  0.6149
  484MOL0     C66707  10.817   3.076   8.340  0.4307  0.4554 -0.4348
  484MOL0     C66708  10.866   3.026   8.228 -0.6995  0.2127  0.4633
  484MOL0     C66709  10.916   2.748   7.890  0.2687 -0.2294 -0.3669
  484MOL0     C66710  10.834   2.770   7.778  0.0212  0.4180 -0.7428
  484MOL0     C66711  10.847   2.688   7.664  0.1971  0.0574  0.6701
  484MOL0     C66712  10.954   2.610   7.642 -0.0182 -0.0111 -0.3709
  484MOL0     O66713  10.991   2.551   7.524 -0.2284  0.1684 -0.6813
  484MOL0     C66714  10.895   2.559   7.414  0.3551  0.2761 -0.0507
  484MOL0     C66715  10.951   2.482   7.287 -0.1866  0.1462 -0.1117
  484MOL0     C66716  11.001   2.339   7.304  0.1059  0.5390 -0.2018
  484MOL0     C66717  10.873   2.244   7.332 -0.3782  0.6620  0.1519
  484MOL0     C66718  10.906   2.102   7.323 -0.3308  0.0208  0.8714
  484MOL0     C66719  10.948   1.987   7.328 -1.1773  0.0592  0.2676
  484MOL0     C66720  11.046   2.595   7.750 -0.3785 -0.0635 -0.1299
  484MOL0     C66721  11.018   2.656   7.872 -0.5648 -0.5603  0.9573
  484MOL0     C66722  11.113   2.615   7.980  0.7562 -0.4932 -0.1214
  484MOL0     H66723  10.581   3.033   8.044  1.1789  2.1235 -0.8922
  484MOL0     H66724  10.484   3.086   8.251 -0.6014 -0.6610 -2.3291
  484MOL0     H66725  10.622   3.083   8.683 -5.0597 -2.4095 -1.9499
  484MOL0     H66726  10.785   3.039   8.612  0.2033 -2.6681  0.1578
  484MOL0     H66727  10.535   2.903   8.517  0.5932  0.4680 -0.4055
  484MOL0     H66728  10.707   2.854   8.499  0.7887 -1.3706  0.6963
  484MOL0     H66729  10.745   2.814   8.718  0.4647 -3.3098 -0.6329
  484MOL0     H66730  10.577   2.865   8.762 -0.0521 -1.3817  0.4682
  484MOL0     H66731  10.491   2.671   8.617 -0.3850  0.4055  1.9295
  484MOL0     H66732  10.659   2.627   8.595  0.4390  0.4847 -2.1898
  484MOL0     H66733  10.675   2.626   8.853  1.4670 -1.5477 -1.7038
  484MOL0     H66734  10.589   2.494   8.791  2.2693 -0.2831  2.8319
  484MOL0     H66735  10.488   2.602   8.993 -0.4650  0.3083  1.2439
  484MOL0     H66736  10.447   2.740   8.886 -2.7717 -0.0470  0.2436
  484MOL0     H66737  10.351   2.461   8.794 -1.8939 -0.8876  4.5107
  484MOL0     H66738  10.301   2.618   8.740 -2.5889 -2.6688 -0.6448
  484MOL0     H66739  10.221   2.642   8.961  1.4835  0.5423 -0.5588
  484MOL0     H66740  10.135   2.519   8.872 -2.8117  0.8731  3.0422
  484MOL0     H66741  10.314   2.551   9.189  0.8061  0.0020  2.6349
  484MOL0     H66742  10.388   2.180   9.326  2.8552  0.8535  2.1412
  484MOL0     H66743  10.400   2.350   9.379  2.6958  1.9580 -1.6652
  484MOL0     H66744  10.617   2.217   9.230  1.1969 -0.6361  0.6525
  484MOL0     H66745  10.608   2.383   9.300 -1.0263  0.1060  0.4953
  484MOL0     H66746  10.644   2.310   9.512 -4.5168  0.5076  0.3586
  484MOL0     H66747  10.531   2.176   9.485  1.5661 -5.2547  0.6388
  484MOL0     H66748  10.736   2.070   9.500  1.8323  0.8586  0.8045
  484MOL0     H66749  10.659   2.053   9.345 -2.4612 -0.8250  3.1339
  484MOL0     H66750  10.962   2.358   9.234 -4.6418  2.2999  1.0367
  484MOL0     H66751  11.078   2.660   9.317  1.9590  0.8564 -0.8670
  484MOL0     H66752  11.108   2.526   9.205  3.0717 -1.0096 -0.3898
  484MOL0     H66753  11.229   2.560   9.320 -0.2237 -1.8635 -0.9692
  484MOL0     H66754  11.047   2.531   9.995 -0.9164  0.5391 -0.0072
  484MOL0     H66755  11.044   2.704  10.174 -0.5288 -2.1651 -0.8620
  484MOL0     H66756  11.055   3.138  10.024  4.0089 -0.9281 -3.2903
  484MOL0     H66757  11.090   3.171  10.201 -1.7680 -1.0593  1.2641
  484MOL0     H66758  11.313   3.067  10.190 -0.4233  1.4276  0.9436
  484MOL0     H66759  11.296   3.050  10.019 -0.6764 -1.4704  1.4151
  484MOL0     H66760  11.261   3.309  10.183 -0.9349  0.6971 -1.6856
  484MOL0     H66761  11.256   3.312  10.012 -1.0751  0.2532  1.0294
  484MOL0     H66762  11.477   3.216   9.990 -0.4499 -0.2990  0.2032
  484MOL0     H66763  11.503   3.213  10.164 -0.9488 -0.0907 -0.0177
  484MOL0     H66764  11.438   3.470  10.017 -0.7875 -0.6623  1.7821
  484MOL0     H66765  11.505   3.453  10.180  4.3786  0.3161  0.4149
  484MOL0     H66766  11.660   3.391   9.924  1.7854  4.6112 -0.9433
  484MOL0     H66767  11.716   3.365  10.099  2.9724  1.1995 -2.5296
  484MOL0     H66768  11.703   3.593  10.142 -1.0402  0.3635 -0.5211
  484MOL0     H66769  11.660   3.628   9.980 -1.9862  0.7768  2.7320
  484MOL0     H66770  11.877   3.570   9.895  3.8237 -2.7222 -1.3614
  484MOL0     H66771  11.893   3.445  10.020 -1.6329  0.1882 -1.4396
  484MOL0     H66772  11.080   3.003   9.876  2.9693  0.3438  0.0793
  484MOL0     H66773  11.093   2.823   9.695  0.0937 -1.1491 -0.5375
  484MOL0     H66774  10.973   2.353   9.723 -1.2837 -0.3124 -0.2213
  484MOL0     H66775  10.868   2.196   9.615  3.3563  0.8132  2.6659
  484MOL0     H66776  10.891   3.081   8.418  2.7625 -0.6610 -2.4463
  484MOL0     H66777  10.970   2.994   8.222  0.3715  3.3001  1.1523
  484MOL0     H66778  10.761   2.848   7.797 -0.1461  0.9760 -3.2131
  484MOL0     H66779  10.771   2.690   7.586  0.7449 -1.3508  0.0638
  484MOL0     H66780  10.805   2.503   7.441  0.0816  0.5811 -0.3276
  484MOL0     H66781  10.862   2.656   7.377 -2.5455 -0.1352  1.1758
  484MOL0     H66782  11.038   2.537   7.250 -0.2036 -0.4049 -1.0003
  484MOL0     H66783  10.875   2.486   7.208 -2.5321 -3.0649  1.7331
  484MOL0     H66784  11.052   2.319   7.210 -1.0775 -0.0303 -0.7481
  484MOL0     H66785  11.066   2.322   7.391 -1.0770  1.5113  0.9130
  484MOL0     H66786  10.790   2.271   7.266  1.8850  4.4899 -1.4742
  484MOL0     H66787  10.831   2.261   7.431 -2.2867 -3.7155  0.3109
  484MOL0     H66788  10.971   1.886   7.353 -2.2931  0.3414  2.7016
  484MOL0     H66789  11.130   2.526   7.743  1.1223  1.6793 -0.2702
  484MOL0     H66790  11.058   2.550   8.049  2.2728 -0.4936  1.1318
  484MOL0     H66791  11.201   2.564   7.942 -1.7342 -4.7471 -0.8135
  484MOL0     H66792  11.142   2.701   8.041  2.5818 -1.2176  0.0797
  485MOL0     O66793   5.209   7.561   0.728  0.7142 -0.3123 -0.0141
  485MOL0     C66794   5.174   7.581   0.607  0.4618  0.0573 -0.2627
  485MOL0     O66795   5.220   7.504   0.503 -0.2124 -0.0889  0.3950
  485MOL0     C66796   5.320   7.421   0.507 -0.3090  0.7040 -0.4563
  485MOL0     C66797   5.293   7.292   0.557  0.0076  0.6976 -0.7416
  485MOL0     C66798   5.399   7.196   0.576 -0.2089 -0.2638 -0.1596
  485MOL0     C66799   5.530   7.230   0.543 -0.3845  0.2557 -0.2287
  485MOL0     O66800   5.629   7.130   0.538 -0.0339 -0.9539  0.5153
  485MOL0     C66801   5.665   7.078   0.659  0.0508 -0.6765 -0.3898
  485MOL0     C66802   5.812   7.029   0.653 -0.7266 -0.4324  0.4505
  485MOL0     C66803   5.912   7.151   0.650 -0.0852 -0.5658 -1.2332
  485MOL0     C66804   6.047   7.130   0.715  0.4464 -0.6768  0.2668
  485MOL0     C66805   6.141   7.252   0.708 -0.3492 -0.5084 -0.4303
  485MOL0     C66806   6.251   7.248   0.798 -0.2358  0.2005  0.8620
  485MOL0     C66807   6.228   7.291   0.944 -0.3041  1.0202  0.3912
  485MOL0     C66808   6.181   7.433   0.988 -0.6167  0.2816  0.1934
  485MOL0     N66809   6.258   7.480   1.097 -0.4045  0.1777 -1.2069
  485MOL0     C66810   6.394   7.528   1.084  0.0261 -1.2125 -0.2898
  485MOL0     C66811   6.430   7.582   1.205 -0.0940 -0.0772 -0.6545
  485MOL0     C66812   6.573   7.605   1.248 -0.2105 -0.2298  1.0541
  485MOL0     C66813   6.609   7.715   1.351  0.6562 -0.7323  0.2569
  485MOL0     C66814   6.621   7.860   1.304 -1.3022 -0.2390 -0.1271
  485MOL0     C66815   6.482   7.931   1.283 -0.4991 -1.4685  0.1893
  485MOL0     O66816   6.464   8.015   1.395 -0.2453 -0.7442  0.3537
  485MOL0     C66817   6.337   8.030   1.445 -0.3903 -1.3712  0.9356
  485MOL0     C66818   6.259   8.142   1.419 -0.5862  0.3153 -0.0621
  485MOL0     C66819   6.139   8.164   1.474  0.3191  0.1256 -0.3431
  485MOL0     C66820   6.057   8.265   1.401 -0.6345  0.4210 -0.5835
  485MOL0     C66821   6.092   8.068   1.573 -0.5557 -0.2748  0.4541
  485MOL0     C66822   5.965   8.107   1.648 -1.0436  0.5283 -1.2008
  485MOL0     O66823   5.871   8.176   1.591  0.4335 -0.1324  0.6293
  485MOL0     C66824   5.744   8.200   1.633  1.3732 -0.1955 -0.4529
  485MOL0     C66825   5.665   8.300   1.574  0.0547 -0.4904  0.5835
  485MOL0     C66826   5.530   8.318   1.594 -0.8245  0.1470 -0.5067
  485MOL0     C66827   5.464   8.224   1.676 -0.3550 -1.1985 -0.2331
  485MOL0     O66828   5.329   8.207   1.692  0.2099  0.6554 -0.1791
  485MOL0     C66829   5.250   8.310   1.636  0.3135 -0.1941 -0.3960
  485MOL0     C66830   5.099   8.300   1.686 -0.0556 -0.2267  0.2242
  485MOL0     C66831   5.039   8.164   1.649  0.4836  0.1311 -0.7604
  485MOL0     C66832   4.888   8.152   1.684 -0.0034  0.8267 -0.2480
  485MOL0     C66833   4.804   8.239   1.581  0.0464 -0.0303 -0.1640
  485MOL0     C66834   4.650   8.215   1.602 -0.3575  0.1432  0.8784
  485MOL0     C66835   4.562   8.335   1.556  0.5956 -0.1704  0.4458
  485MOL0     C66836   4.441   8.383   1.638 -0.9046  0.1856 -0.1445
  485MOL0    Cl66837   4.360   8.517   1.538  0.0431  0.1605  0.2660
  485MOL0     C66838   5.535   8.139   1.751 -0.5720  0.0637 -0.9956
  485MOL0     C66839   5.675   8.127   1.740 -1.5701  1.2135 -0.3090
  485MOL0     O66840   5.959   8.073   1.768 -0.4329  0.1779 -0.8003
  485MOL0     C66841   6.174   7.963   1.608 -0.6816  1.6751 -0.6491
  485MOL0     C66842   6.296   7.944   1.540 -0.6920  0.2504 -1.0737
  485MOL0     N66843   6.311   7.572   1.288 -0.9494  0.8542 -0.7435
  485MOL0     N66844   6.215   7.519   1.225 -0.0258  0.0648 -0.1151
  485MOL0     C66845   5.557   7.358   0.511  1.0390 -0.2152 -0.1956
  485MOL0     C66846   5.457   7.463   0.496 -0.5908 -0.1737 -0.8749
  485MOL0     C66847   5.039   7.646   0.579  0.1418  0.0050 -1.3099
  485MOL0     C66848   4.994   7.647   0.447 -0.5392  0.4698 -0.8704
  485MOL0     C66849   4.866   7.690   0.422  0.2552  0.6914 -0.0635
  485MOL0     C66850   4.780   7.745   0.518  0.3450 -0.0117 -0.2608
  485MOL0     O66851   4.656   7.774   0.477  0.0291 -0.3018  0.0811
  485MOL0     C66852   4.573   7.825   0.579  0.4512 -0.1452 -0.1299
  485MOL0     C66853   4.454   7.899   0.523  0.5250  0.9879 -0.9584
  485MOL0     C66854   4.361   7.818   0.446 -0.1630  0.7482 -0.3714
  485MOL0     C66855   4.388   7.833   0.300 -0.6149 -0.5700  0.0433
  485MOL0     C66856   4.310   7.749   0.207 -0.2852 -0.7742  0.5624
  485MOL0     C66857   4.240   7.669   0.148 -0.0662 -0.6179  0.1976
  485MOL0     C66858   4.829   7.756   0.647  0.8185 -0.4094 -0.9594
  485MOL0     C66859   4.963   7.704   0.690 -0.3579  0.3936 -0.3040
  485MOL0     C66860   5.003   7.726   0.837  0.0695 -0.4889 -0.6347
  485MOL0     H66861   5.193   7.260   0.582  0.9770 -0.4917  1.9069
  485MOL0     H66862   5.390   7.093   0.609  1.7436 -1.3897 -2.8436
  485MOL0     H66863   5.595   6.997   0.681  1.9220 -2.7110 -1.5093
  485MOL0     H66864   5.645   7.145   0.743 -0.3653 -0.3911 -0.7123
  485MOL0     H66865   5.840   6.978   0.745 -0.2688  1.1952  1.2598
  485MOL0     H66866   5.824   6.957   0.572 -1.5123 -0.1395  0.0649
  485MOL0     H66867   5.930   7.187   0.548  3.3224 -1.1687 -0.9551
  485MOL0     H66868   5.863   7.231   0.705  1.9973  0.3104 -0.5532
  485MOL0     H66869   6.035   7.113   0.823  0.5695 -0.5246  0.3049
  485MOL0     H66870   6.086   7.046   0.657 -1.4239 -2.0444  0.8839
  485MOL0     H66871   6.096   7.351   0.714 -1.5980 -1.1113  0.8519
  485MOL0     H66872   6.189   7.250   0.609 -1.4952  0.8092 -1.0393
  485MOL0     H66873   6.281   7.144   0.810  0.6179  0.4699  1.0841
  485MOL0     H66874   6.339   7.295   0.755 -1.6771 -0.4295 -3.2584
  485MOL0     H66875   6.329   7.288   0.988  0.1587  0.5810 -0.6637
  485MOL0     H66876   6.162   7.221   0.996  1.7126 -0.0294  1.7021
  485MOL0     H66877   6.206   7.505   0.910  2.7386 -0.0572  0.7946
  485MOL0     H66878   6.073   7.436   1.008 -0.9932 -3.3363 -0.5621
  485MOL0     H66879   6.459   7.524   0.997 -2.2154  0.7101 -2.2098
  485MOL0     H66880   6.626   7.631   1.155  0.7280 -2.4246  0.9235
  485MOL0     H66881   6.599   7.506   1.287 -0.1802 -0.9595 -0.7142
  485MOL0     H66882   6.539   7.718   1.434  1.6529  1.6855  1.0890
  485MOL0     H66883   6.694   7.678   1.409  1.5023 -0.0626 -0.5128
  485MOL0     H66884   6.689   7.918   1.368 -0.8566 -2.9898  2.0864
  485MOL0     H66885   6.676   7.862   1.210 -1.3182 -0.2205 -0.1362
  485MOL0     H66886   6.493   7.989   1.192 -0.7001  0.8985  1.5836
  485MOL0     H66887   6.400   7.859   1.272 -2.1517  0.6974 -3.5519
  485MOL0     H66888   6.307   8.212   1.352  0.0292 -0.9987 -1.0420
  485MOL0     H66889   6.095   8.294   1.302  2.4211  2.4122  0.9950
  485MOL0     H66890   6.048   8.352   1.467 -2.7746 -1.7897  2.3201
  485MOL0     H66891   5.958   8.226   1.379 -0.9454  0.2085  1.0563
  485MOL0     H66892   5.712   8.358   1.495 -1.8851 -1.0990 -1.0974
  485MOL0     H66893   5.474   8.392   1.537  1.4388  1.6365 -0.9122
  485MOL0     H66894   5.293   8.407   1.662  1.1662 -0.7012  0.0915
  485MOL0     H66895   5.243   8.289   1.529 -3.8746 -1.6360 -0.0206
  485MOL0     H66896   5.090   8.321   1.794 -0.4527  2.3505 -0.2349
  485MOL0     H66897   5.041   8.380   1.639 -0.1738  1.4829  2.9941
  485MOL0     H66898   5.094   8.082   1.696 -0.5083  0.1761  0.5454
  485MOL0     H66899   5.056   8.157   1.542 -2.0196  4.5476 -1.7161
  485MOL0     H66900   4.866   8.169   1.790  4.3548 -0.7984  1.1330
  485MOL0     H66901   4.872   8.046   1.659  0.1574  0.4403  1.1910
  485MOL0     H66902   4.827   8.346   1.588  1.7199 -0.1789 -2.2660
  485MOL0     H66903   4.837   8.209   1.481 -2.6982 -1.3810 -0.7716
  485MOL0     H66904   4.631   8.170   1.701  3.9007 -0.4751  1.5880
  485MOL0     H66905   4.633   8.129   1.536  2.8200 -1.4415  1.9047
  485MOL0     H66906   4.519   8.306   1.460 -0.0152 -2.0574  1.2445
  485MOL0     H66907   4.624   8.425   1.551  0.1033  0.5498  4.1021
  485MOL0     H66908   4.491   8.424   1.726 -0.3887 -2.4909  0.8973
  485MOL0     H66909   4.365   8.305   1.652 -2.6826  1.4192 -2.2912
  485MOL0     H66910   5.473   8.070   1.805 -3.5758  3.0527 -0.3021
  485MOL0     H66911   5.722   8.040   1.784  1.6621  1.5115 -2.8006
  485MOL0     H66912   6.148   7.898   1.691  1.9581 -1.6567 -2.1874
  485MOL0     H66913   6.360   7.864   1.574 -0.0807  1.9551  2.3117
  485MOL0     H66914   5.662   7.383   0.500  1.4419 -1.5306  0.3951
  485MOL0     H66915   5.470   7.568   0.474  0.6375 -0.4577 -1.5793
  485MOL0     H66916   5.043   7.593   0.366  0.2375 -0.1802  0.0066
  485MOL0     H66917   4.838   7.670   0.319  0.8637  1.9966 -0.5064
  485MOL0     H66918   4.547   7.743   0.646  0.8593  0.1913  0.4555
  485MOL0     H66919   4.628   7.906   0.629 -0.4172 -0.4020  1.3088
  485MOL0     H66920   4.491   7.985   0.466  1.2728 -0.5792 -2.9421
  485MOL0     H66921   4.398   7.931   0.612 -0.0702 -0.1344 -0.9211
  485MOL0     H66922   4.381   7.710   0.455  1.3999  0.4215 -4.8051
  485MOL0     H66923   4.253   7.827   0.457 -1.1382 -6.1450  0.5129
  485MOL0     H66924   4.493   7.802   0.295 -1.4429 -3.7898  0.1792
  485MOL0     H66925   4.375   7.938   0.271 -0.9669 -0.3919  0.8034
  485MOL0     H66926   4.187   7.592   0.096  2.2418 -3.0894  1.2895
  485MOL0     H66927   4.771   7.783   0.735  1.4593 -1.8575 -0.0517
  485MOL0     H66928   5.090   7.792   0.836 -0.5601  0.3519 -0.8905
  485MOL0     H66929   4.930   7.775   0.902  0.8659  2.4873 -1.8099
  485MOL0     H66930   5.025   7.627   0.877  0.0522 -0.1047  0.3365
  486MOL0     O66931   3.344   5.994   6.399 -0.2797  0.6472 -0.8968
  486MOL0     C66932   3.416   5.902   6.357  0.3264  0.4180 -0.4228
  486MOL0     O66933   3.442   5.866   6.226  0.1805 -0.3902 -0.1940
  486MOL0     C66934   3.391   5.933   6.126 -0.1048  0.3362  0.1594
  486MOL0     C66935   3.395   6.068   6.120  0.8056 -0.1115  0.6330
  486MOL0     C66936   3.330   6.146   6.028 -0.2719  0.3807  0.3523
  486MOL0     C66937   3.258   6.081   5.926  1.2973 -1.5242  0.5734
  486MOL0     O66938   3.181   6.164   5.853 -0.1663 -0.0256  0.4022
  486MOL0     C66939   3.040   6.144   5.843  0.7191  0.3337  1.4467
  486MOL0     C66940   2.965   6.270   5.815  0.0669  0.0602  0.8348
  486MOL0     C66941   3.005   6.327   5.681  0.1457  0.3918  0.5204
  486MOL0     C66942   2.927   6.465   5.654  0.3104  0.4006 -0.0175
  486MOL0     C66943   3.026   6.563   5.603  0.0473  0.3307  0.0350
  486MOL0     C66944   3.098   6.638   5.715  0.1309 -0.4065 -0.3077
  486MOL0     C66945   3.213   6.716   5.650  0.7815  0.5733  0.8461
  486MOL0     C66946   3.272   6.816   5.748 -0.1413 -0.3150 -0.5487
  486MOL0     N66947   3.407   6.869   5.735  0.9012  0.9603 -0.7383
  486MOL0     C66948   3.484   6.896   5.841 -0.1731  0.4822 -0.4689
  486MOL0     C66949   3.596   6.952   5.778 -0.4407  0.2204 -0.1973
  486MOL0     C66950   3.719   7.000   5.849  0.5447  1.2345  0.2156
  486MOL0     C66951   3.839   6.908   5.810 -0.1259 -0.0258  0.6194
  486MOL0     C66952   3.913   6.971   5.684  0.3722 -0.5098 -0.3231
  486MOL0     C66953   3.977   6.878   5.583  1.3584  0.0876 -0.1291
  486MOL0     O66954   4.061   6.791   5.658  0.5481 -0.9654  0.4190
  486MOL0     C66955   4.051   6.659   5.673 -0.1329  0.1149  1.0081
  486MOL0     C66956   4.137   6.615   5.766 -0.0229 -0.3863 -0.0450
  486MOL0     C66957   4.147   6.479   5.802  0.8835 -0.1730  0.0984
  486MOL0     C66958   4.247   6.441   5.903 -0.1085 -0.0980 -1.4050
  486MOL0     C66959   4.051   6.396   5.746  0.4337  0.3414 -0.5736
  486MOL0     C66960   4.018   6.254   5.795 -0.5802  0.5968  0.5282
  486MOL0     O66961   3.909   6.187   5.742  0.1207  0.1261 -0.0945
  486MOL0     C66962   3.851   6.076   5.793  0.0024  0.2106 -0.7481
  486MOL0     C66963   3.860   5.956   5.727  0.3419  0.3898  0.4387
  486MOL0     C66964   3.804   5.838   5.780 -0.4225  0.4637  0.7729
  486MOL0     C66965   3.740   5.837   5.908  0.1648  0.2571  0.6320
  486MOL0     O66966   3.683   5.727   5.968  0.3941 -0.3146  0.1620
  486MOL0     C66967   3.757   5.612   5.944  0.6412 -0.7238  0.2117
  486MOL0     C66968   3.715   5.508   6.052  0.1324 -0.4124  0.1713
  486MOL0     C66969   3.573   5.452   6.021  0.0328 -0.5276 -0.4458
  486MOL0     C66970   3.581   5.317   5.956  0.9475  0.2511  0.3186
  486MOL0     C66971   3.454   5.246   5.917 -0.0664 -0.4193  0.2320
  486MOL0     C66972   3.370   5.195   6.035  0.3873 -0.9375  0.4212
  486MOL0     C66973   3.238   5.131   5.997  0.5839 -0.2894  1.1651
  486MOL0     C66974   3.181   5.057   6.117  1.0729 -1.0420  0.9023
  486MOL0    Cl66975   3.157   5.156   6.263  0.0589  0.1882  0.1021
  486MOL0     C66976   3.729   5.961   5.969 -0.8570  1.3627 -0.8111
  486MOL0     C66977   3.792   6.079   5.921 -0.1507  0.0348 -0.0411
  486MOL0     O66978   4.092   6.212   5.886  1.1054  0.4317  0.1940
  486MOL0     C66979   3.973   6.447   5.649  1.0616 -0.0350  0.9659
  486MOL0     C66980   3.957   6.580   5.615 -0.5871  0.0681  0.1453
  486MOL0     N66981   3.580   6.954   5.637 -0.1949 -0.0295  0.0428
  486MOL0     N66982   3.464   6.897   5.617  0.3299 -0.4910  0.6542
  486MOL0     C66983   3.257   5.938   5.917 -0.7831 -0.6433 -0.3461
  486MOL0     C66984   3.325   5.869   6.020 -0.4184 -0.1079  0.5453
  486MOL0     C66985   3.486   5.818   6.453  0.5497 -0.0774  1.0259
  486MOL0     C66986   3.547   5.696   6.404 -0.7488  1.1974  0.1613
  486MOL0     C66987   3.612   5.606   6.494  0.8129  0.9523 -0.3301
  486MOL0     C66988   3.604   5.634   6.636 -0.2372  0.2475 -0.3206
  486MOL0     O66989   3.656   5.547   6.731 -0.1362  0.1996  0.0081
  486MOL0     C66990   3.690   5.414   6.684 -0.3409 -0.2985 -0.3985
  486MOL0     C66991   3.707   5.313   6.802 -0.1758 -0.6012 -0.7632
  486MOL0     C66992   3.602   5.317   6.916  0.5336  0.2307 -0.3806
  486MOL0     C66993   3.462   5.269   6.872 -0.3585 -0.6887  1.1573
  486MOL0     C66994   3.380   5.264   6.992  0.5198  0.7109 -0.1590
  486MOL0     C66995   3.305   5.274   7.087  0.6422  0.5486  0.0713
  486MOL0     C66996   3.540   5.747   6.677 -0.1266  0.0331  0.4691
  486MOL0     C66997   3.479   5.838   6.593 -0.3112 -0.0251  0.4919
  486MOL0     C66998   3.420   5.955   6.670  0.2558  0.9123  0.5955
  486MOL0     H66999   3.453   6.131   6.187 -1.8934  2.5237  0.6852
  486MOL0     H67000   3.333   6.255   6.028  3.3279  0.4245 -0.4586
  486MOL0     H67001   2.991   6.104   5.933  1.7740  2.5518  3.0851
  486MOL0     H67002   3.020   6.080   5.757 -1.0484  3.8215 -0.9324
  486MOL0     H67003   2.863   6.230   5.810  0.9436 -2.1574 -0.6650
  486MOL0     H67004   2.975   6.351   5.888  0.5164 -0.3685  1.2558
  486MOL0     H67005   3.114   6.331   5.686  0.2552 -1.6540  0.4186
  486MOL0     H67006   2.985   6.257   5.600 -0.5899 -0.3390  1.3110
  486MOL0     H67007   2.858   6.448   5.571  3.0140  2.1716 -2.8487
  486MOL0     H67008   2.876   6.508   5.741 -0.4263 -3.4672  1.6472
  486MOL0     H67009   2.967   6.630   5.539  1.1576  0.0608 -1.3373
  486MOL0     H67010   3.101   6.515   5.539  1.3609 -0.5002  2.1028
  486MOL0     H67011   3.027   6.715   5.747 -0.8154 -1.6347  0.6205
  486MOL0     H67012   3.124   6.579   5.803 -2.4026  0.7972  1.3708
  486MOL0     H67013   3.172   6.763   5.560  0.3414  0.7483  1.1322
  486MOL0     H67014   3.293   6.646   5.626  0.5400  1.4077 -3.1227
  486MOL0     H67015   3.217   6.910   5.753  0.5838  0.0588  0.6535
  486MOL0     H67016   3.270   6.769   5.847  1.5253 -0.2170 -0.4389
  486MOL0     H67017   3.461   6.885   5.946 -1.0069 -0.0044 -0.6985
  486MOL0     H67018   3.719   6.995   5.959 -1.3885  1.3338  0.2574
  486MOL0     H67019   3.731   7.108   5.840 -1.0768  1.5693  1.4603
  486MOL0     H67020   3.903   6.895   5.897  1.8643 -0.8998 -0.8745
  486MOL0     H67021   3.810   6.807   5.779  0.6708  0.2275 -1.1181
  486MOL0     H67022   3.845   7.038   5.631 -2.8685 -3.9046 -0.7877
  486MOL0     H67023   3.992   7.041   5.715 -0.8873  1.7151 -1.9180
  486MOL0     H67024   3.893   6.825   5.539  1.1310  1.4050 -1.3579
  486MOL0     H67025   4.030   6.936   5.506  0.0521 -2.9682 -3.6215
  486MOL0     H67026   4.214   6.679   5.808  0.4731 -0.7315 -0.4171
  486MOL0     H67027   4.208   6.410   6.001  0.9811  2.0353 -0.2305
  486MOL0     H67028   4.319   6.519   5.930 -0.0634 -0.9893  1.3957
  486MOL0     H67029   4.300   6.361   5.853  1.6968  0.3098 -0.2401
  486MOL0     H67030   3.893   5.960   5.624 -2.2628  1.4055 -0.4618
  486MOL0     H67031   3.793   5.753   5.712 -4.4154  1.7273 -0.4595
  486MOL0     H67032   3.752   5.575   5.841 -2.2049 -3.8948  1.2961
  486MOL0     H67033   3.860   5.633   5.977  0.2024 -1.8008  2.4920
  486MOL0     H67034   3.787   5.425   6.055  1.3085  0.3261 -3.2267
  486MOL0     H67035   3.706   5.560   6.148 -1.4705  2.6161 -1.5019
  486MOL0     H67036   3.507   5.524   5.972 -0.4950 -0.2916  0.5767
  486MOL0     H67037   3.529   5.439   6.120 -0.8864 -2.2219 -1.0428
  486MOL0     H67038   3.655   5.263   6.015  1.6202  1.8757  1.0380
  486MOL0     H67039   3.628   5.325   5.857 -0.6473  0.6431 -0.4363
  486MOL0     H67040   3.391   5.308   5.852  0.2041 -0.1034  0.2675
  486MOL0     H67041   3.482   5.153   5.865  3.0700  0.5999 -0.1138
  486MOL0     H67042   3.351   5.278   6.103  1.4345 -1.9745  2.0523
  486MOL0     H67043   3.433   5.133   6.100 -0.2475 -1.9530  0.1009
  486MOL0     H67044   3.245   5.054   5.921 -1.1942 -2.4744  3.0790
  486MOL0     H67045   3.172   5.201   5.945  2.0788 -0.4646 -1.0955
  486MOL0     H67046   3.231   4.964   6.146 -1.5398 -3.0310 -0.6209
  486MOL0     H67047   3.083   5.037   6.074  0.6895  1.5523  0.3934
  486MOL0     H67048   3.669   5.983   6.057 -1.3816  1.5626 -1.2140
  486MOL0     H67049   3.784   6.172   5.977 -1.5398 -0.4604  0.6119
  486MOL0     H67050   3.906   6.384   5.592  0.8806 -0.3780  1.5500
  486MOL0     H67051   3.906   6.618   5.528  2.6974 -0.3239 -2.1245
  486MOL0     H67052   3.202   5.889   5.837  1.4587 -1.0223 -1.7496
  486MOL0     H67053   3.310   5.763   6.035  0.8332 -0.2098  1.1797
  486MOL0     H67054   3.560   5.663   6.301 -1.4038 -2.1933  1.0559
  486MOL0     H67055   3.647   5.518   6.441 -2.0037  0.1657 -1.0277
  486MOL0     H67056   3.609   5.371   6.624 -0.1773  0.6723 -1.3499
  486MOL0     H67057   3.783   5.416   6.625  1.1436 -1.5527  1.7741
  486MOL0     H67058   3.805   5.329   6.848  1.8839 -2.2042 -4.1729
  486MOL0     H67059   3.720   5.207   6.777 -0.2532 -1.9547  4.0307
  486MOL0     H67060   3.632   5.269   7.010 -1.0545  1.6303  0.9113
  486MOL0     H67061   3.597   5.422   6.946  2.7743  0.0828  0.7251
  486MOL0     H67062   3.471   5.169   6.827 -0.9861  0.0982 -0.8602
  486MOL0     H67063   3.435   5.341   6.793 -1.4582 -3.3614 -1.0762
  486MOL0     H67064   3.235   5.292   7.166 -0.0140 -0.9401 -0.1307
  486MOL0     H67065   3.535   5.753   6.785  2.2739  1.5596  0.5762
  486MOL0     H67066   3.327   5.993   6.627 -0.3263 -0.3684  0.6839
  486MOL0     H67067   3.401   5.931   6.775 -0.7855 -1.6040 -0.1073
  486MOL0     H67068   3.490   6.037   6.652 -0.6336  1.0387 -2.8708
  487MOL0     O67069   2.556   5.752   1.264  0.3760 -0.8791  0.6295
  487MOL0     C67070   2.578   5.844   1.181 -0.4328  0.2272 -0.3827
  487MOL0     O67071   2.620   5.964   1.207  0.2525 -0.3928 -0.7206
  487MOL0     C67072   2.671   5.983   1.336 -0.4179 -0.3425  0.6519
  487MOL0     C67073   2.801   5.942   1.377 -0.7578 -0.0729 -0.4968
  487MOL0     C67074   2.848   5.982   1.500  0.1444 -0.6166 -0.0134
  487MOL0     C67075   2.771   6.061   1.595  0.4109  0.4565  0.0996
  487MOL0     O67076   2.810   6.091   1.719  0.0487 -0.6718 -0.3176
  487MOL0     C67077   2.865   5.987   1.802 -0.6455 -0.3431 -0.5356
  487MOL0     C67078   2.838   6.007   1.946 -0.5853  0.8759  0.6175
  487MOL0     C67079   2.936   5.936   2.034  0.0680 -0.5355  0.0033
  487MOL0     C67080   3.045   6.028   2.082 -0.6203 -0.1353  0.2031
  487MOL0     C67081   3.131   5.933   2.171  0.0983 -0.3133 -0.0513
  487MOL0     C67082   3.278   5.925   2.142  0.4975 -0.5769  0.2866
  487MOL0     C67083   3.347   5.821   2.235 -0.9809 -0.9647 -0.1300
  487MOL0     C67084   3.484   5.781   2.173 -0.3929 -0.1283  0.4073
  487MOL0     N67085   3.582   5.896   2.159  0.1492 -0.0669 -0.4931
  487MOL0     C67086   3.613   5.959   2.044  0.3027  0.2771  1.2148
  487MOL0     C67087   3.682   6.066   2.080 -0.2922 -0.4892  0.3092
  487MOL0     C67088   3.726   6.181   1.988 -0.6330  0.9123 -0.3358
  487MOL0     C67089   3.636   6.302   2.029 -0.5146  0.5240 -0.1219
  487MOL0     C67090   3.708   6.409   2.120  0.6691  0.9116 -0.2881
  487MOL0     C67091   3.756   6.523   2.038 -0.3763 -0.4806 -0.1150
  487MOL0     O67092   3.882   6.585   2.077  0.1931 -0.1333  0.3241
  487MOL0     C67093   3.994   6.535   2.019  0.3186  0.5799 -0.4642
  487MOL0     C67094   4.046   6.593   1.904  0.1649 -0.5319 -0.5509
  487MOL0     C67095   4.170   6.552   1.854  0.1301 -0.2757  0.2721
  487MOL0     C67096   4.210   6.614   1.727 -0.0555  0.0066  1.0415
  487MOL0     C67097   4.235   6.440   1.911 -0.4358 -0.7085 -0.5375
  487MOL0     C67098   4.376   6.398   1.875 -0.7765 -0.4823  0.6868
  487MOL0     O67099   4.427   6.450   1.759  0.4810  0.2776  0.1320
  487MOL0     C67100   4.535   6.396   1.701  0.2162 -1.3819  0.0784
  487MOL0     C67101   4.621   6.481   1.633  0.3571 -0.4735  0.0897
  487MOL0     C67102   4.726   6.432   1.569 -0.7727 -0.4224 -0.2968
  487MOL0     C67103   4.767   6.296   1.571  0.4959  0.5217 -0.0159
  487MOL0     O67104   4.866   6.236   1.497  0.1938 -1.0761  0.3731
  487MOL0     C67105   4.937   6.326   1.402 -0.8769 -0.0647  0.0313
  487MOL0     C67106   5.074   6.356   1.452 -0.6760 -0.9105  0.3880
  487MOL0     C67107   5.146   6.442   1.347  0.1134  0.3649  0.2157
  487MOL0     C67108   5.085   6.579   1.302  0.1063 -0.3751 -0.2727
  487MOL0     C67109   5.176   6.634   1.188  0.3588 -0.5871 -0.7350
  487MOL0     C67110   5.127   6.779   1.165 -0.9096 -0.1648  1.1583
  487MOL0     C67111   5.205   6.842   1.051 -1.0531  0.5884  0.2736
  487MOL0     C67112   5.357   6.855   1.078  0.4044 -0.5688  0.3893
  487MOL0    Cl67113   5.439   6.734   0.974  0.1939  0.7903  0.6035
  487MOL0     C67114   4.684   6.210   1.641  0.4717 -0.2237 -0.5420
  487MOL0     C67115   4.569   6.261   1.704 -0.3518 -0.2996 -0.4743
  487MOL0     O67116   4.447   6.338   1.954 -0.2359 -0.7292 -0.6314
  487MOL0     C67117   4.186   6.387   2.031  0.9162  0.4123 -0.4468
  487MOL0     C67118   4.060   6.431   2.076 -0.5577  0.3411  0.3767
  487MOL0     N67119   3.702   6.061   2.212 -0.3130 -0.3019 -0.5252
  487MOL0     N67120   3.642   5.959   2.266 -0.1616  0.7780 -0.4214
  487MOL0     C67121   2.641   6.083   1.545 -0.1302  0.6506 -0.3224
  487MOL0     C67122   2.589   6.046   1.422 -0.6049 -0.0016  0.9352
  487MOL0     C67123   2.567   5.819   1.034  1.3211 -0.5514  0.1298
  487MOL0     C67124   2.658   5.880   0.947  0.3828 -0.7643  0.9010
  487MOL0     C67125   2.630   5.888   0.810 -0.2042 -0.3062  0.1631
  487MOL0     C67126   2.518   5.816   0.753 -1.6061 -0.2131  0.3043
  487MOL0     O67127   2.488   5.800   0.626 -0.0062  0.8968  0.0593
  487MOL0     C67128   2.586   5.844   0.533 -0.1619  0.3552  0.7697
  487MOL0     C67129   2.568   5.794   0.389  0.0680  0.8991  0.6005
  487MOL0     C67130   2.589   5.645   0.381  0.8112  0.1039 -0.8156
  487MOL0     C67131   2.566   5.578   0.245  0.6643  0.0132 -0.0933
  487MOL0     C67132   2.429   5.597   0.186  0.4407 -0.5191 -0.0342
  487MOL0     C67133   2.325   5.609   0.123 -0.5338  0.6258 -0.1634
  487MOL0     C67134   2.430   5.751   0.841  0.2726 -0.8861 -0.1753
  487MOL0     C67135   2.450   5.754   0.976 -0.1165  0.1095 -0.5747
  487MOL0     C67136   2.350   5.681   1.062  0.0015 -0.3627 -0.4970
  487MOL0     H67137   2.867   5.886   1.312  1.0804  0.3583  0.9242
  487MOL0     H67138   2.947   5.954   1.534  0.0650  0.9862  1.6734
  487MOL0     H67139   2.972   5.997   1.780 -0.8511  2.2561 -0.6791
  487MOL0     H67140   2.821   5.891   1.774 -0.9397 -0.1337 -0.7989
  487MOL0     H67141   2.857   6.112   1.968 -1.3276  0.7079  2.2703
  487MOL0     H67142   2.736   5.988   1.983 -0.1642 -1.7882  0.6111
  487MOL0     H67143   2.887   5.898   2.124  3.0294 -0.8930  1.5538
  487MOL0     H67144   2.988   5.857   1.981  1.1083 -0.2436  0.5760
  487MOL0     H67145   3.114   6.072   2.010  0.8600 -3.3725 -0.5404
  487MOL0     H67146   2.999   6.112   2.135  1.2135  0.3185  1.1547
  487MOL0     H67147   3.092   5.831   2.174 -3.8185  0.9761 -1.5607
  487MOL0     H67148   3.118   5.975   2.271  2.0597 -2.3005  1.1271
  487MOL0     H67149   3.304   5.900   2.039  4.0108 -0.9885  1.1338
  487MOL0     H67150   3.330   6.021   2.153 -0.4405  0.2909 -2.1368
  487MOL0     H67151   3.290   5.728   2.231 -1.1044 -0.9298 -4.4959
  487MOL0     H67152   3.372   5.855   2.336  2.2987 -2.7922 -0.1775
  487MOL0     H67153   3.536   5.718   2.246  3.3681 -2.7748 -4.0178
  487MOL0     H67154   3.462   5.730   2.079 -0.2487  1.3930 -0.4904
  487MOL0     H67155   3.577   5.938   1.944  0.5012 -0.1052  1.2210
  487MOL0     H67156   3.712   6.159   1.882  1.9234 -4.3625  0.0932
  487MOL0     H67157   3.832   6.202   2.001  0.0997 -2.5108  0.3689
  487MOL0     H67158   3.606   6.339   1.930 -0.2146 -2.5906 -1.5064
  487MOL0     H67159   3.547   6.271   2.086  0.8898  2.2538  3.2883
  487MOL0     H67160   3.637   6.436   2.198  0.7236 -1.6704  0.7385
  487MOL0     H67161   3.782   6.364   2.187 -2.1889 -0.5961  2.0919
  487MOL0     H67162   3.771   6.482   1.938  2.6508  1.8410 -0.7623
  487MOL0     H67163   3.689   6.610   2.038 -0.7438 -0.6776  2.5256
  487MOL0     H67164   3.972   6.662   1.866 -2.4085 -1.0010  3.0447
  487MOL0     H67165   4.138   6.689   1.693  0.8515  2.2963  3.7617
  487MOL0     H67166   4.211   6.538   1.649 -0.6436  2.0401 -1.0779
  487MOL0     H67167   4.312   6.654   1.717  0.5173 -1.1488  1.9913
  487MOL0     H67168   4.619   6.589   1.642  1.2580 -0.2139 -2.2284
  487MOL0     H67169   4.781   6.509   1.516 -0.5177  1.1664  2.0851
  487MOL0     H67170   4.959   6.272   1.309 -0.4679 -2.0092  1.1943
  487MOL0     H67171   4.879   6.415   1.377 -1.3479  0.1253  1.6859
  487MOL0     H67172   5.076   6.404   1.551  1.0278 -1.4908  0.6769
  487MOL0     H67173   5.138   6.267   1.456 -0.6182 -1.0533 -2.2713
  487MOL0     H67174   5.137   6.381   1.256  6.2768 -0.2093 -0.4008
  487MOL0     H67175   5.249   6.450   1.380 -0.2911 -0.4645  1.7718
  487MOL0     H67176   5.091   6.651   1.384  3.0867 -0.1010 -0.6099
  487MOL0     H67177   4.980   6.578   1.271 -0.4836  1.9456  1.4218
  487MOL0     H67178   5.283   6.620   1.208  0.4298  1.3233  0.4266
  487MOL0     H67179   5.145   6.572   1.103  1.1008 -3.2366  0.7849
  487MOL0     H67180   5.142   6.831   1.260  2.6114  0.3094  0.4850
  487MOL0     H67181   5.020   6.773   1.140 -0.5507 -0.1533 -0.5481
  487MOL0     H67182   5.170   6.942   1.021 -1.3753 -0.5579 -3.8334
  487MOL0     H67183   5.182   6.768   0.974 -0.8910  2.1684 -1.3655
  487MOL0     H67184   5.386   6.830   1.180 -0.9567 -0.1828  0.8906
  487MOL0     H67185   5.381   6.959   1.055 -1.8564 -0.0102  0.3642
  487MOL0     H67186   4.704   6.106   1.665 -0.2688 -0.1822  0.2802
  487MOL0     H67187   4.521   6.180   1.759  1.4954 -0.9879  0.2116
  487MOL0     H67188   4.246   6.316   2.088  1.8256  2.1745  0.8997
  487MOL0     H67189   4.019   6.376   2.160  0.9887 -1.5102  0.0063
  487MOL0     H67190   2.570   6.126   1.615 -2.1678  0.2890 -2.0904
  487MOL0     H67191   2.486   6.064   1.393 -1.9535 -4.7273  1.8889
  487MOL0     H67192   2.728   5.953   0.988 -0.2665  1.6218 -1.9473
  487MOL0     H67193   2.709   5.927   0.747  1.9093 -2.5625  1.2452
  487MOL0     H67194   2.595   5.953   0.536 -0.6360  0.4398 -0.4765
  487MOL0     H67195   2.677   5.795   0.569  0.0085 -1.3808 -1.8015
  487MOL0     H67196   2.635   5.858   0.331 -1.8448  2.9032  0.4790
  487MOL0     H67197   2.468   5.822   0.352 -0.5802  1.4455  2.6150
  487MOL0     H67198   2.687   5.601   0.403 -0.8390 -2.5388  2.1564
  487MOL0     H67199   2.517   5.602   0.451  2.5352  3.0886  3.2015
  487MOL0     H67200   2.570   5.470   0.262 -1.5727 -0.5102 -2.1727
  487MOL0     H67201   2.649   5.600   0.177 -0.2289  2.6771 -0.4438
  487MOL0     H67202   2.238   5.604   0.060 -1.9771 -0.7187  1.7910
  487MOL0     H67203   2.347   5.694   0.800 -0.5608  0.1742  0.0090
  487MOL0     H67204   2.283   5.749   1.116 -0.8857 -0.3109 -1.6299
  487MOL0     H67205   2.284   5.618   1.001  1.2866 -1.4198 -0.8598
  487MOL0     H67206   2.397   5.612   1.133 -0.3468  0.2725  0.3703
  488MOL0     O67207   2.446  11.209   1.218 -0.4481  0.0009 -0.1153
  488MOL0     C67208   2.409  11.298   1.145  0.3731 -0.6088 -0.9219
  488MOL0     O67209   2.477  11.410   1.103  0.4049  0.5421 -0.2991
  488MOL0     C67210   2.579  11.465   1.176 -0.3824  0.1010  0.1904
  488MOL0     C67211   2.675  11.534   1.110 -0.7406 -0.7702  0.1187
  488MOL0     C67212   2.789  11.591   1.188  0.0677  0.6029 -0.8579
  488MOL0     C67213   2.787  11.578   1.326 -0.0770 -0.4576  0.3197
  488MOL0     O67214   2.893  11.603   1.408  0.0865  0.0205 -0.3031
  488MOL0     C67215   2.996  11.697   1.377 -0.3111  0.2661 -0.0300
  488MOL0     C67216   3.098  11.691   1.491 -0.4797 -0.5488 -0.5209
  488MOL0     C67217   3.252  11.732   1.444  0.0438 -0.3406 -0.2477
  488MOL0     C67218   3.332  11.763   1.571  0.6465 -0.7268 -0.3720
  488MOL0     C67219   3.482  11.767   1.538  0.1371  0.0867 -0.0599
  488MOL0     C67220   3.574  11.753   1.661 -0.1865 -0.0017 -1.0301
  488MOL0     C67221   3.556  11.865   1.769 -0.4373  0.4984 -0.0606
  488MOL0     C67222   3.687  11.886   1.861  0.1331 -0.5725  0.1628
  488MOL0     N67223   3.799  11.953   1.805  0.2689 -0.7370  0.3162
  488MOL0     C67224   3.898  11.886   1.738 -1.2773 -0.2489 -0.2656
  488MOL0     C67225   3.983  11.978   1.705 -0.4858 -0.5933  0.3342
  488MOL0     C67226   4.122  11.949   1.660 -0.3201 -0.3811  0.1635
  488MOL0     C67227   4.153  11.991   1.508  0.1003 -0.1569  1.5078
  488MOL0     C67228   4.286  11.987   1.456  0.3298 -0.1290 -0.1137
  488MOL0     C67229   4.368  12.099   1.531 -0.4553 -0.0717 -0.8311
  488MOL0     O67230   4.493  12.100   1.465 -0.1721  1.4973  0.9762
  488MOL0     C67231   4.598  12.168   1.515  0.0975 -0.2691 -0.8334
  488MOL0     C67232   4.590  12.298   1.579 -0.7535  0.3636 -0.8461
  488MOL0     C67233   4.695  12.374   1.627  0.5725  0.0854  0.3232
  488MOL0     C67234   4.672  12.516   1.662  0.1333 -0.2106  0.2422
  488MOL0     C67235   4.811  12.298   1.642  0.1221  1.0909 -1.1571
  488MOL0     C67236   4.936  12.356   1.701  0.7240 -0.3534 -0.3105
  488MOL0     O67237   5.019  12.255   1.748  0.4770  0.8420  0.9682
  488MOL0     C67238   5.142  12.283   1.792 -0.2403 -0.3321  0.7679
  488MOL0     C67239   5.176  12.219   1.910  0.1370  0.4445 -1.3003
  488MOL0     C67240   5.296  12.247   1.974 -0.7888 -0.3453 -0.5446
  488MOL0     C67241   5.395  12.328   1.914  0.2122 -0.9249 -0.5144
  488MOL0     O67242   5.523  12.354   1.976  0.5835  0.1704  0.7184
  488MOL0     C67243   5.556  12.289   2.100  0.3466  0.6579 -0.1180
  488MOL0     C67244   5.689  12.360   2.139  0.2377  0.2098 -0.0256
  488MOL0     C67245   5.811  12.340   2.041 -0.2783 -0.2838  0.9345
  488MOL0     C67246   5.877  12.207   2.078 -0.1038  0.7333  0.1174
  488MOL0     C67247   6.024  12.192   2.030 -0.5183  0.3894 -0.2565
  488MOL0     C67248   6.038  12.194   1.878 -0.3602 -0.4352  0.8174
  488MOL0     C67249   6.182  12.168   1.825 -0.5089  0.7107  0.1538
  488MOL0     C67250   6.173  12.086   1.699  0.0368 -0.8718  0.0892
  488MOL0    Cl67251   6.091  12.153   1.568  0.5644  0.1366 -0.4326
  488MOL0     C67252   5.362  12.396   1.796  0.8452  0.3610  0.3894
  488MOL0     C67253   5.237  12.370   1.741  0.2012  0.1991 -0.2516
  488MOL0     O67254   4.969  12.468   1.681  0.2691  0.5596  0.2088
  488MOL0     C67255   4.818  12.163   1.608  0.1005 -0.2880  0.4543
  488MOL0     C67256   4.717  12.102   1.535  0.3719  0.2082 -0.6538
  488MOL0     N67257   3.923  12.106   1.726 -1.1507 -0.0145 -0.0290
  488MOL0     N67258   3.813  12.090   1.786 -0.1252 -0.9597  0.1267
  488MOL0     C67259   2.672  11.531   1.384  0.1202 -0.5599  0.2281
  488MOL0     C67260   2.566  11.477   1.315  0.0553 -0.4181 -0.0582
  488MOL0     C67261   2.276  11.282   1.084  0.1268  0.5072  0.2179
  488MOL0     C67262   2.280  11.244   0.948  0.0878  1.0062  1.1198
  488MOL0     C67263   2.158  11.226   0.880 -0.1504  0.0362  0.1098
  488MOL0     C67264   2.042  11.267   0.946 -0.6122 -0.2853  0.5436
  488MOL0     O67265   1.918  11.259   0.888  0.4667  0.7299  0.4057
  488MOL0     C67266   1.894  11.245   0.744 -1.1043  0.7729 -0.3871
  488MOL0     C67267   1.758  11.317   0.704 -0.3698  0.0294  0.3277
  488MOL0     C67268   1.655  11.287   0.803  0.9692  0.8624  0.5448
  488MOL0     C67269   1.511  11.329   0.763  0.3285  0.3090 -0.5172
  488MOL0     C67270   1.405  11.266   0.841 -0.3899  0.8907  0.0527
  488MOL0     C67271   1.312  11.212   0.890 -0.7673 -0.3152 -0.7873
  488MOL0     C67272   2.040  11.329   1.071  0.7699  0.1298 -0.8676
  488MOL0     C67273   2.159  11.324   1.147 -0.5526 -0.4380  0.5867
  488MOL0     C67274   2.160  11.360   1.296  0.5634 -0.6099 -0.0120
  488MOL0     H67275   2.675  11.554   1.003  1.8682  3.0361  0.6059
  488MOL0     H67276   2.883  11.625   1.145  0.7300 -0.5603 -0.3723
  488MOL0     H67277   2.962  11.801   1.383 -0.3312  0.1817  3.2739
  488MOL0     H67278   3.046  11.694   1.280  0.4897 -1.1294  0.3951
  488MOL0     H67279   3.073  11.761   1.571  0.5964 -1.7707  0.9570
  488MOL0     H67280   3.094  11.592   1.537 -0.2245 -1.0400 -1.5301
  488MOL0     H67281   3.301  11.656   1.383 -1.1109 -1.5358  0.2571
  488MOL0     H67282   3.236  11.827   1.392 -2.0696 -0.5345 -0.0685
  488MOL0     H67283   3.302  11.863   1.605  0.6943  0.6384 -3.9667
  488MOL0     H67284   3.310  11.684   1.645  1.1185  1.1090  1.8443
  488MOL0     H67285   3.499  11.854   1.473 -4.5705 -0.9994 -3.2908
  488MOL0     H67286   3.500  11.678   1.477  1.7556  0.4355 -0.1186
  488MOL0     H67287   3.554  11.658   1.712 -1.8208  1.1054  0.5568
  488MOL0     H67288   3.673  11.760   1.616 -0.4715 -0.0493 -1.6688
  488MOL0     H67289   3.483  11.828   1.841  0.6201 -0.5798  0.4939
  488MOL0     H67290   3.514  11.956   1.725  0.2381  0.0639 -1.6749
  488MOL0     H67291   3.655  11.959   1.936 -1.7383  1.5225 -2.4639
  488MOL0     H67292   3.713  11.794   1.915  0.3930  0.3534  1.6699
  488MOL0     H67293   3.891  11.779   1.723 -1.2956 -0.5794  1.8782
  488MOL0     H67294   4.137  11.840   1.656 -1.7710 -0.6545  1.1338
  488MOL0     H67295   4.195  11.997   1.726  0.1033  0.5336 -0.9410
  488MOL0     H67296   4.099  11.922   1.442  0.2961 -0.7757  1.9895
  488MOL0     H67297   4.105  12.088   1.491 -0.1199 -0.5760 -0.5397
  488MOL0     H67298   4.314  11.881   1.460  0.5535 -0.0615  0.2223
  488MOL0     H67299   4.293  12.007   1.349  2.2873 -4.3648 -0.9662
  488MOL0     H67300   4.325  12.199   1.537  0.2673  0.1625  3.5083
  488MOL0     H67301   4.392  12.063   1.631  0.1623  2.3179 -0.0567
  488MOL0     H67302   4.497  12.350   1.598  0.1688  0.8719  3.2319
  488MOL0     H67303   4.751  12.579   1.621 -2.1586  2.3601 -0.5333
  488MOL0     H67304   4.677  12.525   1.771  0.8394  0.1983  0.1779
  488MOL0     H67305   4.575  12.555   1.631 -1.5327 -1.9636  2.8094
  488MOL0     H67306   5.100  12.149   1.944 -0.0133  2.1605  2.3142
  488MOL0     H67307   5.320  12.211   2.074  0.5803  1.7863 -0.0267
  488MOL0     H67308   5.480  12.313   2.175  1.5739 -1.6573  2.0132
  488MOL0     H67309   5.564  12.181   2.087 -0.1936  0.3759  1.6773
  488MOL0     H67310   5.656  12.463   2.157 -1.7402 -0.5818  1.1370
  488MOL0     H67311   5.730  12.320   2.232 -0.2010 -2.7987 -1.0384
  488MOL0     H67312   5.887  12.417   2.054  1.6733 -1.9075 -0.2155
  488MOL0     H67313   5.783  12.337   1.936  2.8440 -1.6829  0.0053
  488MOL0     H67314   5.827  12.123   2.029  2.0391 -0.7344  0.2673
  488MOL0     H67315   5.880  12.185   2.186 -1.3278  1.5090  0.3341
  488MOL0     H67316   6.081  12.277   2.070  1.2993 -0.0803 -1.7341
  488MOL0     H67317   6.057  12.093   2.061  2.4899  1.2099 -0.4944
  488MOL0     H67318   6.020  12.296   1.842  4.2227 -0.3710 -2.1072
  488MOL0     H67319   5.968  12.128   1.825  1.2579 -2.0009  0.5366
  488MOL0     H67320   6.245  12.104   1.886  1.1291  1.5469 -0.5846
  488MOL0     H67321   6.237  12.259   1.798 -0.3854  0.6502  0.2060
  488MOL0     H67322   6.124  11.991   1.725 -0.5364 -0.8010 -0.6919
  488MOL0     H67323   6.271  12.061   1.657 -0.2537 -1.7008 -0.1199
  488MOL0     H67324   5.446  12.448   1.751  1.3936 -0.0413  0.9255
  488MOL0     H67325   5.223  12.404   1.640  0.9690  0.8014 -0.1661
  488MOL0     H67326   4.903  12.096   1.617  1.5105  1.3152 -0.4563
  488MOL0     H67327   4.732  12.004   1.491  2.8943 -0.4209  1.3855
  488MOL0     H67328   2.663  11.517   1.491  1.3708 -1.9571  0.1827
  488MOL0     H67329   2.491  11.415   1.364 -0.5649 -1.4990 -2.2527
  488MOL0     H67330   2.372  11.208   0.905  0.4630  1.4165  1.5753
  488MOL0     H67331   2.153  11.178   0.783  2.7397 -0.1984 -0.0038
  488MOL0     H67332   1.980  11.282   0.688 -2.1167  0.7563 -2.0089
  488MOL0     H67333   1.867  11.141   0.722  3.0090 -0.5510 -0.0219
  488MOL0     H67334   1.732  11.276   0.606  2.2880 -0.5289 -0.2157
  488MOL0     H67335   1.757  11.426   0.707 -0.9489  0.0126  1.3947
  488MOL0     H67336   1.652  11.183   0.835  0.5394  0.4010 -0.9255
  488MOL0     H67337   1.686  11.331   0.899  2.2323 -0.9504  1.0294
  488MOL0     H67338   1.487  11.289   0.664 -0.8307 -1.4397  0.4223
  488MOL0     H67339   1.496  11.438   0.763  3.6769  0.8759 -1.2779
  488MOL0     H67340   1.212  11.178   0.906 -0.4069 -1.3540 -0.6792
  488MOL0     H67341   1.944  11.360   1.112  0.8407  0.8707 -1.2516
  488MOL0     H67342   2.244  11.315   1.351  0.7547 -0.6214 -0.3129
  488MOL0     H67343   2.163  11.467   1.318 -1.6431 -0.2011 -1.4122
  488MOL0     H67344   2.068  11.333   1.349 -0.1143  1.2211 -0.1682
  489MOL0     O67345   6.981   7.025   2.766 -0.1308 -0.4673 -0.0875
  489MOL0     C67346   6.896   7.083   2.836 -0.0485 -0.0500 -0.1598
  489MOL0     O67347   6.923   7.149   2.953  0.2475 -0.0622 -0.3615
  489MOL0     C67348   7.014   7.088   3.032 -0.0555 -0.2521 -0.5279
  489MOL0     C67349   7.155   7.086   2.999  0.2268 -0.2413  0.0202
  489MOL0     C67350   7.243   7.083   3.109 -0.0759 -0.0412  0.3697
  489MOL0     C67351   7.197   7.072   3.242 -0.0863  0.8866 -0.5743
  489MOL0     O67352   7.284   7.106   3.338  0.1698  0.1960 -0.2541
  489MOL0     C67353   7.275   7.014   3.444  0.1508 -0.5159 -0.5675
  489MOL0     C67354   7.420   6.980   3.492  0.1791 -0.9417  0.6095
  489MOL0     C67355   7.425   6.890   3.615 -0.5499  1.4603 -0.0923
  489MOL0     C67356   7.582   6.853   3.641  0.3821 -0.3107 -0.4766
  489MOL0     C67357   7.591   6.784   3.771 -0.1272  0.8478  0.7897
  489MOL0     C67358   7.518   6.852   3.900 -0.6372  0.1270  0.8674
  489MOL0     C67359   7.570   6.790   4.029 -0.4902  0.3041  0.1318
  489MOL0     C67360   7.705   6.845   4.066 -0.3806 -0.2495 -0.1021
  489MOL0     N67361   7.708   6.807   4.209 -0.1249  1.0658  0.4336
  489MOL0     C67362   7.664   6.871   4.318 -1.1611 -0.2446 -0.0847
  489MOL0     C67363   7.701   6.796   4.427 -0.5076 -0.9175  0.2609
  489MOL0     C67364   7.686   6.836   4.573  0.1923  0.4639 -0.1712
  489MOL0     C67365   7.563   6.909   4.619  0.0244 -0.1350 -0.1129
  489MOL0     C67366   7.556   6.896   4.781  0.1459 -0.2629  0.3183
  489MOL0     C67367   7.687   6.937   4.852 -0.0314 -0.0428  0.2203
  489MOL0     O67368   7.707   7.072   4.802 -0.1641  0.0303 -0.3418
  489MOL0     C67369   7.813   7.142   4.849  0.7289 -0.7382 -0.7237
  489MOL0     C67370   7.806   7.278   4.864  0.5333  0.2174  0.1084
  489MOL0     C67371   7.913   7.356   4.901 -0.2323 -0.1197 -0.1236
  489MOL0     C67372   7.895   7.505   4.925  0.4028 -0.0368  0.4674
  489MOL0     C67373   8.032   7.288   4.937 -0.0746 -0.1068 -0.0307
  489MOL0     C67374   8.157   7.356   4.988 -0.6558 -1.2835  0.3381
  489MOL0     O67375   8.180   7.480   4.944  0.3310 -0.3959 -0.0162
  489MOL0     C67376   8.278   7.546   5.008  0.2455 -0.2072 -0.5608
  489MOL0     C67377   8.391   7.585   4.940 -0.1974 -0.8578  0.5121
  489MOL0     C67378   8.492   7.656   5.015  1.1278  0.5984 -0.3195
  489MOL0     C67379   8.481   7.680   5.154  0.0685 -0.4038 -0.9782
  489MOL0     O67380   8.582   7.749   5.223  0.4540  0.0834  0.2807
  489MOL0     C67381   8.583   7.887   5.189 -0.2370  0.0158  0.1746
  489MOL0     C67382   8.672   7.976   5.280  1.7949 -0.5212 -0.9402
  489MOL0     C67383   8.816   7.942   5.280  1.1293  0.3296 -0.5123
  489MOL0     C67384   8.869   7.976   5.138 -0.3291  0.2040 -0.4098
  489MOL0     C67385   8.895   8.125   5.120 -0.0944 -0.3109  0.2676
  489MOL0     C67386   8.950   8.156   4.980 -0.4894 -0.0201  0.4209
  489MOL0     C67387   8.998   8.298   4.970  0.0629  0.1601  0.1214
  489MOL0     C67388   9.041   8.331   4.823  0.9103  0.2052 -0.2355
  489MOL0    Cl67389   9.055   8.508   4.805  0.3500 -0.5620 -0.0136
  489MOL0     C67390   8.366   7.633   5.222  0.2985 -0.0225 -1.0808
  489MOL0     C67391   8.266   7.576   5.147  0.0463 -0.4944 -0.9650
  489MOL0     O67392   8.235   7.282   5.047  1.0519  0.7063 -1.1131
  489MOL0     C67393   8.039   7.152   4.922  0.1043 -0.4582  0.0452
  489MOL0     C67394   7.935   7.083   4.884  0.1079  0.4533  0.1017
  489MOL0     N67395   7.774   6.689   4.376 -1.0968 -0.0293 -0.6128
  489MOL0     N67396   7.772   6.688   4.242 -0.4116  0.4004 -0.4063
  489MOL0     C67397   7.060   7.042   3.266  0.8435 -0.4174  0.4993
  489MOL0     C67398   6.968   7.062   3.161  0.6560  0.5334 -0.0706
  489MOL0     C67399   6.769   7.109   2.783  0.2005  0.5556 -1.0216
  489MOL0     C67400   6.714   7.244   2.804 -0.7392  0.6808  0.7625
  489MOL0     C67401   6.581   7.271   2.755 -0.1540 -0.8556 -0.4431
  489MOL0     C67402   6.498   7.180   2.704  0.2812 -0.8243  1.0375
  489MOL0     O67403   6.372   7.225   2.692 -0.8349 -0.7504  0.6437
  489MOL0     C67404   6.305   7.175   2.570  0.4602 -1.0486 -0.2208
  489MOL0     C67405   6.333   7.245   2.435 -0.2011 -0.4314 -0.0952
  489MOL0     C67406   6.235   7.218   2.323 -0.0857  0.2099  0.3510
  489MOL0     C67407   6.281   7.310   2.209  0.6554  0.3602  0.3009
  489MOL0     C67408   6.240   7.447   2.216 -0.0498 -0.5829  0.2967
  489MOL0     C67409   6.210   7.561   2.215 -0.1733 -0.7052  0.0404
  489MOL0     C67410   6.552   7.055   2.678  1.0293 -0.1775 -0.5340
  489MOL0     C67411   6.688   7.022   2.709 -0.2110 -0.8055 -0.2710
  489MOL0     C67412   6.739   6.885   2.673 -0.4881  0.2043  0.2748
  489MOL0     H67413   7.195   7.122   2.905  1.1124  1.9429  1.1527
  489MOL0     H67414   7.348   7.097   3.087  0.1272 -0.0414  1.3087
  489MOL0     H67415   7.225   6.922   3.412 -3.5246  0.3972  1.8687
  489MOL0     H67416   7.221   7.061   3.527  2.0272  0.5933  0.1074
  489MOL0     H67417   7.450   6.921   3.406 -1.2922  0.8159 -1.2279
  489MOL0     H67418   7.492   7.062   3.497  3.0642 -3.3932  2.3370
  489MOL0     H67419   7.377   6.947   3.695 -2.9999 -0.2338 -0.2628
  489MOL0     H67420   7.372   6.795   3.613  0.2947  0.9810 -0.3556
  489MOL0     H67421   7.611   6.781   3.564  0.3992  0.0368 -0.7973
  489MOL0     H67422   7.646   6.941   3.628  1.4571 -1.5273 -5.4667
  489MOL0     H67423   7.698   6.773   3.793  1.4037  0.8358 -5.0151
  489MOL0     H67424   7.558   6.681   3.761  0.8755  0.2159  3.2319
  489MOL0     H67425   7.536   6.959   3.889  0.9217 -0.3416 -1.9617
  489MOL0     H67426   7.410   6.834   3.907 -0.1319 -2.8753  3.2141
  489MOL0     H67427   7.576   6.684   4.003 -1.5833  0.3104 -0.1928
  489MOL0     H67428   7.505   6.803   4.116  0.7248 -5.2818  2.3491
  489MOL0     H67429   7.791   6.802   4.014 -0.4867 -2.4842  1.4310
  489MOL0     H67430   7.704   6.954   4.055  2.1535 -0.3395 -2.4173
  489MOL0     H67431   7.603   6.961   4.315 -0.7923 -0.0073 -2.9192
  489MOL0     H67432   7.781   6.884   4.596  1.0766 -1.6972  0.9369
  489MOL0     H67433   7.686   6.737   4.619 -3.7300 -0.0855 -0.9913
  489MOL0     H67434   7.578   7.014   4.593  2.9073 -0.4148  0.1008
  489MOL0     H67435   7.474   6.866   4.572 -1.9101  3.7965 -0.4389
  489MOL0     H67436   7.476   6.961   4.818  1.4408  1.8494 -0.4405
  489MOL0     H67437   7.539   6.791   4.806  0.1352 -0.0048  1.4653
  489MOL0     H67438   7.672   6.937   4.961 -1.1584  2.7835  0.1487
  489MOL0     H67439   7.766   6.862   4.835  0.6810  0.3824  1.4744
  489MOL0     H67440   7.709   7.322   4.846  0.3597  0.3535  1.3023
  489MOL0     H67441   7.963   7.568   4.865 -3.5245  0.5788 -3.9078
  489MOL0     H67442   7.904   7.542   5.027 -2.5204  0.1803  0.7267
  489MOL0     H67443   7.797   7.534   4.887  0.7014  0.0973 -0.2289
  489MOL0     H67444   8.389   7.561   4.834 -2.4097 -2.6288  0.8877
  489MOL0     H67445   8.574   7.697   4.958  1.3910  0.1824 -0.2441
  489MOL0     H67446   8.621   7.895   5.087  3.3030  1.3241  1.4392
  489MOL0     H67447   8.484   7.929   5.205  0.5859  2.9154 -1.6126
  489MOL0     H67448   8.661   8.080   5.249 -1.6879 -0.1918  0.8647
  489MOL0     H67449   8.629   7.973   5.381 -1.2843 -2.5597 -2.1671
  489MOL0     H67450   8.824   7.838   5.313  0.5386  0.7399  0.9986
  489MOL0     H67451   8.874   7.996   5.355 -0.5737 -1.3173  2.1405
  489MOL0     H67452   8.819   7.923   5.056  0.1088  1.9536 -1.8915
  489MOL0     H67453   8.967   7.927   5.133 -0.3418  0.0428  0.7966
  489MOL0     H67454   8.808   8.192   5.126  1.0022  1.3210 -1.0911
  489MOL0     H67455   8.978   8.137   5.190 -0.3002 -0.9969  0.6353
  489MOL0     H67456   8.870   8.144   4.906  1.4828 -2.9661 -1.4350
  489MOL0     H67457   9.024   8.077   4.964  2.0331  2.2914 -0.1126
  489MOL0     H67458   9.090   8.312   5.027  1.1390  0.3315 -1.5983
  489MOL0     H67459   8.925   8.371   5.007 -0.4551  1.1365 -2.6484
  489MOL0     H67460   8.970   8.302   4.746 -0.6214  4.2795 -0.5865
  489MOL0     H67461   9.139   8.285   4.807  2.4373  0.9934  4.9371
  489MOL0     H67462   8.345   7.652   5.327 -0.7161  0.5766 -1.3797
  489MOL0     H67463   8.171   7.563   5.197  1.3001 -0.9835  1.4367
  489MOL0     H67464   8.131   7.097   4.938  0.7282 -0.1745 -2.1901
  489MOL0     H67465   7.936   6.976   4.867 -2.6386  0.1989  0.9865
  489MOL0     H67466   7.026   7.010   3.364 -0.3022 -1.2502 -0.1468
  489MOL0     H67467   6.863   7.074   3.187  0.7807  4.6879 -0.8808
  489MOL0     H67468   6.777   7.320   2.848 -2.0937  1.3608  1.6013
  489MOL0     H67469   6.539   7.371   2.754 -1.9181 -1.5166  1.2279
  489MOL0     H67470   6.335   7.071   2.554  1.4676 -0.8869  0.5453
  489MOL0     H67471   6.198   7.165   2.589  0.0920 -4.5797 -2.9902
  489MOL0     H67472   6.434   7.216   2.406 -0.5307 -2.6016  0.7853
  489MOL0     H67473   6.325   7.350   2.465  1.6523  0.0943 -1.2605
  489MOL0     H67474   6.244   7.112   2.298 -0.0755 -0.0072  1.2439
  489MOL0     H67475   6.129   7.232   2.348 -0.2559  0.0372 -0.2582
  489MOL0     H67476   6.236   7.283   2.113 -3.1472  2.7827  1.1683
  489MOL0     H67477   6.391   7.308   2.208  0.6827 -1.8427  1.3173
  489MOL0     H67478   6.172   7.661   2.221  2.9185  0.5237  1.3052
  489MOL0     H67479   6.492   6.979   2.630 -2.5530  0.4320  2.5458
  489MOL0     H67480   6.744   6.835   2.770 -0.8007  2.0177  1.2663
  489MOL0     H67481   6.662   6.832   2.616 -0.0005  0.4882 -0.6696
  489MOL0     H67482   6.837   6.880   2.623 -0.3722 -0.6108  0.5781
  490MOL0     O67483   0.872   8.179   2.212 -0.3458  0.5464  0.2325
  490MOL0     C67484   0.947   8.283   2.222 -0.2620  0.3468  0.4910
  490MOL0     O67485   1.072   8.291   2.275  0.4302 -0.4273  0.2573
  490MOL0     C67486   1.141   8.174   2.277 -0.8021 -0.1678 -0.5348
  490MOL0     C67487   1.261   8.148   2.204 -0.4965 -0.1792 -0.6395
  490MOL0     C67488   1.337   8.032   2.220 -0.1921  0.3502  0.7355
  490MOL0     C67489   1.316   7.945   2.325  0.7056 -0.0876 -0.9037
  490MOL0     O67490   1.404   7.849   2.346  0.4762 -0.3880 -0.4469
  490MOL0     C67491   1.400   7.771   2.470  0.5751  0.0600  0.0776
  490MOL0     C67492   1.330   7.635   2.447 -0.9245  0.7698 -0.0981
  490MOL0     C67493   1.389   7.569   2.319  0.4518  0.1061 -0.5347
  490MOL0     C67494   1.365   7.420   2.301 -0.0287  0.0895 -0.0452
  490MOL0     C67495   1.432   7.370   2.173 -0.4086  0.1157 -0.8722
  490MOL0     C67496   1.582   7.326   2.197 -0.3686  0.2106  0.2270
  490MOL0     C67497   1.656   7.276   2.078 -0.5557 -0.0466  0.1971
  490MOL0     C67498   1.690   7.386   1.988 -0.4276 -0.4329  0.0340
  490MOL0     N67499   1.817   7.451   2.036  0.5494  0.4736 -0.1068
  490MOL0     C67500   1.818   7.571   2.097  0.2321  0.3870 -0.0236
  490MOL0     C67501   1.944   7.611   2.085 -0.1784 -0.2333  0.3942
  490MOL0     C67502   1.999   7.735   2.144 -0.0057 -0.3464  0.7804
  490MOL0     C67503   2.036   7.731   2.300  0.5625  0.7068  0.3009
  490MOL0     C67504   2.123   7.840   2.351 -0.2699 -0.4117 -0.1704
  490MOL0     C67505   2.236   7.872   2.258  0.0379 -1.3426 -0.5549
  490MOL0     O67506   2.329   7.764   2.269 -0.3444  0.6831  0.1577
  490MOL0     C67507   2.442   7.792   2.336 -0.5790  0.0281 -0.6191
  490MOL0     C67508   2.466   7.744   2.463 -0.4443  0.2231  0.3428
  490MOL0     C67509   2.587   7.772   2.533  0.2410 -0.1068 -0.2314
  490MOL0     C67510   2.610   7.704   2.667 -0.0968  0.6146 -0.4375
  490MOL0     C67511   2.684   7.856   2.460 -0.1608  0.4612 -0.8766
  490MOL0     C67512   2.805   7.922   2.527 -0.0429 -0.0497 -1.2631
  490MOL0     O67513   2.889   7.988   2.441  0.8765 -0.3984 -0.7090
  490MOL0     C67514   3.003   8.026   2.500 -1.2486 -0.0583 -0.7758
  490MOL0     C67515   3.116   7.938   2.504 -0.0233 -0.7927 -0.4160
  490MOL0     C67516   3.231   7.975   2.572  0.1796 -0.8252  0.7120
  490MOL0     C67517   3.239   8.100   2.629  0.2745 -0.5461 -0.7915
  490MOL0     O67518   3.351   8.121   2.707 -0.3380 -0.2321  0.0923
  490MOL0     C67519   3.343   8.207   2.824 -0.2664 -0.9430  0.2505
  490MOL0     C67520   3.481   8.209   2.898  0.4825  0.0470  0.1715
  490MOL0     C67521   3.474   8.331   3.000  0.1649  0.5860 -0.7247
  490MOL0     C67522   3.578   8.330   3.113  0.0271  0.2911 -1.3920
  490MOL0     C67523   3.547   8.220   3.215  0.3635  0.1047  0.7880
  490MOL0     C67524   3.404   8.217   3.281  0.7064  0.1318  0.0658
  490MOL0     C67525   3.398   8.327   3.391  1.0968  0.4915 -0.0894
  490MOL0     C67526   3.258   8.356   3.438  0.1570  0.4239 -0.0810
  490MOL0    Cl67527   3.189   8.209   3.522 -0.6491 -0.0694  0.4185
  490MOL0     C67528   3.133   8.201   2.614 -0.1782  0.7746 -0.4394
  490MOL0     C67529   3.017   8.158   2.543 -0.5655 -0.5332 -0.2778
  490MOL0     O67530   2.821   7.923   2.648  0.1132  0.6844  0.1413
  490MOL0     C67531   2.658   7.892   2.330 -1.0517 -0.1222  0.7812
  490MOL0     C67532   2.538   7.863   2.273 -0.3769 -0.3788  0.2614
  490MOL0     N67533   2.018   7.515   2.022 -0.6523 -0.1201  0.0915
  490MOL0     N67534   1.941   7.421   1.991 -0.2035 -0.5385  0.4737
  490MOL0     C67535   1.193   7.955   2.388  0.5230  1.1698 -1.0669
  490MOL0     C67536   1.111   8.078   2.374 -0.4153  0.4310 -0.0688
  490MOL0     C67537   0.903   8.402   2.138 -0.0865 -0.5170 -0.5479
  490MOL0     C67538   1.013   8.476   2.074  0.4270  0.7815  0.2436
  490MOL0     C67539   0.983   8.588   1.992 -0.4257 -0.2999  0.8386
  490MOL0     C67540   0.852   8.628   1.976  0.3921  0.6357  0.7670
  490MOL0     O67541   0.829   8.733   1.891 -0.8037  0.6776 -0.2183
  490MOL0     C67542   0.735   8.826   1.944 -0.3103 -0.5146 -0.0026
  490MOL0     C67543   0.789   8.971   1.920 -0.6106  1.0848 -0.4082
  490MOL0     C67544   0.897   9.020   2.027  0.4681  0.6695  0.2852
  490MOL0     C67545   0.926   9.162   1.988 -0.2246  1.1323 -0.1530
  490MOL0     C67546   0.815   9.249   2.021 -0.0559 -0.0800 -0.7967
  490MOL0     C67547   0.710   9.300   2.054 -0.7431  0.1105 -0.0266
  490MOL0     C67548   0.740   8.560   2.045  0.1295 -0.8059 -0.0559
  490MOL0     C67549   0.770   8.444   2.119  0.0321  0.2491  0.0919
  490MOL0     C67550   0.638   8.387   2.188 -0.2145  0.3103  0.7055
  490MOL0     H67551   1.292   8.222   2.130  0.9718 -1.0747 -0.9541
  490MOL0     H67552   1.427   8.023   2.161  0.3512  2.0719  1.2176
  490MOL0     H67553   1.362   7.834   2.551 -2.1979 -1.0217 -0.2884
  490MOL0     H67554   1.505   7.752   2.498 -0.3973 -1.4679  3.1631
  490MOL0     H67555   1.348   7.571   2.534 -0.2649 -1.2555 -1.6360
  490MOL0     H67556   1.221   7.639   2.441 -1.3470 -1.5213  3.3230
  490MOL0     H67557   1.358   7.623   2.230  3.8736  2.0623 -0.7296
  490MOL0     H67558   1.497   7.591   2.321  0.3031  0.8368  0.2952
  490MOL0     H67559   1.408   7.361   2.383 -0.3853  0.8999  0.7555
  490MOL0     H67560   1.261   7.390   2.296 -0.4254  1.3488  0.1819
  490MOL0     H67561   1.422   7.451   2.100  3.8167  1.0754 -0.6397
  490MOL0     H67562   1.374   7.280   2.150  1.2627 -1.2238 -0.0788
  490MOL0     H67563   1.635   7.412   2.238 -0.2901 -0.3467  1.3379
  490MOL0     H67564   1.574   7.252   2.278  0.5647  0.5951  0.6789
  490MOL0     H67565   1.595   7.198   2.031  2.6622 -1.5556 -1.8415
  490MOL0     H67566   1.737   7.219   2.126 -1.2532 -1.4774 -0.2545
  490MOL0     H67567   1.698   7.341   1.888 -4.3411 -0.5856 -0.3791
  490MOL0     H67568   1.617   7.467   1.982  0.3812  0.2830 -0.1907
  490MOL0     H67569   1.743   7.630   2.149  1.7268  0.5947  2.0223
  490MOL0     H67570   1.926   7.815   2.125  0.4827  0.2511  1.3538
  490MOL0     H67571   2.092   7.745   2.086  0.0684  0.6814  1.0583
  490MOL0     H67572   1.946   7.720   2.361  0.7329  1.9196  0.8066
  490MOL0     H67573   2.087   7.634   2.309 -0.9037  0.0298  1.7218
  490MOL0     H67574   2.067   7.933   2.366  0.7651  0.3761 -1.0344
  490MOL0     H67575   2.153   7.803   2.450  0.1730  0.9569  0.2391
  490MOL0     H67576   2.207   7.895   2.155  3.2230 -4.6386 -2.4055
  490MOL0     H67577   2.288   7.962   2.291  1.4403 -1.8913 -1.2173
  490MOL0     H67578   2.398   7.673   2.509  0.6217 -0.1260  1.4480
  490MOL0     H67579   2.577   7.775   2.743  2.1296  1.5069 -0.2533
  490MOL0     H67580   2.715   7.676   2.682 -0.1953 -1.1235 -2.4144
  490MOL0     H67581   2.552   7.612   2.684  1.2782 -0.4644 -1.3242
  490MOL0     H67582   3.098   7.839   2.463  2.8278 -2.1883  1.3852
  490MOL0     H67583   3.324   7.922   2.587  3.6872  3.4213 -3.1919
  490MOL0     H67584   3.319   8.307   2.790  1.8621 -1.4222 -3.0849
  490MOL0     H67585   3.265   8.165   2.889  0.3046 -1.6235  0.5179
  490MOL0     H67586   3.506   8.114   2.946  1.0367  0.7275  1.2801
  490MOL0     H67587   3.556   8.240   2.824 -0.3573  2.1983  0.1505
  490MOL0     H67588   3.370   8.337   3.032  0.8507  0.0068  1.8661
  490MOL0     H67589   3.507   8.416   2.940  3.5284 -0.7753 -1.0412
  490MOL0     H67590   3.565   8.423   3.169 -1.9665 -0.7765  0.0382
  490MOL0     H67591   3.678   8.319   3.069  0.3339 -2.6029 -0.2035
  490MOL0     H67592   3.562   8.131   3.153  0.9860  1.1961 -0.6908
  490MOL0     H67593   3.615   8.217   3.300  0.2001 -1.0560  0.8993
  490MOL0     H67594   3.376   8.123   3.329 -1.3803 -0.2425 -1.7176
  490MOL0     H67595   3.335   8.231   3.197  1.3982  3.1336 -0.1156
  490MOL0     H67596   3.433   8.422   3.350  0.2530  1.3368  1.0643
  490MOL0     H67597   3.459   8.296   3.475 -1.1633 -0.8630  1.1528
  490MOL0     H67598   3.199   8.390   3.352  2.8063 -1.2937 -2.7676
  490MOL0     H67599   3.261   8.433   3.516  0.5814 -1.7683  2.2270
  490MOL0     H67600   3.160   8.300   2.649 -0.4315  0.8693 -0.5032
  490MOL0     H67601   2.927   8.216   2.522 -0.5699 -1.1609 -2.2182
  490MOL0     H67602   2.728   7.951   2.272 -1.2550 -0.9972 -0.3896
  490MOL0     H67603   2.515   7.899   2.173  0.3357  0.6049  0.4348
  490MOL0     H67604   1.160   7.877   2.456  5.3418 -0.2131  0.0511
  490MOL0     H67605   1.020   8.099   2.428 -0.5477  3.5477 -1.2961
  490MOL0     H67606   1.119   8.453   2.082  0.1109 -0.4269  1.3548
  490MOL0     H67607   1.061   8.640   1.937  0.1927  2.1680  3.7860
  490MOL0     H67608   0.635   8.817   1.902 -1.4985  5.0537  0.8842
  490MOL0     H67609   0.725   8.810   2.052 -0.7761  0.0277  0.0345
  490MOL0     H67610   0.705   9.041   1.917 -0.1184  1.7072  0.1147
  490MOL0     H67611   0.837   8.970   1.822  0.3988 -2.5156 -0.0162
  490MOL0     H67612   0.858   9.021   2.129 -0.6688 -2.8294  0.0562
  490MOL0     H67613   0.980   8.950   2.012 -1.6462 -2.2110  1.2023
  490MOL0     H67614   0.974   9.170   1.890 -0.5450 -3.0169 -0.8406
  490MOL0     H67615   1.004   9.191   2.059 -1.5260 -1.5176  2.6142
  490MOL0     H67616   0.624   9.358   2.082  0.1077 -0.1407  3.5047
  490MOL0     H67617   0.636   8.588   2.031  0.2674 -1.3194 -2.5176
  490MOL0     H67618   0.596   8.462   2.256 -0.6837 -0.6457  1.5037
  490MOL0     H67619   0.562   8.367   2.112 -0.8927  1.4833  1.0600
  490MOL0     H67620   0.641   8.289   2.237 -3.6141  0.4791  1.5063
  491MOL0     O67621   8.205   4.065   6.651  0.0065  1.1086 -0.5910
  491MOL0     C67622   8.262   4.106   6.750  1.2586  0.1093  0.1505
  491MOL0     O67623   8.379   4.046   6.784  0.2694 -0.7896 -0.0408
  491MOL0     C67624   8.414   3.924   6.742  0.6038 -0.7309  0.1940
  491MOL0     C67625   8.547   3.907   6.731 -0.2158 -0.3105  0.9516
  491MOL0     C67626   8.603   3.782   6.697  0.4661 -0.3477 -0.5547
  491MOL0     C67627   8.519   3.671   6.677  0.0740  0.4071 -0.3564
  491MOL0     O67628   8.552   3.542   6.640  0.0684 -0.3899  0.8278
  491MOL0     C67629   8.662   3.495   6.714 -0.1603  0.0091 -0.2028
  491MOL0     C67630   8.795   3.521   6.637  0.0389  0.5669  0.9119
  491MOL0     C67631   8.780   3.571   6.491 -0.5759 -0.0685 -0.2196
  491MOL0     C67632   8.916   3.625   6.444 -0.0984 -0.4942 -0.5505
  491MOL0     C67633   9.031   3.526   6.462 -0.1591 -0.7238  0.8459
  491MOL0     C67634   9.159   3.588   6.419 -0.1290  0.7224  0.3959
  491MOL0     C67635   9.167   3.595   6.260  0.0914  0.1535  0.1096
  491MOL0     C67636   9.293   3.666   6.208  0.3224 -0.2804 -0.1278
  491MOL0     N67637   9.417   3.625   6.265 -0.9847 -0.3494  0.0666
  491MOL0     C67638   9.506   3.696   6.346  0.0519 -0.3658 -0.4157
  491MOL0     C67639   9.623   3.644   6.315 -0.3721  0.3399  1.1185
  491MOL0     C67640   9.758   3.705   6.363 -0.8186 -0.2867 -0.1183
  491MOL0     C67641   9.782   3.852   6.316 -0.1278 -0.0615  0.8132
  491MOL0     C67642   9.912   3.907   6.384 -0.1603  1.4458  0.1780
  491MOL0     C67643   9.939   4.055   6.370  0.6493  0.2419  0.6929
  491MOL0     O67644  10.016   4.076   6.246  0.5390  0.7631 -0.1055
  491MOL0     C67645  10.066   4.205   6.229  0.9625  0.6138  0.0077
  491MOL0     C67646  10.197   4.218   6.185  0.4747  0.1460  0.6388
  491MOL0     C67647  10.257   4.350   6.162  0.7439  0.3241 -0.1106
  491MOL0     C67648  10.405   4.345   6.127 -0.6038  0.3573 -0.3787
  491MOL0     C67649  10.176   4.465   6.189 -0.9922  0.3838  0.1258
  491MOL0     C67650  10.231   4.609   6.177 -0.5175  0.6819 -0.7024
  491MOL0     O67651  10.342   4.630   6.103 -0.0181  0.0757 -0.3720
  491MOL0     C67652  10.381   4.757   6.069 -0.0058  0.0859  0.3112
  491MOL0     C67653  10.514   4.779   6.050 -0.0840 -0.1915  0.2996
  491MOL0     C67654  10.557   4.900   5.998 -1.3882  0.1443 -0.4301
  491MOL0     C67655  10.473   5.010   5.971 -0.0484 -0.1904 -0.5929
  491MOL0     O67656  10.493   5.145   5.941  0.1111 -0.5413 -0.0951
  491MOL0     C67657  10.621   5.200   5.976 -1.1118  0.9211 -0.5860
  491MOL0     C67658  10.670   5.331   5.910 -0.2839  0.6522  0.6663
  491MOL0     C67659  10.586   5.453   5.951 -0.4416 -0.4199  0.2253
  491MOL0     C67660  10.602   5.490   6.094  0.1834 -0.8844 -0.2971
  491MOL0     C67661  10.717   5.595   6.118  0.8815 -0.2631 -0.5570
  491MOL0     C67662  10.675   5.728   6.188 -0.3580 -0.5753  0.4488
  491MOL0     C67663  10.671   5.707   6.336  0.4328  0.1405  0.1757
  491MOL0     C67664  10.602   5.825   6.418 -0.1886  0.9492  0.2934
  491MOL0    Cl67665  10.731   5.939   6.471  0.1251 -0.1501 -0.4132
  491MOL0     C67666  10.336   4.978   5.991  0.1609  0.3155 -0.0410
  491MOL0     C67667  10.287   4.849   6.035 -0.2030 -0.8601  0.7408
  491MOL0     O67668  10.175   4.688   6.250 -0.5046 -0.6118 -1.2177
  491MOL0     C67669  10.045   4.448   6.225  0.4199  0.6112 -0.1114
  491MOL0     C67670   9.986   4.320   6.249 -0.4293 -0.1637  0.4157
  491MOL0     N67671   9.606   3.523   6.247  0.0742 -0.9571 -0.4414
  491MOL0     N67672   9.479   3.509   6.226 -0.4154  0.1594 -0.2568
  491MOL0     C67673   8.384   3.689   6.693  0.2679 -0.2854  0.3496
  491MOL0     C67674   8.331   3.816   6.728  0.6002 -0.5496  0.0182
  491MOL0     C67675   8.227   4.243   6.796  0.3214  0.0745  0.8146
  491MOL0     C67676   8.094   4.281   6.794  0.1407 -0.2834 -0.2317
  491MOL0     C67677   8.049   4.406   6.847  0.2758  0.8865 -0.2506
  491MOL0     C67678   8.138   4.486   6.923  1.5331  0.1616  0.4154
  491MOL0     O67679   8.099   4.600   6.983  0.3154  0.5227  0.2871
  491MOL0     C67680   8.003   4.580   7.093  0.2590 -0.0988  1.3113
  491MOL0     C67681   7.891   4.673   7.096 -0.9133 -1.5398  1.4148
  491MOL0     C67682   7.938   4.804   7.165  0.5764 -0.0483 -0.3994
  491MOL0     C67683   7.832   4.921   7.151  0.7743  0.1494  0.8240
  491MOL0     C67684   7.730   4.933   7.251 -0.0539  0.1762  0.0372
  491MOL0     C67685   7.643   4.970   7.325 -0.4811  0.2275  0.5699
  491MOL0     C67686   8.271   4.442   6.927  0.4246 -0.1159  1.4811
  491MOL0     C67687   8.319   4.332   6.844  0.5944  0.2736  0.2711
  491MOL0     C67688   8.469   4.309   6.856  0.7981  0.0786  0.0018
  491MOL0     H67689   8.623   3.979   6.759  0.2657 -0.6888  0.6321
  491MOL0     H67690   8.709   3.777   6.675  0.0713  0.4374 -2.9443
  491MOL0     H67691   8.666   3.389   6.743  3.2062 -0.3661 -1.5394
  491MOL0     H67692   8.673   3.546   6.811  1.4244  1.0927 -0.8997
  491MOL0     H67693   8.848   3.603   6.685  1.1926 -0.3124  1.1882
  491MOL0     H67694   8.851   3.427   6.634 -1.1533 -0.1601 -1.0146
  491MOL0     H67695   8.758   3.488   6.423  1.6481 -0.9616  0.0824
  491MOL0     H67696   8.710   3.653   6.470 -2.1467 -0.7868  1.8511
  491MOL0     H67697   8.895   3.646   6.339 -0.2454  3.6189  0.1106
  491MOL0     H67698   8.922   3.728   6.481  0.9711  0.1750 -2.4529
  491MOL0     H67699   9.015   3.430   6.411 -2.2513  1.0251 -2.1651
  491MOL0     H67700   9.033   3.498   6.568 -0.4632 -1.8382  0.5728
  491MOL0     H67701   9.178   3.687   6.462  4.1628  0.6292 -0.8291
  491MOL0     H67702   9.237   3.524   6.460 -0.8138 -2.8838 -3.2191
  491MOL0     H67703   9.091   3.659   6.215 -1.0641 -1.7477 -0.7775
  491MOL0     H67704   9.164   3.497   6.210 -0.0597  0.6802 -0.9318
  491MOL0     H67705   9.306   3.639   6.102  1.7331 -0.7326  0.1432
  491MOL0     H67706   9.288   3.772   6.231  1.1684 -0.9477  3.7775
  491MOL0     H67707   9.485   3.778   6.413  0.5323 -1.5250  1.2090
  491MOL0     H67708   9.832   3.632   6.330  1.7734  1.2241  1.9376
  491MOL0     H67709   9.755   3.703   6.472  3.0224 -1.6758  0.1086
  491MOL0     H67710   9.813   3.841   6.211  2.1351 -0.8672  1.5166
  491MOL0     H67711   9.693   3.916   6.317 -3.3897 -3.7145 -4.3896
  491MOL0     H67712   9.904   3.894   6.492  0.0960 -0.5775 -0.0032
  491MOL0     H67713   9.998   3.847   6.353 -3.2514 -2.0230 -2.6669
  491MOL0     H67714   9.840   4.102   6.364  0.4299 -0.2998 -0.2547
  491MOL0     H67715   9.999   4.091   6.454  1.4320 -0.7252  0.5622
  491MOL0     H67716  10.261   4.132   6.170 -2.1633 -2.2238  2.0829
  491MOL0     H67717  10.457   4.417   6.191 -0.7128  2.5027 -2.5609
  491MOL0     H67718  10.418   4.374   6.022 -1.6712  0.2389 -0.5540
  491MOL0     H67719  10.467   4.255   6.137  1.0519  1.5630  0.8256
  491MOL0     H67720  10.579   4.693   6.062 -1.7565 -1.3690  1.4629
  491MOL0     H67721  10.664   4.917   5.992 -1.5512  1.4739  0.1394
  491MOL0     H67722  10.626   5.210   6.084 -0.1955  2.8916 -0.7586
  491MOL0     H67723  10.698   5.131   5.940  2.8325  2.8706  3.3084
  491MOL0     H67724  10.775   5.347   5.936  0.5688 -2.3718 -0.5242
  491MOL0     H67725  10.667   5.310   5.803  1.0353  1.3279  0.4780
  491MOL0     H67726  10.481   5.425   5.939 -0.6505  0.5067 -0.2310
  491MOL0     H67727  10.609   5.538   5.886  1.7843 -0.5914  0.7036
  491MOL0     H67728  10.623   5.404   6.158 -0.3223  0.5286  1.8914
  491MOL0     H67729  10.505   5.535   6.116  1.1595  1.4088 -0.4005
  491MOL0     H67730  10.797   5.547   6.175  2.2592  1.2780 -1.1067
  491MOL0     H67731  10.766   5.621   6.023  0.8052  3.3731  0.2551
  491MOL0     H67732  10.579   5.771   6.156  0.4952  3.3349  2.4668
  491MOL0     H67733  10.745   5.811   6.175 -3.0582  2.4331  3.0956
  491MOL0     H67734  10.770   5.680   6.374 -0.2887 -1.9116  0.7086
  491MOL0     H67735  10.603   5.624   6.359  1.5389 -0.8514 -0.0353
  491MOL0     H67736  10.554   5.800   6.514 -0.3607 -2.9578 -0.6699
  491MOL0     H67737  10.523   5.868   6.355 -1.0140 -1.6786 -0.5728
  491MOL0     H67738  10.263   5.058   5.985  2.4248  2.6277  1.1911
  491MOL0     H67739  10.182   4.822   6.036 -0.8046  1.2904  1.2854
  491MOL0     H67740   9.985   4.539   6.217 -0.7446  0.4889  4.3694
  491MOL0     H67741   9.881   4.309   6.272 -1.3014  0.6780 -2.7041
  491MOL0     H67742   8.319   3.604   6.677  1.7687 -1.3221 -0.5289
  491MOL0     H67743   8.224   3.826   6.737  0.7407 -0.6239  2.0921
  491MOL0     H67744   8.022   4.211   6.752 -0.1317 -0.8752  1.1491
  491MOL0     H67745   7.943   4.416   6.827  0.6706 -0.8419 -3.8694
  491MOL0     H67746   7.948   4.486   7.081  0.4794 -0.2458  1.4339
  491MOL0     H67747   8.057   4.582   7.188 -0.3846  1.2745  1.6704
  491MOL0     H67748   7.802   4.641   7.151 -2.4790 -0.6459 -0.5053
  491MOL0     H67749   7.866   4.697   6.992  5.0787 -2.0708 -0.5719
  491MOL0     H67750   7.965   4.800   7.271 -3.0281  1.4395  0.7278
  491MOL0     H67751   8.026   4.830   7.105  0.9578  1.3832  0.7238
  491MOL0     H67752   7.786   4.903   7.054  1.4323 -2.6842  0.9466
  491MOL0     H67753   7.894   5.010   7.163 -1.1950  1.2365  4.0417
  491MOL0     H67754   7.576   5.016   7.395  0.6088  1.1498  1.0506
  491MOL0     H67755   8.342   4.497   6.988  0.5363 -0.4375  1.6474
  491MOL0     H67756   8.514   4.292   6.758 -1.0846  0.8698 -1.0589
  491MOL0     H67757   8.518   4.399   6.895  0.8983  0.5528 -1.1803
  491MOL0     H67758   8.473   4.217   6.914 -0.8818  0.7964  1.3733
  492MOL0     O67759   8.222   1.802  10.906 -0.2966  0.1069 -0.7039
  492MOL0     C67760   8.283   1.880  10.833  1.5567 -0.1611  0.6920
  492MOL0     O67761   8.397   1.953  10.871  1.2150 -0.7958  0.1000
  492MOL0     C67762   8.456   1.955  10.987  0.5031 -0.1036 -0.6314
  492MOL0     C67763   8.585   2.000  10.988 -1.5775 -0.0962  0.2242
  492MOL0     C67764   8.649   2.005  11.113 -0.6558 -0.1461 -0.1564
  492MOL0     C67765   8.580   2.001  11.236  1.1527 -0.2431  0.4707
  492MOL0     O67766   8.649   2.049  11.342  0.5868 -0.8787 -0.2441
  492MOL0     C67767   8.577   2.084  11.466 -0.2123 -0.9408  0.0548
  492MOL0     C67768   8.498   2.218  11.465  0.6193 -0.0879  0.6343
  492MOL0     C67769   8.453   2.259  11.608 -0.6177  0.5047 -0.0208
  492MOL0     C67770   8.343   2.170  11.657 -0.1409  0.0158  0.2436
  492MOL0     C67771   8.204   2.204  11.603 -1.1930  0.1189  0.1130
  492MOL0     C67772   8.107   2.087  11.632  0.1889  0.5654 -0.4060
  492MOL0     C67773   7.983   2.090  11.539 -0.9712 -0.4751 -0.8080
  492MOL0     C67774   7.898   2.216  11.574  1.2139  0.0605 -0.1322
  492MOL0     N67775   7.797   2.243  11.469  0.0420  0.4871 -0.1122
  492MOL0     C67776   7.827   2.249  11.332 -0.2081  0.6926 -0.0866
  492MOL0     C67777   7.706   2.269  11.271  0.4074  0.7414  0.5648
  492MOL0     C67778   7.677   2.265  11.118  0.5224  0.1030  0.4551
  492MOL0     C67779   7.674   2.118  11.067  0.8410 -0.1787 -0.0823
  492MOL0     C67780   7.562   2.054  11.136  1.3109 -0.4843 -0.0520
  492MOL0     C67781   7.500   1.939  11.063 -0.8999 -0.6186 -0.2146
  492MOL0     O67782   7.593   1.839  11.019 -0.4858  0.2117 -0.3366
  492MOL0     C67783   7.650   1.743  11.098 -0.5222  0.1760 -0.2928
  492MOL0     C67784   7.755   1.671  11.055 -0.3599 -0.0721 -0.5614
  492MOL0     C67785   7.813   1.575  11.141 -0.5104 -0.4133  0.1038
  492MOL0     C67786   7.947   1.515  11.095 -0.6411 -1.2450  0.2054
  492MOL0     C67787   7.755   1.535  11.272  0.4066  0.6925  0.6178
  492MOL0     C67788   7.809   1.421  11.360  0.1468  1.0441 -0.6200
  492MOL0     O67789   7.727   1.395  11.465  0.3176  0.5549 -0.8622
  492MOL0     C67790   7.773   1.295  11.551 -0.1624  0.0866 -0.4903
  492MOL0     C67791   7.872   1.316  11.651  1.0656 -0.9073 -0.4580
  492MOL0     C67792   7.884   1.227  11.756 -0.9070 -0.3522 -0.0563
  492MOL0     C67793   7.809   1.107  11.758  0.6994  0.6343 -0.2264
  492MOL0     O67794   7.839   1.016  11.864 -0.8784  0.1241  0.9187
  492MOL0     C67795   7.728   0.939  11.899 -0.1453  0.5985 -0.5509
  492MOL0     C67796   7.774   0.853  12.010  0.1552  1.0051 -0.2466
  492MOL0     C67797   7.659   0.769  12.047 -0.2915 -0.1552 -0.9546
  492MOL0     C67798   7.686   0.665  12.161  0.1308 -1.3115 -0.3417
  492MOL0     C67799   7.554   0.588  12.195 -1.0571  0.3424 -0.0009
  492MOL0     C67800   7.571   0.466  12.295  0.2870 -0.5134  0.0636
  492MOL0     C67801   7.425   0.419  12.325  0.2970  0.6111  0.4094
  492MOL0     C67802   7.407   0.346  12.456  0.2748  0.0995 -0.5125
  492MOL0    Cl67803   7.542   0.235  12.473 -0.2065 -0.0799 -0.5818
  492MOL0     C67804   7.728   1.076  11.641  0.6627  0.4665 -0.0355
  492MOL0     C67805   7.705   1.170  11.546 -0.2802 -1.3517 -0.9919
  492MOL0     O67806   7.906   1.361  11.331 -0.2865  0.1685  0.2344
  492MOL0     C67807   7.631   1.588  11.291 -0.4279  0.8972  0.1865
  492MOL0     C67808   7.582   1.702  11.219 -0.4076  0.1088 -0.1428
  492MOL0     N67809   7.608   2.288  11.364 -0.5923 -0.3994 -0.2369
  492MOL0     N67810   7.662   2.281  11.485 -0.0788 -0.0614 -0.1258
  492MOL0     C67811   8.442   1.977  11.225 -0.3465  0.7791  0.6983
  492MOL0     C67812   8.383   1.944  11.107  0.6671  0.0916 -0.0147
  492MOL0     C67813   8.253   1.878  10.686  0.4457 -0.8679 -0.0778
  492MOL0     C67814   8.335   1.960  10.606  0.4292  0.3776 -0.3430
  492MOL0     C67815   8.313   1.969  10.469 -0.1779  0.2522  0.5716
  492MOL0     C67816   8.219   1.888  10.410  0.3753  0.0036  0.2022
  492MOL0     O67817   8.190   1.934  10.278  0.1734 -0.3099 -0.0687
  492MOL0     C67818   8.063   1.895  10.219  1.2350  0.0449  0.5626
  492MOL0     C67819   8.047   1.954  10.076  0.5600  0.5451 -0.3181
  492MOL0     C67820   8.171   1.925  10.002 -1.0534  0.3654  0.5128
  492MOL0     C67821   8.158   1.962   9.849 -0.3235 -0.8579 -0.2148
  492MOL0     C67822   8.124   2.104   9.837  0.4977  0.3022  0.2438
  492MOL0     C67823   8.106   2.220   9.802 -0.5862 -0.0298 -0.6038
  492MOL0     C67824   8.146   1.794  10.483  0.0205  0.1494  0.8914
  492MOL0     C67825   8.159   1.789  10.625 -0.2106  0.6043 -0.3250
  492MOL0     C67826   8.058   1.687  10.697 -1.2379  0.2830  0.9881
  492MOL0     H67827   8.639   2.032  10.900 -2.3927  0.6884 -0.0041
  492MOL0     H67828   8.751   2.040  11.099 -1.5343  1.3873 -3.9503
  492MOL0     H67829   8.651   2.089  11.546 -2.6877 -0.5930  2.4965
  492MOL0     H67830   8.514   1.998  11.489  0.2855 -1.8958 -1.9541
  492MOL0     H67831   8.562   2.304  11.443  0.2806  0.8783  3.1406
  492MOL0     H67832   8.415   2.201  11.396  1.2965 -2.4942  0.3070
  492MOL0     H67833   8.544   2.264  11.669  0.5976 -0.9682 -1.5847
  492MOL0     H67834   8.431   2.366  11.607 -2.9231  0.0723 -0.3021
  492MOL0     H67835   8.363   2.065  11.636 -2.8966  0.0301 -3.4796
  492MOL0     H67836   8.336   2.184  11.765 -0.2859  2.2703 -0.0081
  492MOL0     H67837   8.214   2.217  11.495  1.7008  3.4548  0.6040
  492MOL0     H67838   8.174   2.304  11.637  1.9939  1.4741 -0.6969
  492MOL0     H67839   8.162   1.993  11.634  0.3181  0.6145  2.6865
  492MOL0     H67840   8.060   2.092  11.731  1.1322 -0.3065  0.1044
  492MOL0     H67841   7.925   1.998  11.549 -1.0884 -0.2525  0.7948
  492MOL0     H67842   8.011   2.090  11.433 -0.2486 -1.6867 -0.6414
  492MOL0     H67843   7.851   2.226  11.672 -0.9886  1.3053 -1.2404
  492MOL0     H67844   7.965   2.303  11.564 -0.0532  1.1094  0.2543
  492MOL0     H67845   7.924   2.238  11.286  0.6506 -3.0612  2.1545
  492MOL0     H67846   7.758   2.315  11.065  2.0206 -2.3110  0.2899
  492MOL0     H67847   7.583   2.319  11.104 -0.8720 -1.4985  2.7795
  492MOL0     H67848   7.667   2.102  10.959  2.0249  2.5300 -0.6529
  492MOL0     H67849   7.773   2.081  11.096  0.6738 -0.3383  0.2766
  492MOL0     H67850   7.579   2.032  11.242  1.4745 -1.8738 -0.3398
  492MOL0     H67851   7.479   2.124  11.152  1.4146 -0.3434 -0.1259
  492MOL0     H67852   7.421   1.899  11.127 -0.2036  1.1088  1.8417
  492MOL0     H67853   7.460   1.980  10.970  1.0143 -2.4413 -1.9511
  492MOL0     H67854   7.808   1.717  10.973 -0.6352  1.1815 -0.0649
  492MOL0     H67855   7.955   1.529  10.987  1.9034 -5.0623 -0.2794
  492MOL0     H67856   7.964   1.407  11.100 -1.3398 -1.6125 -3.1262
  492MOL0     H67857   8.028   1.565  11.148  0.8323 -0.5845 -2.5141
  492MOL0     H67858   7.915   1.416  11.646 -2.2602  0.7170  0.3004
  492MOL0     H67859   7.955   1.249  11.836  2.9561  0.5638 -3.3700
  492MOL0     H67860   7.648   1.009  11.924 -0.2875 -0.8011  3.6221
  492MOL0     H67861   7.719   0.868  11.816 -2.4118  1.2675 -0.9323
  492MOL0     H67862   7.856   0.791  11.970  0.3136  1.3686 -0.4931
  492MOL0     H67863   7.813   0.911  12.094 -0.5473  2.9903 -1.2130
  492MOL0     H67864   7.638   0.718  11.953  0.3669  1.7031 -2.1761
  492MOL0     H67865   7.567   0.823  12.072  0.8779  1.5642 -0.2190
  492MOL0     H67866   7.722   0.724  12.245  0.6769 -2.2027  0.0658
  492MOL0     H67867   7.772   0.600  12.139  2.8538  1.5577  1.0654
  492MOL0     H67868   7.489   0.661  12.243  1.4483  3.6236 -1.2405
  492MOL0     H67869   7.513   0.552  12.100  1.4684 -0.1356 -0.9900
  492MOL0     H67870   7.621   0.483  12.391 -1.5455 -2.9918  1.5654
  492MOL0     H67871   7.622   0.383  12.245  1.2705  0.9828 -1.5450
  492MOL0     H67872   7.395   0.349  12.246  0.6342  0.1263  0.7039
  492MOL0     H67873   7.354   0.502  12.317  0.3594  0.8965  2.4443
  492MOL0     H67874   7.315   0.290  12.474 -1.5198  3.2198  0.8400
  492MOL0     H67875   7.408   0.423  12.535  2.0830 -1.2427  0.8569
  492MOL0     H67876   7.669   0.986  11.628  0.4489  0.6839 -0.5714
  492MOL0     H67877   7.632   1.155  11.466  1.9410 -3.9572 -2.6985
  492MOL0     H67878   7.575   1.554  11.378 -1.0332  0.4311 -0.3674
  492MOL0     H67879   7.481   1.735  11.240 -0.4577  1.0568 -1.6716
  492MOL0     H67880   8.380   1.981  11.315 -2.3475  1.1544 -0.6406
  492MOL0     H67881   8.277   1.920  11.120  1.0212 -1.5668  0.0234
  492MOL0     H67882   8.410   2.030  10.639  2.1141  0.5999 -4.0934
  492MOL0     H67883   8.352   2.045  10.402 -0.9586 -2.6099 -3.5081
  492MOL0     H67884   8.063   1.787  10.201  1.1658  0.4873 -2.7335
  492MOL0     H67885   7.981   1.925  10.285  0.2724  1.8646 -1.3425
  492MOL0     H67886   8.042   2.063  10.090  3.0200  0.5506  1.2607
  492MOL0     H67887   7.959   1.921  10.021  1.1091  0.8331 -1.3941
  492MOL0     H67888   8.251   1.991  10.036  1.9166 -2.3807 -0.6068
  492MOL0     H67889   8.201   1.820  10.011 -1.1171  0.1032 -1.7526
  492MOL0     H67890   8.080   1.912   9.790  1.5668 -3.1025 -0.9250
  492MOL0     H67891   8.246   1.929   9.795 -0.3078  2.8592 -2.9050
  492MOL0     H67892   8.101   2.323   9.772  3.6159 -0.2370 -2.7143
  492MOL0     H67893   8.072   1.738  10.426 -1.7552  1.5212  1.7598
  492MOL0     H67894   8.111   1.626  10.771 -3.5599 -1.1687  1.5704
  492MOL0     H67895   7.968   1.741  10.729 -4.0449 -2.7176 -1.1150
  492MOL0     H67896   8.026   1.615  10.622  1.3719 -1.1903  1.1905
  493MOL0     O67897   0.547   8.874   4.023  0.3726  0.4916  0.0682
  493MOL0     C67898   0.491   8.889   3.913  0.2209 -0.7479  0.2328
  493MOL0     O67899   0.359   8.858   3.895 -0.2697 -0.3047 -0.4069
  493MOL0     C67900   0.286   8.814   4.005 -0.2999  0.1411 -0.9769
  493MOL0     C67901   0.184   8.897   4.054  0.1341  0.0638  0.6593
  493MOL0     C67902   0.110   8.862   4.170  0.6387  0.0925 -0.0299
  493MOL0     C67903   0.138   8.747   4.240  0.9612  0.3885  0.4192
  493MOL0     O67904   0.054   8.716   4.345  0.1067  0.0189 -0.2307
  493MOL0     C67905  -0.072   8.782   4.380 -0.1101  0.4219 -0.0476
  493MOL0     C67906  -0.121   8.719   4.509 -0.7239  0.2342  0.3057
  493MOL0     C67907  -0.230   8.813   4.573  0.1932  0.3438  0.4855
  493MOL0     C67908  -0.303   8.740   4.689  0.4028 -0.9347 -0.8517
  493MOL0     C67909  -0.398   8.843   4.761  0.2556  0.2653 -0.1210
  493MOL0     C67910  -0.471   8.790   4.889 -0.5205  0.2272 -0.1683
  493MOL0     C67911  -0.564   8.896   4.955  0.2345 -0.3824  0.7027
  493MOL0     C67912  -0.537   8.924   5.106  0.1046 -1.0218  0.2156
  493MOL0     N67913  -0.396   8.981   5.126 -0.0025 -0.3969  0.7115
  493MOL0     C67914  -0.329   9.079   5.048 -0.4060 -1.0653 -0.3320
  493MOL0     C67915  -0.211   9.110   5.109 -0.2669  0.1633 -0.4686
  493MOL0     C67916  -0.104   9.213   5.090 -0.2691  0.5391  0.4801
  493MOL0     C67917   0.019   9.159   5.010 -0.5292 -0.3759  0.1471
  493MOL0     C67918  -0.012   9.105   4.874  0.5189 -0.4435 -0.4090
  493MOL0     C67919  -0.022   8.954   4.867  0.8881  0.6013 -0.1961
  493MOL0     O67920   0.091   8.902   4.932 -1.0950  0.0001 -0.7764
  493MOL0     C67921   0.078   8.767   4.955 -0.2996 -0.1803  0.1935
  493MOL0     C67922   0.125   8.666   4.870 -0.6568  0.7128 -0.3136
  493MOL0     C67923   0.108   8.525   4.883 -0.1301 -0.7849 -1.3211
  493MOL0     C67924   0.176   8.443   4.768  0.3293  0.1609  0.3064
  493MOL0     C67925   0.043   8.480   4.997  0.3198  0.7474  0.0515
  493MOL0     C67926   0.014   8.339   5.048  0.2353 -1.6939  1.3323
  493MOL0     O67927  -0.047   8.309   5.158  0.6054 -0.1892 -0.1019
  493MOL0     C67928  -0.057   8.180   5.199 -1.2439 -0.6494 -0.3441
  493MOL0     C67929  -0.166   8.094   5.180  0.4412  1.6003 -0.4664
  493MOL0     C67930  -0.159   7.959   5.239 -0.2190 -0.4897  0.3412
  493MOL0     C67931  -0.043   7.917   5.308 -0.3911 -0.6954 -0.2766
  493MOL0     O67932  -0.038   7.798   5.371 -0.8295  0.0595  0.1857
  493MOL0     C67933  -0.153   7.712   5.369  0.6895  0.2645 -0.0474
  493MOL0     C67934  -0.130   7.575   5.430 -0.1920 -0.0115 -0.6778
  493MOL0     C67935  -0.016   7.508   5.350  0.6609  1.3088  0.8504
  493MOL0     C67936  -0.053   7.358   5.316  0.3893 -0.6856  0.2774
  493MOL0     C67937   0.047   7.294   5.229 -0.6287  0.8288  0.0479
  493MOL0     C67938   0.007   7.155   5.169 -0.7856  0.3698  0.1158
  493MOL0     C67939  -0.094   7.169   5.060 -0.2770 -1.1308  1.2826
  493MOL0     C67940  -0.131   7.029   4.998  0.6964 -0.2819 -0.0481
  493MOL0    Cl67941   0.014   6.955   4.922 -0.1873  0.0315  0.4730
  493MOL0     C67942   0.059   8.013   5.330  0.2202  0.3776  1.0750
  493MOL0     C67943   0.050   8.137   5.278  0.3703  0.3730  0.0182
  493MOL0     O67944   0.042   8.259   4.960 -0.5892 -0.5001  0.4942
  493MOL0     C67945   0.010   8.583   5.094 -0.1335  0.8707  0.2909
  493MOL0     C67946   0.015   8.721   5.074  0.0423 -0.5352  0.4832
  493MOL0     N67947  -0.202   9.021   5.218 -0.4931  0.3786 -0.6111
  493MOL0     N67948  -0.311   8.946   5.221 -0.2018 -0.7876  0.2787
  493MOL0     C67949   0.245   8.660   4.198  1.1370 -0.6021  0.0787
  493MOL0     C67950   0.312   8.703   4.081 -0.4847  1.1593 -0.3311
  493MOL0     C67951   0.566   8.944   3.798 -0.1808  0.6961  0.0206
  493MOL0     C67952   0.491   8.990   3.688  0.4111  0.7228  0.0405
  493MOL0     C67953   0.553   9.049   3.576  0.1460  0.3171  0.4708
  493MOL0     C67954   0.682   9.047   3.559 -0.4584  0.6840 -0.7715
  493MOL0     O67955   0.743   9.062   3.435 -0.8499 -0.3117 -0.5891
  493MOL0     C67956   0.686   9.081   3.309 -0.2694 -0.3350  0.7235
  493MOL0     C67957   0.784   9.007   3.203  0.3945  0.1956  0.1245
  493MOL0     C67958   0.756   9.051   3.055 -0.9880  0.4987 -0.4986
  493MOL0     C67959   0.870   9.010   2.968  0.1493  0.1742 -0.5775
  493MOL0     C67960   0.848   9.053   2.834  0.1066  0.8578  0.4110
  493MOL0     C67961   0.824   9.076   2.717  0.1325  0.2150  0.9512
  493MOL0     C67962   0.763   9.000   3.668 -0.7231  0.1135 -0.6688
  493MOL0     C67963   0.712   8.949   3.788  1.6661 -1.0077  0.2318
  493MOL0     C67964   0.806   8.905   3.898  0.9160 -0.4469  0.6828
  493MOL0     H67965   0.171   8.995   4.009 -0.6364 -0.3353 -0.0158
  493MOL0     H67966   0.036   8.935   4.200  1.4780  0.9450  0.0345
  493MOL0     H67967  -0.146   8.749   4.306 -3.9609 -0.5404  3.8452
  493MOL0     H67968  -0.057   8.890   4.379 -1.4111  0.7132 -3.3856
  493MOL0     H67969  -0.166   8.623   4.484  0.4394 -0.3405  0.3518
  493MOL0     H67970  -0.031   8.719   4.572  1.4956  1.6993 -2.6262
  493MOL0     H67971  -0.178   8.899   4.615 -1.8000  2.6778 -1.5552
  493MOL0     H67972  -0.303   8.846   4.498 -1.3083 -1.4679  1.0579
  493MOL0     H67973  -0.366   8.659   4.651  2.0109 -2.2572 -0.8265
  493MOL0     H67974  -0.231   8.697   4.760 -2.1746 -3.5455  0.3752
  493MOL0     H67975  -0.482   8.875   4.698 -0.4540 -0.5211  0.4159
  493MOL0     H67976  -0.347   8.935   4.792 -0.9085  1.4087 -1.4456
  493MOL0     H67977  -0.531   8.701   4.872  0.8093 -1.1532  1.8760
  493MOL0     H67978  -0.388   8.765   4.955 -0.1169 -0.4483 -0.9289
  493MOL0     H67979  -0.660   8.847   4.971  1.4548 -2.6650  1.4503
  493MOL0     H67980  -0.577   8.988   4.896  2.1123  0.0309  0.8739
  493MOL0     H67981  -0.603   8.998   5.152  1.5413  0.0425  0.6464
  493MOL0     H67982  -0.560   8.829   5.155  0.5169 -1.1216  0.2229
  493MOL0     H67983  -0.366   9.119   4.954  0.9413 -0.2337 -0.5387
  493MOL0     H67984  -0.063   9.243   5.187  4.6588 -0.0294 -1.1253
  493MOL0     H67985  -0.157   9.299   5.048 -3.5935 -1.2792  0.5814
  493MOL0     H67986   0.096   9.236   4.997 -1.5743  0.7272  0.2700
  493MOL0     H67987   0.065   9.093   5.083  0.9085  1.4893  1.0066
  493MOL0     H67988  -0.102   9.162   4.846  0.0467 -1.1511 -0.3735
  493MOL0     H67989   0.067   9.136   4.805  0.3415  2.2491  0.4865
  493MOL0     H67990  -0.108   8.915   4.923  1.0951 -0.1200 -0.3765
  493MOL0     H67991  -0.030   8.903   4.771  1.8969 -0.4731  0.2589
  493MOL0     H67992   0.187   8.705   4.790  1.4260 -0.1504  0.8066
  493MOL0     H67993   0.104   8.373   4.723 -2.3285  1.4964  2.2382
  493MOL0     H67994   0.264   8.387   4.802 -0.7581 -1.3104  0.7967
  493MOL0     H67995   0.210   8.504   4.684 -0.5074 -0.0981 -0.2297
  493MOL0     H67996  -0.261   8.126   5.140 -0.8543 -1.8164 -0.5038
  493MOL0     H67997  -0.247   7.898   5.221 -0.7241  0.6838 -1.3823
  493MOL0     H67998  -0.242   7.757   5.416  0.4705  1.6771 -1.7159
  493MOL0     H67999  -0.204   7.700   5.273 -1.4460  0.1368  1.0278
  493MOL0     H68000  -0.107   7.585   5.536  0.3377  1.5600 -0.9106
  493MOL0     H68001  -0.214   7.509   5.404  0.0585 -0.1339 -1.1919
  493MOL0     H68002   0.073   7.505   5.414  0.5229  1.9645  1.0802
  493MOL0     H68003   0.004   7.545   5.249  1.3676 -4.0024 -1.2331
  493MOL0     H68004  -0.145   7.352   5.256  0.4434 -1.6614  0.2789
  493MOL0     H68005  -0.068   7.304   5.410 -0.8573  2.1968  1.8522
  493MOL0     H68006   0.078   7.361   5.149  0.5558  0.2504 -0.0124
  493MOL0     H68007   0.133   7.271   5.293  0.3190 -1.9411 -2.0327
  493MOL0     H68008  -0.030   7.090   5.249 -1.5424  2.1248  1.2510
  493MOL0     H68009   0.095   7.101   5.132 -1.2216 -0.2393 -0.0574
  493MOL0     H68010  -0.046   7.218   4.974  1.2219 -1.3172  1.9718
  493MOL0     H68011  -0.180   7.229   5.091 -0.5123  1.9429 -4.0398
  493MOL0     H68012  -0.217   7.036   4.930  0.3607 -0.1240  0.3905
  493MOL0     H68013  -0.159   6.977   5.090  4.7528 -1.0796  0.9529
  493MOL0     H68014   0.148   7.989   5.386 -1.1185  1.2727  3.7523
  493MOL0     H68015   0.143   8.190   5.292  0.3666  0.0584  1.4066
  493MOL0     H68016  -0.056   8.561   5.177  0.8471 -2.3801  0.3449
  493MOL0     H68017  -0.036   8.799   5.131 -0.2234  1.0572 -1.7934
  493MOL0     H68018   0.273   8.568   4.248 -1.5680 -1.5138  0.0814
  493MOL0     H68019   0.387   8.639   4.036 -0.0672  2.2271 -1.2076
  493MOL0     H68020   0.384   9.003   3.687  0.2917  0.3609 -2.9852
  493MOL0     H68021   0.488   9.103   3.508 -0.2275  0.5191  0.9889
  493MOL0     H68022   0.583   9.045   3.307 -1.8582  3.4263  3.0101
  493MOL0     H68023   0.683   9.190   3.298  1.4573 -0.4662 -1.7933
  493MOL0     H68024   0.770   8.899   3.205  2.6352 -0.1758 -0.8115
  493MOL0     H68025   0.886   9.044   3.215  0.6540 -0.3579 -0.3510
  493MOL0     H68026   0.663   9.006   3.017  0.0011 -2.6319  0.5129
  493MOL0     H68027   0.757   9.160   3.065  1.0715  0.3924  1.2580
  493MOL0     H68028   0.868   8.901   2.954  2.2565 -0.3117  1.8889
  493MOL0     H68029   0.967   9.027   3.016 -0.9222 -4.0036  3.8807
  493MOL0     H68030   0.783   9.105   2.622 -0.2913 -0.1471  1.0174
  493MOL0     H68031   0.868   8.987   3.643 -0.7490  0.1956 -0.8301
  493MOL0     H68032   0.787   8.965   3.987  1.1900  1.0955 -0.2714
  493MOL0     H68033   0.784   8.800   3.921  5.1811 -1.0066  3.5742
  493MOL0     H68034   0.915   8.920   3.892  0.5565  2.3413 -0.3254
  494MOL0     O68035  10.634   2.965   6.823  0.0684 -0.0855 -0.2634
  494MOL0     C68036  10.730   2.899   6.779  0.1473  0.0862 -0.4619
  494MOL0     O68037  10.854   2.920   6.825 -0.1350 -0.7266 -0.6483
  494MOL0     C68038  10.884   2.943   6.954  0.8808 -0.6293 -0.4088
  494MOL0     C68039  10.807   2.880   7.056  1.4921 -0.2668 -0.2086
  494MOL0     C68040  10.838   2.913   7.187  1.1770 -0.0847 -0.0494
  494MOL0     C68041  10.942   3.010   7.222 -0.0009 -0.5990  0.2072
  494MOL0     O68042  10.983   3.045   7.346  0.4556 -0.2992 -0.0820
  494MOL0     C68043  10.951   2.963   7.459 -0.0961  0.0889 -0.0930
  494MOL0     C68044  11.029   3.017   7.577  0.9110 -0.2874 -0.1298
  494MOL0     C68045  11.175   2.985   7.583 -0.8233  0.7553  1.5156
  494MOL0     C68046  11.253   3.068   7.684  0.9410  0.0419  0.8005
  494MOL0     C68047  11.195   3.064   7.827 -0.6459 -0.2800 -0.4308
  494MOL0     C68048  11.248   3.181   7.913  0.0713  0.2015  0.1671
  494MOL0     C68049  11.264   3.121   8.057 -0.2598 -1.0226 -1.0002
  494MOL0     C68050  11.327   3.237   8.155 -0.0899  0.4051  0.1878
  494MOL0     N68051  11.345   3.198   8.295  0.1687  1.0087  0.0450
  494MOL0     C68052  11.462   3.199   8.358 -0.1006  0.8430  0.4757
  494MOL0     C68053  11.437   3.165   8.488  0.1781 -0.5443  0.4393
  494MOL0     C68054  11.525   3.171   8.605  0.0545 -0.1132  0.4303
  494MOL0     C68055  11.499   3.301   8.681 -0.0907  0.4292 -0.1736
  494MOL0     C68056  11.603   3.314   8.782 -0.0424  0.4141 -0.4296
  494MOL0     C68057  11.578   3.423   8.884  0.0100  0.1223 -0.8015
  494MOL0     O68058  11.666   3.400   8.994  0.2097  0.7980  0.6470
  494MOL0     C68059  11.743   3.500   9.048 -0.3544  0.2210 -1.3437
  494MOL0     C68060  11.872   3.461   9.097  0.2232  0.1757  0.1326
  494MOL0     C68061  11.974   3.554   9.118 -1.0700 -0.2104 -0.1489
  494MOL0     C68062  12.111   3.491   9.140 -0.5484  0.3309  0.2612
  494MOL0     C68063  11.948   3.693   9.090 -1.4356 -0.8588 -0.8115
  494MOL0     C68064  12.057   3.801   9.083  0.0955  0.4002 -0.1828
  494MOL0     O68065  12.187   3.748   9.087 -0.0749 -0.5720  0.6599
  494MOL0     C68066  12.297   3.827   9.064  0.9222  0.3253 -0.9824
  494MOL0     C68067  12.396   3.842   9.158 -0.2101 -0.7354 -0.5928
  494MOL0     C68068  12.507   3.927   9.146 -0.0395  0.6461 -0.6465
  494MOL0     C68069  12.530   3.991   9.028  0.5965 -0.5692  0.3361
  494MOL0     O68070  12.644   4.064   9.021 -0.6938  0.0833 -0.0863
  494MOL0     C68071  12.643   4.186   8.947 -0.3280 -1.3073 -0.8658
  494MOL0     C68072  12.552   4.283   9.018  1.1444  0.0465  0.2443
  494MOL0     C68073  12.560   4.432   8.984 -0.1600  0.4889  0.0394
  494MOL0     C68074  12.531   4.465   8.833 -0.1435  0.5786 -0.6581
  494MOL0     C68075  12.525   4.614   8.814 -0.1268  0.1725 -0.2941
  494MOL0     C68076  12.616   4.702   8.901  0.1951 -0.0379  0.5203
  494MOL0     C68077  12.627   4.852   8.863 -0.8129 -0.9691  0.1028
  494MOL0     C68078  12.643   4.888   8.716  0.2425 -0.1461  0.0799
  494MOL0    Cl68079  12.627   5.063   8.710 -0.4167  0.2246 -0.1982
  494MOL0     C68080  12.423   3.983   8.934 -0.3909 -0.4378  0.8145
  494MOL0     C68081  12.310   3.900   8.947 -0.2056  0.1744  0.2318
  494MOL0     O68082  12.024   3.921   9.070 -0.5865 -0.2587  0.2219
  494MOL0     C68083  11.811   3.726   9.052 -0.4408  0.2113  1.2726
  494MOL0     C68084  11.712   3.631   9.028 -0.3447 -0.3427 -0.0257
  494MOL0     N68085  11.308   3.142   8.505  0.1022 -1.3054 -0.2968
  494MOL0     N68086  11.255   3.171   8.390  0.3236 -0.3221  0.1911
  494MOL0     C68087  11.015   3.070   7.115  0.7020 -0.6736 -0.0193
  494MOL0     C68088  10.985   3.031   6.990 -0.6258  0.4670  0.0295
  494MOL0     C68089  10.717   2.822   6.654 -0.7364 -0.4600 -1.0673
  494MOL0     C68090  10.839   2.769   6.597 -0.2364 -0.9543 -0.5231
  494MOL0     C68091  10.837   2.687   6.487 -0.1429 -0.5338 -0.0788
  494MOL0     C68092  10.718   2.655   6.426  0.3128 -0.0385 -1.1714
  494MOL0     O68093  10.716   2.566   6.323  0.4405 -0.1366  0.2974
  494MOL0     C68094  10.587   2.501   6.293  0.1106  0.7445 -0.1096
  494MOL0     C68095  10.604   2.388   6.192 -0.2924 -1.0211  0.0818
  494MOL0     C68096  10.695   2.275   6.245 -1.1828 -1.0581  0.8423
  494MOL0     C68097  10.690   2.153   6.145  0.4368  0.3544  0.4587
  494MOL0     C68098  10.739   2.035   6.223 -0.7034 -1.0955 -0.0211
  494MOL0     C68099  10.777   1.956   6.303  0.0953  0.0627 -0.1168
  494MOL0     C68100  10.601   2.715   6.475 -0.3422  0.2544 -0.1859
  494MOL0     C68101  10.599   2.798   6.590 -0.5204  0.0311  0.0879
  494MOL0     C68102  10.467   2.868   6.611 -0.2808  0.4237 -0.5942
  494MOL0     H68103  10.726   2.811   7.038 -1.8961  2.8962  1.4329
  494MOL0     H68104  10.788   2.864   7.270 -0.0849 -0.8969 -1.2518
  494MOL0     H68105  10.987   2.860   7.448  0.9473  0.3210  0.9757
  494MOL0     H68106  10.845   2.956   7.488  0.1832  1.7350  1.5343
  494MOL0     H68107  11.015   3.125   7.585  0.6786 -0.3828  0.9389
  494MOL0     H68108  10.978   2.981   7.667 -2.0772  3.1089 -0.2551
  494MOL0     H68109  11.185   2.877   7.597 -3.1751 -0.0089 -1.4781
  494MOL0     H68110  11.227   3.013   7.490 -0.5419  0.4226  1.5725
  494MOL0     H68111  11.359   3.044   7.690  0.7843 -0.4506  1.8932
  494MOL0     H68112  11.236   3.171   7.650 -3.3991 -1.0438 -1.0299
  494MOL0     H68113  11.229   2.969   7.869  0.1564  0.3495  0.3857
  494MOL0     H68114  11.086   3.059   7.837 -0.3843 -1.0254  4.1377
  494MOL0     H68115  11.343   3.215   7.871 -0.8142 -0.7478 -2.8703
  494MOL0     H68116  11.178   3.266   7.912 -2.0291 -1.4113  1.0549
  494MOL0     H68117  11.318   3.026   8.062 -0.7794 -1.2885 -0.2936
  494MOL0     H68118  11.163   3.095   8.091  0.2177  1.5700  3.0868
  494MOL0     H68119  11.418   3.267   8.104 -0.9882  3.7987  0.2929
  494MOL0     H68120  11.258   3.321   8.172  1.1637  1.4690  0.1900
  494MOL0     H68121  11.558   3.211   8.310  0.7907  0.2806  2.0378
  494MOL0     H68122  11.632   3.160   8.584 -0.4705  0.5361 -3.1388
  494MOL0     H68123  11.506   3.092   8.678 -0.0099  2.2511  3.1783
  494MOL0     H68124  11.517   3.386   8.614 -2.9402  1.7873  0.6669
  494MOL0     H68125  11.399   3.307   8.724 -0.0420 -0.0759  0.0262
  494MOL0     H68126  11.610   3.218   8.834 -0.7768  1.1007  0.9903
  494MOL0     H68127  11.700   3.338   8.738 -0.0845  0.1293 -0.6791
  494MOL0     H68128  11.592   3.524   8.844 -1.6246  1.3798  1.5821
  494MOL0     H68129  11.478   3.403   8.921 -0.3200 -4.7941 -3.4916
  494MOL0     H68130  11.898   3.356   9.108 -0.2144 -0.0297 -0.7626
  494MOL0     H68131  12.149   3.536   9.232 -0.1621  1.6169 -0.4924
  494MOL0     H68132  12.189   3.487   9.064 -1.1423 -3.2365 -0.3482
  494MOL0     H68133  12.099   3.388   9.175 -4.0482  0.4428 -0.2583
  494MOL0     H68134  12.377   3.782   9.246 -3.6835  0.0259 -0.6934
  494MOL0     H68135  12.581   3.939   9.224  0.8228 -1.0543 -1.1408
  494MOL0     H68136  12.745   4.227   8.940  0.0359 -1.7663  1.1130
  494MOL0     H68137  12.608   4.180   8.844 -0.1744  1.6057 -1.1764
  494MOL0     H68138  12.452   4.245   8.999  2.3742 -3.0519 -0.6550
  494MOL0     H68139  12.572   4.279   9.125 -1.5376  0.1453  0.8125
  494MOL0     H68140  12.667   4.448   9.000 -0.1025  0.5137 -0.3401
  494MOL0     H68141  12.489   4.484   9.049 -0.8475 -0.6036  0.1901
  494MOL0     H68142  12.433   4.424   8.807 -0.0346 -1.3506  1.6416
  494MOL0     H68143  12.600   4.421   8.761  1.9350 -0.9091  2.0238
  494MOL0     H68144  12.543   4.629   8.707  1.2141 -2.3597 -0.5026
  494MOL0     H68145  12.424   4.653   8.825 -1.1811 -2.6483  1.1774
  494MOL0     H68146  12.722   4.678   8.888  0.4335  2.3738 -3.6556
  494MOL0     H68147  12.575   4.705   9.003  3.3826  3.0892  1.9237
  494MOL0     H68148  12.723   4.886   8.903 -0.4409  0.3680 -1.7967
  494MOL0     H68149  12.559   4.925   8.909  1.6591  3.0482 -1.9794
  494MOL0     H68150  12.558   4.848   8.660  1.6456 -3.5954  0.1440
  494MOL0     H68151  12.732   4.854   8.663 -0.3663 -0.1460 -0.9700
  494MOL0     H68152  12.425   4.041   8.842  0.7142 -0.9654  0.4919
  494MOL0     H68153  12.255   3.879   8.856 -0.8917  1.6211  0.2915
  494MOL0     H68154  11.784   3.830   9.041  4.9328  2.0786  2.3002
  494MOL0     H68155  11.620   3.672   8.987  0.4523  0.1200 -1.3957
  494MOL0     H68156  11.084   3.149   7.144  0.4466 -0.7512  0.8235
  494MOL0     H68157  11.028   3.084   6.906 -1.5340  2.2617  0.6581
  494MOL0     H68158  10.944   2.789   6.613 -0.4794  1.2945 -1.3431
  494MOL0     H68159  10.923   2.640   6.440 -0.9490 -0.3599 -1.8302
  494MOL0     H68160  10.560   2.450   6.386  2.6456  0.6847  0.6651
  494MOL0     H68161  10.507   2.573   6.272  4.5488  6.1354 -0.5611
  494MOL0     H68162  10.635   2.406   6.089  0.7890  0.5272  0.6439
  494MOL0     H68163  10.499   2.362   6.173 -0.8230  1.3391 -0.4595
  494MOL0     H68164  10.795   2.316   6.258 -0.6734 -1.7888 -0.5969
  494MOL0     H68165  10.660   2.247   6.345  0.9108 -1.1250  1.5953
  494MOL0     H68166  10.768   2.164   6.069  1.6808 -0.6496  1.5546
  494MOL0     H68167  10.590   2.133   6.104  0.9000  2.6521 -2.1246
  494MOL0     H68168  10.817   1.872   6.356 -0.9279 -0.7385 -0.5681
  494MOL0     H68169  10.507   2.688   6.427 -0.4163 -3.5477  1.7108
  494MOL0     H68170  10.478   2.968   6.655 -0.7691 -0.0699  0.6742
  494MOL0     H68171  10.420   2.878   6.513 -1.0451 -3.4152 -0.7497
  494MOL0     H68172  10.393   2.816   6.672 -0.8433  3.7440  1.8481
  495MOL0     O68173   0.213   8.625   1.705  0.5498 -0.3208 -0.9924
  495MOL0     C68174   0.258   8.683   1.805 -0.0725 -0.2332  0.2528
  495MOL0     O68175   0.389   8.687   1.845 -0.9378  0.9225 -0.4618
  495MOL0     C68176   0.469   8.579   1.801 -0.1330  0.8114  0.7595
  495MOL0     C68177   0.580   8.596   1.713  0.5279 -0.0256  0.2150
  495MOL0     C68178   0.633   8.479   1.653  1.1525  0.0685 -0.0059
  495MOL0     C68179   0.603   8.350   1.701 -0.0693 -0.1632 -0.0586
  495MOL0     O68180   0.686   8.245   1.659 -0.6178  0.7105 -0.4232
  495MOL0     C68181   0.670   8.108   1.697 -0.7088 -0.0715  0.4249
  495MOL0     C68182   0.762   8.094   1.829  0.1848  0.0060 -0.0875
  495MOL0     C68183   0.756   7.944   1.877  0.2193  0.0105 -0.0713
  495MOL0     C68184   0.873   7.911   1.965 -0.6029 -0.3382 -0.1585
  495MOL0     C68185   0.851   7.798   2.064  1.0546  0.2994 -0.2878
  495MOL0     C68186   0.968   7.748   2.153  0.5835  0.2640 -0.4790
  495MOL0     C68187   0.945   7.621   2.228 -0.0456 -0.5428 -0.4920
  495MOL0     C68188   1.003   7.494   2.165 -0.2122  0.1852 -0.4002
  495MOL0     N68189   0.958   7.377   2.248  0.5021 -0.3543  0.8313
  495MOL0     C68190   0.891   7.274   2.189 -0.1668 -0.1650 -0.2396
  495MOL0     C68191   0.898   7.175   2.289 -0.0734  0.4056  1.0487
  495MOL0     C68192   0.862   7.031   2.266 -0.2063  0.9997 -0.8545
  495MOL0     C68193   0.757   6.983   2.363 -0.1111  0.7075 -0.3808
  495MOL0     C68194   0.611   7.029   2.309 -0.1155  0.2768  0.4308
  495MOL0     C68195   0.510   6.987   2.413  0.3778  0.3711  0.4355
  495MOL0     O68196   0.536   7.071   2.529 -0.1306 -0.1344 -0.3742
  495MOL0     C68197   0.532   7.019   2.663 -0.6829  0.6682 -1.1842
  495MOL0     C68198   0.465   6.902   2.687  1.1882  0.2361 -0.3795
  495MOL0     C68199   0.452   6.855   2.820  0.0682 -0.0323  0.7228
  495MOL0     C68200   0.364   6.733   2.832 -0.1513  0.4516  0.9476
  495MOL0     C68201   0.512   6.933   2.925  0.0896  0.2420 -0.1766
  495MOL0     C68202   0.511   6.904   3.066  0.5395  0.6052 -0.6914
  495MOL0     O68203   0.593   6.976   3.156 -0.3329  1.0939  0.0355
  495MOL0     C68204   0.578   6.957   3.288  0.6093  0.6354 -1.6112
  495MOL0     C68205   0.542   7.070   3.364  0.2151 -0.3108  0.3493
  495MOL0     C68206   0.536   7.072   3.503  0.3827  1.0760 -0.9471
  495MOL0     C68207   0.561   6.955   3.575 -0.0337  0.7661 -0.4432
  495MOL0     O68208   0.572   6.952   3.708 -0.1031 -0.8360  0.2577
  495MOL0     C68209   0.465   7.018   3.775 -0.8838  0.5387  1.5225
  495MOL0     C68210   0.481   6.967   3.922  0.0305 -0.0628 -0.3004
  495MOL0     C68211   0.387   7.037   4.017 -0.4574  0.3805 -0.4911
  495MOL0     C68212   0.243   7.023   3.976  0.1131  0.4117  0.2315
  495MOL0     C68213   0.162   7.031   4.108  1.4262  0.8721 -0.3704
  495MOL0     C68214   0.007   7.010   4.088 -1.1006  0.4796 -0.2531
  495MOL0     C68215  -0.074   7.061   4.200  0.0815  0.5617 -0.5593
  495MOL0     C68216  -0.059   6.967   4.327  0.0074  0.2122  0.3802
  495MOL0    Cl68217   0.090   6.973   4.433  0.4934  0.3221  0.4518
  495MOL0     C68218   0.593   6.840   3.509  1.2637 -0.2729  0.9617
  495MOL0     C68219   0.610   6.849   3.370 -0.8854  0.6895 -0.1144
  495MOL0     O68220   0.427   6.822   3.107  0.0069  0.6106 -0.5713
  495MOL0     C68221   0.590   7.048   2.899  0.7896  0.4855  0.1993
  495MOL0     C68222   0.597   7.089   2.769 -0.0408  0.4129  0.2699
  495MOL0     N68223   0.973   7.212   2.397  0.3630  0.2067  0.7828
  495MOL0     N68224   1.004   7.341   2.375  0.5802  0.5066  1.3297
  495MOL0     C68225   0.492   8.331   1.786  0.0288  0.7642  0.2374
  495MOL0     C68226   0.425   8.440   1.836  0.5614  0.3549 -1.0525
  495MOL0     C68227   0.166   8.774   1.890  0.6527 -0.9498  0.1955
  495MOL0     C68228   0.048   8.825   1.822 -0.8762 -0.5967  0.5661
  495MOL0     C68229  -0.057   8.884   1.890  0.4943  0.4251 -0.3465
  495MOL0     C68230  -0.044   8.902   2.027 -0.7038  0.9896  0.4586
  495MOL0     O68231  -0.122   8.970   2.115 -0.2629 -0.7230  0.4811
  495MOL0     C68232  -0.221   9.050   2.056  0.5003  0.3865  0.2911
  495MOL0     C68233  -0.254   9.163   2.160 -0.4733 -0.7238  0.1267
  495MOL0     C68234  -0.386   9.222   2.129 -0.4904  0.1789 -0.8703
  495MOL0     C68235  -0.423   9.340   2.213  0.5699  0.2150 -0.0276
  495MOL0     C68236  -0.319   9.449   2.207 -0.2289  0.0266 -0.0706
  495MOL0     C68237  -0.217   9.518   2.201 -0.3876  0.7946  0.6174
  495MOL0     C68238   0.076   8.863   2.097 -0.1790 -0.1058 -0.2980
  495MOL0     C68239   0.179   8.795   2.030 -0.1378 -0.3211  0.1764
  495MOL0     C68240   0.288   8.726   2.104 -0.7552  0.1598 -1.0657
  495MOL0     H68241   0.600   8.697   1.677  4.6403 -0.6436  0.3660
  495MOL0     H68242   0.708   8.479   1.574  0.1420 -1.7814 -1.0367
  495MOL0     H68243   0.722   8.038   1.631 -0.8193 -1.8858  2.1686
  495MOL0     H68244   0.564   8.080   1.698 -0.5794 -0.9534 -2.4884
  495MOL0     H68245   0.864   8.130   1.812  0.1923 -0.0422 -0.1452
  495MOL0     H68246   0.712   8.153   1.907 -2.2980 -0.5060 -1.2307
  495MOL0     H68247   0.661   7.940   1.930  0.5040 -0.7477  0.3953
  495MOL0     H68248   0.753   7.880   1.787 -0.7925  0.0499 -0.0781
  495MOL0     H68249   0.963   7.882   1.911 -1.2666  0.0050 -1.4813
  495MOL0     H68250   0.900   8.002   2.020 -0.8358 -1.3755  1.7780
  495MOL0     H68251   0.818   7.717   1.997  2.2785  0.2690 -0.8684
  495MOL0     H68252   0.773   7.821   2.137  0.3577 -1.0134 -0.5725
  495MOL0     H68253   1.050   7.753   2.080 -0.2490  3.4097 -1.3701
  495MOL0     H68254   0.992   7.830   2.222 -3.2220 -1.5445  3.3980
  495MOL0     H68255   0.843   7.608   2.263  0.1989  1.7613  1.3348
  495MOL0     H68256   1.003   7.629   2.320 -0.7213 -2.5326  0.1652
  495MOL0     H68257   0.948   7.484   2.072  0.8430  2.5498 -1.3424
  495MOL0     H68258   1.111   7.504   2.155 -0.1989 -1.9950 -5.1107
  495MOL0     H68259   0.834   7.256   2.098 -0.2084 -4.2975  0.3872
  495MOL0     H68260   0.951   6.969   2.280  0.2185  1.4970 -1.3229
  495MOL0     H68261   0.827   7.019   2.163 -0.3266  1.4563 -0.8695
  495MOL0     H68262   0.762   6.874   2.366  0.2546  0.7018  3.1671
  495MOL0     H68263   0.778   7.023   2.462  1.1272 -0.5932 -0.0815
  495MOL0     H68264   0.604   7.134   2.281  0.5581 -0.3518 -2.4023
  495MOL0     H68265   0.588   6.968   2.221 -0.3499  0.0718  0.6300
  495MOL0     H68266   0.409   7.003   2.374 -0.2802  1.4050  2.4170
  495MOL0     H68267   0.526   6.881   2.433  1.7016  0.6915  1.2275
  495MOL0     H68268   0.411   6.855   2.605 -0.2565 -0.0528  0.7062
  495MOL0     H68269   0.327   6.709   2.732  4.7647 -0.9735 -0.8289
  495MOL0     H68270   0.282   6.760   2.900 -1.5096  0.0854 -0.4790
  495MOL0     H68271   0.432   6.654   2.864 -1.0897 -0.3055  1.1288
  495MOL0     H68272   0.505   7.154   3.307 -1.1369 -2.1691 -1.6823
  495MOL0     H68273   0.528   7.173   3.542 -2.3585  0.4363  0.4446
  495MOL0     H68274   0.472   7.126   3.785  1.3863  0.4463  1.3418
  495MOL0     H68275   0.366   6.984   3.742 -0.3190  1.3476 -1.2265
  495MOL0     H68276   0.449   6.863   3.908  1.4104 -0.2685 -2.5240
  495MOL0     H68277   0.586   6.970   3.953 -0.0340 -1.0317  0.0301
  495MOL0     H68278   0.407   7.145   4.016 -2.6301  0.8221 -0.6063
  495MOL0     H68279   0.397   6.998   4.119 -0.4969 -0.6839 -0.8841
  495MOL0     H68280   0.208   6.930   3.929 -1.2758 -0.2230  2.3640
  495MOL0     H68281   0.216   7.089   3.893  0.3071 -3.1605 -2.9423
  495MOL0     H68282   0.207   6.947   4.162  0.8912 -0.3116 -1.7072
  495MOL0     H68283   0.194   7.127   4.151  1.4143  0.9929 -0.6271
  495MOL0     H68284  -0.024   6.910   4.056  2.0806 -0.3021 -1.2928
  495MOL0     H68285  -0.006   7.071   3.999 -2.0358 -0.6967 -0.9648
  495MOL0     H68286  -0.173   7.081   4.157  0.5936 -0.3527 -2.2789
  495MOL0     H68287  -0.036   7.160   4.229 -1.1240  0.8819  0.0009
  495MOL0     H68288  -0.068   6.867   4.286  1.1978 -0.3485  1.4221
  495MOL0     H68289  -0.145   6.980   4.393 -1.3530  1.9574 -1.6105
  495MOL0     H68290   0.597   6.750   3.569 -1.4046  0.1731  1.9388
  495MOL0     H68291   0.643   6.762   3.313  0.4670 -0.9147  2.8745
  495MOL0     H68292   0.651   7.096   2.975  0.9778 -1.1364  1.1358
  495MOL0     H68293   0.669   7.164   2.737  0.8499 -0.1673  0.8681
  495MOL0     H68294   0.470   8.231   1.820  3.1728 -0.2614 -0.5099
  495MOL0     H68295   0.334   8.407   1.886  0.9214  0.6906 -0.1540
  495MOL0     H68296   0.036   8.819   1.715 -2.3992  3.3361  0.3579
  495MOL0     H68297  -0.141   8.910   1.826 -0.8325 -3.8874 -0.6797
  495MOL0     H68298  -0.170   9.100   1.973  0.0296  0.5753  0.1137
  495MOL0     H68299  -0.312   8.994   2.032  1.5112 -1.1189 -0.2066
  495MOL0     H68300  -0.168   9.231   2.159  0.2339 -1.5636 -1.8067
  495MOL0     H68301  -0.261   9.112   2.256  0.9674 -0.7146  0.2561
  495MOL0     H68302  -0.385   9.244   2.022  0.8243 -0.8127 -1.0845
  495MOL0     H68303  -0.458   9.142   2.149 -0.7036  1.1310  2.9692
  495MOL0     H68304  -0.432   9.302   2.316  0.7638 -2.1951 -0.8295
  495MOL0     H68305  -0.520   9.380   2.182  1.7466  4.0431  0.8183
  495MOL0     H68306  -0.126   9.576   2.202 -1.7067  2.9845  2.2821
  495MOL0     H68307   0.077   8.879   2.205 -3.4054  1.3081 -0.3464
  495MOL0     H68308   0.376   8.791   2.103 -2.2300  2.4046  1.1171
  495MOL0     H68309   0.249   8.730   2.206 -1.8205 -0.8635 -1.4031
  495MOL0     H68310   0.301   8.625   2.064 -0.2990  0.8060 -2.6051
  496MOL0     O68311   5.816   2.234   6.852  0.1483 -0.6823  0.5241
  496MOL0     C68312   5.823   2.326   6.928 -0.1332  0.0825  0.4084
  496MOL0     O68313   5.757   2.336   7.055 -0.1988  0.2440  0.6276
  496MOL0     C68314   5.680   2.236   7.103  0.4078  0.2909 -0.3573
  496MOL0     C68315   5.561   2.272   7.174 -0.0262  0.1825  0.1914
  496MOL0     C68316   5.481   2.182   7.243 -0.2257 -0.0457  0.3881
  496MOL0     C68317   5.509   2.040   7.222  0.3900  0.0840 -0.0597
  496MOL0     O68318   5.444   1.937   7.289 -0.6074  0.4167  0.1326
  496MOL0     C68319   5.301   1.956   7.305  0.2988 -0.2682  0.3089
  496MOL0     C68320   5.265   1.845   7.399 -0.0547  0.4741 -0.9224
  496MOL0     C68321   5.117   1.855   7.434  0.1024  0.4955  0.1807
  496MOL0     C68322   5.049   1.745   7.521 -0.2861 -0.3405 -0.0519
  496MOL0     C68323   5.031   1.605   7.466  0.2016 -0.6917  0.3899
  496MOL0     C68324   4.936   1.577   7.341  0.2550  0.4856  0.0901
  496MOL0     C68325   5.019   1.560   7.206  0.5184 -0.0114 -0.0493
  496MOL0     C68326   4.948   1.579   7.078 -0.7441 -0.2626  0.6111
  496MOL0     N68327   5.041   1.565   6.964  0.5542  0.8454 -0.3698
  496MOL0     C68328   5.109   1.452   6.925 -1.0090 -0.7007 -0.4951
  496MOL0     C68329   5.183   1.492   6.815  0.4076 -1.0706 -0.3413
  496MOL0     C68330   5.290   1.417   6.737  0.5735  0.2542 -0.4356
  496MOL0     C68331   5.428   1.501   6.721  0.7205 -0.8927  0.3300
  496MOL0     C68332   5.539   1.395   6.694 -0.7249 -0.0402 -1.0728
  496MOL0     C68333   5.670   1.460   6.655  0.1888  0.6494  0.2463
  496MOL0     O68334   5.709   1.407   6.521 -0.7812 -0.8222 -0.8267
  496MOL0     C68335   5.826   1.446   6.466 -0.0220  0.0628 -0.7858
  496MOL0     C68336   5.844   1.395   6.340  0.0282 -0.3771 -0.3082
  496MOL0     C68337   5.953   1.439   6.268  1.1196  0.5011  0.4315
  496MOL0     C68338   5.962   1.393   6.118 -0.1977 -0.5738 -0.0410
  496MOL0     C68339   6.058   1.520   6.317 -0.4287  0.2987 -0.7327
  496MOL0     C68340   6.181   1.564   6.247 -0.0373  0.2859 -0.2172
  496MOL0     O68341   6.294   1.566   6.326  0.2434  0.0660 -0.1424
  496MOL0     C68342   6.413   1.597   6.275 -0.5981 -0.7496  0.6347
  496MOL0     C68343   6.439   1.717   6.202 -0.9174  0.5345  0.0891
  496MOL0     C68344   6.568   1.745   6.159 -0.0533  0.5097 -0.4775
  496MOL0     C68345   6.676   1.661   6.183 -0.1498 -0.3276 -0.3214
  496MOL0     O68346   6.797   1.700   6.122 -0.2227  0.7966 -0.0624
  496MOL0     C68347   6.901   1.600   6.107  1.1500  0.3866  0.0626
  496MOL0     C68348   7.007   1.682   6.023 -0.2630 -0.3750  0.2801
  496MOL0     C68349   6.943   1.718   5.886  0.1672  0.5067  0.0088
  496MOL0     C68350   7.065   1.749   5.799  0.2669 -0.9277 -0.0871
  496MOL0     C68351   7.036   1.813   5.661  0.8752 -0.7573  0.7422
  496MOL0     C68352   6.912   1.756   5.586 -0.2407 -0.4213 -0.4900
  496MOL0     C68353   6.899   1.817   5.451  0.1991 -0.5426 -0.0242
  496MOL0     C68354   6.777   1.767   5.371  0.0190 -0.2404 -0.8320
  496MOL0    Cl68355   6.804   1.600   5.312  0.2290  0.1098  0.2038
  496MOL0     C68356   6.659   1.542   6.253 -0.0247 -0.3523 -0.4263
  496MOL0     C68357   6.527   1.508   6.291  0.8822 -0.7395 -1.3108
  496MOL0     O68358   6.170   1.598   6.126  0.8073 -0.1186 -0.7960
  496MOL0     C68359   6.041   1.560   6.451 -0.4095 -0.0090 -0.3052
  496MOL0     C68360   5.925   1.531   6.524 -0.4751 -0.3892  0.1251
  496MOL0     N68361   5.154   1.622   6.785  0.3494  0.3890 -0.4301
  496MOL0     N68362   5.061   1.662   6.871 -0.1982  0.5011 -0.1640
  496MOL0     C68363   5.617   2.008   7.131  0.0351 -0.2955 -0.6870
  496MOL0     C68364   5.702   2.102   7.073 -0.6093  0.3700  0.9999
  496MOL0     C68365   5.879   2.466   6.881 -0.0667  0.5345  0.5646
  496MOL0     C68366   5.831   2.573   6.957 -0.5275 -0.3130  1.2569
  496MOL0     C68367   5.858   2.704   6.927  0.3036 -0.3431  0.4251
  496MOL0     C68368   5.934   2.727   6.809 -0.1098  0.0618  0.0188
  496MOL0     O68369   5.951   2.863   6.777  0.2368  0.2203  0.0313
  496MOL0     C68370   5.999   2.905   6.654 -0.4144 -0.3497  0.0268
  496MOL0     C68371   6.158   2.884   6.638 -0.7154 -0.1941 -0.8887
  496MOL0     C68372   6.240   2.938   6.764  0.3577 -0.0754 -0.3799
  496MOL0     C68373   6.362   3.018   6.724  0.2312  0.4263  0.1760
  496MOL0     C68374   6.455   2.912   6.681 -1.4362  0.3872 -0.1632
  496MOL0     C68375   6.531   2.819   6.636  0.3119 -0.7333  0.4739
  496MOL0     C68376   5.975   2.618   6.718  1.0816  0.2394 -0.1014
  496MOL0     C68377   5.951   2.490   6.763  0.5242 -0.6253  0.4029
  496MOL0     C68378   5.998   2.380   6.679 -0.0109  0.5563 -0.0476
  496MOL0     H68379   5.538   2.378   7.182  1.4059  0.6887 -1.6882
  496MOL0     H68380   5.400   2.212   7.310  1.2936 -0.8326  2.7040
  496MOL0     H68381   5.250   1.957   7.209 -0.1710  0.8765  0.5530
  496MOL0     H68382   5.263   2.047   7.352  1.3309  0.3507 -0.0274
  496MOL0     H68383   5.285   1.747   7.353 -0.7086  0.0301 -0.2766
  496MOL0     H68384   5.335   1.859   7.482 -1.0617  0.8067 -0.1052
  496MOL0     H68385   5.096   1.949   7.487  3.5032  2.4705 -1.6466
  496MOL0     H68386   5.059   1.862   7.342  3.8096  3.9615 -2.2443
  496MOL0     H68387   5.100   1.736   7.617 -1.2582 -2.9514  0.3006
  496MOL0     H68388   4.952   1.790   7.545 -0.9072 -1.8640  0.4290
  496MOL0     H68389   4.986   1.550   7.548  0.8193 -0.5857  0.8071
  496MOL0     H68390   5.125   1.554   7.444  1.0631  0.8309  0.3748
  496MOL0     H68391   4.871   1.492   7.364 -1.0531  1.2716 -0.6242
  496MOL0     H68392   4.866   1.661   7.335 -0.3873  0.3704  3.7994
  496MOL0     H68393   5.070   1.464   7.200  2.0591  0.7037  0.9306
  496MOL0     H68394   5.094   1.640   7.214 -1.0920  1.6011 -0.4005
  496MOL0     H68395   4.865   1.508   7.069 -1.3131  0.2810  1.4473
  496MOL0     H68396   4.894   1.673   7.067 -1.6264 -0.4462  2.8128
  496MOL0     H68397   5.112   1.362   6.986 -0.6507 -0.0177  0.5173
  496MOL0     H68398   5.254   1.397   6.636 -2.8648  1.2295  0.4569
  496MOL0     H68399   5.311   1.317   6.776 -0.5246 -0.2419 -1.0622
  496MOL0     H68400   5.422   1.575   6.640  1.1226 -0.8790  0.3146
  496MOL0     H68401   5.450   1.566   6.806 -2.6838  0.7903  0.0955
  496MOL0     H68402   5.545   1.336   6.786  1.1818 -0.5726 -1.4851
  496MOL0     H68403   5.501   1.326   6.618 -3.1675  1.3935 -1.2692
  496MOL0     H68404   5.666   1.568   6.640 -0.0820  0.2301 -3.9015
  496MOL0     H68405   5.744   1.435   6.731  0.4312  1.4727  0.2936
  496MOL0     H68406   5.765   1.341   6.289 -0.2814  1.3353 -1.7443
  496MOL0     H68407   6.057   1.345   6.093 -0.8531 -2.3876  0.8111
  496MOL0     H68408   5.952   1.480   6.053  2.7874  0.6051  0.8982
  496MOL0     H68409   5.890   1.316   6.088  1.5615 -1.7919 -1.3484
  496MOL0     H68410   6.361   1.771   6.150 -0.2390  1.5977  0.1493
  496MOL0     H68411   6.578   1.838   6.104 -2.5762  0.6220 -0.8458
  496MOL0     H68412   6.937   1.579   6.208  0.1833 -0.5443  0.2287
  496MOL0     H68413   6.869   1.511   6.052  1.4237 -0.5772  1.4135
  496MOL0     H68414   7.009   1.777   6.078 -0.3315  0.5233 -1.2194
  496MOL0     H68415   7.107   1.639   6.019 -0.8124 -1.7168  0.4532
  496MOL0     H68416   6.864   1.792   5.900  0.0625  0.7784 -1.8328
  496MOL0     H68417   6.900   1.625   5.845  0.3572  1.2472 -1.9673
  496MOL0     H68418   7.124   1.658   5.781  3.2638  0.8885 -0.1352
  496MOL0     H68419   7.135   1.812   5.854  2.3126 -2.2390 -1.0496
  496MOL0     H68420   7.020   1.917   5.691  1.7906 -0.8484  1.6013
  496MOL0     H68421   7.122   1.821   5.593  0.0092 -0.6582 -0.3639
  496MOL0     H68422   6.822   1.771   5.646  0.1492  1.2674 -0.2803
  496MOL0     H68423   6.912   1.647   5.575  0.2993 -0.1737 -4.4411
  496MOL0     H68424   6.987   1.794   5.390 -1.1510  0.1512 -2.3684
  496MOL0     H68425   6.897   1.926   5.460  0.7626 -0.3401 -1.8985
  496MOL0     H68426   6.744   1.832   5.289 -1.6585 -0.5749 -0.4616
  496MOL0     H68427   6.693   1.763   5.440  0.1147  0.2835 -0.6782
  496MOL0     H68428   6.737   1.468   6.268  1.3042  0.9683 -0.5614
  496MOL0     H68429   6.501   1.410   6.329 -0.2844  1.0083  3.1305
  496MOL0     H68430   6.126   1.613   6.491  0.2347 -1.4885  0.3305
  496MOL0     H68431   5.914   1.588   6.616 -0.5560  3.2312 -1.9583
  496MOL0     H68432   5.621   1.900   7.117 -2.1259 -0.4046 -0.8680
  496MOL0     H68433   5.791   2.067   7.022 -0.3576  1.4375  0.6806
  496MOL0     H68434   5.764   2.557   7.042 -0.6761  0.6135  1.3179
  496MOL0     H68435   5.835   2.792   6.986 -1.9909  0.9893 -2.2315
  496MOL0     H68436   5.939   2.862   6.573 -0.6522  0.7863 -0.4205
  496MOL0     H68437   5.984   3.013   6.651  0.6070 -0.2175 -0.4797
  496MOL0     H68438   6.182   2.936   6.545 -2.1641  0.1924 -1.0650
  496MOL0     H68439   6.170   2.780   6.604 -4.1812 -2.1142  2.9014
  496MOL0     H68440   6.177   2.996   6.833  0.5546 -1.0533  0.6672
  496MOL0     H68441   6.280   2.852   6.819 -0.6862  0.7106  1.7553
  496MOL0     H68442   6.415   3.077   6.799  2.2148 -0.7683 -0.2075
  496MOL0     H68443   6.344   3.085   6.640 -1.6128  0.8626  0.8669
  496MOL0     H68444   6.582   2.744   6.579  1.4611  1.5519 -1.6758
  496MOL0     H68445   6.017   2.634   6.619 -2.9155 -3.6058 -2.8278
  496MOL0     H68446   5.924   2.361   6.600 -1.8140  2.6800  1.0014
  496MOL0     H68447   6.102   2.394   6.649 -0.1986 -0.8964 -1.5128
  496MOL0     H68448   6.013   2.292   6.742  2.9240  2.1671  1.7043
  497MOL0     O68449   6.304  10.576   1.087 -0.7510  0.1388 -0.2463
  497MOL0     C68450   6.356  10.484   1.148 -0.0608  0.1315 -0.0747
  497MOL0     O68451   6.294  10.419   1.257  0.0280  0.2100 -0.8154
  497MOL0     C68452   6.212  10.488   1.341 -0.9148 -0.3048 -0.4945
  497MOL0     C68453   6.245  10.618   1.390 -0.2935  0.3276  0.5285
  497MOL0     C68454   6.164  10.684   1.483 -0.0629 -0.8802 -0.0077
  497MOL0     C68455   6.043  10.618   1.530 -0.4971 -0.1275 -0.7301
  497MOL0     O68456   5.950  10.670   1.615 -0.3400  0.4759  0.6453
  497MOL0     C68457   5.928  10.804   1.629  0.0701 -1.2881 -0.6044
  497MOL0     C68458   5.827  10.855   1.527 -0.0055  0.4476 -0.0003
  497MOL0     C68459   5.832  11.002   1.487  0.4072  0.1976 -0.0238
  497MOL0     C68460   5.774  11.017   1.349 -0.3786  0.4235  0.2908
  497MOL0     C68461   5.824  11.135   1.273 -0.3342 -0.1174 -0.4604
  497MOL0     C68462   5.779  11.278   1.319  0.3798  0.3107  0.4889
  497MOL0     C68463   5.851  11.382   1.232  0.0001  0.0856  0.6676
  497MOL0     C68464   5.778  11.419   1.100  0.2016 -0.6829  0.7533
  497MOL0     N68465   5.647  11.489   1.122  0.2130  1.1937  0.4069
  497MOL0     C68466   5.532  11.443   1.062 -0.3031 -0.6598  0.6961
  497MOL0     C68467   5.443  11.538   1.102 -1.1029  1.2945  0.2838
  497MOL0     C68468   5.298  11.548   1.077  0.5324  0.5330  0.0080
  497MOL0     C68469   5.275  11.593   0.932 -0.7869 -0.6308  0.3761
  497MOL0     C68470   5.327  11.738   0.917  0.4299 -0.1144  0.7497
  497MOL0     C68471   5.320  11.764   0.760  0.8348  0.0173 -0.0952
  497MOL0     O68472   5.319  11.908   0.733  0.5613 -0.1273 -0.8886
  497MOL0     C68473   5.205  11.984   0.760 -0.5932  0.1178  0.5954
  497MOL0     C68474   5.213  12.119   0.741  0.7863 -0.8849 -0.4938
  497MOL0     C68475   5.100  12.203   0.758 -0.1761  0.4290 -0.2860
  497MOL0     C68476   5.100  12.348   0.724  0.1917 -0.5777  0.8535
  497MOL0     C68477   4.981  12.148   0.807  0.0302  0.6614  0.0349
  497MOL0     C68478   4.841  12.212   0.825  1.2959  0.1780 -0.6503
  497MOL0     O68479   4.833  12.346   0.813  0.0423  0.4446  0.1070
  497MOL0     C68480   4.715  12.399   0.786  0.4909 -0.3818 -0.4834
  497MOL0     C68481   4.619  12.411   0.891  0.4548 -0.1930 -0.2898
  497MOL0     C68482   4.512  12.492   0.875  1.4327  0.0416  0.0431
  497MOL0     C68483   4.481  12.554   0.747 -0.6518 -0.3534  0.0266
  497MOL0     O68484   4.367  12.633   0.759  0.0622  0.0573  0.5765
  497MOL0     C68485   4.331  12.723   0.654 -0.3641 -0.1951  0.7891
  497MOL0     C68486   4.257  12.654   0.541  0.5741  0.2016  0.5752
  497MOL0     C68487   4.262  12.742   0.415 -0.2831  0.0240  0.2604
  497MOL0     C68488   4.208  12.888   0.440  0.3350  0.2684 -0.1919
  497MOL0     C68489   4.182  12.951   0.300 -0.9236 -0.6964 -0.2737
  497MOL0     C68490   4.288  12.951   0.192  0.6593  0.8200  0.1891
  497MOL0     C68491   4.251  13.041   0.066 -0.1114 -0.2762 -0.5246
  497MOL0     C68492   4.118  13.014  -0.004 -0.6502 -1.3826  0.9147
  497MOL0    Cl68493   4.131  12.842  -0.078 -0.0445  0.3272  0.4728
  497MOL0     C68494   4.573  12.544   0.650 -0.9189  0.0811 -0.3884
  497MOL0     C68495   4.690  12.474   0.671  0.4103  0.2971 -0.5732
  497MOL0     O68496   4.745  12.141   0.850 -0.8435  0.2277 -0.2846
  497MOL0     C68497   4.982  12.008   0.833 -0.0273 -0.6335  0.1997
  497MOL0     C68498   5.083  11.933   0.804 -0.0835  0.4143 -0.2781
  497MOL0     N68499   5.502  11.628   1.172  0.1043 -1.3900  0.5852
  497MOL0     N68500   5.623  11.599   1.194  0.2293 -0.4944 -0.5137
  497MOL0     C68501   6.026  10.488   1.486 -0.5789 -0.3961 -0.5681
  497MOL0     C68502   6.109  10.423   1.397 -0.2811  0.1815  0.0593
  497MOL0     C68503   6.486  10.436   1.107 -0.2012  0.5864 -0.6168
  497MOL0     C68504   6.496  10.295   1.084  0.8228  0.2461 -1.0659
  497MOL0     C68505   6.613  10.235   1.032  0.0438 -0.8499 -1.1249
  497MOL0     C68506   6.731  10.307   1.025  0.0278 -0.1088  0.3711
  497MOL0     O68507   6.840  10.226   1.003  0.5902 -0.2139  0.1308
  497MOL0     C68508   6.945  10.294   0.932  0.5474  0.5832 -0.0004
  497MOL0     C68509   7.014  10.198   0.843  0.5358 -0.2328 -0.2401
  497MOL0     C68510   7.086  10.081   0.921 -1.1948  0.8643  1.0889
  497MOL0     C68511   7.102   9.959   0.827  0.7147  0.2764  0.5081
  497MOL0     C68512   6.993   9.887   0.765 -0.7031  0.6853 -0.0993
  497MOL0     C68513   6.917   9.846   0.683  0.2078 -0.2595  0.0005
  497MOL0     C68514   6.728  10.448   1.050 -1.1665 -0.5633  0.0582
  497MOL0     C68515   6.610  10.514   1.092  0.7608  0.3061 -0.2608
  497MOL0     C68516   6.609  10.660   1.102  0.4509  0.6525 -0.1836
  497MOL0     H68517   6.332  10.670   1.351 -0.3893 -0.5516 -0.9273
  497MOL0     H68518   6.173  10.790   1.502 -1.3078  0.0093 -3.6552
  497MOL0     H68519   6.013  10.871   1.615 -2.6857  3.0289  1.1705
  497MOL0     H68520   5.891  10.812   1.732 -2.7378  0.3275 -1.6038
  497MOL0     H68521   5.853  10.789   1.443  1.2789  1.6207 -0.5779
  497MOL0     H68522   5.724  10.831   1.553  0.2233 -1.8124 -0.9917
  497MOL0     H68523   5.778  11.077   1.546 -0.8512 -1.1608  0.6476
  497MOL0     H68524   5.936  11.035   1.485  0.1611  1.1356 -3.9093
  497MOL0     H68525   5.802  10.932   1.286 -0.0926 -0.3462  1.4251
  497MOL0     H68526   5.665  11.021   1.343 -0.3363  1.5909 -0.0498
  497MOL0     H68527   5.777  11.131   1.174 -1.3859 -1.1221  0.0606
  497MOL0     H68528   5.931  11.133   1.254 -0.5428  0.5939 -1.8791
  497MOL0     H68529   5.670  11.289   1.309 -0.0898 -1.6808  2.5256
  497MOL0     H68530   5.786  11.310   1.424 -1.5784  3.9726 -0.2944
  497MOL0     H68531   5.952  11.344   1.217  1.1872  2.2030  2.6061
  497MOL0     H68532   5.870  11.471   1.293  1.8219 -0.5767  1.1285
  497MOL0     H68533   5.853  11.480   1.049  1.6439 -0.9244  2.4663
  497MOL0     H68534   5.769  11.325   1.045  0.5274  0.8576 -2.1378
  497MOL0     H68535   5.511  11.351   1.008  2.7193 -1.0284 -0.0391
  497MOL0     H68536   5.254  11.615   1.151 -1.6242 -0.4152 -0.3590
  497MOL0     H68537   5.244  11.454   1.093 -3.5377  2.5163 -0.8274
  497MOL0     H68538   5.298  11.525   0.849 -4.1354 -0.4546 -0.8717
  497MOL0     H68539   5.168  11.612   0.919 -0.4867  0.7477 -0.2213
  497MOL0     H68540   5.269  11.808   0.978  1.4184  1.1327  0.3029
  497MOL0     H68541   5.428  11.752   0.955  0.3389 -0.2532  1.0481
  497MOL0     H68542   5.401  11.720   0.702  0.3900 -0.0781 -0.6599
  497MOL0     H68543   5.229  11.721   0.718  0.6913  1.9959 -1.9836
  497MOL0     H68544   5.299  12.160   0.689 -0.9647 -0.1465 -3.0349
  497MOL0     H68545   5.197  12.378   0.685 -0.1229  1.1038  1.2709
  497MOL0     H68546   5.088  12.419   0.807  4.5601 -0.7932  1.9028
  497MOL0     H68547   5.030  12.365   0.642 -0.3860  1.7555  1.7482
  497MOL0     H68548   4.642  12.361   0.985  2.7694  0.4829 -0.4309
  497MOL0     H68549   4.448  12.505   0.962  1.3902  0.9217 -0.1093
  497MOL0     H68550   4.267  12.797   0.703 -2.7163 -0.6878 -1.2917
  497MOL0     H68551   4.418  12.780   0.620 -0.7193  0.0074  0.2031
  497MOL0     H68552   4.301  12.558   0.513  0.1684  0.8433 -2.5942
  497MOL0     H68553   4.150  12.641   0.561  0.1648 -1.6714 -2.3121
  497MOL0     H68554   4.202  12.690   0.340 -1.7794  0.2872  1.2419
  497MOL0     H68555   4.365  12.744   0.378 -0.9649  2.2939 -1.8244
  497MOL0     H68556   4.290  12.935   0.497 -0.0050 -0.7939  1.2276
  497MOL0     H68557   4.109  12.883   0.485 -1.0025 -0.9767 -3.0790
  497MOL0     H68558   4.099  12.891   0.261  0.7602 -2.8750 -0.7186
  497MOL0     H68559   4.138  13.049   0.319  0.4102 -0.4803  2.1226
  497MOL0     H68560   4.317  12.851   0.158  1.1050  0.9016  0.3170
  497MOL0     H68561   4.383  12.992   0.226  0.3924  3.1050 -1.5478
  497MOL0     H68562   4.329  13.017  -0.006  2.1702  1.5792  1.1440
  497MOL0     H68563   4.250  13.149   0.086 -3.9418 -0.1388 -0.6002
  497MOL0     H68564   4.108  13.075  -0.094 -0.8944  0.8411  2.3943
  497MOL0     H68565   4.032  13.019   0.064  1.4525 -0.7354  3.7010
  497MOL0     H68566   4.568  12.605   0.560 -0.6021  0.9999  0.2002
  497MOL0     H68567   4.758  12.455   0.588  0.4310  0.7181 -0.6528
  497MOL0     H68568   4.897  11.963   0.883  0.8764 -3.8484 -0.9486
  497MOL0     H68569   5.066  11.827   0.815 -0.6011  0.4475 -0.7545
  497MOL0     H68570   5.939  10.437   1.528 -1.3171  1.3071  0.0561
  497MOL0     H68571   6.093  10.317   1.375  4.5608 -1.0297  1.2105
  497MOL0     H68572   6.412  10.228   1.098  2.5212 -3.6487 -6.1972
  497MOL0     H68573   6.631  10.128   1.027 -1.1842 -1.4017  2.7656
  497MOL0     H68574   6.901  10.363   0.860 -1.7905 -1.1845 -0.3596
  497MOL0     H68575   7.016  10.352   0.993  0.4783  0.9311 -0.2428
  497MOL0     H68576   7.086  10.256   0.784  0.4674 -0.9983 -1.0985
  497MOL0     H68577   6.941  10.147   0.780  0.8237  1.0490 -1.6909
  497MOL0     H68578   7.189  10.113   0.941 -0.4871  1.0750 -2.2647
  497MOL0     H68579   7.022  10.043   1.001 -0.9218  0.7926  1.2730
  497MOL0     H68580   7.155   9.886   0.888 -0.5053 -0.0704  1.1894
  497MOL0     H68581   7.163   9.996   0.744  1.2286 -0.5890  0.4872
  497MOL0     H68582   6.855   9.816   0.601  2.1609 -0.8575 -1.3296
  497MOL0     H68583   6.816  10.512   1.042 -4.1245  4.2119  1.5949
  497MOL0     H68584   6.624  10.705   1.003 -0.5835 -0.1884 -0.7342
  497MOL0     H68585   6.515  10.703   1.139  0.8834 -0.3453  2.2393
  497MOL0     H68586   6.685  10.680   1.178 -0.1312  2.5207 -0.0243
  498MOL0     O68587   6.168   8.693   6.578  0.6963 -0.2078 -0.4177
  498MOL0     C68588   6.104   8.766   6.503  0.0984 -0.9035  0.9338
  498MOL0     O68589   5.970   8.745   6.459 -0.5609  0.2084  0.4133
  498MOL0     C68590   5.919   8.622   6.457 -0.2259  0.8884  0.1544
  498MOL0     C68591   5.976   8.533   6.369 -0.6239 -0.0957 -0.1832
  498MOL0     C68592   5.935   8.395   6.362 -0.3649 -1.2106  0.3079
  498MOL0     C68593   5.830   8.350   6.443 -0.4311  0.5570  0.9061
  498MOL0     O68594   5.779   8.224   6.444 -0.6246  0.0103 -0.0189
  498MOL0     C68595   5.873   8.119   6.416 -0.4448 -0.6887  0.0247
  498MOL0     C68596   5.812   7.984   6.448 -0.2089  0.1010  0.2320
  498MOL0     C68597   5.752   7.973   6.592 -0.0082  0.3375  1.4372
  498MOL0     C68598   5.752   7.828   6.643 -0.1341  0.3678 -0.1068
  498MOL0     C68599   5.670   7.809   6.773  0.2676 -0.1828  0.0982
  498MOL0     C68600   5.720   7.900   6.885  0.8154 -0.1643  0.8506
  498MOL0     C68601   5.734   7.835   7.035  0.2292  0.3171  0.8008
  498MOL0     C68602   5.842   7.729   7.038  0.3124  0.4163 -0.4113
  498MOL0     N68603   5.979   7.785   7.014  0.6814 -0.7282  0.1117
  498MOL0     C68604   6.021   7.904   7.062 -0.9034 -0.0475 -1.0803
  498MOL0     C68605   6.153   7.903   7.062 -0.4035  0.5097 -0.4525
  498MOL0     C68606   6.231   8.020   7.120  0.1666  0.7805 -0.2543
  498MOL0     C68607   6.264   8.010   7.274  0.9489 -0.0771  0.7456
  498MOL0     C68608   6.252   7.860   7.311  0.0394 -0.1778  0.9834
  498MOL0     C68609   6.311   7.840   7.455 -0.6753  0.1018 -0.3685
  498MOL0     O68610   6.243   7.729   7.514 -0.1012  0.6674  0.0452
  498MOL0     C68611   6.261   7.709   7.651 -0.6034 -0.6083 -0.8796
  498MOL0     C68612   6.194   7.590   7.697 -1.4245 -0.7743 -0.3306
  498MOL0     C68613   6.189   7.564   7.839 -0.5356 -0.3099 -0.0258
  498MOL0     C68614   6.094   7.455   7.868  0.0288  0.7317  0.2445
  498MOL0     C68615   6.263   7.646   7.930  0.6351 -0.4236  0.0851
  498MOL0     C68616   6.286   7.617   8.068 -0.4027 -0.2727  0.9452
  498MOL0     O68617   6.223   7.507   8.119  0.5904  0.1263  1.0686
  498MOL0     C68618   6.206   7.496   8.254  0.0530 -0.1286  1.1470
  498MOL0     C68619   6.306   7.439   8.336 -0.0221 -0.7051 -0.1612
  498MOL0     C68620   6.277   7.422   8.472  0.2200 -0.4617 -0.5906
  498MOL0     C68621   6.158   7.470   8.531  0.0907 -0.2967 -0.5235
  498MOL0     O68622   6.155   7.463   8.662 -0.0702  0.2698 -0.3169
  498MOL0     C68623   6.042   7.501   8.734  0.0583  0.2898 -0.4028
  498MOL0     C68624   6.088   7.513   8.890  0.7104 -0.1732  0.4773
  498MOL0     C68625   5.985   7.577   8.977  0.4648  0.6823  0.2961
  498MOL0     C68626   6.018   7.569   9.121  0.1323 -0.6525 -0.0768
  498MOL0     C68627   5.987   7.422   9.185  0.3897  0.0643 -0.0741
  498MOL0     C68628   6.026   7.402   9.329 -0.0849 -0.3625  0.4370
  498MOL0     C68629   6.000   7.259   9.379  0.4913  0.7190  0.0123
  498MOL0     C68630   6.071   7.143   9.299 -0.9741  0.8720 -1.2622
  498MOL0    Cl68631   6.102   6.999   9.406  0.0981  0.1422  0.3116
  498MOL0     C68632   6.056   7.526   8.445 -0.0474  0.3051  0.9251
  498MOL0     C68633   6.081   7.533   8.307 -0.3262 -0.5682  0.0097
  498MOL0     O68634   6.369   7.685   8.131 -0.3239  0.4362 -0.0739
  498MOL0     C68635   6.320   7.761   7.883 -0.3337 -0.4412  0.6699
  498MOL0     C68636   6.318   7.799   7.750  0.2332 -0.8206 -0.2517
  498MOL0     N68637   6.186   7.791   6.997 -0.1175 -0.2761  1.0072
  498MOL0     N68638   6.086   7.714   6.979  0.7188 -0.2654 -0.1085
  498MOL0     C68639   5.770   8.439   6.530 -0.4910 -0.8209  0.1101
  498MOL0     C68640   5.813   8.576   6.544  0.0617 -0.1002 -0.6353
  498MOL0     C68641   6.174   8.885   6.447  0.9228 -0.7179 -0.2974
  498MOL0     C68642   6.309   8.863   6.404  0.2584 -0.3759 -1.1910
  498MOL0     C68643   6.377   8.971   6.345  0.5358  0.8087  0.5732
  498MOL0     C68644   6.315   9.091   6.325 -0.2224 -0.0460 -0.3208
  498MOL0     O68645   6.392   9.187   6.262 -0.0584  0.5462  0.3244
  498MOL0     C68646   6.341   9.318   6.222 -0.1195  0.2673  0.1352
  498MOL0     C68647   6.243   9.321   6.104 -0.4722  0.0394 -0.5410
  498MOL0     C68648   6.244   9.447   6.023 -1.1205  0.6678  0.0734
  498MOL0     C68649   6.163   9.562   6.093  0.4505 -0.1121 -1.2928
  498MOL0     C68650   6.156   9.680   6.004 -0.2863 -0.5788 -0.0852
  498MOL0     C68651   6.161   9.768   5.919  0.4937 -0.6417 -1.2020
  498MOL0     C68652   6.180   9.110   6.363 -0.3455 -0.2534  0.1402
  498MOL0     C68653   6.113   9.007   6.423 -1.4027 -0.7798  1.2353
  498MOL0     C68654   5.976   9.047   6.465 -0.3670 -0.5638  0.3282
  498MOL0     H68655   6.049   8.561   6.293 -1.7918  5.2328  0.2844
  498MOL0     H68656   5.984   8.335   6.286  1.3727 -0.4100  0.7371
  498MOL0     H68657   5.965   8.138   6.472  1.3720 -1.2061 -2.5966
  498MOL0     H68658   5.915   8.139   6.316 -0.0432 -0.1227  0.2981
  498MOL0     H68659   5.744   7.955   6.367  1.3359 -1.2531 -0.6468
  498MOL0     H68660   5.901   7.921   6.449  0.8430  1.4314 -1.7353
  498MOL0     H68661   5.808   8.030   6.666 -0.9716 -1.9789  4.1232
  498MOL0     H68662   5.648   8.004   6.602  0.5395  2.4188  1.1099
  498MOL0     H68663   5.698   7.765   6.571 -2.5737 -0.8710  2.6274
  498MOL0     H68664   5.854   7.797   6.666 -0.0776 -0.6981 -1.6011
  498MOL0     H68665   5.683   7.701   6.790 -0.1796 -0.6710 -2.2799
  498MOL0     H68666   5.564   7.829   6.759  0.6464  0.6248 -2.0806
  498MOL0     H68667   5.811   7.953   6.855  1.1591  0.7235  3.2670
  498MOL0     H68668   5.646   7.978   6.903  0.4431 -0.1612 -0.6092
  498MOL0     H68669   5.635   7.796   7.064  0.4655  0.1958  1.4566
  498MOL0     H68670   5.748   7.903   7.119 -0.9033 -0.3945  1.6028
  498MOL0     H68671   5.839   7.691   7.141  0.8828  2.6302  0.4769
  498MOL0     H68672   5.825   7.649   6.966 -1.1565  0.9215 -0.6658
  498MOL0     H68673   5.960   7.991   7.084 -0.3833  0.8363 -2.9011
  498MOL0     H68674   6.166   8.106   7.102 -1.1911 -0.5998 -2.2676
  498MOL0     H68675   6.322   8.047   7.066  2.6732 -0.0102  3.2023
  498MOL0     H68676   6.365   8.046   7.297  1.5380 -0.2037 -1.3771
  498MOL0     H68677   6.194   8.071   7.332  1.7434  0.2053  1.4286
  498MOL0     H68678   6.150   7.821   7.307  0.8608 -2.4893 -1.9735
  498MOL0     H68679   6.318   7.804   7.244  2.8521  1.6470  2.0263
  498MOL0     H68680   6.420   7.840   7.460 -0.1914  6.6361 -2.0650
  498MOL0     H68681   6.286   7.933   7.508 -0.4299  0.9651 -1.7162
  498MOL0     H68682   6.144   7.532   7.620  0.7545 -0.1393 -2.3211
  498MOL0     H68683   6.045   7.417   7.778 -0.8214  1.1981  0.5033
  498MOL0     H68684   6.003   7.484   7.921  0.0602  2.2117 -0.4638
  498MOL0     H68685   6.140   7.366   7.913  0.8899  1.8914  1.7755
  498MOL0     H68686   6.401   7.406   8.296  0.2394  1.5326 -1.5386
  498MOL0     H68687   6.342   7.369   8.541 -0.4930 -2.2685 -1.2288
  498MOL0     H68688   5.996   7.596   8.705 -0.5015  0.0526 -0.3119
  498MOL0     H68689   5.964   7.424   8.732  2.1952 -1.9944 -0.5960
  498MOL0     H68690   6.103   7.409   8.920  0.2270 -0.0761  1.0632
  498MOL0     H68691   6.184   7.567   8.887 -0.4415  2.0404 -2.8320
  498MOL0     H68692   5.884   7.537   8.959  0.2798  1.6827 -0.9666
  498MOL0     H68693   5.981   7.677   8.935  1.1942  0.5466 -0.1026
  498MOL0     H68694   5.957   7.642   9.175 -0.3483 -1.2953  0.2564
  498MOL0     H68695   6.127   7.577   9.122  0.1507 -0.5600 -1.1979
  498MOL0     H68696   5.882   7.390   9.184  1.1656 -3.2109  2.5580
  498MOL0     H68697   6.054   7.354   9.131  0.1325  0.1556 -0.5145
  498MOL0     H68698   5.984   7.472   9.401  1.2554  0.4206  0.4821
  498MOL0     H68699   6.134   7.420   9.338  0.3484 -1.8288 -1.2370
  498MOL0     H68700   5.893   7.249   9.357  0.4863 -0.4953  0.5111
  498MOL0     H68701   6.016   7.258   9.487 -0.9923  0.2397  0.2503
  498MOL0     H68702   6.162   7.178   9.249 -0.2902  2.9421  1.2645
  498MOL0     H68703   6.009   7.103   9.217 -1.7330 -1.1295  0.2168
  498MOL0     H68704   5.958   7.552   8.483 -0.1546 -3.1316  3.5389
  498MOL0     H68705   6.005   7.558   8.234 -0.7469 -1.2606  0.1907
  498MOL0     H68706   6.356   7.836   7.952  0.2555  1.4684 -1.5911
  498MOL0     H68707   6.361   7.896   7.725 -0.4034 -0.2059  0.9867
  498MOL0     H68708   5.686   8.398   6.586 -0.6161  2.5150  2.6457
  498MOL0     H68709   5.757   8.642   6.610  1.2696 -0.9108  1.3096
  498MOL0     H68710   6.358   8.767   6.414 -2.8745 -1.9855 -0.0152
  498MOL0     H68711   6.480   8.967   6.311  0.6634  2.0348  0.7677
  498MOL0     H68712   6.291   9.362   6.309  0.5552 -1.3130  1.4015
  498MOL0     H68713   6.429   9.382   6.209  2.4677 -2.9435  0.2159
  498MOL0     H68714   6.142   9.312   6.146  0.0751 -0.4516  0.7406
  498MOL0     H68715   6.253   9.231   6.041  0.4893  0.4226 -0.9536
  498MOL0     H68716   6.345   9.481   5.994 -0.9992  1.9696  1.8497
  498MOL0     H68717   6.200   9.429   5.924 -1.1188  3.1159 -0.4512
  498MOL0     H68718   6.197   9.597   6.191  1.2866  0.1042 -1.6542
  498MOL0     H68719   6.058   9.535   6.106  0.2875  0.9530 -0.2124
  498MOL0     H68720   6.165   9.846   5.846 -0.4144 -0.9677 -1.6064
  498MOL0     H68721   6.141   9.208   6.336  0.6591  0.4561  1.1898
  498MOL0     H68722   5.925   9.125   6.408 -3.1070 -2.2203  0.3530
  498MOL0     H68723   5.905   8.964   6.468  0.0297 -0.9336 -0.3107
  498MOL0     H68724   5.981   9.085   6.568  0.4809 -2.6043  1.0879
  499MOL0     O68725   5.821   3.158   5.867  0.0154  0.0981 -0.6514
  499MOL0     C68726   5.751   3.101   5.785  0.1130 -0.6190 -0.0692
  499MOL0     O68727   5.753   3.124   5.650 -0.7492  0.3562 -0.5121
  499MOL0     C68728   5.857   3.204   5.609 -0.4157 -0.1639  0.2690
  499MOL0     C68729   5.821   3.326   5.550  0.8646 -0.0083 -0.6667
  499MOL0     C68730   5.913   3.418   5.489  0.2401  0.3437 -0.1817
  499MOL0     C68731   6.052   3.378   5.487 -0.2399  0.4968  0.6684
  499MOL0     O68732   6.143   3.466   5.445 -0.9229  0.4649  0.5307
  499MOL0     C68733   6.174   3.564   5.547  0.2982 -0.0071  0.4006
  499MOL0     C68734   6.323   3.599   5.555 -0.3721  0.5389 -0.9128
  499MOL0     C68735   6.403   3.484   5.614  0.8343  0.5328  0.3341
  499MOL0     C68736   6.548   3.531   5.643  0.9009  0.8952 -0.2304
  499MOL0     C68737   6.583   3.508   5.796 -0.2899  0.0278  0.2028
  499MOL0     C68738   6.731   3.539   5.821 -0.2095  0.2743 -0.1112
  499MOL0     C68739   6.772   3.502   5.965  0.2914 -0.5503  0.3986
  499MOL0     C68740   6.929   3.516   5.989 -0.1235  0.0397 -0.6753
  499MOL0     N68741   6.998   3.391   5.948  0.0930  0.0687  0.2131
  499MOL0     C68742   7.002   3.269   6.012 -0.6201 -0.3459  0.3858
  499MOL0     C68743   7.082   3.195   5.939 -0.0786 -0.2109 -0.8043
  499MOL0     C68744   7.091   3.049   5.950  0.0518 -0.3622 -0.1767
  499MOL0     C68745   6.968   2.980   5.904  0.3045  0.5336  0.0192
  499MOL0     C68746   6.973   2.827   5.909  0.4035  1.5578 -0.2353
  499MOL0     C68747   6.854   2.744   5.846  0.0308 -0.1036 -0.4639
  499MOL0     O68748   6.892   2.720   5.703  0.6708  0.2134  0.3823
  499MOL0     C68749   6.991   2.630   5.661  0.8485  1.0280 -0.2952
  499MOL0     C68750   7.055   2.532   5.743 -0.3025 -1.3115  0.0669
  499MOL0     C68751   7.153   2.454   5.691 -0.3364  0.3831  1.4062
  499MOL0     C68752   7.247   2.374   5.784  0.1070  0.9131 -0.1715
  499MOL0     C68753   7.174   2.455   5.551  0.6113  0.6494 -0.7233
  499MOL0     C68754   7.263   2.365   5.489  0.4876  0.1351  0.1879
  499MOL0     O68755   7.336   2.415   5.397 -0.9438  0.0495  0.2708
  499MOL0     C68756   7.464   2.362   5.394  0.0602  0.9321  0.6541
  499MOL0     C68757   7.552   2.407   5.488 -0.3108  0.0218 -1.1362
  499MOL0     C68758   7.684   2.360   5.483  0.0742  0.2511  0.8839
  499MOL0     C68759   7.733   2.283   5.383 -0.3680  0.1667  1.5857
  499MOL0     O68760   7.871   2.268   5.375  0.4715 -0.2551 -0.2967
  499MOL0     C68761   7.914   2.147   5.304 -1.4967  0.7478 -0.0687
  499MOL0     C68762   8.060   2.125   5.316 -0.8314  0.9689 -0.0646
  499MOL0     C68763   8.107   1.971   5.291  0.8877  0.1756 -0.5953
  499MOL0     C68764   8.070   1.892   5.410  0.3201  0.1515  0.1388
  499MOL0     C68765   8.107   1.738   5.397 -0.0683  0.0823 -0.3733
  499MOL0     C68766   8.010   1.655   5.481  0.2360  0.7594  0.5377
  499MOL0     C68767   8.022   1.506   5.492 -0.4493 -0.4423 -0.6920
  499MOL0     C68768   8.128   1.474   5.592  1.0726  0.7057 -1.8290
  499MOL0    Cl68769   8.151   1.290   5.596 -0.0859  0.5091 -0.1418
  499MOL0     C68770   7.644   2.235   5.282 -0.3948  0.8590  0.7798
  499MOL0     C68771   7.508   2.272   5.293 -0.2586  0.0787  0.2478
  499MOL0     O68772   7.244   2.243   5.506 -0.3398  0.0622 -0.6638
  499MOL0     C68773   7.096   2.545   5.471 -0.4930  0.6170 -0.5153
  499MOL0     C68774   7.010   2.632   5.528  0.1313  0.8664 -0.1455
  499MOL0     N68775   7.125   3.262   5.825  0.9124 -0.4516 -0.9507
  499MOL0     N68776   7.083   3.385   5.837 -0.1901 -0.9265 -0.1761
  499MOL0     C68777   6.082   3.252   5.548 -0.6176  0.6116 -0.3048
  499MOL0     C68778   5.992   3.159   5.591 -0.3974 -0.2252  0.0607
  499MOL0     C68779   5.643   3.022   5.851  0.2488 -0.5007 -0.0346
  499MOL0     C68780   5.606   3.036   5.987 -0.3234 -0.6557 -1.1957
  499MOL0     C68781   5.492   2.975   6.036 -0.1294 -0.5611  0.1064
  499MOL0     C68782   5.415   2.894   5.967 -0.6357  0.6979 -0.8425
  499MOL0     O68783   5.307   2.843   6.028 -0.2577 -0.7495  0.4969
  499MOL0     C68784   5.278   2.702   6.024  1.0207 -0.9183 -0.5824
  499MOL0     C68785   5.256   2.639   6.167 -0.2464  0.4923 -0.4495
  499MOL0     C68786   5.148   2.719   6.236 -0.2897 -0.2294  0.5218
  499MOL0     C68787   5.150   2.676   6.372 -0.3436  0.7229  0.1509
  499MOL0     C68788   5.048   2.736   6.457 -0.8018  0.0626 -0.0762
  499MOL0     C68789   4.965   2.770   6.538 -0.0221 -0.9518 -0.5686
  499MOL0     C68790   5.461   2.855   5.842 -0.0740 -0.1744 -0.8647
  499MOL0     C68791   5.571   2.922   5.779  0.8979  0.8634 -0.2154
  499MOL0     C68792   5.634   2.871   5.648  0.1749 -0.3215 -0.4023
  499MOL0     H68793   5.718   3.360   5.544  0.7139  0.1095  1.5708
  499MOL0     H68794   5.880   3.513   5.449  1.5787 -0.3133 -3.1169
  499MOL0     H68795   6.139   3.537   5.647  2.4485 -1.1776  0.9051
  499MOL0     H68796   6.130   3.658   5.512  0.7833 -0.7079 -2.3054
  499MOL0     H68797   6.359   3.632   5.457 -0.1851  1.1227 -0.6498
  499MOL0     H68798   6.332   3.683   5.624 -1.3215 -0.2961  0.2680
  499MOL0     H68799   6.353   3.454   5.706  1.1174 -0.4744  0.1705
  499MOL0     H68800   6.395   3.407   5.537 -1.6434 -0.8765  1.8934
  499MOL0     H68801   6.609   3.483   5.566 -0.4297  0.2479 -0.9133
  499MOL0     H68802   6.559   3.636   5.613  1.6062  0.5561 -1.2071
  499MOL0     H68803   6.567   3.406   5.831  1.5767  1.2436  5.4761
  499MOL0     H68804   6.522   3.562   5.870 -3.3999 -2.5614 -0.2585
  499MOL0     H68805   6.783   3.471   5.753 -3.1339 -1.7282 -0.5154
  499MOL0     H68806   6.755   3.645   5.807  0.6900  0.2428  1.0718
  499MOL0     H68807   6.739   3.398   5.975 -0.2309 -0.5783 -1.2898
  499MOL0     H68808   6.704   3.552   6.036 -0.7515 -3.8349  1.9119
  499MOL0     H68809   6.975   3.599   5.934  0.0075 -0.8853 -1.9830
  499MOL0     H68810   6.953   3.517   6.096 -1.7980 -0.1390 -0.2562
  499MOL0     H68811   6.968   3.247   6.113  2.5135 -1.2198  1.3607
  499MOL0     H68812   7.112   3.020   6.053  1.7710  2.4835  0.4008
  499MOL0     H68813   7.175   3.015   5.888  1.1043  1.1724  0.3402
  499MOL0     H68814   6.892   3.021   5.972  0.1476  0.1416  0.0815
  499MOL0     H68815   6.949   3.029   5.808  1.9798 -0.4756 -0.8783
  499MOL0     H68816   7.066   2.796   5.861  1.7857  1.9966  2.0061
  499MOL0     H68817   6.990   2.797   6.012 -1.2951  2.1131  0.2487
  499MOL0     H68818   6.830   2.654   5.904 -1.3830  1.2607  1.1790
  499MOL0     H68819   6.763   2.804   5.845  0.7666  1.0362 -0.4744
  499MOL0     H68820   7.035   2.536   5.850  1.6659 -0.3130  0.4569
  499MOL0     H68821   7.224   2.267   5.796 -3.3025  1.4752 -0.6596
  499MOL0     H68822   7.252   2.415   5.885 -0.0447 -0.6176  0.4862
  499MOL0     H68823   7.350   2.383   5.748  0.8391 -1.1105  1.2204
  499MOL0     H68824   7.533   2.483   5.563  1.1977  0.9274 -1.6145
  499MOL0     H68825   7.753   2.403   5.554 -0.8046 -0.8941  2.4831
  499MOL0     H68826   7.862   2.060   5.344 -1.0306  0.1526 -0.7421
  499MOL0     H68827   7.888   2.164   5.200 -0.4081 -2.1053 -0.8948
  499MOL0     H68828   8.108   2.194   5.246 -0.4664  1.2541  0.4709
  499MOL0     H68829   8.085   2.165   5.414  2.7451  3.0204 -1.6203
  499MOL0     H68830   8.215   1.962   5.278  1.2805 -0.0193  2.2512
  499MOL0     H68831   8.064   1.923   5.202  1.9706  0.0671 -1.0778
  499MOL0     H68832   7.964   1.906   5.432  0.4534  2.5065 -0.4212
  499MOL0     H68833   8.128   1.924   5.497  1.3780  0.7124 -0.7348
  499MOL0     H68834   8.102   1.712   5.291  2.6929 -1.6634 -0.1767
  499MOL0     H68835   8.205   1.721   5.442 -0.3402 -0.9045 -0.1340
  499MOL0     H68836   7.909   1.670   5.442 -0.7229 -2.1118  1.6564
  499MOL0     H68837   8.012   1.684   5.587  1.6587 -2.5818  1.5527
  499MOL0     H68838   8.048   1.468   5.392 -1.2879  1.8914 -1.8850
  499MOL0     H68839   7.925   1.457   5.507 -0.8831  0.5067 -0.2959
  499MOL0     H68840   8.093   1.494   5.694  3.3896 -0.2428 -0.7744
  499MOL0     H68841   8.226   1.516   5.568  2.5432 -1.3191  0.2445
  499MOL0     H68842   7.683   2.173   5.202  3.4575  3.0343  0.7721
  499MOL0     H68843   7.443   2.238   5.213  2.0188 -1.8062 -0.9640
  499MOL0     H68844   7.102   2.546   5.362  2.3627  1.1574 -0.4388
  499MOL0     H68845   6.946   2.695   5.467  0.0822  0.4205 -0.5626
  499MOL0     H68846   6.189   3.233   5.556 -0.4353  2.1526  1.8778
  499MOL0     H68847   6.024   3.059   5.619  3.8582  0.1953 -2.4639
  499MOL0     H68848   5.651   3.110   6.052 -1.2029  0.7255 -2.1218
  499MOL0     H68849   5.464   3.015   6.133 -0.3172  1.4144 -0.7156
  499MOL0     H68850   5.186   2.686   5.967  1.9842  0.6206 -2.7295
  499MOL0     H68851   5.349   2.642   5.967  0.6751 -0.4071 -1.5740
  499MOL0     H68852   5.350   2.648   6.222  0.7261  4.0796 -2.3979
  499MOL0     H68853   5.226   2.535   6.151 -2.2297  0.4495  2.6753
  499MOL0     H68854   5.164   2.827   6.228 -1.3123 -0.1357 -0.3907
  499MOL0     H68855   5.049   2.709   6.192 -0.4579 -2.3539  1.2988
  499MOL0     H68856   5.246   2.711   6.411  0.4800  1.4382 -2.3283
  499MOL0     H68857   5.162   2.568   6.384  0.1235  0.7530 -0.0290
  499MOL0     H68858   4.877   2.797   6.593  0.0550  3.5215 -2.2672
  499MOL0     H68859   5.395   2.790   5.786 -2.2291  2.9887 -2.2516
  499MOL0     H68860   5.616   2.940   5.564 -2.0269  2.5009  2.1423
  499MOL0     H68861   5.742   2.878   5.660 -0.1461  0.4291  2.8141
  499MOL0     H68862   5.588   2.774   5.631  1.9533 -1.1100 -0.9550
  500MOL0     O68863  10.141   1.715   4.712 -0.2033  0.2483 -0.3747
  500MOL0     C68864  10.121   1.590   4.723 -0.1383 -0.2595  0.1998
  500MOL0     O68865  10.068   1.508   4.621  0.1860  0.9454 -0.5915
  500MOL0     C68866  10.033   1.565   4.508 -0.1928  0.3229  0.4822
  500MOL0     C68867  10.141   1.605   4.430  0.7341 -0.6897  0.1532
  500MOL0     C68868  10.122   1.646   4.302 -1.0552 -0.1672 -0.5640
  500MOL0     C68869   9.994   1.657   4.251  0.3050 -0.5994 -0.3807
  500MOL0     O68870   9.960   1.710   4.128  0.7590 -0.7460  0.1364
  500MOL0     C68871  10.048   1.806   4.072 -0.0051  0.3093 -0.1617
  500MOL0     C68872  10.021   1.852   3.929  0.5097  0.5679  0.3620
  500MOL0     C68873  10.118   1.972   3.890 -0.8516  0.4652  0.1190
  500MOL0     C68874  10.110   2.002   3.746 -0.9396  0.1206  0.2146
  500MOL0     C68875  10.222   2.100   3.695  0.3085 -0.3701 -0.1624
  500MOL0     C68876  10.341   2.018   3.635 -0.7478  0.1748  0.0939
  500MOL0     C68877  10.456   2.120   3.588  0.4116  0.9417 -0.3731
  500MOL0     C68878  10.432   2.175   3.450 -0.1646 -0.5510 -0.9187
  500MOL0     N68879  10.540   2.274   3.417  0.4007 -0.3161 -0.1994
  500MOL0     C68880  10.666   2.236   3.391  1.0185 -0.5589 -0.7086
  500MOL0     C68881  10.729   2.347   3.382 -0.7093 -0.6482 -0.2211
  500MOL0     C68882  10.883   2.369   3.341  0.7293  0.3230  0.6915
  500MOL0     C68883  10.963   2.354   3.461  0.3344 -0.0031 -0.5573
  500MOL0     C68884  11.105   2.303   3.424  1.0282 -0.0357  1.0858
  500MOL0     C68885  11.211   2.328   3.539  0.3739  0.7434  0.5986
  500MOL0     O68886  11.183   2.231   3.640 -0.3080  1.0048 -0.1005
  500MOL0     C68887  11.290   2.165   3.696 -0.3912  0.0846  0.5994
  500MOL0     C68888  11.257   2.124   3.823  0.2155 -0.1662 -0.3631
  500MOL0     C68889  11.350   2.071   3.915  0.0452  0.5008  0.8676
  500MOL0     C68890  11.288   2.052   4.044 -0.5734  0.3004 -0.2058
  500MOL0     C68891  11.474   2.028   3.863 -0.1834 -0.0109 -0.6216
  500MOL0     C68892  11.586   1.988   3.951  0.0853  0.1888 -0.5882
  500MOL0     O68893  11.719   1.988   3.897 -0.1247 -0.0183 -0.6049
  500MOL0     C68894  11.828   1.959   3.975  1.1562 -0.5923  0.4719
  500MOL0     C68895  11.856   1.828   3.995  0.7474  0.5945  0.6317
  500MOL0     C68896  11.974   1.801   4.058  0.2094  0.3978  0.2442
  500MOL0     C68897  12.050   1.902   4.126  0.9669  0.2927  0.1764
  500MOL0     O68898  12.151   1.864   4.201 -0.0761 -0.1254  0.6231
  500MOL0     C68899  12.181   1.946   4.308 -0.0542 -0.4750  0.1552
  500MOL0     C68900  12.283   1.872   4.400 -0.0216  0.0639  0.0896
  500MOL0     C68901  12.199   1.792   4.501  0.3156 -0.8177  1.1227
  500MOL0     C68902  12.299   1.704   4.583 -0.1091 -0.5456  0.1644
  500MOL0     C68903  12.223   1.617   4.689 -0.3988 -0.2627  0.7003
  500MOL0     C68904  12.165   1.487   4.627  0.0124 -0.6333  0.0922
  500MOL0     C68905  12.104   1.418   4.748 -0.1492  0.4519 -0.6212
  500MOL0     C68906  12.087   1.269   4.713 -0.6947  0.3286  0.4973
  500MOL0    Cl68907  12.003   1.236   4.564 -0.3625 -0.6193  0.3138
  500MOL0     C68908  12.010   2.033   4.108  0.5096 -0.3555  0.8657
  500MOL0     C68909  11.898   2.059   4.032 -0.3816 -0.4683 -0.6449
  500MOL0     O68910  11.554   1.937   4.059 -0.2331 -0.8520 -0.0438
  500MOL0     C68911  11.506   2.060   3.729  0.4968 -0.3036  0.1489
  500MOL0     C68912  11.415   2.126   3.646 -0.3897 -0.0407 -0.3193
  500MOL0     N68913  10.643   2.455   3.405 -0.1712 -0.6026  0.0736
  500MOL0     N68914  10.524   2.403   3.428 -0.2854 -0.4469 -0.0064
  500MOL0     C68915   9.882   1.608   4.327 -0.1083  1.3059  1.4540
  500MOL0     C68916   9.907   1.560   4.455  0.1314 -0.0268 -0.0851
  500MOL0     C68917  10.141   1.523   4.856 -0.3050  0.8290 -0.3915
  500MOL0     C68918  10.147   1.383   4.855  0.7215 -0.3672  0.7087
  500MOL0     C68919  10.194   1.311   4.972 -0.1589 -0.0231 -0.1950
  500MOL0     C68920  10.226   1.383   5.093  0.5094  0.6003  0.3067
  500MOL0     O68921  10.251   1.324   5.219 -0.5159  1.1575 -0.2059
  500MOL0     C68922  10.291   1.187   5.226 -0.2587 -0.7725  0.3084
  500MOL0     C68923  10.360   1.143   5.353 -0.3632  0.2603  0.7642
  500MOL0     C68924  10.472   1.238   5.399 -0.8388  0.1437  0.3650
  500MOL0     C68925  10.607   1.207   5.315 -0.3028 -0.8605  0.1807
  500MOL0     C68926  10.711   1.309   5.347  0.2624  0.0843  0.3098
  500MOL0     C68927  10.802   1.382   5.374 -0.2838 -0.5935  1.1114
  500MOL0     C68928  10.196   1.519   5.094  0.4110  0.5789  0.2528
  500MOL0     C68929  10.159   1.590   4.978 -0.5762 -0.5973 -0.2488
  500MOL0     C68930  10.154   1.742   4.991  0.5499  0.8985 -0.4413
  500MOL0     H68931  10.240   1.609   4.474  0.7375 -1.5621  0.2477
  500MOL0     H68932  10.206   1.674   4.239 -2.5624  4.1321 -0.9986
  500MOL0     H68933  10.153   1.775   4.064 -0.1004  0.3504 -1.9956
  500MOL0     H68934  10.041   1.897   4.133 -0.2675  0.2310 -0.0755
  500MOL0     H68935  10.033   1.766   3.863  1.2620  1.4051 -0.6115
  500MOL0     H68936   9.916   1.885   3.920  0.7741  1.1379 -0.9104
  500MOL0     H68937  10.103   2.067   3.943  1.6111  2.5989 -2.6327
  500MOL0     H68938  10.216   1.924   3.898 -2.1521 -2.1692  1.6557
  500MOL0     H68939  10.123   1.905   3.696  1.4215  1.1003 -1.2183
  500MOL0     H68940  10.010   2.032   3.712 -1.5571  0.4112  2.1731
  500MOL0     H68941  10.251   2.169   3.775  0.7490 -0.2335 -0.4341
  500MOL0     H68942  10.188   2.167   3.617 -0.0972 -0.2916  0.0817
  500MOL0     H68943  10.382   1.947   3.707 -0.4086 -0.1829 -0.4382
  500MOL0     H68944  10.311   1.958   3.549 -2.2859  3.7807 -2.1224
  500MOL0     H68945  10.550   2.067   3.576  1.4160  2.5600  0.0655
  500MOL0     H68946  10.481   2.194   3.665  1.8185 -1.5662  1.7431
  500MOL0     H68947  10.442   2.096   3.375  0.9345  0.1728 -1.5640
  500MOL0     H68948  10.337   2.229   3.453 -0.0421 -0.3690 -0.0104
  500MOL0     H68949  10.699   2.134   3.374  2.5544 -0.2880  0.4494
  500MOL0     H68950  10.911   2.464   3.295 -1.7464 -0.2025 -2.2318
  500MOL0     H68951  10.906   2.293   3.266 -1.7059 -0.6139  0.8170
  500MOL0     H68952  10.978   2.450   3.512 -2.3166  0.2661 -0.1423
  500MOL0     H68953  10.929   2.291   3.544  2.6406 -0.6249 -0.0028
  500MOL0     H68954  11.101   2.195   3.408 -2.9616 -0.0309  1.0010
  500MOL0     H68955  11.129   2.344   3.325  0.1553  0.3114  1.0070
  500MOL0     H68956  11.312   2.315   3.499  1.0465  2.7105  1.5238
  500MOL0     H68957  11.220   2.431   3.576  3.1606 -0.0835  2.5048
  500MOL0     H68958  11.158   2.155   3.856 -0.5352 -2.3233 -0.4568
  500MOL0     H68959  11.203   2.119   4.058  0.7615  1.8717  0.7013
  500MOL0     H68960  11.357   2.069   4.127 -3.3933  0.3875  2.2859
  500MOL0     H68961  11.255   1.948   4.055 -3.5754  1.2450  0.3912
  500MOL0     H68962  11.796   1.758   3.938  1.5462  0.9414 -0.6863
  500MOL0     H68963  12.000   1.696   4.059  0.5910  0.4780  1.6418
  500MOL0     H68964  12.226   2.044   4.293  1.7219 -0.7252  3.0636
  500MOL0     H68965  12.085   1.966   4.357  0.5653  0.6259  0.9716
  500MOL0     H68966  12.343   1.804   4.338 -0.4763 -1.0753  0.8700
  500MOL0     H68967  12.357   1.941   4.441  1.8502 -1.7293 -0.0596
  500MOL0     H68968  12.128   1.733   4.443  0.8921 -2.3790  1.9518
  500MOL0     H68969  12.150   1.864   4.567  0.4952  1.6782 -1.2830
  500MOL0     H68970  12.359   1.778   4.637  1.8101 -1.2655 -0.8933
  500MOL0     H68971  12.341   1.630   4.515 -1.1568 -1.2108  0.2151
  500MOL0     H68972  12.294   1.593   4.769  0.3239  0.1199  0.1869
  500MOL0     H68973  12.143   1.678   4.729 -1.2320 -1.9168  1.6636
  500MOL0     H68974  12.248   1.437   4.577  0.1089 -1.0575  0.6684
  500MOL0     H68975  12.090   1.511   4.551  1.8011  1.1932 -1.2060
  500MOL0     H68976  12.008   1.466   4.769 -1.4390 -2.1974 -0.0292
  500MOL0     H68977  12.156   1.441   4.841 -0.0770  0.7296 -0.7304
  500MOL0     H68978  12.027   1.226   4.794 -0.1120 -2.1253 -0.3072
  500MOL0     H68979  12.182   1.216   4.701  1.1345  3.2759  0.9694
  500MOL0     H68980  12.078   2.109   4.146  2.2157 -2.2021  1.6601
  500MOL0     H68981  11.885   2.162   4.000 -0.7720 -0.9771 -2.2189
  500MOL0     H68982  11.600   2.031   3.684  0.2634 -2.2691  0.8413
  500MOL0     H68983  11.446   2.129   3.542  2.8956 -1.3495  0.5115
  500MOL0     H68984   9.783   1.610   4.282  0.0697  2.9767  1.0697
  500MOL0     H68985   9.826   1.510   4.508  1.6686 -1.8454  0.6558
  500MOL0     H68986  10.122   1.325   4.767  0.9072  1.8088 -0.8614
  500MOL0     H68987  10.196   1.205   4.993  0.7542  0.1963  0.8943
  500MOL0     H68988  10.204   1.124   5.205 -1.8713  2.2911 -3.6029
  500MOL0     H68989  10.360   1.173   5.143 -1.7413 -0.1542 -1.0962
  500MOL0     H68990  10.413   1.050   5.332 -1.8976 -0.9759  2.1240
  500MOL0     H68991  10.280   1.130   5.426 -0.5763 -1.1483  0.3050
  500MOL0     H68992  10.431   1.338   5.379 -0.4845  0.0705 -0.8038
  500MOL0     H68993  10.498   1.224   5.505 -2.6897 -0.5644  0.7678
  500MOL0     H68994  10.585   1.213   5.208  1.3846 -2.1556 -0.3049
  500MOL0     H68995  10.654   1.108   5.326  2.8653  0.4577 -0.3368
  500MOL0     H68996  10.878   1.451   5.403  1.7266 -4.2094  5.7433
  500MOL0     H68997  10.194   1.560   5.195  0.8448 -1.9523  1.3639
  500MOL0     H68998  10.144   1.762   5.098 -0.2853  1.4160 -0.6121
  500MOL0     H68999  10.250   1.776   4.951 -0.4011  0.2778 -3.5062
  500MOL0     H69000  10.066   1.778   4.936 -0.3773  1.0564  1.0943
  501MOL0     O69001   1.536   3.508   7.565  0.2778  0.2299 -0.1911
  501MOL0     C69002   1.534   3.588   7.471 -0.9301  0.5514 -0.3473
  501MOL0     O69003   1.482   3.567   7.357  0.1652 -0.2448  0.1570
  501MOL0     C69004   1.504   3.442   7.293  0.5768  0.6598 -0.9118
  501MOL0     C69005   1.599   3.349   7.327  1.0793  0.1229 -0.6909
  501MOL0     C69006   1.586   3.223   7.268  0.0682  0.0639 -0.0134
  501MOL0     C69007   1.506   3.197   7.158 -0.8034 -0.0628 -0.7360
  501MOL0     O69008   1.517   3.075   7.103 -0.7896 -0.0010  0.6650
  501MOL0     C69009   1.414   2.978   7.131  0.3507 -1.1101 -0.5247
  501MOL0     C69010   1.458   2.837   7.092 -0.3076 -0.1467 -0.2102
  501MOL0     C69011   1.346   2.740   7.119  0.2472 -0.0273  0.3063
  501MOL0     C69012   1.375   2.611   7.041  0.4879  0.8239 -0.1085
  501MOL0     C69013   1.505   2.530   7.088  1.1211 -0.7502 -0.3011
  501MOL0     C69014   1.458   2.464   7.223  0.2524 -0.3747 -0.7805
  501MOL0     C69015   1.557   2.371   7.286 -0.2422 -0.8556 -0.4817
  501MOL0     C69016   1.670   2.455   7.343  0.6810 -0.1333 -0.2587
  501MOL0     N69017   1.748   2.368   7.431  0.9528  0.1943 -0.0167
  501MOL0     C69018   1.783   2.233   7.397  0.9425  0.4779 -0.0886
  501MOL0     C69019   1.792   2.164   7.518 -0.4276  0.3790  0.8655
  501MOL0     C69020   1.808   2.009   7.510 -0.1517 -0.3381  0.3720
  501MOL0     C69021   1.939   1.959   7.459 -0.9192 -0.6575  0.1656
  501MOL0     C69022   2.065   2.025   7.538  0.1017  0.4980  0.2575
  501MOL0     C69023   2.188   1.952   7.476 -0.5513  0.3684  0.3707
  501MOL0     O69024   2.187   1.811   7.502 -0.3031  0.5698  0.1069
  501MOL0     C69025   2.226   1.773   7.628  0.2180 -0.2884 -1.2899
  501MOL0     C69026   2.233   1.633   7.654  0.1277  0.3739  0.0030
  501MOL0     C69027   2.260   1.579   7.783 -0.3412  0.1815 -0.1547
  501MOL0     C69028   2.280   1.430   7.805 -0.7398 -0.4697  1.2674
  501MOL0     C69029   2.288   1.670   7.888 -0.1519 -0.0592  0.0431
  501MOL0     C69030   2.318   1.629   8.035  0.0557 -0.1837 -0.4747
  501MOL0     O69031   2.416   1.703   8.107  0.3479 -0.8768  0.3219
  501MOL0     C69032   2.466   1.654   8.225 -0.3497 -0.4314 -0.8531
  501MOL0     C69033   2.489   1.739   8.332  0.3861  0.0978  0.6377
  501MOL0     C69034   2.550   1.686   8.452  0.3078 -0.8585 -0.5981
  501MOL0     C69035   2.604   1.557   8.458  0.4981  0.1203  0.8507
  501MOL0     O69036   2.667   1.516   8.573  0.9086  0.5179 -0.2365
  501MOL0     C69037   2.575   1.500   8.676  0.6122  0.2434  1.1546
  501MOL0     C69038   2.613   1.392   8.775  0.0510 -0.0493 -0.6811
  501MOL0     C69039   2.758   1.408   8.820 -0.1696 -0.2857 -0.7956
  501MOL0     C69040   2.807   1.321   8.935 -0.7452 -1.2580 -0.0940
  501MOL0     C69041   2.940   1.383   8.988  0.8534 -0.1426 -0.0451
  501MOL0     C69042   2.975   1.327   9.129  0.4338 -0.0873  0.0906
  501MOL0     C69043   3.107   1.402   9.170  0.3831  0.3722 -0.4598
  501MOL0     C69044   3.189   1.323   9.268 -0.6132 -0.4037 -0.5815
  501MOL0    Cl69045   3.096   1.325   9.417 -0.3225 -0.5398  0.3575
  501MOL0     C69046   2.583   1.477   8.348  0.8878 -0.4148  0.7897
  501MOL0     C69047   2.511   1.524   8.234 -0.6446  0.8524 -0.2288
  501MOL0     O69048   2.257   1.531   8.078  0.0123 -0.8992 -1.1846
  501MOL0     C69049   2.289   1.806   7.859  0.0409  0.3605 -0.0624
  501MOL0     C69050   2.263   1.860   7.733 -0.5135 -0.2524  0.5054
  501MOL0     N69051   1.779   2.268   7.613 -0.4877 -0.5765 -0.2975
  501MOL0     N69052   1.744   2.386   7.558 -0.1651 -0.3302 -0.8142
  501MOL0     C69053   1.419   3.305   7.110 -0.7222  0.0822 -0.1605
  501MOL0     C69054   1.416   3.422   7.181 -0.4652 -0.8890 -0.2031
  501MOL0     C69055   1.602   3.716   7.500 -0.6099  0.2522 -0.1073
  501MOL0     C69056   1.595   3.764   7.629  0.2042 -0.0208  0.3647
  501MOL0     C69057   1.645   3.890   7.660 -0.0214 -0.9842 -0.4349
  501MOL0     C69058   1.721   3.961   7.569  0.5255  1.0479 -1.0350
  501MOL0     O69059   1.779   4.077   7.609 -0.2235  0.4586  0.2337
  501MOL0     C69060   1.898   4.127   7.552  0.1985 -0.2157 -0.2464
  501MOL0     C69061   2.009   4.049   7.609  0.2832 -0.1714  0.3537
  501MOL0     C69062   2.142   4.064   7.535 -0.3632 -0.1004  0.0661
  501MOL0     C69063   2.183   4.007   7.397  0.7862  0.9317  1.1076
  501MOL0     C69064   2.188   4.110   7.292  0.2534  0.1867  1.2721
  501MOL0     C69065   2.195   4.193   7.197  0.1430 -0.2391 -0.2575
  501MOL0     C69066   1.733   3.907   7.444  0.0868 -0.3154  0.9538
  501MOL0     C69067   1.674   3.790   7.406  0.2052 -0.5232 -0.7883
  501MOL0     C69068   1.684   3.741   7.259 -0.7457 -0.6847 -0.6314
  501MOL0     H69069   1.679   3.369   7.397  3.3861 -0.1221 -3.1013
  501MOL0     H69070   1.656   3.143   7.292  1.6240  0.2417 -3.3890
  501MOL0     H69071   1.327   2.994   7.066 -0.5129  0.3947  0.9155
  501MOL0     H69072   1.385   2.984   7.236  0.7190 -0.8985 -0.4330
  501MOL0     H69073   1.476   2.840   6.984 -1.5295  1.6798 -0.4072
  501MOL0     H69074   1.547   2.809   7.148 -1.3590  1.5402  2.5022
  501MOL0     H69075   1.323   2.728   7.225 -1.7868 -0.8757 -0.1833
  501MOL0     H69076   1.253   2.790   7.091 -0.7388 -0.5045  2.5374
  501MOL0     H69077   1.292   2.540   7.050  2.3750 -1.4320  0.6781
  501MOL0     H69078   1.388   2.644   6.938  0.3066 -0.7750 -0.6767
  501MOL0     H69079   1.589   2.600   7.102 -0.6607  1.7153 -1.2868
  501MOL0     H69080   1.532   2.454   7.015 -0.7500  0.6491 -2.5757
  501MOL0     H69081   1.440   2.551   7.287  2.9941  0.4799 -1.0375
  501MOL0     H69082   1.363   2.413   7.208  1.0267 -1.8053 -0.9766
  501MOL0     H69083   1.599   2.299   7.215  3.6507  0.4914  0.2265
  501MOL0     H69084   1.521   2.311   7.370  1.7098  1.2807  2.0618
  501MOL0     H69085   1.739   2.485   7.263  2.1383 -1.5988  0.3811
  501MOL0     H69086   1.637   2.544   7.397 -0.5857  3.9639 -6.6980
  501MOL0     H69087   1.779   2.195   7.295  1.9173  1.4900 -0.5310
  501MOL0     H69088   1.736   1.975   7.435 -3.7321 -0.8341  3.7528
  501MOL0     H69089   1.776   1.959   7.601 -3.2651 -4.0351 -2.4391
  501MOL0     H69090   1.945   1.850   7.468  1.6420 -0.5506  0.3889
  501MOL0     H69091   1.955   1.979   7.352  3.6189  2.2808  1.1351
  501MOL0     H69092   2.066   2.131   7.512 -3.6551  0.2282 -1.6575
  501MOL0     H69093   2.048   2.020   7.646  0.6841  2.5360  0.4803
  501MOL0     H69094   2.193   1.971   7.368  5.5181  0.1409  0.2199
  501MOL0     H69095   2.284   1.992   7.509 -0.4793  2.8881 -2.5417
  501MOL0     H69096   2.224   1.566   7.569  1.5648  2.0891 -1.6149
  501MOL0     H69097   2.376   1.412   7.855  0.6397  0.4668 -0.9081
  501MOL0     H69098   2.277   1.370   7.714  1.6254 -0.4299  1.1011
  501MOL0     H69099   2.198   1.395   7.867 -0.2235 -0.5240  1.9357
  501MOL0     H69100   2.452   1.841   8.325 -1.0706 -0.4889 -0.9705
  501MOL0     H69101   2.549   1.739   8.547 -1.4521 -1.4205 -0.2664
  501MOL0     H69102   2.585   1.598   8.723  1.5628  0.4541  0.5567
  501MOL0     H69103   2.474   1.478   8.641  0.8593  1.9596 -0.8245
  501MOL0     H69104   2.546   1.393   8.861 -1.7015  0.1911 -1.9997
  501MOL0     H69105   2.607   1.297   8.721 -0.9135  0.4025 -1.3983
  501MOL0     H69106   2.767   1.515   8.843 -2.7855 -0.5362  1.9489
  501MOL0     H69107   2.820   1.377   8.735  0.3993  1.5347 -1.0964
  501MOL0     H69108   2.813   1.218   8.898 -2.6218 -1.1343 -0.8558
  501MOL0     H69109   2.733   1.316   9.015 -0.8444  0.3935 -0.0511
  501MOL0     H69110   3.019   1.370   8.913  0.3727  3.4031 -1.3692
  501MOL0     H69111   2.926   1.491   8.997 -1.2882 -0.5261  2.4507
  501MOL0     H69112   2.986   1.218   9.120  2.7892  0.2014 -1.3981
  501MOL0     H69113   2.893   1.349   9.197 -1.2087 -0.5789 -1.6302
  501MOL0     H69114   3.077   1.502   9.203  0.4105  0.6264 -1.1661
  501MOL0     H69115   3.154   1.411   9.071 -6.0063  0.5206 -4.0768
  501MOL0     H69116   3.292   1.355   9.284  0.3035 -2.1609 -2.4838
  501MOL0     H69117   3.193   1.223   9.224 -0.3121 -0.3901 -0.5879
  501MOL0     H69118   2.619   1.375   8.351 -3.5505 -2.3575 -1.7715
  501MOL0     H69119   2.515   1.462   8.145  1.2733  0.2711  0.1973
  501MOL0     H69120   2.310   1.877   7.938 -1.4537 -1.8030  2.4131
  501MOL0     H69121   2.273   1.967   7.714  0.0499 -0.6426 -1.6245
  501MOL0     H69122   1.365   3.280   7.020 -0.4975  0.1661 -0.3210
  501MOL0     H69123   1.351   3.504   7.153  0.2952  0.3393  1.5037
  501MOL0     H69124   1.549   3.708   7.710  0.8520  0.8699  1.3757
  501MOL0     H69125   1.638   3.936   7.758  3.4178  2.0040 -1.3998
  501MOL0     H69126   1.898   4.131   7.442 -1.5032 -2.2253 -0.3895
  501MOL0     H69127   1.908   4.232   7.581  1.3140 -0.7998  1.6887
  501MOL0     H69128   1.981   3.943   7.610 -2.2398  0.4430  0.7288
  501MOL0     H69129   2.020   4.088   7.710  0.1204  0.9004 -0.0360
  501MOL0     H69130   2.173   4.169   7.530 -2.3604  0.5247  0.0334
  501MOL0     H69131   2.206   4.023   7.615 -2.2777  0.1691  1.8161
  501MOL0     H69132   2.114   3.936   7.350 -0.3323  1.6109  1.6682
  501MOL0     H69133   2.282   3.963   7.402  0.5822 -0.1086 -1.7526
  501MOL0     H69134   2.182   4.258   7.113  1.7252 -0.7694 -0.9658
  501MOL0     H69135   1.797   3.957   7.372 -0.9824  0.2970  0.4057
  501MOL0     H69136   1.586   3.723   7.214 -1.9906  0.3317  1.5189
  501MOL0     H69137   1.749   3.808   7.201  0.5090 -1.4712 -0.1588
  501MOL0     H69138   1.735   3.644   7.263 -0.8254 -1.0584 -4.4291
  502MOL0     O69139   7.834  11.392  10.437 -0.1938 -0.3685  0.0762
  502MOL0     C69140   7.901  11.490  10.392 -0.3746  0.1714 -0.0279
  502MOL0     O69141   8.010  11.538  10.441 -0.0312  0.0365 -0.2719
  502MOL0     C69142   8.058  11.509  10.572  0.9653 -0.0717 -0.2006
  502MOL0     C69143   8.191  11.524  10.594  0.0634  0.2980  0.5460
  502MOL0     C69144   8.244  11.478  10.711 -0.7976  0.2345 -0.1155
  502MOL0     C69145   8.167  11.440  10.820 -0.8644  0.2262 -0.3060
  502MOL0     O69146   8.226  11.412  10.949  0.3748  0.6946  0.2985
  502MOL0     C69147   8.321  11.301  10.935  0.1580 -0.9476  0.0532
  502MOL0     C69148   8.270  11.164  10.972 -0.9034  0.6940 -0.7625
  502MOL0     C69149   8.232  11.074  10.856 -0.0141  0.3119 -0.2144
  502MOL0     C69150   8.181  10.934  10.909  1.0004 -0.2628 -0.2396
  502MOL0     C69151   8.122  10.859  10.788  0.3356  0.0328  0.7122
  502MOL0     C69152   8.069  10.722  10.817 -0.8482  0.2434  0.6777
  502MOL0     C69153   8.060  10.637  10.690  0.4109  0.1873  0.2970
  502MOL0     C69154   7.993  10.490  10.705  0.2506 -0.0208  0.4927
  502MOL0     N69155   8.030  10.396  10.598 -0.1156 -0.3734 -0.4060
  502MOL0     C69156   8.145  10.316  10.587 -0.7623 -0.8065  0.2153
  502MOL0     C69157   8.107  10.200  10.523  1.3654  0.0028 -0.7647
  502MOL0     C69158   8.207  10.085  10.512 -0.3896 -0.0273 -0.1150
  502MOL0     C69159   8.159   9.966  10.428 -0.4717 -0.0536  0.1002
  502MOL0     C69160   8.224   9.831  10.471  0.0482  0.6904  0.1448
  502MOL0     C69161   8.178   9.727  10.372  0.1215 -0.1202 -1.1122
  502MOL0     O69162   8.254   9.750  10.247 -0.1673  0.0336  0.2191
  502MOL0     C69163   8.275   9.650  10.160 -0.1795  0.5188 -0.1264
  502MOL0     C69164   8.374   9.668  10.067  0.1241  0.2069  0.0552
  502MOL0     C69165   8.403   9.579   9.965  0.4241  0.0224 -1.0586
  502MOL0     C69166   8.505   9.615   9.867 -0.0742  0.1854  0.0632
  502MOL0     C69167   8.325   9.456   9.961  0.1178 -0.0235  1.0746
  502MOL0     C69168   8.352   9.345   9.859  0.1112  0.0932 -0.8906
  502MOL0     O69169   8.256   9.241   9.856 -0.5422  0.2720 -0.4610
  502MOL0     C69170   8.279   9.114   9.789  0.0826  0.3744 -0.1029
  502MOL0     C69171   8.313   8.998   9.862  0.6261 -0.0444 -0.6417
  502MOL0     C69172   8.346   8.882   9.792  0.6904  0.0016 -0.7227
  502MOL0     C69173   8.360   8.874   9.651  0.7213  0.0149 -0.9920
  502MOL0     O69174   8.395   8.767   9.577 -0.2291 -0.1065  0.4393
  502MOL0     C69175   8.484   8.669   9.641  0.2486  0.4688 -0.6558
  502MOL0     C69176   8.398   8.545   9.681 -1.2074  2.0043  0.7071
  502MOL0     C69177   8.324   8.492   9.557  0.4371 -0.4693 -0.6026
  502MOL0     C69178   8.177   8.550   9.574 -0.9115  0.6449 -0.7581
  502MOL0     C69179   8.091   8.506   9.450 -0.3594  0.0973 -0.2687
  502MOL0     C69180   7.940   8.536   9.468  0.4071 -0.0978  0.0984
  502MOL0     C69181   7.917   8.677   9.424  0.5626  0.1237  0.6600
  502MOL0     C69182   7.771   8.734   9.451  0.9636 -0.2002 -0.2796
  502MOL0    Cl69183   7.664   8.659   9.324  0.2849 -0.9715 -0.0386
  502MOL0     C69184   8.318   8.992   9.578 -0.2178  0.8964  0.2252
  502MOL0     C69185   8.288   9.106   9.646  0.5788 -0.1865 -0.4946
  502MOL0     O69186   8.453   9.349   9.794 -0.5270  1.4662  0.1972
  502MOL0     C69187   8.225   9.437  10.060  0.8792 -0.8669 -0.3735
  502MOL0     C69188   8.203   9.534  10.157  0.3507 -0.0967 -1.0482
  502MOL0     N69189   7.974  10.220  10.492  0.3044  0.2959 -0.1577
  502MOL0     N69190   7.926  10.327  10.537  0.5428 -0.7473 -0.7589
  502MOL0     C69191   8.028  11.418  10.797 -0.7071 -0.1335 -0.4435
  502MOL0     C69192   7.976  11.446  10.669 -0.1839 -0.0596  0.2019
  502MOL0     C69193   7.847  11.552  10.261 -0.0068  0.2789 -0.8168
  502MOL0     C69194   7.895  11.684  10.230 -0.7834 -0.1158  0.5720
  502MOL0     C69195   7.839  11.757  10.119 -0.7809 -0.3251 -0.0440
  502MOL0     C69196   7.761  11.691  10.029 -0.6373 -0.5660  0.3576
  502MOL0     O69197   7.747  11.758   9.912  0.6072 -0.4201  0.3683
  502MOL0     C69198   7.716  11.684   9.794 -0.1304  0.4483  0.2098
  502MOL0     C69199   7.731  11.749   9.658  0.1554 -0.9439  0.2214
  502MOL0     C69200   7.666  11.657   9.547 -0.5767 -0.1770 -0.6758
  502MOL0     C69201   7.539  11.712   9.481  0.0132  0.1158  0.4200
  502MOL0     C69202   7.516  11.623   9.360  0.4995  0.0368  0.2978
  502MOL0     C69203   7.479  11.564   9.258  0.0538  0.2863 -0.5314
  502MOL0     C69204   7.710  11.574  10.066  0.5955  0.5125 -0.6735
  502MOL0     C69205   7.743  11.497  10.180 -0.1105  0.0622 -0.2994
  502MOL0     C69206   7.669  11.371  10.197 -0.1620 -0.2050 -0.4588
  502MOL0     H69207   8.260  11.558  10.518 -0.9951  1.2996  0.0003
  502MOL0     H69208   8.352  11.487  10.725 -0.2943 -3.7889 -0.1181
  502MOL0     H69209   8.395  11.324  11.013 -0.8589 -1.3138  1.1613
  502MOL0     H69210   8.373  11.295  10.839  1.8729  0.5894  0.8262
  502MOL0     H69211   8.350  11.119  11.031 -2.3701  1.7028  2.2330
  502MOL0     H69212   8.194  11.176  11.050 -1.3328  1.4277 -1.2814
  502MOL0     H69213   8.155  11.120  10.793 -0.9799 -1.0262 -0.0510
  502MOL0     H69214   8.321  11.055  10.797  0.0176  0.5799 -0.2533
  502MOL0     H69215   8.265  10.869  10.934  1.7205 -0.6521 -3.2350
  502MOL0     H69216   8.112  10.949  10.992  0.6014  1.3239 -0.8339
  502MOL0     H69217   8.193  10.862  10.705 -0.0701  1.5675  0.3880
  502MOL0     H69218   8.040  10.914  10.742  0.6172 -0.0189  0.1346
  502MOL0     H69219   8.129  10.664  10.888 -1.5911 -0.9244  0.3933
  502MOL0     H69220   7.978  10.731  10.876  0.5681  1.1305  2.8415
  502MOL0     H69221   8.157  10.612  10.647  0.7560 -2.1933  2.2340
  502MOL0     H69222   8.001  10.687  10.612 -0.7517 -1.3526  0.1413
  502MOL0     H69223   8.026  10.454  10.803  2.6492  0.4843 -0.0770
  502MOL0     H69224   7.885  10.502  10.719 -0.0827 -0.2616 -1.5718
  502MOL0     H69225   8.243  10.341  10.625  0.0423  1.9527 -3.1804
  502MOL0     H69226   8.240  10.052  10.612 -0.5373 -0.5922 -0.2462
  502MOL0     H69227   8.287  10.129  10.452 -1.6244  0.4824 -1.4211
  502MOL0     H69228   8.052   9.954  10.449 -1.2300 -0.0199 -3.2713
  502MOL0     H69229   8.163   9.985  10.321 -2.1233  1.5560  0.2871
  502MOL0     H69230   8.329   9.862  10.472  0.4354 -0.4914 -0.6400
  502MOL0     H69231   8.188   9.801  10.569 -0.5382 -0.2322 -0.3391
  502MOL0     H69232   8.211   9.631  10.413 -1.7108 -0.2045  0.2877
  502MOL0     H69233   8.071   9.729  10.349 -0.2730 -1.0068  0.4976
  502MOL0     H69234   8.429   9.759  10.086  2.9596 -1.1422 -1.1183
  502MOL0     H69235   8.515   9.724   9.865 -0.4363  0.2031 -1.2499
  502MOL0     H69236   8.479   9.577   9.768 -4.3044 -0.3220  1.1754
  502MOL0     H69237   8.605   9.577   9.893 -0.3635 -1.6643 -1.3771
  502MOL0     H69238   8.332   8.998   9.969  1.2331  1.4653 -0.7180
  502MOL0     H69239   8.373   8.798   9.855  0.4122  2.1565  2.5153
  502MOL0     H69240   8.565   8.629   9.580  0.2781  0.1242 -0.3945
  502MOL0     H69241   8.536   8.699   9.733 -1.2778  2.8044 -0.4491
  502MOL0     H69242   8.468   8.465   9.707 -1.9208  1.8926  2.4444
  502MOL0     H69243   8.324   8.566   9.759 -1.2951  0.6602  1.0153
  502MOL0     H69244   8.325   8.383   9.558 -1.2072 -0.5120  0.8567
  502MOL0     H69245   8.367   8.536   9.467 -0.9116  1.4700 -0.3691
  502MOL0     H69246   8.176   8.660   9.573  0.5680  0.6783 -0.8157
  502MOL0     H69247   8.126   8.516   9.665 -0.5214  0.7368 -0.5066
  502MOL0     H69248   8.132   8.536   9.354  0.2613 -1.9389 -0.7020
  502MOL0     H69249   8.098   8.397   9.444 -1.7314  0.0889 -2.7760
  502MOL0     H69250   7.911   8.517   9.572  1.2154  0.4017  0.4252
  502MOL0     H69251   7.880   8.469   9.406  1.4618  0.1590 -1.2407
  502MOL0     H69252   7.932   8.694   9.318  2.0326  1.1007  1.0073
  502MOL0     H69253   7.983   8.741   9.483 -0.6300 -1.2908  3.7990
  502MOL0     H69254   7.763   8.839   9.424  1.8946 -0.3091 -1.0124
  502MOL0     H69255   7.731   8.726   9.553 -5.9741  0.0477 -2.4912
  502MOL0     H69256   8.336   9.015   9.473  3.4695  0.0613  0.5468
  502MOL0     H69257   8.261   9.199   9.597 -2.6289  1.2675  3.3892
  502MOL0     H69258   8.167   9.345  10.064 -1.7009  0.7101  1.8331
  502MOL0     H69259   8.127   9.512  10.232  0.4754  1.9225 -0.2797
  502MOL0     H69260   7.962  11.387  10.877 -3.3737  0.0875 -2.4276
  502MOL0     H69261   7.869  11.440  10.654 -0.5016 -1.0820  2.3792
  502MOL0     H69262   7.973  11.737  10.284 -1.5371  3.8461 -1.8048
  502MOL0     H69263   7.882  11.854  10.098  1.2424  0.1471  4.9598
  502MOL0     H69264   7.782  11.598   9.776 -1.5356  0.0980 -4.9995
  502MOL0     H69265   7.615  11.643   9.803 -0.0149 -0.6039 -2.3412
  502MOL0     H69266   7.834  11.775   9.635 -0.0127 -1.8295 -1.7576
  502MOL0     H69267   7.680  11.845   9.648 -2.5752 -2.3583 -0.7071
  502MOL0     H69268   7.741  11.647   9.468  0.1466  1.2461 -0.2134
  502MOL0     H69269   7.636  11.564   9.596 -1.4688 -0.3086 -1.4610
  502MOL0     H69270   7.555  11.813   9.442 -1.3130  0.2330  0.1635
  502MOL0     H69271   7.455  11.709   9.550  0.7884 -5.1715  1.5897
  502MOL0     H69272   7.463  11.500   9.173 -1.3509  1.4732 -1.2108
  502MOL0     H69273   7.628  11.537  10.005 -1.2101  0.7974  1.4662
  502MOL0     H69274   7.586  11.388  10.266 -0.6256  2.0212 -1.4925
  502MOL0     H69275   7.623  11.319  10.113 -0.5457 -0.3799 -0.1454
  502MOL0     H69276   7.745  11.298  10.226  1.5174  2.0154  1.1368
  503MOL0     O69277   6.760   7.231  11.176  0.4470 -0.0722 -0.3358
  503MOL0     C69278   6.709   7.211  11.285 -0.7221  0.0266  0.3581
  503MOL0     O69279   6.748   7.270  11.404 -0.6976 -0.3284  0.2466
  503MOL0     C69280   6.852   7.360  11.404  0.2078  0.1524 -0.6710
  503MOL0     C69281   6.991   7.331  11.380 -0.7656 -0.1765  0.3906
  503MOL0     C69282   7.087   7.437  11.369  0.0872 -0.3622 -0.5103
  503MOL0     C69283   7.035   7.576  11.378 -0.5245 -1.1796 -0.4500
  503MOL0     O69284   7.130   7.669  11.369 -0.5075 -0.1709  0.7317
  503MOL0     C69285   7.105   7.768  11.270  0.3558 -0.5202  0.5546
  503MOL0     C69286   7.229   7.852  11.242 -0.4608 -0.6315  1.2667
  503MOL0     C69287   7.231   7.925  11.105  0.5913 -0.4513 -0.4997
  503MOL0     C69288   7.350   8.024  11.090 -0.5505  1.3523  0.4310
  503MOL0     C69289   7.370   8.094  10.958  0.1380  0.9006  0.9625
  503MOL0     C69290   7.453   8.220  10.965 -0.4974 -1.8073 -0.8305
  503MOL0     C69291   7.504   8.272  10.828 -0.9675  0.2404  0.2912
  503MOL0     C69292   7.592   8.405  10.835 -0.3437 -0.2525  0.0135
  503MOL0     N69293   7.591   8.467  10.708 -0.7156 -0.6481  0.1592
  503MOL0     C69294   7.507   8.573  10.686  0.0394  1.1794  0.7781
  503MOL0     C69295   7.524   8.588  10.544  0.6415  0.3655 -1.5152
  503MOL0     C69296   7.452   8.692  10.458  0.5433  0.2063 -0.5363
  503MOL0     C69297   7.299   8.661  10.462 -0.5238  0.2426  0.3961
  503MOL0     C69298   7.209   8.768  10.387 -0.5380  0.7604  0.2323
  503MOL0     C69299   7.121   8.716  10.275 -0.0775  0.1636  0.1404
  503MOL0     O69300   7.049   8.827  10.218 -0.0830 -0.5672  0.3519
  503MOL0     C69301   7.098   8.896  10.111 -0.0465 -0.0459 -0.0028
  503MOL0     C69302   7.149   8.837   9.993 -0.4074  1.2775  0.2788
  503MOL0     C69303   7.210   8.909   9.890  1.2213  0.0797 -0.3876
  503MOL0     C69304   7.266   8.827   9.773 -0.0188  0.0740 -0.5437
  503MOL0     C69305   7.237   9.041   9.909  0.2604  0.2545 -0.0309
  503MOL0     C69306   7.315   9.112   9.807 -0.0536  0.6850  0.3864
  503MOL0     O69307   7.272   9.105   9.682 -0.5090  0.1009 -0.0281
  503MOL0     C69308   7.363   9.152   9.584 -0.0141  0.0411  0.1321
  503MOL0     C69309   7.390   9.055   9.490 -0.1126  0.4148 -0.4129
  503MOL0     C69310   7.485   9.073   9.391  0.2785  0.9729  0.0033
  503MOL0     C69311   7.564   9.196   9.385  0.5869 -0.5621 -0.0630
  503MOL0     O69312   7.668   9.216   9.298 -0.7498 -0.1120  0.4502
  503MOL0     C69313   7.683   9.133   9.182  0.3519 -0.1385 -0.0491
  503MOL0     C69314   7.715   9.205   9.051 -0.4661 -0.0581  0.5363
  503MOL0     C69315   7.661   9.344   9.042  0.7034  0.4910 -0.3117
  503MOL0     C69316   7.683   9.395   8.892  0.7962 -0.2095 -0.2943
  503MOL0     C69317   7.569   9.356   8.801  0.1916  0.0811  0.0490
  503MOL0     C69318   7.601   9.385   8.654  0.1003  0.0948 -0.0544
  503MOL0     C69319   7.474   9.404   8.573 -0.4344  0.2579 -0.0345
  503MOL0     C69320   7.526   9.447   8.436  0.9608  0.4417  0.5730
  503MOL0    Cl69321   7.378   9.491   8.334  0.3763 -0.4256  0.2776
  503MOL0     C69322   7.524   9.298   9.478 -0.9352  0.2014  0.6404
  503MOL0     C69323   7.425   9.273   9.584 -0.9491  0.1254  0.6504
  503MOL0     O69324   7.420   9.148   9.849  0.2797 -0.4506 -0.3085
  503MOL0     C69325   7.190   9.108  10.032 -0.2291  0.2056  0.3884
  503MOL0     C69326   7.119   9.034  10.125 -0.5848  0.2000 -0.3196
  503MOL0     N69327   7.606   8.494  10.492  0.7826 -0.0318 -0.2828
  503MOL0     N69328   7.655   8.433  10.595  0.4398  0.0615  0.1679
  503MOL0     C69329   6.900   7.604  11.403 -0.0580  0.4567  0.6182
  503MOL0     C69330   6.818   7.497  11.415  0.8010 -0.4337 -1.1070
  503MOL0     C69331   6.611   7.103  11.298 -0.5582 -0.3121  0.7152
  503MOL0     C69332   6.605   7.005  11.193 -0.6784 -0.7115  0.5291
  503MOL0     C69333   6.509   6.900  11.199 -0.2334 -0.0790  0.9297
  503MOL0     C69334   6.418   6.895  11.298  0.8758 -0.0535 -0.7971
  503MOL0     O69335   6.313   6.808  11.281 -0.5401 -0.2073 -0.2690
  503MOL0     C69336   6.193   6.844  11.348 -0.2159 -0.4763  0.2092
  503MOL0     C69337   6.090   6.760  11.277  0.5692  0.1144 -0.4971
  503MOL0     C69338   5.955   6.794  11.355  0.5269 -0.1686 -0.4852
  503MOL0     C69339   5.895   6.930  11.313  0.1152  0.1710 -0.7060
  503MOL0     C69340   5.925   6.968  11.176  0.1698  0.3933  0.1653
  503MOL0     C69341   5.961   7.006  11.069 -0.0078 -0.1327 -0.3031
  503MOL0     C69342   6.417   6.994  11.398 -0.2538 -0.0992 -0.3855
  503MOL0     C69343   6.510   7.102  11.397  0.4303 -0.3792  0.4395
  503MOL0     C69344   6.494   7.214  11.498  0.5911 -0.0974 -0.1547
  503MOL0     H69345   7.025   7.228  11.385  1.0052  0.3391 -0.2195
  503MOL0     H69346   7.192   7.408  11.364 -0.0153 -0.7692 -0.3392
  503MOL0     H69347   7.028   7.842  11.296 -1.2444 -1.0413 -2.3268
  503MOL0     H69348   7.062   7.727  11.178 -1.9245  4.7432 -1.1248
  503MOL0     H69349   7.246   7.921  11.325  2.1281 -0.3618  0.6155
  503MOL0     H69350   7.309   7.777  11.241  1.1072  0.9740  1.0782
  503MOL0     H69351   7.238   7.856  11.021  2.5960  0.6473 -1.3215
  503MOL0     H69352   7.138   7.980  11.093  0.0181 -0.9272  1.4297
  503MOL0     H69353   7.336   8.101  11.167 -1.0277  0.4999  1.2322
  503MOL0     H69354   7.446   7.973  11.103  0.0721  2.2753 -0.3836
  503MOL0     H69355   7.276   8.126  10.912 -0.1298  1.2399  1.7195
  503MOL0     H69356   7.420   8.026  10.889  1.5840  1.6024  1.2826
  503MOL0     H69357   7.386   8.294  11.009  1.1338 -1.1351  0.6441
  503MOL0     H69358   7.536   8.202  11.034 -0.8333  1.4787  0.5968
  503MOL0     H69359   7.419   8.293  10.762 -0.0960 -3.3083 -2.2855
  503MOL0     H69360   7.549   8.186  10.778 -0.0613 -0.7292  2.6245
  503MOL0     H69361   7.568   8.482  10.909  3.4377  0.9281  0.2386
  503MOL0     H69362   7.695   8.381  10.863 -0.9630  0.9352  3.9878
  503MOL0     H69363   7.434   8.611  10.756 -2.6266 -2.5224  0.3112
  503MOL0     H69364   7.493   8.704  10.358  2.5079 -1.7370 -0.0239
  503MOL0     H69365   7.473   8.790  10.502 -2.3780 -0.7519  3.6240
  503MOL0     H69366   7.292   8.560  10.418  2.3168 -0.2290  0.7905
  503MOL0     H69367   7.277   8.651  10.569 -0.2105  0.0604  0.4481
  503MOL0     H69368   7.148   8.816  10.464 -2.3064 -1.9263  0.6428
  503MOL0     H69369   7.277   8.838  10.337 -1.7391  0.1676 -2.3869
  503MOL0     H69370   7.180   8.669  10.195 -1.6617 -1.2248 -0.2571
  503MOL0     H69371   7.056   8.641  10.320 -0.0988 -1.0376 -1.7562
  503MOL0     H69372   7.132   8.730   9.986 -0.6819  1.2804  0.8330
  503MOL0     H69373   7.189   8.839   9.697 -0.0855  2.4704 -0.1784
  503MOL0     H69374   7.279   8.721   9.798  1.0454 -0.3549 -2.6144
  503MOL0     H69375   7.363   8.853   9.728 -0.2396 -2.6589 -2.9082
  503MOL0     H69376   7.345   8.957   9.501  3.2690 -1.3143 -0.5213
  503MOL0     H69377   7.502   8.996   9.317 -0.9661  1.6553 -1.0488
  503MOL0     H69378   7.765   9.061   9.194  1.1869  0.9233  0.8296
  503MOL0     H69379   7.590   9.079   9.162  0.0289  0.5887 -0.5394
  503MOL0     H69380   7.823   9.211   9.041 -0.6048  0.2548 -0.9695
  503MOL0     H69381   7.672   9.153   8.965 -1.1470 -1.6147  1.7605
  503MOL0     H69382   7.717   9.402   9.116  1.5132 -0.4934 -0.1241
  503MOL0     H69383   7.553   9.344   9.055  0.8371  0.0650  1.0218
  503MOL0     H69384   7.777   9.358   8.852  0.6381 -0.1714 -0.7074
  503MOL0     H69385   7.712   9.500   8.894  0.5567 -0.1413  1.1840
  503MOL0     H69386   7.542   9.250   8.803  1.9445 -0.4529 -1.5679
  503MOL0     H69387   7.485   9.414   8.840  2.1309  4.3375 -1.4866
  503MOL0     H69388   7.654   9.296   8.617 -2.6856 -1.7079 -0.0675
  503MOL0     H69389   7.677   9.463   8.655 -0.8236  1.0446  1.9162
  503MOL0     H69390   7.413   9.489   8.607 -2.3517 -0.5232 -1.3402
  503MOL0     H69391   7.408   9.317   8.567 -0.5025  0.3076 -0.0090
  503MOL0     H69392   7.587   9.370   8.389 -1.6897 -1.2392 -0.2788
  503MOL0     H69393   7.590   9.536   8.440  2.0095 -0.3027  0.6929
  503MOL0     H69394   7.584   9.387   9.469 -0.3550 -0.0194  2.0461
  503MOL0     H69395   7.405   9.354   9.654  1.0510  2.2815 -1.1045
  503MOL0     H69396   7.219   9.213  10.040  3.4088 -0.6661  0.3216
  503MOL0     H69397   7.101   9.090  10.216 -0.3149  1.0994 -0.8035
  503MOL0     H69398   6.873   7.709  11.416  1.8286  0.8938  1.3320
  503MOL0     H69399   6.714   7.517  11.438  1.4861 -0.6388  3.0416
  503MOL0     H69400   6.674   7.010  11.109 -2.9548 -1.6247 -1.5386
  503MOL0     H69401   6.495   6.818  11.129  1.3849 -2.6702  3.4296
  503MOL0     H69402   6.181   6.830  11.455 -1.5365  0.2292  0.1826
  503MOL0     H69403   6.176   6.946  11.310  2.3641 -0.7807 -2.0476
  503MOL0     H69404   6.101   6.653  11.295 -4.4626 -0.4985  0.4859
  503MOL0     H69405   6.077   6.759  11.168 -1.1337 -0.4873 -0.3225
  503MOL0     H69406   5.878   6.721  11.330 -0.5663  1.2569 -1.4714
  503MOL0     H69407   5.973   6.806  11.462  0.4431  1.5703 -0.6433
  503MOL0     H69408   5.952   6.994  11.381 -0.5402  0.0741 -0.0566
  503MOL0     H69409   5.786   6.927  11.325  0.3097 -0.6945  1.1292
  503MOL0     H69410   6.004   7.033  10.974  0.4942 -0.1741 -0.0912
  503MOL0     H69411   6.332   7.013  11.463  1.0173  2.4821  0.6261
  503MOL0     H69412   6.393   7.224  11.539  0.6302 -0.7719  0.1296
  503MOL0     H69413   6.567   7.191  11.576  1.1785 -1.0357 -0.9583
  503MOL0     H69414   6.525   7.312  11.461 -0.4084 -1.4003 -5.2596
  504MOL0     O69415   7.091   8.926   1.563 -0.1039 -0.2733  0.2605
  504MOL0     C69416   7.003   8.998   1.614 -0.6383 -0.1305  0.0113
  504MOL0     O69417   7.028   9.118   1.675 -0.4015 -0.3653  0.4560
  504MOL0     C69418   7.156   9.154   1.684 -0.5475  0.6292  0.0836
  504MOL0     C69419   7.226   9.156   1.809 -0.2209 -0.3276 -0.2595
  504MOL0     C69420   7.357   9.199   1.820  0.0840 -0.0906 -0.3603
  504MOL0     C69421   7.429   9.254   1.722 -0.6355  0.1392  0.5597
  504MOL0     O69422   7.562   9.300   1.715  0.5637  0.8307  1.1027
  504MOL0     C69423   7.641   9.265   1.826  0.2673  0.5316  0.0153
  504MOL0     C69424   7.671   9.117   1.832 -0.2645  0.0377  0.4905
  504MOL0     C69425   7.735   9.086   1.963 -0.3467  0.4726  0.0117
  504MOL0     C69426   7.846   9.179   2.018 -0.1813  0.1224 -0.3607
  504MOL0     C69427   7.960   9.114   2.101 -0.2551 -0.5888  0.5044
  504MOL0     C69428   7.911   9.040   2.223  0.4179 -0.3283 -0.3854
  504MOL0     C69429   8.026   9.007   2.327  0.4315 -0.4430 -0.4882
  504MOL0     C69430   8.087   8.862   2.312 -0.1519 -0.3190  0.4739
  504MOL0     N69431   8.201   8.830   2.395  0.6428  0.0355  0.2485
  504MOL0     C69432   8.311   8.755   2.355  0.4829 -0.3955 -1.1315
  504MOL0     C69433   8.397   8.763   2.460  0.5444 -0.2056 -0.0451
  504MOL0     C69434   8.540   8.721   2.446  0.4543  0.2192  0.8391
  504MOL0     C69435   8.638   8.780   2.545 -0.1844  0.6182  0.5009
  504MOL0     C69436   8.784   8.743   2.522 -0.2661  0.6559  0.0870
  504MOL0     C69437   8.867   8.813   2.636 -0.0953  0.6526 -0.8283
  504MOL0     O69438   8.976   8.728   2.655 -0.4606 -0.2559  0.4547
  504MOL0     C69439   9.069   8.776   2.752 -0.2690  0.4428 -0.2315
  504MOL0     C69440   9.175   8.687   2.791  0.2181  0.4941 -0.4002
  504MOL0     C69441   9.264   8.729   2.885 -0.4890 -0.2029  0.6575
  504MOL0     C69442   9.397   8.642   2.894  0.0591  0.0811  0.1149
  504MOL0     C69443   9.254   8.852   2.956 -0.3434  0.1336 -0.0839
  504MOL0     C69444   9.354   8.898   3.063 -0.5960  0.0821 -0.4062
  504MOL0     O69445   9.410   8.798   3.137 -0.2909  0.7210 -0.1917
  504MOL0     C69446   9.487   8.835   3.247 -0.2427 -0.3016  0.3254
  504MOL0     C69447   9.429   8.885   3.363  1.0966 -0.3052 -0.4831
  504MOL0     C69448   9.505   8.923   3.477 -0.4320  0.5225  0.8393
  504MOL0     C69449   9.641   8.890   3.477  0.1205 -0.2471  0.6334
  504MOL0     O69450   9.722   8.923   3.584  0.1770  0.1261  0.1813
  504MOL0     C69451   9.683   8.864   3.710 -0.1387 -1.0568 -0.3400
  504MOL0     C69452   9.767   8.736   3.739 -0.1143 -0.2428  0.4625
  504MOL0     C69453   9.702   8.630   3.820 -0.2675 -0.3483 -0.8862
  504MOL0     C69454   9.683   8.673   3.970 -0.3752 -0.0518  0.0394
  504MOL0     C69455   9.585   8.606   4.072  0.3151 -0.6470  0.6931
  504MOL0     C69456   9.647   8.481   4.114  0.3797  0.0296 -0.4059
  504MOL0     C69457   9.579   8.431   4.248 -0.7159 -0.1186  0.7361
  504MOL0     C69458   9.625   8.288   4.279  1.0321 -0.1303  0.0020
  504MOL0    Cl69459   9.547   8.253   4.433  0.3466 -0.3014  0.2096
  504MOL0     C69460   9.705   8.838   3.358  1.0243 -0.2457  0.9010
  504MOL0     C69461   9.630   8.816   3.245  0.0638  0.3877 -0.3666
  504MOL0     O69462   9.373   9.018   3.079 -0.1182  0.4829  0.7734
  504MOL0     C69463   9.163   8.944   2.904 -0.0146 -0.1196  0.5744
  504MOL0     C69464   9.069   8.909   2.805  0.6061  0.1298 -0.0648
  504MOL0     N69465   8.331   8.818   2.572  0.0610  0.1005 -0.2262
  504MOL0     N69466   8.212   8.864   2.528 -0.3899  0.0457  0.7026
  504MOL0     C69467   7.368   9.238   1.595 -1.2460 -1.0236 -0.2498
  504MOL0     C69468   7.237   9.184   1.575  0.5220 -0.1917  0.2049
  504MOL0     C69469   6.860   8.938   1.607 -0.1325 -0.2580  0.4176
  504MOL0     C69470   6.833   8.799   1.609 -0.5125  0.5941  0.5435
  504MOL0     C69471   6.710   8.746   1.602 -0.1502  0.6764 -0.6589
  504MOL0     C69472   6.599   8.822   1.573  0.1311  0.2364 -0.3248
  504MOL0     O69473   6.471   8.763   1.566 -0.1017  0.6035 -0.0666
  504MOL0     C69474   6.453   8.618   1.545 -0.2454  0.2805 -0.3617
  504MOL0     C69475   6.317   8.579   1.491  0.0493  0.4376  0.5547
  504MOL0     C69476   6.204   8.653   1.561 -0.3536  0.2340 -0.0669
  504MOL0     C69477   6.205   8.628   1.712  0.5455  0.2694 -0.1669
  504MOL0     C69478   6.135   8.505   1.756 -0.2460 -0.4715  1.3165
  504MOL0     C69479   6.077   8.407   1.782 -1.0193  0.2365 -0.3157
  504MOL0     C69480   6.612   8.958   1.561 -0.0252  0.1634  0.0879
  504MOL0     C69481   6.740   9.014   1.587  0.4905 -0.1512  1.2946
  504MOL0     C69482   6.745   9.157   1.590  0.9521  0.5986  0.6854
  504MOL0     H69483   7.161   9.120   1.888  1.2383  2.1183  2.2021
  504MOL0     H69484   7.398   9.182   1.919  0.4078 -0.4402 -0.5525
  504MOL0     H69485   7.596   9.291   1.922  2.3998 -1.3295  1.6357
  504MOL0     H69486   7.738   9.317   1.820  0.7987 -0.5212 -0.9266
  504MOL0     H69487   7.577   9.062   1.826 -2.8490  3.9062  2.0766
  504MOL0     H69488   7.738   9.081   1.753 -0.1642 -0.5832  0.8537
  504MOL0     H69489   7.657   9.104   2.038 -1.6388  1.1605 -1.4570
  504MOL0     H69490   7.774   8.984   1.957  1.0221  1.0355 -1.1874
  504MOL0     H69491   7.890   9.232   1.934  0.2278 -1.2689 -1.0646
  504MOL0     H69492   7.791   9.241   2.089  0.2430 -0.9853  1.0011
  504MOL0     H69493   8.025   9.195   2.134 -1.1086 -0.6263  2.4142
  504MOL0     H69494   8.023   9.051   2.038 -2.1787 -0.5724 -1.5791
  504MOL0     H69495   7.845   9.114   2.269  2.1383  1.2934 -0.3855
  504MOL0     H69496   7.845   8.955   2.201 -3.6422  2.3091  0.4565
  504MOL0     H69497   7.974   8.996   2.423 -1.4547 -0.8644 -1.5000
  504MOL0     H69498   8.109   9.078   2.333  0.8929 -1.0125  0.0374
  504MOL0     H69499   8.006   8.789   2.310  1.0818 -1.7071  0.1570
  504MOL0     H69500   8.117   8.859   2.207  0.3634  3.6702  0.3412
  504MOL0     H69501   8.324   8.729   2.250  0.9469 -3.8587 -0.3287
  504MOL0     H69502   8.574   8.752   2.346 -0.9270  1.7601  0.8021
  504MOL0     H69503   8.529   8.613   2.460  0.1077  0.2768  1.0209
  504MOL0     H69504   8.627   8.888   2.530  1.5150  0.9401  1.2886
  504MOL0     H69505   8.599   8.764   2.645 -2.5405  1.7949 -0.1586
  504MOL0     H69506   8.794   8.634   2.520 -4.5563  0.0128 -3.7089
  504MOL0     H69507   8.809   8.782   2.423 -2.4007  1.2804 -0.2682
  504MOL0     H69508   8.891   8.914   2.601 -0.9873  0.2367 -2.8161
  504MOL0     H69509   8.805   8.837   2.723 -0.0373  0.3167 -0.6921
  504MOL0     H69510   9.185   8.595   2.735  1.7322  1.4365 -1.7847
  504MOL0     H69511   9.481   8.712   2.901  0.5274  0.4696 -5.2540
  504MOL0     H69512   9.412   8.591   2.798 -3.5292  0.6060 -0.8780
  504MOL0     H69513   9.390   8.564   2.970 -1.7863 -0.5878 -0.6792
  504MOL0     H69514   9.324   8.908   3.375  1.6013  2.4644 -0.9026
  504MOL0     H69515   9.467   8.985   3.558 -2.0386  1.3402 -0.4654
  504MOL0     H69516   9.702   8.940   3.786  3.1169 -0.3669 -1.6840
  504MOL0     H69517   9.577   8.837   3.707 -0.8896  1.6631 -0.6691
  504MOL0     H69518   9.765   8.692   3.638  1.1796 -1.1813  0.8152
  504MOL0     H69519   9.871   8.752   3.767  0.9503 -1.8024 -2.1428
  504MOL0     H69520   9.771   8.545   3.824  2.1473  1.5188  2.8179
  504MOL0     H69521   9.610   8.608   3.765  0.3553  1.8828 -3.0015
  504MOL0     H69522   9.641   8.773   3.958 -1.9756 -0.7298 -0.2271
  504MOL0     H69523   9.784   8.679   4.012  0.0146 -0.9347 -0.7318
  504MOL0     H69524   9.578   8.664   4.164  1.5538 -0.2387  0.5413
  504MOL0     H69525   9.481   8.599   4.037  0.8395 -0.5598 -0.9895
  504MOL0     H69526   9.751   8.503   4.137  0.7061 -1.4257 -0.3758
  504MOL0     H69527   9.654   8.409   4.032 -0.7835  2.1985 -2.5314
  504MOL0     H69528   9.470   8.434   4.249 -0.7462  0.6390 -0.8007
  504MOL0     H69529   9.631   8.490   4.324  1.3325 -1.2067  0.2523
  504MOL0     H69530   9.734   8.285   4.283  1.2174 -3.3797 -2.6573
  504MOL0     H69531   9.605   8.215   4.200  0.2540  1.0597 -0.9381
  504MOL0     H69532   9.805   8.802   3.376  1.0964 -1.7549 -1.9503
  504MOL0     H69533   9.672   8.771   3.156 -0.7481  0.8051 -0.9697
  504MOL0     H69534   9.163   9.047   2.936 -3.3576 -0.4841  2.1912
  504MOL0     H69535   9.005   8.983   2.757 -0.8157 -2.2311 -2.0036
  504MOL0     H69536   7.418   9.255   1.500  0.3482  0.8275  0.8408
  504MOL0     H69537   7.196   9.160   1.478 -0.9979 -1.6513  1.1345
  504MOL0     H69538   6.919   8.738   1.634  1.9270  3.4610 -0.1858
  504MOL0     H69539   6.702   8.639   1.614  0.7975  0.4222 -2.0839
  504MOL0     H69540   6.527   8.582   1.473  0.6813  2.2999 -0.4956
  504MOL0     H69541   6.466   8.566   1.640  0.5208  2.4076  0.7683
  504MOL0     H69542   6.299   8.472   1.494 -1.1588  0.4479 -2.6587
  504MOL0     H69543   6.297   8.603   1.386  4.8037 -1.3468 -0.9915
  504MOL0     H69544   6.206   8.762   1.556  0.6236  0.3160  1.5500
  504MOL0     H69545   6.109   8.615   1.522  1.3149 -4.8365  0.0419
  504MOL0     H69546   6.142   8.709   1.752  2.5751  0.4497  2.9751
  504MOL0     H69547   6.300   8.643   1.763  1.1387  0.1792 -1.2149
  504MOL0     H69548   6.031   8.311   1.796  3.2518 -2.5157 -3.0448
  504MOL0     H69549   6.517   9.006   1.544 -1.0024 -1.7168 -0.0859
  504MOL0     H69550   6.759   9.185   1.695 -1.3083  0.0987  1.1784
  504MOL0     H69551   6.827   9.201   1.532  0.0344  1.3605 -0.0594
  504MOL0     H69552   6.651   9.205   1.562  1.4858  2.7369  2.2211
  505MOL0     O69553   4.130   2.177   9.205  0.3722 -0.1163 -0.4332
  505MOL0     C69554   4.018   2.156   9.268  0.8162 -0.6080 -0.3156
  505MOL0     O69555   3.900   2.110   9.216  0.3727  0.0189  0.2637
  505MOL0     C69556   3.896   2.097   9.081 -0.4253 -1.0109  0.1056
  505MOL0     C69557   3.838   2.211   9.018 -1.1926  0.4135  0.2510
  505MOL0     C69558   3.850   2.221   8.880 -1.1647  0.6153 -0.6558
  505MOL0     C69559   3.903   2.115   8.800  0.8228 -0.2233  0.6846
  505MOL0     O69560   3.903   2.110   8.665  0.7314 -0.7528  0.3770
  505MOL0     C69561   3.919   2.227   8.593 -0.3795  0.0685  0.0837
  505MOL0     C69562   3.854   2.219   8.455 -0.4385 -0.6608  0.6934
  505MOL0     C69563   3.914   2.091   8.382  0.5687 -0.6071  0.1329
  505MOL0     C69564   3.867   2.092   8.234 -1.0117  0.8190  0.4548
  505MOL0     C69565   3.941   1.975   8.160 -0.9139 -0.0375 -0.1837
  505MOL0     C69566   3.926   1.981   8.001 -0.5248  0.5886  0.0302
  505MOL0     C69567   4.031   1.901   7.914  1.2381  0.3512  0.3203
  505MOL0     C69568   4.015   1.965   7.766 -0.2064 -0.2406  0.2661
  505MOL0     N69569   4.082   1.891   7.659  0.1932  0.7296  0.6415
  505MOL0     C69570   4.030   1.778   7.601  0.2080 -0.6727  0.1365
  505MOL0     C69571   4.072   1.780   7.474  0.0756 -0.1094  0.7542
  505MOL0     C69572   4.033   1.670   7.374  0.1396  0.7255  0.3385
  505MOL0     C69573   4.102   1.535   7.402 -0.4900 -0.1164 -0.0441
  505MOL0     C69574   4.233   1.519   7.321  0.0829  0.1643  0.3412
  505MOL0     C69575   4.229   1.519   7.173 -0.2320  0.3651  0.9578
  505MOL0     O69576   4.155   1.408   7.124 -0.1601 -0.1933 -1.0159
  505MOL0     C69577   4.178   1.378   6.990 -0.2890 -0.7213  0.1039
  505MOL0     C69578   4.180   1.469   6.883  0.2853 -0.6421 -0.6991
  505MOL0     C69579   4.244   1.447   6.761  0.0470  0.0857 -0.8637
  505MOL0     C69580   4.253   1.565   6.665  0.2593  0.4265 -0.8846
  505MOL0     C69581   4.293   1.316   6.738 -0.1411  0.0641  0.5259
  505MOL0     C69582   4.352   1.271   6.605 -0.1288  0.0493 -0.4634
  505MOL0     O69583   4.339   1.138   6.568  0.7980  0.2988 -0.4746
  505MOL0     C69584   4.398   1.095   6.448 -0.3602  0.9214  0.7282
  505MOL0     C69585   4.325   1.004   6.364 -1.0616  0.2834  0.0788
  505MOL0     C69586   4.377   0.969   6.244 -0.8046  0.9926 -0.3853
  505MOL0     C69587   4.508   0.997   6.207  0.5061  0.5902 -0.3700
  505MOL0     O69588   4.552   0.961   6.075  0.3077  0.2739  0.0910
  505MOL0     C69589   4.691   0.911   6.060 -0.1102 -0.7825  0.0799
  505MOL0     C69590   4.704   0.788   6.146  0.4705  0.5674 -0.5463
  505MOL0     C69591   4.844   0.737   6.132 -0.0811 -0.1738 -0.2900
  505MOL0     C69592   4.865   0.598   6.195  0.0300 -0.1741 -0.5312
  505MOL0     C69593   5.004   0.536   6.181  0.1380 -0.1844 -0.4262
  505MOL0     C69594   5.017   0.387   6.233 -0.6415  0.4931 -0.0332
  505MOL0     C69595   4.996   0.388   6.383  0.6600 -0.0623 -0.1364
  505MOL0     C69596   5.043   0.254   6.429  0.4688  0.0227 -0.3416
  505MOL0    Cl69597   5.214   0.260   6.466  0.1470  0.1680  0.3216
  505MOL0     C69598   4.578   1.087   6.281  0.1400  0.6405 -0.3620
  505MOL0     C69599   4.524   1.126   6.403  0.3657 -0.7706 -0.0143
  505MOL0     O69600   4.406   1.355   6.536  0.9454 -0.0160 -0.3733
  505MOL0     C69601   4.278   1.221   6.842  0.4961  0.5429 -0.8268
  505MOL0     C69602   4.230   1.251   6.965 -0.2717 -0.1972 -0.0335
  505MOL0     N69603   4.154   1.888   7.458  0.9359 -0.0586 -0.0867
  505MOL0     N69604   4.164   1.956   7.569  0.6786 -0.3214 -0.2894
  505MOL0     C69605   3.941   1.999   8.863  0.1980 -0.1590  0.2185
  505MOL0     C69606   3.929   1.988   9.000  0.3131 -0.1273  0.0370
  505MOL0     C69607   4.008   2.219   9.408  0.4846 -0.4542  0.1800
  505MOL0     C69608   3.873   2.239   9.458  0.3001  0.0837 -0.7088
  505MOL0     C69609   3.851   2.284   9.595 -0.2617 -0.4164 -0.2534
  505MOL0     C69610   3.964   2.309   9.681 -0.0988  0.8546 -0.4215
  505MOL0     O69611   3.954   2.346   9.812  0.8273 -0.7148 -0.1537
  505MOL0     C69612   3.824   2.333   9.870  0.1715  0.0031 -0.2517
  505MOL0     C69613   3.831   2.361  10.016  0.1363 -0.3796 -0.6126
  505MOL0     C69614   3.932   2.280  10.098 -0.1657 -0.0076 -0.8100
  505MOL0     C69615   3.929   2.336  10.235  0.2555  0.0958 -0.0945
  505MOL0     C69616   3.805   2.330  10.312  0.2182  0.2544  0.3781
  505MOL0     C69617   3.702   2.314  10.378 -0.3342  0.1311  0.4381
  505MOL0     C69618   4.093   2.289   9.628 -0.8007 -0.4842  0.5820
  505MOL0     C69619   4.120   2.246   9.491  0.5347  0.4335  0.3769
  505MOL0     C69620   4.260   2.212   9.452 -0.2266  0.1618 -0.8672
  505MOL0     H69621   3.797   2.285   9.087  1.4732 -0.9190  3.5361
  505MOL0     H69622   3.816   2.314   8.838 -1.7135  1.8306  2.2242
  505MOL0     H69623   4.023   2.260   8.584 -0.4215  0.1230 -0.2214
  505MOL0     H69624   3.868   2.315   8.633  0.9290  0.7042  0.4063
  505MOL0     H69625   3.746   2.203   8.467 -0.5553 -1.2228 -0.8614
  505MOL0     H69626   3.883   2.313   8.406  1.4035 -1.2087  0.6555
  505MOL0     H69627   4.022   2.080   8.393  0.7537 -0.7638 -1.5724
  505MOL0     H69628   3.870   2.001   8.427 -0.9441 -0.6466 -1.3218
  505MOL0     H69629   3.758   2.079   8.235 -1.0265  0.9479  0.5265
  505MOL0     H69630   3.892   2.189   8.190  3.8762  0.3368  1.6279
  505MOL0     H69631   3.901   1.880   8.198  0.2869 -0.6660 -0.4413
  505MOL0     H69632   4.047   1.986   8.186 -0.3721 -1.0640 -1.8345
  505MOL0     H69633   3.828   1.946   7.968 -1.0427  0.8236  1.2573
  505MOL0     H69634   3.951   2.085   7.976  5.2761 -0.0138  1.9125
  505MOL0     H69635   4.008   1.794   7.908 -1.5234  0.8930 -0.0260
  505MOL0     H69636   4.132   1.924   7.948  1.1141  1.0855  0.2023
  505MOL0     H69637   3.911   1.953   7.736  0.0538  1.8219 -1.6867
  505MOL0     H69638   4.042   2.071   7.769 -0.7714 -0.1254  2.3046
  505MOL0     H69639   3.969   1.712   7.662  0.9097  0.0554  1.6785
  505MOL0     H69640   4.050   1.716   7.276  2.2151  0.8658  0.7207
  505MOL0     H69641   3.925   1.653   7.383 -0.0800  1.6025 -0.4586
  505MOL0     H69642   4.137   1.519   7.505  0.5580  0.2154 -0.3389
  505MOL0     H69643   4.049   1.450   7.357  0.1402  0.1049 -1.2275
  505MOL0     H69644   4.294   1.602   7.358 -2.1269  0.3688  4.0448
  505MOL0     H69645   4.280   1.429   7.362 -1.6487 -0.4021  1.1409
  505MOL0     H69646   4.185   1.610   7.132  0.7877  1.0302  1.3122
  505MOL0     H69647   4.326   1.514   7.124 -0.8525 -2.8976 -0.1681
  505MOL0     H69648   4.152   1.570   6.911 -0.0808 -1.1982  1.1028
  505MOL0     H69649   4.196   1.654   6.693 -0.9402 -1.5652  4.1550
  505MOL0     H69650   4.211   1.539   6.567  0.2860  0.4309 -0.8976
  505MOL0     H69651   4.360   1.584   6.657  0.8585  0.6361  4.3164
  505MOL0     H69652   4.230   0.957   6.387 -0.7055 -0.8504 -0.6856
  505MOL0     H69653   4.320   0.905   6.176  1.5500 -1.0220 -0.6139
  505MOL0     H69654   4.715   0.890   5.955  2.5250 -0.1670  0.4807
  505MOL0     H69655   4.763   0.990   6.083  2.2836 -1.5649 -3.7763
  505MOL0     H69656   4.682   0.818   6.249 -1.8420  0.0701 -0.8428
  505MOL0     H69657   4.634   0.708   6.124  1.6012 -0.8760  0.8760
  505MOL0     H69658   4.916   0.799   6.187  1.8661 -2.0991 -0.5295
  505MOL0     H69659   4.871   0.723   6.027 -2.2684 -0.2341 -0.8885
  505MOL0     H69660   4.790   0.533   6.151 -0.6423 -1.2032  1.9773
  505MOL0     H69661   4.837   0.605   6.300 -1.7151 -0.7431 -0.9316
  505MOL0     H69662   5.021   0.532   6.073  0.5911 -1.5074 -0.3287
  505MOL0     H69663   5.077   0.599   6.234  0.7538 -1.4983  0.3503
  505MOL0     H69664   5.115   0.347   6.206  0.1342  2.3031 -0.0694
  505MOL0     H69665   4.944   0.327   6.179  0.3354 -1.5447  0.8162
  505MOL0     H69666   4.888   0.403   6.389  0.3814 -0.6002 -2.7279
  505MOL0     H69667   5.052   0.470   6.428  3.0816 -1.6990  0.0347
  505MOL0     H69668   5.026   0.178   6.352 -2.7884  0.7866 -0.5215
  505MOL0     H69669   4.988   0.240   6.522 -0.5673  3.2435 -0.3615
  505MOL0     H69670   4.669   1.131   6.242 -0.8762  2.0197 -1.2818
  505MOL0     H69671   4.578   1.194   6.469 -2.5109 -0.9744  2.8450
  505MOL0     H69672   4.327   1.125   6.822 -2.6771 -2.3343  3.4252
  505MOL0     H69673   4.218   1.184   7.049  0.8190  2.2134  2.1608
  505MOL0     H69674   3.970   1.918   8.796 -0.2544  0.8587 -1.2449
  505MOL0     H69675   3.972   1.897   9.041 -1.0089 -0.3059  1.0857
  505MOL0     H69676   3.782   2.223   9.401 -0.0799 -1.3301  0.2522
  505MOL0     H69677   3.751   2.306   9.629 -1.6949 -0.7926 -3.7678
  505MOL0     H69678   3.745   2.400   9.834 -0.3149  0.0464  0.8325
  505MOL0     H69679   3.790   2.231   9.851  0.7233 -0.1255 -0.5744
  505MOL0     H69680   3.727   2.348  10.047  0.0843 -0.5005 -0.8338
  505MOL0     H69681   3.859   2.466  10.031 -1.6648  0.0160  0.3079
  505MOL0     H69682   3.903   2.174  10.095 -3.1496  0.6990 -0.5396
  505MOL0     H69683   4.031   2.282  10.051 -0.7367  0.2812 -2.0646
  505MOL0     H69684   3.961   2.441  10.238 -0.3924  0.2919  1.6051
  505MOL0     H69685   4.010   2.287  10.291  2.4072  2.8066 -0.5749
  505MOL0     H69686   3.619   2.313  10.446 -2.2716 -1.0290 -1.7884
  505MOL0     H69687   4.172   2.313   9.698  0.3915  4.7075 -1.9801
  505MOL0     H69688   4.343   2.213   9.523 -0.6826  0.4734 -0.3385
  505MOL0     H69689   4.265   2.111   9.410 -2.4848  0.7452 -2.7289
  505MOL0     H69690   4.285   2.294   9.383 -2.1111  1.6890  0.1933
  506MOL0     O69691   8.704   1.982   7.422 -0.2980  0.3767 -1.2541
  506MOL0     C69692   8.624   2.023   7.337  0.0096 -0.1001 -0.5526
  506MOL0     O69693   8.639   1.992   7.209  0.3210  0.2566  1.6407
  506MOL0     C69694   8.657   1.861   7.176  0.1956  0.3085 -0.5401
  506MOL0     C69695   8.557   1.807   7.104  0.8625 -0.2653 -0.3057
  506MOL0     C69696   8.567   1.674   7.057  0.8043  0.8996  0.4138
  506MOL0     C69697   8.681   1.592   7.087  0.5277 -1.7993 -0.2653
  506MOL0     O69698   8.695   1.464   7.058 -0.3151  0.5859  0.4040
  506MOL0     C69699   8.648   1.429   6.931 -0.3220 -0.5100 -0.0767
  506MOL0     C69700   8.648   1.284   6.924  0.1389  0.8419  0.7604
  506MOL0     C69701   8.638   1.227   6.777  0.0840  0.1624 -0.7155
  506MOL0     C69702   8.619   1.080   6.794 -0.6419 -0.8258 -0.3257
  506MOL0     C69703   8.715   0.997   6.701  0.2861 -0.2689 -0.1879
  506MOL0     C69704   8.671   1.015   6.558 -0.4208 -0.6767 -0.3982
  506MOL0     C69705   8.723   0.905   6.457  0.7186 -0.1656 -0.7025
  506MOL0     C69706   8.652   0.775   6.488  1.2612 -0.3869  0.9862
  506MOL0     N69707   8.513   0.765   6.453  0.2638 -0.3500  0.1133
  506MOL0     C69708   8.404   0.773   6.548 -0.6896 -0.9542 -0.2495
  506MOL0     C69709   8.300   0.745   6.473  0.1278  1.1440 -0.9255
  506MOL0     C69710   8.156   0.743   6.518 -0.1761  0.9282  0.8992
  506MOL0     C69711   8.101   0.868   6.570  0.0546  1.0063  0.4820
  506MOL0     C69712   7.941   0.866   6.573 -0.0843 -0.3169 -0.4150
  506MOL0     C69713   7.896   0.755   6.664 -1.3713  0.6780  0.3932
  506MOL0     O69714   7.764   0.789   6.693  0.3044 -0.2004 -0.1083
  506MOL0     C69715   7.694   0.765   6.806 -0.4268  0.4345 -0.3250
  506MOL0     C69716   7.567   0.804   6.829 -0.4292 -0.0532  0.5590
  506MOL0     C69717   7.497   0.788   6.954 -0.0996  0.4998  0.2686
  506MOL0     C69718   7.357   0.828   6.962  0.5507 -0.8177  0.4596
  506MOL0     C69719   7.558   0.706   7.058  0.7805 -0.8744 -0.1352
  506MOL0     C69720   7.489   0.669   7.180  0.0923 -0.0794 -0.3699
  506MOL0     O69721   7.544   0.567   7.260 -0.8806  0.5514  0.1283
  506MOL0     C69722   7.481   0.504   7.367  0.2067 -0.3273  0.2109
  506MOL0     C69723   7.417   0.380   7.350 -0.4138  0.6573  0.4888
  506MOL0     C69724   7.360   0.311   7.451 -0.6940 -0.0336 -0.5823
  506MOL0     C69725   7.351   0.373   7.583  1.2429  0.1049  0.4148
  506MOL0     O69726   7.274   0.309   7.673 -0.0509  0.9274 -0.5715
  506MOL0     C69727   7.251   0.364   7.804  0.4601  0.8483 -0.1422
  506MOL0     C69728   7.221   0.259   7.907  0.6247  0.2816 -0.7472
  506MOL0     C69729   7.150   0.306   8.040  0.9873  0.5779  0.1398
  506MOL0     C69730   7.140   0.191   8.142 -0.1294  0.7526  0.2243
  506MOL0     C69731   7.053   0.210   8.269  0.1888 -0.3634  0.0443
  506MOL0     C69732   6.900   0.234   8.242 -0.5601  0.1742 -0.0873
  506MOL0     C69733   6.819   0.266   8.366  1.1979 -0.1821  0.1263
  506MOL0     C69734   6.692   0.335   8.327  0.3841  0.6036  0.7188
  506MOL0    Cl69735   6.588   0.327   8.476  0.1529  0.0019  0.0216
  506MOL0     C69736   7.412   0.499   7.601  0.5709 -0.4540  0.0621
  506MOL0     C69737   7.465   0.572   7.497 -0.1987  0.8180  0.8892
  506MOL0     O69738   7.390   0.736   7.217 -0.5666  0.2936 -0.0244
  506MOL0     C69739   7.685   0.660   7.038  0.4818 -0.2839  0.6506
  506MOL0     C69740   7.749   0.698   6.910 -0.3657 -0.1582 -1.1146
  506MOL0     N69741   8.330   0.724   6.338  0.7603 -0.1026  0.3652
  506MOL0     N69742   8.457   0.752   6.333  0.7086  0.1353  0.1040
  506MOL0     C69743   8.772   1.650   7.182  0.5742 -0.2578  1.3325
  506MOL0     C69744   8.760   1.778   7.214 -0.5961 -0.1278  0.9169
  506MOL0     C69745   8.535   2.131   7.372  0.9029  0.0115  0.1616
  506MOL0     C69746   8.505   2.229   7.273 -0.1825  1.5172 -0.3710
  506MOL0     C69747   8.424   2.340   7.291 -0.2763  0.2973  0.0061
  506MOL0     C69748   8.381   2.374   7.416 -0.3700 -0.6877 -0.6932
  506MOL0     O69749   8.310   2.493   7.432 -0.5498  0.0918 -0.0187
  506MOL0     C69750   8.171   2.479   7.458  0.5754  0.1335  0.2942
  506MOL0     C69751   8.139   2.578   7.571  0.1503  0.0955 -0.1847
  506MOL0     C69752   7.989   2.547   7.611  0.6846 -0.0788 -0.0805
  506MOL0     C69753   7.956   2.571   7.751  0.4693 -0.1478 -0.1847
  506MOL0     C69754   8.017   2.477   7.844 -0.0784 -0.3359 -0.3353
  506MOL0     C69755   8.074   2.388   7.910 -0.0943 -0.5974  1.0260
  506MOL0     C69756   8.416   2.286   7.524  0.5146 -1.0356  0.3272
  506MOL0     C69757   8.496   2.165   7.505 -0.2431 -0.7987 -0.1085
  506MOL0     C69758   8.544   2.098   7.630 -0.2386  0.8669 -0.7967
  506MOL0     H69759   8.473   1.874   7.090 -1.4657 -1.9239  3.8267
  506MOL0     H69760   8.485   1.620   7.011  1.0691 -0.4124  1.4205
  506MOL0     H69761   8.719   1.459   6.854 -0.6138 -3.7318 -1.7946
  506MOL0     H69762   8.549   1.465   6.903  0.5463  2.4110  0.2773
  506MOL0     H69763   8.733   1.237   6.973 -2.0929 -4.4900  0.1364
  506MOL0     H69764   8.567   1.260   6.993 -0.5286  0.1595 -0.2420
  506MOL0     H69765   8.543   1.250   6.729  0.4047  0.1017 -1.3993
  506MOL0     H69766   8.716   1.264   6.710 -2.8414  4.0012 -2.4033
  506MOL0     H69767   8.651   1.061   6.897  1.8173  6.6239  0.9025
  506MOL0     H69768   8.513   1.055   6.783 -0.6290 -1.3082  0.5914
  506MOL0     H69769   8.709   0.890   6.723  1.7058 -0.4490 -0.5696
  506MOL0     H69770   8.820   1.017   6.728  0.8794 -2.8257 -0.3328
  506MOL0     H69771   8.562   1.016   6.555 -0.5136  2.9201 -0.6963
  506MOL0     H69772   8.709   1.114   6.531 -2.1190 -0.9450 -4.4649
  506MOL0     H69773   8.829   0.893   6.480 -0.2468 -1.6039  4.2703
  506MOL0     H69774   8.704   0.947   6.358 -0.8318  0.0030 -0.3630
  506MOL0     H69775   8.701   0.709   6.416  0.2722  1.4910 -1.5485
  506MOL0     H69776   8.671   0.738   6.589 -3.0764  2.3625  3.1157
  506MOL0     H69777   8.416   0.783   6.655  2.6062 -0.3627 -0.5879
  506MOL0     H69778   8.154   0.673   6.602 -0.5615  1.2382  1.1518
  506MOL0     H69779   8.088   0.702   6.443 -0.2531 -0.2852  1.6036
  506MOL0     H69780   8.136   0.903   6.668 -0.3487 -0.9456  1.3730
  506MOL0     H69781   8.133   0.944   6.499  1.2397 -0.7845 -0.9748
  506MOL0     H69782   7.912   0.961   6.619 -3.7028 -0.0064 -2.8462
  506MOL0     H69783   7.893   0.854   6.475  2.1553 -0.4790 -1.5561
  506MOL0     H69784   7.899   0.655   6.618 -1.1226  0.0815  1.6665
  506MOL0     H69785   7.955   0.764   6.755 -0.9212  2.7488 -0.0620
  506MOL0     H69786   7.525   0.862   6.747  1.2666  1.0061  0.3770
  506MOL0     H69787   7.337   0.915   7.025 -0.5176 -0.3191 -0.5105
  506MOL0     H69788   7.293   0.748   7.001 -1.3146  0.1162 -0.5134
  506MOL0     H69789   7.321   0.860   6.863 -0.6634  5.3480  2.4936
  506MOL0     H69790   7.411   0.342   7.248  1.7432  2.3481 -0.3359
  506MOL0     H69791   7.317   0.214   7.429 -0.8173  0.3728 -2.2571
  506MOL0     H69792   7.343   0.416   7.832  1.8122  0.4859 -3.5010
  506MOL0     H69793   7.165   0.429   7.784  0.2450 -0.2142 -3.1613
  506MOL0     H69794   7.149   0.185   7.871  1.6017 -0.2865 -1.5707
  506MOL0     H69795   7.318   0.209   7.917  1.2147  1.4942 -0.1378
  506MOL0     H69796   7.057   0.353   8.008 -0.9042  0.0593  4.1372
  506MOL0     H69797   7.216   0.381   8.084  1.6327 -0.9918  2.0517
  506MOL0     H69798   7.239   0.152   8.167 -0.3381 -1.8349 -2.4017
  506MOL0     H69799   7.095   0.101   8.099 -0.5695 -2.4960  6.4122
  506MOL0     H69800   7.076   0.130   8.340  0.5940  0.7388  1.1975
  506MOL0     H69801   7.087   0.303   8.316  1.0712 -1.7507  2.3352
  506MOL0     H69802   6.851   0.140   8.212  0.3068 -0.4233  0.3281
  506MOL0     H69803   6.887   0.309   8.164 -1.5834  0.6654  0.5379
  506MOL0     H69804   6.875   0.338   8.427 -0.3223  0.9568  0.2286
  506MOL0     H69805   6.800   0.173   8.420 -1.6400  0.4744  0.3748
  506MOL0     H69806   6.653   0.267   8.250  3.9403 -2.3548  1.2577
  506MOL0     H69807   6.696   0.437   8.288 -1.1922  0.8117  1.0676
  506MOL0     H69808   7.423   0.542   7.700  1.8529  3.3126 -1.5444
  506MOL0     H69809   7.523   0.662   7.515  1.9751  0.6072 -3.7910
  506MOL0     H69810   7.732   0.602   7.117  1.7683 -1.3855 -0.8532
  506MOL0     H69811   7.848   0.653   6.912 -0.4227 -0.2808 -1.0083
  506MOL0     H69812   8.853   1.587   7.218  0.2824 -1.4031  0.0630
  506MOL0     H69813   8.838   1.825   7.273  0.4224  1.9233 -1.8388
  506MOL0     H69814   8.545   2.212   7.174 -1.6847  3.2087 -1.3339
  506MOL0     H69815   8.394   2.401   7.206 -1.0296 -0.5200 -0.3252
  506MOL0     H69816   8.108   2.503   7.372  0.8102  1.2629  0.4137
  506MOL0     H69817   8.164   2.372   7.481  4.2555 -0.0499  1.1868
  506MOL0     H69818   8.155   2.684   7.545 -0.3284 -0.2683 -2.1373
  506MOL0     H69819   8.208   2.558   7.653  1.7245  3.3386 -0.5484
  506MOL0     H69820   7.908   2.603   7.562 -1.8552 -2.0198  1.6394
  506MOL0     H69821   7.965   2.441   7.595 -1.3906  0.2888  0.2575
  506MOL0     H69822   7.849   2.554   7.760  0.3376  0.6819 -0.0592
  506MOL0     H69823   7.980   2.675   7.775  2.4328 -0.1090 -2.0694
  506MOL0     H69824   8.106   2.304   7.969 -0.3607 -0.8611  0.7943
  506MOL0     H69825   8.391   2.318   7.625  1.3373 -1.1040  0.5639
  506MOL0     H69826   8.488   2.120   7.721  3.2845 -0.0030  1.7741
  506MOL0     H69827   8.543   1.989   7.621 -3.2866  0.3528  2.9872
  506MOL0     H69828   8.646   2.130   7.650  2.0755 -2.3902 -5.4668
  507MOL0     O69829   6.387  11.101   1.534 -0.1400  0.2563  0.0044
  507MOL0     C69830   6.266  11.088   1.519 -0.0895 -0.6410 -0.0894
  507MOL0     O69831   6.200  11.068   1.398 -0.8205  0.1190 -0.7511
  507MOL0     C69832   6.274  11.051   1.287 -0.0108 -0.2923 -0.2891
  507MOL0     C69833   6.248  10.932   1.211 -0.3322 -0.4164  1.1401
  507MOL0     C69834   6.332  10.904   1.101  0.4417  0.0999  0.4731
  507MOL0     C69835   6.431  10.992   1.053 -0.2205 -0.8138 -0.0085
  507MOL0     O69836   6.509  10.986   0.941 -0.2092  0.0840  0.8440
  507MOL0     C69837   6.473  10.892   0.833 -0.5658  0.5264  0.3625
  507MOL0     C69838   6.610  10.851   0.761  0.0053 -0.1784  0.5562
  507MOL0     C69839   6.594  10.774   0.626 -0.8568 -0.1960  0.3720
  507MOL0     C69840   6.725  10.707   0.576  0.5512 -0.5935 -0.7104
  507MOL0     C69841   6.699  10.592   0.483  0.1388 -0.9961  0.0547
  507MOL0     C69842   6.827  10.537   0.435  0.3812 -0.1867 -0.9581
  507MOL0     C69843   6.802  10.440   0.318 -0.6030 -0.1299  0.5276
  507MOL0     C69844   6.927  10.371   0.261 -0.3335  0.5217 -0.2519
  507MOL0     N69845   6.994  10.268   0.353  0.1992 -0.0808  0.8745
  507MOL0     C69846   7.054  10.151   0.314 -0.4405  0.3842 -0.9010
  507MOL0     C69847   7.102  10.093   0.431 -0.1659  0.4082  0.5423
  507MOL0     C69848   7.184   9.966   0.438  0.0918  0.6771 -0.0544
  507MOL0     C69849   7.112   9.856   0.355 -0.6230 -0.2638  0.7216
  507MOL0     C69850   7.155   9.716   0.394 -0.2417  0.6039 -0.3307
  507MOL0     C69851   7.293   9.664   0.337  0.1492  0.7110  0.1934
  507MOL0     O69852   7.294   9.520   0.364  0.2522  0.6063 -0.1243
  507MOL0     C69853   7.224   9.428   0.284 -0.1254 -0.3071 -0.7736
  507MOL0     C69854   7.242   9.300   0.313  0.8009 -0.8334 -0.3773
  507MOL0     C69855   7.196   9.199   0.236  1.6160  0.4919  0.4173
  507MOL0     C69856   7.208   9.057   0.280 -0.3249  0.4696  0.3882
  507MOL0     C69857   7.118   9.232   0.120 -0.0228  0.0419 -0.1304
  507MOL0     C69858   7.054   9.136   0.023  1.3517  0.6295 -1.2444
  507MOL0     O69859   6.932   9.166  -0.024  1.4380  0.2178  0.0992
  507MOL0     C69860   6.862   9.083  -0.110 -0.7533 -0.5127  0.2073
  507MOL0     C69861   6.712   9.071  -0.108  0.2606  0.2489 -0.0381
  507MOL0     C69862   6.644   8.973  -0.189  0.1020 -0.7949 -0.1206
  507MOL0     C69863   6.715   8.918  -0.289 -0.9975  0.2190  0.0591
  507MOL0     O69864   6.655   8.830  -0.374 -0.4698  0.1711  0.3414
  507MOL0     C69865   6.713   8.698  -0.361  0.3157  1.0368 -0.3990
  507MOL0     C69866   6.617   8.600  -0.431  0.6883  0.3351 -0.0963
  507MOL0     C69867   6.671   8.457  -0.416  0.2001  1.1047 -0.4345
  507MOL0     C69868   6.602   8.339  -0.491  0.0799 -0.6400  0.9611
  507MOL0     C69869   6.539   8.243  -0.400  0.6478 -0.5525 -0.0217
  507MOL0     C69870   6.632   8.124  -0.355 -0.7622 -0.9492  0.5935
  507MOL0     C69871   6.568   8.028  -0.243 -1.1175 -0.4361  0.7344
  507MOL0     C69872   6.658   7.914  -0.197 -0.1903 -0.8453  0.2870
  507MOL0    Cl69873   6.798   7.986  -0.111  0.0039  0.1910 -0.4708
  507MOL0     C69874   6.853   8.937  -0.305 -0.3638 -0.0273  0.8872
  507MOL0     C69875   6.924   9.013  -0.211 -1.4091 -0.1632  0.1241
  507MOL0     O69876   7.113   9.030   0.011  0.3951 -0.8249  0.5906
  507MOL0     C69877   7.094   9.369   0.100 -0.5933  0.8631  0.1036
  507MOL0     C69878   7.146   9.471   0.185  0.5761  0.6916  0.0037
  507MOL0     N69879   7.080  10.180   0.533 -0.5123  0.4783  0.4857
  507MOL0     N69880   7.014  10.275   0.485  0.0891  0.2729 -0.6189
  507MOL0     C69881   6.453  11.113   1.121 -0.1222  0.1141  1.1167
  507MOL0     C69882   6.365  11.140   1.225  0.9554 -0.3843  0.5630
  507MOL0     C69883   6.195  11.115   1.643 -0.0052 -0.1670 -0.5647
  507MOL0     C69884   6.093  11.210   1.637  0.1885  0.8513  0.0435
  507MOL0     C69885   6.029  11.259   1.750  0.6792  0.0732 -1.2120
  507MOL0     C69886   6.056  11.187   1.868 -0.5301 -0.3372  0.5362
  507MOL0     O69887   5.987  11.207   1.983  0.7266 -0.1774  0.3528
  507MOL0     C69888   5.842  11.193   1.969 -0.6052  0.2658  0.4796
  507MOL0     C69889   5.793  11.055   1.919 -0.6995 -0.5843  0.4446
  507MOL0     C69890   5.633  11.052   1.915 -0.3045  0.8973  0.5382
  507MOL0     C69891   5.586  10.924   1.841 -0.3001  0.4461  0.2391
  507MOL0     C69892   5.515  10.959   1.710 -0.0473 -0.2383  0.8946
  507MOL0     C69893   5.474  10.988   1.596 -0.0706 -0.5891 -0.7552
  507MOL0     C69894   6.170  11.107   1.879  0.3650  0.4227 -0.1828
  507MOL0     C69895   6.243  11.067   1.768  0.5476  0.4005  1.0763
  507MOL0     C69896   6.358  10.969   1.789 -0.7564 -1.3229 -0.3793
  507MOL0     H69897   6.169  10.864   1.241 -0.6284 -0.9508 -0.7231
  507MOL0     H69898   6.307  10.812   1.050  2.3312 -0.1965  0.0098
  507MOL0     H69899   6.408  10.926   0.752 -2.3859 -1.8431  0.7155
  507MOL0     H69900   6.428  10.805   0.881  0.7316 -0.2062  0.2877
  507MOL0     H69901   6.665  10.943   0.741 -0.1943 -0.1409  0.1700
  507MOL0     H69902   6.664  10.789   0.833  1.1577  0.7611  0.5352
  507MOL0     H69903   6.524  10.693   0.648 -3.1134  2.1243  2.4190
  507MOL0     H69904   6.556  10.840   0.547 -0.2833 -2.7699 -2.2449
  507MOL0     H69905   6.803  10.777   0.543 -0.6065  1.8109  1.2773
  507MOL0     H69906   6.767  10.655   0.663  0.3013 -0.6968 -0.6495
  507MOL0     H69907   6.654  10.649   0.401  0.7249  1.4854  1.3612
  507MOL0     H69908   6.631  10.524   0.535 -2.7897  0.5114 -1.5247
  507MOL0     H69909   6.887  10.620   0.396 -0.2152 -0.2292 -2.0074
  507MOL0     H69910   6.882  10.484   0.513 -1.2717 -0.3616  0.1367
  507MOL0     H69911   6.765  10.482   0.224  0.7079 -1.4268 -0.6302
  507MOL0     H69912   6.736  10.356   0.342 -1.2762  0.7088  1.6491
  507MOL0     H69913   6.914  10.315   0.168  2.9284 -0.5460 -0.2155
  507MOL0     H69914   6.988  10.459   0.240 -0.9443  2.4707  4.7003
  507MOL0     H69915   7.072  10.103   0.218  1.5384 -1.4601  0.3005
  507MOL0     H69916   7.185   9.916   0.536  0.0542 -0.6415 -0.7085
  507MOL0     H69917   7.286   9.967   0.399  0.5831 -0.6529  1.0824
  507MOL0     H69918   7.004   9.859   0.367 -0.8810 -0.4636 -1.2481
  507MOL0     H69919   7.121   9.881   0.249 -2.9236 -2.5169 -0.1116
  507MOL0     H69920   7.151   9.709   0.503 -0.6120 -0.4756 -0.4056
  507MOL0     H69921   7.072   9.656   0.357  1.2501 -0.3485 -2.2702
  507MOL0     H69922   7.301   9.680   0.229 -0.9772 -1.1477 -0.2119
  507MOL0     H69923   7.375   9.715   0.388 -0.6049  0.7304  1.4223
  507MOL0     H69924   7.297   9.275   0.403 -1.0236  1.2314  1.4195
  507MOL0     H69925   7.110   9.009   0.275 -0.4171  0.4771  1.6515
  507MOL0     H69926   7.236   9.044   0.385 -0.5730  0.1709  0.4183
  507MOL0     H69927   7.280   9.003   0.217  1.8123  0.0382  3.0037
  507MOL0     H69928   6.652   9.126  -0.035 -3.4577 -5.5599  2.1003
  507MOL0     H69929   6.535   8.972  -0.188  0.0209  1.3809  1.4526
  507MOL0     H69930   6.810   8.685  -0.409  1.1542 -0.0781  1.5157
  507MOL0     H69931   6.710   8.675  -0.254  0.5885 -0.9051 -0.7793
  507MOL0     H69932   6.519   8.606  -0.382 -0.4539  1.9383 -2.4269
  507MOL0     H69933   6.606   8.632  -0.535  0.2878  1.5492  0.3062
  507MOL0     H69934   6.667   8.421  -0.313 -1.3394 -5.0416 -2.2228
  507MOL0     H69935   6.776   8.470  -0.445  1.1242  0.7172  2.3846
  507MOL0     H69936   6.678   8.292  -0.555  0.2788 -0.4307  1.0424
  507MOL0     H69937   6.527   8.383  -0.556  1.8031  1.4369  0.2593
  507MOL0     H69938   6.509   8.292  -0.307  2.4790  0.3874  0.1358
  507MOL0     H69939   6.454   8.197  -0.450 -0.9146 -0.6958  2.5766
  507MOL0     H69940   6.727   8.174  -0.335 -0.7790  0.3815 -2.1900
  507MOL0     H69941   6.652   8.063  -0.443 -2.7061  2.6543 -2.6950
  507MOL0     H69942   6.484   7.979  -0.294  0.2593 -0.3601 -1.7335
  507MOL0     H69943   6.544   8.076  -0.148  0.7849  1.7125  0.2071
  507MOL0     H69944   6.700   7.856  -0.280 -1.4380 -4.6040  2.0855
  507MOL0     H69945   6.606   7.839  -0.137 -0.5631 -0.2213  0.7611
  507MOL0     H69946   6.893   8.888  -0.393  0.4867  2.7940 -0.4054
  507MOL0     H69947   7.032   9.014  -0.225 -1.2898  1.5794  0.8099
  507MOL0     H69948   7.041   9.399   0.011  0.9364  0.1031 -1.0996
  507MOL0     H69949   7.122   9.574   0.161  1.0998  0.4838 -1.5068
  507MOL0     H69950   6.532  11.183   1.099  0.0164 -0.0993  0.9299
  507MOL0     H69951   6.379  11.234   1.278 -1.2286  0.8406 -0.8689
  507MOL0     H69952   6.078  11.256   1.540  2.9100  2.0562  0.1302
  507MOL0     H69953   5.946  11.328   1.749 -2.2379 -3.1444  0.5503
  507MOL0     H69954   5.797  11.226   2.063  1.8205 -1.1621  2.2633
  507MOL0     H69955   5.812  11.262   1.890  0.0013  1.3759  1.1821
  507MOL0     H69956   5.827  10.977   1.988 -0.4709 -0.3733  0.5733
  507MOL0     H69957   5.839  11.026   1.823 -1.1645 -0.6013  0.2247
  507MOL0     H69958   5.597  11.057   2.018 -0.7592  1.6758  0.3503
  507MOL0     H69959   5.609  11.142   1.858  1.5019  0.2470 -1.4066
  507MOL0     H69960   5.513  10.877   1.907 -0.3494 -1.8097 -1.2834
  507MOL0     H69961   5.673  10.858   1.828  0.1529  0.4263  2.8955
  507MOL0     H69962   5.440  11.014   1.497  1.1540 -0.7759 -1.2400
  507MOL0     H69963   6.174  11.059   1.976  1.1129  3.9342  1.6787
  507MOL0     H69964   6.346  10.909   1.880 -3.5418 -3.0943 -1.7835
  507MOL0     H69965   6.363  10.912   1.696 -1.2854 -0.2066 -1.1214
  507MOL0     H69966   6.455  11.020   1.795 -0.2788 -2.3659  1.7800
  508MOL0     O69967   0.450   9.877  10.756 -0.3109  0.3465 -0.1553
  508MOL0     C69968   0.450   9.862  10.879  0.0071  1.2111 -0.6318
  508MOL0     O69969   0.375   9.942  10.960  0.0850  0.2627  0.2694
  508MOL0     C69970   0.272  10.026  10.936 -0.6711  0.1291 -1.0313
  508MOL0     C69971   0.258  10.115  10.834 -0.5208 -0.1022  0.0036
  508MOL0     C69972   0.148  10.208  10.827  0.1056  0.5753  0.1430
  508MOL0     C69973   0.048  10.204  10.919  0.1020  0.5646 -1.0600
  508MOL0     O69974  -0.030  10.324  10.924 -0.2215 -0.9321 -0.7074
  508MOL0     C69975  -0.145  10.328  11.003  0.6752 -0.2885 -0.0129
  508MOL0     C69976  -0.263  10.249  10.950  0.3953  0.6772 -0.2124
  508MOL0     C69977  -0.332  10.339  10.839 -0.0467 -0.5465  0.1177
  508MOL0     C69978  -0.409  10.256  10.734 -0.4047 -0.1761 -0.4398
  508MOL0     C69979  -0.473  10.342  10.627  0.8054 -0.7025 -0.0367
  508MOL0     C69980  -0.578  10.282  10.529 -0.1842  0.1637  0.7369
  508MOL0     C69981  -0.714  10.274  10.606  0.0371 -0.5011  0.5047
  508MOL0     C69982  -0.820  10.215  10.510 -0.2176  0.2835  0.3307
  508MOL0     N69983  -0.949  10.196  10.576 -0.2476 -0.2401  0.5178
  508MOL0     C69984  -1.051  10.286  10.564  0.3687 -0.0575  0.9509
  508MOL0     C69985  -1.142  10.238  10.659  0.1178 -0.3572 -0.2622
  508MOL0     C69986  -1.279  10.294  10.695  0.6522 -0.5825 -1.0773
  508MOL0     C69987  -1.374  10.202  10.767 -0.0377 -0.4001 -0.8144
  508MOL0     C69988  -1.487  10.282  10.822 -0.1289  0.5189  0.0829
  508MOL0     C69989  -1.584  10.209  10.922  0.1102  0.1877 -0.7037
  508MOL0     O69990  -1.597  10.070  10.898  0.0243  1.2873  1.0003
  508MOL0     C69991  -1.653   9.987  10.989 -0.4732 -0.2826 -0.0314
  508MOL0     C69992  -1.792   9.962  10.984 -0.3998 -0.1596 -0.4976
  508MOL0     C69993  -1.864   9.879  11.084  0.1820  0.0783 -0.3322
  508MOL0     C69994  -2.021   9.876  11.078  0.6038  0.4124  0.4485
  508MOL0     C69995  -1.775   9.814  11.184  0.6274  0.1731  0.3441
  508MOL0     C69996  -1.835   9.747  11.299 -0.2527  0.3205 -0.3152
  508MOL0     O69997  -1.739   9.717  11.397 -0.0741  0.5221 -0.5964
  508MOL0     C69998  -1.774   9.689  11.529  0.4993 -0.4364 -0.9283
  508MOL0     C69999  -1.896   9.724  11.600 -0.9871  0.0132  0.2012
  508MOL0     C70000  -1.901   9.719  11.737 -0.0290  1.2043  0.8980
  508MOL0     C70001  -1.795   9.667  11.818 -0.3363  0.0152  0.2635
  508MOL0     O70002  -1.805   9.666  11.956  0.1395 -0.0121 -0.3815
  508MOL0     C70003  -1.684   9.647  12.034 -0.0350  0.8777  0.6030
  508MOL0     C70004  -1.720   9.642  12.184  0.4089  0.1327 -0.0931
  508MOL0     C70005  -1.779   9.514  12.248 -0.1657  1.1269 -0.4499
  508MOL0     C70006  -1.799   9.538  12.403  0.7169 -0.2345  0.0376
  508MOL0     C70007  -1.673   9.573  12.485 -0.7977 -0.6836  0.2952
  508MOL0     C70008  -1.673   9.506  12.622 -0.8052  0.1718  0.2895
  508MOL0     C70009  -1.795   9.548  12.709 -0.1864 -0.0978  0.4862
  508MOL0     C70010  -1.790   9.532  12.861  0.2309  0.1698  0.5355
  508MOL0    Cl70011  -1.696   9.373  12.905 -0.3144  0.0511  0.1522
  508MOL0     C70012  -1.690   9.604  11.746 -0.0190  0.2243  0.2186
  508MOL0     C70013  -1.677   9.620  11.607  0.6419 -0.5121  0.6148
  508MOL0     O70014  -1.944   9.709  11.300 -0.1318 -0.3438  0.1417
  508MOL0     C70015  -1.640   9.852  11.182  0.2390  0.4246 -0.6362
  508MOL0     C70016  -1.574   9.940  11.095 -0.4274 -0.5956  0.8148
  508MOL0     N70017  -1.080  10.133  10.722 -0.2275  0.6495 -0.4513
  508MOL0     N70018  -0.971  10.104  10.666  0.0599 -0.3941  1.2908
  508MOL0     C70019   0.048  10.103  11.016  0.2817  0.3255  0.2920
  508MOL0     C70020   0.159  10.015  11.020 -0.8404  0.1590  0.1582
  508MOL0     C70021   0.543   9.749  10.922  0.0607  0.1599 -0.7560
  508MOL0     C70022   0.588   9.651  10.826 -0.1144  1.1507  0.6088
  508MOL0     C70023   0.675   9.556  10.870 -0.4579  0.2098 -0.3144
  508MOL0     C70024   0.727   9.549  10.993 -0.1496 -0.3599 -0.0967
  508MOL0     O70025   0.828   9.454  11.021 -0.3664 -0.0904 -0.6073
  508MOL0     C70026   0.887   9.450  11.163 -0.0084  0.1094  1.7265
  508MOL0     C70027   0.937   9.311  11.206 -0.2858 -0.2120  0.1586
  508MOL0     C70028   1.092   9.319  11.233 -0.7220  0.3242  1.0031
  508MOL0     C70029   1.172   9.348  11.107  0.5986 -0.4022 -0.8984
  508MOL0     C70030   1.304   9.398  11.148 -0.2277 -0.8231  0.1479
  508MOL0     C70031   1.406   9.464  11.173 -0.0154  0.7607 -0.4174
  508MOL0     C70032   0.672   9.631  11.091 -0.4692  0.2451 -0.5061
  508MOL0     C70033   0.583   9.730  11.059 -1.0916  0.2278 -0.7713
  508MOL0     C70034   0.517   9.801  11.175  0.0161 -0.3750 -0.5904
  508MOL0     H70035   0.342  10.145  10.773 -0.0951  4.0361  2.2921
  508MOL0     H70036   0.138  10.275  10.742  0.7591 -2.3502 -2.4407
  508MOL0     H70037  -0.179  10.432  11.005  0.1360 -0.4700  0.7454
  508MOL0     H70038  -0.107  10.298  11.101 -0.0631 -1.6678 -0.1222
  508MOL0     H70039  -0.221  10.161  10.900 -0.4804  0.2454 -0.2179
  508MOL0     H70040  -0.340  10.225  11.023  0.4059  2.1057  0.2986
  508MOL0     H70041  -0.403  10.399  10.897 -0.2860 -1.7962  1.1707
  508MOL0     H70042  -0.260  10.403  10.788  3.3938 -2.2929  2.4632
  508MOL0     H70043  -0.354  10.170  10.694 -1.2278 -0.8094 -0.2212
  508MOL0     H70044  -0.479  10.196  10.793  4.2987 -4.9635  1.1115
  508MOL0     H70045  -0.387  10.384  10.573  0.8609 -0.8820 -0.0910
  508MOL0     H70046  -0.515  10.436  10.665 -0.0682 -1.4507  0.8906
  508MOL0     H70047  -0.582  10.346  10.440  1.7120  0.0515  0.5353
  508MOL0     H70048  -0.540  10.184  10.499  0.2950  1.2042 -2.4165
  508MOL0     H70049  -0.741  10.378  10.624  1.1815 -0.1286  0.1167
  508MOL0     H70050  -0.701  10.213  10.696  2.9988 -0.4482  0.2174
  508MOL0     H70051  -0.824  10.282  10.423 -0.0904  0.1623  0.2293
  508MOL0     H70052  -0.780  10.120  10.470  1.4912  1.6440 -1.3998
  508MOL0     H70053  -1.064  10.376  10.506  1.2969  2.6922  4.6050
  508MOL0     H70054  -1.322  10.342  10.607  0.9734  1.0849 -0.3521
  508MOL0     H70055  -1.252  10.376  10.762 -3.9854 -0.3310  0.8580
  508MOL0     H70056  -1.402  10.117  10.704  1.3163 -2.0164  0.6543
  508MOL0     H70057  -1.321  10.156  10.851 -0.1179  0.0482 -0.5214
  508MOL0     H70058  -1.438  10.361  10.880  0.4179  1.0799 -1.1024
  508MOL0     H70059  -1.547  10.317  10.738 -1.3457  0.7260  1.0173
  508MOL0     H70060  -1.544  10.217  11.024  0.4565  1.2622 -0.9145
  508MOL0     H70061  -1.683  10.257  10.915  1.6143  3.8811  0.5481
  508MOL0     H70062  -1.844  10.019  10.907  0.2180  1.1614  0.0264
  508MOL0     H70063  -2.047   9.774  11.048  1.4021  0.9681 -2.5214
  508MOL0     H70064  -2.054   9.949  11.004  4.6706 -0.5198 -2.6825
  508MOL0     H70065  -2.059   9.900  11.178  0.1978 -2.4939  1.0813
  508MOL0     H70066  -1.969   9.758  11.527  0.2616  0.2569 -0.9910
  508MOL0     H70067  -1.993   9.749  11.786 -1.8235  2.2801 -2.7720
  508MOL0     H70068  -1.633   9.555  12.003  1.2994  2.2051 -1.4100
  508MOL0     H70069  -1.618   9.732  12.013  0.3619 -0.1126 -2.9294
  508MOL0     H70070  -1.626   9.664  12.237  0.7302 -2.2877  0.4738
  508MOL0     H70071  -1.800   9.714  12.202 -1.6684 -2.0123 -0.3313
  508MOL0     H70072  -1.711   9.431  12.229  2.0218  2.4908  1.0590
  508MOL0     H70073  -1.876   9.483  12.209 -0.1461  1.9567 -1.2014
  508MOL0     H70074  -1.841   9.446  12.444  0.1662 -0.2641 -0.5929
  508MOL0     H70075  -1.867   9.621  12.425  1.3231  0.1780  0.4278
  508MOL0     H70076  -1.579   9.537  12.444  1.7353  1.9318  3.2343
  508MOL0     H70077  -1.651   9.680  12.482  2.2795 -1.1671  1.6591
  508MOL0     H70078  -1.580   9.526  12.678 -0.9534 -0.2612  0.6958
  508MOL0     H70079  -1.681   9.399  12.601 -0.5321  0.4638 -1.4633
  508MOL0     H70080  -1.876   9.481  12.680  0.8501 -1.2645  0.2083
  508MOL0     H70081  -1.830   9.644  12.671  1.3252 -0.5471 -2.2881
  508MOL0     H70082  -1.891   9.531  12.903  0.0780 -1.5920  0.1970
  508MOL0     H70083  -1.736   9.620  12.896  0.4435  0.0289  0.5627
  508MOL0     H70084  -1.610   9.543  11.786  0.0862  1.7673  2.5602
  508MOL0     H70085  -1.589   9.584  11.556 -0.8053 -3.4022 -0.0202
  508MOL0     H70086  -1.573   9.806  11.255 -1.0427 -0.6225 -0.0858
  508MOL0     H70087  -1.468   9.965  11.104 -0.2709 -1.0989  0.3934
  508MOL0     H70088  -0.023  10.100  11.097  0.4231  0.1436  0.4113
  508MOL0     H70089   0.181   9.944  11.099  1.3793  0.8648  0.2536
  508MOL0     H70090   0.573   9.667  10.720  0.2302  4.4846  0.9649
  508MOL0     H70091   0.714   9.477  10.805  1.3755  1.7519 -1.1910
  508MOL0     H70092   0.966   9.525  11.175  0.8952 -0.8406  1.8611
  508MOL0     H70093   0.813   9.469  11.241 -0.6855  0.6762  0.9525
  508MOL0     H70094   0.929   9.242  11.121  1.0932  2.1560 -2.0419
  508MOL0     H70095   0.880   9.275  11.292 -1.8961  1.6598 -0.0547
  508MOL0     H70096   1.103   9.404  11.301 -0.6345  1.3402 -0.2490
  508MOL0     H70097   1.121   9.226  11.284  0.5377  0.0449 -0.1812
  508MOL0     H70098   1.126   9.423  11.042  2.9426  1.6364 -0.3191
  508MOL0     H70099   1.184   9.260  11.043  3.5322  1.2880 -2.9141
  508MOL0     H70100   1.496   9.517  11.199 -0.9890  1.4246  1.7900
  508MOL0     H70101   0.686   9.622  11.198 -0.3276 -0.4036 -0.5738
  508MOL0     H70102   0.517   9.910  11.169  0.1541 -0.2108  1.5002
  508MOL0     H70103   0.409   9.784  11.167 -0.3042 -0.0551  2.1727
  508MOL0     H70104   0.547   9.766  11.275 -0.8110 -1.3539 -0.6645
  509MOL0     O70105   8.720   8.523   9.807 -0.1131  0.6587 -0.1632
  509MOL0     C70106   8.785   8.415   9.810 -0.3736 -0.1804 -0.0808
  509MOL0     O70107   8.901   8.393   9.728 -0.2711  0.2596 -0.4637
  509MOL0     C70108   8.968   8.503   9.678  0.1564  0.3554 -0.3659
  509MOL0     C70109   9.093   8.534   9.737  0.1894  0.6619 -0.0192
  509MOL0     C70110   9.155   8.649   9.699 -0.3982 -0.1503  0.2511
  509MOL0     C70111   9.103   8.741   9.611  0.2305  0.8009  0.5191
  509MOL0     O70112   9.161   8.861   9.587  0.4451 -0.2625 -0.1125
  509MOL0     C70113   9.298   8.881   9.607 -0.4325 -0.0026  0.6645
  509MOL0     C70114   9.329   9.006   9.528  0.6744 -0.4420  0.2537
  509MOL0     C70115   9.475   9.041   9.524 -0.5043 -0.3420 -0.1825
  509MOL0     C70116   9.564   9.025   9.642 -0.3398  0.3877  0.1561
  509MOL0     C70117   9.714   9.035   9.608  0.9191 -0.0507  0.6784
  509MOL0     C70118   9.800   8.983   9.719  0.2429 -0.6063 -0.1192
  509MOL0     C70119   9.952   8.994   9.721  0.4730 -0.6386  0.0510
  509MOL0     C70120  10.011   9.127   9.671  0.5005  0.2827  0.1004
  509MOL0     N70121  10.155   9.107   9.650  1.0168 -0.0137 -0.1592
  509MOL0     C70122  10.248   9.128   9.743 -0.3816  0.3022 -0.5473
  509MOL0     C70123  10.360   9.078   9.691  0.4479 -0.9096  0.9509
  509MOL0     C70124  10.499   9.088   9.761  0.4576 -0.4248  0.6525
  509MOL0     C70125  10.513   8.980   9.873  0.3494 -0.4320  0.0053
  509MOL0     C70126  10.624   8.869   9.835  0.0927 -0.5724 -0.4666
  509MOL0     C70127  10.685   8.791   9.958 -0.0690 -0.2819 -0.2097
  509MOL0     O70128  10.579   8.741  10.037  0.5810 -0.6414 -1.0107
  509MOL0     C70129  10.569   8.603  10.031  0.1368  1.2035  0.1471
  509MOL0     C70130  10.635   8.529  10.128 -0.4418  0.4468  0.2032
  509MOL0     C70131  10.606   8.395  10.143 -0.0309 -0.1186 -0.0873
  509MOL0     C70132  10.692   8.331  10.248 -0.7869 -0.0773 -0.3992
  509MOL0     C70133  10.502   8.333  10.068  0.4285 -0.7720  0.2826
  509MOL0     C70134  10.474   8.194  10.083 -0.0749 -0.5367 -0.3394
  509MOL0     O70135  10.351   8.168  10.107  0.4796  0.5756 -1.1920
  509MOL0     C70136  10.328   8.035  10.126  0.7960  0.6447 -0.1049
  509MOL0     C70137  10.309   7.960  10.010 -1.0528  0.2352 -0.2922
  509MOL0     C70138  10.280   7.827  10.020  0.0984  0.9245 -1.0889
  509MOL0     C70139  10.257   7.760  10.146  0.5868 -0.2158 -0.4133
  509MOL0     O70140  10.219   7.624  10.145 -0.3764  0.1973 -0.3797
  509MOL0     C70141  10.180   7.563  10.269 -0.8459  0.9312 -0.7364
  509MOL0     C70142  10.115   7.435  10.250  0.3999  0.5195  0.7827
  509MOL0     C70143   9.978   7.462  10.184  0.4253  0.9445  0.4371
  509MOL0     C70144   9.921   7.349  10.100 -0.7211  0.7697  0.0955
  509MOL0     C70145   9.848   7.228  10.176 -0.2792  0.0533 -0.8672
  509MOL0     C70146   9.800   7.129  10.077  0.2519 -0.2049  0.1607
  509MOL0     C70147   9.820   6.985  10.119 -0.3154  0.1052  0.1744
  509MOL0     C70148   9.966   6.937  10.090  0.5667  1.1930 -0.4037
  509MOL0    Cl70149   9.983   6.885   9.923 -0.2564 -0.5346  0.1549
  509MOL0     C70150  10.295   7.830  10.264 -0.4882 -0.3751 -0.0371
  509MOL0     C70151  10.325   7.969  10.249 -0.4381  0.5946 -0.7048
  509MOL0     O70152  10.566   8.113  10.066 -0.1042  0.9250 -0.1518
  509MOL0     C70153  10.419   8.411   9.982 -0.4463  0.1564 -0.4259
  509MOL0     C70154  10.452   8.545   9.972 -0.1000  0.6072  0.5682
  509MOL0     N70155  10.329   9.032   9.555  0.1373 -0.1865 -1.1342
  509MOL0     N70156  10.207   9.054   9.534  0.7717 -0.0916 -0.2646
  509MOL0     C70157   8.985   8.708   9.536 -0.6893 -0.1090  0.1672
  509MOL0     C70158   8.926   8.580   9.574 -0.6765  0.0385  0.2827
  509MOL0     C70159   8.726   8.303   9.898  0.6005 -0.7145 -0.3396
  509MOL0     C70160   8.619   8.331   9.990 -0.9002 -0.3179  0.1844
  509MOL0     C70161   8.566   8.229  10.074 -1.1414 -0.5908  0.0516
  509MOL0     C70162   8.605   8.099  10.065  0.7828  0.9009 -0.2842
  509MOL0     O70163   8.536   7.995  10.128 -0.7787 -0.4310 -0.5407
  509MOL0     C70164   8.496   8.011  10.264 -0.1667 -0.5431  0.2497
  509MOL0     C70165   8.618   7.967  10.358 -0.3633 -0.4906 -0.3283
  509MOL0     C70166   8.576   7.979  10.508  1.3455 -0.3665  0.9835
  509MOL0     C70167   8.587   8.127  10.547  0.1848 -0.0215 -0.1650
  509MOL0     C70168   8.576   8.140  10.694  0.1836 -0.4430 -0.0257
  509MOL0     C70169   8.564   8.172  10.812 -0.4903  0.3089 -0.6601
  509MOL0     C70170   8.694   8.064   9.967  0.0210  0.3658  0.0409
  509MOL0     C70171   8.748   8.166   9.880 -0.1824  0.3286 -1.2087
  509MOL0     C70172   8.842   8.117   9.769 -0.2976  0.0523 -0.3742
  509MOL0     H70173   9.130   8.466   9.812 -0.3891 -1.2657 -1.4010
  509MOL0     H70174   9.247   8.681   9.746 -1.7277  1.8327  1.6829
  509MOL0     H70175   9.352   8.797   9.563  2.7650  3.0097 -1.7973
  509MOL0     H70176   9.325   8.895   9.712 -1.0583  3.8457  0.4635
  509MOL0     H70177   9.285   9.007   9.428  0.6257  1.4027  0.2442
  509MOL0     H70178   9.277   9.089   9.579 -1.8480 -1.6470 -0.1827
  509MOL0     H70179   9.508   8.973   9.445 -3.6367  0.6109 -2.5613
  509MOL0     H70180   9.489   9.144   9.489  2.1005  0.0001  1.5777
  509MOL0     H70181   9.529   9.102   9.711 -0.9676  0.2138  0.0362
  509MOL0     H70182   9.552   8.927   9.689 -0.7484  0.1585 -0.4204
  509MOL0     H70183   9.733   9.138   9.578  0.1198 -0.0651  0.0823
  509MOL0     H70184   9.727   8.980   9.514  0.7789  0.8101  0.1440
  509MOL0     H70185   9.757   9.033   9.806  2.7750  0.1274  0.7920
  509MOL0     H70186   9.776   8.877   9.732 -1.0188 -0.6208 -2.1323
  509MOL0     H70187   9.993   8.916   9.656 -0.8538 -3.1593  2.0436
  509MOL0     H70188   9.974   8.967   9.825  0.1581 -2.4277 -0.3162
  509MOL0     H70189   9.971   9.145   9.571  0.6342 -2.2424 -0.4512
  509MOL0     H70190   9.997   9.208   9.744 -3.7514  1.6592 -1.8830
  509MOL0     H70191  10.227   9.168   9.842 -2.7844 -1.1503 -0.3907
  509MOL0     H70192  10.516   9.184   9.811  2.4130 -1.3227  1.8398
  509MOL0     H70193  10.569   9.086   9.677 -1.6492  0.7660 -1.2559
  509MOL0     H70194  10.540   9.034   9.964 -3.9676  1.1703  0.5779
  509MOL0     H70195  10.418   8.931   9.894  0.5044 -1.4114 -1.4402
  509MOL0     H70196  10.592   8.795   9.761  3.0027 -0.6500 -1.7820
  509MOL0     H70197  10.705   8.925   9.787 -0.0074  0.0534  0.0785
  509MOL0     H70198  10.752   8.707   9.937 -0.9038 -1.2585  0.9041
  509MOL0     H70199  10.736   8.868  10.016 -3.9057  1.5141  1.0989
  509MOL0     H70200  10.718   8.577  10.178  0.6615  2.5018 -3.2350
  509MOL0     H70201  10.736   8.243  10.200 -4.2471 -2.0126 -0.4030
  509MOL0     H70202  10.625   8.305  10.330  1.3908 -3.4028  0.5174
  509MOL0     H70203  10.778   8.387  10.284 -0.9521 -1.0250  1.5574
  509MOL0     H70204  10.317   7.989   9.906 -3.2062  0.0571 -0.5673
  509MOL0     H70205  10.277   7.761   9.934 -0.7886  0.3211 -0.6086
  509MOL0     H70206  10.272   7.568  10.328 -1.1756  2.2188 -0.3062
  509MOL0     H70207  10.106   7.622  10.323  1.1843  1.9266  1.1097
  509MOL0     H70208  10.171   7.368  10.183 -2.7293 -0.7536 -0.8197
  509MOL0     H70209  10.097   7.383  10.344  0.2176  0.8749  0.9486
  509MOL0     H70210   9.987   7.548  10.117  1.8047 -0.5208 -1.3652
  509MOL0     H70211   9.899   7.482  10.257 -3.0312 -2.2413 -1.9945
  509MOL0     H70212  10.002   7.321  10.032  0.2312  2.2085  0.6012
  509MOL0     H70213   9.848   7.391  10.029 -0.8280  2.5647  1.1898
  509MOL0     H70214   9.928   7.188  10.239  0.4617  5.1922  1.9897
  509MOL0     H70215   9.769   7.262  10.244  0.9610  0.0745  0.6072
  509MOL0     H70216   9.850   7.147   9.982  0.8638  3.0101  0.9697
  509MOL0     H70217   9.697   7.155  10.050  0.4320 -0.9692 -1.3629
  509MOL0     H70218   9.757   6.918  10.061 -1.5871  1.7444 -0.4240
  509MOL0     H70219   9.785   6.981  10.222 -0.1514 -0.5757  0.2063
  509MOL0     H70220   9.989   6.854  10.158 -0.6239  1.4325  0.3288
  509MOL0     H70221  10.039   7.018  10.104  0.7934  0.6157  2.4001
  509MOL0     H70222  10.283   7.800  10.367  0.9639  0.5085  0.4139
  509MOL0     H70223  10.325   8.039  10.332 -0.7244 -0.3908  0.1617
  509MOL0     H70224  10.330   8.371   9.935 -1.4033  1.6458  0.0482
  509MOL0     H70225  10.389   8.611   9.913  0.9361 -1.8619 -3.7286
  509MOL0     H70226   8.956   8.767   9.450  1.7472 -1.2605 -1.5768
  509MOL0     H70227   8.837   8.539   9.529 -2.1729 -0.3839  3.3975
  509MOL0     H70228   8.577   8.430  10.006 -0.0451  0.2791 -1.1264
  509MOL0     H70229   8.504   8.266  10.155 -0.6469 -1.2639  0.7505
  509MOL0     H70230   8.460   8.112  10.283 -0.0753 -0.4788  0.0746
  509MOL0     H70231   8.406   7.949  10.272 -1.3569  1.1000  0.2260
  509MOL0     H70232   8.702   8.033  10.335  0.8222 -1.3146  1.4547
  509MOL0     H70233   8.664   7.871  10.334  3.2768  0.1476  3.0610
  509MOL0     H70234   8.478   7.934  10.530 -0.6508  3.6414  1.2705
  509MOL0     H70235   8.644   7.929  10.576  3.3669  2.8720  1.5448
  509MOL0     H70236   8.516   8.197  10.502  0.5999  0.4501 -0.0940
  509MOL0     H70237   8.685   8.166  10.519 -0.0681  0.7358 -0.0103
  509MOL0     H70238   8.573   8.204  10.914 -2.6498  1.8535 -0.8940
  509MOL0     H70239   8.726   7.961   9.951 -2.3170 -0.2627 -0.8513
  509MOL0     H70240   8.808   8.166   9.678  1.8705  0.6425 -0.9199
  509MOL0     H70241   8.944   8.148   9.793  0.4771 -0.8529 -2.3066
  509MOL0     H70242   8.830   8.010   9.754  0.2472  0.0994 -1.1459
  510MOL0     O70243   3.627   5.729   9.596  0.8026  0.5052 -0.9463
  510MOL0     C70244   3.526   5.761   9.528 -0.3013  1.0987  0.6361
  510MOL0     O70245   3.409   5.807   9.581  1.0257 -0.0799  0.2879
  510MOL0     C70246   3.379   5.775   9.708  0.4679  0.1230 -0.5335
  510MOL0     C70247   3.320   5.875   9.784 -0.5297 -0.0692 -0.7803
  510MOL0     C70248   3.281   5.844   9.911 -0.3398  0.3435 -0.4162
  510MOL0     C70249   3.293   5.714   9.963 -0.1032 -1.1281  0.5079
  510MOL0     O70250   3.244   5.694  10.094 -0.4555  0.0818  0.4192
  510MOL0     C70251   3.351   5.646  10.179  1.1519 -0.1279 -0.1985
  510MOL0     C70252   3.317   5.647  10.324 -1.6430 -0.0958  0.4246
  510MOL0     C70253   3.431   5.566  10.402  0.4586 -0.5754  0.5895
  510MOL0     C70254   3.527   5.669  10.475  1.9095  0.6257  0.3474
  510MOL0     C70255   3.439   5.739  10.590 -0.7983  0.5312 -0.0013
  510MOL0     C70256   3.442   5.656  10.718  0.3903 -0.9192 -0.2528
  510MOL0     C70257   3.347   5.710  10.824  0.1165  0.1967 -0.1865
  510MOL0     C70258   3.375   5.859  10.853 -1.0614 -0.5985 -0.0016
  510MOL0     N70259   3.503   5.865  10.933  0.7243  0.2874 -0.1945
  510MOL0     C70260   3.616   5.880  10.868 -0.2223  0.9705  0.8316
  510MOL0     C70261   3.710   5.841  10.953 -1.4561  0.4009  0.5115
  510MOL0     C70262   3.857   5.843  10.920  0.1461 -0.2689 -0.0639
  510MOL0     C70263   3.924   5.704  10.939  0.0222  0.0882 -0.0431
  510MOL0     C70264   3.853   5.604  10.854  0.0096  0.0592  0.8006
  510MOL0     C70265   3.878   5.604  10.697  1.4288  0.5637 -0.4269
  510MOL0     O70266   4.012   5.582  10.668 -0.9880  0.8269  0.6315
  510MOL0     C70267   4.050   5.565  10.535 -0.5389  0.5512  0.8622
  510MOL0     C70268   3.971   5.585  10.423 -0.3761  0.2614 -0.6113
  510MOL0     C70269   4.018   5.553  10.294  0.0159 -0.4757  0.0784
  510MOL0     C70270   3.933   5.558  10.166 -0.0333  0.3982  0.8388
  510MOL0     C70271   4.164   5.540  10.274  0.2249 -0.9304  0.4685
  510MOL0     C70272   4.232   5.517  10.145  0.8523 -0.8823 -0.7770
  510MOL0     O70273   4.165   5.441  10.056 -0.2495  0.4146 -0.3513
  510MOL0     C70274   4.227   5.394   9.934 -0.0018 -0.5813 -0.0931
  510MOL0     C70275   4.146   5.389   9.816  0.0370  0.3339 -1.0215
  510MOL0     C70276   4.208   5.343   9.693  0.0536 -0.2277 -0.3753
  510MOL0     C70277   4.341   5.313   9.687  0.1151  1.1093 -0.4328
  510MOL0     O70278   4.401   5.279   9.566  0.1002 -0.3173 -0.7179
  510MOL0     C70279   4.435   5.144   9.542 -0.2061 -0.6909 -0.1323
  510MOL0     C70280   4.433   5.120   9.389 -0.0700 -0.1792  0.5577
  510MOL0     C70281   4.547   5.196   9.316 -0.8311 -0.8552 -0.0391
  510MOL0     C70282   4.525   5.209   9.163 -0.5494  0.3482 -0.6608
  510MOL0     C70283   4.646   5.278   9.110 -0.2746 -0.1264  0.9555
  510MOL0     C70284   4.669   5.265   8.955 -0.2880  0.4993 -0.6930
  510MOL0     C70285   4.605   5.373   8.867  1.7333 -0.4401  0.1477
  510MOL0     C70286   4.646   5.343   8.724 -0.4005 -0.3896 -0.3244
  510MOL0    Cl70287   4.819   5.382   8.699 -0.5059  0.8058 -0.1146
  510MOL0     C70288   4.419   5.319   9.808  0.1794  0.1766  0.0543
  510MOL0     C70289   4.364   5.347   9.932  0.1203 -0.3433 -0.1348
  510MOL0     O70290   4.343   5.568  10.131  0.2979  0.0040 -0.9400
  510MOL0     C70291   4.245   5.546  10.381  0.2053  0.3448 -0.1456
  510MOL0     C70292   4.185   5.549  10.507 -0.0857 -0.3489 -0.6473
  510MOL0     N70293   3.647   5.796  11.076  0.0506 -0.2251  1.0098
  510MOL0     N70294   3.519   5.815  11.061  0.5060  0.1678  0.8851
  510MOL0     C70295   3.360   5.613   9.892  0.4961 -0.7330  0.2185
  510MOL0     C70296   3.385   5.644   9.764  0.4372 -0.4634  0.5528
  510MOL0     C70297   3.552   5.765   9.377  0.7619  0.2989  0.3978
  510MOL0     C70298   3.611   5.650   9.319  0.3850  0.6206  0.0801
  510MOL0     C70299   3.634   5.645   9.182  0.4814  0.4377 -0.2087
  510MOL0     C70300   3.598   5.762   9.109  0.7383 -0.4147 -0.3715
  510MOL0     O70301   3.621   5.775   8.974 -0.5531  0.6412  0.6412
  510MOL0     C70302   3.625   5.667   8.876  0.1575 -0.1158  0.2512
  510MOL0     C70303   3.767   5.624   8.840 -0.1261 -0.7153 -0.4382
  510MOL0     C70304   3.806   5.581   8.697 -0.4702  0.2241  0.3870
  510MOL0     C70305   3.940   5.513   8.691  0.5655  0.0388  0.4498
  510MOL0     C70306   3.980   5.470   8.556 -0.8121 -0.8491  0.5419
  510MOL0     C70307   4.008   5.440   8.440  0.1803  0.6183  0.8879
  510MOL0     C70308   3.535   5.870   9.167 -0.2638  0.3298  0.7103
  510MOL0     C70309   3.526   5.879   9.299  0.8054  0.6729 -0.9359
  510MOL0     C70310   3.470   6.005   9.347 -1.8717 -1.0387 -0.5615
  510MOL0     H70311   3.300   5.972   9.740  3.1774  0.6008 -1.3113
  510MOL0     H70312   3.228   5.924   9.962  0.2798 -1.3441  3.1456
  510MOL0     H70313   3.432   5.717  10.163  0.7739 -0.2803 -3.5022
  510MOL0     H70314   3.377   5.547  10.141 -1.4228 -1.4370  1.1280
  510MOL0     H70315   3.317   5.751  10.358  1.0383 -0.0175  0.4300
  510MOL0     H70316   3.221   5.597  10.338 -2.5325  0.3880 -3.0900
  510MOL0     H70317   3.386   5.494  10.470 -1.5227  0.4126  0.4004
  510MOL0     H70318   3.485   5.510  10.325 -0.5840 -3.2138  1.6670
  510MOL0     H70319   3.623   5.623  10.504  3.1463  1.0313 -2.6893
  510MOL0     H70320   3.569   5.734  10.398  1.4166  0.7684  0.1994
  510MOL0     H70321   3.337   5.764  10.559 -2.1656 -1.4047  2.4863
  510MOL0     H70322   3.479   5.838  10.613 -0.9983  0.9125 -1.2335
  510MOL0     H70323   3.408   5.553  10.703  1.7833 -1.4945  0.3632
  510MOL0     H70324   3.538   5.651  10.769  0.6342 -1.2494 -0.7337
  510MOL0     H70325   3.345   5.655  10.919 -1.9188  0.3628 -0.1006
  510MOL0     H70326   3.245   5.707  10.785  0.3097  3.7289 -1.3088
  510MOL0     H70327   3.389   5.936  10.776  1.0582 -1.0792 -0.1484
  510MOL0     H70328   3.286   5.891  10.908 -0.9526 -0.6744  0.2164
  510MOL0     H70329   3.629   5.887  10.761  0.0201 -0.7296  0.7123
  510MOL0     H70330   3.904   5.915  10.987  2.8023  0.0497 -2.1020
  510MOL0     H70331   3.879   5.880  10.820  1.0150 -0.5051  0.0349
  510MOL0     H70332   4.032   5.709  10.919  1.1042  2.5000  4.7646
  510MOL0     H70333   3.921   5.670  11.043 -1.3489 -1.1255 -0.4530
  510MOL0     H70334   3.896   5.506  10.877  3.0843  0.5103 -2.2545
  510MOL0     H70335   3.746   5.597  10.875  0.1293  1.9171  2.2999
  510MOL0     H70336   3.815   5.526  10.655  1.2932  0.1841  0.4574
  510MOL0     H70337   3.849   5.699  10.651  0.7181 -0.5793 -2.4854
  510MOL0     H70338   3.871   5.623  10.437 -0.1007  1.1770 -1.0151
  510MOL0     H70339   3.831   5.587  10.193  0.0803  0.2649  1.4478
  510MOL0     H70340   3.924   5.456  10.128  1.6051 -0.2786  2.1248
  510MOL0     H70341   3.976   5.627  10.093 -3.1839  0.6172 -0.9459
  510MOL0     H70342   4.040   5.410   9.829 -0.5943 -3.5506  1.9844
  510MOL0     H70343   4.166   5.343   9.593 -1.4702 -1.3030  0.2174
  510MOL0     H70344   4.537   5.123   9.574 -0.7450 -4.7485 -0.6118
  510MOL0     H70345   4.371   5.067   9.587  1.9196 -1.9014  0.9859
  510MOL0     H70346   4.454   5.013   9.380 -1.8667 -0.4941 -0.4043
  510MOL0     H70347   4.336   5.142   9.343  0.1089  1.2700  0.8210
  510MOL0     H70348   4.638   5.151   9.356 -0.4812 -0.3740 -0.2771
  510MOL0     H70349   4.555   5.301   9.348 -2.3182 -1.1722  1.5297
  510MOL0     H70350   4.432   5.263   9.141 -0.3334  0.3142 -1.7215
  510MOL0     H70351   4.506   5.111   9.119 -1.9070 -0.9329  2.5164
  510MOL0     H70352   4.651   5.382   9.141 -2.9044 -0.0064  1.2513
  510MOL0     H70353   4.734   5.221   9.143 -1.3676 -1.9545  0.8945
  510MOL0     H70354   4.631   5.166   8.927  1.0102 -0.0615 -0.5202
  510MOL0     H70355   4.777   5.255   8.942 -0.0230  2.7104 -0.6650
  510MOL0     H70356   4.640   5.473   8.897  0.8876  0.8148 -2.7487
  510MOL0     H70357   4.498   5.358   8.881  2.0385 -1.5558  1.4928
  510MOL0     H70358   4.585   5.405   8.657 -0.2586  1.4061  1.1114
  510MOL0     H70359   4.627   5.241   8.689  1.0892 -0.4194 -1.1252
  510MOL0     H70360   4.526   5.300   9.811 -0.0418 -1.0497  1.2818
  510MOL0     H70361   4.429   5.362  10.018  0.1513 -1.8134  0.1226
  510MOL0     H70362   4.354   5.537  10.384  0.0797 -3.1140 -1.1004
  510MOL0     H70363   4.248   5.555  10.595 -1.4352 -1.0482  0.4153
  510MOL0     H70364   3.392   5.517   9.929 -0.8621 -1.0159  0.7232
  510MOL0     H70365   3.443   5.573   9.707 -0.8955 -0.2132 -1.2138
  510MOL0     H70366   3.643   5.570   9.386  0.9763 -1.6836 -2.7462
  510MOL0     H70367   3.687   5.560   9.141 -3.3259 -2.7898  0.8725
  510MOL0     H70368   3.569   5.586   8.924 -1.4348  0.0244 -1.2444
  510MOL0     H70369   3.567   5.699   8.788 -0.8739  1.1437  1.3519
  510MOL0     H70370   3.782   5.543   8.911  0.6075  0.0753  0.3250
  510MOL0     H70371   3.838   5.699   8.874 -0.8816 -0.6013  0.9200
  510MOL0     H70372   3.736   5.516   8.643  1.8294  0.6408 -3.4684
  510MOL0     H70373   3.817   5.675   8.642  0.8543 -1.6424 -2.8069
  510MOL0     H70374   3.946   5.429   8.760 -1.4370 -1.6599 -1.3211
  510MOL0     H70375   4.012   5.581   8.738 -1.9441  2.5095  1.0105
  510MOL0     H70376   4.012   5.404   8.339  0.3498  1.8074  0.4543
  510MOL0     H70377   3.490   5.952   9.112 -3.8552 -0.2627  2.5208
  510MOL0     H70378   3.462   6.010   9.456 -0.4975 -0.0370 -0.4780
  510MOL0     H70379   3.534   6.086   9.311 -1.5416 -0.4884  1.1853
  510MOL0     H70380   3.375   6.030   9.298 -1.5843  2.8941  0.5184
  511MOL0     O70381   5.900  11.158   7.356  0.4143 -0.2261 -0.3485
  511MOL0     C70382   5.913  11.249   7.436  0.9493 -0.3205 -0.4740
  511MOL0     O70383   5.866  11.375   7.418  0.3025 -1.1360  0.2386
  511MOL0     C70384   5.805  11.418   7.303  0.6578  0.4405  0.8181
  511MOL0     C70385   5.693  11.507   7.311 -0.1779 -0.6007 -0.1851
  511MOL0     C70386   5.632  11.557   7.196  0.7017  0.1351 -1.2163
  511MOL0     C70387   5.682  11.526   7.073  0.2253  0.3242  0.4754
  511MOL0     O70388   5.614  11.572   6.959 -0.6471 -0.1997 -0.0145
  511MOL0     C70389   5.647  11.515   6.825  0.1049  0.1817 -0.4224
  511MOL0     C70390   5.530  11.543   6.730 -0.2820  0.1852 -0.3415
  511MOL0     C70391   5.397  11.530   6.804 -0.2525  0.4409 -0.6259
  511MOL0     C70392   5.278  11.534   6.699 -0.4694  0.3600  0.3873
  511MOL0     C70393   5.145  11.507   6.763  0.8699 -0.2735  0.1361
  511MOL0     C70394   5.075  11.645   6.791  0.0745 -0.3845 -0.0206
  511MOL0     C70395   4.936  11.623   6.851 -0.2013  0.1886 -0.4058
  511MOL0     C70396   4.951  11.602   6.999  0.3869 -0.1507  0.5013
  511MOL0     N70397   4.820  11.570   7.056  0.1485  0.7931 -0.0851
  511MOL0     C70398   4.767  11.449   7.079  0.0281  0.3951  0.3453
  511MOL0     C70399   4.643  11.481   7.121 -0.2266  0.5247 -0.4444
  511MOL0     C70400   4.541  11.375   7.154 -0.2697 -0.2756  0.8854
  511MOL0     C70401   4.604  11.258   7.240  0.3675  0.2911 -0.3942
  511MOL0     C70402   4.493  11.189   7.315  0.1259 -0.5679  0.2015
  511MOL0     C70403   4.398  11.113   7.216  0.5889  0.2934  0.1219
  511MOL0     O70404   4.309  11.036   7.307 -0.0010  0.4225 -0.3760
  511MOL0     C70405   4.206  10.963   7.257 -0.1232 -0.4526 -0.5199
  511MOL0     C70406   4.123  10.892   7.353  0.4436 -0.4394  0.3718
  511MOL0     C70407   4.012  10.808   7.322 -1.1574  0.3572 -0.5578
  511MOL0     C70408   3.931  10.757   7.434  0.5457  0.6622 -0.4620
  511MOL0     C70409   3.992  10.790   7.181  0.2396 -0.7995  0.2857
  511MOL0     C70410   3.877  10.708   7.133  0.3366 -0.3460 -0.1983
  511MOL0     O70411   3.852  10.713   6.993 -0.3879  0.1080  0.3677
  511MOL0     C70412   3.732  10.658   6.940  0.7427 -0.1422 -0.5848
  511MOL0     C70413   3.606  10.654   7.005 -0.1288  0.1710 -0.6509
  511MOL0     C70414   3.501  10.598   6.944  0.4807 -0.5219  0.0634
  511MOL0     C70415   3.516  10.526   6.828 -0.5070  0.2908  0.2971
  511MOL0     O70416   3.409  10.446   6.801 -0.8765  0.9600  0.2145
  511MOL0     C70417   3.438  10.307   6.841 -0.2894  0.6468 -0.3749
  511MOL0     C70418   3.414  10.262   6.986 -0.3788 -0.0530  1.0146
  511MOL0     C70419   3.270  10.295   7.032  0.1172 -0.1709 -0.4264
  511MOL0     C70420   3.250  10.255   7.171 -0.1744 -1.0799 -0.4124
  511MOL0     C70421   3.297  10.373   7.265  0.5424 -0.5567  0.4763
  511MOL0     C70422   3.228  10.345   7.412  0.5308 -0.3889  0.1824
  511MOL0     C70423   3.299  10.218   7.491 -0.0949 -0.4976  0.5582
  511MOL0     C70424   3.287  10.225   7.640  0.4645 -0.4672 -1.0251
  511MOL0    Cl70425   3.359  10.362   7.724  0.4737  0.4211 -0.1940
  511MOL0     C70426   3.649  10.517   6.763 -0.4216  0.9990 -0.4155
  511MOL0     C70427   3.745  10.596   6.812 -0.0393 -0.1356 -0.8753
  511MOL0     O70428   3.803  10.648   7.212  0.0255 -0.3955 -0.1202
  511MOL0     C70429   4.072  10.854   7.085 -0.3511 -0.4927  0.7197
  511MOL0     C70430   4.183  10.942   7.120 -0.3806 -0.7619 -0.5274
  511MOL0     N70431   4.637  11.621   7.141  0.5725  0.0562  0.3092
  511MOL0     N70432   4.750  11.671   7.099  1.0057 -0.5882 -0.5854
  511MOL0     C70433   5.805  11.443   7.070  0.9667  0.0173 -0.2800
  511MOL0     C70434   5.860  11.385   7.177  1.0625 -0.0026 -1.1410
  511MOL0     C70435   5.987  11.225   7.559  0.2711  0.4143 -0.0741
  511MOL0     C70436   6.078  11.323   7.605  0.9336 -0.1461  0.8629
  511MOL0     C70437   6.142  11.305   7.721  0.3901  0.1224 -0.9693
  511MOL0     C70438   6.107  11.198   7.806  0.5144  0.0339 -0.2013
  511MOL0     O70439   6.167  11.201   7.929 -0.4052  0.0840 -0.1189
  511MOL0     C70440   6.131  11.112   8.034 -0.2449 -0.4551 -0.5220
  511MOL0     C70441   6.228  11.165   8.147 -0.5663 -0.2445 -0.3691
  511MOL0     C70442   6.221  11.095   8.284  0.1161  0.7429 -0.8706
  511MOL0     C70443   6.088  11.039   8.326  0.6309  0.5654  0.3597
  511MOL0     C70444   6.119  10.958   8.445 -0.2972 -0.3794  0.8355
  511MOL0     C70445   6.124  10.890   8.536  0.3453  0.2300 -0.5792
  511MOL0     C70446   6.014  11.099   7.762  0.9047 -0.0861 -0.7792
  511MOL0     C70447   5.957  11.106   7.634  0.4269 -0.4057 -1.1387
  511MOL0     C70448   5.865  10.984   7.606  0.6671 -0.3419  0.4283
  511MOL0     H70449   5.657  11.518   7.413 -0.9516 -4.8547  0.1787
  511MOL0     H70450   5.534  11.603   7.210  1.9232  3.4961 -2.6763
  511MOL0     H70451   5.672  11.409   6.832  3.9426  1.0302  1.6265
  511MOL0     H70452   5.729  11.578   6.789  0.3530 -0.7079 -1.4579
  511MOL0     H70453   5.537  11.640   6.681  0.6957  0.2043 -0.1924
  511MOL0     H70454   5.540  11.470   6.649 -1.0371 -0.9660  0.5696
  511MOL0     H70455   5.392  11.427   6.840 -4.7906  0.3997 -0.8168
  511MOL0     H70456   5.384  11.595   6.891 -4.1921 -0.5773 -0.2631
  511MOL0     H70457   5.284  11.639   6.669  1.3899  0.8303  2.1626
  511MOL0     H70458   5.298  11.476   6.609  0.8041  1.5535 -0.1284
  511MOL0     H70459   5.171  11.462   6.859 -0.3360 -0.1123  0.5544
  511MOL0     H70460   5.085  11.441   6.700 -0.6895  0.1755  1.0890
  511MOL0     H70461   5.137  11.707   6.857 -0.6609 -0.4004  0.6954
  511MOL0     H70462   5.064  11.703   6.698  1.5941 -2.1280 -1.3584
  511MOL0     H70463   4.882  11.546   6.795 -0.2764  2.1091 -3.1517
  511MOL0     H70464   4.873  11.712   6.838 -2.2302 -1.1326 -0.2112
  511MOL0     H70465   5.019  11.517   7.017  0.6894 -0.6759 -2.5036
  511MOL0     H70466   4.990  11.688   7.053  1.3457 -0.1133 -0.2219
  511MOL0     H70467   4.809  11.355   7.045  1.3124  1.8717 -2.4967
  511MOL0     H70468   4.489  11.342   7.063  0.3237 -2.4142  1.2703
  511MOL0     H70469   4.458  11.412   7.215 -1.2461 -2.1523  0.7795
  511MOL0     H70470   4.658  11.183   7.183  0.2144 -0.1156 -0.0047
  511MOL0     H70471   4.674  11.300   7.313  2.0820  0.3328 -1.9947
  511MOL0     H70472   4.529  11.122   7.394 -2.0463 -2.4058 -0.2831
  511MOL0     H70473   4.443  11.263   7.378  0.1482  0.0582 -0.5005
  511MOL0     H70474   4.345  11.178   7.147  0.4735 -4.5465 -5.0738
  511MOL0     H70475   4.440  11.048   7.139 -0.6112  0.2198 -0.4867
  511MOL0     H70476   4.151  10.904   7.457  2.3302 -1.0035 -0.0441
  511MOL0     H70477   3.823  10.770   7.424 -0.0673 -3.2188 -0.6769
  511MOL0     H70478   3.952  10.825   7.517  2.0345  1.8289 -1.7446
  511MOL0     H70479   3.954  10.653   7.461 -0.2405  0.9857  1.6127
  511MOL0     H70480   3.593  10.700   7.102 -0.9543 -0.9296 -0.2196
  511MOL0     H70481   3.409  10.582   6.998  0.6204 -2.7928 -0.2813
  511MOL0     H70482   3.374  10.247   6.775  0.7220 -1.4170  0.4345
  511MOL0     H70483   3.544  10.285   6.831 -0.3542 -0.4985  1.1710
  511MOL0     H70484   3.422  10.153   6.989 -1.9768 -0.1795  1.4866
  511MOL0     H70485   3.495  10.308   7.043  0.9928  0.6907 -1.3708
  511MOL0     H70486   3.200  10.239   6.968 -1.5899 -0.3522  1.4767
  511MOL0     H70487   3.249  10.402   7.022 -1.0708 -0.3306  0.1734
  511MOL0     H70488   3.303  10.162   7.194  4.1342  1.3017  0.1770
  511MOL0     H70489   3.141  10.245   7.185 -0.4503  1.2033 -0.6209
  511MOL0     H70490   3.404  10.397   7.261  1.0835 -2.8401 -0.9889
  511MOL0     H70491   3.244  10.461   7.229  0.6631 -0.4272  0.6161
  511MOL0     H70492   3.122  10.321   7.404  1.3942 -4.7653 -0.5710
  511MOL0     H70493   3.237  10.444   7.457 -0.2517 -0.7436  1.1651
  511MOL0     H70494   3.406  10.233   7.472 -0.8257  3.8178 -1.4525
  511MOL0     H70495   3.265  10.127   7.442 -1.5009 -0.1119  0.7809
  511MOL0     H70496   3.332  10.131   7.674 -1.9509 -1.1506  0.4956
  511MOL0     H70497   3.183  10.220   7.671  0.8871  3.4644  1.8881
  511MOL0     H70498   3.657  10.447   6.681 -1.7204 -0.1825  0.4209
  511MOL0     H70499   3.838  10.608   6.757 -0.3337  1.3875 -1.0868
  511MOL0     H70500   4.054  10.847   6.978 -0.7169 -1.1157  0.8190
  511MOL0     H70501   4.239  10.991   7.042  0.6548 -1.0876 -0.0013
  511MOL0     H70502   5.858  11.434   6.976  3.7008  1.0748  1.0599
  511MOL0     H70503   5.937  11.309   7.181  0.4762 -0.6228  3.9331
  511MOL0     H70504   6.105  11.405   7.539  1.9426 -1.7077 -0.7613
  511MOL0     H70505   6.219  11.372   7.757  0.0940 -0.3047  0.5381
  511MOL0     H70506   6.028  11.105   8.071 -0.0378  3.6362  1.3212
  511MOL0     H70507   6.176  11.017   8.006  1.6286  0.3758 -0.4691
  511MOL0     H70508   6.200  11.268   8.172 -1.3771  0.0731 -2.3579
  511MOL0     H70509   6.333  11.182   8.119  0.0017 -0.7059  1.3963
  511MOL0     H70510   6.295  11.014   8.280 -0.8850 -0.2733  0.3925
  511MOL0     H70511   6.248  11.162   8.366  0.3642  0.8528 -1.0385
  511MOL0     H70512   6.041  10.968   8.256 -0.7617  1.3293  0.4775
  511MOL0     H70513   6.017  11.117   8.355  0.4180  0.9289 -1.0695
  511MOL0     H70514   6.110  10.815   8.611  0.3294 -1.3790 -2.1236
  511MOL0     H70515   5.988  11.005   7.809 -1.2890 -0.1634 -2.0298
  511MOL0     H70516   5.840  10.980   7.500  0.5224 -1.1728  0.4877
  511MOL0     H70517   5.906  10.886   7.631 -2.9711 -2.0405  0.2593
  511MOL0     H70518   5.773  10.976   7.664  0.6662 -2.4173  0.2157
  512MOL0     O70519   8.867   2.397   2.210 -0.2829  0.7152  0.0014
  512MOL0     C70520   8.852   2.497   2.283  0.4601 -0.7825  0.3462
  512MOL0     O70521   8.749   2.593   2.263  0.6209  0.1474  0.3273
  512MOL0     C70522   8.655   2.565   2.156  0.3835  0.1144  0.9368
  512MOL0     C70523   8.523   2.528   2.188  0.9567 -0.5693  0.4407
  512MOL0     C70524   8.428   2.521   2.086  0.4478 -0.1755  0.0935
  512MOL0     C70525   8.467   2.537   1.952  0.2628 -0.3181  0.5635
  512MOL0     O70526   8.373   2.515   1.849 -0.5259  0.1643 -0.0998
  512MOL0     C70527   8.234   2.494   1.877  0.8611  0.2917 -0.7788
  512MOL0     C70528   8.165   2.495   1.747  0.9154  0.1798  1.2501
  512MOL0     C70529   8.196   2.602   1.635 -0.5174 -0.6080 -0.7565
  512MOL0     C70530   8.098   2.723   1.645  0.3276 -0.7677 -0.2890
  512MOL0     C70531   8.107   2.827   1.537 -0.0595  0.8201  1.2064
  512MOL0     C70532   8.011   2.944   1.558  0.7017  0.4205 -0.0552
  512MOL0     C70533   8.054   3.043   1.667 -0.2598  0.1026 -0.1975
  512MOL0     C70534   8.196   3.107   1.639  0.6543  1.7187  0.4893
  512MOL0     N70535   8.228   3.204   1.744  0.4378  0.3650 -1.0642
  512MOL0     C70536   8.167   3.325   1.763  0.1236  0.8969 -0.4598
  512MOL0     C70537   8.212   3.355   1.894  0.3620  0.9465  1.1124
  512MOL0     C70538   8.170   3.490   1.948 -0.0940  0.2669  0.1148
  512MOL0     C70539   8.028   3.484   2.000  0.5701 -0.0431 -0.3648
  512MOL0     C70540   8.004   3.577   2.116  0.3849 -0.6606 -1.0810
  512MOL0     C70541   8.012   3.721   2.053  0.4737 -0.8985  0.4047
  512MOL0     O70542   7.895   3.756   1.989 -0.3374 -0.6310 -0.3073
  512MOL0     C70543   7.889   3.880   1.926  0.2668 -0.6502 -0.3660
  512MOL0     C70544   7.771   3.890   1.853  0.9019 -0.8249 -0.4322
  512MOL0     C70545   7.746   4.008   1.782  0.5118  0.1045  0.7899
  512MOL0     C70546   7.610   4.015   1.714 -0.5616 -0.2915  0.4157
  512MOL0     C70547   7.842   4.110   1.788 -0.0201 -0.4473 -0.0401
  512MOL0     C70548   7.849   4.221   1.690  0.0240  0.0015 -0.1164
  512MOL0     O70549   7.967   4.272   1.646  0.1562 -0.3295 -0.5089
  512MOL0     C70550   7.957   4.387   1.570 -0.0460  0.4385  0.7934
  512MOL0     C70551   7.889   4.385   1.442 -1.2026  0.5310 -0.9141
  512MOL0     C70552   7.858   4.508   1.375 -1.0739  0.4798 -0.2064
  512MOL0     C70553   7.884   4.636   1.435  0.6272  0.2242 -1.0743
  512MOL0     O70554   7.855   4.755   1.378 -0.6312 -0.0346 -0.4487
  512MOL0     C70555   7.717   4.795   1.367 -0.3954  0.1473  0.5218
  512MOL0     C70556   7.693   4.938   1.408  0.5211 -0.6520 -0.2483
  512MOL0     C70557   7.706   4.962   1.568  0.1180 -0.2773 -0.0959
  512MOL0     C70558   7.753   5.107   1.600  0.2408 -0.5070 -0.0966
  512MOL0     C70559   7.719   5.129   1.745  1.5239  0.1848  0.2852
  512MOL0     C70560   7.782   5.261   1.804 -0.6056 -0.8135 -0.2552
  512MOL0     C70561   7.690   5.374   1.750 -0.5886 -0.1940  0.4393
  512MOL0     C70562   7.756   5.510   1.745  0.1326  0.0733 -0.5694
  512MOL0    Cl70563   7.807   5.567   1.906 -0.3668  0.0298 -0.0611
  512MOL0     C70564   7.946   4.635   1.563 -0.0094 -0.2511 -0.7214
  512MOL0     C70565   7.984   4.513   1.630 -0.0877 -1.3782  0.2839
  512MOL0     O70566   7.738   4.279   1.681  0.0276 -0.1911 -0.1340
  512MOL0     C70567   7.962   4.096   1.860  0.4064  1.1638 -0.3274
  512MOL0     C70568   7.976   3.986   1.937 -1.1228  1.0753 -0.1461
  512MOL0     N70569   8.296   3.259   1.942 -0.1118  0.4087 -0.0613
  512MOL0     N70570   8.286   3.159   1.856 -0.1178 -0.4014 -0.2175
  512MOL0     C70571   8.589   2.591   1.923  0.3907 -0.3728 -0.4945
  512MOL0     C70572   8.679   2.596   2.022  0.0339 -0.3205 -0.6667
  512MOL0     C70573   8.950   2.520   2.394  0.3696 -0.1382  0.0371
  512MOL0     C70574   9.082   2.479   2.377 -0.3274  0.3521 -0.4697
  512MOL0     C70575   9.181   2.485   2.480  0.7344  0.6887 -0.7678
  512MOL0     C70576   9.148   2.556   2.597  0.1606  0.6382 -0.7256
  512MOL0     O70577   9.220   2.580   2.710 -0.1677 -0.2660 -0.3513
  512MOL0     C70578   9.363   2.583   2.696  0.2695  0.5290 -0.7285
  512MOL0     C70579   9.404   2.727   2.717  0.5888 -0.1482  0.2236
  512MOL0     C70580   9.549   2.743   2.764 -0.4935  0.4736  0.7026
  512MOL0     C70581   9.584   2.887   2.787  0.3442 -0.0864 -1.2554
  512MOL0     C70582   9.497   2.957   2.883 -0.0289  0.3804 -0.3183
  512MOL0     C70583   9.444   3.016   2.975 -0.2474  0.8575  0.4313
  512MOL0     C70584   9.019   2.594   2.625 -0.0625  0.0907  0.0486
  512MOL0     C70585   8.927   2.590   2.518  0.8920  0.9345  0.5509
  512MOL0     C70586   8.787   2.646   2.559  0.1554 -0.4895  0.6764
  512MOL0     H70587   8.515   2.514   2.296  3.5193  2.9025  1.2533
  512MOL0     H70588   8.325   2.503   2.116  1.1367 -4.1303  0.7007
  512MOL0     H70589   8.195   2.582   1.929  0.9400  0.1939 -0.5531
  512MOL0     H70590   8.221   2.415   1.952  1.4667  0.9898  0.0773
  512MOL0     H70591   8.190   2.397   1.706 -1.7012  0.2997 -0.8995
  512MOL0     H70592   8.060   2.496   1.779  1.4897 -2.9638  3.8046
  512MOL0     H70593   8.301   2.630   1.631 -0.3961 -1.0711 -0.8914
  512MOL0     H70594   8.179   2.549   1.541  2.1484 -1.6444 -0.7225
  512MOL0     H70595   7.998   2.680   1.638 -0.3337 -0.5862  4.6669
  512MOL0     H70596   8.101   2.777   1.740 -2.5998  0.1591 -0.6307
  512MOL0     H70597   8.090   2.790   1.435 -2.0746  2.4102  0.9129
  512MOL0     H70598   8.212   2.854   1.520  0.8786 -3.0624 -0.1706
  512MOL0     H70599   8.000   3.009   1.471 -2.9193  1.5397  1.0414
  512MOL0     H70600   7.916   2.902   1.594  1.2010 -0.6795  0.0162
  512MOL0     H70601   8.053   2.984   1.760 -1.8774 -0.2260 -0.3850
  512MOL0     H70602   7.989   3.129   1.686  3.7915  2.8254  3.4647
  512MOL0     H70603   8.274   3.032   1.651 -0.6235  0.7337  4.0499
  512MOL0     H70604   8.183   3.154   1.541 -0.5773 -0.4558 -0.4584
  512MOL0     H70605   8.108   3.396   1.705  0.2490 -0.3912 -2.2315
  512MOL0     H70606   8.194   3.559   1.866  1.8111  0.8305  1.0889
  512MOL0     H70607   8.247   3.520   2.019 -1.3425 -1.2712  2.2522
  512MOL0     H70608   7.955   3.496   1.919 -0.3631 -0.9034  0.3274
  512MOL0     H70609   8.008   3.383   2.036 -2.1677  0.1247 -1.2058
  512MOL0     H70610   7.902   3.570   2.155 -0.5539  1.8287 -2.8379
  512MOL0     H70611   8.080   3.560   2.193  0.6044 -2.5917 -1.6719
  512MOL0     H70612   8.036   3.791   2.133 -3.6526  1.5156 -0.2030
  512MOL0     H70613   8.093   3.720   1.979  2.8347 -1.3595  2.8416
  512MOL0     H70614   7.697   3.811   1.857 -0.1626  0.1042 -1.2193
  512MOL0     H70615   7.553   4.107   1.732 -0.2851  0.4176 -2.0529
  512MOL0     H70616   7.554   3.926   1.744  2.4537 -1.5865  2.7327
  512MOL0     H70617   7.620   4.010   1.605 -3.6941 -2.4407  0.0794
  512MOL0     H70618   7.866   4.291   1.394  0.6376  0.8730 -2.5760
  512MOL0     H70619   7.811   4.503   1.277 -3.6672 -1.6319  1.0108
  512MOL0     H70620   7.684   4.765   1.267  2.0091  0.8983 -0.5609
  512MOL0     H70621   7.651   4.732   1.428  2.6835  0.4927  4.6305
  512MOL0     H70622   7.781   4.995   1.378 -0.6998  1.6120  0.2679
  512MOL0     H70623   7.607   4.976   1.352  1.0883 -1.0072 -1.4032
  512MOL0     H70624   7.769   4.886   1.616 -1.2527 -0.5750  1.3212
  512MOL0     H70625   7.603   4.956   1.605  0.7844 -1.1841  1.7876
  512MOL0     H70626   7.706   5.172   1.526  0.4561  2.3509  2.1084
  512MOL0     H70627   7.861   5.110   1.581  0.0504 -0.9991 -1.4355
  512MOL0     H70628   7.613   5.111   1.767  1.3678  0.7342 -0.0202
  512MOL0     H70629   7.767   5.046   1.798 -1.8029 -1.4260  1.0638
  512MOL0     H70630   7.887   5.273   1.777 -0.2268 -1.8473  0.6615
  512MOL0     H70631   7.776   5.250   1.913 -2.8739  3.0127  0.1871
  512MOL0     H70632   7.598   5.381   1.809 -0.0836 -2.3211  1.5875
  512MOL0     H70633   7.663   5.347   1.648 -1.9510  0.0996  0.6979
  512MOL0     H70634   7.692   5.582   1.692 -0.2482  1.1439  1.2728
  512MOL0     H70635   7.843   5.492   1.681  0.5999  1.2708 -0.3030
  512MOL0     H70636   7.981   4.732   1.598  3.0378 -1.3746 -0.3395
  512MOL0     H70637   8.043   4.517   1.721  1.2041  1.5010 -0.5740
  512MOL0     H70638   8.022   4.186   1.859  0.4014  1.2007  0.9640
  512MOL0     H70639   8.065   3.980   1.999 -0.3133 -0.2001 -1.3533
  512MOL0     H70640   8.613   2.617   1.820 -1.4842  2.8704 -0.2501
  512MOL0     H70641   8.777   2.633   1.993 -0.4287 -0.5025 -2.5787
  512MOL0     H70642   9.111   2.432   2.284  1.3972 -1.1271  0.7275
  512MOL0     H70643   9.277   2.436   2.468 -0.0549 -2.1686  2.5671
  512MOL0     H70644   9.411   2.516   2.768 -2.3753 -0.9847 -0.2390
  512MOL0     H70645   9.386   2.558   2.592 -0.8611  0.6303 -1.0248
  512MOL0     H70646   9.344   2.769   2.798 -2.0166 -0.1120 -1.5964
  512MOL0     H70647   9.383   2.789   2.630 -2.0172 -2.1383 -0.6912
  512MOL0     H70648   9.572   2.689   2.857 -2.0216 -2.9586 -0.7354
  512MOL0     H70649   9.609   2.703   2.682 -1.6124  0.4360 -0.1270
  512MOL0     H70650   9.602   2.944   2.695  3.1133  0.6202 -0.3628
  512MOL0     H70651   9.684   2.884   2.829  0.2513  1.1943 -0.9106
  512MOL0     H70652   9.390   3.076   3.045 -0.0520  0.1608  1.1995
  512MOL0     H70653   9.002   2.635   2.724  1.3392  0.2463  0.2427
  512MOL0     H70654   8.783   2.675   2.665  2.9691 -2.3709  1.3979
  512MOL0     H70655   8.746   2.724   2.495 -2.2431 -0.5209  2.0276
  512MOL0     H70656   8.726   2.556   2.548 -2.9393  1.5067  0.2844
  513MOL0     O70657  11.011   3.370   8.142  0.4392 -0.2349  0.7851
  513MOL0     C70658  10.896   3.400   8.177  0.2001  0.2780  0.3287
  513MOL0     O70659  10.867   3.469   8.294  0.6108  0.7333 -0.4453
  513MOL0     C70660  10.965   3.523   8.362 -1.1148 -0.4411 -1.2180
  513MOL0     C70661  10.966   3.663   8.382 -0.1367  1.1635  0.3422
  513MOL0     C70662  11.068   3.734   8.436  0.1725  0.0162 -0.4117
  513MOL0     C70663  11.166   3.670   8.506  0.1661 -0.4202  0.0450
  513MOL0     O70664  11.256   3.756   8.560  0.5350  0.5410 -0.0291
  513MOL0     C70665  11.389   3.725   8.540  0.7405  0.1927 -0.4779
  513MOL0     C70666  11.444   3.713   8.397 -0.0287 -0.3844  0.4852
  513MOL0     C70667  11.415   3.832   8.306  0.1347 -0.5765  0.5286
  513MOL0     C70668  11.498   3.961   8.343 -0.5846 -0.1100  0.7306
  513MOL0     C70669  11.648   3.953   8.356  0.2751  0.7778  0.7861
  513MOL0     C70670  11.716   4.087   8.337 -0.3446 -0.7602  0.4524
  513MOL0     C70671  11.858   4.100   8.397  1.2032 -0.2349 -0.6339
  513MOL0     C70672  11.980   4.083   8.305  0.0985  0.5616 -0.1366
  513MOL0     N70673  11.989   3.945   8.257  0.8304  0.1941  0.3195
  513MOL0     C70674  11.964   3.894   8.130 -0.2182 -1.0250 -0.6042
  513MOL0     C70675  11.949   3.764   8.146 -0.3455 -0.2360  0.8702
  513MOL0     C70676  11.918   3.676   8.027  0.2927 -0.0108 -0.4048
  513MOL0     C70677  11.809   3.570   8.045 -0.0151 -0.1444  0.7559
  513MOL0     C70678  11.845   3.446   7.967  0.4902  0.3285  0.4305
  513MOL0     C70679  11.939   3.350   8.046 -0.1344  0.0878 -0.1476
  513MOL0     O70680  11.894   3.334   8.180  0.4766 -0.4128  0.2697
  513MOL0     C70681  11.841   3.206   8.213 -0.0115 -0.2269 -0.1295
  513MOL0     C70682  11.863   3.149   8.342  0.9588 -0.3174  0.0815
  513MOL0     C70683  11.805   3.030   8.386  0.9221 -0.4142  0.2200
  513MOL0     C70684  11.829   2.995   8.530 -0.9307 -0.1049 -0.1435
  513MOL0     C70685  11.719   2.956   8.295  0.3911 -1.0086 -0.5636
  513MOL0     C70686  11.651   2.832   8.324 -0.2378 -0.3832 -0.3959
  513MOL0     O70687  11.586   2.770   8.223 -0.4268 -0.1431 -0.5972
  513MOL0     C70688  11.529   2.650   8.239 -1.0122  0.5213  0.6686
  513MOL0     C70689  11.393   2.634   8.250 -0.8989  0.1456 -0.2034
  513MOL0     C70690  11.338   2.508   8.233  0.0034  0.2261 -0.6684
  513MOL0     C70691  11.420   2.395   8.208  0.0208  0.9845  0.4186
  513MOL0     O70692  11.372   2.267   8.198 -0.1755  1.0510 -0.1778
  513MOL0     C70693  11.245   2.243   8.130  0.4188  0.2477 -0.1687
  513MOL0     C70694  11.269   2.236   7.980 -0.3979  0.9508  0.4513
  513MOL0     C70695  11.184   2.121   7.930  0.9639  0.1767  0.7835
  513MOL0     C70696  11.182   2.120   7.778 -0.0235  0.6747  0.7949
  513MOL0     C70697  11.076   2.015   7.727  0.5965 -1.2482 -0.0907
  513MOL0     C70698  11.095   1.871   7.772 -0.8923 -0.6059  0.0116
  513MOL0     C70699  10.991   1.769   7.713  0.3518 -0.7280 -0.0349
  513MOL0     C70700  10.997   1.623   7.767 -0.6289 -0.5022 -0.3452
  513MOL0    Cl70701  10.936   1.637   7.928  0.0297 -0.3374 -0.1065
  513MOL0     C70702  11.563   2.419   8.201 -0.1528  0.3602  0.1451
  513MOL0     C70703  11.618   2.547   8.222  0.5987  0.8289  0.2239
  513MOL0     O70704  11.661   2.788   8.435  0.1802  0.8858  0.1992
  513MOL0     C70705  11.696   3.016   8.168  0.3525  0.2140 -0.0167
  513MOL0     C70706  11.753   3.133   8.129 -0.1714  0.1283  1.3271
  513MOL0     N70707  12.003   3.733   8.272 -0.3911 -0.0354  0.5991
  513MOL0     N70708  12.005   3.841   8.341 -0.5245  0.7079 -0.1377
  513MOL0     C70709  11.170   3.529   8.506  0.1244  0.1016 -0.6927
  513MOL0     C70710  11.074   3.463   8.433  1.0405 -0.9553  0.1569
  513MOL0     C70711  10.783   3.372   8.078 -0.6111  0.2989 -0.5439
  513MOL0     C70712  10.795   3.276   7.974  0.3302  0.2019  0.9059
  513MOL0     C70713  10.693   3.250   7.885 -0.1376 -0.7930  2.1332
  513MOL0     C70714  10.575   3.328   7.872  0.1710 -0.2030  0.4199
  513MOL0     O70715  10.483   3.303   7.776  0.4113  0.1860  0.3412
  513MOL0     C70716  10.351   3.366   7.761 -0.1046 -0.7287 -0.1032
  513MOL0     C70717  10.251   3.280   7.842 -0.0056  0.0740  1.0689
  513MOL0     C70718  10.115   3.341   7.844  0.5762  0.0077  0.3996
  513MOL0     C70719  10.017   3.254   7.927 -0.2125  0.7385 -0.4285
  513MOL0     C70720  10.067   3.206   8.056  0.5063  1.1387 -0.0411
  513MOL0     C70721  10.124   3.168   8.160 -0.1987 -0.6904  0.3312
  513MOL0     C70722  10.561   3.422   7.971 -0.5700 -0.7653 -0.1651
  513MOL0     C70723  10.662   3.447   8.075  0.4187 -0.2349  0.5715
  513MOL0     C70724  10.620   3.564   8.165  0.8175 -0.2441 -0.1661
  513MOL0     H70725  10.886   3.723   8.341  1.6974  3.1137 -0.5906
  513MOL0     H70726  11.066   3.843   8.429  1.8178  0.0990  0.1240
  513MOL0     H70727  11.418   3.631   8.589 -2.0966  0.5812  2.2846
  513MOL0     H70728  11.446   3.805   8.589  1.0385 -0.3608  0.1017
  513MOL0     H70729  11.553   3.701   8.396  0.0532  0.1438 -1.0247
  513MOL0     H70730  11.401   3.623   8.350 -2.5526  0.7917  0.3520
  513MOL0     H70731  11.425   3.794   8.204 -0.1355 -0.3183  0.4040
  513MOL0     H70732  11.312   3.868   8.315  0.1146 -0.2260 -0.8833
  513MOL0     H70733  11.483   4.024   8.255 -2.6878 -2.1414 -0.4862
  513MOL0     H70734  11.467   4.002   8.439  1.9011  1.5333  0.9199
  513MOL0     H70735  11.695   3.885   8.284  0.7197  0.0024  1.7769
  513MOL0     H70736  11.668   3.911   8.455 -0.2915 -3.2496 -0.5966
  513MOL0     H70737  11.713   4.112   8.230  2.4391 -1.6328  0.0873
  513MOL0     H70738  11.663   4.169   8.387 -1.0069 -0.8640 -0.0558
  513MOL0     H70739  11.858   4.038   8.487  2.1256  1.6332  0.7265
  513MOL0     H70740  11.863   4.201   8.439  0.5770  0.6612 -2.6125
  513MOL0     H70741  11.962   4.146   8.217  0.7458  0.4324 -0.3704
  513MOL0     H70742  12.064   4.137   8.350  0.7099  0.5666 -1.2517
  513MOL0     H70743  11.958   3.950   8.038  1.4253 -0.1642 -0.2174
  513MOL0     H70744  12.016   3.636   8.000  0.8862  2.4141 -2.2539
  513MOL0     H70745  11.889   3.747   7.949 -1.4254  2.6525  2.3934
  513MOL0     H70746  11.797   3.538   8.149 -0.0692 -0.2773  0.7087
  513MOL0     H70747  11.715   3.605   8.001  1.8961  1.6485 -2.2870
  513MOL0     H70748  11.759   3.385   7.938  0.2539  1.2225 -0.8662
  513MOL0     H70749  11.886   3.472   7.868  0.8148  1.0960  0.7582
  513MOL0     H70750  11.958   3.255   7.994 -2.1326 -0.7654  0.5864
  513MOL0     H70751  12.037   3.399   8.049 -0.3893  0.6340 -0.6502
  513MOL0     H70752  11.907   3.215   8.417 -2.0723 -1.2337  2.9244
  513MOL0     H70753  11.734   2.968   8.577 -0.5535 -2.4365 -0.5715
  513MOL0     H70754  11.876   3.074   8.588 -1.3309  0.3100 -0.3813
  513MOL0     H70755  11.896   2.908   8.523 -0.7216  0.1801 -3.4558
  513MOL0     H70756  11.336   2.726   8.262 -1.4855  0.1336 -2.3837
  513MOL0     H70757  11.231   2.493   8.220 -0.5002  1.0339  1.8946
  513MOL0     H70758  11.197   2.150   8.161 -3.1321  1.0754 -2.6026
  513MOL0     H70759  11.169   2.315   8.161  1.6757  1.0534  1.2030
  513MOL0     H70760  11.234   2.331   7.939  2.9018  1.0502 -2.7186
  513MOL0     H70761  11.367   2.214   7.935 -0.5492 -0.2621  0.6781
  513MOL0     H70762  11.085   2.111   7.974  0.6580 -2.1081 -0.2883
  513MOL0     H70763  11.236   2.028   7.955  2.6664  1.3064  1.6893
  513MOL0     H70764  11.280   2.105   7.733 -0.3484  1.6434 -0.2692
  513MOL0     H70765  11.145   2.215   7.741  0.0667  0.3876 -0.0394
  513MOL0     H70766  10.981   2.053   7.767  1.8818  1.5767  0.5260
  513MOL0     H70767  11.082   2.016   7.618  4.0274 -2.5446 -0.0245
  513MOL0     H70768  11.101   1.858   7.880  0.1243 -0.6478 -0.0415
  513MOL0     H70769  11.195   1.839   7.740 -0.4788  0.6069  0.0091
  513MOL0     H70770  10.988   1.753   7.605  0.8388 -4.5182  0.3686
  513MOL0     H70771  10.892   1.810   7.735 -0.3796 -1.9566 -0.9200
  513MOL0     H70772  11.101   1.590   7.774 -0.0647  1.2149 -0.1778
  513MOL0     H70773  10.927   1.560   7.710  0.8538 -1.2636 -1.3949
  513MOL0     H70774  11.636   2.338   8.194  1.6739  2.0662 -2.5205
  513MOL0     H70775  11.725   2.558   8.236  0.6042  0.6216  0.3444
  513MOL0     H70776  11.634   2.982   8.086  0.4221  0.4515 -0.1699
  513MOL0     H70777  11.721   3.183   8.038  2.6999  0.5397  0.4438
  513MOL0     H70778  11.242   3.470   8.562 -2.4624  0.0290  2.9712
  513MOL0     H70779  11.091   3.356   8.431  2.5148 -0.7333 -0.7549
  513MOL0     H70780  10.884   3.215   7.967  1.1076  1.4291 -0.6198
  513MOL0     H70781  10.708   3.176   7.807 -3.5933  2.1815 -1.8297
  513MOL0     H70782  10.352   3.472   7.787 -2.1181 -0.2262 -1.7971
  513MOL0     H70783  10.314   3.365   7.658 -0.3057 -2.0115 -0.0320
  513MOL0     H70784  10.292   3.260   7.941  2.0510 -0.0222  0.2466
  513MOL0     H70785  10.247   3.184   7.788  0.9129  0.2312  0.7065
  513MOL0     H70786  10.116   3.443   7.882  1.2873  0.1605 -0.0204
  513MOL0     H70787  10.068   3.340   7.745 -2.4809 -0.9029  1.7371
  513MOL0     H70788   9.986   3.160   7.879  1.4994 -2.6037  4.2265
  513MOL0     H70789   9.925   3.307   7.954 -0.8731 -1.3855  1.9655
  513MOL0     H70790  10.148   3.119   8.253 -2.9703  0.8188  1.9841
  513MOL0     H70791  10.483   3.498   7.971  1.6719  1.7469  1.6645
  513MOL0     H70792  10.535   3.614   8.119  0.3289 -1.6858 -0.8874
  513MOL0     H70793  10.601   3.539   8.270 -0.4582  6.2791  1.6381
  513MOL0     H70794  10.695   3.641   8.186  0.7622  0.2649 -1.7106
  514MOL0     O70795   9.267   3.777   3.857  0.1300  0.2466  0.2447
  514MOL0     C70796   9.383   3.792   3.880 -0.1464  0.2372  0.2050
  514MOL0     O70797   9.486   3.737   3.816 -0.0144 -0.9956 -0.8712
  514MOL0     C70798   9.476   3.619   3.755  0.4479 -0.0449  0.0235
  514MOL0     C70799   9.431   3.609   3.625 -0.2977  0.6803  0.9019
  514MOL0     C70800   9.398   3.485   3.569  0.7743  0.4674 -0.1244
  514MOL0     C70801   9.416   3.362   3.639 -0.2476  0.2003 -0.8857
  514MOL0     O70802   9.390   3.236   3.584 -0.4499 -1.0721  0.1864
  514MOL0     C70803   9.480   3.194   3.483 -0.2607  0.0233  0.3498
  514MOL0     C70804   9.404   3.092   3.394 -0.1547  0.3477  0.4182
  514MOL0     C70805   9.395   2.961   3.466 -0.5223  0.0170  0.0171
  514MOL0     C70806   9.528   2.877   3.478 -0.5400 -0.3830 -0.1331
  514MOL0     C70807   9.503   2.736   3.533 -0.1110 -0.2531  0.5037
  514MOL0     C70808   9.634   2.667   3.576  0.7954 -0.8603 -0.3357
  514MOL0     C70809   9.617   2.524   3.606  0.8929  0.0574  0.0669
  514MOL0     C70810   9.737   2.456   3.672 -0.2172 -0.8568  0.8065
  514MOL0     N70811   9.823   2.394   3.569  0.3848 -0.9153 -0.0328
  514MOL0     C70812   9.894   2.470   3.481  0.2205 -0.5688 -0.6060
  514MOL0     C70813   9.929   2.381   3.386 -0.1620  1.0470 -0.8281
  514MOL0     C70814   9.991   2.415   3.259  0.7909  0.2560  0.2439
  514MOL0     C70815   9.888   2.449   3.154  0.5146  0.8072  0.2798
  514MOL0     C70816   9.797   2.324   3.126 -0.7280 -0.3528  0.3538
  514MOL0     C70817   9.694   2.358   3.023 -0.1154 -0.4359 -0.2706
  514MOL0     O70818   9.611   2.477   3.051  0.1207 -0.7824 -0.3861
  514MOL0     C70819   9.470   2.480   3.046 -0.3139  0.3689  0.2248
  514MOL0     C70820   9.405   2.613   3.055  0.3487 -0.1887 -0.4369
  514MOL0     C70821   9.263   2.619   3.040  0.4214 -0.2515  0.2129
  514MOL0     C70822   9.198   2.765   3.062 -0.0633 -0.7409  0.6255
  514MOL0     C70823   9.184   2.503   3.008  0.0289 -0.1139  0.3816
  514MOL0     C70824   9.035   2.508   2.977 -0.5378  0.8412  0.2260
  514MOL0     O70825   8.980   2.390   2.964 -0.3448 -0.0736  0.4908
  514MOL0     C70826   8.853   2.392   2.910 -0.4749 -0.6590 -0.8998
  514MOL0     C70827   8.740   2.445   2.973  0.3116 -0.1238 -0.9343
  514MOL0     C70828   8.616   2.457   2.912  0.2698  0.1402 -0.9622
  514MOL0     C70829   8.598   2.402   2.790  0.5039  0.3497  0.8025
  514MOL0     O70830   8.476   2.399   2.740 -0.2303  0.0858 -0.2324
  514MOL0     C70831   8.444   2.377   2.606 -0.8446  0.4801 -0.5078
  514MOL0     C70832   8.406   2.232   2.572 -0.6907 -0.4624 -0.0030
  514MOL0     C70833   8.376   2.214   2.428  0.4916 -0.1847  0.0017
  514MOL0     C70834   8.243   2.268   2.379 -0.9016  0.0163 -0.2687
  514MOL0     C70835   8.194   2.215   2.248  0.6125  0.0557 -0.0887
  514MOL0     C70836   8.054   2.252   2.220  0.4254  0.3227  0.0492
  514MOL0     C70837   8.001   2.219   2.083  0.6626 -0.3264 -1.2090
  514MOL0     C70838   8.061   2.109   2.006  0.1111  0.2749 -0.6954
  514MOL0    Cl70839   7.987   2.102   1.854 -0.0469  0.0243  0.1273
  514MOL0     C70840   8.708   2.333   2.721 -0.2443 -0.9284  0.6613
  514MOL0     C70841   8.834   2.324   2.785 -0.6090 -0.0850 -0.2069
  514MOL0     O70842   8.973   2.617   2.972  0.2721  0.3685  0.1952
  514MOL0     C70843   9.260   2.382   3.002  0.7579  0.2698 -0.2772
  514MOL0     C70844   9.392   2.369   3.024  1.0271 -0.2689 -0.5814
  514MOL0     N70845   9.867   2.258   3.421  0.2755  0.4945  0.5151
  514MOL0     N70846   9.810   2.271   3.527  0.0620  0.3442 -0.1583
  514MOL0     C70847   9.456   3.377   3.769  0.2987 -1.7719 -0.5098
  514MOL0     C70848   9.471   3.501   3.834  0.6639 -0.2267  0.5886
  514MOL0     C70849   9.399   3.890   3.989  1.4374 -0.5868  0.7070
  514MOL0     C70850   9.399   4.028   3.960  0.6307 -0.3926  0.0525
  514MOL0     C70851   9.419   4.120   4.054 -0.3110 -0.0742  0.5429
  514MOL0     C70852   9.443   4.074   4.189 -0.0696 -0.5781 -0.5613
  514MOL0     O70853   9.471   4.173   4.276 -0.3529 -0.2539  0.1468
  514MOL0     C70854   9.435   4.155   4.414  0.2657  0.4209 -0.5608
  514MOL0     C70855   9.398   4.283   4.476  0.2423 -0.6035 -1.2501
  514MOL0     C70856   9.514   4.334   4.552  0.2350  0.0263  0.9230
  514MOL0     C70857   9.474   4.464   4.627 -0.0009  0.0010  0.6580
  514MOL0     C70858   9.420   4.564   4.534  0.2803  0.2235 -0.7998
  514MOL0     C70859   9.394   4.660   4.463 -0.7700 -1.0053  0.2377
  514MOL0     C70860   9.453   3.936   4.219 -0.6726  0.4481  0.0804
  514MOL0     C70861   9.422   3.849   4.118 -0.5981 -0.5346 -0.0913
  514MOL0     C70862   9.453   3.706   4.147 -1.0909  0.2085 -0.4275
  514MOL0     H70863   9.400   3.697   3.569  2.3488  0.8530 -0.4188
  514MOL0     H70864   9.332   3.492   3.483  1.0332 -1.1896 -0.4986
  514MOL0     H70865   9.566   3.148   3.533 -1.6723 -0.3406  2.5977
  514MOL0     H70866   9.493   3.283   3.421 -3.9744  0.3085 -0.2141
  514MOL0     H70867   9.304   3.127   3.370  0.5129  1.9725 -0.1364
  514MOL0     H70868   9.461   3.077   3.302 -0.6927  2.8803 -0.4000
  514MOL0     H70869   9.359   2.973   3.569 -0.8551  0.3010 -0.1274
  514MOL0     H70870   9.325   2.901   3.407  1.1912 -3.8726  1.5962
  514MOL0     H70871   9.557   2.850   3.376 -1.8144 -0.5661 -0.4657
  514MOL0     H70872   9.602   2.930   3.537 -0.7344  0.8958 -0.9866
  514MOL0     H70873   9.435   2.685   3.464 -0.2178 -0.3091  0.6506
  514MOL0     H70874   9.449   2.758   3.626  1.4709 -1.0645  1.6587
  514MOL0     H70875   9.715   2.686   3.505  1.5629  1.4345  1.0500
  514MOL0     H70876   9.659   2.715   3.671  1.0633  0.3792 -1.0146
  514MOL0     H70877   9.599   2.474   3.510  1.9364  1.3142 -0.8177
  514MOL0     H70878   9.526   2.509   3.665 -1.2224  2.4284 -2.3468
  514MOL0     H70879   9.803   2.533   3.714  1.5603 -0.6610 -2.0361
  514MOL0     H70880   9.711   2.379   3.745  4.0449  0.0568  3.6972
  514MOL0     H70881   9.920   2.574   3.496  3.9066 -1.5099  0.6931
  514MOL0     H70882  10.054   2.337   3.215 -2.8807 -1.9767 -1.5521
  514MOL0     H70883  10.052   2.505   3.273  3.2729 -1.4559  1.1502
  514MOL0     H70884   9.817   2.519   3.199 -0.0233  1.9797 -2.2290
  514MOL0     H70885   9.939   2.488   3.065 -2.0222  0.9461 -1.2012
  514MOL0     H70886   9.851   2.239   3.082  1.0826  2.0021 -2.3059
  514MOL0     H70887   9.743   2.287   3.213  2.7269 -3.7063  1.3757
  514MOL0     H70888   9.738   2.371   2.924 -1.5370 -1.0403 -1.0234
  514MOL0     H70889   9.625   2.274   3.005 -3.9971  2.4527 -0.2891
  514MOL0     H70890   9.468   2.695   3.088  0.2311 -0.7550  1.3055
  514MOL0     H70891   9.274   2.832   3.104  1.5261 -2.0622 -0.0091
  514MOL0     H70892   9.109   2.767   3.126 -1.0409 -0.8917 -0.6855
  514MOL0     H70893   9.177   2.795   2.959 -2.7615 -3.1941  0.3193
  514MOL0     H70894   8.772   2.492   3.066  0.6972  1.6360 -1.9120
  514MOL0     H70895   8.535   2.509   2.963  1.6530  2.0731 -0.6284
  514MOL0     H70896   8.356   2.439   2.588  0.1342  1.1579 -3.5701
  514MOL0     H70897   8.529   2.405   2.542 -1.8334  0.1329 -2.0077
  514MOL0     H70898   8.485   2.159   2.590 -1.5049 -1.9701 -2.1843
  514MOL0     H70899   8.323   2.194   2.631  0.0800 -0.1544  1.3306
  514MOL0     H70900   8.369   2.105   2.418 -0.2828  0.0453 -2.4056
  514MOL0     H70901   8.457   2.242   2.361 -0.8898 -2.2948 -2.7834
  514MOL0     H70902   8.241   2.377   2.384  0.2998  0.2846 -3.2753
  514MOL0     H70903   8.182   2.227   2.460  0.6748 -2.6912 -0.2900
  514MOL0     H70904   8.248   2.258   2.163  0.8615 -2.0400 -1.0669
  514MOL0     H70905   8.207   2.108   2.266  3.1919  0.4368  0.7291
  514MOL0     H70906   8.027   2.354   2.247 -0.4383  1.4115 -4.2935
  514MOL0     H70907   7.999   2.188   2.290  0.3707 -1.8062 -1.8271
  514MOL0     H70908   8.007   2.314   2.029 -0.3624  0.7979  0.5751
  514MOL0     H70909   7.895   2.197   2.100  0.2842  0.7203 -2.1307
  514MOL0     H70910   8.068   2.012   2.055  0.6152 -1.7930 -4.4454
  514MOL0     H70911   8.162   2.147   1.986 -0.0703  0.6500 -0.8899
  514MOL0     H70912   8.697   2.281   2.626  1.6779  1.7832 -1.1836
  514MOL0     H70913   8.917   2.274   2.735 -2.3091  1.9960 -5.9611
  514MOL0     H70914   9.209   2.289   2.980  0.4589 -0.6242  3.5779
  514MOL0     H70915   9.426   2.267   3.036  1.6316  0.1783  2.0220
  514MOL0     H70916   9.459   3.290   3.834 -3.4428  0.2188  2.7485
  514MOL0     H70917   9.497   3.506   3.939 -5.2228 -1.6375  2.5240
  514MOL0     H70918   9.379   4.054   3.856  1.2939 -1.2799 -0.3175
  514MOL0     H70919   9.406   4.225   4.028  2.0537  0.5274  1.5230
  514MOL0     H70920   9.349   4.087   4.422  2.2148 -2.5151 -2.4894
  514MOL0     H70921   9.507   4.097   4.472 -0.8166 -1.4337 -0.9802
  514MOL0     H70922   9.320   4.266   4.551  0.6980  1.7263 -0.1833
  514MOL0     H70923   9.357   4.351   4.401 -0.4779  0.3936  0.0027
  514MOL0     H70924   9.557   4.266   4.626 -0.8038 -0.5684  0.9869
  514MOL0     H70925   9.592   4.352   4.477 -1.6699  2.8679 -0.5883
  514MOL0     H70926   9.567   4.498   4.674  2.5543 -3.7907 -1.1411
  514MOL0     H70927   9.407   4.448   4.712  0.9293  1.4051  1.6954
  514MOL0     H70928   9.387   4.745   4.398  1.9291 -1.0451 -0.2126
  514MOL0     H70929   9.484   3.904   4.317 -2.2016 -2.0434 -0.1702
  514MOL0     H70930   9.558   3.685   4.123 -1.5830  0.7505 -3.4326
  514MOL0     H70931   9.432   3.683   4.252 -2.8028 -3.4387 -1.4048
  514MOL0     H70932   9.385   3.639   4.093 -1.2855 -0.1758  0.2794
  515MOL0     O70933   2.832  11.393   8.253  0.6981 -0.1908  0.0054
  515MOL0     C70934   2.924  11.432   8.187 -0.7574 -0.2539 -0.3394
  515MOL0     O70935   3.031  11.361   8.131  0.1455 -0.4370 -0.2533
  515MOL0     C70936   3.038  11.221   8.127  0.7455  0.1545 -0.3529
  515MOL0     C70937   3.146  11.138   8.178  0.8213 -0.2508 -0.1603
  515MOL0     C70938   3.129  11.002   8.169 -0.4590  0.8962  0.4939
  515MOL0     C70939   3.029  10.944   8.087  0.5298 -0.8900 -1.3810
  515MOL0     O70940   3.022  10.814   8.068 -0.1328 -0.0770  0.4283
  515MOL0     C70941   3.142  10.745   8.040  0.2447  0.1205  0.5082
  515MOL0     C70942   3.128  10.595   8.027  0.2857 -0.4622  0.0188
  515MOL0     C70943   3.032  10.569   7.911  0.4150 -0.3444  0.3442
  515MOL0     C70944   3.012  10.422   7.901  0.1082  0.0079  0.1520
  515MOL0     C70945   2.923  10.383   7.775 -0.2467 -0.6528 -0.4708
  515MOL0     C70946   2.836  10.254   7.808 -0.8659 -0.2293 -0.0058
  515MOL0     C70947   2.768  10.196   7.688  0.4099 -0.0139  0.2928
  515MOL0     C70948   2.876  10.141   7.584  0.7594 -0.3284  0.9262
  515MOL0     N70949   2.806  10.102   7.455  0.8595  0.0944  0.0126
  515MOL0     C70950   2.697  10.016   7.431 -0.0363 -0.4128 -0.4962
  515MOL0     C70951   2.656  10.037   7.301 -0.7355 -0.2678  0.0383
  515MOL0     C70952   2.539   9.954   7.242 -0.4186 -0.5584 -0.1284
  515MOL0     C70953   2.582   9.814   7.194  0.1617  0.4966  0.1842
  515MOL0     C70954   2.577   9.703   7.297 -0.9159 -0.3805 -0.3544
  515MOL0     C70955   2.617   9.568   7.245 -1.0590  0.7742  0.5151
  515MOL0     O70956   2.528   9.529   7.139 -0.9388 -0.2271 -0.5676
  515MOL0     C70957   2.539   9.402   7.083 -0.0685  0.1119 -1.3132
  515MOL0     C70958   2.433   9.353   7.018 -0.2449  1.1613  0.6761
  515MOL0     C70959   2.416   9.219   6.971  0.1068 -0.2725 -0.4576
  515MOL0     C70960   2.291   9.188   6.886 -0.2515  0.0924  0.8742
  515MOL0     C70961   2.513   9.127   7.011  0.7522  0.7215 -0.6742
  515MOL0     C70962   2.520   8.988   6.972 -0.2896 -0.3241  0.7275
  515MOL0     O70963   2.510   8.963   6.837 -0.0292 -0.3736  0.1455
  515MOL0     C70964   2.510   8.830   6.805 -0.1812 -0.2676  0.9128
  515MOL0     C70965   2.608   8.736   6.836  0.4743  0.3757  0.5862
  515MOL0     C70966   2.605   8.607   6.786 -0.3149  0.5859 -0.3936
  515MOL0     C70967   2.497   8.572   6.695 -0.5038 -0.7316  0.5807
  515MOL0     O70968   2.482   8.439   6.674 -0.1576 -0.2184  0.2631
  515MOL0     C70969   2.351   8.376   6.677 -0.7437  0.5572 -0.0621
  515MOL0     C70970   2.264   8.428   6.802 -0.3236 -0.0272  0.0939
  515MOL0     C70971   2.152   8.327   6.845 -0.4484 -0.0789 -0.4516
  515MOL0     C70972   2.045   8.281   6.738  1.2057 -0.8017 -0.7055
  515MOL0     C70973   1.946   8.187   6.811  0.2952 -0.0568 -0.1833
  515MOL0     C70974   1.991   8.046   6.826  0.1276  0.2731  0.4090
  515MOL0     C70975   1.869   7.953   6.826 -0.3048  0.2370  0.0625
  515MOL0     C70976   1.914   7.802   6.810 -0.0479 -0.4034 -0.2924
  515MOL0    Cl70977   2.013   7.770   6.666 -0.0202 -0.7749  0.1404
  515MOL0     C70978   2.400   8.665   6.661 -0.3301 -0.3951  0.3239
  515MOL0     C70979   2.412   8.795   6.715  0.0809 -0.8747 -0.0543
  515MOL0     O70980   2.534   8.915   7.069  0.4071 -0.0773 -0.2569
  515MOL0     C70981   2.622   9.181   7.084  0.7648  0.3587 -0.5740
  515MOL0     C70982   2.641   9.311   7.107 -0.3666 -0.2494  0.2318
  515MOL0     N70983   2.743  10.134   7.246 -0.2001  0.4731  0.0989
  515MOL0     N70984   2.827  10.169   7.340  0.1401 -0.9726 -0.4682
  515MOL0     C70985   2.928  11.022   8.037 -0.2660 -0.2692  0.0103
  515MOL0     C70986   2.932  11.159   8.056  0.9529  0.4013  0.5709
  515MOL0     C70987   2.934  11.579   8.149 -0.0995 -0.6686 -0.2926
  515MOL0     C70988   2.961  11.606   8.012  0.6768  0.2918  0.0799
  515MOL0     C70989   2.973  11.731   7.965  0.3481 -0.7505 -0.6338
  515MOL0     C70990   2.950  11.842   8.054  0.6030 -0.9876  0.2384
  515MOL0     O70991   2.962  11.974   8.009 -0.0791  0.1890 -0.1700
  515MOL0     C70992   3.090  12.018   7.965 -0.5327  0.3718 -0.3709
  515MOL0     C70993   3.129  12.152   8.020 -0.3444  0.3780 -0.6559
  515MOL0     C70994   3.020  12.266   8.031 -0.7846  0.0246  0.8715
  515MOL0     C70995   3.066  12.398   7.974  0.0578 -0.1747  0.5622
  515MOL0     C70996   3.201  12.435   8.039 -0.6993  0.5270  0.8323
  515MOL0     C70997   3.308  12.457   8.095 -1.3846  0.7059 -0.8739
  515MOL0     C70998   2.919  11.813   8.190 -0.9083  0.9197 -0.3004
  515MOL0     C70999   2.911  11.681   8.246  0.7605  1.0167 -0.1928
  515MOL0     C71000   2.887  11.670   8.398 -0.4920 -0.2504  1.5307
  515MOL0     H71001   3.228  11.184   8.233  0.6752 -0.5800  0.3368
  515MOL0     H71002   3.212  10.947   8.211 -1.1168 -0.0220  0.5953
  515MOL0     H71003   3.213  10.750   8.124  0.6934 -0.3831  0.1646
  515MOL0     H71004   3.197  10.789   7.957  2.4481 -2.7510  0.2723
  515MOL0     H71005   3.228  10.551   8.012  1.1027  2.0251 -2.6219
  515MOL0     H71006   3.084  10.561   8.121  1.6643  1.0719  1.2656
  515MOL0     H71007   2.935  10.618   7.922  0.8456  1.4119 -2.7194
  515MOL0     H71008   3.078  10.604   7.818 -1.5103 -0.6611 -0.8024
  515MOL0     H71009   3.102  10.361   7.895  0.9926  1.4107 -2.0672
  515MOL0     H71010   2.958  10.396   7.993 -4.4196 -0.9683 -2.4439
  515MOL0     H71011   2.992  10.366   7.692  0.1197 -1.8655  0.0438
  515MOL0     H71012   2.851  10.460   7.748  0.1818  0.0894  0.4408
  515MOL0     H71013   2.898  10.179   7.857  0.5906 -0.1712 -1.6899
  515MOL0     H71014   2.769  10.288   7.888  1.6145  2.9263  0.9677
  515MOL0     H71015   2.713  10.276   7.638  4.2276  1.8105 -1.4373
  515MOL0     H71016   2.705  10.111   7.717 -2.5358  2.6083  2.3283
  515MOL0     H71017   2.957  10.212   7.565  0.1754  0.2671  0.6180
  515MOL0     H71018   2.916  10.044   7.613  0.2996 -1.7763 -2.6682
  515MOL0     H71019   2.647   9.948   7.499 -1.3611 -0.8198 -1.8259
  515MOL0     H71020   2.496  10.009   7.158  0.5773 -3.1058 -2.4644
  515MOL0     H71021   2.457   9.933   7.312 -0.4180 -1.3532 -0.3522
  515MOL0     H71022   2.530   9.784   7.102 -2.3859  1.2502  1.3045
  515MOL0     H71023   2.682   9.847   7.162 -1.2156  3.7740 -1.1624
  515MOL0     H71024   2.633   9.732   7.386  0.4611  2.3476 -1.9645
  515MOL0     H71025   2.475   9.689   7.334 -1.0999 -0.6017 -0.9278
  515MOL0     H71026   2.724   9.577   7.223 -0.6783 -1.2325  1.2995
  515MOL0     H71027   2.599   9.491   7.321 -3.5696  0.2840 -0.4654
  515MOL0     H71028   2.351   9.423   7.027 -1.3403 -0.3077  5.4713
  515MOL0     H71029   2.231   9.122   6.949 -2.4529  0.2554 -0.9145
  515MOL0     H71030   2.322   9.124   6.803 -0.0070 -1.4859  2.1367
  515MOL0     H71031   2.216   9.262   6.855 -2.9246 -2.9746 -0.5771
  515MOL0     H71032   2.690   8.754   6.905  0.4286 -1.3177  1.1343
  515MOL0     H71033   2.681   8.538   6.821 -0.8142  0.5596  0.6715
  515MOL0     H71034   2.294   8.377   6.583  2.2665 -1.8186 -2.0948
  515MOL0     H71035   2.373   8.270   6.689  3.2354  1.0378 -1.7032
  515MOL0     H71036   2.329   8.453   6.887  2.5229 -2.7636 -1.0940
  515MOL0     H71037   2.217   8.523   6.772 -0.4132 -0.2971 -0.6318
  515MOL0     H71038   2.102   8.369   6.933 -0.9899 -0.5186 -0.5486
  515MOL0     H71039   2.200   8.236   6.882 -0.4282  0.6983  1.5827
  515MOL0     H71040   2.100   8.239   6.652  1.4913 -0.0575 -0.8914
  515MOL0     H71041   1.987   8.367   6.705 -2.6467 -3.1171 -0.5350
  515MOL0     H71042   1.946   8.229   6.911  1.1183  1.5819 -0.8396
  515MOL0     H71043   1.846   8.201   6.767  0.5603 -1.2375 -1.2363
  515MOL0     H71044   2.029   8.038   6.928  0.9611 -2.3448 -0.0337
  515MOL0     H71045   2.056   8.008   6.746 -2.5751 -2.0653 -0.8432
  515MOL0     H71046   1.794   7.979   6.749  0.3430 -0.8958 -0.9819
  515MOL0     H71047   1.808   7.980   6.912 -0.1556 -0.7976  0.4963
  515MOL0     H71048   1.828   7.734   6.816  0.1645 -0.5592  1.3782
  515MOL0     H71049   1.979   7.780   6.896 -1.6709 -0.5433  0.9469
  515MOL0     H71050   2.319   8.633   6.597 -0.9153  0.1787  0.7665
  515MOL0     H71051   2.353   8.880   6.683  1.8870 -0.8262 -3.6904
  515MOL0     H71052   2.695   9.104   7.108  0.7525 -0.1968 -2.1547
  515MOL0     H71053   2.734   9.337   7.157 -0.9861  0.1993  1.1831
  515MOL0     H71054   2.847  10.982   7.977 -0.1821 -0.6863  0.1745
  515MOL0     H71055   2.847  11.213   8.016 -0.3395 -0.0486  2.5507
  515MOL0     H71056   2.978  11.532   7.934 -0.3720 -0.1074  0.2080
  515MOL0     H71057   3.009  11.753   7.864 -0.4216  0.7308 -0.6178
  515MOL0     H71058   3.166  11.947   7.999 -0.9368  0.7241  1.3674
  515MOL0     H71059   3.098  12.018   7.856 -0.8913  1.7150 -0.4160
  515MOL0     H71060   3.192  12.192   7.940  0.8977 -2.9030 -1.4487
  515MOL0     H71061   3.191  12.146   8.109 -0.4482 -0.1612 -0.6215
  515MOL0     H71062   2.927  12.229   7.987  1.5319 -2.1349 -2.7264
  515MOL0     H71063   3.008  12.281   8.139  1.1260 -3.7753  1.7605
  515MOL0     H71064   2.986  12.465   8.008 -2.3997 -3.1636  1.1780
  515MOL0     H71065   3.076  12.396   7.866  2.9422  1.6270  0.7056
  515MOL0     H71066   3.389  12.478   8.161 -0.9512 -0.4927 -0.9866
  515MOL0     H71067   2.914  11.895   8.261  2.0841  1.3564 -0.4676
  515MOL0     H71068   2.781  11.647   8.416  0.0647 -4.1174  0.6426
  515MOL0     H71069   2.954  11.597   8.444  0.4488 -0.0780  0.4846
  515MOL0     H71070   2.910  11.769   8.439  1.4711 -0.6649  1.5223
  516MOL0     O71071   1.833   1.690   7.049  0.8095 -0.1381 -0.2593
  516MOL0     C71072   1.769   1.614   7.128 -0.8454 -0.3206 -0.0997
  516MOL0     O71073   1.640   1.646   7.168  0.0786 -0.5961  0.5944
  516MOL0     C71074   1.581   1.775   7.139  0.4542  0.8568  0.0163
  516MOL0     C71075   1.446   1.766   7.098  0.0969 -0.2413  0.1193
  516MOL0     C71076   1.390   1.874   7.032  0.6342 -0.6237 -0.1651
  516MOL0     C71077   1.452   2.004   7.039  0.3582 -1.0121  0.8974
  516MOL0     O71078   1.400   2.121   6.988 -0.3934 -0.5363  0.5297
  516MOL0     C71079   1.271   2.126   6.924 -0.3045 -0.1705  0.0419
  516MOL0     C71080   1.147   2.106   7.009 -0.4821 -0.3337 -0.9308
  516MOL0     C71081   1.147   2.208   7.127  0.5055 -0.6538 -0.1293
  516MOL0     C71082   1.026   2.185   7.225 -0.0690 -0.0007 -0.2652
  516MOL0     C71083   1.029   2.283   7.345 -0.2489  0.0669 -0.2759
  516MOL0     C71084   1.101   2.245   7.470 -0.3905 -0.0299  0.0486
  516MOL0     C71085   1.121   2.361   7.555  0.0027 -0.1075  0.4237
  516MOL0     C71086   1.151   2.308   7.699  0.8283 -0.4486 -0.7557
  516MOL0     N71087   1.164   2.415   7.802  0.1885  0.1131 -0.2693
  516MOL0     C71088   1.260   2.398   7.901 -0.0406 -0.9714  0.7036
  516MOL0     C71089   1.221   2.478   8.001 -0.0842  0.3811 -0.3720
  516MOL0     C71090   1.271   2.480   8.141  0.6417  0.0062  0.0421
  516MOL0     C71091   1.408   2.560   8.159  0.6126  0.0181 -0.4711
  516MOL0     C71092   1.391   2.709   8.175 -0.3331  0.2400  0.3590
  516MOL0     C71093   1.518   2.784   8.201  0.1978  0.1220  1.0610
  516MOL0     O71094   1.512   2.825   8.335  0.3756  1.1472 -0.2286
  516MOL0     C71095   1.628   2.826   8.409  0.5603 -0.3243 -0.1205
  516MOL0     C71096   1.603   2.815   8.541  0.6085 -0.1882 -0.4063
  516MOL0     C71097   1.709   2.817   8.638  0.5796 -0.0252  0.2276
  516MOL0     C71098   1.667   2.784   8.778 -0.9915  0.5875 -1.0608
  516MOL0     C71099   1.843   2.838   8.599 -0.2877  0.0343  0.0354
  516MOL0     C71100   1.958   2.848   8.689 -0.4745 -0.4603  0.2010
  516MOL0     O71101   1.964   2.774   8.811 -0.0388 -0.5817 -0.0111
  516MOL0     C71102   2.062   2.811   8.909 -0.2551  0.2469  0.4191
  516MOL0     C71103   2.191   2.758   8.896 -0.8567 -1.0648 -0.3411
  516MOL0     C71104   2.287   2.788   9.001  0.3707  0.1191 -0.2599
  516MOL0     C71105   2.244   2.848   9.121 -1.2826  0.1063  0.0221
  516MOL0     O71106   2.322   2.855   9.235  0.4680 -0.0853  0.3292
  516MOL0     C71107   2.463   2.894   9.204  0.6724  0.2248  0.0783
  516MOL0     C71108   2.522   2.928   9.337  0.1037  0.0496 -1.1177
  516MOL0     C71109   2.675   2.957   9.328 -0.2689  0.0332 -0.1759
  516MOL0     C71110   2.743   2.825   9.266  1.3511 -0.5904  0.1879
  516MOL0     C71111   2.898   2.821   9.300 -0.5015  0.2117  0.1586
  516MOL0     C71112   2.988   2.832   9.169  1.4447  0.0260  0.4567
  516MOL0     C71113   3.137   2.798   9.198  0.6665 -1.0025 -0.1639
  516MOL0     C71114   3.223   2.839   9.084 -0.3018 -0.4824 -0.0227
  516MOL0    Cl71115   3.229   3.013   9.044 -0.8905 -0.0505  0.4254
  516MOL0     C71116   2.116   2.890   9.131 -0.3338  0.7110 -0.4050
  516MOL0     C71117   2.020   2.873   9.027 -0.4442 -0.6806  0.1053
  516MOL0     O71118   2.044   2.928   8.661 -0.1203 -0.0237 -0.0998
  516MOL0     C71119   1.859   2.855   8.462  0.5750 -0.3723  0.3806
  516MOL0     C71120   1.755   2.844   8.368 -1.1231  1.0693 -1.1776
  516MOL0     N71121   1.101   2.542   7.957 -0.3658  0.6927 -0.5243
  516MOL0     N71122   1.075   2.510   7.844  0.0309 -0.5569 -0.2393
  516MOL0     C71123   1.577   2.011   7.097  0.3209 -0.2110 -0.3011
  516MOL0     C71124   1.647   1.899   7.142  0.9199 -0.0502  0.2681
  516MOL0     C71125   1.823   1.490   7.140 -0.1922  0.4963  0.4116
  516MOL0     C71126   1.790   1.394   7.036 -0.1857  1.0325  0.5449
  516MOL0     C71127   1.842   1.265   7.052  0.1637  0.4829 -0.1258
  516MOL0     C71128   1.909   1.225   7.167 -0.3520 -0.5277  0.0193
  516MOL0     O71129   1.949   1.100   7.196 -0.8838 -0.2787 -0.1013
  516MOL0     C71130   1.879   0.993   7.137  0.3049 -0.7220  1.2027
  516MOL0     C71131   1.882   0.885   7.238  0.2444 -0.4420  0.3000
  516MOL0     C71132   1.810   0.751   7.196  1.0487  0.3074  0.2565
  516MOL0     C71133   1.857   0.639   7.290  0.5082 -0.3942 -0.1850
  516MOL0     C71134   1.860   0.671   7.432 -0.4848 -0.6243 -0.0291
  516MOL0     C71135   1.867   0.685   7.555  0.3083 -0.1885 -0.3056
  516MOL0     C71136   1.948   1.315   7.259  0.2794 -0.0213  0.1369
  516MOL0     C71137   1.907   1.450   7.250 -0.0895 -0.0340 -0.3089
  516MOL0     C71138   1.949   1.546   7.364  0.1074 -0.6786 -0.7305
  516MOL0     H71139   1.390   1.674   7.102 -2.3085  1.1568  0.9931
  516MOL0     H71140   1.290   1.864   6.990 -0.3456 -2.7979  2.3874
  516MOL0     H71141   1.279   2.051   6.845  2.4438 -2.0808  1.9532
  516MOL0     H71142   1.262   2.217   6.863 -1.0480 -2.0865 -2.8761
  516MOL0     H71143   1.058   2.124   6.948 -1.9221 -0.3704  1.0599
  516MOL0     H71144   1.146   2.004   7.049  0.9258 -0.1889 -0.4394
  516MOL0     H71145   1.241   2.199   7.183  0.0040 -2.3524  0.5052
  516MOL0     H71146   1.142   2.310   7.087 -1.5114  0.6444  3.0715
  516MOL0     H71147   0.934   2.198   7.168 -1.3341 -0.9620  1.4789
  516MOL0     H71148   1.019   2.083   7.264 -0.2422 -0.2772 -1.0143
  516MOL0     H71149   0.923   2.298   7.370 -1.1661  4.4562 -5.1788
  516MOL0     H71150   1.064   2.375   7.299  0.2133 -0.1897 -0.4420
  516MOL0     H71151   1.030   2.177   7.517  1.3830 -0.8020  1.7548
  516MOL0     H71152   1.200   2.201   7.454  1.8564  3.6071  2.3619
  516MOL0     H71153   1.029   2.419   7.554  0.7421  1.2406 -2.4774
  516MOL0     H71154   1.196   2.429   7.514 -0.3165 -0.5410 -0.9435
  516MOL0     H71155   1.058   2.260   7.731  0.5803  0.0181 -0.7674
  516MOL0     H71156   1.224   2.227   7.709  2.0211  0.8269  1.8528
  516MOL0     H71157   1.342   2.327   7.908  1.6905  0.8118 -0.3575
  516MOL0     H71158   1.283   2.375   8.167  1.9284  0.2741  0.6365
  516MOL0     H71159   1.200   2.520   8.213  3.1481  0.3407  2.4923
  516MOL0     H71160   1.456   2.524   8.250  0.6516 -2.2022 -1.3130
  516MOL0     H71161   1.477   2.532   8.079  0.1980  1.1815 -1.2724
  516MOL0     H71162   1.341   2.746   8.085 -0.2997 -0.0916  0.2009
  516MOL0     H71163   1.324   2.730   8.258 -1.0032  1.2560 -0.4112
  516MOL0     H71164   1.610   2.732   8.172 -0.4455 -0.2491 -0.4292
  516MOL0     H71165   1.499   2.877   8.146 -0.4052 -1.4471 -1.5324
  516MOL0     H71166   1.501   2.796   8.572  0.9487  1.7648  2.3386
  516MOL0     H71167   1.572   2.832   8.805 -0.5771  3.3600 -3.9602
  516MOL0     H71168   1.743   2.808   8.852  1.2772 -0.6122 -2.8912
  516MOL0     H71169   1.661   2.674   8.779  3.2125  0.2023  0.0661
  516MOL0     H71170   2.228   2.717   8.803 -2.3655  0.6058 -1.7596
  516MOL0     H71171   2.387   2.747   8.988 -0.1599 -1.1909 -0.4594
  516MOL0     H71172   2.521   2.817   9.152 -1.8797 -1.5198 -0.3767
  516MOL0     H71173   2.460   2.988   9.148  2.5233 -1.0249 -2.3217
  516MOL0     H71174   2.467   3.015   9.374 -1.9270 -0.0463 -3.6290
  516MOL0     H71175   2.505   2.850   9.412  0.4704 -0.1522 -1.2406
  516MOL0     H71176   2.711   2.982   9.428 -1.2790 -1.5001  0.5981
  516MOL0     H71177   2.699   3.037   9.257  1.6170 -1.6707 -1.5702
  516MOL0     H71178   2.728   2.838   9.158 -4.0523  0.6353  0.7874
  516MOL0     H71179   2.689   2.732   9.286  0.1418 -0.1309 -0.8138
  516MOL0     H71180   2.936   2.892   9.375  2.6066  0.6532 -1.6480
  516MOL0     H71181   2.903   2.719   9.338  1.1195 -0.6499 -2.1009
  516MOL0     H71182   2.981   2.929   9.120 -1.2096 -1.5811 -2.7409
  516MOL0     H71183   2.946   2.769   9.090  0.6048  2.2926 -0.9845
  516MOL0     H71184   3.160   2.692   9.212 -1.0655 -1.3382  0.4610
  516MOL0     H71185   3.165   2.850   9.291  3.3227 -1.8898 -0.3847
  516MOL0     H71186   3.191   2.774   9.002  0.6155  1.8278 -2.3514
  516MOL0     H71187   3.324   2.819   9.122  0.3664  1.0064 -0.9518
  516MOL0     H71188   2.112   2.925   9.234 -1.3724 -2.4809  0.7430
  516MOL0     H71189   1.914   2.899   9.030  0.0975  2.1085 -1.6633
  516MOL0     H71190   1.955   2.885   8.421  0.0772  0.4919 -0.1771
  516MOL0     H71191   1.777   2.868   8.265  0.8495 -0.6292 -1.2156
  516MOL0     H71192   1.612   2.113   7.107  0.1393 -0.0384 -1.4122
  516MOL0     H71193   1.745   1.910   7.185  0.8308  1.2980  0.1587
  516MOL0     H71194   1.736   1.422   6.946 -1.7667 -1.2297  0.7202
  516MOL0     H71195   1.808   1.189   6.982  2.4543  0.4124 -1.2537
  516MOL0     H71196   1.776   1.012   7.106  1.0808  1.0199 -0.5246
  516MOL0     H71197   1.931   0.957   7.047  1.2564 -1.6686  2.1061
  516MOL0     H71198   1.823   0.920   7.324  0.2164 -0.4623  0.2893
  516MOL0     H71199   1.988   0.865   7.257 -0.2000 -1.8684  1.5370
  516MOL0     H71200   1.705   0.755   7.227  0.7054 -1.7907 -0.5245
  516MOL0     H71201   1.821   0.734   7.089  2.2660 -2.2789  0.7302
  516MOL0     H71202   1.952   0.608   7.244  0.2958  2.0178 -2.4731
  516MOL0     H71203   1.786   0.557   7.270 -2.3671  2.3557 -2.2437
  516MOL0     H71204   1.876   0.688   7.662  2.5806 -1.6373 -0.3978
  516MOL0     H71205   2.009   1.281   7.341  1.8982 -2.5099 -1.9349
  516MOL0     H71206   1.892   1.524   7.455 -1.6571 -1.7082 -2.0416
  516MOL0     H71207   2.057   1.544   7.386 -0.6438 -0.7756  4.0695
  516MOL0     H71208   1.926   1.645   7.325 -4.3160  0.1208  3.0808
  517MOL0     O71209   6.955   1.937  10.231 -0.5241  0.4964 -0.3580
  517MOL0     C71210   7.059   1.982  10.277 -0.3570  0.8824 -0.1967
  517MOL0     O71211   7.179   1.920  10.272  0.0624  0.4309  0.6191
  517MOL0     C71212   7.205   1.797  10.214  0.2463 -0.3411 -0.0767
  517MOL0     C71213   7.123   1.680  10.228  0.2079 -0.4881 -0.1694
  517MOL0     C71214   7.176   1.550  10.197 -0.3786  0.0976  0.6813
  517MOL0     C71215   7.300   1.547  10.126  1.2038 -1.1448  0.6784
  517MOL0     O71216   7.357   1.432  10.075 -0.3038  0.2836  0.2357
  517MOL0     C71217   7.295   1.297  10.078 -0.2349 -0.7256 -1.2344
  517MOL0     C71218   7.392   1.178  10.061 -0.5959  0.3567  0.0114
  517MOL0     C71219   7.531   1.177  10.117  0.3787  0.3123 -0.3593
  517MOL0     C71220   7.528   1.164  10.270 -0.1648  0.2774 -0.2606
  517MOL0     C71221   7.677   1.182  10.328  0.6042 -1.0066  0.1596
  517MOL0     C71222   7.666   1.197  10.484 -0.8578 -0.0573  0.0018
  517MOL0     C71223   7.808   1.222  10.541  0.9413 -0.2863 -0.4247
  517MOL0     C71224   7.802   1.280  10.690 -0.6487  0.7490  0.4436
  517MOL0     N71225   7.688   1.241  10.775 -0.7192  0.2286  0.0324
  517MOL0     C71226   7.608   1.332  10.853  0.1668  0.4757  1.4066
  517MOL0     C71227   7.511   1.243  10.893 -0.5322 -0.5128 -0.3976
  517MOL0     C71228   7.399   1.294  10.978 -0.8474 -0.4008 -0.2516
  517MOL0     C71229   7.306   1.372  10.895 -0.6564 -1.2298 -0.2120
  517MOL0     C71230   7.341   1.515  10.921  0.5939 -0.3191  0.7470
  517MOL0     C71231   7.237   1.593  10.849  0.7129  0.9536 -0.2740
  517MOL0     O71232   7.234   1.564  10.711 -0.2201 -0.5088  1.7620
  517MOL0     C71233   7.338   1.585  10.624 -0.1572 -0.0766 -0.5986
  517MOL0     C71234   7.443   1.673  10.649  0.2288 -0.5884 -0.2474
  517MOL0     C71235   7.551   1.693  10.571 -0.3077 -0.6062  0.0004
  517MOL0     C71236   7.671   1.769  10.621  0.2970 -0.0628 -1.0077
  517MOL0     C71237   7.549   1.632  10.445 -1.1709 -1.1414  0.9527
  517MOL0     C71238   7.653   1.659  10.338  0.5138 -0.9080  0.6279
  517MOL0     O71239   7.685   1.555  10.265 -0.5362  0.0677 -0.5152
  517MOL0     C71240   7.799   1.564  10.191  0.5245  0.3848 -0.5961
  517MOL0     C71241   7.805   1.614  10.069  0.2465 -0.3461 -0.3765
  517MOL0     C71242   7.923   1.615   9.996  0.4422 -0.4944 -1.4607
  517MOL0     C71243   8.039   1.562  10.054 -0.0433 -0.6610  0.1112
  517MOL0     O71244   8.157   1.548   9.979 -0.4891 -0.3633 -0.5684
  517MOL0     C71245   8.190   1.418   9.944 -0.3359  2.8465  0.0902
  517MOL0     C71246   8.243   1.394   9.798 -0.4153  0.3674 -1.0500
  517MOL0     C71247   8.133   1.409   9.705  0.8876  0.6481  0.3409
  517MOL0     C71248   8.174   1.389   9.565  0.3676 -0.3544 -0.3161
  517MOL0     C71249   8.256   1.497   9.503 -0.3961 -0.3323 -0.1477
  517MOL0     C71250   8.272   1.478   9.350  0.0382  0.3034  0.1607
  517MOL0     C71251   8.321   1.605   9.290 -0.0593 -0.4612  0.6688
  517MOL0     C71252   8.395   1.593   9.151 -0.7418 -0.7995 -0.3811
  517MOL0    Cl71253   8.543   1.493   9.147  0.0275 -0.0912  0.6616
  517MOL0     C71254   8.038   1.518  10.186  0.8141 -0.4053 -0.1914
  517MOL0     C71255   7.916   1.519  10.253  0.7120 -0.4300  0.7447
  517MOL0     O71256   7.684   1.781  10.319 -0.3567 -0.1388 -0.0327
  517MOL0     C71257   7.447   1.540  10.422 -0.9729  0.2194  0.6301
  517MOL0     C71258   7.347   1.513  10.510 -1.2145  0.3917  1.5722
  517MOL0     N71259   7.539   1.112  10.858 -0.4853  0.4000  0.3501
  517MOL0     N71260   7.647   1.111  10.784  0.0444  0.1497 -0.0972
  517MOL0     C71261   7.380   1.665  10.117 -0.1815  0.1713 -1.1641
  517MOL0     C71262   7.337   1.782  10.164  0.2546  0.5924  0.3986
  517MOL0     C71263   7.055   2.099  10.366 -0.7903 -1.2430  0.0588
  517MOL0     C71264   6.965   2.106  10.470  0.7680  0.1347  0.1899
  517MOL0     C71265   6.949   2.222  10.553  0.2963 -0.2978 -0.4525
  517MOL0     C71266   7.045   2.329  10.542 -0.7929 -0.1837 -0.8208
  517MOL0     O71267   7.043   2.430  10.634  0.8689  0.2260 -0.1859
  517MOL0     C71268   6.915   2.487  10.661 -0.4731 -0.6246  1.1444
  517MOL0     C71269   6.818   2.517  10.544  0.1683  1.2167 -0.0327
  517MOL0     C71270   6.704   2.605  10.580  0.4411 -0.5716 -0.1681
  517MOL0     C71271   6.731   2.747  10.626  0.0084 -0.7078  0.6509
  517MOL0     C71272   6.683   2.757  10.762 -0.4800 -0.5651 -0.0187
  517MOL0     C71273   6.618   2.771  10.865  0.1972 -0.5224 -0.0633
  517MOL0     C71274   7.152   2.313  10.450 -0.5430 -0.5312  0.2938
  517MOL0     C71275   7.145   2.212  10.358 -0.3350  0.9882  1.5250
  517MOL0     C71276   7.257   2.207  10.253  0.2478 -0.2029 -0.1514
  517MOL0     H71277   7.026   1.675  10.277  1.4720  0.6154  2.6721
  517MOL0     H71278   7.110   1.468  10.220  0.1553 -0.3663  0.5799
  517MOL0     H71279   7.220   1.274  10.001  0.6120 -3.9381 -1.2525
  517MOL0     H71280   7.245   1.289  10.175 -0.1460  0.7212 -1.0445
  517MOL0     H71281   7.328   1.090  10.069  1.1845 -1.0181 -0.1507
  517MOL0     H71282   7.420   1.189   9.955 -0.6765  2.8031  0.1920
  517MOL0     H71283   7.576   1.085  10.079 -2.0511 -1.4943  0.8022
  517MOL0     H71284   7.585   1.270  10.098 -0.7560  0.9663 -0.5218
  517MOL0     H71285   7.453   1.237  10.302  2.2454  2.3449  0.9413
  517MOL0     H71286   7.491   1.067  10.304 -2.3009  1.9397  2.6878
  517MOL0     H71287   7.721   1.267  10.274  0.5177 -0.1859  1.3298
  517MOL0     H71288   7.733   1.091  10.304  2.3468 -0.4449  1.8224
  517MOL0     H71289   7.595   1.277  10.508  1.5508  1.8057  1.5072
  517MOL0     H71290   7.619   1.109  10.526 -1.3846  1.1966  2.1941
  517MOL0     H71291   7.854   1.294  10.472 -3.4090  1.3561 -1.9599
  517MOL0     H71292   7.872   1.133  10.541  1.9980  0.4419  0.8757
  517MOL0     H71293   7.888   1.225  10.728  0.9618  3.6326  1.2922
  517MOL0     H71294   7.825   1.386  10.701 -0.4467  0.9474 -1.4489
  517MOL0     H71295   7.611   1.438  10.873  0.5538  0.6927  0.2490
  517MOL0     H71296   7.436   1.344  11.068 -2.7536 -0.3910  0.5724
  517MOL0     H71297   7.348   1.202  11.007  2.3613 -2.0767  0.5990
  517MOL0     H71298   7.316   1.337  10.792  3.4422 -3.1883  0.6426
  517MOL0     H71299   7.201   1.356  10.923 -0.9726  1.6568  0.5729
  517MOL0     H71300   7.321   1.542  11.025 -3.2396  1.4781 -0.2836
  517MOL0     H71301   7.442   1.549  10.897  0.3292  0.3531  0.5751
  517MOL0     H71302   7.143   1.572  10.899  1.5783 -0.0046  1.0169
  517MOL0     H71303   7.262   1.699  10.857 -2.4033  2.1817 -3.8188
  517MOL0     H71304   7.435   1.735  10.738 -1.4089  0.1527 -0.8670
  517MOL0     H71305   7.756   1.703  10.639 -1.7241 -3.0862 -1.7157
  517MOL0     H71306   7.632   1.811  10.714  1.2140  2.3908 -1.6313
  517MOL0     H71307   7.703   1.843  10.547  1.5835  1.0508  0.5859
  517MOL0     H71308   7.709   1.641  10.027  1.3646 -0.2184 -3.0160
  517MOL0     H71309   7.932   1.651   9.894 -0.6744 -1.8075 -2.0516
  517MOL0     H71310   8.277   1.398  10.007  0.8382 -0.5191 -2.2860
  517MOL0     H71311   8.111   1.347   9.969 -1.0469  3.7585  0.4825
  517MOL0     H71312   8.321   1.469   9.783 -1.4689  1.6108 -0.5205
  517MOL0     H71313   8.283   1.293   9.795 -0.5194  0.2725  0.2225
  517MOL0     H71314   8.090   1.509   9.715  2.4036  1.5322 -1.3805
  517MOL0     H71315   8.052   1.338   9.724 -1.7972  2.2684 -3.6683
  517MOL0     H71316   8.077   1.391   9.514  0.2877  0.6835 -0.1320
  517MOL0     H71317   8.224   1.292   9.552 -0.1189 -0.4731 -1.3726
  517MOL0     H71318   8.203   1.591   9.523 -1.4838 -1.2240  1.3122
  517MOL0     H71319   8.354   1.504   9.552 -0.8681 -2.0271  1.1429
  517MOL0     H71320   8.182   1.441   9.298  0.7353  0.5571 -1.2829
  517MOL0     H71321   8.346   1.401   9.328  0.5771  1.7761 -4.3276
  517MOL0     H71322   8.387   1.651   9.365 -0.3346  2.9928 -1.0356
  517MOL0     H71323   8.234   1.666   9.267  0.5782  0.8993  1.6809
  517MOL0     H71324   8.418   1.696   9.125  0.6885 -0.4864  1.8105
  517MOL0     H71325   8.327   1.546   9.079 -0.2808 -1.5259 -0.3566
  517MOL0     H71326   8.130   1.490  10.237 -0.5010 -2.5248  1.1686
  517MOL0     H71327   7.909   1.488  10.357 -1.0628 -2.1204  0.1849
  517MOL0     H71328   7.459   1.485  10.329  0.4187 -1.9444  2.0000
  517MOL0     H71329   7.273   1.437  10.487  2.1541 -2.8884  0.6837
  517MOL0     H71330   7.477   1.650  10.069  0.0362  1.8982 -1.3007
  517MOL0     H71331   7.400   1.870  10.159 -1.0428  1.5446  0.2632
  517MOL0     H71332   6.886   2.033  10.483  0.4392  0.8352  2.7157
  517MOL0     H71333   6.861   2.246  10.611  0.8996  1.8484 -0.3482
  517MOL0     H71334   6.862   2.423  10.731 -2.0325  1.8434  2.3691
  517MOL0     H71335   6.935   2.577  10.720 -3.1137  0.7906  0.0349
  517MOL0     H71336   6.771   2.425  10.510  3.5190 -1.2044  1.3267
  517MOL0     H71337   6.879   2.561  10.465  0.5482 -1.2171 -1.1882
  517MOL0     H71338   6.646   2.616  10.488 -4.3583  1.3607  2.7132
  517MOL0     H71339   6.636   2.551  10.646  1.5051 -2.2778 -0.3880
  517MOL0     H71340   6.672   2.822  10.572 -0.8509 -2.2535 -0.6724
  517MOL0     H71341   6.833   2.786  10.619 -0.8512  1.5024 -0.6396
  517MOL0     H71342   6.580   2.782  10.964  1.7324  3.4097  0.2386
  517MOL0     H71343   7.223   2.395  10.449 -0.9897 -0.1380 -0.7057
  517MOL0     H71344   7.357   2.194  10.296  1.6102 -1.0222 -3.2700
  517MOL0     H71345   7.247   2.137  10.169 -1.2190 -0.5487  0.2794
  517MOL0     H71346   7.256   2.309  10.213  0.8117 -0.0044  0.3245
  518MOL0     O71347   3.606   2.207   2.962 -0.5092  0.0881 -0.3366
  518MOL0     C71348   3.686   2.171   2.880 -1.2642 -0.3164 -0.0861
  518MOL0     O71349   3.690   2.050   2.824  0.5025  0.4000 -0.0345
  518MOL0     C71350   3.611   1.936   2.851 -0.0846  1.3779  1.3552
  518MOL0     C71351   3.639   1.820   2.782 -0.3915 -0.6542 -1.3354
  518MOL0     C71352   3.554   1.706   2.798  0.4129  0.0630  0.7820
  518MOL0     C71353   3.458   1.695   2.907 -1.5846  0.1625 -0.1170
  518MOL0     O71354   3.378   1.593   2.933  0.2525  0.5414 -0.7225
  518MOL0     C71355   3.441   1.490   3.005 -0.5197  0.4035 -0.9933
  518MOL0     C71356   3.399   1.353   2.969 -0.3615 -0.1675  0.4465
  518MOL0     C71357   3.261   1.326   3.010 -0.3787 -0.3840 -0.6676
  518MOL0     C71358   3.242   1.181   2.971 -1.3609 -0.1905 -0.1162
  518MOL0     C71359   3.103   1.138   2.991  0.2387 -0.1010  0.3567
  518MOL0     C71360   3.086   0.984   2.955  0.7457 -1.0499 -0.4280
  518MOL0     C71361   2.933   0.941   2.937 -0.5226  0.0838  0.2716
  518MOL0     C71362   2.840   0.947   3.053 -0.0619  0.1267  0.4699
  518MOL0     N71363   2.858   0.840   3.156 -1.0512  0.6432 -0.4927
  518MOL0     C71364   2.907   0.712   3.138 -0.3656 -0.2600 -0.3019
  518MOL0     C71365   2.875   0.653   3.260 -0.2998 -0.4025 -0.5642
  518MOL0     C71366   2.899   0.510   3.301 -0.0877  0.6270 -0.0190
  518MOL0     C71367   2.921   0.509   3.453  0.1465 -0.2372  0.4201
  518MOL0     C71368   3.073   0.531   3.477  0.7052 -0.1720  0.0306
  518MOL0     C71369   3.114   0.495   3.618 -1.2363  0.3351  0.2837
  518MOL0     O71370   3.242   0.538   3.656  0.2922 -0.7351 -0.1648
  518MOL0     C71371   3.270   0.571   3.791  0.3349  0.0627  0.6893
  518MOL0     C71372   3.181   0.555   3.900  0.3838 -0.3225 -0.1676
  518MOL0     C71373   3.193   0.629   4.018  0.0375  0.2285  0.9173
  518MOL0     C71374   3.074   0.620   4.113 -0.2674  0.8609  0.4355
  518MOL0     C71375   3.314   0.701   4.040 -0.4498  0.4637  0.1156
  518MOL0     C71376   3.350   0.764   4.162 -0.4906 -0.1253 -0.2606
  518MOL0     O71377   3.326   0.694   4.280  0.0822 -0.0768  0.3745
  518MOL0     C71378   3.391   0.728   4.394  0.1510 -0.2863 -0.0175
  518MOL0     C71379   3.515   0.781   4.413 -0.6366 -0.6728  0.2994
  518MOL0     C71380   3.570   0.793   4.544  0.0411  0.3426  0.3229
  518MOL0     C71381   3.495   0.767   4.661  0.2132 -0.3670 -0.4859
  518MOL0     O71382   3.531   0.786   4.790  0.1724  0.0158 -0.0372
  518MOL0     C71383   3.660   0.837   4.823  0.1214 -0.5925  0.5113
  518MOL0     C71384   3.658   0.986   4.831 -0.9881 -0.0321  0.6838
  518MOL0     C71385   3.529   1.050   4.878 -0.4037 -0.1707 -0.5355
  518MOL0     C71386   3.540   1.206   4.877  0.4446  0.5109  0.5092
  518MOL0     C71387   3.441   1.278   4.966  0.5802  0.4197 -0.3522
  518MOL0     C71388   3.444   1.434   4.934  0.5398 -0.3471 -0.5733
  518MOL0     C71389   3.386   1.498   5.059  0.3519 -0.1456  0.3396
  518MOL0     C71390   3.426   1.639   5.055 -0.9290  0.0101 -0.5026
  518MOL0    Cl71391   3.345   1.709   4.924  0.2261 -0.1586 -0.4821
  518MOL0     C71392   3.360   0.721   4.645 -1.8944 -0.0345  0.2778
  518MOL0     C71393   3.316   0.707   4.510 -0.3256  0.6747 -0.0783
  518MOL0     O71394   3.398   0.875   4.155  0.0747  0.0777 -0.1449
  518MOL0     C71395   3.411   0.704   3.940 -0.7912  0.1447  0.7172
  518MOL0     C71396   3.388   0.646   3.816 -0.7448  0.7329 -1.2921
  518MOL0     N71397   2.821   0.748   3.341 -0.3613 -0.6979 -0.4818
  518MOL0     N71398   2.831   0.864   3.286 -0.1844  0.4106  0.2881
  518MOL0     C71399   3.449   1.814   2.978  0.0746  0.5299 -0.5166
  518MOL0     C71400   3.512   1.931   2.950  0.1003  0.6120 -0.1592
  518MOL0     C71401   3.800   2.250   2.839  0.6949  0.2113  0.7381
  518MOL0     C71402   3.893   2.192   2.745 -1.0104 -0.6673 -0.6600
  518MOL0     C71403   4.005   2.264   2.688  0.8316 -0.2141 -0.0181
  518MOL0     C71404   4.040   2.390   2.731  1.4299 -0.3160  0.3597
  518MOL0     O71405   4.148   2.460   2.675  0.2262 -0.5600 -0.1687
  518MOL0     C71406   4.286   2.415   2.704  0.4395 -0.7860 -0.7343
  518MOL0     C71407   4.393   2.492   2.626 -0.7763  0.3466 -0.4334
  518MOL0     C71408   4.443   2.612   2.708  0.1997  0.2763 -0.5402
  518MOL0     C71409   4.538   2.579   2.836  0.2977  0.6378  0.2397
  518MOL0     C71410   4.663   2.501   2.802  0.0966  0.1130 -0.6691
  518MOL0     C71411   4.772   2.447   2.775 -0.4577  0.2940  0.4812
  518MOL0     C71412   3.952   2.450   2.824  1.4569 -0.1081 -0.5405
  518MOL0     C71413   3.837   2.388   2.879  0.5618 -1.0174  0.6120
  518MOL0     C71414   3.753   2.473   2.978 -0.6185 -0.1701  0.1146
  518MOL0     H71415   3.726   1.807   2.717 -0.9011 -2.6759 -1.6771
  518MOL0     H71416   3.588   1.633   2.725  1.9082  1.6186 -0.1406
  518MOL0     H71417   3.419   1.510   3.110  0.0160  3.9051 -1.4266
  518MOL0     H71418   3.549   1.503   2.997 -0.6031  0.9732 -1.2252
  518MOL0     H71419   3.420   1.324   2.866 -1.3041  0.7541 -0.0101
  518MOL0     H71420   3.462   1.295   3.038 -1.1465 -0.7036  0.7246
  518MOL0     H71421   3.251   1.341   3.117  3.2957  1.8881 -0.4618
  518MOL0     H71422   3.191   1.384   2.948 -1.0885 -0.2724  0.2160
  518MOL0     H71423   3.267   1.177   2.864 -1.0454  1.5015 -0.1248
  518MOL0     H71424   3.312   1.120   3.029 -1.2603  2.9401  3.4228
  518MOL0     H71425   3.032   1.202   2.938  3.7292  2.6321 -1.4365
  518MOL0     H71426   3.093   1.141   3.100 -4.6170  1.9816  0.1077
  518MOL0     H71427   3.138   0.963   2.862  0.2165  0.3852 -1.0790
  518MOL0     H71428   3.131   0.937   3.043  1.1048  1.7964  1.0494
  518MOL0     H71429   2.928   0.840   2.895 -2.3855 -0.3400  1.4106
  518MOL0     H71430   2.888   1.008   2.863  1.1578  0.3735 -0.5417
  518MOL0     H71431   2.839   1.049   3.092 -1.0261  1.8738 -3.6000
  518MOL0     H71432   2.739   0.942   3.012 -1.0267 -0.2168  2.7282
  518MOL0     H71433   2.944   0.665   3.047 -1.7666 -2.1331  0.0474
  518MOL0     H71434   2.973   0.463   3.235 -0.9240 -1.9622  0.8081
  518MOL0     H71435   2.804   0.463   3.277  0.1880 -0.6813  1.3438
  518MOL0     H71436   2.864   0.577   3.516  0.0568  0.7451 -0.6887
  518MOL0     H71437   2.902   0.405   3.482  1.0595 -0.8979 -1.2058
  518MOL0     H71438   3.129   0.473   3.403 -1.0141 -1.6397 -0.1912
  518MOL0     H71439   3.099   0.637   3.470  1.9821 -0.1378  3.6178
  518MOL0     H71440   3.042   0.549   3.680 -3.4867 -4.1509  2.0312
  518MOL0     H71441   3.102   0.387   3.631 -1.4209  0.4308  0.9406
  518MOL0     H71442   3.090   0.497   3.905  0.3240 -0.2629 -0.5404
  518MOL0     H71443   3.057   0.716   4.164 -1.2399  1.9536 -1.8074
  518MOL0     H71444   3.076   0.546   4.194 -1.7139 -0.6907 -0.8640
  518MOL0     H71445   2.987   0.583   4.057  0.2605 -2.7968  1.7604
  518MOL0     H71446   3.572   0.807   4.324 -0.2652  1.7884  1.1570
  518MOL0     H71447   3.672   0.830   4.552  1.3498 -2.6116 -0.8715
  518MOL0     H71448   3.680   0.800   4.924  1.5254  0.7794  0.7704
  518MOL0     H71449   3.743   0.803   4.761 -0.6569  1.8495 -2.0720
  518MOL0     H71450   3.751   1.018   4.879  1.0072  0.3345 -3.0748
  518MOL0     H71451   3.672   1.029   4.731  0.1918 -1.6647  0.0961
  518MOL0     H71452   3.506   1.021   4.981  0.8804  0.1514 -0.1465
  518MOL0     H71453   3.454   1.022   4.802 -0.2882  1.6115 -1.3623
  518MOL0     H71454   3.520   1.234   4.774 -2.4946  1.6756  1.3064
  518MOL0     H71455   3.637   1.246   4.909  0.0753  1.0070  1.0151
  518MOL0     H71456   3.340   1.239   4.949  0.4079 -0.4487  2.1842
  518MOL0     H71457   3.463   1.267   5.073  3.6589  2.2186 -0.6788
  518MOL0     H71458   3.374   1.439   4.850 -0.4084 -1.0185  0.1612
  518MOL0     H71459   3.545   1.465   4.903  1.7477 -1.1653  2.2400
  518MOL0     H71460   3.426   1.450   5.149  0.5798  1.1182  0.9371
  518MOL0     H71461   3.278   1.482   5.048  0.8726 -3.3387 -1.1621
  518MOL0     H71462   3.534   1.644   5.036 -1.0182  1.2139 -0.7544
  518MOL0     H71463   3.405   1.696   5.146 -1.8255 -2.1869  0.7403
  518MOL0     H71464   3.306   0.691   4.734 -3.7098  0.9476 -0.4457
  518MOL0     H71465   3.219   0.661   4.493 -0.6932  1.5441 -0.3391
  518MOL0     H71466   3.509   0.743   3.965 -2.0301  3.3294  1.1328
  518MOL0     H71467   3.456   0.638   3.733 -0.3483  0.9234 -0.9891
  518MOL0     H71468   3.371   1.831   3.051 -2.1947 -0.5769 -2.5482
  518MOL0     H71469   3.486   2.015   3.014 -2.2163  0.5416 -0.9167
  518MOL0     H71470   3.899   2.092   2.703  2.9839 -0.6671 -0.4931
  518MOL0     H71471   4.082   2.213   2.632 -0.2764 -3.8620  1.4696
  518MOL0     H71472   4.312   2.404   2.810 -0.5338 -4.2403 -0.7374
  518MOL0     H71473   4.279   2.310   2.674 -2.7794 -1.9779  3.2284
  518MOL0     H71474   4.348   2.534   2.535  1.3165  1.3934 -1.0657
  518MOL0     H71475   4.474   2.424   2.599  0.6443  0.8864  2.1307
  518MOL0     H71476   4.504   2.677   2.645  1.2365 -1.0589 -0.9841
  518MOL0     H71477   4.361   2.675   2.743  2.2596  3.2139 -0.7135
  518MOL0     H71478   4.481   2.529   2.914 -0.5195  3.1791  1.3914
  518MOL0     H71479   4.572   2.674   2.879 -0.7283  1.6369 -1.0795
  518MOL0     H71480   4.866   2.399   2.754 -0.3725 -0.9945  3.2904
  518MOL0     H71481   3.970   2.552   2.856 -0.1702 -0.1581  0.6235
  518MOL0     H71482   3.653   2.502   2.942 -0.8995  1.2828  1.9107
  518MOL0     H71483   3.755   2.426   3.077  0.6568  1.2506  0.7951
  518MOL0     H71484   3.802   2.569   2.997  1.2194 -0.5600 -2.3212
  519MOL0     O71485   8.975   1.469   2.144 -0.7305 -0.8805 -0.0836
  519MOL0     C71486   8.933   1.584   2.111  0.5728  0.3089 -1.5992
  519MOL0     O71487   8.988   1.658   2.017 -0.3668  0.5681 -0.3547
  519MOL0     C71488   9.084   1.602   1.941 -0.5013 -0.1713 -0.0480
  519MOL0     C71489   9.053   1.540   1.826 -0.2110 -0.9487  0.3281
  519MOL0     C71490   9.151   1.485   1.743 -0.1204 -0.2684  0.1203
  519MOL0     C71491   9.292   1.521   1.772  0.2336 -1.3086 -0.9419
  519MOL0     O71492   9.393   1.492   1.685 -0.7155 -0.0745  0.5036
  519MOL0     C71493   9.374   1.418   1.559  0.1708 -0.0312  0.0852
  519MOL0     C71494   9.514   1.387   1.493 -0.3952 -1.5595 -1.0312
  519MOL0     C71495   9.591   1.273   1.565  0.2547  0.1838 -0.5727
  519MOL0     C71496   9.727   1.240   1.493 -0.4710 -0.1835 -0.1850
  519MOL0     C71497   9.828   1.143   1.573 -0.7266 -0.4873  0.6012
  519MOL0     C71498   9.821   0.991   1.544  0.4610  0.0718 -0.0355
  519MOL0     C71499   9.709   0.926   1.641  0.5893 -0.8208  0.7193
  519MOL0     C71500   9.698   0.772   1.635 -0.5386  0.4054  0.3627
  519MOL0     N71501   9.791   0.695   1.711 -0.9584  0.3297  0.2506
  519MOL0     C71502   9.921   0.724   1.738 -0.0457 -0.5229  0.2450
  519MOL0     C71503   9.958   0.640   1.835 -0.2393  0.1549  0.2319
  519MOL0     C71504  10.099   0.625   1.898  0.5446  0.1053 -0.0105
  519MOL0     C71505  10.150   0.772   1.920  0.5897  0.7341  1.1368
  519MOL0     C71506  10.296   0.781   1.991  0.8725  0.5799 -0.3077
  519MOL0     C71507  10.374   0.903   1.957  0.6263 -0.4087 -0.7909
  519MOL0     O71508  10.289   1.010   2.013 -0.4026 -0.1803  1.4832
  519MOL0     C71509  10.340   1.140   2.009 -0.2870 -0.2041 -0.8305
  519MOL0     C71510  10.298   1.223   2.122 -0.4011 -0.6104  0.5998
  519MOL0     C71511  10.350   1.349   2.142  0.3526  0.4563  1.0584
  519MOL0     C71512  10.298   1.420   2.268  0.1130  0.5159  0.5706
  519MOL0     C71513  10.454   1.397   2.052  1.2014 -0.9305  0.9018
  519MOL0     C71514  10.502   1.535   2.066 -0.7029  0.2407 -0.2003
  519MOL0     O71515  10.447   1.625   2.146 -0.8483 -0.5098  0.4101
  519MOL0     C71516  10.534   1.718   2.206 -0.7079 -0.0748 -0.3027
  519MOL0     C71517  10.609   1.809   2.138 -0.4024 -0.0208 -0.0933
  519MOL0     C71518  10.683   1.910   2.199 -0.3313 -0.2453  0.0161
  519MOL0     C71519  10.676   1.924   2.343 -0.7024 -0.0145  0.3011
  519MOL0     O71520  10.746   2.011   2.416 -0.4927  0.7605  0.3908
  519MOL0     C71521  10.843   2.086   2.344 -0.1589  0.7698 -0.2459
  519MOL0     C71522  10.926   2.165   2.446 -0.3522  0.1484 -0.8813
  519MOL0     C71523  10.839   2.259   2.537 -0.2637 -0.5069 -0.3871
  519MOL0     C71524  10.929   2.345   2.625  0.1058 -0.1003  0.1003
  519MOL0     C71525  10.864   2.461   2.703  0.3982 -0.1145  0.6192
  519MOL0     C71526  10.979   2.541   2.775  0.6397  0.6939  0.2486
  519MOL0     C71527  10.926   2.635   2.884 -0.3852  0.0157 -0.3937
  519MOL0     C71528  10.904   2.563   3.023 -0.4551  0.5443 -0.2338
  519MOL0    Cl71529  11.066   2.517   3.086 -0.0668 -0.0663 -0.0829
  519MOL0     C71530  10.611   1.818   2.417  0.4989 -0.2067  0.1988
  519MOL0     C71531  10.545   1.714   2.353  0.1715 -0.8773 -0.2752
  519MOL0     O71532  10.615   1.543   2.021 -0.1906  0.7050 -0.5016
  519MOL0     C71533  10.478   1.315   1.937 -0.6504  0.0946 -0.1941
  519MOL0     C71534  10.427   1.193   1.918 -0.1668  0.8083  0.6486
  519MOL0     N71535   9.856   0.547   1.841  0.5469  0.2258  0.1021
  519MOL0     N71536   9.753   0.575   1.772 -0.5085 -0.9501  0.2254
  519MOL0     C71537   9.317   1.592   1.896  0.7001  1.2539 -0.6904
  519MOL0     C71538   9.213   1.610   1.983  0.2669 -0.2135  0.3100
  519MOL0     C71539   8.827   1.640   2.201 -1.4082 -0.1821 -0.4594
  519MOL0     C71540   8.787   1.772   2.163 -1.1174 -0.5991  0.1542
  519MOL0     C71541   8.691   1.843   2.240  1.0455  0.5117  0.7336
  519MOL0     C71542   8.617   1.774   2.340 -1.2539  1.3343 -0.7495
  519MOL0     O71543   8.528   1.848   2.407 -0.0920  0.2778 -0.3538
  519MOL0     C71544   8.435   1.791   2.513  0.8258 -0.0953 -0.2968
  519MOL0     C71545   8.291   1.804   2.458 -0.3950 -0.2815  0.8855
  519MOL0     C71546   8.189   1.860   2.562  0.7691  0.7179  0.7490
  519MOL0     C71547   8.178   1.759   2.680 -0.4686  0.7596 -0.5600
  519MOL0     C71548   8.132   1.630   2.625  0.3514 -0.2021 -0.0899
  519MOL0     C71549   8.109   1.516   2.595 -0.8814  0.1921  0.0694
  519MOL0     C71550   8.656   1.633   2.369  0.3449 -0.0489  0.1684
  519MOL0     C71551   8.755   1.569   2.303  0.0156 -0.1616  0.2524
  519MOL0     C71552   8.767   1.417   2.305  0.4184 -0.3713 -0.0236
  519MOL0     H71553   8.954   1.532   1.782  0.7495  1.1986 -2.5971
  519MOL0     H71554   9.128   1.434   1.650 -0.4726 -1.9616  1.0887
  519MOL0     H71555   9.321   1.481   1.485  2.1049  0.8513 -0.6118
  519MOL0     H71556   9.327   1.322   1.580 -2.3187  1.5506  2.4553
  519MOL0     H71557   9.496   1.367   1.387 -2.2413 -1.4931 -0.7668
  519MOL0     H71558   9.574   1.478   1.505  0.7519 -1.9674 -3.2594
  519MOL0     H71559   9.612   1.314   1.664 -1.8442  3.1363 -1.2148
  519MOL0     H71560   9.527   1.187   1.583 -0.1265  0.8123  1.2627
  519MOL0     H71561   9.715   1.199   1.392 -0.0195 -1.2789  0.1858
  519MOL0     H71562   9.767   1.341   1.486  0.6838 -0.5995  0.3173
  519MOL0     H71563   9.823   1.163   1.681  0.4715  2.8795  0.1449
  519MOL0     H71564   9.922   1.177   1.530 -0.7564  0.9378  1.5633
  519MOL0     H71565   9.799   0.981   1.437 -1.2357  4.9038 -0.4294
  519MOL0     H71566   9.917   0.955   1.580 -0.7062  1.2332  5.1749
  519MOL0     H71567   9.622   0.978   1.601  2.2733  1.1552 -0.5644
  519MOL0     H71568   9.726   0.966   1.741 -0.4150 -3.2369  1.9528
  519MOL0     H71569   9.593   0.744   1.649 -0.3495 -0.1606  0.6880
  519MOL0     H71570   9.722   0.743   1.532  1.1928 -1.0847  1.1329
  519MOL0     H71571   9.980   0.806   1.698 -0.0317  0.2345  1.7847
  519MOL0     H71572  10.167   0.558   1.846  1.4637 -0.9890  2.4551
  519MOL0     H71573  10.090   0.583   1.999  1.3833  1.5571  0.7225
  519MOL0     H71574  10.159   0.826   1.825  2.0218  2.2574  2.0844
  519MOL0     H71575  10.076   0.823   1.983  0.3043  2.3389 -0.4149
  519MOL0     H71576  10.279   0.756   2.096  1.0811 -1.9031 -0.7910
  519MOL0     H71577  10.355   0.699   1.949 -1.5649 -0.8809 -1.0894
  519MOL0     H71578  10.473   0.900   2.004 -0.4125  0.8211  1.6682
  519MOL0     H71579  10.385   0.923   1.850  0.0478 -2.2352 -1.2245
  519MOL0     H71580  10.219   1.197   2.192  0.4452  1.5897  2.4880
  519MOL0     H71581  10.232   1.357   2.329 -0.2664  0.2685 -0.0839
  519MOL0     H71582  10.251   1.516   2.244  1.6424  1.0883 -0.2567
  519MOL0     H71583  10.396   1.434   2.314  0.2672 -0.8265  0.6914
  519MOL0     H71584  10.606   1.820   2.030  0.3241 -0.5325 -0.1687
  519MOL0     H71585  10.752   1.974   2.144 -2.3208  0.8993 -1.2951
  519MOL0     H71586  10.907   2.024   2.282  1.1666  2.3546 -0.5368
  519MOL0     H71587  10.785   2.155   2.281 -1.8914 -0.7186 -0.3745
  519MOL0     H71588  10.976   2.090   2.508  0.5212  4.2918  4.0458
  519MOL0     H71589  10.987   2.235   2.388  2.5901 -1.6541 -0.1715
  519MOL0     H71590  10.769   2.196   2.591 -1.8237 -0.9739 -2.7866
  519MOL0     H71591  10.775   2.327   2.479 -1.4017 -1.0802  0.1667
  519MOL0     H71592  11.004   2.387   2.557 -0.7308  1.9052  0.3404
  519MOL0     H71593  10.985   2.284   2.697  1.9291  1.2767 -0.0837
  519MOL0     H71594  10.809   2.527   2.635  1.7153 -0.0878 -0.4480
  519MOL0     H71595  10.802   2.421   2.784  3.4146  0.2837  3.3342
  519MOL0     H71596  11.042   2.578   2.694 -1.5714  0.7832 -1.5335
  519MOL0     H71597  11.050   2.479   2.831 -0.0308  1.9155  2.6042
  519MOL0     H71598  10.825   2.667   2.857 -0.2498 -0.0955 -1.0589
  519MOL0     H71599  10.995   2.720   2.891  0.0793 -0.5017  2.2640
  519MOL0     H71600  10.840   2.475   3.014  1.7860 -1.3122  1.1053
  519MOL0     H71601  10.867   2.631   3.101  2.5905  1.1537  0.8098
  519MOL0     H71602  10.593   1.832   2.523 -1.3745 -0.8012 -0.0039
  519MOL0     H71603  10.491   1.640   2.412  0.4403  0.9643  2.4410
  519MOL0     H71604  10.546   1.362   1.867 -1.7858  1.7870 -0.2163
  519MOL0     H71605  10.451   1.125   1.836 -2.8101 -1.1497  1.3630
  519MOL0     H71606   9.418   1.620   1.927  0.6698 -1.8730  2.9232
  519MOL0     H71607   9.217   1.658   2.080  0.5602  1.5854 -0.5353
  519MOL0     H71608   8.853   1.823   2.094  0.2471  1.8275  3.0004
  519MOL0     H71609   8.663   1.945   2.212  1.5470  0.5370  0.2948
  519MOL0     H71610   8.451   1.686   2.542 -1.3682 -0.8589 -1.5758
  519MOL0     H71611   8.439   1.851   2.604  1.2900 -1.8796  0.9083
  519MOL0     H71612   8.259   1.705   2.425 -1.2325 -0.8724  3.2697
  519MOL0     H71613   8.302   1.864   2.367  3.3601 -0.8419  0.7841
  519MOL0     H71614   8.231   1.957   2.589  2.0874  0.4458 -0.1846
  519MOL0     H71615   8.096   1.878   2.509  2.0918 -0.6501 -2.2950
  519MOL0     H71616   8.119   1.789   2.767 -0.3787 -0.1832 -0.1689
  519MOL0     H71617   8.277   1.733   2.717  0.1824 -2.4127 -3.9342
  519MOL0     H71618   8.086   1.417   2.563  2.1387 -0.9104  0.9878
  519MOL0     H71619   8.605   1.564   2.437  3.2664 -2.4042  0.1623
  519MOL0     H71620   8.866   1.388   2.339 -0.5334 -3.3941  0.4715
  519MOL0     H71621   8.701   1.374   2.380  1.0096 -0.9198  0.1850
  519MOL0     H71622   8.737   1.390   2.203  1.2270  1.9183 -0.9392
  520MOL0     O71623   5.686  11.398   5.289  0.7609 -0.3761 -0.9404
  520MOL0     C71624   5.695  11.440   5.171  0.3488 -0.0076 -0.3918
  520MOL0     O71625   5.805  11.485   5.113  0.3105 -0.1324  0.5345
  520MOL0     C71626   5.926  11.505   5.188 -0.0356 -0.9209 -0.6289
  520MOL0     C71627   5.931  11.588   5.305  0.6007 -0.2091  0.1948
  520MOL0     C71628   6.052  11.597   5.378 -0.0076 -1.2008  0.1925
  520MOL0     C71629   6.155  11.508   5.349 -0.2278  0.5165 -0.0436
  520MOL0     O71630   6.268  11.503   5.422 -0.4432 -0.3034 -1.0905
  520MOL0     C71631   6.294  11.608   5.518  0.9226  0.0378  0.4500
  520MOL0     C71632   6.427  11.607   5.587  0.0075 -1.2697 -0.2422
  520MOL0     C71633   6.438  11.485   5.688 -0.2351 -0.1395 -0.4206
  520MOL0     C71634   6.578  11.478   5.763  0.5744  0.8492  0.1862
  520MOL0     C71635   6.585  11.370   5.869 -0.5305  1.1499 -0.8665
  520MOL0     C71636   6.572  11.215   5.831  0.6323  0.3929 -0.5603
  520MOL0     C71637   6.670  11.144   5.924 -1.0062  0.0820  0.2070
  520MOL0     C71638   6.814  11.134   5.859  0.4679  0.4036  0.3524
  520MOL0     N71639   6.917  11.062   5.928  0.6049 -0.3365  0.1606
  520MOL0     C71640   6.915  10.924   5.944 -0.3554 -0.9343 -0.8934
  520MOL0     C71641   7.027  10.907   6.013  0.2510  0.3174  0.0917
  520MOL0     C71642   7.052  10.772   6.069 -0.5962  0.6495  0.8191
  520MOL0     C71643   6.952  10.721   6.179  0.3776  0.5164  0.9915
  520MOL0     C71644   6.954  10.798   6.310  0.3264  0.5307  1.1110
  520MOL0     C71645   7.085  10.842   6.366 -1.0061  1.2830 -0.1449
  520MOL0     O71646   7.170  10.732   6.410  0.3029  0.7279 -0.1031
  520MOL0     C71647   7.263  10.739   6.519 -0.1183 -0.2079  0.3113
  520MOL0     C71648   7.292  10.632   6.609 -0.1703  0.1608  0.1982
  520MOL0     C71649   7.354  10.666   6.728  0.1299  0.5681 -0.1501
  520MOL0     C71650   7.379  10.557   6.824  0.6849  0.4283  1.2160
  520MOL0     C71651   7.415  10.794   6.743 -0.6184  0.0821 -0.1532
  520MOL0     C71652   7.496  10.836   6.867 -0.2486 -0.2041 -0.3877
  520MOL0     O71653   7.528  10.967   6.875 -0.1047  0.6749 -0.0728
  520MOL0     C71654   7.591  11.009   6.987 -0.5584 -0.8471 -0.5217
  520MOL0     C71655   7.725  11.021   6.990  1.0724 -0.3901 -0.6175
  520MOL0     C71656   7.792  11.058   7.107 -1.0848 -0.2747  0.8579
  520MOL0     C71657   7.725  11.078   7.229  0.2106  0.1331 -0.5816
  520MOL0     O71658   7.791  11.109   7.341 -0.5643  0.2559 -0.1540
  520MOL0     C71659   7.729  11.128   7.471 -0.0772  0.3647  0.0349
  520MOL0     C71660   7.821  11.185   7.588  0.3195 -0.0350  0.1004
  520MOL0     C71661   7.936  11.089   7.635 -0.8814  0.7088 -0.7262
  520MOL0     C71662   7.986  10.983   7.543 -0.4950 -0.6762 -0.3372
  520MOL0     C71663   8.109  10.921   7.601 -0.7207 -0.0865 -0.7216
  520MOL0     C71664   8.140  10.791   7.533  0.0358 -0.6033 -0.5213
  520MOL0     C71665   8.264  10.722   7.600  0.1032  0.1363  0.8423
  520MOL0     C71666   8.353  10.622   7.520 -0.1819 -0.3843 -0.2681
  520MOL0    Cl71667   8.420  10.699   7.375  0.4216  0.1051 -0.2269
  520MOL0     C71668   7.592  11.062   7.224 -0.0364 -0.2147  0.6121
  520MOL0     C71669   7.521  11.034   7.105  0.1999 -0.3118 -0.9609
  520MOL0     O71670   7.532  10.753   6.950  0.5512  0.3869 -0.1170
  520MOL0     C71671   7.399  10.887   6.648  0.8120 -0.6966  0.2380
  520MOL0     C71672   7.317  10.865   6.540 -0.6880  0.1497 -0.0267
  520MOL0     N71673   7.094  11.019   6.042 -0.2942  0.7422  0.1734
  520MOL0     N71674   7.030  11.111   5.988  0.2389 -0.7019  0.0594
  520MOL0     C71675   6.143  11.423   5.233  0.8176  0.3459 -0.9222
  520MOL0     C71676   6.029  11.428   5.164 -0.6542  0.9403  0.2240
  520MOL0     C71677   5.569  11.430   5.092 -0.4550  1.1575 -0.3312
  520MOL0     C71678   5.538  11.546   5.020 -0.5082  1.0302 -0.2947
  520MOL0     C71679   5.422  11.552   4.949 -0.7110  0.1768  0.0452
  520MOL0     C71680   5.340  11.436   4.921  0.9037 -0.9271  0.3691
  520MOL0     O71681   5.240  11.459   4.830 -0.1735  0.1379  0.2178
  520MOL0     C71682   5.131  11.371   4.814  0.7845  1.3438 -0.3555
  520MOL0     C71683   5.121  11.311   4.659 -0.7385 -0.1764 -0.9081
  520MOL0     C71684   4.977  11.291   4.611 -0.2583 -1.1740 -0.3233
  520MOL0     C71685   4.986  11.236   4.471 -0.0099  0.1547 -0.7165
  520MOL0     C71686   4.861  11.173   4.438 -0.4420 -0.1042 -0.2985
  520MOL0     C71687   4.761  11.132   4.395 -0.1860  0.8089  0.3003
  520MOL0     C71688   5.374  11.320   4.986 -0.4412  0.9614 -0.5762
  520MOL0     C71689   5.484  11.319   5.076  1.2108 -0.5158  0.8718
  520MOL0     C71690   5.512  11.192   5.147  0.6179  0.6338  0.6810
  520MOL0     H71691   5.851  11.660   5.319  2.3590  2.0228 -0.6514
  520MOL0     H71692   6.068  11.680   5.447  0.8057 -0.3019 -1.0414
  520MOL0     H71693   6.208  11.607   5.586  1.0370  1.8869  0.6674
  520MOL0     H71694   6.295  11.701   5.461  2.6541 -0.6188 -0.6942
  520MOL0     H71695   6.503  11.603   5.508 -0.7226  0.4924 -1.0780
  520MOL0     H71696   6.439  11.698   5.646  0.3576  1.6491 -4.4594
  520MOL0     H71697   6.357  11.494   5.761  0.8626  0.3173  0.7873
  520MOL0     H71698   6.430  11.397   5.624 -2.0037  0.2565 -0.7983
  520MOL0     H71699   6.649  11.459   5.682  1.3452 -0.5196  1.1229
  520MOL0     H71700   6.608  11.577   5.800 -1.8111  2.6828 -2.3927
  520MOL0     H71701   6.513  11.401   5.945  1.8876  2.5272  1.0528
  520MOL0     H71702   6.682  11.382   5.919 -1.0043 -0.6591  0.5825
  520MOL0     H71703   6.471  11.174   5.843  1.1493 -0.3387  1.5232
  520MOL0     H71704   6.590  11.205   5.723  0.0341  1.2069 -0.7502
  520MOL0     H71705   6.634  11.041   5.936  0.7949 -0.5515  0.4353
  520MOL0     H71706   6.676  11.187   6.024 -0.6892  3.3586 -1.1153
  520MOL0     H71707   6.804  11.078   5.766 -3.3722  1.9922 -0.4106
  520MOL0     H71708   6.845  11.230   5.818 -3.1919  1.5820 -0.0981
  520MOL0     H71709   6.855  10.846   5.899 -0.5249 -1.1674 -0.2617
  520MOL0     H71710   7.153  10.756   6.107  0.0067  1.5180 -0.3359
  520MOL0     H71711   7.045  10.717   5.974  0.7237  1.2450  0.3598
  520MOL0     H71712   6.852  10.734   6.137 -0.0002 -0.0510  1.7026
  520MOL0     H71713   6.947  10.616   6.206  0.2829  0.6663  1.5703
  520MOL0     H71714   6.910  10.896   6.289 -0.1757  0.5328  2.1256
  520MOL0     H71715   6.898  10.755   6.393 -1.9306  2.0152  0.4592
  520MOL0     H71716   7.140  10.915   6.306  0.9156  2.0092  2.3024
  520MOL0     H71717   7.054  10.908   6.448 -0.0342  3.2886 -1.3024
  520MOL0     H71718   7.262  10.529   6.595  0.8008 -0.0170 -0.6941
  520MOL0     H71719   7.304  10.482   6.799  1.2549  0.6619 -1.5250
  520MOL0     H71720   7.357  10.585   6.927 -1.5633  1.0492  0.6231
  520MOL0     H71721   7.481  10.521   6.806  0.7479  1.0902  0.1399
  520MOL0     H71722   7.787  10.994   6.904  0.5357 -1.6004 -0.6471
  520MOL0     H71723   7.900  11.066   7.114 -1.0497  0.9752 -0.4768
  520MOL0     H71724   7.656  11.209   7.457  2.0005  2.0781 -1.5732
  520MOL0     H71725   7.687  11.031   7.498 -1.2482  1.0227  0.6704
  520MOL0     H71726   7.851  11.282   7.546  0.2027 -0.2584 -0.5037
  520MOL0     H71727   7.759  11.209   7.675  0.3551  2.1333 -0.4090
  520MOL0     H71728   7.892  11.034   7.719 -1.1849  2.7602  0.5217
  520MOL0     H71729   8.011  11.155   7.679 -0.4047  1.1641 -2.1602
  520MOL0     H71730   8.012  11.024   7.445 -0.1609 -0.9873 -0.3815
  520MOL0     H71731   7.897  10.920   7.535 -0.0998 -1.0824 -1.9115
  520MOL0     H71732   8.198  10.984   7.600  0.3993 -1.6303 -1.4977
  520MOL0     H71733   8.111  10.902   7.708  3.0971 -2.9379 -1.1084
  520MOL0     H71734   8.159  10.815   7.428 -1.4779  0.4685 -0.5726
  520MOL0     H71735   8.055  10.722   7.534 -0.2136 -0.3274 -1.4632
  520MOL0     H71736   8.227  10.679   7.694 -0.4065 -2.7020 -0.5595
  520MOL0     H71737   8.337  10.797   7.632  4.8316 -2.9326 -1.5499
  520MOL0     H71738   8.295  10.533   7.494 -2.8556  0.3143  2.6603
  520MOL0     H71739   8.448  10.601   7.570  1.5297  0.4602 -2.9788
  520MOL0     H71740   7.521  11.065   7.306 -2.3831 -0.5664 -1.2932
  520MOL0     H71741   7.415  11.010   7.106  0.0125  0.4773  0.1498
  520MOL0     H71742   7.425  10.991   6.659 -0.7503  0.0321 -2.2558
  520MOL0     H71743   7.294  10.941   6.466 -0.5473 -2.6268 -3.1549
  520MOL0     H71744   6.224  11.353   5.217  0.6084  0.0871 -0.8686
  520MOL0     H71745   6.015  11.354   5.085 -0.8280 -0.9539  1.9497
  520MOL0     H71746   5.594  11.637   5.039  0.8409 -0.4116  3.7228
  520MOL0     H71747   5.405  11.644   4.894  2.5773  0.0889 -1.3680
  520MOL0     H71748   5.139  11.285   4.881 -1.0291 -0.1914 -1.9866
  520MOL0     H71749   5.042  11.418   4.856  0.1813 -1.0338  1.2639
  520MOL0     H71750   5.165  11.212   4.672  1.8220  0.6576 -2.3927
  520MOL0     H71751   5.180  11.374   4.592 -3.7151  2.2698 -1.4848
  520MOL0     H71752   4.940  11.209   4.673 -1.4992 -0.6772 -0.3753
  520MOL0     H71753   4.926  11.388   4.614  4.4695  1.6245  0.9076
  520MOL0     H71754   5.074  11.173   4.455  0.3615  0.2255  0.8019
  520MOL0     H71755   5.003  11.306   4.389  0.2254  0.4016 -0.4611
  520MOL0     H71756   4.668  11.095   4.357  0.9546 -0.4775 -1.3789
  520MOL0     H71757   5.319  11.227   4.974  0.0421  0.9006 -2.7426
  520MOL0     H71758   5.601  11.148   5.101  1.7476  0.9815  2.4440
  520MOL0     H71759   5.514  11.226   5.251  0.7676  1.3565  0.4508
  520MOL0     H71760   5.431  11.121   5.128  0.5859  1.5798 -4.0535
  521MOL0     O71761   5.464   1.720  10.292 -1.0849  0.7495  0.5287
  521MOL0     C71762   5.392   1.623  10.256 -0.0179 -0.3274  0.3010
  521MOL0     O71763   5.292   1.565  10.331 -1.2136  0.8478  0.3623
  521MOL0     C71764   5.269   1.615  10.459  0.1082 -0.0459  0.2570
  521MOL0     C71765   5.138   1.622  10.488  0.2663  0.4406  0.7218
  521MOL0     C71766   5.103   1.661  10.611 -0.0420  0.0721 -0.2939
  521MOL0     C71767   5.198   1.658  10.726  0.3310  0.8540 -0.7185
  521MOL0     O71768   5.153   1.694  10.846  0.0094  0.0570 -0.6011
  521MOL0     C71769   5.160   1.597  10.961 -0.6599 -0.3541  0.2968
  521MOL0     C71770   5.082   1.649  11.085  0.5346  0.2217 -0.5602
  521MOL0     C71771   5.105   1.577  11.223  0.6350  0.2446  0.1977
  521MOL0     C71772   5.162   1.428  11.200  0.2328  0.5030 -0.0863
  521MOL0     C71773   5.202   1.342  11.324 -0.5953 -0.6214  0.0185
  521MOL0     C71774   5.072   1.282  11.379 -0.2060  0.7105  0.3523
  521MOL0     C71775   5.103   1.210  11.526  0.2934  1.1170 -0.0709
  521MOL0     C71776   4.994   1.243  11.623  0.2887  0.4142 -0.7756
  521MOL0     N71777   4.972   1.149  11.735  0.2879 -0.1551  0.7755
  521MOL0     C71778   5.062   1.111  11.832 -0.5087 -1.2048 -0.0016
  521MOL0     C71779   4.982   1.077  11.937 -0.6483  0.2756  0.7301
  521MOL0     C71780   5.026   1.058  12.079  0.4270 -0.1243  0.5119
  521MOL0     C71781   4.947   1.155  12.175  0.1027 -0.5236  0.5269
  521MOL0     C71782   4.990   1.131  12.327  0.2890 -0.4122  0.2128
  521MOL0     C71783   5.146   1.140  12.352  0.6184  0.4443 -0.9688
  521MOL0     O71784   5.203   1.253  12.299  0.2641  0.6150 -0.0626
  521MOL0     C71785   5.338   1.263  12.325 -0.0887  0.3368  0.1461
  521MOL0     C71786   5.401   1.384  12.286  0.3162 -0.3406 -0.4406
  521MOL0     C71787   5.534   1.420  12.339  0.2126  0.5980 -0.4392
  521MOL0     C71788   5.591   1.548  12.282 -0.2103 -0.0207  0.5011
  521MOL0     C71789   5.601   1.334  12.435 -0.2846  0.3020 -0.0628
  521MOL0     C71790   5.728   1.368  12.513  0.8183  0.6709  0.2497
  521MOL0     O71791   5.756   1.287  12.625 -1.1010 -0.4970 -0.4563
  521MOL0     C71792   5.864   1.332  12.688 -0.0400  0.2483  0.4175
  521MOL0     C71793   5.971   1.244  12.697  1.1391  0.4796 -0.4932
  521MOL0     C71794   6.077   1.281  12.770 -0.6909  0.4311  0.4041
  521MOL0     C71795   6.097   1.413  12.821  0.1144 -0.6141  0.6157
  521MOL0     O71796   6.204   1.466  12.884  0.2455 -0.1460 -0.4784
  521MOL0     C71797   6.326   1.406  12.863  0.5979 -1.0333 -0.1958
  521MOL0     C71798   6.451   1.495  12.904  0.0357 -0.1602  0.3976
  521MOL0     C71799   6.418   1.547  13.054 -0.6409 -0.7606  0.6056
  521MOL0     C71800   6.518   1.651  13.101  0.8787 -0.2292  0.2745
  521MOL0     C71801   6.520   1.670  13.262  0.4085  0.2003  0.7155
  521MOL0     C71802   6.592   1.566  13.339  0.4106  0.3692 -0.2979
  521MOL0     C71803   6.730   1.539  13.298  1.1612  0.7350 -0.1202
  521MOL0     C71804   6.790   1.467  13.418 -0.3897 -0.3749 -0.3513
  521MOL0    Cl71805   6.708   1.316  13.463  0.2797 -0.4428  0.2078
  521MOL0     C71806   5.985   1.495  12.823 -0.0028  0.2325 -0.2883
  521MOL0     C71807   5.865   1.454  12.768 -0.3861  0.0023 -0.4271
  521MOL0     O71808   5.798   1.458  12.465  0.0230 -0.0343  0.1663
  521MOL0     C71809   5.535   1.214  12.462 -0.6245 -0.3781 -0.0923
  521MOL0     C71810   5.412   1.172  12.411 -0.1871 -0.1635  0.0622
  521MOL0     N71811   4.850   1.096  11.904  0.3342 -0.6502  0.0892
  521MOL0     N71812   4.843   1.145  11.787 -0.9468  0.0599  0.7111
  521MOL0     C71813   5.330   1.652  10.693 -0.6216  0.3146  0.8632
  521MOL0     C71814   5.369   1.626  10.558  0.8014  0.2061 -0.4810
  521MOL0     C71815   5.424   1.565  10.123  1.3463  0.1822 -0.7491
  521MOL0     C71816   5.345   1.449  10.089  0.2873 -0.6228  0.4493
  521MOL0     C71817   5.349   1.391   9.963 -0.3257  0.4134 -0.2454
  521MOL0     C71818   5.445   1.430   9.865  0.6455 -0.2651 -0.4145
  521MOL0     O71819   5.435   1.378   9.743 -0.6142  0.0565  0.3809
  521MOL0     C71820   5.532   1.410   9.646  0.0010  0.4359  0.8744
  521MOL0     C71821   5.496   1.361   9.510  0.2094 -0.8421  0.1293
  521MOL0     C71822   5.459   1.215   9.503  0.7867  0.2501 -0.4701
  521MOL0     C71823   5.423   1.161   9.361  0.4993  0.5490  0.3991
  521MOL0     C71824   5.531   1.180   9.263 -0.0897  0.4995 -0.9110
  521MOL0     C71825   5.618   1.178   9.181 -0.7047  0.2412  0.2280
  521MOL0     C71826   5.522   1.543   9.897 -0.1360 -0.5495 -0.3009
  521MOL0     C71827   5.511   1.608  10.021 -0.5249 -0.0875 -0.1738
  521MOL0     C71828   5.601   1.721  10.041  0.0696  0.2130 -0.9052
  521MOL0     H71829   5.050   1.595  10.431 -1.0722 -0.3384  3.0497
  521MOL0     H71830   4.998   1.680  10.633 -0.1462 -1.7602  1.0349
  521MOL0     H71831   5.267   1.610  10.979 -0.2210  2.1056 -3.1570
  521MOL0     H71832   5.142   1.496  10.924 -0.3599 -0.7858  1.2861
  521MOL0     H71833   5.098   1.755  11.104 -0.1351  0.0324  1.3075
  521MOL0     H71834   4.985   1.614  11.048  2.0189 -4.2277 -0.9089
  521MOL0     H71835   5.179   1.618  11.292  1.8851 -1.7248  0.1130
  521MOL0     H71836   5.008   1.563  11.271  0.2810 -2.1928 -1.0655
  521MOL0     H71837   5.094   1.386  11.125 -0.3869 -0.7280  1.1099
  521MOL0     H71838   5.254   1.430  11.142  0.8626 -1.5899  0.7345
  521MOL0     H71839   5.253   1.404  11.398  0.2241  2.1788 -2.6733
  521MOL0     H71840   5.272   1.267  11.286  2.4596  1.3276  1.3822
  521MOL0     H71841   4.989   1.354  11.386 -0.2127  0.6201  1.3122
  521MOL0     H71842   5.054   1.202  11.306 -0.5915  1.8435 -0.8453
  521MOL0     H71843   5.185   1.260  11.579  1.8117  0.4749 -1.7139
  521MOL0     H71844   5.133   1.106  11.511  1.8834  1.5159  0.1032
  521MOL0     H71845   4.989   1.345  11.663 -0.6528 -0.6390  2.0261
  521MOL0     H71846   4.904   1.227  11.562  0.4399  0.1401 -0.9306
  521MOL0     H71847   5.169   1.124  11.832 -0.2004 -3.1910  1.9942
  521MOL0     H71848   5.134   1.076  12.080  0.9716 -2.9819  0.8457
  521MOL0     H71849   5.009   0.957  12.118  0.3736 -0.2663  0.1246
  521MOL0     H71850   4.971   1.252  12.131 -0.7830 -1.2821 -1.7952
  521MOL0     H71851   4.838   1.146  12.168  0.1001  0.7226 -2.9368
  521MOL0     H71852   4.948   1.210  12.390  1.2863  0.2004  0.1214
  521MOL0     H71853   4.934   1.042  12.357 -2.5190  1.1721  0.0353
  521MOL0     H71854   5.142   1.130  12.461 -3.1731 -2.1789 -1.1145
  521MOL0     H71855   5.199   1.054  12.311 -0.8422  0.2907 -2.6591
  521MOL0     H71856   5.331   1.434  12.221  0.7037 -2.3800 -2.5634
  521MOL0     H71857   5.582   1.625  12.359  2.5570 -1.4885  2.4798
  521MOL0     H71858   5.539   1.577  12.190  0.3461  1.3569  0.5992
  521MOL0     H71859   5.697   1.540  12.257 -0.8257  2.3081 -3.9190
  521MOL0     H71860   5.955   1.150  12.646  2.5821 -1.0343  1.6586
  521MOL0     H71861   6.163   1.215  12.776  1.4776  3.1008  0.8841
  521MOL0     H71862   6.336   1.320  12.930  0.5489  1.1339  2.8154
  521MOL0     H71863   6.335   1.377  12.758 -2.6325 -1.8501 -0.3587
  521MOL0     H71864   6.543   1.439  12.887  0.0773  0.3790 -1.4395
  521MOL0     H71865   6.451   1.585  12.841 -0.9698 -2.0980 -2.5575
  521MOL0     H71866   6.419   1.467  13.128  1.0693 -2.2268 -0.9203
  521MOL0     H71867   6.319   1.594  13.067 -1.1363 -2.0820  1.9522
  521MOL0     H71868   6.493   1.743  13.048  1.6673  0.0695  0.4157
  521MOL0     H71869   6.605   1.606  13.053 -1.0615 -2.9370 -0.9822
  521MOL0     H71870   6.563   1.769  13.279  2.6769 -0.7073  0.4934
  521MOL0     H71871   6.419   1.671  13.305 -1.0752 -2.0439 -2.3515
  521MOL0     H71872   6.530   1.476  13.327 -0.6143  0.6554  2.1471
  521MOL0     H71873   6.579   1.593  13.444  1.2903 -1.0481  0.1905
  521MOL0     H71874   6.781   1.625  13.253 -4.1276  2.7411 -3.1418
  521MOL0     H71875   6.739   1.469  13.214  3.7920 -0.8825  1.3509
  521MOL0     H71876   6.786   1.541  13.499 -0.1230 -1.5983  0.8244
  521MOL0     H71877   6.895   1.441  13.398 -0.4098 -2.3090  1.6162
  521MOL0     H71878   5.993   1.596  12.861  3.7862  0.3022 -0.9247
  521MOL0     H71879   5.775   1.514  12.776  1.8414  3.4028  2.2895
  521MOL0     H71880   5.575   1.153  12.542 -0.0037 -1.7554 -1.3953
  521MOL0     H71881   5.377   1.083  12.462 -0.4873  0.8251  1.6505
  521MOL0     H71882   5.398   1.646  10.778  0.4307 -1.9034 -0.0538
  521MOL0     H71883   5.475   1.614  10.536  0.9337 -1.5292  0.9311
  521MOL0     H71884   5.257   1.420  10.146 -0.0039  2.1750  1.5552
  521MOL0     H71885   5.292   1.302   9.937  1.4401 -1.1582  0.9993
  521MOL0     H71886   5.550   1.517   9.639  0.0434  0.3475 -0.9260
  521MOL0     H71887   5.628   1.365   9.671 -0.0431 -1.0084 -1.3121
  521MOL0     H71888   5.575   1.373   9.435 -1.0779  3.0630 -0.8105
  521MOL0     H71889   5.412   1.426   9.485  1.1851 -0.0577 -1.2667
  521MOL0     H71890   5.550   1.163   9.536  1.2559 -0.2800 -2.4648
  521MOL0     H71891   5.374   1.202   9.571  1.7380  2.2507  1.2122
  521MOL0     H71892   5.335   1.216   9.327 -0.7889 -0.3677  2.0997
  521MOL0     H71893   5.387   1.058   9.366 -3.7841  1.8711  0.4257
  521MOL0     H71894   5.708   1.181   9.123  0.4425 -0.0702  1.9126
  521MOL0     H71895   5.588   1.594   9.827  2.4914  0.4061  2.6577
  521MOL0     H71896   5.637   1.727  10.144  4.9931 -0.1525 -2.3494
  521MOL0     H71897   5.689   1.702   9.979 -0.0199 -2.6946 -0.2599
  521MOL0     H71898   5.542   1.810  10.018 -0.4909  0.3270  0.8371
  522MOL0     O71899   7.604  11.293   6.263  0.4251  0.8169 -0.3429
  522MOL0     C71900   7.649  11.263   6.374 -0.5143  0.6516  0.7188
  522MOL0     O71901   7.684  11.345   6.466 -0.2255  0.5832  0.2718
  522MOL0     C71902   7.685  11.481   6.439 -0.4318  0.4518 -0.8825
  522MOL0     C71903   7.564  11.559   6.464 -0.0198 -0.6486  0.7815
  522MOL0     C71904   7.568  11.698   6.460  1.3008  0.7245 -0.0696
  522MOL0     C71905   7.689  11.762   6.426 -0.3044  0.3396 -0.1062
  522MOL0     O71906   7.700  11.897   6.427 -0.4009 -0.6530 -0.6075
  522MOL0     C71907   7.716  11.969   6.306  0.5768  0.0251 -0.0544
  522MOL0     C71908   7.740  12.113   6.330 -0.3353 -0.2399  0.4975
  522MOL0     C71909   7.646  12.180   6.436  0.7526 -0.4889  0.4324
  522MOL0     C71910   7.514  12.224   6.382  0.0719 -0.4298  0.5203
  522MOL0     C71911   7.423  12.283   6.490  0.0764 -0.1376 -0.0123
  522MOL0     C71912   7.288  12.322   6.435  0.1755 -0.3436 -0.4944
  522MOL0     C71913   7.220  12.404   6.553 -0.2931  0.7689 -0.2288
  522MOL0     C71914   7.069  12.420   6.532 -0.9107 -0.1119  0.6696
  522MOL0     N71915   7.025  12.538   6.452 -0.4467  0.1247 -0.0576
  522MOL0     C71916   6.916  12.620   6.482 -0.0122  1.3499  0.7170
  522MOL0     C71917   6.895  12.696   6.374 -0.1509  0.2378  0.3290
  522MOL0     C71918   6.783  12.793   6.351  0.4451  0.6969  0.3882
  522MOL0     C71919   6.648  12.726   6.356  1.1210 -0.7380 -0.2900
  522MOL0     C71920   6.564  12.792   6.467  0.4915  0.4776 -0.7247
  522MOL0     C71921   6.427  12.734   6.469  0.2661 -0.5385 -0.6470
  522MOL0     O71922   6.356  12.744   6.339  0.1942 -0.0397  0.4211
  522MOL0     C71923   6.220  12.708   6.339 -0.8168  0.6412 -0.3123
  522MOL0     C71924   6.153  12.663   6.455 -0.0704 -0.1173  0.3674
  522MOL0     C71925   6.016  12.625   6.458  0.8639  0.2814 -0.8895
  522MOL0     C71926   5.955  12.586   6.600 -0.0445  0.0323  0.8060
  522MOL0     C71927   5.939  12.646   6.342  1.4911 -0.9570 -0.7335
  522MOL0     C71928   5.794  12.617   6.338 -0.7373 -0.2336 -1.1713
  522MOL0     O71929   5.705  12.681   6.418  0.2067  1.1361  0.1698
  522MOL0     C71930   5.572  12.626   6.436 -0.8981 -0.3066  0.7134
  522MOL0     C71931   5.537  12.491   6.432  0.1937 -0.5063 -0.1040
  522MOL0     C71932   5.409  12.445   6.452  0.0681  0.9956 -0.2441
  522MOL0     C71933   5.311  12.538   6.494  0.2403  0.1112  1.0566
  522MOL0     O71934   5.176  12.513   6.513 -0.2180  0.2725  0.0141
  522MOL0     C71935   5.124  12.377   6.512  0.0872  0.6954 -0.7761
  522MOL0     C71936   4.964  12.378   6.518  0.4696 -0.2826 -0.5249
  522MOL0     C71937   4.916  12.397   6.666 -0.3509  0.2100 -0.3657
  522MOL0     C71938   4.762  12.421   6.667  0.2891 -0.1535  1.0081
  522MOL0     C71939   4.711  12.440   6.812 -0.0054 -0.9879 -0.2037
  522MOL0     C71940   4.576  12.374   6.842 -0.0801  0.0666  0.5470
  522MOL0     C71941   4.516  12.422   6.979  0.2988  0.1436 -0.2394
  522MOL0     C71942   4.533  12.306   7.081 -0.7522 -0.3589  0.7165
  522MOL0    Cl71943   4.462  12.342   7.238  0.1849 -0.1624  0.6648
  522MOL0     C71944   5.340  12.668   6.477  0.5515 -0.1255 -0.6118
  522MOL0     C71945   5.466  12.712   6.447 -0.3161  0.7827  0.1683
  522MOL0     O71946   5.765  12.541   6.248 -0.3246 -1.1149  0.4741
  522MOL0     C71947   6.007  12.668   6.220 -0.7581  0.6151  0.3283
  522MOL0     C71948   6.147  12.695   6.217 -0.0121  0.6236  0.0870
  522MOL0     N71949   6.992  12.656   6.279  0.4316 -0.4020  0.1163
  522MOL0     N71950   7.070  12.566   6.330 -0.2120  0.1315  0.4495
  522MOL0     C71951   7.807  11.685   6.396 -0.1567 -0.7369  0.4723
  522MOL0     C71952   7.800  11.549   6.403  0.7263  0.7722  0.0926
  522MOL0     C71953   7.684  11.122   6.410  0.6413  0.7518  0.0691
  522MOL0     C71954   7.801  11.103   6.492 -1.0214 -0.3808 -0.4633
  522MOL0     C71955   7.839  10.972   6.529  0.1192 -0.2943  0.6344
  522MOL0     C71956   7.776  10.857   6.474  0.5992  0.2253  0.8960
  522MOL0     O71957   7.785  10.726   6.504  0.5028  0.1473  0.5314
  522MOL0     C71958   7.902  10.697   6.580  0.2516 -0.1230  0.0313
  522MOL0     C71959   7.898  10.540   6.585 -0.7949 -0.1769  0.6278
  522MOL0     C71960   7.784  10.495   6.685  0.3865  0.1371 -1.1137
  522MOL0     C71961   7.754  10.342   6.703 -0.2022 -0.7927  0.0395
  522MOL0     C71962   7.871  10.279   6.752 -1.1963  0.7285 -0.4474
  522MOL0     C71963   7.968  10.229   6.803 -0.0285  0.0602  0.1822
  522MOL0     C71964   7.668  10.885   6.380 -0.0180 -0.4275  0.0734
  522MOL0     C71965   7.618  11.015   6.351  0.3645  0.7415  0.0440
  522MOL0     C71966   7.490  11.029   6.267  0.2161  0.5050 -0.6373
  522MOL0     H71967   7.471  11.517   6.499 -0.5411  0.6093  0.9634
  522MOL0     H71968   7.480  11.760   6.476  2.0539  1.6609  0.5254
  522MOL0     H71969   7.636  11.944   6.237  2.0991  0.6014 -2.1255
  522MOL0     H71970   7.814  11.937   6.270  0.3947 -1.9511  1.0686
  522MOL0     H71971   7.843  12.112   6.368 -0.2105 -0.4879  0.1576
  522MOL0     H71972   7.751  12.167   6.235  0.3025 -1.3722 -0.0877
  522MOL0     H71973   7.634  12.115   6.523  1.7196  1.6655  2.2887
  522MOL0     H71974   7.694  12.266   6.484 -0.3052 -0.7359  1.9915
  522MOL0     H71975   7.514  12.308   6.312 -0.4680 -2.1564 -1.6462
  522MOL0     H71976   7.474  12.134   6.334 -2.0931  2.1170 -2.9686
  522MOL0     H71977   7.474  12.370   6.533  1.9754 -1.1606 -0.0837
  522MOL0     H71978   7.405  12.204   6.563  2.0794 -0.2450  0.4276
  522MOL0     H71979   7.289  12.385   6.345 -0.8334  1.1166  0.4819
  522MOL0     H71980   7.233  12.230   6.411 -1.6559  0.1863  1.3587
  522MOL0     H71981   7.272  12.500   6.544 -0.2197  1.1289  3.0052
  522MOL0     H71982   7.228  12.364   6.654 -2.4759 -1.0409 -0.7051
  522MOL0     H71983   7.044  12.324   6.487 -0.8692 -0.0513  0.5186
  522MOL0     H71984   7.039  12.422   6.638  2.8577 -0.1112  1.9064
  522MOL0     H71985   6.866  12.613   6.578 -0.7514 -1.9454  0.2200
  522MOL0     H71986   6.810  12.839   6.255 -0.2720  0.8478  0.2519
  522MOL0     H71987   6.780  12.877   6.420  2.2763  1.9726 -0.9644
  522MOL0     H71988   6.599  12.724   6.258  1.2336 -4.7217 -0.4492
  522MOL0     H71989   6.660  12.618   6.372 -0.2421 -0.5045  3.0946
  522MOL0     H71990   6.608  12.763   6.562 -0.0793  1.4717 -0.1315
  522MOL0     H71991   6.565  12.901   6.481 -1.7126  0.7624 -2.1043
  522MOL0     H71992   6.424  12.629   6.498 -0.5752 -0.6884 -1.2438
  522MOL0     H71993   6.380  12.782   6.555 -2.1350  1.0089 -2.6853
  522MOL0     H71994   6.199  12.641   6.551 -1.9331  1.1556  1.6158
  522MOL0     H71995   5.926  12.481   6.591  0.8326 -0.2599  1.2656
  522MOL0     H71996   5.876  12.661   6.615  1.5015  1.7552  0.6334
  522MOL0     H71997   6.033  12.598   6.675  0.9309  1.8216 -0.4090
  522MOL0     H71998   5.612  12.414   6.421  0.8976 -0.0866  1.3995
  522MOL0     H71999   5.389  12.339   6.454 -1.1625  1.1765 -1.6623
  522MOL0     H72000   5.158  12.323   6.422  1.4645 -0.1925  0.2312
  522MOL0     H72001   5.157  12.328   6.604 -3.5013  1.5614  1.1147
  522MOL0     H72002   4.930  12.463   6.457  4.5553  2.5841  0.7149
  522MOL0     H72003   4.920  12.286   6.480  0.0895 -0.0834 -0.5745
  522MOL0     H72004   4.974  12.459   6.735  1.1720 -3.0275  1.5254
  522MOL0     H72005   4.936  12.306   6.724 -0.3586  1.8715  2.4392
  522MOL0     H72006   4.704  12.334   6.635  0.0648  0.1654  0.5423
  522MOL0     H72007   4.740  12.500   6.595 -1.6973 -2.1973 -0.7756
  522MOL0     H72008   4.779  12.386   6.879 -1.5489 -0.0365  2.2566
  522MOL0     H72009   4.713  12.540   6.856 -2.3163 -1.4695  1.2049
  522MOL0     H72010   4.578  12.267   6.819 -2.5560  0.4288 -1.8372
  522MOL0     H72011   4.508  12.424   6.772  0.6866  1.1747  0.5707
  522MOL0     H72012   4.409  12.443   6.965  0.5130  0.1628 -2.0843
  522MOL0     H72013   4.563  12.515   7.013 -0.1047  0.0679  0.5632
  522MOL0     H72014   4.641  12.291   7.089 -0.5626  0.5976  0.1598
  522MOL0     H72015   4.485  12.212   7.051  1.4975 -1.1003 -0.8289
  522MOL0     H72016   5.258  12.734   6.503  3.2260  3.0802  0.3672
  522MOL0     H72017   5.478  12.820   6.437  0.4773  0.9609  2.4973
  522MOL0     H72018   5.964  12.668   6.120  0.3836 -0.6773 -0.1952
  522MOL0     H72019   6.199  12.709   6.122 -1.9168 -1.3160 -1.3442
  522MOL0     H72020   7.905  11.731   6.388 -0.5482  0.4287  1.7797
  522MOL0     H72021   7.897  11.501   6.388 -0.6422 -1.5345 -2.1867
  522MOL0     H72022   7.866  11.182   6.527 -0.9948 -0.2631 -0.7754
  522MOL0     H72023   7.929  10.972   6.591  1.2411  0.6002 -0.9237
  522MOL0     H72024   8.000  10.712   6.534  1.3787  0.5842  2.5041
  522MOL0     H72025   7.901  10.752   6.675  2.6234 -0.4542  0.3003
  522MOL0     H72026   7.994  10.504   6.623  1.3907  1.6590 -2.6169
  522MOL0     H72027   7.877  10.500   6.485 -1.9906 -1.3112  1.2910
  522MOL0     H72028   7.790  10.542   6.784 -3.4141  0.6891 -1.0139
  522MOL0     H72029   7.693  10.539   6.645  0.5151  0.7170 -0.7783
  522MOL0     H72030   7.711  10.294   6.615 -1.3804 -1.9360  1.1743
  522MOL0     H72031   7.680  10.321   6.782  0.2087  0.5771  0.8271
  522MOL0     H72032   8.040  10.179   6.865  1.8783  1.1375 -1.0816
  522MOL0     H72033   7.629  10.800   6.325 -0.0100  1.0975 -2.5060
  522MOL0     H72034   7.428  11.111   6.305 -2.5515 -1.6136 -0.2520
  522MOL0     H72035   7.518  11.064   6.167 -2.0133 -2.3939 -2.4735
  522MOL0     H72036   7.432  10.936   6.264  3.0945 -1.5122  0.8612
  523MOL0     O72037   6.510   3.771  11.562  0.2630  0.0657  0.1056
  523MOL0     C72038   6.407   3.703  11.583 -0.3931 -0.6323  0.8158
  523MOL0     O72039   6.408   3.576  11.588  0.2893  0.0541  0.6626
  523MOL0     C72040   6.517   3.487  11.581  0.1585 -0.7045 -0.4862
  523MOL0     C72041   6.472   3.355  11.564  0.2981 -0.7102  0.3219
  523MOL0     C72042   6.566   3.254  11.535 -0.2542 -0.3608 -0.4139
  523MOL0     C72043   6.700   3.286  11.516 -0.9461 -0.0190  0.9428
  523MOL0     O72044   6.770   3.183  11.468 -0.6905  0.5996 -0.5249
  523MOL0     C72045   6.913   3.203  11.446 -0.3698  0.8058 -0.4981
  523MOL0     C72046   6.972   3.069  11.406  0.1933 -0.0496 -0.4884
  523MOL0     C72047   6.926   3.019  11.262 -0.1046 -0.2921 -0.2673
  523MOL0     C72048   6.989   2.876  11.245  0.4438  0.6890  0.7758
  523MOL0     C72049   6.907   2.789  11.147  0.0841  0.1793  0.4398
  523MOL0     C72050   6.967   2.641  11.145  0.1466 -0.4746 -0.6115
  523MOL0     C72051   6.907   2.540  11.048  0.0366 -0.5193  0.1829
  523MOL0     C72052   6.762   2.507  11.083 -0.0785  0.1116 -0.6395
  523MOL0     N72053   6.717   2.399  10.995  0.3556 -0.3973 -0.4270
  523MOL0     C72054   6.731   2.263  11.013  0.9366 -0.0962  0.4466
  523MOL0     C72055   6.658   2.198  10.926  0.0830  0.2160  0.3006
  523MOL0     C72056   6.643   2.049  10.890 -0.1483 -0.5927  0.3634
  523MOL0     C72057   6.659   2.018  10.736 -0.3965  0.5093  0.5163
  523MOL0     C72058   6.634   1.868  10.725  0.4136  0.0450 -0.2880
  523MOL0     C72059   6.677   1.808  10.593  0.2430  0.4976  0.5012
  523MOL0     O72060   6.821   1.765  10.605  0.6171 -0.1691  0.4085
  523MOL0     C72061   6.842   1.652  10.532  0.1154 -0.4699  0.4443
  523MOL0     C72062   6.903   1.549  10.593 -0.1726  0.0905 -0.5482
  523MOL0     C72063   6.933   1.421  10.528  0.2336 -0.2111  0.1893
  523MOL0     C72064   6.990   1.295  10.605 -0.1941  0.1096 -0.2067
  523MOL0     C72065   6.896   1.424  10.392  0.4439  0.4828 -0.4708
  523MOL0     C72066   6.897   1.297  10.325  0.1766  0.5298 -0.3606
  523MOL0     O72067   7.013   1.212  10.342 -0.7348  0.9993  0.1553
  523MOL0     C72068   7.021   1.084  10.289 -0.0910 -0.3144  0.6310
  523MOL0     C72069   7.151   1.029  10.277  0.2081  0.2017  0.0314
  523MOL0     C72070   7.161   0.907  10.226 -0.2900  1.2864  0.6548
  523MOL0     C72071   7.054   0.829  10.177 -0.0071 -0.0053  0.3209
  523MOL0     O72072   7.072   0.699  10.144 -0.0679  0.5762  0.7909
  523MOL0     C72073   7.047   0.665  10.010 -0.3883 -0.5132  0.5902
  523MOL0     C72074   7.154   0.564   9.953 -0.1347  0.3604  0.3154
  523MOL0     C72075   7.178   0.444  10.049  0.5262 -0.9188 -1.1555
  523MOL0     C72076   7.277   0.336   9.985 -0.3588  0.3564  0.4511
  523MOL0     C72077   7.282   0.195  10.045  1.0143 -0.3728 -0.0239
  523MOL0     C72078   7.359   0.206  10.172  0.1460  0.1940 -0.2246
  523MOL0     C72079   7.391   0.072  10.243 -0.9497 -0.2053  0.7251
  523MOL0     C72080   7.480   0.106  10.373  0.6451 -0.3018  1.0900
  523MOL0    Cl72081   7.502  -0.038  10.480  0.5579 -0.2424 -0.0149
  523MOL0     C72082   6.926   0.882  10.175  0.0238  0.0723  0.3765
  523MOL0     C72083   6.910   1.012  10.233 -0.5974  0.0854  0.9393
  523MOL0     O72084   6.799   1.271  10.255  0.9670  0.3169  0.0497
  523MOL0     C72085   6.826   1.533  10.328 -0.0322  0.3104  1.1014
  523MOL0     C72086   6.803   1.648  10.395  0.2116 -0.0351 -0.4610
  523MOL0     N72087   6.579   2.299  10.870  0.4390 -0.4929 -0.0185
  523MOL0     N72088   6.615   2.418  10.907 -0.0810 -0.9374  0.7712
  523MOL0     C72089   6.744   3.417  11.552 -0.0612 -0.7897 -0.5166
  523MOL0     C72090   6.656   3.516  11.583  0.2261  0.5461 -0.5459
  523MOL0     C72091   6.298   3.792  11.627 -0.5568 -0.1850 -0.3393
  523MOL0     C72092   6.271   3.791  11.764  0.3648 -0.3214  0.8005
  523MOL0     C72093   6.179   3.883  11.812 -0.8276  1.0788 -0.1628
  523MOL0     C72094   6.116   3.979  11.732  0.5484  0.7909 -0.9155
  523MOL0     O72095   6.034   4.072  11.790  0.3856  0.9504  0.4664
  523MOL0     C72096   6.008   4.072  11.934 -0.1103 -0.6302  1.0122
  523MOL0     C72097   5.923   4.194  11.970 -0.0126  0.4603  0.3619
  523MOL0     C72098   6.001   4.323  11.945 -0.6276 -0.4670  0.0148
  523MOL0     C72099   5.957   4.439  12.031  0.9223 -0.3579 -0.6167
  523MOL0     C72100   6.064   4.499  12.110  0.8177 -0.1660 -0.8451
  523MOL0     C72101   6.152   4.554  12.185 -0.2086  0.4393  0.6154
  523MOL0     C72102   6.152   3.984  11.602  1.2918  0.0712 -0.7152
  523MOL0     C72103   6.241   3.895  11.550 -1.0884 -0.2192 -0.0404
  523MOL0     C72104   6.278   3.908  11.408  0.2192 -0.2559 -0.2754
  523MOL0     H72105   6.364   3.350  11.561  0.0394  1.8805  2.3835
  523MOL0     H72106   6.525   3.155  11.520  1.0532 -1.2566  1.5258
  523MOL0     H72107   6.973   3.235  11.532 -0.7045 -0.6109  0.2880
  523MOL0     H72108   6.916   3.264  11.356  1.2452  0.4564 -0.6967
  523MOL0     H72109   7.078   3.097  11.403  0.5759 -0.5162  3.4149
  523MOL0     H72110   6.965   2.997  11.489 -4.8768  2.7925  2.0120
  523MOL0     H72111   6.816   3.021  11.264 -0.1126  0.9502  2.3026
  523MOL0     H72112   6.954   3.082  11.177  0.2984 -0.5668 -0.3384
  523MOL0     H72113   7.093   2.890  11.214  1.0709 -0.0577  2.4087
  523MOL0     H72114   6.984   2.825  11.342 -2.5839 -0.5199  0.1167
  523MOL0     H72115   6.905   2.827  11.045 -2.5637 -1.9573 -0.4258
  523MOL0     H72116   6.804   2.792  11.184  0.4089  2.7655  1.2765
  523MOL0     H72117   7.075   2.656  11.132  0.0777  4.5640  2.0523
  523MOL0     H72118   6.939   2.610  11.246 -2.8401  1.1130 -0.8381
  523MOL0     H72119   6.955   2.443  11.058  0.0960 -0.4795  0.2817
  523MOL0     H72120   6.911   2.579  10.946 -0.1563  1.7260  0.9784
  523MOL0     H72121   6.764   2.471  11.187 -3.1616 -0.1771 -0.5999
  523MOL0     H72122   6.692   2.591  11.078  1.1123  1.0593 -2.4775
  523MOL0     H72123   6.790   2.212  11.089 -0.8229 -1.1838  1.1483
  523MOL0     H72124   6.541   2.025  10.920  0.6714 -0.8631  3.1495
  523MOL0     H72125   6.707   1.986  10.952  2.4886  2.5720  1.0977
  523MOL0     H72126   6.592   2.069  10.667  2.4713 -0.7056 -3.5251
  523MOL0     H72127   6.757   2.053  10.702 -1.6851  3.7607 -0.2342
  523MOL0     H72128   6.670   1.804  10.806 -2.5367 -0.5526  0.6666
  523MOL0     H72129   6.525   1.858  10.726  0.4607 -0.7800 -1.7796
  523MOL0     H72130   6.608   1.726  10.571  1.7282 -0.6690 -0.0148
  523MOL0     H72131   6.660   1.877  10.510  3.1197  0.9112  0.1485
  523MOL0     H72132   6.944   1.570  10.692 -1.1312  0.2691 -0.1824
  523MOL0     H72133   6.940   1.287  10.702  1.6679 -0.3897  0.7610
  523MOL0     H72134   7.094   1.322  10.624  0.1624 -1.7963  0.8262
  523MOL0     H72135   6.981   1.195  10.561  5.0957 -1.1125  0.7990
  523MOL0     H72136   7.237   1.078  10.324 -1.0927  2.8948 -0.1899
  523MOL0     H72137   7.260   0.861  10.222 -1.1311 -0.5127 -0.5800
  523MOL0     H72138   6.950   0.617   9.993 -0.4521 -0.4315  0.7268
  523MOL0     H72139   7.060   0.757   9.952 -0.0977  0.0138  1.4715
  523MOL0     H72140   7.122   0.517   9.859  1.5878 -1.5527  0.6243
  523MOL0     H72141   7.249   0.615   9.937 -0.6554  1.5540  0.9272
  523MOL0     H72142   7.087   0.405  10.095  0.2066  2.0828  1.0939
  523MOL0     H72143   7.235   0.466  10.140  1.9545 -2.4973 -1.6286
  523MOL0     H72144   7.375   0.382   9.965  0.7486 -0.9118  2.6175
  523MOL0     H72145   7.231   0.322   9.887 -1.2926  1.4046  0.7091
  523MOL0     H72146   7.182   0.149  10.046  0.5894  0.4354 -1.6445
  523MOL0     H72147   7.344   0.131   9.983  1.3080  1.2671 -1.4839
  523MOL0     H72148   7.311   0.271  10.246  0.9040  1.0685 -0.4796
  523MOL0     H72149   7.452   0.256  10.143 -0.6641  3.0863  1.7319
  523MOL0     H72150   7.448   0.001  10.183  3.9946  0.9542  3.5248
  523MOL0     H72151   7.297   0.030  10.282 -1.3912  1.2833  1.3518
  523MOL0     H72152   7.426   0.186  10.424  1.3259  0.3545  0.7917
  523MOL0     H72153   7.575   0.142  10.332  0.3050  0.5594  1.0318
  523MOL0     H72154   6.834   0.834  10.144 -0.9100  0.3816  2.5609
  523MOL0     H72155   6.807   1.043  10.247 -0.5808  0.6457 -0.1068
  523MOL0     H72156   6.778   1.520  10.231 -1.9152 -2.3015  2.2403
  523MOL0     H72157   6.765   1.738  10.347  0.6915  0.5071  0.1494
  523MOL0     H72158   6.850   3.436  11.558  0.4947 -3.8147  1.7493
  523MOL0     H72159   6.688   3.617  11.606  4.0813 -0.4310 -0.9381
  523MOL0     H72160   6.320   3.726  11.836  0.5009 -1.7457 -0.5243
  523MOL0     H72161   6.156   3.891  11.918  1.9592  3.8242  0.3804
  523MOL0     H72162   5.950   3.982  11.956  1.3590 -1.3804  1.9610
  523MOL0     H72163   6.098   4.073  11.996  0.4481  2.6337  0.2985
  523MOL0     H72164   5.890   4.173  12.072 -0.5054 -0.6702 -0.0152
  523MOL0     H72165   5.833   4.193  11.908  1.5324  0.5822 -2.0106
  523MOL0     H72166   6.109   4.307  11.957 -0.7126  0.6732  3.4667
  523MOL0     H72167   5.996   4.355  11.841 -0.5416 -1.3939 -0.2798
  523MOL0     H72168   5.893   4.403  12.111  2.5057 -1.5352  0.1828
  523MOL0     H72169   5.902   4.514  11.974  1.4686  0.3816 -0.1899
  523MOL0     H72170   6.226   4.601  12.246 -0.0324  0.0662  0.6951
  523MOL0     H72171   6.089   4.055  11.549  0.5324  0.7757  1.0368
  523MOL0     H72172   6.189   3.945  11.356 -0.8061  0.8584  2.0991
  523MOL0     H72173   6.352   3.988  11.399  0.6833 -0.5025  1.1652
  523MOL0     H72174   6.326   3.816  11.376  1.5462  0.3827 -0.1855
  524MOL0     O72175   1.360   8.997  11.321  0.1356  0.4870 -0.3710
  524MOL0     C72176   1.373   8.873  11.323 -0.4010  0.1014 -0.6450
  524MOL0     O72177   1.367   8.786  11.219 -0.4480 -0.0852  0.0983
  524MOL0     C72178   1.288   8.825  11.120  0.7737 -0.4105 -0.0922
  524MOL0     C72179   1.146   8.822  11.138 -0.1152  0.5802 -1.0675
  524MOL0     C72180   1.056   8.858  11.042  0.1109 -0.0553  0.6531
  524MOL0     C72181   1.099   8.922  10.933 -0.0453  0.6841 -0.1064
  524MOL0     O72182   1.006   8.962  10.844 -0.6092 -1.0927 -0.5728
  524MOL0     C72183   1.025   9.098  10.800  0.2551  0.3025 -0.3098
  524MOL0     C72184   0.907   9.131  10.704 -0.6718  0.8193 -0.2235
  524MOL0     C72185   0.915   9.272  10.657 -0.0538  0.0749  0.0657
  524MOL0     C72186   0.830   9.291  10.523 -0.5252  0.8385 -0.3935
  524MOL0     C72187   0.817   9.442  10.476  0.9657 -0.5442 -0.2074
  524MOL0     C72188   0.684   9.455  10.395  0.4285  0.0211  0.2844
  524MOL0     C72189   0.646   9.601  10.362  1.0044  0.3071 -0.5676
  524MOL0     C72190   0.744   9.672  10.262  0.9718 -0.6386  0.4425
  524MOL0     N72191   0.794   9.578  10.160  0.4473  0.4862  0.6049
  524MOL0     C72192   0.707   9.511  10.067  0.8340 -0.9187 -0.4588
  524MOL0     C72193   0.787   9.464   9.966  0.3702  0.1868  0.7269
  524MOL0     C72194   0.739   9.413   9.833  0.8385 -0.3468 -0.2684
  524MOL0     C72195   0.730   9.515   9.711 -0.3072 -0.2664  0.8522
  524MOL0     C72196   0.683   9.455   9.582  0.1986 -0.5892 -0.0993
  524MOL0     C72197   0.790   9.371   9.505 -0.1369  0.1038 -0.0369
  524MOL0     O72198   0.723   9.267   9.446 -0.3186 -0.1237  0.1310
  524MOL0     C72199   0.782   9.188   9.350  0.4261  0.8344 -0.3251
  524MOL0     C72200   0.915   9.145   9.356  0.3243  0.3180  0.0482
  524MOL0     C72201   0.968   9.038   9.283 -0.3123 -0.1714 -0.0852
  524MOL0     C72202   1.122   9.017   9.295 -0.3109  0.5881 -0.4140
  524MOL0     C72203   0.883   8.975   9.193  0.7120 -1.5548 -0.5094
  524MOL0     C72204   0.919   8.862   9.104 -0.0309  0.4736 -0.4887
  524MOL0     O72205   1.041   8.862   9.048  0.0113  0.0399  0.4276
  524MOL0     C72206   1.087   8.750   8.981 -0.1068  0.6926  0.8639
  524MOL0     C72207   1.178   8.776   8.879 -0.0400  0.2111  0.1203
  524MOL0     C72208   1.247   8.670   8.820 -0.5855 -0.3758 -0.3597
  524MOL0     C72209   1.218   8.535   8.863 -0.4360  0.4399 -0.3882
  524MOL0     O72210   1.283   8.426   8.804 -0.4936  0.1560 -0.2927
  524MOL0     C72211   1.342   8.445   8.671 -0.6212 -0.9436  0.5258
  524MOL0     C72212   1.371   8.318   8.604 -0.1579  0.8952 -0.7604
  524MOL0     C72213   1.493   8.247   8.682 -0.1895  0.5717 -0.2192
  524MOL0     C72214   1.635   8.311   8.672 -0.4717 -0.3353 -1.3651
  524MOL0     C72215   1.727   8.272   8.798  0.1807 -0.2545  0.7891
  524MOL0     C72216   1.714   8.336   8.934  0.1214 -0.5303 -1.4687
  524MOL0     C72217   1.569   8.364   8.986 -0.7448 -0.3708 -0.2728
  524MOL0     C72218   1.582   8.441   9.127  0.1367 -1.1492  0.2033
  524MOL0    Cl72219   1.419   8.500   9.171  0.4566  0.0390  0.1244
  524MOL0     C72220   1.124   8.511   8.953 -0.0083 -0.7432 -0.0772
  524MOL0     C72221   1.063   8.618   9.019  0.2242 -1.3116 -0.7909
  524MOL0     O72222   0.842   8.771   9.079  0.3307  0.2505 -0.2720
  524MOL0     C72223   0.747   9.018   9.185  0.2814  0.8039 -0.3126
  524MOL0     C72224   0.694   9.114   9.270  0.5747  0.2058 -0.3793
  524MOL0     N72225   0.918   9.486  10.003 -0.3301  0.0570 -0.8302
  524MOL0     N72226   0.916   9.563  10.105 -0.4308  0.6488  0.3484
  524MOL0     C72227   1.236   8.932  10.907 -0.2458  0.7196  0.4694
  524MOL0     C72228   1.334   8.880  10.996  0.6467 -0.0364 -0.1425
  524MOL0     C72229   1.396   8.803  11.452 -0.5094  1.1015  0.1988
  524MOL0     C72230   1.342   8.668  11.464  0.5070 -0.1354 -0.1048
  524MOL0     C72231   1.355   8.605  11.586  0.0284  0.8462  0.7016
  524MOL0     C72232   1.422   8.657  11.697  0.3465  0.0111 -0.7913
  524MOL0     O72233   1.439   8.587  11.814  0.0477  0.6326  0.1396
  524MOL0     C72234   1.374   8.459  11.828  0.3163 -0.2495 -0.0552
  524MOL0     C72235   1.414   8.409  11.968 -1.0224 -0.3817  0.7515
  524MOL0     C72236   1.430   8.524  12.074 -0.3857 -0.2856  0.3394
  524MOL0     C72237   1.300   8.601  12.088 -0.5670  0.3288 -0.3275
  524MOL0     C72238   1.329   8.704  12.193 -0.7890 -0.7892 -0.6604
  524MOL0     C72239   1.364   8.782  12.279  0.4382  0.7041 -0.5615
  524MOL0     C72240   1.475   8.785  11.684 -0.9676  0.1549 -0.2904
  524MOL0     C72241   1.464   8.861  11.561  0.6157 -0.4368  0.0439
  524MOL0     C72242   1.528   8.993  11.555  0.1103  0.4135  0.0593
  524MOL0     H72243   1.103   8.769  11.222  0.2201 -0.3029 -1.4429
  524MOL0     H72244   0.952   8.830  11.058 -0.2557  1.1523  0.4519
  524MOL0     H72245   1.126   9.110  10.760  0.3645 -2.2601 -0.9941
  524MOL0     H72246   1.007   9.164  10.885 -1.4516 -2.9342  2.0818
  524MOL0     H72247   0.915   9.065  10.617 -0.1407  1.3858 -0.6076
  524MOL0     H72248   0.817   9.110  10.762  1.5726 -0.9583  2.8781
  524MOL0     H72249   0.874   9.336  10.736 -0.1311 -0.3170  0.3453
  524MOL0     H72250   1.020   9.297  10.644  0.4389 -1.6673  0.5100
  524MOL0     H72251   0.860   9.231  10.437 -2.5198 -0.1167 -0.4846
  524MOL0     H72252   0.733   9.248  10.548  1.6237 -3.9214  0.8759
  524MOL0     H72253   0.903   9.476  10.417  0.4296 -0.1052 -0.7416
  524MOL0     H72254   0.808   9.502  10.567 -1.7962 -2.9240  1.2522
  524MOL0     H72255   0.697   9.389  10.309 -3.2923  0.4633 -0.7858
  524MOL0     H72256   0.603   9.421  10.460  0.8268  0.6070  1.1050
  524MOL0     H72257   0.622   9.661  10.451  1.6758 -0.3169  0.0415
  524MOL0     H72258   0.550   9.597  10.308  0.7005  1.4018 -0.1416
  524MOL0     H72259   0.686   9.750  10.213  0.6525 -0.1809  1.5186
  524MOL0     H72260   0.827   9.707  10.325 -0.3832  0.5162  1.6683
  524MOL0     H72261   0.600   9.529  10.076  1.0616  0.5033 -0.3346
  524MOL0     H72262   0.636   9.389   9.860  1.0523  0.3577  1.3210
  524MOL0     H72263   0.801   9.326   9.810 -0.6768 -1.7291  0.6406
  524MOL0     H72264   0.670   9.602   9.738  1.9499  1.0438  1.8900
  524MOL0     H72265   0.827   9.563   9.693 -0.6840  0.7660  1.4737
  524MOL0     H72266   0.593   9.395   9.600  0.7473 -1.1567  0.7904
  524MOL0     H72267   0.655   9.543   9.523  0.1034 -0.2912  0.3906
  524MOL0     H72268   0.842   9.427   9.425 -0.0893 -3.0255 -2.3810
  524MOL0     H72269   0.846   9.341   9.594 -1.5722 -1.5828  0.3410
  524MOL0     H72270   0.982   9.203   9.418  1.1451 -0.4122 -0.1476
  524MOL0     H72271   1.174   9.020   9.198 -0.4734  0.1060 -0.5206
  524MOL0     H72272   1.150   8.921   9.339 -0.4317  0.1945 -1.1665
  524MOL0     H72273   1.161   9.100   9.353 -0.7601  2.2456 -2.3711
  524MOL0     H72274   1.204   8.873   8.839 -1.7479 -0.1488 -2.0131
  524MOL0     H72275   1.313   8.698   8.738  0.4788  0.7480  0.8313
  524MOL0     H72276   1.269   8.496   8.607  2.7055  1.1467 -1.8900
  524MOL0     H72277   1.434   8.502   8.683  0.7611 -3.0126  0.1644
  524MOL0     H72278   1.289   8.247   8.621  1.5166 -0.7306  1.2322
  524MOL0     H72279   1.392   8.326   8.498 -0.3956 -1.0736 -1.0025
  524MOL0     H72280   1.524   8.149   8.645  1.3068  1.3073 -1.0268
  524MOL0     H72281   1.461   8.238   8.786 -2.0694  0.9381 -0.7155
  524MOL0     H72282   1.636   8.420   8.672  2.7685 -0.2319 -0.1221
  524MOL0     H72283   1.685   8.267   8.586 -0.3955 -1.2989 -0.8399
  524MOL0     H72284   1.699   8.167   8.812 -1.8052 -0.0243 -0.8698
  524MOL0     H72285   1.830   8.288   8.765 -0.6238  2.9750 -0.5575
  524MOL0     H72286   1.753   8.438   8.921 -1.6737  0.2831 -0.7694
  524MOL0     H72287   1.759   8.285   9.019 -1.4556  2.7850  1.5987
  524MOL0     H72288   1.511   8.272   8.990  0.3333 -1.0484  0.9888
  524MOL0     H72289   1.527   8.428   8.908 -1.3343  0.8609  1.0041
  524MOL0     H72290   1.646   8.530   9.122  0.8333 -1.7129 -3.2979
  524MOL0     H72291   1.623   8.374   9.202  1.7448  0.9880  1.3391
  524MOL0     H72292   1.111   8.407   8.981  1.2605 -1.3509 -1.5854
  524MOL0     H72293   0.998   8.608   9.106 -1.1785  4.7703 -0.6694
  524MOL0     H72294   0.665   8.984   9.121  1.7212  2.3552 -3.1836
  524MOL0     H72295   0.588   9.133   9.280  0.7176  1.6146 -1.2297
  524MOL0     H72296   1.266   8.966  10.808  1.9737 -2.7081 -0.2064
  524MOL0     H72297   1.438   8.890  10.965  1.9560 -2.3993  2.9730
  524MOL0     H72298   1.284   8.626  11.382 -3.0849  0.9327  1.6583
  524MOL0     H72299   1.306   8.509  11.578  1.3825  0.1982 -0.2760
  524MOL0     H72300   1.265   8.471  11.824 -0.0748 -0.9785  4.0511
  524MOL0     H72301   1.406   8.392  11.748  0.3984  3.9139 -3.8954
  524MOL0     H72302   1.510   8.358  11.953  0.5523  2.7555 -0.6716
  524MOL0     H72303   1.335   8.337  11.991 -3.8701  2.3168  0.0936
  524MOL0     H72304   1.443   8.464  12.164  0.9585 -2.6380 -1.3135
  524MOL0     H72305   1.510   8.594  12.046 -0.0238 -1.3708 -1.5233
  524MOL0     H72306   1.226   8.530  12.126 -1.2692 -1.7068 -4.8623
  524MOL0     H72307   1.272   8.665  12.004 -2.5617  3.1656  2.2392
  524MOL0     H72308   1.382   8.847  12.362  2.1332 -1.0391  0.5290
  524MOL0     H72309   1.512   8.831  11.775 -1.7280 -0.9751  0.6248
  524MOL0     H72310   1.629   8.981  11.595  1.4301 -1.0613 -3.3292
  524MOL0     H72311   1.546   9.030  11.454  0.9166  0.0845  0.0756
  524MOL0     H72312   1.477   9.062  11.623  0.2504 -0.2217  0.8274
  525MOL0     O72313   9.892   0.338   0.143  0.8496 -0.4080 -0.3719
  525MOL0     C72314   9.790   0.329   0.077  0.5187 -0.3984  0.5669
  525MOL0     O72315   9.784   0.361  -0.056  0.1756 -0.6317 -0.1474
  525MOL0     C72316   9.899   0.399  -0.113  0.6638 -1.2062 -0.4859
  525MOL0     C72317   9.944   0.537  -0.081  0.8219  0.3289 -0.6901
  525MOL0     C72318  10.079   0.569  -0.106  0.2129  0.1327  0.3643
  525MOL0     C72319  10.166   0.482  -0.167 -0.3915  0.0392 -1.2777
  525MOL0     O72320  10.296   0.511  -0.172 -0.2064 -0.3916 -0.4014
  525MOL0     C72321  10.339   0.553  -0.311  0.3507  0.3213 -0.5622
  525MOL0     C72322  10.355   0.424  -0.395 -0.3723  0.5782 -0.5666
  525MOL0     C72323  10.407   0.461  -0.529 -0.5353  0.4817 -0.4558
  525MOL0     C72324  10.406   0.344  -0.641  0.8370 -0.6016 -0.2067
  525MOL0     C72325  10.449   0.406  -0.779  0.3521  0.3038  0.5551
  525MOL0     C72326  10.401   0.320  -0.896 -0.0876  0.0862  0.1021
  525MOL0     C72327  10.473   0.353  -1.027  0.4575 -0.1496  0.7063
  525MOL0     C72328  10.449   0.225  -1.108  0.3847  0.0862  0.5327
  525MOL0     N72329  10.307   0.207  -1.142  0.4417 -0.8235 -0.0889
  525MOL0     C72330  10.220   0.303  -1.197 -0.0517  0.4157  0.3513
  525MOL0     C72331  10.087   0.261  -1.177  0.2749  0.2856 -0.4458
  525MOL0     C72332   9.963   0.338  -1.191  0.7011  0.2096  0.5821
  525MOL0     C72333   9.973   0.442  -1.305  0.3604 -0.1862  0.0164
  525MOL0     C72334  10.024   0.386  -1.438 -0.7556  0.1428 -0.0825
  525MOL0     C72335  10.076   0.499  -1.526  0.9321 -0.5534 -0.4774
  525MOL0     O72336  10.091   0.441  -1.651  0.3654  0.3480  0.2000
  525MOL0     C72337  10.128   0.516  -1.756 -0.4134  0.2235  0.6483
  525MOL0     C72338  10.136   0.658  -1.757 -0.2747 -0.2929  0.7714
  525MOL0     C72339  10.174   0.729  -1.873 -0.3715 -0.6689 -0.3098
  525MOL0     C72340  10.179   0.883  -1.869 -0.0797  0.7761  0.1146
  525MOL0     C72341  10.207   0.658  -1.991  0.2359  0.6116 -0.8141
  525MOL0     C72342  10.256   0.713  -2.125  0.1575  0.6125  0.4380
  525MOL0     O72343  10.320   0.834  -2.122  0.3525 -0.7208 -0.2813
  525MOL0     C72344  10.362   0.894  -2.235 -0.0741  0.5249  0.4371
  525MOL0     C72345  10.492   0.883  -2.274 -0.3344  0.3323 -0.0814
  525MOL0     C72346  10.537   0.954  -2.393  0.0632  0.3597  1.0413
  525MOL0     C72347  10.435   1.023  -2.473 -0.5756  1.0325  0.2516
  525MOL0     O72348  10.448   1.091  -2.593 -0.3801  0.1241 -0.3605
  525MOL0     C72349  10.575   1.140  -2.628  0.3856  0.3271 -0.3366
  525MOL0     C72350  10.555   1.257  -2.734  0.7603 -0.0825 -0.4481
  525MOL0     C72351  10.677   1.353  -2.738  0.6819  0.6272  0.7696
  525MOL0     C72352  10.803   1.280  -2.783  0.0810  0.9291  1.2320
  525MOL0     C72353  10.914   1.386  -2.800  0.7838  0.5976  1.0646
  525MOL0     C72354  11.050   1.315  -2.808  0.9099  0.5323  0.5542
  525MOL0     C72355  11.083   1.250  -2.938  0.1070 -0.2180  0.5746
  525MOL0     C72356  11.227   1.180  -2.912  0.2630  0.2001 -0.0680
  525MOL0    Cl72357  11.269   1.098  -3.059  0.1273  0.2477 -0.0132
  525MOL0     C72358  10.311   1.039  -2.417  0.5927 -0.4048  0.8368
  525MOL0     C72359  10.277   0.982  -2.303  0.3689  1.3914 -0.0600
  525MOL0     O72360  10.232   0.649  -2.232  0.0585 -0.3949 -0.4970
  525MOL0     C72361  10.196   0.522  -1.991 -0.0297  0.3878 -0.0419
  525MOL0     C72362  10.156   0.453  -1.875 -0.4170 -1.0619 -0.2796
  525MOL0     N72363  10.105   0.135  -1.114  0.8181  0.1539  0.5814
  525MOL0     N72364  10.224   0.107  -1.087 -0.3191 -0.6345  0.8096
  525MOL0     C72365  10.120   0.347  -0.192  0.1232  0.5435 -0.6321
  525MOL0     C72366   9.987   0.306  -0.160 -0.0879 -0.0033 -0.0499
  525MOL0     C72367   9.673   0.270   0.135  0.1749  0.2156  0.7568
  525MOL0     C72368   9.669   0.279   0.272  0.3700 -0.3030  0.3483
  525MOL0     C72369   9.571   0.220   0.343  0.3476  0.0557  0.1750
  525MOL0     C72370   9.473   0.135   0.287 -0.6772 -0.3612 -0.0898
  525MOL0     O72371   9.376   0.077   0.366  0.4304  0.0758  0.3169
  525MOL0     C72372   9.247   0.053   0.316 -0.3486  0.8149  0.1122
  525MOL0     C72373   9.157  -0.033   0.404  0.1596 -0.3891  1.0012
  525MOL0     C72374   9.122   0.041   0.531  0.2578  0.3335 -0.2501
  525MOL0     C72375   9.058  -0.062   0.625 -0.6387  0.3749 -0.9326
  525MOL0     C72376   8.959  -0.000   0.706 -0.4266 -0.3873 -0.1971
  525MOL0     C72377   8.873   0.047   0.777  0.7563  0.7950  0.9769
  525MOL0     C72378   9.473   0.125   0.147  0.7610  0.6712  0.5449
  525MOL0     C72379   9.572   0.196   0.068 -0.7556  0.0642 -0.3755
  525MOL0     C72380   9.579   0.164  -0.075 -0.1182 -0.1473  0.0033
  525MOL0     H72381   9.881   0.602  -0.021  2.0663  0.3776  0.6383
  525MOL0     H72382  10.110   0.668  -0.074  0.4905 -0.0647  0.7154
  525MOL0     H72383  10.434   0.608  -0.316 -0.5104  1.7781 -1.4221
  525MOL0     H72384  10.267   0.625  -0.350 -0.6502  0.2126  0.9958
  525MOL0     H72385  10.419   0.359  -0.335 -1.6212 -0.5107 -0.3471
  525MOL0     H72386  10.259   0.372  -0.411  1.3092 -3.4025  0.8243
  525MOL0     H72387  10.352   0.548  -0.566  1.9891  2.8400  0.9434
  525MOL0     H72388  10.513   0.484  -0.517 -0.1655 -0.6483 -1.3514
  525MOL0     H72389  10.467   0.260  -0.606  0.1776 -1.5040 -1.1419
  525MOL0     H72390  10.307   0.300  -0.656  1.3178 -1.3295 -1.3378
  525MOL0     H72391  10.557   0.418  -0.767 -0.0518  2.5079  2.9079
  525MOL0     H72392  10.409   0.506  -0.797  0.5025 -0.0739 -2.4196
  525MOL0     H72393  10.413   0.214  -0.872 -0.2378 -0.1234 -0.7318
  525MOL0     H72394  10.297   0.350  -0.912 -0.4479 -2.0350 -2.0681
  525MOL0     H72395  10.576   0.381  -1.006  0.2857  0.9524  0.1394
  525MOL0     H72396  10.413   0.435  -1.067 -0.5316  0.2141  2.7649
  525MOL0     H72397  10.503   0.237  -1.202 -3.2197  1.0237 -1.6340
  525MOL0     H72398  10.481   0.133  -1.059 -3.4708 -1.6602  0.1298
  525MOL0     H72399  10.243   0.407  -1.214 -0.8421  0.6528  0.7072
  525MOL0     H72400   9.936   0.396  -1.102  2.3950  2.0115 -0.0158
  525MOL0     H72401   9.884   0.266  -1.212  2.4703 -1.8499  0.6605
  525MOL0     H72402   9.875   0.491  -1.313  0.9059  0.9182 -0.0365
  525MOL0     H72403  10.044   0.517  -1.269 -0.8190  1.8201 -1.6005
  525MOL0     H72404  10.105   0.312  -1.443 -0.1176  0.8845 -1.4459
  525MOL0     H72405   9.938   0.344  -1.490 -0.3857  0.8483 -1.3043
  525MOL0     H72406  10.004   0.582  -1.534  4.3340  2.6597 -0.5994
  525MOL0     H72407  10.164   0.548  -1.483  0.3821  1.1682 -1.2212
  525MOL0     H72408  10.113   0.722  -1.672  0.7471  0.8313  0.2200
  525MOL0     H72409  10.102   0.927  -1.933  0.6675  4.2343  1.3958
  525MOL0     H72410  10.275   0.916  -1.909  0.4366  0.3096  0.9506
  525MOL0     H72411  10.171   0.924  -1.768 -0.0503 -1.1828  0.9605
  525MOL0     H72412  10.571   0.837  -2.216 -1.3293  0.9726  1.8787
  525MOL0     H72413  10.641   0.950  -2.422  0.2042 -0.3103  1.5904
  525MOL0     H72414  10.624   1.178  -2.538 -0.6197 -3.9370  2.3107
  525MOL0     H72415  10.647   1.062  -2.652  2.7199  0.4711  4.8918
  525MOL0     H72416  10.530   1.215  -2.831 -0.9926 -0.7450  0.2487
  525MOL0     H72417  10.463   1.310  -2.705  2.1122  0.6261  3.0171
  525MOL0     H72418  10.672   1.394  -2.637 -2.2818 -0.1975  1.0663
  525MOL0     H72419  10.647   1.431  -2.808  0.0214  0.5823  0.9949
  525MOL0     H72420  10.790   1.218  -2.872 -0.5759 -0.2353  2.1084
  525MOL0     H72421  10.838   1.212  -2.704 -0.8498 -3.8123 -2.0372
  525MOL0     H72422  10.891   1.448  -2.888 -0.3153 -1.3420 -0.0918
  525MOL0     H72423  10.918   1.462  -2.722  0.4710  1.2848  0.4370
  525MOL0     H72424  11.066   1.231  -2.740  3.6607 -2.3109 -3.1656
  525MOL0     H72425  11.135   1.381  -2.787 -0.1752  1.7203  1.4079
  525MOL0     H72426  11.081   1.324  -3.020 -1.4804  0.8174  1.4854
  525MOL0     H72427  11.002   1.182  -2.966 -1.1639  1.1647  0.7454
  525MOL0     H72428  11.235   1.114  -2.825  1.8127 -1.3976 -1.3734
  525MOL0     H72429  11.311   1.251  -2.906  1.6281 -1.3520 -0.2932
  525MOL0     H72430  10.225   1.085  -2.464 -0.1335 -2.4455  0.0279
  525MOL0     H72431  10.173   0.993  -2.274 -0.3169  3.2439 -2.7960
  525MOL0     H72432  10.216   0.464  -2.080  1.3760 -1.4020  1.3621
  525MOL0     H72433  10.164   0.345  -1.867  0.4473 -0.9371  0.8415
  525MOL0     H72434  10.195   0.272  -0.216  0.8890  1.6371 -1.8317
  525MOL0     H72435   9.974   0.198  -0.167 -1.2081  0.1567 -0.5829
  525MOL0     H72436   9.743   0.330   0.333  0.5919  0.0401 -0.2041
  525MOL0     H72437   9.575   0.236   0.451  0.8272 -2.2297  0.5405
  525MOL0     H72438   9.196   0.149   0.305  2.1445  2.3101  0.7897
  525MOL0     H72439   9.249   0.004   0.218  0.5845  2.0987 -0.5419
  525MOL0     H72440   9.206  -0.130   0.421  2.3977  0.3979 -0.4185
  525MOL0     H72441   9.060  -0.054   0.359  0.9314 -3.2199  0.4653
  525MOL0     H72442   9.213   0.089   0.566  0.7964 -0.0346 -1.1184
  525MOL0     H72443   9.051   0.121   0.508  1.1272  1.1722 -0.0426
  525MOL0     H72444   9.128  -0.113   0.692 -3.2119 -0.1352  1.5607
  525MOL0     H72445   9.000  -0.140   0.576 -1.0584 -1.1353  1.7773
  525MOL0     H72446   8.796   0.091   0.837 -1.4023 -1.7769  0.3075
  525MOL0     H72447   9.393   0.074   0.095 -0.4112  0.0412  2.8549
  525MOL0     H72448   9.672   0.109  -0.088  0.5305  1.5996 -4.8759
  525MOL0     H72449   9.500   0.098  -0.111 -1.3305  0.2721  1.7521
  525MOL0     H72450   9.567   0.263  -0.120 -1.3900 -0.2182  0.1264
  526MOL0     O72451   7.929   4.691   4.177  0.4930  0.2683  0.2924
  526MOL0     C72452   8.049   4.669   4.195 -0.0985 -0.5226 -0.3450
  526MOL0     O72453   8.109   4.569   4.257  0.0948 -0.1285 -0.6283
  526MOL0     C72454   8.027   4.486   4.329  0.4056  0.8750  0.0279
  526MOL0     C72455   8.013   4.355   4.281 -0.3872 -0.0833 -0.3010
  526MOL0     C72456   7.927   4.267   4.345  0.2758 -0.1922 -0.3774
  526MOL0     C72457   7.853   4.311   4.459  0.1273 -0.2737  0.7076
  526MOL0     O72458   7.757   4.221   4.509  0.0253 -0.5085  0.2564
  526MOL0     C72459   7.674   4.265   4.615  1.0884  0.1489 -0.7219
  526MOL0     C72460   7.554   4.167   4.640 -0.4354  0.0523 -0.1957
  526MOL0     C72461   7.467   4.147   4.507  0.0245 -0.5513 -0.8293
  526MOL0     C72462   7.410   4.008   4.504 -0.3307  0.3782 -0.2564
  526MOL0     C72463   7.338   4.002   4.363  0.4879  0.3477  0.0579
  526MOL0     C72464   7.195   4.062   4.353 -0.8150  0.4926 -0.0307
  526MOL0     C72465   7.145   4.087   4.213  0.8455  0.0167 -0.4726
  526MOL0     C72466   7.128   4.230   4.181  0.1595 -0.3011  0.1662
  526MOL0     N72467   7.257   4.284   4.146 -0.4293 -0.7558 -0.7366
  526MOL0     C72468   7.356   4.342   4.232  0.6364  0.3768  0.1717
  526MOL0     C72469   7.475   4.339   4.164 -0.1106  0.1492 -0.1799
  526MOL0     C72470   7.599   4.377   4.221 -0.1051  0.5346 -0.2718
  526MOL0     C72471   7.647   4.519   4.180  0.0547  0.2723 -0.3992
  526MOL0     C72472   7.564   4.642   4.242  0.2838  0.6968  0.7053
  526MOL0     C72473   7.581   4.650   4.399 -0.5040  0.5664  0.3783
  526MOL0     O72474   7.548   4.783   4.442  0.5212 -0.3206 -0.5694
  526MOL0     C72475   7.415   4.826   4.437 -1.4867 -0.6042 -0.6647
  526MOL0     C72476   7.409   4.949   4.504  0.1670 -0.3242  1.3957
  526MOL0     C72477   7.279   5.006   4.531 -0.5675  0.0439 -0.2502
  526MOL0     C72478   7.277   5.144   4.594  0.2718 -0.2501  0.3732
  526MOL0     C72479   7.157   4.932   4.503 -1.3249  1.2242 -0.4312
  526MOL0     C72480   7.017   4.971   4.526  0.1818  0.2837  0.3729
  526MOL0     O72481   7.009   5.038   4.643 -0.5327 -0.4474 -0.6936
  526MOL0     C72482   6.880   5.079   4.688 -0.5252 -0.3100  0.0339
  526MOL0     C72483   6.868   5.199   4.763 -1.2382  0.7519  1.2209
  526MOL0     C72484   6.744   5.247   4.807 -1.0696 -0.2393 -0.2875
  526MOL0     C72485   6.637   5.162   4.777  0.4068 -1.9738 -0.2317
  526MOL0     O72486   6.507   5.214   4.791  0.3693  0.2575  1.1762
  526MOL0     C72487   6.483   5.302   4.900  0.3844 -0.1004 -0.5473
  526MOL0     C72488   6.330   5.317   4.923  1.5723  1.0262 -0.7453
  526MOL0     C72489   6.242   5.193   4.933  0.9376 -0.0060  0.5122
  526MOL0     C72490   6.099   5.244   4.904  0.8414 -0.5210  0.4932
  526MOL0     C72491   5.987   5.149   4.901 -0.0413  0.2829 -0.1021
  526MOL0     C72492   5.848   5.224   4.880  0.4130  0.2114 -0.0440
  526MOL0     C72493   5.737   5.127   4.915 -0.3630  0.1588  0.1973
  526MOL0     C72494   5.742   4.994   4.835  0.1110  0.5055  0.6427
  526MOL0    Cl72495   5.626   4.890   4.906  0.1456 -0.1201  0.3641
  526MOL0     C72496   6.645   5.052   4.696  0.4507 -0.2358  0.5138
  526MOL0     C72497   6.762   4.996   4.672  0.6674 -0.0324 -0.6330
  526MOL0     O72498   6.922   4.956   4.447  0.8460 -0.3830  0.7699
  526MOL0     C72499   7.177   4.814   4.434 -0.2224  0.4024  0.2123
  526MOL0     C72500   7.306   4.754   4.398  0.5688 -0.1736 -0.1832
  526MOL0     N72501   7.448   4.304   4.036 -0.2903 -0.0378  0.3086
  526MOL0     N72502   7.325   4.271   4.025  0.1511 -0.2450  0.2305
  526MOL0     C72503   7.870   4.441   4.507  0.1439 -0.2110 -0.3684
  526MOL0     C72504   7.962   4.525   4.444 -0.3561 -0.3673  0.5137
  526MOL0     C72505   8.134   4.784   4.149 -0.6235  0.0930  0.5406
  526MOL0     C72506   8.258   4.797   4.223  0.2418 -0.4066 -0.0373
  526MOL0     C72507   8.338   4.907   4.217 -0.2911  0.0046 -0.0679
  526MOL0     C72508   8.310   5.014   4.125 -0.0473  0.0841 -0.0546
  526MOL0     O72509   8.382   5.131   4.110  0.7438 -0.0275  0.0750
  526MOL0     C72510   8.512   5.136   4.171 -0.9608  0.6708  0.0706
  526MOL0     C72511   8.601   5.240   4.090  0.3482 -0.2657 -0.4617
  526MOL0     C72512   8.738   5.277   4.164 -0.2327 -0.3360  0.5549
  526MOL0     C72513   8.843   5.357   4.074  0.9101 -0.5539  0.2228
  526MOL0     C72514   8.916   5.279   3.966  0.2900  0.7659  1.5440
  526MOL0     C72515   8.982   5.221   3.880 -0.2087 -0.2929 -0.3951
  526MOL0     C72516   8.186   5.001   4.046 -0.0577  0.2431 -0.1183
  526MOL0     C72517   8.102   4.884   4.053 -0.5497  0.0230  1.0445
  526MOL0     C72518   7.980   4.874   3.968  0.1675  0.2651  0.7738
  526MOL0     H72519   8.052   4.316   4.188 -1.6194  3.6592 -2.6253
  526MOL0     H72520   7.923   4.161   4.320  1.0853 -0.1468 -0.7066
  526MOL0     H72521   7.632   4.362   4.589 -1.3458 -0.8308 -0.7260
  526MOL0     H72522   7.733   4.279   4.706  1.1804 -2.7405 -0.2370
  526MOL0     H72523   7.593   4.072   4.678 -0.1703  0.6238  1.0029
  526MOL0     H72524   7.490   4.201   4.722  1.3996  0.3833  1.1829
  526MOL0     H72525   7.387   4.222   4.502  1.7885  1.6387  1.5244
  526MOL0     H72526   7.538   4.159   4.424 -1.0186 -4.7112 -2.6140
  526MOL0     H72527   7.484   3.928   4.504 -0.9492 -0.3548 -3.4005
  526MOL0     H72528   7.345   3.988   4.589  2.4017 -1.6612  1.5452
  526MOL0     H72529   7.325   3.895   4.341  1.8115  0.2121 -0.1065
  526MOL0     H72530   7.397   4.050   4.284  1.5096  0.6565  0.9906
  526MOL0     H72531   7.123   3.991   4.395 -2.1130  0.8938 -1.5033
  526MOL0     H72532   7.190   4.160   4.400 -4.6137  0.4685 -0.1273
  526MOL0     H72533   7.044   4.047   4.203 -0.7643  3.2373  1.1695
  526MOL0     H72534   7.204   4.052   4.128  1.5581  4.4559 -2.1032
  526MOL0     H72535   7.073   4.244   4.087  0.3914  0.5592  0.1478
  526MOL0     H72536   7.072   4.292   4.251 -2.0283 -1.0381 -0.8441
  526MOL0     H72537   7.326   4.381   4.329  2.5318 -0.4273  1.1256
  526MOL0     H72538   7.680   4.308   4.195  0.5164  2.1004 -2.9184
  526MOL0     H72539   7.591   4.370   4.330  2.9576 -0.5715 -0.0221
  526MOL0     H72540   7.749   4.535   4.217 -0.1935  1.7433 -0.2955
  526MOL0     H72541   7.639   4.526   4.071 -3.3932 -0.5270 -0.3021
  526MOL0     H72542   7.603   4.735   4.199  0.8774 -0.4807 -1.4758
  526MOL0     H72543   7.461   4.619   4.212  0.2071 -0.1274  1.5298
  526MOL0     H72544   7.536   4.571   4.458  2.3045  0.1186  2.1055
  526MOL0     H72545   7.685   4.627   4.424 -1.1750  0.2177  3.0514
  526MOL0     H72546   7.494   5.013   4.528 -0.7109  2.0274 -1.1267
  526MOL0     H72547   7.306   5.142   4.699 -0.8259 -1.6216  0.6776
  526MOL0     H72548   7.180   5.193   4.580  1.3014  1.4376 -1.3196
  526MOL0     H72549   7.343   5.213   4.541 -1.1456 -0.5101 -1.8612
  526MOL0     H72550   6.952   5.264   4.785 -0.4711  0.4191 -0.5935
  526MOL0     H72551   6.735   5.341   4.861 -1.2892 -1.3208  1.6712
  526MOL0     H72552   6.523   5.262   4.994  0.4452  0.6368 -0.2525
  526MOL0     H72553   6.532   5.399   4.888 -1.6692  1.2217  1.1063
  526MOL0     H72554   6.321   5.370   5.018 -0.9046  0.6827 -0.7234
  526MOL0     H72555   6.305   5.376   4.834  1.0118  0.3196 -1.0662
  526MOL0     H72556   6.250   5.140   5.028 -3.4426 -0.3548  0.8836
  526MOL0     H72557   6.281   5.120   4.861  2.0506  0.7459  0.3214
  526MOL0     H72558   6.099   5.285   4.803  1.1800 -0.6877  0.4243
  526MOL0     H72559   6.077   5.316   4.983  1.0065 -2.3963  2.3547
  526MOL0     H72560   5.997   5.087   4.811  2.3161 -0.4679  0.6181
  526MOL0     H72561   5.991   5.083   4.988  2.1550  2.5549  1.6667
  526MOL0     H72562   5.835   5.268   4.781 -2.8532 -0.6047 -0.1011
  526MOL0     H72563   5.834   5.305   4.952  0.0540  1.2801 -1.2815
  526MOL0     H72564   5.643   5.183   4.908 -0.6713 -0.2833  0.8137
  526MOL0     H72565   5.736   5.109   5.023 -0.7762  4.4798  1.1013
  526MOL0     H72566   5.838   4.943   4.840 -0.6865 -1.0191  1.1274
  526MOL0     H72567   5.722   5.022   4.731 -0.3765  2.5286  1.2223
  526MOL0     H72568   6.552   5.012   4.656  1.7521 -1.7133 -1.2297
  526MOL0     H72569   6.769   4.898   4.627 -1.9452 -0.3559 -0.4789
  526MOL0     H72570   7.094   4.754   4.398  2.3414 -0.6709 -4.9402
  526MOL0     H72571   7.307   4.675   4.324 -2.4536  0.4362 -0.9804
  526MOL0     H72572   7.812   4.479   4.591  1.9379  0.2291  0.7241
  526MOL0     H72573   7.960   4.630   4.473 -3.1105  0.2595 -1.5447
  526MOL0     H72574   8.277   4.724   4.302  2.4396 -0.0407 -0.1714
  526MOL0     H72575   8.420   4.925   4.286  0.1652 -2.3362  0.0720
  526MOL0     H72576   8.515   5.150   4.279  1.2653 -2.5244  0.5416
  526MOL0     H72577   8.556   5.037   4.161 -0.9288  0.5331  1.4564
  526MOL0     H72578   8.547   5.335   4.086 -1.0939 -0.6557  4.2038
  526MOL0     H72579   8.623   5.195   3.993 -1.7446  0.5009 -1.3587
  526MOL0     H72580   8.712   5.341   4.249  1.5230 -0.1822  1.0029
  526MOL0     H72581   8.789   5.186   4.193 -1.7551 -1.3244  0.2596
  526MOL0     H72582   8.921   5.409   4.130  0.5949  0.9815 -0.7022
  526MOL0     H72583   8.800   5.449   4.033  1.1461  0.3998  2.0210
  526MOL0     H72584   9.054   5.178   3.815  2.4830 -1.1837  2.9033
  526MOL0     H72585   8.145   5.078   3.981 -2.8556  0.0534  1.2693
  526MOL0     H72586   7.899   4.917   4.027 -0.8266  1.3830 -1.2946
  526MOL0     H72587   7.993   4.946   3.886 -2.2762  1.5327  1.3986
  526MOL0     H72588   7.940   4.777   3.940 -1.3865  1.4401 -1.3515
  527MOL0     O72589  10.186   4.663   3.145 -0.3149  0.1922 -0.1763
  527MOL0     C72590  10.138   4.656   3.261 -0.1268  0.1551  0.2090
  527MOL0     O72591  10.171   4.557   3.350 -0.7277  0.0430  0.4757
  527MOL0     C72592  10.272   4.475   3.322  0.2907 -0.0567  0.1120
  527MOL0     C72593  10.391   4.486   3.383  0.0212 -0.3606 -0.6191
  527MOL0     C72594  10.496   4.391   3.361  0.5638  0.5458  0.6813
  527MOL0     C72595  10.474   4.290   3.266  0.8606  1.1915  0.8604
  527MOL0     O72596  10.561   4.183   3.256  0.3439  0.3797 -0.5008
  527MOL0     C72597  10.672   4.231   3.175  0.0637  0.0208  0.0443
  527MOL0     C72598  10.716   4.138   3.057  0.6730 -0.0552 -1.5926
  527MOL0     C72599  10.589   4.106   2.970  0.1814  0.2251 -1.0032
  527MOL0     C72600  10.599   3.981   2.885 -0.4707 -0.2151 -0.4159
  527MOL0     C72601  10.460   3.952   2.818 -0.8352 -0.2648 -0.0990
  527MOL0     C72602  10.467   3.854   2.702  0.0694 -0.4360 -0.7519
  527MOL0     C72603  10.560   3.729   2.724  0.0298 -0.1123 -0.2437
  527MOL0     C72604  10.574   3.659   2.589 -0.5826 -0.3965  0.6669
  527MOL0     N72605  10.458   3.563   2.567 -0.0795 -0.6000 -0.3607
  527MOL0     C72606  10.448   3.473   2.463 -0.2212  0.3447 -0.8040
  527MOL0     C72607  10.322   3.408   2.474 -0.2954  0.0873  0.5662
  527MOL0     C72608  10.273   3.290   2.391 -0.2703 -1.1967  0.7354
  527MOL0     C72609  10.223   3.330   2.253  0.8847 -0.9564  0.3435
  527MOL0     C72610  10.120   3.238   2.185  1.9463 -0.0125 -1.1452
  527MOL0     C72611  10.083   3.283   2.042  0.7403 -0.2326  1.2967
  527MOL0     O72612  10.187   3.240   1.955  0.5002  0.1045  0.2480
  527MOL0     C72613  10.193   3.267   1.820  0.5042 -0.7497 -0.1153
  527MOL0     C72614  10.140   3.379   1.752 -0.2394 -0.4318 -0.4694
  527MOL0     C72615  10.148   3.403   1.612 -0.2945  1.0551 -0.9941
  527MOL0     C72616  10.098   3.527   1.553 -0.1828  0.9275 -0.4610
  527MOL0     C72617  10.188   3.297   1.526 -0.9949 -0.2493  0.1859
  527MOL0     C72618  10.199   3.296   1.373 -0.2557 -0.3158 -0.4340
  527MOL0     O72619  10.242   3.173   1.314 -0.2833 -0.0700  0.0945
  527MOL0     C72620  10.251   3.161   1.180  0.6718  0.2177 -0.1630
  527MOL0     C72621  10.147   3.098   1.105  0.5271  0.0140  0.0048
  527MOL0     C72622  10.165   3.091   0.964 -0.1339  0.3379 -0.2691
  527MOL0     C72623  10.275   3.156   0.905  0.3865  0.6421 -0.3269
  527MOL0     O72624  10.286   3.169   0.768  0.1958 -0.2103 -0.3278
  527MOL0     C72625  10.189   3.100   0.686  0.3154 -0.5777  0.6961
  527MOL0     C72626  10.239   3.103   0.537  0.0432  0.6327 -0.4246
  527MOL0     C72627  10.165   3.206   0.447  1.4041 -0.6117 -0.6772
  527MOL0     C72628  10.218   3.190   0.311  0.4990 -0.1243 -0.1504
  527MOL0     C72629  10.130   3.257   0.201 -0.6953  0.7846  0.8105
  527MOL0     C72630   9.996   3.178   0.183  0.5005  0.0474 -0.1206
  527MOL0     C72631   9.959   3.186   0.036  1.1877  0.1385  0.6698
  527MOL0     C72632   9.805   3.148   0.026 -0.1293  1.2476  0.0190
  527MOL0    Cl72633   9.701   3.280   0.071  0.1116 -0.0876  0.1586
  527MOL0     C72634  10.372   3.215   0.979 -1.0915  0.0380  0.0159
  527MOL0     C72635  10.364   3.222   1.120  0.1926 -0.0071  0.1639
  527MOL0     O72636  10.181   3.396   1.306 -0.2105 -0.5192  0.5559
  527MOL0     C72637  10.237   3.183   1.598  0.0054 -0.2856 -0.8247
  527MOL0     C72638  10.237   3.171   1.739 -0.1181  0.2161  0.3085
  527MOL0     N72639  10.261   3.475   2.567 -0.5623 -0.2130 -0.1277
  527MOL0     N72640  10.340   3.568   2.624  0.6542  0.1041  0.5594
  527MOL0     C72641  10.355   4.277   3.194 -0.0351 -0.1981  0.2301
  527MOL0     C72642  10.254   4.372   3.224 -1.0198 -0.2164  0.2107
  527MOL0     C72643  10.015   4.739   3.296 -0.6857 -0.6933  0.3997
  527MOL0     C72644   9.920   4.682   3.384  0.7517 -0.1298  0.1661
  527MOL0     C72645   9.807   4.752   3.416  0.5128 -0.9723  0.2869
  527MOL0     C72646   9.778   4.875   3.372  0.5339  1.0081 -1.1274
  527MOL0     O72647   9.659   4.944   3.413 -0.5959  0.1830 -0.8231
  527MOL0     C72648   9.658   5.084   3.440  0.2374 -0.0922 -0.2078
  527MOL0     C72649   9.637   5.191   3.329 -0.3159 -0.1667  1.0786
  527MOL0     C72650   9.598   5.334   3.381 -1.1064  0.0714  0.4329
  527MOL0     C72651   9.707   5.407   3.461  0.2276 -0.3410 -0.3940
  527MOL0     C72652   9.822   5.449   3.382 -0.3644  0.3783  0.0149
  527MOL0     C72653   9.910   5.501   3.313  0.2983  0.2170 -0.7770
  527MOL0     C72654   9.874   4.934   3.277  0.8018  0.2298 -0.9975
  527MOL0     C72655   9.995   4.867   3.237  0.4863  0.1145 -0.5521
  527MOL0     C72656  10.089   4.940   3.135 -0.2495  0.1128 -0.0438
  527MOL0     H72657  10.410   4.564   3.455  1.9254 -0.1772 -1.2768
  527MOL0     H72658  10.591   4.394   3.412  0.4955 -0.1665  0.8742
  527MOL0     H72659  10.762   4.223   3.236  1.8377  1.4892 -2.2001
  527MOL0     H72660  10.663   4.332   3.133  1.8437 -0.0297 -0.5581
  527MOL0     H72661  10.799   4.183   3.002  0.1275  0.7941 -1.7287
  527MOL0     H72662  10.753   4.046   3.103  0.3130 -0.5063 -2.1809
  527MOL0     H72663  10.507   4.086   3.040 -0.3560  0.9513 -1.4229
  527MOL0     H72664  10.556   4.190   2.910  1.1576 -0.0397 -1.9395
  527MOL0     H72665  10.686   3.995   2.820  1.3443  0.7150  2.0692
  527MOL0     H72666  10.613   3.898   2.955 -0.0469 -0.7026 -1.0542
  527MOL0     H72667  10.415   4.043   2.778 -0.0951  0.6246  1.0197
  527MOL0     H72668  10.402   3.901   2.896  2.4337 -1.9259  1.4262
  527MOL0     H72669  10.364   3.815   2.697  0.8504 -3.3685  2.1502
  527MOL0     H72670  10.501   3.911   2.616  2.7046 -1.8768 -0.7608
  527MOL0     H72671  10.527   3.659   2.801 -1.6329  1.4766  0.5539
  527MOL0     H72672  10.659   3.764   2.755  0.4233 -2.8175  1.9960
  527MOL0     H72673  10.577   3.728   2.505  1.9192 -1.3553 -0.1237
  527MOL0     H72674  10.674   3.615   2.587  0.3469  1.6415  0.0899
  527MOL0     H72675  10.522   3.436   2.393 -0.9245  1.3189 -2.0933
  527MOL0     H72676  10.181   3.264   2.445 -1.4752  1.5265  0.1481
  527MOL0     H72677  10.353   3.215   2.397  1.8835  1.0438  1.6044
  527MOL0     H72678  10.174   3.428   2.262 -0.4660 -1.7178  1.6620
  527MOL0     H72679  10.301   3.337   2.176 -0.5430 -0.6167 -1.1402
  527MOL0     H72680  10.157   3.136   2.171  1.6150 -0.1557 -0.9890
  527MOL0     H72681  10.032   3.232   2.250  2.6755  2.5725  0.2451
  527MOL0     H72682   9.992   3.229   2.015  1.0051 -0.0743  0.0265
  527MOL0     H72683  10.062   3.390   2.032  1.5182  0.0011  1.9692
  527MOL0     H72684  10.089   3.453   1.812  0.5504  0.6260 -1.0655
  527MOL0     H72685   9.995   3.518   1.518 -1.0348 -0.5999  2.1129
  527MOL0     H72686  10.165   3.553   1.471 -0.9179 -1.1904 -1.8212
  527MOL0     H72687  10.100   3.614   1.619 -0.1478 -0.1547  1.0330
  527MOL0     H72688  10.061   3.054   1.155  0.3407  0.1474 -0.1945
  527MOL0     H72689  10.097   3.037   0.899 -1.9045  0.9962  0.9328
  527MOL0     H72690  10.185   2.995   0.718 -2.8197 -0.4818  0.9551
  527MOL0     H72691  10.090   3.146   0.682 -0.9463 -3.1540 -2.1261
  527MOL0     H72692  10.348   3.118   0.533  0.7462 -2.5259  2.2659
  527MOL0     H72693  10.230   3.000   0.502  0.7193 -0.0972  1.3843
  527MOL0     H72694  10.159   3.310   0.480 -2.7184 -0.7774 -0.3257
  527MOL0     H72695  10.063   3.165   0.440  1.4248 -1.0032  0.8687
  527MOL0     H72696  10.229   3.084   0.287  0.4919 -0.4704  1.2589
  527MOL0     H72697  10.321   3.227   0.305  0.4095  0.0848 -0.3901
  527MOL0     H72698  10.112   3.361   0.230  1.6990  1.0493  1.5743
  527MOL0     H72699  10.176   3.263   0.101 -4.7016 -0.5611 -1.3282
  527MOL0     H72700   9.912   3.208   0.246  0.1976  3.1370 -1.7783
  527MOL0     H72701  10.009   3.074   0.214 -1.2899 -0.1414  0.1323
  527MOL0     H72702  10.020   3.115  -0.021  0.6011  1.0510 -1.1460
  527MOL0     H72703   9.975   3.289   0.003  3.1780  0.2925  1.9219
  527MOL0     H72704   9.789   3.058   0.086  1.5239  0.5414 -0.5542
  527MOL0     H72705   9.790   3.120  -0.078  0.4376  1.4083 -0.1101
  527MOL0     H72706  10.457   3.258   0.928 -1.1324 -2.4356 -2.3114
  527MOL0     H72707  10.435   3.276   1.181  0.1837 -0.8990  0.9738
  527MOL0     H72708  10.284   3.110   1.533  1.0289  0.7948 -1.3369
  527MOL0     H72709  10.271   3.075   1.778 -2.8089 -1.1819 -0.5473
  527MOL0     H72710  10.322   4.194   3.132 -4.4551  0.9173  0.7856
  527MOL0     H72711  10.172   4.349   3.157  0.2336 -1.7024 -0.8840
  527MOL0     H72712   9.936   4.584   3.430  0.8811 -1.1673 -1.9796
  527MOL0     H72713   9.736   4.713   3.488 -1.5343  1.8316 -0.0765
  527MOL0     H72714   9.580   5.098   3.516 -2.4744 -0.1418 -2.8362
  527MOL0     H72715   9.754   5.110   3.486  1.1104 -0.7919 -1.5681
  527MOL0     H72716   9.553   5.147   3.274  1.5029 -3.5718  0.7223
  527MOL0     H72717   9.720   5.203   3.259 -1.8515  2.7627 -0.4241
  527MOL0     H72718   9.581   5.408   3.302  4.2088  2.6990  1.2955
  527MOL0     H72719   9.505   5.341   3.438 -2.4877  3.5508 -1.9094
  527MOL0     H72720   9.746   5.354   3.548  0.3242  2.9278  1.7508
  527MOL0     H72721   9.662   5.502   3.492 -2.7102 -2.2337  1.5969
  527MOL0     H72722   9.988   5.566   3.280 -0.3168  2.0426  1.1900
  527MOL0     H72723   9.872   5.038   3.246 -0.3228  0.3805 -0.4681
  527MOL0     H72724  10.067   5.046   3.118  1.0913  0.1674 -1.7103
  527MOL0     H72725  10.194   4.935   3.164  0.4541  0.7332 -2.3026
  527MOL0     H72726  10.081   4.889   3.038 -0.9760  1.6932 -0.8514
  528MOL0     O72727   9.533   6.746   1.517  0.2935 -0.1875  0.1107
  528MOL0     C72728   9.506   6.628   1.540 -0.5694 -0.4029  0.5667
  528MOL0     O72729   9.515   6.529   1.437 -0.0141 -0.4675 -1.2993
  528MOL0     C72730   9.539   6.580   1.310 -0.6940  0.2923 -0.4344
  528MOL0     C72731   9.657   6.547   1.239  0.1496 -1.4033 -0.0366
  528MOL0     C72732   9.671   6.584   1.104 -0.0772  0.9622 -0.5535
  528MOL0     C72733   9.573   6.653   1.037 -0.1364  0.1826  0.3917
  528MOL0     O72734   9.583   6.677   0.903 -0.2546 -0.3096  0.1838
  528MOL0     C72735   9.719   6.706   0.854 -0.6117 -0.1673  0.1072
  528MOL0     C72736   9.729   6.655   0.706 -0.5424 -0.1524 -0.3739
  528MOL0     C72737   9.873   6.681   0.664 -0.6195 -0.2046 -0.9417
  528MOL0     C72738   9.896   6.666   0.518 -0.2473  0.7210  0.1471
  528MOL0     C72739   9.909   6.523   0.461  0.3973 -0.1151 -1.0394
  528MOL0     C72740   9.966   6.525   0.320 -0.7844  0.4530 -0.6350
  528MOL0     C72741   9.994   6.393   0.242 -0.0291 -0.1256 -0.4323
  528MOL0     C72742   9.869   6.310   0.220  0.1330  0.2607  0.0714
  528MOL0     N72743   9.885   6.169   0.215 -0.1571  0.1122  0.3935
  528MOL0     C72744   9.793   6.086   0.151  0.7785  0.0538 -0.4952
  528MOL0     C72745   9.850   5.961   0.167 -0.8581  0.1782 -1.0845
  528MOL0     C72746   9.781   5.838   0.123 -0.1941  0.4618 -0.1379
  528MOL0     C72747   9.839   5.771  -0.006  0.1623  0.0752 -0.8925
  528MOL0     C72748   9.848   5.877  -0.115 -0.7851  0.2039  0.6917
  528MOL0     C72749   9.912   5.826  -0.241 -0.7623  0.3273  0.6788
  528MOL0     O72750  10.043   5.783  -0.197  0.1229 -0.5083  0.0768
  528MOL0     C72751  10.133   5.782  -0.293 -1.6148  0.4363  1.1263
  528MOL0     C72752  10.206   5.895  -0.331 -0.5092 -0.0812 -0.1356
  528MOL0     C72753  10.307   5.885  -0.422  0.1000 -0.7875 -0.4399
  528MOL0     C72754  10.413   6.003  -0.417  0.1461 -0.0602  0.3753
  528MOL0     C72755  10.333   5.771  -0.490 -0.4945 -0.1053 -0.1608
  528MOL0     C72756  10.445   5.764  -0.589 -0.0279  0.7649 -0.5592
  528MOL0     O72757  10.424   5.671  -0.687 -0.2552  0.2275 -0.0021
  528MOL0     C72758  10.488   5.676  -0.810  0.6807  1.1722 -0.0299
  528MOL0     C72759  10.410   5.684  -0.928  0.4234  0.6889  0.7162
  528MOL0     C72760  10.476   5.669  -1.048 -0.1858  0.4256 -0.2800
  528MOL0     C72761  10.617   5.647  -1.054 -0.6889  0.5790  0.6211
  528MOL0     O72762  10.658   5.645  -1.183 -0.4038 -0.5348 -0.4005
  528MOL0     C72763  10.802   5.616  -1.203 -0.0841 -0.7951 -0.1583
  528MOL0     C72764  10.819   5.603  -1.356  0.2726 -0.8030 -0.8745
  528MOL0     C72765  10.961   5.557  -1.375  0.0502 -0.3466 -0.3200
  528MOL0     C72766  10.986   5.411  -1.340 -0.8691 -0.4436  0.3599
  528MOL0     C72767  11.132   5.373  -1.370  0.5315  0.7138  0.4658
  528MOL0     C72768  11.167   5.354  -1.521  0.0240  0.5497  0.5240
  528MOL0     C72769  11.312   5.306  -1.529  0.2099  1.3104 -0.0376
  528MOL0     C72770  11.370   5.325  -1.674 -0.4638  0.4217  0.0248
  528MOL0    Cl72771  11.418   5.498  -1.693  0.1362  0.0755  0.6682
  528MOL0     C72772  10.690   5.640  -0.937 -1.2791  0.5007  0.2332
  528MOL0     C72773  10.627   5.654  -0.813 -0.4339 -0.2864  0.2721
  528MOL0     O72774  10.547   5.836  -0.578 -1.0841  0.7279  1.0450
  528MOL0     C72775  10.259   5.656  -0.456  0.1878 -0.2262  0.2158
  528MOL0     C72776  10.156   5.662  -0.355  0.4044 -0.1797  0.5290
  528MOL0     N72777   9.967   5.972   0.238 -0.0798 -0.0187  0.3003
  528MOL0     N72778   9.993   6.093   0.258 -0.6696 -0.6018  0.5510
  528MOL0     C72779   9.467   6.694   1.098 -0.5701 -1.0667 -0.3188
  528MOL0     C72780   9.443   6.654   1.236 -0.0761  0.8776  0.6441
  528MOL0     C72781   9.487   6.580   1.684 -0.2564  0.8172 -0.4310
  528MOL0     C72782   9.499   6.441   1.710  0.3253  0.0161  0.3657
  528MOL0     C72783   9.446   6.387   1.824 -0.9495  0.2315  0.4705
  528MOL0     C72784   9.395   6.473   1.921  0.0445  1.1701 -0.3391
  528MOL0     O72785   9.345   6.430   2.042  0.1257 -0.2508 -0.8173
  528MOL0     C72786   9.332   6.298   2.088 -0.4577 -0.2805 -0.0719
  528MOL0     C72787   9.236   6.212   2.006  0.3611  0.8692 -0.7257
  528MOL0     C72788   9.199   6.084   2.075  0.3823 -0.3768  0.7215
  528MOL0     C72789   9.103   6.004   1.995 -0.4380  1.2783  0.9684
  528MOL0     C72790   9.074   5.859   2.034  0.0565  0.2464  0.9286
  528MOL0     C72791   9.066   5.740   2.076 -0.6726 -1.1094  0.4839
  528MOL0     C72792   9.387   6.608   1.903  0.8476 -0.7647 -1.2134
  528MOL0     C72793   9.435   6.662   1.791  0.6623 -0.3689 -0.1115
  528MOL0     C72794   9.442   6.813   1.784  0.9941 -0.3968  1.2309
  528MOL0     H72795   9.727   6.485   1.295 -0.4999 -1.4140  0.7863
  528MOL0     H72796   9.757   6.537   1.056 -0.4448  2.2441 -2.5901
  528MOL0     H72797   9.806   6.656   0.899 -1.9388 -1.0001  1.8888
  528MOL0     H72798   9.737   6.814   0.859  1.2641 -0.4032 -0.4583
  528MOL0     H72799   9.700   6.551   0.689 -0.9410 -0.0398 -0.3926
  528MOL0     H72800   9.650   6.716   0.661 -0.7383  1.8096  2.3745
  528MOL0     H72801   9.912   6.779   0.694 -2.2814  1.0456 -2.6487
  528MOL0     H72802   9.936   6.608   0.716 -1.4630  0.9900  1.9218
  528MOL0     H72803   9.824   6.719   0.456 -0.6122  0.5894  0.4541
  528MOL0     H72804   9.990   6.719   0.499 -0.4111  1.0711  0.3001
  528MOL0     H72805   9.808   6.481   0.455  0.8264 -2.0202  2.4850
  528MOL0     H72806   9.962   6.458   0.531 -0.4266  0.2424 -0.0504
  528MOL0     H72807   9.899   6.592   0.265 -2.0772  0.4431  0.8806
  528MOL0     H72808  10.062   6.578   0.316  0.3553 -1.4212  0.4189
  528MOL0     H72809  10.058   6.335   0.309 -1.1103  2.1980  2.9051
  528MOL0     H72810  10.036   6.408   0.142 -3.8355  0.0681 -2.2087
  528MOL0     H72811   9.794   6.317   0.300 -0.3923 -0.3625 -0.3545
  528MOL0     H72812   9.810   6.344   0.135  0.2319 -2.8614 -1.4100
  528MOL0     H72813   9.699   6.109   0.103 -0.6172  0.8488  2.3812
  528MOL0     H72814   9.674   5.860   0.117 -0.8790 -2.6338 -1.6761
  528MOL0     H72815   9.792   5.759   0.198 -0.4233  0.4494 -0.1174
  528MOL0     H72816   9.941   5.739   0.014  0.3036  1.8281  1.6398
  528MOL0     H72817   9.781   5.686  -0.043 -0.0533 -1.9338  3.4292
  528MOL0     H72818   9.746   5.909  -0.136 -0.4691  0.8642  0.1088
  528MOL0     H72819   9.909   5.959  -0.076 -1.4265  2.1064 -2.0245
  528MOL0     H72820   9.847   5.751  -0.288  0.2959  1.3841 -2.8040
  528MOL0     H72821   9.915   5.911  -0.311  0.7388 -0.7885 -0.6849
  528MOL0     H72822  10.194   5.973  -0.257 -0.9752 -0.2702 -0.0091
  528MOL0     H72823  10.444   6.036  -0.517  1.8782 -0.8744  0.5924
  528MOL0     H72824  10.508   5.970  -0.374  0.4228  2.5134  1.9196
  528MOL0     H72825  10.373   6.092  -0.370  1.2172 -1.3042  3.9440
  528MOL0     H72826  10.303   5.696  -0.926  0.4869  1.3566  0.4369
  528MOL0     H72827  10.436   5.686  -1.147  0.2129 -0.8929 -0.6795
  528MOL0     H72828  10.859   5.706  -1.177 -2.0178  1.4708 -3.0798
  528MOL0     H72829  10.837   5.530  -1.145  0.7623  0.8759  1.9266
  528MOL0     H72830  10.746   5.539  -1.405 -0.2502  0.7727 -2.2780
  528MOL0     H72831  10.807   5.697  -1.412 -0.4068 -1.2859 -1.5541
  528MOL0     H72832  11.027   5.627  -1.322 -3.5337  1.9029  1.6027
  528MOL0     H72833  10.980   5.580  -1.480 -0.4046  1.3718 -0.0603
  528MOL0     H72834  10.913   5.354  -1.399 -0.5192  0.3042 -0.8417
  528MOL0     H72835  10.964   5.390  -1.235  0.6071  1.1970  1.0555
  528MOL0     H72836  11.199   5.452  -1.334  0.3143  0.6467  1.0266
  528MOL0     H72837  11.151   5.283  -1.311 -2.2008  0.5536  1.2437
  528MOL0     H72838  11.152   5.447  -1.576 -0.3905  1.4549  2.1128
  528MOL0     H72839  11.105   5.278  -1.569  0.1709  0.2614  0.7837
  528MOL0     H72840  11.310   5.197  -1.521 -0.1089  1.2169 -1.2020
  528MOL0     H72841  11.377   5.350  -1.454  0.4856 -0.0697  0.5649
  528MOL0     H72842  11.293   5.291  -1.744 -1.8625  1.4624  1.0080
  528MOL0     H72843  11.456   5.258  -1.684 -0.4919  0.2357  0.8918
  528MOL0     H72844  10.798   5.649  -0.926 -1.4601  3.8132  0.2307
  528MOL0     H72845  10.669   5.644  -0.713 -0.8792  0.4587  0.5382
  528MOL0     H72846  10.291   5.572  -0.517 -0.6875 -1.6578  1.6322
  528MOL0     H72847  10.098   5.576  -0.324 -1.4501  1.2876  1.3385
  528MOL0     H72848   9.387   6.752   1.055 -1.4866  0.9089  3.5596
  528MOL0     H72849   9.348   6.675   1.284  0.7596  0.6411  2.4838
  528MOL0     H72850   9.523   6.369   1.633  3.4527  1.7538 -0.4900
  528MOL0     H72851   9.455   6.280   1.839  3.5558  0.5721  1.4758
  528MOL0     H72852   9.432   6.257   2.101 -0.9524 -1.4395  0.2347
  528MOL0     H72853   9.284   6.309   2.186 -1.0753 -3.9755  0.1844
  528MOL0     H72854   9.271   6.184   1.906  2.3083  0.0936  0.1185
  528MOL0     H72855   9.149   6.276   1.989 -0.7791 -0.0913  1.1972
  528MOL0     H72856   9.289   6.023   2.089  0.8920  0.5492  1.6205
  528MOL0     H72857   9.146   6.104   2.169  1.7385  0.4321  1.3453
  528MOL0     H72858   9.159   5.994   1.901 -0.0289  0.4887  1.2882
  528MOL0     H72859   9.011   6.060   1.973 -0.9308  1.0539  2.3903
  528MOL0     H72860   9.049   5.639   2.108 -3.2061 -0.1021  2.6948
  528MOL0     H72861   9.340   6.672   1.976 -0.3073 -1.5706 -1.2244
  528MOL0     H72862   9.435   6.861   1.881  0.2931 -1.1302  1.5510
  528MOL0     H72863   9.538   6.840   1.739  0.8890  2.0406  2.3235
  528MOL0     H72864   9.360   6.862   1.730  0.0289 -1.7434  1.4090
  529MOL0     O72865  10.075  11.254   9.329  0.5991 -0.7116  0.5503
  529MOL0     C72866  10.079  11.223   9.206  1.6929  0.0071 -0.5651
  529MOL0     O72867   9.971  11.173   9.136  0.8246  0.8073  0.5416
  529MOL0     C72868   9.884  11.088   9.206  0.5866 -0.6435 -0.4069
  529MOL0     C72869   9.859  10.950   9.171  0.4029 -1.1178  0.2663
  529MOL0     C72870   9.746  10.885   9.228 -1.1137  0.1764 -0.0005
  529MOL0     C72871   9.684  10.937   9.338  0.6388  0.0962  0.0693
  529MOL0     O72872   9.569  10.885   9.381  0.3912  0.2211  0.3651
  529MOL0     C72873   9.517  10.760   9.352  0.5841  0.7931  0.1063
  529MOL0     C72874   9.382  10.775   9.284  0.3272  0.4283  0.3422
  529MOL0     C72875   9.319  10.643   9.217 -0.1291  0.6595  1.1309
  529MOL0     C72876   9.337  10.521   9.316  0.5315  0.0101 -0.1570
  529MOL0     C72877   9.252  10.396   9.289 -0.5715  0.4841  0.5737
  529MOL0     C72878   9.290  10.278   9.362 -0.1013  0.7682 -0.4534
  529MOL0     C72879   9.207  10.144   9.338  1.1467 -0.1428  0.7651
  529MOL0     C72880   9.266  10.033   9.243 -0.3854 -0.6643 -0.7007
  529MOL0     N72881   9.294  10.080   9.112 -0.3368 -0.5376  0.1235
  529MOL0     C72882   9.204  10.130   9.017 -0.3071 -0.0327  0.0768
  529MOL0     C72883   9.283  10.145   8.908  1.2039 -0.5726  0.4207
  529MOL0     C72884   9.225  10.211   8.783  0.1357 -0.5280 -0.1855
  529MOL0     C72885   9.180  10.358   8.800  0.4686 -0.6313  0.3645
  529MOL0     C72886   9.305  10.439   8.848 -0.1433 -0.2670  0.2477
  529MOL0     C72887   9.269  10.586   8.840  0.1795 -0.0282  0.2356
  529MOL0     O72888   9.151  10.609   8.908 -0.4524  0.6968 -0.4595
  529MOL0     C72889   9.097  10.738   8.889  0.4163  0.3934 -0.3642
  529MOL0     C72890   8.976  10.758   8.957 -0.0794 -0.2560 -0.3955
  529MOL0     C72891   8.910  10.890   8.950 -0.5000 -0.3298  0.0438
  529MOL0     C72892   8.798  10.916   9.050  0.3070  0.5016 -0.4820
  529MOL0     C72893   8.967  10.998   8.884  0.0024 -0.1221  1.1755
  529MOL0     C72894   8.908  11.136   8.870  0.3134  0.1668 -0.6586
  529MOL0     O72895   8.775  11.161   8.887 -0.1629  0.4198  0.2186
  529MOL0     C72896   8.718  11.277   8.838 -0.5419  0.6613  0.3052
  529MOL0     C72897   8.655  11.282   8.714  0.2567 -0.4578 -0.4028
  529MOL0     C72898   8.580  11.394   8.685 -1.3137 -0.4206  0.5218
  529MOL0     C72899   8.584  11.516   8.766 -0.5718 -0.4189 -0.5073
  529MOL0     O72900   8.514  11.632   8.744 -0.3477  0.3078 -0.4751
  529MOL0     C72901   8.404  11.627   8.657  0.2441 -0.1018  0.4010
  529MOL0     C72902   8.325  11.756   8.670  0.1037 -0.8526  0.2672
  529MOL0     C72903   8.380  11.872   8.578 -0.4284  0.2739 -0.0659
  529MOL0     C72904   8.255  11.960   8.536 -0.0690  0.8001  0.3565
  529MOL0     C72905   8.259  12.056   8.415  1.1517  0.4036 -0.1651
  529MOL0     C72906   8.354  12.174   8.408  0.1030  0.2607  0.1675
  529MOL0     C72907   8.326  12.294   8.500  0.3271  0.8183 -0.2917
  529MOL0     C72908   8.366  12.430   8.450 -1.4618 -0.4456 -0.4157
  529MOL0    Cl72909   8.270  12.471   8.299 -0.4519 -0.0714  0.5425
  529MOL0     C72910   8.667  11.507   8.883  0.7859 -0.1790  0.5185
  529MOL0     C72911   8.729  11.390   8.914  0.3546  0.1849 -0.5444
  529MOL0     O72912   8.995  11.224   8.847  0.7586 -0.2151 -0.2899
  529MOL0     C72913   9.089  10.974   8.816  0.5908  0.3399 -0.9504
  529MOL0     C72914   9.155  10.849   8.827 -0.2338 -0.2577 -0.2600
  529MOL0     N72915   9.402  10.087   8.929 -0.5292  0.6184 -0.8781
  529MOL0     N72916   9.413  10.047   9.053 -0.3055  0.1635 -0.1329
  529MOL0     C72917   9.715  11.068   9.384  0.0714  0.3127  0.2031
  529MOL0     C72918   9.814  11.142   9.318 -0.0018  0.6255 -0.6733
  529MOL0     C72919  10.193  11.259   9.118 -0.2594 -0.3055 -0.3105
  529MOL0     C72920  10.298  11.330   9.189  0.7471 -0.2465  0.2240
  529MOL0     C72921  10.409  11.374   9.117 -0.9721 -0.2472 -0.3612
  529MOL0     C72922  10.428  11.353   8.985  0.6391  1.0987  0.5740
  529MOL0     O72923  10.543  11.416   8.925 -0.1259  0.1217 -0.8990
  529MOL0     C72924  10.584  11.371   8.793  0.0980  0.3301 -0.4076
  529MOL0     C72925  10.506  11.447   8.682 -0.7419 -0.2393 -1.3378
  529MOL0     C72926  10.524  11.392   8.541 -0.5747  1.0636 -0.0705
  529MOL0     C72927  10.432  11.273   8.502  0.1575 -0.2924  1.9545
  529MOL0     C72928  10.427  11.268   8.356  0.1922 -0.9450 -0.8804
  529MOL0     C72929  10.444  11.259   8.233  0.5687 -0.0074  0.2567
  529MOL0     C72930  10.328  11.273   8.913 -0.4232 -0.3186 -0.5488
  529MOL0     C72931  10.211  11.238   8.977  0.4083  0.7323  0.6492
  529MOL0     C72932  10.109  11.153   8.901  0.5433 -0.0015  1.3515
  529MOL0     H72933   9.905  10.896   9.089 -0.3547  0.3890 -1.2267
  529MOL0     H72934   9.720  10.793   9.177  1.6463 -1.1213  0.7575
  529MOL0     H72935   9.498  10.710   9.447 -2.2495 -1.4327 -1.4675
  529MOL0     H72936   9.590  10.697   9.300 -1.5440  0.6722 -3.0337
  529MOL0     H72937   9.309  10.800   9.362  1.0230  0.2558  1.0536
  529MOL0     H72938   9.399  10.851   9.206 -1.6023  1.9195  1.2893
  529MOL0     H72939   9.212  10.643   9.198  0.0329 -0.3114  0.1224
  529MOL0     H72940   9.360  10.623   9.118 -3.7766  1.3068 -0.6662
  529MOL0     H72941   9.439  10.482   9.309  0.8672  1.1136 -2.8520
  529MOL0     H72942   9.309  10.545   9.419 -0.6938 -1.3699 -0.1268
  529MOL0     H72943   9.260  10.377   9.181  3.0976  2.3623  0.3295
  529MOL0     H72944   9.145  10.414   9.303 -1.4084 -3.0819 -0.2484
  529MOL0     H72945   9.390  10.241   9.341 -0.4292 -1.0879  0.9585
  529MOL0     H72946   9.286  10.304   9.468 -1.0993 -1.0101 -0.0005
  529MOL0     H72947   9.108  10.165   9.295  0.3664  0.8276  2.9186
  529MOL0     H72948   9.180  10.094   9.432 -1.2936 -1.8408 -0.7023
  529MOL0     H72949   9.365   9.997   9.273 -1.0160 -2.0562 -0.2119
  529MOL0     H72950   9.202   9.946   9.229  0.9516 -1.3836 -2.8888
  529MOL0     H72951   9.104  10.172   9.029 -0.5921 -0.6737  0.0065
  529MOL0     H72952   9.143  10.156   8.736 -0.2065 -0.1573 -0.0222
  529MOL0     H72953   9.305  10.213   8.708  2.8315 -0.3224  2.5066
  529MOL0     H72954   9.163  10.401   8.701 -0.1115  1.2508  1.2390
  529MOL0     H72955   9.085  10.385   8.846  0.9317  1.4558  0.2151
  529MOL0     H72956   9.321  10.429   8.956  1.6530  3.5095  0.4765
  529MOL0     H72957   9.393  10.420   8.787 -1.4564 -0.0378 -1.8334
  529MOL0     H72958   9.354  10.648   8.869 -1.0212  1.4739  0.6789
  529MOL0     H72959   9.244  10.608   8.736 -2.4693 -3.0561  0.0806
  529MOL0     H72960   8.932  10.685   9.024  0.0745 -0.3547 -0.4029
  529MOL0     H72961   8.790  10.835   9.123  1.2338  1.5275  0.8331
  529MOL0     H72962   8.700  10.921   9.002 -1.1521  0.1451  2.2357
  529MOL0     H72963   8.813  11.004   9.114 -0.3535  0.2337  0.0503
  529MOL0     H72964   8.667  11.197   8.649  2.6340 -0.5287  0.0675
  529MOL0     H72965   8.523  11.385   8.594  1.2451 -2.5329 -1.0396
  529MOL0     H72966   8.447  11.619   8.556  0.3496  1.0078  0.3459
  529MOL0     H72967   8.344  11.539   8.682  2.4200 -2.4706 -1.9995
  529MOL0     H72968   8.221  11.734   8.645  0.8583 -2.0017 -2.2322
  529MOL0     H72969   8.333  11.788   8.774  0.6535 -1.1476  0.3206
  529MOL0     H72970   8.424  11.835   8.486 -0.4427  0.9148 -0.3385
  529MOL0     H72971   8.456  11.926   8.635  1.7717 -1.6710 -1.0297
  529MOL0     H72972   8.228  12.020   8.624 -0.1593  0.2313  0.7214
  529MOL0     H72973   8.175  11.890   8.509  2.3108 -1.9731 -0.0905
  529MOL0     H72974   8.283  11.988   8.333  5.0352  0.6199  0.5755
  529MOL0     H72975   8.165  12.106   8.394  0.1059 -1.0436  0.8789
  529MOL0     H72976   8.351  12.203   8.302 -2.2673 -2.9469 -0.7890
  529MOL0     H72977   8.457  12.136   8.418  1.3151  1.6954 -4.3386
  529MOL0     H72978   8.376  12.266   8.594 -0.4592  2.5612  0.6951
  529MOL0     H72979   8.221  12.299   8.530  0.7004 -3.9179  2.9907
  529MOL0     H72980   8.473  12.411   8.436 -2.1074 -3.2945 -2.3980
  529MOL0     H72981   8.344  12.503   8.529  0.4637  0.2996 -0.5170
  529MOL0     H72982   8.687  11.606   8.925 -1.8970 -0.0816  1.8076
  529MOL0     H72983   8.787  11.379   9.005 -1.0026 -2.7201  0.0760
  529MOL0     H72984   9.142  11.046   8.754 -0.2925  0.8816 -1.0881
  529MOL0     H72985   9.254  10.834   8.786 -0.5925 -1.8549 -0.5964
  529MOL0     H72986   9.654  11.101   9.467 -0.3615 -2.0786  0.9182
  529MOL0     H72987   9.835  11.240   9.357  2.3184  1.1573 -2.9237
  529MOL0     H72988  10.289  11.362   9.292 -0.5407 -0.2415  0.1194
  529MOL0     H72989  10.487  11.425   9.172 -1.7193  0.6811 -0.1161
  529MOL0     H72990  10.692  11.385   8.779  0.5479 -1.0494  1.4091
  529MOL0     H72991  10.575  11.263   8.789  3.9667 -0.1322 -0.6741
  529MOL0     H72992  10.557  11.543   8.679 -0.6043 -0.1818  0.9536
  529MOL0     H72993  10.399  11.457   8.705 -0.5232  0.4509 -0.5729
  529MOL0     H72994  10.512  11.476   8.473 -0.2397  0.8182 -0.4410
  529MOL0     H72995  10.628  11.359   8.541 -1.3784 -1.7788  0.8892
  529MOL0     H72996  10.327  11.284   8.528  0.5789  0.2722  3.5948
  529MOL0     H72997  10.477  11.182   8.544  2.3270 -0.8607 -1.2366
  529MOL0     H72998  10.456  11.234   8.130  2.2725 -1.3602  0.7304
  529MOL0     H72999  10.348  11.233   8.814 -1.0647 -1.6951 -0.1344
  529MOL0     H73000  10.015  11.208   8.898  0.9537  0.7121 -0.9195
  529MOL0     H73001  10.131  11.140   8.795  0.0112  1.8617  0.9796
  529MOL0     H73002  10.101  11.054   8.947 -1.6670 -0.9374 -0.8390
  530MOL0     O73003   5.642   7.906   2.550  0.0400  0.6726 -0.7714
  530MOL0     C73004   5.665   7.806   2.613  0.6220 -0.6972 -0.4797
  530MOL0     O73005   5.807   7.765   2.643  0.3124  0.3472  0.4798
  530MOL0     C73006   5.913   7.851   2.637  0.2100 -0.4872  0.2215
  530MOL0     C73007   6.038   7.807   2.695  0.0109 -0.0316  0.1669
  530MOL0     C73008   6.156   7.874   2.668  0.5080 -0.6055 -0.8578
  530MOL0     C73009   6.162   7.991   2.589  0.6541  0.2821  1.1035
  530MOL0     O73010   6.282   8.049   2.565  0.3068  0.1937  0.4324
  530MOL0     C73011   6.402   7.967   2.546  0.5290 -0.5705 -0.0655
  530MOL0     C73012   6.511   8.041   2.452  0.1034 -0.8351  0.3109
  530MOL0     C73013   6.448   8.086   2.315 -0.0659  0.7410  0.2143
  530MOL0     C73014   6.437   7.975   2.213  0.7588 -0.5988 -0.4015
  530MOL0     C73015   6.349   8.027   2.095  0.1086 -1.4568 -0.1995
  530MOL0     C73016   6.441   8.098   1.985  0.0900  0.0198 -0.2346
  530MOL0     C73017   6.359   8.141   1.857 -0.0801  0.2522 -0.8539
  530MOL0     C73018   6.449   8.182   1.728 -0.1449 -0.1539 -1.3041
  530MOL0     N73019   6.568   8.262   1.768  0.3202  0.4770  0.2718
  530MOL0     C73020   6.694   8.207   1.787  0.5241 -0.3636  0.4849
  530MOL0     C73021   6.770   8.305   1.831 -0.0949 -0.8477 -0.6191
  530MOL0     C73022   6.914   8.298   1.883 -1.0279 -0.0956  0.0185
  530MOL0     C73023   6.938   8.276   2.034 -0.2205 -1.0338 -0.2892
  530MOL0     C73024   6.872   8.144   2.088 -0.2503  0.2972  0.5249
  530MOL0     C73025   6.956   8.024   2.044 -0.4349 -0.4506  0.4818
  530MOL0     O73026   6.907   7.905   2.104  0.4957 -1.0188  0.1870
  530MOL0     C73027   6.796   7.844   2.036  0.4252 -0.0591 -0.7544
  530MOL0     C73028   6.768   7.856   1.900  0.7385  0.4467 -0.1973
  530MOL0     C73029   6.650   7.794   1.844  0.1800 -0.0593 -0.7389
  530MOL0     C73030   6.607   7.826   1.705  0.7527  0.2529 -0.1631
  530MOL0     C73031   6.575   7.716   1.929 -0.3281  1.7283 -0.1451
  530MOL0     C73032   6.442   7.663   1.883  0.4948  0.3440 -0.4120
  530MOL0     O73033   6.356   7.748   1.838 -0.0486  0.8785 -0.0992
  530MOL0     C73034   6.237   7.689   1.813  0.6886 -0.7521  0.2230
  530MOL0     C73035   6.215   7.621   1.693  0.4370  0.1114  0.1149
  530MOL0     C73036   6.088   7.562   1.676  0.2971  0.0943 -0.2085
  530MOL0     C73037   5.987   7.564   1.770  0.5755  0.5137 -0.7816
  530MOL0     O73038   5.867   7.519   1.734 -0.6898  0.1451  0.3347
  530MOL0     C73039   5.756   7.566   1.810  0.6601 -0.5615 -0.6809
  530MOL0     C73040   5.619   7.538   1.761  0.3596 -0.2727  0.6438
  530MOL0     C73041   5.589   7.396   1.722 -0.8328  0.4096 -0.1389
  530MOL0     C73042   5.441   7.384   1.695 -0.3333  0.8389 -0.2394
  530MOL0     C73043   5.409   7.236   1.665 -1.3440 -0.5585  0.8988
  530MOL0     C73044   5.259   7.219   1.632  0.7175 -0.5089 -0.0474
  530MOL0     C73045   5.159   7.244   1.755  0.6721 -0.2903 -0.1955
  530MOL0     C73046   5.149   7.139   1.869 -1.1519 -0.5474  0.2079
  530MOL0    Cl73047   5.303   7.074   1.930  0.0921 -0.9100  0.0757
  530MOL0     C73048   6.026   7.625   1.888  0.9056  0.2356 -0.0211
  530MOL0     C73049   6.146   7.686   1.911  0.6319  0.2898  0.4096
  530MOL0     O73050   6.428   7.541   1.903  0.8372 -0.2172  0.1809
  530MOL0     C73051   6.607   7.709   2.064  0.0504 -0.1788 -1.0666
  530MOL0     C73052   6.714   7.773   2.117  0.8753  0.6769  0.3037
  530MOL0     N73053   6.694   8.425   1.823 -0.3821 -0.2136 -0.1908
  530MOL0     N73054   6.576   8.395   1.782 -0.0069  0.4462  0.1285
  530MOL0     C73055   6.046   8.049   2.539 -0.5530  0.0601  0.9444
  530MOL0     C73056   5.921   7.980   2.562  0.0636  0.1208  0.4537
  530MOL0     C73057   5.553   7.736   2.668  0.0289 -0.2466 -0.0011
  530MOL0     C73058   5.574   7.664   2.792  0.5562  0.6384 -0.3436
  530MOL0     C73059   5.471   7.599   2.855 -0.0304  1.2131  0.1273
  530MOL0     C73060   5.348   7.586   2.798 -0.3451 -0.7427  0.1555
  530MOL0     O73061   5.253   7.506   2.848 -0.7959  0.7643 -0.0230
  530MOL0     C73062   5.152   7.566   2.929 -0.3597  0.2622  0.0353
  530MOL0     C73063   5.205   7.587   3.072 -0.2797  0.3339 -0.6234
  530MOL0     C73064   5.092   7.655   3.158 -0.2696  0.3416 -0.1724
  530MOL0     C73065   4.976   7.557   3.179 -0.6843  0.5070 -0.2686
  530MOL0     C73066   4.883   7.616   3.281 -0.0424 -0.3157  0.0388
  530MOL0     C73067   4.791   7.640   3.361 -0.6656 -0.3009  0.0462
  530MOL0     C73068   5.321   7.645   2.673 -0.7373  0.3577 -0.6857
  530MOL0     C73069   5.423   7.725   2.611  0.2634  0.2817  0.7473
  530MOL0     C73070   5.388   7.805   2.486 -0.3642  0.1629 -1.1349
  530MOL0     H73071   6.042   7.705   2.732 -0.6086 -0.7435 -1.6112
  530MOL0     H73072   6.242   7.829   2.716 -1.2141 -2.0520  1.0424
  530MOL0     H73073   6.380   7.871   2.499 -1.5038  1.3353 -3.3750
  530MOL0     H73074   6.447   7.952   2.644  0.1348  1.7126  0.5383
  530MOL0     H73075   6.537   8.129   2.511 -0.9426 -1.2669  1.4579
  530MOL0     H73076   6.597   7.975   2.437 -1.9735 -3.6237 -0.2529
  530MOL0     H73077   6.354   8.131   2.348 -0.3793 -0.8270  1.6365
  530MOL0     H73078   6.511   8.165   2.274 -0.5577  0.6298 -0.8054
  530MOL0     H73079   6.540   7.950   2.186  1.0828  1.6734 -1.5309
  530MOL0     H73080   6.391   7.889   2.262  1.7697  0.4509  2.6184
  530MOL0     H73081   6.268   8.094   2.123  0.9422 -0.6257  0.2691
  530MOL0     H73082   6.304   7.939   2.048 -1.8200 -1.3759  1.3504
  530MOL0     H73083   6.485   8.188   2.030  0.9358  0.4125 -1.7637
  530MOL0     H73084   6.528   8.039   1.952  0.5367  0.8024 -0.4933
  530MOL0     H73085   6.293   8.224   1.886 -0.6269 -0.5139  0.1804
  530MOL0     H73086   6.292   8.060   1.827 -2.1359  1.5673 -0.0415
  530MOL0     H73087   6.475   8.094   1.668  0.4742 -1.7331  1.1165
  530MOL0     H73088   6.384   8.253   1.677 -2.6263 -1.0854  0.3694
  530MOL0     H73089   6.725   8.103   1.786 -2.0959 -1.2132 -0.5302
  530MOL0     H73090   6.959   8.389   1.843 -1.7902 -0.5878 -2.0915
  530MOL0     H73091   6.971   8.220   1.832  2.9704  1.6164  1.4436
  530MOL0     H73092   7.045   8.282   2.055 -0.6972  0.9296  2.0252
  530MOL0     H73093   6.897   8.358   2.094  1.4643 -2.1025  2.4699
  530MOL0     H73094   6.869   8.156   2.197  2.9167  1.4620  0.5972
  530MOL0     H73095   6.770   8.141   2.049 -1.1034  0.9137  2.5565
  530MOL0     H73096   6.961   8.019   1.935 -2.9342 -0.0206  0.2823
  530MOL0     H73097   7.055   8.036   2.088 -0.2643  0.3693 -0.1092
  530MOL0     H73098   6.837   7.904   1.831  1.6744  1.2000  1.2107
  530MOL0     H73099   6.524   7.897   1.713 -0.5267 -1.3345  1.3331
  530MOL0     H73100   6.569   7.735   1.657 -0.8656 -0.2131  1.8392
  530MOL0     H73101   6.688   7.873   1.648  1.4729 -0.2153  0.4535
  530MOL0     H73102   6.286   7.624   1.611 -0.9257  0.3605 -1.0890
  530MOL0     H73103   6.055   7.513   1.585 -1.1566  0.3800  0.1279
  530MOL0     H73104   5.760   7.537   1.916  1.2231  3.1557  0.4534
  530MOL0     H73105   5.762   7.675   1.800  1.2463 -0.4652  0.4688
  530MOL0     H73106   5.550   7.553   1.844  0.1676 -0.2233  0.4745
  530MOL0     H73107   5.591   7.596   1.673 -0.0247  1.5750  1.9282
  530MOL0     H73108   5.634   7.330   1.797  2.3752  0.5522 -1.7530
  530MOL0     H73109   5.648   7.372   1.633 -0.1246  3.8266 -0.7279
  530MOL0     H73110   5.414   7.451   1.613 -0.0449 -3.1296 -3.9513
  530MOL0     H73111   5.382   7.419   1.780 -0.9468  1.3198 -0.8546
  530MOL0     H73112   5.476   7.209   1.583  0.0266  2.4486  0.9129
  530MOL0     H73113   5.436   7.170   1.748  0.1163 -3.3290 -1.5877
  530MOL0     H73114   5.228   7.122   1.594 -5.0433 -0.7226  3.9331
  530MOL0     H73115   5.235   7.293   1.555 -0.6718 -2.1093 -1.2210
  530MOL0     H73116   5.059   7.248   1.711  0.6339 -0.9816 -0.1814
  530MOL0     H73117   5.170   7.341   1.805 -1.5352 -0.2937  0.4197
  530MOL0     H73118   5.093   7.052   1.833 -0.9866 -0.2505 -0.7691
  530MOL0     H73119   5.093   7.188   1.950 -0.8602  2.8344 -1.4763
  530MOL0     H73120   5.955   7.609   1.968 -0.7129 -2.1267 -1.8166
  530MOL0     H73121   6.161   7.728   2.010 -1.3088  1.7394  0.1636
  530MOL0     H73122   6.536   7.664   2.133  0.5831  0.1689 -0.2837
  530MOL0     H73123   6.737   7.761   2.223  4.6854  0.2101 -0.4352
  530MOL0     H73124   6.042   8.141   2.483  1.5439  2.3146  4.1630
  530MOL0     H73125   5.834   8.025   2.515  0.3277  2.8998  2.3595
  530MOL0     H73126   5.660   7.644   2.855 -1.4403 -2.3861  1.6291
  530MOL0     H73127   5.500   7.547   2.945  1.4731  1.4614 -0.1867
  530MOL0     H73128   5.131   7.666   2.891 -0.0702  0.1042 -0.5596
  530MOL0     H73129   5.056   7.514   2.927  0.3199 -1.1610  1.7656
  530MOL0     H73130   5.297   7.646   3.068 -0.3553  0.4260 -1.1389
  530MOL0     H73131   5.216   7.491   3.123 -5.3105  0.9508  2.3125
  530MOL0     H73132   5.143   7.694   3.247 -0.1849 -1.1227  0.4521
  530MOL0     H73133   5.052   7.745   3.110  0.4702  0.9631  0.3559
  530MOL0     H73134   5.026   7.465   3.211  1.4240  2.4048  2.3009
  530MOL0     H73135   4.929   7.530   3.084 -0.3985  0.1349 -0.3078
  530MOL0     H73136   4.716   7.668   3.432 -1.7513 -4.8247  1.0492
  530MOL0     H73137   5.217   7.635   2.644 -0.8283  0.7617 -0.5034
  530MOL0     H73138   5.431   7.766   2.393  1.3330  0.0286 -0.3495
  530MOL0     H73139   5.280   7.796   2.477 -1.5185  1.0065  6.2637
  530MOL0     H73140   5.405   7.913   2.490  1.2726 -0.0762 -0.8971
  531MOL0     O73141  10.943   1.871  11.500 -0.5613 -0.6515 -0.4035
  531MOL0     C73142  10.987   1.866  11.614 -0.3315 -0.5018 -0.7338
  531MOL0     O73143  11.091   1.940  11.657 -0.0010 -0.0717  0.0173
  531MOL0     C73144  11.139   2.052  11.592  0.5304 -0.0768 -0.2697
  531MOL0     C73145  11.134   2.173  11.657 -0.5433  0.4748  0.1363
  531MOL0     C73146  11.168   2.291  11.590 -0.3549 -0.3405  0.0230
  531MOL0     C73147  11.200   2.296  11.458 -0.1205  0.1604  0.3634
  531MOL0     O73148  11.237   2.413  11.404 -0.2581 -0.1947  0.1547
  531MOL0     C73149  11.297   2.406  11.276  0.0241 -0.1633  0.9762
  531MOL0     C73150  11.337   2.550  11.246  0.1105 -0.6814 -0.0739
  531MOL0     C73151  11.466   2.557  11.157  0.1008  0.3028 -0.8462
  531MOL0     C73152  11.542   2.689  11.150  0.5288  0.1220  0.4679
  531MOL0     C73153  11.654   2.678  11.045  0.0445 -0.3693  0.1336
  531MOL0     C73154  11.620   2.642  10.898 -0.0957 -0.1625  0.9587
  531MOL0     C73155  11.741   2.674  10.807  0.2216  0.2124  0.1922
  531MOL0     C73156  11.701   2.644  10.667 -1.5426 -0.4499 -0.5766
  531MOL0     N73157  11.808   2.686  10.580 -0.1757  0.1701 -0.1156
  531MOL0     C73158  11.879   2.806  10.566 -0.2668  0.4332 -0.8333
  531MOL0     C73159  11.989   2.786  10.490 -0.1870 -0.3796  0.1590
  531MOL0     C73160  12.102   2.883  10.466  0.2761  0.7653  0.2634
  531MOL0     C73161  12.232   2.799  10.433 -0.1750 -0.6589  0.2314
  531MOL0     C73162  12.346   2.906  10.415 -0.0255 -0.2452 -0.1390
  531MOL0     C73163  12.487   2.856  10.448  0.0937  0.9313  0.8872
  531MOL0     O73164  12.571   2.959  10.422 -0.0657 -1.0950 -0.0481
  531MOL0     C73165  12.704   2.945  10.457  0.8317  0.3343 -0.2526
  531MOL0     C73166  12.784   3.065  10.468  0.7146  0.6760 -0.4314
  531MOL0     C73167  12.918   3.065  10.515  0.9138 -0.2468  0.0338
  531MOL0     C73168  12.990   3.190  10.558 -0.1401 -0.1198 -0.1639
  531MOL0     C73169  12.984   2.935  10.522  1.0728  0.3884 -0.4706
  531MOL0     C73170  13.139   2.918  10.547  0.6269  0.8563  1.2400
  531MOL0     O73171  13.189   2.809  10.600  0.5698 -0.0211  0.3390
  531MOL0     C73172  13.315   2.800  10.655  0.1627  0.0343 -0.4494
  531MOL0     C73173  13.433   2.808  10.580  0.2321  0.2652 -0.0950
  531MOL0     C73174  13.558   2.787  10.633 -0.6660  0.4964 -0.0117
  531MOL0     C73175  13.575   2.760  10.765 -0.5055 -0.2531 -0.6181
  531MOL0     O73176  13.689   2.709  10.831 -0.8880  0.4368 -0.2256
  531MOL0     C73177  13.821   2.744  10.784  0.4001 -0.4760  0.4581
  531MOL0     C73178  13.925   2.760  10.889  0.0395 -0.3817  0.3145
  531MOL0     C73179  13.965   2.620  10.943 -0.7642 -0.0660 -0.4734
  531MOL0     C73180  14.070   2.641  11.050  1.0404 -0.3201 -0.4628
  531MOL0     C73181  14.016   2.706  11.182 -0.3805  0.2317 -0.2479
  531MOL0     C73182  14.106   2.692  11.299  0.7229  0.5273 -0.3647
  531MOL0     C73183  14.259   2.728  11.285  0.3618 -0.2688  0.6034
  531MOL0     C73184  14.325   2.763  11.417  0.1665 -0.6583  0.1310
  531MOL0    Cl73185  14.498   2.773  11.398  0.4617 -0.3134  0.3468
  531MOL0     C73186  13.456   2.756  10.846 -0.4197  0.1563  0.0751
  531MOL0     C73187  13.329   2.774  10.793  0.4731  0.8858  0.0376
  531MOL0     O73188  13.208   3.012  10.509  0.2289  0.1914  0.6628
  531MOL0     C73189  12.904   2.815  10.494 -0.2986 -0.2101 -0.0166
  531MOL0     C73190  12.768   2.818  10.465  0.2660 -0.3286 -1.0580
  531MOL0     N73191  11.977   2.667  10.435 -0.2162  0.2862  0.3750
  531MOL0     N73192  11.876   2.610  10.484  0.0517 -0.4895 -0.1969
  531MOL0     C73193  11.215   2.164  11.395 -0.2450 -0.7336 -0.1603
  531MOL0     C73194  11.185   2.051  11.461  1.1674  0.4396 -0.1997
  531MOL0     C73195  10.934   1.761  11.702 -0.4493  0.5797  0.1269
  531MOL0     C73196  10.880   1.645  11.645  0.0558 -0.6541  0.2886
  531MOL0     C73197  10.825   1.542  11.718 -0.5098  0.3487  0.7755
  531MOL0     C73198  10.799   1.561  11.855 -0.7271  0.5018 -0.3151
  531MOL0     O73199  10.758   1.455  11.937 -0.1304  0.3348  0.6233
  531MOL0     C73200  10.760   1.314  11.903  0.2483 -0.1858  0.0460
  531MOL0     C73201  10.642   1.256  11.983  0.4713  0.2169 -0.8575
  531MOL0     C73202  10.597   1.128  11.911  0.0298 -0.5751 -0.3763
  531MOL0     C73203  10.506   1.047  11.997 -0.1516 -1.0187 -0.0866
  531MOL0     C73204  10.435   0.964  11.900 -0.1032  0.0035  0.2682
  531MOL0     C73205  10.372   0.894  11.826 -0.0578  0.8272  1.0775
  531MOL0     C73206  10.849   1.671  11.925  0.3644  0.3302  1.0493
  531MOL0     C73207  10.917   1.770  11.843 -0.2417 -0.0635 -0.8611
  531MOL0     C73208  10.958   1.893  11.911  0.0189  0.2423 -0.7595
  531MOL0     H73209  11.117   2.172  11.764  1.6186  0.9470  0.5235
  531MOL0     H73210  11.173   2.384  11.646  0.2230 -0.3309 -0.0368
  531MOL0     H73211  11.239   2.352  11.201  1.0976 -1.3235  0.9579
  531MOL0     H73212  11.390   2.350  11.268 -0.9103 -1.4886 -3.0293
  531MOL0     H73213  11.254   2.612  11.210  0.7233  0.6479  0.7307
  531MOL0     H73214  11.363   2.599  11.340  0.2779 -1.5894  0.3683
  531MOL0     H73215  11.537   2.484  11.197  0.3564  0.6411 -0.6779
  531MOL0     H73216  11.445   2.526  11.054 -0.2529  0.6065 -0.8684
  531MOL0     H73217  11.471   2.766  11.121  1.0314 -0.2724 -2.0649
  531MOL0     H73218  11.584   2.714  11.248 -0.0119  2.1163  0.2242
  531MOL0     H73219  11.729   2.607  11.081  2.3025  2.1133  0.5990
  531MOL0     H73220  11.709   2.772  11.045  0.5361 -0.6484 -0.4624
  531MOL0     H73221  11.585   2.538  10.888 -3.5256  0.9623 -0.2630
  531MOL0     H73222  11.536   2.710  10.880  0.3108  0.6781  2.1322
  531MOL0     H73223  11.834   2.618  10.820  0.5390  0.3433 -1.3790
  531MOL0     H73224  11.759   2.781  10.823 -1.1023  0.1618  2.5898
  531MOL0     H73225  11.696   2.537  10.645  1.0516 -0.9217  0.7202
  531MOL0     H73226  11.599   2.684  10.661 -0.8423  2.6926  3.7437
  531MOL0     H73227  11.858   2.901  10.615  1.0069  0.8737 -1.1025
  531MOL0     H73228  12.122   2.932  10.562  0.1114 -1.5611  1.5708
  531MOL0     H73229  12.082   2.955  10.387 -2.1233  0.1340  0.2105
  531MOL0     H73230  12.247   2.728  10.515 -1.6572  0.4285  1.5074
  531MOL0     H73231  12.228   2.747  10.337 -0.4637 -0.6461  0.2352
  531MOL0     H73232  12.345   2.950  10.315  0.9223  1.3199  0.5099
  531MOL0     H73233  12.331   2.985  10.489 -0.4366  2.0207 -2.5012
  531MOL0     H73234  12.488   2.831  10.554 -1.2606 -0.2684  0.6458
  531MOL0     H73235  12.517   2.768  10.391  3.4779  0.3404  3.3002
  531MOL0     H73236  12.738   3.163  10.455 -0.6979  0.5735  2.9700
  531MOL0     H73237  13.017   3.225  10.458  0.2996  1.3032  0.4414
  531MOL0     H73238  13.045   3.182  10.653 -2.1813  2.0740  1.3091
  531MOL0     H73239  12.904   3.252  10.585 -2.5680 -1.5910 -3.6884
  531MOL0     H73240  13.436   2.846  10.478  1.7864  2.4016  0.6711
  531MOL0     H73241  13.644   2.803  10.568 -0.3761  0.9939  0.4790
  531MOL0     H73242  13.863   2.671  10.715  1.3836 -0.3248  0.8846
  531MOL0     H73243  13.800   2.837  10.730 -3.1930  0.3539  2.9236
  531MOL0     H73244  14.005   2.821  10.844 -2.5355  1.2242 -2.4542
  531MOL0     H73245  13.882   2.812  10.975  0.5054 -0.8747  0.8570
  531MOL0     H73246  13.998   2.563  10.856 -0.1222 -2.6505  1.3465
  531MOL0     H73247  13.878   2.571  10.988 -1.7581  0.8179 -1.3723
  531MOL0     H73248  14.151   2.707  11.016  0.1269 -0.0216 -2.1669
  531MOL0     H73249  14.110   2.546  11.086  1.5399  0.4997  1.2690
  531MOL0     H73250  14.003   2.814  11.172  1.6705  0.4098 -1.5663
  531MOL0     H73251  13.922   2.654  11.205  0.4191 -0.6892  1.0916
  531MOL0     H73252  14.107   2.588  11.335  2.7554 -0.0569 -1.8879
  531MOL0     H73253  14.067   2.744  11.387  0.0836 -1.6345  0.7183
  531MOL0     H73254  14.269   2.817  11.222 -0.2858 -1.4616 -1.2773
  531MOL0     H73255  14.313   2.643  11.241 -0.2394  0.0994 -0.9422
  531MOL0     H73256  14.306   2.680  11.487 -2.0230 -0.1930  0.1755
  531MOL0     H73257  14.278   2.847  11.469  0.3043  2.2772 -3.9580
  531MOL0     H73258  13.482   2.739  10.950  3.8858 -0.5770 -0.9170
  531MOL0     H73259  13.239   2.763  10.852 -0.4328 -0.8713 -1.5685
  531MOL0     H73260  12.939   2.712  10.496 -1.5789 -0.6495  1.6932
  531MOL0     H73261  12.724   2.722  10.442  0.1492 -0.1926 -1.4116
  531MOL0     H73262  11.241   2.160  11.290  1.2589 -1.0164  0.1895
  531MOL0     H73263  11.186   1.961  11.401 -0.1792  0.7469 -0.7239
  531MOL0     H73264  10.884   1.634  11.537 -1.0275 -0.6497  0.2386
  531MOL0     H73265  10.810   1.446  11.668  2.5756  0.3494 -0.4052
  531MOL0     H73266  10.744   1.304  11.796  1.2282 -3.7312  0.1016
  531MOL0     H73267  10.853   1.260  11.926  0.4327  0.8221  1.9397
  531MOL0     H73268  10.560   1.328  11.980  1.5109  1.4541 -0.4278
  531MOL0     H73269  10.670   1.238  12.088  3.1000 -0.4136 -1.5932
  531MOL0     H73270  10.548   1.168  11.822 -1.0910  0.2304  0.5761
  531MOL0     H73271  10.688   1.071  11.889  1.2550  1.1706 -0.0948
  531MOL0     H73272  10.438   1.106  12.058 -0.0956 -1.9227  0.8730
  531MOL0     H73273  10.560   0.997  12.078 -0.5465 -1.3882 -0.0476
  531MOL0     H73274  10.339   0.830  11.747 -2.1911  2.5535  0.4740
  531MOL0     H73275  10.846   1.676  12.034  1.6869  2.9310  1.0497
  531MOL0     H73276  11.067   1.893  11.923  0.0691 -3.1220 -0.3120
  531MOL0     H73277  10.934   1.973  11.841 -0.2774 -1.2894 -2.4896
  531MOL0     H73278  10.914   1.911  12.010 -1.9923  0.6764 -1.6955
  532MOL0     O73279   4.304  10.652   2.525  0.6406 -0.4837 -0.0632
  532MOL0     C73280   4.414  10.602   2.503 -0.6533  0.5177 -0.3302
  532MOL0     O73281   4.499  10.665   2.416  0.2160  0.0918  0.1585
  532MOL0     C73282   4.457  10.786   2.356  0.2324 -0.2437 -0.2086
  532MOL0     C73283   4.373  10.779   2.238 -0.0420  0.0869  0.4107
  532MOL0     C73284   4.309  10.894   2.193  0.2990  0.4343  0.5421
  532MOL0     C73285   4.327  11.020   2.260  0.1760  0.0568  0.1316
  532MOL0     O73286   4.265  11.132   2.202 -0.4164 -0.1424  0.3845
  532MOL0     C73287   4.126  11.154   2.247  0.4786 -0.1526 -0.2482
  532MOL0     C73288   4.039  11.227   2.137 -0.4091  0.4710 -0.2390
  532MOL0     C73289   3.896  11.215   2.184 -0.0201  0.5744  0.6151
  532MOL0     C73290   3.800  11.284   2.097 -0.3610 -0.0508  0.2702
  532MOL0     C73291   3.656  11.250   2.135 -0.5198 -0.3250  0.2830
  532MOL0     C73292   3.563  11.282   2.026 -0.5388  0.4150 -0.7753
  532MOL0     C73293   3.427  11.234   2.067  0.2246 -0.8660  0.0503
  532MOL0     C73294   3.418  11.081   2.076  0.5456 -0.5810  0.4757
  532MOL0     N73295   3.280  11.035   2.056 -1.2839 -0.1827 -0.1787
  532MOL0     C73296   3.222  10.996   1.932 -0.6995 -0.7025 -0.3497
  532MOL0     C73297   3.088  11.007   1.947  1.0771 -0.6412 -0.2568
  532MOL0     C73298   2.978  10.979   1.841 -1.2713 -0.3857 -0.6065
  532MOL0     C73299   3.007  10.890   1.728  0.3780  0.0719  0.2751
  532MOL0     C73300   2.879  10.878   1.641 -0.5738 -0.0915 -0.3344
  532MOL0     C73301   2.885  10.775   1.536 -0.0264 -0.3906  0.3462
  532MOL0     O73302   2.987  10.820   1.435 -0.0153 -0.4781 -0.3384
  532MOL0     C73303   2.998  10.711   1.348  0.8804  0.1535  1.1046
  532MOL0     C73304   3.103  10.628   1.357  0.7134 -0.5874  0.4023
  532MOL0     C73305   3.125  10.525   1.269 -0.4242  0.4813  0.0060
  532MOL0     C73306   3.263  10.467   1.264  0.3740 -1.9674  0.0632
  532MOL0     C73307   3.016  10.469   1.211 -0.8718 -0.0721 -0.7070
  532MOL0     C73308   3.004  10.333   1.150  0.2417 -0.4378 -0.7325
  532MOL0     O73309   2.901  10.254   1.184  0.8945 -0.5979 -0.0715
  532MOL0     C73310   2.891  10.123   1.144 -0.3911 -0.3421  0.1687
  532MOL0     C73311   2.777  10.078   1.074 -0.3077 -0.4491  0.6146
  532MOL0     C73312   2.766   9.946   1.022 -0.3520 -0.0163  1.1563
  532MOL0     C73313   2.875   9.858   1.045 -0.1380  0.6922  0.6631
  532MOL0     O73314   2.853   9.734   0.982  0.2493 -0.1927 -0.1603
  532MOL0     C73315   2.965   9.644   1.000 -0.3032 -0.3790  0.7036
  532MOL0     C73316   2.955   9.539   0.892 -0.9417  0.0007 -0.5040
  532MOL0     C73317   3.046   9.577   0.769 -0.0487  0.4633  0.1526
  532MOL0     C73318   3.020   9.481   0.656  0.8027  0.1326  0.2046
  532MOL0     C73319   3.132   9.509   0.550  0.4655 -0.6436 -0.8437
  532MOL0     C73320   3.134   9.398   0.453 -0.9220 -0.6003  0.3256
  532MOL0     C73321   3.246   9.409   0.353  0.3587 -0.1495 -1.0455
  532MOL0     C73322   3.221   9.334   0.222 -0.1177 -0.2888  1.6319
  532MOL0    Cl73323   3.314   9.168   0.225  0.1066 -0.0355 -0.2932
  532MOL0     C73324   2.993   9.899   1.110  0.9066  0.2765 -0.8809
  532MOL0     C73325   3.001  10.034   1.155 -0.0385  0.1500 -0.9037
  532MOL0     O73326   3.100  10.302   1.083 -0.5720  0.4174 -0.1763
  532MOL0     C73327   2.905  10.553   1.200 -0.1178 -0.1360 -0.2001
  532MOL0     C73328   2.896  10.672   1.262 -0.0107 -0.9727  0.0329
  532MOL0     N73329   3.062  11.057   2.076  0.5977 -0.3379 -0.5376
  532MOL0     N73330   3.176  11.072   2.138 -0.3613  0.0358 -0.2192
  532MOL0     C73331   4.425  11.024   2.361 -0.0935 -0.0749  0.0573
  532MOL0     C73332   4.479  10.907   2.415 -0.1089 -0.7699  1.2001
  532MOL0     C73333   4.463  10.488   2.586 -0.0607  0.1815  0.1408
  532MOL0     C73334   4.592  10.434   2.560  0.3681 -0.1625  0.6897
  532MOL0     C73335   4.655  10.344   2.638 -0.6648  0.8478 -0.5450
  532MOL0     C73336   4.585  10.291   2.744 -0.2788  0.5114 -0.0591
  532MOL0     O73337   4.640  10.188   2.818  1.1939  0.2378 -0.3294
  532MOL0     C73338   4.779  10.151   2.841  0.5396  0.0659 -0.3073
  532MOL0     C73339   4.844  10.237   2.956  0.5831 -1.0807  0.0201
  532MOL0     C73340   4.763  10.234   3.086  0.5425  0.7751  0.2540
  532MOL0     C73341   4.826  10.316   3.200 -0.2301  0.0440 -0.5080
  532MOL0     C73342   4.964  10.276   3.237  0.7911 -0.2393  0.4865
  532MOL0     C73343   5.065  10.236   3.294 -0.0102  0.4619 -0.1134
  532MOL0     C73344   4.454  10.328   2.769  0.1612 -0.2045  0.3557
  532MOL0     C73345   4.386  10.430   2.694 -0.0288 -0.4476 -0.6005
  532MOL0     C73346   4.247  10.464   2.739 -0.8755  1.0039  0.6305
  532MOL0     H73347   4.377  10.688   2.179 -0.1795 -2.0635  3.4610
  532MOL0     H73348   4.267  10.882   2.093 -0.5990 -0.9526  1.0598
  532MOL0     H73349   4.126  11.218   2.335  0.3560  0.8614 -0.9687
  532MOL0     H73350   4.088  11.053   2.262  1.5812 -0.4846  0.4133
  532MOL0     H73351   4.075  11.330   2.126 -0.3088  0.2882 -1.9614
  532MOL0     H73352   4.048  11.177   2.040 -1.2150 -1.7490  0.7532
  532MOL0     H73353   3.866  11.109   2.180 -0.8976  0.8422 -0.7246
  532MOL0     H73354   3.893  11.257   2.284  0.0172 -2.0589  1.8203
  532MOL0     H73355   3.798  11.393   2.111 -3.7735  0.2573 -1.5123
  532MOL0     H73356   3.831  11.256   1.995 -3.6217 -0.7128 -0.6445
  532MOL0     H73357   3.631  11.319   2.217  0.4342 -1.6184  1.7169
  532MOL0     H73358   3.641  11.151   2.178 -4.2307  0.9088  2.3289
  532MOL0     H73359   3.575  11.386   1.995 -1.3487  1.0810  1.0220
  532MOL0     H73360   3.593  11.231   1.933 -1.0823  3.4389 -2.7581
  532MOL0     H73361   3.355  11.267   1.992 -1.4298 -2.5231  0.8243
  532MOL0     H73362   3.394  11.283   2.159  0.6716 -0.2599 -0.1075
  532MOL0     H73363   3.493  11.035   2.011  0.2749  1.0392 -1.0793
  532MOL0     H73364   3.448  11.041   2.173 -0.9426 -1.4977  0.5936
  532MOL0     H73365   3.273  10.978   1.838  0.9207 -1.6178  0.6681
  532MOL0     H73366   2.960  11.075   1.792  0.7107  2.0791  3.0496
  532MOL0     H73367   2.889  10.947   1.896 -1.8905 -2.6318 -2.7322
  532MOL0     H73368   3.092  10.922   1.667 -0.8974  0.7316 -1.2397
  532MOL0     H73369   3.022  10.789   1.767 -0.0539  0.1817  0.7360
  532MOL0     H73370   2.805  10.844   1.713 -0.1362 -3.9741 -1.5018
  532MOL0     H73371   2.852  10.976   1.601  5.1783  1.0400 -2.5341
  532MOL0     H73372   2.911  10.678   1.579 -1.9661 -0.5555  1.2417
  532MOL0     H73373   2.785  10.772   1.494 -1.8479  2.4054  3.9271
  532MOL0     H73374   3.177  10.666   1.428  0.9812  0.0100 -0.1825
  532MOL0     H73375   3.312  10.525   1.187  0.6004  1.8389  2.8056
  532MOL0     H73376   3.271  10.363   1.229 -3.2114 -3.1319  2.0791
  532MOL0     H73377   3.324  10.488   1.352  0.4811  1.6791 -0.7549
  532MOL0     H73378   2.691  10.141   1.052  1.1436  0.4559 -3.3823
  532MOL0     H73379   2.685   9.914   0.958 -4.9311  3.9257  4.2878
  532MOL0     H73380   3.060   9.691   0.975 -1.5840  1.8415 -0.3347
  532MOL0     H73381   2.965   9.595   1.098  1.8968 -1.9844 -0.0138
  532MOL0     H73382   2.994   9.443   0.927  1.0909  0.0813 -2.3032
  532MOL0     H73383   2.849   9.539   0.865 -2.2608  2.6685  3.7620
  532MOL0     H73384   3.148   9.581   0.807  0.4160  0.1830 -0.9961
  532MOL0     H73385   3.014   9.675   0.734 -0.2131  0.0824 -0.8099
  532MOL0     H73386   2.931   9.493   0.594  1.2488 -0.6301 -0.6012
  532MOL0     H73387   3.029   9.375   0.684  0.2440 -0.6960 -2.5300
  532MOL0     H73388   3.131   9.602   0.494  2.2611 -1.1710 -1.8178
  532MOL0     H73389   3.224   9.506   0.609 -0.0293  0.7784  0.0273
  532MOL0     H73390   3.038   9.378   0.405 -1.4731 -0.2260  1.2446
  532MOL0     H73391   3.161   9.306   0.506  0.1076 -0.7003 -0.3523
  532MOL0     H73392   3.345   9.404   0.400 -0.2349 -1.1583  0.1621
  532MOL0     H73393   3.243   9.513   0.319  1.1239 -0.5909 -2.5311
  532MOL0     H73394   3.267   9.398   0.145 -3.0142  0.2401  0.2145
  532MOL0     H73395   3.118   9.316   0.192 -0.3029 -0.5876  2.4512
  532MOL0     H73396   3.075   9.830   1.128  2.1420  2.2616  1.7835
  532MOL0     H73397   3.081  10.077   1.215 -1.4712  2.1989 -0.3334
  532MOL0     H73398   2.813  10.525   1.147  0.1829  0.2588 -0.9463
  532MOL0     H73399   2.801  10.725   1.266 -0.7396 -2.2849  1.0308
  532MOL0     H73400   4.441  11.123   2.404 -0.8728  1.2586 -2.4662
  532MOL0     H73401   4.541  10.913   2.504  0.1989  0.7377  0.9196
  532MOL0     H73402   4.646  10.478   2.477 -0.4173 -1.8087 -0.7706
  532MOL0     H73403   4.754  10.317   2.602 -0.7068 -0.0749 -0.0106
  532MOL0     H73404   4.788  10.044   2.861  1.4307  0.3089  0.6811
  532MOL0     H73405   4.837  10.171   2.751  0.0520 -1.0618 -0.8888
  532MOL0     H73406   4.862  10.342   2.933  1.8218 -0.8925  1.6546
  532MOL0     H73407   4.942  10.191   2.971  0.5188 -0.4150  3.1287
  532MOL0     H73408   4.660  10.271   3.078  1.2616  3.3616  1.9856
  532MOL0     H73409   4.758  10.127   3.109 -0.7307  0.3157 -1.8507
  532MOL0     H73410   4.763  10.291   3.287  2.5552  0.3352  1.7325
  532MOL0     H73411   4.825  10.424   3.185 -0.4521  0.5602  2.4750
  532MOL0     H73412   5.137  10.184   3.353  0.1603  0.9809  0.1417
  532MOL0     H73413   4.394  10.295   2.853 -1.5229  1.0782 -0.2920
  532MOL0     H73414   4.231  10.428   2.840  1.3791 -1.8806  0.0846
  532MOL0     H73415   4.241  10.574   2.736 -0.7543  0.9903 -0.8282
  532MOL0     H73416   4.171  10.419   2.675  2.5518 -4.8639 -0.0134
  533MOL0     O73417   0.546  10.047   4.131 -0.1293  0.2892 -0.0735
  533MOL0     C73418   0.660  10.019   4.107 -0.5154 -0.7405 -0.5721
  533MOL0     O73419   0.738  10.072   4.014  0.8012 -0.0568  0.7008
  533MOL0     C73420   0.693  10.161   3.920 -1.1247  0.3929 -1.0016
  533MOL0     C73421   0.792  10.256   3.866  0.1219  1.3391  0.0728
  533MOL0     C73422   0.773  10.319   3.745 -1.0582 -0.7966 -0.4415
  533MOL0     C73423   0.647  10.312   3.684 -0.1678 -0.1432 -0.4559
  533MOL0     O73424   0.603  10.369   3.567  0.1304  0.1693 -1.0254
  533MOL0     C73425   0.696  10.440   3.497  0.2594 -0.4582  0.0811
  533MOL0     C73426   0.725  10.580   3.558 -0.3669 -0.5113 -0.1647
  533MOL0     C73427   0.855  10.628   3.474  0.8691  0.0302 -1.0081
  533MOL0     C73428   0.875  10.765   3.524  0.1313 -0.6934 -0.3772
  533MOL0     C73429   0.954  10.843   3.426  1.1589  0.3046  0.1931
  533MOL0     C73430   1.083  10.780   3.381  0.4378 -0.7973 -0.2857
  533MOL0     C73431   1.137  10.866   3.266 -0.2925 -0.8577 -0.0877
  533MOL0     C73432   1.234  10.794   3.177  1.0616 -0.0587 -0.2620
  533MOL0     N73433   1.365  10.770   3.250  0.0909  0.2518  0.6217
  533MOL0     C73434   1.480  10.840   3.227 -0.1203 -0.6485  0.1046
  533MOL0     C73435   1.571  10.775   3.294 -0.0984  0.3130  0.4260
  533MOL0     C73436   1.709  10.808   3.306 -0.5322  0.0330 -0.1730
  533MOL0     C73437   1.749  10.871   3.443 -0.2476  0.9954 -0.1126
  533MOL0     C73438   1.892  10.832   3.477  0.2062  0.0156 -0.2772
  533MOL0     C73439   1.996  10.906   3.409 -0.0706 -0.0572 -0.5662
  533MOL0     O73440   2.011  11.039   3.457  0.4606  0.5351  0.0893
  533MOL0     C73441   2.122  11.108   3.421 -0.7545  0.2321 -1.0706
  533MOL0     C73442   2.143  11.243   3.451  1.2229  1.0400  0.6350
  533MOL0     C73443   2.247  11.325   3.415 -0.3290  0.9760  0.2900
  533MOL0     C73444   2.242  11.466   3.463  0.2739  0.3508  0.2830
  533MOL0     C73445   2.349  11.266   3.334  0.2916  0.2752 -0.6056
  533MOL0     C73446   2.469  11.346   3.293 -0.6561  0.1840  0.1804
  533MOL0     O73447   2.530  11.429   3.384  0.2813  0.6905 -0.5244
  533MOL0     C73448   2.644  11.501   3.362  0.2107 -1.0142  0.3613
  533MOL0     C73449   2.656  11.621   3.435 -0.7739  0.2345  0.4640
  533MOL0     C73450   2.772  11.694   3.423  0.4595 -0.1618 -0.1786
  533MOL0     C73451   2.876  11.652   3.341  0.0353 -0.4001 -0.4904
  533MOL0     O73452   2.989  11.729   3.345 -0.3991 -0.0350 -0.1527
  533MOL0     C73453   3.082  11.748   3.238 -0.7774 -0.4734 -0.3261
  533MOL0     C73454   3.230  11.761   3.285  0.4364  0.3260  1.0623
  533MOL0     C73455   3.276  11.643   3.376 -0.6267  0.4434  0.0022
  533MOL0     C73456   3.263  11.502   3.312  0.4401 -0.4878  0.3776
  533MOL0     C73457   3.308  11.385   3.400  0.1029 -0.7984  0.3153
  533MOL0     C73458   3.192  11.296   3.465  0.1839  0.1324 -0.5783
  533MOL0     C73459   3.092  11.369   3.566  0.3661  0.6179 -0.5422
  533MOL0     C73460   3.167  11.431   3.679  0.2046  0.0187  0.1626
  533MOL0    Cl73461   3.256  11.303   3.761 -0.7685  0.4614 -0.0355
  533MOL0     C73462   2.873  11.525   3.280  0.1324  0.7223  0.8933
  533MOL0     C73463   2.750  11.454   3.287  0.9450 -0.8843 -0.0915
  533MOL0     O73464   2.502  11.329   3.176 -0.3060 -0.2166  0.6531
  533MOL0     C73465   2.341  11.125   3.307 -1.0614 -0.5530 -0.2379
  533MOL0     C73466   2.231  11.048   3.346 -0.0435  0.5300  0.1309
  533MOL0     N73467   1.509  10.672   3.362 -0.2934  0.1630  0.6206
  533MOL0     N73468   1.387  10.675   3.346  0.4423 -0.0428 -0.5375
  533MOL0     C73469   0.550  10.224   3.738  0.3316 -0.1509  0.1862
  533MOL0     C73470   0.569  10.160   3.856 -0.5992  0.3302  0.3460
  533MOL0     C73471   0.724   9.935   4.204  1.0479  0.4531  0.0751
  533MOL0     C73472   0.760   9.804   4.168  0.1923 -0.1891  0.1217
  533MOL0     C73473   0.809   9.715   4.272  0.0837  0.3165  0.4081
  533MOL0     C73474   0.827   9.752   4.401 -0.9154 -0.6847  0.1868
  533MOL0     O73475   0.891   9.680   4.504 -0.0908  0.1736  0.2268
  533MOL0     C73476   0.973   9.573   4.466 -1.3559 -0.0507 -0.2346
  533MOL0     C73477   1.129   9.604   4.476 -0.1579  1.4442 -0.6292
  533MOL0     C73478   1.206   9.467   4.464  0.4704  0.8852  0.8920
  533MOL0     C73479   1.365   9.477   4.441 -0.1833 -0.3550  0.7275
  533MOL0     C73480   1.431   9.501   4.575 -0.1436 -0.1514 -0.4877
  533MOL0     C73481   1.487   9.537   4.682 -0.1790  0.3154 -0.0591
  533MOL0     C73482   0.789   9.875   4.430 -0.0319 -0.6805 -0.8074
  533MOL0     C73483   0.728   9.966   4.344 -0.0940  0.0846  0.1281
  533MOL0     C73484   0.695  10.098   4.404  0.3952 -0.2247  0.2487
  533MOL0     H73485   0.891  10.273   3.906  0.4771 -1.7506  0.7738
  533MOL0     H73486   0.838  10.386   3.690 -1.9738  1.3289  0.9225
  533MOL0     H73487   0.648  10.458   3.401 -4.1320 -0.7079  2.0258
  533MOL0     H73488   0.790  10.385   3.491  0.6219  0.1418  0.0782
  533MOL0     H73489   0.647  10.652   3.534 -2.2257 -2.1178  0.7459
  533MOL0     H73490   0.752  10.587   3.664  1.7773 -1.6848 -0.5712
  533MOL0     H73491   0.946  10.571   3.496  1.8204  1.6040 -0.6977
  533MOL0     H73492   0.831  10.621   3.367 -1.2591 -0.8176 -0.5219
  533MOL0     H73493   0.787  10.825   3.547  0.4311 -0.3565 -0.0967
  533MOL0     H73494   0.933  10.770   3.616 -1.6553  0.1775  0.7563
  533MOL0     H73495   0.979  10.941   3.467 -1.3290 -0.0064  2.7571
  533MOL0     H73496   0.893  10.871   3.340 -1.3005  0.8348  2.0085
  533MOL0     H73497   1.152  10.766   3.465  1.1519 -3.9490 -1.2364
  533MOL0     H73498   1.061  10.676   3.353 -0.3870 -0.5374 -0.6338
  533MOL0     H73499   1.176  10.962   3.302  3.0288 -2.5158  1.1037
  533MOL0     H73500   1.056  10.876   3.193 -1.4854 -0.4721  1.2373
  533MOL0     H73501   1.187  10.697   3.161 -0.7487  0.7498 -0.1029
  533MOL0     H73502   1.253  10.847   3.083  0.1640  0.6017 -0.0875
  533MOL0     H73503   1.484  10.930   3.166  0.1047 -0.1573  0.8294
  533MOL0     H73504   1.741  10.875   3.226 -0.1077  1.1950  0.9342
  533MOL0     H73505   1.765  10.715   3.291  0.4002  0.8337 -1.9397
  533MOL0     H73506   1.741  10.980   3.440  0.8985  1.0572 -1.5075
  533MOL0     H73507   1.690  10.837   3.529  3.5883  1.4397  2.9373
  533MOL0     H73508   1.911  10.843   3.584  1.5560  0.6400 -0.5618
  533MOL0     H73509   1.904  10.726   3.452 -1.1421  0.2376 -2.0947
  533MOL0     H73510   2.086  10.846   3.419  0.8742  1.4795  0.5323
  533MOL0     H73511   1.974  10.910   3.302  3.1049 -0.6926 -1.3239
  533MOL0     H73512   2.053  11.286   3.496 -0.8364  0.2331 -2.4467
  533MOL0     H73513   2.211  11.533   3.382 -1.3463 -1.5021 -0.6976
  533MOL0     H73514   2.341  11.506   3.487  0.1795  0.6665  0.1526
  533MOL0     H73515   2.164  11.476   3.538  0.9250 -0.6828  1.1233
  533MOL0     H73516   2.584  11.664   3.504  0.0409  2.6485 -0.0693
  533MOL0     H73517   2.785  11.790   3.472  2.0654 -0.8953  0.9210
  533MOL0     H73518   3.057  11.677   3.158 -1.3709 -1.9234  1.0961
  533MOL0     H73519   3.051  11.843   3.195  0.9744 -1.3251 -3.7918
  533MOL0     H73520   3.284  11.769   3.190 -0.1844 -2.1108  0.4529
  533MOL0     H73521   3.251  11.858   3.330  2.5014  0.7696 -0.6821
  533MOL0     H73522   3.218  11.651   3.469 -0.5574 -0.4854  0.1346
  533MOL0     H73523   3.380  11.661   3.402 -0.4164 -3.2579  2.5655
  533MOL0     H73524   3.317  11.513   3.218 -1.2753 -1.2559 -0.7600
  533MOL0     H73525   3.158  11.480   3.291  0.8377 -5.3382  2.1228
  533MOL0     H73526   3.373  11.324   3.337  0.1106 -0.5335  0.0638
  533MOL0     H73527   3.374  11.426   3.477 -0.3974  0.3872  0.1363
  533MOL0     H73528   3.228  11.208   3.517 -1.8255  0.9980  2.5603
  533MOL0     H73529   3.125  11.265   3.384 -2.6261  1.2671  1.1297
  533MOL0     H73530   3.013  11.299   3.595  0.6754  0.8469  0.9224
  533MOL0     H73531   3.044  11.444   3.503 -1.0306 -1.1489 -1.7017
  533MOL0     H73532   3.082  11.472   3.734 -2.1600 -1.3769 -2.1825
  533MOL0     H73533   3.229  11.515   3.646 -1.2065  0.3378 -1.8637
  533MOL0     H73534   2.946  11.488   3.210  0.3967  1.4619  0.7692
  533MOL0     H73535   2.735  11.352   3.251 -2.9613 -1.6732  3.0870
  533MOL0     H73536   2.428  11.076   3.264 -1.0846 -0.3266 -0.5443
  533MOL0     H73537   2.230  10.943   3.321  0.4773  0.5369  0.0859
  533MOL0     H73538   0.457  10.217   3.684  0.2727  2.9848 -0.3208
  533MOL0     H73539   0.496  10.093   3.901  0.8628 -1.3344  0.3897
  533MOL0     H73540   0.737   9.786   4.063  2.5797  1.0881 -0.6862
  533MOL0     H73541   0.825   9.615   4.233  0.4392  2.4231 -5.9720
  533MOL0     H73542   0.953   9.492   4.536 -1.6731 -0.0050 -0.2682
  533MOL0     H73543   0.950   9.527   4.369  1.0347  0.0497 -0.9053
  533MOL0     H73544   1.144   9.645   4.576 -0.5794 -1.9695  0.9687
  533MOL0     H73545   1.151   9.679   4.398 -1.1186  1.7631 -0.6132
  533MOL0     H73546   1.181   9.399   4.547  3.0050  0.9546  1.8214
  533MOL0     H73547   1.159   9.418   4.379  0.0631 -0.3934  1.8120
  533MOL0     H73548   1.375   9.555   4.364 -3.3752 -1.0793 -0.5859
  533MOL0     H73549   1.420   9.391   4.403  0.5239  0.4358 -0.1171
  533MOL0     H73550   1.564   9.555   4.754  2.4812  1.0611 -2.8638
  533MOL0     H73551   0.796   9.896   4.536  2.1716 -1.8178 -0.6801
  533MOL0     H73552   0.709  10.114   4.512 -0.3474  0.1738  0.2931
  533MOL0     H73553   0.767  10.167   4.358 -0.8227  1.7146  1.0965
  533MOL0     H73554   0.589  10.119   4.388  0.0791 -0.2436  2.0524
  534MOL0     O73555   5.840   5.644   0.056  0.3855  0.3828  0.3925
  534MOL0     C73556   5.738   5.685   0.110  0.7503  0.0205  0.1909
  534MOL0     O73557   5.689   5.808   0.092  0.5686  0.0071 -0.0627
  534MOL0     C73558   5.722   5.875  -0.021  0.9171  0.3900  0.4410
  534MOL0     C73559   5.626   5.910  -0.114 -0.5651 -0.3953  0.2187
  534MOL0     C73560   5.656   6.004  -0.215  0.1807  0.4183  0.5008
  534MOL0     C73561   5.786   6.053  -0.234  0.8805  0.6404 -0.5585
  534MOL0     O73562   5.826   6.140  -0.329  0.1339 -0.1056 -0.2492
  534MOL0     C73563   5.749   6.149  -0.455 -0.9696 -0.4581  1.0458
  534MOL0     C73564   5.809   6.254  -0.557  0.7966  0.1984  0.0048
  534MOL0     C73565   5.830   6.396  -0.492 -0.7681  0.0633  0.1679
  534MOL0     C73566   5.901   6.469  -0.606 -0.4893  0.1943 -0.5896
  534MOL0     C73567   5.892   6.619  -0.578  0.2162 -0.0039  1.1211
  534MOL0     C73568   5.760   6.685  -0.603  0.9853  0.4893  0.2415
  534MOL0     C73569   5.724   6.705  -0.753  0.4716  0.7641 -0.8036
  534MOL0     C73570   5.596   6.793  -0.775  0.5494  0.3911  0.1056
  534MOL0     N73571   5.549   6.796  -0.911  0.1563 -0.4205  0.8158
  534MOL0     C73572   5.604   6.841  -1.034  0.3957 -0.9546 -1.0339
  534MOL0     C73573   5.527   6.786  -1.131 -0.1037 -0.0340 -0.1269
  534MOL0     C73574   5.554   6.821  -1.274 -1.3392 -1.2142 -0.0034
  534MOL0     C73575   5.651   6.730  -1.343 -0.7976 -1.2693 -0.2919
  534MOL0     C73576   5.574   6.631  -1.435  0.0435  0.2342  0.0370
  534MOL0     C73577   5.670   6.534  -1.508  0.6059 -0.6767 -1.3059
  534MOL0     O73578   5.592   6.445  -1.591  0.3015  0.4260 -0.7629
  534MOL0     C73579   5.660   6.329  -1.625  0.1912 -0.9308 -0.6958
  534MOL0     C73580   5.588   6.228  -1.679 -0.3510 -0.7941 -1.1324
  534MOL0     C73581   5.631   6.105  -1.722 -0.6660  0.3344 -0.6109
  534MOL0     C73582   5.520   6.016  -1.746  0.5096  0.7832 -0.1643
  534MOL0     C73583   5.767   6.080  -1.724  0.0449  0.9356  0.0671
  534MOL0     C73584   5.837   5.950  -1.761  0.2303 -0.3234 -0.8451
  534MOL0     O73585   5.751   5.853  -1.818  0.3169  1.1098 -0.4224
  534MOL0     C73586   5.787   5.717  -1.830 -0.4002  0.6619  0.5065
  534MOL0     C73587   5.740   5.644  -1.952 -0.4953 -0.2413  0.1225
  534MOL0     C73588   5.781   5.517  -1.983 -0.7964 -0.4345  0.0642
  534MOL0     C73589   5.874   5.453  -1.906  0.0136  0.4096  0.9169
  534MOL0     O73590   5.939   5.334  -1.945  0.2784 -0.1498  0.0777
  534MOL0     C73591   5.951   5.310  -2.083 -0.2000  1.2646  0.0222
  534MOL0     C73592   5.845   5.205  -2.135  0.1120 -0.4808  0.2410
  534MOL0     C73593   5.880   5.140  -2.273  0.5474 -0.4497  0.2540
  534MOL0     C73594   5.972   5.020  -2.270 -0.1636 -0.3477 -0.5272
  534MOL0     C73595   6.005   4.958  -2.408  0.2040  0.5884 -0.0084
  534MOL0     C73596   6.102   4.840  -2.407  0.7694  0.2012 -0.2768
  534MOL0     C73597   6.242   4.861  -2.336 -0.0745  0.3259 -0.0705
  534MOL0     C73598   6.271   4.748  -2.244 -0.5487 -0.1899 -0.2769
  534MOL0    Cl73599   6.251   4.598  -2.344  0.4910 -0.0877  0.1710
  534MOL0     C73600   5.920   5.515  -1.792 -0.1200 -0.0043 -0.4076
  534MOL0     C73601   5.873   5.641  -1.756 -0.4489 -0.6447  0.3365
  534MOL0     O73602   5.952   5.938  -1.756 -0.7319 -0.7505 -0.2105
  534MOL0     C73603   5.848   6.182  -1.664 -0.4937 -0.2497  0.2298
  534MOL0     C73604   5.801   6.309  -1.613  0.4281  0.5630  0.0360
  534MOL0     N73605   5.440   6.706  -1.073  0.5814 -0.4010  0.5761
  534MOL0     N73606   5.445   6.709  -0.946  0.3563 -0.1956  0.8660
  534MOL0     C73607   5.886   6.002  -0.140  0.4061 -0.0086  1.3184
  534MOL0     C73608   5.850   5.918  -0.038  0.1860  0.0939 -0.4011
  534MOL0     C73609   5.664   5.606   0.214 -1.0346  0.5205  0.3957
  534MOL0     C73610   5.729   5.489   0.262  0.0680 -0.4214 -0.2244
  534MOL0     C73611   5.683   5.405   0.355  0.0309  0.1095 -0.6272
  534MOL0     C73612   5.562   5.448   0.421 -0.7792  0.5270  0.3551
  534MOL0     O73613   5.504   5.367   0.519  0.1068 -0.8961  0.0856
  534MOL0     C73614   5.549   5.239   0.577  0.0700 -0.1217  0.4085
  534MOL0     C73615   5.674   5.269   0.666 -0.8585 -0.1168 -0.7837
  534MOL0     C73616   5.613   5.365   0.783  0.2591  0.7450 -0.8176
  534MOL0     C73617   5.657   5.321   0.931  0.4124 -0.6092 -0.1271
  534MOL0     C73618   5.803   5.324   0.933 -0.6511 -0.2210  0.3468
  534MOL0     C73619   5.926   5.319   0.946 -0.0050  0.8232  0.3928
  534MOL0     C73620   5.503   5.564   0.391  0.2698 -0.0013  1.2405
  534MOL0     C73621   5.546   5.637   0.281  0.2288 -0.6405 -0.0004
  534MOL0     C73622   5.458   5.758   0.241 -0.5032  0.2764 -0.5577
  534MOL0     H73623   5.523   5.876  -0.111 -1.2881  1.6871  2.6238
  534MOL0     H73624   5.573   6.047  -0.271 -1.0909 -2.0663  0.3361
  534MOL0     H73625   5.645   6.175  -0.432 -1.4166  1.4030 -2.4298
  534MOL0     H73626   5.746   6.048  -0.498 -2.9979 -0.7584  1.8063
  534MOL0     H73627   5.903   6.208  -0.589  0.9592  1.4579 -1.4496
  534MOL0     H73628   5.758   6.253  -0.653 -0.1071  0.5864  0.4681
  534MOL0     H73629   5.733   6.440  -0.466  0.7592  3.5834  0.4870
  534MOL0     H73630   5.900   6.405  -0.408  0.6919  2.6631 -1.1944
  534MOL0     H73631   6.004   6.430  -0.608 -0.5993 -0.0799 -1.5934
  534MOL0     H73632   5.860   6.456  -0.707 -0.8211  3.7755 -1.0354
  534MOL0     H73633   5.961   6.667  -0.647 -1.3745 -1.3118 -1.5402
  534MOL0     H73634   5.912   6.649  -0.474  1.8535 -0.4847  0.9604
  534MOL0     H73635   5.674   6.634  -0.560 -1.6884  0.2409 -4.6324
  534MOL0     H73636   5.762   6.788  -0.566 -1.3944 -0.7046  4.2419
  534MOL0     H73637   5.713   6.602  -0.787 -2.1400  0.6451  0.1613
  534MOL0     H73638   5.801   6.758  -0.810  0.4475  2.0243  0.2788
  534MOL0     H73639   5.524   6.750  -0.706  2.0647 -4.0906 -0.7820
  534MOL0     H73640   5.613   6.898  -0.747  0.0627  0.6122 -0.4033
  534MOL0     H73641   5.688   6.910  -1.042 -0.7888  0.6619 -0.2986
  534MOL0     H73642   5.595   6.922  -1.270  0.7077 -1.9893 -0.3125
  534MOL0     H73643   5.458   6.826  -1.326 -1.2433  0.3613 -0.0861
  534MOL0     H73644   5.727   6.793  -1.392 -0.9265  2.4058  3.6631
  534MOL0     H73645   5.720   6.688  -1.270 -1.5975  0.9254  1.8505
  534MOL0     H73646   5.501   6.572  -1.378 -0.6413  1.0710  0.0447
  534MOL0     H73647   5.516   6.698  -1.498  0.8487 -1.3456 -2.5858
  534MOL0     H73648   5.748   6.593  -1.557  2.8383 -1.3193  1.2289
  534MOL0     H73649   5.714   6.473  -1.428 -0.1242 -0.8294 -1.0198
  534MOL0     H73650   5.484   6.253  -1.699 -0.3178  1.1924  0.7629
  534MOL0     H73651   5.504   5.998  -1.853  1.2094 -1.2601  0.0233
  534MOL0     H73652   5.421   6.047  -1.713 -0.0151 -0.5568 -0.4108
  534MOL0     H73653   5.536   5.921  -1.695  0.6444  0.9478  0.1024
  534MOL0     H73654   5.672   5.699  -2.018  1.9265 -1.8721 -4.1134
  534MOL0     H73655   5.748   5.471  -2.076 -2.8647 -0.4659  0.7622
  534MOL0     H73656   5.947   5.400  -2.146 -2.9315  1.2882  0.1131
  534MOL0     H73657   6.046   5.263  -2.110 -1.5605 -1.2120 -0.7597
  534MOL0     H73658   5.846   5.127  -2.058 -1.6383  0.7809  1.6211
  534MOL0     H73659   5.745   5.247  -2.129  0.3652  0.1658 -0.0001
  534MOL0     H73660   5.914   5.221  -2.338 -1.3133  2.1099  2.2411
  534MOL0     H73661   5.784   5.113  -2.317  0.8638 -0.0106 -0.7325
  534MOL0     H73662   5.925   4.947  -2.202  0.0553 -0.7196 -0.7732
  534MOL0     H73663   6.063   5.046  -2.216  0.4875 -1.7948 -0.8718
  534MOL0     H73664   5.909   4.934  -2.455 -0.0747  0.4373  0.6401
  534MOL0     H73665   6.037   5.039  -2.475  1.1145  1.9415  1.9764
  534MOL0     H73666   6.116   4.821  -2.514 -1.7335 -0.7948 -0.4843
  534MOL0     H73667   6.053   4.753  -2.363 -2.3149  1.3623 -1.1586
  534MOL0     H73668   6.240   4.954  -2.277 -2.6335 -1.3980  2.8251
  534MOL0     H73669   6.321   4.873  -2.411  2.2006 -4.8058  1.0555
  534MOL0     H73670   6.190   4.766  -2.173  1.3098  3.4768  1.1698
  534MOL0     H73671   6.373   4.754  -2.205 -1.4290  0.0948  2.1455
  534MOL0     H73672   5.997   5.470  -1.730 -2.2654 -2.2695  0.7852
  534MOL0     H73673   5.926   5.686  -1.673 -1.4165  3.3023 -0.9627
  534MOL0     H73674   5.954   6.165  -1.678 -1.0113 -1.0898 -4.2350
  534MOL0     H73675   5.868   6.380  -1.565 -1.9025  1.3870  2.3475
  534MOL0     H73676   5.982   6.053  -0.143  1.5151 -2.0222 -0.3214
  534MOL0     H73677   5.911   5.893   0.048 -0.2171  1.5251  0.3282
  534MOL0     H73678   5.825   5.455   0.224 -0.0898 -0.3534 -0.6900
  534MOL0     H73679   5.734   5.316   0.391  1.3129  0.0241 -2.4895
  534MOL0     H73680   5.471   5.193   0.637 -2.3551  4.4354  1.2624
  534MOL0     H73681   5.571   5.161   0.504  0.4493  0.4662 -0.1159
  534MOL0     H73682   5.767   5.301   0.616  0.6187 -0.9317  1.2993
  534MOL0     H73683   5.711   5.174   0.707 -2.6277 -1.7079 -2.6671
  534MOL0     H73684   5.659   5.463   0.769  1.9827  0.2699  1.0754
  534MOL0     H73685   5.505   5.380   0.778 -0.4211 -2.5230  0.8371
  534MOL0     H73686   5.606   5.229   0.962  0.6563 -0.2444  1.4606
  534MOL0     H73687   5.620   5.387   1.010 -0.9927 -2.6543  1.0357
  534MOL0     H73688   6.029   5.292   0.962 -0.7646 -3.9231 -0.9453
  534MOL0     H73689   5.409   5.593   0.436 -0.7100 -1.0544 -0.0340
  534MOL0     H73690   5.502   5.852   0.274 -5.9942  1.5921  4.7839
  534MOL0     H73691   5.425   5.752   0.137 -1.3934 -1.3657 -0.2168
  534MOL0     H73692   5.367   5.751   0.302  1.4752  1.2957  2.7536
  535MOL0     O73693   6.768   8.186   4.021  0.3990  0.5738 -0.1776
  535MOL0     C73694   6.667   8.244   4.056  0.2691 -0.2824 -0.4682
  535MOL0     O73695   6.565   8.272   3.971  0.1617  0.2065 -0.2091
  535MOL0     C73696   6.567   8.227   3.840 -0.0546  1.0307 -0.2034
  535MOL0     C73697   6.679   8.232   3.759 -0.2408 -0.7351  0.2036
  535MOL0     C73698   6.676   8.191   3.622 -0.5241 -1.6226 -0.6752
  535MOL0     C73699   6.558   8.160   3.561  0.5074 -0.2824  0.1425
  535MOL0     O73700   6.566   8.131   3.427  0.8848  0.4933 -0.3086
  535MOL0     C73701   6.432   8.112   3.360  0.0362 -0.3458 -0.4009
  535MOL0     C73702   6.437   8.050   3.229 -0.1645  0.0436  0.8644
  535MOL0     C73703   6.486   8.136   3.115 -0.2688  0.1211 -0.1944
  535MOL0     C73704   6.372   8.169   3.012  0.0890  0.9224 -0.0096
  535MOL0     C73705   6.421   8.266   2.904 -0.2658 -0.5585 -0.0294
  535MOL0     C73706   6.311   8.328   2.814 -0.0434  1.2045 -0.0676
  535MOL0     C73707   6.366   8.372   2.669 -0.5969 -0.9893 -0.0501
  535MOL0     C73708   6.303   8.487   2.613 -0.4760 -0.3772 -0.1062
  535MOL0     N73709   6.357   8.518   2.475 -0.1282  0.1173 -0.6543
  535MOL0     C73710   6.313   8.459   2.361 -0.1583  0.0291  0.0894
  535MOL0     C73711   6.386   8.515   2.267 -0.0919  0.6145 -0.3269
  535MOL0     C73712   6.395   8.464   2.125  0.5937 -0.1711  0.3392
  535MOL0     C73713   6.366   8.567   2.014  0.0736 -0.1835  0.2816
  535MOL0     C73714   6.418   8.717   2.028  0.7415  0.1689 -0.7498
  535MOL0     C73715   6.565   8.724   1.980  0.2253  0.3509 -0.4199
  535MOL0     O73716   6.614   8.860   1.974 -0.8114 -0.4704  0.2472
  535MOL0     C73717   6.746   8.884   2.007  0.1230  0.1196 -0.0684
  535MOL0     C73718   6.781   9.015   2.025 -0.2049  0.6647  0.8546
  535MOL0     C73719   6.910   9.045   2.078  0.3473 -0.4172  0.5072
  535MOL0     C73720   6.953   9.189   2.072  0.4414  0.0555  0.3327
  535MOL0     C73721   7.004   8.942   2.109 -0.5625 -0.1573  0.2234
  535MOL0     C73722   7.140   8.960   2.154  0.0422  0.2832  0.3411
  535MOL0     O73723   7.230   8.856   2.138  0.3642  0.4331  0.8402
  535MOL0     C73724   7.345   8.855   2.209  0.0457 -0.1463  0.3455
  535MOL0     C73725   7.462   8.842   2.143  0.0580 -0.2145  0.0837
  535MOL0     C73726   7.583   8.821   2.211  0.0903  0.2848 -0.7597
  535MOL0     C73727   7.587   8.821   2.345 -0.8595  0.0928  0.1488
  535MOL0     O73728   7.719   8.821   2.395  0.1755  0.7145 -0.1475
  535MOL0     C73729   7.745   8.839   2.537  0.4293 -0.0119  0.1695
  535MOL0     C73730   7.768   8.709   2.612  0.0154  0.4385 -0.1069
  535MOL0     C73731   7.822   8.737   2.748  0.4443 -0.5985 -0.2142
  535MOL0     C73732   7.745   8.822   2.860  1.1881  0.3319 -0.3879
  535MOL0     C73733   7.610   8.761   2.864  0.2276 -0.5056 -0.2189
  535MOL0     C73734   7.491   8.847   2.924  0.5257  0.0032  0.1929
  535MOL0     C73735   7.357   8.776   2.921 -0.2277  0.9787  1.1521
  535MOL0     C73736   7.312   8.738   2.772  0.0802 -1.1511  1.5441
  535MOL0    Cl73737   7.147   8.665   2.774  0.1314 -0.0690  0.0623
  535MOL0     C73738   7.462   8.830   2.417 -0.6600  0.3401 -1.2984
  535MOL0     C73739   7.343   8.851   2.350 -0.1115  0.3841  0.4173
  535MOL0     O73740   7.170   9.067   2.207  0.5100 -0.3327 -0.2486
  535MOL0     C73741   6.968   8.812   2.086  0.0977 -0.7183  0.1843
  535MOL0     C73742   6.841   8.786   2.038 -0.2290 -0.5052  0.2489
  535MOL0     N73743   6.478   8.606   2.329  0.4986 -0.5047 -0.0740
  535MOL0     N73744   6.454   8.615   2.455 -0.7633  0.5120 -0.6144
  535MOL0     C73745   6.438   8.155   3.643  0.3529  0.3451 -0.8336
  535MOL0     C73746   6.445   8.187   3.777  0.2710 -1.2494  0.1953
  535MOL0     C73747   6.655   8.295   4.195  0.3339  0.6711 -0.3294
  535MOL0     C73748   6.569   8.410   4.208  0.3164  0.3240 -0.7903
  535MOL0     C73749   6.552   8.485   4.322 -0.3519  0.4437  0.4759
  535MOL0     C73750   6.638   8.457   4.430 -1.0501  0.6264  0.0541
  535MOL0     O73751   6.630   8.539   4.543 -0.1416  0.5522 -0.7985
  535MOL0     C73752   6.640   8.484   4.668  0.1125 -0.6227 -0.4420
  535MOL0     C73753   6.722   8.575   4.753  0.2888 -0.9013 -0.8687
  535MOL0     C73754   6.874   8.568   4.728 -0.2447 -0.8511  0.3694
  535MOL0     C73755   6.951   8.641   4.837 -0.5649 -0.0938  0.1099
  535MOL0     C73756   7.093   8.649   4.805  1.2027  0.0607 -0.2200
  535MOL0     C73757   7.211   8.642   4.783  0.4332 -0.5771 -0.2644
  535MOL0     C73758   6.726   8.345   4.426 -0.0428 -0.0331 -0.2859
  535MOL0     C73759   6.732   8.263   4.305 -0.0092  0.2280 -0.7517
  535MOL0     C73760   6.829   8.147   4.314 -0.8054  1.2861 -0.6684
  535MOL0     H73761   6.776   8.258   3.802 -1.5126 -0.9236  3.4888
  535MOL0     H73762   6.756   8.207   3.551 -1.3426  2.6150 -0.8841
  535MOL0     H73763   6.376   8.206   3.357  0.2465 -0.2460 -2.8257
  535MOL0     H73764   6.363   8.045   3.413 -0.2226 -0.0370 -0.3375
  535MOL0     H73765   6.489   7.956   3.248 -2.3280 -1.2770  0.5376
  535MOL0     H73766   6.334   8.031   3.199 -1.2662  2.3797  2.7601
  535MOL0     H73767   6.521   8.238   3.133  1.5815 -0.2494 -1.3918
  535MOL0     H73768   6.562   8.079   3.060 -0.8699 -2.4079  1.4084
  535MOL0     H73769   6.337   8.077   2.965 -0.0038  1.2784 -0.6516
  535MOL0     H73770   6.277   8.207   3.050 -0.7726 -0.4911 -0.6539
  535MOL0     H73771   6.496   8.211   2.847 -0.0462 -1.4155  1.0490
  535MOL0     H73772   6.475   8.347   2.952 -2.0814  1.6070 -1.4440
  535MOL0     H73773   6.232   8.259   2.786  1.4677 -0.4672 -0.3457
  535MOL0     H73774   6.277   8.420   2.863  2.9135  3.6091 -2.1624
  535MOL0     H73775   6.366   8.291   2.596  3.8391 -1.5428  0.2600
  535MOL0     H73776   6.473   8.387   2.684 -0.8046 -0.8556  1.4632
  535MOL0     H73777   6.196   8.469   2.602 -0.9513  0.8556  1.9099
  535MOL0     H73778   6.330   8.569   2.680  0.7048  0.3233 -1.3790
  535MOL0     H73779   6.214   8.414   2.363 -1.9139  3.5416  0.2841
  535MOL0     H73780   6.332   8.376   2.111  0.5918  0.0934 -1.5864
  535MOL0     H73781   6.497   8.426   2.115  0.5248 -0.5299  0.9534
  535MOL0     H73782   6.402   8.522   1.921 -1.1066 -2.8468  1.0234
  535MOL0     H73783   6.257   8.567   2.003  0.2063 -0.3001 -1.3227
  535MOL0     H73784   6.348   8.781   1.972 -2.6579  0.9596  3.8296
  535MOL0     H73785   6.414   8.752   2.132  0.4072 -1.4699 -0.1829
  535MOL0     H73786   6.633   8.672   2.048 -1.3342 -3.8077 -1.7149
  535MOL0     H73787   6.584   8.675   1.884  1.9482 -0.8002  0.4580
  535MOL0     H73788   6.706   9.089   2.002 -3.3150 -1.9837  1.6946
  535MOL0     H73789   6.879   9.261   2.036 -1.4313 -0.9925  1.8669
  535MOL0     H73790   7.044   9.204   2.013  1.1792 -0.2707  1.3608
  535MOL0     H73791   6.973   9.210   2.177  3.4929 -0.3846 -0.0521
  535MOL0     H73792   7.470   8.829   2.035 -2.9924 -0.6426 -0.1852
  535MOL0     H73793   7.678   8.797   2.164 -0.7722 -2.0868 -1.4537
  535MOL0     H73794   7.836   8.898   2.550 -1.2842  2.8738 -0.0294
  535MOL0     H73795   7.668   8.898   2.588  1.1746  0.6644  0.5437
  535MOL0     H73796   7.672   8.659   2.605 -1.9945  4.0724 -1.3399
  535MOL0     H73797   7.840   8.653   2.551 -0.5403  1.4036 -1.7139
  535MOL0     H73798   7.922   8.781   2.746  0.1161  0.1957  0.1999
  535MOL0     H73799   7.851   8.645   2.799 -1.2479  1.3745  4.9837
  535MOL0     H73800   7.742   8.929   2.837  2.0806  0.7988  1.4538
  535MOL0     H73801   7.799   8.815   2.955 -0.3089  1.3007  0.5815
  535MOL0     H73802   7.580   8.718   2.768  1.2603 -1.6188 -0.0619
  535MOL0     H73803   7.615   8.680   2.937 -2.4358 -0.6618 -0.1140
  535MOL0     H73804   7.478   8.943   2.874 -1.0447  1.4061  3.0426
  535MOL0     H73805   7.519   8.881   3.024  0.7304  0.5033 -0.0323
  535MOL0     H73806   7.275   8.836   2.963 -1.4041 -0.3756  0.8588
  535MOL0     H73807   7.365   8.682   2.975 -0.1160  0.5889  0.4581
  535MOL0     H73808   7.376   8.658   2.735 -0.5097 -0.6863 -0.6418
  535MOL0     H73809   7.328   8.823   2.705  0.2593 -1.7772  0.7885
  535MOL0     H73810   7.453   8.829   2.525 -0.3058 -1.7740 -1.2328
  535MOL0     H73811   7.256   8.872   2.412  0.2414  0.2265  0.9819
  535MOL0     H73812   7.033   8.728   2.109  0.4679 -0.7385 -0.9087
  535MOL0     H73813   6.819   8.680   2.038  2.4085 -1.1929 -2.9241
  535MOL0     H73814   6.343   8.122   3.603  1.2636 -2.2760 -1.0268
  535MOL0     H73815   6.353   8.198   3.835  0.4185  0.9508  0.1175
  535MOL0     H73816   6.506   8.439   4.125 -2.1932 -4.3824 -0.8225
  535MOL0     H73817   6.497   8.578   4.332 -2.7222 -0.5659 -1.8429
  535MOL0     H73818   6.541   8.485   4.714 -0.5691 -0.2533 -1.8437
  535MOL0     H73819   6.681   8.383   4.668  2.2190  0.1440  1.6558
  535MOL0     H73820   6.709   8.560   4.860  1.8739  0.7835 -0.3732
  535MOL0     H73821   6.682   8.677   4.748 -1.6542 -1.2477  3.4935
  535MOL0     H73822   6.908   8.464   4.720  0.5861 -0.5816  0.3861
  535MOL0     H73823   6.887   8.626   4.637 -1.5110 -2.0212 -0.6010
  535MOL0     H73824   6.946   8.602   4.940  0.5831 -1.5310 -0.3369
  535MOL0     H73825   6.910   8.742   4.831 -0.2942 -0.0588 -4.2369
  535MOL0     H73826   7.317   8.639   4.770  0.7846  3.5963  0.2796
  535MOL0     H73827   6.796   8.303   4.497  1.4411  0.1902 -1.5575
  535MOL0     H73828   6.788   8.058   4.263 -0.2168  0.7146 -0.1548
  535MOL0     H73829   6.917   8.180   4.258  1.8599 -2.7470  0.7017
  535MOL0     H73830   6.854   8.121   4.417  0.7219 -1.9214 -1.7144
  536MOL0     O73831   7.238   3.644   2.330  0.8933 -0.0114 -0.6903
  536MOL0     C73832   7.300   3.545   2.299  0.5770 -0.2863  0.6797
  536MOL0     O73833   7.433   3.538   2.259 -1.3784  0.4364 -0.5532
  536MOL0     C73834   7.511   3.643   2.300 -0.2354 -0.2005 -0.0280
  536MOL0     C73835   7.526   3.674   2.435 -0.0363 -0.2168  0.5914
  536MOL0     C73836   7.610   3.778   2.476  0.9139  0.4898  0.0876
  536MOL0     C73837   7.665   3.861   2.378  0.1163  0.0398 -0.6045
  536MOL0     O73838   7.742   3.957   2.442  0.9484 -0.4970  0.2521
  536MOL0     C73839   7.805   4.062   2.362  0.9980  0.2210 -0.0095
  536MOL0     C73840   7.874   4.174   2.450  1.1827 -0.4415  0.1788
  536MOL0     C73841   7.767   4.260   2.530 -0.1496  0.6351  0.1703
  536MOL0     C73842   7.826   4.374   2.621 -0.4472 -0.3850 -0.5632
  536MOL0     C73843   7.888   4.317   2.753  0.0387  0.9718  0.3266
  536MOL0     C73844   7.785   4.267   2.855  0.2651 -1.0744  0.1172
  536MOL0     C73845   7.847   4.267   2.994  0.0876 -0.2099 -0.2930
  536MOL0     C73846   7.986   4.204   3.011  0.3286 -0.0056 -0.0093
  536MOL0     N73847   7.966   4.054   3.000 -0.1960 -0.0665 -0.2448
  536MOL0     C73848   7.960   3.995   2.875 -0.1634 -0.1608 -0.3687
  536MOL0     C73849   7.934   3.864   2.912 -0.0911 -0.6828  0.0793
  536MOL0     C73850   7.891   3.761   2.813 -0.4036 -0.2089  0.1674
  536MOL0     C73851   7.977   3.752   2.696 -0.6393  0.1641  0.4614
  536MOL0     C73852   8.085   3.640   2.718 -0.4866 -0.6524  0.5376
  536MOL0     C73853   8.157   3.671   2.854 -0.1381  0.0141  0.3895
  536MOL0     O73854   8.290   3.613   2.835 -0.2507 -0.0422  0.8592
  536MOL0     C73855   8.396   3.647   2.914 -0.1755 -0.4698 -0.0422
  536MOL0     C73856   8.530   3.625   2.875 -0.1665  0.8498 -0.1663
  536MOL0     C73857   8.637   3.649   2.959 -0.9152  0.1166 -0.9930
  536MOL0     C73858   8.771   3.596   2.918  0.9538 -0.7886  0.6365
  536MOL0     C73859   8.620   3.733   3.074  0.4381  0.6736  0.5543
  536MOL0     C73860   8.737   3.789   3.153 -0.4571  0.0561 -0.3423
  536MOL0     O73861   8.720   3.815   3.284  0.2599  0.2249 -0.3000
  536MOL0     C73862   8.818   3.880   3.354 -0.0976  0.4600 -0.5087
  536MOL0     C73863   8.803   3.990   3.439  0.6441  0.4345 -0.3706
  536MOL0     C73864   8.906   4.043   3.522 -0.7004  0.2651  0.0736
  536MOL0     C73865   9.035   3.998   3.516  0.4005  0.2594  0.1992
  536MOL0     O73866   9.135   4.070   3.589  0.3168  0.4523 -0.2894
  536MOL0     C73867   9.193   4.169   3.500  1.3757 -0.6186  0.4983
  536MOL0     C73868   9.344   4.190   3.558  1.0228  0.2875  0.4287
  536MOL0     C73869   9.392   4.315   3.482 -0.2085  0.9815  1.1074
  536MOL0     C73870   9.417   4.284   3.331  0.1206 -0.0089 -0.3739
  536MOL0     C73871   9.512   4.397   3.284 -0.2595 -0.4675  0.1264
  536MOL0     C73872   9.531   4.402   3.126  0.0620 -0.3365  0.2677
  536MOL0     C73873   9.617   4.295   3.069 -0.8835 -0.6595  1.1207
  536MOL0     C73874   9.632   4.301   2.917  0.4085  0.1003 -0.1163
  536MOL0    Cl73875   9.806   4.303   2.900 -0.2652 -0.0458 -0.3723
  536MOL0     C73876   9.053   3.888   3.438 -0.4640  0.0570 -0.4503
  536MOL0     C73877   8.950   3.823   3.362  0.6156  0.4858 -0.4217
  536MOL0     O73878   8.832   3.819   3.083 -0.1863 -0.5476  0.3251
  536MOL0     C73879   8.491   3.758   3.114  0.1430 -0.2041  0.0255
  536MOL0     C73880   8.382   3.717   3.039 -0.0430 -0.1979 -0.4147
  536MOL0     N73881   7.912   3.853   3.044  0.0305  0.1249 -0.0747
  536MOL0     N73882   7.934   3.963   3.100  1.3110  0.0563  0.3866
  536MOL0     C73883   7.655   3.825   2.244 -0.6066 -0.1570 -0.3069
  536MOL0     C73884   7.589   3.707   2.205 -0.2231  0.8470  0.4847
  536MOL0     C73885   7.214   3.426   2.285  0.0619 -0.2753 -0.6261
  536MOL0     C73886   7.273   3.313   2.360 -0.4221 -0.6474  0.1564
  536MOL0     C73887   7.199   3.199   2.371 -0.5304  0.5075 -1.1208
  536MOL0     C73888   7.068   3.181   2.326 -0.0656  0.2121  0.1667
  536MOL0     O73889   6.993   3.069   2.332  0.2009 -0.0032  0.6956
  536MOL0     C73890   7.061   2.937   2.337  0.7991 -0.6206 -1.7060
  536MOL0     C73891   6.961   2.825   2.356 -0.4659 -0.3060 -0.3301
  536MOL0     C73892   6.886   2.806   2.228 -0.5797  0.6551  0.7014
  536MOL0     C73893   6.768   2.704   2.241 -0.3505 -0.4748 -1.2375
  536MOL0     C73894   6.687   2.701   2.115 -0.5203 -0.6153 -0.1461
  536MOL0     C73895   6.605   2.700   2.022 -0.0355 -0.5313  0.6326
  536MOL0     C73896   7.006   3.295   2.261  0.0515 -0.3032 -1.0377
  536MOL0     C73897   7.076   3.415   2.237 -0.3508  0.3412  0.5496
  536MOL0     C73898   7.012   3.529   2.159 -0.0934  0.9163 -0.3896
  536MOL0     H73899   7.482   3.606   2.506 -0.6358  0.3283  0.7482
  536MOL0     H73900   7.603   3.812   2.579 -0.4322 -1.3538  0.6479
  536MOL0     H73901   7.720   4.110   2.312  1.2242  1.1223  0.4667
  536MOL0     H73902   7.866   4.028   2.278  2.5138 -3.1268  2.2091
  536MOL0     H73903   7.956   4.138   2.512  1.0472 -1.2295 -0.0920
  536MOL0     H73904   7.924   4.248   2.386 -1.7035 -0.5645 -2.4666
  536MOL0     H73905   7.708   4.312   2.453  0.9195  1.9804  0.2203
  536MOL0     H73906   7.702   4.193   2.587  0.9287 -0.6632 -0.0834
  536MOL0     H73907   7.898   4.437   2.568 -0.1827 -0.3116 -0.1200
  536MOL0     H73908   7.752   4.448   2.653  1.8985  2.1197 -0.5525
  536MOL0     H73909   7.959   4.391   2.791 -0.8561  2.2672 -0.4184
  536MOL0     H73910   7.949   4.232   2.720  0.3637  1.4060 -0.2197
  536MOL0     H73911   7.699   4.333   2.869  2.5097  1.8844  0.8053
  536MOL0     H73912   7.742   4.174   2.815  0.4865  0.5891 -4.6881
  536MOL0     H73913   7.780   4.214   3.063  0.1178  0.2143  0.0654
  536MOL0     H73914   7.851   4.372   3.026  0.8776 -0.9243  2.2367
  536MOL0     H73915   8.053   4.229   2.928 -0.9338 -2.2671 -1.8207
  536MOL0     H73916   8.042   4.230   3.101 -0.0112 -0.0191  0.2063
  536MOL0     H73917   7.962   4.041   2.777  1.5472 -0.0123 -0.2823
  536MOL0     H73918   7.789   3.780   2.777 -0.7993  0.1734  1.4541
  536MOL0     H73919   7.888   3.665   2.865 -0.1389 -2.2007 -3.2009
  536MOL0     H73920   7.918   3.727   2.608 -0.5783  2.3057 -0.2639
  536MOL0     H73921   8.035   3.845   2.686  0.6906 -0.5396  1.2388
  536MOL0     H73922   8.048   3.537   2.716 -2.1535 -0.1849  2.9621
  536MOL0     H73923   8.156   3.645   2.635  2.2009  1.2567  2.7660
  536MOL0     H73924   8.175   3.771   2.893  0.6177  0.2077 -0.4308
  536MOL0     H73925   8.112   3.620   2.940 -2.7870 -1.7799 -1.8668
  536MOL0     H73926   8.557   3.579   2.780 -0.0282  1.3475 -0.3680
  536MOL0     H73927   8.753   3.530   2.833  0.5236 -1.0108  0.9009
  536MOL0     H73928   8.799   3.541   3.008 -3.5026  3.2010  5.0619
  536MOL0     H73929   8.844   3.668   2.880  2.0966 -2.6870 -0.9462
  536MOL0     H73930   8.707   4.041   3.435 -1.1634 -2.3659  2.3477
  536MOL0     H73931   8.886   4.132   3.581 -1.2880  0.8436 -0.9600
  536MOL0     H73932   9.202   4.117   3.405 -1.9479 -2.5966  1.1198
  536MOL0     H73933   9.140   4.265   3.498 -0.9847 -1.8172  1.3234
  536MOL0     H73934   9.343   4.226   3.662 -2.4206  2.5375 -0.2106
  536MOL0     H73935   9.410   4.106   3.533 -2.2766 -1.5902 -3.0035
  536MOL0     H73936   9.489   4.347   3.523 -0.0109  0.6414  0.9084
  536MOL0     H73937   9.321   4.398   3.479 -2.4174 -0.7953  1.6337
  536MOL0     H73938   9.324   4.280   3.275 -3.4083  1.5965  4.6834
  536MOL0     H73939   9.475   4.191   3.326  0.2111 -0.0715  1.2428
  536MOL0     H73940   9.469   4.490   3.322  1.8389 -0.0587  1.6782
  536MOL0     H73941   9.608   4.388   3.336  1.9723 -0.4689 -3.6438
  536MOL0     H73942   9.586   4.491   3.093  1.2512 -2.1467 -3.1310
  536MOL0     H73943   9.430   4.416   3.087 -0.1559  0.7246  1.1663
  536MOL0     H73944   9.581   4.193   3.082  1.4646 -2.0765 -2.1589
  536MOL0     H73945   9.719   4.301   3.110  0.6953  1.4714 -2.6796
  536MOL0     H73946   9.595   4.394   2.874  0.0935  0.2658  0.5002
  536MOL0     H73947   9.592   4.208   2.873  0.9383 -1.2809  2.1660
  536MOL0     H73948   9.147   3.834   3.433  0.6156  1.9327 -1.8922
  536MOL0     H73949   8.974   3.730   3.312  1.8367  1.1270 -1.0678
  536MOL0     H73950   8.471   3.819   3.201  0.7675  0.2447 -0.1386
  536MOL0     H73951   8.286   3.757   3.071  1.6576  3.4012  0.7250
  536MOL0     H73952   7.700   3.894   2.173 -0.6382 -2.3983 -2.6565
  536MOL0     H73953   7.582   3.684   2.099  0.5008  0.8558  0.4315
  536MOL0     H73954   7.363   3.333   2.417  1.8604  0.3409 -3.4574
  536MOL0     H73955   7.242   3.118   2.429  3.3197  3.3504  0.3668
  536MOL0     H73956   7.103   2.928   2.237 -2.6331  0.6378 -3.4092
  536MOL0     H73957   7.139   2.928   2.413 -0.4959 -1.8748 -0.4674
  536MOL0     H73958   6.896   2.852   2.440  1.0617  0.1596  0.7575
  536MOL0     H73959   7.015   2.732   2.376  2.0103  0.1444 -3.9444
  536MOL0     H73960   6.835   2.894   2.188  0.5527  0.4927 -1.2402
  536MOL0     H73961   6.959   2.768   2.156  0.2629  2.1079  0.7512
  536MOL0     H73962   6.706   2.751   2.318  0.5834  2.1096 -1.9780
  536MOL0     H73963   6.799   2.605   2.277  1.1947  0.1084 -0.8792
  536MOL0     H73964   6.545   2.678   1.936  1.7186  0.9549 -1.1022
  536MOL0     H73965   6.899   3.289   2.245  0.0728  1.2584 -1.9023
  536MOL0     H73966   7.075   3.553   2.074  0.2920 -0.6411 -0.5661
  536MOL0     H73967   6.918   3.503   2.110 -0.9009  1.8793  0.5838
  536MOL0     H73968   7.015   3.625   2.213  2.4490  1.0149 -0.5722
  537MOL0     O73969   6.143   6.645   0.070  0.9175 -0.9058 -0.6536
  537MOL0     C73970   6.201   6.576   0.157 -0.7299  0.3400 -0.9705
  537MOL0     O73971   6.274   6.632   0.266  0.2754  0.1731  0.1612
  537MOL0     C73972   6.257   6.767   0.274  0.4801 -0.3273  0.7450
  537MOL0     C73973   6.175   6.815   0.378 -0.0461  0.1065 -0.1382
  537MOL0     C73974   6.152   6.950   0.379  0.5412 -1.1074  0.4707
  537MOL0     C73975   6.225   7.037   0.295  0.1321  0.2941 -0.7820
  537MOL0     O73976   6.198   7.176   0.319 -0.3347 -0.3170 -0.2393
  537MOL0     C73977   6.212   7.262   0.205  0.5802  0.0474 -0.0468
  537MOL0     C73978   6.092   7.240   0.106  1.1651 -0.5955 -1.2479
  537MOL0     C73979   5.950   7.233   0.175  0.1390  0.6042 -0.7941
  537MOL0     C73980   5.830   7.297   0.100  0.1766 -0.4904 -0.0400
  537MOL0     C73981   5.704   7.310   0.192 -0.3602  0.2692  0.4342
  537MOL0     C73982   5.600   7.410   0.138  0.9266 -0.2145 -0.2924
  537MOL0     C73983   5.539   7.340   0.016  0.5310  0.4002  0.8462
  537MOL0     C73984   5.492   7.433  -0.089 -0.5755 -0.7380  0.7499
  537MOL0     N73985   5.443   7.565  -0.052  0.7939 -0.2208  0.0969
  537MOL0     C73986   5.347   7.601   0.044  0.5919  0.4927 -0.1328
  537MOL0     C73987   5.321   7.730   0.020  0.3972  0.4617  0.3218
  537MOL0     C73988   5.232   7.817   0.105  0.3202  0.0566 -0.2943
  537MOL0     C73989   5.084   7.810   0.059 -0.6448  0.2073  0.6056
  537MOL0     C73990   4.985   7.906   0.122 -0.4005 -0.2197 -0.3448
  537MOL0     C73991   4.867   7.949   0.050  0.3076  1.0579  0.9490
  537MOL0     O73992   4.783   7.848   0.011 -0.7120 -0.3045 -0.4796
  537MOL0     C73993   4.753   7.849  -0.116  0.1994  0.1955  1.1341
  537MOL0     C73994   4.652   7.929  -0.171  0.7929 -0.9676 -1.4277
  537MOL0     C73995   4.630   7.936  -0.306  1.4280  0.6288  0.1374
  537MOL0     C73996   4.528   8.045  -0.345 -1.0915 -0.5918  0.7431
  537MOL0     C73997   4.697   7.837  -0.395 -0.5946  0.2783 -0.7143
  537MOL0     C73998   4.682   7.835  -0.546  0.4392  0.5516 -0.3447
  537MOL0     O73999   4.758   7.742  -0.611  0.7487  0.2785 -0.0245
  537MOL0     C74000   4.768   7.736  -0.744 -0.2664 -1.0551  0.8526
  537MOL0     C74001   4.825   7.838  -0.818 -0.5713  0.7937 -0.2659
  537MOL0     C74002   4.853   7.812  -0.957  0.9060  0.6118 -0.2678
  537MOL0     C74003   4.814   7.695  -1.022 -0.0422 -0.1378 -0.1438
  537MOL0     O74004   4.832   7.674  -1.158  0.3870 -0.0977  0.6761
  537MOL0     C74005   4.819   7.786  -1.247 -0.5513  0.2036  0.6788
  537MOL0     C74006   4.839   7.744  -1.393  0.1811  0.7334 -1.5504
  537MOL0     C74007   4.833   7.864  -1.487  0.2984  0.2224  0.2008
  537MOL0     C74008   4.709   7.935  -1.475  0.3576 -0.8890 -0.3303
  537MOL0     C74009   4.691   8.033  -1.599  0.0213  0.0603 -0.0091
  537MOL0     C74010   4.549   8.102  -1.599  0.4537 -0.9038  0.1069
  537MOL0     C74011   4.540   8.221  -1.698  1.1891 -0.1916  1.1890
  537MOL0     C74012   4.526   8.169  -1.847  0.2042 -0.5427 -0.1499
  537MOL0    Cl74013   4.370   8.082  -1.869 -0.1921 -0.0912 -0.1433
  537MOL0     C74014   4.750   7.601  -0.946 -0.2459 -0.3970  0.0195
  537MOL0     C74015   4.723   7.620  -0.814  0.2537  0.2596  0.5419
  537MOL0     O74016   4.610   7.919  -0.602  0.6591 -0.6327 -0.4185
  537MOL0     C74017   4.780   7.739  -0.335 -0.9383  0.8216  0.3920
  537MOL0     C74018   4.809   7.750  -0.202 -0.8484  0.8632 -0.5640
  537MOL0     N74019   5.390   7.775  -0.089 -0.1208 -0.3180  0.8383
  537MOL0     N74020   5.471   7.679  -0.121 -0.0793  0.2161 -1.5408
  537MOL0     C74021   6.322   6.989   0.205 -0.0536  0.4601  1.4320
  537MOL0     C74022   6.329   6.852   0.182  0.9650  0.6936 -0.4348
  537MOL0     C74023   6.200   6.430   0.154 -0.1618  0.1049 -0.3636
  537MOL0     C74024   6.270   6.360   0.259 -0.5751 -0.9762 -0.2345
  537MOL0     C74025   6.261   6.221   0.270 -0.2044  0.0827 -0.3766
  537MOL0     C74026   6.200   6.144   0.166  0.4260  0.1838 -0.5513
  537MOL0     O74027   6.198   6.007   0.152  0.0785  0.7934  0.2408
  537MOL0     C74028   6.286   5.914   0.214  1.0913  0.4280 -0.0161
  537MOL0     C74029   6.243   5.768   0.175  0.9020  0.4588 -1.8096
  537MOL0     C74030   6.231   5.741   0.023 -0.5800  0.3281 -0.3233
  537MOL0     C74031   6.244   5.585   0.004  0.2963 -0.0621  0.1833
  537MOL0     C74032   6.387   5.541  -0.009 -0.4802 -0.7316 -0.4651
  537MOL0     C74033   6.507   5.527  -0.011 -0.2754 -1.3460 -0.4644
  537MOL0     C74034   6.146   6.218   0.063 -0.4268  0.6886 -0.2815
  537MOL0     C74035   6.150   6.350   0.047  0.1327  0.0653 -0.3292
  537MOL0     C74036   6.080   6.398  -0.081  1.0611  0.1409  0.2846
  537MOL0     H74037   6.126   6.758   0.456  1.0052 -0.6446  0.0062
  537MOL0     H74038   6.092   6.994   0.458  1.7247  0.8086  0.3580
  537MOL0     H74039   6.306   7.234   0.157 -0.5514 -0.0857 -2.3187
  537MOL0     H74040   6.211   7.368   0.232  1.0507  0.1378 -0.3750
  537MOL0     H74041   6.078   7.319   0.032 -0.0408  3.4215  2.7982
  537MOL0     H74042   6.109   7.151   0.045 -1.4381 -0.3504 -2.4468
  537MOL0     H74043   5.919   7.130   0.191  2.0364 -0.2156 -1.9704
  537MOL0     H74044   5.959   7.278   0.274  0.5877 -0.9473 -0.1062
  537MOL0     H74045   5.857   7.399   0.071  4.0581 -1.1340  0.7813
  537MOL0     H74046   5.814   7.249   0.003  1.2821  1.7283 -1.3917
  537MOL0     H74047   5.731   7.331   0.296 -0.0618  0.1131  0.3910
  537MOL0     H74048   5.652   7.213   0.193  1.7786 -0.9622 -0.3745
  537MOL0     H74049   5.523   7.427   0.214  1.0969  2.2120 -0.5762
  537MOL0     H74050   5.645   7.508   0.119  1.0176 -0.3151 -0.5919
  537MOL0     H74051   5.457   7.277   0.053 -0.1821  0.7192 -0.1501
  537MOL0     H74052   5.619   7.287  -0.036  0.2892  0.9113 -0.0596
  537MOL0     H74053   5.579   7.450  -0.154 -0.1241 -2.5921  0.8350
  537MOL0     H74054   5.411   7.394  -0.151 -1.4564  0.9831  0.7378
  537MOL0     H74055   5.297   7.544   0.121  2.5102 -0.6060  0.3535
  537MOL0     H74056   5.269   7.920   0.095 -1.6311  0.6329 -2.2474
  537MOL0     H74057   5.240   7.778   0.207 -0.8682 -1.3905 -0.7154
  537MOL0     H74058   5.097   7.845  -0.044  0.8206 -0.3757  0.5654
  537MOL0     H74059   5.041   7.709   0.058 -2.6082  0.9484  2.1766
  537MOL0     H74060   4.957   7.860   0.217  0.9593  2.1926  1.3521
  537MOL0     H74061   5.035   7.998   0.154 -1.3013 -0.8620  3.4278
  537MOL0     H74062   4.804   8.024   0.099 -0.7883 -0.0041  1.2065
  537MOL0     H74063   4.911   8.001  -0.036 -0.2472  0.5108  0.3289
  537MOL0     H74064   4.615   8.002  -0.100  2.3301 -1.7849  0.3106
  537MOL0     H74065   4.454   7.997  -0.410  0.1033  1.5261 -2.4215
  537MOL0     H74066   4.564   8.127  -0.408  0.9177 -2.1784 -0.3124
  537MOL0     H74067   4.490   8.097  -0.257 -0.1430  3.1031 -0.8455
  537MOL0     H74068   4.849   7.933  -0.773  4.2965  0.2269 -1.1656
  537MOL0     H74069   4.907   7.893  -1.006 -0.5777  2.4946  1.0311
  537MOL0     H74070   4.721   7.836  -1.245 -0.0073  1.4453 -1.1572
  537MOL0     H74071   4.893   7.864  -1.228 -0.6756  0.4046  0.3572
  537MOL0     H74072   4.938   7.698  -1.397  0.4003  0.4102  2.8182
  537MOL0     H74073   4.772   7.660  -1.414 -1.0350  0.9635  0.9690
  537MOL0     H74074   4.832   7.830  -1.591 -0.9690 -1.8633  0.8378
  537MOL0     H74075   4.918   7.927  -1.460  1.5449 -1.2018 -0.2610
  537MOL0     H74076   4.727   7.995  -1.385  1.8225 -0.4323 -0.9000
  537MOL0     H74077   4.630   7.862  -1.461  1.0498 -1.5026  0.4778
  537MOL0     H74078   4.781   8.094  -1.591  0.7378 -1.1648  1.8754
  537MOL0     H74079   4.707   7.973  -1.689  3.8851  2.0569 -0.8772
  537MOL0     H74080   4.540   8.157  -1.505  0.9093  1.7078 -1.3031
  537MOL0     H74081   4.461   8.037  -1.609  0.0147  0.0668 -3.4529
  537MOL0     H74082   4.632   8.280  -1.696  0.8239  0.5676 -1.3155
  537MOL0     H74083   4.455   8.284  -1.670  0.2903 -2.1124  3.0755
  537MOL0     H74084   4.611   8.105  -1.870  1.1657  0.9865 -1.0359
  537MOL0     H74085   4.546   8.241  -1.927  3.9050 -3.6044 -2.3578
  537MOL0     H74086   4.714   7.504  -0.981  3.5072 -2.0116  0.1980
  537MOL0     H74087   4.658   7.554  -0.757 -0.9431 -0.6292 -1.7104
  537MOL0     H74088   4.811   7.657  -0.398 -2.9552 -0.5945  1.1540
  537MOL0     H74089   4.878   7.685  -0.149  2.9288  3.5810 -1.6753
  537MOL0     H74090   6.388   7.059   0.154 -0.4823 -0.6572 -0.8135
  537MOL0     H74091   6.400   6.815   0.109  0.3322  1.0546 -1.2413
  537MOL0     H74092   6.339   6.407   0.329  0.8283 -0.8813 -1.6076
  537MOL0     H74093   6.315   6.179   0.354  1.4895  1.5279 -0.6845
  537MOL0     H74094   6.392   5.938   0.201  1.1378  1.4068  1.8416
  537MOL0     H74095   6.275   5.921   0.322  1.3911 -0.1504  0.0540
  537MOL0     H74096   6.154   5.758   0.238  2.0080  1.8457  0.0580
  537MOL0     H74097   6.315   5.698   0.218  2.1805  2.0617 -1.2370
  537MOL0     H74098   6.129   5.773   0.001 -1.3513 -1.6985  0.0494
  537MOL0     H74099   6.303   5.801  -0.033  1.1209  0.7681  2.2022
  537MOL0     H74100   6.198   5.554  -0.090  3.3482 -1.6326 -0.9570
  537MOL0     H74101   6.190   5.543   0.090  2.6020 -2.5846  0.5823
  537MOL0     H74102   6.614   5.528  -0.012 -0.2588 -1.3470  0.5748
  537MOL0     H74103   6.079   6.169  -0.007 -0.1107  0.3443 -0.3419
  537MOL0     H74104   6.141   6.479  -0.122  1.2015 -0.7790 -1.3683
  537MOL0     H74105   6.086   6.319  -0.156 -3.3396 -0.6463  0.4824
  537MOL0     H74106   5.977   6.434  -0.067 -0.3239 -2.0201 -3.1339
  538MOL0     O74107   4.470   6.179   2.998  0.3873  0.1682 -0.3455
  538MOL0     C74108   4.467   6.196   2.878  0.0180 -0.1552  0.5832
  538MOL0     O74109   4.357   6.177   2.806 -0.0716  0.6284  0.0992
  538MOL0     C74110   4.240   6.119   2.851  0.2202 -0.4689  0.3830
  538MOL0     C74111   4.237   5.996   2.920  0.2578  0.1819 -0.4834
  538MOL0     C74112   4.117   5.949   2.969 -0.5293  0.4673 -0.5667
  538MOL0     C74113   3.995   6.014   2.957  0.2425 -1.1058  0.3620
  538MOL0     O74114   3.872   5.982   3.018  0.3043  0.5828  0.0765
  538MOL0     C74115   3.864   5.848   3.065  0.0283  0.1204  0.4735
  538MOL0     C74116   3.725   5.792   3.113  1.1926 -0.5029 -0.4660
  538MOL0     C74117   3.618   5.780   2.999 -0.1814  0.4296  0.6792
  538MOL0     C74118   3.511   5.672   3.033 -0.7252 -0.1887 -0.1402
  538MOL0     C74119   3.387   5.713   2.955  0.1695 -0.6490 -0.2463
  538MOL0     C74120   3.394   5.699   2.810 -0.2266  0.4157 -0.0846
  538MOL0     C74121   3.259   5.677   2.746  0.2366  0.0449 -0.2530
  538MOL0     C74122   3.250   5.748   2.612 -0.7825  0.6887 -0.2558
  538MOL0     N74123   3.111   5.725   2.577  0.7789  0.4904 -0.1252
  538MOL0     C74124   3.000   5.792   2.627 -1.0597 -0.2505  0.0547
  538MOL0     C74125   2.901   5.752   2.564 -0.0608  0.9991  0.4517
  538MOL0     C74126   2.769   5.830   2.579 -0.4390  0.5701 -1.0540
  538MOL0     C74127   2.769   5.946   2.482  0.7127 -0.0532 -0.1898
  538MOL0     C74128   2.656   6.034   2.465  0.9631  0.1220  0.6346
  538MOL0     C74129   2.543   5.960   2.392 -0.5142  0.2975  0.7796
  538MOL0     O74130   2.433   6.050   2.388 -0.3115 -0.3695 -0.6476
  538MOL0     C74131   2.391   6.101   2.264 -0.1543  0.2993 -0.3955
  538MOL0     C74132   2.428   6.053   2.136 -0.2088  0.0445 -0.0837
  538MOL0     C74133   2.365   6.104   2.015 -0.1945  1.4787 -0.3634
  538MOL0     C74134   2.415   6.045   1.883 -0.0929 -0.0423  0.2260
  538MOL0     C74135   2.272   6.205   2.023  0.2769 -0.4913 -0.6573
  538MOL0     C74136   2.205   6.267   1.913  0.7416 -0.5927 -0.4748
  538MOL0     O74137   2.077   6.321   1.939 -0.9823 -0.5862 -0.6388
  538MOL0     C74138   2.016   6.394   1.833 -0.6327  0.1096 -0.9009
  538MOL0     C74139   1.964   6.323   1.726 -0.2660 -0.2501  0.6203
  538MOL0     C74140   1.913   6.389   1.612  0.0510 -0.1847  0.3062
  538MOL0     C74141   1.920   6.529   1.614 -0.6033  0.5113 -0.2035
  538MOL0     O74142   1.885   6.606   1.505 -0.2475 -0.2869 -0.1527
  538MOL0     C74143   1.871   6.551   1.372 -1.3220  1.1942 -0.1993
  538MOL0     C74144   1.844   6.667   1.277  1.3302 -0.6169 -0.3359
  538MOL0     C74145   1.813   6.629   1.137  0.7133 -0.3640  0.2270
  538MOL0     C74146   1.936   6.556   1.078  0.4973 -0.5943 -0.4607
  538MOL0     C74147   2.023   6.628   0.968 -0.2080  0.9548  0.0961
  538MOL0     C74148   2.175   6.589   0.989 -0.2629 -0.0429  1.1322
  538MOL0     C74149   2.264   6.671   0.890  0.1005 -0.0772 -0.5494
  538MOL0     C74150   2.410   6.664   0.939 -0.3160 -0.4437  0.2252
  538MOL0    Cl74151   2.442   6.770   1.089 -0.1373  0.3851 -0.2637
  538MOL0     C74152   1.966   6.602   1.724 -0.0855 -0.2657  0.0922
  538MOL0     C74153   2.004   6.533   1.838 -0.1011 -0.0361 -0.6574
  538MOL0     O74154   2.255   6.272   1.806  0.7514  1.2046 -0.2705
  538MOL0     C74155   2.232   6.253   2.148 -1.1225  0.9427  0.0154
  538MOL0     C74156   2.298   6.205   2.262 -0.5351  0.6821 -0.7402
  538MOL0     N74157   2.932   5.645   2.484 -1.1075 -1.3880 -0.4241
  538MOL0     N74158   3.063   5.641   2.477  1.1267  0.5115 -0.8920
  538MOL0     C74159   4.005   6.130   2.876  0.1838  0.4790 -0.5582
  538MOL0     C74160   4.118   6.185   2.827  0.2038 -0.1616  0.0496
  538MOL0     C74161   4.581   6.262   2.810 -0.4195  0.6858 -0.1689
  538MOL0     C74162   4.599   6.223   2.675 -0.1239  0.4289 -0.3479
  538MOL0     C74163   4.683   6.292   2.589 -0.3684  0.0335  0.1106
  538MOL0     C74164   4.764   6.386   2.644  0.6118 -0.8285 -0.3850
  538MOL0     O74165   4.849   6.441   2.553  0.0948  0.1774 -0.0673
  538MOL0     C74166   4.958   6.527   2.612 -0.0877  0.0180 -0.7944
  538MOL0     C74167   5.080   6.510   2.524  0.6781 -0.5052 -0.6095
  538MOL0     C74168   5.059   6.581   2.388  0.6584 -0.5317  0.8810
  538MOL0     C74169   5.179   6.592   2.291  0.1268 -0.6193 -1.2945
  538MOL0     C74170   5.186   6.724   2.221  0.0045 -0.1329 -0.2534
  538MOL0     C74171   5.178   6.820   2.152 -0.0823 -0.2996 -0.6203
  538MOL0     C74172   4.752   6.421   2.780 -0.0066 -0.5281 -0.4558
  538MOL0     C74173   4.650   6.370   2.865 -0.1413 -0.0869  0.3775
  538MOL0     C74174   4.641   6.413   3.011  0.7330 -0.1105  0.0296
  538MOL0     H74175   4.335   5.950   2.928 -0.3232 -1.4850 -2.1670
  538MOL0     H74176   4.123   5.857   3.026 -0.3643  2.8134  3.5513
  538MOL0     H74177   3.935   5.844   3.148  0.0236  0.8919  0.5206
  538MOL0     H74178   3.909   5.788   2.985 -0.7206  0.6437 -0.3508
  538MOL0     H74179   3.734   5.691   3.151 -1.2604 -0.9224 -0.8291
  538MOL0     H74180   3.684   5.851   3.196 -0.9654 -3.1506  0.4963
  538MOL0     H74181   3.584   5.882   2.979 -1.5864 -0.1517 -0.0416
  538MOL0     H74182   3.677   5.747   2.914 -0.9389  0.3502  0.1755
  538MOL0     H74183   3.555   5.577   3.003  0.0945  0.4066 -0.8783
  538MOL0     H74184   3.485   5.661   3.139  2.6148 -2.7965  0.5754
  538MOL0     H74185   3.348   5.812   2.980  1.4373  1.0139 -4.0989
  538MOL0     H74186   3.304   5.645   2.978 -3.5061  2.8228 -1.9677
  538MOL0     H74187   3.439   5.789   2.768  0.3121  1.1736  1.9879
  538MOL0     H74188   3.456   5.611   2.788  0.2634  0.3579  1.4057
  538MOL0     H74189   3.185   5.720   2.814 -1.4383 -2.2115 -0.5215
  538MOL0     H74190   3.228   5.573   2.735 -4.2925  1.3328 -1.5175
  538MOL0     H74191   3.272   5.853   2.633 -1.2541  0.7820 -0.2145
  538MOL0     H74192   3.329   5.716   2.543  0.7561  2.2555  0.7088
  538MOL0     H74193   3.001   5.875   2.696  1.4250  0.4467 -0.7384
  538MOL0     H74194   2.766   5.882   2.675  1.2700  0.5303 -0.9355
  538MOL0     H74195   2.683   5.763   2.572  0.1045 -0.2714 -0.1093
  538MOL0     H74196   2.852   6.015   2.501  1.7618 -0.9727 -1.2795
  538MOL0     H74197   2.790   5.908   2.382  0.4014  0.8679 -0.6141
  538MOL0     H74198   2.610   6.072   2.556 -3.5058 -1.0822 -0.8461
  538MOL0     H74199   2.694   6.126   2.419  1.2268 -0.0948  0.4055
  538MOL0     H74200   2.574   5.913   2.298  0.3826  0.5046  0.9682
  538MOL0     H74201   2.509   5.884   2.463 -0.8772  0.8054  1.1600
  538MOL0     H74202   2.487   5.963   2.124  3.6066  2.1789  0.8978
  538MOL0     H74203   2.454   6.126   1.821  2.4543 -1.2193  0.1513
  538MOL0     H74204   2.335   5.995   1.829 -0.3685 -2.0278  2.3099
  538MOL0     H74205   2.493   5.970   1.898  0.7276  0.9278  0.9437
  538MOL0     H74206   1.973   6.215   1.725  1.3474 -0.1564  1.2107
  538MOL0     H74207   1.877   6.325   1.532  0.1877  0.8870 -0.6312
  538MOL0     H74208   1.969   6.505   1.353 -0.6100  1.9474  1.5179
  538MOL0     H74209   1.801   6.467   1.367  1.8060 -1.8706  1.9346
  538MOL0     H74210   1.754   6.708   1.325  1.1548 -2.1432  0.7044
  538MOL0     H74211   1.920   6.745   1.274  0.0420  0.6778 -2.8913
  538MOL0     H74212   1.777   6.720   1.088 -2.0679 -0.8885  1.0950
  538MOL0     H74213   1.722   6.568   1.135 -0.1088  0.8389 -1.8449
  538MOL0     H74214   1.909   6.464   1.025  0.7717 -0.0529 -1.5707
  538MOL0     H74215   2.016   6.542   1.150  0.5016  1.9558  0.1325
  538MOL0     H74216   1.989   6.588   0.872  0.8127 -3.1450  1.2319
  538MOL0     H74217   2.005   6.736   0.974 -1.3365  1.1336 -3.7699
  538MOL0     H74218   2.199   6.484   0.972 -0.6103 -0.1087  1.0490
  538MOL0     H74219   2.197   6.617   1.093  1.3924  4.1779 -0.1242
  538MOL0     H74220   2.230   6.774   0.881  0.8308  0.1857 -0.3374
  538MOL0     H74221   2.265   6.631   0.788 -0.7332  2.3674 -1.5950
  538MOL0     H74222   2.479   6.701   0.862 -0.7558 -2.5490 -1.2698
  538MOL0     H74223   2.434   6.561   0.967  0.5539 -0.4243 -0.3845
  538MOL0     H74224   1.976   6.709   1.740  1.1764 -0.4874  0.9852
  538MOL0     H74225   2.059   6.579   1.920 -1.3480 -0.3368  0.3682
  538MOL0     H74226   2.154   6.326   2.166 -2.3202 -0.1921 -0.4182
  538MOL0     H74227   2.279   6.258   2.355  1.3876  1.4859 -0.7411
  538MOL0     H74228   3.912   6.183   2.857  0.5733  2.3702  2.2348
  538MOL0     H74229   4.107   6.275   2.766  2.7404 -0.8120 -1.5212
  538MOL0     H74230   4.554   6.134   2.633 -0.5887  0.6197 -0.2636
  538MOL0     H74231   4.706   6.274   2.484  1.2442 -0.2377  0.4806
  538MOL0     H74232   4.932   6.633   2.617  1.3060  0.3969 -1.0687
  538MOL0     H74233   4.992   6.490   2.709  1.7392  0.5239 -1.1979
  538MOL0     H74234   5.107   6.404   2.517 -0.4882 -0.8323 -0.3995
  538MOL0     H74235   5.163   6.564   2.570  1.3663 -1.1548 -1.0830
  538MOL0     H74236   4.972   6.538   2.337  1.0539 -0.5732  0.2267
  538MOL0     H74237   5.036   6.683   2.422  4.3810  0.1214  1.8211
  538MOL0     H74238   5.181   6.517   2.212  2.6815 -0.1039 -1.7993
  538MOL0     H74239   5.271   6.581   2.350  1.1556  0.7433 -2.5950
  538MOL0     H74240   5.155   6.896   2.079  4.3251  1.3630 -0.5945
  538MOL0     H74241   4.826   6.481   2.831 -0.3182  0.0390 -0.6630
  538MOL0     H74242   4.534   6.424   3.031 -0.3894  0.7155 -4.9783
  538MOL0     H74243   4.696   6.341   3.072  1.8676 -0.1197 -0.9680
  538MOL0     H74244   4.692   6.507   3.034  2.9538 -1.4097  0.7230
  539MOL0     O74245   3.467   9.860   9.123 -0.7677  0.0449 -0.5018
  539MOL0     C74246   3.535   9.760   9.120  0.4644  0.0953 -0.0362
  539MOL0     O74247   3.568   9.691   9.003 -0.8183 -0.1638  0.6760
  539MOL0     C74248   3.551   9.730   8.876 -0.2809  0.0897  0.2014
  539MOL0     C74249   3.625   9.669   8.774 -1.1868  1.0953 -0.0299
  539MOL0     C74250   3.614   9.705   8.641 -0.5503  0.2086  0.2741
  539MOL0     C74251   3.522   9.800   8.604 -0.2164 -0.4581 -0.2657
  539MOL0     O74252   3.487   9.810   8.471 -0.0712 -0.6874  0.1138
  539MOL0     C74253   3.505   9.938   8.401 -0.1528 -0.7772  0.3544
  539MOL0     C74254   3.579   9.924   8.266 -0.2649 -0.9149 -1.3253
  539MOL0     C74255   3.706   9.848   8.280  0.1294 -1.4358 -0.8886
  539MOL0     C74256   3.807   9.936   8.358 -0.3212  0.1996  0.7767
  539MOL0     C74257   3.955   9.892   8.329  0.4308 -0.3375 -0.6861
  539MOL0     C74258   3.986   9.744   8.346 -0.3458 -0.2321 -0.2076
  539MOL0     C74259   3.985   9.679   8.484  0.9404  0.1019  0.0046
  539MOL0     C74260   3.976   9.762   8.614  0.5215  0.3324  0.1833
  539MOL0     N74261   4.095   9.842   8.639  0.3920 -0.5092 -0.3116
  539MOL0     C74262   4.097   9.976   8.683  1.3154  0.4710 -0.3175
  539MOL0     C74263   4.220  10.000   8.735  0.3253  0.0510 -0.0733
  539MOL0     C74264   4.258  10.132   8.798 -0.5861  0.5055  0.4353
  539MOL0     C74265   4.391  10.179   8.760 -0.4640 -0.9279  0.3352
  539MOL0     C74266   4.402  10.232   8.609 -0.8263 -0.1093  0.2022
  539MOL0     C74267   4.556  10.268   8.599  0.1943  0.6597  0.6183
  539MOL0     O74268   4.574  10.334   8.477 -0.0669 -0.0819 -0.0382
  539MOL0     C74269   4.700  10.363   8.434  1.3897 -0.1275  0.0950
  539MOL0     C74270   4.824  10.318   8.485  0.0049 -0.1210 -0.4357
  539MOL0     C74271   4.952  10.361   8.427  0.4896  0.3941 -0.4462
  539MOL0     C74272   5.083  10.302   8.484  0.1877  1.4466 -0.0007
  539MOL0     C74273   4.958  10.433   8.313 -0.6084 -0.1958 -0.7956
  539MOL0     C74274   5.080  10.467   8.238 -0.1714  0.4470 -0.0836
  539MOL0     O74275   5.190  10.504   8.314 -0.0660  0.3533 -0.2320
  539MOL0     C74276   5.321  10.485   8.257  0.9229 -0.2042 -0.2542
  539MOL0     C74277   5.364  10.541   8.140 -0.9518  0.5804  0.0071
  539MOL0     C74278   5.491  10.498   8.095  0.9122  0.5302 -0.0391
  539MOL0     C74279   5.573  10.407   8.156 -0.2655 -0.1766 -0.3135
  539MOL0     O74280   5.683  10.369   8.095 -0.2039 -0.1772  0.1035
  539MOL0     C74281   5.777  10.294   8.165  0.2878 -0.4228 -0.1310
  539MOL0     C74282   5.906  10.299   8.083  0.4394 -0.3373 -0.4384
  539MOL0     C74283   6.013  10.212   8.146  0.2173 -0.3699 -0.5384
  539MOL0     C74284   6.151  10.227   8.085  0.4186  0.5907 -0.0476
  539MOL0     C74285   6.253  10.158   8.170 -0.3982  0.0753  0.4623
  539MOL0     C74286   6.257  10.010   8.180  0.0753  0.5972  0.2080
  539MOL0     C74287   6.354   9.968   8.283  0.4740 -0.8464 -0.4830
  539MOL0     C74288   6.339   9.814   8.313 -0.5121 -0.9424 -0.2932
  539MOL0    Cl74289   6.476   9.753   8.411 -0.1068 -0.7304  0.2680
  539MOL0     C74290   5.528  10.354   8.275  0.3992 -0.0546  0.0042
  539MOL0     C74291   5.406  10.390   8.322 -0.2188 -0.4000 -0.1195
  539MOL0     O74292   5.085  10.447   8.120  0.5584 -0.1632 -0.6717
  539MOL0     C74293   4.834  10.480   8.265  0.2918  0.1788  0.4413
  539MOL0     C74294   4.706  10.445   8.316 -0.3183 -0.0440  0.0119
  539MOL0     N74295   4.288   9.880   8.725  0.1368 -0.0334  0.4965
  539MOL0     N74296   4.212   9.789   8.670 -0.2998 -0.5643  0.6650
  539MOL0     C74297   3.450   9.864   8.701  0.0700 -0.1739  0.5864
  539MOL0     C74298   3.462   9.827   8.836 -0.6406  0.2903 -0.8218
  539MOL0     C74299   3.600   9.717   9.241 -0.1855 -0.4507  0.0039
  539MOL0     C74300   3.522   9.738   9.354  0.3864 -0.1723 -0.2805
  539MOL0     C74301   3.569   9.702   9.478  0.3156  0.5227 -0.6560
  539MOL0     C74302   3.692   9.634   9.492  0.7683  0.8299  0.2541
  539MOL0     O74303   3.723   9.607   9.628  0.1463  1.1287  0.2760
  539MOL0     C74304   3.839   9.518   9.653  0.1738 -0.3761  0.1928
  539MOL0     C74305   3.890   9.539   9.791  0.1959 -0.3009  0.3356
  539MOL0     C74306   3.796   9.519   9.916 -0.5456 -0.4977  0.1946
  539MOL0     C74307   3.679   9.420   9.899 -0.5934 -0.4774 -0.3576
  539MOL0     C74308   3.593   9.421  10.024 -0.2586  0.4277 -1.4671
  539MOL0     C74309   3.536   9.407  10.135 -0.7848  0.0857  0.2065
  539MOL0     C74310   3.770   9.605   9.380  0.7653  0.4994 -0.0510
  539MOL0     C74311   3.719   9.640   9.254  1.0075  0.0677 -0.0359
  539MOL0     C74312   3.797   9.598   9.126 -0.5421  0.2682 -0.4010
  539MOL0     H74313   3.685   9.592   8.820 -1.9805 -0.3823 -1.3622
  539MOL0     H74314   3.679   9.653   8.572 -2.8984 -2.1355 -0.3542
  539MOL0     H74315   3.557  10.011   8.465 -0.5459  0.5832 -0.8243
  539MOL0     H74316   3.406   9.980   8.384  0.6007  1.4095  0.9706
  539MOL0     H74317   3.524   9.856   8.200 -1.8424  0.3401 -1.3708
  539MOL0     H74318   3.595  10.019   8.214  1.9736  2.2922  4.3545
  539MOL0     H74319   3.694   9.752   8.332  2.8125  0.0933  3.0672
  539MOL0     H74320   3.747   9.840   8.179  1.2003  0.4472 -0.6428
  539MOL0     H74321   3.797  10.038   8.320  1.1520 -0.8884 -3.0048
  539MOL0     H74322   3.791   9.933   8.466  0.0429 -2.0369  0.8297
  539MOL0     H74323   4.022   9.956   8.387 -0.2092 -1.4458  1.3628
  539MOL0     H74324   3.974   9.926   8.226 -0.3046  1.2907 -0.3115
  539MOL0     H74325   3.923   9.692   8.273  0.4559  2.5115 -3.0806
  539MOL0     H74326   4.089   9.735   8.311  0.6094  0.2713  2.2626
  539MOL0     H74327   4.064   9.603   8.478  0.2856 -0.6123  0.2245
  539MOL0     H74328   3.895   9.616   8.480  1.3797 -0.5057 -0.7150
  539MOL0     H74329   3.879   9.813   8.606 -0.2357 -1.0142  0.4346
  539MOL0     H74330   3.960   9.694   8.698 -1.1329 -0.6410 -0.8447
  539MOL0     H74331   4.007  10.037   8.686 -0.5050 -1.9898 -1.2660
  539MOL0     H74332   4.268  10.125   8.907  2.3432 -1.5554  0.1401
  539MOL0     H74333   4.176  10.202   8.779 -0.2018  1.3723  1.8035
  539MOL0     H74334   4.414  10.270   8.817 -1.8542 -1.5123  1.9078
  539MOL0     H74335   4.469  10.111   8.794 -0.1631  0.8416  3.5655
  539MOL0     H74336   4.370  10.159   8.534  1.2020 -1.8846  0.9577
  539MOL0     H74337   4.364  10.331   8.586  2.8857  0.6825 -3.9925
  539MOL0     H74338   4.589  10.321   8.688 -1.2822 -1.1183  2.3005
  539MOL0     H74339   4.606  10.172   8.587 -2.7005 -1.3560  3.1623
  539MOL0     H74340   4.818  10.245   8.565 -2.8758 -1.0911 -1.4130
  539MOL0     H74341   5.042  10.225   8.550 -1.6809  1.2946 -1.2383
  539MOL0     H74342   5.146  10.368   8.545 -1.8742  0.3324  3.6239
  539MOL0     H74343   5.146  10.250   8.411  1.1435 -1.5232  2.7559
  539MOL0     H74344   5.318  10.605   8.066  1.8138 -0.2576 -2.6285
  539MOL0     H74345   5.525  10.534   7.999  0.0045 -0.8832 -0.9242
  539MOL0     H74346   5.786  10.320   8.271 -2.2587  0.1829 -0.0023
  539MOL0     H74347   5.741  10.190   8.161  1.8720 -1.0104 -0.0603
  539MOL0     H74348   5.894  10.256   7.983 -0.0818 -3.5486  0.9082
  539MOL0     H74349   5.950  10.399   8.076  3.1048 -1.0026  3.5729
  539MOL0     H74350   5.986  10.106   8.138 -2.3074  0.2914 -2.0741
  539MOL0     H74351   6.028  10.231   8.253  0.4452 -4.2211  0.2599
  539MOL0     H74352   6.175  10.333   8.077  0.5766  0.6098  0.6500
  539MOL0     H74353   6.165  10.185   7.985  1.4898 -0.8344  0.6607
  539MOL0     H74354   6.351  10.197   8.139 -0.2414  1.1116  2.1072
  539MOL0     H74355   6.245  10.209   8.267 -1.1559  2.1372 -0.6310
  539MOL0     H74356   6.277   9.959   8.085 -1.1486 -1.4407  0.9798
  539MOL0     H74357   6.158   9.977   8.213 -1.2663  2.2804 -1.8266
  539MOL0     H74358   6.328  10.024   8.373 -1.1703  0.1648 -1.5539
  539MOL0     H74359   6.459   9.996   8.268 -0.0391  1.3492 -0.2341
  539MOL0     H74360   6.337   9.749   8.225 -0.8769  0.5021 -1.3979
  539MOL0     H74361   6.254   9.801   8.381 -1.8122  0.7367 -1.4920
  539MOL0     H74362   5.588  10.283   8.330  1.3135  0.3770 -0.4133
  539MOL0     H74363   5.378  10.335   8.411  1.2814  2.1834  2.1007
  539MOL0     H74364   4.840  10.542   8.176 -1.9136 -0.1627  0.0105
  539MOL0     H74365   4.619  10.484   8.264 -0.1279 -0.7965 -0.8890
  539MOL0     H74366   3.377   9.937   8.667  2.1485  1.6350 -0.2810
  539MOL0     H74367   3.387   9.872   8.900 -1.3211 -1.4088 -0.3851
  539MOL0     H74368   3.421   9.777   9.350  0.8888  1.1342 -0.9952
  539MOL0     H74369   3.516   9.718   9.572  2.0336  0.1778  0.4120
  539MOL0     H74370   3.816   9.412   9.637  1.1242 -0.4800 -0.5746
  539MOL0     H74371   3.923   9.537   9.585 -1.0704  1.0668 -0.9950
  539MOL0     H74372   3.937   9.638   9.789  2.8571 -1.4963 -1.4806
  539MOL0     H74373   3.981   9.479   9.794 -0.3580 -1.5152 -2.9320
  539MOL0     H74374   3.871   9.480   9.986  1.3240 -3.9211 -3.3133
  539MOL0     H74375   3.758   9.613   9.957  1.6175  0.6488 -0.3341
  539MOL0     H74376   3.700   9.314   9.884 -4.7942 -1.7083  0.8619
  539MOL0     H74377   3.611   9.462   9.825 -2.1876 -2.8879 -0.3804
  539MOL0     H74378   3.478   9.396  10.224 -0.7171 -1.8354  0.0498
  539MOL0     H74379   3.859   9.544   9.390 -0.3664 -1.9109 -3.2237
  539MOL0     H74380   3.894   9.563   9.163 -2.2811 -3.0904  1.4763
  539MOL0     H74381   3.752   9.505   9.090  1.8697 -2.5931  3.1700
  539MOL0     H74382   3.800   9.668   9.042  2.2719  0.6016 -0.1301
  540MOL0     O74383   1.077   1.844  10.157  0.1369  0.0647  0.2400
  540MOL0     C74384   1.041   1.940  10.230 -1.1818  0.0629  0.2921
  540MOL0     O74385   1.109   2.055  10.242 -0.7424 -0.1275 -0.1388
  540MOL0     C74386   1.225   2.069  10.176  0.6695  0.1994  0.4858
  540MOL0     C74387   1.212   2.105  10.046  0.2911  0.0739 -0.1193
  540MOL0     C74388   1.323   2.130   9.969  0.6600  0.1699 -0.3112
  540MOL0     C74389   1.455   2.119  10.014 -1.5481  0.2334 -0.4255
  540MOL0     O74390   1.564   2.154   9.934 -0.3015 -0.7240  0.1311
  540MOL0     C74391   1.646   2.259   9.988 -0.2139  0.1702  0.4099
  540MOL0     C74392   1.780   2.260   9.916  0.4332 -0.3923  0.2663
  540MOL0     C74393   1.865   2.143   9.960 -0.9268  0.2096  0.2967
  540MOL0     C74394   1.971   2.104   9.851 -0.0467 -0.7473  0.0902
  540MOL0     C74395   1.904   2.026   9.725  0.5270 -0.1906 -0.1783
  540MOL0     C74396   1.833   1.895   9.774  0.3652 -0.6152 -0.4820
  540MOL0     C74397   1.922   1.807   9.866  0.0637  0.0539 -0.3846
  540MOL0     C74398   1.877   1.665   9.874  1.2658  0.4744 -0.2994
  540MOL0     N74399   1.772   1.645   9.975  1.0399  0.3530 -0.4518
  540MOL0     C74400   1.655   1.708  10.001  0.5923 -0.4936 -0.5687
  540MOL0     C74401   1.587   1.636  10.088  0.4536  0.4453  0.1656
  540MOL0     C74402   1.449   1.670  10.127 -0.0832  0.1996 -0.3868
  540MOL0     C74403   1.403   1.641  10.273  0.4875 -0.2413 -0.8315
  540MOL0     C74404   1.453   1.751  10.373 -0.7237 -0.8280  0.3385
  540MOL0     C74405   1.384   1.758  10.512  1.1645  1.5966  0.1388
  540MOL0     O74406   1.260   1.831  10.515  0.1387  0.3178  0.1495
  540MOL0     C74407   1.214   1.849  10.638  0.2573 -0.1714 -1.0429
  540MOL0     C74408   1.147   1.751  10.713  0.0300 -0.0066 -0.2252
  540MOL0     C74409   1.096   1.765  10.843  0.2269  0.2248  1.4653
  540MOL0     C74410   0.999   1.659  10.886  0.1893  0.0402 -0.2291
  540MOL0     C74411   1.127   1.888  10.908 -0.5511  0.0674 -0.6398
  540MOL0     C74412   1.093   1.919  11.052 -0.1121 -0.7895 -0.0812
  540MOL0     O74413   1.161   2.018  11.129 -0.0872 -0.5391  0.1481
  540MOL0     C74414   1.118   2.013  11.263 -0.3697 -0.6002  0.4609
  540MOL0     C74415   1.117   1.898  11.342  0.3325  0.0345  0.1180
  540MOL0     C74416   1.072   1.900  11.482  0.5442 -0.6302  0.0585
  540MOL0     C74417   1.038   2.021  11.549  0.3199 -0.0581  0.5868
  540MOL0     O74418   0.993   2.015  11.685 -0.6820 -0.0120 -0.9248
  540MOL0     C74419   0.983   2.147  11.752 -0.3896  0.4874 -0.5946
  540MOL0     C74420   1.130   2.196  11.801  0.1014 -0.5655 -0.4690
  540MOL0     C74421   1.207   2.088  11.874 -0.2009 -0.4550 -0.3304
  540MOL0     C74422   1.149   2.056  12.010  0.7896 -1.2777 -0.9267
  540MOL0     C74423   1.239   1.963  12.087  0.6106 -0.5342  0.4970
  540MOL0     C74424   1.168   1.914  12.211 -0.9799 -0.2242  0.2280
  540MOL0     C74425   1.264   1.839  12.303  0.0565  0.9126  0.1870
  540MOL0     C74426   1.234   1.860  12.449  0.1606 -0.3661  1.1753
  540MOL0    Cl74427   1.070   1.799  12.500  0.5535  0.2395 -0.3921
  540MOL0     C74428   1.033   2.127  11.463  0.9774 -0.7618  0.0912
  540MOL0     C74429   1.079   2.129  11.330  0.7276  0.2989  1.3099
  540MOL0     O74430   0.988   1.865  11.090  0.5046  0.0896  0.5719
  540MOL0     C74431   1.216   1.980  10.840 -0.1894  0.0449 -0.6304
  540MOL0     C74432   1.254   1.962  10.705  0.5987 -0.2704  0.6140
  540MOL0     N74433   1.667   1.526  10.123  0.4516 -0.1458 -0.3862
  540MOL0     N74434   1.766   1.535  10.045  0.2231  0.7664 -0.1112
  540MOL0     C74435   1.462   2.090  10.153 -0.1177  1.3361 -0.4862
  540MOL0     C74436   1.351   2.061  10.230  0.3514  0.7617 -0.6197
  540MOL0     C74437   0.931   1.912  10.318 -0.0746  0.5447  0.2348
  540MOL0     C74438   0.944   1.926  10.456 -0.0629 -1.0237  0.5388
  540MOL0     C74439   0.845   1.907  10.545  0.5107 -0.0522 -0.4328
  540MOL0     C74440   0.721   1.864  10.504 -0.1665 -0.7710  0.4351
  540MOL0     O74441   0.632   1.842  10.604  0.5133  0.8669  0.5601
  540MOL0     C74442   0.537   1.734  10.585 -0.3051 -0.7340  0.3853
  540MOL0     C74443   0.586   1.592  10.545 -0.1007  0.7089 -0.1022
  540MOL0     C74444   0.696   1.538  10.636  0.2376 -0.9286  0.1822
  540MOL0     C74445   0.799   1.439  10.582  0.1470 -0.2877  0.4084
  540MOL0     C74446   0.879   1.496  10.468 -0.6712  0.2619 -1.0712
  540MOL0     C74447   0.945   1.549  10.382  0.2420 -0.8127 -0.3227
  540MOL0     C74448   0.698   1.840  10.369 -0.4375 -0.6458  0.5709
  540MOL0     C74449   0.801   1.866  10.274 -0.3133 -0.9638 -0.8243
  540MOL0     C74450   0.759   1.855  10.128 -1.2504  0.0652 -0.7182
  540MOL0     H74451   1.120   2.106   9.987  1.9758 -1.1472 -2.9754
  540MOL0     H74452   1.311   2.155   9.864  0.1201 -2.7690 -1.0465
  540MOL0     H74453   1.675   2.253  10.094  2.4538 -1.8896 -0.3422
  540MOL0     H74454   1.594   2.355   9.979  1.5356  1.0372 -1.1124
  540MOL0     H74455   1.759   2.257   9.809  0.7063 -3.7841  0.1756
  540MOL0     H74456   1.822   2.359   9.935 -3.4256  1.3016  1.0046
  540MOL0     H74457   1.923   2.187  10.041 -1.4596 -0.6243  1.1503
  540MOL0     H74458   1.811   2.053   9.989 -2.4580  0.5481 -1.2959
  540MOL0     H74459   2.023   2.190   9.808  0.9860 -0.0324  2.5993
  540MOL0     H74460   2.044   2.036   9.895 -1.1570 -1.4590  0.9017
  540MOL0     H74461   1.982   2.004   9.651  0.6132  0.7187 -0.3589
  540MOL0     H74462   1.826   2.069   9.661  0.7783 -1.6088 -1.5219
  540MOL0     H74463   1.740   1.926   9.822 -0.5672 -0.6998 -2.1939
  540MOL0     H74464   1.808   1.838   9.684 -2.1246 -0.3820 -0.0038
  540MOL0     H74465   1.935   1.841   9.969  0.3708 -1.1437 -0.0129
  540MOL0     H74466   2.019   1.807   9.815  0.0196 -1.7877 -0.5285
  540MOL0     H74467   1.843   1.619   9.780 -1.0056  0.5531  0.4331
  540MOL0     H74468   1.959   1.604   9.912  0.6890 -0.6457 -0.7942
  540MOL0     H74469   1.618   1.805   9.969  1.7839  0.2101  0.1245
  540MOL0     H74470   1.373   1.625  10.063 -1.4681  2.3012 -0.3079
  540MOL0     H74471   1.444   1.779  10.122 -1.7090  0.2783  1.6214
  540MOL0     H74472   1.294   1.645  10.264  0.4487  1.3875  0.0229
  540MOL0     H74473   1.437   1.540  10.300 -1.0108 -0.5138  0.1683
  540MOL0     H74474   1.555   1.719  10.393 -0.7489 -1.7424 -0.9209
  540MOL0     H74475   1.468   1.851  10.331  0.4213 -0.0627  2.4445
  540MOL0     H74476   1.392   1.655  10.548 -1.1260  2.0199  2.0193
  540MOL0     H74477   1.459   1.798  10.581  4.1760  2.3354 -3.2148
  540MOL0     H74478   1.121   1.660  10.659 -0.4662 -1.8008  2.8214
  540MOL0     H74479   1.032   1.601  10.972  0.2736 -1.8836 -1.5079
  540MOL0     H74480   0.974   1.587  10.807 -0.5049  1.5843 -1.4869
  540MOL0     H74481   0.902   1.704  10.912 -0.0758 -2.2676  3.3838
  540MOL0     H74482   1.140   1.803  11.296 -1.2916 -1.1858  1.6719
  540MOL0     H74483   1.092   1.813  11.544  2.3587  0.1402  0.6136
  540MOL0     H74484   0.939   2.228  11.693  2.4229  0.5091 -2.9065
  540MOL0     H74485   0.932   2.131  11.847  1.6644  0.5867  0.5851
  540MOL0     H74486   1.184   2.235  11.714  0.7202 -1.2526 -0.4046
  540MOL0     H74487   1.113   2.283  11.864  0.6628 -1.5212  1.0471
  540MOL0     H74488   1.307   2.130  11.888 -0.0313 -0.4086 -1.5964
  540MOL0     H74489   1.222   2.001  11.810  0.5389 -1.3546  1.0143
  540MOL0     H74490   1.042   2.032  12.018  0.2536  0.8759 -1.0093
  540MOL0     H74491   1.147   2.155  12.057  2.5421 -0.7672 -1.8548
  540MOL0     H74492   1.273   1.882  12.021 -0.9132 -1.9582  1.3764
  540MOL0     H74493   1.334   2.011  12.112  0.4847 -0.4817  0.8843
  540MOL0     H74494   1.081   1.850  12.195 -2.0275  1.4062 -0.8741
  540MOL0     H74495   1.134   2.000  12.269 -0.4810  0.3123 -0.2688
  540MOL0     H74496   1.365   1.876  12.284  0.9203 -0.3269  2.0473
  540MOL0     H74497   1.254   1.732  12.281 -3.5899  1.5568 -2.0658
  540MOL0     H74498   1.260   1.965  12.469  0.7429 -0.2161 -0.2510
  540MOL0     H74499   1.302   1.788  12.497 -3.1557 -2.5084  3.0250
  540MOL0     H74500   1.005   2.227  11.493  1.0903 -0.6554 -0.1532
  540MOL0     H74501   1.075   2.218  11.268  1.8287 -1.2405 -1.1268
  540MOL0     H74502   1.262   2.062  10.894  2.5503 -2.1673  0.6558
  540MOL0     H74503   1.298   2.043  10.648 -0.2454  0.9502  1.6266
  540MOL0     H74504   1.555   2.081  10.209 -0.8315  0.6285  0.6176
  540MOL0     H74505   1.343   2.042  10.337 -2.5137  4.6600  0.0791
  540MOL0     H74506   1.037   1.961  10.500 -0.4299 -2.6434  2.7562
  540MOL0     H74507   0.863   1.905  10.652  0.4116  1.7181 -0.3431
  540MOL0     H74508   0.487   1.727  10.682 -3.2027  2.2329 -0.7192
  540MOL0     H74509   0.458   1.766  10.516 -1.8103 -0.3535  2.2123
  540MOL0     H74510   0.619   1.604  10.441  1.5617  4.0102  0.6497
  540MOL0     H74511   0.498   1.527  10.545 -1.9545  2.7573 -4.5480
  540MOL0     H74512   0.751   1.625  10.671  1.6541 -3.2551  4.3072
  540MOL0     H74513   0.649   1.496  10.725 -0.2347  1.2972  1.0527
  540MOL0     H74514   0.750   1.350  10.542  0.6528 -0.6211  0.5281
  540MOL0     H74515   0.875   1.412  10.655  1.7415 -1.3624 -1.5536
  540MOL0     H74516   0.994   1.595  10.299 -2.1993  1.6863 -0.4927
  540MOL0     H74517   0.599   1.803  10.342 -0.4781 -0.5779  0.6254
  540MOL0     H74518   0.821   1.923  10.069  2.4122 -0.0231  2.6085
  540MOL0     H74519   0.779   1.753  10.093  4.0212  0.4137  0.4059
  540MOL0     H74520   0.655   1.884  10.112 -0.8703  1.1018 -1.3866
  541MOL0     O74521   0.313  11.473   5.413  0.3034  1.0634  0.0464
  541MOL0     C74522   0.323  11.589   5.452  0.6196  0.2801  0.3903
  541MOL0     O74523   0.438  11.652   5.487 -0.4650 -0.9069 -0.0230
  541MOL0     C74524   0.547  11.568   5.466 -0.2531 -0.0990 -0.4724
  541MOL0     C74525   0.577  11.455   5.545 -0.6084 -0.6221  0.4740
  541MOL0     C74526   0.689  11.376   5.523  0.0745 -0.2016 -0.0633
  541MOL0     C74527   0.775  11.406   5.415  0.0212 -0.0638 -0.5726
  541MOL0     O74528   0.884  11.337   5.367 -0.2548 -0.1613 -0.6042
  541MOL0     C74529   0.904  11.199   5.414  0.5255  0.7349 -0.4385
  541MOL0     C74530   0.789  11.101   5.389 -0.3278 -0.4618  0.7212
  541MOL0     C74531   0.811  10.961   5.452 -0.6897  0.7651 -0.1186
  541MOL0     C74532   0.913  10.870   5.377 -0.5689  0.4039  0.1012
  541MOL0     C74533   0.840  10.763   5.304  0.1706  0.1064 -0.3465
  541MOL0     C74534   0.788  10.812   5.169  0.3294 -0.6535 -0.0034
  541MOL0     C74535   0.697  10.708   5.102 -0.8523 -0.0370  0.5086
  541MOL0     C74536   0.591  10.648   5.190 -0.0939 -0.8162  0.4578
  541MOL0     N74537   0.480  10.561   5.127 -0.5699 -0.3145 -0.2353
  541MOL0     C74538   0.352  10.590   5.100 -0.6273 -0.1988  1.0208
  541MOL0     C74539   0.303  10.472   5.056 -0.4951 -0.1269  0.4375
  541MOL0     C74540   0.147  10.457   5.047  0.2968  0.2724  0.3765
  541MOL0     C74541   0.081  10.569   4.956 -0.5057 -0.0174 -1.1632
  541MOL0     C74542  -0.068  10.531   4.917 -0.9852  0.1759  0.3713
  541MOL0     C74543  -0.132  10.650   4.842  0.1541  0.1454 -0.9029
  541MOL0     O74544  -0.100  10.634   4.700 -0.0536  0.1071  0.7165
  541MOL0     C74545  -0.201  10.637   4.611  1.1047 -0.8517  0.3454
  541MOL0     C74546  -0.183  10.724   4.501  0.0554  0.1330 -0.2886
  541MOL0     C74547  -0.279  10.754   4.400 -1.2469 -0.6518 -0.3477
  541MOL0     C74548  -0.242  10.839   4.286  0.8619  0.0847 -0.5071
  541MOL0     C74549  -0.404  10.682   4.410  0.7327 -0.0954  0.6018
  541MOL0     C74550  -0.508  10.682   4.302 -0.6063 -0.6132  0.3364
  541MOL0     O74551  -0.597  10.583   4.312 -0.2016 -0.0996  0.6198
  541MOL0     C74552  -0.657  10.538   4.198 -1.0195  0.0044 -0.4586
  541MOL0     C74553  -0.790  10.579   4.182  0.6424 -0.1401 -0.4593
  541MOL0     C74554  -0.864  10.542   4.076  0.5944  0.1593 -0.4021
  541MOL0     C74555  -0.804  10.464   3.973 -1.2732  0.3020  0.6352
  541MOL0     O74556  -0.866  10.419   3.870  0.2585 -0.1209  0.0631
  541MOL0     C74557  -1.001  10.454   3.844  0.1492  0.8934 -0.3037
  541MOL0     C74558  -1.025  10.596   3.789 -1.4390 -0.6398 -0.0337
  541MOL0     C74559  -0.958  10.602   3.652 -0.2362 -0.7339  0.1966
  541MOL0     C74560  -0.935  10.746   3.620 -1.0001  0.1409 -0.6720
  541MOL0     C74561  -0.861  10.751   3.489 -0.3190 -0.5102  0.4204
  541MOL0     C74562  -0.823  10.893   3.447  1.3724 -0.1200  0.5640
  541MOL0     C74563  -0.697  10.945   3.520  0.2610 -1.2103  0.1374
  541MOL0     C74564  -0.669  11.100   3.487  0.0802  0.4450 -0.3062
  541MOL0    Cl74565  -0.536  11.143   3.596 -0.3594  0.2289 -0.1238
  541MOL0     C74566  -0.667  10.419   3.992  0.2859  0.6644 -0.7041
  541MOL0     C74567  -0.597  10.450   4.108 -0.6361  0.7200 -0.0673
  541MOL0     O74568  -0.511  10.764   4.218 -0.1391 -0.4535  0.2338
  541MOL0     C74569  -0.421  10.590   4.514  0.5762 -0.7559 -0.2385
  541MOL0     C74570  -0.319  10.576   4.611  0.2926  0.2941  0.6083
  541MOL0     N74571   0.394  10.368   5.062 -0.5224  0.5137 -1.0465
  541MOL0     N74572   0.501  10.425   5.115 -0.6989  1.2660  0.3226
  541MOL0     C74573   0.752  11.527   5.337 -0.0743  0.7970 -0.0868
  541MOL0     C74574   0.635  11.600   5.365 -0.3252  0.2625  0.1311
  541MOL0     C74575   0.198  11.674   5.444 -0.7210  0.5186 -0.0092
  541MOL0     C74576   0.193  11.798   5.507  0.0425 -0.0186  0.1426
  541MOL0     C74577   0.090  11.889   5.485 -0.1252 -1.0379 -0.0117
  541MOL0     C74578  -0.006  11.874   5.393 -1.0621 -0.4881  0.5847
  541MOL0     O74579  -0.120  11.951   5.381 -0.4193  0.4510 -0.0952
  541MOL0     C74580  -0.122  12.078   5.450 -0.1183 -1.0901 -0.2257
  541MOL0     C74581  -0.247  12.144   5.410  0.7068 -0.0354  0.7859
  541MOL0     C74582  -0.241  12.199   5.254 -0.5171 -0.7233 -0.3337
  541MOL0     C74583  -0.367  12.281   5.232 -0.0225 -0.4485 -0.5426
  541MOL0     C74584  -0.348  12.384   5.130  0.3481 -0.8857 -0.2526
  541MOL0     C74585  -0.346  12.482   5.059 -0.5839  0.3787 -0.3087
  541MOL0     C74586  -0.010  11.747   5.333  0.5502  0.1189  1.8406
  541MOL0     C74587   0.082  11.637   5.363  0.4842 -0.1770 -0.5460
  541MOL0     C74588   0.055  11.494   5.311  1.1958  0.4536  0.7757
  541MOL0     H74589   0.505  11.423   5.619  0.0896 -2.1790  0.5215
  541MOL0     H74590   0.707  11.284   5.579  3.4549  0.9014  0.9342
  541MOL0     H74591   0.922  11.196   5.522  1.4784 -0.9032 -0.6176
  541MOL0     H74592   0.996  11.166   5.365  1.0133  3.3067 -1.4645
  541MOL0     H74593   0.693  11.137   5.428  0.0668  0.4561  0.8833
  541MOL0     H74594   0.783  11.117   5.281  1.3489  1.8353  0.8840
  541MOL0     H74595   0.831  10.967   5.560  0.4138  1.4179 -0.3496
  541MOL0     H74596   0.712  10.917   5.439 -0.5516  0.2960  0.3771
  541MOL0     H74597   0.963  10.929   5.300 -0.1201  1.5726  1.2614
  541MOL0     H74598   0.981  10.821   5.447  0.6182  0.3041 -1.0960
  541MOL0     H74599   0.763  10.727   5.372  1.2636  2.4334  2.3114
  541MOL0     H74600   0.911  10.682   5.286  1.5586  0.6198  2.3127
  541MOL0     H74601   0.728  10.902   5.192 -0.7376 -1.6789  1.4443
  541MOL0     H74602   0.873  10.835   5.105 -1.2475 -2.2071 -2.8384
  541MOL0     H74603   0.758  10.625   5.066 -0.5474  0.6514 -0.6180
  541MOL0     H74604   0.654  10.769   5.022  1.3651  0.6444 -0.2357
  541MOL0     H74605   0.647  10.585   5.260  2.5353  0.3918 -0.4313
  541MOL0     H74606   0.537  10.722   5.250 -0.4740 -1.3169  0.7433
  541MOL0     H74607   0.306  10.688   5.096  2.4390  1.3302 -0.0785
  541MOL0     H74608   0.099  10.455   5.145  1.4601 -0.1650  0.9563
  541MOL0     H74609   0.124  10.359   5.003  1.1215  0.6641 -0.9969
  541MOL0     H74610   0.077  10.661   5.015 -0.4320 -1.7228  1.6416
  541MOL0     H74611   0.132  10.600   4.864 -0.6960 -0.4014 -1.3989
  541MOL0     H74612  -0.070  10.438   4.861 -0.7902 -1.5778  3.0760
  541MOL0     H74613  -0.122  10.505   5.009  0.9877 -1.2972  1.1677
  541MOL0     H74614  -0.241  10.651   4.853  0.1179 -2.6741 -0.0989
  541MOL0     H74615  -0.086  10.742   4.879  1.2940 -0.7794  0.0466
  541MOL0     H74616  -0.089  10.778   4.494  0.3955 -0.5144 -0.9128
  541MOL0     H74617  -0.133  10.847   4.282  0.7924  0.6533 -1.3747
  541MOL0     H74618  -0.277  10.942   4.290  1.1065  0.1279  1.5104
  541MOL0     H74619  -0.276  10.791   4.194 -0.6361  1.9624 -0.9814
  541MOL0     H74620  -0.832  10.631   4.268  0.0112 -1.6749  0.1933
  541MOL0     H74621  -0.960  10.593   4.082 -0.4258 -1.8167  0.9264
  541MOL0     H74622  -1.050  10.390   3.771 -0.1519  2.4954 -1.5781
  541MOL0     H74623  -1.063  10.450   3.934  0.2717  1.1146 -0.2070
  541MOL0     H74624  -1.134  10.611   3.783 -1.1178  1.6774 -1.5115
  541MOL0     H74625  -0.978  10.675   3.849 -1.4527 -0.9943  0.4551
  541MOL0     H74626  -1.013  10.554   3.570 -1.8574  2.5555 -0.8493
  541MOL0     H74627  -0.859  10.557   3.655  0.6002  1.0372  0.5252
  541MOL0     H74628  -0.885  10.791   3.706 -2.0084 -0.3261  0.1912
  541MOL0     H74629  -1.031  10.793   3.596 -0.7319  1.0891  0.0856
  541MOL0     H74630  -0.768  10.694   3.498  1.3706  2.0230  0.3667
  541MOL0     H74631  -0.935  10.702   3.425 -1.3151  0.2520  0.9559
  541MOL0     H74632  -0.918  10.936   3.481 -0.0155 -2.2751 -0.3827
  541MOL0     H74633  -0.810  10.907   3.339  4.2266  2.9363  1.1223
  541MOL0     H74634  -0.609  10.895   3.480 -1.9411 -3.2488 -2.5279
  541MOL0     H74635  -0.707  10.914   3.625 -2.0662 -2.2730 -0.3380
  541MOL0     H74636  -0.752  11.167   3.513 -1.9009 -0.6788 -3.3255
  541MOL0     H74637  -0.639  11.119   3.384  0.3431 -3.0641 -1.0000
  541MOL0     H74638  -0.637  10.345   3.919 -3.4983 -2.0334  0.1806
  541MOL0     H74639  -0.502  10.403   4.132 -0.6566  0.9984  0.5937
  541MOL0     H74640  -0.516  10.539   4.534  0.8303 -0.3656  2.2097
  541MOL0     H74641  -0.357  10.506   4.685 -3.6416  1.0585 -0.4684
  541MOL0     H74642   0.817  11.552   5.254  0.2000 -1.4783 -0.6355
  541MOL0     H74643   0.611  11.688   5.306 -1.0327 -0.9788 -1.4930
  541MOL0     H74644   0.281  11.830   5.562 -1.8498  4.0904  1.1733
  541MOL0     H74645   0.108  11.978   5.544 -0.7140 -2.7276  2.8646
  541MOL0     H74646  -0.130  12.078   5.559 -1.7250  2.8431 -0.1854
  541MOL0     H74647  -0.029  12.127   5.420  1.0736 -2.5193  0.9893
  541MOL0     H74648  -0.280  12.230   5.469 -1.3353 -0.8383  0.9114
  541MOL0     H74649  -0.326  12.070   5.423  0.3701 -0.0631 -1.1064
  541MOL0     H74650  -0.152  12.261   5.236 -1.0180  1.1683  2.9806
  541MOL0     H74651  -0.249  12.116   5.183  0.2996  0.1637 -1.5173
  541MOL0     H74652  -0.408  12.310   5.328 -3.0060 -1.8339 -1.2848
  541MOL0     H74653  -0.445  12.220   5.185 -0.3035  1.5610 -2.8946
  541MOL0     H74654  -0.343  12.562   4.988  1.0472  2.1861  1.6744
  541MOL0     H74655  -0.095  11.725   5.270 -1.9281  4.6652  3.1187
  541MOL0     H74656  -0.041  11.484   5.259  0.3358  1.2492  2.1321
  541MOL0     H74657   0.126  11.483   5.229  3.5742 -0.0628  2.7983
  541MOL0     H74658   0.055  11.418   5.389  0.8258  0.7034  1.0239
  542MOL0     O74659  10.901  11.229   2.344 -0.6984  0.8464  0.1530
  542MOL0     C74660  10.805  11.190   2.412  0.2389  0.6443  0.0621
  542MOL0     O74661  10.702  11.273   2.468 -0.1374  0.2819 -0.3469
  542MOL0     C74662  10.702  11.403   2.455  0.4604 -0.4111 -0.0521
  542MOL0     C74663  10.583  11.459   2.412 -0.0486 -0.2519 -0.3677
  542MOL0     C74664  10.561  11.595   2.388  0.0553  1.0089 -0.4489
  542MOL0     C74665  10.676  11.681   2.393 -0.3888 -0.1808 -0.9790
  542MOL0     O74666  10.655  11.811   2.363 -0.4625  0.2437 -0.1720
  542MOL0     C74667  10.768  11.898   2.346 -0.2440  1.0821  0.2135
  542MOL0     C74668  10.754  12.047   2.333  0.3593 -0.3091  0.5810
  542MOL0     C74669  10.887  12.128   2.353  0.1900  0.4109  1.2022
  542MOL0     C74670  10.914  12.187   2.483 -0.6857 -0.3167 -0.2626
  542MOL0     C74671  11.065  12.208   2.501 -0.3065 -0.3137 -1.0037
  542MOL0     C74672  11.106  12.300   2.609 -0.6948 -0.1186 -0.4317
  542MOL0     C74673  11.041  12.272   2.750 -0.1550  0.3603 -0.2212
  542MOL0     C74674  11.055  12.130   2.811 -0.3847 -0.4516  1.4094
  542MOL0     N74675  11.192  12.093   2.836  0.0036 -0.8068  0.4770
  542MOL0     C74676  11.286  12.181   2.878  0.1146 -0.2891 -0.1998
  542MOL0     C74677  11.408  12.129   2.843 -0.2702  0.5128 -0.5337
  542MOL0     C74678  11.545  12.184   2.855  0.4178  0.2890 -0.4457
  542MOL0     C74679  11.575  12.220   3.006  0.2888 -0.0964  0.5121
  542MOL0     C74680  11.723  12.247   3.026  0.3939 -0.9503  0.0717
  542MOL0     C74681  11.747  12.333   3.150 -0.3173  0.6925  0.5680
  542MOL0     O74682  11.889  12.346   3.184  0.2666  0.1260  0.9190
  542MOL0     C74683  11.948  12.442   3.105 -0.7788 -0.8670  0.4196
  542MOL0     C74684  12.019  12.413   2.990  0.4854  0.0799  0.3148
  542MOL0     C74685  12.083  12.504   2.907  1.1697 -0.4233  0.1816
  542MOL0     C74686  12.133  12.437   2.780 -0.7390  0.3652  0.3827
  542MOL0     C74687  12.063  12.643   2.937  0.1597 -0.3386  0.1954
  542MOL0     C74688  12.081  12.757   2.835  0.1438  0.8859  0.6811
  542MOL0     O74689  12.140  12.718   2.719 -0.2032  0.2812  0.1594
  542MOL0     C74690  12.111  12.795   2.609 -0.5261  0.2997 -0.7668
  542MOL0     C74691  11.982  12.800   2.560  0.6096  0.1108  0.5635
  542MOL0     C74692  11.959  12.866   2.439  0.3842 -0.2503 -0.4531
  542MOL0     C74693  12.066  12.919   2.362 -0.1730 -0.1492  0.3336
  542MOL0     O74694  12.031  12.960   2.232 -0.3513  0.3431 -0.1857
  542MOL0     C74695  12.122  13.057   2.174  0.1174  0.4362  0.0982
  542MOL0     C74696  12.083  13.069   2.020  0.0939  0.1929  0.2644
  542MOL0     C74697  12.138  12.953   1.943  1.4136  0.3874 -0.0807
  542MOL0     C74698  12.130  12.972   1.801 -0.0778 -0.1023  0.4235
  542MOL0     C74699  12.242  13.058   1.759 -1.4379  0.0202  0.5033
  542MOL0     C74700  12.246  13.052   1.603 -0.7778 -0.0444  0.5296
  542MOL0     C74701  12.133  13.118   1.529  0.4541  0.8436  0.6378
  542MOL0     C74702  12.185  13.141   1.391 -0.6731 -0.2084 -0.1042
  542MOL0    Cl74703  12.238  12.989   1.320  0.1113 -0.0642  0.1721
  542MOL0     C74704  12.196  12.912   2.416 -0.2409  1.0169 -0.4890
  542MOL0     C74705  12.221  12.849   2.539  0.4818  0.2752 -0.1072
  542MOL0     O74706  12.047  12.866   2.862  0.4434  0.4547 -0.3586
  542MOL0     C74707  11.996  12.675   3.055  0.0490 -1.2337  0.3295
  542MOL0     C74708  11.947  12.583   3.135  0.4617  0.8013 -1.5279
  542MOL0     N74709  11.382  12.016   2.774 -0.3062 -0.0418 -0.5911
  542MOL0     N74710  11.255  11.997   2.766 -0.0376  0.2915 -0.1586
  542MOL0     C74711  10.798  11.619   2.433  0.1320 -1.1157  0.0082
  542MOL0     C74712  10.813  11.486   2.458 -0.0647 -0.4086 -0.5259
  542MOL0     C74713  10.807  11.049   2.451  0.4169 -0.4758 -0.2779
  542MOL0     C74714  10.927  10.991   2.460 -0.8116 -0.2055 -0.3210
  542MOL0     C74715  10.954  10.854   2.490  0.2888 -0.6050  0.0740
  542MOL0     C74716  10.852  10.771   2.509  0.3290  0.3981  0.6138
  542MOL0     O74717  10.884  10.637   2.541  0.1802  0.4615  0.3922
  542MOL0     C74718  10.783  10.535   2.546 -0.1214 -0.2636  0.1045
  542MOL0     C74719  10.830  10.383   2.543 -1.0477 -0.1035 -0.4655
  542MOL0     C74720  10.739  10.302   2.634 -0.3504 -0.0112  0.2258
  542MOL0     C74721  10.786  10.159   2.623 -0.1865  1.3987  0.5624
  542MOL0     C74722  10.902  10.120   2.708 -0.0219 -0.2622 -0.8318
  542MOL0     C74723  11.001  10.082   2.770  0.0319 -0.1065  0.2201
  542MOL0     C74724  10.724  10.826   2.492  0.1906 -0.6599  0.0904
  542MOL0     C74725  10.702  10.969   2.471  0.5209 -0.1375 -0.6574
  542MOL0     C74726  10.552  11.008   2.467 -0.1108  0.0633  0.1255
  542MOL0     H74727  10.505  11.387   2.393 -0.9786  1.3744 -3.3655
  542MOL0     H74728  10.464  11.637   2.363 -0.3886  0.2546 -0.0288
  542MOL0     H74729  10.837  11.851   2.275 -2.7826 -4.2407  0.7448
  542MOL0     H74730  10.819  11.888   2.443  3.1348 -1.2832 -1.5897
  542MOL0     H74731  10.719  12.069   2.231  0.4963  3.8126  1.2527
  542MOL0     H74732  10.683  12.088   2.405  1.3305 -1.0889  2.0262
  542MOL0     H74733  10.974  12.066   2.329  1.4527  2.3100  0.6799
  542MOL0     H74734  10.875  12.203   2.274 -0.3985 -0.2304  0.6587
  542MOL0     H74735  10.856  12.279   2.503 -2.0104 -0.6601 -2.2936
  542MOL0     H74736  10.886  12.116   2.561  0.3147  1.0681  1.4576
  542MOL0     H74737  11.116  12.250   2.414  2.2093 -0.6000  0.2337
  542MOL0     H74738  11.106  12.111   2.530 -0.6164  0.2411  1.5794
  542MOL0     H74739  11.215  12.313   2.615 -0.7071 -0.6535  2.2089
  542MOL0     H74740  11.068  12.396   2.574  1.7412  0.7328 -0.9415
  542MOL0     H74741  10.933  12.286   2.741 -0.4490 -1.5392 -0.0915
  542MOL0     H74742  11.075  12.338   2.830  0.8715 -0.9163  0.4359
  542MOL0     H74743  10.992  12.132   2.901 -4.7342 -1.8689 -1.2676
  542MOL0     H74744  11.013  12.056   2.742  2.3186 -0.6170 -0.2062
  542MOL0     H74745  11.272  12.279   2.923 -3.3040 -0.4000 -0.7982
  542MOL0     H74746  11.553  12.269   2.786  1.1351 -0.4270 -1.2736
  542MOL0     H74747  11.620  12.115   2.815  3.7888  2.4574  1.6916
  542MOL0     H74748  11.529  12.317   3.025  4.6501  2.2487  0.4994
  542MOL0     H74749  11.541  12.132   3.061  0.5545 -0.1420  0.6038
  542MOL0     H74750  11.788  12.160   3.040 -0.6514 -1.2875  3.6403
  542MOL0     H74751  11.761  12.296   2.936  2.7411  0.6404  1.8158
  542MOL0     H74752  11.699  12.431   3.139  0.6809  1.0799 -0.7487
  542MOL0     H74753  11.690  12.296   3.235  0.2384 -1.2878  0.1295
  542MOL0     H74754  12.037  12.308   2.969  0.6657 -0.3025  2.1951
  542MOL0     H74755  12.157  12.333   2.804  1.6621  1.1303  1.6425
  542MOL0     H74756  12.227  12.481   2.746 -2.6226  2.8468 -2.0431
  542MOL0     H74757  12.078  12.448   2.686  2.9657 -0.2095 -2.0592
  542MOL0     H74758  11.905  12.754   2.621  1.8788 -0.7903  1.5236
  542MOL0     H74759  11.856  12.869   2.405  0.0219 -1.9831  0.3561
  542MOL0     H74760  12.098  13.146   2.234  0.9156  0.3303  0.6004
  542MOL0     H74761  12.227  13.028   2.185  0.1198 -1.4540 -3.5699
  542MOL0     H74762  11.977  13.086   1.999  0.4782  0.3023 -1.7840
  542MOL0     H74763  12.137  13.156   1.980 -0.3719 -0.7935 -2.7396
  542MOL0     H74764  12.086  12.859   1.963  0.4594  0.2839 -2.6850
  542MOL0     H74765  12.242  12.941   1.976  0.9134  0.6669  1.7359
  542MOL0     H74766  12.033  13.010   1.766 -1.3368 -0.9731  2.7432
  542MOL0     H74767  12.147  12.874   1.755  1.3825  1.4357 -2.6396
  542MOL0     H74768  12.227  13.156   1.805  1.8700  0.7590  0.2694
  542MOL0     H74769  12.338  13.020   1.795 -2.4593 -2.7753  0.5475
  542MOL0     H74770  12.257  12.947   1.574 -0.4164  0.8528 -3.0434
  542MOL0     H74771  12.337  13.100   1.564 -0.0680 -2.5631 -1.1893
  542MOL0     H74772  12.105  13.211   1.579 -2.6310 -1.3779  3.5180
  542MOL0     H74773  12.035  13.071   1.524  1.3094 -1.0244 -3.9673
  542MOL0     H74774  12.269  13.211   1.382 -0.5177 -0.3152  0.4371
  542MOL0     H74775  12.105  13.195   1.340  0.8107  1.2966 -0.9344
  542MOL0     H74776  12.280  12.955   2.362  1.3343 -2.0829 -0.7363
  542MOL0     H74777  12.317  12.859   2.589 -0.0786  1.3139  0.8084
  542MOL0     H74778  11.992  12.782   3.076 -0.9984 -1.2155  0.1166
  542MOL0     H74779  11.887  12.617   3.220 -0.6723  0.1833 -2.0581
  542MOL0     H74780  10.883  11.680   2.461  0.4895  0.7705 -4.4377
  542MOL0     H74781  10.906  11.438   2.489  0.3177 -0.6724 -2.0118
  542MOL0     H74782  11.020  11.043   2.441  0.1685 -1.3226  1.2377
  542MOL0     H74783  11.057  10.823   2.497  0.1097 -1.5668 -1.3172
  542MOL0     H74784  10.729  10.552   2.639  2.6533  1.1586  1.5935
  542MOL0     H74785  10.719  10.538   2.457 -0.3251 -1.8241  0.1608
  542MOL0     H74786  10.933  10.372   2.579 -1.6328  1.8641  2.1822
  542MOL0     H74787  10.818  10.352   2.439 -0.6908 -3.2410  0.3490
  542MOL0     H74788  10.741  10.341   2.736  1.4013  0.2829  0.1020
  542MOL0     H74789  10.639  10.316   2.591 -0.0593 -2.2978 -1.3944
  542MOL0     H74790  10.812  10.124   2.523 -2.0634 -0.5563  0.6740
  542MOL0     H74791  10.702  10.093   2.649  2.7902 -3.9436 -1.7775
  542MOL0     H74792  11.100  10.052   2.798 -1.4572 -2.4896  3.6564
  542MOL0     H74793  10.630  10.772   2.505  0.0375 -0.8619 -1.6182
  542MOL0     H74794  10.518  11.052   2.373  0.3308  0.6153  0.2158
  542MOL0     H74795  10.489  10.925   2.499 -3.1521  0.5986 -3.8006
  542MOL0     H74796  10.533  11.087   2.541  1.3209  2.2282 -1.6962
  543MOL0     O74797   9.525   2.891   8.594 -0.4165  0.7600 -0.4342
  543MOL0     C74798   9.613   2.856   8.683 -0.3803 -0.5635  0.1632
  543MOL0     O74799   9.689   2.738   8.687  0.1861  0.5213  0.5653
  543MOL0     C74800   9.667   2.636   8.596  0.2482 -0.5294 -0.2297
  543MOL0     C74801   9.754   2.611   8.495  0.1649 -0.7988  0.7438
  543MOL0     C74802   9.751   2.494   8.415  0.1484 -0.1674 -0.5634
  543MOL0     C74803   9.649   2.402   8.453 -0.0720 -0.2221  0.3271
  543MOL0     O74804   9.613   2.292   8.381  0.7855 -0.7315  0.3279
  543MOL0     C74805   9.706   2.236   8.285 -0.0906  0.1387 -0.1234
  543MOL0     C74806   9.787   2.127   8.356 -0.1523 -0.6821  0.1581
  543MOL0     C74807   9.875   2.043   8.268  0.6554  0.7751  0.4362
  543MOL0     C74808   9.946   1.922   8.338  0.2369 -0.6727  0.1230
  543MOL0     C74809  10.074   1.887   8.253 -0.1451  0.1838 -0.1494
  543MOL0     C74810  10.141   1.770   8.308  0.1863  0.0898  0.1666
  543MOL0     C74811  10.085   1.637   8.272 -0.2986  0.6140  1.5268
  543MOL0     C74812  10.131   1.585   8.131  0.1136  0.5195 -0.1370
  543MOL0     N74813  10.073   1.458   8.113 -0.8862  0.4836  0.1283
  543MOL0     C74814  10.116   1.347   8.185 -1.1903 -0.5449 -0.1366
  543MOL0     C74815  10.052   1.244   8.117  0.0322  0.0580 -0.0310
  543MOL0     C74816  10.064   1.105   8.155 -0.1828  0.2583 -0.6780
  543MOL0     C74817   9.931   1.068   8.230 -0.5333 -0.2613  0.2329
  543MOL0     C74818   9.950   0.929   8.291 -0.1989  0.2866 -0.4657
  543MOL0     C74819   9.830   0.857   8.341 -0.3417 -0.2760 -0.6516
  543MOL0     O74820   9.748   0.834   8.230 -0.1395 -0.0393 -0.3538
  543MOL0     C74821   9.738   0.699   8.192  1.0138  0.9384 -0.2387
  543MOL0     C74822   9.712   0.677   8.054  0.5258 -0.2146 -1.3708
  543MOL0     C74823   9.690   0.544   8.009  0.5766 -0.3641  0.0836
  543MOL0     C74824   9.685   0.518   7.857  0.1158  0.7032 -0.5749
  543MOL0     C74825   9.698   0.429   8.103  0.1263 -0.3401 -0.1673
  543MOL0     C74826   9.678   0.284   8.053 -0.1119  0.2055  0.7085
  543MOL0     O74827   9.772   0.211   7.986 -0.0100 -0.5705 -0.1704
  543MOL0     C74828   9.742   0.069   7.962 -0.3292 -0.6730  0.2583
  543MOL0     C74829   9.615   0.013   7.941 -1.1220  0.1279 -0.0753
  543MOL0     C74830   9.617  -0.133   7.921  0.7640  0.4673  0.2959
  543MOL0     C74831   9.727  -0.213   7.931 -0.6674  0.6797 -0.0770
  543MOL0     O74832   9.711  -0.351   7.898 -0.0113 -0.1817 -0.1998
  543MOL0     C74833   9.831  -0.431   7.887  0.1523  1.1684  1.3812
  543MOL0     C74834   9.788  -0.560   7.813  0.4012  0.5559  0.0474
  543MOL0     C74835   9.873  -0.693   7.818  0.4731 -0.4077 -0.0420
  543MOL0     C74836   9.877  -0.778   7.689  0.3962 -0.0632  1.2037
  543MOL0     C74837   9.914  -0.919   7.707  0.7504 -0.3105  0.7290
  543MOL0     C74838   9.940  -0.971   7.568 -0.7889  0.5352 -0.1122
  543MOL0     C74839  10.009  -1.105   7.583 -0.5050  0.1562  0.0076
  543MOL0     C74840   9.908  -1.223   7.613  0.0598  0.2478  0.0834
  543MOL0    Cl74841   9.740  -1.223   7.539  0.0301 -0.1101 -0.0894
  543MOL0     C74842   9.849  -0.152   7.961 -0.3242  0.4441  0.4317
  543MOL0     C74843   9.857  -0.015   7.969  0.3844  0.1492 -0.3177
  543MOL0     O74844   9.568   0.241   8.088  0.1666 -0.8173 -0.4213
  543MOL0     C74845   9.710   0.458   8.236 -0.3299 -0.7289 -0.1382
  543MOL0     C74846   9.726   0.585   8.285  0.3109 -0.0696  0.4286
  543MOL0     N74847   9.976   1.295   8.006 -1.1287  0.0852 -0.2564
  543MOL0     N74848   9.992   1.425   8.012 -0.1937 -0.2500  0.4748
  543MOL0     C74849   9.559   2.430   8.552 -0.4412 -0.4536 -0.3633
  543MOL0     C74850   9.563   2.546   8.624 -0.2843 -0.7610  0.6852
  543MOL0     C74851   9.649   2.959   8.783  0.4364  0.0758 -0.1373
  543MOL0     C74852   9.737   2.918   8.885 -0.8116  0.1223  1.3802
  543MOL0     C74853   9.775   3.000   8.991 -0.6403  0.2974  0.6282
  543MOL0     C74854   9.724   3.129   8.986 -0.1680  0.0505 -1.3773
  543MOL0     O74855   9.755   3.197   9.105  0.7745 -0.2685 -0.4882
  543MOL0     C74856   9.837   3.313   9.103  0.4433 -0.8454 -0.3401
  543MOL0     C74857   9.954   3.308   9.199 -0.9989  0.7830 -1.3675
  543MOL0     C74858  10.062   3.208   9.145  0.1300 -0.1907  0.9424
  543MOL0     C74859  10.197   3.203   9.221 -0.4878  0.0579  0.7180
  543MOL0     C74860  10.176   3.167   9.363 -0.0510  0.2132  0.7165
  543MOL0     C74861  10.160   3.125   9.468  1.1101 -0.1970 -0.6464
  543MOL0     C74862   9.636   3.179   8.894 -0.5028  0.3792 -0.3543
  543MOL0     C74863   9.592   3.085   8.785  0.1592  0.1500 -0.2304
  543MOL0     C74864   9.490   3.146   8.687 -0.0618 -0.0674 -0.6119
  543MOL0     H74865   9.829   2.686   8.472 -0.7497 -0.3572 -0.9839
  543MOL0     H74866   9.825   2.470   8.339  2.0573  0.9462  0.8372
  543MOL0     H74867   9.771   2.310   8.237  1.1581 -0.6349  0.3176
  543MOL0     H74868   9.649   2.185   8.208 -1.7158 -1.4927  2.0447
  543MOL0     H74869   9.847   2.181   8.429 -1.9843 -0.8014  1.8457
  543MOL0     H74870   9.725   2.063   8.419  1.5120 -1.2804  1.2618
  543MOL0     H74871   9.816   1.994   8.190  0.1785 -3.0190  2.9308
  543MOL0     H74872   9.955   2.102   8.222  0.8124 -2.0129 -3.2852
  543MOL0     H74873   9.971   1.948   8.441  2.1093 -0.8264 -0.2572
  543MOL0     H74874   9.882   1.834   8.324  3.3259 -2.7190 -2.9054
  543MOL0     H74875  10.146   1.968   8.265 -0.2871 -0.0477  3.1230
  543MOL0     H74876  10.058   1.869   8.146  2.8818  1.1340 -0.8517
  543MOL0     H74877  10.247   1.777   8.282  0.0102  0.4033 -0.4981
  543MOL0     H74878  10.143   1.781   8.416 -1.8893 -0.2769  0.2884
  543MOL0     H74879   9.976   1.626   8.269 -0.0814 -2.6275 -0.8301
  543MOL0     H74880  10.119   1.571   8.353 -0.6850 -2.1269 -0.3897
  543MOL0     H74881  10.106   1.652   8.049  0.2950 -0.3271 -0.8964
  543MOL0     H74882  10.239   1.565   8.138 -0.3533 -1.6962  3.1512
  543MOL0     H74883  10.174   1.339   8.276 -3.5898  2.6185  1.8897
  543MOL0     H74884  10.140   1.095   8.233 -1.5960  2.0100  1.0292
  543MOL0     H74885  10.087   1.046   8.066  2.7044 -0.1437  0.2486
  543MOL0     H74886   9.900   1.142   8.304  0.9206  2.3244 -1.5643
  543MOL0     H74887   9.845   1.082   8.163 -0.6298  4.9518  1.0772
  543MOL0     H74888  10.002   0.870   8.214 -0.6196  2.8271 -2.8333
  543MOL0     H74889  10.005   0.946   8.384  0.3556  0.6279 -0.8467
  543MOL0     H74890   9.867   0.771   8.397  1.4317  0.9372  0.1444
  543MOL0     H74891   9.785   0.917   8.420  0.8356 -0.8151  0.4687
  543MOL0     H74892   9.717   0.759   7.984  0.0747 -0.2207 -1.4157
  543MOL0     H74893   9.653   0.613   7.812  5.8553  2.8075 -1.0795
  543MOL0     H74894   9.623   0.439   7.814  1.3459 -0.2764 -0.6400
  543MOL0     H74895   9.787   0.497   7.822  0.6614 -0.6355  1.5817
  543MOL0     H74896   9.516   0.057   7.937  0.4688  4.0563 -0.7854
  543MOL0     H74897   9.525  -0.188   7.904 -0.0568  2.4929 -2.6030
  543MOL0     H74898   9.905  -0.377   7.828 -1.0969  0.8765 -0.5375
  543MOL0     H74899   9.864  -0.473   7.982 -0.6788  0.1881  1.2576
  543MOL0     H74900   9.683  -0.577   7.839  0.8487  0.2918  1.8794
  543MOL0     H74901   9.778  -0.538   7.707 -0.7341 -1.1599 -0.2312
  543MOL0     H74902   9.817  -0.770   7.873 -1.1442  0.0587 -0.9509
  543MOL0     H74903   9.979  -0.678   7.839  0.9181 -0.3085 -2.1359
  543MOL0     H74904   9.944  -0.729   7.618 -1.8862  4.7751  1.9561
  543MOL0     H74905   9.774  -0.780   7.653  0.7483  2.1250 -0.1376
  543MOL0     H74906  10.008  -0.915   7.762 -0.3837 -1.8895  2.9544
  543MOL0     H74907   9.839  -0.972   7.767  3.0059 -1.8684  2.3571
  543MOL0     H74908  10.009  -0.906   7.512  0.5834 -1.8929 -1.4067
  543MOL0     H74909   9.843  -0.973   7.518 -1.9696  1.3817  2.0108
  543MOL0     H74910  10.094  -1.105   7.652  1.8618  1.4347 -2.6795
  543MOL0     H74911  10.039  -1.124   7.479 -1.4998  0.1145 -0.2833
  543MOL0     H74912   9.889  -1.204   7.719  0.6190 -0.1289  0.2509
  543MOL0     H74913   9.951  -1.323   7.603 -1.0116 -0.0567 -1.7938
  543MOL0     H74914   9.934  -0.217   7.975 -1.0082 -0.6186 -0.2119
  543MOL0     H74915   9.947   0.039   7.996 -0.5474  0.4978  2.4024
  543MOL0     H74916   9.697   0.376   8.306  1.4708 -0.6286  0.3787
  543MOL0     H74917   9.737   0.600   8.392 -1.7039  1.0205  0.5390
  543MOL0     H74918   9.477   2.362   8.572 -0.7017 -0.0200  0.0815
  543MOL0     H74919   9.503   2.571   8.711 -2.8058  1.8706 -1.6511
  543MOL0     H74920   9.787   2.822   8.899  1.9979  1.4930  1.3687
  543MOL0     H74921   9.836   2.982   9.078 -2.0279 -0.2402  1.5327
  543MOL0     H74922   9.884   3.326   9.005  0.0303  1.5450 -0.2857
  543MOL0     H74923   9.772   3.398   9.124 -1.7227 -3.0246  2.5842
  543MOL0     H74924   9.914   3.283   9.297  0.5866  2.5195 -0.2125
  543MOL0     H74925  10.011   3.401   9.207  1.5353 -0.8216  1.2618
  543MOL0     H74926  10.016   3.109   9.132  0.3899 -0.0268 -1.7317
  543MOL0     H74927  10.089   3.244   9.045  1.8696 -0.2124  1.3710
  543MOL0     H74928  10.264   3.289   9.208  1.7123 -1.5252  0.9736
  543MOL0     H74929  10.263   3.126   9.179  1.4174  2.9340 -2.1118
  543MOL0     H74930  10.138   3.078   9.561  0.3690  0.9005 -0.2483
  543MOL0     H74931   9.610   3.284   8.902 -1.2668  0.0710  1.9058
  543MOL0     H74932   9.476   3.249   8.722  3.4203 -0.0401  1.1697
  543MOL0     H74933   9.521   3.151   8.582  1.2403 -0.0883 -0.2541
  543MOL0     H74934   9.395   3.094   8.692 -0.9981  0.9309 -4.5806
  544MOL0     O74935   1.569   1.894   5.502 -0.7844 -0.1757  0.4136
  544MOL0     C74936   1.662   1.957   5.554 -0.4830 -0.2886 -0.5822
  544MOL0     O74937   1.681   1.957   5.687  0.6804  0.0536 -0.1966
  544MOL0     C74938   1.581   1.935   5.782  0.1770 -1.2576  0.3853
  544MOL0     C74939   1.443   1.973   5.760 -0.0315 -0.6665  0.0105
  544MOL0     C74940   1.341   1.947   5.851  1.1479 -0.6681  0.0004
  544MOL0     C74941   1.375   1.880   5.973 -0.0476 -0.5971 -0.2716
  544MOL0     O74942   1.287   1.853   6.075  1.0500  0.1934 -0.3578
  544MOL0     C74943   1.151   1.896   6.060  0.7327 -1.1700  0.5694
  544MOL0     C74944   1.064   1.870   6.184  0.4202  0.3998 -0.9072
  544MOL0     C74945   0.950   1.964   6.189  1.4433 -1.4434  0.4585
  544MOL0     C74946   0.850   1.934   6.292  0.3678  0.3751  0.6310
  544MOL0     C74947   0.728   2.026   6.248 -0.3361 -0.0597 -0.5931
  544MOL0     C74948   0.619   2.038   6.356  0.1540  0.3611  0.5801
  544MOL0     C74949   0.488   2.078   6.288 -0.1672  0.3475 -0.4938
  544MOL0     C74950   0.366   2.096   6.375  0.3355 -0.3138  0.5272
  544MOL0     N74951   0.251   2.137   6.293 -1.2648 -0.0914  0.7815
  544MOL0     C74952   0.176   2.252   6.299  0.8277 -0.4055  0.0994
  544MOL0     C74953   0.088   2.239   6.204 -0.1881 -0.3750 -0.6328
  544MOL0     C74954  -0.009   2.345   6.181 -0.7479 -0.3949 -0.8198
  544MOL0     C74955   0.063   2.467   6.110  0.3409 -0.1347 -0.5829
  544MOL0     C74956  -0.034   2.587   6.085  0.2816 -0.2063 -0.5001
  544MOL0     C74957   0.017   2.662   5.960  0.6117  0.2111 -0.6485
  544MOL0     O74958  -0.048   2.790   5.980 -0.4777 -1.1440  0.3395
  544MOL0     C74959   0.031   2.896   6.037  0.8029  0.5347  0.4323
  544MOL0     C74960   0.145   2.873   6.119  0.6626 -0.2619 -0.3681
  544MOL0     C74961   0.219   2.971   6.177  0.8541 -0.3666 -0.2659
  544MOL0     C74962   0.335   2.932   6.265  0.2464 -0.3129  0.8469
  544MOL0     C74963   0.186   3.109   6.149 -0.7878  0.3028  0.0450
  544MOL0     C74964   0.272   3.226   6.173  0.3604 -0.3408 -0.5572
  544MOL0     O74965   0.225   3.341   6.129  0.1335 -0.1947 -0.3141
  544MOL0     C74966   0.248   3.458   6.195  0.8002  0.4988  0.2604
  544MOL0     C74967   0.215   3.575   6.132  0.6625  0.3756 -0.5272
  544MOL0     C74968   0.230   3.699   6.189  0.1621 -0.3657  0.1179
  544MOL0     C74969   0.295   3.716   6.306  1.1181 -0.1423 -0.6331
  544MOL0     O74970   0.327   3.838   6.362  0.0442  0.2968  0.3197
  544MOL0     C74971   0.339   3.946   6.283  0.2313  1.4765  0.6504
  544MOL0     C74972   0.435   4.045   6.343  0.1544  0.5518  0.0034
  544MOL0     C74973   0.463   4.160   6.254 -0.7726  0.3921  0.3286
  544MOL0     C74974   0.363   4.190   6.143 -0.8900  0.6002  0.4966
  544MOL0     C74975   0.242   4.269   6.194 -0.2056 -0.0679 -0.4136
  544MOL0     C74976   0.166   4.352   6.086  0.1491  0.6835 -1.0077
  544MOL0     C74977   0.107   4.260   5.968 -0.0723  0.1708 -0.7458
  544MOL0     C74978   0.144   4.320   5.828 -0.4178 -0.1013  0.7177
  544MOL0    Cl74979   0.080   4.213   5.705  0.2142 -0.3799 -0.1977
  544MOL0     C74980   0.331   3.604   6.376 -0.9098 -0.7122  0.0227
  544MOL0     C74981   0.308   3.475   6.324  0.4389  0.6542 -1.6852
  544MOL0     O74982   0.382   3.217   6.228 -0.4120  0.1016  0.2817
  544MOL0     C74983   0.078   3.128   6.061  0.3736 -0.8963 -0.1454
  544MOL0     C74984  -0.003   3.024   6.017 -0.3215 -1.3559  0.4176
  544MOL0     N74985   0.107   2.120   6.132 -0.3383  0.1699  0.4561
  544MOL0     N74986   0.202   2.056   6.190 -0.3620  0.1981 -0.4600
  544MOL0     C74987   1.507   1.843   5.994 -0.4018  0.7345 -1.2040
  544MOL0     C74988   1.608   1.860   5.896  0.7396 -0.4131  0.1496
  544MOL0     C74989   1.748   2.053   5.474 -0.4249 -0.0522  0.3016
  544MOL0     C74990   1.884   2.071   5.500  0.1728 -0.6373 -0.1343
  544MOL0     C74991   1.963   2.173   5.434 -0.2134  0.8325 -1.0608
  544MOL0     C74992   1.907   2.247   5.336  0.2901  0.3488 -0.3714
  544MOL0     O74993   1.970   2.343   5.269 -0.4545 -0.5608  0.4194
  544MOL0     C74994   2.113   2.355   5.270 -0.3335 -0.3726  0.2082
  544MOL0     C74995   2.162   2.501   5.258  0.4821  0.2010  0.2013
  544MOL0     C74996   2.109   2.583   5.140 -0.0930 -0.3890 -0.3009
  544MOL0     C74997   2.089   2.495   5.016 -0.4135 -0.9538  0.1093
  544MOL0     C74998   2.218   2.445   4.970  0.1992  0.1051 -0.2670
  544MOL0     C74999   2.340   2.410   4.962 -0.7894  0.5643 -0.3340
  544MOL0     C75000   1.772   2.222   5.298 -0.7809  0.1890  0.3113
  544MOL0     C75001   1.694   2.131   5.366 -0.2427 -0.0770 -0.0902
  544MOL0     C75002   1.554   2.130   5.329 -0.5784  0.0782 -0.3308
  544MOL0     H75003   1.419   2.032   5.673 -0.6689 -1.7285 -0.5542
  544MOL0     H75004   1.241   1.984   5.831  0.5226 -2.5442 -0.5672
  544MOL0     H75005   1.093   1.846   5.982 -1.6705 -0.2260  1.6578
  544MOL0     H75006   1.151   2.001   6.028 -1.9264 -1.7456 -1.7311
  544MOL0     H75007   1.025   1.767   6.188  0.1601  0.5158 -0.2487
  544MOL0     H75008   1.115   1.882   6.280  0.3818  0.9762 -0.9601
  544MOL0     H75009   0.984   2.067   6.204  0.3974 -1.2122  1.3505
  544MOL0     H75010   0.903   1.959   6.091 -0.3994  1.0865  1.1040
  544MOL0     H75011   0.829   1.827   6.299  0.9653  0.1581 -0.6813
  544MOL0     H75012   0.895   1.960   6.389  4.6592 -0.8402 -0.8297
  544MOL0     H75013   0.680   1.994   6.154  1.1889 -2.7150 -0.5727
  544MOL0     H75014   0.777   2.122   6.231  1.6213 -0.7508  0.7568
  544MOL0     H75015   0.606   1.942   6.406  0.5399  0.1451  0.2688
  544MOL0     H75016   0.657   2.111   6.428 -1.5857 -0.2035  2.1365
  544MOL0     H75017   0.462   1.991   6.227  0.0647  0.5154 -0.8367
  544MOL0     H75018   0.494   2.171   6.229  0.6996  0.8139  0.3090
  544MOL0     H75019   0.332   1.998   6.410  1.1520 -0.1705  1.7691
  544MOL0     H75020   0.370   2.162   6.462 -4.6719  1.4594 -0.2138
  544MOL0     H75021   0.171   2.335   6.370 -0.0176  0.1625 -0.6025
  544MOL0     H75022  -0.047   2.383   6.276  0.4320  0.2114 -0.5722
  544MOL0     H75023  -0.097   2.315   6.122 -0.4747  2.1360 -2.7060
  544MOL0     H75024   0.159   2.500   6.151  1.1247 -1.2471 -1.4634
  544MOL0     H75025   0.088   2.415   6.017 -0.3201 -3.2170  0.8158
  544MOL0     H75026  -0.133   2.553   6.054 -0.4278 -1.2304  2.5291
  544MOL0     H75027  -0.045   2.652   6.172 -2.7356  0.2134 -1.0974
  544MOL0     H75028   0.126   2.669   5.954  0.6496  0.8168  0.5033
  544MOL0     H75029  -0.013   2.625   5.861 -3.0486  1.2357 -0.0664
  544MOL0     H75030   0.173   2.772   6.150  0.1404 -1.5873 -3.7722
  544MOL0     H75031   0.329   3.000   6.351 -2.1334  2.5415 -1.3724
  544MOL0     H75032   0.429   2.951   6.212 -0.6451  2.7641  0.1787
  544MOL0     H75033   0.340   2.826   6.293  2.4159 -0.3574  0.4699
  544MOL0     H75034   0.182   3.562   6.029  0.2537 -0.2697 -0.3209
  544MOL0     H75035   0.198   3.789   6.137  5.1451  0.4652 -2.1359
  544MOL0     H75036   0.378   3.905   6.189  1.5904  0.5229  1.5970
  544MOL0     H75037   0.241   3.993   6.270  0.9283  2.9628  0.5785
  544MOL0     H75038   0.393   4.072   6.440 -1.2944 -1.6790  0.0749
  544MOL0     H75039   0.531   3.995   6.359 -0.3634  0.5662  4.1570
  544MOL0     H75040   0.565   4.151   6.217 -0.4775  0.1541  1.1639
  544MOL0     H75041   0.476   4.251   6.313 -1.3727  0.9355 -0.3625
  544MOL0     H75042   0.325   4.102   6.092 -1.0890  0.5318  0.7607
  544MOL0     H75043   0.423   4.242   6.068 -0.5159 -1.8241 -0.9949
  544MOL0     H75044   0.176   4.199   6.247  1.3722 -2.6110 -1.5826
  544MOL0     H75045   0.275   4.343   6.267  3.1220 -1.7990  0.0469
  544MOL0     H75046   0.237   4.424   6.044 -0.8471  1.8396 -0.7598
  544MOL0     H75047   0.078   4.401   6.127 -0.3877 -0.3677 -0.8493
  544MOL0     H75048   0.003   4.261   6.000  0.1424 -0.1407 -0.0094
  544MOL0     H75049   0.142   4.157   5.986 -0.3988  0.5407  2.8258
  544MOL0     H75050   0.252   4.322   5.812 -0.3839 -1.4506  0.6639
  544MOL0     H75051   0.090   4.415   5.819 -1.8419 -0.7586  1.9572
  544MOL0     H75052   0.387   3.607   6.469  0.8565  1.0590 -1.0027
  544MOL0     H75053   0.335   3.396   6.393  2.3568  0.0430 -3.0542
  544MOL0     H75054   0.038   3.224   6.031  4.0143  0.6570 -0.5802
  544MOL0     H75055  -0.091   3.045   5.957  0.9650 -1.5755 -1.6654
  544MOL0     H75056   1.526   1.787   6.085 -0.1043  0.7969 -1.2266
  544MOL0     H75057   1.711   1.828   5.906  1.9423  3.1351  0.3567
  544MOL0     H75058   1.946   2.018   5.571  1.5785  1.3054  0.1769
  544MOL0     H75059   2.063   2.187   5.474  0.7468 -2.6809 -1.8987
  544MOL0     H75060   2.152   2.348   5.372  0.7868  2.8623  0.1149
  544MOL0     H75061   2.159   2.291   5.193 -0.9429  0.0246 -0.5020
  544MOL0     H75062   2.271   2.504   5.250  0.4669 -2.3141 -2.3620
  544MOL0     H75063   2.140   2.547   5.355  2.9237 -0.5413  1.1669
  544MOL0     H75064   2.015   2.635   5.160 -0.7203 -1.0443 -1.4457
  544MOL0     H75065   2.177   2.664   5.115  0.3286  0.1784  2.3846
  544MOL0     H75066   2.042   2.553   4.936 -0.1245  0.8592  1.2215
  544MOL0     H75067   2.022   2.409   5.022  0.0941 -1.2670  2.3956
  544MOL0     H75068   2.447   2.402   4.967 -0.3360  3.8177 -1.9895
  544MOL0     H75069   1.724   2.287   5.226  0.1817 -0.1719 -0.6785
  544MOL0     H75070   1.534   2.043   5.265  1.7914  1.1127 -2.6569
  544MOL0     H75071   1.484   2.123   5.413 -3.9785  0.6991 -2.9069
  544MOL0     H75072   1.537   2.221   5.272  2.5056  0.6747 -0.4874
  545MOL0     O75073   3.317   2.331   2.472 -0.6649 -0.2337 -0.1106
  545MOL0     C75074   3.383   2.228   2.463 -0.0574  0.2624  0.4408
  545MOL0     O75075   3.512   2.216   2.432 -1.0065 -0.1688 -0.5365
  545MOL0     C75076   3.598   2.316   2.444  0.6533 -0.2643 -0.5517
  545MOL0     C75077   3.688   2.329   2.336 -0.4722 -0.2534  0.2782
  545MOL0     C75078   3.806   2.408   2.345  0.9538 -1.2522  0.3767
  545MOL0     C75079   3.820   2.485   2.456 -1.0354  0.3476 -0.0386
  545MOL0     O75080   3.935   2.561   2.464  0.1059  0.2930 -0.9132
  545MOL0     C75081   3.957   2.679   2.545 -0.7014  1.0976 -0.5134
  545MOL0     C75082   4.076   2.761   2.491 -0.4647  0.2254  0.2245
  545MOL0     C75083   4.074   2.906   2.527  0.0231 -0.1275  0.3742
  545MOL0     C75084   4.153   2.984   2.421 -0.3144  0.1010  0.7140
  545MOL0     C75085   4.191   3.130   2.464 -0.5631  0.1039 -0.6717
  545MOL0     C75086   4.325   3.179   2.434  0.1559  1.0049 -0.2165
  545MOL0     C75087   4.420   3.094   2.511 -0.9567  1.0866 -0.7386
  545MOL0     C75088   4.560   3.145   2.563 -0.5119 -0.9158  1.0654
  545MOL0     N75089   4.642   3.045   2.615 -0.2088 -0.4545  0.6947
  545MOL0     C75090   4.733   2.975   2.552  1.1353 -0.3499  0.0309
  545MOL0     C75091   4.758   2.880   2.642  0.2460  0.1782 -0.1233
  545MOL0     C75092   4.867   2.774   2.634  0.7054  0.2458 -0.3330
  545MOL0     C75093   5.014   2.825   2.638 -0.3145 -0.1297  0.2526
  545MOL0     C75094   5.099   2.694   2.662  0.0271 -0.1377  0.1439
  545MOL0     C75095   5.240   2.723   2.602 -0.2657  0.0900  0.0758
  545MOL0     O75096   5.336   2.619   2.635 -0.3208 -0.1733 -0.0675
  545MOL0     C75097   5.457   2.605   2.567  0.1983  0.9960 -0.7539
  545MOL0     C75098   5.528   2.705   2.497  0.8951  0.1314  0.0733
  545MOL0     C75099   5.659   2.679   2.450  1.0751 -0.6249  0.5827
  545MOL0     C75100   5.730   2.800   2.382  0.8353  0.1524 -1.3497
  545MOL0     C75101   5.712   2.556   2.469 -0.7180 -1.1035 -1.5559
  545MOL0     C75102   5.844   2.515   2.422 -0.6571 -0.1802 -1.6440
  545MOL0     O75103   5.914   2.601   2.347 -0.4067  0.2459  0.9191
  545MOL0     C75104   6.047   2.572   2.313  0.0158  0.1457  0.5112
  545MOL0     C75105   6.146   2.664   2.345 -0.1137  0.2431 -0.3407
  545MOL0     C75106   6.273   2.635   2.300  0.3398  0.4430  0.8647
  545MOL0     C75107   6.309   2.513   2.228 -0.4339 -0.5622  0.1413
  545MOL0     O75108   6.440   2.511   2.197  0.6973  0.6144 -0.9669
  545MOL0     C75109   6.496   2.388   2.138 -0.1809 -0.3511  0.4504
  545MOL0     C75110   6.481   2.381   1.987 -0.2357  0.1284 -0.0657
  545MOL0     C75111   6.519   2.237   1.934 -0.3381  1.5867  0.2213
  545MOL0     C75112   6.442   2.198   1.805 -0.8654 -0.4154 -1.0572
  545MOL0     C75113   6.480   2.063   1.755  0.8441  0.5724 -0.1826
  545MOL0     C75114   6.431   2.037   1.612 -0.3625  0.0472  0.0170
  545MOL0     C75115   6.282   2.038   1.600  0.6785 -1.1287  0.5849
  545MOL0     C75116   6.247   2.024   1.449  0.7105  0.3762 -0.3293
  545MOL0    Cl75117   6.309   2.145   1.343 -0.1877 -0.2247  0.3044
  545MOL0     C75118   6.205   2.426   2.201 -0.1583 -0.3206  0.6951
  545MOL0     C75119   6.076   2.455   2.244 -0.5996  0.2347 -0.3702
  545MOL0     O75120   5.888   2.407   2.470 -0.0145 -0.2025 -0.3387
  545MOL0     C75121   5.633   2.456   2.524  0.0272 -0.2963  0.0672
  545MOL0     C75122   5.510   2.477   2.577 -0.3818 -0.2671  0.5280
  545MOL0     N75123   4.667   2.887   2.746 -0.1046  0.0556  0.0836
  545MOL0     N75124   4.604   2.994   2.732 -0.0060  0.8906 -0.4139
  545MOL0     C75125   3.713   2.496   2.552  0.0550 -0.4377 -0.4141
  545MOL0     C75126   3.610   2.406   2.555  0.6409  0.3420  0.7276
  545MOL0     C75127   3.324   2.099   2.492  0.4594  0.3543  0.0905
  545MOL0     C75128   3.361   2.029   2.602 -0.3920  0.2747 -0.7063
  545MOL0     C75129   3.304   1.906   2.623  0.1009  0.3588  0.3874
  545MOL0     C75130   3.221   1.844   2.529  0.5833  0.2834  0.5524
  545MOL0     O75131   3.185   1.713   2.535 -0.0350  0.7774 -1.0062
  545MOL0     C75132   3.226   1.638   2.654 -0.4007 -0.0404 -0.2523
  545MOL0     C75133   3.153   1.505   2.653  0.0940  0.2160 -0.7959
  545MOL0     C75134   2.998   1.511   2.649 -0.5557 -0.4120 -0.5224
  545MOL0     C75135   2.936   1.373   2.653  0.6325 -0.0498  0.5502
  545MOL0     C75136   2.970   1.294   2.528  0.3136  0.4561 -0.4134
  545MOL0     C75137   2.999   1.226   2.435  0.2972  0.5948  0.3210
  545MOL0     C75138   3.182   1.918   2.416 -0.0700  1.3507  0.2816
  545MOL0     C75139   3.224   2.050   2.403 -0.8256  0.0522  0.2246
  545MOL0     C75140   3.187   2.128   2.271 -0.2040 -0.3919 -0.6997
  545MOL0     H75141   3.660   2.252   2.265 -1.6535  0.6040 -0.2309
  545MOL0     H75142   3.882   2.407   2.268  0.2913  0.5545 -0.3642
  545MOL0     H75143   3.963   2.640   2.647  1.5223 -0.0940 -1.0296
  545MOL0     H75144   3.870   2.745   2.537 -0.9634  0.8887  0.4472
  545MOL0     H75145   4.172   2.722   2.528 -0.6404 -4.8406 -3.5536
  545MOL0     H75146   4.085   2.745   2.383  3.0549  1.7826  0.1546
  545MOL0     H75147   3.971   2.941   2.522 -0.2687 -1.0013  0.0768
  545MOL0     H75148   4.113   2.927   2.627  0.1842 -0.1214  0.3099
  545MOL0     H75149   4.250   2.936   2.406  0.1706  1.0640  0.7220
  545MOL0     H75150   4.114   2.992   2.319 -1.9443  1.4830  1.3953
  545MOL0     H75151   4.171   3.124   2.572 -0.5976 -2.9550 -0.7566
  545MOL0     H75152   4.114   3.195   2.422  0.6545 -0.2953 -3.8001
  545MOL0     H75153   4.341   3.172   2.326 -4.2978 -2.2459 -0.9340
  545MOL0     H75154   4.321   3.282   2.472 -2.3130 -0.1204  3.0831
  545MOL0     H75155   4.448   3.002   2.459 -4.4298 -1.3181  1.2302
  545MOL0     H75156   4.371   3.072   2.607  1.3441  1.7863  0.6910
  545MOL0     H75157   4.614   3.205   2.490 -0.4457 -0.3882  1.5366
  545MOL0     H75158   4.532   3.210   2.647 -0.6691 -2.6880  2.4308
  545MOL0     H75159   4.778   2.993   2.455 -0.5856 -3.0731 -1.4050
  545MOL0     H75160   4.850   2.688   2.569  3.0033 -0.5896  0.0704
  545MOL0     H75161   4.856   2.731   2.734  0.4096  2.1467  0.5070
  545MOL0     H75162   5.035   2.864   2.538 -0.5874  2.0449  0.9828
  545MOL0     H75163   5.039   2.904   2.710  1.3003 -0.5112  0.1491
  545MOL0     H75164   5.116   2.670   2.768  0.7279 -0.9067 -0.1246
  545MOL0     H75165   5.048   2.609   2.616  0.0837  1.4065 -3.0446
  545MOL0     H75166   5.227   2.730   2.494 -2.4243  1.1205  0.3545
  545MOL0     H75167   5.276   2.813   2.652 -0.8546  1.8342 -2.4321
  545MOL0     H75168   5.485   2.804   2.490 -0.0298 -0.1515  1.4426
  545MOL0     H75169   5.827   2.818   2.428  0.2839 -1.5420  0.6209
  545MOL0     H75170   5.654   2.877   2.402 -1.2431 -1.2389 -3.4021
  545MOL0     H75171   5.743   2.793   2.274  0.3998  2.3099 -1.5907
  545MOL0     H75172   6.123   2.756   2.397 -1.5184 -0.9211  1.1661
  545MOL0     H75173   6.366   2.690   2.312  1.8769 -0.8489 -3.3285
  545MOL0     H75174   6.600   2.374   2.170 -0.1808 -1.4338  0.0239
  545MOL0     H75175   6.437   2.311   2.188 -2.3784  1.6859  1.1659
  545MOL0     H75176   6.378   2.411   1.964 -1.3278 -2.1683  1.4510
  545MOL0     H75177   6.544   2.454   1.934 -0.6321 -0.1580 -0.9592
  545MOL0     H75178   6.484   2.159   2.003  0.8390  0.4162 -0.4514
  545MOL0     H75179   6.622   2.221   1.902 -0.2991  0.5780  0.7878
  545MOL0     H75180   6.477   2.273   1.734 -2.8829  1.8851  0.2211
  545MOL0     H75181   6.336   2.205   1.833  0.1012  0.9978  2.7146
  545MOL0     H75182   6.584   2.031   1.771 -0.3053 -4.3923 -1.1007
  545MOL0     H75183   6.435   1.984   1.816  3.8264 -0.9611  0.2258
  545MOL0     H75184   6.459   1.935   1.583  1.8456  0.1867  1.3643
  545MOL0     H75185   6.465   2.111   1.539  0.6174 -1.1937 -0.8276
  545MOL0     H75186   6.240   2.133   1.632  2.1449  0.5732 -2.1330
  545MOL0     H75187   6.236   1.954   1.654 -4.0469 -0.2440 -1.4868
  545MOL0     H75188   6.138   2.014   1.449  0.7358 -0.1218  0.9189
  545MOL0     H75189   6.293   1.933   1.407 -0.9561  0.4380 -2.4660
  545MOL0     H75190   6.229   2.338   2.142  0.6330  2.2801 -3.2351
  545MOL0     H75191   5.996   2.386   2.220 -1.0693  1.2553 -1.8905
  545MOL0     H75192   5.668   2.353   2.523 -0.3204 -0.4192 -1.0756
  545MOL0     H75193   5.469   2.389   2.626 -2.3212 -1.6135 -3.1534
  545MOL0     H75194   3.699   2.574   2.626  1.7339 -1.3165  0.8896
  545MOL0     H75195   3.531   2.402   2.630  0.8870 -0.3955  0.9512
  545MOL0     H75196   3.436   2.076   2.665  1.0044  2.2041 -3.6101
  545MOL0     H75197   3.344   1.838   2.698 -1.8939 -2.4636 -0.9139
  545MOL0     H75198   3.330   1.605   2.660 -0.3912  0.1988  1.4248
  545MOL0     H75199   3.199   1.678   2.752 -0.6801 -0.4720 -0.1446
  545MOL0     H75200   3.180   1.445   2.741 -1.4443  0.6871  0.0405
  545MOL0     H75201   3.182   1.449   2.564 -0.1551 -2.6362  0.8081
  545MOL0     H75202   2.967   1.555   2.745  3.5573  0.1772  0.7296
  545MOL0     H75203   2.972   1.564   2.557 -0.3227  2.4773  0.9323
  545MOL0     H75204   2.828   1.387   2.657  0.6983  0.4649  0.5039
  545MOL0     H75205   2.972   1.310   2.735  0.0714  0.8879  1.5392
  545MOL0     H75206   3.043   1.174   2.352  0.7963  1.0137  0.3173
  545MOL0     H75207   3.121   1.860   2.347 -1.8217  3.1674  0.2303
  545MOL0     H75208   3.092   2.094   2.229 -1.3260  0.9373  0.6523
  545MOL0     H75209   3.169   2.231   2.304  0.3459 -0.8804  1.2439
  545MOL0     H75210   3.266   2.116   2.196 -1.2826 -2.4325 -1.5793
  546MOL0     O75211   3.251   2.415  10.609  0.3352 -0.4761 -0.6281
  546MOL0     C75212   3.187   2.518  10.621  0.1195  0.3632 -0.3286
  546MOL0     O75213   3.068   2.553  10.574 -0.4436 -0.2243 -0.3047
  546MOL0     C75214   3.006   2.461  10.484  0.3848 -0.1921 -0.7912
  546MOL0     C75215   2.944   2.529  10.382 -1.1685  0.8978 -0.5038
  546MOL0     C75216   2.844   2.468  10.297  0.5235  0.0644  0.2782
  546MOL0     C75217   2.821   2.332  10.314  1.1225  0.2012 -0.4110
  546MOL0     O75218   2.731   2.276  10.225 -0.0207 -0.2730 -0.0738
  546MOL0     C75219   2.727   2.139  10.222  0.1540  0.7474 -0.5015
  546MOL0     C75220   2.646   2.101  10.105  1.2691 -0.2299 -0.3903
  546MOL0     C75221   2.725   2.114   9.972  0.2158 -0.1494  0.7660
  546MOL0     C75222   2.672   2.033   9.858  0.1602 -0.5960 -0.3330
  546MOL0     C75223   2.735   2.077   9.725  0.7328 -0.8804 -0.2752
  546MOL0     C75224   2.673   1.994   9.616  0.3074  0.5408 -0.1336
  546MOL0     C75225   2.726   2.055   9.482  0.6755 -0.6907  0.2431
  546MOL0     C75226   2.805   1.949   9.393 -0.0854 -0.5487 -0.1748
  546MOL0     N75227   2.945   1.906   9.419  0.0641  0.3852  0.0555
  546MOL0     C75228   2.991   1.825   9.524 -0.3002  0.5651  0.3279
  546MOL0     C75229   3.109   1.772   9.472 -0.2696 -0.3858 -0.6412
  546MOL0     C75230   3.204   1.665   9.537 -0.1947  0.4550 -0.6248
  546MOL0     C75231   3.299   1.734   9.627 -0.7005 -0.4528 -0.4381
  546MOL0     C75232   3.384   1.626   9.700  0.4888  0.3339  0.1667
  546MOL0     C75233   3.428   1.504   9.605  0.2413  0.1500 -0.4320
  546MOL0     O75234   3.543   1.437   9.669  0.1705  0.4145  0.0233
  546MOL0     C75235   3.583   1.309   9.631 -0.0359  0.5029  0.1577
  546MOL0     C75236   3.511   1.212   9.564  0.9035 -0.3410  0.0582
  546MOL0     C75237   3.568   1.090   9.531  0.4289 -0.2223 -0.5199
  546MOL0     C75238   3.467   0.987   9.481 -0.1758  0.7030  0.0422
  546MOL0     C75239   3.706   1.061   9.562 -0.3113  0.1551 -0.3992
  546MOL0     C75240   3.786   0.938   9.519 -0.2684 -0.1771 -0.9578
  546MOL0     O75241   3.887   0.915   9.600 -0.4941  0.8928  0.3427
  546MOL0     C75242   3.975   0.813   9.584  1.0628  0.8381  0.1613
  546MOL0     C75243   3.933   0.680   9.550  0.3784 -0.2480 -0.1314
  546MOL0     C75244   4.028   0.588   9.534  0.1361  0.5848  1.2307
  546MOL0     C75245   4.165   0.623   9.532  0.4240  0.7432  0.1794
  546MOL0     O75246   4.257   0.525   9.508  0.4832  0.2780  0.0065
  546MOL0     C75247   4.326   0.536   9.383 -0.7908 -0.1636 -0.7553
  546MOL0     C75248   4.446   0.435   9.378  1.1234 -0.0424  0.1995
  546MOL0     C75249   4.504   0.412   9.235  0.2461  0.7041  0.9197
  546MOL0     C75250   4.654   0.398   9.242 -0.4798  0.3315  0.3085
  546MOL0     C75251   4.716   0.366   9.112  0.6028  0.2437 -0.5408
  546MOL0     C75252   4.749   0.486   9.015  1.0632  0.3189  0.0865
  546MOL0     C75253   4.783   0.439   8.863  0.4902 -1.2879 -0.3981
  546MOL0     C75254   4.819   0.566   8.791 -0.6529  0.1235  0.0816
  546MOL0    Cl75255   4.671   0.661   8.800 -0.0302 -0.3726  0.0416
  546MOL0     C75256   4.203   0.753   9.555  0.1758 -0.4551 -0.4357
  546MOL0     C75257   4.108   0.847   9.593 -0.3259 -0.0829  0.4190
  546MOL0     O75258   3.769   0.878   9.413  0.5960 -0.0233  0.2289
  546MOL0     C75259   3.775   1.161   9.628  0.2407  0.5819  0.2653
  546MOL0     C75260   3.716   1.283   9.661  0.5713 -0.0669 -0.0565
  546MOL0     N75261   3.143   1.841   9.352  0.3901 -0.0588  0.8706
  546MOL0     N75262   3.044   1.918   9.325  0.9947 -0.1722  0.6726
  546MOL0     C75263   2.883   2.264  10.426  0.6215  0.2212  0.7249
  546MOL0     C75264   2.970   2.328  10.517  0.2523  0.6586 -0.1729
  546MOL0     C75265   3.252   2.618  10.708 -0.7011 -0.5769 -0.9006
  546MOL0     C75266   3.182   2.657  10.827 -0.4074 -0.6090 -0.3977
  546MOL0     C75267   3.241   2.741  10.912  0.3903 -0.7048  0.5571
  546MOL0     C75268   3.369   2.790  10.889 -0.1773 -0.2087 -1.1029
  546MOL0     O75269   3.432   2.871  10.981  0.2110 -0.1208 -0.2057
  546MOL0     C75270   3.480   2.805  11.098  0.2048  0.9641 -0.4456
  546MOL0     C75271   3.543   2.900  11.204  1.0800 -0.5013 -0.4617
  546MOL0     C75272   3.443   3.006  11.258 -0.3509  0.5016 -0.3738
  546MOL0     C75273   3.530   3.084  11.350  0.3790 -0.3748  0.6875
  546MOL0     C75274   3.474   3.227  11.359  0.4540 -0.4980 -0.5557
  546MOL0     C75275   3.416   3.329  11.377  0.8479 -0.5308  0.4126
  546MOL0     C75276   3.429   2.771  10.769  0.0054 -0.0410 -0.4009
  546MOL0     C75277   3.378   2.675  10.680 -0.1646 -0.3992  0.5277
  546MOL0     C75278   3.445   2.643  10.548  1.1039  0.2272  0.3517
  546MOL0     H75279   2.971   2.633  10.367 -0.5410  0.6589 -1.0817
  546MOL0     H75280   2.809   2.539  10.223  0.2406 -2.2938 -1.9770
  546MOL0     H75281   2.660   2.123  10.308 -0.8308  2.1315 -0.9725
  546MOL0     H75282   2.825   2.089  10.220 -0.7281 -1.0444 -0.6751
  546MOL0     H75283   2.624   1.994  10.096  0.2585  0.0519 -1.5201
  546MOL0     H75284   2.546   2.144  10.121  1.0088 -1.6293  2.4037
  546MOL0     H75285   2.722   2.219   9.943  0.2180 -0.9754 -2.5829
  546MOL0     H75286   2.826   2.078   9.993  0.0492 -1.4556 -0.5538
  546MOL0     H75287   2.693   1.927   9.875 -2.3133 -0.8248  1.8737
  546MOL0     H75288   2.565   2.054   9.853  0.2532  0.1189  0.4447
  546MOL0     H75289   2.836   2.037   9.737 -0.7032 -5.4514 -1.4264
  546MOL0     H75290   2.729   2.183   9.700  1.8385 -1.3872 -3.0598
  546MOL0     H75291   2.689   1.888   9.636 -1.9849  0.8281  4.4664
  546MOL0     H75292   2.564   2.006   9.618  0.5623  3.4867  0.7021
  546MOL0     H75293   2.778   2.150   9.490  1.6148 -0.4458 -5.3828
  546MOL0     H75294   2.632   2.061   9.428 -0.4368  1.2653  2.2320
  546MOL0     H75295   2.753   1.853   9.407  2.0477 -1.8516 -0.7558
  546MOL0     H75296   2.798   1.992   9.293 -1.7324  1.3930  0.6910
  546MOL0     H75297   2.936   1.794   9.612  1.5840 -2.1281  0.6595
  546MOL0     H75298   3.254   1.616   9.453 -2.8589 -0.8812 -1.5499
  546MOL0     H75299   3.146   1.593   9.596 -0.8640  2.0864  0.7755
  546MOL0     H75300   3.348   1.812   9.568 -0.2579 -0.9311 -0.7145
  546MOL0     H75301   3.255   1.795   9.706 -0.0496  1.2428 -1.3278
  546MOL0     H75302   3.471   1.673   9.744  1.7532 -2.3244  0.7317
  546MOL0     H75303   3.326   1.576   9.778 -0.3167 -1.3212 -1.3865
  546MOL0     H75304   3.342   1.436   9.610 -1.2222  1.7006 -2.5103
  546MOL0     H75305   3.456   1.539   9.505  0.3633  1.1883 -0.0477
  546MOL0     H75306   3.407   1.229   9.536  0.7211  1.8552  1.7923
  546MOL0     H75307   3.519   0.913   9.419 -0.4236  1.6127 -1.3100
  546MOL0     H75308   3.398   1.045   9.419  1.2106  2.2258 -0.1419
  546MOL0     H75309   3.409   0.945   9.563  0.6469 -1.6397 -0.4948
  546MOL0     H75310   3.828   0.653   9.552 -0.3813  2.4401  1.9572
  546MOL0     H75311   4.015   0.485   9.502 -0.3960  1.2095 -0.7352
  546MOL0     H75312   4.264   0.520   9.294 -2.7846 -0.8012  0.6622
  546MOL0     H75313   4.369   0.637   9.380 -1.3087  0.1870  1.6806
  546MOL0     H75314   4.523   0.475   9.444  2.8635 -3.0495  0.2027
  546MOL0     H75315   4.413   0.340   9.423 -3.1807  0.7034 -0.9334
  546MOL0     H75316   4.479   0.497   9.171  1.4365 -0.5584 -1.3340
  546MOL0     H75317   4.463   0.321   9.190 -1.8957  1.0633  2.0030
  546MOL0     H75318   4.677   0.317   9.311  1.3685  0.1918 -0.4249
  546MOL0     H75319   4.703   0.489   9.278 -1.4791  1.7359 -1.6706
  546MOL0     H75320   4.817   0.329   9.127  1.7652  2.1843 -2.8281
  546MOL0     H75321   4.663   0.287   9.057  0.1081  2.1651 -3.0226
  546MOL0     H75322   4.833   0.552   9.042 -0.3102  3.2247 -2.2211
  546MOL0     H75323   4.657   0.544   9.021 -1.2561 -3.0440 -0.6017
  546MOL0     H75324   4.699   0.389   8.814 -0.6652  1.8704 -1.8577
  546MOL0     H75325   4.860   0.360   8.864  0.1520 -1.6227  0.6592
  546MOL0     H75326   4.844   0.548   8.686  1.0915  2.5899 -0.0179
  546MOL0     H75327   4.906   0.612   8.839 -1.8754  0.9024  1.6123
  546MOL0     H75328   4.310   0.773   9.564  0.2894 -0.5808 -1.3534
  546MOL0     H75329   4.132   0.942   9.641  0.4527 -1.1642  2.3066
  546MOL0     H75330   3.883   1.155   9.639  0.4329  2.0377 -0.5143
  546MOL0     H75331   3.776   1.353   9.719 -1.1031  1.7357 -0.3860
  546MOL0     H75332   2.863   2.159  10.448  0.2580 -0.1785 -1.2617
  546MOL0     H75333   3.003   2.275  10.606 -1.7828  0.3552  0.4593
  546MOL0     H75334   3.085   2.609  10.836 -0.5019 -0.4471 -0.5322
  546MOL0     H75335   3.197   2.770  11.007 -0.9195  1.6529 -0.6630
  546MOL0     H75336   3.394   2.756  11.143 -1.1080  1.0997 -2.6626
  546MOL0     H75337   3.562   2.733  11.085  2.5683  2.9414  2.3532
  546MOL0     H75338   3.628   2.951  11.158  0.8773 -1.2583 -1.7478
  546MOL0     H75339   3.573   2.839  11.289 -2.5901 -4.2985 -1.5577
  546MOL0     H75340   3.405   3.066  11.175 -0.0471  0.5701 -0.4644
  546MOL0     H75341   3.358   2.975  11.320  0.4677  3.1277  2.2781
  546MOL0     H75342   3.633   3.092  11.313  0.3511  1.9593  0.9731
  546MOL0     H75343   3.530   3.037  11.449  0.7165 -0.5355  0.6122
  546MOL0     H75344   3.361   3.422  11.381  2.2899  0.7423 -3.9665
  546MOL0     H75345   3.522   2.825  10.749 -1.4424  2.3035 -1.2621
  546MOL0     H75346   3.393   2.704  10.473 -0.2635 -2.8118 -1.3726
  546MOL0     H75347   3.552   2.664  10.556  1.4264 -1.8012  2.4543
  546MOL0     H75348   3.450   2.539  10.517  2.5994  0.8778 -1.8583
  547MOL0     O75349   1.746   0.571   6.216  0.5442  1.4812 -0.4373
  547MOL0     C75350   1.790   0.613   6.319  1.2740 -0.5369 -0.1665
  547MOL0     O75351   1.720   0.630   6.440  0.6216  0.2247  0.4797
  547MOL0     C75352   1.582   0.636   6.450  0.0762  0.6324  0.6625
  547MOL0     C75353   1.536   0.627   6.583 -0.2015  0.1133  0.0829
  547MOL0     C75354   1.402   0.637   6.609  0.3619 -0.3395  0.1024
  547MOL0     C75355   1.303   0.630   6.511  0.7841 -0.3881  0.7315
  547MOL0     O75356   1.174   0.632   6.561  0.0114 -0.3758  0.6273
  547MOL0     C75357   1.074   0.699   6.487 -0.4791 -0.1264 -0.4155
  547MOL0     C75358   0.960   0.712   6.583  0.1807  0.6598  0.1340
  547MOL0     C75359   0.847   0.802   6.526 -0.1514 -0.6570 -0.4892
  547MOL0     C75360   0.777   0.757   6.399 -0.2281  0.8844 -0.2716
  547MOL0     C75361   0.708   0.879   6.326  0.0780 -0.9765 -0.3049
  547MOL0     C75362   0.805   0.954   6.240 -0.1725  0.2993 -0.1835
  547MOL0     C75363   0.738   1.084   6.190  0.0485 -0.0005  0.2252
  547MOL0     C75364   0.661   1.058   6.056  0.3985  0.0660  0.0751
  547MOL0     N75365   0.765   1.020   5.953  0.6096 -0.2780 -0.7338
  547MOL0     C75366   0.855   1.095   5.885 -0.8314  0.1641  0.6546
  547MOL0     C75367   0.898   1.017   5.782 -0.1300 -0.5839  0.1580
  547MOL0     C75368   0.982   1.049   5.656  0.6857  0.2389  0.5025
  547MOL0     C75369   0.949   1.179   5.564 -0.4828 -0.3749 -0.2729
  547MOL0     C75370   0.823   1.164   5.480 -0.0897  0.4047 -0.4964
  547MOL0     C75371   0.801   1.293   5.393  0.2168  0.4595  0.3132
  547MOL0     O75372   0.689   1.271   5.304 -0.0679 -0.6003  0.0369
  547MOL0     C75373   0.717   1.193   5.193  0.4507 -1.0922 -0.2743
  547MOL0     C75374   0.661   1.069   5.194 -1.0584  0.1039 -1.0649
  547MOL0     C75375   0.689   0.985   5.084  0.5320 -0.1787  0.7565
  547MOL0     C75376   0.644   0.845   5.110  0.7230 -0.2079  0.0082
  547MOL0     C75377   0.754   1.033   4.962  1.2833  0.6229  1.1117
  547MOL0     C75378   0.793   0.957   4.834 -0.2213 -0.2247  0.2030
  547MOL0     O75379   0.728   0.833   4.811  0.5099 -0.1209  0.6180
  547MOL0     C75380   0.760   0.760   4.690 -0.1968  0.6101  0.1805
  547MOL0     C75381   0.710   0.800   4.574  0.4927 -0.3830  0.0256
  547MOL0     C75382   0.726   0.727   4.452 -0.6155 -0.8885 -0.4450
  547MOL0     C75383   0.812   0.615   4.448 -0.2496  0.1498 -0.2678
  547MOL0     O75384   0.821   0.528   4.338  0.7158  0.1234 -0.5324
  547MOL0     C75385   0.755   0.562   4.210 -0.1111  0.1637 -0.1085
  547MOL0     C75386   0.742   0.427   4.142  0.8672 -0.0750 -0.3184
  547MOL0     C75387   0.660   0.426   4.020  0.3465 -0.0098 -0.3458
  547MOL0     C75388   0.630   0.285   3.981 -0.6894  0.1859 -0.1258
  547MOL0     C75389   0.583   0.273   3.835  1.1839  0.1366 -1.0708
  547MOL0     C75390   0.476   0.165   3.817  0.1205 -0.0389  0.8414
  547MOL0     C75391   0.511   0.086   3.686 -0.4221  0.4577 -0.0653
  547MOL0     C75392   0.423  -0.040   3.672 -0.3377 -0.2588  0.5473
  547MOL0    Cl75393   0.477  -0.147   3.539  0.3060 -0.0241  0.4217
  547MOL0     C75394   0.871   0.576   4.573  0.3221  0.0825  0.2212
  547MOL0     C75395   0.856   0.660   4.698 -1.1352 -0.7610 -0.7498
  547MOL0     O75396   0.857   1.018   4.747  0.0347  0.6978  0.8286
  547MOL0     C75397   0.789   1.170   4.967 -1.4044 -0.5765  1.6222
  547MOL0     C75398   0.772   1.249   5.078  1.5505  1.4052 -0.2626
  547MOL0     N75399   0.830   0.895   5.790 -0.4991  0.4249 -0.9358
  547MOL0     N75400   0.747   0.898   5.887 -0.3597  1.2247 -0.4583
  547MOL0     C75401   1.347   0.632   6.380  0.5404 -1.2004 -0.7950
  547MOL0     C75402   1.484   0.636   6.345  0.1998  0.5638  0.0470
  547MOL0     C75403   1.928   0.649   6.318 -0.6615 -0.2444  0.8021
  547MOL0     C75404   2.029   0.555   6.330 -0.2960  0.1512 -0.6646
  547MOL0     C75405   2.169   0.585   6.317 -0.1750 -0.0181  0.2104
  547MOL0     C75406   2.193   0.717   6.282 -1.2412 -0.8902 -0.9479
  547MOL0     O75407   2.327   0.746   6.266 -0.9882 -0.0117 -0.4035
  547MOL0     C75408   2.392   0.762   6.394  0.6235 -0.7660 -0.5313
  547MOL0     C75409   2.525   0.833   6.377 -0.1639 -0.1651 -0.1683
  547MOL0     C75410   2.572   0.891   6.516  0.0424  0.7374  0.6995
  547MOL0     C75411   2.646   0.795   6.607 -0.2551 -0.1282  0.4863
  547MOL0     C75412   2.782   0.776   6.555 -0.2192 -0.5045 -0.3063
  547MOL0     C75413   2.891   0.770   6.508 -0.9312  0.0298 -0.1306
  547MOL0     C75414   2.099   0.818   6.272  0.5238  0.1123 -0.3976
  547MOL0     C75415   1.961   0.784   6.279 -0.0782  0.0887  0.9247
  547MOL0     C75416   1.862   0.886   6.214 -0.2140  0.1236  1.2045
  547MOL0     H75417   1.605   0.607   6.665 -0.7277 -1.1303  0.2450
  547MOL0     H75418   1.363   0.641   6.711 -2.2902 -3.0057 -0.6508
  547MOL0     H75419   1.044   0.636   6.402  0.7280 -0.5367 -0.5653
  547MOL0     H75420   1.123   0.794   6.462 -0.7373  1.0037  2.8976
  547MOL0     H75421   0.915   0.614   6.601 -0.4128 -0.1688 -4.5302
  547MOL0     H75422   0.996   0.734   6.684  1.2048  1.0023 -0.2836
  547MOL0     H75423   0.772   0.806   6.606 -0.2320 -0.0476 -0.5940
  547MOL0     H75424   0.895   0.898   6.506 -0.0333 -0.4450  0.7370
  547MOL0     H75425   0.846   0.706   6.331  1.5933  0.1155  2.0298
  547MOL0     H75426   0.702   0.685   6.434 -1.1409  1.6497 -0.5904
  547MOL0     H75427   0.655   0.942   6.398  1.7255  2.4967 -1.8913
  547MOL0     H75428   0.640   0.823   6.260 -0.9647 -0.2527  0.1293
  547MOL0     H75429   0.892   0.974   6.303 -0.4181  1.0679 -0.0770
  547MOL0     H75430   0.847   0.892   6.160  2.2021 -1.2984  2.1220
  547MOL0     H75431   0.819   1.158   6.189  0.4596 -0.4531 -0.0159
  547MOL0     H75432   0.669   1.117   6.269 -0.2581 -5.1240  2.5278
  547MOL0     H75433   0.589   0.976   6.063  0.5081  0.1230  2.5436
  547MOL0     H75434   0.610   1.150   6.025 -0.4128 -1.2297 -2.7638
  547MOL0     H75435   0.871   1.200   5.906  0.6929  0.5242 -1.9565
  547MOL0     H75436   0.995   0.968   5.583  4.8718  0.7073  0.4943
  547MOL0     H75437   1.080   1.075   5.696  0.1219  2.5911  0.4441
  547MOL0     H75438   0.928   1.263   5.631  0.0899  0.9330 -1.6830
  547MOL0     H75439   1.038   1.211   5.510 -0.8425  0.3185 -0.4646
  547MOL0     H75440   0.847   1.079   5.415  3.1994  0.7576  0.0599
  547MOL0     H75441   0.738   1.137   5.542  0.0501  1.5781  0.2439
  547MOL0     H75442   0.776   1.380   5.455 -2.4876  0.9213 -1.2662
  547MOL0     H75443   0.891   1.311   5.334  0.4381 -0.9104  0.1965
  547MOL0     H75444   0.616   1.040   5.289 -0.9028 -1.6879 -1.4967
  547MOL0     H75445   0.693   0.782   5.036 -1.9456 -0.5281 -1.6422
  547MOL0     H75446   0.540   0.850   5.074  0.5534 -2.8710 -0.0690
  547MOL0     H75447   0.647   0.819   5.217  1.9977  1.5490  0.4350
  547MOL0     H75448   0.652   0.890   4.559 -0.6000 -0.6839  2.1414
  547MOL0     H75449   0.679   0.769   4.364 -0.0180  1.8475  0.4119
  547MOL0     H75450   0.655   0.606   4.215 -0.8497 -1.5478  1.1952
  547MOL0     H75451   0.819   0.630   4.153 -0.6694  0.4669 -0.3895
  547MOL0     H75452   0.839   0.387   4.110  1.8870  1.2378  0.9505
  547MOL0     H75453   0.696   0.361   4.216 -1.8421 -1.0684 -2.7272
  547MOL0     H75454   0.724   0.474   3.945 -0.4131  0.4491 -0.7132
  547MOL0     H75455   0.565   0.480   4.026 -1.3209 -2.8551  1.1892
  547MOL0     H75456   0.557   0.240   4.048  0.7033 -3.4229 -0.8397
  547MOL0     H75457   0.728   0.238   3.976 -0.5079  0.3788  1.2749
  547MOL0     H75458   0.527   0.364   3.811 -1.0010 -0.5287  1.0825
  547MOL0     H75459   0.669   0.262   3.770  1.6162  2.2767 -0.9362
  547MOL0     H75460   0.379   0.216   3.815  1.3428  2.5289 -2.0308
  547MOL0     H75461   0.491   0.090   3.895  1.9213 -4.4325 -3.2571
  547MOL0     H75462   0.615   0.049   3.691 -1.2182 -1.8867  3.4966
  547MOL0     H75463   0.504   0.154   3.601 -2.7461  2.1661  1.3953
  547MOL0     H75464   0.322   0.000   3.655  0.3457  1.1642 -0.4193
  547MOL0     H75465   0.442  -0.093   3.765  0.1985 -2.9448 -0.9978
  547MOL0     H75466   0.932   0.487   4.578  2.6681  1.3874 -2.2982
  547MOL0     H75467   0.902   0.629   4.791 -0.5743 -0.7723 -1.0280
  547MOL0     H75468   0.824   1.225   4.880 -1.6790 -1.2157  1.1007
  547MOL0     H75469   0.817   1.347   5.070  0.0755  2.0264 -1.8520
  547MOL0     H75470   1.271   0.621   6.303 -0.0582  3.4186 -1.1723
  547MOL0     H75471   1.502   0.616   6.240 -3.4141 -2.1317 -0.2211
  547MOL0     H75472   2.000   0.452   6.349  2.0749 -0.7526 -1.6274
  547MOL0     H75473   2.244   0.509   6.334  0.9559  0.9977 -0.1377
  547MOL0     H75474   2.333   0.820   6.466  1.9630 -1.2218  0.9821
  547MOL0     H75475   2.403   0.675   6.459 -2.0612 -0.2359  0.7700
  547MOL0     H75476   2.493   0.923   6.324 -1.1575 -0.5945 -0.3108
  547MOL0     H75477   2.605   0.777   6.327  2.3420  1.3240  1.8901
  547MOL0     H75478   2.644   0.969   6.489  0.0952  0.1790 -0.8931
  547MOL0     H75479   2.488   0.925   6.577 -1.8364 -4.6483  1.6390
  547MOL0     H75480   2.597   0.698   6.612  0.2795 -0.4723 -0.6935
  547MOL0     H75481   2.649   0.831   6.711  2.2084 -0.1314  0.4705
  547MOL0     H75482   2.989   0.764   6.466 -0.1392 -2.0870  1.7857
  547MOL0     H75483   2.136   0.912   6.232  0.5719  0.3459  0.1907
  547MOL0     H75484   1.921   0.976   6.194 -1.6161  0.4833 -1.9006
  547MOL0     H75485   1.811   0.845   6.127  1.4094 -0.0509  0.2940
  547MOL0     H75486   1.786   0.908   6.290 -1.2512  0.5498  0.0706
  548MOL0     O75487   1.585   0.339   2.209  0.3044 -0.2441 -0.4655
  548MOL0     C75488   1.495   0.313   2.287  0.0285 -0.8089  0.4545
  548MOL0     O75489   1.369   0.293   2.257  0.2909 -0.1180  0.4802
  548MOL0     C75490   1.316   0.294   2.127  0.5721 -0.1964  0.2194
  548MOL0     C75491   1.225   0.192   2.091  0.2391 -0.8224 -0.6366
  548MOL0     C75492   1.173   0.182   1.962 -0.3013 -0.1257 -0.2140
  548MOL0     C75493   1.207   0.277   1.861  1.1036 -0.0170 -0.6553
  548MOL0     O75494   1.157   0.260   1.728  0.3381  0.1089 -0.5334
  548MOL0     C75495   1.130   0.378   1.650 -0.9197 -0.9118 -0.2116
  548MOL0     C75496   0.989   0.360   1.604  0.5381 -0.4255 -0.4230
  548MOL0     C75497   0.881   0.396   1.709 -0.3266 -0.2707  0.6012
  548MOL0     C75498   0.742   0.372   1.631  0.2542 -0.0907  0.3970
  548MOL0     C75499   0.625   0.451   1.692 -0.1029 -0.1397 -0.9966
  548MOL0     C75500   0.488   0.416   1.636  0.0303 -0.5660  0.7653
  548MOL0     C75501   0.433   0.276   1.661 -0.4643 -0.9900 -0.6064
  548MOL0     C75502   0.286   0.276   1.658  0.1194 -0.9701  0.2093
  548MOL0     N75503   0.219   0.153   1.693  0.0400  0.6657  0.9878
  548MOL0     C75504   0.173   0.118   1.817 -0.7931  0.5352 -0.1327
  548MOL0     C75505   0.124  -0.002   1.793 -0.4217  0.6284 -0.0678
  548MOL0     C75506   0.085  -0.088   1.911 -0.1482 -0.3966 -0.0302
  548MOL0     C75507   0.200  -0.174   1.964  1.0542  0.3394  0.0722
  548MOL0     C75508   0.249  -0.264   1.847  0.8066 -0.3665  0.0599
  548MOL0     C75509   0.362  -0.362   1.865 -0.1192  0.0449  0.9610
  548MOL0     O75510   0.473  -0.295   1.928  0.7809 -0.4766  0.7277
  548MOL0     C75511   0.527  -0.360   2.031 -0.7418  0.9348 -0.0511
  548MOL0     C75512   0.563  -0.488   2.032  0.4200  1.4683 -0.2606
  548MOL0     C75513   0.621  -0.546   2.143 -0.1662 -0.4466 -0.0665
  548MOL0     C75514   0.669  -0.688   2.122 -0.7853 -0.8925  0.3342
  548MOL0     C75515   0.658  -0.474   2.262 -0.4939 -0.4017 -0.4415
  548MOL0     C75516   0.729  -0.535   2.384  0.4990 -0.6208  1.1219
  548MOL0     O75517   0.708  -0.666   2.420  0.7368  0.5107  0.1495
  548MOL0     C75518   0.765  -0.715   2.535 -0.2996  0.1564  0.1250
  548MOL0     C75519   0.825  -0.843   2.529 -0.0171  0.2775  0.0708
  548MOL0     C75520   0.875  -0.914   2.635 -0.1570  0.4682 -0.2599
  548MOL0     C75521   0.880  -0.848   2.766  0.0850 -0.8080 -1.1486
  548MOL0     O75522   0.944  -0.889   2.878 -0.3560  0.1182  0.4504
  548MOL0     C75523   1.031  -1.009   2.867 -0.5508 -0.0010  0.1218
  548MOL0     C75524   0.970  -1.150   2.870  0.1405 -0.3023 -0.5639
  548MOL0     C75525   1.073  -1.255   2.896  0.0318  0.8747 -0.1715
  548MOL0     C75526   1.034  -1.396   2.860  0.5452 -1.3053 -0.0450
  548MOL0     C75527   1.083  -1.458   2.731  0.0487  0.6539  0.4244
  548MOL0     C75528   1.101  -1.613   2.746  0.0746  0.0383 -0.5923
  548MOL0     C75529   1.188  -1.656   2.627 -0.0648 -1.2951  0.2542
  548MOL0     C75530   1.230  -1.805   2.639 -0.0264 -0.1088  0.7345
  548MOL0    Cl75531   1.323  -1.829   2.498  0.2836 -0.1229 -0.0825
  548MOL0     C75532   0.816  -0.716   2.768  0.3528 -0.2447 -0.0859
  548MOL0     C75533   0.755  -0.657   2.654 -0.0365  0.3739  0.1581
  548MOL0     O75534   0.812  -0.461   2.440 -0.3231  0.4174  0.3619
  548MOL0     C75535   0.615  -0.340   2.251 -0.1505  0.2101  0.4330
  548MOL0     C75536   0.550  -0.282   2.148 -0.4423  0.2352  1.1964
  548MOL0     N75537   0.117  -0.038   1.656 -0.6587 -0.5190 -0.5519
  548MOL0     N75538   0.168   0.067   1.597  0.2960  0.3556 -1.2374
  548MOL0     C75539   1.291   0.385   1.898 -0.2203  0.6018 -0.0929
  548MOL0     C75540   1.344   0.390   2.032 -0.6006 -0.1235  0.3193
  548MOL0     C75541   1.532   0.319   2.422 -0.1022 -0.9475 -0.3844
  548MOL0     C75542   1.496   0.432   2.497 -1.2736 -0.2531  0.7332
  548MOL0     C75543   1.547   0.452   2.615 -0.1637 -0.2483 -0.2818
  548MOL0     C75544   1.633   0.363   2.688 -0.6370 -1.0670 -0.3530
  548MOL0     O75545   1.647   0.394   2.821 -0.4766 -0.4813 -0.6511
  548MOL0     C75546   1.734   0.318   2.906  0.1040  0.2506 -1.0100
  548MOL0     C75547   1.753   0.361   3.045  0.5719 -0.1871 -0.1434
  548MOL0     C75548   1.887   0.298   3.102 -0.5498  0.7136  0.0820
  548MOL0     C75549   1.924   0.328   3.250  0.8763 -0.2924  0.0909
  548MOL0     C75550   1.980   0.461   3.266  0.1027 -0.2874  0.7207
  548MOL0     C75551   2.025   0.576   3.275  0.2801 -0.1912 -1.1060
  548MOL0     C75552   1.670   0.246   2.623  0.0053  0.0636  1.1859
  548MOL0     C75553   1.618   0.220   2.488 -0.2768  0.4287  0.6519
  548MOL0     C75554   1.641   0.097   2.408  0.1591  0.1054 -0.6588
  548MOL0     H75555   1.200   0.116   2.164  0.9483 -1.2692 -0.8431
  548MOL0     H75556   1.104   0.106   1.928  0.9583 -1.0043 -0.9237
  548MOL0     H75557   1.196   0.376   1.563  1.0108 -1.5986  1.1815
  548MOL0     H75558   1.150   0.469   1.707  0.8332 -2.4446  1.8078
  548MOL0     H75559   0.984   0.433   1.522 -1.7175 -0.2986 -0.2201
  548MOL0     H75560   0.968   0.260   1.566  1.4801 -0.6715 -0.3287
  548MOL0     H75561   0.888   0.326   1.793  3.0685 -0.9258 -0.0509
  548MOL0     H75562   0.891   0.494   1.756 -2.0365 -0.4020  1.2941
  548MOL0     H75563   0.763   0.407   1.530 -0.6785  1.0162  0.5629
  548MOL0     H75564   0.730   0.264   1.628  0.5529 -0.1339  0.6844
  548MOL0     H75565   0.640   0.558   1.679 -0.2496 -0.1777 -1.5036
  548MOL0     H75566   0.625   0.427   1.799  0.3899 -2.2889 -1.4239
  548MOL0     H75567   0.422   0.494   1.674  0.0633  1.8886 -3.5630
  548MOL0     H75568   0.485   0.434   1.528 -0.8327  1.2185  1.0424
  548MOL0     H75569   0.464   0.233   1.757 -0.1885 -0.3516 -0.3970
  548MOL0     H75570   0.484   0.208   1.592 -0.9439 -1.8512 -0.1271
  548MOL0     H75571   0.250   0.358   1.721  1.6590  0.4809 -0.7456
  548MOL0     H75572   0.253   0.303   1.558  4.2363 -0.5186 -1.2353
  548MOL0     H75573   0.184   0.169   1.913  0.8766 -0.8121  0.4434
  548MOL0     H75574   0.002  -0.137   1.858 -0.3937 -0.2152  0.1844
  548MOL0     H75575   0.041  -0.029   1.991 -0.2387 -1.1061  0.4500
  548MOL0     H75576   0.272  -0.099   1.997 -0.7462  2.6990 -1.0948
  548MOL0     H75577   0.165  -0.238   2.046  2.5444  1.1587  1.4143
  548MOL0     H75578   0.165  -0.310   1.793  1.4311 -0.4296 -0.8759
  548MOL0     H75579   0.282  -0.192   1.773 -1.4094  0.1730 -0.4664
  548MOL0     H75580   0.321  -0.441   1.929 -0.1549 -1.2938 -0.6433
  548MOL0     H75581   0.397  -0.422   1.780  2.3830 -1.3482  2.8518
  548MOL0     H75582   0.552  -0.541   1.938  1.9754 -0.3708  0.5230
  548MOL0     H75583   0.617  -0.731   2.035 -0.7004  0.6513 -0.5091
  548MOL0     H75584   0.643  -0.761   2.200  0.9732 -3.1666 -1.0750
  548MOL0     H75585   0.777  -0.704   2.115 -0.4376  1.0455 -6.2782
  548MOL0     H75586   0.825  -0.899   2.436 -3.3530 -2.2751  1.3892
  548MOL0     H75587   0.918  -1.013   2.623 -0.2583  0.6412 -2.3777
  548MOL0     H75588   1.103  -1.000   2.784  0.9725  1.3896  1.5231
  548MOL0     H75589   1.102  -1.006   2.951 -2.0570 -3.3928  1.6789
  548MOL0     H75590   0.898  -1.174   2.949  1.2798 -4.7836 -0.5967
  548MOL0     H75591   0.928  -1.173   2.772  0.0065  0.5653 -0.7191
  548MOL0     H75592   1.105  -1.249   3.001  0.3085  5.3031 -0.2895
  548MOL0     H75593   1.165  -1.233   2.840  0.9188 -0.1895  0.8038
  548MOL0     H75594   0.927  -1.391   2.841  1.0362 -0.5562 -3.0156
  548MOL0     H75595   1.061  -1.463   2.943  0.8384  0.7422  1.6132
  548MOL0     H75596   1.013  -1.440   2.648 -3.0899 -1.6942  2.3181
  548MOL0     H75597   1.180  -1.418   2.702 -0.7896  2.1096 -0.5048
  548MOL0     H75598   1.005  -1.665   2.750 -0.2107  0.4358 -1.8852
  548MOL0     H75599   1.142  -1.639   2.845 -0.1116  1.8578 -0.0077
  548MOL0     H75600   1.270  -1.586   2.614  0.3985 -1.5201  1.8204
  548MOL0     H75601   1.125  -1.640   2.539  1.1768  0.6597 -0.3431
  548MOL0     H75602   1.143  -1.871   2.638 -2.0005  2.3629 -0.8553
  548MOL0     H75603   1.286  -1.841   2.726  0.5426  2.4568  1.5077
  548MOL0     H75604   0.811  -0.664   2.864  1.7001  1.4558 -0.8787
  548MOL0     H75605   0.707  -0.564   2.682 -0.2138  0.6566 -1.0536
  548MOL0     H75606   0.607  -0.280   2.341 -1.5145  0.6210  0.0625
  548MOL0     H75607   0.517  -0.179   2.150  0.0540  0.3964  2.4949
  548MOL0     H75608   1.311   0.464   1.827 -1.3274 -1.1029 -2.4048
  548MOL0     H75609   1.416   0.471   2.041 -0.8564  0.4727 -2.2620
  548MOL0     H75610   1.422   0.498   2.454 -2.6997 -0.1572  3.1374
  548MOL0     H75611   1.511   0.538   2.670 -3.0350 -0.7138 -1.2772
  548MOL0     H75612   1.699   0.214   2.906  1.6296 -0.3149  0.6763
  548MOL0     H75613   1.827   0.321   2.848 -1.2265  0.4873 -3.2951
  548MOL0     H75614   1.677   0.337   3.120  0.6492  1.6441  0.5803
  548MOL0     H75615   1.755   0.470   3.052  1.2781 -0.2183  0.2081
  548MOL0     H75616   1.885   0.188   3.097 -0.3241  0.6288  1.3352
  548MOL0     H75617   1.969   0.335   3.040 -2.0496  0.8015 -1.9469
  548MOL0     H75618   2.005   0.264   3.284  0.3856 -2.3155 -2.1958
  548MOL0     H75619   1.835   0.322   3.313 -0.6645  1.6208 -1.7164
  548MOL0     H75620   2.065   0.675   3.277 -0.8806  0.3015  1.2022
  548MOL0     H75621   1.723   0.172   2.682 -0.9297 -3.7000 -2.2543
  548MOL0     H75622   1.682   0.100   2.307 -0.6568  1.6085 -0.9705
  548MOL0     H75623   1.713   0.025   2.449 -2.4728 -1.4027  1.6855
  548MOL0     H75624   1.547   0.040   2.411  2.2045 -3.6222  2.3536
  549MOL0     O75625   2.881  11.151   0.952  0.9691 -0.3544  0.3450
  549MOL0     C75626   2.945  11.044   0.954  0.6150 -0.8699 -0.6750
  549MOL0     O75627   2.888  10.924   0.984  0.8617 -0.6475 -0.1604
  549MOL0     C75628   2.755  10.918   0.965 -0.4789  0.2239  0.3680
  549MOL0     C75629   2.671  10.911   1.076  0.2968  0.1183 -0.2786
  549MOL0     C75630   2.534  10.898   1.060 -0.0699  0.3454  0.8499
  549MOL0     C75631   2.482  10.901   0.925  0.7447 -0.3064 -0.5824
  549MOL0     O75632   2.341  10.908   0.904  1.1107 -0.5847  1.2339
  549MOL0     C75633   2.258  10.845   0.998 -0.4733  0.2266  0.3023
  549MOL0     C75634   2.113  10.840   0.926 -0.5471 -0.1959  0.4065
  549MOL0     C75635   2.008  10.811   1.026  0.5635  0.0827  0.3484
  549MOL0     C75636   1.988  10.943   1.107  0.2672 -0.0808  0.1539
  549MOL0     C75637   1.866  10.912   1.208 -0.6101 -0.6029  0.4584
  549MOL0     C75638   1.725  10.938   1.129 -1.0375  0.2648  0.8705
  549MOL0     C75639   1.617  10.933   1.239  0.5218 -0.0789  0.4845
  549MOL0     C75640   1.478  10.969   1.184 -0.3425 -0.0343  0.3382
  549MOL0     N75641   1.402  11.041   1.293 -0.4528  0.1648  0.1112
  549MOL0     C75642   1.420  11.168   1.340 -0.0795  0.9961 -0.1724
  549MOL0     C75643   1.333  11.194   1.442  0.1356  0.7563 -0.2026
  549MOL0     C75644   1.326  11.310   1.529  0.1813 -0.4838 -0.4027
  549MOL0     C75645   1.416  11.273   1.658 -0.1768 -1.1466  0.3877
  549MOL0     C75646   1.367  11.354   1.781 -0.1820  0.3063  0.4812
  549MOL0     C75647   1.403  11.504   1.777  0.5589  0.4756  0.7348
  549MOL0     O75648   1.530  11.522   1.817  0.1828  0.2116 -0.3579
  549MOL0     C75649   1.580  11.646   1.792  0.6590  0.0889  0.0171
  549MOL0     C75650   1.569  11.721   1.670  0.1276  0.7756 -0.3093
  549MOL0     C75651   1.637  11.844   1.657  0.6516 -0.1924  0.7521
  549MOL0     C75652   1.640  11.909   1.521 -0.4803  0.2888  0.3420
  549MOL0     C75653   1.693  11.915   1.769  0.1658 -0.5777 -0.4956
  549MOL0     C75654   1.747  12.053   1.777  0.6460 -0.4268  0.6668
  549MOL0     O75655   1.735  12.105   1.897  0.3854  0.0550  0.9387
  549MOL0     C75656   1.735  12.243   1.914  0.2198 -0.4986 -0.4074
  549MOL0     C75657   1.845  12.319   1.897 -0.5793 -0.6376 -1.0527
  549MOL0     C75658   1.851  12.457   1.917  0.1724  0.9438 -0.1818
  549MOL0     C75659   1.733  12.526   1.960 -0.4664 -0.1292  0.1460
  549MOL0     O75660   1.740  12.659   1.995 -0.2664  0.7247  0.3945
  549MOL0     C75661   1.775  12.746   1.884 -1.1629  0.3817  0.2828
  549MOL0     C75662   1.665  12.846   1.901  0.3452  0.8972 -0.0533
  549MOL0     C75663   1.669  12.972   1.803  0.1795 -0.5849  0.7010
  549MOL0     C75664   1.579  13.083   1.874  0.4666  0.7064  0.1606
  549MOL0     C75665   1.552  13.194   1.767 -0.6132 -0.4624  0.8646
  549MOL0     C75666   1.494  13.326   1.822 -0.6819 -0.3469  1.2068
  549MOL0     C75667   1.390  13.312   1.930 -0.0873 -0.0155  0.5238
  549MOL0     C75668   1.314  13.439   1.976  0.2140 -0.5006  0.3357
  549MOL0    Cl75669   1.223  13.498   1.827  0.0433 -0.1898  0.6455
  549MOL0     C75670   1.613  12.451   1.970 -0.6609  0.5168  0.1729
  549MOL0     C75671   1.615  12.313   1.947 -0.2467  0.3672  0.1390
  549MOL0     O75672   1.813  12.097   1.681 -0.6836  0.3282 -0.1830
  549MOL0     C75673   1.686  11.837   1.892 -0.1126  0.4137  0.5370
  549MOL0     C75674   1.643  11.706   1.901  1.4832  0.8829 -0.3472
  549MOL0     N75675   1.256  11.080   1.459  0.3895 -0.9605  0.2276
  549MOL0     N75676   1.309  10.988   1.374  0.0358 -0.5666 -0.0727
  549MOL0     C75677   2.571  10.883   0.810 -0.3752  0.3325  0.8550
  549MOL0     C75678   2.704  10.901   0.836 -0.4030 -0.0058  0.3250
  549MOL0     C75679   3.093  11.043   0.917 -0.3994  0.1923  0.6526
  549MOL0     C75680   3.158  11.152   0.855  0.2478  0.1653  1.1075
  549MOL0     C75681   3.299  11.143   0.815 -0.0360  0.8892  0.2291
  549MOL0     C75682   3.372  11.033   0.846 -1.3339 -0.4544  0.7790
  549MOL0     O75683   3.488  11.000   0.786  0.1694  0.1744 -0.0132
  549MOL0     C75684   3.571  11.093   0.708 -0.1050 -0.9749 -0.4155
  549MOL0     C75685   3.525  11.095   0.562 -0.0084 -0.1904  0.1834
  549MOL0     C75686   3.538  11.234   0.506 -0.6861 -0.2511  0.0859
  549MOL0     C75687   3.495  11.233   0.359 -1.0665  0.0335  0.1115
  549MOL0     C75688   3.484  11.361   0.297 -0.2459 -0.1438 -0.7508
  549MOL0     C75689   3.477  11.470   0.275  0.4328 -0.6525  0.3640
  549MOL0     C75690   3.303  10.928   0.909 -0.9565  0.4992  0.4226
  549MOL0     C75691   3.180  10.933   0.957  0.6247  0.5399  0.6193
  549MOL0     C75692   3.129  10.822   1.061  0.5305  0.2632  0.2148
  549MOL0     H75693   2.715  10.919   1.175 -0.4268  0.4405  0.0192
  549MOL0     H75694   2.476  10.922   1.148 -0.5426  3.1021 -0.0781
  549MOL0     H75695   2.263  10.909   1.086 -4.6075  4.0108 -1.7575
  549MOL0     H75696   2.296  10.746   1.024 -0.6868 -0.0486 -0.3934
  549MOL0     H75697   2.093  10.942   0.892 -0.3420  0.2600  1.6116
  549MOL0     H75698   2.107  10.771   0.841 -3.4402 -2.2485  2.1503
  549MOL0     H75699   1.918  10.783   0.970 -0.4529  2.8998  0.4344
  549MOL0     H75700   2.034  10.725   1.089  0.8236 -0.4041 -0.3982
  549MOL0     H75701   2.078  10.970   1.162 -0.9761 -0.0994  2.3098
  549MOL0     H75702   1.956  11.018   1.034 -1.2595 -0.3569  0.5036
  549MOL0     H75703   1.877  10.989   1.285  0.0512  1.4402 -1.5585
  549MOL0     H75704   1.871  10.809   1.242 -0.3350 -0.6241  0.3513
  549MOL0     H75705   1.731  11.033   1.077  4.9781 -2.2534 -4.4149
  549MOL0     H75706   1.710  10.856   1.058 -0.3050  1.8136 -1.1834
  549MOL0     H75707   1.654  10.993   1.323  1.6392 -0.6190  0.3921
  549MOL0     H75708   1.610  10.829   1.273  1.7017 -1.5683 -3.3016
  549MOL0     H75709   1.483  11.035   1.097  2.5411  0.8861  1.0873
  549MOL0     H75710   1.424  10.882   1.146 -1.8589  1.3787 -0.8698
  549MOL0     H75711   1.502  11.232   1.309 -0.9572  3.3072  1.8988
  549MOL0     H75712   1.224  11.331   1.560  0.7260  2.0574 -0.1643
  549MOL0     H75713   1.363  11.394   1.469  2.8741 -0.5534  1.0032
  549MOL0     H75714   1.424  11.165   1.674  1.3191 -1.2142 -0.5847
  549MOL0     H75715   1.514  11.316   1.631 -1.6139  4.1874  2.3413
  549MOL0     H75716   1.258  11.352   1.792 -0.4512  1.6686 -1.3885
  549MOL0     H75717   1.418  11.323   1.872  1.3146  2.0568  0.3019
  549MOL0     H75718   1.396  11.552   1.679  0.1991  1.7085  1.3427
  549MOL0     H75719   1.331  11.564   1.834  0.1406 -0.5841  1.3431
  549MOL0     H75720   1.513  11.683   1.585 -1.0068  0.2582  0.6410
  549MOL0     H75721   1.747  11.924   1.503 -0.2141 -0.0462  1.5363
  549MOL0     H75722   1.585  12.003   1.519  1.2210  1.3143 -0.1547
  549MOL0     H75723   1.614  11.840   1.440 -1.4350  2.0578 -0.9367
  549MOL0     H75724   1.932  12.269   1.856 -1.2545 -2.2988 -0.5606
  549MOL0     H75725   1.952  12.498   1.906  0.9069  0.3401  3.1722
  549MOL0     H75726   1.878  12.783   1.892  1.4593 -4.8800 -2.9853
  549MOL0     H75727   1.781  12.698   1.785 -2.0883 -3.6345  1.9661
  549MOL0     H75728   1.571  12.792   1.895  0.1135  1.4336 -3.1425
  549MOL0     H75729   1.680  12.885   2.002 -0.1453  2.7860 -0.6486
  549MOL0     H75730   1.630  12.963   1.701  2.2532 -0.5691 -0.1444
  549MOL0     H75731   1.770  13.010   1.786  1.3186 -3.9543 -1.0713
  549MOL0     H75732   1.625  13.122   1.965 -1.1689  0.8092  0.9826
  549MOL0     H75733   1.480  13.049   1.907  0.1991  0.1658 -1.0934
  549MOL0     H75734   1.646  13.223   1.719 -1.8312  1.9531 -0.2497
  549MOL0     H75735   1.484  13.163   1.688 -0.6767  2.1412 -0.1982
  549MOL0     H75736   1.451  13.370   1.731 -0.9873 -2.9669 -0.0010
  549MOL0     H75737   1.584  13.379   1.855 -0.2623 -1.3928  1.7923
  549MOL0     H75738   1.432  13.267   2.021 -0.3341  1.4223  1.3892
  549MOL0     H75739   1.320  13.235   1.896  2.0797 -1.4251 -1.0314
  549MOL0     H75740   1.392  13.511   2.001  0.9255 -0.5641 -1.5463
  549MOL0     H75741   1.256  13.408   2.064  0.3402  0.0690  0.6227
  549MOL0     H75742   1.523  12.504   2.001 -1.4467 -1.5968  1.7549
  549MOL0     H75743   1.528  12.250   1.966 -0.6037  0.9667  0.5204
  549MOL0     H75744   1.722  11.891   1.979  0.4234  0.0888  0.5181
  549MOL0     H75745   1.631  11.661   1.999  0.3047 -1.7640 -1.6042
  549MOL0     H75746   2.533  10.876   0.709  0.2739 -3.3417  0.7190
  549MOL0     H75747   2.771  10.907   0.751  0.2392  1.0372  0.8830
  549MOL0     H75748   3.095  11.235   0.822  1.3234  1.6811  2.7025
  549MOL0     H75749   3.331  11.213   0.739 -1.7956  1.9993  0.4456
  549MOL0     H75750   3.571  11.194   0.751  2.6908 -0.1222 -2.1629
  549MOL0     H75751   3.675  11.059   0.707 -0.7588 -3.0656 -1.3703
  549MOL0     H75752   3.425  11.055   0.544 -0.0470  0.9155 -2.6035
  549MOL0     H75753   3.603  11.038   0.511 -1.4483  2.1873 -5.3949
  549MOL0     H75754   3.478  11.294   0.575 -0.0460  0.5301 -0.0352
  549MOL0     H75755   3.644  11.260   0.500 -1.0947  1.5580  0.1680
  549MOL0     H75756   3.393  11.194   0.352 -0.2962 -2.3226  1.1151
  549MOL0     H75757   3.566  11.183   0.293 -2.4907 -0.1190 -1.3860
  549MOL0     H75758   3.470  11.575   0.256 -4.3533 -0.8003  0.1548
  549MOL0     H75759   3.365  10.844   0.939  0.8951  1.4927 -0.4247
  549MOL0     H75760   3.065  10.858   1.142 -4.5271 -0.4623 -3.0178
  549MOL0     H75761   3.061  10.752   1.012  1.8050  0.4810 -2.0170
  549MOL0     H75762   3.218  10.769   1.096  0.1844 -0.7620 -0.4068
  550MOL0     O75763  10.534  11.342   1.419 -0.1362 -0.1277  0.8084
  550MOL0     C75764  10.468  11.359   1.521  0.0559  0.0859  0.6318
  550MOL0     O75765  10.470  11.280   1.624 -0.2740  0.0687 -0.0396
  550MOL0     C75766  10.466  11.150   1.604 -0.2285 -0.2070 -0.5283
  550MOL0     C75767  10.440  11.071   1.490  0.2604  0.3168 -0.7788
  550MOL0     C75768  10.444  10.926   1.496  0.1508  0.9215  0.4335
  550MOL0     C75769  10.482  10.858   1.614 -0.7152 -0.4606 -0.9617
  550MOL0     O75770  10.501  10.723   1.609  0.4497  0.5737 -0.7987
  550MOL0     C75771  10.626  10.663   1.549  0.1573 -1.1678  0.3787
  550MOL0     C75772  10.768  10.708   1.596  0.6447  0.4991 -0.2331
  550MOL0     C75773  10.795  10.644   1.732  0.9394 -0.3590 -0.3438
  550MOL0     C75774  10.844  10.493   1.722 -0.2910  0.5175 -0.3871
  550MOL0     C75775  10.899  10.441   1.859  0.5681  0.3880  0.5408
  550MOL0     C75776  10.985  10.317   1.824  0.6278 -0.4492  0.4085
  550MOL0     C75777  11.082  10.278   1.934 -0.2389 -0.4170 -0.9425
  550MOL0     C75778  11.019  10.197   2.050  0.0101  0.2752 -0.7054
  550MOL0     N75779  11.014  10.045   2.017 -0.0191  0.6056 -0.9806
  550MOL0     C75780  11.098   9.942   2.068 -0.0783  0.1214  0.0148
  550MOL0     C75781  11.057   9.834   1.995  0.4572  0.7978  0.7807
  550MOL0     C75782  11.124   9.702   2.018  0.4538  0.3536 -0.5712
  550MOL0     C75783  11.239   9.664   1.922 -0.7637  0.1020 -0.6347
  550MOL0     C75784  11.192   9.678   1.774 -0.3991 -0.1510 -0.4399
  550MOL0     C75785  11.317   9.649   1.685  0.1525  0.6261  0.6364
  550MOL0     O75786  11.357   9.503   1.711 -0.2297 -0.2037 -0.2171
  550MOL0     C75787  11.464   9.463   1.629  0.4349 -0.3383 -0.6336
  550MOL0     C75788  11.552   9.551   1.562 -0.1292 -0.0157  0.6335
  550MOL0     C75789  11.643   9.501   1.468 -0.2097  0.9592  0.2363
  550MOL0     C75790  11.716   9.573   1.360 -0.6668  0.1039 -0.6107
  550MOL0     C75791  11.648   9.357   1.460  0.1223 -0.0090 -0.2015
  550MOL0     C75792  11.725   9.281   1.353  1.2153  0.2222 -0.3312
  550MOL0     O75793  11.662   9.270   1.234 -0.5585  0.9042  0.0440
  550MOL0     C75794  11.647   9.152   1.170  1.3556 -0.1207 -0.1370
  550MOL0     C75795  11.707   9.030   1.220  1.1175 -0.2388  0.1919
  550MOL0     C75796  11.694   8.917   1.146 -0.5068  0.0471 -0.2200
  550MOL0     C75797  11.632   8.909   1.022 -0.1323  0.1599  1.0146
  550MOL0     O75798  11.624   8.790   0.950 -0.0316  0.1179  0.2409
  550MOL0     C75799  11.693   8.673   0.995  0.4698 -0.7080 -0.1777
  550MOL0     C75800  11.689   8.554   0.900  0.5350 -0.7631  0.3358
  550MOL0     C75801  11.549   8.525   0.838  0.3334  0.5495  0.4809
  550MOL0     C75802  11.493   8.615   0.733  0.0677  0.9796 -1.1967
  550MOL0     C75803  11.380   8.541   0.650  0.3743 -0.0538  0.9107
  550MOL0     C75804  11.349   8.629   0.532  0.2104 -0.3875  0.3615
  550MOL0     C75805  11.279   8.566   0.414 -0.7943  0.2022  0.6773
  550MOL0     C75806  11.128   8.546   0.437  0.2635  0.5259 -0.9802
  550MOL0    Cl75807  11.033   8.686   0.472 -0.1691 -0.4609  0.7094
  550MOL0     C75808  11.555   9.020   0.974  0.2775  0.2606  0.0401
  550MOL0     C75809  11.565   9.141   1.052 -0.5659  0.0881  0.0837
  550MOL0     O75810  11.840   9.251   1.376 -0.3299 -0.1138 -0.0819
  550MOL0     C75811  11.565   9.272   1.535  0.6669  0.5014  0.4883
  550MOL0     C75812  11.474   9.327   1.622 -0.1054 -0.3450 -0.0063
  550MOL0     N75813  10.948   9.858   1.931  0.3517  0.5648 -0.0311
  550MOL0     N75814  10.925   9.985   1.942 -0.2436 -0.2279  0.3282
  550MOL0     C75815  10.504  10.936   1.730  0.0980  0.5120 -0.4938
  550MOL0     C75816  10.492  11.072   1.724 -0.4422 -0.4060 -0.0082
  550MOL0     C75817  10.417  11.490   1.544 -0.1330 -0.4252 -0.4497
  550MOL0     C75818  10.416  11.536   1.677  0.7225  0.6693 -0.4418
  550MOL0     C75819  10.373  11.663   1.701  0.3363 -0.0815 -0.2981
  550MOL0     C75820  10.328  11.755   1.597  0.5498 -0.9457 -1.0765
  550MOL0     O75821  10.272  11.886   1.635  0.0295 -0.2582 -0.4375
  550MOL0     C75822  10.139  11.880   1.673 -1.2036  1.0309 -0.1627
  550MOL0     C75823  10.050  11.882   1.559  0.0494  0.5723 -0.1748
  550MOL0     C75824  10.076  11.973   1.429  0.2812 -0.1909  0.2434
  550MOL0     C75825  10.046  12.113   1.470 -0.5666  0.2477  1.2961
  550MOL0     C75826  10.077  12.213   1.367  0.2536 -0.6286 -0.5622
  550MOL0     C75827  10.118  12.284   1.278 -0.1077  0.7667  1.2928
  550MOL0     C75828  10.350  11.714   1.462  0.2007 -0.4795 -0.6013
  550MOL0     C75829  10.385  11.584   1.438  0.5586  0.1508 -0.0906
  550MOL0     C75830  10.382  11.541   1.293  0.1193 -0.9830  1.0195
  550MOL0     H75831  10.397  11.125   1.406  0.2666 -0.2325 -1.1458
  550MOL0     H75832  10.432  10.861   1.410  1.2109  2.2474 -0.7594
  550MOL0     H75833  10.625  10.697   1.444  1.5590 -1.9477  0.0840
  550MOL0     H75834  10.617  10.555   1.557 -1.5798 -1.1953 -1.1614
  550MOL0     H75835  10.840  10.677   1.519  1.4272  3.6077 -0.9210
  550MOL0     H75836  10.792  10.814   1.604 -0.8645  0.8093  0.5527
  550MOL0     H75837  10.863  10.710   1.785  0.5219 -0.4499  0.3153
  550MOL0     H75838  10.704  10.638   1.793  1.2418  0.6354  0.2282
  550MOL0     H75839  10.763  10.425   1.693  2.1480 -2.8743  0.1090
  550MOL0     H75840  10.927  10.471   1.655  1.1974 -1.9381  2.0396
  550MOL0     H75841  10.812  10.419   1.921  1.1587  0.0134  1.2553
  550MOL0     H75842  10.965  10.520   1.896 -0.1667  1.7748 -0.9955
  550MOL0     H75843  10.921  10.230   1.804  1.3591 -0.8253 -0.3466
  550MOL0     H75844  11.044  10.321   1.732 -0.7414 -3.9373 -0.7895
  550MOL0     H75845  11.107  10.374   1.979 -0.0599  0.7018 -3.2701
  550MOL0     H75846  11.164  10.219   1.891  1.1164 -0.5822  1.6799
  550MOL0     H75847  11.092  10.209   2.131 -1.0332  4.0739 -0.1525
  550MOL0     H75848  10.921  10.231   2.085  0.9456  1.2147  1.1560
  550MOL0     H75849  11.186   9.944   2.131  0.7514  0.2027 -1.1282
  550MOL0     H75850  11.046   9.628   1.996 -1.5545  1.2807  2.7139
  550MOL0     H75851  11.141   9.691   2.125 -3.1671  0.5437  0.1443
  550MOL0     H75852  11.337   9.708   1.944 -0.5061 -0.8548  0.2310
  550MOL0     H75853  11.262   9.558   1.935 -1.0094  0.1598  0.3362
  550MOL0     H75854  11.108   9.608   1.766  0.8276 -2.1926  2.7055
  550MOL0     H75855  11.157   9.778   1.746 -1.4636 -0.5172 -0.4726
  550MOL0     H75856  11.284   9.660   1.582 -0.9494 -0.9693  0.7845
  550MOL0     H75857  11.402   9.708   1.719 -0.4245  0.9128  1.6283
  550MOL0     H75858  11.549   9.660   1.568  0.8645  0.1864 -1.5697
  550MOL0     H75859  11.702   9.681   1.376 -1.0734  0.0199 -0.4139
  550MOL0     H75860  11.669   9.560   1.262 -5.6614  2.8638  1.0464
  550MOL0     H75861  11.822   9.543   1.359 -0.4432  0.8439 -0.3406
  550MOL0     H75862  11.764   9.029   1.312  0.6203  0.3298  0.5083
  550MOL0     H75863  11.745   8.837   1.199 -0.8497  0.3465  0.5862
  550MOL0     H75864  11.799   8.690   1.014  0.5409 -1.4725  0.1345
  550MOL0     H75865  11.637   8.641   1.083 -0.1500  0.6865 -0.0302
  550MOL0     H75866  11.746   8.585   0.812 -1.8465 -0.4172 -1.1727
  550MOL0     H75867  11.728   8.462   0.945 -1.4763 -0.9464  1.8354
  550MOL0     H75868  11.478   8.535   0.921  1.7270  0.5973  1.7010
  550MOL0     H75869  11.552   8.419   0.810 -0.1369 -0.1408  2.7561
  550MOL0     H75870  11.582   8.630   0.670 -0.6565  2.7279 -1.8664
  550MOL0     H75871  11.458   8.712   0.768 -0.3673  0.7715 -1.0513
  550MOL0     H75872  11.410   8.438   0.627 -0.3670  0.4796 -3.2500
  550MOL0     H75873  11.288   8.535   0.709 -0.4866 -0.8918 -0.4671
  550MOL0     H75874  11.432   8.688   0.493 -0.3478 -0.2480 -0.6500
  550MOL0     H75875  11.282   8.702   0.578 -1.8328 -3.2765  2.3238
  550MOL0     H75876  11.324   8.470   0.390 -2.4418 -0.8741  1.6683
  550MOL0     H75877  11.279   8.632   0.327 -1.0635 -1.2954 -0.4838
  550MOL0     H75878  11.131   8.468   0.514  2.9928  1.4018 -0.0814
  550MOL0     H75879  11.085   8.496   0.349  0.6072  0.9061 -1.3641
  550MOL0     H75880  11.500   9.007   0.882  1.8469  2.7788 -1.3559
  550MOL0     H75881  11.509   9.220   1.004 -1.8877 -0.4385  0.7104
  550MOL0     H75882  11.576   9.166   1.516 -1.1233  0.1879  1.0352
  550MOL0     H75883  11.417   9.264   1.690  0.8584 -0.9872  0.2294
  550MOL0     H75884  10.528  10.889   1.825 -2.6338  0.7843  0.4441
  550MOL0     H75885  10.496  11.123   1.820 -1.7273 -0.7389  0.2434
  550MOL0     H75886  10.455  11.469   1.754  2.9432  0.8671 -1.3244
  550MOL0     H75887  10.373  11.709   1.799  1.4134  0.0728 -0.3661
  550MOL0     H75888  10.114  11.797   1.740 -0.7725  1.9041  1.1177
  550MOL0     H75889  10.117  11.972   1.728 -3.1593  2.4466 -3.0614
  550MOL0     H75890   9.952  11.913   1.597 -1.4526 -0.2106 -3.1158
  550MOL0     H75891  10.041  11.780   1.519 -0.4317 -0.6325  2.7214
  550MOL0     H75892  10.183  11.962   1.411  0.5967  0.0467  1.8835
  550MOL0     H75893  10.021  11.936   1.342 -0.7947  2.5187 -0.3319
  550MOL0     H75894  10.104  12.134   1.561  3.0583 -3.1352  0.0662
  550MOL0     H75895   9.943  12.122   1.504 -0.1627 -0.5552  2.8396
  550MOL0     H75896  10.138  12.352   1.199 -1.2904  3.4048  3.1154
  550MOL0     H75897  10.311  11.787   1.391 -0.1054 -0.0728 -0.0292
  550MOL0     H75898  10.331  11.447   1.268  2.9118 -2.2808 -0.2474
  550MOL0     H75899  10.332  11.620   1.237  0.4629  1.2359  3.6545
  550MOL0     H75900  10.485  11.535   1.257  0.0546  1.5260  0.2756
  551MOL0     O75901   4.657   5.264   5.762  0.2888  0.6853  0.2065
  551MOL0     C75902   4.660   5.387   5.747  0.1959  0.0123  0.2177
  551MOL0     O75903   4.685   5.453   5.628  0.8148  0.4268 -0.0022
  551MOL0     C75904   4.703   5.377   5.516 -0.2178 -0.5402 -0.1382
  551MOL0     C75905   4.832   5.320   5.493  0.3228  0.4054 -0.4444
  551MOL0     C75906   4.839   5.256   5.377  0.2979 -0.5646  0.0534
  551MOL0     C75907   4.733   5.235   5.283 -0.7064  0.5873  0.2801
  551MOL0     O75908   4.737   5.180   5.157 -0.2907 -0.5182 -1.1311
  551MOL0     C75909   4.847   5.101   5.119 -0.4460 -0.7474 -0.2237
  551MOL0     C75910   4.850   5.047   4.977  0.0008  0.0774  0.1318
  551MOL0     C75911   4.864   5.161   4.878  0.3192  0.8376 -0.5207
  551MOL0     C75912   4.859   5.099   4.732  0.3313  0.2720 -1.0993
  551MOL0     C75913   4.898   5.208   4.628 -0.2294 -0.3859  0.3616
  551MOL0     C75914   4.867   5.171   4.485  0.3203  0.5396 -0.0878
  551MOL0     C75915   4.716   5.181   4.446  0.0099  0.3003  0.0440
  551MOL0     C75916   4.695   5.179   4.297 -0.3461  1.4638 -0.0842
  551MOL0     N75917   4.751   5.052   4.247  0.6141 -0.1592  0.1302
  551MOL0     C75918   4.719   4.923   4.272 -0.6180  0.6360  0.0310
  551MOL0     C75919   4.798   4.854   4.193  0.7107 -0.3088  0.3083
  551MOL0     C75920   4.819   4.708   4.189  0.2594 -0.2113  0.1138
  551MOL0     C75921   4.954   4.655   4.269  0.0558 -0.0413 -0.1539
  551MOL0     C75922   4.939   4.671   4.422 -0.4539  0.2380  1.6056
  551MOL0     C75923   5.069   4.599   4.474  0.3480 -0.8234  0.1397
  551MOL0     O75924   5.079   4.629   4.613 -0.6324 -0.5818  0.0940
  551MOL0     C75925   5.186   4.566   4.660 -0.3539  0.5975  1.9578
  551MOL0     C75926   5.190   4.435   4.696  0.2269  0.2000  0.0449
  551MOL0     C75927   5.290   4.380   4.775  0.1462  0.9596  0.4609
  551MOL0     C75928   5.294   4.235   4.816  0.2807  0.0702  0.1047
  551MOL0     C75929   5.402   4.455   4.793  0.7249 -1.0092  0.9489
  551MOL0     C75930   5.508   4.412   4.876 -0.1502 -0.9525  0.6582
  551MOL0     O75931   5.494   4.409   5.007 -0.2166  0.1287 -0.0132
  551MOL0     C75932   5.616   4.407   5.082  0.8276  0.9405  0.3052
  551MOL0     C75933   5.649   4.293   5.149 -0.3814  0.5422 -0.1782
  551MOL0     C75934   5.769   4.271   5.217 -0.1582 -0.1807  0.6846
  551MOL0     C75935   5.863   4.375   5.214 -0.8064 -0.1708  0.4793
  551MOL0     O75936   5.972   4.369   5.291  0.5494 -1.1773 -0.4810
  551MOL0     C75937   6.072   4.272   5.250  0.0274  0.3640 -0.3450
  551MOL0     C75938   6.090   4.167   5.356 -0.4814 -0.1465 -0.2534
  551MOL0     C75939   6.098   4.228   5.502  0.4795 -0.6828  0.0362
  551MOL0     C75940   6.147   4.124   5.602  0.6445 -1.0477  0.0051
  551MOL0     C75941   6.293   4.084   5.583  0.0305 -0.3953  0.6085
  551MOL0     C75942   6.366   4.060   5.723  0.6445 -0.4506  0.6938
  551MOL0     C75943   6.512   4.025   5.706  0.0754  0.3340  0.0845
  551MOL0     C75944   6.576   4.001   5.841  0.0234 -0.5392 -0.2445
  551MOL0    Cl75945   6.523   3.853   5.909 -0.2352 -0.1681 -0.4539
  551MOL0     C75946   5.831   4.500   5.153  0.0811  1.0476 -0.1142
  551MOL0     C75947   5.709   4.512   5.087 -0.1447  0.0881  1.1309
  551MOL0     O75948   5.618   4.395   4.821  0.5142 -0.0359  0.3197
  551MOL0     C75949   5.408   4.578   4.736 -0.4934  0.1361 -0.9154
  551MOL0     C75950   5.298   4.641   4.681  0.0209  0.5102  0.5982
  551MOL0     N75951   4.894   4.932   4.135 -1.2310 -0.2384 -0.1361
  551MOL0     N75952   4.865   5.053   4.173 -0.5338  0.6790  0.7959
  551MOL0     C75953   4.610   5.297   5.309 -0.0653  0.1099 -0.4375
  551MOL0     C75954   4.595   5.359   5.428 -0.3635 -0.6387  0.0552
  551MOL0     C75955   4.651   5.480   5.863  1.0614  0.5359 -0.3586
  551MOL0     C75956   4.736   5.591   5.874  0.8401 -0.4646 -0.7382
  551MOL0     C75957   4.742   5.678   5.986  0.1660  0.4200 -0.2428
  551MOL0     C75958   4.647   5.664   6.083 -0.2188  0.1481 -0.2784
  551MOL0     O75959   4.635   5.747   6.190  0.4394  0.1194  0.0079
  551MOL0     C75960   4.755   5.822   6.231 -0.1397  0.4909 -1.7045
  551MOL0     C75961   4.730   5.862   6.379  0.9224  0.0985  0.0601
  551MOL0     C75962   4.647   5.999   6.381 -0.9547  0.5395  0.5578
  551MOL0     C75963   4.634   6.037   6.529  0.2482 -0.5281  0.0946
  551MOL0     C75964   4.588   6.179   6.538 -0.0316  0.6717  0.1767
  551MOL0     C75965   4.557   6.289   6.522 -0.2490 -1.0642 -0.2039
  551MOL0     C75966   4.557   5.558   6.070 -0.4755 -0.0820 -0.2863
  551MOL0     C75967   4.551   5.466   5.966  0.4470  0.3713 -0.5497
  551MOL0     C75968   4.457   5.346   5.974 -0.6019  0.5555 -0.0874
  551MOL0     H75969   4.911   5.320   5.568 -1.4029  2.2046  1.5322
  551MOL0     H75970   4.937   5.218   5.350 -0.7914 -1.8242 -2.3465
  551MOL0     H75971   4.851   5.020   5.192 -1.0192  0.9877  1.8272
  551MOL0     H75972   4.942   5.153   5.131  0.1208 -1.8474  0.1593
  551MOL0     H75973   4.926   4.972   4.952 -3.4123 -2.6560 -3.3446
  551MOL0     H75974   4.757   4.989   4.970 -1.5899  2.0891  2.6805
  551MOL0     H75975   4.794   5.243   4.897  0.4870  0.9700 -0.4722
  551MOL0     H75976   4.963   5.205   4.894  0.6999 -1.0941  4.0020
  551MOL0     H75977   4.932   5.018   4.723  0.1699  0.0928 -0.7820
  551MOL0     H75978   4.758   5.069   4.701 -0.1614 -0.5175  1.1303
  551MOL0     H75979   4.997   5.249   4.645 -0.1294 -0.0700 -0.9142
  551MOL0     H75980   4.830   5.293   4.641 -1.4908 -0.6983 -3.1208
  551MOL0     H75981   4.926   5.249   4.435  1.2102  0.1091  0.2620
  551MOL0     H75982   4.908   5.074   4.456 -2.7438 -0.7946 -0.3333
  551MOL0     H75983   4.661   5.267   4.484 -1.0550 -0.4914  0.3485
  551MOL0     H75984   4.660   5.094   4.481  0.6633  0.7368  2.3480
  551MOL0     H75985   4.591   5.210   4.281 -0.3702  3.2859  2.9631
  551MOL0     H75986   4.749   5.251   4.236 -0.5845 -1.6528 -4.4816
  551MOL0     H75987   4.650   4.895   4.351 -1.3069  1.0978 -0.3987
  551MOL0     H75988   4.807   4.672   4.087 -1.9262 -1.4651  0.7400
  551MOL0     H75989   4.734   4.663   4.242 -0.2555  1.6360  0.9559
  551MOL0     H75990   4.988   4.555   4.238 -3.2070 -0.4631 -2.9797
  551MOL0     H75991   5.034   4.723   4.238 -0.3565 -0.1973 -1.6290
  551MOL0     H75992   4.932   4.774   4.459  0.4531 -0.0379  2.5999
  551MOL0     H75993   4.851   4.611   4.449 -0.3951 -0.4674  0.2793
  551MOL0     H75994   5.062   4.492   4.456  0.1159 -0.7054 -0.4792
  551MOL0     H75995   5.156   4.636   4.419 -2.7092  0.2366 -4.6003
  551MOL0     H75996   5.103   4.375   4.670  0.1264  1.4063 -2.7683
  551MOL0     H75997   5.239   4.176   4.742  0.1032  1.1590 -0.6544
  551MOL0     H75998   5.243   4.211   4.910  4.3597 -1.4579  2.1628
  551MOL0     H75999   5.394   4.192   4.829  0.5382  0.5756 -0.2030
  551MOL0     H76000   5.582   4.208   5.148  1.9870 -1.4374 -2.3973
  551MOL0     H76001   5.788   4.185   5.279 -2.9825 -1.0843  0.4232
  551MOL0     H76002   6.038   4.204   5.171 -0.7114 -1.4523  1.4384
  551MOL0     H76003   6.166   4.318   5.221 -0.4351  0.3333 -2.0022
  551MOL0     H76004   6.009   4.094   5.361 -1.1531  0.6024  0.0941
  551MOL0     H76005   6.181   4.112   5.332  0.5454  0.1858  2.4240
  551MOL0     H76006   6.006   4.277   5.538  2.6526  2.8620  1.3213
  551MOL0     H76007   6.171   4.309   5.489 -3.0880  2.6301 -1.6313
  551MOL0     H76008   6.074   4.043   5.603 -2.1373  1.2428 -1.4268
  551MOL0     H76009   6.140   4.165   5.703 -0.1328  0.6895 -0.7087
  551MOL0     H76010   6.311   3.998   5.518  2.2090 -0.0341  0.6574
  551MOL0     H76011   6.343   4.165   5.530  1.4180 -1.0115  0.9189
  551MOL0     H76012   6.313   3.973   5.765 -1.0933 -0.8892 -2.1585
  551MOL0     H76013   6.367   4.140   5.797 -3.9856  1.2537 -0.7370
  551MOL0     H76014   6.555   4.113   5.658  2.1112 -0.4686  0.3361
  551MOL0     H76015   6.527   3.938   5.640  0.5023 -0.5598  1.3135
  551MOL0     H76016   6.561   4.086   5.909  0.5435 -0.2255 -0.5141
  551MOL0     H76017   6.683   3.991   5.819  0.1227 -0.6058  0.2535
  551MOL0     H76018   5.894   4.588   5.140  0.4081  0.5291 -2.6079
  551MOL0     H76019   5.686   4.597   5.024 -5.0623 -0.9567  1.0980
  551MOL0     H76020   5.505   4.628   4.738  1.2352 -2.9705 -1.0253
  551MOL0     H76021   5.308   4.743   4.647 -2.4311  0.8567  0.7343
  551MOL0     H76022   4.523   5.281   5.247  0.2051  2.1764 -1.4371
  551MOL0     H76023   4.494   5.394   5.443  0.9400  2.1712  3.8778
  551MOL0     H76024   4.796   5.615   5.788  2.6519  3.0392  1.3085
  551MOL0     H76025   4.815   5.758   5.988  1.1306 -0.3798 -1.5495
  551MOL0     H76026   4.846   5.763   6.216 -1.1213 -1.0140 -1.9962
  551MOL0     H76027   4.771   5.911   6.170 -3.3285  1.4784 -1.2971
  551MOL0     H76028   4.829   5.874   6.423 -0.2272  2.0687  2.3173
  551MOL0     H76029   4.671   5.786   6.430 -1.2550  2.1222  0.7395
  551MOL0     H76030   4.699   6.075   6.323  2.7355  0.6179  3.5422
  551MOL0     H76031   4.550   5.973   6.337 -0.0302 -0.2098 -1.0716
  551MOL0     H76032   4.722   6.007   6.587  1.7441 -0.1591 -1.9074
  551MOL0     H76033   4.561   5.967   6.572 -2.4620  1.2680 -1.2740
  551MOL0     H76034   4.520   6.389   6.510 -0.0680 -0.8399  0.9963
  551MOL0     H76035   4.491   5.561   6.156  1.5788 -2.8262  1.5952
  551MOL0     H76036   4.358   5.369   5.933 -1.5001 -1.3057  0.9335
  551MOL0     H76037   4.486   5.263   5.910 -0.5573  1.2549 -0.9976
  551MOL0     H76038   4.450   5.302   6.074 -1.3245  4.3110  1.7216
  552MOL0     O76039   4.723  10.849   4.751 -0.4379 -0.2674 -0.0359
  552MOL0     C76040   4.693  10.963   4.802 -0.1190  0.4508 -0.5734
  552MOL0     O76041   4.785  11.058   4.844  0.4636 -1.2485  0.4198
  552MOL0     C76042   4.913  11.015   4.870  0.4574 -0.7191  0.5512
  552MOL0     C76043   4.973  11.058   4.981  0.8155 -0.3719  0.3152
  552MOL0     C76044   5.111  11.038   4.990  0.1480 -1.0168  0.3159
  552MOL0     C76045   5.187  10.962   4.892 -0.3878  1.1153 -0.3135
  552MOL0     O76046   5.321  10.962   4.922 -0.0086  0.1471  0.3283
  552MOL0     C76047   5.406  10.897   4.820 -1.0003 -0.2720 -1.1211
  552MOL0     C76048   5.555  10.928   4.852 -0.0408  1.3729 -1.2194
  552MOL0     C76049   5.606  10.864   4.980 -0.8175  0.2951  0.1338
  552MOL0     C76050   5.757  10.906   5.005  0.6885  1.0284 -0.5887
  552MOL0     C76051   5.825  10.858   5.139  0.0491 -0.0062 -0.2826
  552MOL0     C76052   5.970  10.912   5.162  0.2457 -0.2368  0.0835
  552MOL0     C76053   6.077  10.825   5.089 -0.5002  0.4674 -0.3215
  552MOL0     C76054   6.210  10.899   5.108  0.5893 -0.4105  0.2584
  552MOL0     N76055   6.237  11.005   5.015 -0.1779 -0.0081  0.0555
  552MOL0     C76056   6.289  10.982   4.889  0.4747  0.1237 -0.0327
  552MOL0     C76057   6.304  11.109   4.839 -0.0057  0.1931  0.1596
  552MOL0     C76058   6.364  11.125   4.708  0.0800  0.2378  0.4704
  552MOL0     C76059   6.453  11.245   4.682  0.0519 -0.1701 -0.0727
  552MOL0     C76060   6.541  11.291   4.796  0.3491 -0.3184  0.6153
  552MOL0     C76061   6.488  11.423   4.858 -0.2908  0.0561 -0.7134
  552MOL0     O76062   6.529  11.521   4.766 -0.1703 -0.0647  0.3015
  552MOL0     C76063   6.444  11.602   4.703 -0.0220 -0.8529  0.1912
  552MOL0     C76064   6.495  11.663   4.584 -0.0370 -0.5438 -0.5370
  552MOL0     C76065   6.418  11.750   4.501 -0.2552 -0.3124  0.3739
  552MOL0     C76066   6.482  11.790   4.367  0.7274 -1.1540 -0.3186
  552MOL0     C76067   6.288  11.782   4.551  0.6341  0.4536  0.5696
  552MOL0     C76068   6.203  11.889   4.485  0.6116  1.1852  0.9011
  552MOL0     O76069   6.092  11.919   4.552 -0.7140 -1.1669  0.7372
  552MOL0     C76070   5.985  11.968   4.489  0.1879  0.1099 -0.6763
  552MOL0     C76071   5.920  11.908   4.380  0.2011  0.5381 -0.9752
  552MOL0     C76072   5.824  11.979   4.307 -0.1015  0.5301  0.2831
  552MOL0     C76073   5.804  12.118   4.334  0.8353  1.5154 -0.1162
  552MOL0     O76074   5.707  12.185   4.252 -0.5576 -0.9258  0.0853
  552MOL0     C76075   5.664  12.328   4.281 -0.1690  0.3487  0.7181
  552MOL0     C76076   5.509  12.318   4.274  0.0294 -0.5338  0.2705
  552MOL0     C76077   5.443  12.446   4.256 -0.6587  0.9871  0.0057
  552MOL0     C76078   5.450  12.502   4.117  0.3249 -0.4493  0.2139
  552MOL0     C76079   5.346  12.612   4.085 -0.3877  0.6755 -0.4729
  552MOL0     C76080   5.397  12.748   4.141 -0.5371  0.0732  0.3081
  552MOL0     C76081   5.323  12.817   4.257 -0.0770  0.3608  0.2006
  552MOL0     C76082   5.359  12.964   4.259  1.0722 -0.4092  1.1112
  552MOL0    Cl76083   5.274  13.064   4.128  0.1326  0.2392  0.0718
  552MOL0     C76084   5.869  12.178   4.440  0.0711 -0.0549 -0.8652
  552MOL0     C76085   5.950  12.100   4.522 -0.4916 -0.6196  0.6024
  552MOL0     O76086   6.224  11.915   4.371  0.3792  0.3963  0.3256
  552MOL0     C76087   6.235  11.716   4.658 -0.5929  0.2784  0.8388
  552MOL0     C76088   6.312  11.627   4.726 -0.8679 -0.7187  0.3446
  552MOL0     N76089   6.254  11.199   4.929 -0.6325  0.0571 -0.1409
  552MOL0     N76090   6.238  11.133   5.040  0.3776 -0.6111 -1.2554
  552MOL0     C76091   5.118  10.913   4.779 -0.0735  0.1248 -0.6787
  552MOL0     C76092   4.983  10.934   4.766 -0.6960 -0.1257 -0.5243
  552MOL0     C76093   4.540  10.989   4.806  0.3861 -1.2675  0.5062
  552MOL0     C76094   4.448  10.913   4.728  0.6943 -0.0762  0.0307
  552MOL0     C76095   4.313  10.941   4.728  0.1765  0.0759  1.0005
  552MOL0     C76096   4.268  11.054   4.790  0.4329 -0.6174  0.6349
  552MOL0     O76097   4.134  11.086   4.783 -0.1036  1.3631 -0.2697
  552MOL0     C76098   4.052  11.039   4.890  0.3683  0.4291 -1.4695
  552MOL0     C76099   3.923  11.119   4.907 -0.6413 -0.1075 -0.9738
  552MOL0     C76100   3.803  11.060   4.839 -0.5846 -0.7248 -0.3017
  552MOL0     C76101   3.797  11.107   4.702 -0.6819 -0.6289 -0.2528
  552MOL0     C76102   3.700  11.023   4.631  0.5135 -0.3196  0.7243
  552MOL0     C76103   3.612  10.977   4.565 -0.2361 -0.0013 -0.4766
  552MOL0     C76104   4.354  11.136   4.854  1.4632 -0.5025 -0.4228
  552MOL0     C76105   4.481  11.104   4.863  0.5210 -0.8836  0.2747
  552MOL0     C76106   4.570  11.203   4.943 -0.6599 -0.1655  0.2625
  552MOL0     H76107   4.913  11.106   5.058  2.2499  1.2978  0.4392
  552MOL0     H76108   5.153  11.065   5.086  1.9285 -0.6063 -0.5242
  552MOL0     H76109   5.388  10.921   4.715  2.9768 -0.6150 -2.0418
  552MOL0     H76110   5.389  10.789   4.824 -0.0060 -0.4167 -0.4065
  552MOL0     H76111   5.614  10.882   4.772  1.5366  2.9735 -1.0313
  552MOL0     H76112   5.579  11.034   4.847 -0.4615  1.4324 -2.1352
  552MOL0     H76113   5.540  10.890   5.063  1.7578  4.8006  1.0979
  552MOL0     H76114   5.600  10.755   4.983  1.4545  0.1244  0.9126
  552MOL0     H76115   5.817  10.875   4.919 -1.2531 -1.7777 -1.0444
  552MOL0     H76116   5.766  11.014   4.989  0.4251  0.7946 -2.6524
  552MOL0     H76117   5.824  10.749   5.141 -0.7696 -0.0560 -1.8793
  552MOL0     H76118   5.761  10.901   5.217 -2.1970 -1.0652 -1.4732
  552MOL0     H76119   5.972  11.010   5.113 -2.6993  0.2353  0.6937
  552MOL0     H76120   5.996  10.911   5.268 -1.7804 -0.9965  0.6147
  552MOL0     H76121   6.057  10.817   4.982 -2.2783 -0.7069  0.0668
  552MOL0     H76122   6.074  10.729   5.142  2.1548  0.7135  0.4663
  552MOL0     H76123   6.201  10.958   5.199 -0.1317 -0.6657  0.3551
  552MOL0     H76124   6.297  10.832   5.108  0.6245 -0.3803  1.5900
  552MOL0     H76125   6.321  10.890   4.842  0.6723  0.6910 -1.0289
  552MOL0     H76126   6.282  11.110   4.638  0.0784  2.2128 -0.0181
  552MOL0     H76127   6.430  11.040   4.687 -0.9553 -1.2539  2.8441
  552MOL0     H76128   6.514  11.216   4.596 -1.3676  0.2170 -1.2473
  552MOL0     H76129   6.389  11.330   4.654  0.4666  1.1688  2.7018
  552MOL0     H76130   6.542  11.220   4.879  2.1756 -1.2792 -0.1702
  552MOL0     H76131   6.646  11.312   4.775  1.1041 -2.8622  1.4311
  552MOL0     H76132   6.380  11.414   4.869 -0.0730 -1.7107  0.3205
  552MOL0     H76133   6.536  11.441   4.955 -1.0161 -0.9742 -0.1526
  552MOL0     H76134   6.602  11.660   4.568  0.3257 -1.0592  1.6289
  552MOL0     H76135   6.483  11.899   4.354 -1.3729 -0.6307  2.8346
  552MOL0     H76136   6.415  11.746   4.293 -1.3686  1.6615 -0.2493
  552MOL0     H76137   6.580  11.743   4.350  0.6451 -1.7864  0.8275
  552MOL0     H76138   5.964  11.815   4.347  1.3473  0.7868 -0.1905
  552MOL0     H76139   5.773  11.928   4.226 -1.9439  0.5193  1.3916
  552MOL0     H76140   5.683  12.372   4.380  0.9255  1.7418 -0.0792
  552MOL0     H76141   5.700  12.397   4.205 -5.2140  1.2613 -1.2157
  552MOL0     H76142   5.484  12.250   4.192 -0.1184 -0.4190  0.2203
  552MOL0     H76143   5.472  12.270   4.365 -1.3875  1.9853  1.1014
  552MOL0     H76144   5.493  12.521   4.319  2.6537 -0.4451 -0.7180
  552MOL0     H76145   5.339  12.431   4.286 -0.6181 -1.3497 -0.8651
  552MOL0     H76146   5.436  12.422   4.044  2.5808 -0.2422 -0.5071
  552MOL0     H76147   5.552  12.539   4.104  0.3161 -0.2975  0.5550
  552MOL0     H76148   5.322  12.609   3.978 -2.2645 -0.3059 -0.0754
  552MOL0     H76149   5.252  12.582   4.131 -0.4381 -1.4705 -1.8050
  552MOL0     H76150   5.388  12.818   4.057  2.7511 -0.8563 -1.0081
  552MOL0     H76151   5.505  12.744   4.157 -0.6302 -1.1246  0.7650
  552MOL0     H76152   5.341  12.777   4.357 -2.4282  0.1854  0.6112
  552MOL0     H76153   5.218  12.803   4.230  0.3815 -1.2153 -0.8749
  552MOL0     H76154   5.467  12.969   4.240  0.8511 -1.9517 -0.7948
  552MOL0     H76155   5.339  13.008   4.358 -0.6978  2.4059 -0.3578
  552MOL0     H76156   5.858  12.282   4.470  0.3301  0.5571 -2.7337
  552MOL0     H76157   5.993  12.146   4.610 -0.2949  0.2908  0.0364
  552MOL0     H76158   6.134  11.740   4.688  0.5585  3.9854  2.3600
  552MOL0     H76159   6.256  11.587   4.810 -3.7647 -4.0681 -2.8166
  552MOL0     H76160   5.175  10.873   4.695  0.1431 -0.4464 -0.2682
  552MOL0     H76161   4.964  10.896   4.667  2.6145 -2.8401 -0.3057
  552MOL0     H76162   4.480  10.826   4.671 -0.8260 -0.0692 -0.8816
  552MOL0     H76163   4.235  10.888   4.674 -1.1888  0.5168  2.4726
  552MOL0     H76164   4.034  10.932   4.883  2.1637 -0.0039 -0.0691
  552MOL0     H76165   4.119  11.050   4.976 -1.0453 -3.8820  0.4610
  552MOL0     H76166   3.941  11.225   4.885  2.0462  0.2863  2.2997
  552MOL0     H76167   3.908  11.121   5.015 -2.0877 -0.8657 -1.1357
  552MOL0     H76168   3.809  10.951   4.843  1.6765 -0.7015 -1.4246
  552MOL0     H76169   3.719  11.087   4.904 -0.3148 -2.2761  0.7537
  552MOL0     H76170   3.889  11.106   4.643 -0.0839 -1.3652  0.6655
  552MOL0     H76171   3.767  11.212   4.693  1.1443 -0.0287  0.3477
  552MOL0     H76172   3.534  10.921   4.517 -1.0032  0.9962 -0.4314
  552MOL0     H76173   4.312  11.216   4.915  1.0570 -2.2102  1.6813
  552MOL0     H76174   4.515  11.276   5.004 -2.6458 -0.1067 -1.4677
  552MOL0     H76175   4.634  11.140   5.006 -0.7737  1.0182  1.6122
  552MOL0     H76176   4.636  11.263   4.881 -1.3971  0.6844  0.2827
  553MOL0     O76177   4.717   7.373   1.650  0.5789  0.0450 -0.1962
  553MOL0     C76178   4.782   7.446   1.566 -0.5787 -0.0510 -0.9255
  553MOL0     O76179   4.877   7.543   1.597 -0.1333  0.6603 -0.3110
  553MOL0     C76180   4.855   7.584   1.727 -0.3093 -0.3453  0.6720
  553MOL0     C76181   4.889   7.506   1.837 -0.3975  1.0011 -0.3549
  553MOL0     C76182   4.877   7.553   1.963  0.5693 -0.2861 -0.8888
  553MOL0     C76183   4.830   7.687   1.984  0.4069 -0.5667  0.1062
  553MOL0     O76184   4.843   7.748   2.105 -0.0526  0.2180 -0.3758
  553MOL0     C76185   4.953   7.713   2.191  0.2189 -0.5890 -0.1927
  553MOL0     C76186   4.987   7.829   2.284 -0.2346 -0.3610  0.0012
  553MOL0     C76187   5.037   7.950   2.210  0.1014 -0.2312  0.5540
  553MOL0     C76188   5.183   7.954   2.199 -1.0375  0.3305 -0.5454
  553MOL0     C76189   5.237   8.074   2.112 -0.0082  0.0102 -0.6006
  553MOL0     C76190   5.237   8.215   2.182 -1.0187 -0.5798  0.1112
  553MOL0     C76191   5.294   8.333   2.095 -0.0708 -0.3514 -0.3694
  553MOL0     C76192   5.444   8.328   2.072 -0.5569  0.8222  0.2480
  553MOL0     N76193   5.513   8.363   2.199  0.3053 -0.4980 -0.2995
  553MOL0     C76194   5.543   8.278   2.303  0.9618 -0.4013 -0.8033
  553MOL0     C76195   5.616   8.358   2.397  1.6288  0.1384  0.7598
  553MOL0     C76196   5.658   8.321   2.537  0.0631  0.2960  0.3993
  553MOL0     C76197   5.745   8.422   2.605 -0.0361 -0.3439 -0.1711
  553MOL0     C76198   5.828   8.386   2.722  0.0631  0.5722  0.2180
  553MOL0     C76199   5.767   8.335   2.850 -0.3772  0.4258  0.0075
  553MOL0     O76200   5.701   8.448   2.902 -1.0283 -0.2077 -0.6157
  553MOL0     C76201   5.583   8.426   2.976 -0.1942 -0.3940 -0.8103
  553MOL0     C76202   5.577   8.346   3.084  0.1407 -0.1038 -0.3527
  553MOL0     C76203   5.455   8.307   3.148  0.6627 -0.3756  0.5569
  553MOL0     C76204   5.471   8.221   3.272 -0.0287  0.5804  0.1332
  553MOL0     C76205   5.330   8.370   3.106  0.0340  0.3165 -0.5620
  553MOL0     C76206   5.204   8.347   3.177 -0.1991  0.0112 -0.1892
  553MOL0     O76207   5.183   8.214   3.208  0.0694  0.6418 -1.0712
  553MOL0     C76208   5.076   8.182   3.288  0.3363  0.1813  0.2537
  553MOL0     C76209   4.988   8.271   3.354 -0.2546 -0.1672  0.0337
  553MOL0     C76210   4.876   8.222   3.436  1.2531  0.5561 -0.1042
  553MOL0     C76211   4.862   8.082   3.462  0.0586  0.7920 -0.1204
  553MOL0     O76212   4.755   8.032   3.537 -0.1009  0.4637  0.2046
  553MOL0     C76213   4.721   8.101   3.658 -0.0500  0.5778  0.0534
  553MOL0     C76214   4.659   7.997   3.751  0.4071 -0.0613 -0.5518
  553MOL0     C76215   4.754   7.894   3.811 -0.7429  0.5167 -0.0284
  553MOL0     C76216   4.770   7.768   3.735  0.6639  0.6740  0.1587
  553MOL0     C76217   4.884   7.683   3.786 -0.6536  0.3213 -0.6520
  553MOL0     C76218   5.028   7.738   3.757  0.2124  0.5197 -0.1223
  553MOL0     C76219   5.129   7.633   3.803  0.0833 -0.0037  0.6391
  553MOL0     C76220   5.257   7.657   3.728 -0.7851  0.0120 -0.8227
  553MOL0    Cl76221   5.209   7.596   3.570  0.3024 -0.2463  0.0386
  553MOL0     C76222   4.950   7.994   3.395 -0.5374  0.6872  0.4517
  553MOL0     C76223   5.050   8.043   3.313  0.8316  0.3817  1.2566
  553MOL0     O76224   5.122   8.440   3.184 -0.7183  0.0994 -0.8000
  553MOL0     C76225   5.338   8.467   2.999 -0.0348  0.8661 -0.4278
  553MOL0     C76226   5.465   8.489   2.933  0.3470  0.0238 -0.2349
  553MOL0     N76227   5.619   8.490   2.340  0.2133 -0.6117 -0.1560
  553MOL0     N76228   5.551   8.493   2.223 -0.5273  0.3815 -0.0337
  553MOL0     C76229   4.786   7.766   1.878  0.2573 -0.0741  0.1639
  553MOL0     C76230   4.815   7.714   1.749  0.1971  0.7526  0.2116
  553MOL0     C76231   4.788   7.425   1.420  0.7021 -0.7664  0.5257
  553MOL0     C76232   4.901   7.454   1.343 -0.3976 -0.1120  0.9910
  553MOL0     C76233   4.901   7.446   1.207  0.3404 -0.2932  0.2208
  553MOL0     C76234   4.791   7.400   1.137 -0.8836  0.7289  0.4861
  553MOL0     O76235   4.812   7.399   0.994  0.0010  0.4092 -0.6250
  553MOL0     C76236   4.704   7.381   0.902 -0.2355 -0.9580 -0.2111
  553MOL0     C76237   4.750   7.352   0.765 -0.0990 -0.5023 -0.2002
  553MOL0     C76238   4.645   7.378   0.667 -0.0060  0.4837  0.8478
  553MOL0     C76239   4.694   7.369   0.519 -0.6892 -0.3085  0.5910
  553MOL0     C76240   4.585   7.406   0.430  0.0823  0.5402 -0.1264
  553MOL0     C76241   4.487   7.447   0.379 -0.3518 -0.5408  0.8507
  553MOL0     C76242   4.677   7.371   1.211 -0.6605  0.4779  1.1387
  553MOL0     C76243   4.675   7.390   1.354  1.3235  0.3079  0.1177
  553MOL0     C76244   4.543   7.365   1.426  0.2052 -0.4588 -0.1729
  553MOL0     H76245   4.925   7.404   1.825 -2.8156 -0.5227  3.3388
  553MOL0     H76246   4.928   7.495   2.039  0.2932  0.5487 -0.0514
  553MOL0     H76247   5.039   7.684   2.129  0.4710 -3.8553  1.4605
  553MOL0     H76248   4.911   7.625   2.240  0.6838 -0.3801  0.5914
  553MOL0     H76249   4.894   7.849   2.338  0.7714 -1.6569  2.4115
  553MOL0     H76250   5.064   7.796   2.355 -0.9084 -2.0650 -0.0084
  553MOL0     H76251   4.991   7.957   2.111 -1.8878  0.5202  1.4644
  553MOL0     H76252   5.016   8.034   2.278  1.7496 -1.8855  3.3084
  553MOL0     H76253   5.233   7.960   2.297  1.0951 -3.9167 -1.1568
  553MOL0     H76254   5.209   7.858   2.154  1.6441 -1.6452  4.4242
  553MOL0     H76255   5.178   8.078   2.021  0.8889 -3.9420 -1.5699
  553MOL0     H76256   5.340   8.045   2.087  0.0509  0.7075 -1.1871
  553MOL0     H76257   5.134   8.244   2.206 -0.3789  0.7522  1.4195
  553MOL0     H76258   5.300   8.200   2.270  0.6732  3.0010 -0.3062
  553MOL0     H76259   5.264   8.426   2.145 -2.2072 -0.5689 -1.1654
  553MOL0     H76260   5.238   8.332   2.001  1.2839  1.7608 -1.2826
  553MOL0     H76261   5.472   8.226   2.045  3.0322  1.7693 -0.1331
  553MOL0     H76262   5.484   8.393   1.994  0.8983  0.1301  0.3815
  553MOL0     H76263   5.505   8.178   2.321 -2.4047  1.2193  2.1103
  553MOL0     H76264   5.723   8.234   2.524 -2.0445 -1.3990  0.7606
  553MOL0     H76265   5.572   8.286   2.594 -0.0234 -2.3355 -1.2099
  553MOL0     H76266   5.821   8.448   2.531  1.1281 -0.4307  0.9607
  553MOL0     H76267   5.661   8.489   2.627 -0.6840  0.0349 -3.3321
  553MOL0     H76268   5.895   8.308   2.685 -2.0421 -0.9873 -0.5405
  553MOL0     H76269   5.876   8.482   2.744 -0.5083  0.8279  0.3739
  553MOL0     H76270   5.693   8.256   2.836 -0.0715  0.3701 -1.5265
  553MOL0     H76271   5.848   8.293   2.911  0.6813  1.1647 -0.8377
  553MOL0     H76272   5.672   8.309   3.121  0.5933  1.3234 -0.0146
  553MOL0     H76273   5.410   8.132   3.255 -0.4992  1.2846 -2.2607
  553MOL0     H76274   5.444   8.281   3.359 -1.5551  2.4024 -1.5182
  553MOL0     H76275   5.574   8.186   3.290 -0.1400  1.1324  2.0686
  553MOL0     H76276   5.001   8.379   3.345  1.4312 -0.4898 -2.4436
  553MOL0     H76277   4.812   8.295   3.483  0.7761  0.7055 -0.9670
  553MOL0     H76278   4.806   8.148   3.708  1.1221 -1.1328 -0.2195
  553MOL0     H76279   4.641   8.169   3.627 -1.1148 -0.6602  0.0268
  553MOL0     H76280   4.622   8.049   3.840  4.8529  0.0306  1.4897
  553MOL0     H76281   4.571   7.961   3.697 -0.2360 -0.9629  1.0142
  553MOL0     H76282   4.715   7.876   3.912  0.3838  0.8481  0.4765
  553MOL0     H76283   4.853   7.940   3.806 -0.4518 -0.2414 -2.0482
  553MOL0     H76284   4.819   7.798   3.642  1.6366  0.9508  0.7408
  553MOL0     H76285   4.675   7.715   3.726 -0.1988  2.3813 -1.7693
  553MOL0     H76286   4.879   7.690   3.895 -2.6707  1.4306 -0.7570
  553MOL0     H76287   4.874   7.578   3.758  0.3034 -0.1519  0.7204
  553MOL0     H76288   5.040   7.826   3.822 -3.1949 -0.8492  2.6579
  553MOL0     H76289   5.039   7.758   3.649  3.4899  3.3202  0.5536
  553MOL0     H76290   5.100   7.529   3.786 -0.8209  0.4965 -1.1906
  553MOL0     H76291   5.135   7.641   3.912  3.1462 -0.0240  0.5563
  553MOL0     H76292   5.343   7.603   3.769 -0.3983 -0.5609 -2.3367
  553MOL0     H76293   5.280   7.764   3.724  0.8029 -0.1782  1.3721
  553MOL0     H76294   4.937   7.887   3.404 -1.1023  0.8007  0.9834
  553MOL0     H76295   5.094   7.982   3.235 -2.7467  0.4732 -1.0120
  553MOL0     H76296   5.250   8.526   2.978 -0.8714  0.0033  0.5538
  553MOL0     H76297   5.460   8.545   2.839 -1.1181 -0.1552 -0.2888
  553MOL0     H76298   4.747   7.865   1.899  1.6031  0.3793  0.6466
  553MOL0     H76299   4.816   7.770   1.656 -4.5393  1.7892  0.5246
  553MOL0     H76300   4.989   7.498   1.387  0.1758 -2.0058  1.8626
  553MOL0     H76301   4.986   7.468   1.143 -0.5824  0.7962 -0.6555
  553MOL0     H76302   4.647   7.298   0.946  0.1594 -0.6722  0.8872
  553MOL0     H76303   4.636   7.466   0.897  1.4207  0.3702 -1.0017
  553MOL0     H76304   4.789   7.250   0.756  2.6733  0.2114  1.9615
  553MOL0     H76305   4.839   7.406   0.732 -1.1058  0.3089 -1.6558
  553MOL0     H76306   4.569   7.303   0.687  4.2671 -4.7069 -0.1872
  553MOL0     H76307   4.605   7.480   0.676 -1.1519  0.1527 -0.1900
  553MOL0     H76308   4.713   7.266   0.489 -2.4834 -0.4815 -0.0675
  553MOL0     H76309   4.780   7.436   0.512  0.0995 -0.6822  4.2309
  553MOL0     H76310   4.412   7.486   0.314 -0.3096  1.0263  1.6904
  553MOL0     H76311   4.591   7.355   1.147  0.2032  2.4823 -0.6220
  553MOL0     H76312   4.458   7.366   1.357 -1.9108 -0.1414  2.2750
  553MOL0     H76313   4.552   7.264   1.466  4.0806 -1.2783 -2.5608
  553MOL0     H76314   4.523   7.439   1.504 -0.7696 -0.9844  0.0889
  554MOL0     O76315   9.423   0.078  11.107 -0.2117  0.4292 -0.9015
  554MOL0     C76316   9.464  -0.028  11.062 -0.1116  0.2360  0.7143
  554MOL0     O76317   9.389  -0.120  10.993  0.7558  0.0882 -0.4648
  554MOL0     C76318   9.303  -0.084  10.895  0.1779  0.0968  0.7387
  554MOL0     C76319   9.279   0.045  10.836  0.9211 -0.0270 -0.6991
  554MOL0     C76320   9.202   0.054  10.717  0.6101 -0.0481  1.1663
  554MOL0     C76321   9.134  -0.050  10.657 -0.7916  0.2045  0.2340
  554MOL0     O76322   9.064  -0.027  10.546 -0.5037 -0.8733  0.0688
  554MOL0     C76323   8.976  -0.113  10.478 -0.9715  0.6832 -0.0536
  554MOL0     C76324   9.050  -0.197  10.379  0.4652  0.1463 -0.2464
  554MOL0     C76325   8.960  -0.314  10.315  0.5397  0.0472  0.0102
  554MOL0     C76326   9.035  -0.429  10.239  1.0336 -0.1591  0.2963
  554MOL0     C76327   8.928  -0.538  10.199  0.0077 -0.7027 -0.2034
  554MOL0     C76328   9.011  -0.632  10.114  0.6349 -0.1434 -0.8346
  554MOL0     C76329   8.927  -0.709  10.012 -0.8489  0.7600  0.0061
  554MOL0     C76330   8.899  -0.869  10.044  0.1537 -0.3198 -0.3702
  554MOL0     N76331   8.784  -0.916   9.968  0.2380 -0.8946  0.4584
  554MOL0     C76332   8.793  -0.913   9.825  0.2618 -0.5140 -0.0604
  554MOL0     C76333   8.668  -0.933   9.783 -0.2066  0.9946 -0.7688
  554MOL0     C76334   8.614  -0.939   9.647 -0.4758  0.6359 -0.1044
  554MOL0     C76335   8.507  -0.830   9.611 -0.4562  0.4221 -1.6012
  554MOL0     C76336   8.435  -0.836   9.482 -0.3615 -0.2172  0.3919
  554MOL0     C76337   8.504  -0.765   9.363 -0.8377  0.4717  0.0738
  554MOL0     O76338   8.471  -0.844   9.249 -0.2439  0.6644 -0.8746
  554MOL0     C76339   8.559  -0.951   9.214 -0.4986 -0.4992 -0.3095
  554MOL0     C76340   8.514  -1.027   9.105 -0.6503  0.8190  0.4232
  554MOL0     C76341   8.584  -1.134   9.043  0.3949 -0.3525 -0.1964
  554MOL0     C76342   8.536  -1.194   8.913 -0.2058  0.3440  0.2669
  554MOL0     C76343   8.708  -1.168   9.097 -0.4624 -0.4584 -0.6249
  554MOL0     C76344   8.784  -1.308   9.063  0.5595 -0.2055  0.1081
  554MOL0     O76345   8.710  -1.416   9.020 -0.0765 -0.9261  0.2530
  554MOL0     C76346   8.779  -1.530   8.996 -0.2496  0.2612  0.1335
  554MOL0     C76347   8.753  -1.601   8.882  0.6346 -0.1426 -0.3953
  554MOL0     C76348   8.803  -1.729   8.867  0.4569  0.8831 -0.1039
  554MOL0     C76349   8.870  -1.790   8.966  0.2182 -0.6258 -0.3967
  554MOL0     O76350   8.926  -1.916   8.954  0.2740  0.6378  0.4606
  554MOL0     C76351   8.954  -1.953   8.808 -0.1752  1.5251  0.7899
  554MOL0     C76352   9.016  -2.106   8.814 -0.7566 -0.0081  0.0712
  554MOL0     C76353   8.922  -2.189   8.908 -0.2191 -0.7369 -0.3350
  554MOL0     C76354   8.935  -2.331   8.875  0.6438  0.2069 -0.4819
  554MOL0     C76355   8.848  -2.413   8.972 -0.3175  0.3767  0.0617
  554MOL0     C76356   8.931  -2.488   9.092 -0.1497  0.2391 -0.0338
  554MOL0     C76357   8.857  -2.573   9.192 -0.3540  0.1748  0.0607
  554MOL0     C76358   8.819  -2.711   9.136  0.3317 -0.7593  0.2345
  554MOL0    Cl76359   8.766  -2.821   9.265 -0.3749  0.5875 -0.0995
  554MOL0     C76360   8.891  -1.723   9.086 -0.7352  0.1058  0.5589
  554MOL0     C76361   8.845  -1.592   9.107 -0.2028 -0.0413  0.8474
  554MOL0     O76362   8.908  -1.314   9.097 -0.1590  1.0895 -0.6600
  554MOL0     C76363   8.754  -1.086   9.207  0.0002 -0.0648  0.3069
  554MOL0     C76364   8.682  -0.975   9.263 -0.5410  0.5774 -0.4518
  554MOL0     N76365   8.592  -0.958   9.899  0.4922 -0.1985  0.1428
  554MOL0     N76366   8.659  -0.931  10.010 -0.1737 -0.3481  0.1311
  554MOL0     C76367   9.149  -0.176  10.724  0.1580  0.0877 -0.3413
  554MOL0     C76368   9.234  -0.187  10.839  0.6107 -0.0257 -0.2794
  554MOL0     C76369   9.602  -0.068  11.102  0.2317 -0.0745 -0.0622
  554MOL0     C76370   9.687   0.043  11.119 -0.0716 -0.0143 -0.9370
  554MOL0     C76371   9.819   0.032  11.177 -0.7304  1.1500 -0.4808
  554MOL0     C76372   9.878  -0.097  11.198 -0.1519 -0.2546  0.5083
  554MOL0     O76373  10.001  -0.113  11.257 -0.0616  0.0534 -0.8093
  554MOL0     C76374  10.104  -0.032  11.207  0.4379 -0.1151 -0.0404
  554MOL0     C76375  10.147  -0.084  11.071  0.0191 -1.4912  0.6008
  554MOL0     C76376  10.245   0.022  11.012 -0.9785 -0.1139 -0.8078
  554MOL0     C76377  10.393  -0.021  11.023  0.2573  0.7711  0.7467
  554MOL0     C76378  10.452   0.023  11.153 -1.5143  0.0007 -0.1882
  554MOL0     C76379  10.516   0.055  11.250 -0.9405  0.0985  0.0610
  554MOL0     C76380   9.795  -0.206  11.167  0.8465  0.0122 -0.4732
  554MOL0     C76381   9.661  -0.193  11.115  0.1784  0.0039  0.0386
  554MOL0     C76382   9.585  -0.319  11.080  0.3765  0.3358 -0.0914
  554MOL0     H76383   9.327   0.132  10.879 -1.3734  0.3161  1.3781
  554MOL0     H76384   9.185   0.146  10.662  3.5016 -0.7734 -1.1589
  554MOL0     H76385   8.908  -0.046  10.426 -0.2788  0.8089 -0.8273
  554MOL0     H76386   8.913  -0.171  10.546 -2.1666 -1.2692 -2.6735
  554MOL0     H76387   9.072  -0.121  10.304 -2.1531 -0.3392 -1.6163
  554MOL0     H76388   9.152  -0.227  10.408  0.0250 -1.8307 -0.6218
  554MOL0     H76389   8.908  -0.364  10.398 -0.1708 -2.1655 -1.6826
  554MOL0     H76390   8.877  -0.274  10.255 -0.8075  1.0425  2.3904
  554MOL0     H76391   9.081  -0.381  10.152 -1.7009  1.3433 -0.4518
  554MOL0     H76392   9.114  -0.477  10.297 -0.4754 -1.7349  1.1385
  554MOL0     H76393   8.844  -0.494  10.144  1.5277  0.1617 -1.9503
  554MOL0     H76394   8.883  -0.592  10.283 -0.0307 -0.9171 -0.3598
  554MOL0     H76395   9.086  -0.569  10.065 -0.9725  1.4761 -1.3253
  554MOL0     H76396   9.072  -0.693  10.181 -0.0986  1.5573  1.5208
  554MOL0     H76397   8.986  -0.697   9.921  0.1216  1.3005  0.6961
  554MOL0     H76398   8.827  -0.665   9.998 -0.8865  0.6311 -0.1415
  554MOL0     H76399   8.988  -0.929  10.021 -0.6590 -1.6443 -0.1637
  554MOL0     H76400   8.903  -0.902  10.148 -3.0338 -0.4514 -0.2029
  554MOL0     H76401   8.871  -0.898   9.752  0.2896  3.0683  0.5235
  554MOL0     H76402   8.589  -1.039   9.610  1.6313  0.1607 -0.3819
  554MOL0     H76403   8.707  -0.930   9.590  0.0523 -1.0622  0.4183
  554MOL0     H76404   8.435  -0.830   9.693  0.9248  0.7656 -0.3468
  554MOL0     H76405   8.555  -0.732   9.617 -2.9324  1.6541 -0.3464
  554MOL0     H76406   8.402  -0.938   9.459  2.0938 -1.0978  0.5227
  554MOL0     H76407   8.336  -0.793   9.501 -2.7838 -6.1070  3.9720
  554MOL0     H76408   8.454  -0.670   9.342  0.5355  1.2390  0.1598
  554MOL0     H76409   8.610  -0.753   9.385 -0.2042 -3.2093 -0.2579
  554MOL0     H76410   8.427  -0.989   9.052 -1.2949  0.8490  1.4781
  554MOL0     H76411   8.450  -1.251   8.950 -0.2370  1.0064  1.2527
  554MOL0     H76412   8.602  -1.256   8.852 -1.9567  1.0788 -2.5655
  554MOL0     H76413   8.504  -1.114   8.845  0.6375 -0.0029 -0.5565
  554MOL0     H76414   8.699  -1.540   8.810  1.2420  3.3085  1.8353
  554MOL0     H76415   8.776  -1.773   8.772 -0.8639 -1.4067  1.2530
  554MOL0     H76416   8.857  -1.964   8.759  0.9848 -2.4754 -1.0696
  554MOL0     H76417   9.014  -1.883   8.748 -1.1283 -0.5756 -2.9431
  554MOL0     H76418   9.030  -2.134   8.709  1.4893 -2.0040  0.8239
  554MOL0     H76419   9.120  -2.110   8.847 -0.8249 -0.8813  0.1957
  554MOL0     H76420   8.822  -2.147   8.895  0.1279 -0.1174 -1.1098
  554MOL0     H76421   8.944  -2.172   9.013 -1.3533 -2.2226  0.1779
  554MOL0     H76422   9.031  -2.374   8.903 -0.1408 -1.6005 -0.4324
  554MOL0     H76423   8.915  -2.354   8.770 -0.1869 -0.6247 -0.1461
  554MOL0     H76424   8.760  -2.364   9.016 -0.5246  1.6284 -1.6694
  554MOL0     H76425   8.812  -2.499   8.915  1.0375 -0.7861  0.8993
  554MOL0     H76426   8.985  -2.412   9.148 -0.5100  0.0279  0.6102
  554MOL0     H76427   9.016  -2.546   9.054 -1.5427 -1.0865 -1.3115
  554MOL0     H76428   8.772  -2.515   9.230  0.8653  2.2740 -0.2410
  554MOL0     H76429   8.919  -2.585   9.281 -0.3832 -3.5517 -0.2874
  554MOL0     H76430   8.917  -2.746   9.103  0.4687 -2.0162  1.8584
  554MOL0     H76431   8.743  -2.688   9.061  2.3757  1.0486 -1.4296
  554MOL0     H76432   8.932  -1.774   9.173 -1.9171 -0.0909  1.0164
  554MOL0     H76433   8.847  -1.537   9.200 -1.8021  3.4424 -1.0035
  554MOL0     H76434   8.852  -1.099   9.252 -0.6468 -3.0206  1.0793
  554MOL0     H76435   8.733  -0.932   9.348  2.0500 -1.5299 -0.7750
  554MOL0     H76436   9.099  -0.260  10.677  0.0676 -0.0468 -0.0098
  554MOL0     H76437   9.250  -0.287  10.879 -2.9936 -1.1780 -1.2714
  554MOL0     H76438   9.656   0.146  11.103  1.3175  0.7461  0.9018
  554MOL0     H76439   9.870   0.120  11.216 -1.1268  0.2708  2.1882
  554MOL0     H76440  10.071   0.071  11.198 -1.0772 -0.3998  1.7818
  554MOL0     H76441  10.182  -0.039  11.284 -0.3359 -4.5880  0.6363
  554MOL0     H76442  10.069  -0.104  10.998 -0.1632 -3.7192  1.3244
  554MOL0     H76443  10.188  -0.184  11.089  0.6175 -1.0371  1.9928
  554MOL0     H76444  10.215   0.041  10.909 -1.4508  2.0915 -0.3165
  554MOL0     H76445  10.224   0.114  11.067 -1.8588 -1.6220  1.5363
  554MOL0     H76446  10.448   0.021  10.939 -1.1022  0.8656 -0.1205
  554MOL0     H76447  10.408  -0.129  11.010  2.2737  1.1386 -0.3112
  554MOL0     H76448  10.575   0.104  11.325 -0.4218  0.5474 -0.6301
  554MOL0     H76449   9.843  -0.302  11.185  1.3942  0.4981  0.7896
  554MOL0     H76450   9.484  -0.313  11.120  1.6012 -0.5811  3.5466
  554MOL0     H76451   9.580  -0.328  10.972 -5.0116  0.8566 -0.1455
  554MOL0     H76452   9.635  -0.403  11.129  3.3226  1.6281 -0.6306
  555MOL0     O76453   1.727   7.969   4.817  1.0369 -0.2057 -0.2672
  555MOL0     C76454   1.611   7.995   4.787 -0.6735  0.9037  0.2068
  555MOL0     O76455   1.526   8.051   4.873 -0.2928 -0.3115 -0.3643
  555MOL0     C76456   1.550   8.064   5.012  0.4473 -0.2039  1.3579
  555MOL0     C76457   1.673   8.128   5.051  0.3369  0.0649 -0.6328
  555MOL0     C76458   1.681   8.169   5.189 -0.7090  0.8594 -0.4967
  555MOL0     C76459   1.597   8.122   5.288 -0.2612 -0.8259 -0.6754
  555MOL0     O76460   1.634   8.162   5.411 -0.4643  0.3573 -0.4052
  555MOL0     C76461   1.523   8.193   5.504 -0.0174  0.1313  0.1409
  555MOL0     C76462   1.519   8.346   5.525  0.2316  0.3632 -1.2103
  555MOL0     C76463   1.634   8.413   5.594  0.7125 -0.5718  0.9572
  555MOL0     C76464   1.634   8.566   5.587  0.1021 -0.5062 -0.5267
  555MOL0     C76465   1.748   8.629   5.667 -0.4806  0.3408  0.1884
  555MOL0     C76466   1.704   8.748   5.746 -0.0477  0.0785 -0.3981
  555MOL0     C76467   1.735   8.882   5.667  0.3066  0.5981 -1.1997
  555MOL0     C76468   1.619   8.984   5.657  0.0699 -0.0508 -0.7114
  555MOL0     N76469   1.553   8.994   5.523 -0.3673 -0.3047 -0.1776
  555MOL0     C76470   1.457   8.902   5.478  0.3261 -0.0478 -0.5957
  555MOL0     C76471   1.433   8.945   5.355  1.2621 -0.6812 -0.6976
  555MOL0     C76472   1.337   8.882   5.268  0.2575  0.5672  0.1188
  555MOL0     C76473   1.404   8.831   5.137  0.3684 -0.9771 -0.2110
  555MOL0     C76474   1.513   8.726   5.150  0.5718 -0.8701 -0.0009
  555MOL0     C76475   1.454   8.580   5.164 -0.2044  0.4168 -0.1061
  555MOL0     O76476   1.402   8.550   5.296 -0.3979 -0.3399  0.3349
  555MOL0     C76477   1.283   8.486   5.310  0.4068  0.6280  0.5767
  555MOL0     C76478   1.247   8.366   5.257  1.2226  0.4237 -0.1617
  555MOL0     C76479   1.126   8.297   5.284 -0.8697  0.9451 -0.0553
  555MOL0     C76480   1.116   8.153   5.220  0.2536  0.3612  0.5931
  555MOL0     C76481   1.026   8.359   5.361  0.6857 -0.2455  0.6375
  555MOL0     C76482   0.894   8.295   5.393  0.1000 -0.0300 -1.1973
  555MOL0     O76483   0.841   8.323   5.526  0.9348  0.2809  0.0746
  555MOL0     C76484   0.728   8.259   5.566  0.3030  0.6349 -0.6911
  555MOL0     C76485   0.731   8.115   5.598 -0.0727  1.1259  0.7812
  555MOL0     C76486   0.614   8.034   5.600  0.0815  0.0171 -1.2225
  555MOL0     C76487   0.488   8.086   5.570  0.7729 -0.1135 -0.4497
  555MOL0     O76488   0.367   8.027   5.571  0.6151  0.0160 -0.0630
  555MOL0     C76489   0.351   7.882   5.551  1.3743 -0.8805 -0.0955
  555MOL0     C76490   0.432   7.830   5.429  0.8887  0.4975 -0.3738
  555MOL0     C76491   0.425   7.679   5.435  0.2613  0.2347 -0.4323
  555MOL0     C76492   0.506   7.626   5.319 -0.3152 -0.7817 -0.1756
  555MOL0     C76493   0.500   7.472   5.298 -0.5986 -0.2380 -0.1023
  555MOL0     C76494   0.594   7.440   5.177 -0.3947  0.0736  0.1224
  555MOL0     C76495   0.528   7.464   5.036 -0.5052 -0.0342  0.2264
  555MOL0     C76496   0.633   7.448   4.917  0.9308 -0.7091 -0.4792
  555MOL0    Cl76497   0.706   7.281   4.922  0.5369  0.1593  0.3768
  555MOL0     C76498   0.483   8.228   5.548  0.9064 -0.5797  0.2037
  555MOL0     C76499   0.602   8.312   5.537 -0.6836 -0.3101  0.2642
  555MOL0     O76500   0.840   8.225   5.306  0.6828 -0.7235 -0.2607
  555MOL0     C76501   1.059   8.482   5.425 -0.5039 -0.0720 -1.5794
  555MOL0     C76502   1.186   8.545   5.393  0.2239 -1.0836 -0.4769
  555MOL0     N76503   1.481   9.070   5.337 -0.3106 -1.2751  0.2913
  555MOL0     N76504   1.553   9.103   5.438  0.8013  0.1029 -1.0876
  555MOL0     C76505   1.488   8.044   5.255  0.2504 -0.3518  0.2089
  555MOL0     C76506   1.459   8.029   5.117  0.0063  0.4021  0.4280
  555MOL0     C76507   1.558   7.954   4.655 -1.0745  0.6174  0.6109
  555MOL0     C76508   1.451   8.020   4.599  1.1939  0.1465  0.0783
  555MOL0     C76509   1.400   7.991   4.476 -0.6181 -0.1491  0.0776
  555MOL0     C76510   1.486   7.924   4.383  0.1193  0.3743  0.6449
  555MOL0     O76511   1.441   7.912   4.254  0.3378  0.1399  1.1783
  555MOL0     C76512   1.482   7.786   4.184 -0.6680  0.0623 -0.3979
  555MOL0     C76513   1.384   7.754   4.072 -1.1121  1.4349 -0.7800
  555MOL0     C76514   1.390   7.612   4.026  0.2039 -0.4729  0.9881
  555MOL0     C76515   1.527   7.559   3.990 -0.4238 -0.9341 -0.6240
  555MOL0     C76516   1.599   7.632   3.899 -0.8248  0.7442  0.3774
  555MOL0     C76517   1.681   7.684   3.829  0.3364 -0.0300  0.5487
  555MOL0     C76518   1.601   7.858   4.434  0.0860  0.7743 -0.4494
  555MOL0     C76519   1.636   7.874   4.564  0.2977  1.5815  0.7616
  555MOL0     C76520   1.761   7.793   4.597 -0.6667 -0.5356 -0.2502
  555MOL0     H76521   1.747   8.168   4.982  1.0030  0.3559  0.2361
  555MOL0     H76522   1.767   8.220   5.231 -1.0148  1.0175 -0.0597
  555MOL0     H76523   1.528   8.140   5.600  0.1819 -0.5411 -0.2362
  555MOL0     H76524   1.427   8.173   5.456  0.1863  2.8325 -1.6174
  555MOL0     H76525   1.504   8.380   5.422  0.2296 -2.5035 -2.2583
  555MOL0     H76526   1.422   8.378   5.564  0.6253  0.9271 -0.6779
  555MOL0     H76527   1.636   8.378   5.698 -1.9044  0.7572  1.5540
  555MOL0     H76528   1.726   8.379   5.546 -0.6925 -0.1642 -2.2999
  555MOL0     H76529   1.634   8.598   5.483 -3.4985 -1.9615 -1.1145
  555MOL0     H76530   1.537   8.598   5.626 -0.3918 -2.8594  0.3452
  555MOL0     H76531   1.835   8.643   5.602  0.0118  0.6145  0.8913
  555MOL0     H76532   1.781   8.543   5.725  0.4170 -0.1935 -1.0795
  555MOL0     H76533   1.602   8.732   5.782  0.4086 -2.4474 -0.0656
  555MOL0     H76534   1.780   8.748   5.824  3.7808 -1.1900 -3.8037
  555MOL0     H76535   1.778   8.858   5.570  2.4949 -2.3829  0.3262
  555MOL0     H76536   1.818   8.937   5.712 -0.2067  0.5908 -0.2132
  555MOL0     H76537   1.535   8.960   5.723 -0.3248  1.3066 -0.6887
  555MOL0     H76538   1.661   9.082   5.682  1.1558 -1.0780  1.8570
  555MOL0     H76539   1.413   8.821   5.536 -1.6811  1.4516  0.0696
  555MOL0     H76540   1.272   8.962   5.231  1.5792  2.1326  1.0582
  555MOL0     H76541   1.290   8.795   5.315  0.6083 -2.2574 -4.1790
  555MOL0     H76542   1.332   8.781   5.071  1.8429 -1.1856 -1.7438
  555MOL0     H76543   1.445   8.914   5.078  0.9230 -2.4743 -2.0523
  555MOL0     H76544   1.577   8.729   5.061  3.3433 -1.4243  1.8814
  555MOL0     H76545   1.581   8.753   5.231 -2.7638  0.6593  2.5632
  555MOL0     H76546   1.373   8.564   5.093 -0.2856 -0.0624  0.0894
  555MOL0     H76547   1.536   8.510   5.146 -0.3216  0.2507  0.0034
  555MOL0     H76548   1.323   8.318   5.196  1.5237 -1.9883  1.9558
  555MOL0     H76549   1.088   8.084   5.300  0.0591  0.9605  1.0507
  555MOL0     H76550   1.208   8.118   5.172 -1.5127  1.0887 -3.8218
  555MOL0     H76551   1.037   8.137   5.146  1.3953 -0.3808 -0.5118
  555MOL0     H76552   0.825   8.064   5.618 -1.8910 -4.0350 -1.9755
  555MOL0     H76553   0.625   7.931   5.633 -3.9303  0.2421  1.4800
  555MOL0     H76554   0.390   7.829   5.638 -2.3567 -2.3698  0.8470
  555MOL0     H76555   0.246   7.852   5.547  1.1920 -0.1403 -2.1918
  555MOL0     H76556   0.387   7.867   5.336  0.4883  0.0067 -0.3826
  555MOL0     H76557   0.536   7.859   5.445  1.6165 -1.9625 -0.2349
  555MOL0     H76558   0.323   7.640   5.434  0.0339  0.7527 -2.8255
  555MOL0     H76559   0.470   7.658   5.533 -1.0517 -0.9774 -0.0684
  555MOL0     H76560   0.610   7.647   5.346 -1.2869  2.7659  1.3487
  555MOL0     H76561   0.480   7.675   5.225 -2.3171  0.7126  1.0594
  555MOL0     H76562   0.523   7.415   5.388  0.6955 -0.3344 -0.4825
  555MOL0     H76563   0.401   7.437   5.268  0.1853 -2.2962 -0.4384
  555MOL0     H76564   0.625   7.335   5.178  0.6752  0.3792  0.5692
  555MOL0     H76565   0.685   7.501   5.176 -0.1526 -0.1812 -2.7496
  555MOL0     H76566   0.503   7.571   5.036 -0.7343 -0.0540  1.8323
  555MOL0     H76567   0.444   7.394   5.032 -0.8852  0.1154  3.2510
  555MOL0     H76568   0.705   7.530   4.916 -0.3936  0.6392 -4.6081
  555MOL0     H76569   0.586   7.439   4.819  2.0799  0.4570 -1.1691
  555MOL0     H76570   0.383   8.266   5.532  0.0128 -1.8419  2.2477
  555MOL0     H76571   0.588   8.420   5.528 -2.4387 -0.4749  0.6948
  555MOL0     H76572   0.993   8.538   5.491 -0.5353  0.5862 -2.1501
  555MOL0     H76573   1.210   8.640   5.439  0.4099  0.2233 -3.0923
  555MOL0     H76574   1.419   8.001   5.327  0.1081  1.6343  1.3337
  555MOL0     H76575   1.393   7.952   5.077 -0.0306  1.4899 -1.7663
  555MOL0     H76576   1.383   8.089   4.649  0.8100 -0.9114  1.0637
  555MOL0     H76577   1.309   8.035   4.438 -0.1464 -1.9546 -3.5848
  555MOL0     H76578   1.574   7.804   4.127 -0.0940  2.3031  1.1343
  555MOL0     H76579   1.486   7.705   4.258  1.0761 -1.2566 -1.8322
  555MOL0     H76580   1.393   7.814   3.981  2.5108 -0.0775 -1.5736
  555MOL0     H76581   1.284   7.762   4.116  0.1533 -0.5073  2.8182
  555MOL0     H76582   1.332   7.553   4.097 -2.7376  2.0872  0.9346
  555MOL0     H76583   1.333   7.602   3.933 -0.9430  0.9306  1.4998
  555MOL0     H76584   1.521   7.469   3.929 -2.1549 -0.2459 -1.5460
  555MOL0     H76585   1.584   7.531   4.079  0.5754  1.4841 -0.4278
  555MOL0     H76586   1.755   7.733   3.769  1.8839 -1.2148  1.4129
  555MOL0     H76587   1.667   7.813   4.361 -0.2374  1.3395 -1.1039
  555MOL0     H76588   1.807   7.731   4.520  1.3153 -1.7453  1.7979
  555MOL0     H76589   1.843   7.865   4.610  2.0027 -2.7700 -3.1452
  555MOL0     H76590   1.760   7.733   4.688  0.8682  1.6281  1.2889
  556MOL0     O76591   0.321   0.420  10.462  0.3373  0.0053  0.2995
  556MOL0     C76592   0.383   0.501  10.534  0.7748  0.4947 -0.0224
  556MOL0     O76593   0.500   0.473  10.600 -0.1051 -0.2067  0.1426
  556MOL0     C76594   0.566   0.367  10.546  0.3778  0.4820 -0.4698
  556MOL0     C76595   0.526   0.246  10.592  0.3975  0.7315  0.6259
  556MOL0     C76596   0.598   0.134  10.545  0.3246  0.2105  0.3614
  556MOL0     C76597   0.713   0.147  10.468  0.9809  0.4110  0.5254
  556MOL0     O76598   0.787   0.039  10.435 -0.2327  0.1140 -0.6841
  556MOL0     C76599   0.933   0.051  10.426 -0.7063 -0.4085  0.5460
  556MOL0     C76600   0.982  -0.048  10.330 -0.4164 -0.4092  0.8098
  556MOL0     C76601   0.935  -0.022  10.183  0.6382 -0.3480 -0.8691
  556MOL0     C76602   1.030  -0.068  10.067  0.6001 -0.2783 -0.0057
  556MOL0     C76603   0.969  -0.034   9.936  0.1297  0.1528  0.2773
  556MOL0     C76604   1.056  -0.038   9.820 -1.0123  1.4207  0.7394
  556MOL0     C76605   1.113  -0.181   9.792  0.1626  0.7724 -0.0200
  556MOL0     C76606   1.254  -0.182   9.743  0.9349  0.5551 -0.0245
  556MOL0     N76607   1.331  -0.311   9.760  1.1560 -0.5005  0.9811
  556MOL0     C76608   1.294  -0.427   9.692 -0.7394  0.0316  0.2092
  556MOL0     C76609   1.401  -0.514   9.701  0.7863  0.3482  0.1318
  556MOL0     C76610   1.429  -0.651   9.645 -0.6718  0.1283 -0.0060
  556MOL0     C76611   1.365  -0.768   9.717 -0.0266 -0.4571 -0.2062
  556MOL0     C76612   1.424  -0.899   9.669 -0.9833 -0.3123  0.8429
  556MOL0     C76613   1.367  -0.950   9.532 -0.5455  0.0448 -0.1401
  556MOL0     O76614   1.393  -0.866   9.417 -0.2216 -0.0585 -0.8560
  556MOL0     C76615   1.341  -0.902   9.302  0.1966 -0.5770  0.0302
  556MOL0     C76616   1.313  -1.031   9.257 -0.1492 -0.3799 -1.1905
  556MOL0     C76617   1.264  -1.062   9.137  0.2253 -0.3614 -0.5779
  556MOL0     C76618   1.239  -1.205   9.096  0.5721  0.5445 -0.7640
  556MOL0     C76619   1.242  -0.951   9.051  0.2634  0.5397 -1.0350
  556MOL0     C76620   1.190  -0.970   8.912 -0.0760 -0.3419  0.3607
  556MOL0     O76621   1.105  -1.074   8.898  0.1404  0.2707  0.2697
  556MOL0     C76622   1.065  -1.092   8.767 -0.3862  0.3982  0.1802
  556MOL0     C76623   0.947  -1.029   8.726  0.6220 -0.7656 -0.0718
  556MOL0     C76624   0.898  -1.038   8.598 -0.9724  0.1068  0.2644
  556MOL0     C76625   0.965  -1.131   8.514  0.3877 -0.9260 -0.2679
  556MOL0     O76626   0.924  -1.151   8.383 -0.3554  0.6789 -0.9043
  556MOL0     C76627   0.805  -1.099   8.317  0.7445 -0.8406  0.6338
  556MOL0     C76628   0.786  -1.181   8.184 -0.1754  0.5314 -0.6285
  556MOL0     C76629   0.703  -1.112   8.071  0.6341 -0.9429 -0.0228
  556MOL0     C76630   0.731  -1.183   7.928 -0.0605  0.1249 -0.1004
  556MOL0     C76631   0.840  -1.101   7.851 -0.2317  0.0738  0.1626
  556MOL0     C76632   0.843  -1.162   7.706 -0.0069 -0.3218 -0.3203
  556MOL0     C76633   0.953  -1.091   7.632 -0.0700  0.0529 -0.2196
  556MOL0     C76634   0.929  -1.104   7.479 -0.0954  0.0935 -0.0005
  556MOL0    Cl76635   0.901  -1.278   7.428 -0.6559  0.0711  0.1625
  556MOL0     C76636   1.087  -1.192   8.544  0.3022  1.2825  0.8371
  556MOL0     C76637   1.134  -1.177   8.676  0.6057  0.8150  0.5499
  556MOL0     O76638   1.238  -0.899   8.825  0.7395  0.1075  0.4470
  556MOL0     C76639   1.281  -0.819   9.078  0.4831  0.7560 -0.4789
  556MOL0     C76640   1.334  -0.796   9.209  0.2074 -0.2578  0.3170
  556MOL0     N76641   1.493  -0.447   9.787  0.6669  0.1252  0.5424
  556MOL0     N76642   1.453  -0.332   9.817  0.5471 -0.2575  0.3829
  556MOL0     C76643   0.735   0.277  10.423 -0.6694  0.4031  0.5288
  556MOL0     C76644   0.661   0.384  10.453  0.2932 -0.2480  0.8647
  556MOL0     C76645   0.316   0.627  10.567  1.0350 -0.5446  0.6192
  556MOL0     C76646   0.345   0.695  10.688 -0.2231  0.9655  0.5375
  556MOL0     C76647   0.278   0.808  10.723 -0.1540  0.3423  0.6742
  556MOL0     C76648   0.173   0.863  10.641  0.0212 -0.6680 -0.3193
  556MOL0     O76649   0.090   0.975  10.663  0.1754  0.4900  0.2189
  556MOL0     C76650   0.111   1.049  10.789 -0.6465  0.2737 -0.9040
  556MOL0     C76651   0.034   1.186  10.773 -0.2558  0.8587  0.3035
  556MOL0     C76652  -0.116   1.153  10.783  0.7908 -0.1964 -0.5398
  556MOL0     C76653  -0.197   1.267  10.834  0.5147 -0.4930  0.0240
  556MOL0     C76654  -0.189   1.384  10.744  0.0828 -0.0350 -0.2256
  556MOL0     C76655  -0.202   1.475  10.660 -0.1480  1.1146  0.0840
  556MOL0     C76656   0.151   0.808  10.517  0.3239 -0.1394  0.2319
  556MOL0     C76657   0.216   0.690  10.476 -0.5420 -0.8906  0.7036
  556MOL0     C76658   0.173   0.628  10.346  0.7768  0.2312 -0.2217
  556MOL0     H76659   0.448   0.224  10.664  1.4400 -2.8014  0.8605
  556MOL0     H76660   0.560   0.036  10.574 -3.3212  1.6127  0.7426
  556MOL0     H76661   0.992   0.031  10.516  4.6561 -0.8157 -2.6559
  556MOL0     H76662   0.970   0.150  10.397 -1.1569 -0.5428 -0.5135
  556MOL0     H76663   1.091  -0.050  10.328 -0.3839 -1.1132 -1.9960
  556MOL0     H76664   0.951  -0.146  10.368  1.6238 -1.2707  0.3742
  556MOL0     H76665   0.837  -0.071  10.182 -0.4536  1.7192 -0.3163
  556MOL0     H76666   0.918   0.084  10.161  1.0728  0.0359  0.5570
  556MOL0     H76667   1.131  -0.030  10.079  0.5934 -0.0274 -0.6941
  556MOL0     H76668   1.033  -0.177  10.071 -0.5948 -0.7116 -4.4816
  556MOL0     H76669   0.936   0.070   9.938  2.8349  1.0967 -0.3555
  556MOL0     H76670   0.886  -0.101   9.913 -0.0891  0.2782  0.6993
  556MOL0     H76671   0.983  -0.003   9.746 -1.7114  1.1489  1.2925
  556MOL0     H76672   1.137   0.032   9.842 -0.1104 -0.4392  3.9372
  556MOL0     H76673   1.044  -0.246   9.738 -0.1925 -1.9252  3.3007
  556MOL0     H76674   1.118  -0.235   9.887  0.3961  0.0647 -0.4300
  556MOL0     H76675   1.244  -0.166   9.635  0.2212  1.5601  0.1681
  556MOL0     H76676   1.311  -0.100   9.787  1.9339 -1.0286  1.7300
  556MOL0     H76677   1.200  -0.451   9.643 -0.0810 -0.2762 -0.9378
  556MOL0     H76678   1.537  -0.662   9.656 -0.6595  1.5169  1.6953
  556MOL0     H76679   1.407  -0.647   9.537  3.7850  0.9638 -1.0717
  556MOL0     H76680   1.377  -0.772   9.826  0.4982 -1.4431 -0.2834
  556MOL0     H76681   1.259  -0.774   9.693 -0.0592 -2.1085  0.2192
  556MOL0     H76682   1.533  -0.900   9.664 -0.8888 -3.8862  1.3379
  556MOL0     H76683   1.398  -0.977   9.741 -0.7507 -1.6904 -0.5389
  556MOL0     H76684   1.399  -1.053   9.515  2.2161  0.8140  0.0361
  556MOL0     H76685   1.257  -0.952   9.532 -0.5572 -2.5938  0.9328
  556MOL0     H76686   1.340  -1.118   9.317 -3.2823 -0.3696  0.4292
  556MOL0     H76687   1.133  -1.231   9.089  1.0427 -1.2572 -1.8592
  556MOL0     H76688   1.292  -1.279   9.156 -1.0013  0.7662  0.9778
  556MOL0     H76689   1.270  -1.208   8.991 -0.1405  1.1054 -1.0019
  556MOL0     H76690   0.871  -0.983   8.788  1.7286 -0.5220  1.1467
  556MOL0     H76691   0.802  -0.994   8.576 -1.6839 -1.1275  0.7989
  556MOL0     H76692   0.723  -1.097   8.390  0.9267  0.2745  0.8207
  556MOL0     H76693   0.829  -0.996   8.288  2.8115 -1.9354 -1.9288
  556MOL0     H76694   0.884  -1.208   8.144  1.2200 -0.2657  2.9774
  556MOL0     H76695   0.728  -1.272   8.199 -0.4382  0.4475 -2.0020
  556MOL0     H76696   0.726  -1.005   8.070 -1.4304 -0.3915 -3.1145
  556MOL0     H76697   0.596  -1.125   8.090  0.1841  1.7674 -0.2845
  556MOL0     H76698   0.634  -1.182   7.876 -1.5912 -0.8164  2.5404
  556MOL0     H76699   0.753  -1.287   7.953 -1.3399  0.4111  2.6252
  556MOL0     H76700   0.817  -0.995   7.846 -2.2067 -0.1958  1.8840
  556MOL0     H76701   0.938  -1.102   7.900  0.1511  6.2671  0.3200
  556MOL0     H76702   0.745  -1.135   7.665  0.4672  0.2796 -1.1002
  556MOL0     H76703   0.860  -1.269   7.719  0.8070 -0.1489  0.1079
  556MOL0     H76704   1.044  -1.138   7.670 -1.2007 -2.0396  0.0668
  556MOL0     H76705   0.969  -0.987   7.664 -0.5649 -0.2153  0.9562
  556MOL0     H76706   1.013  -1.066   7.419  0.7448 -0.1199  1.0046
  556MOL0     H76707   0.848  -1.032   7.463 -0.6208 -0.1577  1.3763
  556MOL0     H76708   1.123  -1.262   8.469 -1.0105 -1.8810  2.9320
  556MOL0     H76709   1.215  -1.233   8.721  2.4736  1.6009 -1.5988
  556MOL0     H76710   1.285  -0.743   9.000 -2.2691  1.4992 -0.0016
  556MOL0     H76711   1.346  -0.691   9.232 -3.3782  0.7300 -1.5640
  556MOL0     H76712   0.817   0.303  10.357  1.6417  0.0310  3.1005
  556MOL0     H76713   0.687   0.484  10.419  0.4300 -0.6537 -0.2418
  556MOL0     H76714   0.406   0.644  10.763 -1.4470  0.0630  0.9586
  556MOL0     H76715   0.315   0.838  10.820  1.2122 -0.2585  0.3642
  556MOL0     H76716   0.063   1.005  10.877 -0.6481  0.4416 -0.8203
  556MOL0     H76717   0.218   1.070  10.802 -0.3553 -0.5647 -1.8097
  556MOL0     H76718   0.052   1.232  10.675 -0.7959 -1.5687 -1.0072
  556MOL0     H76719   0.062   1.261  10.848 -0.1263  1.3570 -0.2316
  556MOL0     H76720  -0.161   1.132  10.685  0.4733  1.7153 -0.8538
  556MOL0     H76721  -0.133   1.060  10.838  0.2318 -0.3349 -0.9275
  556MOL0     H76722  -0.169   1.282  10.939  2.9966 -0.2747 -0.6066
  556MOL0     H76723  -0.302   1.242  10.850  0.9837 -1.1741  2.4968
  556MOL0     H76724  -0.185   1.550  10.585  2.0151 -1.0497 -1.7682
  556MOL0     H76725   0.068   0.851  10.461  1.6791 -0.1652 -1.9183
  556MOL0     H76726   0.269   0.606  10.298  0.8547 -0.2723  0.1588
  556MOL0     H76727   0.113   0.539  10.368  1.6651 -0.0807  1.0673
  556MOL0     H76728   0.107   0.694  10.289 -1.2730  0.5260  2.2989
  557MOL0     O76729   7.903   8.984  11.368 -0.7671  1.3636  0.4096
  557MOL0     C76730   7.798   9.020  11.417 -0.5851  0.1566  0.2423
  557MOL0     O76731   7.706   9.104  11.354  0.0705  0.0239  0.5178
  557MOL0     C76732   7.731   9.159  11.231  0.3527  0.8197 -0.2758
  557MOL0     C76733   7.853   9.201  11.199 -0.2917 -0.6028 -0.0616
  557MOL0     C76734   7.887   9.245  11.069 -0.5057  0.4544 -0.1841
  557MOL0     C76735   7.793   9.240  10.962 -1.0873  0.2851  0.3905
  557MOL0     O76736   7.823   9.264  10.830  0.0196 -0.1228 -0.8960
  557MOL0     C76737   7.950   9.233  10.777  0.1756 -0.7639 -0.1748
  557MOL0     C76738   8.020   9.100  10.817  1.0464 -0.3474  0.2892
  557MOL0     C76739   8.173   9.111  10.801 -0.3282 -0.4729  0.5066
  557MOL0     C76740   8.246   8.979  10.798 -0.4733 -0.0460  0.1309
  557MOL0     C76741   8.214   8.874  10.918 -0.2858 -0.5421  0.3962
  557MOL0     C76742   8.263   8.929  11.049  0.2205 -0.0084 -0.1402
  557MOL0     C76743   8.270   8.811  11.149  0.0675 -0.5673  0.2731
  557MOL0     C76744   8.133   8.775  11.201 -0.6377 -0.2396 -0.9883
  557MOL0     N76745   8.139   8.641  11.248  0.0970 -0.4432  0.0433
  557MOL0     C76746   8.103   8.534  11.174 -0.1846 -0.2131 -0.2005
  557MOL0     C76747   8.119   8.425  11.248  0.7768  0.3335  0.1700
  557MOL0     C76748   8.103   8.291  11.204 -0.6196  0.1391 -0.2932
  557MOL0     C76749   8.212   8.198  11.255  0.3820  0.5084 -0.9496
  557MOL0     C76750   8.186   8.058  11.197  0.1801 -0.0153  0.2087
  557MOL0     C76751   8.296   7.960  11.224  0.3963  1.1505  0.2822
  557MOL0     O76752   8.239   7.833  11.187 -0.8410  0.6735 -0.3590
  557MOL0     C76753   8.193   7.749  11.285  0.7850 -0.3378  0.7624
  557MOL0     C76754   8.086   7.675  11.242  0.8140  0.1276 -0.1928
  557MOL0     C76755   8.028   7.576  11.328  0.0690 -0.7306  0.1647
  557MOL0     C76756   7.901   7.504  11.283 -0.4520 -0.7283 -1.1599
  557MOL0     C76757   8.083   7.559  11.450 -0.0352  0.9640 -0.4490
  557MOL0     C76758   8.043   7.446  11.550  0.1329  0.1217  0.2917
  557MOL0     O76759   8.092   7.440  11.671  0.1994  0.5683  0.6003
  557MOL0     C76760   8.034   7.362  11.761  0.1643  0.5303  0.1079
  557MOL0     C76761   8.112   7.291  11.860  0.0922 -0.4341 -0.5757
  557MOL0     C76762   8.047   7.242  11.977 -0.1105 -0.9566 -0.6547
  557MOL0     C76763   7.907   7.246  11.994 -0.7979  0.4886  0.3737
  557MOL0     O76764   7.837   7.186  12.093  0.0773 -0.0839  0.1283
  557MOL0     C76765   7.902   7.125  12.198  0.0472  0.7648 -1.1886
  557MOL0     C76766   7.957   7.223  12.309 -0.3463  0.0735  0.7854
  557MOL0     C76767   7.836   7.276  12.395  0.4874  0.1840 -0.1374
  557MOL0     C76768   7.797   7.183  12.510  0.0551  0.1762 -0.0180
  557MOL0     C76769   7.693   7.238  12.604  1.1232  0.5200 -0.4866
  557MOL0     C76770   7.687   7.143  12.724 -0.1835  0.2645 -0.3461
  557MOL0     C76771   7.558   7.187  12.804 -0.3046 -0.1380  0.5554
  557MOL0     C76772   7.576   7.172  12.958 -0.3223 -0.3065 -0.3404
  557MOL0    Cl76773   7.611   6.996  12.998  0.3690 -0.2570 -0.1588
  557MOL0     C76774   7.833   7.314  11.896  0.6798 -1.1881  0.0666
  557MOL0     C76775   7.891   7.367  11.780  0.5748  0.3987  0.2317
  557MOL0     O76776   7.966   7.360  11.503  0.0589  0.6112  1.0873
  557MOL0     C76777   8.186   7.639  11.501  0.1004 -0.4034  0.3066
  557MOL0     C76778   8.235   7.737  11.411  0.3921  0.8188  0.1069
  557MOL0     N76779   8.165   8.464  11.373 -0.8012 -0.0391  0.4281
  557MOL0     N76780   8.169   8.599  11.377  0.0497  0.2317 -0.1933
  557MOL0     C76781   7.666   9.203  11.002 -0.5588 -1.1088 -0.8310
  557MOL0     C76782   7.629   9.171  11.137 -0.7959  0.7291 -0.3773
  557MOL0     C76783   7.753   8.960  11.545 -0.9902 -0.6541  0.2181
  557MOL0     C76784   7.612   8.958  11.567  0.2832  0.0660 -1.4886
  557MOL0     C76785   7.557   8.909  11.683  0.2873  0.8017 -0.2259
  557MOL0     C76786   7.646   8.880  11.782 -0.3797  0.8124 -0.0302
  557MOL0     O76787   7.604   8.848  11.916  0.9031 -0.1355  0.0604
  557MOL0     C76788   7.612   8.711  11.951  0.1436 -0.4197 -0.6870
  557MOL0     C76789   7.497   8.621  11.905  0.1664 -0.5137  1.2899
  557MOL0     C76790   7.363   8.668  11.966  0.4648 -1.0362 -0.1200
  557MOL0     C76791   7.237   8.629  11.889 -0.3784 -0.1786 -0.0477
  557MOL0     C76792   7.231   8.692  11.760  0.8759  0.0729 -0.4769
  557MOL0     C76793   7.245   8.744  11.646  1.0686 -0.3780 -0.4603
  557MOL0     C76794   7.781   8.887  11.773 -0.8505  0.6773 -0.4609
  557MOL0     C76795   7.841   8.910  11.647 -0.2517  0.5902  0.2781
  557MOL0     C76796   7.989   8.897  11.628  0.6204 -0.4592 -0.0630
  557MOL0     H76797   7.935   9.207  11.269 -2.4387 -0.1939  2.5899
  557MOL0     H76798   7.987   9.276  11.041 -1.6700  3.5572 -1.3320
  557MOL0     H76799   8.013   9.318  10.806  1.0710 -0.2984 -3.1233
  557MOL0     H76800   7.933   9.222  10.670 -1.6854  0.0955 -0.0073
  557MOL0     H76801   8.001   9.070  10.921  1.7828 -1.3343  0.1528
  557MOL0     H76802   7.986   9.015  10.758  7.5789 -0.9570 -3.5827
  557MOL0     H76803   8.200   9.168  10.712 -1.9260  1.9049  1.4473
  557MOL0     H76804   8.212   9.159  10.891  2.0309 -0.0341 -0.6908
  557MOL0     H76805   8.237   8.936  10.698  1.3830  0.2721 -0.2042
  557MOL0     H76806   8.351   9.003  10.815 -0.0453  1.3734 -3.7029
  557MOL0     H76807   8.281   8.789  10.900 -2.5258 -2.3472  0.0695
  557MOL0     H76808   8.113   8.832  10.920  0.4525 -2.3847  1.9222
  557MOL0     H76809   8.364   8.970  11.040  1.8323 -3.0301  2.3129
  557MOL0     H76810   8.207   9.011  11.096  0.5958  0.5091 -0.5870
  557MOL0     H76811   8.329   8.837  11.237  0.8154 -0.3766 -0.2674
  557MOL0     H76812   8.320   8.725  11.104 -1.5745 -4.7858  5.4640
  557MOL0     H76813   8.114   8.844  11.284 -0.0489 -1.6824  0.3986
  557MOL0     H76814   8.060   8.801  11.124  0.4764  0.1160 -1.9420
  557MOL0     H76815   8.078   8.533  11.068  0.3454 -2.9802 -0.3757
  557MOL0     H76816   8.081   8.281  11.097 -2.5840  1.1609 -0.0087
  557MOL0     H76817   8.013   8.254  11.254 -1.0142  0.9066 -0.4272
  557MOL0     H76818   8.316   8.227  11.239  1.3145 -1.3986  1.2603
  557MOL0     H76819   8.195   8.184  11.362 -0.4799 -0.2597 -1.1749
  557MOL0     H76820   8.088   8.029  11.236 -1.3280  0.1114 -3.1843
  557MOL0     H76821   8.186   8.072  11.089 -1.4116  1.2894  0.3550
  557MOL0     H76822   8.384   7.984  11.164  2.0514 -1.0806  1.6709
  557MOL0     H76823   8.323   7.963  11.330  0.5858  1.6055  0.2241
  557MOL0     H76824   8.046   7.707  11.146  1.4689  0.0846 -0.4872
  557MOL0     H76825   7.906   7.398  11.255 -1.6342 -1.6629  1.7750
  557MOL0     H76826   7.853   7.563  11.205 -0.7378 -0.7465 -0.9973
  557MOL0     H76827   7.838   7.499  11.372  2.4949  1.9538  1.3493
  557MOL0     H76828   8.220   7.283  11.867  0.2691  2.6032  4.0235
  557MOL0     H76829   8.106   7.197  12.056  1.6160 -3.3120 -3.1201
  557MOL0     H76830   7.824   7.061  12.243  1.0955  0.6374  0.5320
  557MOL0     H76831   7.976   7.048  12.173 -2.4474 -1.6428 -1.6970
  557MOL0     H76832   8.030   7.174  12.375  1.0654  1.1226  0.0357
  557MOL0     H76833   7.997   7.307  12.252  1.5257 -2.3577 -1.7444
  557MOL0     H76834   7.756   7.299  12.323 -1.5246  0.9780  2.2169
  557MOL0     H76835   7.855   7.373  12.441 -1.3486 -0.1207  1.3837
  557MOL0     H76836   7.883   7.160  12.572  1.3339 -0.8580 -2.0927
  557MOL0     H76837   7.744   7.093  12.478 -3.1366  2.1513 -0.8620
  557MOL0     H76838   7.716   7.341  12.630  2.0246  0.3944 -0.7480
  557MOL0     H76839   7.591   7.239  12.565  0.0515  2.0556  2.1462
  557MOL0     H76840   7.782   7.141  12.778 -0.7080  2.5740  0.8018
  557MOL0     H76841   7.670   7.042  12.687  4.4012 -0.8134 -0.1230
  557MOL0     H76842   7.464   7.135  12.786 -0.5382  0.2581  0.6177
  557MOL0     H76843   7.535   7.291  12.778  1.6141 -0.6250 -4.1121
  557MOL0     H76844   7.486   7.207  13.007  1.2568  2.3783  0.8466
  557MOL0     H76845   7.665   7.228  12.990  1.6258 -3.1870 -0.2639
  557MOL0     H76846   7.727   7.327  11.916  0.4118  0.4155 -2.0067
  557MOL0     H76847   7.835   7.423  11.706  2.2209  0.9249 -0.6596
  557MOL0     H76848   8.223   7.633  11.602 -0.0637  1.5488  0.5166
  557MOL0     H76849   8.312   7.801  11.454 -0.5089  2.1392 -0.1533
  557MOL0     H76850   7.586   9.215  10.929 -1.0752  4.7956  0.2039
  557MOL0     H76851   7.531   9.137  11.168  0.3515 -2.6061  0.0207
  557MOL0     H76852   7.540   8.997  11.495 -3.7801 -1.6091  1.2914
  557MOL0     H76853   7.448   8.909  11.690  0.1890 -2.1315 -0.5536
  557MOL0     H76854   7.706   8.669  11.914  1.0899  0.5688  0.5074
  557MOL0     H76855   7.630   8.694  12.057  0.4038 -1.1505 -0.8423
  557MOL0     H76856   7.524   8.517  11.922  4.2302  0.1865  0.0658
  557MOL0     H76857   7.485   8.635  11.797  1.7740  0.3682  1.2067
  557MOL0     H76858   7.364   8.623  12.065  1.7722  0.1991  0.4700
  557MOL0     H76859   7.352   8.775  11.986 -0.0969 -1.4384  1.8949
  557MOL0     H76860   7.143   8.650  11.941 -0.5302  0.4635 -0.5746
  557MOL0     H76861   7.243   8.522  11.869 -0.3732 -0.0165 -0.9518
  557MOL0     H76862   7.244   8.774  11.543 -1.4638  1.1986 -0.0733
  557MOL0     H76863   7.852   8.854  11.848 -0.1964 -1.4287 -1.9087
  557MOL0     H76864   8.011   8.816  11.559  0.3033 -0.3040 -0.3477
  557MOL0     H76865   8.033   8.988  11.585 -0.3290  0.4635  0.8468
  557MOL0     H76866   8.046   8.889  11.721  1.0798 -0.0147 -0.2993
  558MOL0     O76867   5.882  10.818   9.282  0.3928  0.1563 -0.3002
  558MOL0     C76868   5.761  10.783   9.289 -0.6760  0.1335  0.1763
  558MOL0     O76869   5.712  10.680   9.367 -1.0907 -0.6989 -0.1301
  558MOL0     C76870   5.809  10.615   9.443 -0.9678  0.4559  0.3469
  558MOL0     C76871   5.802  10.626   9.581 -0.5404  0.5248 -0.0553
  558MOL0     C76872   5.871  10.542   9.665 -0.2744  0.5939 -1.3958
  558MOL0     C76873   5.964  10.449   9.614  1.0179  0.0107  0.4798
  558MOL0     O76874   6.017  10.355   9.698  0.2196 -0.9644  0.3154
  558MOL0     C76875   6.160  10.346   9.700 -0.1437  0.2367  0.6834
  558MOL0     C76876   6.198  10.252   9.814  0.8682 -0.0249 -0.3939
  558MOL0     C76877   6.144  10.107   9.788  0.2052 -0.3849 -0.1857
  558MOL0     C76878   6.241  10.004   9.845 -0.1422 -0.3956 -0.1813
  558MOL0     C76879   6.355   9.968   9.750  0.0792 -0.5339 -0.7627
  558MOL0     C76880   6.459   9.866   9.780  0.4527 -1.1749 -0.0599
  558MOL0     C76881   6.432   9.723   9.821  0.2804  0.3942 -0.4517
  558MOL0     C76882   6.396   9.705   9.971 -0.5476 -0.1711 -0.1740
  558MOL0     N76883   6.365   9.563  10.006 -0.0346 -0.6239  0.1286
  558MOL0     C76884   6.239   9.526  10.043 -0.0543  0.2900 -0.6007
  558MOL0     C76885   6.257   9.402  10.087 -0.1874  0.2691  0.0181
  558MOL0     C76886   6.156   9.312  10.144  0.1364  0.9757 -0.2906
  558MOL0     C76887   6.011   9.315  10.109 -0.1740 -0.0279  0.2252
  558MOL0     C76888   5.962   9.259   9.973 -0.5523  0.3839 -0.1151
  558MOL0     C76889   6.000   9.325   9.839  1.2136  0.1518 -0.9658
  558MOL0     O76890   5.986   9.467   9.864 -0.3426 -0.6659 -0.7780
  558MOL0     C76891   5.982   9.545   9.756 -0.0972  0.5238  0.5572
  558MOL0     C76892   6.037   9.507   9.638  0.3250 -1.1011 -0.2664
  558MOL0     C76893   6.052   9.604   9.532 -0.9001  0.7422 -0.0672
  558MOL0     C76894   6.094   9.540   9.406 -0.0397  0.0165 -0.1534
  558MOL0     C76895   6.021   9.739   9.556  0.0866  0.6568 -0.0317
  558MOL0     C76896   6.062   9.836   9.462 -0.0731  0.0385 -0.2760
  558MOL0     O76897   6.200   9.846   9.452 -0.8554  0.0979 -0.1927
  558MOL0     C76898   6.259   9.938   9.362  0.7922  0.4597 -0.4128
  558MOL0     C76899   6.347   9.895   9.260 -0.2110  0.0448  0.0913
  558MOL0     C76900   6.400   9.984   9.171  0.7627  0.8557  0.3394
  558MOL0     C76901   6.387  10.121   9.185 -0.2472  0.1527 -0.1599
  558MOL0     O76902   6.453  10.204   9.097  0.7148 -0.0305  0.7970
  558MOL0     C76903   6.470  10.340   9.147 -0.1596 -0.3438  0.3817
  558MOL0     C76904   6.572  10.419   9.066  0.5292 -0.8296 -0.5130
  558MOL0     C76905   6.719  10.383   9.092 -0.1014  0.9158 -1.1377
  558MOL0     C76906   6.799  10.427   8.975 -1.1995  0.1772 -0.7242
  558MOL0     C76907   6.930  10.338   8.959  0.7151  0.1261  0.5055
  558MOL0     C76908   6.997  10.305   9.101 -0.5198 -0.4712 -0.3492
  558MOL0     C76909   7.144  10.265   9.068  0.8778 -0.5569 -0.4538
  558MOL0     C76910   7.226  10.270   9.199 -0.4654  0.4701  0.5963
  558MOL0    Cl76911   7.183  10.124   9.311 -0.0459  0.2946 -0.3052
  558MOL0     C76912   6.314  10.165   9.293  0.2835 -0.3764  0.2256
  558MOL0     C76913   6.241  10.079   9.378  0.3262 -0.0449  0.6972
  558MOL0     O76914   5.980   9.896   9.396 -0.4110 -0.5615 -0.3626
  558MOL0     C76915   5.957   9.777   9.675  0.4039  0.5776 -0.7308
  558MOL0     C76916   5.951   9.678   9.776 -1.2380  0.3334  1.2598
  558MOL0     N76917   6.386   9.361  10.072  0.5362 -0.4997  0.4593
  558MOL0     N76918   6.450   9.465  10.013  0.1884 -0.9304 -0.1704
  558MOL0     C76919   5.987  10.449   9.473 -0.0205  0.4434  0.5344
  558MOL0     C76920   5.906  10.527   9.390  0.2068 -0.1185 -0.0301
  558MOL0     C76921   5.652  10.872   9.234  0.6413  0.4340 -0.3204
  558MOL0     C76922   5.525  10.816   9.203 -0.6997  0.2624  0.4674
  558MOL0     C76923   5.428  10.876   9.130 -0.1298 -0.7913 -0.2118
  558MOL0     C76924   5.448  11.011   9.102  0.0779  0.2476  0.1328
  558MOL0     O76925   5.366  11.093   9.029 -0.4775  0.4598  0.5102
  558MOL0     C76926   5.245  11.041   8.963  0.0463  0.0308  0.3390
  558MOL0     C76927   5.211  11.141   8.853 -0.4329 -1.0866  0.2515
  558MOL0     C76928   5.076  11.101   8.784  0.6959 -0.2713 -0.2351
  558MOL0     C76929   5.031  11.207   8.684  0.6694 -0.0248  0.8995
  558MOL0     C76930   4.888  11.192   8.634 -0.2389 -0.1140  0.6724
  558MOL0     C76931   4.773  11.179   8.586 -0.1313 -0.0445 -0.0566
  558MOL0     C76932   5.567  11.074   9.117  0.3697 -0.8542 -0.2226
  558MOL0     C76933   5.665  11.007   9.192  0.1496 -0.4159  1.0086
  558MOL0     C76934   5.794  11.091   9.214 -0.2075  0.0141 -0.3571
  558MOL0     H76935   5.722  10.679   9.631  0.4579  0.2086  1.9776
  558MOL0     H76936   5.868  10.550   9.774  1.2224 -4.8685 -0.6490
  558MOL0     H76937   6.205  10.444   9.715 -0.9889  1.0808 -1.7453
  558MOL0     H76938   6.192  10.302   9.605 -2.1651 -3.4183  1.5030
  558MOL0     H76939   6.308  10.248   9.813  0.8370 -1.9492 -0.2908
  558MOL0     H76940   6.176  10.279   9.918  1.3754  3.8198 -1.1492
  558MOL0     H76941   6.047  10.098   9.837  1.7804 -1.2392  3.0096
  558MOL0     H76942   6.131  10.081   9.682  0.7365  1.0961 -0.6368
  558MOL0     H76943   6.279  10.040   9.941 -0.6169  1.1137 -0.5427
  558MOL0     H76944   6.178   9.918   9.868 -4.0638  2.6002  1.4272
  558MOL0     H76945   6.415  10.058   9.736 -2.9935  2.1583  1.8829
  558MOL0     H76946   6.322   9.937   9.650  0.2014 -2.3682 -0.2763
  558MOL0     H76947   6.505   9.858   9.681  0.6356 -1.1337  0.0226
  558MOL0     H76948   6.535   9.908   9.847  0.8771  2.2735 -2.4241
  558MOL0     H76949   6.523   9.665   9.803  0.3751  0.7375 -1.1115
  558MOL0     H76950   6.363   9.679   9.749  3.0539  1.4856 -4.0508
  558MOL0     H76951   6.481   9.744  10.028 -0.9771  0.5767 -0.0400
  558MOL0     H76952   6.308   9.764   9.997  0.5885  0.5652  2.2579
  558MOL0     H76953   6.146   9.581  10.053 -1.3157 -1.6898 -1.0048
  558MOL0     H76954   6.171   9.322  10.252  1.0654 -3.5228  0.1746
  558MOL0     H76955   6.205   9.218  10.116  3.6549  2.3272  0.7144
  558MOL0     H76956   5.953   9.257  10.181 -0.9708 -1.7302 -1.6943
  558MOL0     H76957   5.973   9.415  10.130  2.1578  0.7502  1.0616
  558MOL0     H76958   6.003   9.158   9.976 -0.2322  0.4859  3.2583
  558MOL0     H76959   5.853   9.256   9.965 -0.4809 -2.5354 -1.2163
  558MOL0     H76960   6.096   9.299   9.795 -0.0731 -0.5050 -3.6133
  558MOL0     H76961   5.938   9.289   9.756  0.1954  3.4418 -1.8209
  558MOL0     H76962   6.045   9.405   9.602 -4.8571 -2.3005  1.0796
  558MOL0     H76963   6.199   9.512   9.415 -0.7485 -3.2038 -0.7976
  558MOL0     H76964   6.087   9.607   9.320  1.1957 -0.4709 -0.6592
  558MOL0     H76965   6.035   9.450   9.389 -1.2937  0.1783  2.7785
  558MOL0     H76966   6.367   9.788   9.255  2.4573  0.5059 -0.2461
  558MOL0     H76967   6.446   9.945   9.081  0.9253  0.5418  0.5572
  558MOL0     H76968   6.375  10.394   9.152  1.7197  3.2295  0.3107
  558MOL0     H76969   6.507  10.341   9.250  0.9599 -1.7062  0.0261
  558MOL0     H76970   6.541  10.402   8.962  3.8575 -4.1857 -1.1390
  558MOL0     H76971   6.553  10.525   9.085  0.6833 -0.8465 -0.2654
  558MOL0     H76972   6.725  10.275   9.109 -0.6634  0.6102 -2.6911
  558MOL0     H76973   6.764  10.424   9.183  1.4798 -1.0036 -0.9805
  558MOL0     H76974   6.808  10.535   8.983  0.2893 -0.0669  2.0444
  558MOL0     H76975   6.749  10.402   8.881  0.8587 -3.5146 -1.0468
  558MOL0     H76976   6.916  10.252   8.893  1.8833  0.9523 -0.8801
  558MOL0     H76977   6.990  10.394   8.886 -1.1142  1.0746 -0.3459
  558MOL0     H76978   6.953  10.218   9.150  0.9209 -1.1572 -0.2411
  558MOL0     H76979   7.000  10.397   9.160  1.9627  0.6435 -2.0384
  558MOL0     H76980   7.200  10.336   9.006 -0.7021  1.5059  0.3362
  558MOL0     H76981   7.148  10.164   9.028 -3.6822 -0.6143 -1.2772
  558MOL0     H76982   7.193  10.360   9.251 -4.2291  0.2792 -1.1146
  558MOL0     H76983   7.330  10.276   9.166 -1.1375 -2.0326 -2.4695
  558MOL0     H76984   6.288  10.267   9.321 -5.0640 -1.1681 -0.6635
  558MOL0     H76985   6.193  10.116   9.468  2.0887 -0.4611  1.8761
  558MOL0     H76986   5.948   9.885   9.685  1.0723  0.4915  1.0139
  558MOL0     H76987   5.915   9.709   9.874 -0.6692 -3.4119  2.8047
  558MOL0     H76988   6.060  10.385   9.426  0.4312  0.4399  1.2271
  558MOL0     H76989   5.917  10.508   9.284 -1.0785 -0.1449 -0.1661
  558MOL0     H76990   5.513  10.709   9.219  0.7283  0.0410  0.2725
  558MOL0     H76991   5.338  10.824   9.099 -0.3408  0.1031 -1.1685
  558MOL0     H76992   5.264  10.937   8.933  1.6825  0.7288 -1.1658
  558MOL0     H76993   5.154  11.045   9.024  0.7126  0.1839  1.3540
  558MOL0     H76994   5.276  11.136   8.765 -3.6498 -1.3938 -2.2785
  558MOL0     H76995   5.209  11.244   8.891 -2.6563 -0.3796 -1.5422
  558MOL0     H76996   5.085  11.001   8.739 -0.4317  0.0784 -1.3150
  558MOL0     H76997   4.997  11.108   8.859  0.6005 -2.5442 -0.0523
  558MOL0     H76998   5.100  11.211   8.599 -0.5789 -4.6401 -0.6047
  558MOL0     H76999   5.030  11.305   8.733 -0.8920  2.2477 -3.2609
  558MOL0     H77000   4.684  11.138   8.544 -1.4752  1.7583  0.8896
  558MOL0     H77001   5.585  11.176   9.082 -1.9273  0.1183  1.2138
  558MOL0     H77002   5.843  11.052   9.303  2.8456  0.3692 -1.7465
  558MOL0     H77003   5.866  11.073   9.133  0.1850  0.3413 -0.0837
  558MOL0     H77004   5.771  11.198   9.212 -0.9726 -0.1388  0.0676
  559MOL0     O77005   1.617   5.116   8.679  0.2622 -0.2064  0.3222
  559MOL0     C77006   1.498   5.150   8.658  0.2616 -0.7689 -1.0645
  559MOL0     O77007   1.392   5.116   8.738 -0.6401 -0.2016  0.2150
  559MOL0     C77008   1.420   5.017   8.831 -0.0056 -0.2919 -1.2730
  559MOL0     C77009   1.433   4.885   8.795 -0.8637  0.1655  0.3546
  559MOL0     C77010   1.448   4.785   8.886  0.5984  0.9700 -0.4947
  559MOL0     C77011   1.449   4.817   9.024 -0.3242 -0.0145 -0.3394
  559MOL0     O77012   1.461   4.713   9.107  0.2628 -0.2611 -0.1721
  559MOL0     C77013   1.467   4.738   9.252  0.3167 -0.1942  0.3715
  559MOL0     C77014   1.608   4.777   9.296 -0.0049  0.6067 -0.0808
  559MOL0     C77015   1.609   4.844   9.427  0.2191 -0.0958  0.6637
  559MOL0     C77016   1.559   4.990   9.436  0.1756  0.4259 -0.2541
  559MOL0     C77017   1.562   5.042   9.575  0.4435  0.0218  0.1004
  559MOL0     C77018   1.696   5.090   9.623 -0.6398 -0.1159  0.4095
  559MOL0     C77019   1.698   5.106   9.773 -0.7383  0.0046 -0.3651
  559MOL0     C77020   1.838   5.151   9.817 -0.3650 -0.4190  0.1352
  559MOL0     N77021   1.842   5.152   9.960 -0.9366 -0.1726 -0.0725
  559MOL0     C77022   1.772   5.245  10.046  0.2533 -0.6839  0.3325
  559MOL0     C77023   1.774   5.193  10.172  0.2052 -0.7267  0.1793
  559MOL0     C77024   1.688   5.254  10.290 -1.0605  0.0066  0.0948
  559MOL0     C77025   1.754   5.278  10.430  0.1104 -0.2258  1.3044
  559MOL0     C77026   1.677   5.381  10.513 -0.1038  0.6438 -0.2785
  559MOL0     C77027   1.725   5.528  10.489 -0.6597 -0.1533 -0.2083
  559MOL0     O77028   1.859   5.527  10.542  0.2638  0.7303 -0.0401
  559MOL0     C77029   1.951   5.611  10.485  0.0475 -0.0470 -0.2336
  559MOL0     C77030   2.061   5.570  10.393 -0.0873 -0.6326 -0.1071
  559MOL0     C77031   2.135   5.668  10.321  0.3031 -0.1429 -0.4498
  559MOL0     C77032   2.240   5.625  10.229  0.2629  0.5195 -0.2678
  559MOL0     C77033   2.106   5.812  10.335 -0.0713  0.8125  0.6564
  559MOL0     C77034   2.170   5.922  10.252 -0.3923 -0.0443  0.7095
  559MOL0     O77035   2.169   6.040  10.312 -0.3142 -0.4470  0.3376
  559MOL0     C77036   2.245   6.146  10.277 -0.2258 -0.6584  0.0029
  559MOL0     C77037   2.222   6.253  10.362  0.4003 -0.4996 -0.1483
  559MOL0     C77038   2.265   6.383  10.342 -0.7711  0.2916  0.3621
  559MOL0     C77039   2.358   6.401  10.236 -0.1294 -0.4982 -0.2942
  559MOL0     O77040   2.430   6.513  10.197  0.9021  0.0062  0.0972
  559MOL0     C77041   2.442   6.625  10.283  0.4776 -0.7308  0.6012
  559MOL0     C77042   2.336   6.722  10.246 -0.5361 -0.6707  0.0242
  559MOL0     C77043   2.362   6.785  10.105 -0.1620  0.3044 -0.2905
  559MOL0     C77044   2.262   6.897  10.067 -0.1566  1.0627 -0.3331
  559MOL0     C77045   2.280   6.942   9.920 -0.8256 -0.9088 -0.2942
  559MOL0     C77046   2.242   6.848   9.819  0.4609  0.3233  0.5187
  559MOL0     C77047   2.236   6.919   9.686  0.4543 -0.8036  0.4489
  559MOL0     C77048   2.195   6.830   9.565 -0.7046 -1.8686 -0.4925
  559MOL0    Cl77049   2.283   6.678   9.567  0.0089  0.0796 -0.0653
  559MOL0     C77050   2.393   6.289  10.156 -0.3363  0.2134 -0.5402
  559MOL0     C77051   2.339   6.158  10.179  0.2276 -0.4250  0.0660
  559MOL0     O77052   2.230   5.897  10.149 -0.1135  0.0998 -0.0092
  559MOL0     C77053   2.002   5.842  10.428 -0.9799 -0.1793 -0.2584
  559MOL0     C77054   1.939   5.743  10.505 -0.0059 -0.3905  0.0113
  559MOL0     N77055   1.862   5.082  10.168  0.7645 -0.5308 -0.1106
  559MOL0     N77056   1.894   5.055  10.047 -0.0285 -0.0298  1.0059
  559MOL0     C77057   1.444   4.955   9.062  0.7711 -0.1529 -0.8535
  559MOL0     C77058   1.437   5.055   8.963 -0.3887  0.1215 -0.0073
  559MOL0     C77059   1.469   5.261   8.568  0.5962  0.2543 -0.4903
  559MOL0     C77060   1.565   5.362   8.567  0.9355  0.1778  0.1363
  559MOL0     C77061   1.544   5.479   8.485  0.1462  0.3685  0.1391
  559MOL0     C77062   1.428   5.480   8.402  0.5983 -0.4545  0.2927
  559MOL0     O77063   1.412   5.587   8.309 -0.3962 -0.1917  0.0044
  559MOL0     C77064   1.523   5.680   8.286  0.6490  0.2517  0.5464
  559MOL0     C77065   1.502   5.742   8.147 -0.0743  0.1683 -0.2269
  559MOL0     C77066   1.538   5.661   8.022  0.2274 -0.3533  0.4219
  559MOL0     C77067   1.547   5.754   7.899 -0.3402  0.1354  0.6677
  559MOL0     C77068   1.551   5.664   7.776  0.4625  0.5202 -0.5676
  559MOL0     C77069   1.561   5.573   7.695  0.6200  0.3156 -0.0302
  559MOL0     C77070   1.334   5.381   8.414  0.0984 -0.3425  0.7007
  559MOL0     C77071   1.353   5.270   8.493 -0.5217 -0.0610 -0.3935
  559MOL0     C77072   1.258   5.153   8.480 -0.9983 -0.9921 -1.0834
  559MOL0     H77073   1.412   4.865   8.690 -1.5661  1.4705  0.2181
  559MOL0     H77074   1.455   4.681   8.858 -0.0625  0.6870  0.3104
  559MOL0     H77075   1.439   4.649   9.309  0.0796 -2.3132 -2.8025
  559MOL0     H77076   1.395   4.812   9.290  1.2685  0.2733  1.3141
  559MOL0     H77077   1.662   4.682   9.306 -2.7605 -0.9703  1.0083
  559MOL0     H77078   1.659   4.840   9.222  2.4672  1.4263  2.1856
  559MOL0     H77079   1.544   4.800   9.503 -1.3721 -0.0595 -0.6252
  559MOL0     H77080   1.715   4.843   9.453 -0.6226 -1.1917  4.8360
  559MOL0     H77081   1.626   5.049   9.372  1.6703 -3.2684 -2.4048
  559MOL0     H77082   1.455   4.989   9.404  0.4802  1.5754 -1.3909
  559MOL0     H77083   1.515   4.981   9.653  0.4767  1.5427  1.3566
  559MOL0     H77084   1.494   5.128   9.577 -0.8536 -0.9090  3.7955
  559MOL0     H77085   1.770   5.018   9.588  0.7639 -0.2977  3.4281
  559MOL0     H77086   1.708   5.193   9.589 -2.5481  0.3343  0.9815
  559MOL0     H77087   1.667   5.015   9.824  1.0475 -1.5927 -1.9968
  559MOL0     H77088   1.631   5.188   9.802  1.1689  1.9895 -1.2506
  559MOL0     H77089   1.914   5.083   9.780  2.6596  1.6755  2.0128
  559MOL0     H77090   1.856   5.249   9.772 -0.1457 -0.3944  0.2755
  559MOL0     H77091   1.720   5.330  10.002  1.2181 -0.1283  0.2423
  559MOL0     H77092   1.610   5.187  10.328  0.2141 -2.6617 -1.7017
  559MOL0     H77093   1.663   5.353  10.249 -0.5079 -1.3549 -3.9678
  559MOL0     H77094   1.757   5.187  10.490 -0.5368 -0.2902  1.2474
  559MOL0     H77095   1.857   5.310  10.411  0.1367  0.4074  2.4616
  559MOL0     H77096   1.568   5.376  10.503 -0.2367 -0.0508  1.2133
  559MOL0     H77097   1.698   5.358  10.618 -2.1142 -2.6660 -0.4657
  559MOL0     H77098   1.713   5.536  10.380  0.5909 -2.0287 -0.5197
  559MOL0     H77099   1.683   5.605  10.554  0.5225  1.2602 -1.0634
  559MOL0     H77100   2.070   5.463  10.373  3.1031 -0.0469 -2.7090
  559MOL0     H77101   2.207   5.655  10.129 -1.3231 -3.7192 -1.1964
  559MOL0     H77102   2.248   5.516  10.224 -3.8135  0.0370  0.1739
  559MOL0     H77103   2.341   5.664  10.243  1.3014 -1.8716 -0.5789
  559MOL0     H77104   2.153   6.245  10.445  2.8203 -3.4189  1.7743
  559MOL0     H77105   2.246   6.464  10.413  1.1874  0.2257  1.0237
  559MOL0     H77106   2.436   6.602  10.390  1.2027  0.9080  1.0374
  559MOL0     H77107   2.537   6.677  10.271  1.3980 -1.2577  4.2428
  559MOL0     H77108   2.238   6.673  10.242 -1.5825  1.3971 -3.0053
  559MOL0     H77109   2.340   6.802  10.321  1.1283 -0.3289 -0.3997
  559MOL0     H77110   2.336   6.712  10.027 -3.6210  0.0467  0.9035
  559MOL0     H77111   2.468   6.810  10.098  0.6380 -0.9716  4.2561
  559MOL0     H77112   2.269   6.981  10.137  0.4291  1.8541 -1.3183
  559MOL0     H77113   2.158   6.863  10.072  0.7565 -1.9565  0.3360
  559MOL0     H77114   2.225   7.037   9.917 -0.3627 -0.5729  0.9275
  559MOL0     H77115   2.388   6.946   9.909 -0.8254  2.6136 -0.2138
  559MOL0     H77116   2.135   6.836   9.839  0.7627  0.3543  2.3123
  559MOL0     H77117   2.284   6.746   9.818  1.8484  0.8767  0.0547
  559MOL0     H77118   2.333   6.966   9.665 -0.9682  1.8525 -0.6408
  559MOL0     H77119   2.167   7.004   9.692 -0.3072 -1.4151  0.5213
  559MOL0     H77120   2.214   6.894   9.478  1.1853  2.3293  2.6346
  559MOL0     H77121   2.088   6.806   9.567 -0.7639 -1.6392 -0.8064
  559MOL0     H77122   2.447   6.311  10.064 -1.2963  1.2029 -0.8871
  559MOL0     H77123   2.374   6.074  10.120  1.6890  0.4881 -0.4258
  559MOL0     H77124   1.990   5.950  10.429  2.3625  0.3477  2.3120
  559MOL0     H77125   1.854   5.786  10.558  2.3463  3.9296  0.7278
  559MOL0     H77126   1.442   4.972   9.169 -0.4343 -1.3400 -0.6717
  559MOL0     H77127   1.428   5.162   8.982  0.2437  0.4238 -1.3103
  559MOL0     H77128   1.652   5.349   8.631  0.0781 -0.0041  1.3150
  559MOL0     H77129   1.619   5.557   8.477 -1.1041  1.6455  0.4215
  559MOL0     H77130   1.516   5.760   8.361 -1.8438  1.6446 -1.0212
  559MOL0     H77131   1.623   5.636   8.289 -1.2619 -4.7541  0.3447
  559MOL0     H77132   1.567   5.829   8.145 -1.2722  1.0699 -0.8254
  559MOL0     H77133   1.400   5.781   8.140  0.5456  2.0180  0.5832
  559MOL0     H77134   1.631   5.607   8.045 -0.4295 -0.8934  1.9549
  559MOL0     H77135   1.459   5.586   8.018 -0.2693  0.1745  0.2788
  559MOL0     H77136   1.638   5.815   7.897  1.0439 -1.6910 -3.3671
  559MOL0     H77137   1.459   5.817   7.883  0.6303  1.2523 -0.5559
  559MOL0     H77138   1.569   5.487   7.631  2.7571  1.6801 -1.7350
  559MOL0     H77139   1.247   5.395   8.351  1.4855 -2.3818 -1.8873
  559MOL0     H77140   1.251   5.119   8.376 -1.2336  1.5430 -1.9462
  559MOL0     H77141   1.287   5.059   8.529 -1.3819 -0.9773 -0.8258
  559MOL0     H77142   1.157   5.185   8.509 -0.1193  0.0441  1.0359
  560MOL0     O77143   6.316   4.165   6.617  0.1035  0.3862 -0.3834
  560MOL0     C77144   6.285   4.066   6.550  0.4796 -0.2524 -0.7123
  560MOL0     O77145   6.303   3.934   6.589 -0.4125  0.0142  0.0522
  560MOL0     C77146   6.343   3.915   6.719 -0.3971  0.0921 -0.0792
  560MOL0     C77147   6.461   3.971   6.773  0.4705 -0.0376 -0.0339
  560MOL0     C77148   6.492   3.966   6.915  1.2924  1.4137 -0.2550
  560MOL0     C77149   6.406   3.892   7.001  0.7046 -0.0038  0.3640
  560MOL0     O77150   6.449   3.867   7.130 -0.5024  0.2227  0.4684
  560MOL0     C77151   6.423   3.749   7.204 -0.7275  0.0030  0.0189
  560MOL0     C77152   6.476   3.629   7.126  0.1499  1.2206  0.5061
  560MOL0     C77153   6.379   3.503   7.152 -1.1036  0.7231  0.2701
  560MOL0     C77154   6.462   3.374   7.161 -0.1699  0.0218 -0.0623
  560MOL0     C77155   6.350   3.257   7.168 -0.2257 -1.3856  0.3468
  560MOL0     C77156   6.423   3.125   7.156 -0.3944 -0.0237  0.2694
  560MOL0     C77157   6.535   3.086   7.258 -0.8922 -0.2329 -0.1612
  560MOL0     C77158   6.484   3.079   7.407  0.0293 -0.4098  0.3941
  560MOL0     N77159   6.592   3.034   7.499 -0.6956 -0.7306  0.0150
  560MOL0     C77160   6.719   3.092   7.501 -0.0835  0.7985 -0.3368
  560MOL0     C77161   6.774   3.056   7.624  0.6990  0.3060 -0.3047
  560MOL0     C77162   6.884   3.128   7.703 -0.1135 -0.4871  0.2669
  560MOL0     C77163   6.846   3.187   7.835  1.0209 -1.1628  0.1202
  560MOL0     C77164   6.963   3.254   7.910  0.4799  0.8431 -0.2719
  560MOL0     C77165   6.940   3.273   8.065 -0.1289  0.5453 -0.0546
  560MOL0     O77166   7.062   3.347   8.117  0.0148 -0.2180 -0.3273
  560MOL0     C77167   7.150   3.303   8.207  0.1998  0.6953 -0.5917
  560MOL0     C77168   7.148   3.173   8.259  0.7417  0.3230 -0.0933
  560MOL0     C77169   7.243   3.122   8.352 -0.0686 -0.8530 -0.4174
  560MOL0     C77170   7.248   2.972   8.397 -0.5169  0.3601 -0.2950
  560MOL0     C77171   7.329   3.217   8.403  0.2522  0.4908  0.2640
  560MOL0     C77172   7.421   3.180   8.504 -0.2123  0.1150  0.3343
  560MOL0     O77173   7.363   3.131   8.625 -0.3834 -0.3473 -0.2789
  560MOL0     C77174   7.444   3.092   8.730 -0.2274  0.4221  0.2151
  560MOL0     C77175   7.435   2.957   8.777 -0.4710 -0.4716  0.4632
  560MOL0     C77176   7.505   2.929   8.900  0.4645 -0.4169 -0.9614
  560MOL0     C77177   7.581   3.024   8.970 -0.8997  0.1605  0.5245
  560MOL0     O77178   7.640   2.973   9.085 -0.6814 -0.1514 -0.2398
  560MOL0     C77179   7.717   3.063   9.167 -0.4245 -0.0536  1.1548
  560MOL0     C77180   7.783   2.993   9.278 -0.1868  0.9096 -0.5041
  560MOL0     C77181   7.678   2.925   9.368  0.0249 -0.1301  0.0622
  560MOL0     C77182   7.757   2.854   9.478  0.2515  0.5831 -0.7113
  560MOL0     C77183   7.667   2.803   9.583 -0.4647 -0.0980  0.4539
  560MOL0     C77184   7.744   2.749   9.704 -0.1473 -0.1795  0.4766
  560MOL0     C77185   7.644   2.688   9.803 -0.8016  0.1783  0.1718
  560MOL0     C77186   7.616   2.537   9.756  0.5300 -0.3586  0.3544
  560MOL0    Cl77187   7.753   2.422   9.791 -0.2133 -0.4335 -0.1521
  560MOL0     C77188   7.588   3.158   8.921  0.6159  0.3521  0.2399
  560MOL0     C77189   7.524   3.191   8.797  0.4021  0.0759 -0.1638
  560MOL0     O77190   7.541   3.188   8.487  0.0255  0.4767  0.7113
  560MOL0     C77191   7.341   3.346   8.353  0.7554  0.4424  0.4770
  560MOL0     C77192   7.248   3.385   8.261 -0.7686 -0.5396  0.1452
  560MOL0     N77193   6.676   2.975   7.692 -0.0402 -0.6389 -0.1080
  560MOL0     N77194   6.570   2.972   7.615  0.4350  1.0697 -0.6045
  560MOL0     C77195   6.295   3.827   6.941  0.8663  0.7230  0.3194
  560MOL0     C77196   6.266   3.833   6.805 -0.4622 -0.4487 -0.1906
  560MOL0     C77197   6.227   4.095   6.418 -0.9221 -0.0563  0.4736
  560MOL0     C77198   6.254   4.012   6.318  0.3671  0.1978  0.5345
  560MOL0     C77199   6.245   4.044   6.181 -0.7426  0.0640 -0.0729
  560MOL0     C77200   6.214   4.175   6.143 -0.3007  0.1583  0.2119
  560MOL0     O77201   6.209   4.201   6.004 -0.1838  0.2278 -0.2117
  560MOL0     C77202   6.191   4.340   5.960  0.2491 -0.0444 -0.7804
  560MOL0     C77203   6.046   4.406   5.953 -0.0744 -0.8857  0.0633
  560MOL0     C77204   5.977   4.398   5.813 -0.3014 -0.2331 -0.6115
  560MOL0     C77205   5.851   4.481   5.768 -0.1400  0.2249  0.3226
  560MOL0     C77206   5.843   4.598   5.863 -0.2173  1.1037 -0.8220
  560MOL0     C77207   5.832   4.701   5.918 -0.2195  0.2440 -0.1089
  560MOL0     C77208   6.172   4.265   6.247 -0.8186 -0.7610  0.6864
  560MOL0     C77209   6.174   4.225   6.377 -0.5508 -0.0291  0.0601
  560MOL0     C77210   6.128   4.326   6.478  0.4483  0.9979  0.5580
  560MOL0     H77211   6.514   4.046   6.715  0.6708  1.8876  2.4777
  560MOL0     H77212   6.576   4.015   6.964  2.3400  0.3365 -0.9021
  560MOL0     H77213   6.315   3.745   7.223 -0.9984  1.3810 -1.0938
  560MOL0     H77214   6.477   3.762   7.298  0.1278 -3.2527  0.1053
  560MOL0     H77215   6.477   3.643   7.018 -0.0154  1.6429  0.5605
  560MOL0     H77216   6.578   3.620   7.163 -0.0583  1.7120  1.2171
  560MOL0     H77217   6.317   3.506   7.243 -3.4511  3.1082 -1.2567
  560MOL0     H77218   6.307   3.497   7.070 -1.4231 -0.9246  0.6397
  560MOL0     H77219   6.524   3.358   7.072  0.7698  3.7938 -0.2276
  560MOL0     H77220   6.510   3.360   7.259 -0.6024  0.3409  0.2002
  560MOL0     H77221   6.284   3.274   7.082  0.5538  0.6954  0.1027
  560MOL0     H77222   6.292   3.266   7.260  0.4826 -1.9162  0.8592
  560MOL0     H77223   6.356   3.039   7.166  4.2163 -3.9763  0.9367
  560MOL0     H77224   6.463   3.118   7.054  1.1875 -2.6339  0.9795
  560MOL0     H77225   6.625   3.146   7.244 -0.7696 -0.2814  0.4190
  560MOL0     H77226   6.555   2.982   7.228 -2.2771 -0.2508 -1.1251
  560MOL0     H77227   6.444   3.174   7.444 -0.3344 -1.2793  2.4240
  560MOL0     H77228   6.406   3.003   7.412  0.5581 -0.9084  1.6034
  560MOL0     H77229   6.765   3.169   7.442  1.2979  1.4762  1.5221
  560MOL0     H77230   6.921   3.200   7.630 -2.4202 -2.0472 -2.6788
  560MOL0     H77231   6.969   3.063   7.725  0.3025  0.4561  1.6141
  560MOL0     H77232   6.764   3.259   7.828 -0.0347 -1.8345  3.7369
  560MOL0     H77233   6.803   3.110   7.900  0.4030  0.5792  1.8417
  560MOL0     H77234   7.054   3.196   7.890  0.8176  1.3865 -0.3299
  560MOL0     H77235   6.975   3.355   7.870 -5.4010  1.9579 -0.1867
  560MOL0     H77236   6.855   3.341   8.079 -2.0720 -1.7407 -0.1983
  560MOL0     H77237   6.917   3.178   8.114  0.8835  1.1928  1.7739
  560MOL0     H77238   7.069   3.108   8.222  1.5579  0.1947 -1.6916
  560MOL0     H77239   7.187   2.906   8.335 -0.9919  0.3118  0.2223
  560MOL0     H77240   7.206   2.971   8.498 -0.0570  1.8398 -0.0606
  560MOL0     H77241   7.355   2.950   8.392  0.3703  3.1081  2.8299
  560MOL0     H77242   7.385   2.876   8.725  1.4562 -2.1553  1.1145
  560MOL0     H77243   7.523   2.828   8.935 -0.4314 -0.5539 -0.8502
  560MOL0     H77244   7.792   3.117   9.108 -0.8887  0.0337  0.6343
  560MOL0     H77245   7.647   3.126   9.222 -1.2490  0.3822 -0.3539
  560MOL0     H77246   7.851   2.916   9.239  1.9687  2.1705  0.5737
  560MOL0     H77247   7.849   3.061   9.333 -0.2749 -0.5111  1.4662
  560MOL0     H77248   7.631   2.854   9.300 -1.2896  1.3524 -0.6248
  560MOL0     H77249   7.601   2.999   9.392 -0.7236 -0.4172 -1.3734
  560MOL0     H77250   7.820   2.928   9.528 -2.3795  1.8610  0.9060
  560MOL0     H77251   7.815   2.773   9.431 -2.0703  0.3576 -3.4783
  560MOL0     H77252   7.601   2.884   9.613 -2.3899 -0.9489 -1.2196
  560MOL0     H77253   7.605   2.722   9.544  0.1863 -1.4289  2.0571
  560MOL0     H77254   7.800   2.828   9.754  0.7497  0.5604 -1.5856
  560MOL0     H77255   7.822   2.678   9.675  1.0998  1.0639  0.6903
  560MOL0     H77256   7.546   2.737   9.799  0.3807  2.5911 -1.9214
  560MOL0     H77257   7.682   2.686   9.905 -2.4595 -1.9476  0.8083
  560MOL0     H77258   7.576   2.543   9.654 -1.7478 -0.8117  1.1421
  560MOL0     H77259   7.532   2.490   9.807  1.1236 -1.8117  0.0451
  560MOL0     H77260   7.648   3.224   8.983  1.0736  0.3860 -0.2276
  560MOL0     H77261   7.527   3.293   8.760 -0.2883  0.6969  1.3749
  560MOL0     H77262   7.402   3.415   8.409 -0.7597  3.7667 -1.6645
  560MOL0     H77263   7.248   3.487   8.223 -1.3682 -1.8430 -3.7701
  560MOL0     H77264   6.229   3.758   6.992  1.9259 -3.0359 -2.8913
  560MOL0     H77265   6.188   3.778   6.755 -0.1561 -1.2876  0.2340
  560MOL0     H77266   6.300   3.914   6.330  0.5026  0.1189 -0.4915
  560MOL0     H77267   6.274   3.967   6.110  2.1703 -0.5821  1.6831
  560MOL0     H77268   6.257   4.386   6.035 -0.1312 -1.2256  0.3096
  560MOL0     H77269   6.238   4.352   5.862  0.5199 -3.0900 -1.1105
  560MOL0     H77270   6.067   4.512   5.963 -1.9302 -0.6006  1.5154
  560MOL0     H77271   5.978   4.392   6.037  0.1712  0.3630  0.4898
  560MOL0     H77272   6.048   4.424   5.733 -0.1558  3.6197  0.5564
  560MOL0     H77273   5.957   4.292   5.797 -1.8417  0.1229 -1.2175
  560MOL0     H77274   5.761   4.422   5.785  0.7187 -1.3534 -0.3241
  560MOL0     H77275   5.858   4.510   5.662  1.5612 -1.3786 -0.0648
  560MOL0     H77276   5.839   4.802   5.951  1.3159  0.3893 -0.8047
  560MOL0     H77277   6.166   4.373   6.235  3.0688 -0.7053 -3.2440
  560MOL0     H77278   6.088   4.281   6.569 -2.1279  2.1170  0.0742
  560MOL0     H77279   6.215   4.389   6.498  1.6377 -0.3328 -0.2369
  560MOL0     H77280   6.049   4.384   6.429  2.2296  1.7894 -1.5140
  561MOL0     O77281   2.081   3.970   2.529  0.0946  0.4432  0.0220
  561MOL0     C77282   2.120   4.083   2.522  0.1704 -0.1999 -0.6266
  561MOL0     O77283   2.037   4.193   2.524  0.1178 -0.5403  0.1023
  561MOL0     C77284   1.904   4.192   2.515  0.5587  0.6034 -0.1791
  561MOL0     C77285   1.837   4.311   2.545 -0.0339  0.2834 -0.1559
  561MOL0     C77286   1.695   4.307   2.550 -0.0658 -0.3035 -0.0391
  561MOL0     C77287   1.619   4.197   2.513  0.4345  1.4614 -0.4754
  561MOL0     O77288   1.481   4.177   2.526 -0.1780 -0.5165 -0.2271
  561MOL0     C77289   1.411   4.287   2.583  0.2438 -0.3748 -0.1829
  561MOL0     C77290   1.416   4.410   2.478  1.2155 -0.5324 -0.3050
  561MOL0     C77291   1.332   4.376   2.361 -0.3761  0.2598  0.3721
  561MOL0     C77292   1.321   4.480   2.252 -0.5745 -0.5852  0.2196
  561MOL0     C77293   1.239   4.604   2.299  0.3682 -0.6549  0.3427
  561MOL0     C77294   1.233   4.730   2.194 -0.8482  0.4998  0.1264
  561MOL0     C77295   1.144   4.839   2.258 -0.5986 -1.2213  1.0028
  561MOL0     C77296   1.152   4.979   2.185 -0.2058 -0.8019  0.4732
  561MOL0     N77297   1.067   5.087   2.248  0.2457  0.4367  0.2253
  561MOL0     C77298   0.942   5.120   2.208  0.6348  0.5530  0.0840
  561MOL0     C77299   0.909   5.221   2.294  0.8963 -0.1469 -1.1339
  561MOL0     C77300   0.772   5.292   2.299 -0.0714  0.0999 -1.0223
  561MOL0     C77301   0.785   5.445   2.312 -1.3441 -0.6237 -0.2932
  561MOL0     C77302   0.668   5.519   2.373  0.1670 -0.6935  0.5894
  561MOL0     C77303   0.644   5.509   2.521 -0.1933 -0.6205 -0.7488
  561MOL0     O77304   0.531   5.594   2.553  0.1131 -0.3507  0.4551
  561MOL0     C77305   0.512   5.652   2.682  0.5654 -0.5881  0.6749
  561MOL0     C77306   0.407   5.735   2.701 -0.1271 -0.0813  1.2886
  561MOL0     C77307   0.384   5.801   2.826  0.5757 -0.6326 -0.1914
  561MOL0     C77308   0.264   5.896   2.838  0.8134 -0.9820 -0.4551
  561MOL0     C77309   0.475   5.786   2.928 -1.9042 -0.6778 -0.0425
  561MOL0     C77310   0.467   5.862   3.064  0.4083  0.1749  0.5832
  561MOL0     O77311   0.585   5.868   3.136 -0.0768 -0.2794 -0.6288
  561MOL0     C77312   0.578   5.911   3.270  1.1872 -0.0151  0.8950
  561MOL0     C77313   0.462   5.895   3.352 -0.5106  0.1891  0.4701
  561MOL0     C77314   0.473   5.934   3.485 -0.2650  0.0762 -0.0893
  561MOL0     C77315   0.577   6.009   3.532 -0.5653  0.2532  0.0610
  561MOL0     O77316   0.606   6.053   3.667 -0.0988  0.3143 -0.2020
  561MOL0     C77317   0.488   6.112   3.728  0.0045  0.9100  0.1384
  561MOL0     C77318   0.538   6.157   3.864 -0.7009 -1.0367  0.4002
  561MOL0     C77319   0.420   6.142   3.964  0.1340  0.4202  0.7730
  561MOL0     C77320   0.478   6.133   4.118  0.6817  0.1437  0.1916
  561MOL0     C77321   0.358   6.090   4.208  0.3142  0.2434 -0.7911
  561MOL0     C77322   0.391   6.107   4.361 -0.2177 -0.2780 -0.9461
  561MOL0     C77323   0.536   6.078   4.420  0.8581  0.0743 -0.1749
  561MOL0     C77324   0.542   6.085   4.574 -0.0523  0.2524  0.1513
  561MOL0    Cl77325   0.702   6.123   4.620  0.1982  0.0753  0.0536
  561MOL0     C77326   0.688   6.023   3.451 -0.1971 -0.6146 -0.1655
  561MOL0     C77327   0.698   5.972   3.320 -0.0380  0.0376 -0.1157
  561MOL0     O77328   0.359   5.918   3.094 -0.2035  0.4734 -0.4909
  561MOL0     C77329   0.581   5.700   2.903  0.3116 -0.4533  0.5232
  561MOL0     C77330   0.598   5.635   2.784  0.1188 -0.1164 -0.3525
  561MOL0     N77331   1.010   5.244   2.384  0.0616 -0.8921  0.7036
  561MOL0     N77332   1.102   5.153   2.353 -0.0878 -0.5491  0.2224
  561MOL0     C77333   1.689   4.083   2.472 -0.1698 -0.0731 -0.4006
  561MOL0     C77334   1.823   4.091   2.468 -0.7586 -0.1021 -1.3256
  561MOL0     C77335   2.264   4.111   2.510  0.1287 -0.5966  0.6216
  561MOL0     C77336   2.295   4.228   2.426 -0.7557  0.3634 -0.2313
  561MOL0     C77337   2.418   4.270   2.401 -1.2740  0.8380 -0.4009
  561MOL0     C77338   2.525   4.192   2.448 -0.7055  0.1297  0.3467
  561MOL0     O77339   2.651   4.250   2.430 -0.3972 -0.5188  0.2729
  561MOL0     C77340   2.772   4.173   2.457 -0.2311  0.1897 -0.2251
  561MOL0     C77341   2.901   4.261   2.445  0.2277  0.9189  1.0719
  561MOL0     C77342   3.023   4.181   2.483  0.0049  0.6692 -0.4539
  561MOL0     C77343   3.157   4.262   2.480  0.0916 -0.1077  0.6134
  561MOL0     C77344   3.183   4.298   2.337  0.1077  0.0908 -0.7514
  561MOL0     C77345   3.207   4.325   2.218  0.6069 -0.0603  0.3464
  561MOL0     C77346   2.501   4.076   2.523  0.0468 -0.8128  0.1265
  561MOL0     C77347   2.367   4.032   2.558  0.1618  0.7848  0.5556
  561MOL0     C77348   2.368   3.900   2.621 -0.3432  0.6648 -0.6049
  561MOL0     H77349   1.893   4.390   2.593 -0.4715 -1.0449  2.7303
  561MOL0     H77350   1.659   4.397   2.598  2.6775  0.2810  1.1287
  561MOL0     H77351   1.469   4.320   2.670 -0.2252  1.0322 -0.3852
  561MOL0     H77352   1.314   4.252   2.619 -0.8326  0.8765 -1.7328
  561MOL0     H77353   1.381   4.489   2.545  3.1231 -1.9376  2.5393
  561MOL0     H77354   1.516   4.440   2.447  2.0551 -3.1792 -0.4344
  561MOL0     H77355   1.373   4.290   2.307  0.4151  0.4531  0.6595
  561MOL0     H77356   1.238   4.349   2.411  0.2516  0.9850  2.0168
  561MOL0     H77357   1.423   4.510   2.230 -0.3445 -1.4033  0.1400
  561MOL0     H77358   1.284   4.442   2.156  2.0896  1.3422 -1.7087
  561MOL0     H77359   1.276   4.650   2.391  1.8276  0.1400 -0.6003
  561MOL0     H77360   1.136   4.574   2.322  0.3692 -0.1971  0.9676
  561MOL0     H77361   1.337   4.762   2.186 -0.2540 -0.6240  2.4389
  561MOL0     H77362   1.185   4.706   2.099 -0.8010  0.8526  0.0121
  561MOL0     H77363   1.174   4.841   2.363 -1.3152  1.6147  1.2103
  561MOL0     H77364   1.040   4.806   2.263 -1.9596  2.6416  1.0424
  561MOL0     H77365   1.254   5.019   2.178 -1.1458  1.9937  1.3897
  561MOL0     H77366   1.121   4.970   2.081  1.6095 -1.1915 -0.0741
  561MOL0     H77367   0.891   5.062   2.132  0.6310  0.6792 -0.0101
  561MOL0     H77368   0.719   5.247   2.383 -0.3951 -0.7134 -1.6400
  561MOL0     H77369   0.706   5.265   2.216 -1.4408 -2.0157  0.6262
  561MOL0     H77370   0.867   5.469   2.381 -2.9873 -0.9065  1.8459
  561MOL0     H77371   0.798   5.497   2.216  2.6654  0.0167  0.4238
  561MOL0     H77372   0.677   5.623   2.341 -1.4821 -0.8005 -0.3125
  561MOL0     H77373   0.587   5.473   2.316  1.4522 -1.6055 -0.5595
  561MOL0     H77374   0.611   5.408   2.546 -1.7561 -0.2760 -1.3112
  561MOL0     H77375   0.734   5.540   2.576 -1.0173 -0.2234  0.4251
  561MOL0     H77376   0.332   5.749   2.624 -0.7433 -0.9315  1.7170
  561MOL0     H77377   0.305   5.994   2.866  1.2082 -1.6260  1.3260
  561MOL0     H77378   0.194   5.859   2.913 -2.5799  3.1859 -1.1761
  561MOL0     H77379   0.211   5.910   2.743  0.0217  0.4874  0.1639
  561MOL0     H77380   0.382   5.828   3.320 -0.3494 -0.7730  2.0007
  561MOL0     H77381   0.397   5.908   3.558  1.7274  1.6355  2.7065
  561MOL0     H77382   0.432   6.190   3.675  0.3043  0.2922 -1.1008
  561MOL0     H77383   0.416   6.030   3.737  0.4727  0.3623 -1.0377
  561MOL0     H77384   0.634   6.110   3.886 -0.8105 -0.1661  3.1417
  561MOL0     H77385   0.566   6.262   3.853  1.0826 -1.4632  0.6271
  561MOL0     H77386   0.370   6.046   3.947 -0.9245  0.6009  2.6164
  561MOL0     H77387   0.356   6.229   3.950  0.2906  0.5173  0.6519
  561MOL0     H77388   0.527   6.224   4.152  0.9331 -0.3517  1.1897
  561MOL0     H77389   0.552   6.053   4.122  1.0266  0.2521 -2.4332
  561MOL0     H77390   0.269   6.149   4.183  1.4313  1.9383 -0.9568
  561MOL0     H77391   0.349   5.983   4.187  5.2421 -1.0084  1.8775
  561MOL0     H77392   0.311   6.055   4.415 -0.2264 -0.1210 -0.8066
  561MOL0     H77393   0.381   6.213   4.385  0.7398 -0.3807  0.0055
  561MOL0     H77394   0.599   6.146   4.361 -0.8993  1.5798 -0.4035
  561MOL0     H77395   0.569   5.978   4.392  0.4380 -0.8075  2.2296
  561MOL0     H77396   0.487   6.008   4.628 -0.3702  0.0235 -0.4872
  561MOL0     H77397   0.493   6.176   4.609  0.4975  1.1143 -1.2399
  561MOL0     H77398   0.771   6.085   3.484  0.2714 -0.0268 -2.3271
  561MOL0     H77399   0.795   5.974   3.270  0.3341  1.9967  0.5749
  561MOL0     H77400   0.658   5.676   2.976  1.2382 -2.9471 -1.1356
  561MOL0     H77401   0.690   5.579   2.771  1.4024  2.0172 -0.8208
  561MOL0     H77402   1.637   3.990   2.454  1.3318 -0.6321 -2.0921
  561MOL0     H77403   1.872   3.996   2.453  1.6767  0.6932  0.8632
  561MOL0     H77404   2.222   4.292   2.378 -0.3610  0.3996 -0.7956
  561MOL0     H77405   2.433   4.351   2.330 -3.1930  3.0276  1.4773
  561MOL0     H77406   2.783   4.134   2.559  1.3036  1.9263  0.3292
  561MOL0     H77407   2.781   4.089   2.387 -0.7454  0.5146 -0.6781
  561MOL0     H77408   2.893   4.358   2.495 -1.9598  1.6105 -0.4367
  561MOL0     H77409   2.904   4.290   2.340  0.9729 -1.1336  0.4774
  561MOL0     H77410   3.006   4.139   2.583 -0.6867 -2.0599 -1.6379
  561MOL0     H77411   3.034   4.096   2.416 -3.0837  2.4987 -3.6030
  561MOL0     H77412   3.245   4.216   2.527 -0.0167 -0.9985 -0.0279
  561MOL0     H77413   3.139   4.361   2.523 -0.8197  0.8919 -1.9332
  561MOL0     H77414   3.226   4.347   2.115 -1.4421  0.9338  0.1166
  561MOL0     H77415   2.588   4.025   2.562  1.9718  1.0667 -1.4396
  561MOL0     H77416   2.365   3.823   2.543 -0.1211 -0.1864  0.2071
  561MOL0     H77417   2.459   3.881   2.679 -1.1205 -2.5236 -0.2644
  561MOL0     H77418   2.282   3.872   2.682 -0.1754 -1.4381 -1.2604
  562MOL0     O77419   8.303   5.444   3.099 -0.0867 -0.8408  0.1198
  562MOL0     C77420   8.395   5.364   3.054 -0.7152 -0.4129 -0.3605
  562MOL0     O77421   8.429   5.236   3.101  0.2656 -0.1264  0.3563
  562MOL0     C77422   8.338   5.171   3.176 -0.4744 -0.4706  0.4812
  562MOL0     C77423   8.297   5.042   3.139 -0.4276 -0.2078 -0.3143
  562MOL0     C77424   8.186   4.981   3.201 -0.0975 -0.1518 -0.9266
  562MOL0     C77425   8.117   5.040   3.304  0.0555 -0.6499 -0.0729
  562MOL0     O77426   8.022   4.967   3.369  0.5653 -0.5643  0.2093
  562MOL0     C77427   7.957   5.030   3.482 -0.5590 -0.3035  2.0251
  562MOL0     C77428   7.857   4.949   3.541  0.4620  1.1497 -0.0798
  562MOL0     C77429   7.747   5.048   3.590  0.1824  0.4006 -0.2873
  562MOL0     C77430   7.637   4.976   3.659 -0.4744  1.4128  0.1288
  562MOL0     C77431   7.522   5.063   3.709 -0.6064 -0.8420  0.3935
  562MOL0     C77432   7.389   4.988   3.716 -0.2290  0.6230 -0.1952
  562MOL0     C77433   7.386   4.860   3.799 -0.2784 -0.3029 -0.1165
  562MOL0     C77434   7.414   4.861   3.949 -0.3279 -0.4312 -0.0411
  562MOL0     N77435   7.300   4.911   4.025 -0.2130 -0.5429 -0.3091
  562MOL0     C77436   7.259   5.045   4.027 -0.0587  0.2169  0.1221
  562MOL0     C77437   7.169   5.053   4.125  0.5494  0.2937 -0.0506
  562MOL0     C77438   7.097   5.183   4.171  0.7204  0.2085 -0.0867
  562MOL0     C77439   7.170   5.287   4.249 -0.3684 -0.1213 -0.2319
  562MOL0     C77440   7.235   5.401   4.155 -0.9656  0.5194 -0.2812
  562MOL0     C77441   7.135   5.503   4.118  0.1093 -0.3795 -0.1237
  562MOL0     O77442   7.194   5.631   4.076  0.5437 -0.2546  0.4537
  562MOL0     C77443   7.104   5.719   4.017  0.1897 -0.1290  0.3413
  562MOL0     C77444   7.146   5.858   4.023 -0.4056  0.4519 -0.4703
  562MOL0     C77445   7.067   5.960   3.987 -0.0027 -0.2137 -0.1828
  562MOL0     C77446   7.119   6.104   3.989  0.3159 -0.1307 -0.2660
  562MOL0     C77447   6.939   5.940   3.943  0.8263 -0.2050 -0.6885
  562MOL0     C77448   6.848   6.050   3.911 -0.0339  0.0912 -0.1597
  562MOL0     O77449   6.874   6.117   3.797 -0.3120  0.0400  0.9942
  562MOL0     C77450   6.795   6.219   3.743 -0.6588 -1.1074 -0.8237
  562MOL0     C77451   6.755   6.206   3.608 -0.0674 -0.6846 -0.5825
  562MOL0     C77452   6.660   6.304   3.556 -0.2456  0.5037 -0.0872
  562MOL0     C77453   6.614   6.412   3.633 -0.3261  0.5642 -0.1443
  562MOL0     O77454   6.528   6.514   3.594 -0.6128 -0.3144 -0.1054
  562MOL0     C77455   6.422   6.491   3.508  0.4576  0.5389  1.1496
  562MOL0     C77456   6.445   6.501   3.356 -0.5266 -0.3633  0.6777
  562MOL0     C77457   6.513   6.635   3.324 -0.5763  0.2667  0.4257
  562MOL0     C77458   6.532   6.655   3.168  0.2915  0.2996 -1.1763
  562MOL0     C77459   6.631   6.772   3.148  1.0731 -0.2526 -0.3464
  562MOL0     C77460   6.574   6.910   3.155 -0.2474 -0.4748 -0.3972
  562MOL0     C77461   6.481   6.956   3.047 -0.6493  0.6921  0.3757
  562MOL0     C77462   6.461   7.111   3.046  0.3916  0.7983 -0.0690
  562MOL0    Cl77463   6.381   7.199   3.190  0.0085 -0.2017 -0.1738
  562MOL0     C77464   6.671   6.427   3.761  0.2728  0.2924  0.3108
  562MOL0     C77465   6.761   6.332   3.815  0.8731  0.5624 -0.1989
  562MOL0     O77466   6.753   6.070   3.996  0.1919 -0.2335  0.2132
  562MOL0     C77467   6.892   5.810   3.931  0.4317  0.1341  0.5264
  562MOL0     C77468   6.970   5.700   3.975 -0.5883  0.2007 -0.0793
  562MOL0     N77469   7.138   4.934   4.167 -0.4991  0.0821  0.2958
  562MOL0     N77470   7.217   4.845   4.107  0.8333 -0.2139  0.6529
  562MOL0     C77471   8.160   5.171   3.348  0.4637  0.2996 -0.3487
  562MOL0     C77472   8.272   5.234   3.287 -0.2398 -0.5676 -0.1487
  562MOL0     C77473   8.501   5.416   2.967 -0.9168  0.3466 -0.6127
  562MOL0     C77474   8.637   5.364   2.989  0.0750 -0.3831 -0.6751
  562MOL0     C77475   8.742   5.402   2.902  0.1232  0.1158  0.4237
  562MOL0     C77476   8.710   5.485   2.794 -0.0732 -0.4258  0.2062
  562MOL0     O77477   8.810   5.524   2.701 -0.5373  0.0156 -0.2419
  562MOL0     C77478   8.912   5.601   2.766  0.2756  0.8116  0.6275
  562MOL0     C77479   8.988   5.688   2.661  0.2252  0.3704  0.5944
  562MOL0     C77480   8.897   5.804   2.610 -0.4879  0.1930 -0.3479
  562MOL0     C77481   8.927   5.846   2.470  0.0861 -0.3310  0.6592
  562MOL0     C77482   9.059   5.915   2.455  0.5957  0.2054  0.7327
  562MOL0     C77483   9.156   5.984   2.467 -0.8358  0.0504  0.9830
  562MOL0     C77484   8.582   5.539   2.776 -1.0664 -0.2236  0.2046
  562MOL0     C77485   8.474   5.502   2.860 -0.2715  1.1441  0.5439
  562MOL0     C77486   8.336   5.552   2.833  0.1508  0.6415 -0.5483
  562MOL0     H77487   8.362   4.991   3.069 -0.4572  1.2489 -1.4311
  562MOL0     H77488   8.145   4.884   3.176 -0.5634 -0.1464 -0.2142
  562MOL0     H77489   7.916   5.120   3.435 -0.8343 -1.9402 -1.2065
  562MOL0     H77490   8.025   5.057   3.563  0.1003  0.8691  1.1357
  562MOL0     H77491   7.799   4.905   3.459 -1.0377 -3.1799  2.9339
  562MOL0     H77492   7.889   4.881   3.621  3.2435  2.0447 -0.3174
  562MOL0     H77493   7.783   5.126   3.657  0.2693  1.8919 -1.9820
  562MOL0     H77494   7.712   5.099   3.500  2.8995  1.4032 -0.8871
  562MOL0     H77495   7.596   4.897   3.595 -1.8243  0.3163  2.2007
  562MOL0     H77496   7.676   4.922   3.746 -0.8468 -1.9445 -1.6192
  562MOL0     H77497   7.497   5.148   3.644 -0.6179 -1.5415 -0.5406
  562MOL0     H77498   7.551   5.111   3.803 -1.4021  0.9332 -0.2079
  562MOL0     H77499   7.310   5.058   3.745 -1.7613 -0.3098 -1.9154
  562MOL0     H77500   7.346   4.941   3.627  1.0708 -0.9238 -0.0501
  562MOL0     H77501   7.458   4.803   3.740  0.1483 -2.3902  2.2393
  562MOL0     H77502   7.294   4.801   3.789  0.6302 -1.7797 -0.0354
  562MOL0     H77503   7.440   4.759   3.979  4.2343  0.6829  0.4162
  562MOL0     H77504   7.498   4.929   3.967  0.7456 -1.8051  0.2722
  562MOL0     H77505   7.302   5.126   3.968  1.4100 -0.7193 -0.1712
  562MOL0     H77506   7.011   5.145   4.227  1.1334 -2.1326 -0.8992
  562MOL0     H77507   7.076   5.219   4.070  0.8132 -1.9719 -0.9437
  562MOL0     H77508   7.112   5.325   4.334 -3.5768  0.7924 -2.6309
  562MOL0     H77509   7.254   5.237   4.298 -0.1707  0.2498 -0.1902
  562MOL0     H77510   7.309   5.450   4.219  0.3034 -1.9852  0.3144
  562MOL0     H77511   7.286   5.367   4.064 -0.8867  2.8206 -1.1628
  562MOL0     H77512   7.068   5.453   4.047  1.0756 -3.4889  0.9760
  562MOL0     H77513   7.072   5.523   4.204 -2.3531 -1.8294 -1.4592
  562MOL0     H77514   7.245   5.888   4.057 -0.4549 -0.0037  0.1093
  562MOL0     H77515   7.073   6.173   4.060  0.2660  0.2619 -0.6716
  562MOL0     H77516   7.134   6.149   3.890  5.4266  0.1064  0.3726
  562MOL0     H77517   7.223   6.104   4.023  0.1925 -2.3560  0.2633
  562MOL0     H77518   6.807   6.130   3.549  1.8118  0.2617 -0.2452
  562MOL0     H77519   6.626   6.305   3.453  2.4930 -1.0644 -1.1029
  562MOL0     H77520   6.380   6.395   3.539  0.7121  0.0004 -0.1541
  562MOL0     H77521   6.352   6.571   3.534  2.7328  3.7669 -1.7703
  562MOL0     H77522   6.511   6.418   3.329  0.2804  0.0608  1.3037
  562MOL0     H77523   6.350   6.498   3.302  0.1722 -1.3711 -0.5348
  562MOL0     H77524   6.615   6.623   3.363 -0.9890 -0.0904  1.4334
  562MOL0     H77525   6.460   6.716   3.374  1.3918  0.4242  2.4117
  562MOL0     H77526   6.434   6.670   3.123 -0.1020 -1.4734 -0.9773
  562MOL0     H77527   6.565   6.562   3.120 -0.0585  2.0934 -5.3514
  562MOL0     H77528   6.715   6.770   3.217 -0.5369  2.6683  1.8967
  562MOL0     H77529   6.679   6.756   3.051 -0.3928  0.6820 -1.2822
  562MOL0     H77530   6.660   6.976   3.157 -0.6109  0.0909 -1.9732
  562MOL0     H77531   6.529   6.916   3.255  1.1433 -0.1275  0.2302
  562MOL0     H77532   6.382   6.909   3.053  1.5656 -4.5955  0.3934
  562MOL0     H77533   6.521   6.931   2.948 -2.4506  2.8429 -0.9894
  562MOL0     H77534   6.402   7.141   2.959  0.3678 -0.3768 -0.4740
  562MOL0     H77535   6.560   7.147   3.016  0.1870 -0.5909 -2.7244
  562MOL0     H77536   6.650   6.519   3.814  0.3903 -0.6333  2.0444
  562MOL0     H77537   6.789   6.356   3.917 -2.2651  1.9786  0.4460
  562MOL0     H77538   6.788   5.796   3.902  0.5935  2.0079 -1.1686
  562MOL0     H77539   6.933   5.598   3.980  2.4819 -1.0789 -0.8312
  562MOL0     H77540   8.104   5.218   3.428 -1.5098 -1.0452 -0.8682
  562MOL0     H77541   8.309   5.326   3.330  1.2125 -0.7026 -1.0494
  562MOL0     H77542   8.658   5.287   3.062  1.4828  0.7634  0.1526
  562MOL0     H77543   8.844   5.367   2.911  0.2046  0.6926  2.0503
  562MOL0     H77544   8.862   5.670   2.835 -0.7238  0.2830  0.4506
  562MOL0     H77545   8.991   5.537   2.807 -0.0664 -1.7393 -2.2994
  562MOL0     H77546   9.010   5.620   2.579  0.3246  1.4193 -0.2790
  562MOL0     H77547   9.081   5.722   2.706  0.6582  0.4728 -0.3578
  562MOL0     H77548   8.794   5.768   2.621  0.4750 -1.9847  2.8240
  562MOL0     H77549   8.918   5.888   2.678  0.1585 -1.3740  1.4667
  562MOL0     H77550   8.858   5.927   2.445 -1.4292 -1.4027  1.2420
  562MOL0     H77551   8.923   5.757   2.406  2.3642 -0.4493  0.5896
  562MOL0     H77552   9.238   6.053   2.468 -2.6836  2.3805  0.9386
  562MOL0     H77553   8.560   5.616   2.702 -1.8557  0.4454  1.0980
  562MOL0     H77554   8.309   5.629   2.905  0.7919 -1.6668  2.3322
  562MOL0     H77555   8.332   5.580   2.727  1.7714 -0.1407 -0.8478
  562MOL0     H77556   8.261   5.475   2.855  1.2151 -0.1414  0.4550
  563MOL0     O77557  11.201   1.268  11.452 -0.8117 -0.6355  0.3062
  563MOL0     C77558  11.129   1.368  11.442 -0.0262  0.2316 -0.7520
  563MOL0     O77559  11.000   1.366  11.480  0.1366 -0.1141  0.5268
  563MOL0     C77560  10.933   1.245  11.500  0.7786  0.6312  0.5284
  563MOL0     C77561  10.924   1.188  11.624  0.6834 -0.7878  0.6919
  563MOL0     C77562  10.876   1.059  11.643 -0.5681  1.1991  0.9553
  563MOL0     C77563  10.848   0.986  11.532 -0.2023  0.0930  0.5743
  563MOL0     O77564  10.815   0.852  11.555 -0.0096  0.3720 -0.9828
  563MOL0     C77565  10.752   0.778  11.447 -0.6022  0.3619  0.0390
  563MOL0     C77566  10.715   0.637  11.485 -0.8561  0.9987  0.2870
  563MOL0     C77567  10.647   0.617  11.616  0.6306  0.9568  0.5029
  563MOL0     C77568  10.588   0.473  11.621  0.1437  0.7591 -0.8232
  563MOL0     C77569  10.527   0.430  11.761  0.1087  0.6023  0.2203
  563MOL0     C77570  10.464   0.286  11.755 -0.4589 -0.2265 -0.4333
  563MOL0     C77571  10.352   0.258  11.649 -0.6324  1.1161  0.2295
  563MOL0     C77572  10.263   0.152  11.706  0.1748 -0.4941 -0.0123
  563MOL0     N77573  10.318   0.013  11.702  0.3340 -0.6687 -0.2571
  563MOL0     C77574  10.398  -0.035  11.801 -0.1221 -0.5746 -1.0534
  563MOL0     C77575  10.440  -0.150  11.740  0.2139  0.2155 -0.2792
  563MOL0     C77576  10.532  -0.253  11.811 -0.0000 -0.7221  0.1682
  563MOL0     C77577  10.573  -0.369  11.719  0.0903  0.4607  0.2021
  563MOL0     C77578  10.657  -0.471  11.789 -1.2441 -0.5328 -0.6115
  563MOL0     C77579  10.600  -0.558  11.908  0.1173  0.2859  0.1127
  563MOL0     O77580  10.671  -0.675  11.947  0.1811  0.2301  0.0661
  563MOL0     C77581  10.710  -0.762  11.852 -0.3347  0.9081  0.1543
  563MOL0     C77582  10.637  -0.820  11.745 -0.0344 -0.1246 -0.1820
  563MOL0     C77583  10.692  -0.922  11.664 -1.0303 -0.6747 -0.6413
  563MOL0     C77584  10.609  -0.970  11.551  1.0875  0.3747 -0.0579
  563MOL0     C77585  10.825  -0.975  11.684 -0.3299 -0.3202 -0.5366
  563MOL0     C77586  10.900  -1.079  11.607 -0.2869  0.5632  0.2302
  563MOL0     O77587  11.017  -1.118  11.656 -0.4933  0.0551 -0.6110
  563MOL0     C77588  11.101  -1.196  11.575 -0.0649 -0.3141  0.9779
  563MOL0     C77589  11.149  -1.150  11.446  0.3679  0.3157  0.6659
  563MOL0     C77590  11.225  -1.244  11.365  0.0681  0.1712  0.1977
  563MOL0     C77591  11.235  -1.381  11.408 -0.4399  0.3893  0.0297
  563MOL0     O77592  11.305  -1.463  11.324 -0.0594  0.0274 -0.0125
  563MOL0     C77593  11.299  -1.604  11.348  0.4020 -0.3344 -0.8397
  563MOL0     C77594  11.349  -1.690  11.228  0.6603 -1.2016 -0.0531
  563MOL0     C77595  11.342  -1.843  11.248  0.5315 -0.2967 -0.9162
  563MOL0     C77596  11.440  -1.907  11.156 -0.6323  0.2165 -0.7530
  563MOL0     C77597  11.426  -2.058  11.161  0.2819  0.8007  0.3795
  563MOL0     C77598  11.534  -2.124  11.083  0.4564 -1.7514 -1.0994
  563MOL0     C77599  11.508  -2.280  11.086  0.2384  0.2306 -0.2969
  563MOL0     C77600  11.631  -2.373  11.060  0.3926  0.3109  0.6741
  563MOL0    Cl77601  11.691  -2.328  10.891  0.2366  0.3840 -0.1473
  563MOL0     C77602  11.179  -1.417  11.523 -0.8663  0.8720 -0.5323
  563MOL0     C77603  11.117  -1.329  11.611 -1.0782  0.8861  0.2543
  563MOL0     O77604  10.848  -1.127  11.507  0.1951 -0.6114  0.3116
  563MOL0     C77605  10.890  -0.913  11.788 -0.5037 -0.3606  1.3483
  563MOL0     C77606  10.833  -0.817  11.868  0.0221  0.1127 -0.3873
  563MOL0     N77607  10.379  -0.169  11.618  0.2179  0.1316  0.4724
  563MOL0     N77608  10.310  -0.069  11.599  0.0987 -0.5539  0.2191
  563MOL0     C77609  10.833   1.047  11.405 -0.3305  0.1439 -0.8131
  563MOL0     C77610  10.884   1.173  11.390 -0.6525 -0.0353 -0.0561
  563MOL0     C77611  11.172   1.501  11.394 -0.7862 -0.6302 -0.1042
  563MOL0     C77612  11.092   1.580  11.324  0.2183 -0.5489 -0.0291
  563MOL0     C77613  11.144   1.696  11.271 -0.0434 -0.5592 -0.6492
  563MOL0     C77614  11.267   1.742  11.295  0.0162 -0.4373 -0.0253
  563MOL0     O77615  11.320   1.842  11.211 -0.0919 -0.1653  0.5717
  563MOL0     C77616  11.445   1.909  11.235 -0.3417  0.2411 -0.4429
  563MOL0     C77617  11.455   2.021  11.141  0.2569  1.7961  0.3174
  563MOL0     C77618  11.578   2.112  11.145 -0.9375 -0.9675 -0.4208
  563MOL0     C77619  11.716   2.063  11.172 -0.1657 -0.2753 -0.8745
  563MOL0     C77620  11.768   1.990  11.051 -0.4299 -1.1440 -0.1905
  563MOL0     C77621  11.802   1.936  10.953  0.1199 -0.0648 -0.8942
  563MOL0     C77622  11.344   1.674  11.389 -1.2665  1.0011  0.8571
  563MOL0     C77623  11.299   1.546  11.435  0.1433  0.4471  0.2468
  563MOL0     C77624  11.401   1.467  11.512 -0.2774  0.3085 -0.7794
  563MOL0     H77625  10.959   1.245  11.709  1.9036 -0.9371  0.3142
  563MOL0     H77626  10.891   1.004  11.735 -1.2078  0.7212  0.7800
  563MOL0     H77627  10.809   0.773  11.353 -2.3787  1.1070 -1.1238
  563MOL0     H77628  10.651   0.814  11.427 -1.1765 -0.9720  0.4355
  563MOL0     H77629  10.654   0.590  11.409 -0.3215  0.2180  0.3267
  563MOL0     H77630  10.805   0.574  11.485 -1.7553 -0.3191  0.7770
  563MOL0     H77631  10.717   0.616  11.700  1.1169 -4.9015  0.4402
  563MOL0     H77632  10.568   0.686  11.645 -0.2495  0.4293 -0.5848
  563MOL0     H77633  10.513   0.450  11.545 -3.0952 -0.8733  2.5488
  563MOL0     H77634  10.677   0.409  11.614  1.3122  1.6283  3.2560
  563MOL0     H77635  10.442   0.496  11.780 -1.5245 -0.9079 -1.4398
  563MOL0     H77636  10.603   0.438  11.839  0.1720  1.4367  0.0779
  563MOL0     H77637  10.535   0.203  11.753  0.1396  0.2752 -2.6904
  563MOL0     H77638  10.414   0.270  11.851 -3.0248 -1.9984 -1.9678
  563MOL0     H77639  10.385   0.225  11.550 -1.1993  0.4978  0.2395
  563MOL0     H77640  10.295   0.351  11.638  0.4434  1.6747 -0.8188
  563MOL0     H77641  10.218   0.196  11.795 -2.7234 -2.6614 -0.2546
  563MOL0     H77642  10.175   0.140  11.642 -1.1937  0.7770  1.5433
  563MOL0     H77643  10.442   0.012  11.888  1.5528 -0.9579 -1.6459
  563MOL0     H77644  10.482  -0.295  11.899 -0.0794 -3.7020 -1.1755
  563MOL0     H77645  10.623  -0.200  11.842  0.0035  0.1874 -1.3071
  563MOL0     H77646  10.486  -0.431  11.694  0.5746 -0.0336 -0.2974
  563MOL0     H77647  10.618  -0.340  11.624 -0.5523  0.8226  0.0047
  563MOL0     H77648  10.681  -0.543  11.710  1.1279 -0.3811 -0.1071
  563MOL0     H77649  10.754  -0.425  11.809  0.3111 -2.9362 -2.1592
  563MOL0     H77650  10.580  -0.488  11.989 -0.7680 -2.8154  2.7638
  563MOL0     H77651  10.502  -0.597  11.881 -0.1371  2.2289 -2.0209
  563MOL0     H77652  10.544  -0.772  11.715  0.7388  0.1183 -2.3471
  563MOL0     H77653  10.662  -0.963  11.456  1.1878  0.4068 -0.0001
  563MOL0     H77654  10.522  -0.907  11.531  2.0124  1.2192 -1.5516
  563MOL0     H77655  10.569  -1.071  11.565 -1.4807  1.4198  0.8661
  563MOL0     H77656  11.143  -1.054  11.396 -0.8540  1.2082  2.4297
  563MOL0     H77657  11.243  -1.216  11.261 -2.5140  1.5621  0.0465
  563MOL0     H77658  11.360  -1.616  11.438 -0.1014  1.2055 -0.2464
  563MOL0     H77659  11.197  -1.636  11.367 -0.4734  1.7623 -1.6197
  563MOL0     H77660  11.294  -1.665  11.137 -0.2864 -2.9316 -0.0109
  563MOL0     H77661  11.455  -1.667  11.214  0.8426 -0.9393  1.5390
  563MOL0     H77662  11.245  -1.879  11.213  1.8949 -4.3220 -1.1467
  563MOL0     H77663  11.360  -1.875  11.352  0.0736  0.8269 -0.4834
  563MOL0     H77664  11.536  -1.857  11.172 -1.2412  1.5616 -1.1077
  563MOL0     H77665  11.422  -1.884  11.051 -0.6943  0.5229 -0.6764
  563MOL0     H77666  11.437  -2.100  11.261 -1.5277 -0.2995  0.1638
  563MOL0     H77667  11.337  -2.095  11.109  2.4632 -2.2460 -1.4825
  563MOL0     H77668  11.628  -2.085  11.124 -0.4043  2.0294 -2.3435
  563MOL0     H77669  11.539  -2.087  10.980  0.6753 -0.9645 -0.8156
  563MOL0     H77670  11.431  -2.301  11.011 -1.0039  1.3323  0.6208
  563MOL0     H77671  11.456  -2.317  11.175 -0.2166 -1.1068 -1.0790
  563MOL0     H77672  11.598  -2.476  11.073 -3.7667  1.5154  1.1557
  563MOL0     H77673  11.720  -2.368  11.124  0.9779 -1.8639  0.1222
  563MOL0     H77674  11.189  -1.521  11.555 -2.1542  0.4377 -1.4828
  563MOL0     H77675  11.072  -1.371  11.700  1.2745  0.0186  1.0995
  563MOL0     H77676  10.987  -0.957  11.808 -0.3887 -1.3228 -1.0604
  563MOL0     H77677  10.889  -0.778  11.953  1.3258  2.8557 -2.3436
  563MOL0     H77678  10.793   0.995  11.319  0.3324  1.4422 -1.9378
  563MOL0     H77679  10.902   1.206  11.288  2.4572  0.8247  0.6690
  563MOL0     H77680  10.988   1.560  11.304 -0.6070  2.6607  0.4815
  563MOL0     H77681  11.077   1.746  11.201  0.4290 -0.7491 -1.2523
  563MOL0     H77682  11.434   1.947  11.337 -0.7778 -1.3071  0.1005
  563MOL0     H77683  11.534   1.845  11.232  1.3839  2.5087 -1.7329
  563MOL0     H77684  11.366   2.083  11.156  1.4486  2.9001  4.2280
  563MOL0     H77685  11.454   1.980  11.040  0.0625  1.3246  0.5085
  563MOL0     H77686  11.581   2.157  11.045 -0.2082  0.7573  0.3489
  563MOL0     H77687  11.556   2.187  11.221 -2.9146  2.0624 -3.6539
  563MOL0     H77688  11.709   1.992  11.255  2.8295 -1.3112 -1.4022
  563MOL0     H77689  11.777   2.148  11.205 -1.8945  0.3221  0.9956
  563MOL0     H77690  11.845   1.874  10.877  2.3145 -0.9300  0.9229
  563MOL0     H77691  11.445   1.697  11.419 -0.2468  0.6368 -1.9619
  563MOL0     H77692  11.482   1.527  11.556  0.1234 -1.5293  1.1787
  563MOL0     H77693  11.352   1.414  11.594  0.8140  1.0479  0.3919
  563MOL0     H77694  11.446   1.397  11.442  3.5001  3.5609 -2.0045
  564MOL0     O77695   1.080   3.225   6.782  0.5658  0.3205 -0.5171
  564MOL0     C77696   1.175   3.305   6.776 -0.3079 -0.6592  0.4216
  564MOL0     O77697   1.293   3.288   6.724 -0.7488 -0.1206 -0.1125
  564MOL0     C77698   1.338   3.159   6.683 -0.0338  0.0186 -0.3230
  564MOL0     C77699   1.437   3.161   6.592 -0.4776 -0.4358 -0.1252
  564MOL0     C77700   1.501   3.041   6.550 -1.1251  0.9284 -0.2830
  564MOL0     C77701   1.454   2.915   6.598 -0.2860  0.5678  0.4239
  564MOL0     O77702   1.518   2.790   6.566 -0.1276  1.1190  0.0815
  564MOL0     C77703   1.590   2.786   6.439  0.0788  0.0252 -0.6313
  564MOL0     C77704   1.556   2.668   6.357 -0.1597  0.0440  0.5605
  564MOL0     C77705   1.605   2.529   6.412 -0.0936 -0.2034 -0.1514
  564MOL0     C77706   1.764   2.506   6.409  0.7399 -0.2182  0.8816
  564MOL0     C77707   1.801   2.417   6.288 -0.0210 -0.4405  0.5000
  564MOL0     C77708   1.762   2.480   6.149  0.0900  0.0884 -0.2494
  564MOL0     C77709   1.869   2.571   6.100 -0.8805 -0.8062  0.1182
  564MOL0     C77710   1.844   2.619   5.957 -1.6547  0.4157 -0.2592
  564MOL0     N77711   1.735   2.713   5.969 -0.7391 -0.6323  0.1368
  564MOL0     C77712   1.606   2.678   5.953 -0.2976  0.3946  0.3105
  564MOL0     C77713   1.542   2.790   5.948  0.0967 -0.2398  0.1614
  564MOL0     C77714   1.399   2.800   5.913 -0.0236 -0.4764 -0.1248
  564MOL0     C77715   1.376   2.894   5.805 -0.1933 -0.4532 -0.3218
  564MOL0     C77716   1.436   2.841   5.670 -0.2652  0.0418 -0.2172
  564MOL0     C77717   1.393   2.933   5.545  1.0954  0.1417  1.3249
  564MOL0     O77718   1.452   3.063   5.548 -0.5136 -0.3580 -0.2853
  564MOL0     C77719   1.376   3.161   5.475 -0.6685  0.0581  0.0231
  564MOL0     C77720   1.344   3.152   5.331  0.4213 -0.3787 -1.6334
  564MOL0     C77721   1.257   3.242   5.262  0.2623 -0.9219  0.1105
  564MOL0     C77722   1.221   3.222   5.116  0.9620  0.3980 -0.4171
  564MOL0     C77723   1.190   3.336   5.345  0.9579 -0.5327 -0.0960
  564MOL0     C77724   1.102   3.435   5.272  0.0048 -1.0003  0.0386
  564MOL0     O77725   0.984   3.458   5.336  1.0066  0.2093 -0.2252
  564MOL0     C77726   0.869   3.483   5.260 -0.2952 -0.7257 -0.4510
  564MOL0     C77727   0.757   3.537   5.329  0.9705 -0.3796 -0.4608
  564MOL0     C77728   0.631   3.558   5.268 -0.0267  1.1543  0.4216
  564MOL0     C77729   0.618   3.547   5.130  0.2407  0.4057  0.4746
  564MOL0     O77730   0.500   3.560   5.060 -0.0865  0.5261  0.1724
  564MOL0     C77731   0.398   3.614   5.134 -0.2599 -0.2656 -0.2326
  564MOL0     C77732   0.272   3.627   5.049  0.3700  0.7737  0.1926
  564MOL0     C77733   0.228   3.499   4.978  0.5176  0.5005 -0.1693
  564MOL0     C77734   0.089   3.521   4.923  0.5848  0.2151 -0.6780
  564MOL0     C77735   0.032   3.398   4.857 -0.2924 -0.3500 -0.0586
  564MOL0     C77736  -0.124   3.398   4.847 -0.2471  0.0635  0.0742
  564MOL0     C77737  -0.193   3.525   4.776  0.1018  0.7471  0.6543
  564MOL0     C77738  -0.296   3.589   4.864 -0.7950  0.2558 -0.4895
  564MOL0    Cl77739  -0.349   3.744   4.779 -0.1359  0.4743 -0.1085
  564MOL0     C77740   0.727   3.508   5.055  0.8144 -0.3453  0.3202
  564MOL0     C77741   0.851   3.469   5.122  0.8358 -0.2072 -0.0942
  564MOL0     O77742   1.135   3.484   5.157 -0.7556  0.7539 -0.4004
  564MOL0     C77743   1.212   3.331   5.488  0.2758 -0.8340  0.8426
  564MOL0     C77744   1.317   3.252   5.547 -0.2642  0.0233  0.0925
  564MOL0     N77745   1.629   2.901   5.961 -0.2896 -0.5765 -0.5395
  564MOL0     N77746   1.749   2.853   5.972 -0.1854  0.2147 -0.4276
  564MOL0     C77747   1.349   2.912   6.703 -0.3014 -0.4447  0.2613
  564MOL0     C77748   1.291   3.035   6.733  0.8348  0.6862 -0.9553
  564MOL0     C77749   1.139   3.438   6.832  1.0419  0.0428  0.5575
  564MOL0     C77750   1.114   3.451   6.968  0.0684 -0.3380 -0.0933
  564MOL0     C77751   1.077   3.569   7.021  0.5650 -0.0556 -0.6168
  564MOL0     C77752   1.087   3.685   6.946  0.7683 -0.4708 -0.6778
  564MOL0     O77753   1.077   3.814   6.994  0.9627  0.5605  0.4440
  564MOL0     C77754   1.011   3.841   7.123  0.7271  0.3234  0.3221
  564MOL0     C77755   0.856   3.823   7.093  0.0909 -1.1267 -0.0962
  564MOL0     C77756   0.799   3.906   6.980 -0.1522 -0.2446 -0.0921
  564MOL0     C77757   0.812   4.059   6.998 -0.9582  1.2526  0.1205
  564MOL0     C77758   0.737   4.122   7.106 -0.2123  0.5643 -0.3522
  564MOL0     C77759   0.685   4.189   7.195  0.3783 -0.2381 -0.3122
  564MOL0     C77760   1.135   3.674   6.819 -0.2578 -0.1155  0.5057
  564MOL0     C77761   1.153   3.553   6.763  0.3391  0.4461  0.6249
  564MOL0     C77762   1.164   3.549   6.611 -0.4909 -0.3741 -0.7556
  564MOL0     H77763   1.472   3.252   6.544 -1.0768 -0.6609 -1.0077
  564MOL0     H77764   1.582   3.053   6.479 -0.3402  0.4114  0.4996
  564MOL0     H77765   1.696   2.776   6.467 -0.4469 -0.4858  1.3516
  564MOL0     H77766   1.577   2.872   6.373  0.2412 -1.8256 -3.1975
  564MOL0     H77767   1.450   2.672   6.334 -0.4690 -2.2950  1.2348
  564MOL0     H77768   1.603   2.687   6.260 -0.7929  3.3735  0.7989
  564MOL0     H77769   1.568   2.530   6.515 -2.0308 -0.0876 -0.8222
  564MOL0     H77770   1.551   2.446   6.367  2.3492 -1.7936 -0.3444
  564MOL0     H77771   1.816   2.602   6.399 -2.2238  1.3075 -1.7979
  564MOL0     H77772   1.807   2.454   6.495 -2.5284 -0.5697  2.4621
  564MOL0     H77773   1.752   2.320   6.295  0.6394 -0.8072  0.1483
  564MOL0     H77774   1.908   2.395   6.287 -0.0663 -0.7528  1.8006
  564MOL0     H77775   1.769   2.393   6.084  0.1635 -2.1377  2.5397
  564MOL0     H77776   1.665   2.530   6.146 -0.7182 -1.3771  0.8419
  564MOL0     H77777   1.965   2.517   6.094 -1.2748 -1.3926 -1.2286
  564MOL0     H77778   1.886   2.657   6.165  1.3468 -1.5393  0.6108
  564MOL0     H77779   1.926   2.682   5.922 -2.3657  2.3179  1.2911
  564MOL0     H77780   1.837   2.534   5.889  1.2987 -1.0514  1.1003
  564MOL0     H77781   1.568   2.580   5.928  0.7193  0.2973 -0.9337
  564MOL0     H77782   1.359   2.836   6.008  0.7565 -1.8917  0.7648
  564MOL0     H77783   1.348   2.704   5.898 -2.0284  0.7568 -1.6932
  564MOL0     H77784   1.268   2.892   5.784 -0.1468 -0.8100 -0.5308
  564MOL0     H77785   1.423   2.988   5.833  2.1686 -2.0291  1.3983
  564MOL0     H77786   1.543   2.857   5.678  0.0053 -1.1874 -1.0284
  564MOL0     H77787   1.407   2.737   5.652 -0.6176  0.1253 -0.1448
  564MOL0     H77788   1.428   2.887   5.452  1.1029 -0.0348  1.4144
  564MOL0     H77789   1.285   2.921   5.539  1.3908 -3.7252  0.6081
  564MOL0     H77790   1.386   3.074   5.269 -2.6320 -1.7063 -2.1928
  564MOL0     H77791   1.113   3.234   5.107  0.5684 -2.6167 -0.6441
  564MOL0     H77792   1.239   3.119   5.084  1.0558  0.6218 -1.1013
  564MOL0     H77793   1.270   3.279   5.037 -0.0591 -0.8923 -2.0407
  564MOL0     H77794   0.764   3.557   5.435 -0.4840 -0.6194 -0.3108
  564MOL0     H77795   0.548   3.578   5.335 -0.8488 -1.9007  0.4402
  564MOL0     H77796   0.380   3.555   5.224 -2.3142 -1.3670 -1.2912
  564MOL0     H77797   0.423   3.716   5.166  1.1332 -0.3005 -1.1139
  564MOL0     H77798   0.187   3.653   5.114  0.9052  1.2419  0.7091
  564MOL0     H77799   0.284   3.708   4.977 -1.2365  4.0830  3.2915
  564MOL0     H77800   0.227   3.419   5.052 -0.4446  0.5142 -0.1569
  564MOL0     H77801   0.296   3.474   4.896 -1.0956 -2.9732 -0.6257
  564MOL0     H77802   0.090   3.609   4.859  2.7054 -0.9785 -2.4166
  564MOL0     H77803   0.018   3.541   5.005  0.5185 -0.0516 -0.6684
  564MOL0     H77804   0.090   3.381   4.765 -1.1165  2.6019 -1.2336
  564MOL0     H77805   0.058   3.314   4.922  4.2258  0.5206 -0.3871
  564MOL0     H77806  -0.164   3.378   4.947 -1.5255 -0.7807 -0.5777
  564MOL0     H77807  -0.151   3.312   4.786 -1.6321  0.1416  0.5494
  564MOL0     H77808  -0.248   3.487   4.690 -2.2142  0.8447  2.0199
  564MOL0     H77809  -0.124   3.603   4.742 -0.8100  1.3602  0.1876
  564MOL0     H77810  -0.253   3.609   4.963 -0.4610 -0.4896 -0.4770
  564MOL0     H77811  -0.380   3.520   4.880  0.7132 -1.2287  1.7086
  564MOL0     H77812   0.717   3.480   4.951  2.0622 -4.9891  1.1827
  564MOL0     H77813   0.926   3.418   5.062  0.5064  2.4748 -3.0468
  564MOL0     H77814   1.163   3.390   5.566  2.2697  0.9785  0.8014
  564MOL0     H77815   1.330   3.258   5.655 -1.9561 -1.5886  0.4480
  564MOL0     H77816   1.314   2.812   6.728  0.3074 -0.8526 -0.4467
  564MOL0     H77817   1.221   3.027   6.816  0.4554  3.4623 -0.8986
  564MOL0     H77818   1.131   3.370   7.038 -0.0265  2.3765  3.3467
  564MOL0     H77819   1.052   3.571   7.127 -1.7303  3.4298 -1.0456
  564MOL0     H77820   1.036   3.766   7.198 -0.2262 -2.3229 -1.8184
  564MOL0     H77821   1.038   3.943   7.150  2.0302  0.1369 -0.1940
  564MOL0     H77822   0.820   3.853   7.192  4.7562 -0.2507  1.6002
  564MOL0     H77823   0.839   3.718   7.066  0.9781 -0.9406 -1.4365
  564MOL0     H77824   0.854   3.874   6.891 -2.6586 -0.7886 -1.5648
  564MOL0     H77825   0.690   3.893   6.975 -1.0097  4.6403  0.4539
  564MOL0     H77826   0.793   4.106   6.901  1.2167  2.5239  0.2679
  564MOL0     H77827   0.916   4.085   7.015 -0.7832  0.9543 -0.4433
  564MOL0     H77828   0.643   4.243   7.277 -0.9628 -3.8153  1.6006
  564MOL0     H77829   1.129   3.760   6.753  1.1330 -1.7086 -1.8763
  564MOL0     H77830   1.261   3.522   6.570 -0.4864  1.4065 -2.0438
  564MOL0     H77831   1.093   3.476   6.570  0.9223 -0.5655 -3.0151
  564MOL0     H77832   1.143   3.649   6.572 -0.2178  0.8841  2.0790
  565MOL0     O77833   6.458   4.234  11.060 -0.0808 -0.6709 -0.5053
  565MOL0     C77834   6.528   4.206  10.967 -0.1062  0.3957  0.5768
  565MOL0     O77835   6.563   4.081  10.924  0.1982  0.1405 -0.5807
  565MOL0     C77836   6.510   3.974  10.987  0.4675 -0.5560 -0.3972
  565MOL0     C77837   6.595   3.882  11.044 -0.4100  1.4261 -0.6632
  565MOL0     C77838   6.534   3.770  11.098  0.1319 -0.1180 -0.2471
  565MOL0     C77839   6.392   3.762  11.114 -0.2210  0.4396 -0.6208
  565MOL0     O77840   6.326   3.650  11.166  0.5316  0.1842 -0.7953
  565MOL0     C77841   6.422   3.544  11.206  0.4110 -0.4528  0.4676
  565MOL0     C77842   6.344   3.412  11.242 -0.5527 -0.0467  0.4517
  565MOL0     C77843   6.275   3.335  11.121  0.1576 -0.6535  0.6326
  565MOL0     C77844   6.128   3.377  11.103  0.4095  0.1348 -0.2033
  565MOL0     C77845   6.055   3.288  11.008 -1.0101 -0.1652  0.7947
  565MOL0     C77846   6.116   3.286  10.862 -1.2502  0.4721  0.7511
  565MOL0     C77847   6.063   3.415  10.788  0.3277 -1.0483  0.4124
  565MOL0     C77848   6.121   3.438  10.647  0.3338  0.1020  0.5825
  565MOL0     N77849   6.266   3.441  10.644  0.7114 -0.3603 -0.0306
  565MOL0     C77850   6.338   3.542  10.700  0.3236 -0.5658  0.1971
  565MOL0     C77851   6.459   3.526  10.656 -0.0025  0.6380 -0.3170
  565MOL0     C77852   6.569   3.632  10.675 -0.0551 -0.3851 -0.5457
  565MOL0     C77853   6.687   3.569  10.743 -0.2483  0.8231  0.3521
  565MOL0     C77854   6.821   3.652  10.718  0.7185 -0.1287  0.2986
  565MOL0     C77855   6.816   3.793  10.774 -0.0023  0.4020  0.7800
  565MOL0     O77856   6.941   3.847  10.736  0.8924  0.5407  0.9578
  565MOL0     C77857   6.988   3.957  10.782 -0.1958  0.1436 -1.1124
  565MOL0     C77858   7.012   3.987  10.913 -0.1517  0.3345 -0.2150
  565MOL0     C77859   7.075   4.099  10.958  0.8715  0.1189 -0.5487
  565MOL0     C77860   7.079   4.117  11.106  0.3099 -0.4809 -0.3463
  565MOL0     C77861   7.126   4.194  10.859  0.2069  0.4205 -0.0208
  565MOL0     C77862   7.177   4.333  10.888  0.8129  0.6376 -0.5093
  565MOL0     O77863   7.163   4.387  11.017  0.2504  0.6460  0.2596
  565MOL0     C77864   7.207   4.513  11.035 -0.5788  1.0013  0.4392
  565MOL0     C77865   7.343   4.528  11.077  0.3545  0.6770 -1.3407
  565MOL0     C77866   7.372   4.668  11.089 -0.2146 -0.7226 -0.2512
  565MOL0     C77867   7.280   4.776  11.082 -0.2231 -0.1952  0.1545
  565MOL0     O77868   7.326   4.906  11.085  0.7735  0.3588 -0.0142
  565MOL0     C77869   7.223   5.010  11.067 -0.3751  0.8152  0.3490
  565MOL0     C77870   7.285   5.144  11.082 -0.4388 -0.4368 -1.2335
  565MOL0     C77871   7.364   5.196  10.964 -1.0174  0.3153 -0.4147
  565MOL0     C77872   7.283   5.296  10.869 -0.1005  0.0405 -0.0327
  565MOL0     C77873   7.390   5.354  10.775 -0.0472  0.1681 -0.6151
  565MOL0     C77874   7.331   5.431  10.660  0.0688 -0.0918  0.1230
  565MOL0     C77875   7.449   5.496  10.576 -0.2597 -0.7743  0.7410
  565MOL0     C77876   7.545   5.389  10.513 -0.5895 -0.3606  0.2546
  565MOL0    Cl77877   7.644   5.487  10.402  0.2598 -0.4457  0.1683
  565MOL0     C77878   7.151   4.739  11.048  1.1196  0.1644 -0.9463
  565MOL0     C77879   7.109   4.611  11.027 -0.1495  0.8086 -0.7140
  565MOL0     O77880   7.208   4.395  10.793  0.2917  0.3494  0.4098
  565MOL0     C77881   7.113   4.159  10.723 -0.0252 -0.3037 -0.9495
  565MOL0     C77882   7.043   4.040  10.681 -0.8396 -0.1938 -0.6550
  565MOL0     N77883   6.463   3.424  10.572  0.1694  0.8717  0.0802
  565MOL0     N77884   6.343   3.370  10.558  0.5871 -0.0223  0.5065
  565MOL0     C77885   6.310   3.868  11.071  0.4583 -0.0300  0.3000
  565MOL0     C77886   6.372   3.966  10.992  0.0362 -0.5610  1.1244
  565MOL0     C77887   6.585   4.319  10.885  0.4254 -1.2238 -0.8785
  565MOL0     C77888   6.720   4.319  10.874  0.3563  0.6082  0.6527
  565MOL0     C77889   6.785   4.419  10.796 -0.6433 -0.2153 -0.1223
  565MOL0     C77890   6.709   4.521  10.738 -0.3557  0.0127 -0.3396
  565MOL0     O77891   6.777   4.622  10.675  0.2294 -0.5514 -0.5931
  565MOL0     C77892   6.920   4.648  10.696  0.5507  0.0419 -1.6345
  565MOL0     C77893   7.010   4.574  10.602  0.0490  0.7016 -0.4695
  565MOL0     C77894   7.016   4.644  10.467  1.0508  0.0393  0.6148
  565MOL0     C77895   6.882   4.677  10.393 -0.8928 -0.0179 -0.0710
  565MOL0     C77896   6.915   4.669  10.248 -0.5246 -1.2983  0.1999
  565MOL0     C77897   6.967   4.676  10.145  0.4152  0.4709  0.4681
  565MOL0     C77898   6.568   4.524  10.760 -0.2728  0.3945 -0.4623
  565MOL0     C77899   6.503   4.426  10.828 -0.1179 -0.1630 -0.9622
  565MOL0     C77900   6.360   4.444  10.867 -0.1289 -0.5465 -0.2580
  565MOL0     H77901   6.702   3.895  11.052 -0.2150 -0.1541 -0.4728
  565MOL0     H77902   6.610   3.701  11.131  0.2258  0.9811  1.9858
  565MOL0     H77903   6.494   3.575  11.283  2.0153  0.7178 -1.4207
  565MOL0     H77904   6.487   3.519  11.121 -1.0622 -0.4689 -0.6860
  565MOL0     H77905   6.421   3.341  11.271 -0.3461  0.6375  1.6458
  565MOL0     H77906   6.276   3.438  11.323  0.0598  4.0304 -0.0840
  565MOL0     H77907   6.328   3.377  11.035 -0.3747  0.3817  0.7879
  565MOL0     H77908   6.276   3.226  11.128 -1.3601 -0.8205 -1.0819
  565MOL0     H77909   6.072   3.372  11.197  0.1648 -1.0583 -0.3958
  565MOL0     H77910   6.130   3.484  11.080 -0.6104  0.3921  0.7807
  565MOL0     H77911   5.946   3.300  11.001 -0.9748  0.2664  0.9190
  565MOL0     H77912   6.072   3.187  11.046 -2.9494  0.2336  3.0102
  565MOL0     H77913   6.225   3.281  10.873 -1.0518  0.3839 -0.8742
  565MOL0     H77914   6.074   3.199  10.810 -1.1921 -0.0412  1.5556
  565MOL0     H77915   6.108   3.497  10.844 -0.9490  1.1273 -1.5920
  565MOL0     H77916   5.954   3.420  10.792  0.4021  0.8134  0.8471
  565MOL0     H77917   6.107   3.342  10.597  2.6387  0.4096 -0.7883
  565MOL0     H77918   6.068   3.519  10.597 -0.5796 -0.3553  0.7913
  565MOL0     H77919   6.320   3.617  10.777  1.8351 -1.2537  1.2808
  565MOL0     H77920   6.536   3.719  10.733  0.8059 -1.3371  1.4596
  565MOL0     H77921   6.587   3.665  10.572 -0.0457 -2.0361 -1.0986
  565MOL0     H77922   6.667   3.551  10.849  2.0886  0.9741  0.8789
  565MOL0     H77923   6.701   3.472  10.694 -1.6175  1.5321 -1.6042
  565MOL0     H77924   6.898   3.586  10.760 -0.9606 -1.2427  1.7822
  565MOL0     H77925   6.842   3.649  10.610  3.4504 -1.2421  0.7717
  565MOL0     H77926   6.722   3.833  10.736 -0.4078 -1.0110  0.2356
  565MOL0     H77927   6.818   3.803  10.883  0.0392 -1.1635  0.9481
  565MOL0     H77928   6.961   3.919  10.981 -1.0822 -0.4201 -1.6078
  565MOL0     H77929   7.156   4.190  11.132  1.2883 -1.4949 -0.3125
  565MOL0     H77930   7.114   4.028  11.158  1.8478  0.4385  0.2551
  565MOL0     H77931   6.981   4.141  11.148  1.3449 -0.1867  2.0530
  565MOL0     H77932   7.418   4.451  11.064  0.2898  0.7711 -2.3789
  565MOL0     H77933   7.477   4.695  11.098  0.4341 -2.8792 -0.5285
  565MOL0     H77934   7.186   4.990  10.966 -2.3558 -3.5195  1.7092
  565MOL0     H77935   7.142   5.002  11.140  0.6818  5.3546  2.3594
  565MOL0     H77936   7.203   5.212  11.102  1.9840  1.7840  2.2079
  565MOL0     H77937   7.336   5.150  11.178 -0.8663 -1.9548 -0.8808
  565MOL0     H77938   7.423   5.116  10.916  1.1032 -1.4911  4.5410
  565MOL0     H77939   7.439   5.265  11.004 -3.7970  1.9440  2.3717
  565MOL0     H77940   7.227   5.367  10.931 -3.6561 -2.6033  0.1128
  565MOL0     H77941   7.212   5.230  10.819 -0.9214 -0.5530  1.8256
  565MOL0     H77942   7.438   5.436  10.830  1.1402 -0.8809 -0.0203
  565MOL0     H77943   7.463   5.277  10.746  0.0098  0.7360 -2.0393
  565MOL0     H77944   7.277   5.519  10.696 -0.0569  0.4619 -1.3435
  565MOL0     H77945   7.275   5.367  10.592 -0.1667 -0.3088  0.5172
  565MOL0     H77946   7.509   5.557  10.644  0.2498 -3.0939  2.4994
  565MOL0     H77947   7.408   5.566  10.503 -0.4376 -0.7236  0.8882
  565MOL0     H77948   7.480   5.317  10.462 -2.5863 -0.1020  2.2530
  565MOL0     H77949   7.599   5.330  10.587 -0.3707 -0.1262  0.2821
  565MOL0     H77950   7.080   4.820  11.033  1.1758  0.0638 -1.8360
  565MOL0     H77951   7.020   4.572  10.978  0.0349 -3.7551  1.9709
  565MOL0     H77952   7.142   4.226  10.643 -0.1993  1.3048  0.2863
  565MOL0     H77953   7.039   4.001  10.579  0.2779 -1.1457 -0.3540
  565MOL0     H77954   6.202   3.866  11.076  0.3807 -2.4230 -0.8478
  565MOL0     H77955   6.306   4.042  10.951  0.7970  1.5664  3.5853
  565MOL0     H77956   6.786   4.242  10.912 -0.9171 -0.7743  0.1109
  565MOL0     H77957   6.892   4.405  10.796 -0.2969  1.5228  3.1534
  565MOL0     H77958   6.931   4.751  10.663 -4.0946 -0.1384 -4.6803
  565MOL0     H77959   6.929   4.634  10.804 -1.4273 -0.1125 -1.4591
  565MOL0     H77960   6.975   4.472  10.581 -1.0069  1.0615 -0.5294
  565MOL0     H77961   7.107   4.561  10.650  0.0493  1.8509 -0.1176
  565MOL0     H77962   7.053   4.746  10.478 -2.2528  1.3529  0.4774
  565MOL0     H77963   7.087   4.588  10.405 -2.9300 -3.4490 -1.3164
  565MOL0     H77964   6.856   4.781  10.416  1.0450  0.4269  0.2516
  565MOL0     H77965   6.804   4.605  10.419 -0.1419 -0.6619  0.4503
  565MOL0     H77966   7.017   4.666  10.050 -0.0465  0.2586  0.2438
  565MOL0     H77967   6.497   4.601  10.731 -4.8488 -2.1537  2.7548
  565MOL0     H77968   6.318   4.346  10.890  0.0053  0.2446  4.1165
  565MOL0     H77969   6.328   4.502  10.954 -0.8369 -1.1037 -0.1335
  565MOL0     H77970   6.304   4.476  10.778 -0.9729  0.2620  0.5505
  566MOL0     O77971  10.912   7.270   6.507 -0.0480  0.0194 -0.3618
  566MOL0     C77972  10.951   7.371   6.445  0.4521  0.0116  0.7458
  566MOL0     O77973  11.048   7.457   6.479 -0.4611 -0.4541 -0.1890
  566MOL0     C77974  11.110   7.424   6.602 -0.7914  0.1824 -0.7320
  566MOL0     C77975  11.247   7.426   6.602  0.5023 -0.8781 -0.3521
  566MOL0     C77976  11.328   7.392   6.709  0.0049  0.0732 -1.0644
  566MOL0     C77977  11.261   7.379   6.837  0.1751  1.3722  0.2339
  566MOL0     O77978  11.357   7.344   6.931  0.4134  0.3406 -0.1268
  566MOL0     C77979  11.320   7.298   7.059  0.4885  0.1068  0.4128
  566MOL0     C77980  11.453   7.244   7.133 -0.2125  0.3404  0.0357
  566MOL0     C77981  11.447   7.275   7.287 -0.4632 -0.3124  0.6072
  566MOL0     C77982  11.318   7.226   7.360 -0.0360  0.0687 -0.0489
  566MOL0     C77983  11.314   7.265   7.507 -0.7814 -1.0486 -0.2560
  566MOL0     C77984  11.402   7.191   7.598  0.8490  0.4076  0.3326
  566MOL0     C77985  11.369   7.208   7.748  0.2734  0.4838  0.7219
  566MOL0     C77986  11.365   7.347   7.788  0.2788 -0.3702 -0.2362
  566MOL0     N77987  11.405   7.376   7.925 -0.2472  0.0890  0.2122
  566MOL0     C77988  11.536   7.419   7.935  0.6428  0.4845  0.1358
  566MOL0     C77989  11.547   7.468   8.064 -0.3927  0.3399  0.2367
  566MOL0     C77990  11.675   7.528   8.112 -0.0696 -0.0459  0.3331
  566MOL0     C77991  11.689   7.547   8.261 -0.3209 -0.6196 -0.7519
  566MOL0     C77992  11.592   7.650   8.314 -0.0431  0.5946 -0.0942
  566MOL0     C77993  11.588   7.659   8.466 -0.8747 -0.2329  0.2766
  566MOL0     O77994  11.713   7.654   8.528 -0.2602  0.3058 -0.1373
  566MOL0     C77995  11.719   7.607   8.655 -0.3849  1.1464  0.0321
  566MOL0     C77996  11.829   7.530   8.705 -0.2891  0.0110  0.0138
  566MOL0     C77997  11.838   7.484   8.842 -0.5618  0.6443  0.5800
  566MOL0     C77998  11.964   7.401   8.892 -0.1714  0.4094 -1.5429
  566MOL0     C77999  11.737   7.516   8.935 -0.0780 -0.0206 -0.6194
  566MOL0     C78000  11.736   7.477   9.078 -0.2494 -0.1273  0.8207
  566MOL0     O78001  11.614   7.427   9.125 -0.1154 -0.8352 -1.4728
  566MOL0     C78002  11.599   7.402   9.256  0.1938  0.1238  0.4947
  566MOL0     C78003  11.529   7.487   9.330  0.9204 -0.5510 -1.3528
  566MOL0     C78004  11.499   7.452   9.462 -0.5145  0.0378  0.5602
  566MOL0     C78005  11.536   7.333   9.519  0.4699  0.4701  1.0374
  566MOL0     O78006  11.497   7.318   9.651  0.3234  0.3180  0.5005
  566MOL0     C78007  11.529   7.192   9.712 -0.8012  0.1737 -0.2903
  566MOL0     C78008  11.476   7.192   9.852  0.3752 -0.9466 -0.6104
  566MOL0     C78009  11.497   7.059   9.925  0.2487  0.7581  0.1077
  566MOL0     C78010  11.440   7.078  10.061 -1.2009  0.4362 -0.3160
  566MOL0     C78011  11.473   6.963  10.152  0.0616 -0.7980 -0.5767
  566MOL0     C78012  11.435   6.998  10.299 -0.1167  0.5857  0.1807
  566MOL0     C78013  11.396   6.861  10.359  0.0922 -0.8175 -0.1796
  566MOL0     C78014  11.366   6.875  10.508  0.3199 -0.0171  0.6577
  566MOL0    Cl78015  11.511   6.940  10.590 -0.1180 -0.1519 -0.5293
  566MOL0     C78016  11.618   7.245   9.437 -0.0991  0.6083  0.4619
  566MOL0     C78017  11.646   7.273   9.298  0.5236  0.3651 -0.2261
  566MOL0     O78018  11.836   7.489   9.138  0.1987 -0.2362  0.0743
  566MOL0     C78019  11.625   7.590   8.880 -1.0161  0.5522 -0.0564
  566MOL0     C78020  11.624   7.634   8.746  0.3878  0.3195  0.5969
  566MOL0     N78021  11.417   7.452   8.117 -0.2162  0.3479 -0.1442
  566MOL0     N78022  11.332   7.404   8.035  0.5275 -0.1073  0.3463
  566MOL0     C78023  11.124   7.397   6.848 -0.1108  0.4101  0.1771
  566MOL0     C78024  11.051   7.423   6.732 -0.0586  0.0249  0.5180
  566MOL0     C78025  10.893   7.402   6.307  1.0607 -0.6632  0.9023
  566MOL0     C78026  10.954   7.505   6.226 -0.0665  0.7651 -0.3298
  566MOL0     C78027  10.911   7.550   6.101  0.2220  0.3512 -0.0456
  566MOL0     C78028  10.819   7.466   6.042  1.1040 -0.3375 -0.5119
  566MOL0     O78029  10.785   7.489   5.910 -0.0394  0.5411  0.5772
  566MOL0     C78030  10.735   7.380   5.833 -0.0535  0.1755 -0.8110
  566MOL0     C78031  10.778   7.388   5.693  0.7694 -0.0819  0.1079
  566MOL0     C78032  10.720   7.261   5.626 -1.0801  0.2676  0.6281
  566MOL0     C78033  10.778   7.239   5.492 -0.9487 -0.2606  0.2753
  566MOL0     C78034  10.920   7.190   5.487  0.0187  0.4532 -0.6456
  566MOL0     C78035  11.024   7.136   5.471  0.5215  1.1075 -0.7464
  566MOL0     C78036  10.745   7.369   6.118 -0.3958 -1.1122  0.1329
  566MOL0     C78037  10.780   7.335   6.251 -1.1375 -1.1053  0.7336
  566MOL0     C78038  10.695   7.230   6.319 -0.1306 -0.0622  1.4609
  566MOL0     H78039  11.285   7.456   6.505 -0.4788  1.6908  0.0024
  566MOL0     H78040  11.434   7.377   6.691 -0.2122 -1.0942 -1.4719
  566MOL0     H78041  11.247   7.217   7.051 -2.0603  1.9146  3.3671
  566MOL0     H78042  11.278   7.381   7.117  2.4508 -0.7727  3.3548
  566MOL0     H78043  11.465   7.137   7.110 -1.2090  0.1833  0.1964
  566MOL0     H78044  11.545   7.285   7.092  1.1623 -2.8882 -0.4116
  566MOL0     H78045  11.524   7.218   7.340  3.3197  3.1817 -0.5604
  566MOL0     H78046  11.464   7.381   7.304 -1.0006 -0.4705  2.3356
  566MOL0     H78047  11.226   7.249   7.306  0.5999  0.5183 -0.9702
  566MOL0     H78048  11.314   7.117   7.362 -1.6300  0.0842 -1.0404
  566MOL0     H78049  11.208   7.270   7.533 -0.9701 -0.2587 -1.1391
  566MOL0     H78050  11.350   7.368   7.502 -0.9413 -1.0369 -1.4834
  566MOL0     H78051  11.393   7.083   7.583  0.7680  0.3068  1.0615
  566MOL0     H78052  11.508   7.210   7.578  1.1805 -1.4387  0.1214
  566MOL0     H78053  11.445   7.146   7.797  0.5320  0.1043 -0.1563
  566MOL0     H78054  11.268   7.170   7.763  0.7651  0.0657  3.6123
  566MOL0     H78055  11.425   7.403   7.716  0.1798 -1.8167 -1.4734
  566MOL0     H78056  11.262   7.384   7.778 -0.4574 -0.2585  4.9681
  566MOL0     H78057  11.614   7.414   7.859  0.5846 -1.1601  0.1439
  566MOL0     H78058  11.699   7.620   8.057 -0.6400  1.9995  3.2711
  566MOL0     H78059  11.741   7.445   8.086  2.1259  1.8857 -0.6519
  566MOL0     H78060  11.672   7.452   8.312 -0.3739 -0.4133 -0.3793
  566MOL0     H78061  11.793   7.577   8.281 -1.2272  1.6536  1.0132
  566MOL0     H78062  11.620   7.752   8.285 -0.2698  1.2082  1.7186
  566MOL0     H78063  11.496   7.632   8.265  0.8671  0.7585 -2.0125
  566MOL0     H78064  11.544   7.756   8.492 -1.9847 -0.3651 -0.9789
  566MOL0     H78065  11.522   7.579   8.501 -0.8966 -0.3886 -0.1155
  566MOL0     H78066  11.906   7.498   8.636  2.3168 -0.6050  3.0257
  566MOL0     H78067  12.034   7.374   8.812 -0.6513 -0.2986 -1.7298
  566MOL0     H78068  11.926   7.305   8.926 -0.8453  1.5024  1.0304
  566MOL0     H78069  12.027   7.454   8.965  1.1122 -0.2787 -2.1140
  566MOL0     H78070  11.494   7.578   9.282  1.5844 -0.3041 -1.3830
  566MOL0     H78071  11.453   7.536   9.512 -0.9983  0.4501 -0.5477
  566MOL0     H78072  11.487   7.113   9.650 -3.0495  0.9404  0.1538
  566MOL0     H78073  11.636   7.173   9.721 -0.4786  2.0509  0.2675
  566MOL0     H78074  11.543   7.260   9.904  1.7897 -2.7311  0.0096
  566MOL0     H78075  11.373   7.230   9.851  0.9972  0.8383  0.0352
  566MOL0     H78076  11.599   7.027   9.949  0.2858  2.4608  2.6800
  566MOL0     H78077  11.456   6.968   9.880 -0.2413  0.2037  1.5866
  566MOL0     H78078  11.331   7.085  10.051 -1.1345  0.6860 -0.9205
  566MOL0     H78079  11.483   7.171  10.100  2.1979  0.2730 -3.1066
  566MOL0     H78080  11.425   6.872  10.116 -0.5789  0.0028 -1.8269
  566MOL0     H78081  11.580   6.941  10.150  0.2663  0.1556 -1.1877
  566MOL0     H78082  11.353   7.071  10.296  0.3677  1.1880  1.0483
  566MOL0     H78083  11.522   7.044  10.347 -0.1947  0.5728  0.3355
  566MOL0     H78084  11.474   6.784  10.357  0.3722 -0.5226 -1.1930
  566MOL0     H78085  11.309   6.816  10.309 -0.9668 -1.5826  2.2167
  566MOL0     H78086  11.333   6.781  10.553 -2.6540  1.4544  1.8234
  566MOL0     H78087  11.285   6.946  10.525  1.5729  1.7001 -0.2061
  566MOL0     H78088  11.648   7.156   9.491 -2.8306 -0.4745  0.3646
  566MOL0     H78089  11.711   7.219   9.230  0.6282  0.0965  0.0835
  566MOL0     H78090  11.546   7.622   8.946 -1.7350  1.3579 -1.2775
  566MOL0     H78091  11.536   7.692   8.722  1.9740  2.7750  0.4153
  566MOL0     H78092  11.079   7.397   6.947 -3.0390  1.6338 -1.0504
  566MOL0     H78093  10.948   7.453   6.742 -0.1810  0.9463 -2.5300
  566MOL0     H78094  11.040   7.560   6.266  1.6672 -0.4804 -2.1341
  566MOL0     H78095  10.964   7.628   6.047  1.1710  0.4396  0.9790
  566MOL0     H78096  10.787   7.293   5.875 -5.3839 -2.5138  1.0374
  566MOL0     H78097  10.628   7.373   5.854  0.0706 -1.2353 -0.5526
  566MOL0     H78098  10.887   7.389   5.687  0.7981 -0.5348  0.4416
  566MOL0     H78099  10.736   7.476   5.645 -1.2915 -2.1104 -2.1005
  566MOL0     H78100  10.738   7.177   5.693 -0.2417  1.5149  2.0269
  566MOL0     H78101  10.613   7.285   5.624 -0.6513  2.8637  3.1458
  566MOL0     H78102  10.780   7.337   5.443  1.5988 -0.2081  0.3735
  566MOL0     H78103  10.717   7.171   5.431  0.4415 -0.0089 -1.4572
  566MOL0     H78104  11.120   7.092   5.457  1.8666  4.1811 -1.9804
  566MOL0     H78105  10.667   7.307   6.076 -2.9256  1.1561  1.1993
  566MOL0     H78106  10.764   7.147   6.333 -0.9190 -0.3156  4.6967
  566MOL0     H78107  10.667   7.271   6.417 -2.1392 -0.3499  1.0639
  566MOL0     H78108  10.606   7.216   6.256  0.2051 -3.4708  1.5690
  567MOL0     O78109   3.114   2.280   8.722 -0.0526 -0.5939  0.1898
  567MOL0     C78110   3.195   2.362   8.680  0.1533 -0.6387  0.0727
  567MOL0     O78111   3.332   2.340   8.651 -0.1703  0.5259  0.7702
  567MOL0     C78112   3.376   2.209   8.639  0.3038  0.8766  0.4470
  567MOL0     C78113   3.305   2.088   8.627 -0.3552 -0.6095 -1.1864
  567MOL0     C78114   3.366   1.961   8.609 -0.0121  0.1090  0.4101
  567MOL0     C78115   3.498   1.952   8.614 -0.1209  0.2785 -0.4153
  567MOL0     O78116   3.551   1.827   8.594 -0.1301 -0.2786  0.5668
  567MOL0     C78117   3.692   1.797   8.617  0.1618 -0.2615 -1.1027
  567MOL0     C78118   3.712   1.644   8.576  0.4746 -1.3273 -0.6555
  567MOL0     C78119   3.640   1.629   8.436 -0.1599  0.1124  0.1481
  567MOL0     C78120   3.704   1.521   8.337 -0.1244 -0.3808 -0.1351
  567MOL0     C78121   3.644   1.520   8.202  0.6556 -0.1510  0.3895
  567MOL0     C78122   3.709   1.602   8.094  0.0311 -0.2244  0.3664
  567MOL0     C78123   3.644   1.577   7.955  0.1186 -0.1355 -0.3356
  567MOL0     C78124   3.641   1.691   7.861 -0.6875 -0.0125  0.3577
  567MOL0     N78125   3.665   1.648   7.717 -0.8375  1.0434 -0.3860
  567MOL0     C78126   3.672   1.730   7.609  0.8655  0.6074  0.0577
  567MOL0     C78127   3.688   1.648   7.500 -0.4919 -1.2208 -0.6509
  567MOL0     C78128   3.662   1.691   7.370  0.3028 -1.0463  0.1499
  567MOL0     C78129   3.517   1.661   7.324  0.8607 -0.6507 -0.8910
  567MOL0     C78130   3.472   1.715   7.191 -0.0315 -0.2717  1.1807
  567MOL0     C78131   3.322   1.688   7.161  0.0407 -0.0317  0.1344
  567MOL0     O78132   3.305   1.548   7.197  0.6786 -0.4857  0.7468
  567MOL0     C78133   3.314   1.443   7.108  0.1925  0.2739 -0.9612
  567MOL0     C78134   3.288   1.319   7.153 -0.1259 -0.1749  0.4352
  567MOL0     C78135   3.292   1.207   7.066  0.5103 -0.4280  0.5184
  567MOL0     C78136   3.264   1.067   7.125  0.4322 -0.4619  0.0809
  567MOL0     C78137   3.324   1.223   6.928 -0.6599  0.2260 -0.2668
  567MOL0     C78138   3.323   1.120   6.826 -0.2725  0.4993  0.6926
  567MOL0     O78139   3.388   1.153   6.715 -1.0651  0.2619  0.6940
  567MOL0     C78140   3.375   1.075   6.601  0.5816  0.3681 -0.1961
  567MOL0     C78141   3.499   1.053   6.530  1.1969 -0.5798 -0.9757
  567MOL0     C78142   3.491   0.970   6.420 -0.4753  0.5652 -0.5195
  567MOL0     C78143   3.377   0.930   6.362 -1.0829  1.3423  0.1281
  567MOL0     O78144   3.376   0.854   6.248 -0.1725 -0.0806  0.8160
  567MOL0     C78145   3.302   0.895   6.135  0.0583 -0.5903  0.4774
  567MOL0     C78146   3.156   0.845   6.115 -0.4220  0.3590 -0.0261
  567MOL0     C78147   3.147   0.697   6.121 -1.2615  0.3583  0.7743
  567MOL0     C78148   3.000   0.649   6.104 -0.7004 -0.2128 -0.6261
  567MOL0     C78149   2.985   0.502   6.159  0.6965 -0.7540 -0.4449
  567MOL0     C78150   2.838   0.455   6.165  0.5955  0.5339 -0.5515
  567MOL0     C78151   2.821   0.333   6.263 -0.6137  0.6562  1.6601
  567MOL0     C78152   2.828   0.358   6.405  0.9485  0.1384 -1.1291
  567MOL0    Cl78153   2.658   0.409   6.463  0.3886  0.0361 -0.2736
  567MOL0     C78154   3.261   0.946   6.433 -0.0595  0.5142 -0.0100
  567MOL0     C78155   3.263   1.016   6.551 -0.3976 -0.3118 -0.1765
  567MOL0     O78156   3.256   1.021   6.850  0.4092  0.4551  0.3148
  567MOL0     C78157   3.356   1.355   6.886 -0.1098  0.4280  0.0908
  567MOL0     C78158   3.357   1.459   6.974 -0.4744  0.0738 -0.5411
  567MOL0     N78159   3.728   1.527   7.552 -0.7095  0.3271  0.4360
  567MOL0     N78160   3.705   1.524   7.674 -0.3446  0.2698 -0.0305
  567MOL0     C78161   3.579   2.064   8.619 -0.8580  0.0117 -0.4190
  567MOL0     C78162   3.518   2.189   8.643 -0.2389  0.5166  0.8385
  567MOL0     C78163   3.168   2.513   8.700 -0.8704  0.5210  0.2616
  567MOL0     C78164   3.279   2.601   8.713 -0.4813  1.0079 -0.8254
  567MOL0     C78165   3.261   2.747   8.727  0.5948  0.5078  0.2767
  567MOL0     C78166   3.136   2.800   8.745 -0.2496  0.3168  0.8299
  567MOL0     O78167   3.129   2.935   8.765 -0.7254  0.0571  0.2249
  567MOL0     C78168   3.021   3.019   8.740  0.2208 -0.3927 -0.2795
  567MOL0     C78169   2.995   3.063   8.593  0.1463  0.0618  0.3758
  567MOL0     C78170   3.114   3.069   8.496 -0.3245 -0.4369  1.0359
  567MOL0     C78171   3.092   3.111   8.352  0.0246  0.8357  0.1117
  567MOL0     C78172   3.027   3.006   8.278 -0.2723  0.0116  0.3369
  567MOL0     C78173   2.990   2.918   8.206 -1.1446  0.0641  0.2796
  567MOL0     C78174   3.023   2.713   8.732 -0.3784  0.0952 -0.3486
  567MOL0     C78175   3.042   2.572   8.711 -0.0619  0.6590 -0.5288
  567MOL0     C78176   2.910   2.496   8.699 -0.4759  0.2189  0.6149
  567MOL0     H78177   3.196   2.083   8.635 -0.4646  1.6050 -0.7172
  567MOL0     H78178   3.302   1.876   8.590  1.0772 -0.2449 -2.1810
  567MOL0     H78179   3.708   1.810   8.724  0.7926  1.3776 -1.3764
  567MOL0     H78180   3.759   1.858   8.557 -0.5133  1.0869 -0.5286
  567MOL0     H78181   3.821   1.631   8.573  0.6009 -0.4731 -0.1830
  567MOL0     H78182   3.665   1.577   8.649  1.7293  0.3169  1.8048
  567MOL0     H78183   3.536   1.595   8.436 -0.9738  2.2375 -2.3186
  567MOL0     H78184   3.630   1.724   8.382 -0.6552 -0.4504 -0.7831
  567MOL0     H78185   3.808   1.553   8.334  0.1732 -1.2770  0.2347
  567MOL0     H78186   3.693   1.428   8.393 -5.2015 -0.0633 -0.1473
  567MOL0     H78187   3.542   1.559   8.201  0.8587  0.3774 -0.3952
  567MOL0     H78188   3.638   1.414   8.175  2.0597 -0.6953  1.9979
  567MOL0     H78189   3.699   1.707   8.122  2.3921 -0.0505  0.7637
  567MOL0     H78190   3.816   1.580   8.085  0.1894  1.3692 -3.8869
  567MOL0     H78191   3.538   1.556   7.975  0.7620 -4.3135 -0.4965
  567MOL0     H78192   3.678   1.479   7.921 -0.0515 -0.8006  1.3116
  567MOL0     H78193   3.538   1.729   7.857 -2.0935 -3.4911 -1.1560
  567MOL0     H78194   3.723   1.755   7.897 -0.7202 -0.5799  1.4775
  567MOL0     H78195   3.632   1.831   7.603 -0.7465  0.0974  1.4821
  567MOL0     H78196   3.743   1.659   7.304  2.9373  1.0259  2.1535
  567MOL0     H78197   3.665   1.800   7.374 -1.9572 -0.9189 -0.3825
  567MOL0     H78198   3.496   1.554   7.319  0.1222 -0.4712 -2.5074
  567MOL0     H78199   3.456   1.714   7.398 -1.3704 -0.7093 -2.5746
  567MOL0     H78200   3.496   1.821   7.178  0.5292 -0.6478 -1.4719
  567MOL0     H78201   3.536   1.653   7.128  0.3788  0.0544  1.2726
  567MOL0     H78202   3.266   1.760   7.221  2.0187  2.3031 -0.6658
  567MOL0     H78203   3.300   1.699   7.054  0.8236 -0.4289 -0.0798
  567MOL0     H78204   3.247   1.310   7.254  3.0251  0.3192  1.8838
  567MOL0     H78205   3.242   1.069   7.233 -0.3101  0.0576 -0.0715
  567MOL0     H78206   3.344   0.995   7.105  0.0462 -0.1682 -3.0077
  567MOL0     H78207   3.171   1.035   7.078  0.2828  1.0640 -0.7382
  567MOL0     H78208   3.594   1.096   6.560  0.8103  0.0439 -0.6327
  567MOL0     H78209   3.589   0.948   6.379  0.9324 -0.5349  3.0669
  567MOL0     H78210   3.304   1.003   6.116 -0.8828 -0.8871 -1.6127
  567MOL0     H78211   3.350   0.843   6.052  2.1401  0.1714  1.1569
  567MOL0     H78212   3.100   0.889   6.199  3.3455  2.0551  1.8644
  567MOL0     H78213   3.109   0.868   6.019  0.5546 -0.8648 -0.8276
  567MOL0     H78214   3.185   0.664   6.217 -1.5220  1.2417  1.1855
  567MOL0     H78215   3.215   0.657   6.045 -1.0128  2.1641 -0.0133
  567MOL0     H78216   2.969   0.644   5.999  0.5044 -5.2214 -0.9738
  567MOL0     H78217   2.940   0.720   6.162  0.7343  1.1467 -0.7336
  567MOL0     H78218   3.037   0.429   6.097 -2.5191 -3.7558  0.1359
  567MOL0     H78219   3.031   0.494   6.258 -1.2199 -0.0798  0.5559
  567MOL0     H78220   2.793   0.436   6.067  2.1674  1.2906 -1.4529
  567MOL0     H78221   2.779   0.533   6.215 -0.3334 -0.1655 -0.5143
  567MOL0     H78222   2.890   0.255   6.228 -1.1915  0.6048  0.6166
  567MOL0     H78223   2.728   0.280   6.241  1.2909 -1.6063 -2.0576
  567MOL0     H78224   2.882   0.445   6.443 -1.2092  0.3801  1.7962
  567MOL0     H78225   2.842   0.264   6.460 -1.1140  0.8389  0.7521
  567MOL0     H78226   3.172   0.893   6.402  0.4788 -2.1896  2.5550
  567MOL0     H78227   3.176   1.028   6.614 -0.5476  0.5079 -0.5227
  567MOL0     H78228   3.374   1.381   6.782 -0.4400  3.6974  0.7256
  567MOL0     H78229   3.366   1.555   6.925 -0.8413 -0.7314 -2.2726
  567MOL0     H78230   3.687   2.053   8.618 -1.0154 -2.4828 -2.7039
  567MOL0     H78231   3.593   2.266   8.643  1.9247 -1.4583  2.4864
  567MOL0     H78232   3.383   2.571   8.721 -0.7880  0.3493  1.1799
  567MOL0     H78233   3.348   2.811   8.732  1.5388 -0.7425  0.3224
  567MOL0     H78234   2.932   2.973   8.785  0.9899 -1.2996  0.3659
  567MOL0     H78235   3.041   3.111   8.795 -0.4574 -0.8873  0.8227
  567MOL0     H78236   2.946   3.160   8.599  0.9771  0.4093  1.9691
  567MOL0     H78237   2.917   3.001   8.548 -1.2653  2.3255 -0.4359
  567MOL0     H78238   3.184   3.139   8.542 -1.0212  1.0836 -0.1261
  567MOL0     H78239   3.180   2.984   8.476  1.6596  1.6194 -2.4188
  567MOL0     H78240   3.188   3.137   8.308  1.2652 -0.7960  1.7173
  567MOL0     H78241   3.032   3.203   8.359 -1.9856 -0.5016  1.6759
  567MOL0     H78242   2.991   2.836   8.137 -0.1166 -0.2897  0.6859
  567MOL0     H78243   2.929   2.767   8.747 -0.5327  0.3959 -2.1108
  567MOL0     H78244   2.908   2.448   8.601 -1.4722  1.3143  0.0659
  567MOL0     H78245   2.903   2.434   8.788  1.7296 -1.4759 -0.2939
  567MOL0     H78246   2.818   2.555   8.688 -0.3998  0.6156  1.8862
  568MOL0     O78247   4.358   7.185   3.265  0.4651  0.2814 -0.1681
  568MOL0     C78248   4.428   7.256   3.199 -0.2006  0.2422  0.1732
  568MOL0     O78249   4.551   7.275   3.221 -0.5044 -0.1051  0.3766
  568MOL0     C78250   4.606   7.234   3.338 -0.2590 -0.1437  0.3631
  568MOL0     C78251   4.612   7.105   3.388  0.3728 -0.8321  0.5058
  568MOL0     C78252   4.682   7.078   3.504 -0.4514  0.4332 -1.5140
  568MOL0     C78253   4.739   7.183   3.580  0.3214  0.2544  0.7325
  568MOL0     O78254   4.817   7.160   3.690 -0.3092 -0.0751 -0.4906
  568MOL0     C78255   4.823   7.030   3.754  0.2724  0.2008  0.6893
  568MOL0     C78256   4.907   7.027   3.883 -0.8191  0.4762 -0.9254
  568MOL0     C78257   5.055   7.047   3.845  0.2157  0.1415  0.6470
  568MOL0     C78258   5.154   7.061   3.953  0.3972 -0.4288  0.6433
  568MOL0     C78259   5.299   7.080   3.916 -0.5467  0.6944 -0.3749
  568MOL0     C78260   5.319   7.220   3.863 -1.0977  0.4729 -0.1319
  568MOL0     C78261   5.462   7.245   3.818  1.1031 -0.0645 -0.4049
  568MOL0     C78262   5.574   7.237   3.932 -0.0624 -0.1984 -0.8107
  568MOL0     N78263   5.709   7.239   3.872 -1.2619  0.4219 -0.2985
  568MOL0     C78264   5.748   7.341   3.792  0.2715  1.1862  0.1812
  568MOL0     C78265   5.886   7.318   3.775  0.5049  0.1381  0.4550
  568MOL0     C78266   5.975   7.395   3.685 -0.3193 -0.2413  0.1261
  568MOL0     C78267   6.008   7.323   3.553  0.0228 -0.5733 -0.7052
  568MOL0     C78268   6.107   7.399   3.461 -0.2762  0.1678  0.5270
  568MOL0     C78269   6.243   7.401   3.528 -0.2714  0.6319  0.7191
  568MOL0     O78270   6.286   7.267   3.555 -0.6441  0.1234  0.0782
  568MOL0     C78271   6.420   7.233   3.585  1.3086  0.9030  0.8006
  568MOL0     C78272   6.462   7.099   3.557  0.2822 -0.1244  0.8311
  568MOL0     C78273   6.598   7.061   3.583  0.2895  0.2168  0.3781
  568MOL0     C78274   6.632   6.920   3.537  0.2267 -0.7513  0.3666
  568MOL0     C78275   6.696   7.157   3.631 -0.0898  0.9531  0.6604
  568MOL0     C78276   6.833   7.138   3.662 -0.5122  1.0579 -0.7687
  568MOL0     O78277   6.935   7.249   3.684  0.0373  0.0370 -0.3267
  568MOL0     C78278   7.047   7.244   3.757 -0.6423  0.5781  0.8278
  568MOL0     C78279   7.145   7.335   3.720 -0.5428  0.2088  0.8519
  568MOL0     C78280   7.277   7.319   3.755 -0.0507  0.0000  0.5069
  568MOL0     C78281   7.312   7.221   3.846 -0.7453  0.5215 -0.3021
  568MOL0     O78282   7.442   7.191   3.888  0.0355  0.0367  0.2039
  568MOL0     C78283   7.547   7.259   3.827 -0.0273  0.1676  0.1484
  568MOL0     C78284   7.682   7.228   3.899 -0.0347  0.3865  0.0869
  568MOL0     C78285   7.675   7.254   4.054 -0.6775  0.4946  0.4129
  568MOL0     C78286   7.801   7.236   4.132 -0.0599 -0.8684 -0.1433
  568MOL0     C78287   7.789   7.294   4.269  0.3140  1.5836 -0.3655
  568MOL0     C78288   7.937   7.293   4.328  0.6308 -0.3429 -0.6734
  568MOL0     C78289   7.941   7.285   4.485  0.3798 -0.0224 -0.2465
  568MOL0     C78290   8.071   7.318   4.548 -0.5835 -0.8242  0.2346
  568MOL0    Cl78291   8.161   7.172   4.582 -0.6222  0.0201 -0.3558
  568MOL0     C78292   7.212   7.145   3.901 -0.3296 -0.4338 -0.0101
  568MOL0     C78293   7.084   7.148   3.847  0.5673 -0.7452 -0.1904
  568MOL0     O78294   6.864   7.022   3.691 -0.5350  0.4154  0.3713
  568MOL0     C78295   6.647   7.282   3.654  0.7907 -0.3381  0.6772
  568MOL0     C78296   6.519   7.321   3.637 -0.1028 -0.8109  0.5091
  568MOL0     N78297   5.920   7.201   3.848  0.1871 -0.1316 -0.1123
  568MOL0     N78298   5.814   7.163   3.915 -0.0522  0.6021  0.1301
  568MOL0     C78299   4.727   7.311   3.528  0.3514  0.5594  1.2370
  568MOL0     C78300   4.648   7.345   3.411 -0.3013  0.1502 -0.5923
  568MOL0     C78301   4.382   7.320   3.078 -0.0759  0.1985  0.4007
  568MOL0     C78302   4.452   7.425   3.015 -0.1947  0.3731 -0.2915
  568MOL0     C78303   4.420   7.466   2.889  0.2820 -0.2769 -0.4808
  568MOL0     C78304   4.326   7.405   2.801  0.1294  0.4292 -0.8256
  568MOL0     O78305   4.315   7.445   2.677 -0.2230 -0.4432  0.4985
  568MOL0     C78306   4.223   7.384   2.588 -0.0218 -0.7720  0.3734
  568MOL0     C78307   4.213   7.449   2.449  0.7698 -0.2933  0.2164
  568MOL0     C78308   4.144   7.352   2.356  0.3028  0.1035  0.1018
  568MOL0     C78309   4.128   7.414   2.220 -0.0430 -0.0702 -0.5099
  568MOL0     C78310   4.109   7.322   2.109 -0.1406  0.1452  1.0733
  568MOL0     C78311   4.069   7.254   2.011 -0.0008 -0.1405  0.3429
  568MOL0     C78312   4.240   7.310   2.870 -0.4015  0.4135  0.3930
  568MOL0     C78313   4.272   7.271   3.002 -0.4298 -0.5085 -0.1790
  568MOL0     C78314   4.172   7.166   3.061  0.4380 -0.4555 -0.4150
  568MOL0     H78315   4.545   7.034   3.340  2.2562 -3.6365  1.7960
  568MOL0     H78316   4.690   6.974   3.531  1.9292  1.1629  1.0785
  568MOL0     H78317   4.857   6.963   3.675 -2.0745 -1.2816  0.8224
  568MOL0     H78318   4.723   6.993   3.781  0.4470 -1.6991 -1.0231
  568MOL0     H78319   4.872   7.090   3.965  1.2843 -0.2350  0.6267
  568MOL0     H78320   4.915   6.927   3.928 -0.3161  0.6840 -0.5503
  568MOL0     H78321   5.086   6.971   3.773 -4.2780  0.9222 -2.5942
  568MOL0     H78322   5.040   7.139   3.787 -1.3942  0.3683  1.3586
  568MOL0     H78323   5.129   7.151   4.011 -0.5496 -0.4935  0.3497
  568MOL0     H78324   5.140   6.977   4.021  1.6304 -2.9503 -2.0280
  568MOL0     H78325   5.315   6.999   3.844 -1.2088 -0.5761  0.8493
  568MOL0     H78326   5.364   7.067   4.002 -0.6198 -2.4630 -0.6714
  568MOL0     H78327   5.254   7.222   3.776 -0.3904 -0.4197 -0.6973
  568MOL0     H78328   5.295   7.289   3.944 -0.8362 -2.1539  2.3654
  568MOL0     H78329   5.462   7.342   3.766  1.1077  1.8167  2.8034
  568MOL0     H78330   5.473   7.161   3.748  2.2158 -1.1700  1.0357
  568MOL0     H78331   5.570   7.312   4.012 -1.6212 -0.7909 -0.2957
  568MOL0     H78332   5.564   7.136   3.971 -0.1698  0.0918 -0.0783
  568MOL0     H78333   5.687   7.421   3.751 -0.9976  1.3278  2.2176
  568MOL0     H78334   6.073   7.411   3.730  0.3098 -0.3120 -1.1665
  568MOL0     H78335   5.925   7.489   3.660 -0.5052  0.1724  1.9016
  568MOL0     H78336   6.041   7.220   3.569 -2.0773 -1.1698  0.2047
  568MOL0     H78337   5.909   7.331   3.507  0.0535  2.5153 -0.4286
  568MOL0     H78338   6.111   7.341   3.368  0.4196  0.7060  0.2149
  568MOL0     H78339   6.090   7.507   3.447 -0.3103  0.1778  0.6509
  568MOL0     H78340   6.306   7.454   3.456 -1.7508  0.0430 -1.1316
  568MOL0     H78341   6.248   7.463   3.617  0.2454 -1.0172  1.8777
  568MOL0     H78342   6.392   7.026   3.516 -1.5503  1.5721  0.7982
  568MOL0     H78343   6.551   6.847   3.539 -0.7383  0.2140 -1.2779
  568MOL0     H78344   6.707   6.887   3.609 -0.0788 -0.8283  0.6522
  568MOL0     H78345   6.673   6.926   3.436 -0.2267  3.4236  0.2564
  568MOL0     H78346   7.118   7.415   3.652  0.7969  0.6734  0.8488
  568MOL0     H78347   7.344   7.376   3.691 -1.3055 -0.9093 -1.7010
  568MOL0     H78348   7.551   7.231   3.722 -5.1929 -3.6210  0.5582
  568MOL0     H78349   7.529   7.365   3.844 -3.0414  0.0854 -1.7521
  568MOL0     H78350   7.707   7.122   3.886 -0.8611 -0.1692  2.5502
  568MOL0     H78351   7.760   7.293   3.859 -1.2864  0.7785 -1.8516
  568MOL0     H78352   7.601   7.186   4.096  2.8229 -3.1390  1.3458
  568MOL0     H78353   7.628   7.351   4.070 -1.5744  0.2702 -0.7544
  568MOL0     H78354   7.877   7.306   4.095 -0.1973 -0.0151  1.1403
  568MOL0     H78355   7.854   7.140   4.123  1.4239 -0.0490 -0.4516
  568MOL0     H78356   7.735   7.389   4.263 -0.4224  1.1706 -0.4707
  568MOL0     H78357   7.723   7.230   4.329 -1.4743  2.8668 -0.8646
  568MOL0     H78358   7.989   7.380   4.287  0.7413 -1.2546 -2.5859
  568MOL0     H78359   7.992   7.207   4.289 -1.9043 -2.2959 -0.2495
  568MOL0     H78360   7.917   7.183   4.515  4.2477 -0.9813  0.0977
  568MOL0     H78361   7.864   7.355   4.519  0.4031  1.4479 -2.9291
  568MOL0     H78362   8.037   7.379   4.632 -1.3528 -0.7180 -0.1470
  568MOL0     H78363   8.122   7.387   4.479 -2.5688 -1.1796 -1.6993
  568MOL0     H78364   7.248   7.061   3.960  1.6452 -0.7766 -1.5730
  568MOL0     H78365   7.011   7.073   3.874  0.0727 -0.0580  0.4188
  568MOL0     H78366   6.716   7.352   3.701 -1.4841  2.0413  0.6971
  568MOL0     H78367   6.501   7.426   3.657  1.5754 -0.9483  3.2188
  568MOL0     H78368   4.770   7.391   3.587  3.0372  0.9248 -1.0332
  568MOL0     H78369   4.626   7.445   3.376  2.7397  1.5328  0.9944
  568MOL0     H78370   4.535   7.467   3.072  1.5472 -0.1257 -2.2993
  568MOL0     H78371   4.470   7.552   2.845 -1.6271  1.4101  0.5415
  568MOL0     H78372   4.251   7.280   2.568 -0.1325 -0.2021 -3.4367
  568MOL0     H78373   4.120   7.389   2.626  0.0110 -0.0779  0.3710
  568MOL0     H78374   4.314   7.465   2.410  0.7708  0.3525  0.4613
  568MOL0     H78375   4.151   7.539   2.450 -2.4744 -2.3293 -1.8985
  568MOL0     H78376   4.200   7.259   2.348  1.2538  0.6286  0.5045
  568MOL0     H78377   4.041   7.344   2.393  0.1011  0.3055 -0.4086
  568MOL0     H78378   4.224   7.461   2.194 -0.2729  1.9164  1.8740
  568MOL0     H78379   4.043   7.483   2.219 -0.6255 -0.7794 -1.4889
  568MOL0     H78380   4.033   7.197   1.927 -0.0470 -0.1634  0.3786
  568MOL0     H78381   4.161   7.262   2.813  1.8358 -1.4268 -1.3453
  568MOL0     H78382   4.225   7.070   3.062  0.4839 -0.4468 -1.3217
  568MOL0     H78383   4.133   7.196   3.158  1.8963 -2.1005  0.7396
  568MOL0     H78384   4.092   7.150   2.989  1.0901 -0.7371 -1.1002
  569MOL0     O78385   0.151   1.162   9.785 -0.8091  0.1732  0.0736
  569MOL0     C78386   0.164   1.267   9.847 -0.2043 -0.4163  0.2962
  569MOL0     O78387   0.131   1.284   9.972  0.0964  0.6407 -0.0209
  569MOL0     C78388   0.057   1.191  10.041  0.6345 -0.1508 -1.1309
  569MOL0     C78389   0.038   1.215  10.177 -0.0557  0.7724  0.3079
  569MOL0     C78390  -0.059   1.133  10.248 -0.3913 -0.1757 -0.3009
  569MOL0     C78391  -0.120   1.026  10.192  0.0595 -0.7098 -0.1992
  569MOL0     O78392  -0.229   0.975  10.258 -0.4112 -0.1543  0.0037
  569MOL0     C78393  -0.341   0.915  10.189 -0.6513 -0.2731 -0.0044
  569MOL0     C78394  -0.317   0.767  10.165 -0.3435  0.2903  0.6666
  569MOL0     C78395  -0.305   0.680  10.293  1.5305  0.2524 -0.6829
  569MOL0     C78396  -0.225   0.547  10.275 -0.7781  0.1831  0.5624
  569MOL0     C78397  -0.268   0.416  10.358  0.3613 -1.2802 -0.3294
  569MOL0     C78398  -0.333   0.445  10.488 -0.7497 -0.0156 -0.2178
  569MOL0     C78399  -0.340   0.321  10.570  0.7784  1.0374 -0.1295
  569MOL0     C78400  -0.405   0.348  10.701  0.6485 -1.0459  0.6655
  569MOL0     N78401  -0.544   0.403  10.687  0.0079  0.1425 -0.9239
  569MOL0     C78402  -0.592   0.512  10.755 -0.2367 -1.0173 -0.1950
  569MOL0     C78403  -0.719   0.517  10.713 -0.0552  0.4020 -0.8080
  569MOL0     C78404  -0.816   0.617  10.764 -0.1747  0.2863  0.6376
  569MOL0     C78405  -0.778   0.753  10.699  0.1708 -0.3333 -0.0305
  569MOL0     C78406  -0.859   0.872  10.751 -0.5161  0.1366 -0.1317
  569MOL0     C78407  -0.999   0.876  10.695  0.7704  0.6936 -0.5585
  569MOL0     O78408  -1.069   0.988  10.750 -0.5431  0.2924 -0.1231
  569MOL0     C78409  -1.093   1.104  10.684 -0.3162 -0.0520  0.5351
  569MOL0     C78410  -1.091   1.230  10.751  0.9518  0.0397  0.4831
  569MOL0     C78411  -1.115   1.356  10.690 -1.2216 -0.4286  0.0083
  569MOL0     C78412  -1.103   1.479  10.773 -0.2579  1.0538 -1.2097
  569MOL0     C78413  -1.156   1.351  10.557 -0.9335  0.1417 -0.6707
  569MOL0     C78414  -1.171   1.480  10.478  0.8563  0.2143 -1.1222
  569MOL0     O78415  -1.265   1.482  10.390  0.3242 -0.8732  0.7379
  569MOL0     C78416  -1.266   1.579  10.290 -0.3481 -0.3257  0.1335
  569MOL0     C78417  -1.328   1.559  10.161 -0.2402  0.3325 -0.6174
  569MOL0     C78418  -1.326   1.651  10.050  0.1838  0.0159 -0.1587
  569MOL0     C78419  -1.247   1.773  10.067  0.7468  0.1129 -0.5166
  569MOL0     O78420  -1.240   1.848   9.953  0.8974  0.2801 -0.4798
  569MOL0     C78421  -1.141   1.940   9.945 -0.5210 -1.2715  0.6208
  569MOL0     C78422  -1.138   2.005   9.799 -0.3210 -0.5878  0.8086
  569MOL0     C78423  -1.089   1.908   9.684 -0.1493 -0.3840 -0.2451
  569MOL0     C78424  -1.204   1.863   9.598 -0.0851  0.6386  0.5621
  569MOL0     C78425  -1.219   1.940   9.477 -0.7805 -0.6271 -0.0983
  569MOL0     C78426  -1.327   1.879   9.383 -0.5423 -0.2352 -0.9527
  569MOL0     C78427  -1.353   1.967   9.259  0.3876  0.3677  0.1541
  569MOL0     C78428  -1.455   1.898   9.174 -0.4855  0.4111 -0.4876
  569MOL0    Cl78429  -1.454   1.953   9.005  0.0703  0.2930  0.5455
  569MOL0     C78430  -1.199   1.804  10.198 -0.2388  0.2328  0.1970
  569MOL0     C78431  -1.220   1.717  10.304 -0.1547  1.2386 -0.0974
  569MOL0     O78432  -1.080   1.561  10.496  1.0441 -0.6443  0.7332
  569MOL0     C78433  -1.162   1.229  10.486  0.7853 -0.4049  0.3105
  569MOL0     C78434  -1.140   1.109  10.552  0.4204 -0.5601 -0.5943
  569MOL0     N78435  -0.743   0.414  10.632  0.7063 -0.1252 -0.1358
  569MOL0     N78436  -0.642   0.344  10.616 -0.1883  0.4319  0.9538
  569MOL0     C78437  -0.088   0.999  10.055  0.0134 -0.7684  0.5560
  569MOL0     C78438  -0.015   1.085   9.987  1.2221 -0.3367  0.6186
  569MOL0     C78439   0.220   1.383   9.765 -0.1599  0.3500 -0.7394
  569MOL0     C78440   0.310   1.346   9.660 -0.4567 -0.9572 -0.1298
  569MOL0     C78441   0.338   1.437   9.562 -0.4540 -0.0476 -0.0166
  569MOL0     C78442   0.309   1.570   9.578 -0.1485 -1.2466 -0.3659
  569MOL0     O78443   0.350   1.681   9.505  0.2741  0.5211 -0.3876
  569MOL0     C78444   0.337   1.655   9.364 -0.4558 -0.0631  0.6433
  569MOL0     C78445   0.325   1.788   9.298  0.4163 -0.0371  0.3729
  569MOL0     C78446   0.453   1.865   9.291  0.6507 -0.5972  0.5867
  569MOL0     C78447   0.463   1.963   9.163  0.2951  0.5398 -0.5524
  569MOL0     C78448   0.516   1.895   9.046  0.6957 -0.4447  0.7003
  569MOL0     C78449   0.556   1.828   8.954  0.8386 -0.8099  1.0404
  569MOL0     C78450   0.237   1.613   9.696 -0.4981 -0.9838  0.5048
  569MOL0     C78451   0.184   1.519   9.779  0.0997  0.5246 -0.2320
  569MOL0     C78452   0.078   1.567   9.879 -0.0587  0.1493  0.8752
  569MOL0     H78453   0.080   1.297  10.234 -0.3553 -0.0262  1.7183
  569MOL0     H78454  -0.084   1.156  10.351  1.7372 -1.2309  0.5190
  569MOL0     H78455  -0.351   0.966  10.093 -0.8461  0.4479  0.3866
  569MOL0     H78456  -0.433   0.933  10.247 -1.5198 -0.4512 -1.2835
  569MOL0     H78457  -0.388   0.714  10.101 -0.7497 -0.9302  2.0556
  569MOL0     H78458  -0.227   0.755  10.103 -3.1899  1.1528 -4.1698
  569MOL0     H78459  -0.273   0.742  10.377 -2.6472 -0.0678  1.4325
  569MOL0     H78460  -0.411   0.657  10.312  1.3062  0.2831 -1.8143
  569MOL0     H78461  -0.237   0.524  10.168 -4.4319 -2.7407  1.3691
  569MOL0     H78462  -0.118   0.565  10.278 -0.0041 -3.1238 -1.7684
  569MOL0     H78463  -0.175   0.357  10.361  0.6191 -0.8787 -0.3186
  569MOL0     H78464  -0.334   0.357  10.294 -1.1760 -0.6273  0.6122
  569MOL0     H78465  -0.281   0.527  10.539 -4.5992  3.4130 -1.2173
  569MOL0     H78466  -0.437   0.465  10.461 -0.1988 -0.2038 -2.7204
  569MOL0     H78467  -0.238   0.285  10.579  0.3876 -0.4013 -1.2046
  569MOL0     H78468  -0.405   0.243  10.531  0.6338  0.4978  1.1376
  569MOL0     H78469  -0.420   0.254  10.754 -1.7882 -0.8142  0.4978
  569MOL0     H78470  -0.344   0.419  10.757 -0.4723  1.9818 -1.6219
  569MOL0     H78471  -0.529   0.582  10.810  1.7249 -4.2150  1.9771
  569MOL0     H78472  -0.831   0.605  10.871 -0.0525 -2.6664  0.3954
  569MOL0     H78473  -0.914   0.595  10.719 -0.7604  1.1927  1.4424
  569MOL0     H78474  -0.670   0.763  10.712 -0.0520  0.3102  1.5505
  569MOL0     H78475  -0.795   0.743  10.592  1.6116 -0.3681 -0.2728
  569MOL0     H78476  -0.859   0.873  10.861 -0.7256 -3.3215  0.0045
  569MOL0     H78477  -0.806   0.960  10.713  2.2991 -1.1826  0.4271
  569MOL0     H78478  -1.009   0.880  10.586  0.9585 -0.2931 -0.6238
  569MOL0     H78479  -1.064   0.792  10.720 -1.3193  3.3123  4.2143
  569MOL0     H78480  -1.056   1.240  10.853  1.2793  3.5053  0.1519
  569MOL0     H78481  -1.103   1.456  10.880 -1.0524 -1.5971 -1.7102
  569MOL0     H78482  -1.178   1.557  10.755 -2.0876 -0.4363 -0.3839
  569MOL0     H78483  -1.004   1.520  10.754  0.2857  0.0472 -0.6255
  569MOL0     H78484  -1.375   1.464  10.140 -1.2283  1.5893 -5.1001
  569MOL0     H78485  -1.369   1.631   9.952 -0.1811  2.4985 -0.5710
  569MOL0     H78486  -1.163   2.017  10.019  0.6973 -0.8547  0.5676
  569MOL0     H78487  -1.044   1.901   9.978 -0.3480 -0.5447  0.9676
  569MOL0     H78488  -1.239   2.038   9.773 -0.6903 -2.6434 -0.6353
  569MOL0     H78489  -1.074   2.094   9.805 -2.4391  0.8943  3.3540
  569MOL0     H78490  -1.052   1.823   9.742 -1.6971 -1.2936 -0.5379
  569MOL0     H78491  -1.020   1.965   9.621  0.4412 -0.4248  0.3454
  569MOL0     H78492  -1.300   1.871   9.651  1.3161 -3.2861  4.2798
  569MOL0     H78493  -1.196   1.762   9.557 -1.5682  0.9089 -0.4737
  569MOL0     H78494  -1.231   2.047   9.495 -1.5510 -0.9950  1.8075
  569MOL0     H78495  -1.124   1.931   9.422  1.1285 -0.1152  2.8766
  569MOL0     H78496  -1.413   1.865   9.449  1.2116 -1.5514  1.2034
  569MOL0     H78497  -1.288   1.781   9.352 -0.3342 -2.3335  4.6747
  569MOL0     H78498  -1.264   1.990   9.199  0.0271  1.9387  0.1859
  569MOL0     H78499  -1.381   2.067   9.295 -0.5304 -0.6298  2.3895
  569MOL0     H78500  -1.558   1.910   9.208 -0.9653  3.0839 -2.5432
  569MOL0     H78501  -1.431   1.791   9.168  2.9026  0.8755  1.6440
  569MOL0     H78502  -1.137   1.890  10.218 -2.4677  2.1792 -0.8225
  569MOL0     H78503  -1.182   1.741  10.403  0.8638 -2.3769  0.5325
  569MOL0     H78504  -1.197   1.220  10.384 -1.5107  0.4145  0.9507
  569MOL0     H78505  -1.158   1.020  10.492 -2.8146  0.3243 -1.1049
  569MOL0     H78506  -0.142   0.933   9.988 -2.4769  2.3093 -0.7450
  569MOL0     H78507  -0.023   1.059   9.882  3.3306 -1.7583  0.7497
  569MOL0     H78508   0.340   1.244   9.640  0.5960 -0.3410 -1.9670
  569MOL0     H78509   0.413   1.424   9.484 -0.4374 -0.4151  0.0616
  569MOL0     H78510   0.412   1.588   9.323 -3.0907 -2.2487 -0.9960
  569MOL0     H78511   0.238   1.614   9.342 -1.1598  2.9089 -2.6015
  569MOL0     H78512   0.246   1.835   9.357 -2.0060 -4.4857  1.1374
  569MOL0     H78513   0.284   1.774   9.198  2.8047 -1.4925 -0.4983
  569MOL0     H78514   0.471   1.925   9.381  2.5740  0.2255 -0.2731
  569MOL0     H78515   0.542   1.801   9.289  0.6248 -0.6446  0.9205
  569MOL0     H78516   0.521   2.054   9.180 -1.9291  1.7462  1.0672
  569MOL0     H78517   0.360   1.999   9.153  0.2830  1.5886  2.2750
  569MOL0     H78518   0.589   1.764   8.875  1.0485 -0.2831  0.6920
  569MOL0     H78519   0.210   1.715   9.721  0.0118 -1.1009  1.5877
  569MOL0     H78520   0.122   1.575   9.979 -0.9980 -0.4366  1.3560
  569MOL0     H78521   0.046   1.665   9.844  2.3900  0.6560 -0.1819
  569MOL0     H78522  -0.007   1.500   9.893 -0.2905  0.4633  0.9662
  570MOL0     O78523   0.574  10.875   3.333 -0.2141 -0.5386  0.6742
  570MOL0     C78524   0.607  10.903   3.211  1.0240 -0.7599  0.0976
  570MOL0     O78525   0.586  10.824   3.103  0.3896  0.9483 -0.6793
  570MOL0     C78526   0.565  10.687   3.121 -0.7961 -0.3289 -0.0488
  570MOL0     C78527   0.635  10.594   3.049 -0.5953  0.0281 -0.3315
  570MOL0     C78528   0.609  10.456   3.069 -0.8490  0.5462 -0.2606
  570MOL0     C78529   0.520  10.407   3.153  0.1748  0.1874 -1.0719
  570MOL0     O78530   0.504  10.274   3.149  0.3934  0.2739  0.5751
  570MOL0     C78531   0.502  10.212   3.276  0.0391 -0.9092  0.2742
  570MOL0     C78532   0.457  10.069   3.258 -1.4525  1.1261  0.1057
  570MOL0     C78533   0.413  10.005   3.387  0.0278 -0.3031 -0.7098
  570MOL0     C78534   0.286  10.056   3.457  0.6864  0.0402 -0.4579
  570MOL0     C78535   0.256   9.988   3.592 -0.0891  0.0179  0.2521
  570MOL0     C78536   0.203   9.845   3.579  0.0202 -0.0982 -0.1462
  570MOL0     C78537   0.077   9.814   3.674  0.3411  0.1128  0.6630
  570MOL0     C78538  -0.051   9.889   3.627 -0.8282  0.2145 -0.2326
  570MOL0     N78539  -0.099   9.843   3.495 -0.3105 -0.0367  0.1109
  570MOL0     C78540  -0.045   9.880   3.369 -0.9781  0.1775  0.1906
  570MOL0     C78541  -0.088   9.775   3.287 -0.0881  0.1208  0.0209
  570MOL0     C78542  -0.076   9.776   3.136  0.3752  0.1783  0.4637
  570MOL0     C78543  -0.213   9.732   3.084  0.1590  0.5452  0.4142
  570MOL0     C78544  -0.210   9.703   2.933 -0.1502  0.1683 -0.9518
  570MOL0     C78545  -0.115   9.595   2.898 -0.2508 -0.8400 -0.7693
  570MOL0     O78546  -0.169   9.530   2.784 -0.5071 -0.4964 -0.0612
  570MOL0     C78547  -0.094   9.515   2.673 -0.6363 -1.1239 -0.8122
  570MOL0     C78548  -0.010   9.608   2.607  0.0217 -0.9422 -0.4899
  570MOL0     C78549   0.054   9.579   2.487 -0.3124  0.4800  0.3026
  570MOL0     C78550   0.123   9.694   2.430 -0.1006 -0.1102 -0.7703
  570MOL0     C78551   0.041   9.452   2.425 -0.4422 -0.0783  0.0850
  570MOL0     C78552   0.108   9.411   2.292  0.6807  0.6937 -1.0673
  570MOL0     O78553   0.052   9.314   2.220 -0.2193  0.0704  0.1968
  570MOL0     C78554   0.107   9.291   2.103 -0.2315  1.0680 -0.6522
  570MOL0     C78555   0.082   9.364   1.993  0.7531  0.9466 -0.6721
  570MOL0     C78556   0.116   9.331   1.869 -0.3568 -0.1353  0.3365
  570MOL0     C78557   0.200   9.214   1.850 -0.0462 -0.2403  0.4695
  570MOL0     O78558   0.241   9.183   1.722 -0.0800  0.1472 -0.1428
  570MOL0     C78559   0.384   9.204   1.715  0.6269 -0.4372 -0.0142
  570MOL0     C78560   0.420   9.353   1.689  0.1749 -0.3650  0.0901
  570MOL0     C78561   0.578   9.362   1.691  0.3219 -0.1848  0.8561
  570MOL0     C78562   0.644   9.302   1.561  0.2768  0.4325 -0.1060
  570MOL0     C78563   0.658   9.385   1.429  0.2211  0.8158  0.2950
  570MOL0     C78564   0.747   9.502   1.444  0.0720 -0.7087  0.1042
  570MOL0     C78565   0.879   9.479   1.523  0.2151  0.7344  0.4985
  570MOL0     C78566   0.964   9.605   1.554 -0.0366  0.2284  0.2369
  570MOL0    Cl78567   0.908   9.694   1.689  0.0703 -0.1217  0.0385
  570MOL0     C78568   0.246   9.136   1.958 -0.0090  0.1653 -0.9126
  570MOL0     C78569   0.188   9.172   2.094  0.5909 -0.0800 -0.0321
  570MOL0     O78570   0.221   9.455   2.277  0.6057 -0.0381  0.4295
  570MOL0     C78571  -0.038   9.358   2.492 -0.3237 -0.5616  0.3145
  570MOL0     C78572  -0.120   9.397   2.603 -0.3827  0.3348 -0.6130
  570MOL0     N78573  -0.163   9.682   3.356 -0.5981 -0.7966  0.1406
  570MOL0     N78574  -0.158   9.720   3.479  1.1308  0.9641  0.4887
  570MOL0     C78575   0.434  10.502   3.218  0.0674  0.1908 -0.6565
  570MOL0     C78576   0.460  10.641   3.188  0.6367 -0.2038 -0.2810
  570MOL0     C78577   0.636  11.050   3.199  0.8326 -0.9432  0.3945
  570MOL0     C78578   0.687  11.120   3.303 -0.3555  0.1599 -0.0965
  570MOL0     C78579   0.683  11.256   3.308  0.4149 -0.8791 -0.5843
  570MOL0     C78580   0.639  11.336   3.204 -0.3556  0.2513 -0.8191
  570MOL0     O78581   0.613  11.468   3.214  0.4701  0.1836  0.0824
  570MOL0     C78582   0.724  11.534   3.277 -0.1091  0.7924  0.2732
  570MOL0     C78583   0.709  11.683   3.283  0.4531  0.1605  0.5097
  570MOL0     C78584   0.706  11.739   3.142 -0.8742 -0.4949 -0.1893
  570MOL0     C78585   0.704  11.892   3.145  0.0988  0.0513  0.1629
  570MOL0     C78586   0.711  11.959   3.016  0.2839 -0.8248 -0.6703
  570MOL0     C78587   0.714  12.018   2.910 -0.2846  1.2958  0.5517
  570MOL0     C78588   0.601  11.265   3.092 -0.0238  0.0489  0.9163
  570MOL0     C78589   0.589  11.126   3.090 -0.8006 -0.9331  0.7125
  570MOL0     C78590   0.523  11.072   2.967  0.3165 -0.0500  0.7492
  570MOL0     H78591   0.709  10.631   2.979 -0.6146 -0.7809 -0.7836
  570MOL0     H78592   0.677  10.391   3.016  1.2291  3.1370 -0.9746
  570MOL0     H78593   0.417  10.252   3.332 -0.7874 -2.2876  0.0404
  570MOL0     H78594   0.593  10.239   3.329  1.6464 -2.5211 -1.5220
  570MOL0     H78595   0.377  10.066   3.184 -0.8172  0.5880 -0.5772
  570MOL0     H78596   0.533  10.006   3.211 -1.1267  0.9036  0.9118
  570MOL0     H78597   0.410   9.897   3.370 -1.3622 -0.2048 -1.1938
  570MOL0     H78598   0.498  10.020   3.455 -0.4408  0.6620 -0.3249
  570MOL0     H78599   0.312  10.160   3.481  0.2928  0.5918 -2.3111
  570MOL0     H78600   0.196  10.060   3.396 -0.2089  1.9962  0.8578
  570MOL0     H78601   0.181  10.054   3.637  2.4953  2.1995  1.6659
  570MOL0     H78602   0.350   9.998   3.646  0.0964  1.0672 -0.2359
  570MOL0     H78603   0.176   9.821   3.476  4.7719 -0.3241 -1.5985
  570MOL0     H78604   0.291   9.786   3.607  2.4722  4.0401  1.8601
  570MOL0     H78605   0.098   9.841   3.778 -2.1035 -0.6268  1.4186
  570MOL0     H78606   0.062   9.706   3.678 -1.2272  0.3284  2.8363
  570MOL0     H78607  -0.128   9.868   3.702 -0.6310  0.5705  0.0702
  570MOL0     H78608  -0.039   9.998   3.623 -2.1494  0.4942  1.7817
  570MOL0     H78609   0.009   9.971   3.347 -1.2096  0.2977  0.1174
  570MOL0     H78610   0.004   9.707   3.109 -0.3318  0.2925 -2.1214
  570MOL0     H78611  -0.052   9.878   3.103  2.3648 -0.3558  0.0976
  570MOL0     H78612  -0.238   9.639   3.136  2.2208 -0.8580 -0.9215
  570MOL0     H78613  -0.286   9.809   3.110  1.1831  1.2935  1.1469
  570MOL0     H78614  -0.308   9.666   2.902  0.5268 -2.9126  0.2005
  570MOL0     H78615  -0.166   9.791   2.886  3.7087 -1.0469  0.0171
  570MOL0     H78616  -0.014   9.631   2.876  0.1692 -0.6797  1.2660
  570MOL0     H78617  -0.113   9.518   2.976  2.3179  0.6826  0.8029
  570MOL0     H78618  -0.007   9.707   2.651  1.2761 -1.5707  0.9099
  570MOL0     H78619   0.211   9.672   2.368  1.1029  4.9589 -1.3265
  570MOL0     H78620   0.156   9.760   2.511  0.1738  0.3243 -1.2249
  570MOL0     H78621   0.065   9.766   2.371 -1.5668 -1.4214 -0.9947
  570MOL0     H78622   0.022   9.452   2.015 -0.1866  0.7397 -2.1841
  570MOL0     H78623   0.086   9.386   1.780  0.3102 -0.4789 -0.1116
  570MOL0     H78624   0.445   9.164   1.797  0.1355  1.2656  1.2235
  570MOL0     H78625   0.405   9.149   1.622  1.3334  0.4191 -0.3741
  570MOL0     H78626   0.381   9.384   1.592 -0.1704  1.6243  0.8175
  570MOL0     H78627   0.377   9.422   1.762 -1.8868 -0.0088 -1.3686
  570MOL0     H78628   0.614   9.311   1.781 -3.1384 -0.7489  2.0715
  570MOL0     H78629   0.606   9.464   1.718 -1.9949 -0.2138  3.9094
  570MOL0     H78630   0.587   9.215   1.527 -1.1602  1.4784 -0.4751
  570MOL0     H78631   0.745   9.263   1.578 -0.6185 -1.1048  2.2675
  570MOL0     H78632   0.719   9.323   1.364 -1.2706 -1.7736  1.2146
  570MOL0     H78633   0.567   9.414   1.376  0.4971  0.8500 -0.1658
  570MOL0     H78634   0.688   9.570   1.507  2.2158  0.7135  0.6900
  570MOL0     H78635   0.773   9.546   1.348  1.7149 -0.8381  0.4650
  570MOL0     H78636   0.935   9.409   1.461 -2.0888  0.2677 -1.2106
  570MOL0     H78637   0.856   9.434   1.620  1.1194  1.0294  0.8581
  570MOL0     H78638   0.959   9.671   1.467 -0.0535  3.8142  2.7523
  570MOL0     H78639   1.070   9.582   1.566  0.2459  1.1587 -0.3787
  570MOL0     H78640   0.303   9.045   1.941 -2.1177 -1.6261  0.8797
  570MOL0     H78641   0.199   9.107   2.180 -0.6005 -1.6596 -1.0131
  570MOL0     H78642  -0.063   9.258   2.457 -0.7666 -0.3952  0.1436
  570MOL0     H78643  -0.193   9.332   2.650 -1.1121  0.2901 -1.7575
  570MOL0     H78644   0.355  10.463   3.281  0.7203  1.5771  1.1178
  570MOL0     H78645   0.384  10.707   3.229 -0.3001  0.0558 -2.2963
  570MOL0     H78646   0.722  11.061   3.387 -2.8449 -1.5535 -0.1716
  570MOL0     H78647   0.715  11.296   3.404  0.9139 -0.3982 -0.9438
  570MOL0     H78648   0.725  11.492   3.378  2.4654 -1.6252 -0.6435
  570MOL0     H78649   0.811  11.504   3.218 -0.6498 -1.5317  0.5648
  570MOL0     H78650   0.790  11.737   3.333  1.5622 -0.7289 -0.2828
  570MOL0     H78651   0.611  11.711   3.322 -0.6898  0.9005 -2.5777
  570MOL0     H78652   0.791  11.702   3.084 -1.2565 -2.0744  0.2061
  570MOL0     H78653   0.629  11.695   3.079  1.1035 -3.0635 -1.0162
  570MOL0     H78654   0.778  11.930   3.215  1.4251 -1.0052 -0.6174
  570MOL0     H78655   0.605  11.927   3.176  0.2188  2.4052 -1.7675
  570MOL0     H78656   0.716  12.068   2.815 -0.7353  2.0047  0.9012
  570MOL0     H78657   0.565  11.324   3.008  1.5271  0.9347  0.8370
  570MOL0     H78658   0.482  11.152   2.906  0.5216  0.3944  1.1825
  570MOL0     H78659   0.598  11.020   2.906  0.9731  1.3665  0.3145
  570MOL0     H78660   0.436  11.010   2.990 -1.8486  2.1600 -0.9672
  571MOL0     O78661   8.497   6.047   1.205  1.0500  0.0455  0.8502
  571MOL0     C78662   8.411   6.131   1.244  0.5614  0.2698 -0.1963
  571MOL0     O78663   8.282   6.131   1.206 -0.0699 -0.8382  0.3726
  571MOL0     C78664   8.221   6.076   1.096  0.0773 -0.3240  0.4178
  571MOL0     C78665   8.164   5.948   1.091 -0.7565 -0.8984 -0.3613
  571MOL0     C78666   8.122   5.893   0.970  0.1560 -1.3421 -0.3656
  571MOL0     C78667   8.144   5.953   0.845  0.1788 -0.7033  0.2674
  571MOL0     O78668   8.094   5.894   0.737  0.5794  0.5774 -0.5250
  571MOL0     C78669   8.093   5.972   0.617 -0.1695  0.1832  0.4475
  571MOL0     C78670   8.028   5.881   0.507  0.3228  0.0730 -0.6582
  571MOL0     C78671   7.880   5.854   0.543 -0.0241  1.0758 -0.3247
  571MOL0     C78672   7.803   5.769   0.443 -0.3182  0.0413 -0.1213
  571MOL0     C78673   7.826   5.821   0.306  0.2526  0.2427  0.1687
  571MOL0     C78674   7.744   5.739   0.200  0.0885  0.2744 -0.0045
  571MOL0     C78675   7.754   5.797   0.056 -0.5443 -0.8816 -0.5857
  571MOL0     C78676   7.646   5.738  -0.045  0.1896 -0.8150 -0.8001
  571MOL0     N78677   7.505   5.761  -0.016  0.2718  0.9009 -0.0710
  571MOL0     C78678   7.430   5.870  -0.046 -0.2309 -0.1459 -0.6069
  571MOL0     C78679   7.298   5.837  -0.020 -0.9850 -0.2771  1.1068
  571MOL0     C78680   7.182   5.926  -0.050 -1.4574  0.2320 -0.5238
  571MOL0     C78681   7.122   5.892  -0.185 -0.3963 -0.2005  0.0386
  571MOL0     C78682   7.001   5.982  -0.208 -0.0704  0.0911 -0.1703
  571MOL0     C78683   6.954   5.970  -0.350 -0.8728  0.0412  0.3280
  571MOL0     O78684   6.910   5.833  -0.376 -0.1438 -0.3806 -0.0401
  571MOL0     C78685   6.856   5.809  -0.502  0.3088  0.5883 -1.1280
  571MOL0     C78686   6.790   5.902  -0.582  0.2006  0.3988 -1.0052
  571MOL0     C78687   6.749   5.872  -0.710  0.3457  0.6150  0.2194
  571MOL0     C78688   6.685   5.984  -0.783  1.2814 -0.3744 -0.1552
  571MOL0     C78689   6.768   5.737  -0.762 -1.6176 -0.3448  1.0048
  571MOL0     C78690   6.738   5.697  -0.906  0.2839 -0.7542  0.7074
  571MOL0     O78691   6.796   5.584  -0.951  0.0955  0.3818  0.2083
  571MOL0     C78692   6.772   5.548  -1.082 -0.0819  0.2713  0.0340
  571MOL0     C78693   6.890   5.494  -1.139  0.4392  0.1194 -0.3539
  571MOL0     C78694   6.883   5.463  -1.280  0.0905  0.9035  0.1864
  571MOL0     C78695   6.758   5.456  -1.349 -0.4579  0.5016 -0.6300
  571MOL0     O78696   6.775   5.384  -1.468 -0.2477  0.0987  0.6512
  571MOL0     C78697   6.649   5.343  -1.521  0.5291 -0.3857  0.2234
  571MOL0     C78698   6.678   5.314  -1.667  0.0767 -0.3809 -0.2147
  571MOL0     C78699   6.574   5.214  -1.722  0.4207  0.2029  1.0830
  571MOL0     C78700   6.586   5.200  -1.874 -0.2460  0.5453 -0.4255
  571MOL0     C78701   6.466   5.117  -1.932  0.0130 -0.5717  0.7006
  571MOL0     C78702   6.484   5.043  -2.065  1.3316 -0.0081 -0.4013
  571MOL0     C78703   6.578   5.119  -2.161 -0.1882 -1.2774  0.9845
  571MOL0     C78704   6.565   5.046  -2.301 -0.3155 -0.0134 -0.4958
  571MOL0    Cl78705   6.616   4.876  -2.315  0.0087  0.3275 -0.2104
  571MOL0     C78706   6.649   5.515  -1.286 -0.4167 -0.4709 -0.5995
  571MOL0     C78707   6.653   5.544  -1.154  1.4533  0.6441  0.4218
  571MOL0     O78708   6.649   5.760  -0.958  1.2965  0.7725  0.0924
  571MOL0     C78709   6.832   5.646  -0.684  0.6047 -0.3676  0.5568
  571MOL0     C78710   6.875   5.682  -0.555  0.5593 -0.0922 -0.2932
  571MOL0     N78711   7.297   5.703   0.022 -0.0303 -0.2260  0.0445
  571MOL0     N78712   7.416   5.661   0.016  0.2355 -0.2129 -1.1542
  571MOL0     C78713   8.213   6.074   0.850  0.1436  0.0839  0.9981
  571MOL0     C78714   8.237   6.136   0.966 -0.6980 -0.1449  0.0395
  571MOL0     C78715   8.445   6.234   1.345  0.4181  0.2641 -0.1963
  571MOL0     C78716   8.571   6.273   1.357 -0.4931  1.1817  0.2125
  571MOL0     C78717   8.621   6.353   1.460  0.1080 -0.6347 -0.3645
  571MOL0     C78718   8.537   6.414   1.551 -0.5329 -0.8968  0.1005
  571MOL0     O78719   8.586   6.500   1.648 -0.4427 -0.3928  0.0521
  571MOL0     C78720   8.663   6.447   1.763 -0.0064  0.8469  0.1165
  571MOL0     C78721   8.811   6.480   1.759  0.2588 -0.0112 -0.0742
  571MOL0     C78722   8.833   6.638   1.740 -0.1779  0.5944  0.0592
  571MOL0     C78723   8.971   6.692   1.756 -0.3258 -0.9175  0.7843
  571MOL0     C78724   9.073   6.616   1.684 -0.0152 -0.3526  0.1026
  571MOL0     C78725   9.150   6.564   1.612 -0.3321  0.3878 -0.3875
  571MOL0     C78726   8.401   6.398   1.522  0.3388 -0.5805 -0.3089
  571MOL0     C78727   8.347   6.310   1.422 -0.2073 -0.1175 -0.2996
  571MOL0     C78728   8.198   6.294   1.421  0.1271 -0.0032 -0.9018
  571MOL0     H78729   8.169   5.881   1.177  1.5716 -0.0140  0.2870
  571MOL0     H78730   8.075   5.796   0.982 -1.2554 -0.4422  2.0965
  571MOL0     H78731   8.195   5.989   0.583 -0.0961  0.7165  0.9284
  571MOL0     H78732   8.044   6.070   0.620  1.3305  1.1841 -2.8248
  571MOL0     H78733   8.035   5.937   0.413 -0.7740  0.9486 -0.2404
  571MOL0     H78734   8.078   5.783   0.510  1.3398  0.5491  3.1902
  571MOL0     H78735   7.858   5.821   0.645 -2.2751 -0.6432 -1.2810
  571MOL0     H78736   7.837   5.954   0.533  0.6181  1.3282 -0.5856
  571MOL0     H78737   7.837   5.665   0.439  3.8245  1.2495 -2.1904
  571MOL0     H78738   7.696   5.772   0.467 -0.1868 -0.5951  0.5992
  571MOL0     H78739   7.931   5.794   0.297 -0.0288 -0.5979 -0.9335
  571MOL0     H78740   7.809   5.927   0.286  0.0199 -0.0709 -1.4987
  571MOL0     H78741   7.767   5.633   0.187 -0.0073  0.2602 -0.0625
  571MOL0     H78742   7.640   5.735   0.234 -0.1667 -1.9279 -0.8869
  571MOL0     H78743   7.856   5.774   0.023  0.2682 -2.5326  2.7245
  571MOL0     H78744   7.744   5.906   0.051  1.4613 -0.7170 -3.8437
  571MOL0     H78745   7.671   5.778  -0.144  1.9671 -3.5973 -1.6097
  571MOL0     H78746   7.672   5.632  -0.051 -1.3460 -1.2398 -0.4197
  571MOL0     H78747   7.468   5.965  -0.082 -2.7834  0.7402 -1.1686
  571MOL0     H78748   7.209   6.031  -0.046 -0.7957  0.1921 -2.8434
  571MOL0     H78749   7.105   5.901   0.024 -2.8529  0.5909 -1.7993
  571MOL0     H78750   7.198   5.900  -0.263 -1.8048  2.9378 -1.1831
  571MOL0     H78751   7.088   5.788  -0.189  1.0159 -0.6400 -2.8499
  571MOL0     H78752   6.918   5.947  -0.145  0.2870 -1.5386 -0.5601
  571MOL0     H78753   7.027   6.087  -0.190 -4.1051  1.1066  0.7546
  571MOL0     H78754   6.870   6.040  -0.358 -0.0639  1.3047  2.1296
  571MOL0     H78755   7.033   5.989  -0.424 -1.2086 -2.9079 -0.9223
  571MOL0     H78756   6.771   6.003  -0.547  3.0841  0.2735  1.3276
  571MOL0     H78757   6.728   6.081  -0.756  3.8259 -2.0200  2.2765
  571MOL0     H78758   6.576   5.995  -0.784  1.2767 -0.3555 -1.3700
  571MOL0     H78759   6.727   5.979  -0.884  1.9041  2.1739 -0.0769
  571MOL0     H78760   6.983   5.487  -1.084  0.1868 -4.1427 -0.1803
  571MOL0     H78761   6.968   5.424  -1.334 -0.2136  1.4263 -0.6872
  571MOL0     H78762   6.612   5.256  -1.466  0.0699  0.6587  1.6191
  571MOL0     H78763   6.564   5.411  -1.515  0.0773 -0.6417 -2.1497
  571MOL0     H78764   6.685   5.407  -1.725  0.2451 -0.0147  0.3857
  571MOL0     H78765   6.778   5.271  -1.670  0.7243  0.9563  1.0444
  571MOL0     H78766   6.472   5.249  -1.705 -1.2257 -2.6583 -1.8339
  571MOL0     H78767   6.593   5.119  -1.672 -0.6780 -0.6097  0.0064
  571MOL0     H78768   6.682   5.152  -1.892  0.5018  2.1598 -0.9180
  571MOL0     H78769   6.582   5.300  -1.917 -0.4517 -0.5679 -3.1986
  571MOL0     H78770   6.422   5.057  -1.851  0.1365  1.1576  2.1241
  571MOL0     H78771   6.389   5.195  -1.941  1.7485  1.7188  3.6704
  571MOL0     H78772   6.393   5.018  -2.121  0.7889  0.7565  0.1227
  571MOL0     H78773   6.531   4.950  -2.031  0.6158  0.6970  2.8805
  571MOL0     H78774   6.684   5.120  -2.135  0.6433  1.7925 -1.8412
  571MOL0     H78775   6.540   5.221  -2.168 -1.7556 -1.9010  0.0639
  571MOL0     H78776   6.631   5.099  -2.369 -3.0214  1.3958 -2.1907
  571MOL0     H78777   6.470   5.061  -2.353  0.8540  1.8549 -2.2315
  571MOL0     H78778   6.570   5.532  -1.358  1.4217 -2.4886 -3.3395
  571MOL0     H78779   6.565   5.585  -1.106  2.2679  0.0089  2.5733
  571MOL0     H78780   6.834   5.542  -0.715  0.5878  0.0954 -1.1063
  571MOL0     H78781   6.941   5.612  -0.505  1.0534 -1.5311 -2.8289
  571MOL0     H78782   8.250   6.125   0.761 -2.5032  0.8343  0.2475
  571MOL0     H78783   8.293   6.228   0.954 -1.7126  0.3884 -0.8763
  571MOL0     H78784   8.641   6.238   1.281  0.2063 -0.1999  1.4443
  571MOL0     H78785   8.727   6.374   1.468 -0.0624  2.1633 -3.2612
  571MOL0     H78786   8.627   6.477   1.861 -1.4965  0.1475 -0.1828
  571MOL0     H78787   8.667   6.337   1.758  4.7901  0.7404  1.6374
  571MOL0     H78788   8.864   6.431   1.676  2.4945 -1.5002  2.1110
  571MOL0     H78789   8.863   6.449   1.850 -0.1529  2.7401  1.1835
  571MOL0     H78790   8.790   6.679   1.648 -0.4186  1.8081  0.6894
  571MOL0     H78791   8.786   6.689   1.825 -1.5648 -1.3031  0.4946
  571MOL0     H78792   8.991   6.692   1.864  0.3133  1.6655  0.7299
  571MOL0     H78793   8.965   6.796   1.721 -5.3523 -1.7997 -2.0271
  571MOL0     H78794   9.226   6.524   1.547 -0.7922 -0.4094 -0.4502
  571MOL0     H78795   8.339   6.465   1.580 -0.6356  1.5003 -3.4627
  571MOL0     H78796   8.160   6.191   1.418 -0.8110  0.3464 -1.8745
  571MOL0     H78797   8.157   6.341   1.511  1.1385 -0.9829  0.0982
  571MOL0     H78798   8.149   6.349   1.340 -2.4107  2.1449  1.8630
  572MOL0     O78799   5.528   4.876   5.495 -0.9484 -0.3559  0.5352
  572MOL0     C78800   5.607   4.783   5.487  0.2229 -0.0065 -0.6351
  572MOL0     O78801   5.580   4.661   5.535  0.0861 -0.1287 -0.0431
  572MOL0     C78802   5.453   4.637   5.583 -0.6185  0.6304 -0.2005
  572MOL0     C78803   5.336   4.648   5.503 -0.7757 -0.1644 -0.4234
  572MOL0     C78804   5.211   4.637   5.574 -0.1524 -0.4933 -0.3833
  572MOL0     C78805   5.203   4.604   5.706 -0.2407  0.7109 -0.9687
  572MOL0     O78806   5.084   4.603   5.771  1.3973  0.6655 -0.1095
  572MOL0     C78807   4.955   4.609   5.709 -0.0541 -0.3604 -0.2819
  572MOL0     C78808   4.866   4.558   5.816  0.3258  0.0937 -0.1671
  572MOL0     C78809   4.722   4.557   5.769 -0.6878  0.1234  0.3554
  572MOL0     C78810   4.623   4.621   5.873 -0.6886  0.9875  0.1880
  572MOL0     C78811   4.474   4.588   5.845  0.5179  0.4065 -0.5572
  572MOL0     C78812   4.381   4.668   5.928 -0.7746 -0.4408  0.1778
  572MOL0     C78813   4.231   4.627   5.901 -0.7174 -0.2508 -0.3281
  572MOL0     C78814   4.143   4.735   5.968 -0.7416  0.7428  0.6328
  572MOL0     N78815   4.014   4.747   5.899 -0.5562  0.2636  0.5213
  572MOL0     C78816   3.925   4.652   5.866  0.1426  0.8734 -0.2597
  572MOL0     C78817   3.848   4.698   5.764 -0.9307  0.8925  1.2437
  572MOL0     C78818   3.722   4.630   5.699 -0.5037 -0.8381 -0.2543
  572MOL0     C78819   3.643   4.709   5.596  0.1960 -0.6990 -0.7077
  572MOL0     C78820   3.557   4.818   5.674  0.2066  0.0019 -0.1937
  572MOL0     C78821   3.442   4.889   5.586  0.4013  0.5686 -0.1650
  572MOL0     O78822   3.491   4.950   5.465  0.1755 -0.3926  0.0143
  572MOL0     C78823   3.521   5.083   5.467 -1.0298 -0.1086  0.1425
  572MOL0     C78824   3.657   5.124   5.476 -0.1930  1.1435  0.2674
  572MOL0     C78825   3.678   5.259   5.496  0.0698  0.6330  0.0570
  572MOL0     C78826   3.817   5.294   5.509 -0.1860  0.2925  0.1103
  572MOL0     C78827   3.566   5.350   5.516  0.0900 -0.0643  0.5764
  572MOL0     C78828   3.575   5.495   5.525 -0.2338 -0.5801  1.1965
  572MOL0     O78829   3.464   5.573   5.481 -0.1481  0.5576 -0.5754
  572MOL0     C78830   3.464   5.712   5.511  0.5721 -0.3477  0.6702
  572MOL0     C78831   3.459   5.806   5.400  0.1439  1.3756 -0.0068
  572MOL0     C78832   3.447   5.943   5.418 -1.0725  0.3190 -0.1546
  572MOL0     C78833   3.449   5.995   5.544 -0.2012 -0.1725 -0.0642
  572MOL0     O78834   3.439   6.130   5.570  0.0616 -0.0178 -0.2254
  572MOL0     C78835   3.471   6.226   5.455 -0.0429  0.6332 -0.6255
  572MOL0     C78836   3.484   6.365   5.516 -0.1633 -0.0410 -0.4182
  572MOL0     C78837   3.619   6.368   5.591 -0.3009 -0.0907  0.7773
  572MOL0     C78838   3.615   6.491   5.701  0.1702 -1.3669  0.4703
  572MOL0     C78839   3.576   6.446   5.841 -0.7752  0.1812  0.1930
  572MOL0     C78840   3.628   6.542   5.948  0.9219  1.1881 -0.6664
  572MOL0     C78841   3.774   6.537   5.981  0.9533  0.4057  0.5465
  572MOL0     C78842   3.798   6.632   6.094 -0.1622 -0.7915 -0.2000
  572MOL0    Cl78843   3.959   6.591   6.164 -0.3984 -0.4095 -0.3474
  572MOL0     C78844   3.452   5.905   5.647 -0.9830  0.5214  0.2429
  572MOL0     C78845   3.460   5.762   5.639 -0.2614 -0.4240  0.6442
  572MOL0     O78846   3.675   5.546   5.573 -0.2672 -0.3451 -0.2613
  572MOL0     C78847   3.435   5.304   5.509 -1.1099  0.2398 -0.6564
  572MOL0     C78848   3.415   5.169   5.482  0.8137 -0.0241  1.0558
  572MOL0     N78849   3.890   4.825   5.743  0.5024  0.1997  0.0988
  572MOL0     N78850   3.982   4.862   5.827 -1.0419 -0.3354  0.5294
  572MOL0     C78851   5.321   4.575   5.780  0.3036  0.9191  0.2958
  572MOL0     C78852   5.448   4.611   5.720 -0.2498  0.2087 -0.2483
  572MOL0     C78853   5.741   4.816   5.414  0.8283  0.1445 -0.1589
  572MOL0     C78854   5.835   4.707   5.403 -0.1823 -1.2087  0.0806
  572MOL0     C78855   5.962   4.734   5.337  0.1351 -0.7936  0.2994
  572MOL0     C78856   5.988   4.860   5.279  0.4658 -0.9458  0.2765
  572MOL0     O78857   6.097   4.891   5.204 -0.4629  0.4119 -0.6391
  572MOL0     C78858   6.190   4.787   5.170 -0.0275  0.1553  0.1057
  572MOL0     C78859   6.323   4.833   5.121 -0.4594 -0.7353  0.0354
  572MOL0     C78860   6.387   4.942   5.209  0.5015  0.6626  0.8572
  572MOL0     C78861   6.429   4.900   5.347 -0.2735  0.0677  0.0041
  572MOL0     C78862   6.539   4.991   5.390 -0.0413  0.6887 -0.2061
  572MOL0     C78863   6.634   5.060   5.421  0.2754 -0.5153  0.3495
  572MOL0     C78864   5.888   4.960   5.283 -0.3571 -0.1121 -0.0166
  572MOL0     C78865   5.764   4.937   5.337 -0.2253 -0.8912 -1.0402
  572MOL0     C78866   5.661   5.052   5.320  0.5607 -0.4950 -0.2167
  572MOL0     H78867   5.337   4.670   5.397 -1.8421  3.8170  0.2083
  572MOL0     H78868   5.122   4.675   5.525 -0.7107 -1.6396 -0.2999
  572MOL0     H78869   4.950   4.549   5.619 -5.9969 -3.8020  1.8190
  572MOL0     H78870   4.915   4.710   5.695 -1.9042 -0.6766  2.1002
  572MOL0     H78871   4.896   4.464   5.863  0.9090  0.8464  1.0135
  572MOL0     H78872   4.868   4.623   5.904  0.9416 -1.1522  0.7711
  572MOL0     H78873   4.716   4.614   5.676  0.6234 -0.6623 -0.2367
  572MOL0     H78874   4.705   4.451   5.746  1.8481 -0.9462  2.8574
  572MOL0     H78875   4.646   4.585   5.974 -1.3822  1.2954  0.4602
  572MOL0     H78876   4.624   4.730   5.868 -1.0727  1.0100  0.6064
  572MOL0     H78877   4.452   4.481   5.840  1.8871  0.0980 -0.5115
  572MOL0     H78878   4.469   4.620   5.740 -2.6775 -1.3260 -1.0543
  572MOL0     H78879   4.395   4.647   6.035 -4.5921  0.2258  0.9717
  572MOL0     H78880   4.398   4.771   5.899 -3.7825 -0.2431 -1.2465
  572MOL0     H78881   4.211   4.525   5.932  0.3018 -1.1147 -2.3271
  572MOL0     H78882   4.203   4.630   5.795 -0.3464  1.5851 -0.4171
  572MOL0     H78883   4.125   4.696   6.068  2.2550  1.0086  1.3930
  572MOL0     H78884   4.193   4.833   5.975 -1.8345  1.3063  0.7106
  572MOL0     H78885   3.923   4.550   5.903  0.0421  0.8601 -0.3014
  572MOL0     H78886   3.662   4.605   5.787 -3.2528 -0.6602 -1.9627
  572MOL0     H78887   3.752   4.531   5.663 -1.5443 -0.8723 -1.0487
  572MOL0     H78888   3.699   4.771   5.525 -0.6483  4.1397  2.3967
  572MOL0     H78889   3.570   4.650   5.540 -2.9861 -1.9980  4.1339
  572MOL0     H78890   3.521   4.779   5.769 -2.0515  1.9041 -0.1894
  572MOL0     H78891   3.617   4.902   5.711  1.6423  0.3441 -2.9691
  572MOL0     H78892   3.383   4.808   5.542  1.7734  0.2734 -1.5782
  572MOL0     H78893   3.382   4.958   5.646  1.7740  2.2148 -0.5891
  572MOL0     H78894   3.740   5.056   5.462 -0.8099  0.3332  0.4414
  572MOL0     H78895   3.887   5.222   5.466  3.0537  1.1555  3.3794
  572MOL0     H78896   3.841   5.309   5.615 -3.3127 -2.8450  1.5088
  572MOL0     H78897   3.837   5.390   5.461 -2.3511  1.4723  1.3780
  572MOL0     H78898   3.466   5.763   5.301  1.3215  0.8131  0.3047
  572MOL0     H78899   3.450   6.002   5.326  2.4549  1.7738  0.7355
  572MOL0     H78900   3.565   6.203   5.406  0.6171  0.5451  0.6345
  572MOL0     H78901   3.388   6.216   5.384 -1.3029  1.7969  0.5982
  572MOL0     H78902   3.476   6.436   5.433  0.6851 -1.8983 -2.1858
  572MOL0     H78903   3.402   6.381   5.586  1.4722  0.5678  1.4662
  572MOL0     H78904   3.695   6.390   5.515 -1.3225 -0.6160 -0.4372
  572MOL0     H78905   3.650   6.272   5.634  2.2770 -0.8544 -2.3344
  572MOL0     H78906   3.546   6.574   5.684  0.4689 -0.7559  2.0794
  572MOL0     H78907   3.714   6.537   5.689 -0.2325 -1.0876 -2.8083
  572MOL0     H78908   3.466   6.440   5.844 -0.8933  1.9933  0.2757
  572MOL0     H78909   3.599   6.340   5.854 -2.2483 -0.5945 -2.6172
  572MOL0     H78910   3.569   6.523   6.038  1.5817  2.8589  0.1733
  572MOL0     H78911   3.611   6.645   5.916  5.8565  3.7077  3.3547
  572MOL0     H78912   3.840   6.563   5.898  0.3025  0.5817  0.0780
  572MOL0     H78913   3.793   6.437   6.022  1.9345 -0.2133 -1.2991
  572MOL0     H78914   3.722   6.626   6.173 -0.9911  1.6894 -0.7050
  572MOL0     H78915   3.794   6.735   6.057  3.1615  0.4094  2.3464
  572MOL0     H78916   3.454   5.943   5.749  1.3631 -2.3873  1.4168
  572MOL0     H78917   3.465   5.692   5.722  0.7263 -1.0110  0.1140
  572MOL0     H78918   3.354   5.375   5.527 -2.5977 -1.4382 -0.4452
  572MOL0     H78919   3.314   5.131   5.468  1.1027 -1.5718  2.7419
  572MOL0     H78920   5.309   4.541   5.882  0.8097 -0.0967  0.0244
  572MOL0     H78921   5.531   4.623   5.790 -1.6215 -2.0255  1.9376
  572MOL0     H78922   5.829   4.609   5.449 -3.4676 -1.7446 -1.2118
  572MOL0     H78923   6.032   4.652   5.335 -1.3500 -2.1115  0.5836
  572MOL0     H78924   6.210   4.729   5.261  1.1579  1.1891  0.5242
  572MOL0     H78925   6.138   4.718   5.102  0.2848 -1.5221  1.4868
  572MOL0     H78926   6.299   4.876   5.023  1.9268 -3.0160 -1.7065
  572MOL0     H78927   6.402   4.760   5.100  2.5996  2.4692 -0.7188
  572MOL0     H78928   6.480   4.964   5.155  1.2094 -1.1261  1.2903
  572MOL0     H78929   6.318   5.027   5.213 -3.5946 -1.9625 -3.1961
  572MOL0     H78930   6.467   4.799   5.330  2.9499  1.4746 -2.0493
  572MOL0     H78931   6.345   4.898   5.418  2.0849  1.6496  3.0716
  572MOL0     H78932   6.727   5.113   5.424  0.6690 -1.0978 -0.8068
  572MOL0     H78933   5.908   5.063   5.255  0.5016  0.5035  2.6077
  572MOL0     H78934   5.563   5.015   5.289 -0.8399  3.0001 -0.4461
  572MOL0     H78935   5.651   5.099   5.418  0.1503 -0.1651 -0.4110
  572MOL0     H78936   5.685   5.120   5.237 -0.6485 -3.3999 -3.1741
  573MOL0     O78937   6.407   8.655  10.046  0.3940  0.0583  0.1738
  573MOL0     C78938   6.288   8.638  10.070  0.6867  0.1010 -0.6522
  573MOL0     O78939   6.188   8.705  10.004  0.7864 -0.8459 -0.3508
  573MOL0     C78940   6.242   8.807   9.924  0.0527  1.1872 -0.9051
  573MOL0     C78941   6.228   8.946   9.961  0.1819  0.9416 -0.1312
  573MOL0     C78942   6.308   9.045   9.898  0.2128  0.0588  0.7169
  573MOL0     C78943   6.360   9.008   9.767  0.1637 -0.4840  0.8469
  573MOL0     O78944   6.431   9.106   9.692 -0.5740 -0.0611 -0.6263
  573MOL0     C78945   6.416   9.241   9.736  0.4120  0.6493 -0.1113
  573MOL0     C78946   6.501   9.343   9.665 -0.3130 -0.1243 -0.4040
  573MOL0     C78947   6.458   9.378   9.523  0.6924 -0.2093 -0.0545
  573MOL0     C78948   6.536   9.496   9.460  0.5118 -0.5762  0.9083
  573MOL0     C78949   6.519   9.497   9.305 -0.0685  0.1875 -0.1796
  573MOL0     C78950   6.649   9.535   9.229  0.7643  0.1637  0.1902
  573MOL0     C78951   6.749   9.417   9.211 -0.0575  0.3544 -0.1924
  573MOL0     C78952   6.845   9.460   9.096  0.0444 -0.3011  0.7624
  573MOL0     N78953   6.954   9.369   9.102  1.0500 -0.4406  0.3068
  573MOL0     C78954   6.964   9.247   9.055 -0.5229 -0.0199 -0.3273
  573MOL0     C78955   7.091   9.196   9.058 -0.6918  0.6746 -0.0826
  573MOL0     C78956   7.148   9.072   8.994  0.7022 -0.2697  0.7796
  573MOL0     C78957   7.238   9.009   9.092 -0.0998  0.6085  0.2820
  573MOL0     C78958   7.263   8.865   9.055  0.0688 -0.7418 -1.2789
  573MOL0     C78959   7.315   8.788   9.174 -0.2387 -0.4490 -0.4345
  573MOL0     O78960   7.231   8.774   9.291  0.6807 -0.7341 -0.4270
  573MOL0     C78961   7.127   8.690   9.314  0.0997 -1.0453  0.0474
  573MOL0     C78962   7.083   8.677   9.447 -0.2737 -0.8609  0.0725
  573MOL0     C78963   6.972   8.605   9.477  0.3337 -0.2377 -0.5919
  573MOL0     C78964   6.933   8.601   9.620 -1.3350  0.5748 -0.6513
  573MOL0     C78965   6.890   8.549   9.374  0.4144 -0.3472  0.0679
  573MOL0     C78966   6.761   8.483   9.400  0.1857 -0.5033 -0.1615
  573MOL0     O78967   6.684   8.550   9.499 -0.3706  0.4754  0.1998
  573MOL0     C78968   6.579   8.478   9.549  0.5204  0.1430  0.0190
  573MOL0     C78969   6.491   8.390   9.487  0.7287  0.0520  0.5376
  573MOL0     C78970   6.381   8.337   9.559  0.7025  0.5193 -0.0343
  573MOL0     C78971   6.370   8.349   9.704  0.0150 -0.2471 -1.7890
  573MOL0     O78972   6.253   8.288   9.758 -0.0903  0.2624 -0.3395
  573MOL0     C78973   6.240   8.292   9.903  0.3526 -0.1671  0.3555
  573MOL0     C78974   6.094   8.251   9.921 -0.3871 -0.5391 -0.0685
  573MOL0     C78975   6.077   8.102   9.885 -0.5384  0.7585 -0.0356
  573MOL0     C78976   5.946   8.044   9.917 -0.4077 -0.2345 -0.2983
  573MOL0     C78977   5.940   7.891   9.885 -0.4296  0.2406  0.4674
  573MOL0     C78978   5.801   7.830   9.927 -0.6349 -0.8563  0.4595
  573MOL0     C78979   5.799   7.806  10.075 -0.0806 -0.2207 -0.3694
  573MOL0     C78980   5.659   7.801  10.146  0.2316 -0.1708  0.8247
  573MOL0    Cl78981   5.542   7.697  10.057 -0.0386  0.1319 -0.1508
  573MOL0     C78982   6.467   8.431   9.775 -0.1314  0.0557 -0.0712
  573MOL0     C78983   6.574   8.493   9.690  1.0101 -0.4325  0.3646
  573MOL0     O78984   6.741   8.372   9.340  0.5462 -0.6593  0.0486
  573MOL0     C78985   6.945   8.554   9.247  0.9245 -0.3141  0.1177
  573MOL0     C78986   7.057   8.628   9.221  0.1515  0.0330  0.6890
  573MOL0     N78987   7.166   9.291   9.127 -0.2209 -0.2091 -0.1425
  573MOL0     N78988   7.079   9.390   9.156 -0.0135  0.8552 -0.4551
  573MOL0     C78989   6.346   8.877   9.722 -0.4348 -0.4277  0.5014
  573MOL0     C78990   6.301   8.781   9.806 -0.3248  0.4662 -0.0353
  573MOL0     C78991   6.256   8.535  10.172 -0.1907 -0.4040  0.8002
  573MOL0     C78992   6.116   8.504  10.179  0.0841 -0.5228  0.6556
  573MOL0     C78993   6.062   8.414  10.270  0.5822 -0.9803 -0.1440
  573MOL0     C78994   6.149   8.333  10.341  1.3592 -0.2032 -0.0427
  573MOL0     O78995   6.109   8.225  10.420  0.0971 -0.4124 -0.0016
  573MOL0     C78996   5.977   8.219  10.469 -0.6123  0.1421  0.2946
  573MOL0     C78997   5.942   8.072  10.495 -1.2338 -1.4825 -0.7410
  573MOL0     C78998   6.067   7.994  10.562 -0.3682 -0.0641  0.1927
  573MOL0     C78999   6.036   7.852  10.595  0.3619 -0.2777 -0.2077
  573MOL0     C79000   5.940   7.864  10.711  0.3950  0.7443 -0.3930
  573MOL0     C79001   5.874   7.844  10.810 -0.4169  0.1150 -0.5556
  573MOL0     C79002   6.280   8.368  10.343 -0.6189  0.5810  0.1997
  573MOL0     C79003   6.334   8.460  10.255 -0.7946 -0.5421  0.3882
  573MOL0     C79004   6.487   8.473  10.259 -0.3616  0.5766 -0.4278
  573MOL0     H79005   6.158   8.968  10.041 -0.8372 -1.2651 -0.3414
  573MOL0     H79006   6.320   9.146   9.935  3.1436  0.1763 -0.3008
  573MOL0     H79007   6.454   9.246   9.838 -2.0403 -0.6493  0.9380
  573MOL0     H79008   6.309   9.260   9.737 -0.0888 -1.5005 -2.4731
  573MOL0     H79009   6.501   9.434   9.726  1.0341 -3.0192  4.4916
  573MOL0     H79010   6.603   9.302   9.660 -0.6461 -0.9289 -0.7487
  573MOL0     H79011   6.480   9.297   9.454  2.6335  0.7168 -0.5907
  573MOL0     H79012   6.354   9.409   9.533  1.4770  2.4438  1.0116
  573MOL0     H79013   6.492   9.592   9.489  1.2852  0.5669 -1.4518
  573MOL0     H79014   6.642   9.498   9.489  0.5856  0.0638  0.6160
  573MOL0     H79015   6.436   9.564   9.281  0.5125  0.2550 -2.1628
  573MOL0     H79016   6.493   9.398   9.268  0.1833  0.9792 -2.6204
  573MOL0     H79017   6.617   9.566   9.130 -2.1494  0.1607  1.0437
  573MOL0     H79018   6.697   9.617   9.283  1.5161 -0.3299  0.2892
  573MOL0     H79019   6.696   9.326   9.180  1.0678 -1.2574  2.2982
  573MOL0     H79020   6.811   9.384   9.295  1.3432  1.0854 -0.9051
  573MOL0     H79021   6.803   9.453   8.996 -0.9076  0.0897  1.1242
  573MOL0     H79022   6.875   9.563   9.117 -1.4855  0.0931  1.1335
  573MOL0     H79023   6.882   9.189   9.013 -0.8644 -1.4577  2.0878
  573MOL0     H79024   7.189   9.087   8.893 -1.8576  0.0125 -0.2792
  573MOL0     H79025   7.061   9.007   8.982 -1.6872  2.7636  0.4676
  573MOL0     H79026   7.337   9.057   9.091  0.0435  0.3493 -1.5545
  573MOL0     H79027   7.199   9.014   9.194 -1.0779  0.9399 -0.1047
  573MOL0     H79028   7.184   8.821   8.994 -0.4262 -0.9777 -0.4826
  573MOL0     H79029   7.353   8.846   8.995  1.5268  1.1534  0.1729
  573MOL0     H79030   7.324   8.684   9.142 -4.9521 -1.5620  0.9797
  573MOL0     H79031   7.413   8.830   9.197 -0.2770  0.6271 -2.0376
  573MOL0     H79032   7.145   8.721   9.525 -0.8974  0.2645 -0.0463
  573MOL0     H79033   6.897   8.503   9.651  1.7271 -0.3633  0.2909
  573MOL0     H79034   6.862   8.680   9.645 -2.5624 -1.3955  2.6673
  573MOL0     H79035   7.023   8.619   9.680 -1.4939 -1.8121  0.3964
  573MOL0     H79036   6.502   8.395   9.379  2.5283  1.5629  0.7218
  573MOL0     H79037   6.305   8.275   9.512  0.5171 -0.6750  1.7364
  573MOL0     H79038   6.311   8.229   9.957  0.1611  0.1461  0.9823
  573MOL0     H79039   6.252   8.393   9.942  2.1820  0.7383 -2.3052
  573MOL0     H79040   6.057   8.253  10.024 -3.3832 -0.0850 -1.0387
  573MOL0     H79041   6.031   8.316   9.859  0.4491  0.2159 -0.1479
  573MOL0     H79042   6.163   8.058   9.936 -0.0892  0.5192 -0.9635
  573MOL0     H79043   6.101   8.059   9.786  1.8399  1.8535  0.0062
  573MOL0     H79044   5.875   8.099   9.854  1.2817 -1.1355 -3.1488
  573MOL0     H79045   5.929   8.052  10.025  0.4832 -2.0531  0.0148
  573MOL0     H79046   5.940   7.889   9.776 -2.1306  0.9668  0.4259
  573MOL0     H79047   6.016   7.835   9.941 -1.6158  0.0054  1.9121
  573MOL0     H79048   5.778   7.728   9.895 -1.9789 -0.2538 -0.5825
  573MOL0     H79049   5.717   7.895   9.901  0.7894  1.0389  0.3930
  573MOL0     H79050   5.857   7.883  10.126  2.6330 -1.6168 -1.1539
  573MOL0     H79051   5.847   7.709  10.083  2.5839  0.7305 -3.1463
  573MOL0     H79052   5.607   7.897  10.150  1.0594  0.2896  0.5664
  573MOL0     H79053   5.689   7.774  10.248 -1.8039  0.8231  1.7482
  573MOL0     H79054   6.445   8.456   9.878 -4.3011 -1.2696 -0.4649
  573MOL0     H79055   6.631   8.568   9.744 -0.5941  1.0778  0.0622
  573MOL0     H79056   6.893   8.501   9.168 -0.1379  0.2173  0.4428
  573MOL0     H79057   7.083   8.644   9.117  0.0049  1.4852  0.8603
  573MOL0     H79058   6.375   8.857   9.620  1.5866 -2.2725  1.3435
  573MOL0     H79059   6.308   8.682   9.764  5.0148  1.2317 -1.7588
  573MOL0     H79060   6.041   8.555  10.119  2.5601 -1.5234 -3.7010
  573MOL0     H79061   5.958   8.385  10.257  0.3700 -0.3177  0.0479
  573MOL0     H79062   5.969   8.265  10.568 -0.4071  0.1917  0.2874
  573MOL0     H79063   5.903   8.261  10.399 -0.4477  0.0304  0.0525
  573MOL0     H79064   5.911   8.025  10.402 -1.3525  0.0026 -1.4916
  573MOL0     H79065   5.855   8.074  10.562  0.1114  3.3153  1.3185
  573MOL0     H79066   6.146   7.994  10.486 -0.4447 -1.4979  0.0741
  573MOL0     H79067   6.104   8.040  10.654  2.7954  0.4126 -1.1672
  573MOL0     H79068   6.125   7.799  10.631  0.5338  0.9567  1.3021
  573MOL0     H79069   5.986   7.797  10.515 -0.4103 -0.2090  0.2189
  573MOL0     H79070   5.817   7.838  10.900 -0.2227 -2.0287 -0.5173
  573MOL0     H79071   6.347   8.310  10.406  1.3173  3.7171  1.2542
  573MOL0     H79072   6.532   8.417  10.342  0.5394 -0.2000 -1.4204
  573MOL0     H79073   6.531   8.442  10.164  1.4681  0.7449  0.3060
  573MOL0     H79074   6.520   8.576  10.274  0.0769  0.8223 -2.7891
  574MOL0     O79075   3.953  11.160   3.467 -0.6913  0.1767 -1.8194
  574MOL0     C79076   4.069  11.120   3.469  0.5137  0.9524  0.1462
  574MOL0     O79077   4.179  11.191   3.434 -0.1441 -0.6825  0.1995
  574MOL0     C79078   4.159  11.321   3.379  0.5483  0.3923 -0.5149
  574MOL0     C79079   4.237  11.417   3.428  0.1801 -0.3040 -0.1214
  574MOL0     C79080   4.263  11.533   3.355  0.1786  0.7356 -1.0021
  574MOL0     C79081   4.183  11.566   3.246  0.3107 -0.9565 -0.0866
  574MOL0     O79082   4.207  11.689   3.186  0.4075  0.0752 -0.0078
  574MOL0     C79083   4.195  11.687   3.047  0.4171  1.2943  0.4698
  574MOL0     C79084   4.269  11.803   2.981 -0.5669 -0.3645 -0.5823
  574MOL0     C79085   4.259  11.783   2.829  0.1804 -0.4697 -0.2702
  574MOL0     C79086   4.301  11.917   2.767  1.7299  0.0358  0.4865
  574MOL0     C79087   4.330  11.897   2.612 -0.4736  1.2112 -0.3029
  574MOL0     C79088   4.327  12.025   2.539  0.4520 -1.4144  0.1207
  574MOL0     C79089   4.386  12.033   2.397 -0.5203  0.8812 -0.5244
  574MOL0     C79090   4.342  12.161   2.317 -0.4890 -0.2327 -0.3344
  574MOL0     N79091   4.389  12.288   2.372  0.3228 -0.7642 -0.6213
  574MOL0     C79092   4.322  12.413   2.368 -0.1793 -0.6245 -0.6427
  574MOL0     C79093   4.408  12.501   2.429 -0.3369 -0.7656  0.5148
  574MOL0     C79094   4.355  12.630   2.489  0.7399  0.1285  0.6031
  574MOL0     C79095   4.418  12.675   2.624 -0.0815 -0.1329  0.8064
  574MOL0     C79096   4.390  12.830   2.645 -0.6108 -0.1769  0.0963
  574MOL0     C79097   4.456  12.921   2.530  0.0682  0.7918  0.8448
  574MOL0     O79098   4.434  13.062   2.550  0.2415 -0.3222 -0.3396
  574MOL0     C79099   4.524  13.140   2.479 -0.0509 -0.7573  0.1818
  574MOL0     C79100   4.653  13.162   2.540  0.6089 -0.0654 -0.2429
  574MOL0     C79101   4.750  13.245   2.470 -0.1158  0.0869  0.0672
  574MOL0     C79102   4.878  13.277   2.549 -0.8782 -0.5481  0.2703
  574MOL0     C79103   4.714  13.297   2.350 -0.2350 -0.2014  0.2107
  574MOL0     C79104   4.809  13.382   2.263  0.1461  0.5792  0.0184
  574MOL0     O79105   4.755  13.475   2.191  0.7779 -0.2293  0.5452
  574MOL0     C79106   4.821  13.542   2.096 -0.0151  0.3778 -1.6834
  574MOL0     C79107   4.956  13.524   2.046 -0.0508  0.2035  0.0490
  574MOL0     C79108   5.008  13.603   1.942 -0.3425  0.2611  0.2670
  574MOL0     C79109   4.920  13.687   1.877  0.1721 -1.0679  0.6194
  574MOL0     O79110   4.957  13.770   1.769  0.5020 -0.1753 -0.6978
  574MOL0     C79111   5.086  13.828   1.766  0.1412 -0.8982  0.3851
  574MOL0     C79112   5.078  13.963   1.850  0.2040 -0.0468 -0.5248
  574MOL0     C79113   4.978  14.051   1.782 -0.2243 -0.0123 -0.6020
  574MOL0     C79114   4.985  14.202   1.801  0.0003 -0.4238 -0.7308
  574MOL0     C79115   5.033  14.268   1.932  0.4752  0.2449 -0.5860
  574MOL0     C79116   4.933  14.243   2.045 -0.0186 -0.6366 -0.9581
  574MOL0     C79117   4.789  14.294   2.022  0.1248  0.2357 -1.0774
  574MOL0     C79118   4.774  14.436   2.009 -0.1890  0.5925  0.9325
  574MOL0    Cl79119   4.797  14.499   2.175  0.5507 -0.1077 -0.5358
  574MOL0     C79120   4.786  13.708   1.924  0.6087  0.1812 -0.3952
  574MOL0     C79121   4.735  13.631   2.032 -0.2249 -0.4402  0.6112
  574MOL0     O79122   4.927  13.356   2.275  0.1460  0.8624 -0.0689
  574MOL0     C79123   4.589  13.274   2.293 -0.3462 -0.4066 -0.7093
  574MOL0     C79124   4.496  13.197   2.359 -0.0919  0.3053 -0.1481
  574MOL0     N79125   4.528  12.445   2.451  0.4124  0.5163  0.4693
  574MOL0     N79126   4.521  12.317   2.420 -0.4229 -0.6099 -0.3986
  574MOL0     C79127   4.095  11.469   3.204  0.1936  0.3404  0.0417
  574MOL0     C79128   4.079  11.347   3.271  0.2678  0.9510  0.6632
  574MOL0     C79129   4.106  10.971   3.500 -0.0893 -0.6155  0.1781
  574MOL0     C79130   4.245  10.928   3.482  0.2303 -0.2350  0.2858
  574MOL0     C79131   4.275  10.795   3.492 -1.1497 -0.1600 -0.3362
  574MOL0     C79132   4.182  10.704   3.548  0.4205 -0.3393 -0.2273
  574MOL0     O79133   4.217  10.575   3.558  0.0863  0.6439 -0.2032
  574MOL0     C79134   4.209  10.523   3.419  0.9899 -0.2244  0.2504
  574MOL0     C79135   4.260  10.383   3.425  0.2487  0.4592 -0.1373
  574MOL0     C79136   4.351  10.352   3.303  0.4265 -0.1581 -0.2070
  574MOL0     C79137   4.285  10.359   3.163  0.0909  0.3724 -0.1325
  574MOL0     C79138   4.172  10.266   3.153  0.2891  0.2988 -0.7006
  574MOL0     C79139   4.073  10.193   3.158 -0.2277 -0.4764  0.8384
  574MOL0     C79140   4.055  10.742   3.572  0.5119 -0.1585 -0.2668
  574MOL0     C79141   4.007  10.869   3.541 -0.4544 -0.1734  0.0497
  574MOL0     C79142   3.861  10.908   3.577  0.1332  0.6577  0.1862
  574MOL0     H79143   4.309  11.394   3.507  0.9570 -1.0687 -1.0246
  574MOL0     H79144   4.344  11.600   3.383  1.5991 -1.1922 -0.2174
  574MOL0     H79145   4.087  11.682   3.026 -0.3053  2.1886  3.5388
  574MOL0     H79146   4.228  11.594   3.000 -0.7233  2.2695 -2.4962
  574MOL0     H79147   4.232  11.901   3.014 -4.4186 -2.3135  1.5620
  574MOL0     H79148   4.374  11.793   3.010 -0.7054  2.7369  1.5063
  574MOL0     H79149   4.331  11.713   2.787 -0.4545 -0.1452 -1.9899
  574MOL0     H79150   4.156  11.757   2.801  1.7997 -5.8379 -2.5813
  574MOL0     H79151   4.215  11.982   2.781 -0.1315 -1.8931 -1.2352
  574MOL0     H79152   4.391  11.954   2.817  0.6733  1.4673  1.3894
  574MOL0     H79153   4.257  11.825   2.574 -0.1671 -1.0933  3.0735
  574MOL0     H79154   4.433  11.862   2.596 -1.7167 -2.7814 -0.8055
  574MOL0     H79155   4.225  12.062   2.528  1.4238  0.5425 -4.8807
  574MOL0     H79156   4.363  12.106   2.602 -4.1358  3.1852 -2.3730
  574MOL0     H79157   4.353  11.951   2.332 -1.3968  1.4807 -0.8559
  574MOL0     H79158   4.496  12.034   2.403 -0.4492  1.2567 -1.6441
  574MOL0     H79159   4.368  12.154   2.211 -1.2316  1.7026 -0.6776
  574MOL0     H79160   4.233  12.162   2.311 -0.4627  0.0151 -0.7828
  574MOL0     H79161   4.217  12.423   2.342  0.0162  0.1330 -1.1823
  574MOL0     H79162   4.246  12.627   2.487  0.7455 -1.5082 -1.2338
  574MOL0     H79163   4.380  12.697   2.406  1.2439  1.1027  1.5222
  574MOL0     H79164   4.379  12.620   2.710  3.2630 -0.8932  1.9979
  574MOL0     H79165   4.522  12.647   2.640  0.2838  0.3490 -0.5419
  574MOL0     H79166   4.281  12.835   2.643 -0.6519 -0.7348  0.5924
  574MOL0     H79167   4.430  12.861   2.743 -2.2192 -1.5532  1.2394
  574MOL0     H79168   4.565  12.913   2.525  0.1361  2.1148 -1.3042
  574MOL0     H79169   4.420  12.904   2.428  0.9005  1.1373  0.4824
  574MOL0     H79170   4.676  13.122   2.638 -0.3173  1.7063  0.7594
  574MOL0     H79171   4.923  13.376   2.545 -2.6275  0.4170  2.1733
  574MOL0     H79172   4.959  13.209   2.520  0.2514  1.1151 -0.5959
  574MOL0     H79173   4.865  13.262   2.657  0.8564 -1.1536  0.4331
  574MOL0     H79174   5.027  13.449   2.082  1.2649  1.2621 -0.2655
  574MOL0     H79175   5.099  13.577   1.889  0.1009  2.7975 -0.3424
  574MOL0     H79176   5.164  13.765   1.811  0.5200 -1.6819 -1.2612
  574MOL0     H79177   5.121  13.847   1.664  6.8415 -1.8599  2.0292
  574MOL0     H79178   5.051  13.938   1.953 -0.4248 -1.1443 -0.9371
  574MOL0     H79179   5.178  14.007   1.860  0.3604 -0.5695  0.2136
  574MOL0     H79180   4.882  14.025   1.829  1.2795 -0.5564  2.4511
  574MOL0     H79181   4.975  14.022   1.677  0.3675  0.3247 -0.7162
  574MOL0     H79182   4.887  14.246   1.776 -1.3885 -0.5901  3.6383
  574MOL0     H79183   5.069  14.232   1.738  0.5975  1.6584  0.9648
  574MOL0     H79184   5.127  14.216   1.952 -0.3157 -1.0494 -0.1264
  574MOL0     H79185   5.057  14.374   1.917  3.3160 -0.3195 -0.6322
  574MOL0     H79186   4.969  14.296   2.134  1.7243  2.1551 -3.1444
  574MOL0     H79187   4.933  14.137   2.070 -4.0681 -0.5473  0.0649
  574MOL0     H79188   4.715  14.257   2.094 -0.3848  0.5232 -1.4485
  574MOL0     H79189   4.753  14.256   1.926  1.3010  1.5198 -2.0597
  574MOL0     H79190   4.671  14.456   1.975 -0.1267 -2.4992 -1.4938
  574MOL0     H79191   4.828  14.483   1.926 -0.6004  4.2267  2.5027
  574MOL0     H79192   4.734  13.797   1.891  1.3161  0.5044 -0.6564
  574MOL0     H79193   4.632  13.656   2.058 -1.6225 -2.2183 -2.6720
  574MOL0     H79194   4.572  13.299   2.189 -0.6476 -2.0852 -1.0946
  574MOL0     H79195   4.394  13.191   2.323 -0.4382 -2.8436  1.0941
  574MOL0     H79196   4.028  11.492   3.121  3.4158  1.9547 -2.3068
  574MOL0     H79197   4.011  11.267   3.243  0.7872  1.6199 -3.0765
  574MOL0     H79198   4.322  10.999   3.454 -0.3340  0.1376 -0.3388
  574MOL0     H79199   4.378  10.761   3.480 -0.6753 -0.7768  3.9654
  574MOL0     H79200   4.102  10.525   3.398  0.8916 -1.3138  0.5702
  574MOL0     H79201   4.270  10.568   3.340 -2.1824  1.1556 -1.5708
  574MOL0     H79202   4.178  10.312   3.433  0.0293  0.7289  0.0411
  574MOL0     H79203   4.329  10.373   3.509 -1.8653  0.1924  1.6701
  574MOL0     H79204   4.443  10.412   3.296  1.4482 -1.8330 -3.0736
  574MOL0     H79205   4.386  10.251   3.327  2.6176  0.5285 -0.2725
  574MOL0     H79206   4.349  10.326   3.081 -0.4630 -0.3887 -0.2664
  574MOL0     H79207   4.253  10.464   3.157  2.0185  0.9924 -0.4117
  574MOL0     H79208   3.982  10.137   3.152 -0.7451 -0.0197  3.2906
  574MOL0     H79209   3.983  10.669   3.609  2.8320 -1.3526  2.2748
  574MOL0     H79210   3.862  10.947   3.679 -1.3852  2.8591 -0.5498
  574MOL0     H79211   3.807  10.979   3.514 -0.0790  1.1821  0.9394
  574MOL0     H79212   3.803  10.817   3.592 -0.6087  0.8997 -1.1041
  575MOL0     O79213   2.550   1.598   2.156 -0.2823 -0.1729  0.2399
  575MOL0     C79214   2.481   1.557   2.255 -0.0568  0.0832  0.1948
  575MOL0     O79215   2.450   1.639   2.363 -0.2224 -0.6361 -0.5921
  575MOL0     C79216   2.535   1.748   2.372 -0.1368  0.2237 -0.1526
  575MOL0     C79217   2.653   1.733   2.441  0.0643 -0.4794 -0.7963
  575MOL0     C79218   2.738   1.843   2.445 -0.5172 -0.2810 -0.1351
  575MOL0     C79219   2.701   1.963   2.380  0.4318 -0.3386 -0.3256
  575MOL0     O79220   2.802   2.055   2.381 -0.5898 -0.5638 -0.7937
  575MOL0     C79221   2.775   2.173   2.310 -0.0906 -0.5018 -0.4731
  575MOL0     C79222   2.698   2.282   2.389 -0.0052  0.3593 -0.5467
  575MOL0     C79223   2.785   2.336   2.509  0.3878 -0.2457 -0.9276
  575MOL0     C79224   2.737   2.474   2.567  0.2882  1.1924  0.3627
  575MOL0     C79225   2.821   2.528   2.691  0.3337  0.3525  0.1914
  575MOL0     C79226   2.783   2.453   2.815 -0.1989  0.4816  0.2295
  575MOL0     C79227   2.890   2.490   2.927  0.3426  0.1672 -1.1871
  575MOL0     C79228   2.856   2.413   3.057  0.2085 -0.3215 -1.6416
  575MOL0     N79229   2.751   2.481   3.142  0.7208  0.0396  0.4181
  575MOL0     C79230   2.765   2.592   3.219 -0.3064  0.3613  0.2229
  575MOL0     C79231   2.643   2.608   3.267  0.4634 -0.4742  0.3829
  575MOL0     C79232   2.608   2.722   3.366  0.4632  0.4384  1.0052
  575MOL0     C79233   2.680   2.851   3.320  0.7439 -0.2879 -1.0412
  575MOL0     C79234   2.672   2.896   3.167  0.5216  0.1163 -0.5874
  575MOL0     C79235   2.536   2.929   3.103  0.7387  0.2221  0.1904
  575MOL0     O79236   2.468   3.023   3.185 -0.2833 -0.2637  0.5312
  575MOL0     C79237   2.345   3.078   3.149 -0.3556 -0.3697 -1.0106
  575MOL0     C79238   2.281   3.142   3.246 -0.5445 -0.9773 -0.2558
  575MOL0     C79239   2.152   3.177   3.224  0.4718  0.0514 -0.4905
  575MOL0     C79240   2.085   3.234   3.340 -0.0391  0.8948  0.6707
  575MOL0     C79241   2.100   3.180   3.097 -0.1296  0.1199  0.0940
  575MOL0     C79242   1.968   3.246   3.073  0.0166  0.3792 -0.0806
  575MOL0     O79243   1.952   3.378   3.114 -0.9907 -0.0917  0.5433
  575MOL0     C79244   1.821   3.422   3.103 -0.3054  0.3910  0.0147
  575MOL0     C79245   1.794   3.507   3.003  0.0153 -0.8347 -1.4808
  575MOL0     C79246   1.656   3.534   2.986 -0.5265 -0.0735 -0.1334
  575MOL0     C79247   1.559   3.492   3.077  0.7484  0.3429 -1.0850
  575MOL0     O79248   1.418   3.518   3.057  0.4157  0.4012  0.3254
  575MOL0     C79249   1.325   3.502   3.169  0.1418 -0.3967 -0.9685
  575MOL0     C79250   1.212   3.605   3.155 -0.4121 -0.3997 -0.3821
  575MOL0     C79251   1.078   3.572   3.233 -0.3814 -0.0114 -1.4962
  575MOL0     C79252   0.951   3.627   3.172 -0.4853 -0.6255 -0.0572
  575MOL0     C79253   0.840   3.568   3.259 -0.0492  1.0959 -0.1814
  575MOL0     C79254   0.800   3.425   3.214  0.5310  0.9162 -0.9461
  575MOL0     C79255   0.659   3.389   3.288 -0.2353 -0.7606  0.1469
  575MOL0     C79256   0.613   3.262   3.236  0.2657 -0.2821  0.9879
  575MOL0    Cl79257   0.503   3.186   3.357  0.0696 -0.1162 -0.2993
  575MOL0     C79258   1.599   3.422   3.190  0.0815 -0.1273  0.1446
  575MOL0     C79259   1.724   3.386   3.202 -0.4178 -0.4097  0.2459
  575MOL0     O79260   1.895   3.180   3.002 -0.3511 -0.8836 -0.0335
  575MOL0     C79261   2.170   3.126   2.993 -0.6852 -0.1227  0.1693
  575MOL0     C79262   2.289   3.069   3.024  0.4675 -0.3758  0.7106
  575MOL0     N79263   2.559   2.517   3.213 -0.4139  0.4790 -0.1150
  575MOL0     N79264   2.626   2.445   3.130  0.3248  0.8047 -0.6428
  575MOL0     C79265   2.574   1.973   2.316 -0.1243 -0.2174  0.6017
  575MOL0     C79266   2.489   1.871   2.319 -0.0881  0.3587 -0.3934
  575MOL0     C79267   2.422   1.416   2.250  0.1880 -0.1199 -0.0094
  575MOL0     C79268   2.337   1.375   2.356 -0.2779 -0.3619  0.5228
  575MOL0     C79269   2.287   1.242   2.367 -2.0530 -0.1679  0.0613
  575MOL0     C79270   2.322   1.147   2.268 -1.0747  0.4327 -0.2433
  575MOL0     O79271   2.273   1.015   2.270  0.2364  0.6376 -0.2732
  575MOL0     C79272   2.215   0.956   2.394  0.7961  0.4730  0.9882
  575MOL0     C79273   2.324   0.943   2.504 -1.1261 -0.7872 -0.6773
  575MOL0     C79274   2.270   0.930   2.648  0.8383 -0.3437 -0.2661
  575MOL0     C79275   2.222   1.065   2.717  0.6171  0.2754 -0.2441
  575MOL0     C79276   2.108   1.132   2.650 -0.1425  0.1734  0.7491
  575MOL0     C79277   1.998   1.178   2.624  0.0320  0.0781  0.2760
  575MOL0     C79278   2.401   1.194   2.159 -0.5406 -0.0443 -0.1410
  575MOL0     C79279   2.448   1.325   2.146 -0.1953  0.3281 -0.6095
  575MOL0     C79280   2.532   1.356   2.024 -0.5483  0.4530  0.5977
  575MOL0     H79281   2.684   1.639   2.486  0.9213 -0.4614 -1.3369
  575MOL0     H79282   2.838   1.840   2.486 -0.4805  0.1821 -0.1867
  575MOL0     H79283   2.724   2.151   2.215  0.0503  0.1405 -0.7001
  575MOL0     H79284   2.871   2.221   2.290 -1.2629  2.3200  0.2023
  575MOL0     H79285   2.689   2.370   2.324 -0.8484 -0.6497 -1.8661
  575MOL0     H79286   2.599   2.256   2.426 -0.7979  1.8694 -1.5301
  575MOL0     H79287   2.779   2.250   2.576  1.8469 -0.6078 -1.2349
  575MOL0     H79288   2.890   2.341   2.480  0.9482  4.3715  1.1324
  575MOL0     H79289   2.723   2.537   2.478 -0.8418 -2.3300 -2.1972
  575MOL0     H79290   2.634   2.450   2.594 -0.3434 -0.5142 -3.0235
  575MOL0     H79291   2.814   2.636   2.705  1.0585  0.2459  1.5384
  575MOL0     H79292   2.928   2.528   2.668  0.9149 -1.0456  2.5229
  575MOL0     H79293   2.688   2.503   2.840 -0.6324  0.5575 -1.4607
  575MOL0     H79294   2.774   2.344   2.814 -2.1521  0.4878  3.0581
  575MOL0     H79295   2.900   2.599   2.929  1.8678  0.0792 -2.2999
  575MOL0     H79296   2.990   2.466   2.890 -0.2290 -0.3586 -2.4703
  575MOL0     H79297   2.841   2.305   3.053 -2.0465 -0.4202  2.9385
  575MOL0     H79298   2.949   2.392   3.109  0.0472 -4.2019 -2.6007
  575MOL0     H79299   2.852   2.656   3.234 -0.8290  1.0340  0.4318
  575MOL0     H79300   2.637   2.684   3.464 -1.2453  2.6447  2.4297
  575MOL0     H79301   2.502   2.746   3.365  0.2641 -0.1801  3.0696
  575MOL0     H79302   2.636   2.933   3.377 -2.6258 -0.7344 -2.7351
  575MOL0     H79303   2.784   2.835   3.350  1.1069 -1.2543 -2.6726
  575MOL0     H79304   2.729   2.989   3.158 -0.6572  0.8029 -1.1602
  575MOL0     H79305   2.729   2.836   3.095  3.8906 -0.8345  2.5884
  575MOL0     H79306   2.545   2.967   3.001 -0.6496  2.2410  0.7712
  575MOL0     H79307   2.484   2.833   3.092  1.5206 -0.1872 -0.0789
  575MOL0     H79308   2.337   3.152   3.338 -0.6751  0.7957 -0.3410
  575MOL0     H79309   2.109   3.341   3.338 -3.4274  1.7780 -0.5299
  575MOL0     H79310   2.123   3.193   3.433 -2.7831 -1.8123  0.7436
  575MOL0     H79311   1.976   3.228   3.346 -0.3030  2.4738 -1.2139
  575MOL0     H79312   1.866   3.551   2.935  0.1626 -1.5685 -1.8110
  575MOL0     H79313   1.636   3.584   2.892  0.5499 -0.6275 -0.6719
  575MOL0     H79314   1.283   3.401   3.168  0.2873 -0.5108 -4.1022
  575MOL0     H79315   1.380   3.529   3.260  0.7185  5.5859 -2.6491
  575MOL0     H79316   1.252   3.697   3.198  0.7806 -1.5664  1.1118
  575MOL0     H79317   1.203   3.634   3.050  3.0642 -1.6210 -1.1599
  575MOL0     H79318   1.086   3.620   3.331 -0.0470  0.5765 -1.8078
  575MOL0     H79319   1.084   3.463   3.245 -0.8601  0.2063  1.3183
  575MOL0     H79320   0.941   3.604   3.066 -0.3291 -0.6199 -0.0731
  575MOL0     H79321   0.961   3.735   3.187  2.5042 -0.8521  0.2876
  575MOL0     H79322   0.874   3.574   3.363  0.3907 -2.2385 -0.0284
  575MOL0     H79323   0.752   3.633   3.267  0.9072  2.2507  1.7569
  575MOL0     H79324   0.873   3.350   3.245  0.7491  2.2286  2.0902
  575MOL0     H79325   0.781   3.409   3.108  0.7689  0.9895 -0.9997
  575MOL0     H79326   0.578   3.459   3.264  0.5641 -0.2187 -1.1110
  575MOL0     H79327   0.674   3.384   3.396  0.7039  0.0880  0.0680
  575MOL0     H79328   0.690   3.185   3.229 -0.6646 -1.0805 -2.2661
  575MOL0     H79329   0.565   3.274   3.139 -0.8874 -0.9271  1.4559
  575MOL0     H79330   1.531   3.382   3.264  0.7193 -0.1138  0.7384
  575MOL0     H79331   1.745   3.328   3.291  1.2301  0.1765  0.2769
  575MOL0     H79332   2.156   3.136   2.886  3.8148  3.4101 -0.4186
  575MOL0     H79333   2.342   3.011   2.949  0.5145  0.4775  0.0679
  575MOL0     H79334   2.545   2.063   2.263 -0.4224  0.5509  2.0200
  575MOL0     H79335   2.391   1.874   2.271 -0.3763  1.3537  0.2111
  575MOL0     H79336   2.308   1.449   2.429 -2.6634 -0.8429  0.1243
  575MOL0     H79337   2.243   1.209   2.460 -1.3199  1.3547  1.0032
  575MOL0     H79338   2.121   1.007   2.415  1.5745  2.8664 -0.9401
  575MOL0     H79339   2.175   0.855   2.380 -3.1172  1.9732 -0.0803
  575MOL0     H79340   2.384   1.034   2.517  1.7376 -2.3172 -2.2201
  575MOL0     H79341   2.394   0.861   2.485  0.5568 -0.3728  2.9622
  575MOL0     H79342   2.196   0.850   2.648  0.3970  0.0534  0.3268
  575MOL0     H79343   2.351   0.905   2.718  0.5523 -0.2968  0.0828
  575MOL0     H79344   2.297   1.146   2.718 -0.1167  0.9647  0.4419
  575MOL0     H79345   2.208   1.048   2.824  0.1169  1.7148 -0.0572
  575MOL0     H79346   1.901   1.223   2.616  1.2368  2.6395 -1.0826
  575MOL0     H79347   2.416   1.122   2.080 -0.9431 -0.8090  0.4683
  575MOL0     H79348   2.534   1.271   1.955 -0.0722  0.4601  0.5966
  575MOL0     H79349   2.485   1.444   1.980  0.3996  2.1007  2.6759
  575MOL0     H79350   2.639   1.362   2.047  1.2105 -2.9536 -4.8383
  576MOL0     O79351   3.177   6.688   4.696  0.0293 -0.1672 -0.8430
  576MOL0     C79352   3.063   6.723   4.671 -0.2132 -0.2072 -0.1959
  576MOL0     O79353   3.025   6.851   4.635 -0.6399 -0.4826 -0.1992
  576MOL0     C79354   3.123   6.955   4.625  0.2111 -0.0421 -0.4570
  576MOL0     C79355   3.069   7.079   4.604 -0.0978  0.3457  0.6991
  576MOL0     C79356   3.155   7.193   4.587  0.5460  1.1087 -0.5810
  576MOL0     C79357   3.293   7.190   4.595  0.6234 -0.2296 -0.0793
  576MOL0     O79358   3.370   7.302   4.570 -0.4080  0.6737  0.3915
  576MOL0     C79359   3.308   7.425   4.615 -0.2786 -0.1218  0.4464
  576MOL0     C79360   3.421   7.523   4.640 -0.2896 -0.2985  0.8814
  576MOL0     C79361   3.470   7.593   4.515 -0.1403  0.5425 -0.7858
  576MOL0     C79362   3.386   7.716   4.480  0.2727  0.5321 -1.1475
  576MOL0     C79363   3.458   7.795   4.365  0.7078 -0.0974  0.1556
  576MOL0     C79364   3.420   7.952   4.365  0.4908 -0.1893 -0.3562
  576MOL0     C79365   3.271   7.975   4.314 -0.5029 -0.0334 -0.9926
  576MOL0     C79366   3.188   8.104   4.339  0.4704 -0.5731  0.4534
  576MOL0     N79367   3.215   8.194   4.224  0.8779  0.1163 -0.3594
  576MOL0     C79368   3.128   8.196   4.121  0.3294  0.1910  0.2641
  576MOL0     C79369   3.196   8.258   4.021  0.2869 -0.1262  0.5506
  576MOL0     C79370   3.141   8.297   3.890  0.3811 -0.7001 -0.1601
  576MOL0     C79371   3.078   8.432   3.882  0.8898  0.3020 -0.4305
  576MOL0     C79372   2.967   8.439   3.776  1.1568  1.2128  0.9192
  576MOL0     C79373   2.836   8.377   3.839  0.2716  0.1579  0.1963
  576MOL0     O79374   2.728   8.371   3.735 -0.8547  0.5613  0.8732
  576MOL0     C79375   2.725   8.253   3.643  0.1560 -0.6811 -0.4880
  576MOL0     C79376   2.607   8.220   3.578 -0.2008  0.3630 -0.3289
  576MOL0     C79377   2.603   8.104   3.492  0.6037 -0.4707  0.0934
  576MOL0     C79378   2.465   8.056   3.450  0.3740  0.3912 -1.0725
  576MOL0     C79379   2.722   8.028   3.466  0.0274  1.0410 -0.4079
  576MOL0     C79380   2.731   7.907   3.378  0.0847  0.2722 -0.6608
  576MOL0     O79381   2.627   7.874   3.297  0.1862  0.1945 -0.3033
  576MOL0     C79382   2.640   7.777   3.203 -0.0943 -0.3697  1.5053
  576MOL0     C79383   2.773   7.735   3.148 -0.0463 -0.6437 -0.5057
  576MOL0     C79384   2.764   7.639   3.050 -1.1450 -0.0392  0.3532
  576MOL0     C79385   2.645   7.574   3.008 -0.5828 -0.4869 -0.0082
  576MOL0     O79386   2.630   7.467   2.919  0.0146 -0.6066  0.4950
  576MOL0     C79387   2.733   7.371   2.906  0.2674 -0.5713  0.6919
  576MOL0     C79388   2.764   7.303   3.046  0.2920 -0.4904  0.1511
  576MOL0     C79389   2.629   7.258   3.112  0.4210 -0.2967  0.7159
  576MOL0     C79390   2.649   7.136   3.212 -0.4322 -0.7459 -0.0393
  576MOL0     C79391   2.523   7.116   3.288  0.0937  0.3154 -0.0995
  576MOL0     C79392   2.525   7.001   3.389 -0.6574  0.7670 -0.3800
  576MOL0     C79393   2.547   6.872   3.315 -0.0967  0.5671  0.3766
  576MOL0     C79394   2.521   6.771   3.427 -0.4565  1.0964  0.5933
  576MOL0    Cl79395   2.511   6.603   3.367 -0.2018 -0.2887 -0.0873
  576MOL0     C79396   2.528   7.618   3.061 -0.1490  0.4000  0.0737
  576MOL0     C79397   2.519   7.708   3.162  0.5231  0.4764  0.1351
  576MOL0     O79398   2.837   7.839   3.394  0.1513  0.1359 -0.2904
  576MOL0     C79399   2.837   8.064   3.537  0.2437  0.3317  0.4515
  576MOL0     C79400   2.836   8.169   3.623  0.6080 -0.7465 -0.9399
  576MOL0     N79401   3.320   8.291   4.067 -0.4545 -0.5569  0.0923
  576MOL0     N79402   3.336   8.253   4.194  0.8342 -0.1109  0.2846
  576MOL0     C79403   3.352   7.065   4.606 -0.2263  0.5248  0.2751
  576MOL0     C79404   3.268   6.948   4.625  0.1754 -0.4642 -0.0568
  576MOL0     C79405   2.951   6.619   4.670 -0.7695 -1.1897  0.6047
  576MOL0     C79406   2.984   6.487   4.709 -0.3443 -0.1769  0.2493
  576MOL0     C79407   2.894   6.386   4.740 -0.6408 -0.1889  0.4467
  576MOL0     C79408   2.753   6.422   4.730  0.1713 -0.6248 -0.0107
  576MOL0     O79409   2.648   6.340   4.767  0.4207  0.8230  0.0162
  576MOL0     C79410   2.667   6.263   4.879 -0.1996  0.6154 -0.1775
  576MOL0     C79411   2.703   6.122   4.846 -0.0064 -0.0614  0.6513
  576MOL0     C79412   2.658   6.037   4.964  0.1161  0.0106  0.7235
  576MOL0     C79413   2.766   5.923   4.995 -0.0533 -0.3878 -0.1140
  576MOL0     C79414   2.725   5.875   5.127  0.2367 -0.1467  0.0066
  576MOL0     C79415   2.702   5.815   5.237  0.9716 -0.3783  0.2953
  576MOL0     C79416   2.724   6.552   4.685  1.3097 -0.1308 -0.7635
  576MOL0     C79417   2.814   6.653   4.673 -0.6234  0.1553  0.6233
  576MOL0     C79418   2.760   6.795   4.661  0.5036 -0.0979  0.3250
  576MOL0     H79419   2.961   7.083   4.595  0.0738  0.7479 -2.6825
  576MOL0     H79420   3.100   7.283   4.563 -1.2121  0.4471  0.7502
  576MOL0     H79421   3.248   7.407   4.704 -0.5692  0.8489  0.4589
  576MOL0     H79422   3.244   7.467   4.536 -2.4209 -1.2285  1.5273
  576MOL0     H79423   3.397   7.594   4.720 -1.1570 -0.5009  0.8120
  576MOL0     H79424   3.505   7.460   4.673  0.9388  1.9701  2.3186
  576MOL0     H79425   3.568   7.639   4.530  1.3130 -0.6332 -5.2816
  576MOL0     H79426   3.481   7.526   4.430 -0.7139  0.0399 -0.4759
  576MOL0     H79427   3.290   7.680   4.442 -0.8839 -2.5168  3.7347
  576MOL0     H79428   3.370   7.785   4.564  1.8184  0.7688 -1.0134
  576MOL0     H79429   3.442   7.743   4.270 -2.1292  1.7526 -0.5207
  576MOL0     H79430   3.564   7.793   4.389  0.2250  0.2698  2.5223
  576MOL0     H79431   3.430   7.999   4.463  2.1708  1.6474 -1.3419
  576MOL0     H79432   3.483   8.004   4.293 -0.9601  0.9850 -0.8197
  576MOL0     H79433   3.222   7.896   4.371 -0.4286 -0.5001 -1.5695
  576MOL0     H79434   3.289   7.954   4.208  1.1720 -0.6289 -0.6245
  576MOL0     H79435   3.080   8.086   4.342  1.0360 -5.1583  1.3814
  576MOL0     H79436   3.214   8.142   4.439  0.4758 -2.7512  1.3339
  576MOL0     H79437   3.026   8.158   4.115  0.2518  0.1572  1.5751
  576MOL0     H79438   3.081   8.215   3.850 -1.5931  1.0028 -0.8418
  576MOL0     H79439   3.223   8.310   3.820  1.5128  2.0828  1.5246
  576MOL0     H79440   3.060   8.470   3.983 -1.9677 -0.0360 -0.7423
  576MOL0     H79441   3.155   8.506   3.858  0.2491  1.0110 -0.3442
  576MOL0     H79442   2.945   8.545   3.758 -1.1135  1.1589  2.9039
  576MOL0     H79443   3.000   8.384   3.688  0.4581 -0.8329  1.8749
  576MOL0     H79444   2.873   8.276   3.859  2.4438  1.1473  1.5553
  576MOL0     H79445   2.796   8.414   3.934 -2.4720  1.3460 -1.3205
  576MOL0     H79446   2.518   8.280   3.593  0.4636  1.2599  0.0752
  576MOL0     H79447   2.455   7.949   3.468  0.3535  0.1349 -2.4792
  576MOL0     H79448   2.439   8.077   3.345 -0.6748 -2.2796 -1.4146
  576MOL0     H79449   2.396   8.114   3.513  1.4845  0.6111 -0.0328
  576MOL0     H79450   2.873   7.770   3.170  0.5463 -1.8736 -1.1612
  576MOL0     H79451   2.857   7.615   2.999 -2.0927 -0.7356 -1.0981
  576MOL0     H79452   2.683   7.294   2.846  0.0678  0.2977 -0.2849
  576MOL0     H79453   2.824   7.407   2.857 -0.8096 -0.4895 -1.3511
  576MOL0     H79454   2.826   7.213   3.046 -1.2354 -1.5856  0.3475
  576MOL0     H79455   2.818   7.370   3.113  2.8924 -1.7073 -0.6086
  576MOL0     H79456   2.551   7.230   3.040  1.5931 -3.4257  0.5192
  576MOL0     H79457   2.585   7.349   3.153 -2.3818 -0.2000 -2.1852
  576MOL0     H79458   2.736   7.155   3.275 -1.1510 -0.3213  0.8503
  576MOL0     H79459   2.677   7.046   3.157  1.3599  1.3417 -2.8929
  576MOL0     H79460   2.514   7.197   3.361  0.8650 -1.8810  2.6030
  576MOL0     H79461   2.445   7.105   3.212  1.2341  1.8683 -1.5856
  576MOL0     H79462   2.424   6.992   3.431 -0.5000  0.5888 -0.0390
  576MOL0     H79463   2.600   7.024   3.465  1.7799 -0.3724 -2.2886
  576MOL0     H79464   2.654   6.877   3.294  0.4693 -2.3518  2.0372
  576MOL0     H79465   2.495   6.866   3.219  1.1877 -2.2591 -0.2217
  576MOL0     H79466   2.429   6.796   3.480 -0.3375  1.0157  0.8381
  576MOL0     H79467   2.600   6.789   3.500 -0.6708  0.8432  0.8852
  576MOL0     H79468   2.434   7.588   3.015 -1.0911  1.6970  1.0550
  576MOL0     H79469   2.422   7.741   3.196 -0.6270 -1.8786 -0.6602
  576MOL0     H79470   2.932   8.014   3.528 -0.2903 -0.8799  1.3886
  576MOL0     H79471   2.920   8.188   3.689 -2.0652  0.1330  2.5230
  576MOL0     H79472   3.459   7.053   4.598 -0.6350 -4.4470 -0.6540
  576MOL0     H79473   3.322   6.854   4.630 -1.6439 -1.5861 -0.4023
  576MOL0     H79474   3.090   6.468   4.717  0.4162  2.5557 -1.6095
  576MOL0     H79475   2.934   6.290   4.770  1.6227  1.5239  3.4642
  576MOL0     H79476   2.751   6.302   4.938 -0.2081  3.8476 -2.0419
  576MOL0     H79477   2.575   6.253   4.936 -1.4223 -0.7551 -2.2679
  576MOL0     H79478   2.808   6.104   4.820 -0.9080 -0.9398 -2.9739
  576MOL0     H79479   2.642   6.099   4.758 -1.5172  0.2724  1.5772
  576MOL0     H79480   2.633   6.100   5.050 -0.5061  2.7746 -1.3621
  576MOL0     H79481   2.565   5.981   4.949  1.2723 -2.2752  1.5465
  576MOL0     H79482   2.866   5.968   4.997 -0.6985  1.1262 -0.0746
  576MOL0     H79483   2.767   5.846   4.918 -1.3062 -0.0510 -0.5031
  576MOL0     H79484   2.681   5.773   5.333 -0.5436 -0.5255 -0.0708
  576MOL0     H79485   2.617   6.566   4.679  1.1613 -1.2171 -0.8324
  576MOL0     H79486   2.806   6.856   4.739  0.2737  1.5287 -0.7582
  576MOL0     H79487   2.784   6.836   4.563  1.3386 -0.0472  0.5431
  576MOL0     H79488   2.652   6.810   4.671  0.4518  0.2305 -0.6766
  577MOL0     O79489  11.139   4.786   9.862  0.4334  0.4523 -0.3047
  577MOL0     C79490  11.210   4.688   9.859  0.1171  1.0804  0.0454
  577MOL0     O79491  11.328   4.676   9.788  0.3575  0.0680  0.4654
  577MOL0     C79492  11.345   4.781   9.698 -0.7265 -0.0832  0.6006
  577MOL0     C79493  11.397   4.908   9.734  0.9399  1.1469  0.1504
  577MOL0     C79494  11.416   5.012   9.643 -0.7908 -0.6820  0.5359
  577MOL0     C79495  11.374   5.000   9.507 -0.5550  0.6030 -0.0800
  577MOL0     O79496  11.398   5.085   9.405  0.3557 -0.5306 -0.4593
  577MOL0     C79497  11.418   5.230   9.429 -1.0723  0.2313 -0.8186
  577MOL0     C79498  11.382   5.324   9.311 -0.4320 -0.5149  0.0821
  577MOL0     C79499  11.462   5.314   9.187 -0.1520  0.5955  0.1011
  577MOL0     C79500  11.413   5.420   9.083 -0.0692  0.0668  0.4193
  577MOL0     C79501  11.462   5.412   8.935 -0.0390 -0.3193  0.3946
  577MOL0     C79502  11.429   5.282   8.864  0.1912  0.6360  0.1104
  577MOL0     C79503  11.436   5.284   8.708 -0.3681 -0.3625 -0.6440
  577MOL0     C79504  11.381   5.162   8.632  0.8249 -0.6665 -0.7658
  577MOL0     N79505  11.411   5.152   8.486 -0.6416 -0.6067 -0.3134
  577MOL0     C79506  11.541   5.147   8.438  0.4736  0.1756 -0.1304
  577MOL0     C79507  11.519   5.131   8.299  0.3520 -0.2205  0.2327
  577MOL0     C79508  11.610   5.120   8.185  0.7598 -0.4904  0.0300
  577MOL0     C79509  11.718   5.017   8.191 -0.5691  0.1554 -0.5816
  577MOL0     C79510  11.653   4.885   8.237  0.0801  0.2259  0.3592
  577MOL0     C79511  11.748   4.770   8.226 -0.3142 -0.3270  0.0582
  577MOL0     O79512  11.662   4.656   8.206 -0.2439 -0.4257 -0.8672
  577MOL0     C79513  11.703   4.555   8.132 -0.3751  0.8537  0.3025
  577MOL0     C79514  11.836   4.513   8.100  0.2112 -0.3110 -0.8607
  577MOL0     C79515  11.858   4.401   8.021  0.3490 -1.2126 -0.0905
  577MOL0     C79516  11.999   4.369   7.995 -0.4210  0.5268  0.3628
  577MOL0     C79517  11.750   4.337   7.965  0.9386 -0.6722 -0.1549
  577MOL0     C79518  11.763   4.224   7.875 -0.3205 -1.4370  0.7624
  577MOL0     O79519  11.721   4.253   7.747  0.4125 -0.9269 -0.2249
  577MOL0     C79520  11.705   4.144   7.671  0.1531 -0.6596  1.1025
  577MOL0     C79521  11.570   4.118   7.640  0.6292  0.9462  2.1335
  577MOL0     C79522  11.532   4.009   7.562 -0.1265  0.1260  1.8285
  577MOL0     C79523  11.636   3.926   7.505  0.1165 -0.5381 -0.2480
  577MOL0     O79524  11.587   3.815   7.437  0.2659 -0.2090  0.0179
  577MOL0     C79525  11.669   3.785   7.320  0.0771 -0.9110 -0.0940
  577MOL0     C79526  11.598   3.708   7.215  0.2740  1.2187  0.1693
  577MOL0     C79527  11.658   3.734   7.087  0.0945  0.2536 -0.3241
  577MOL0     C79528  11.558   3.690   6.967 -0.0496 -0.0895  0.6759
  577MOL0     C79529  11.606   3.696   6.821  0.0609  0.0544 -0.0593
  577MOL0     C79530  11.698   3.588   6.777  0.3770  0.8319  0.4261
  577MOL0     C79531  11.630   3.466   6.708 -0.6089 -0.2321 -0.2550
  577MOL0     C79532  11.727   3.372   6.652  0.5886  0.6073  0.1529
  577MOL0    Cl79533  11.808   3.286   6.789 -0.1891  0.1353  0.0152
  577MOL0     C79534  11.771   3.965   7.527  0.7945  0.8432 -0.9794
  577MOL0     C79535  11.809   4.069   7.614 -0.5841  0.7958 -0.3439
  577MOL0     O79536  11.804   4.123   7.916 -0.5448  0.3407  0.3354
  577MOL0     C79537  11.623   4.381   7.989 -0.0172 -0.1747 -0.0637
  577MOL0     C79538  11.597   4.476   8.085 -1.0542  0.6435 -0.4354
  577MOL0     N79539  11.383   5.121   8.273  0.0941  0.6229  0.0848
  577MOL0     N79540  11.315   5.131   8.386 -0.7080 -0.1648  0.2730
  577MOL0     C79541  11.315   4.873   9.477  0.0092  0.2878  0.2323
  577MOL0     C79542  11.298   4.760   9.562  0.6787 -0.3081 -0.2043
  577MOL0     C79543  11.165   4.563   9.925 -0.0150  0.7115  0.0508
  577MOL0     C79544  11.231   4.442   9.895  0.3952  0.0854 -0.4567
  577MOL0     C79545  11.194   4.336   9.974 -0.0152  0.5937 -0.2362
  577MOL0     C79546  11.102   4.348  10.077  0.0700 -0.4295 -0.1460
  577MOL0     O79547  11.049   4.235  10.140 -0.0752 -0.7329  0.8485
  577MOL0     C79548  11.058   4.098  10.100 -0.7514 -0.1303 -0.1911
  577MOL0     C79549  10.944   4.083  10.008  0.9550  0.2912 -0.4541
  577MOL0     C79550  10.804   4.140  10.050  0.5657  0.0513  0.2164
  577MOL0     C79551  10.686   4.082   9.973 -0.5366  0.8413  1.0071
  577MOL0     C79552  10.575   4.171  10.003 -0.2917  0.3458 -1.1005
  577MOL0     C79553  10.479   4.239  10.032  0.0760  0.7990  1.6799
  577MOL0     C79554  11.035   4.466  10.111 -0.6364  0.0254 -0.1827
  577MOL0     C79555  11.062   4.574  10.029  0.4600 -1.0150  0.8112
  577MOL0     C79556  10.971   4.690  10.057  0.4961 -0.1257  0.2622
  577MOL0     H79557  11.413   4.910   9.841  0.7650 -3.6514  0.5091
  577MOL0     H79558  11.460   5.107   9.671  2.0127 -0.5894 -3.3246
  577MOL0     H79559  11.527   5.239   9.434 -0.9771 -0.4180 -1.4999
  577MOL0     H79560  11.367   5.252   9.523 -1.0426 -2.8829  0.0462
  577MOL0     H79561  11.274   5.310   9.301 -0.6847  0.9229  0.4933
  577MOL0     H79562  11.408   5.420   9.357  0.6044 -1.3438  1.2901
  577MOL0     H79563  11.568   5.336   9.206 -0.1948  1.2008 -0.3236
  577MOL0     H79564  11.447   5.215   9.144  0.6621 -0.1254  1.4057
  577MOL0     H79565  11.306   5.412   9.061 -0.1980  2.7862 -0.3480
  577MOL0     H79566  11.423   5.526   9.111 -0.7132  1.6959 -4.4897
  577MOL0     H79567  11.570   5.430   8.932 -0.1703  1.0507  2.2215
  577MOL0     H79568  11.420   5.498   8.883 -1.6455  0.0653  2.2104
  577MOL0     H79569  11.501   5.212   8.909 -0.2805  2.9258  5.0842
  577MOL0     H79570  11.327   5.252   8.891 -0.0847  1.4970  0.0317
  577MOL0     H79571  11.541   5.298   8.682  0.5801 -2.5343  1.6094
  577MOL0     H79572  11.380   5.368   8.666 -0.5348 -1.2536 -2.2947
  577MOL0     H79573  11.416   5.072   8.683 -0.3689 -1.5442 -1.4167
  577MOL0     H79574  11.272   5.158   8.644  0.5496  1.7903 -1.8853
  577MOL0     H79575  11.631   5.158   8.498  1.9471 -0.7390 -2.0686
  577MOL0     H79576  11.662   5.215   8.172 -0.6285 -0.0053 -2.7565
  577MOL0     H79577  11.544   5.107   8.098 -2.8265 -0.1539  2.4908
  577MOL0     H79578  11.774   5.013   8.097 -1.1578  2.7249 -1.1155
  577MOL0     H79579  11.795   5.052   8.260 -0.4507 -3.1192  1.1587
  577MOL0     H79580  11.601   4.878   8.332 -3.4130  1.0561 -1.3439
  577MOL0     H79581  11.569   4.880   8.167 -0.8040  0.4160  1.3824
  577MOL0     H79582  11.796   4.775   8.127  0.4628 -1.4919  0.3544
  577MOL0     H79583  11.816   4.763   8.312  0.6651 -2.4684 -0.8022
  577MOL0     H79584  11.908   4.591   8.123  0.2517  0.5044 -3.4147
  577MOL0     H79585  12.069   4.435   8.046  0.1903  0.3638 -0.2539
  577MOL0     H79586  12.024   4.379   7.889  0.7845  1.3823  0.7142
  577MOL0     H79587  12.003   4.262   8.018 -4.6587  0.6080  2.4777
  577MOL0     H79588  11.489   4.181   7.675 -1.7608 -1.7252  1.7999
  577MOL0     H79589  11.429   3.978   7.546  0.4687 -1.6570  1.2031
  577MOL0     H79590  11.710   3.879   7.281 -1.3476 -0.4713 -0.5914
  577MOL0     H79591  11.747   3.719   7.360 -0.8625 -0.1459  3.4188
  577MOL0     H79592  11.594   3.601   7.234 -2.1948  1.4129  1.1160
  577MOL0     H79593  11.494   3.739   7.202  0.8630  3.1006 -0.4174
  577MOL0     H79594  11.757   3.688   7.083  1.4974  2.1291  4.8910
  577MOL0     H79595  11.686   3.839   7.077  0.0310  0.4474  1.2660
  577MOL0     H79596  11.468   3.752   6.972 -0.2270 -0.1933 -0.6331
  577MOL0     H79597  11.519   3.592   6.994 -4.1152  1.1711  0.0437
  577MOL0     H79598  11.524   3.713   6.750  1.3646  1.0465 -1.4188
  577MOL0     H79599  11.664   3.789   6.815  2.1059 -0.7591  4.0026
  577MOL0     H79600  11.763   3.563   6.862  3.1263 -1.0167 -2.0205
  577MOL0     H79601  11.772   3.620   6.703  1.4381  0.9625  1.5001
  577MOL0     H79602  11.569   3.495   6.622 -2.8517 -0.2382  1.2272
  577MOL0     H79603  11.563   3.415   6.779 -0.0894  1.2501  1.3601
  577MOL0     H79604  11.796   3.414   6.580  1.3614 -0.7592  0.0547
  577MOL0     H79605  11.666   3.294   6.605  0.1997  1.6895 -1.1868
  577MOL0     H79606  11.847   3.899   7.489 -1.7973 -0.4164 -4.5141
  577MOL0     H79607  11.905   4.115   7.633 -1.9049  3.1517  1.2376
  577MOL0     H79608  11.544   4.335   7.929  0.2747 -1.9721  0.8437
  577MOL0     H79609  11.496   4.510   8.104  0.0736  2.5262  2.9440
  577MOL0     H79610  11.286   4.850   9.375 -0.8826  1.0004  0.3089
  577MOL0     H79611  11.271   4.658   9.538 -1.7562  0.5031 -1.2115
  577MOL0     H79612  11.303   4.413   9.819 -0.3527  0.3574 -1.2784
  577MOL0     H79613  11.238   4.238   9.959 -3.3845 -0.8576 -1.6286
  577MOL0     H79614  11.153   4.071  10.055 -0.1354 -1.1380  1.5891
  577MOL0     H79615  11.047   4.033  10.188 -2.4610  0.5265  0.1252
  577MOL0     H79616  10.939   3.974   9.998  3.7471  0.0823 -0.3718
  577MOL0     H79617  10.968   4.123   9.910 -5.0929  3.5741 -1.1177
  577MOL0     H79618  10.791   4.138  10.159  0.6072  2.2382  0.3095
  577MOL0     H79619  10.807   4.248  10.030 -3.0157  0.1225 -0.4746
  577MOL0     H79620  10.649   3.981   9.993  0.0900 -0.2952 -2.8398
  577MOL0     H79621  10.709   4.075   9.867 -1.8032 -4.7804  0.7971
  577MOL0     H79622  10.390   4.292  10.059  0.3332  0.2369  3.8273
  577MOL0     H79623  10.957   4.459  10.187  0.0029 -1.2597  0.3940
  577MOL0     H79624  10.919   4.715   9.964  0.5228  0.2567  0.3469
  577MOL0     H79625  10.889   4.663  10.123  0.2420 -2.7028 -0.9829
  577MOL0     H79626  11.010   4.784  10.097 -2.7123  1.5366 -0.2278
  578MOL0     O79627  11.154   1.485   9.109 -0.0128 -0.6260  0.6953
  578MOL0     C79628  11.268   1.524   9.137  0.4747  0.5239  0.0982
  578MOL0     O79629  11.368   1.562   9.046 -0.1155 -0.0803 -0.6142
  578MOL0     C79630  11.340   1.585   8.912 -0.1141 -0.9365  0.6845
  578MOL0     C79631  11.451   1.549   8.828  0.8119  0.6008 -0.1274
  578MOL0     C79632  11.439   1.568   8.692 -0.0745  0.0206 -0.2835
  578MOL0     C79633  11.327   1.636   8.637 -0.8274  0.2195 -0.1285
  578MOL0     O79634  11.321   1.675   8.508  0.0174 -0.1386 -0.2503
  578MOL0     C79635  11.378   1.599   8.398  0.8889 -0.1292 -0.1700
  578MOL0     C79636  11.318   1.460   8.391  1.5775  0.6900  1.1429
  578MOL0     C79637  11.322   1.422   8.245 -0.2075  0.0814  0.0376
  578MOL0     C79638  11.278   1.281   8.224  0.0043  0.0668 -0.9595
  578MOL0     C79639  11.309   1.222   8.085 -0.1170 -0.7648 -0.1172
  578MOL0     C79640  11.264   1.080   8.076 -0.4996 -0.1308 -0.2262
  578MOL0     C79641  11.390   1.013   7.999  0.0403  0.0359  0.3146
  578MOL0     C79642  11.345   0.871   7.962 -0.0825 -0.7739  0.3235
  578MOL0     N79643  11.440   0.808   7.879 -0.3985 -0.6575 -0.0289
  578MOL0     C79644  11.574   0.813   7.903 -0.1486  1.1271 -0.3285
  578MOL0     C79645  11.637   0.731   7.808  1.0779 -0.0945 -0.3244
  578MOL0     C79646  11.779   0.695   7.822  0.4739  1.0060 -0.3764
  578MOL0     C79647  11.811   0.586   7.939  0.1357 -0.2214  0.4296
  578MOL0     C79648  11.962   0.554   7.938 -0.5140  0.2796 -0.0346
  578MOL0     C79649  12.013   0.433   8.007 -0.3596 -0.5953 -0.4654
  578MOL0     O79650  12.000   0.303   7.940  0.9450 -0.2038 -0.1413
  578MOL0     C79651  12.089   0.265   7.841 -0.3835  0.3522  0.2609
  578MOL0     C79652  12.210   0.322   7.812 -0.2781 -1.0446 -0.0044
  578MOL0     C79653  12.314   0.261   7.736  0.5280 -0.1834  0.1769
  578MOL0     C79654  12.453   0.330   7.737 -0.9273 -1.1998  0.1526
  578MOL0     C79655  12.286   0.131   7.680  1.0126 -1.0709  0.4993
  578MOL0     C79656  12.381   0.046   7.601 -1.1011 -0.7890  0.6752
  578MOL0     O79657  12.328  -0.058   7.531  0.4180 -0.4660  0.1111
  578MOL0     C79658  12.407  -0.118   7.444  0.1650  0.0987  0.1477
  578MOL0     C79659  12.525  -0.188   7.489 -0.0497 -0.6391  0.0952
  578MOL0     C79660  12.605  -0.255   7.400  0.6726  0.1879 -0.7635
  578MOL0     C79661  12.572  -0.241   7.264 -0.6605  0.7932  0.3507
  578MOL0     O79662  12.650  -0.307   7.171  0.4335 -0.5078 -0.4290
  578MOL0     C79663  12.792  -0.315   7.190 -0.2259  0.6124 -0.2406
  578MOL0     C79664  12.860  -0.185   7.218 -1.1088 -0.2323  0.2323
  578MOL0     C79665  13.014  -0.204   7.210 -1.0438 -0.2368  0.6026
  578MOL0     C79666  13.098  -0.078   7.248  0.1986 -0.0203  0.0802
  578MOL0     C79667  13.071   0.033   7.153  0.1884 -0.1725 -0.3705
  578MOL0     C79668  13.139   0.164   7.203  0.8001  0.4015  0.7127
  578MOL0     C79669  13.097   0.289   7.117 -0.3763 -0.4673 -0.6375
  578MOL0     C79670  13.160   0.304   6.978 -1.2121 -0.4411 -0.2794
  578MOL0    Cl79671  13.265   0.442   6.982  0.3782  0.1519 -0.4707
  578MOL0     C79672  12.456  -0.179   7.221 -0.9939  0.6007 -0.0010
  578MOL0     C79673  12.373  -0.116   7.311  0.6373  0.5247  0.6176
  578MOL0     O79674  12.509   0.077   7.600 -0.1605  0.3391  0.0517
  578MOL0     C79675  12.156   0.075   7.703  0.1518  0.0046  0.1183
  578MOL0     C79676  12.060   0.151   7.774 -0.5687  0.1625  0.2357
  578MOL0     N79677  11.541   0.695   7.726  0.2774 -0.3877  0.7474
  578MOL0     N79678  11.424   0.713   7.781  0.3525 -0.5835  0.1870
  578MOL0     C79679  11.223   1.676   8.724 -0.9800 -0.6466 -0.0322
  578MOL0     C79680  11.227   1.643   8.858 -0.0508 -0.6912  0.0354
  578MOL0     C79681  11.301   1.525   9.283  0.6244  0.6169  0.2305
  578MOL0     C79682  11.198   1.499   9.379  0.2028 -0.0447  0.2839
  578MOL0     C79683  11.222   1.485   9.514 -0.9636  0.1680 -0.5999
  578MOL0     C79684  11.352   1.519   9.563  1.3155  0.2688 -1.0687
  578MOL0     O79685  11.407   1.509   9.694 -0.2312 -0.4342 -0.2050
  578MOL0     C79686  11.332   1.446   9.799  0.0570 -0.0193  0.2555
  578MOL0     C79687  11.249   1.555   9.860 -0.1386 -0.6272 -0.3312
  578MOL0     C79688  11.317   1.613   9.981  0.8748 -0.6711  0.1540
  578MOL0     C79689  11.274   1.529  10.105  0.1869  0.3006  0.4558
  578MOL0     C79690  11.377   1.538  10.211  1.4803  0.9009  0.4508
  578MOL0     C79691  11.458   1.525  10.307  0.1748  0.0708 -0.1420
  578MOL0     C79692  11.445   1.556   9.472 -0.5098 -0.3314 -0.4216
  578MOL0     C79693  11.429   1.565   9.333 -0.2192 -0.1748  0.0092
  578MOL0     C79694  11.541   1.614   9.250 -0.1881  0.0794  0.2462
  578MOL0     H79695  11.534   1.494   8.870  0.5305  1.2361  1.3346
  578MOL0     H79696  11.520   1.554   8.621 -0.8645  2.6028 -1.8271
  578MOL0     H79697  11.485   1.577   8.392  0.3539 -3.5019  0.4756
  578MOL0     H79698  11.344   1.650   8.307  1.0376  0.1203 -0.0857
  578MOL0     H79699  11.376   1.393   8.456  2.6635  0.3124 -0.1647
  578MOL0     H79700  11.212   1.454   8.415  1.2709 -1.0346 -0.4765
  578MOL0     H79701  11.255   1.494   8.195 -0.2577 -0.1549 -0.2380
  578MOL0     H79702  11.425   1.438   8.211  0.0334  2.5301  1.6510
  578MOL0     H79703  11.333   1.217   8.293 -0.5647  0.4663 -0.1236
  578MOL0     H79704  11.172   1.275   8.251 -0.2599 -1.5880 -2.1850
  578MOL0     H79705  11.418   1.230   8.083  0.0185 -1.8607  1.2729
  578MOL0     H79706  11.251   1.273   8.008  0.2751 -0.7413 -0.4023
  578MOL0     H79707  11.260   1.032   8.174  2.9935  0.9385  0.5751
  578MOL0     H79708  11.171   1.053   8.024  0.4522 -2.7484 -0.7367
  578MOL0     H79709  11.481   1.013   8.059 -1.4918 -1.1524  2.8584
  578MOL0     H79710  11.410   1.069   7.907  2.8945  0.8045  1.2975
  578MOL0     H79711  11.339   0.807   8.050  3.6963 -0.1710  1.1811
  578MOL0     H79712  11.246   0.874   7.914  0.5366  3.1125 -1.1081
  578MOL0     H79713  11.621   0.856   7.991 -1.1528 -1.5855  1.6624
  578MOL0     H79714  11.836   0.785   7.844  0.6356  0.9821 -0.6942
  578MOL0     H79715  11.821   0.661   7.727  2.7612 -0.9556  1.2437
  578MOL0     H79716  11.782   0.626   8.036 -1.6821  0.2161 -0.2416
  578MOL0     H79717  11.756   0.492   7.926 -0.5887  0.4100 -1.5753
  578MOL0     H79718  11.994   0.535   7.836  2.3473 -3.5001  1.3310
  578MOL0     H79719  12.025   0.636   7.975 -0.8893  1.0949 -1.1531
  578MOL0     H79720  12.118   0.444   8.033 -0.8725 -2.0510  2.6657
  578MOL0     H79721  11.971   0.435   8.108  0.4739  2.3542 -0.0766
  578MOL0     H79722  12.236   0.423   7.842  1.5762 -1.6567  0.6086
  578MOL0     H79723  12.473   0.381   7.643  2.2504 -2.5176  0.0216
  578MOL0     H79724  12.535   0.259   7.748  1.1188  0.8964 -0.7994
  578MOL0     H79725  12.466   0.390   7.828  1.5230 -1.5023  0.0580
  578MOL0     H79726  12.552  -0.186   7.594  2.1340 -3.5768 -0.2981
  578MOL0     H79727  12.692  -0.309   7.437 -0.3589  0.2087  1.8918
  578MOL0     H79728  12.813  -0.376   7.279  0.6871  0.6691 -0.4129
  578MOL0     H79729  12.842  -0.365   7.106 -0.7423  3.3336 -2.3071
  578MOL0     H79730  12.817  -0.112   7.148  2.8963  0.4362 -1.8291
  578MOL0     H79731  12.861  -0.144   7.320  4.8342  1.1715 -0.0116
  578MOL0     H79732  13.033  -0.223   7.104 -2.0534  0.5207  0.2742
  578MOL0     H79733  13.045  -0.296   7.259  1.6338  0.3454  0.1736
  578MOL0     H79734  13.203  -0.106   7.259  1.5000  4.8835  3.4370
  578MOL0     H79735  13.072  -0.042   7.348  2.8911 -1.7315  1.5032
  578MOL0     H79736  13.100   0.004   7.051  3.2552  0.0478  0.3511
  578MOL0     H79737  12.965   0.061   7.155 -0.0950 -1.2506  0.7777
  578MOL0     H79738  13.248   0.163   7.201  0.8047  0.7442  0.7056
  578MOL0     H79739  13.102   0.188   7.303 -0.4509  0.4127  0.2719
  578MOL0     H79740  13.122   0.378   7.175  1.3825  0.1369 -2.2319
  578MOL0     H79741  12.988   0.285   7.108 -0.8695 -1.1570  3.5211
  578MOL0     H79742  13.078   0.327   6.909 -0.3483  0.6043 -1.0019
  578MOL0     H79743  13.221   0.218   6.948  0.4246  1.0630 -1.5284
  578MOL0     H79744  12.429  -0.186   7.116  0.5847 -2.3984 -0.3026
  578MOL0     H79745  12.278  -0.081   7.272  1.2469 -1.4054 -2.9930
  578MOL0     H79746  12.130  -0.022   7.663  0.1980  1.1833 -3.0712
  578MOL0     H79747  11.964   0.107   7.801  1.0852 -2.1336  2.8009
  578MOL0     H79748  11.128   1.712   8.685  0.5446  1.8543 -1.7802
  578MOL0     H79749  11.143   1.656   8.925  0.9056 -0.6584  1.2683
  578MOL0     H79750  11.099   1.480   9.339 -1.3026  1.3416  3.0779
  578MOL0     H79751  11.147   1.441   9.579  1.6376 -2.0470  1.1590
  578MOL0     H79752  11.270   1.368   9.755 -1.3636  0.8138  0.6865
  578MOL0     H79753  11.396   1.395   9.871 -3.0820 -1.7088  2.0816
  578MOL0     H79754  11.154   1.513   9.893 -0.1430 -1.4621 -1.3430
  578MOL0     H79755  11.227   1.632   9.785 -0.2882 -2.5744 -2.3751
  578MOL0     H79756  11.426   1.608   9.971  1.1520  1.9805  1.0799
  578MOL0     H79757  11.284   1.716   9.990 -1.4243 -1.3599  0.1847
  578MOL0     H79758  11.283   1.424  10.077 -1.1951 -0.4647  2.6712
  578MOL0     H79759  11.175   1.561  10.139 -1.3744 -0.9031 -2.5897
  578MOL0     H79760  11.534   1.502  10.379  2.9756 -1.4074 -3.2944
  578MOL0     H79761  11.548   1.568   9.505 -1.0411  2.3938  0.5061
  578MOL0     H79762  11.623   1.651   9.313  0.7882 -0.1159 -0.8617
  578MOL0     H79763  11.594   1.538   9.191  4.9512  0.8768  3.1747
  578MOL0     H79764  11.508   1.697   9.186  0.9402  2.3465  2.4239
  579MOL0     O79765   5.583   4.475   5.989  0.5253 -0.2554 -0.3699
  579MOL0     C79766   5.577   4.478   6.114  0.8828  0.0347 -0.5630
  579MOL0     O79767   5.613   4.373   6.200 -0.1201 -1.1846  0.2978
  579MOL0     C79768   5.663   4.262   6.137 -0.1822 -0.3083  0.5284
  579MOL0     C79769   5.796   4.227   6.176  0.4195 -0.5046  0.8659
  579MOL0     C79770   5.843   4.108   6.119 -0.1362 -0.9789  0.1053
  579MOL0     C79771   5.760   4.019   6.049 -0.3090 -0.1608 -0.2294
  579MOL0     O79772   5.809   3.899   6.009 -0.1950 -0.7553 -0.2235
  579MOL0     C79773   5.767   3.786   6.084  0.2418  1.0250  0.3597
  579MOL0     C79774   5.857   3.679   6.059  0.0262  0.0737  0.6585
  579MOL0     C79775   5.837   3.618   5.918 -0.1265  0.5016  0.7135
  579MOL0     C79776   5.898   3.476   5.906 -0.8022  0.3458  0.0984
  579MOL0     C79777   6.052   3.488   5.907  0.6004  0.2090 -0.2760
  579MOL0     C79778   6.129   3.461   6.036  0.1176  1.0137  0.0185
  579MOL0     C79779   6.282   3.491   6.057 -0.5598 -0.1193  0.0316
  579MOL0     C79780   6.298   3.636   6.118 -0.3591 -0.0072  1.0336
  579MOL0     N79781   6.297   3.628   6.269 -0.3639  0.8246  0.3551
  579MOL0     C79782   6.403   3.602   6.348 -0.0257 -0.4271 -0.7918
  579MOL0     C79783   6.357   3.620   6.474  0.7957 -0.8226 -0.3814
  579MOL0     C79784   6.430   3.594   6.597 -0.0791 -0.3508 -0.1692
  579MOL0     C79785   6.397   3.451   6.649 -0.0265 -0.4077 -0.0877
  579MOL0     C79786   6.463   3.407   6.781 -0.3707  0.4923  0.9849
  579MOL0     C79787   6.608   3.436   6.786  1.0444  0.6560  0.5526
  579MOL0     O79788   6.681   3.348   6.876  0.6436 -0.9088 -0.0244
  579MOL0     C79789   6.717   3.224   6.842  0.7373  0.7619 -0.0756
  579MOL0     C79790   6.746   3.134   6.946 -0.5756 -0.5050 -0.2567
  579MOL0     C79791   6.798   3.009   6.926 -0.9340 -0.1833  0.2138
  579MOL0     C79792   6.843   2.936   7.049 -0.6832  0.8351 -0.3469
  579MOL0     C79793   6.808   2.961   6.794  0.0921  0.9953 -0.3418
  579MOL0     C79794   6.853   2.819   6.755 -0.0475 -0.0132 -0.9021
  579MOL0     O79795   6.890   2.734   6.851  0.1970 -0.1510  0.1030
  579MOL0     C79796   6.930   2.613   6.810  0.1277  0.4820 -0.8810
  579MOL0     C79797   6.839   2.524   6.744  0.2992  0.0822 -0.4036
  579MOL0     C79798   6.885   2.400   6.720  0.0586  0.5940  0.6461
  579MOL0     C79799   7.022   2.354   6.750 -0.6049  0.7541 -0.4498
  579MOL0     O79800   7.074   2.233   6.734 -0.5676  0.3737 -0.6625
  579MOL0     C79801   7.011   2.121   6.808  0.0408 -0.5009 -0.7216
  579MOL0     C79802   7.070   2.128   6.959  1.1272  0.0919  0.2297
  579MOL0     C79803   7.223   2.120   6.949 -0.2995 -0.6045 -0.0563
  579MOL0     C79804   7.291   2.082   7.083 -0.3935 -0.7075  0.9146
  579MOL0     C79805   7.378   1.960   7.067 -0.7171 -0.1335  2.0000
  579MOL0     C79806   7.295   1.833   7.016 -0.2426  0.2972  0.0212
  579MOL0     C79807   7.394   1.723   6.978  0.5320  1.1330  0.2475
  579MOL0     C79808   7.337   1.585   6.966  0.0910 -0.4490  0.0520
  579MOL0    Cl79809   7.346   1.522   7.137  0.4827  0.0224 -0.3991
  579MOL0     C79810   7.103   2.444   6.824 -0.7644 -0.1229  0.2297
  579MOL0     C79811   7.055   2.571   6.860 -0.1565  0.5535  0.2732
  579MOL0     O79812   6.851   2.796   6.637 -0.0019  0.1726 -0.4264
  579MOL0     C79813   6.785   3.054   6.691  0.0245 -1.6459  0.3958
  579MOL0     C79814   6.737   3.189   6.714 -1.2463  0.8941  0.3318
  579MOL0     N79815   6.223   3.658   6.470 -0.0217  1.0665  0.2978
  579MOL0     N79816   6.196   3.675   6.346 -0.6395  0.2069  0.5933
  579MOL0     C79817   5.630   4.053   6.015  0.4193 -0.2051  0.1495
  579MOL0     C79818   5.581   4.171   6.066  0.0221 -0.0601 -1.0336
  579MOL0     C79819   5.507   4.603   6.182 -1.2636 -0.4736 -0.1801
  579MOL0     C79820   5.501   4.713   6.103 -0.5124  0.6547 -0.6260
  579MOL0     C79821   5.426   4.821   6.141  0.0651 -0.7920  0.9263
  579MOL0     C79822   5.346   4.823   6.250 -0.6465 -0.5714 -0.4517
  579MOL0     O79823   5.248   4.916   6.273 -0.2075  0.6833 -0.6181
  579MOL0     C79824   5.138   4.923   6.177  0.1691 -0.2364 -0.5340
  579MOL0     C79825   5.041   5.026   6.237 -0.1842  0.9972 -0.0652
  579MOL0     C79826   4.904   4.989   6.199 -0.1105  0.2081  0.9783
  579MOL0     C79827   4.884   5.000   6.040  0.4012 -0.2038  0.6330
  579MOL0     C79828   4.741   5.002   6.014  0.3754  0.1604  1.1001
  579MOL0     C79829   4.627   5.000   6.025  0.5792 -0.1246  0.0018
  579MOL0     C79830   5.371   4.720   6.336 -0.1809  0.1762 -1.0745
  579MOL0     C79831   5.450   4.608   6.312  0.9015 -0.3571 -0.2162
  579MOL0     C79832   5.485   4.509   6.430 -0.5745 -0.0736 -0.7192
  579MOL0     H79833   5.866   4.296   6.221  0.8097  0.1173 -0.6354
  579MOL0     H79834   5.947   4.080   6.129 -0.4791 -2.2566  0.2599
  579MOL0     H79835   5.663   3.773   6.054  0.4274  0.5130 -0.0768
  579MOL0     H79836   5.772   3.806   6.191  1.7010  0.6726  0.3761
  579MOL0     H79837   5.955   3.725   6.076  0.6228 -0.4306 -1.2518
  579MOL0     H79838   5.836   3.601   6.134  1.0460  0.0060  0.8914
  579MOL0     H79839   5.730   3.596   5.907  0.4662 -1.5760 -2.0101
  579MOL0     H79840   5.862   3.688   5.838  2.4945  0.5327  1.4681
  579MOL0     H79841   5.871   3.412   5.991  1.9268  1.9285  2.3515
  579MOL0     H79842   5.866   3.429   5.813  4.0491 -0.2044 -1.5348
  579MOL0     H79843   6.080   3.588   5.872 -0.4002  0.2960 -0.8425
  579MOL0     H79844   6.078   3.410   5.834 -1.0503  0.1859 -0.8735
  579MOL0     H79845   6.073   3.501   6.121  0.0661  0.9757  0.0032
  579MOL0     H79846   6.131   3.353   6.054  2.9510  0.8536 -0.8152
  579MOL0     H79847   6.333   3.484   5.960  0.3379  3.4045  0.1279
  579MOL0     H79848   6.328   3.414   6.121  1.6759  2.5999  1.9512
  579MOL0     H79849   6.397   3.676   6.095 -0.0167 -0.8341  1.0170
  579MOL0     H79850   6.214   3.695   6.082  0.2515 -0.3643 -1.1013
  579MOL0     H79851   6.503   3.564   6.329  2.2506  2.7279  3.1575
  579MOL0     H79852   6.401   3.660   6.679 -0.6634  1.5886 -1.8595
  579MOL0     H79853   6.538   3.609   6.584 -0.1673  0.4561 -0.0077
  579MOL0     H79854   6.288   3.451   6.658  0.0714  2.8064  3.5624
  579MOL0     H79855   6.432   3.382   6.571 -0.7657  0.8142 -1.5543
  579MOL0     H79856   6.414   3.476   6.850  1.2328 -1.1788  3.9664
  579MOL0     H79857   6.449   3.301   6.803  0.2023 -0.2725 -1.9454
  579MOL0     H79858   6.638   3.422   6.681  1.8445  3.0249  0.4004
  579MOL0     H79859   6.631   3.542   6.804  0.0980  1.4026 -2.0826
  579MOL0     H79860   6.745   3.172   7.047  1.1474 -0.2421 -0.3191
  579MOL0     H79861   6.782   2.849   7.074  0.7789 -0.3185 -0.6705
  579MOL0     H79862   6.860   3.012   7.126 -2.5612  1.1289 -0.1668
  579MOL0     H79863   6.944   2.908   7.020 -0.2821  2.9009 -1.1755
  579MOL0     H79864   6.743   2.565   6.714 -0.5844  1.3032  3.4937
  579MOL0     H79865   6.820   2.334   6.664 -0.8035  2.0219 -0.0833
  579MOL0     H79866   6.902   2.131   6.804  0.0946  0.5313 -0.0848
  579MOL0     H79867   7.035   2.031   6.751 -0.3446  0.1130 -1.8837
  579MOL0     H79868   7.023   2.213   7.010  0.3824 -0.3103  0.2200
  579MOL0     H79869   7.031   2.040   7.011 -0.4893 -0.0722 -1.1818
  579MOL0     H79870   7.261   2.219   6.923 -1.7018  0.1847  0.7610
  579MOL0     H79871   7.245   2.069   6.854 -2.9931  2.0490 -2.3160
  579MOL0     H79872   7.211   2.048   7.151  0.1340 -0.9711  1.4165
  579MOL0     H79873   7.350   2.168   7.117  0.8710 -0.0405 -2.6076
  579MOL0     H79874   7.457   1.968   6.992 -2.3084  2.1293  0.4486
  579MOL0     H79875   7.416   1.938   7.168 -3.7262  0.1272  3.2968
  579MOL0     H79876   7.237   1.852   6.925 -0.9869 -1.2916  0.1356
  579MOL0     H79877   7.215   1.804   7.084 -1.3740  3.6837  0.3061
  579MOL0     H79878   7.488   1.726   7.034  0.9576  0.0796 -0.3693
  579MOL0     H79879   7.422   1.729   6.873 -0.6604 -1.2391 -0.2823
  579MOL0     H79880   7.393   1.527   6.893 -1.8568 -0.1415 -1.7774
  579MOL0     H79881   7.235   1.584   6.928  0.3553 -0.4199 -0.6664
  579MOL0     H79882   7.205   2.421   6.855 -0.4928  0.3496 -0.2865
  579MOL0     H79883   7.113   2.626   6.934  3.3865  0.1515 -2.0000
  579MOL0     H79884   6.785   3.022   6.587 -1.2485 -0.3537 -0.0281
  579MOL0     H79885   6.735   3.259   6.631  1.2048  2.6636  1.6648
  579MOL0     H79886   5.574   3.993   5.944 -0.7330 -1.7088  2.2265
  579MOL0     H79887   5.475   4.190   6.057 -0.7889 -3.5469 -0.2805
  579MOL0     H79888   5.566   4.709   6.017 -1.1016 -0.8936 -1.0346
  579MOL0     H79889   5.409   4.905   6.074  0.2465 -0.4587  1.2970
  579MOL0     H79890   5.166   4.963   6.079 -1.6207 -0.1260 -1.0367
  579MOL0     H79891   5.089   4.827   6.163  0.7783 -0.5763 -0.3554
  579MOL0     H79892   5.062   5.129   6.208 -0.6464  1.8065  2.2560
  579MOL0     H79893   5.057   5.033   6.345 -1.2454  4.4727 -0.0122
  579MOL0     H79894   4.873   4.890   6.235  0.0158 -0.1666  0.0840
  579MOL0     H79895   4.828   5.055   6.241 -1.6409 -1.2898  0.6823
  579MOL0     H79896   4.926   4.907   6.003 -1.7313 -0.1232 -2.4074
  579MOL0     H79897   4.927   5.090   5.995 -1.6079  1.5256  1.9646
  579MOL0     H79898   4.523   5.024   6.030  1.0473  2.0492  0.4345
  579MOL0     H79899   5.325   4.717   6.434 -0.8834 -1.9368 -1.4037
  579MOL0     H79900   5.592   4.488   6.433 -0.2388  1.0513 -3.0885
  579MOL0     H79901   5.459   4.550   6.528  0.4398  2.4018 -1.4291
  579MOL0     H79902   5.426   4.417   6.423 -2.3401  0.8372  1.1006
  580MOL0     O79903   7.731   6.093   5.940 -0.2180 -0.6426  0.0531
  580MOL0     C79904   7.718   5.970   5.923 -0.6868 -0.1149 -0.0680
  580MOL0     O79905   7.822   5.885   5.946 -0.0684  0.0428  0.9173
  580MOL0     C79906   7.938   5.935   5.911 -0.1048  0.2432 -0.2871
  580MOL0     C79907   8.024   6.010   5.991 -0.2099  0.6456  0.0526
  580MOL0     C79908   8.155   6.033   5.952  0.0456  0.1860 -0.4501
  580MOL0     C79909   8.209   5.974   5.835  0.6512 -0.3484 -0.2159
  580MOL0     O79910   8.341   5.985   5.808  0.2329  0.3777 -0.6382
  580MOL0     C79911   8.389   6.114   5.824  0.0757 -0.0208  0.8268
  580MOL0     C79912   8.514   6.118   5.727  0.0257  0.4996  0.6931
  580MOL0     C79913   8.645   6.119   5.809 -0.3363 -0.2795  0.0201
  580MOL0     C79914   8.762   6.145   5.718 -0.3167 -0.3274 -0.1403
  580MOL0     C79915   8.884   6.149   5.809 -0.6587 -0.1029  0.2393
  580MOL0     C79916   9.014   6.143   5.725 -0.4651 -0.0742 -0.4953
  580MOL0     C79917   9.146   6.184   5.796 -0.3665 -0.5047 -0.9762
  580MOL0     C79918   9.273   6.151   5.724 -0.4824 -0.1599  0.4935
  580MOL0     N79919   9.390   6.194   5.811  0.0391  0.3798 -0.2195
  580MOL0     C79920   9.445   6.319   5.831 -0.2690 -0.3466 -1.3011
  580MOL0     C79921   9.559   6.282   5.896 -0.3388 -0.6758  0.9773
  580MOL0     C79922   9.643   6.399   5.946 -0.4552  0.9399 -0.3448
  580MOL0     C79923   9.769   6.426   5.859 -0.6544  0.1796 -1.3082
  580MOL0     C79924   9.883   6.325   5.901 -0.5594  1.2411 -0.1599
  580MOL0     C79925   9.898   6.213   5.799 -0.3474 -0.5365  0.2532
  580MOL0     O79926  10.018   6.136   5.805  1.1149 -0.6718 -0.4358
  580MOL0     C79927  10.069   6.109   5.929 -0.2957 -0.1782  0.2506
  580MOL0     C79928  10.001   6.026   6.020 -0.7641 -0.4208 -0.1054
  580MOL0     C79929  10.043   6.012   6.156  0.0659 -0.0144 -0.6211
  580MOL0     C79930   9.945   5.940   6.256  0.3519 -0.3264 -0.1852
  580MOL0     C79931  10.165   6.068   6.196  0.3145 -0.1232 -1.5501
  580MOL0     C79932  10.203   6.065   6.337  1.1024  0.5760  0.6681
  580MOL0     O79933  10.131   6.154   6.412  0.2125 -0.0938  0.1762
  580MOL0     C79934  10.148   6.130   6.542  0.0737 -0.1753 -0.8184
  580MOL0     C79935  10.039   6.084   6.616  0.3035  0.5778 -0.3290
  580MOL0     C79936  10.036   6.075   6.758  0.3111 -0.1543  0.3243
  580MOL0     C79937  10.156   6.105   6.828 -0.8530  0.0533  0.1236
  580MOL0     O79938  10.152   6.111   6.962 -0.4716  0.0050 -0.0209
  580MOL0     C79939  10.147   5.976   7.023  1.6223 -0.0343  0.6115
  580MOL0     C79940  10.165   5.990   7.172 -0.1646  0.3622  0.2797
  580MOL0     C79941  10.083   6.114   7.232 -0.0004  0.2356 -0.1981
  580MOL0     C79942  10.097   6.109   7.384 -0.2922  0.6194  0.3706
  580MOL0     C79943   9.983   6.027   7.451 -0.2419 -0.1980  0.2044
  580MOL0     C79944   9.836   6.072   7.415 -0.1086  0.1767 -0.1047
  580MOL0     C79945   9.735   5.988   7.490  0.1554  0.1760  0.0378
  580MOL0     C79946   9.585   6.013   7.442 -0.5076 -0.2432 -0.2791
  580MOL0    Cl79947   9.572   5.944   7.273  0.3919  0.2132 -0.6240
  580MOL0     C79948  10.272   6.140   6.758 -0.4241 -0.1814  0.8777
  580MOL0     C79949  10.268   6.147   6.620 -0.4993  0.7488  0.2919
  580MOL0     O79950  10.268   5.972   6.378  1.0188  0.3618 -0.2800
  580MOL0     C79951  10.245   6.131   6.100 -0.9533 -0.3043 -1.4876
  580MOL0     C79952  10.192   6.158   5.972  0.1839 -0.5917 -0.5746
  580MOL0     N79953   9.572   6.152   5.916  1.0492  0.0240 -0.1271
  580MOL0     N79954   9.471   6.100   5.870  0.2665 -0.4004 -0.1805
  580MOL0     C79955   8.123   5.901   5.751  0.0047 -0.3085 -0.5362
  580MOL0     C79956   7.989   5.893   5.794  1.3924 -0.7615 -0.1494
  580MOL0     C79957   7.579   5.933   5.891  0.1999  0.4755  0.2049
  580MOL0     C79958   7.486   6.034   5.855 -0.7389 -0.5087 -0.3249
  580MOL0     C79959   7.353   5.999   5.828  0.0706  0.0100 -0.5227
  580MOL0     C79960   7.309   5.865   5.835  0.0649 -0.9848  0.4026
  580MOL0     O79961   7.175   5.847   5.807 -0.1359  0.3284  0.7135
  580MOL0     C79962   7.133   5.717   5.768  0.1312 -0.0061  0.6421
  580MOL0     C79963   7.162   5.678   5.619  1.1244  0.7335  0.2240
  580MOL0     C79964   7.098   5.792   5.523  0.0268  0.7944 -0.6181
  580MOL0     C79965   7.110   5.747   5.382  0.3543 -0.1090  0.4208
  580MOL0     C79966   7.239   5.719   5.331 -0.1250  0.0609  0.8807
  580MOL0     C79967   7.334   5.681   5.270  0.1052 -0.1157  0.0125
  580MOL0     C79968   7.403   5.763   5.855 -0.2721 -0.2724 -1.0327
  580MOL0     C79969   7.536   5.797   5.895 -0.0261 -0.7325 -0.4401
  580MOL0     C79970   7.621   5.691   5.944 -0.3038  1.1938  0.5941
  580MOL0     H79971   7.982   6.055   6.080  2.0757 -3.2166  3.3842
  580MOL0     H79972   8.205   6.098   6.024 -1.3134 -1.9522  2.6280
  580MOL0     H79973   8.408   6.126   5.931 -2.2715  1.0151  1.1922
  580MOL0     H79974   8.316   6.189   5.793  0.8629  1.5678  2.6169
  580MOL0     H79975   8.517   6.030   5.662  1.8599  0.9135  0.1528
  580MOL0     H79976   8.510   6.208   5.665 -0.6320  1.2255  1.7671
  580MOL0     H79977   8.656   6.201   5.881  3.0368 -2.1086  1.8040
  580MOL0     H79978   8.646   6.025   5.866 -2.0108 -0.3434 -0.0099
  580MOL0     H79979   8.769   6.060   5.650  1.5668  0.0092 -0.4083
  580MOL0     H79980   8.753   6.242   5.669 -1.0564 -0.4979 -0.3561
  580MOL0     H79981   8.889   6.056   5.867  2.0538 -0.2415 -0.0442
  580MOL0     H79982   8.883   6.240   5.869 -1.6422 -0.4280  0.7391
  580MOL0     H79983   9.040   6.042   5.691  1.0071 -1.5627  4.3133
  580MOL0     H79984   8.985   6.214   5.647  0.0936  4.0275  2.6996
  580MOL0     H79985   9.149   6.121   5.886  1.9822  0.5854 -0.2057
  580MOL0     H79986   9.152   6.288   5.830  0.1487 -0.6723 -0.5214
  580MOL0     H79987   9.297   6.045   5.707  5.5447  1.1575 -1.8483
  580MOL0     H79988   9.278   6.215   5.636  1.1510  0.2345  0.8468
  580MOL0     H79989   9.400   6.416   5.812 -1.3845 -0.7820 -0.9842
  580MOL0     H79990   9.677   6.389   6.049 -1.2885 -1.6462 -0.2404
  580MOL0     H79991   9.586   6.492   5.939 -2.6307 -0.2161  0.9665
  580MOL0     H79992   9.739   6.419   5.754 -2.9333 -0.1661 -0.6780
  580MOL0     H79993   9.797   6.531   5.872 -1.6900  0.4192 -0.9325
  580MOL0     H79994   9.979   6.378   5.891  0.3312  0.1844  2.0449
  580MOL0     H79995   9.881   6.292   6.005 -0.7297 -0.5343 -0.6888
  580MOL0     H79996   9.811   6.148   5.813 -0.8315  0.4420  1.9643
  580MOL0     H79997   9.884   6.248   5.696 -1.1759  1.0914  0.8858
  580MOL0     H79998   9.912   5.974   5.986 -2.1231  1.1697  0.8637
  580MOL0     H79999   9.898   6.017   6.318  1.4967  0.0240  0.2635
  580MOL0     H80000  10.001   5.866   6.313  2.1908  0.6127 -0.7021
  580MOL0     H80001   9.871   5.882   6.199 -2.0422  0.1679  2.2117
  580MOL0     H80002   9.947   6.060   6.564  0.4428  1.8851 -1.2029
  580MOL0     H80003   9.945   6.040   6.805 -0.2941 -1.9462 -1.9848
  580MOL0     H80004  10.054   5.925   6.996  1.0404  0.6472  1.3098
  580MOL0     H80005  10.232   5.924   6.977  0.3815 -0.7619 -0.9790
  580MOL0     H80006  10.119   5.899   7.212 -0.1775  0.3788  0.3007
  580MOL0     H80007  10.268   5.993   7.210 -0.9089 -2.3007  2.9518
  580MOL0     H80008   9.979   6.123   7.200 -0.4864 -3.0424  0.0474
  580MOL0     H80009  10.136   6.205   7.201 -1.9579  1.0861 -1.2000
  580MOL0     H80010  10.102   6.213   7.418  1.0845  0.9324 -0.6887
  580MOL0     H80011  10.195   6.064   7.399 -0.5731 -0.1126  0.0745
  580MOL0     H80012  10.004   5.922   7.427 -0.3554 -1.9042  6.0397
  580MOL0     H80013   9.988   6.025   7.560 -2.1062 -0.2850  0.3186
  580MOL0     H80014   9.824   6.061   7.306 -0.4323  0.0750 -0.0584
  580MOL0     H80015   9.818   6.176   7.443 -1.2685 -0.0247 -0.0583
  580MOL0     H80016   9.748   6.014   7.596 -1.6011  0.8353  0.1278
  580MOL0     H80017   9.774   5.887   7.480 -0.5965 -0.0463 -0.8704
  580MOL0     H80018   9.573   6.122   7.437 -0.5498 -0.2755 -0.9786
  580MOL0     H80019   9.513   5.967   7.510  0.3941  1.7440  2.2015
  580MOL0     H80020  10.362   6.157   6.815  0.4576  1.4456 -0.8814
  580MOL0     H80021  10.357   6.155   6.558  1.1534 -0.5187  2.3590
  580MOL0     H80022  10.346   6.168   6.113 -1.0949 -0.2556 -0.3672
  580MOL0     H80023  10.247   6.215   5.898 -0.2264  0.5514 -0.0236
  580MOL0     H80024   8.156   5.859   5.657 -0.0141 -0.7245 -0.3570
  580MOL0     H80025   7.919   5.825   5.746 -1.3734  0.4903  1.9024
  580MOL0     H80026   7.514   6.138   5.844 -1.2041  0.0927  3.0741
  580MOL0     H80027   7.270   6.065   5.803 -3.1113 -3.5988 -0.5004
  580MOL0     H80028   7.185   5.637   5.821  3.2933  0.9772 -0.7509
  580MOL0     H80029   7.026   5.709   5.790 -0.3076  0.9243 -0.9584
  580MOL0     H80030   7.126   5.579   5.589  2.6016  0.4369 -0.6686
  580MOL0     H80031   7.270   5.670   5.604  1.0603 -0.6427  0.3303
  580MOL0     H80032   6.994   5.812   5.548  0.4664  1.2298  0.9855
  580MOL0     H80033   7.147   5.888   5.543  2.6957 -0.9695  2.3429
  580MOL0     H80034   7.068   5.816   5.308  0.7122  0.8404  1.0828
  580MOL0     H80035   7.049   5.656   5.381 -3.7667  2.3459  2.4047
  580MOL0     H80036   7.424   5.638   5.228 -0.1495  2.0147 -3.0571
  580MOL0     H80037   7.381   5.657   5.846  0.8571 -0.6081  0.0687
  580MOL0     H80038   7.594   5.587   5.926 -0.3048  1.4649 -1.0528
  580MOL0     H80039   7.709   5.687   5.880 -1.0753 -0.5914 -0.4207
  580MOL0     H80040   7.635   5.709   6.051  0.1538 -1.8782  1.1482
  581MOL0     O80041   8.896   7.233   5.407 -0.0669  0.1442 -0.3487
  581MOL0     C80042   8.996   7.157   5.433 -0.5443 -0.1830 -0.7806
  581MOL0     O80043   9.026   7.118   5.556 -0.2962  0.5186 -0.9272
  581MOL0     C80044   8.970   7.175   5.670  0.2089 -0.8192  0.2149
  581MOL0     C80045   8.909   7.086   5.766 -0.3824 -0.4330  0.3942
  581MOL0     C80046   8.859   7.149   5.884  0.1429 -0.1906 -0.1687
  581MOL0     C80047   8.847   7.292   5.891  0.8545  1.1213  0.2684
  581MOL0     O80048   8.806   7.342   6.016  0.5569  0.4498 -0.7080
  581MOL0     C80049   8.667   7.409   5.999 -0.6256  0.0958  0.3900
  581MOL0     C80050   8.627   7.490   6.132  0.2612 -0.7801  0.0317
  581MOL0     C80051   8.534   7.404   6.214 -0.5909  0.3505 -0.2750
  581MOL0     C80052   8.602   7.274   6.279 -0.4437  0.3319  0.3092
  581MOL0     C80053   8.526   7.239   6.401 -0.1169 -0.2716  0.0127
  581MOL0     C80054   8.570   7.100   6.432 -0.6898  0.4238 -0.5047
  581MOL0     C80055   8.487   7.065   6.559 -0.1375  0.6612  0.1958
  581MOL0     C80056   8.511   6.918   6.604 -0.2183  0.2491 -0.7164
  581MOL0     N80057   8.459   6.898   6.740  0.6325  0.7057  1.4401
  581MOL0     C80058   8.541   6.840   6.829 -0.0000 -0.2031 -0.0612
  581MOL0     C80059   8.463   6.807   6.937 -0.4729 -0.7369  0.0827
  581MOL0     C80060   8.514   6.750   7.069 -0.1105 -0.6505  0.2968
  581MOL0     C80061   8.435   6.823   7.192 -1.3615  0.2042  0.8873
  581MOL0     C80062   8.432   6.731   7.320 -0.3758 -0.3900 -0.8767
  581MOL0     C80063   8.360   6.783   7.444 -0.6691 -0.5728 -0.0453
  581MOL0     O80064   8.456   6.881   7.506 -0.6875 -0.6115 -0.1788
  581MOL0     C80065   8.423   6.916   7.638 -0.7584  0.3805 -0.7951
  581MOL0     C80066   8.331   6.855   7.726 -0.3072  0.5679  0.1838
  581MOL0     C80067   8.311   6.892   7.861  1.0028 -0.2926 -0.4362
  581MOL0     C80068   8.210   6.817   7.947  0.5429 -0.6310 -0.9915
  581MOL0     C80069   8.380   7.007   7.913  0.2754  1.0656 -0.3707
  581MOL0     C80070   8.354   7.083   8.032  0.2038 -0.2561 -0.9405
  581MOL0     O80071   8.407   7.215   8.049 -0.0570 -0.1993 -0.9873
  581MOL0     C80072   8.378   7.283   8.166  0.1634  0.2884 -0.2228
  581MOL0     C80073   8.292   7.393   8.186 -0.2547 -0.0962  0.3995
  581MOL0     C80074   8.263   7.442   8.309 -0.0260  0.5655 -0.4210
  581MOL0     C80075   8.299   7.370   8.423 -1.2483 -0.2849 -0.4975
  581MOL0     O80076   8.278   7.404   8.557 -0.0095  1.0664  0.8943
  581MOL0     C80077   8.287   7.549   8.580 -0.8545  0.5931 -0.1249
  581MOL0     C80078   8.328   7.566   8.731 -1.1864  0.3682  0.5228
  581MOL0     C80079   8.221   7.508   8.823  0.2285 -0.8999 -0.6282
  581MOL0     C80080   8.231   7.575   8.950  0.5449 -0.4020 -0.1128
  581MOL0     C80081   8.159   7.518   9.070  0.0273 -0.9524  0.3708
  581MOL0     C80082   8.209   7.383   9.113 -0.6680  1.7600 -0.5051
  581MOL0     C80083   8.143   7.317   9.239  0.1657 -0.9535 -0.7189
  581MOL0     C80084   8.165   7.173   9.252 -1.1577 -0.3599  0.1860
  581MOL0    Cl80085   8.324   7.117   9.217  0.2657  0.1964  0.2565
  581MOL0     C80086   8.377   7.259   8.403 -0.4876  0.0626 -0.1013
  581MOL0     C80087   8.432   7.227   8.281 -0.4910 -0.3877  0.2739
  581MOL0     O80088   8.285   7.029   8.122  0.2689 -0.0826  0.2131
  581MOL0     C80089   8.487   7.055   7.830  0.7024  0.1616 -0.9911
  581MOL0     C80090   8.512   7.008   7.699  0.7704  1.1534  0.5145
  581MOL0     N80091   8.337   6.843   6.903  0.7895  0.5768  0.0906
  581MOL0     N80092   8.329   6.878   6.777  0.5519 -0.1735 -0.8344
  581MOL0     C80093   8.901   7.377   5.796  0.2873  0.4457  0.6276
  581MOL0     C80094   8.962   7.311   5.683  0.2972  0.4919  0.0768
  581MOL0     C80095   9.067   7.092   5.318 -0.9918  0.5600 -0.5982
  581MOL0     C80096   9.005   7.084   5.195  0.0595  0.4957 -0.1985
  581MOL0     C80097   9.064   7.060   5.071  0.0298 -0.1284 -0.1278
  581MOL0     C80098   9.197   7.019   5.079 -0.4801  0.2745  0.9586
  581MOL0     O80099   9.263   6.989   4.960 -0.1920 -0.1999 -0.2873
  581MOL0     C80100   9.186   6.971   4.841  0.9733  0.4550  0.3943
  581MOL0     C80101   9.080   6.854   4.840 -0.2367 -0.6173  0.2169
  581MOL0     C80102   9.135   6.717   4.897 -0.3740 -0.1915 -1.0078
  581MOL0     C80103   9.067   6.589   4.831  0.0336 -0.4419  0.4938
  581MOL0     C80104   9.151   6.481   4.845 -0.8504  0.0184  0.0686
  581MOL0     C80105   9.241   6.399   4.842  0.1937  0.0007  0.3754
  581MOL0     C80106   9.252   6.990   5.199  0.9609  0.4572  0.5714
  581MOL0     C80107   9.195   7.031   5.324 -0.8408  0.3140  0.1469
  581MOL0     C80108   9.260   6.991   5.459 -0.4153  0.5935 -0.4795
  581MOL0     H80109   8.922   6.978   5.759 -0.1686 -0.4374  0.8655
  581MOL0     H80110   8.828   7.076   5.958  4.6449 -1.6370  0.5850
  581MOL0     H80111   8.593   7.330   5.983  0.1752 -0.4234 -0.8610
  581MOL0     H80112   8.667   7.483   5.918  1.6414  1.1991  1.3191
  581MOL0     H80113   8.724   7.513   6.177  0.1021 -0.8950  0.4384
  581MOL0     H80114   8.587   7.590   6.112 -0.3833 -0.2370  3.3858
  581MOL0     H80115   8.504   7.466   6.299  0.4886 -0.0504  0.4180
  581MOL0     H80116   8.450   7.366   6.155  0.5592 -1.3951 -0.8342
  581MOL0     H80117   8.583   7.197   6.203 -1.4301 -0.0852  0.9645
  581MOL0     H80118   8.707   7.281   6.308 -0.7867  0.9667  1.4463
  581MOL0     H80119   8.418   7.245   6.389 -0.0057  2.0930 -0.4226
  581MOL0     H80120   8.543   7.308   6.484 -4.0200 -2.9878  3.4160
  581MOL0     H80121   8.550   7.021   6.359  1.0924  0.6204 -1.2570
  581MOL0     H80122   8.676   7.104   6.455 -1.4083  2.1950  3.2314
  581MOL0     H80123   8.380   7.082   6.547 -0.0455  0.5640 -0.8015
  581MOL0     H80124   8.510   7.139   6.637  1.1096  1.3162 -0.7502
  581MOL0     H80125   8.465   6.847   6.534  1.6763 -0.1321 -1.6508
  581MOL0     H80126   8.619   6.905   6.599 -0.2019  0.8466 -3.6826
  581MOL0     H80127   8.645   6.811   6.827 -0.2784 -1.2429 -0.1146
  581MOL0     H80128   8.620   6.775   7.082 -0.3136 -0.8670  2.9054
  581MOL0     H80129   8.492   6.644   7.077 -2.1134 -0.2893  0.0891
  581MOL0     H80130   8.481   6.918   7.219 -1.4067  0.7279 -0.7724
  581MOL0     H80131   8.336   6.844   7.149  1.5012  2.1122 -6.1844
  581MOL0     H80132   8.382   6.637   7.298 -0.5272 -0.5366  0.0510
  581MOL0     H80133   8.532   6.696   7.347  0.3195  0.3620 -2.3452
  581MOL0     H80134   8.274   6.844   7.418  0.7954  0.4998 -2.8162
  581MOL0     H80135   8.334   6.703   7.514  0.2168  0.2241  1.2530
  581MOL0     H80136   8.270   6.773   7.692 -0.0830  0.6602 -0.4658
  581MOL0     H80137   8.139   6.891   7.985  0.7881  0.3088 -2.2767
  581MOL0     H80138   8.256   6.767   8.032  0.1194  0.9103  0.2050
  581MOL0     H80139   8.158   6.742   7.886 -2.0180 -1.0293  1.4579
  581MOL0     H80140   8.250   7.440   8.099 -1.1824 -0.4769  0.6337
  581MOL0     H80141   8.206   7.532   8.332 -1.3598 -1.2028  4.2474
  581MOL0     H80142   8.353   7.602   8.511 -0.6083 -0.1274 -0.4503
  581MOL0     H80143   8.186   7.591   8.572 -1.4650 -0.7386  0.3785
  581MOL0     H80144   8.423   7.515   8.743 -0.0673  2.1661 -0.2436
  581MOL0     H80145   8.334   7.673   8.754 -3.1872  0.2084  2.0684
  581MOL0     H80146   8.233   7.402   8.846  0.2328 -0.5464  1.2102
  581MOL0     H80147   8.117   7.519   8.790 -1.0957 -0.1087  3.2844
  581MOL0     H80148   8.204   7.681   8.946 -0.2218 -0.5688  0.4100
  581MOL0     H80149   8.338   7.573   8.972  0.7175  0.4378 -0.7917
  581MOL0     H80150   8.167   7.595   9.147  2.4318 -0.2431 -0.5048
  581MOL0     H80151   8.055   7.507   9.037  0.3448  2.7916 -2.5473
  581MOL0     H80152   8.317   7.387   9.126 -0.2827 -2.1314 -1.1828
  581MOL0     H80153   8.180   7.313   9.033 -2.6539 -3.0400  3.8129
  581MOL0     H80154   8.034   7.329   9.241  0.2205 -0.2240  1.8753
  581MOL0     H80155   8.194   7.359   9.326 -0.5448  1.8141 -1.5524
  581MOL0     H80156   8.104   7.113   9.184 -1.2986 -0.3507  0.3027
  581MOL0     H80157   8.133   7.145   9.353  1.0768 -2.1077  0.4920
  581MOL0     H80158   8.412   7.202   8.489  1.7596  1.4034 -0.0527
  581MOL0     H80159   8.504   7.149   8.258 -1.1525 -0.5148 -1.5435
  581MOL0     H80160   8.556   7.127   7.874  0.2689 -0.4568  0.8022
  581MOL0     H80161   8.584   7.051   7.630  0.2131  0.3212 -0.6070
  581MOL0     H80162   8.884   7.482   5.815  0.5716  0.7558 -0.7155
  581MOL0     H80163   9.027   7.371   5.620  1.6550 -0.6859  0.2885
  581MOL0     H80164   8.899   7.108   5.197 -0.3829 -1.3208  2.3253
  581MOL0     H80165   9.000   7.075   4.984 -1.2076 -1.0860  0.5750
  581MOL0     H80166   9.138   7.057   4.792 -2.8454 -2.6240 -1.8365
  581MOL0     H80167   9.261   6.942   4.767 -1.1656 -3.6691 -0.4246
  581MOL0     H80168   9.041   6.835   4.740  4.3448  0.9880 -2.1401
  581MOL0     H80169   8.999   6.873   4.911  1.0621 -0.3407  1.7004
  581MOL0     H80170   9.243   6.717   4.879 -0.1770  1.6884 -0.0569
  581MOL0     H80171   9.109   6.724   5.003  0.7631 -1.1849 -0.6416
  581MOL0     H80172   9.078   6.597   4.723  2.1868  0.2290  0.7076
  581MOL0     H80173   8.962   6.580   4.859 -0.0954 -1.6149 -0.3371
  581MOL0     H80174   9.330   6.339   4.837 -0.7082 -1.4198  0.7658
  581MOL0     H80175   9.346   6.935   5.200 -0.4652 -2.0768  1.1948
  581MOL0     H80176   9.346   6.925   5.444  1.0556  1.4455  3.0899
  581MOL0     H80177   9.294   7.085   5.505 -0.2595  0.2013  0.2273
  581MOL0     H80178   9.192   6.928   5.517  2.1056  0.4100  2.5613
  582MOL0     O80179   3.559   6.570   1.826 -0.1478 -0.5150  1.0048
  582MOL0     C80180   3.518   6.569   1.714  0.0790 -0.4703  0.5858
  582MOL0     O80181   3.556   6.483   1.613  0.3424 -0.0069 -0.4739
  582MOL0     C80182   3.666   6.404   1.635  1.6294  0.1820  0.1397
  582MOL0     C80183   3.665   6.267   1.612  0.1673 -0.8895 -0.0170
  582MOL0     C80184   3.783   6.192   1.602  0.9064  0.6033  1.0423
  582MOL0     C80185   3.909   6.251   1.612  0.1045  0.0445 -0.1377
  582MOL0     O80186   4.023   6.174   1.614  0.4312 -0.1515 -0.6524
  582MOL0     C80187   4.160   6.230   1.609 -0.1533  0.5794  0.0151
  582MOL0     C80188   4.193   6.304   1.472 -0.8660  1.0580  0.5306
  582MOL0     C80189   4.138   6.243   1.343  0.6161  0.1201 -0.1932
  582MOL0     C80190   4.169   6.325   1.218 -0.6216 -0.0254 -0.0010
  582MOL0     C80191   4.106   6.262   1.087  0.0511 -0.4048  0.1850
  582MOL0     C80192   4.178   6.136   1.037 -0.0290  0.2708  0.0465
  582MOL0     C80193   4.124   6.099   0.906 -0.8384  0.2823  0.5404
  582MOL0     C80194   4.210   6.003   0.820  0.7043  0.4349 -0.1828
  582MOL0     N80195   4.291   6.073   0.722 -0.0483  0.1510  0.0593
  582MOL0     C80196   4.296   6.055   0.585  0.4079  1.1025  0.0635
  582MOL0     C80197   4.394   6.133   0.549 -1.1812 -0.2752  0.0888
  582MOL0     C80198   4.445   6.139   0.412 -0.1367  0.2955  0.0559
  582MOL0     C80199   4.602   6.160   0.412 -0.1141 -0.7391 -0.2791
  582MOL0     C80200   4.659   6.143   0.276 -0.2415  0.1832 -0.3585
  582MOL0     C80201   4.608   6.238   0.171 -0.2464 -0.1603 -0.5007
  582MOL0     O80202   4.682   6.204   0.057  1.0065 -0.3927 -0.0520
  582MOL0     C80203   4.784   6.282   0.012 -0.7584 -0.4672  0.0091
  582MOL0     C80204   4.794   6.303  -0.126 -0.4665  0.1808  0.0917
  582MOL0     C80205   4.894   6.383  -0.180 -0.0029  0.0686  1.0855
  582MOL0     C80206   4.909   6.377  -0.326  0.0030  0.3219  0.1207
  582MOL0     C80207   4.983   6.452  -0.096  0.4794 -0.2311  0.6569
  582MOL0     C80208   5.097   6.548  -0.138 -0.2287 -0.3334 -0.3037
  582MOL0     O80209   5.206   6.547  -0.056 -0.1214  0.3534  0.2893
  582MOL0     C80210   5.297   6.653  -0.061  0.5530  0.2979 -0.4931
  582MOL0     C80211   5.424   6.636  -0.107  0.1903 -0.5775 -0.2908
  582MOL0     C80212   5.529   6.730  -0.082 -0.2374 -1.1176  0.3797
  582MOL0     C80213   5.501   6.847  -0.013 -0.2968 -0.2372 -0.9906
  582MOL0     O80214   5.591   6.942   0.016  0.5457 -0.2082  0.9086
  582MOL0     C80215   5.734   6.911   0.031 -0.3021  0.1774 -0.7714
  582MOL0     C80216   5.757   6.881   0.182  0.9507  0.7966 -0.1159
  582MOL0     C80217   5.767   6.734   0.206  1.0362  0.8836  0.6981
  582MOL0     C80218   5.761   6.684   0.352  0.8122 -0.1406 -0.0630
  582MOL0     C80219   5.616   6.689   0.413 -0.6783 -0.0519  0.2704
  582MOL0     C80220   5.506   6.636   0.320 -0.3120  0.4450  0.2497
  582MOL0     C80221   5.376   6.658   0.402  0.5154 -0.3434  0.2253
  582MOL0     C80222   5.245   6.608   0.331 -1.0126  0.0800  0.1928
  582MOL0    Cl80223   5.211   6.434   0.343  0.1361 -0.0731 -0.2355
  582MOL0     C80224   5.362   6.873   0.032  0.2255 -0.8400 -0.5872
  582MOL0     C80225   5.266   6.770   0.008 -0.1233 -0.5556 -0.5259
  582MOL0     O80226   5.077   6.624  -0.232 -0.0741 -1.0593 -0.5070
  582MOL0     C80227   4.956   6.453   0.045  0.0496  0.2009  0.5518
  582MOL0     C80228   4.854   6.374   0.097 -0.5485 -1.1824 -0.3569
  582MOL0     N80229   4.441   6.197   0.660 -0.2369 -0.0271 -0.0881
  582MOL0     N80230   4.371   6.176   0.760  0.3227 -0.2476  0.9384
  582MOL0     C80231   3.912   6.391   1.622 -0.0421  0.0466 -0.2072
  582MOL0     C80232   3.791   6.461   1.638  0.2832 -0.4461 -0.8447
  582MOL0     C80233   3.437   6.693   1.680 -0.5580 -0.3562 -0.1878
  582MOL0     C80234   3.445   6.727   1.542 -0.7125  0.1674 -0.1889
  582MOL0     C80235   3.374   6.840   1.510  0.6591 -0.9784 -0.8213
  582MOL0     C80236   3.292   6.918   1.595 -0.3084  0.2743  0.6504
  582MOL0     O80237   3.221   7.017   1.545 -0.1619  0.9437  0.9005
  582MOL0     C80238   3.188   7.124   1.630  0.4350  1.1917 -0.3721
  582MOL0     C80239   3.308   7.203   1.664  0.2681  0.4519  0.0643
  582MOL0     C80240   3.369   7.260   1.533 -0.2217 -0.4474  0.2749
  582MOL0     C80241   3.521   7.316   1.528 -0.4977 -1.8123 -0.3837
  582MOL0     C80242   3.551   7.408   1.638 -0.0401  0.2875  0.5521
  582MOL0     C80243   3.586   7.465   1.742 -0.0645  0.9682  0.2352
  582MOL0     C80244   3.276   6.867   1.722  0.3616  0.4947 -0.3542
  582MOL0     C80245   3.358   6.769   1.777 -0.1448  0.7308  0.4211
  582MOL0     C80246   3.353   6.733   1.919  0.7682  0.4102 -0.4358
  582MOL0     H80247   3.566   6.224   1.605  0.5006 -1.8281  0.8621
  582MOL0     H80248   3.771   6.084   1.604 -0.8792  0.7582  0.2473
  582MOL0     H80249   4.229   6.150   1.639  2.2162  1.8972 -1.6158
  582MOL0     H80250   4.173   6.304   1.689  0.3684  1.6579 -1.0296
  582MOL0     H80251   4.144   6.401   1.480 -0.8809  1.3665 -2.1989
  582MOL0     H80252   4.303   6.306   1.470 -0.8578  1.6331 -1.8122
  582MOL0     H80253   4.183   6.145   1.323 -0.9757 -0.3304 -1.8111
  582MOL0     H80254   4.030   6.225   1.349  0.7338 -0.4086  0.5516
  582MOL0     H80255   4.122   6.421   1.239  0.6709  0.6374 -0.0126
  582MOL0     H80256   4.276   6.340   1.198 -0.9484  1.1743 -0.9716
  582MOL0     H80257   4.107   6.337   1.008  1.1702  1.2518  1.7045
  582MOL0     H80258   4.000   6.243   1.109 -0.3361 -1.6490 -2.4116
  582MOL0     H80259   4.286   6.158   1.036 -0.0720  0.4849 -0.0540
  582MOL0     H80260   4.178   6.055   1.109  1.0595  1.2049  1.1555
  582MOL0     H80261   4.107   6.181   0.836 -1.0084 -1.1894 -1.2020
  582MOL0     H80262   4.019   6.069   0.908 -1.3985  2.0029 -0.6075
  582MOL0     H80263   4.264   5.925   0.875  1.8347  2.1816  1.3002
  582MOL0     H80264   4.134   5.949   0.762  0.1710  1.0567 -0.0798
  582MOL0     H80265   4.229   5.994   0.525 -1.3326  2.3347  0.6570
  582MOL0     H80266   4.393   6.223   0.365 -0.5743 -0.3809 -0.6807
  582MOL0     H80267   4.417   6.044   0.366 -0.9611  0.2070  0.7149
  582MOL0     H80268   4.605   6.264   0.447  3.2141 -0.1022 -2.0704
  582MOL0     H80269   4.647   6.087   0.480  0.6222 -1.9196 -1.9629
  582MOL0     H80270   4.767   6.155   0.282 -0.5854  3.6019  2.1834
  582MOL0     H80271   4.625   6.045   0.243 -0.3884 -0.5773  1.9055
  582MOL0     H80272   4.500   6.220   0.161 -0.3331 -0.1918  0.4388
  582MOL0     H80273   4.610   6.340   0.208  3.9362 -0.7838  1.4930
  582MOL0     H80274   4.723   6.241  -0.181  0.5203 -1.4212  0.5646
  582MOL0     H80275   4.879   6.469  -0.378  1.8240 -0.3756 -2.3660
  582MOL0     H80276   4.851   6.289  -0.354 -0.5343  0.7043  0.0045
  582MOL0     H80277   5.016   6.370  -0.346 -0.3837 -2.5178 -1.5476
  582MOL0     H80278   5.450   6.547  -0.162  1.8732 -0.2234 -0.1442
  582MOL0     H80279   5.621   6.719  -0.139 -0.0300  1.3003  0.1423
  582MOL0     H80280   5.762   6.833  -0.041  2.0618 -0.3455  0.6094
  582MOL0     H80281   5.787   7.005   0.014 -3.5404  2.4679  0.8073
  582MOL0     H80282   5.846   6.937   0.212  0.8481  1.9304 -1.7732
  582MOL0     H80283   5.681   6.916   0.252 -0.6858 -1.2880 -0.7525
  582MOL0     H80284   5.860   6.698   0.160  1.2031 -0.6582  2.1607
  582MOL0     H80285   5.693   6.694   0.136 -0.0618  2.7714  0.7085
  582MOL0     H80286   5.819   6.754   0.412 -3.3642  0.8269  3.3653
  582MOL0     H80287   5.801   6.583   0.362 -1.0465 -1.2383 -2.5312
  582MOL0     H80288   5.617   6.635   0.509 -0.3455 -0.8455 -0.1692
  582MOL0     H80289   5.602   6.795   0.433  1.8007  0.3974 -0.0578
  582MOL0     H80290   5.512   6.532   0.287  0.1336  0.7688 -0.7548
  582MOL0     H80291   5.485   6.698   0.232 -0.2614  2.5724  1.6642
  582MOL0     H80292   5.361   6.766   0.414  2.8305  0.0010  0.5235
  582MOL0     H80293   5.385   6.617   0.503 -0.0097  2.1612  1.3498
  582MOL0     H80294   5.261   6.627   0.224 -3.5840  2.8364  0.1489
  582MOL0     H80295   5.152   6.658   0.359  0.3784  2.4564  0.8927
  582MOL0     H80296   5.333   6.956   0.095 -1.1530 -2.7380  1.4316
  582MOL0     H80297   5.170   6.769   0.059  0.9828  0.9697  1.7577
  582MOL0     H80298   5.016   6.504   0.120 -1.5329  1.1839  1.1868
  582MOL0     H80299   4.856   6.371   0.205 -1.9225 -0.5250 -0.2941
  582MOL0     H80300   4.003   6.450   1.623 -0.7247  1.1517 -0.6208
  582MOL0     H80301   3.798   6.569   1.651 -0.1018 -0.4111 -0.9277
  582MOL0     H80302   3.511   6.681   1.469 -0.9314 -0.5496  0.0628
  582MOL0     H80303   3.377   6.881   1.409  2.6654  2.4715  0.4356
  582MOL0     H80304   3.113   7.188   1.584 -1.7272 -0.6270  0.4487
  582MOL0     H80305   3.144   7.086   1.723  2.7849 -2.9417 -0.7129
  582MOL0     H80306   3.382   7.135   1.707 -0.4214  0.7120  1.7290
  582MOL0     H80307   3.292   7.283   1.737 -0.3432  1.5775 -1.2618
  582MOL0     H80308   3.363   7.192   1.447 -0.5350 -1.3343  0.9873
  582MOL0     H80309   3.295   7.339   1.514  0.1318  1.0417  4.0731
  582MOL0     H80310   3.532   7.369   1.434 -2.2161 -3.5602 -1.6712
  582MOL0     H80311   3.588   7.231   1.515  1.5584 -0.0030 -2.3752
  582MOL0     H80312   3.622   7.536   1.814  2.3758 -0.0465  0.1133
  582MOL0     H80313   3.204   6.923   1.781  3.1526  1.6191  2.3029
  582MOL0     H80314   3.357   6.630   1.955 -2.6561  0.8194  1.5320
  582MOL0     H80315   3.429   6.796   1.967 -0.4712 -0.1100  2.4297
  582MOL0     H80316   3.267   6.772   1.973  0.0337 -1.2310 -0.3566
  583MOL0     O80317  10.949  11.035   6.177  0.9136 -0.0353 -0.3519
  583MOL0     C80318  10.944  11.050   6.053  0.4621  0.3331  0.5121
  583MOL0     O80319  11.042  11.099   5.983  0.2560 -0.0683 -0.4496
  583MOL0     C80320  11.167  11.086   6.032 -0.2915 -0.2594  0.3815
  583MOL0     C80321  11.220  10.958   6.043 -0.5097 -0.4642 -0.3099
  583MOL0     C80322  11.346  10.946   6.089 -0.7403  0.1486 -0.5211
  583MOL0     C80323  11.423  11.055   6.116 -0.3356 -1.1505 -0.1416
  583MOL0     O80324  11.555  11.036   6.134 -0.8007 -0.8980 -0.8609
  583MOL0     C80325  11.625  11.115   6.222 -0.4208 -0.6649  0.2095
  583MOL0     C80326  11.768  11.066   6.225 -1.0836  0.0103  0.2252
  583MOL0     C80327  11.849  11.124   6.106 -0.5870  0.2423  0.2830
  583MOL0     C80328  11.984  11.047   6.083 -0.0012  0.5309 -1.0744
  583MOL0     C80329  12.073  11.129   5.992 -0.1824  0.2404  0.3640
  583MOL0     C80330  12.206  11.057   5.936 -0.4136  0.2010 -0.4096
  583MOL0     C80331  12.183  10.933   5.856  0.6946  0.9589  0.3184
  583MOL0     C80332  12.078  10.959   5.742  0.4454  1.0207 -0.0856
  583MOL0     N80333  12.071  10.846   5.647 -0.4062 -0.7160  0.3116
  583MOL0     C80334  12.117  10.714   5.659  0.6712 -1.2749  0.3522
  583MOL0     C80335  12.057  10.654   5.561  0.3577  0.6318 -0.0250
  583MOL0     C80336  12.064  10.505   5.534 -0.4117  0.1398 -0.3792
  583MOL0     C80337  11.935  10.448   5.468  0.0352  1.1178  0.1511
  583MOL0     C80338  11.962  10.295   5.467  0.6844 -1.1507 -0.3821
  583MOL0     C80339  11.846  10.211   5.422  0.4080 -0.6930 -0.7931
  583MOL0     O80340  11.755  10.196   5.531  0.3221  0.1163  0.2903
  583MOL0     C80341  11.625  10.198   5.513  0.9733 -0.1898 -1.1249
  583MOL0     C80342  11.568  10.307   5.447 -0.5593  0.4133 -0.1042
  583MOL0     C80343  11.433  10.323   5.423  0.7242  0.8095 -0.4140
  583MOL0     C80344  11.374  10.424   5.335 -0.8321  0.3914  0.0278
  583MOL0     C80345  11.350  10.225   5.477 -0.0178  0.5131  0.5392
  583MOL0     C80346  11.202  10.225   5.463 -0.4604 -0.4819  0.6132
  583MOL0     O80347  11.142  10.318   5.541 -0.3153 -0.5320 -0.5584
  583MOL0     C80348  11.011  10.318   5.529  0.2522  0.1245  0.8639
  583MOL0     C80349  10.929  10.208   5.576 -0.4284 -0.0767  0.3041
  583MOL0     C80350  10.785  10.217   5.566 -0.4122 -0.2583 -0.4743
  583MOL0     C80351  10.717  10.327   5.508 -1.1144  0.1173  0.3726
  583MOL0     O80352  10.577  10.338   5.480  0.5179 -0.4668 -0.3769
  583MOL0     C80353  10.511  10.212   5.464 -0.5776 -0.3810  0.3257
  583MOL0     C80354  10.372  10.221   5.397  0.0311  0.5972 -0.4695
  583MOL0     C80355  10.383  10.313   5.273  0.0700 -0.6352  0.3732
  583MOL0     C80356  10.501  10.261   5.181  0.3283 -0.3669  0.1937
  583MOL0     C80357  10.494  10.317   5.039  0.9069  0.0215 -0.4167
  583MOL0     C80358  10.588  10.268   4.930 -0.8054  1.1391  0.0826
  583MOL0     C80359  10.589  10.356   4.806  0.7406 -0.3457  0.8007
  583MOL0     C80360  10.639  10.274   4.681  0.7755 -0.3213 -0.0369
  583MOL0    Cl80361  10.499  10.178   4.612 -0.6306  0.0137 -0.4950
  583MOL0     C80362  10.798  10.431   5.462 -0.1932  0.3139 -0.8849
  583MOL0     C80363  10.939  10.431   5.479 -0.7114  0.9820  1.0471
  583MOL0     O80364  11.150  10.125   5.412  0.6607  0.8472 -0.7992
  583MOL0     C80365  11.407  10.121   5.557  0.5396 -0.1754 -0.0681
  583MOL0     C80366  11.542  10.099   5.573 -0.4855 -0.6652  0.0314
  583MOL0     N80367  11.997  10.741   5.484  0.2434 -0.0362 -0.0871
  583MOL0     N80368  11.992  10.854   5.538 -0.5422  0.0153 -0.2013
  583MOL0     C80369  11.376  11.184   6.090 -0.0161  0.5449 -0.4493
  583MOL0     C80370  11.241  11.199   6.052  0.1008 -0.5119 -0.2266
  583MOL0     C80371  10.813  11.051   5.990  0.5546  0.3566  0.0260
  583MOL0     C80372  10.797  11.121   5.873 -0.4958 -1.3577 -0.1143
  583MOL0     C80373  10.676  11.126   5.811  0.0177 -0.7874  0.1654
  583MOL0     C80374  10.567  11.087   5.876 -0.0501  0.3863  0.7356
  583MOL0     O80375  10.449  11.100   5.797 -0.5944 -0.5969  0.1752
  583MOL0     C80376  10.339  11.017   5.830 -0.2714 -1.1890 -0.3115
  583MOL0     C80377  10.217  11.035   5.743  0.3136 -0.0007  0.1230
  583MOL0     C80378  10.156  11.177   5.768  0.3933 -0.0786 -0.5968
  583MOL0     C80379  10.028  11.176   5.691  0.3439 -0.5391  0.0522
  583MOL0     C80380   9.955  11.304   5.730 -0.0765  0.7765  0.7211
  583MOL0     C80381   9.896  11.404   5.760  0.2909  0.1055 -0.6812
  583MOL0     C80382  10.580  11.020   5.990  0.3782  0.5019 -0.2068
  583MOL0     C80383  10.702  10.981   6.044 -0.3721  0.1966  0.5591
  583MOL0     C80384  10.700  10.862   6.138 -0.2591  0.4614  0.3186
  583MOL0     H80385  11.153  10.873   6.032  0.4588 -1.4762  1.2282
  583MOL0     H80386  11.398  10.851   6.089 -2.3235 -0.9134 -4.0217
  583MOL0     H80387  11.581  11.097   6.321 -0.5100  0.1112  0.3162
  583MOL0     H80388  11.619  11.220   6.190  1.6438 -0.4534  0.3954
  583MOL0     H80389  11.806  11.105   6.320 -1.5492 -1.0835  0.8860
  583MOL0     H80390  11.769  10.957   6.217 -2.0088  0.0051  0.0707
  583MOL0     H80391  11.796  11.120   6.010  2.3414  0.1865 -1.4536
  583MOL0     H80392  11.873  11.229   6.124  1.9437  0.0408 -1.3869
  583MOL0     H80393  12.040  11.043   6.177 -2.3249  1.4069  0.4297
  583MOL0     H80394  11.981  10.944   6.044  3.3216 -1.4630  3.0631
  583MOL0     H80395  12.099  11.210   6.061  1.1258  1.3264 -1.3176
  583MOL0     H80396  12.013  11.178   5.915  0.1087  0.4027  0.2378
  583MOL0     H80397  12.251  11.128   5.866  1.2593 -0.4320 -0.0415
  583MOL0     H80398  12.274  11.039   6.020 -2.1107 -4.6730  0.2386
  583MOL0     H80399  12.161  10.845   5.917 -0.3388  0.5042 -0.6800
  583MOL0     H80400  12.280  10.911   5.809  0.3301  0.6529 -0.2972
  583MOL0     H80401  11.978  10.980   5.782  0.6154 -0.1966  1.0199
  583MOL0     H80402  12.108  11.050   5.689 -0.5385  1.2866 -0.2112
  583MOL0     H80403  12.178  10.667   5.735  0.5057 -0.5403  0.9524
  583MOL0     H80404  12.087  10.460   5.631 -0.8768  1.5569  0.4052
  583MOL0     H80405  12.151  10.513   5.468  0.7241 -0.5987  0.9543
  583MOL0     H80406  11.857  10.475   5.539  0.8952  2.4681  0.6132
  583MOL0     H80407  11.906  10.484   5.369  1.1416 -3.8074 -2.2877
  583MOL0     H80408  12.036  10.290   5.386 -0.6572  0.2419 -1.7696
  583MOL0     H80409  11.992  10.255   5.564 -0.6108  1.0477  1.0049
  583MOL0     H80410  11.800  10.259   5.335  0.6013 -0.2206 -0.6364
  583MOL0     H80411  11.885  10.115   5.385 -0.5184 -0.4240 -2.5807
  583MOL0     H80412  11.635  10.390   5.426 -1.4687  1.0510 -0.5783
  583MOL0     H80413  11.346  10.511   5.396 -1.2451  1.1258 -1.1732
  583MOL0     H80414  11.286  10.380   5.287 -0.1037  0.0746 -1.0593
  583MOL0     H80415  11.435  10.442   5.246 -0.7816 -0.9228 -0.2176
  583MOL0     H80416  10.985  10.120   5.605  0.6016 -0.6088 -2.9363
  583MOL0     H80417  10.726  10.131   5.596  0.9757 -1.0499  0.0345
  583MOL0     H80418  10.582  10.149   5.409 -1.9924  0.0664 -2.1664
  583MOL0     H80419  10.493  10.177   5.566 -0.7257  2.1898  1.2464
  583MOL0     H80420  10.332  10.127   5.358 -3.3257  1.0715  1.4279
  583MOL0     H80421  10.297  10.250   5.472 -0.2661  0.5460 -0.7445
  583MOL0     H80422  10.416  10.413   5.303  1.1440 -0.4933 -1.1762
  583MOL0     H80423  10.290  10.319   5.216  0.1661  1.4488  0.3610
  583MOL0     H80424  10.488  10.152   5.176 -0.3308 -0.2616 -0.5783
  583MOL0     H80425  10.605  10.287   5.206  0.3266  1.3665 -1.3574
  583MOL0     H80426  10.395  10.285   5.006 -0.6849  3.6309  0.4207
  583MOL0     H80427  10.510  10.425   5.035 -1.2609  0.3812 -0.5496
  583MOL0     H80428  10.558  10.166   4.905 -1.6660  1.3542  0.2014
  583MOL0     H80429  10.693  10.255   4.961 -0.8559  2.6334  0.9761
  583MOL0     H80430  10.651  10.443   4.830 -0.8056  1.0788 -0.1437
  583MOL0     H80431  10.486  10.387   4.789  0.6035  2.1488  4.9044
  583MOL0     H80432  10.725  10.214   4.711  0.9617  0.2030  0.5032
  583MOL0     H80433  10.666  10.342   4.600 -0.1378 -0.3817 -0.4067
  583MOL0     H80434  10.754  10.518   5.414  0.4406  1.6005  0.7630
  583MOL0     H80435  10.986  10.519   5.435 -0.2656 -0.0567 -0.6829
  583MOL0     H80436  11.338  10.046   5.594  0.8162 -0.4109 -0.0197
  583MOL0     H80437  11.576  10.010   5.626  1.3086  1.3007  2.4153
  583MOL0     H80438  11.440  11.269   6.111  1.6763 -0.5581 -0.9784
  583MOL0     H80439  11.205  11.301   6.038  0.4449 -0.7167 -3.0936
  583MOL0     H80440  10.887  11.152   5.821 -1.0012 -1.7711 -1.2742
  583MOL0     H80441  10.660  11.172   5.714  2.2900  4.2226  1.8456
  583MOL0     H80442  10.370  10.915   5.807  0.0663 -1.5680  1.6250
  583MOL0     H80443  10.304  11.033   5.932 -1.3647  3.9144 -1.2153
  583MOL0     H80444  10.146  10.957   5.772  0.2657  0.6227  1.8132
  583MOL0     H80445  10.244  11.014   5.639  0.8711 -2.2411  0.6720
  583MOL0     H80446  10.135  11.188   5.874  0.5495 -1.1758 -0.4392
  583MOL0     H80447  10.218  11.264   5.744  2.7217 -1.0630  1.4650
  583MOL0     H80448   9.965  11.090   5.710  0.2661 -1.2758 -2.9504
  583MOL0     H80449  10.042  11.174   5.582  0.2097  2.0920 -0.0778
  583MOL0     H80450   9.838  11.492   5.780  1.3898  0.5165  0.9467
  583MOL0     H80451  10.499  10.966   6.038 -1.1255  2.0660 -0.8734
  583MOL0     H80452  10.731  10.895   6.238 -0.1599 -3.2596  1.6881
  583MOL0     H80453  10.608  10.804   6.127  1.3666 -1.9673 -1.2641
  583MOL0     H80454  10.772  10.787   6.104 -1.6026 -1.3301  1.2624
  584MOL0     O80455   3.367   3.973   8.975 -0.9024 -0.3783 -0.1897
  584MOL0     C80456   3.418   4.047   9.059  0.3025 -0.7226  0.7507
  584MOL0     O80457   3.551   4.056   9.093 -0.4155 -0.4220 -0.6961
  584MOL0     C80458   3.644   4.012   8.994 -0.0878 -0.7386  0.2241
  584MOL0     C80459   3.643   4.061   8.864 -1.2526 -0.3115 -0.1345
  584MOL0     C80460   3.746   4.040   8.774  0.1380 -0.5038  0.5748
  584MOL0     C80461   3.847   3.954   8.806 -0.5528 -0.6025 -0.3451
  584MOL0     O80462   3.943   3.921   8.699 -0.3677 -0.0733  0.0183
  584MOL0     C80463   3.885   3.860   8.584 -0.7501  0.4723 -0.5280
  584MOL0     C80464   3.998   3.797   8.503 -0.9774 -0.5986  0.2277
  584MOL0     C80465   3.939   3.736   8.379 -0.7061  0.9675  0.0351
  584MOL0     C80466   4.056   3.690   8.288  0.0775 -0.0868 -1.0727
  584MOL0     C80467   4.009   3.605   8.166  1.2535 -0.4627  0.0735
  584MOL0     C80468   4.090   3.617   8.043 -1.2921 -0.1201  0.1746
  584MOL0     C80469   4.237   3.567   8.063  0.3296  0.2063  0.6684
  584MOL0     C80470   4.257   3.423   8.051 -0.2860 -0.6791  0.9057
  584MOL0     N80471   4.223   3.376   7.912 -0.1571 -0.6252 -0.1051
  584MOL0     C80472   4.287   3.420   7.795 -0.8003 -0.2005  0.1189
  584MOL0     C80473   4.219   3.372   7.696  0.0949 -0.6187  0.8325
  584MOL0     C80474   4.242   3.377   7.549 -0.4626  0.2657  0.1517
  584MOL0     C80475   4.145   3.476   7.461 -0.8294  1.0395 -0.1019
  584MOL0     C80476   4.008   3.413   7.418  0.7714  0.1544 -0.9699
  584MOL0     C80477   3.921   3.520   7.339 -0.3977  0.3894  0.1553
  584MOL0     O80478   3.895   3.644   7.418 -0.1841 -0.1210 -0.5954
  584MOL0     C80479   3.796   3.633   7.515 -0.0637  0.0242 -0.4841
  584MOL0     C80480   3.667   3.596   7.493 -0.3934 -0.6983 -0.1901
  584MOL0     C80481   3.580   3.564   7.592  0.5676 -0.1609 -0.8880
  584MOL0     C80482   3.435   3.538   7.555 -0.1978 -1.0027  0.5003
  584MOL0     C80483   3.622   3.565   7.734  0.7928 -0.5875  0.4709
  584MOL0     C80484   3.536   3.538   7.858  0.4239  1.0130  0.1550
  584MOL0     O80485   3.415   3.469   7.850 -0.1764 -0.0196  0.0733
  584MOL0     C80486   3.328   3.460   7.959  0.1213 -0.5959 -0.0915
  584MOL0     C80487   3.375   3.404   8.080  1.4591 -0.3136 -0.6836
  584MOL0     C80488   3.291   3.409   8.199 -0.1817 -0.1455 -0.0997
  584MOL0     C80489   3.166   3.467   8.188  0.1346  0.2510  0.3169
  584MOL0     O80490   3.089   3.455   8.306  0.2625 -0.1715  0.5825
  584MOL0     C80491   2.972   3.549   8.301  0.1123 -0.3919 -0.8524
  584MOL0     C80492   2.915   3.574   8.437 -0.3288 -0.3036 -0.0309
  584MOL0     C80493   2.854   3.448   8.498 -0.1587  0.0828 -0.1383
  584MOL0     C80494   2.800   3.481   8.634  0.2435  0.4619 -0.2987
  584MOL0     C80495   2.670   3.559   8.635 -1.0189 -0.4443 -0.0694
  584MOL0     C80496   2.619   3.579   8.779 -0.6325 -0.0598 -0.5852
  584MOL0     C80497   2.505   3.680   8.789  0.1573 -0.5846 -0.2399
  584MOL0     C80498   2.409   3.638   8.895  0.1671 -0.2519  0.5918
  584MOL0    Cl80499   2.262   3.739   8.915 -0.1047  0.1824 -0.0321
  584MOL0     C80500   3.120   3.514   8.068 -0.1191  0.3001  0.0838
  584MOL0     C80501   3.202   3.515   7.957  0.7557  0.8413  0.2867
  584MOL0     O80502   3.577   3.603   7.953 -0.1681  0.4287 -0.0233
  584MOL0     C80503   3.759   3.611   7.746  0.2288  0.8011 -0.0692
  584MOL0     C80504   3.846   3.641   7.643  0.1240  0.4746 -0.2510
  584MOL0     N80505   4.108   3.314   7.747 -1.0414 -0.1886 -0.0260
  584MOL0     N80506   4.110   3.320   7.872  0.4975 -0.5505 -0.6112
  584MOL0     C80507   3.851   3.909   8.940  0.0614  0.3945 -0.1073
  584MOL0     C80508   3.760   3.946   9.036 -0.2746  0.1164 -0.7227
  584MOL0     C80509   3.328   4.140   9.125 -0.1690  0.8499 -1.0340
  584MOL0     C80510   3.392   4.233   9.211  0.3471  0.4428  0.1904
  584MOL0     C80511   3.326   4.340   9.267 -0.1361  0.0594 -0.0818
  584MOL0     C80512   3.188   4.355   9.252 -0.1436  0.8269 -0.0945
  584MOL0     O80513   3.123   4.454   9.314 -0.6499  0.0183 -0.4620
  584MOL0     C80514   3.021   4.433   9.405  0.3962  0.0620 -0.7128
  584MOL0     C80515   3.036   4.303   9.492 -1.0706  0.5637  0.6792
  584MOL0     C80516   2.935   4.280   9.602  0.5084 -0.6992  0.3806
  584MOL0     C80517   2.795   4.235   9.567 -0.2193 -0.7539 -0.6507
  584MOL0     C80518   2.793   4.108   9.497 -0.5273  0.0253  0.1678
  584MOL0     C80519   2.798   4.008   9.419 -0.5034 -0.8082 -1.3376
  584MOL0     C80520   3.122   4.246   9.188 -0.2272  0.5113 -0.5913
  584MOL0     C80521   3.184   4.149   9.126  0.9420 -0.0799 -0.6840
  584MOL0     C80522   3.106   4.045   9.052  0.9878  0.5044 -0.6623
  584MOL0     H80523   3.556   4.116   8.826 -2.3473 -0.7827  1.5794
  584MOL0     H80524   3.750   4.082   8.674 -3.2526  1.3183  1.0649
  584MOL0     H80525   3.842   3.941   8.524 -0.0324  2.5721  1.6082
  584MOL0     H80526   3.818   3.781   8.619 -0.4986  0.5557  0.1758
  584MOL0     H80527   4.068   3.874   8.471 -0.9042 -0.5893  0.4056
  584MOL0     H80528   4.050   3.725   8.567  2.6247  2.6626  1.3515
  584MOL0     H80529   3.885   3.651   8.422  2.2686  0.7078  3.8286
  584MOL0     H80530   3.883   3.797   8.308  1.1894  1.4359 -1.1076
  584MOL0     H80531   4.097   3.786   8.253 -2.0481  1.6756  0.9167
  584MOL0     H80532   4.131   3.627   8.337  1.2532  1.6174 -0.5557
  584MOL0     H80533   3.906   3.635   8.144  0.5061 -1.0363  2.4977
  584MOL0     H80534   3.996   3.503   8.202 -0.3730 -1.2670 -2.4606
  584MOL0     H80535   4.044   3.569   7.956  4.5342  0.7104 -3.9484
  584MOL0     H80536   4.090   3.724   8.020 -2.9994  0.1254  1.1071
  584MOL0     H80537   4.264   3.582   8.168 -0.5236  1.6528  0.7016
  584MOL0     H80538   4.300   3.623   7.994 -0.4902 -1.5837 -1.6919
  584MOL0     H80539   4.360   3.390   8.069  0.2682 -0.9082 -2.0936
  584MOL0     H80540   4.189   3.376   8.122 -0.3183 -2.9141 -0.5255
  584MOL0     H80541   4.374   3.485   7.791 -0.6583 -0.4084 -2.7480
  584MOL0     H80542   4.260   3.274   7.517 -0.1069  0.9046 -1.8273
  584MOL0     H80543   4.346   3.408   7.537  0.1758 -1.4973  0.8237
  584MOL0     H80544   4.140   3.567   7.521  1.8715  2.0624 -1.2173
  584MOL0     H80545   4.207   3.505   7.375 -3.2159  4.4918 -0.8271
  584MOL0     H80546   4.025   3.319   7.366 -2.5293 -1.4345  0.5309
  584MOL0     H80547   3.947   3.370   7.498  2.2920 -0.9053 -0.3376
  584MOL0     H80548   3.981   3.541   7.250  0.2337  1.8638  0.8922
  584MOL0     H80549   3.833   3.471   7.295 -0.0865  2.4518 -3.2031
  584MOL0     H80550   3.625   3.593   7.393 -0.9526  0.7584 -0.0211
  584MOL0     H80551   3.402   3.595   7.468 -7.6014 -1.3186  2.4752
  584MOL0     H80552   3.356   3.559   7.628 -0.5776  0.1525 -0.2207
  584MOL0     H80553   3.427   3.435   7.521  1.2174 -0.9633 -0.0286
  584MOL0     H80554   3.463   3.343   8.093  1.9442  0.6811  1.0156
  584MOL0     H80555   3.318   3.357   8.291 -1.8383  0.6245  0.8732
  584MOL0     H80556   3.017   3.647   8.282  2.5470 -1.0515  0.9455
  584MOL0     H80557   2.901   3.511   8.227 -1.3678  0.8446 -0.1319
  584MOL0     H80558   2.988   3.626   8.501 -0.6424 -0.0156  0.0963
  584MOL0     H80559   2.836   3.646   8.413  0.5241  0.7787  0.3260
  584MOL0     H80560   2.944   3.385   8.505  1.0702  1.1547 -3.8858
  584MOL0     H80561   2.790   3.387   8.433 -3.8240 -1.3967  4.2918
  584MOL0     H80562   2.874   3.547   8.681  1.3014 -1.6588  1.1747
  584MOL0     H80563   2.782   3.391   8.694  0.8158 -0.7803 -1.9244
  584MOL0     H80564   2.690   3.660   8.599 -3.0845  0.4390  1.0620
  584MOL0     H80565   2.594   3.514   8.571  0.3073 -0.3494 -1.7810
  584MOL0     H80566   2.696   3.607   8.852  0.6759 -0.6354 -1.6896
  584MOL0     H80567   2.595   3.481   8.822  0.8500  0.6215  1.9900
  584MOL0     H80568   2.448   3.670   8.696 -0.7706  0.0373  0.2521
  584MOL0     H80569   2.545   3.780   8.808 -1.5771 -0.2396  2.0618
  584MOL0     H80570   2.463   3.644   8.990  1.0620  0.6127  0.0388
  584MOL0     H80571   2.368   3.538   8.875 -1.9279  0.8694 -1.1167
  584MOL0     H80572   3.027   3.566   8.048  0.3655  0.8769 -0.6997
  584MOL0     H80573   3.162   3.565   7.869  0.6124  0.8763  0.3699
  584MOL0     H80574   3.806   3.625   7.843  1.3585  0.0000 -0.4750
  584MOL0     H80575   3.952   3.652   7.665  0.7525 -2.2186 -1.5206
  584MOL0     H80576   3.929   3.834   8.958 -0.1612  0.0767 -0.4638
  584MOL0     H80577   3.760   3.900   9.134  0.5323 -2.0190 -1.6576
  584MOL0     H80578   3.499   4.220   9.223  0.5146 -1.6404 -2.5538
  584MOL0     H80579   3.381   4.403   9.336  1.2447  0.2729 -1.3196
  584MOL0     H80580   3.022   4.521   9.470  0.4539  1.9886 -3.1249
  584MOL0     H80581   2.925   4.424   9.352 -0.1350 -2.4671  0.5383
  584MOL0     H80582   3.132   4.314   9.542 -1.4094 -1.1330  1.7847
  584MOL0     H80583   3.046   4.207   9.442  1.1941 -0.2379  2.5000
  584MOL0     H80584   2.972   4.207   9.674 -1.2925  1.3209  3.6094
  584MOL0     H80585   2.921   4.371   9.661 -2.9183  0.3751 -1.7673
  584MOL0     H80586   2.742   4.311   9.508 -2.0860 -1.4264  0.0883
  584MOL0     H80587   2.733   4.222   9.656  2.0805 -0.8861  1.0326
  584MOL0     H80588   2.821   3.927   9.353  1.5920 -1.2170 -0.2131
  584MOL0     H80589   3.014   4.248   9.194 -0.1897  0.2480  4.0998
  584MOL0     H80590   3.001   4.075   9.053  1.2219  1.4644 -1.8866
  584MOL0     H80591   3.130   4.026   8.946 -1.1208  1.5449 -1.3817
  584MOL0     H80592   3.108   3.954   9.113 -2.4227 -0.0473 -1.1643
  585MOL0     O80593  10.086   9.990   2.058  0.4398 -0.3510  0.6566
  585MOL0     C80594  10.052   9.885   2.009 -0.3425  0.2761 -0.5132
  585MOL0     O80595  10.087   9.759   2.064  0.0323  0.4151 -0.2068
  585MOL0     C80596  10.167   9.743   2.174  0.1843  0.1180  0.8006
  585MOL0     C80597  10.278   9.834   2.201 -0.2365 -0.3462 -0.1045
  585MOL0     C80598  10.354   9.813   2.315 -1.3062  0.3575 -0.3819
  585MOL0     C80599  10.330   9.701   2.401 -0.2254  0.5062  0.1640
  585MOL0     O80600  10.411   9.687   2.520 -0.9741 -0.1135  0.2200
  585MOL0     C80601  10.488   9.790   2.584 -0.0703  0.8366 -0.6952
  585MOL0     C80602  10.541   9.738   2.719 -0.0715  0.5808  0.3487
  585MOL0     C80603  10.543   9.866   2.816 -0.6322  0.7227 -0.4007
  585MOL0     C80604  10.592   9.850   2.960 -0.2698  0.2818 -0.1617
  585MOL0     C80605  10.733   9.792   2.996  0.6174  1.0620 -0.1368
  585MOL0     C80606  10.758   9.808   3.149 -0.1602  0.0246  0.7298
  585MOL0     C80607  10.859   9.720   3.212  0.7224  0.7381 -1.1420
  585MOL0     C80608  11.002   9.740   3.153  0.0179 -1.4231 -0.3655
  585MOL0     N80609  11.034   9.880   3.152 -0.2159  0.9004  0.1185
  585MOL0     C80610  11.060   9.960   3.263 -0.7137  0.0750 -0.7091
  585MOL0     C80611  11.123  10.071   3.215  0.3540 -0.0143 -0.2161
  585MOL0     C80612  11.177  10.180   3.293 -0.2577 -0.7923  0.8173
  585MOL0     C80613  11.325  10.161   3.353  0.2169  0.9444 -0.4057
  585MOL0     C80614  11.363  10.283   3.439  0.4285  0.0723  0.3522
  585MOL0     C80615  11.459  10.393   3.369  0.4397 -0.6982 -0.2412
  585MOL0     O80616  11.552  10.342   3.273 -0.0442 -0.0160  0.1886
  585MOL0     C80617  11.619  10.431   3.195  0.5623 -0.0613  0.5815
  585MOL0     C80618  11.611  10.570   3.203  0.0281  0.2490 -0.5661
  585MOL0     C80619  11.691  10.650   3.116  1.6918 -0.6289 -0.0806
  585MOL0     C80620  11.683  10.801   3.145  0.4565  0.4201  0.0802
  585MOL0     C80621  11.764  10.589   3.006  0.9493 -0.6272 -0.1587
  585MOL0     C80622  11.827  10.666   2.889  0.1143  0.0311 -0.7997
  585MOL0     O80623  11.764  10.783   2.867 -0.5343 -0.1026 -0.2180
  585MOL0     C80624  11.797  10.886   2.777  0.8507  0.4725  0.2401
  585MOL0     C80625  11.907  10.885   2.689 -1.2555 -0.0362  0.4646
  585MOL0     C80626  11.954  11.002   2.624  0.0905 -0.3763 -0.0731
  585MOL0     C80627  11.888  11.126   2.635  0.0820  0.7749  0.3089
  585MOL0     O80628  11.937  11.232   2.573 -0.5350 -0.3608 -0.0677
  585MOL0     C80629  11.862  11.345   2.533  0.5974  0.0737  0.1035
  585MOL0     C80630  11.888  11.374   2.384  0.0766 -0.4067 -0.1429
  585MOL0     C80631  11.807  11.498   2.333  0.9587  0.0617 -0.7649
  585MOL0     C80632  11.658  11.482   2.376 -0.4627  0.5609 -0.2398
  585MOL0     C80633  11.603  11.616   2.337 -0.1110 -0.3433  0.5099
  585MOL0     C80634  11.474  11.647   2.418 -0.3110  0.2690 -0.2140
  585MOL0     C80635  11.403  11.771   2.369 -0.0798  0.0520  0.8336
  585MOL0     C80636  11.330  11.845   2.484  0.0284  0.6244  0.0651
  585MOL0    Cl80637  11.223  11.728   2.576 -0.2273 -0.0468  0.3876
  585MOL0     C80638  11.781  11.126   2.727  0.4124 -0.4805  0.3892
  585MOL0     C80639  11.737  11.012   2.801  0.5302 -0.0648  0.9328
  585MOL0     O80640  11.918  10.619   2.833  0.2983 -0.5195  0.1394
  585MOL0     C80641  11.770  10.448   3.006  0.0261 -0.0748  0.8844
  585MOL0     C80642  11.711  10.370   3.112 -0.3122 -0.1290  0.1222
  585MOL0     N80643  11.135  10.059   3.080  0.4970 -0.8046 -0.0107
  585MOL0     N80644  11.073   9.948   3.039  0.0327 -0.7637  1.0245
  585MOL0     C80645  10.235   9.608   2.360 -1.1526  0.1912 -0.3136
  585MOL0     C80646  10.148   9.627   2.252 -0.0494 -0.7993  0.0893
  585MOL0     C80647   9.991   9.889   1.874  0.1440 -0.0825 -0.2107
  585MOL0     C80648  10.027   9.788   1.782  0.0224 -0.5154  0.0866
  585MOL0     C80649   9.981   9.788   1.653  0.1695 -0.1555  1.0656
  585MOL0     C80650   9.881   9.873   1.615 -0.5076 -0.3066  0.4185
  585MOL0     O80651   9.817   9.865   1.494  0.0112  0.1280  0.3320
  585MOL0     C80652   9.675   9.862   1.497 -0.1765 -0.5338  1.0172
  585MOL0     C80653   9.625   9.755   1.587  0.1819  0.0885  0.4934
  585MOL0     C80654   9.473   9.744   1.568  0.3476 -0.5080  0.4371
  585MOL0     C80655   9.381   9.863   1.607 -0.5433  0.1245 -0.2089
  585MOL0     C80656   9.404   9.923   1.739 -0.3822  0.4247  0.9630
  585MOL0     C80657   9.411   9.967   1.851 -1.2287 -0.3869 -0.7895
  585MOL0     C80658   9.846   9.970   1.702  0.4999 -0.0980 -0.0623
  585MOL0     C80659   9.895   9.986   1.835  0.3330  0.1997  0.7693
  585MOL0     C80660   9.842  10.090   1.933  0.2404  0.0214 -0.2231
  585MOL0     H80661  10.306   9.924   2.147  1.6470 -0.3518  0.8038
  585MOL0     H80662  10.424   9.890   2.348 -0.5135  0.5680 -2.4189
  585MOL0     H80663  10.429   9.881   2.593  1.5093  1.8281 -0.1120
  585MOL0     H80664  10.569   9.813   2.514 -2.0076  2.0195 -2.6927
  585MOL0     H80665  10.477   9.656   2.751  0.3105  0.0881 -0.1261
  585MOL0     H80666  10.642   9.696   2.719 -1.7442 -4.1128  2.5712
  585MOL0     H80667  10.607   9.940   2.766  0.4931 -1.1133 -1.8032
  585MOL0     H80668  10.438   9.897   2.813 -1.4549 -1.8772 -3.0504
  585MOL0     H80669  10.609   9.951   2.998  0.4180 -0.0467  0.4117
  585MOL0     H80670  10.515   9.793   3.014  1.1819  0.1186  1.8496
  585MOL0     H80671  10.809   9.841   2.935 -1.2565  1.7808 -2.0144
  585MOL0     H80672  10.752   9.689   2.963  1.3642  0.8829  0.7993
  585MOL0     H80673  10.781   9.913   3.172 -0.2895 -0.3291  2.7007
  585MOL0     H80674  10.667   9.792   3.208 -0.5675 -1.7384 -0.3136
  585MOL0     H80675  10.828   9.620   3.180 -0.4417  1.7541 -3.4143
  585MOL0     H80676  10.857   9.711   3.321 -0.8525  0.4307 -1.1735
  585MOL0     H80677  11.089   9.690   3.196  0.8241  1.2245  1.3061
  585MOL0     H80678  10.987   9.713   3.048 -1.0084 -0.0152 -0.6233
  585MOL0     H80679  11.035   9.936   3.366  0.6099 -1.1550 -0.6438
  585MOL0     H80680  11.115  10.209   3.379  2.2856  2.3913  1.7925
  585MOL0     H80681  11.191  10.268   3.228  0.0326 -0.1732  1.6997
  585MOL0     H80682  11.319  10.068   3.409  1.4232 -0.1139 -1.9604
  585MOL0     H80683  11.404  10.145   3.279  1.3930 -1.0961  1.1768
  585MOL0     H80684  11.266  10.324   3.469 -0.1487  0.4874 -1.8430
  585MOL0     H80685  11.419  10.256   3.529 -0.7702 -3.8035  0.1056
  585MOL0     H80686  11.405  10.478   3.326 -6.1032 -2.6821  2.7637
  585MOL0     H80687  11.509  10.449   3.448 -1.8065  3.2600 -1.3422
  585MOL0     H80688  11.543  10.612   3.276 -0.6193  0.5447 -1.3202
  585MOL0     H80689  11.693  10.833   3.249  1.2436 -1.9293  0.7728
  585MOL0     H80690  11.595  10.846   3.097 -1.3329 -2.2277  0.6969
  585MOL0     H80691  11.765  10.857   3.099 -0.3589  0.5382 -1.2862
  585MOL0     H80692  11.951  10.789   2.662 -0.9982  0.4361 -0.8488
  585MOL0     H80693  12.042  10.995   2.562  0.0513 -3.4993  0.0691
  585MOL0     H80694  11.755  11.331   2.554  0.6322  0.8955  0.9338
  585MOL0     H80695  11.885  11.429   2.599 -0.9802  1.0080 -0.4719
  585MOL0     H80696  11.994  11.398   2.377 -0.4997  2.6156  0.0346
  585MOL0     H80697  11.873  11.293   2.312 -1.9503 -0.5681  0.3768
  585MOL0     H80698  11.808  11.496   2.224 -1.5624 -0.9943 -0.8444
  585MOL0     H80699  11.847  11.595   2.362 -0.9500  0.5074  0.5508
  585MOL0     H80700  11.661  11.485   2.486  2.5710  0.3438 -0.2338
  585MOL0     H80701  11.610  11.404   2.317 -0.5371  1.5947 -1.5987
  585MOL0     H80702  11.666  11.702   2.361 -0.1886  0.1471 -0.9226
  585MOL0     H80703  11.574  11.625   2.232 -0.7363  4.2643  0.8692
  585MOL0     H80704  11.502  11.657   2.524  1.0050 -2.2104 -0.2425
  585MOL0     H80705  11.406  11.561   2.418 -2.4187  1.8606 -0.3472
  585MOL0     H80706  11.327  11.727   2.303  0.6498  1.3283 -0.9466
  585MOL0     H80707  11.466  11.837   2.308 -0.0012  0.6859  1.5921
  585MOL0     H80708  11.259  11.918   2.445 -2.4569  0.2710  3.4972
  585MOL0     H80709  11.400  11.897   2.550 -3.0098  1.4470  2.9076
  585MOL0     H80710  11.736  11.220   2.756  2.0182 -0.2596  2.3287
  585MOL0     H80711  11.667  11.024   2.883 -0.9718  0.2492 -0.3516
  585MOL0     H80712  11.825  10.401   2.925  1.1259  1.2839  0.8058
  585MOL0     H80713  11.725  10.263   3.124 -3.1520 -0.4365  1.5076
  585MOL0     H80714  10.225   9.522   2.425 -0.4496  0.8575  0.7019
  585MOL0     H80715  10.069   9.560   2.220 -0.9123 -0.1415  0.7844
  585MOL0     H80716  10.109   9.723   1.808  2.4828  2.2805 -0.1336
  585MOL0     H80717  10.005   9.715   1.576 -2.4315  0.5036 -0.4812
  585MOL0     H80718   9.644   9.956   1.543  0.5734 -0.2261  0.9123
  585MOL0     H80719   9.644   9.852   1.393 -0.3706  1.0117  0.9114
  585MOL0     H80720   9.650   9.766   1.693  1.2690 -0.2354  0.2811
  585MOL0     H80721   9.664   9.658   1.555 -0.2380  0.0952 -0.0550
  585MOL0     H80722   9.444   9.715   1.466 -0.7289  1.8864 -0.0193
  585MOL0     H80723   9.442   9.659   1.630  1.6807 -0.8191  0.6943
  585MOL0     H80724   9.277   9.831   1.614 -1.7980  1.9095 -5.6832
  585MOL0     H80725   9.378   9.936   1.526  1.4920  0.9054  0.3634
  585MOL0     H80726   9.428   9.996   1.953 -0.8438 -2.4897 -0.1997
  585MOL0     H80727   9.765  10.038   1.674 -0.7446 -0.3586  2.6263
  585MOL0     H80728   9.804  10.052   2.028  1.8754  2.2545  1.4278
  585MOL0     H80729   9.917  10.167   1.953 -1.0265  2.7227 -4.5883
  585MOL0     H80730   9.762  10.148   1.888 -0.2547  0.6813  1.4575
  586MOL0     O80731  10.952   7.858   5.935  0.2442 -0.2536 -0.5098
  586MOL0     C80732  10.873   7.944   5.901  0.3348  0.0276  0.5781
  586MOL0     O80733  10.863   8.065   5.965 -0.1588  0.5083  0.0524
  586MOL0     C80734  10.966   8.118   6.043 -0.2444  0.4910  0.1915
  586MOL0     C80735  11.103   8.094   6.020 -0.5481  0.5306 -0.1833
  586MOL0     C80736  11.194   8.153   6.114  0.2594 -0.1624 -1.1153
  586MOL0     C80737  11.150   8.237   6.225 -0.0896 -0.2302 -1.1466
  586MOL0     O80738  11.225   8.293   6.323 -0.2596 -0.3134  0.6321
  586MOL0     C80739  11.316   8.204   6.388  0.5273  0.0564  0.9208
  586MOL0     C80740  11.356   8.259   6.519 -0.0055  0.4684  0.7875
  586MOL0     C80741  11.446   8.377   6.495 -0.7897  0.0575 -0.3156
  586MOL0     C80742  11.477   8.449   6.633 -0.1361  1.8204  0.8316
  586MOL0     C80743  11.550   8.578   6.619 -0.4138  0.2106 -0.6706
  586MOL0     C80744  11.530   8.652   6.745 -0.2010  0.2153  0.3147
  586MOL0     C80745  11.605   8.794   6.742  1.4847  0.4359  0.1772
  586MOL0     C80746  11.583   8.875   6.876  0.1082 -0.2079 -0.2954
  586MOL0     N80747  11.483   8.981   6.866  0.3578  0.0631  0.1184
  586MOL0     C80748  11.353   8.952   6.876 -0.7304 -0.1629  0.1841
  586MOL0     C80749  11.295   9.075   6.899  0.4827 -0.2141 -0.8148
  586MOL0     C80750  11.146   9.095   6.914 -1.2750  0.6967  0.4145
  586MOL0     C80751  11.084   9.182   7.018 -0.0805 -0.5650  0.0012
  586MOL0     C80752  11.150   9.162   7.155  0.4065  0.8049 -0.4808
  586MOL0     C80753  11.085   9.042   7.235 -0.0601 -0.2149 -0.0654
  586MOL0     O80754  10.940   9.048   7.255  0.1368 -0.1170 -0.2006
  586MOL0     C80755  10.879   8.925   7.281 -0.4790  0.0199  0.0145
  586MOL0     C80756  10.832   8.887   7.411  0.2308  0.3199  0.0803
  586MOL0     C80757  10.784   8.756   7.442 -0.8691  0.2478  1.1158
  586MOL0     C80758  10.728   8.744   7.585 -0.4190  0.4231 -0.6297
  586MOL0     C80759  10.800   8.653   7.348  0.6495 -0.2501  0.9808
  586MOL0     C80760  10.767   8.512   7.353  0.2639 -0.2558  0.1591
  586MOL0     O80761  10.816   8.443   7.469 -0.7225  0.2807  0.2623
  586MOL0     C80762  10.751   8.330   7.521 -0.2027  0.6181  0.1490
  586MOL0     C80763  10.608   8.301   7.504 -0.2766 -0.0714  0.2385
  586MOL0     C80764  10.546   8.190   7.554 -0.2060 -0.0118 -0.3843
  586MOL0     C80765  10.625   8.091   7.621 -0.6578  0.5081  0.6847
  586MOL0     O80766  10.571   7.973   7.672 -0.3387  0.7773 -0.4536
  586MOL0     C80767  10.655   7.848   7.675 -0.1165 -0.3713 -0.3256
  586MOL0     C80768  10.729   7.820   7.537  0.9090  1.1171  0.4182
  586MOL0     C80769  10.608   7.795   7.436  0.3077 -0.1742 -0.2556
  586MOL0     C80770  10.653   7.756   7.300  0.2874  0.9543  0.6524
  586MOL0     C80771  10.528   7.752   7.204 -0.6085 -0.3744 -0.1724
  586MOL0     C80772  10.482   7.888   7.157 -0.4767 -0.1521 -0.9286
  586MOL0     C80773  10.362   7.870   7.062 -0.4038  0.1140 -0.0514
  586MOL0     C80774  10.289   8.002   7.067  0.4284 -0.3463  0.3509
  586MOL0    Cl80775  10.409   8.117   7.011  0.2542  1.1469  0.1506
  586MOL0     C80776  10.759   8.123   7.652 -0.2957 -0.5681  1.3194
  586MOL0     C80777  10.819   8.250   7.613  0.2534  0.3711  0.8548
  586MOL0     O80778  10.690   8.463   7.269  0.7945 -0.0882  0.0246
  586MOL0     C80779  10.862   8.691   7.224  0.1402 -0.6661  0.1602
  586MOL0     C80780  10.894   8.822   7.187  0.0045  0.1471 -0.2761
  586MOL0     N80781  11.391   9.176   6.915  1.1496  0.4970 -0.0291
  586MOL0     N80782  11.497   9.121   6.879  0.3488  0.5743  1.0209
  586MOL0     C80783  11.011   8.244   6.243  0.4590  0.3289 -0.2347
  586MOL0     C80784  10.919   8.190   6.156  0.7255 -1.1071  0.6970
  586MOL0     C80785  10.784   7.908   5.785  0.7075 -0.9541  0.5360
  586MOL0     C80786  10.656   7.966   5.776 -0.9506 -0.8577 -0.3562
  586MOL0     C80787  10.568   7.943   5.674  0.0030  0.0163  0.4850
  586MOL0     C80788  10.597   7.845   5.578 -0.1004  0.0631  0.4053
  586MOL0     O80789  10.519   7.808   5.475  0.3752  0.0268  0.0516
  586MOL0     C80790  10.517   7.898   5.355 -0.3345  0.5534 -0.2580
  586MOL0     C80791  10.439   7.812   5.256 -0.5510  1.1030 -0.2885
  586MOL0     C80792  10.503   7.712   5.162  0.4061 -0.4872  0.2099
  586MOL0     C80793  10.602   7.621   5.216 -0.0856 -0.1673  0.6473
  586MOL0     C80794  10.553   7.528   5.318 -0.3878 -0.8250 -0.0678
  586MOL0     C80795  10.518   7.453   5.408  0.5770 -0.1112  0.7539
  586MOL0     C80796  10.723   7.782   5.583  0.1791  0.2510 -0.6113
  586MOL0     C80797  10.817   7.811   5.686  0.0752 -0.0736  1.4827
  586MOL0     C80798  10.955   7.737   5.672 -0.1461  0.9211 -0.2371
  586MOL0     H80799  11.124   8.025   5.940 -2.6872 -0.9775  0.4508
  586MOL0     H80800  11.302   8.151   6.108  0.3962 -1.1653  0.8379
  586MOL0     H80801  11.400   8.187   6.320  0.9207  0.3548  1.3206
  586MOL0     H80802  11.263   8.109   6.400 -2.9945  1.8106  0.6814
  586MOL0     H80803  11.271   8.292   6.579 -1.1492 -0.2041 -0.3998
  586MOL0     H80804  11.407   8.174   6.564  1.8559  0.6560 -0.8310
  586MOL0     H80805  11.537   8.337   6.448 -2.2960 -0.7495 -2.6880
  586MOL0     H80806  11.398   8.452   6.432 -0.8394 -0.8955 -1.4485
  586MOL0     H80807  11.384   8.463   6.689  0.6522 -1.5360  3.2834
  586MOL0     H80808  11.545   8.385   6.690 -0.1224 -1.0233 -2.0562
  586MOL0     H80809  11.512   8.633   6.533 -3.3033 -1.1377 -0.3769
  586MOL0     H80810  11.655   8.546   6.614  0.3063  2.2508  0.2309
  586MOL0     H80811  11.422   8.673   6.748 -0.0172  2.0766 -2.2786
  586MOL0     H80812  11.562   8.586   6.826 -0.6317 -3.7489 -2.4031
  586MOL0     H80813  11.574   8.849   6.652 -2.7575 -3.9982 -1.5240
  586MOL0     H80814  11.711   8.771   6.738  1.1378 -1.3122  0.5133
  586MOL0     H80815  11.570   8.809   6.962  1.9239 -0.2097  0.0157
  586MOL0     H80816  11.682   8.919   6.892  2.2500 -4.3523 -0.8849
  586MOL0     H80817  11.297   8.861   6.859 -2.1652  0.5421  0.9250
  586MOL0     H80818  11.104   8.994   6.914 -1.9660  0.8345  4.2013
  586MOL0     H80819  11.132   9.140   6.815 -1.8867 -2.0737 -0.8431
  586MOL0     H80820  11.089   9.290   6.999  0.6501 -0.4996  0.4971
  586MOL0     H80821  10.977   9.159   7.024  0.0993 -1.8197 -1.1012
  586MOL0     H80822  11.259   9.156   7.150  0.6326  1.1505  2.3329
  586MOL0     H80823  11.127   9.251   7.214  1.3256  1.5485 -1.2185
  586MOL0     H80824  11.106   8.953   7.174  2.0653  0.0502  0.2006
  586MOL0     H80825  11.148   9.023   7.323 -1.0629  0.5870  0.8538
  586MOL0     H80826  10.827   8.965   7.486 -2.5078  2.2915 -1.9270
  586MOL0     H80827  10.680   8.839   7.608  1.3076  0.9990  0.8848
  586MOL0     H80828  10.815   8.729   7.650  1.8031  2.6945 -2.7990
  586MOL0     H80829  10.660   8.659   7.587  1.1008 -0.8290  1.1960
  586MOL0     H80830  10.538   8.361   7.447 -2.7063 -3.1416 -0.2900
  586MOL0     H80831  10.443   8.166   7.531  1.0335 -5.0918 -1.7957
  586MOL0     H80832  10.724   7.837   7.759 -1.5096 -0.9140  0.8026
  586MOL0     H80833  10.588   7.769   7.712  0.3598 -0.6515 -0.0608
  586MOL0     H80834  10.780   7.910   7.501  1.8784  0.5670  0.3655
  586MOL0     H80835  10.796   7.735   7.552 -2.1959 -1.9258 -1.5863
  586MOL0     H80836  10.564   7.895   7.431  0.6363  0.0621  1.1517
  586MOL0     H80837  10.533   7.722   7.469 -1.6257  1.2043 -1.4206
  586MOL0     H80838  10.691   7.654   7.309 -2.5827 -0.1762  1.0779
  586MOL0     H80839  10.719   7.833   7.259  1.3950 -2.4200 -5.0763
  586MOL0     H80840  10.552   7.683   7.122 -3.9715 -2.6759  0.5984
  586MOL0     H80841  10.439   7.698   7.238 -0.4511 -1.8035 -1.8357
  586MOL0     H80842  10.565   7.937   7.105 -0.2937  1.6122  0.9164
  586MOL0     H80843  10.463   7.945   7.248  1.6632  1.1470 -1.2374
  586MOL0     H80844  10.302   7.788   7.103 -0.3839 -0.1702 -0.5838
  586MOL0     H80845  10.384   7.841   6.959 -2.3387 -0.1064 -0.4368
  586MOL0     H80846  10.264   8.028   7.170  3.2755 -0.1695  1.0781
  586MOL0     H80847  10.201   8.003   7.002  0.6066 -0.9365  0.0955
  586MOL0     H80848  10.827   8.051   7.696  0.1090  0.0881  1.8031
  586MOL0     H80849  10.919   8.277   7.646  0.2185 -0.0345  1.2944
  586MOL0     H80850  10.881   8.626   7.139  2.2426 -0.3551  0.3367
  586MOL0     H80851  10.946   8.850   7.096  1.5793 -1.5555  0.0251
  586MOL0     H80852  10.971   8.312   6.317 -1.0404 -0.0515 -0.6795
  586MOL0     H80853  10.811   8.201   6.165  0.8575  1.2836 -0.0164
  586MOL0     H80854  10.625   8.030   5.859  1.9988 -1.5697  1.4410
  586MOL0     H80855  10.475   7.997   5.689  0.6901  0.8041  2.2694
  586MOL0     H80856  10.467   7.992   5.380  1.2393  1.3525 -0.0470
  586MOL0     H80857  10.614   7.919   5.309  0.2968 -2.7092 -0.6927
  586MOL0     H80858  10.387   7.883   5.192  1.0842  3.2892  0.6526
  586MOL0     H80859  10.366   7.761   5.320  0.2711 -0.4369 -0.5237
  586MOL0     H80860  10.421   7.664   5.108 -1.6499  1.2061  1.6419
  586MOL0     H80861  10.547   7.779   5.086 -3.6211  0.7324 -1.3047
  586MOL0     H80862  10.681   7.679   5.264 -0.1405 -0.3836  1.0006
  586MOL0     H80863  10.631   7.562   5.129  1.3047 -0.5832  1.3790
  586MOL0     H80864  10.484   7.390   5.488 -1.0497 -0.0683  0.1274
  586MOL0     H80865  10.735   7.705   5.509  0.0619  0.4958 -0.8872
  586MOL0     H80866  10.973   7.705   5.569  1.8277 -0.0226  0.3520
  586MOL0     H80867  11.039   7.803   5.698 -0.8608  3.2156 -3.1301
  586MOL0     H80868  10.941   7.642   5.724 -0.9277  1.9756  1.5718
  587MOL0     O80869   9.989   0.220   5.217  0.0470 -0.3088 -0.3287
  587MOL0     C80870  10.071   0.168   5.290  0.1171 -0.2577 -0.4411
  587MOL0     O80871  10.095   0.039   5.294 -0.3909 -0.6589 -0.6736
  587MOL0     C80872  10.021  -0.035   5.197  0.3632 -0.0117 -0.9553
  587MOL0     C80873  10.087  -0.061   5.073  0.0735  0.0143 -0.0027
  587MOL0     C80874  10.018  -0.125   4.968 -0.2781 -0.2393  0.5511
  587MOL0     C80875   9.880  -0.164   4.988  0.6747  0.9569  0.0371
  587MOL0     O80876   9.819  -0.216   4.876  1.5827 -0.2049 -0.7753
  587MOL0     C80877   9.680  -0.212   4.858  0.5303  0.3310 -0.6528
  587MOL0     C80878   9.616  -0.346   4.886 -0.4090 -0.4038  0.5630
  587MOL0     C80879   9.464  -0.345   4.886  1.3774 -0.7618 -0.2898
  587MOL0     C80880   9.401  -0.484   4.916  0.0920  0.2364 -0.3291
  587MOL0     C80881   9.279  -0.500   4.835  0.0477 -0.2574 -0.6387
  587MOL0     C80882   9.174  -0.603   4.892 -0.2453 -0.1766  0.7360
  587MOL0     C80883   9.196  -0.747   4.837 -0.4643  1.4906  0.5689
  587MOL0     C80884   9.115  -0.857   4.912  0.1321 -0.2704 -0.5878
  587MOL0     N80885   8.991  -0.903   4.845  0.1404  0.7825 -0.1230
  587MOL0     C80886   8.887  -0.816   4.796 -0.1154  0.9682 -0.7358
  587MOL0     C80887   8.787  -0.902   4.754 -0.4388 -0.4975  0.1399
  587MOL0     C80888   8.656  -0.863   4.687  0.6715  0.6203 -0.2609
  587MOL0     C80889   8.540  -0.814   4.774 -0.8403 -0.0425 -0.4470
  587MOL0     C80890   8.407  -0.777   4.702  0.2453 -0.7133  0.0635
  587MOL0     C80891   8.308  -0.887   4.685 -0.4798 -0.9304  0.4161
  587MOL0     O80892   8.262  -0.913   4.810  0.0725 -0.2712  0.5886
  587MOL0     C80893   8.182  -1.027   4.818 -0.2502 -0.5458  0.1109
  587MOL0     C80894   8.137  -1.110   4.715  0.1215 -0.4942 -0.5444
  587MOL0     C80895   8.040  -1.215   4.736  0.2841  0.2507  0.2062
  587MOL0     C80896   7.982  -1.281   4.612  0.5283  0.3616  0.1919
  587MOL0     C80897   8.001  -1.260   4.862 -0.1373  0.1365 -0.3824
  587MOL0     C80898   7.911  -1.375   4.899  0.0988 -0.7059  0.6962
  587MOL0     O80899   7.830  -1.437   4.798 -0.2822 -0.6984  0.2842
  587MOL0     C80900   7.816  -1.573   4.816 -0.0354 -0.6819 -0.4896
  587MOL0     C80901   7.857  -1.643   4.701 -0.7683  0.2761 -0.0433
  587MOL0     C80902   7.857  -1.795   4.703 -1.0869 -0.2579  0.1526
  587MOL0     C80903   7.808  -1.863   4.819  0.2968 -1.0576 -0.6203
  587MOL0     O80904   7.810  -1.991   4.855 -0.6633  0.6908  0.2941
  587MOL0     C80905   7.860  -2.085   4.754  0.0407 -0.9212 -0.6172
  587MOL0     C80906   7.879  -2.205   4.834 -0.5730 -0.7720 -0.5965
  587MOL0     C80907   7.766  -2.271   4.914 -0.2437 -0.2878  0.2936
  587MOL0     C80908   7.809  -2.400   4.994  0.2735  0.3425  0.4228
  587MOL0     C80909   7.704  -2.456   5.088  0.3309  0.6769  0.7180
  587MOL0     C80910   7.764  -2.578   5.165  0.4942 -0.2653 -0.3515
  587MOL0     C80911   7.806  -2.554   5.305 -0.2109  0.4773  0.1168
  587MOL0     C80912   7.849  -2.688   5.370  0.7137 -0.6852  0.0300
  587MOL0    Cl80913   7.851  -2.646   5.541  0.0814 -0.1551 -0.9214
  587MOL0     C80914   7.750  -1.787   4.916  0.0205  0.4542 -0.0918
  587MOL0     C80915   7.758  -1.645   4.921 -0.2111 -0.6063 -0.0111
  587MOL0     O80916   7.916  -1.409   5.015  0.1298 -0.0600  0.2623
  587MOL0     C80917   8.068  -1.190   4.964  0.3253  0.0062  0.1654
  587MOL0     C80918   8.158  -1.082   4.941 -0.2694  0.7290  0.2739
  587MOL0     N80919   8.831  -1.033   4.765  1.4266  0.0833  0.1382
  587MOL0     N80920   8.944  -1.033   4.828  1.4539  0.3385  0.7274
  587MOL0     C80921   9.824  -0.158   5.117  0.4833  0.0247 -0.9526
  587MOL0     C80922   9.887  -0.080   5.219 -0.0551 -1.0167  0.0641
  587MOL0     C80923  10.135   0.248   5.385 -0.0700 -1.5607  0.6009
  587MOL0     C80924  10.219   0.352   5.332 -0.3689  1.0570 -0.0532
  587MOL0     C80925  10.315   0.415   5.422 -0.1699 -0.7462 -0.8497
  587MOL0     C80926  10.296   0.403   5.560  0.6530  0.0336 -0.3602
  587MOL0     O80927  10.371   0.461   5.656  0.0501  0.1904 -0.1208
  587MOL0     C80928  10.483   0.547   5.615 -0.3798  0.8168 -0.0357
  587MOL0     C80929  10.543   0.624   5.733 -0.2232 -0.1935 -0.1763
  587MOL0     C80930  10.447   0.725   5.793 -0.7102 -0.4506 -0.5457
  587MOL0     C80931  10.524   0.805   5.906  0.4248 -0.8845  0.2972
  587MOL0     C80932  10.603   0.913   5.842  0.2075 -0.5888 -0.6827
  587MOL0     C80933  10.650   1.022   5.802  1.6806  0.1800 -0.4254
  587MOL0     C80934  10.211   0.304   5.605 -0.4738 -0.1784  0.7190
  587MOL0     C80935  10.133   0.220   5.520  0.9292 -0.3450  0.2935
  587MOL0     C80936  10.053   0.115   5.593  0.3184  0.3592  0.6969
  587MOL0     H80937  10.190  -0.030   5.055  0.3458 -0.7472  0.1871
  587MOL0     H80938  10.070  -0.139   4.874  0.4070  4.3915  0.0188
  587MOL0     H80939   9.656  -0.191   4.754 -0.3104 -2.7112 -1.1682
  587MOL0     H80940   9.636  -0.135   4.922  1.2585  0.5953 -0.4509
  587MOL0     H80941   9.659  -0.414   4.812  1.2909 -0.0217  1.1660
  587MOL0     H80942   9.648  -0.385   4.983  0.2245 -0.9861  0.1303
  587MOL0     H80943   9.424  -0.287   4.969 -1.1618 -2.2968 -0.3617
  587MOL0     H80944   9.411  -0.303   4.799  1.9668  0.8111  0.0704
  587MOL0     H80945   9.476  -0.563   4.903  0.0474  0.2930 -0.9818
  587MOL0     H80946   9.374  -0.486   5.022  2.6418  0.4456  0.4082
  587MOL0     H80947   9.318  -0.519   4.735  1.7262  2.4341 -0.5808
  587MOL0     H80948   9.228  -0.404   4.833 -0.9536 -0.7731 -0.6818
  587MOL0     H80949   9.184  -0.616   5.000  1.7036 -0.9461  0.5065
  587MOL0     H80950   9.074  -0.566   4.867  0.2561  0.5499 -0.2543
  587MOL0     H80951   9.301  -0.775   4.836 -1.1654 -1.4492 -0.1112
  587MOL0     H80952   9.162  -0.761   4.734 -0.3127  0.5318  0.6364
  587MOL0     H80953   9.181  -0.943   4.927  1.7222  1.4428  3.4865
  587MOL0     H80954   9.072  -0.814   5.003 -2.0771  0.3064 -1.8256
  587MOL0     H80955   8.888  -0.709   4.783  0.8752  0.6163 -5.0485
  587MOL0     H80956   8.635  -0.958   4.639  1.8437 -0.3483  1.0472
  587MOL0     H80957   8.680  -0.791   4.609  1.5123  0.8588  0.2054
  587MOL0     H80958   8.526  -0.885   4.855  2.6105  0.1729  0.4867
  587MOL0     H80959   8.578  -0.724   4.823  1.8016  0.0479 -2.4229
  587MOL0     H80960   8.351  -0.700   4.755 -0.5215  0.3913 -2.2097
  587MOL0     H80961   8.430  -0.732   4.605 -0.3200  0.3111  0.3876
  587MOL0     H80962   8.216  -0.848   4.641 -0.3796  0.2189  1.1875
  587MOL0     H80963   8.354  -0.969   4.629  3.4131 -0.2611  2.3013
  587MOL0     H80964   8.164  -1.084   4.613 -1.9642  1.8061 -0.6340
  587MOL0     H80965   7.873  -1.274   4.618  0.5484 -0.0482  1.3721
  587MOL0     H80966   7.995  -1.389   4.600  1.7742  0.6527 -1.2675
  587MOL0     H80967   8.032  -1.239   4.525  2.6386 -2.5135 -0.1159
  587MOL0     H80968   7.896  -1.589   4.615 -3.4951  1.4203 -0.6565
  587MOL0     H80969   7.915  -1.856   4.634 -0.1074 -0.0899  0.8016
  587MOL0     H80970   7.790  -2.104   4.671  0.1506  1.4358 -1.3399
  587MOL0     H80971   7.956  -2.045   4.719 -0.7872  0.4295 -1.4642
  587MOL0     H80972   7.919  -2.283   4.769  1.0618  1.4533 -2.4157
  587MOL0     H80973   7.958  -2.190   4.909 -1.0799 -0.0394 -0.1965
  587MOL0     H80974   7.706  -2.321   4.838  2.1440 -3.1800  0.1210
  587MOL0     H80975   7.710  -2.202   4.978  0.4788  0.7242 -0.1382
  587MOL0     H80976   7.902  -2.383   5.049  0.5312 -2.1739  0.9222
  587MOL0     H80977   7.848  -2.473   4.923  1.0792 -0.4299  1.6184
  587MOL0     H80978   7.664  -2.375   5.150  0.8275  2.0325 -0.6665
  587MOL0     H80979   7.619  -2.505   5.039  1.5504 -0.8765  0.0880
  587MOL0     H80980   7.845  -2.621   5.105  2.0217  0.3702  1.1756
  587MOL0     H80981   7.687  -2.656   5.168  0.4318 -0.4035 -3.0475
  587MOL0     H80982   7.714  -2.517   5.352 -2.3295  0.3734 -3.5360
  587MOL0     H80983   7.880  -2.474   5.298 -3.4641  3.6581 -1.5908
  587MOL0     H80984   7.948  -2.718   5.334  0.2944 -2.4044  0.2062
  587MOL0     H80985   7.779  -2.768   5.346  0.2898  0.0384 -1.2298
  587MOL0     H80986   7.699  -1.847   4.990  0.9317  3.2230  3.0308
  587MOL0     H80987   7.729  -1.598   5.014  0.1269 -1.6115  0.6252
  587MOL0     H80988   8.046  -1.209   5.068  1.1039 -1.1099  0.1452
  587MOL0     H80989   8.190  -1.029   5.030  2.7663 -0.8230  0.2445
  587MOL0     H80990   9.725  -0.197   5.134 -0.7223  2.6588 -1.4444
  587MOL0     H80991   9.836  -0.056   5.311  2.4808  0.3091  1.2396
  587MOL0     H80992  10.208   0.366   5.225  0.2044  0.1454 -0.2455
  587MOL0     H80993  10.386   0.485   5.379 -0.5191 -0.1007 -0.3887
  587MOL0     H80994  10.561   0.482   5.575  0.2721  0.1601  2.1460
  587MOL0     H80995  10.462   0.621   5.538  1.8840 -0.3155 -1.8652
  587MOL0     H80996  10.635   0.670   5.694 -1.4600 -0.5950 -3.9508
  587MOL0     H80997  10.569   0.569   5.824  2.3608  3.3186  1.4677
  587MOL0     H80998  10.392   0.773   5.711 -2.9102 -2.3341 -0.2854
  587MOL0     H80999  10.372   0.665   5.846  0.6959  0.4448  2.6570
  587MOL0     H81000  10.593   0.740   5.962  3.1910 -1.1160 -3.0440
  587MOL0     H81001  10.455   0.857   5.973  1.2990  2.6223 -1.3070
  587MOL0     H81002  10.680   1.117   5.764 -0.7555  0.7161 -1.1968
  587MOL0     H81003  10.199   0.304   5.713 -3.1209 -0.9106  0.5067
  587MOL0     H81004  10.046   0.155   5.695 -1.3071  2.0532 -0.0122
  587MOL0     H81005   9.953   0.116   5.548  0.0853  0.1517  1.2023
  587MOL0     H81006  10.110   0.022   5.596  2.2719  1.5031  0.4358
  588MOL0     O81007  11.410   0.945   2.633  0.1358  0.4598  0.3455
  588MOL0     C81008  11.500   0.989   2.564  0.5884 -0.2595 -0.0637
  588MOL0     O81009  11.525   0.954   2.438  0.1448 -0.0798 -0.6923
  588MOL0     C81010  11.471   0.840   2.384 -0.2260 -0.6290  0.1513
  588MOL0     C81011  11.439   0.831   2.248  0.7056 -0.2913 -0.3557
  588MOL0     C81012  11.369   0.718   2.186 -0.9555 -0.3104 -0.0666
  588MOL0     C81013  11.358   0.605   2.265  0.9232  0.1030  0.0670
  588MOL0     O81014  11.288   0.488   2.226  0.2177  0.2783 -0.0730
  588MOL0     C81015  11.218   0.492   2.098  0.4250 -0.1982  0.2117
  588MOL0     C81016  11.169   0.348   2.074  0.3540  0.5274 -1.6114
  588MOL0     C81017  11.054   0.345   1.965  0.0526  0.0234  0.2596
  588MOL0     C81018  11.084   0.233   1.859  0.0378 -0.4649  0.5494
  588MOL0     C81019  10.975   0.229   1.751 -1.1426 -0.9442 -1.1695
  588MOL0     C81020  11.016   0.313   1.626 -0.5183 -0.4290 -0.6007
  588MOL0     C81021  10.899   0.313   1.524  0.6408  0.0590 -0.2140
  588MOL0     C81022  10.785   0.414   1.549 -0.4033  0.0250 -0.5548
  588MOL0     N81023  10.707   0.458   1.436  0.8698 -0.0901 -0.7504
  588MOL0     C81024  10.645   0.373   1.351 -0.0725 -0.5719  0.5608
  588MOL0     C81025  10.615   0.459   1.249 -0.4617  0.2011  0.1897
  588MOL0     C81026  10.554   0.421   1.113  0.0552 -0.4802 -0.2404
  588MOL0     C81027  10.407   0.375   1.137 -0.2348  0.3831  0.7168
  588MOL0     C81028  10.345   0.352   0.996  1.2015  0.2403  0.5541
  588MOL0     C81029  10.223   0.257   1.005  0.6226 -0.2186  1.0532
  588MOL0     O81030  10.121   0.296   1.094  0.4599  0.2847  0.0338
  588MOL0     C81031  10.002   0.356   1.040  0.3393  0.3066  0.4206
  588MOL0     C81032   9.871   0.306   1.061  0.6424  0.2001 -0.6981
  588MOL0     C81033   9.763   0.352   0.981 -1.5443 -0.3868 -0.4820
  588MOL0     C81034   9.636   0.300   1.018 -1.1932  0.6322 -0.7439
  588MOL0     C81035   9.790   0.455   0.887 -0.0259 -0.0458 -0.5170
  588MOL0     C81036   9.680   0.507   0.811  0.8444 -0.0372 -0.4237
  588MOL0     O81037   9.713   0.559   0.689  0.4399  0.4119 -0.3324
  588MOL0     C81038   9.616   0.631   0.623  0.4324 -0.5538 -0.9871
  588MOL0     C81039   9.518   0.576   0.546 -0.1482  0.4716 -0.5257
  588MOL0     C81040   9.420   0.657   0.491  0.0328 -0.7017  0.3102
  588MOL0     C81041   9.424   0.800   0.505  0.0688  0.5823 -0.0770
  588MOL0     O81042   9.315   0.871   0.461  0.4934 -1.0760 -0.4882
  588MOL0     C81043   9.265   0.976   0.552 -0.6087  0.2915  0.8286
  588MOL0     C81044   9.215   0.906   0.673  1.2477  0.1301 -1.1604
  588MOL0     C81045   9.168   1.022   0.770 -0.6270 -0.3157 -0.1221
  588MOL0     C81046   9.108   0.975   0.904 -0.3279  0.4060  0.0833
  588MOL0     C81047   9.092   1.075   1.015  0.7547 -0.4978 -0.5685
  588MOL0     C81048   9.221   1.128   1.076  0.1120 -0.3654  0.7223
  588MOL0     C81049   9.225   1.281   1.067  0.3664 -0.2601  1.0828
  588MOL0     C81050   9.344   1.343   1.144  0.1308 -0.2745 -1.2277
  588MOL0    Cl81051   9.501   1.249   1.162 -0.4595  0.5750 -0.1290
  588MOL0     C81052   9.526   0.854   0.574 -0.5395 -0.3410 -0.5194
  588MOL0     C81053   9.626   0.775   0.628 -0.9478 -0.3882  0.1146
  588MOL0     O81054   9.558   0.511   0.844 -0.5377  0.1379 -0.1522
  588MOL0     C81055   9.915   0.505   0.867  0.5890 -0.5133  0.1117
  588MOL0     C81056  10.019   0.460   0.945  0.1397  0.3514  0.4517
  588MOL0     N81057  10.636   0.591   1.281  0.3791  0.5261 -0.1396
  588MOL0     N81058  10.693   0.591   1.395 -0.6092  0.0957  0.8854
  588MOL0     C81059  11.404   0.610   2.397  0.5152 -0.2822 -0.6676
  588MOL0     C81060  11.455   0.724   2.449 -0.5504 -0.6389 -1.2493
  588MOL0     C81061  11.572   1.119   2.614  0.3770  0.1341 -0.2156
  588MOL0     C81062  11.566   1.236   2.532 -0.1835 -0.3633  0.7287
  588MOL0     C81063  11.614   1.365   2.575  0.4726  0.4217  0.0314
  588MOL0     C81064  11.668   1.387   2.699  0.3424  0.6127 -0.4450
  588MOL0     O81065  11.719   1.509   2.724 -0.4654 -0.2684 -0.2619
  588MOL0     C81066  11.836   1.549   2.661 -0.6767 -0.5591 -0.0619
  588MOL0     C81067  11.909   1.666   2.732  0.3012 -0.0283  0.0305
  588MOL0     C81068  12.056   1.705   2.699 -0.5609 -0.4843  0.9554
  588MOL0     C81069  12.135   1.600   2.618  0.8539  0.1386 -0.7128
  588MOL0     C81070  12.268   1.638   2.570  0.0852 -0.2506  0.4899
  588MOL0     C81071  12.369   1.690   2.533  0.7737  0.1698 -0.4527
  588MOL0     C81072  11.671   1.273   2.782  0.1029  0.1446  0.0816
  588MOL0     C81073  11.635   1.145   2.738 -0.4491  0.0234 -1.8022
  588MOL0     C81074  11.658   1.024   2.841  0.1802  0.1170  0.1888
  588MOL0     H81075  11.446   0.926   2.197 -0.4115  0.1606  0.3000
  588MOL0     H81076  11.336   0.725   2.083 -0.5162  1.7586 -0.0986
  588MOL0     H81077  11.282   0.530   2.018 -0.8654  2.2103  0.2006
  588MOL0     H81078  11.132   0.560   2.104 -0.5124 -1.4058  0.8574
  588MOL0     H81079  11.255   0.297   2.030 -1.6016  0.4926 -5.9828
  588MOL0     H81080  11.129   0.300   2.164 -2.1541  3.5352 -0.9385
  588MOL0     H81081  10.961   0.335   2.022  0.2922  3.6775  1.5467
  588MOL0     H81082  11.041   0.443   1.917 -1.6625  0.1939  1.0015
  588MOL0     H81083  11.184   0.240   1.815 -0.4394  2.6956 -0.3070
  588MOL0     H81084  11.078   0.141   1.918  2.6066 -0.6884  0.5753
  588MOL0     H81085  10.881   0.262   1.796 -0.7069 -0.7473 -0.3944
  588MOL0     H81086  10.970   0.122   1.728  0.2649 -0.8706 -1.9317
  588MOL0     H81087  11.036   0.418   1.646  2.3797 -0.8280 -0.9895
  588MOL0     H81088  11.102   0.264   1.579  1.6269  1.4125  1.1884
  588MOL0     H81089  10.861   0.212   1.508  0.2293  0.4797 -2.0444
  588MOL0     H81090  10.938   0.346   1.427  1.9622  1.6202  0.7919
  588MOL0     H81091  10.720   0.374   1.627 -0.7881 -3.0596 -2.2785
  588MOL0     H81092  10.824   0.506   1.592 -1.9747  0.7712 -0.6609
  588MOL0     H81093  10.637   0.265   1.347  1.3515 -0.7081  0.8002
  588MOL0     H81094  10.621   0.349   1.065 -0.4071 -0.7605 -0.4710
  588MOL0     H81095  10.547   0.515   1.057  0.4293  0.5575  1.3852
  588MOL0     H81096  10.399   0.285   1.199 -1.0825  1.7148  2.6558
  588MOL0     H81097  10.356   0.454   1.193  1.6600  1.2922  1.2361
  588MOL0     H81098  10.311   0.435   0.934 -0.5981 -2.2581 -2.0735
  588MOL0     H81099  10.418   0.301   0.932  0.6798  0.7377 -0.4653
  588MOL0     H81100  10.179   0.229   0.910 -1.4083  0.5823  1.7093
  588MOL0     H81101  10.262   0.164   1.048  0.7581 -1.5393 -1.7528
  588MOL0     H81102   9.861   0.214   1.118  1.7356 -0.4822 -1.5583
  588MOL0     H81103   9.574   0.359   1.086  0.3267  1.6992 -0.2331
  588MOL0     H81104   9.652   0.203   1.065  0.9186  1.8013  1.1722
  588MOL0     H81105   9.568   0.281   0.934 -3.1110  1.7865  0.4712
  588MOL0     H81106   9.509   0.468   0.548 -0.4990  0.5093  0.1527
  588MOL0     H81107   9.332   0.610   0.449 -1.4598  0.4079  2.0604
  588MOL0     H81108   9.339   1.047   0.590  2.5490 -2.3361  0.0968
  588MOL0     H81109   9.193   1.036   0.495 -0.1430 -0.2055 -0.3332
  588MOL0     H81110   9.126   0.853   0.638  1.4225 -0.2382 -1.0579
  588MOL0     H81111   9.293   0.848   0.725 -0.9517 -0.5253  1.6962
  588MOL0     H81112   9.086   1.083   0.732 -0.3824 -1.6585 -3.0737
  588MOL0     H81113   9.250   1.090   0.797 -2.2371  1.2157  1.1585
  588MOL0     H81114   9.180   0.903   0.945 -0.5009  0.9590  1.3786
  588MOL0     H81115   9.020   0.913   0.882  2.0689 -3.3003 -0.0538
  588MOL0     H81116   9.035   1.160   0.978 -0.1042  0.7097  3.1738
  588MOL0     H81117   9.018   1.037   1.085 -0.5556  0.9479 -1.1176
  588MOL0     H81118   9.307   1.080   1.029  1.3665 -0.5730  3.0932
  588MOL0     H81119   9.228   1.098   1.181 -0.1314 -0.0718  0.8236
  588MOL0     H81120   9.127   1.319   1.098 -0.0754 -1.3975  1.1318
  588MOL0     H81121   9.239   1.305   0.961 -2.3911 -0.1672  0.6690
  588MOL0     H81122   9.296   1.372   1.238  0.4742  2.5066 -1.8423
  588MOL0     H81123   9.375   1.436   1.097  0.2398  1.2097  1.5422
  588MOL0     H81124   9.543   0.961   0.574  1.0705 -0.5436 -2.8230
  588MOL0     H81125   9.714   0.819   0.675 -0.2744 -1.9036  0.3491
  588MOL0     H81126   9.935   0.581   0.792  1.0551 -0.3502  0.4018
  588MOL0     H81127  10.113   0.514   0.942  0.8503 -0.6126  3.0458
  588MOL0     H81128  11.394   0.523   2.460 -2.6565  1.2178  1.1079
  588MOL0     H81129  11.475   0.719   2.556  0.1404 -0.7854 -1.3809
  588MOL0     H81130  11.518   1.215   2.437  0.1360 -1.7898  0.8518
  588MOL0     H81131  11.609   1.450   2.508  0.0006  0.5808  0.2623
  588MOL0     H81132  11.902   1.463   2.659 -1.8240 -1.4844 -3.2218
  588MOL0     H81133  11.819   1.588   2.560  0.1133  1.3472  0.4913
  588MOL0     H81134  11.911   1.631   2.835  0.8196 -1.6660 -0.5091
  588MOL0     H81135  11.845   1.755   2.743 -1.2840 -1.2235  0.9660
  588MOL0     H81136  12.043   1.805   2.655  1.7072 -0.5209  0.1070
  588MOL0     H81137  12.114   1.730   2.788  3.9918  4.5014 -2.7500
  588MOL0     H81138  12.069   1.564   2.539 -1.3780  0.5133  0.8896
  588MOL0     H81139  12.146   1.511   2.680 -0.4373 -0.2372 -0.9916
  588MOL0     H81140  12.459   1.735   2.495  1.3679 -0.0558  0.6534
  588MOL0     H81141  11.696   1.284   2.887  0.5136 -0.1528  0.0146
  588MOL0     H81142  11.685   1.069   2.937 -0.5992  1.5026 -0.2180
  588MOL0     H81143  11.565   0.970   2.860 -1.4593  3.2083  1.7739
  588MOL0     H81144  11.733   0.952   2.807 -0.0949  0.2511 -0.7280
  589MOL0     O81145   8.973   6.517   3.064 -0.4517 -0.5105  0.4402
  589MOL0     C81146   8.936   6.409   3.108 -0.6527 -0.1420  0.4593
  589MOL0     O81147   9.020   6.315   3.154  0.7079  0.0554 -0.0160
  589MOL0     C81148   9.160   6.326   3.142 -0.6411  0.2568 -0.1817
  589MOL0     C81149   9.233   6.201   3.171  0.4462 -0.9871  0.6425
  589MOL0     C81150   9.367   6.179   3.141  0.8040  0.1908 -0.3245
  589MOL0     C81151   9.443   6.283   3.102 -0.1539  0.4565 -0.4029
  589MOL0     O81152   9.581   6.250   3.092 -0.9437  0.6186 -0.3319
  589MOL0     C81153   9.684   6.341   3.041  0.8053  0.3475  0.5435
  589MOL0     C81154   9.815   6.276   3.005 -0.6366 -0.2784 -0.1231
  589MOL0     C81155   9.903   6.384   2.938 -0.2629 -0.2931 -0.0589
  589MOL0     C81156  10.009   6.321   2.863  0.0276  0.9729  0.0128
  589MOL0     C81157  10.119   6.283   2.967 -0.1836 -0.6363  0.1039
  589MOL0     C81158  10.230   6.205   2.899 -0.4173 -0.6657  1.4655
  589MOL0     C81159  10.314   6.119   2.994  0.6285 -0.5565 -0.4287
  589MOL0     C81160  10.238   5.995   3.019  0.0784  1.0255 -0.2707
  589MOL0     N81161  10.196   5.916   2.899 -0.3873 -0.2085  0.1592
  589MOL0     C81162  10.275   5.891   2.790  0.0573 -0.1320 -0.2187
  589MOL0     C81163  10.193   5.842   2.692 -0.3099 -0.1194  0.9348
  589MOL0     C81164  10.251   5.803   2.555 -0.2525 -0.8166 -0.1054
  589MOL0     C81165  10.246   5.651   2.509  0.1190  0.3974 -0.8010
  589MOL0     C81166  10.289   5.552   2.624  0.3662 -0.6816 -0.1599
  589MOL0     C81167  10.174   5.532   2.721  0.2724  0.4620  0.3844
  589MOL0     O81168  10.137   5.396   2.735 -0.1401  0.1533  0.1773
  589MOL0     C81169  10.024   5.362   2.805  0.0486 -0.1221 -1.5634
  589MOL0     C81170   9.937   5.450   2.874  1.1266  0.3838 -0.2551
  589MOL0     C81171   9.818   5.398   2.931 -0.0527 -0.0556 -0.0648
  589MOL0     C81172   9.735   5.504   3.000 -0.9854  0.4620  0.2672
  589MOL0     C81173   9.776   5.267   2.915 -0.0289 -0.5960 -0.0080
  589MOL0     C81174   9.657   5.222   2.973 -0.3043 -0.1345  0.3152
  589MOL0     O81175   9.547   5.301   2.987 -0.0407 -0.3004  0.1273
  589MOL0     C81176   9.424   5.261   3.031  0.4347 -0.5386 -0.1908
  589MOL0     C81177   9.331   5.363   3.059  0.4927 -0.6270 -0.3689
  589MOL0     C81178   9.199   5.327   3.087 -0.6596  0.4857 -0.0963
  589MOL0     C81179   9.152   5.190   3.092 -0.0102 -0.8183  0.3289
  589MOL0     O81180   9.014   5.178   3.118 -0.0608 -0.2018  0.3256
  589MOL0     C81181   8.967   5.048   3.145 -0.1096 -0.5216  0.2521
  589MOL0     C81182   8.818   5.063   3.186 -0.5182  0.0471  1.0907
  589MOL0     C81183   8.746   4.928   3.170 -0.6708  0.1068 -0.0808
  589MOL0     C81184   8.630   4.928   3.269 -0.3797 -0.4199  0.3318
  589MOL0     C81185   8.551   4.806   3.241  0.0434  1.2712 -0.0964
  589MOL0     C81186   8.448   4.775   3.360  1.2120  0.4087 -0.2539
  589MOL0     C81187   8.497   4.678   3.472 -0.2415  0.1963 -0.5365
  589MOL0     C81188   8.629   4.719   3.529  0.6341  0.5104 -0.5851
  589MOL0    Cl81189   8.680   4.602   3.659  0.0483 -0.0512  0.3147
  589MOL0     C81190   9.248   5.092   3.060 -0.0842 -0.4763 -0.1807
  589MOL0     C81191   9.380   5.127   3.027 -0.2523  0.4801  0.0227
  589MOL0     O81192   9.670   5.109   3.020  0.1945  0.4686  0.3201
  589MOL0     C81193   9.866   5.185   2.847 -0.1511  0.7319  0.0481
  589MOL0     C81194   9.985   5.225   2.796 -0.1294 -1.1416 -0.2810
  589MOL0     N81195  10.060   5.844   2.744 -0.0514 -0.8045  0.3425
  589MOL0     N81196  10.070   5.870   2.871 -0.1110  0.5302  0.6074
  589MOL0     C81197   9.385   6.411   3.092 -0.1892 -0.8679 -0.1540
  589MOL0     C81198   9.245   6.428   3.101  0.2046  0.0720 -0.4415
  589MOL0     C81199   8.789   6.379   3.133  0.3759  0.1087 -0.1589
  589MOL0     C81200   8.757   6.237   3.166 -0.7309 -0.2537  0.0475
  589MOL0     C81201   8.625   6.200   3.203 -0.4123  0.4934 -0.9983
  589MOL0     C81202   8.526   6.294   3.210  0.7769  0.4420  0.6430
  589MOL0     O81203   8.396   6.270   3.257  0.0235  1.1649 -0.2858
  589MOL0     C81204   8.297   6.267   3.159 -1.2278 -0.2776 -0.2467
  589MOL0     C81205   8.302   6.154   3.054  0.4274 -0.0357 -0.4104
  589MOL0     C81206   8.282   6.017   3.117 -0.4814 -0.4475  0.0874
  589MOL0     C81207   8.259   5.896   3.014 -0.1722  0.1976  0.0386
  589MOL0     C81208   8.356   5.899   2.899 -0.6755  0.6813 -0.1186
  589MOL0     C81209   8.434   5.895   2.808  0.6990  0.3559 -0.2595
  589MOL0     C81210   8.554   6.429   3.168 -1.0281 -0.3121 -0.6849
  589MOL0     C81211   8.680   6.469   3.132  0.6839 -0.2653 -1.4826
  589MOL0     C81212   8.700   6.615   3.107 -0.0932  0.0635  0.4065
  589MOL0     H81213   9.166   6.123   3.205 -1.6238 -0.2135 -1.4120
  589MOL0     H81214   9.412   6.083   3.166 -0.0290 -0.1111  0.0809
  589MOL0     H81215   9.691   6.421   3.115 -1.9101  0.6570  0.5674
  589MOL0     H81216   9.652   6.390   2.948  0.4147  2.8247  1.8903
  589MOL0     H81217   9.857   6.237   3.098 -2.3983  1.7758  1.6525
  589MOL0     H81218   9.796   6.193   2.936 -1.0301 -0.3727  0.0981
  589MOL0     H81219   9.843   6.432   2.860  3.1166 -1.2845 -3.5942
  589MOL0     H81220   9.946   6.459   3.006 -0.7308  1.7360 -1.8709
  589MOL0     H81221   9.968   6.231   2.817 -1.8306  0.5616  2.2852
  589MOL0     H81222  10.047   6.401   2.799  1.3766  0.4426  0.1153
  589MOL0     H81223  10.079   6.226   3.051 -2.0302  0.0430 -0.2753
  589MOL0     H81224  10.157   6.380   3.001  2.0868 -1.3494 -0.2331
  589MOL0     H81225  10.193   6.143   2.817 -0.4387  1.2589 -0.0599
  589MOL0     H81226  10.290   6.273   2.837 -2.3890 -1.9653 -2.2255
  589MOL0     H81227  10.336   6.173   3.086  0.6069 -0.9080 -0.2145
  589MOL0     H81228  10.404   6.090   2.940  0.6651 -0.4659 -0.4162
  589MOL0     H81229  10.303   5.936   3.085  1.5939  0.7962 -1.9124
  589MOL0     H81230  10.145   6.007   3.076  1.1079 -0.3363  1.8427
  589MOL0     H81231  10.380   5.915   2.779  0.2457 -1.1997 -0.9372
  589MOL0     H81232  10.346   5.853   2.536 -0.5205  0.3419  1.4611
  589MOL0     H81233  10.191   5.859   2.483 -1.4563  0.1268  1.5567
  589MOL0     H81234  10.147   5.624   2.474  0.1423 -0.0290 -0.5412
  589MOL0     H81235  10.296   5.619   2.417 -3.2590 -1.2461 -2.2287
  589MOL0     H81236  10.323   5.460   2.574  0.4165 -1.6631  1.5773
  589MOL0     H81237  10.378   5.592   2.672 -0.0586  0.5274 -0.3493
  589MOL0     H81238  10.201   5.591   2.809 -1.6879  1.0245  0.6764
  589MOL0     H81239  10.083   5.578   2.682 -0.4637 -0.2594  1.2028
  589MOL0     H81240   9.961   5.555   2.865  1.1293  0.7010  2.6356
  589MOL0     H81241   9.807   5.582   3.026 -0.4870  0.2878 -0.5770
  589MOL0     H81242   9.682   5.474   3.091 -2.6327 -2.8808 -1.6215
  589MOL0     H81243   9.664   5.532   2.921  1.1346 -1.1550 -2.3659
  589MOL0     H81244   9.365   5.467   3.060 -0.1179 -0.4232 -0.6915
  589MOL0     H81245   9.128   5.408   3.103 -0.2742  0.7318  0.3752
  589MOL0     H81246   8.977   4.986   3.055  4.9197  0.3773 -0.1029
  589MOL0     H81247   9.011   4.991   3.227 -3.0359 -1.5179  1.2822
  589MOL0     H81248   8.814   5.096   3.290  1.1315  3.0995  0.3105
  589MOL0     H81249   8.762   5.134   3.124 -2.4997 -2.1640  0.2003
  589MOL0     H81250   8.828   4.859   3.192 -0.9856 -0.7104 -1.4003
  589MOL0     H81251   8.707   4.922   3.068 -0.1643 -0.3182 -0.2491
  589MOL0     H81252   8.561   5.013   3.261  2.0245  1.4669 -2.0078
  589MOL0     H81253   8.672   4.929   3.370  2.8051  0.0258 -0.8831
  589MOL0     H81254   8.500   4.811   3.145  0.2333  0.8618 -0.2189
  589MOL0     H81255   8.623   4.725   3.226  1.5552  2.5216  0.1279
  589MOL0     H81256   8.368   4.718   3.311 -0.6256  2.0510  0.6919
  589MOL0     H81257   8.399   4.866   3.396 -0.6737 -0.5176 -0.3733
  589MOL0     H81258   8.497   4.575   3.435  2.2110  0.4035 -1.2565
  589MOL0     H81259   8.433   4.687   3.561  2.4249 -1.3411  1.6948
  589MOL0     H81260   8.617   4.820   3.568 -1.4071  0.5560 -1.2383
  589MOL0     H81261   8.709   4.728   3.455  3.4669  1.1347  2.3307
  589MOL0     H81262   9.217   4.989   3.052  0.8815 -0.6355 -5.3807
  589MOL0     H81263   9.449   5.052   2.990  0.4225  2.2731 -2.6910
  589MOL0     H81264   9.856   5.079   2.825  2.6702  0.3011  0.4788
  589MOL0     H81265  10.037   5.137   2.757 -1.6483 -3.4295  2.4551
  589MOL0     H81266   9.445   6.499   3.071 -0.6118  0.0910  2.2942
  589MOL0     H81267   9.203   6.528   3.098  1.4657  0.6057 -2.1286
  589MOL0     H81268   8.837   6.164   3.156 -3.2019 -3.0364 -1.0815
  589MOL0     H81269   8.602   6.096   3.224 -2.2129  0.5953 -2.3041
  589MOL0     H81270   8.196   6.265   3.201 -0.7853  2.7692  1.2811
  589MOL0     H81271   8.300   6.361   3.104 -0.1526  1.1036  2.0256
  589MOL0     H81272   8.392   6.147   2.992 -0.7029 -3.7587 -1.8499
  589MOL0     H81273   8.215   6.164   2.988  0.3781  0.1345 -0.3186
  589MOL0     H81274   8.359   5.987   3.189  2.0681 -0.5396 -2.4853
  589MOL0     H81275   8.200   6.034   3.187 -1.0112 -3.4220  0.3406
  589MOL0     H81276   8.152   5.897   2.990  0.1794  0.2433 -1.7106
  589MOL0     H81277   8.275   5.804   3.071  0.6199  1.0245  1.1992
  589MOL0     H81278   8.516   5.898   2.738 -0.9286 -0.5039 -2.3259
  589MOL0     H81279   8.468   6.495   3.169 -1.0695 -0.3372  1.0347
  589MOL0     H81280   8.775   6.638   3.031  1.3562 -1.4662  1.3204
  589MOL0     H81281   8.612   6.673   3.078 -0.0873  0.9148  1.9476
  589MOL0     H81282   8.733   6.653   3.205 -1.7497  4.1479 -0.4120
  590MOL0     O81283   4.517   5.970   6.990 -0.4430 -0.2278 -0.7594
  590MOL0     C81284   4.595   6.064   6.958 -0.7278 -1.0752  0.1797
  590MOL0     O81285   4.728   6.057   6.950 -0.9351 -0.2424  0.2783
  590MOL0     C81286   4.811   5.939   6.940  0.2918  0.1316 -0.0926
  590MOL0     C81287   4.789   5.813   6.885  0.2537 -0.5498 -0.4083
  590MOL0     C81288   4.890   5.715   6.872  0.2831  0.8135  0.2499
  590MOL0     C81289   5.012   5.743   6.916 -0.4728  0.0625 -0.2665
  590MOL0     O81290   5.121   5.651   6.908  0.2859 -1.3251  0.7372
  590MOL0     C81291   5.186   5.623   7.033  0.7870 -0.0592 -0.8886
  590MOL0     C81292   5.150   5.472   7.067 -0.2887 -0.5407 -0.1661
  590MOL0     C81293   5.000   5.448   7.106 -0.0164 -0.1054 -0.4415
  590MOL0     C81294   4.985   5.463   7.261 -0.0787  0.1367 -0.2149
  590MOL0     C81295   4.848   5.502   7.302  1.0372  1.0337  0.1146
  590MOL0     C81296   4.826   5.652   7.290  0.0040  0.0503  1.0652
  590MOL0     C81297   4.679   5.680   7.327 -0.0395 -0.4324 -0.2125
  590MOL0     C81298   4.636   5.820   7.280  0.8155  0.0535  0.5193
  590MOL0     N81299   4.701   5.944   7.325  0.1843  0.2555  0.1357
  590MOL0     C81300   4.836   5.971   7.328  0.6864  0.7506 -0.8179
  590MOL0     C81301   4.844   6.083   7.416 -1.4147 -0.3816  0.8668
  590MOL0     C81302   4.976   6.154   7.435  0.7509 -0.5334  0.2109
  590MOL0     C81303   4.980   6.312   7.431  0.8263  0.2155  0.1190
  590MOL0     C81304   4.891   6.397   7.328  0.2219 -0.1281 -0.2459
  590MOL0     C81305   4.953   6.529   7.314  0.4286  0.4050 -0.0378
  590MOL0     O81306   4.949   6.577   7.449  0.6626 -0.2475 -0.5007
  590MOL0     C81307   5.022   6.691   7.460 -0.4642 -0.1687 -0.0649
  590MOL0     C81308   4.979   6.824   7.460 -0.7119  0.0217  0.4021
  590MOL0     C81309   5.058   6.940   7.477 -0.3285  0.4652  0.0151
  590MOL0     C81310   4.992   7.067   7.476  0.5213  0.0645 -0.0329
  590MOL0     C81311   5.190   6.913   7.520 -0.0923 -0.3808  0.3352
  590MOL0     C81312   5.295   7.027   7.541  0.6655  0.6884  0.1404
  590MOL0     O81313   5.404   6.997   7.624 -0.2745  0.8760 -0.1285
  590MOL0     C81314   5.487   7.090   7.675 -0.7506 -0.2621 -0.8395
  590MOL0     C81315   5.621   7.065   7.696  0.0028  0.2976  0.4468
  590MOL0     C81316   5.717   7.159   7.746 -0.1423 -0.0784 -0.3621
  590MOL0     C81317   5.672   7.288   7.793  0.6033  0.3907  0.0296
  590MOL0     O81318   5.760   7.380   7.844 -0.1321  0.6214  0.5253
  590MOL0     C81319   5.707   7.505   7.884 -0.4658  0.2355 -0.2132
  590MOL0     C81320   5.650   7.496   8.021 -0.1438  0.3152 -0.2106
  590MOL0     C81321   5.565   7.612   8.075  0.4022  0.1562 -0.3658
  590MOL0     C81322   5.455   7.668   7.984 -0.8346  0.9036 -0.2824
  590MOL0     C81323   5.363   7.768   8.052  0.5262  0.8726  0.9590
  590MOL0     C81324   5.422   7.906   8.069  0.3805 -0.1801  0.3044
  590MOL0     C81325   5.328   7.990   8.141  0.2711 -0.8122 -0.5439
  590MOL0     C81326   5.306   8.136   8.091 -0.1577  0.8062  1.2771
  590MOL0    Cl81327   5.450   8.237   8.135  0.2238 -0.2144  0.4013
  590MOL0     C81328   5.532   7.311   7.777 -0.2289  1.1496  0.3939
  590MOL0     C81329   5.444   7.216   7.719 -0.1212 -0.7105 -0.5282
  590MOL0     O81330   5.282   7.128   7.459  0.2150  0.4789  0.7649
  590MOL0     C81331   5.241   6.781   7.518 -0.7884  0.0273 -1.1236
  590MOL0     C81332   5.148   6.678   7.500 -0.0630 -1.0027  0.6115
  590MOL0     N81333   4.722   6.121   7.455  1.3149 -0.1066 -0.0633
  590MOL0     N81334   4.634   6.035   7.400 -0.3747  0.0334 -0.4128
  590MOL0     C81335   5.040   5.873   6.960 -0.6603 -0.3061 -0.4843
  590MOL0     C81336   4.941   5.968   6.960  0.8579 -0.1973 -0.1266
  590MOL0     C81337   4.532   6.200   6.958 -0.4984 -0.2872  0.5191
  590MOL0     C81338   4.579   6.282   7.055 -0.4052 -0.1794 -0.6425
  590MOL0     C81339   4.532   6.416   7.065 -0.3231  0.3286 -0.5351
  590MOL0     C81340   4.433   6.462   6.977  0.0890 -0.7108 -0.5354
  590MOL0     O81341   4.385   6.591   6.992  0.4227  0.6556 -0.0181
  590MOL0     C81342   4.285   6.639   6.894 -0.0158  0.0270  0.4193
  590MOL0     C81343   4.280   6.795   6.893  0.6552 -0.0872 -0.0518
  590MOL0     C81344   4.216   6.860   7.019  1.2026  0.1822  0.3329
  590MOL0     C81345   4.207   7.006   7.011 -0.9697  0.1583  0.6382
  590MOL0     C81346   4.174   7.054   7.145 -0.5028 -0.1153 -1.5002
  590MOL0     C81347   4.144   7.104   7.253 -0.3964 -0.0465 -1.0989
  590MOL0     C81348   4.382   6.366   6.882 -0.0047  0.1354 -0.1425
  590MOL0     C81349   4.427   6.236   6.875  1.0521  0.0302 -0.3682
  590MOL0     C81350   4.371   6.126   6.783  0.0204  0.2569  0.9818
  590MOL0     H81351   4.689   5.780   6.859  0.0508 -2.0008  1.9236
  590MOL0     H81352   4.851   5.620   6.835 -1.0664  1.4557 -0.0542
  590MOL0     H81353   5.159   5.695   7.110 -1.6740  0.6394 -2.3035
  590MOL0     H81354   5.295   5.630   7.027  0.9879 -1.7711 -0.0217
  590MOL0     H81355   5.162   5.407   6.980  0.5801 -1.0358  0.3090
  590MOL0     H81356   5.218   5.436   7.145 -0.2751 -0.5280 -0.1722
  590MOL0     H81357   4.943   5.522   7.050  0.2828  0.9045  0.5516
  590MOL0     H81358   4.954   5.354   7.075  0.3474 -0.6352  0.5703
  590MOL0     H81359   4.999   5.368   7.312  1.6129  1.0045  1.0113
  590MOL0     H81360   5.059   5.532   7.303 -0.9604  0.9406  0.0642
  590MOL0     H81361   4.824   5.472   7.405  4.5044 -2.1122  0.2138
  590MOL0     H81362   4.772   5.456   7.238  3.6241 -0.5212 -2.0643
  590MOL0     H81363   4.899   5.703   7.353 -1.3625  0.9383  1.9811
  590MOL0     H81364   4.833   5.680   7.184  0.2237 -0.0431  1.0554
  590MOL0     H81365   4.671   5.682   7.436 -0.7845  2.6870 -0.2138
  590MOL0     H81366   4.615   5.602   7.286  0.7593 -0.8638 -0.6580
  590MOL0     H81367   4.640   5.825   7.171  4.1901 -0.1248  0.5278
  590MOL0     H81368   4.535   5.824   7.322 -0.6922  2.1177 -2.8891
  590MOL0     H81369   4.915   5.934   7.264  0.9790 -1.6946  0.8508
  590MOL0     H81370   5.044   6.126   7.354  0.5670  2.3017 -1.0496
  590MOL0     H81371   5.016   6.109   7.526  2.7724 -3.4081 -1.9124
  590MOL0     H81372   4.954   6.340   7.533 -0.1623 -2.6918  0.7600
  590MOL0     H81373   5.086   6.341   7.430  1.1343 -0.8642 -0.9525
  590MOL0     H81374   4.898   6.343   7.234  1.3262 -0.2116 -0.1322
  590MOL0     H81375   4.794   6.418   7.373  0.3153  0.2321 -0.2083
  590MOL0     H81376   5.058   6.526   7.285  0.6433  0.0073  0.7619
  590MOL0     H81377   4.899   6.592   7.242  3.2471 -0.3177 -3.0474
  590MOL0     H81378   4.877   6.845   7.429 -1.4951 -1.3836  1.8689
  590MOL0     H81379   5.009   7.106   7.577  0.8067  1.5658 -0.6417
  590MOL0     H81380   4.886   7.054   7.452  0.1687 -0.7704  1.7858
  590MOL0     H81381   5.037   7.134   7.402 -1.3120 -0.7781 -2.0033
  590MOL0     H81382   5.649   6.965   7.662 -4.3760 -0.2930 -2.3121
  590MOL0     H81383   5.818   7.122   7.753 -0.2599 -0.4568 -0.6375
  590MOL0     H81384   5.799   7.563   7.898 -0.0745 -0.6350  1.0053
  590MOL0     H81385   5.642   7.549   7.808  1.9630  0.0753 -2.5747
  590MOL0     H81386   5.588   7.406   8.016 -1.5129  1.3074 -2.3998
  590MOL0     H81387   5.726   7.467   8.094  0.4773  0.1257 -0.9200
  590MOL0     H81388   5.646   7.683   8.095  2.4638 -2.5439  1.4952
  590MOL0     H81389   5.523   7.591   8.174  0.2808 -0.1613 -0.4851
  590MOL0     H81390   5.393   7.584   7.951 -0.3813 -0.9074  3.0326
  590MOL0     H81391   5.500   7.722   7.899  3.2069 -1.4691  0.0642
  590MOL0     H81392   5.274   7.780   7.990  2.5733  0.3840 -2.3065
  590MOL0     H81393   5.345   7.726   8.151 -0.1553 -1.2849 -0.0226
  590MOL0     H81394   5.425   7.943   7.966 -1.2834 -0.7666  0.0137
  590MOL0     H81395   5.525   7.910   8.106 -0.5955  1.7431  3.2152
  590MOL0     H81396   5.361   7.986   8.245  1.5464 -2.9210 -0.9833
  590MOL0     H81397   5.226   7.952   8.146  0.8993 -2.5378 -0.2441
  590MOL0     H81398   5.216   8.164   8.148 -0.5967 -0.4379  1.2209
  590MOL0     H81399   5.270   8.154   7.990 -2.8881 -0.3921  1.9291
  590MOL0     H81400   5.483   7.404   7.804 -2.7873  0.8548 -2.6746
  590MOL0     H81401   5.346   7.257   7.699  0.2511  0.3273 -0.3053
  590MOL0     H81402   5.343   6.753   7.545 -0.7254  0.4648 -0.9080
  590MOL0     H81403   5.188   6.580   7.526  0.1219 -1.0777  0.0601
  590MOL0     H81404   5.133   5.920   6.989 -0.4559 -2.4372  2.8836
  590MOL0     H81405   4.956   6.074   6.979 -2.0986  0.0224  1.5154
  590MOL0     H81406   4.647   6.246   7.132 -1.8630 -0.5078  0.5430
  590MOL0     H81407   4.562   6.481   7.147 -1.3864 -2.5448  2.3812
  590MOL0     H81408   4.312   6.622   6.789 -0.4464 -1.2349  0.5005
  590MOL0     H81409   4.189   6.595   6.920 -0.1058  0.8856  1.6223
  590MOL0     H81410   4.216   6.829   6.811  1.4116 -0.1220 -0.6611
  590MOL0     H81411   4.382   6.834   6.890  0.1198  1.4701  1.0371
  590MOL0     H81412   4.119   6.815   7.041  2.1156 -0.6944  2.9680
  590MOL0     H81413   4.284   6.836   7.102  0.6553 -3.9080 -0.1705
  590MOL0     H81414   4.129   7.041   6.944  1.6491  2.7940 -1.2777
  590MOL0     H81415   4.303   7.051   6.981 -1.1895  1.9529  2.4082
  590MOL0     H81416   4.113   7.150   7.345 -1.7271 -0.9997 -1.0326
  590MOL0     H81417   4.308   6.391   6.807 -0.9091  1.6274  1.1906
  590MOL0     H81418   4.456   6.076   6.736 -1.1188  0.1160 -1.0546
  590MOL0     H81419   4.327   6.045   6.842  0.7824  0.1699  1.4432
  590MOL0     H81420   4.291   6.151   6.713  1.5854 -0.3378 -1.1194
  591MOL0     O81421   7.721   5.784   2.413 -0.2420 -0.9303 -0.3601
  591MOL0     C81422   7.755   5.838   2.307 -0.5686 -0.1230  0.5692
  591MOL0     O81423   7.857   5.796   2.223 -0.0131 -0.2768 -0.8148
  591MOL0     C81424   7.935   5.690   2.261  0.4276  0.0285  0.0863
  591MOL0     C81425   8.070   5.712   2.283 -1.0383 -0.1876 -0.3575
  591MOL0     C81426   8.149   5.601   2.324  0.1340 -0.2608  0.0743
  591MOL0     C81427   8.091   5.473   2.323  0.2556 -0.3953  0.4590
  591MOL0     O81428   8.177   5.363   2.325 -0.2167  0.4563  0.4973
  591MOL0     C81429   8.133   5.226   2.310 -0.0762 -0.4489  0.5559
  591MOL0     C81430   8.246   5.116   2.329  0.0839  0.3921  0.4244
  591MOL0     C81431   8.377   5.145   2.249  0.6000  0.6576 -1.0177
  591MOL0     C81432   8.464   5.017   2.250  0.1365  0.0282  1.1064
  591MOL0     C81433   8.571   5.027   2.131 -0.3343  0.2306 -0.1912
  591MOL0     C81434   8.704   4.950   2.165 -0.5962 -0.2718 -0.4209
  591MOL0     C81435   8.787   4.921   2.053 -0.2347  0.4472  0.3727
  591MOL0     C81436   8.840   5.047   1.986 -1.0495 -0.1248  0.6501
  591MOL0     N81437   8.931   5.121   2.068  0.3799 -0.3850  0.7745
  591MOL0     C81438   9.039   5.073   2.138  0.3760 -0.7217 -0.9667
  591MOL0     C81439   9.083   5.184   2.205 -0.0194  1.0385  1.6120
  591MOL0     C81440   9.210   5.195   2.283 -0.5482  1.2043  0.6401
  591MOL0     C81441   9.274   5.325   2.291 -0.4222 -0.2200  0.2779
  591MOL0     C81442   9.321   5.394   2.160  0.2632  0.6543  0.5106
  591MOL0     C81443   9.426   5.306   2.099  0.2403 -1.0392  0.8963
  591MOL0     O81444   9.471   5.361   1.979 -0.1933  0.1182 -0.6663
  591MOL0     C81445   9.577   5.301   1.914 -0.7409 -0.2919 -0.5554
  591MOL0     C81446   9.619   5.363   1.800  0.0182 -0.7129 -0.3308
  591MOL0     C81447   9.722   5.302   1.719  0.8618  0.4868 -0.2112
  591MOL0     C81448   9.760   5.382   1.599 -0.0968 -0.4672  0.3359
  591MOL0     C81449   9.781   5.182   1.760 -0.1633 -0.6293 -0.0608
  591MOL0     C81450   9.878   5.104   1.683 -0.7866  0.8060 -0.8140
  591MOL0     O81451   9.891   5.137   1.548 -0.4682 -0.5550  0.3222
  591MOL0     C81452   9.932   5.049   1.456  0.5292  0.0872  0.2439
  591MOL0     C81453  10.023   5.096   1.371 -0.2990 -0.1313 -0.1301
  591MOL0     C81454  10.066   5.024   1.248  0.3235 -0.1364 -1.3298
  591MOL0     C81455  10.034   4.885   1.233 -1.3479 -0.7044 -0.8771
  591MOL0     O81456  10.093   4.815   1.128 -0.1881  0.1205 -0.1793
  591MOL0     C81457  10.217   4.756   1.161 -0.1533 -0.5714  0.7170
  591MOL0     C81458  10.306   4.797   1.041  0.2767  1.3845 -0.1348
  591MOL0     C81459  10.292   4.944   1.002 -1.0005  0.1329  0.6132
  591MOL0     C81460  10.310   4.974   0.847 -0.2783  1.1745 -0.3921
  591MOL0     C81461  10.446   4.960   0.806 -0.6272  0.5213 -0.0583
  591MOL0     C81462  10.459   4.993   0.654  0.9104  0.1638 -0.2759
  591MOL0     C81463  10.601   5.029   0.601  0.1764  0.5719  0.1099
  591MOL0     C81464  10.654   5.164   0.655 -0.9321 -1.3510  0.3147
  591MOL0    Cl81465  10.824   5.184   0.658  0.4653 -0.5539 -0.4154
  591MOL0     C81466   9.951   4.832   1.331  0.6397 -0.1722  0.5208
  591MOL0     C81467   9.900   4.909   1.434  0.0916  0.3990  0.7804
  591MOL0     O81468   9.914   4.995   1.727 -0.1901 -0.0239 -0.3632
  591MOL0     C81469   9.739   5.128   1.885 -0.3203  0.7518  0.0092
  591MOL0     C81470   9.637   5.186   1.953  0.6693  0.1488 -0.7320
  591MOL0     N81471   9.004   5.291   2.166  0.0080 -0.0772  0.3401
  591MOL0     N81472   8.905   5.251   2.092  0.3052 -1.4833 -0.0132
  591MOL0     C81473   7.955   5.456   2.312  0.4913  0.3009  0.3617
  591MOL0     C81474   7.875   5.567   2.278  0.9060  0.1211  0.6148
  591MOL0     C81475   7.691   5.970   2.258 -0.4487 -0.0302 -0.7108
  591MOL0     C81476   7.771   6.065   2.196  0.3027 -0.1036 -0.5048
  591MOL0     C81477   7.725   6.190   2.160 -0.7719 -0.3426  0.6278
  591MOL0     C81478   7.589   6.222   2.171 -0.4106  0.5906 -0.2548
  591MOL0     O81479   7.547   6.344   2.137  0.3996 -0.7532  0.1879
  591MOL0     C81480   7.595   6.459   2.204  0.3289 -0.6959 -0.3480
  591MOL0     C81481   7.656   6.550   2.090 -0.4103 -0.4780  0.9623
  591MOL0     C81482   7.731   6.680   2.119 -0.3436  0.4004 -0.2360
  591MOL0     C81483   7.635   6.774   2.182 -0.0769  0.5644  0.1146
  591MOL0     C81484   7.545   6.848   2.094  0.7760 -0.0430 -1.0182
  591MOL0     C81485   7.458   6.910   2.035  0.6943  0.9464  0.4948
  591MOL0     C81486   7.502   6.119   2.232  0.3478 -0.7088  0.3770
  591MOL0     C81487   7.556   5.998   2.278  0.2578 -0.2118  1.0487
  591MOL0     C81488   7.466   5.904   2.351  0.2839  0.1652  0.5122
  591MOL0     H81489   8.124   5.803   2.259  1.5768 -0.5956  3.2411
  591MOL0     H81490   8.255   5.619   2.334  0.3905 -2.0457  0.9406
  591MOL0     H81491   8.085   5.216   2.212 -2.4266 -2.1980  1.7743
  591MOL0     H81492   8.067   5.205   2.394  0.7807  0.0239  1.3777
  591MOL0     H81493   8.285   5.116   2.432 -1.8608  0.3314  1.1952
  591MOL0     H81494   8.213   5.013   2.313  3.6148 -1.2260  2.2141
  591MOL0     H81495   8.346   5.178   2.149 -3.1166  0.1885 -0.1532
  591MOL0     H81496   8.433   5.230   2.291  0.9235  0.6728 -1.4723
  591MOL0     H81497   8.505   5.008   2.351 -2.7995  1.3172  2.5257
  591MOL0     H81498   8.406   4.926   2.231  1.5235 -0.4155 -1.4269
  591MOL0     H81499   8.606   5.129   2.114  0.8724 -0.4879 -2.4518
  591MOL0     H81500   8.523   4.982   2.043  2.0504 -1.1139 -0.9049
  591MOL0     H81501   8.771   5.000   2.236  3.4974 -0.5181 -3.7125
  591MOL0     H81502   8.674   4.854   2.208 -2.4658  0.5223  0.1629
  591MOL0     H81503   8.722   4.870   1.982 -1.1474  1.7898  0.2078
  591MOL0     H81504   8.864   4.850   2.085  1.2093  0.9161 -1.8402
  591MOL0     H81505   8.901   5.014   1.901 -2.1432 -0.6040  0.0292
  591MOL0     H81506   8.757   5.115   1.965 -1.1966 -0.7818 -1.1423
  591MOL0     H81507   9.080   4.973   2.148 -0.8400 -1.3690 -2.2157
  591MOL0     H81508   9.277   5.128   2.229  0.4878  1.3416  1.7046
  591MOL0     H81509   9.204   5.153   2.384  0.0889  1.1366  0.6551
  591MOL0     H81510   9.203   5.391   2.343 -0.6877 -1.8342  2.0531
  591MOL0     H81511   9.359   5.314   2.359 -0.2721 -1.2578 -0.0616
  591MOL0     H81512   9.239   5.402   2.088 -0.2728  1.7802  1.1992
  591MOL0     H81513   9.360   5.494   2.181  5.8811 -0.2929 -3.4446
  591MOL0     H81514   9.504   5.291   2.174 -1.5401  0.2437  3.1339
  591MOL0     H81515   9.376   5.212   2.072 -0.2406 -0.0924 -1.7920
  591MOL0     H81516   9.561   5.447   1.762 -2.7376 -2.1122  0.5536
  591MOL0     H81517   9.867   5.406   1.605 -0.2324  0.0834  0.6542
  591MOL0     H81518   9.707   5.478   1.595  2.2609  0.9324 -0.1054
  591MOL0     H81519   9.737   5.331   1.505  0.5676  2.6281 -1.6736
  591MOL0     H81520  10.061   5.197   1.374  2.2346 -1.0269  0.2463
  591MOL0     H81521  10.124   5.086   1.181  0.5935  1.7380  0.5193
  591MOL0     H81522  10.265   4.795   1.252  1.0799  0.6572 -0.4266
  591MOL0     H81523  10.212   4.646   1.161 -0.2072 -0.5695  0.9913
  591MOL0     H81524  10.407   4.771   1.073 -1.1048 -0.3234  3.3841
  591MOL0     H81525  10.300   4.725   0.959  2.4348  0.7546  0.1916
  591MOL0     H81526  10.365   4.998   1.063 -0.0802  1.5117 -1.6001
  591MOL0     H81527  10.192   4.981   1.023 -1.3568  1.4296 -2.7257
  591MOL0     H81528  10.283   5.078   0.829 -1.7205  1.6108  3.4912
  591MOL0     H81529  10.260   4.894   0.790  2.7021 -2.3407  1.4852
  591MOL0     H81530  10.510   5.031   0.860  1.0377 -1.3915  0.6123
  591MOL0     H81531  10.494   4.864   0.826 -1.5131  0.7289  4.0291
  591MOL0     H81532  10.388   5.066   0.614  0.3181 -0.0759  0.3093
  591MOL0     H81533  10.434   4.908   0.590  2.2048  1.7295 -3.0410
  591MOL0     H81534  10.588   5.060   0.497 -0.0024  1.6274  0.4313
  591MOL0     H81535  10.676   4.950   0.615 -0.8231 -0.2767  0.7572
  591MOL0     H81536  10.624   5.174   0.760 -1.5762 -1.4960  0.1455
  591MOL0     H81537  10.600   5.240   0.598  0.7017  1.9542  2.8291
  591MOL0     H81538   9.931   4.726   1.335  0.0856 -0.0367  2.5951
  591MOL0     H81539   9.826   4.864   1.500 -1.8900 -0.6888 -1.9604
  591MOL0     H81540   9.789   5.045   1.933 -0.9742  1.8193  2.6658
  591MOL0     H81541   9.616   5.138   2.048 -1.5350 -2.9338 -2.5815
  591MOL0     H81542   7.908   5.358   2.319 -0.2569  0.7391  1.7970
  591MOL0     H81543   7.772   5.547   2.250  0.4771 -0.2075  2.3120
  591MOL0     H81544   7.876   6.036   2.187 -0.1956 -1.8244 -1.0407
  591MOL0     H81545   7.800   6.263   2.132 -1.2297 -0.8731 -2.3345
  591MOL0     H81546   7.518   6.517   2.256  1.2518  1.6941 -1.5181
  591MOL0     H81547   7.673   6.451   2.280 -1.7963  1.4322  2.2853
  591MOL0     H81548   7.581   6.569   2.013  1.7844 -0.9887 -1.4640
  591MOL0     H81549   7.733   6.486   2.046 -0.6961  0.2894 -0.7310
  591MOL0     H81550   7.810   6.660   2.193  1.0949  2.0592 -1.2393
  591MOL0     H81551   7.782   6.718   2.030  1.7626 -0.4360  0.5346
  591MOL0     H81552   7.700   6.854   2.218  1.5603  1.7208 -4.5874
  591MOL0     H81553   7.584   6.722   2.263  0.6287  0.1812  0.3163
  591MOL0     H81554   7.371   6.957   1.995 -0.2167 -0.9590  0.1601
  591MOL0     H81555   7.400   6.146   2.259  0.6364  0.2037  0.6043
  591MOL0     H81556   7.465   5.811   2.294 -1.5308  1.4979 -1.8110
  591MOL0     H81557   7.490   5.899   2.458 -0.2519  1.6097  0.7215
  591MOL0     H81558   7.362   5.939   2.352  0.1813 -0.1372  0.7020
  592MOL0     O81559   5.738   1.619   5.652 -0.0584 -0.4541 -0.4864
  592MOL0     C81560   5.776   1.707   5.578  0.5721 -0.0229 -0.0845
  592MOL0     O81561   5.699   1.818   5.554  0.5490  0.2278 -0.3003
  592MOL0     C81562   5.620   1.861   5.652  0.1644  0.6440 -0.7859
  592MOL0     C81563   5.663   1.945   5.763  0.8093  0.7690  1.1472
  592MOL0     C81564   5.571   1.981   5.868 -0.0327  0.0888 -1.2950
  592MOL0     C81565   5.439   1.940   5.859  0.4970 -1.2101  0.1978
  592MOL0     O81566   5.346   1.985   5.949 -0.5539 -0.2897 -0.0217
  592MOL0     C81567   5.380   2.099   6.020  0.0250 -0.4682 -0.9587
  592MOL0     C81568   5.247   2.158   6.073  0.1131  0.4905  0.0117
  592MOL0     C81569   5.175   2.056   6.167 -0.3354  0.5456  0.4616
  592MOL0     C81570   5.086   2.128   6.273 -0.2938  0.1961  0.1856
  592MOL0     C81571   4.990   2.232   6.225 -0.2497 -0.3711  0.2885
  592MOL0     C81572   4.857   2.181   6.163  0.2896  0.2512 -0.3558
  592MOL0     C81573   4.791   2.301   6.082  0.3973  0.6008 -0.0836
  592MOL0     C81574   4.695   2.398   6.170  0.3514 -0.1924 -0.4430
  592MOL0     N81575   4.625   2.504   6.089 -0.2502  0.0402 -0.3286
  592MOL0     C81576   4.561   2.496   5.973  0.4363  0.3640 -0.5228
  592MOL0     C81577   4.534   2.621   5.929 -0.5456  0.6636  0.1533
  592MOL0     C81578   4.482   2.634   5.786 -0.3070 -0.1295 -0.0023
  592MOL0     C81579   4.334   2.639   5.769 -0.9039 -1.3519  0.3623
  592MOL0     C81580   4.280   2.779   5.824  0.6810  1.0038 -1.5899
  592MOL0     C81581   4.303   2.898   5.732  0.5821 -1.0624  0.2455
  592MOL0     O81582   4.229   2.886   5.613  0.5350  0.5440  0.5062
  592MOL0     C81583   4.239   2.991   5.528 -0.4306  0.3982 -0.1063
  592MOL0     C81584   4.141   2.993   5.423 -0.2917 -0.1695 -0.4407
  592MOL0     C81585   4.134   3.091   5.329 -0.0346 -0.5668  0.5686
  592MOL0     C81586   4.044   3.049   5.209  0.0736  0.0668 -0.0473
  592MOL0     C81587   4.220   3.206   5.341 -0.6604  0.7501  0.3137
  592MOL0     C81588   4.229   3.316   5.234  0.0199  0.3431  0.4967
  592MOL0     O81589   4.252   3.447   5.277 -0.5961  0.5131  0.3666
  592MOL0     C81590   4.279   3.545   5.181 -0.1927  0.3387  0.4892
  592MOL0     C81591   4.403   3.554   5.119  0.1734 -0.2498  0.7002
  592MOL0     C81592   4.426   3.657   5.026 -0.1775  0.6485  0.1649
  592MOL0     C81593   4.328   3.757   5.004 -0.1057 -0.2466  0.9991
  592MOL0     O81594   4.339   3.859   4.913 -0.4485 -0.4583  0.3391
  592MOL0     C81595   4.438   3.956   4.960 -0.3514  0.1388  0.2995
  592MOL0     C81596   4.509   4.034   4.837  0.0526  0.6977  0.1001
  592MOL0     C81597   4.591   4.157   4.883 -0.1879 -0.2505  0.4196
  592MOL0     C81598   4.726   4.159   4.812 -0.5442 -1.2567 -0.5212
  592MOL0     C81599   4.705   4.215   4.665 -1.0621 -0.3964  0.4732
  592MOL0     C81600   4.841   4.205   4.587  0.3075  0.5638  0.1204
  592MOL0     C81601   4.849   4.104   4.471 -0.2014  0.7315 -0.5143
  592MOL0     C81602   4.762   4.153   4.350  0.4184 -0.6996 -0.4678
  592MOL0    Cl81603   4.819   4.302   4.274 -0.2850  0.1515 -0.0180
  592MOL0     C81604   4.210   3.752   5.077  0.0735  0.3399 -0.7326
  592MOL0     C81605   4.185   3.649   5.170  0.2509 -0.2913 -0.5567
  592MOL0     O81606   4.240   3.277   5.118  0.3879  0.1859 -0.1626
  592MOL0     C81607   4.315   3.203   5.443  0.5657  0.1209  0.1604
  592MOL0     C81608   4.321   3.095   5.533  0.4047  0.3285 -0.8992
  592MOL0     N81609   4.581   2.711   6.023 -0.4777 -0.2264  0.3185
  592MOL0     N81610   4.638   2.640   6.115 -0.7196  0.1069  0.0712
  592MOL0     C81611   5.395   1.873   5.741  0.5820 -0.9028 -0.0120
  592MOL0     C81612   5.489   1.826   5.645  0.3106 -0.3827 -0.8188
  592MOL0     C81613   5.889   1.678   5.490 -0.2502 -0.3662 -0.9246
  592MOL0     C81614   5.992   1.606   5.548 -0.1531  0.0438  0.1710
  592MOL0     C81615   6.108   1.566   5.473  0.2283  0.5185 -0.7941
  592MOL0     C81616   6.121   1.583   5.335 -0.3561 -0.1160 -1.1288
  592MOL0     O81617   6.235   1.536   5.269  0.7101  0.0286  0.4845
  592MOL0     C81618   6.218   1.429   5.164  0.5011  0.4570  0.3686
  592MOL0     C81619   6.157   1.302   5.226 -0.1382 -0.3267 -0.2089
  592MOL0     C81620   5.997   1.289   5.205 -0.1139  0.3982  0.4844
  592MOL0     C81621   5.945   1.306   5.064  1.0941  0.7970 -0.1105
  592MOL0     C81622   6.027   1.278   4.949 -0.7429 -1.5858  0.8481
  592MOL0     C81623   6.075   1.254   4.842 -0.3171 -0.1562  0.6251
  592MOL0     C81624   6.019   1.665   5.284  0.0624  0.4160  0.3539
  592MOL0     C81625   5.910   1.722   5.359 -0.1129  0.2744 -0.8117
  592MOL0     C81626   5.801   1.814   5.298 -0.5489 -0.4176 -0.8455
  592MOL0     H81627   5.761   1.991   5.767 -0.0967  3.0028 -0.2579
  592MOL0     H81628   5.592   2.033   5.961 -2.6701 -1.0029  0.0212
  592MOL0     H81629   5.428   2.169   5.951 -3.0528  1.4741 -1.3365
  592MOL0     H81630   5.443   2.072   6.106  1.4806  1.7870 -1.2337
  592MOL0     H81631   5.273   2.244   6.136  0.9002  0.7685 -0.6775
  592MOL0     H81632   5.178   2.183   5.992  0.1748  2.0697  0.4211
  592MOL0     H81633   5.110   1.996   6.103 -0.2550  1.0076 -0.0706
  592MOL0     H81634   5.238   1.987   6.224 -3.1488  0.3291  3.5483
  592MOL0     H81635   5.020   2.057   6.322 -1.9794  0.8831 -0.9863
  592MOL0     H81636   5.153   2.178   6.344 -1.3173  2.2558 -0.2326
  592MOL0     H81637   5.047   2.301   6.162  3.0021 -2.1175  1.0884
  592MOL0     H81638   4.971   2.293   6.313  4.0847 -0.6852  1.6821
  592MOL0     H81639   4.872   2.090   6.103 -1.3667  0.1206 -0.6106
  592MOL0     H81640   4.792   2.153   6.247  1.1344 -0.9754 -0.0705
  592MOL0     H81641   4.732   2.246   6.008  0.8859 -1.1148  0.7503
  592MOL0     H81642   4.866   2.366   6.038 -1.5591  2.3251 -1.0419
  592MOL0     H81643   4.619   2.339   6.221  0.2876  0.3042  0.0493
  592MOL0     H81644   4.767   2.443   6.240  0.7529 -3.2814  1.3200
  592MOL0     H81645   4.527   2.402   5.933 -1.1838 -0.0426  1.6252
  592MOL0     H81646   4.545   2.556   5.743  2.0669  0.5824  1.9463
  592MOL0     H81647   4.516   2.728   5.740 -0.4128  0.1561  0.4957
  592MOL0     H81648   4.309   2.625   5.663 -0.1804 -1.1795  0.1618
  592MOL0     H81649   4.282   2.562   5.827 -0.5758  0.4878  3.3031
  592MOL0     H81650   4.172   2.775   5.838  0.8284  1.1449 -0.2621
  592MOL0     H81651   4.315   2.793   5.927  0.1484 -4.2224 -0.4039
  592MOL0     H81652   4.271   2.991   5.780 -1.6851 -2.2792  1.2578
  592MOL0     H81653   4.408   2.930   5.731 -0.1286  1.5489  0.7839
  592MOL0     H81654   4.082   2.903   5.418 -0.5415  0.0330 -1.1912
  592MOL0     H81655   4.003   2.948   5.209 -3.7583  1.4430 -1.9366
  592MOL0     H81656   4.093   3.058   5.111 -1.4769 -2.1489 -1.1113
  592MOL0     H81657   3.951   3.106   5.205 -2.0969 -3.0930 -5.1346
  592MOL0     H81658   4.467   3.467   5.134 -3.8330 -2.9940  3.8933
  592MOL0     H81659   4.525   3.659   4.982 -0.1768  0.9040  0.1746
  592MOL0     H81660   4.402   4.034   5.027  2.2429 -1.0370  3.3191
  592MOL0     H81661   4.522   3.907   5.011  0.3699  0.2291 -0.7672
  592MOL0     H81662   4.551   3.960   4.768  0.2787 -1.4118  2.3664
  592MOL0     H81663   4.426   4.066   4.774  0.3621 -0.3565 -0.8666
  592MOL0     H81664   4.600   4.149   4.992  0.8156  1.8733  0.5492
  592MOL0     H81665   4.540   4.249   4.852  0.8255  0.2607  0.2125
  592MOL0     H81666   4.764   4.059   4.788  0.0341 -1.2823  0.4675
  592MOL0     H81667   4.794   4.223   4.869 -0.5901 -1.6121 -0.0634
  592MOL0     H81668   4.626   4.160   4.614 -2.4045  1.2459  0.6868
  592MOL0     H81669   4.669   4.319   4.667 -2.1367 -0.7051 -1.0445
  592MOL0     H81670   4.923   4.178   4.654  1.5454  3.0641 -0.2869
  592MOL0     H81671   4.862   4.305   4.549 -1.7741  0.9796 -0.0541
  592MOL0     H81672   4.816   4.006   4.505 -0.1458  1.4910  1.9185
  592MOL0     H81673   4.952   4.098   4.433 -0.2772  1.3854 -0.8372
  592MOL0     H81674   4.659   4.177   4.378  0.6389 -0.0387 -0.1861
  592MOL0     H81675   4.760   4.083   4.267  1.2622 -0.9958 -0.2435
  592MOL0     H81676   4.137   3.829   5.054  1.6970  1.9555 -0.6481
  592MOL0     H81677   4.097   3.657   5.232  1.0906  0.5673  0.5843
  592MOL0     H81678   4.390   3.280   5.427  0.9998 -0.7154 -2.1260
  592MOL0     H81679   4.397   3.095   5.610  1.5749 -1.4053 -1.9889
  592MOL0     H81680   5.292   1.854   5.715 -0.7633  6.0618 -1.5795
  592MOL0     H81681   5.463   1.762   5.562 -2.0174  0.3956 -0.7615
  592MOL0     H81682   5.975   1.567   5.647 -2.6490 -0.5218 -0.4180
  592MOL0     H81683   6.178   1.504   5.529 -0.9714 -0.2158 -0.0462
  592MOL0     H81684   6.161   1.455   5.074  0.6224  2.2717  0.7843
  592MOL0     H81685   6.320   1.411   5.128  0.4073  1.2894 -0.3582
  592MOL0     H81686   6.179   1.298   5.333  0.8721 -3.7140 -0.4314
  592MOL0     H81687   6.212   1.217   5.185  2.2874  1.2178 -0.3708
  592MOL0     H81688   5.957   1.197   5.248 -2.2264  1.8692  1.8927
  592MOL0     H81689   5.955   1.364   5.273 -1.2300 -0.2933  0.5611
  592MOL0     H81690   5.894   1.403   5.059  0.3192  0.3391 -2.6853
  592MOL0     H81691   5.876   1.222   5.069  2.1391 -0.1860 -1.4714
  592MOL0     H81692   6.108   1.227   4.744  1.5369 -0.7391  1.3666
  592MOL0     H81693   6.036   1.687   5.179  2.1134 -2.1812  0.0391
  592MOL0     H81694   5.705   1.762   5.303  0.9232 -3.2155  1.2581
  592MOL0     H81695   5.791   1.903   5.360  0.9286 -0.8862  0.1375
  592MOL0     H81696   5.832   1.841   5.196 -1.0245 -0.3906 -0.9843
  593MOL0     O81697  11.227  11.447  11.179 -0.2185  0.0486  1.0963
  593MOL0     C81698  11.283  11.342  11.144 -0.3184 -0.9466 -1.3919
  593MOL0     O81699  11.338  11.246  11.223  0.0815 -0.2047 -0.7119
  593MOL0     C81700  11.377  11.271  11.355  1.1802 -0.2903 -0.5036
  593MOL0     C81701  11.361  11.389  11.426 -0.0317  0.3171 -1.4504
  593MOL0     C81702  11.391  11.392  11.568 -0.7086 -0.0064 -0.1633
  593MOL0     C81703  11.449  11.281  11.636  0.6324 -0.0139 -0.1667
  593MOL0     O81704  11.481  11.305  11.764 -0.5300 -0.2032  0.0017
  593MOL0     C81705  11.447  11.213  11.874 -0.8164 -0.4131  0.9045
  593MOL0     C81706  11.485  11.289  12.006  0.8252 -0.2564 -0.1280
  593MOL0     C81707  11.465  11.188  12.119 -0.2057 -0.3728 -0.0765
  593MOL0     C81708  11.325  11.143  12.157 -0.3176 -1.2232 -0.0436
  593MOL0     C81709  11.318  11.067  12.292 -0.5018 -0.4566 -0.4274
  593MOL0     C81710  11.168  11.018  12.307 -0.3206 -0.4763 -0.6378
  593MOL0     C81711  11.154  10.931  12.436  0.0008 -0.2521 -0.4619
  593MOL0     C81712  11.224  10.789  12.434 -0.3001  0.1711 -0.1207
  593MOL0     N81713  11.140  10.670  12.394  0.2531  0.3907  0.3174
  593MOL0     C81714  11.081  10.656  12.264  0.1680 -0.0087  0.3325
  593MOL0     C81715  10.996  10.553  12.274  0.1868  0.7863  0.5052
  593MOL0     C81716  10.923  10.473  12.176  0.1273 -0.9170  0.1226
  593MOL0     C81717  11.011  10.356  12.134  0.2800 -0.9248  0.3343
  593MOL0     C81718  10.921  10.250  12.075  0.0042  1.2554 -0.9304
  593MOL0     C81719  10.994  10.121  12.031 -0.4475  0.8886  0.1427
  593MOL0     O81720  11.099  10.153  11.945  0.4016 -0.1775  0.7397
  593MOL0     C81721  11.189  10.053  11.903  0.3203 -0.9071 -0.6560
  593MOL0     C81722  11.316  10.096  11.846  0.9270 -0.6941 -0.8556
  593MOL0     C81723  11.399  10.005  11.778  0.0287  0.1621 -0.1562
  593MOL0     C81724  11.513  10.065  11.716  0.8453 -0.6109  0.2900
  593MOL0     C81725  11.361   9.870  11.761  0.7336 -0.2121 -1.0567
  593MOL0     C81726  11.435   9.759  11.700  0.2675 -0.5045 -0.3916
  593MOL0     O81727  11.561   9.775  11.681 -0.6436 -0.4019 -0.6760
  593MOL0     C81728  11.640   9.681  11.620 -0.1094 -0.0663 -1.1803
  593MOL0     C81729  11.673   9.557  11.688  0.0861  0.7098 -0.7972
  593MOL0     C81730  11.769   9.475  11.635  0.6940  0.2404  0.4040
  593MOL0     C81731  11.826   9.501  11.508  0.3960  0.4321 -0.6022
  593MOL0     O81732  11.926   9.408  11.475  0.4524 -0.1573 -0.2376
  593MOL0     C81733  11.986   9.419  11.347 -0.4704  0.9996 -0.0159
  593MOL0     C81734  12.072   9.289  11.323 -0.5541 -1.0335  0.1561
  593MOL0     C81735  12.145   9.287  11.188  0.3763  0.1571 -0.5601
  593MOL0     C81736  12.051   9.228  11.082  0.4745 -0.4735 -0.5147
  593MOL0     C81737  12.118   9.168  10.966  0.9594 -0.1065  0.5621
  593MOL0     C81738  12.201   9.038  10.988  0.1520 -0.8668  0.4191
  593MOL0     C81739  12.099   8.922  10.970 -0.6808 -0.8286 -0.3914
  593MOL0     C81740  12.143   8.811  11.058 -0.1399  0.0101  0.7334
  593MOL0    Cl81741  12.095   8.859  11.220  0.1768  0.1631  0.2040
  593MOL0     C81742  11.791   9.614  11.436  0.1824 -0.2760  0.2583
  593MOL0     C81743  11.689   9.701  11.486 -0.4577  0.4499  0.4490
  593MOL0     O81744  11.368   9.665  11.654  0.0073  0.1559 -0.6780
  593MOL0     C81745  11.233   9.834  11.817  0.4601 -0.6581  0.4340
  593MOL0     C81746  11.150   9.919  11.884  0.7181  0.3661 -0.2675
  593MOL0     N81747  10.987  10.518  12.409 -1.0524 -0.4263  0.7983
  593MOL0     N81748  11.071  10.585  12.475  0.5593 -0.0659 -0.0794
  593MOL0     C81749  11.471  11.168  11.557 -1.0675  0.6788 -0.2113
  593MOL0     C81750  11.423  11.166  11.424 -0.9928  0.4929 -0.8730
  593MOL0     C81751  11.237  11.298  11.007  0.1543 -1.2746 -0.2501
  593MOL0     C81752  11.222  11.162  10.981 -0.4026  0.1806  0.7996
  593MOL0     C81753  11.189  11.117  10.850  0.6196  0.0243  0.0632
  593MOL0     C81754  11.152  11.199  10.751 -0.3970 -0.4712  0.2177
  593MOL0     O81755  11.114  11.139  10.634 -0.7740 -0.6868 -0.1458
  593MOL0     C81756  11.029  11.212  10.542  0.0196  0.0931 -0.2912
  593MOL0     C81757  10.977  11.113  10.432  0.0630  2.2964  0.5754
  593MOL0     C81758  10.834  11.131  10.385 -0.1411 -0.0677 -0.2530
  593MOL0     C81759  10.818  11.232  10.267  0.1665  0.0763  0.4016
  593MOL0     C81760  10.817  11.373  10.321 -0.3517 -0.1014 -0.2040
  593MOL0     C81761  10.818  11.482  10.377  0.7600 -0.0042  0.2101
  593MOL0     C81762  11.152  11.333  10.776 -0.5983  0.9899 -0.6511
  593MOL0     C81763  11.204  11.381  10.896 -1.1574  0.1814  0.4370
  593MOL0     C81764  11.211  11.530  10.910  0.2728  0.0528 -0.1221
  593MOL0     H81765  11.318  11.475  11.375 -1.0923 -0.6939 -2.3128
  593MOL0     H81766  11.379  11.484  11.624  0.4973  0.8793 -1.2988
  593MOL0     H81767  11.502  11.119  11.862 -0.0706  0.2275 -1.1485
  593MOL0     H81768  11.340  11.192  11.870 -0.9073  0.0307  0.9687
  593MOL0     H81769  11.591  11.317  12.001  1.0267 -0.9818 -0.0622
  593MOL0     H81770  11.425  11.381  12.005 -4.6054 -3.3031 -3.0587
  593MOL0     H81771  11.536  11.107  12.096  1.8927  1.5138 -0.5675
  593MOL0     H81772  11.511  11.238  12.205 -2.1242  0.0882  0.7345
  593MOL0     H81773  11.256  11.226  12.174  1.2163  0.4703 -1.6710
  593MOL0     H81774  11.272  11.086  12.080 -2.8698  1.0812 -0.1684
  593MOL0     H81775  11.341  11.140  12.370 -2.1687 -1.1806  0.7993
  593MOL0     H81776  11.392  10.987  12.297  0.4839  0.5149  1.7690
  593MOL0     H81777  11.111  11.110  12.319  2.4092  1.0600  2.0364
  593MOL0     H81778  11.138  10.950  12.227 -0.7103  0.1846 -1.0600
  593MOL0     H81779  11.048  10.912  12.456  0.2388 -0.1682  1.0070
  593MOL0     H81780  11.189  10.986  12.524 -1.2275  0.3298 -0.3201
  593MOL0     H81781  11.321  10.787  12.385 -0.2137  0.8025  0.0136
  593MOL0     H81782  11.245  10.774  12.541  0.8429 -1.4804 -0.5442
  593MOL0     H81783  11.117  10.697  12.170 -1.1019  1.3456  0.4192
  593MOL0     H81784  10.898  10.538  12.091  1.5331 -1.1087 -0.4608
  593MOL0     H81785  10.843  10.420  12.229  2.7085 -4.3432  0.9378
  593MOL0     H81786  11.075  10.395  12.054 -2.7088  0.4660 -1.5635
  593MOL0     H81787  11.057  10.301  12.216 -1.5316 -0.7204  1.5246
  593MOL0     H81788  10.845  10.216  12.146  1.1293 -1.4412 -0.8909
  593MOL0     H81789  10.873  10.291  11.986 -0.6271  2.7220  0.0549
  593MOL0     H81790  11.047  10.083  12.119 -4.1831  4.4519  4.4777
  593MOL0     H81791  10.921  10.050  11.992 -0.9667  1.6897 -0.3827
  593MOL0     H81792  11.349  10.199  11.852 -0.2531 -0.3779  0.5975
  593MOL0     H81793  11.601  10.015  11.758 -0.0335 -3.3762 -0.9111
  593MOL0     H81794  11.509  10.173  11.733  0.9932 -0.8537  2.1095
  593MOL0     H81795  11.520  10.044  11.609 -2.4494  2.8770 -0.8420
  593MOL0     H81796  11.630   9.537  11.785 -1.4372 -0.2199 -1.6145
  593MOL0     H81797  11.790   9.396  11.706 -0.0773  0.9981  1.5189
  593MOL0     H81798  11.917   9.432  11.263 -0.3044  0.6520 -0.2083
  593MOL0     H81799  12.049   9.507  11.341 -1.7990  1.9068 -1.4478
  593MOL0     H81800  12.151   9.308  11.397 -3.0754  2.9863  2.2192
  593MOL0     H81801  12.027   9.191  11.342  0.3846 -1.2544  1.3162
  593MOL0     H81802  12.236   9.226  11.185  2.7276  3.4636 -2.7779
  593MOL0     H81803  12.192   9.384  11.177 -0.8416  0.8285 -0.0626
  593MOL0     H81804  12.007   9.320  11.044 -1.2396 -1.1411 -0.2433
  593MOL0     H81805  11.975   9.161  11.124 -1.1847 -1.0609 -4.0040
  593MOL0     H81806  12.049   9.160  10.882  1.5295  2.7736 -0.2778
  593MOL0     H81807  12.181   9.248  10.925 -1.1266  1.4072  0.1426
  593MOL0     H81808  12.257   9.038  11.082  1.5834  1.9464 -0.3054
  593MOL0     H81809  12.279   9.033  10.912  3.1758 -1.3910  3.3216
  593MOL0     H81810  12.096   8.895  10.864  0.3176 -0.3899 -0.5417
  593MOL0     H81811  11.996   8.955  10.991  0.1108  1.9376 -0.4429
  593MOL0     H81812  12.250   8.793  11.054  0.2974  2.3651 -0.0815
  593MOL0     H81813  12.080   8.728  11.024 -1.9109  2.1522 -1.6982
  593MOL0     H81814  11.842   9.625  11.341 -3.0090 -0.9188 -1.6820
  593MOL0     H81815  11.652   9.787  11.432  1.8500 -0.3273 -2.7270
  593MOL0     H81816  11.202   9.731  11.805 -1.3498  0.1988 -4.3430
  593MOL0     H81817  11.056   9.891  11.930 -0.0369  4.3277  1.0142
  593MOL0     H81818  11.525  11.080  11.589  0.0323 -0.0517 -3.7024
  593MOL0     H81819  11.442  11.068  11.380  0.8397  1.0093 -1.3178
  593MOL0     H81820  11.252  11.086  11.052  0.6995 -2.1952 -1.9580
  593MOL0     H81821  11.180  11.013  10.823  0.2430 -0.2798  1.2914
  593MOL0     H81822  10.940  11.251  10.592  0.2298 -0.1123  0.2433
  593MOL0     H81823  11.072  11.301  10.494  1.2747  1.1942  2.6342
  593MOL0     H81824  10.988  11.012  10.473 -2.0557  0.8898 -2.0073
  593MOL0     H81825  11.036  11.120  10.341 -2.6991 -0.7977 -1.7032
  593MOL0     H81826  10.792  11.038  10.343 -1.0564  0.1681  0.1201
  593MOL0     H81827  10.774  11.157  10.472 -3.4744 -0.6924 -2.1591
  593MOL0     H81828  10.725  11.206  10.215  1.3873 -3.4271 -0.2870
  593MOL0     H81829  10.894  11.205  10.193  2.1197 -2.0496  3.0278
  593MOL0     H81830  10.810  11.575  10.430 -4.4786 -1.4717  2.6805
  593MOL0     H81831  11.109  11.397  10.699  1.0249 -0.1463 -2.6102
  593MOL0     H81832  11.308  11.570  10.939  0.7518  0.6119 -2.3589
  593MOL0     H81833  11.198  11.576  10.812  2.3434  1.8617  0.3883
  593MOL0     H81834  11.136  11.576  10.975 -1.3935  1.0347 -2.6217
  594MOL0     O81835   7.386   2.174   8.873 -0.3613  0.1249 -0.1534
  594MOL0     C81836   7.380   2.068   8.805 -0.4131 -0.0012  1.2071
  594MOL0     O81837   7.289   2.043   8.704 -0.3095 -0.1655 -0.5921
  594MOL0     C81838   7.216   2.139   8.646  0.2734 -0.0366 -0.1850
  594MOL0     C81839   7.157   2.249   8.708  0.3655  0.3671 -0.1146
  594MOL0     C81840   7.101   2.349   8.636 -0.0699 -0.2464  0.6817
  594MOL0     C81841   7.073   2.336   8.495  0.0840  0.7520 -0.4707
  594MOL0     O81842   7.001   2.437   8.443 -0.2418 -0.1224 -0.7050
  594MOL0     C81843   6.936   2.427   8.319 -0.6131 -0.5813  0.3883
  594MOL0     C81844   6.796   2.505   8.297  0.2468 -0.1505  0.1639
  594MOL0     C81845   6.674   2.449   8.374  0.0281  0.3637  0.1068
  594MOL0     C81846   6.665   2.507   8.515 -0.2914  0.2552  0.5486
  594MOL0     C81847   6.546   2.467   8.607 -0.0130  1.1198  0.1356
  594MOL0     C81848   6.416   2.514   8.544 -0.3144 -0.8386 -0.4167
  594MOL0     C81849   6.321   2.550   8.664 -0.0946  0.5020  0.1267
  594MOL0     C81850   6.289   2.430   8.757  0.2452 -0.6714  0.6154
  594MOL0     N81851   6.212   2.326   8.687  0.1857 -0.7765 -0.9037
  594MOL0     C81852   6.075   2.301   8.708 -0.7535 -0.1763 -0.5762
  594MOL0     C81853   6.049   2.176   8.654 -0.6235  0.4032 -0.5074
  594MOL0     C81854   5.912   2.113   8.638  0.3916  0.5514 -0.4608
  594MOL0     C81855   5.862   2.038   8.764  0.1837 -1.6760  0.6800
  594MOL0     C81856   5.952   1.927   8.804  1.0516  1.2154  1.1166
  594MOL0     C81857   5.881   1.819   8.885  0.1794 -0.1491 -0.4720
  594MOL0     O81858   5.958   1.699   8.902 -0.7600  0.0337 -0.3348
  594MOL0     C81859   5.940   1.654   9.029  0.2314  0.0676  0.1788
  594MOL0     C81860   6.026   1.708   9.122  0.4098  0.0405 -0.6978
  594MOL0     C81861   6.031   1.651   9.254  0.5686 -0.7402 -0.4796
  594MOL0     C81862   6.119   1.718   9.364  0.5741  0.1397  0.7894
  594MOL0     C81863   5.951   1.539   9.289  0.0379  0.7154 -0.0686
  594MOL0     C81864   5.967   1.467   9.418  0.0958  0.5778 -0.0794
  594MOL0     O81865   6.095   1.429   9.464  0.2540  0.2179 -0.2292
  594MOL0     C81866   6.111   1.350   9.573  0.9387  0.6029 -0.3221
  594MOL0     C81867   6.067   1.400   9.691 -0.1952  0.5479 -0.1274
  594MOL0     C81868   6.086   1.315   9.805  0.3830  0.5117 -0.3814
  594MOL0     C81869   6.163   1.197   9.800  0.4947  0.6639  0.0010
  594MOL0     O81870   6.212   1.121   9.894 -0.6954  0.1783  0.0015
  594MOL0     C81871   6.220   1.160  10.032  0.4193 -0.0538 -0.0607
  594MOL0     C81872   6.314   1.279  10.043 -0.3333 -0.0565  0.1363
  594MOL0     C81873   6.322   1.320  10.185  0.8903 -0.3583 -1.1262
  594MOL0     C81874   6.444   1.407  10.230  0.2337  0.8196 -0.0509
  594MOL0     C81875   6.469   1.404  10.383  0.2625  0.1498  0.6426
  594MOL0     C81876   6.374   1.495  10.453  0.0276 -0.2621 -0.7114
  594MOL0     C81877   6.359   1.473  10.606  0.2562  0.7661  0.4280
  594MOL0     C81878   6.292   1.580  10.679 -0.4856  0.1820 -0.3021
  594MOL0    Cl81879   6.317   1.568  10.854 -0.4596 -0.2531 -0.0684
  594MOL0     C81880   6.205   1.151   9.676  0.1053  0.1020 -0.3460
  594MOL0     C81881   6.180   1.229   9.560 -0.0409  0.3900  0.4098
  594MOL0     O81882   5.865   1.441   9.477 -1.1480 -0.3259  0.0850
  594MOL0     C81883   5.871   1.484   9.188  0.0833  0.3900 -0.4035
  594MOL0     C81884   5.855   1.547   9.064  0.4790 -0.3031 -0.1421
  594MOL0     N81885   6.174   2.123   8.612  0.1032  0.2500  0.1858
  594MOL0     N81886   6.263   2.216   8.626 -0.2463 -0.2214  0.0141
  594MOL0     C81887   7.127   2.221   8.434  0.0706 -1.3934  0.2028
  594MOL0     C81888   7.208   2.130   8.502  0.4716 -0.7296  0.3817
  594MOL0     C81889   7.491   1.971   8.827  0.3442  0.7700 -0.2519
  594MOL0     C81890   7.520   1.937   8.963  0.0412 -0.2778 -0.0186
  594MOL0     C81891   7.629   1.856   8.996  0.1534 -0.1481  0.0801
  594MOL0     C81892   7.702   1.783   8.901 -0.0761  0.5045  0.5099
  594MOL0     O81893   7.811   1.698   8.946  0.3300 -0.3487 -0.0217
  594MOL0     C81894   7.900   1.665   8.840 -1.0623  0.8006  0.2043
  594MOL0     C81895   8.005   1.574   8.907 -0.8582  0.1586  0.4453
  594MOL0     C81896   7.956   1.432   8.928  0.0993 -0.1349  0.7363
  594MOL0     C81897   7.974   1.330   8.805  0.0227  0.4537  0.9570
  594MOL0     C81898   7.942   1.189   8.839  0.2192 -0.2547 -0.4454
  594MOL0     C81899   7.949   1.078   8.893 -0.5577 -0.2346  0.6370
  594MOL0     C81900   7.662   1.805   8.764  0.5253 -0.1439  0.3633
  594MOL0     C81901   7.557   1.893   8.729 -0.4154 -0.2745 -0.0823
  594MOL0     C81902   7.532   1.918   8.585 -0.8120  0.6486 -0.7330
  594MOL0     H81903   7.163   2.264   8.815 -0.4222  0.3571 -0.0688
  594MOL0     H81904   7.067   2.437   8.689  0.0597 -0.8821  1.8501
  594MOL0     H81905   6.932   2.321   8.292 -1.2462 -0.7209  0.9865
  594MOL0     H81906   7.000   2.482   8.250 -2.5825  3.0353  1.1763
  594MOL0     H81907   6.812   2.610   8.327 -0.6414 -0.2070  0.8871
  594MOL0     H81908   6.776   2.517   8.190  1.3422 -0.5915 -0.0966
  594MOL0     H81909   6.579   2.461   8.323 -2.4596 -4.8358  2.8120
  594MOL0     H81910   6.693   2.342   8.383 -3.7747 -0.6813 -2.2473
  594MOL0     H81911   6.756   2.467   8.561  1.7338  0.6833 -2.7335
  594MOL0     H81912   6.662   2.615   8.502 -0.0887  0.2815  0.7310
  594MOL0     H81913   6.563   2.496   8.711  2.8048  1.1599 -0.2793
  594MOL0     H81914   6.537   2.358   8.595  0.2351  1.1315 -0.1597
  594MOL0     H81915   6.442   2.605   8.488 -2.0072 -0.3239 -0.4261
  594MOL0     H81916   6.385   2.433   8.477  2.6803  1.0988 -4.5861
  594MOL0     H81917   6.229   2.593   8.623 -1.9961 -3.0307  0.3398
  594MOL0     H81918   6.374   2.623   8.725  2.3184  0.8587 -2.2069
  594MOL0     H81919   6.388   2.404   8.795  0.6202  3.1617  2.7947
  594MOL0     H81920   6.232   2.467   8.843  0.3550 -0.4774  0.6067
  594MOL0     H81921   5.996   2.364   8.747  0.2817  0.6436  0.2513
  594MOL0     H81922   5.902   2.052   8.548  2.8321 -0.8502  0.1255
  594MOL0     H81923   5.833   2.185   8.615 -3.7228 -3.9010 -2.0968
  594MOL0     H81924   5.843   2.106   8.847  1.9322 -1.9873  1.3873
  594MOL0     H81925   5.763   1.996   8.743 -0.7502  1.3938 -1.7127
  594MOL0     H81926   5.980   1.874   8.713 -0.9944  1.1682  0.4801
  594MOL0     H81927   6.046   1.964   8.848  1.6007  1.3784 -0.1466
  594MOL0     H81928   5.861   1.868   8.981  3.9453  0.0189  0.3771
  594MOL0     H81929   5.782   1.798   8.842 -0.4773  0.1822  0.8161
  594MOL0     H81930   6.095   1.784   9.088  0.4173  0.9935  1.2934
  594MOL0     H81931   6.056   1.739   9.451  0.6830 -1.9585  1.4128
  594MOL0     H81932   6.160   1.812   9.326 -1.8284  0.1328 -2.1972
  594MOL0     H81933   6.192   1.648   9.404 -0.8310 -1.5774  0.4978
  594MOL0     H81934   6.014   1.495   9.694 -1.3382 -0.0781 -0.0906
  594MOL0     H81935   6.048   1.345   9.902 -0.6758 -0.1922 -0.5685
  594MOL0     H81936   6.114   1.181  10.053 -0.4498 -4.3610  0.8625
  594MOL0     H81937   6.236   1.070  10.093 -2.9731 -2.0845 -1.8217
  594MOL0     H81938   6.410   1.263   9.994  0.1248  2.4642  0.0849
  594MOL0     H81939   6.278   1.364   9.983 -1.0392 -1.3941 -1.4229
  594MOL0     H81940   6.306   1.232  10.249 -0.7475 -1.0368 -2.3809
  594MOL0     H81941   6.230   1.377  10.194  0.2147 -1.6519  0.6753
  594MOL0     H81942   6.429   1.511  10.199 -1.5146 -0.4140 -3.8304
  594MOL0     H81943   6.525   1.360  10.173 -2.4810 -0.9597 -2.7223
  594MOL0     H81944   6.438   1.302  10.407 -0.1396 -0.7241 -2.9703
  594MOL0     H81945   6.575   1.419  10.409 -0.0963  1.1012  1.6344
  594MOL0     H81946   6.273   1.463  10.423 -0.2111  0.1221 -0.3283
  594MOL0     H81947   6.394   1.601  10.433 -0.4290 -0.3680 -1.8256
  594MOL0     H81948   6.463   1.480  10.639  0.3150  1.3701  0.1248
  594MOL0     H81949   6.319   1.371  10.614 -1.9723  1.7267  3.2378
  594MOL0     H81950   6.183   1.590  10.667 -0.2310  2.9843 -1.0878
  594MOL0     H81951   6.323   1.676  10.637  1.5609  0.6176  1.9769
  594MOL0     H81952   6.273   1.068   9.665  1.3058  1.3080 -2.8712
  594MOL0     H81953   6.210   1.187   9.465 -1.1449 -0.9976  0.6326
  594MOL0     H81954   5.823   1.388   9.203 -0.9614  0.8822 -0.5109
  594MOL0     H81955   5.790   1.502   8.990  0.1177 -0.3711  0.2117
  594MOL0     H81956   7.102   2.195   8.332  1.2699  0.5071 -0.6536
  594MOL0     H81957   7.250   2.048   8.444 -0.3043 -0.8544 -0.0202
  594MOL0     H81958   7.463   1.970   9.049 -1.6619 -2.2405 -0.3175
  594MOL0     H81959   7.649   1.833   9.100  0.1907  1.0891  0.3600
  594MOL0     H81960   7.855   1.612   8.756  1.1459 -1.0440  0.0912
  594MOL0     H81961   7.945   1.753   8.793  1.8641  0.2330  1.6821
  594MOL0     H81962   8.033   1.627   8.998  3.7866  3.3844 -2.4197
  594MOL0     H81963   8.092   1.583   8.840 -1.7220  2.0183 -0.4844
  594MOL0     H81964   7.999   1.394   9.021 -3.3487 -1.9376  1.7536
  594MOL0     H81965   7.851   1.448   8.951 -0.3293  1.8755 -2.0521
  594MOL0     H81966   8.079   1.327   8.775 -0.0599 -0.6519  0.7127
  594MOL0     H81967   7.907   1.356   8.723 -0.5039 -0.8485  0.9370
  594MOL0     H81968   7.972   0.985   8.941  0.1216 -0.6538 -0.4579
  594MOL0     H81969   7.720   1.755   8.688  0.5538  0.7160 -0.1891
  594MOL0     H81970   7.623   1.923   8.525  0.6864 -1.2382  1.2054
  594MOL0     H81971   7.458   1.845   8.550 -1.2146  0.7272 -0.0600
  594MOL0     H81972   7.494   2.018   8.563 -1.4741  0.2266 -1.5905
  595MOL0     O81973   9.193   1.595   2.857  0.5323  0.4577  0.6570
  595MOL0     C81974   9.170   1.558   2.747 -0.0854 -0.9061 -0.8748
  595MOL0     O81975   9.046   1.508   2.705 -0.3401  0.5555  1.0310
  595MOL0     C81976   8.930   1.495   2.778  0.6073 -0.5576  0.3318
  595MOL0     C81977   8.902   1.528   2.916 -0.8672  0.7403  0.4663
  595MOL0     C81978   8.772   1.528   2.973  0.1613  0.6494  0.3777
  595MOL0     C81979   8.662   1.509   2.894 -0.2925 -0.2082 -0.2281
  595MOL0     O81980   8.543   1.513   2.967  0.1842  0.1780 -0.1587
  595MOL0     C81981   8.423   1.510   2.888  0.1259  0.5843  0.7614
  595MOL0     C81982   8.302   1.553   2.975  0.6845 -0.7419 -0.3345
  595MOL0     C81983   8.311   1.693   3.041  0.1593  0.2296  0.3178
  595MOL0     C81984   8.192   1.736   3.130 -0.5531 -0.7046 -0.2899
  595MOL0     C81985   8.190   1.889   3.163  0.1180  0.0824  0.1150
  595MOL0     C81986   8.081   1.910   3.252  0.6643 -0.4290 -0.8056
  595MOL0     C81987   8.075   2.052   3.303 -0.1383 -0.6123  0.5575
  595MOL0     C81988   8.163   2.080   3.426 -0.1673  0.5389  0.3676
  595MOL0     N81989   8.128   2.004   3.539 -0.8966  0.2357 -0.2533
  595MOL0     C81990   8.203   1.992   3.657  0.9974  0.0896  0.1079
  595MOL0     C81991   8.137   1.903   3.742  0.3182 -0.4884 -0.7460
  595MOL0     C81992   8.174   1.856   3.888 -0.0429 -0.2445 -0.3605
  595MOL0     C81993   8.304   1.765   3.874 -0.1625 -0.1286  0.2528
  595MOL0     C81994   8.247   1.621   3.845 -0.4169 -1.2731  0.3797
  595MOL0     C81995   8.357   1.522   3.794 -0.3487  0.0666  0.9503
  595MOL0     O81996   8.396   1.552   3.657  0.6481 -0.1709 -0.4876
  595MOL0     C81997   8.491   1.477   3.592 -0.3856 -0.2000 -0.1327
  595MOL0     C81998   8.576   1.381   3.647 -0.0813  0.4033 -0.8496
  595MOL0     C81999   8.668   1.301   3.578  0.0780  0.5713 -0.2406
  595MOL0     C82000   8.749   1.196   3.650 -0.5266 -0.0590 -0.1832
  595MOL0     C82001   8.685   1.326   3.437 -0.3593 -0.9325  0.3480
  595MOL0     C82002   8.793   1.258   3.352 -0.1522 -0.4209  0.1873
  595MOL0     O82003   8.836   1.333   3.250  0.1597  0.3319 -0.5773
  595MOL0     C82004   8.935   1.282   3.166  0.3873 -0.0567 -0.6035
  595MOL0     C82005   9.075   1.293   3.198  0.6946 -1.1180  0.8131
  595MOL0     C82006   9.167   1.237   3.111 -0.2072 -0.1482  0.8558
  595MOL0     C82007   9.127   1.160   2.997 -0.8073 -0.4506  0.4511
  595MOL0     O82008   9.225   1.097   2.919 -0.0760  0.6481 -0.1140
  595MOL0     C82009   9.327   1.183   2.857 -0.5490 -0.0356 -0.0364
  595MOL0     C82010   9.405   1.096   2.748 -0.1325 -0.2481 -0.2337
  595MOL0     C82011   9.527   1.161   2.672  0.0199  0.1031  0.4273
  595MOL0     C82012   9.642   1.153   2.762  0.1081  0.3517 -0.2620
  595MOL0     C82013   9.775   1.201   2.706 -0.2213  0.2311  1.1168
  595MOL0     C82014   9.864   1.100   2.625 -0.4573 -0.6041 -0.7911
  595MOL0     C82015   9.826   1.081   2.479 -0.9899 -0.7044 -0.0027
  595MOL0     C82016   9.883   0.957   2.407 -0.1754  0.2808 -0.1674
  595MOL0    Cl82017  10.067   0.928   2.420  0.4516 -0.1166  0.0177
  595MOL0     C82018   8.991   1.155   2.968  0.4987 -0.4424 -0.0562
  595MOL0     C82019   8.892   1.212   3.056 -0.0037  0.2087  0.1183
  595MOL0     O82020   8.832   1.143   3.384  0.6559  0.0236  0.4162
  595MOL0     C82021   8.597   1.417   3.377  0.5965 -0.8675  0.1555
  595MOL0     C82022   8.501   1.486   3.458  0.6050 -0.3630  0.0703
  595MOL0     N82023   8.026   1.865   3.669 -0.0370  0.2463 -0.3617
  595MOL0     N82024   8.019   1.931   3.563  1.2611 -0.8577  0.3244
  595MOL0     C82025   8.681   1.472   2.765 -0.2615 -0.1174  0.3328
  595MOL0     C82026   8.812   1.475   2.702 -0.8057 -0.3447 -0.8132
  595MOL0     C82027   9.271   1.552   2.638  0.4122  0.9041 -0.9417
  595MOL0     C82028   9.224   1.526   2.503 -0.0641 -0.1435  0.4980
  595MOL0     C82029   9.316   1.504   2.401  0.5835 -0.1775  0.2263
  595MOL0     C82030   9.452   1.513   2.434  0.6583 -0.7025 -0.1433
  595MOL0     O82031   9.543   1.490   2.335  0.0757 -0.4611 -0.9819
  595MOL0     C82032   9.537   1.560   2.213  0.6137 -0.3252 -0.4578
  595MOL0     C82033   9.645   1.536   2.117 -1.1584  0.4841  0.8320
  595MOL0     C82034   9.649   1.389   2.069  0.2236  0.0798  0.5787
  595MOL0     C82035   9.779   1.357   1.992  0.0977 -0.0059  0.1269
  595MOL0     C82036   9.807   1.212   2.001 -0.1696 -0.6886  0.2097
  595MOL0     C82037   9.866   1.103   2.005  0.8118 -0.1552 -0.1619
  595MOL0     C82038   9.502   1.540   2.561  0.7063 -0.0772  0.5608
  595MOL0     C82039   9.414   1.566   2.664  0.0956  0.1578 -0.4180
  595MOL0     C82040   9.480   1.594   2.800 -0.0352  0.3590  0.5177
  595MOL0     H82041   8.988   1.570   2.967  0.2910 -0.6505 -0.2485
  595MOL0     H82042   8.762   1.546   3.080 -1.8517 -2.1955  0.7793
  595MOL0     H82043   8.409   1.408   2.853 -0.7013  0.4584  1.4358
  595MOL0     H82044   8.432   1.564   2.793 -0.2762 -0.5840  0.0446
  595MOL0     H82045   8.209   1.548   2.918  0.0493  0.0260  0.5906
  595MOL0     H82046   8.300   1.471   3.048  0.1229 -1.5448 -1.2309
  595MOL0     H82047   8.404   1.712   3.096  0.8704  0.9851 -1.0909
  595MOL0     H82048   8.314   1.766   2.960  2.0005 -0.3401 -0.1747
  595MOL0     H82049   8.099   1.710   3.077 -0.8559 -0.2123 -0.0005
  595MOL0     H82050   8.202   1.686   3.227  1.2823 -1.0093 -0.6046
  595MOL0     H82051   8.175   1.941   3.068 -0.0499 -0.6639 -0.2803
  595MOL0     H82052   8.286   1.904   3.213  0.8895 -2.2302 -0.5219
  595MOL0     H82053   7.987   1.876   3.207 -1.8131  0.6631  3.0319
  595MOL0     H82054   8.091   1.843   3.338  0.4320 -0.1803 -0.5827
  595MOL0     H82055   7.969   2.075   3.316  0.1108  0.3670  0.9276
  595MOL0     H82056   8.100   2.130   3.231  3.6555 -2.2566 -0.1887
  595MOL0     H82057   8.266   2.055   3.399 -0.8784  0.6355 -2.9201
  595MOL0     H82058   8.155   2.187   3.447  0.2113  1.4561 -3.3320
  595MOL0     H82059   8.295   2.046   3.678 -0.1606  2.7264 -1.1152
  595MOL0     H82060   8.081   1.819   3.931 -0.1643  2.0175  1.5139
  595MOL0     H82061   8.202   1.937   3.956 -1.2515 -0.0397 -0.0943
  595MOL0     H82062   8.360   1.795   3.785 -1.6312 -1.8455 -1.3575
  595MOL0     H82063   8.367   1.758   3.963  0.9115  0.3668 -0.4547
  595MOL0     H82064   8.232   1.580   3.945  3.7436 -2.0793  0.8690
  595MOL0     H82065   8.154   1.627   3.787  0.7544  1.8173 -1.4258
  595MOL0     H82066   8.441   1.516   3.863 -1.6012 -0.2375  2.5237
  595MOL0     H82067   8.333   1.416   3.805  4.6830 -1.4802 -0.3221
  595MOL0     H82068   8.556   1.350   3.749 -0.4567  2.4788 -0.2360
  595MOL0     H82069   8.708   1.176   3.749  0.4610 -4.2896 -0.4606
  595MOL0     H82070   8.852   1.229   3.668  0.2835 -2.1366 -0.6667
  595MOL0     H82071   8.744   1.096   3.607  0.1485 -1.0569  1.9312
  595MOL0     H82072   9.104   1.336   3.293 -4.2068  0.3730  1.8696
  595MOL0     H82073   9.273   1.248   3.132 -0.2968  0.6790  0.9110
  595MOL0     H82074   9.280   1.266   2.806 -3.1061 -1.5620 -0.3436
  595MOL0     H82075   9.397   1.213   2.936 -1.3299  0.4684  0.4710
  595MOL0     H82076   9.441   1.012   2.808  0.4603  0.8947  1.0741
  595MOL0     H82077   9.328   1.058   2.681  0.2807  2.1001 -2.1852
  595MOL0     H82078   9.498   1.262   2.639  0.6350 -0.3321 -1.5673
  595MOL0     H82079   9.550   1.102   2.583  1.8778 -2.1372  2.2823
  595MOL0     H82080   9.647   1.052   2.804 -0.3880 -0.4208 -1.9597
  595MOL0     H82081   9.618   1.220   2.845 -0.4372 -0.8385  0.5642
  595MOL0     H82082   9.746   1.286   2.643  0.6537  0.4121  0.9422
  595MOL0     H82083   9.825   1.237   2.797 -3.6569 -1.1840  3.7908
  595MOL0     H82084   9.877   0.999   2.664  3.3938 -0.3779 -1.1096
  595MOL0     H82085   9.965   1.142   2.621  0.3830 -2.1514  1.8939
  595MOL0     H82086   9.867   1.173   2.437 -1.2377 -0.3944  0.4163
  595MOL0     H82087   9.717   1.091   2.470 -0.9639  1.2268  1.2250
  595MOL0     H82088   9.852   0.958   2.302  1.9339  0.0871 -0.8347
  595MOL0     H82089   9.840   0.867   2.452 -0.2312  0.1972 -0.3903
  595MOL0     H82090   8.976   1.090   2.882  2.7866 -0.7500 -0.2889
  595MOL0     H82091   8.785   1.214   3.043 -0.3186 -0.2534  2.2790
  595MOL0     H82092   8.603   1.454   3.275  0.6294 -1.8423 -0.2132
  595MOL0     H82093   8.434   1.560   3.416  1.6386  2.7561  3.3607
  595MOL0     H82094   8.602   1.439   2.698  0.7646  0.0293 -0.9954
  595MOL0     H82095   8.820   1.444   2.598 -0.3685 -3.1776 -0.0124
  595MOL0     H82096   9.119   1.515   2.479 -0.1893  3.8852 -1.4936
  595MOL0     H82097   9.276   1.485   2.302 -0.8629  2.0402  0.3087
  595MOL0     H82098   9.443   1.525   2.168 -0.9579  2.5899  0.2873
  595MOL0     H82099   9.533   1.669   2.227  1.4441 -0.4810  1.1705
  595MOL0     H82100   9.745   1.553   2.159  0.8185 -1.1540 -2.7394
  595MOL0     H82101   9.625   1.615   2.045 -0.3482 -0.3522 -0.3440
  595MOL0     H82102   9.622   1.319   2.148 -2.6104 -0.3580 -0.6776
  595MOL0     H82103   9.574   1.376   1.991  1.9085 -2.9429 -0.7144
  595MOL0     H82104   9.867   1.410   2.030 -1.0262  0.0416  2.8914
  595MOL0     H82105   9.768   1.376   1.885  2.7988 -3.0388 -0.8483
  595MOL0     H82106   9.909   1.005   2.007 -1.5699 -1.3384 -1.6496
  595MOL0     H82107   9.607   1.564   2.578  0.4431 -1.0190  4.4277
  595MOL0     H82108   9.453   1.696   2.829 -2.4766 -0.5962  1.9135
  595MOL0     H82109   9.435   1.527   2.874 -0.5219  0.3679  0.2331
  595MOL0     H82110   9.583   1.559   2.791  0.5465  1.7957  1.2550
  596MOL0     O82111   9.758   1.156   9.133 -0.3357 -0.3761 -0.3155
  596MOL0     C82112   9.828   1.054   9.144  0.4610  0.5674  0.6078
  596MOL0     O82113   9.914   1.021   9.243  0.2232 -0.0157 -0.2626
  596MOL0     C82114   9.926   1.111   9.349 -0.2367  0.1551  0.3983
  596MOL0     C82115   9.879   1.075   9.477  0.5455  0.5811  0.8505
  596MOL0     C82116   9.877   1.160   9.581 -0.7152 -0.5217 -0.9984
  596MOL0     C82117   9.951   1.285   9.566  0.5316 -0.0287  0.0975
  596MOL0     O82118   9.960   1.369   9.673  0.5898  0.6676 -0.4757
  596MOL0     C82119  10.054   1.479   9.668  0.8674 -0.7188  0.5931
  596MOL0     C82120   9.992   1.610   9.607  0.5924 -0.2421  1.5847
  596MOL0     C82121  10.030   1.728   9.698 -0.1700 -0.5265 -0.0339
  596MOL0     C82122   9.957   1.729   9.828 -0.0133 -0.5920  0.1425
  596MOL0     C82123   9.942   1.874   9.879  0.0475  0.0485 -0.4195
  596MOL0     C82124   9.884   1.889  10.016 -0.3276  0.6666  0.1136
  596MOL0     C82125   9.982   1.858  10.129 -0.3596 -0.3215 -0.7476
  596MOL0     C82126   9.943   1.918  10.269  0.3770 -0.1005 -0.1715
  596MOL0     N82127   9.807   1.883  10.316  0.4437  0.2204 -0.1300
  596MOL0     C82128   9.748   1.758  10.293 -0.0608  0.3548 -0.3286
  596MOL0     C82129   9.639   1.762  10.381 -0.0810  0.4949 -0.4253
  596MOL0     C82130   9.535   1.653  10.395 -0.1012 -0.2595  0.2562
  596MOL0     C82131   9.582   1.517  10.434 -1.3055 -0.9937  0.3994
  596MOL0     C82132   9.466   1.423  10.396 -0.4330 -0.2671  0.0634
  596MOL0     C82133   9.485   1.284  10.463 -0.9119  0.2640  0.2674
  596MOL0     O82134   9.539   1.204  10.353  0.1012 -0.6990 -0.3364
  596MOL0     C82135   9.457   1.149  10.258  0.0222 -1.2785 -0.0669
  596MOL0     C82136   9.516   1.115  10.142  0.0260  0.1289  0.3446
  596MOL0     C82137   9.439   1.044  10.042  0.1046  0.5018 -0.9099
  596MOL0     C82138   9.517   0.990   9.917  0.6946 -0.2417 -0.1669
  596MOL0     C82139   9.300   1.022  10.060  0.6617 -0.1534 -0.3599
  596MOL0     C82140   9.213   0.936   9.964 -0.0592  0.0544 -0.1445
  596MOL0     O82141   9.087   0.916   9.999 -0.0785  0.4849  0.5023
  596MOL0     C82142   9.002   0.854   9.922 -0.2742  0.3023  0.4234
  596MOL0     C82143   8.979   0.884   9.787  0.5022 -0.0722 -0.0680
  596MOL0     C82144   8.884   0.806   9.718 -0.2163 -0.4875 -0.8830
  596MOL0     C82145   8.824   0.696   9.773 -0.3068 -0.0943 -0.6826
  596MOL0     O82146   8.717   0.619   9.721 -0.5164  0.1024  0.3649
  596MOL0     C82147   8.678   0.670   9.589  0.1487  0.3244  0.0031
  596MOL0     C82148   8.566   0.579   9.548  0.4788 -0.8302  0.6024
  596MOL0     C82149   8.598   0.433   9.517  0.1315 -0.0724  0.3175
  596MOL0     C82150   8.652   0.346   9.628  0.1921  1.3967 -0.1026
  596MOL0     C82151   8.686   0.204   9.583  0.2331 -0.3046  0.4738
  596MOL0     C82152   8.774   0.191   9.456 -0.1308  0.3605 -0.2168
  596MOL0     C82153   8.803   0.043   9.424 -0.2165 -0.0996 -0.6338
  596MOL0     C82154   8.673  -0.040   9.407  0.3649 -0.9734  0.4971
  596MOL0    Cl82155   8.537   0.041   9.305  0.1986 -0.2262  0.3226
  596MOL0     C82156   8.855   0.670   9.906 -0.6186 -0.4444 -0.2461
  596MOL0     C82157   8.943   0.750   9.982 -0.4297 -0.8071 -0.7504
  596MOL0     O82158   9.266   0.888   9.861  0.4836 -0.0917  0.2952
  596MOL0     C82159   9.240   1.086  10.171  0.1340  0.0517 -1.1585
  596MOL0     C82160   9.315   1.139  10.275  0.7042  1.0404 -0.4073
  596MOL0     N82161   9.649   1.877  10.463  0.1059  0.3325 -0.2483
  596MOL0     N82162   9.749   1.952  10.425 -0.6082  0.7156 -0.4114
  596MOL0     C82163   9.985   1.326   9.439  0.9764  0.1964 -0.2501
  596MOL0     C82164   9.981   1.235   9.328 -1.1815  0.1263  0.4190
  596MOL0     C82165   9.796   0.950   9.041 -0.3985  0.6799 -0.9582
  596MOL0     C82166   9.745   0.827   9.095 -0.7950 -0.3383  0.0429
  596MOL0     C82167   9.709   0.715   9.022 -0.1375 -0.3727 -0.6398
  596MOL0     C82168   9.710   0.722   8.884  0.1594 -0.2152 -0.7740
  596MOL0     O82169   9.669   0.608   8.814 -0.2767  0.2674 -0.2213
  596MOL0     C82170   9.613   0.626   8.690 -0.0325  0.0024  0.8796
  596MOL0     C82171   9.529   0.492   8.691 -0.0110  0.8756  0.5112
  596MOL0     C82172   9.511   0.439   8.553 -0.5574  0.0265  1.1299
  596MOL0     C82173   9.421   0.306   8.556  0.1461 -0.3721 -0.3208
  596MOL0     C82174   9.393   0.249   8.419  0.4595 -0.0141 -0.6284
  596MOL0     C82175   9.359   0.189   8.315 -0.3458 -0.0208 -0.2261
  596MOL0     C82176   9.755   0.843   8.821  0.4109 -0.0572 -0.0847
  596MOL0     C82177   9.798   0.955   8.896 -0.1767  0.0915  0.1485
  596MOL0     C82178   9.827   1.085   8.827 -0.2375  0.4164 -0.4316
  596MOL0     H82179   9.834   0.978   9.493  0.1238  0.7504  0.6921
  596MOL0     H82180   9.834   1.146   9.680  1.1300  0.7451  0.0435
  596MOL0     H82181  10.142   1.450   9.611 -0.0959 -1.8280 -0.3737
  596MOL0     H82182  10.078   1.491   9.774 -1.2822 -0.9551  1.1478
  596MOL0     H82183  10.040   1.628   9.510  0.8669 -1.3564  1.5039
  596MOL0     H82184   9.886   1.605   9.580  1.0460  1.3227 -0.7210
  596MOL0     H82185  10.138   1.739   9.706 -0.4351  4.4416  0.1258
  596MOL0     H82186   9.995   1.817   9.644  0.9892  0.2633  0.4706
  596MOL0     H82187   9.855   1.692   9.812 -0.4429  0.5891 -0.0039
  596MOL0     H82188  10.012   1.672   9.903  0.5339 -0.8167 -0.4236
  596MOL0     H82189   9.879   1.928   9.807  0.6509  2.9352  1.0632
  596MOL0     H82190  10.038   1.926   9.874  0.3979 -0.5852 -0.3346
  596MOL0     H82191   9.845   1.991  10.020 -2.4041  0.1178 -2.8549
  596MOL0     H82192   9.802   1.817  10.018  2.1007 -2.4267 -1.5211
  596MOL0     H82193  10.074   1.906  10.097 -0.6441  0.4377 -0.4462
  596MOL0     H82194   9.997   1.749  10.132 -2.3893 -0.7258 -2.5038
  596MOL0     H82195  10.020   1.883  10.338  0.9753  2.8530  0.7662
  596MOL0     H82196   9.953   2.026  10.271 -3.1743  0.3540 -0.2260
  596MOL0     H82197   9.775   1.680  10.223 -0.8989 -1.2119  1.0453
  596MOL0     H82198   9.484   1.656  10.299 -2.4497  0.9010  1.4619
  596MOL0     H82199   9.483   1.699  10.480  2.0543  2.7215  0.0968
  596MOL0     H82200   9.673   1.506  10.375 -0.4834 -1.0562  1.6423
  596MOL0     H82201   9.631   1.507  10.531  1.9234  0.5010 -0.9305
  596MOL0     H82202   9.372   1.456  10.442  0.8098  1.3772  1.5420
  596MOL0     H82203   9.444   1.427  10.289  2.8386  1.2446 -0.6782
  596MOL0     H82204   9.561   1.290  10.541  1.4056 -0.0376 -1.8381
  596MOL0     H82205   9.393   1.241  10.503 -2.8535  0.5275 -3.4911
  596MOL0     H82206   9.624   1.123  10.141  0.1732 -1.0017  2.0426
  596MOL0     H82207   9.614   1.041   9.909  2.1593 -2.7212  0.5233
  596MOL0     H82208   9.459   1.003   9.825  1.1429 -0.0481 -0.4269
  596MOL0     H82209   9.543   0.885   9.929 -2.4502 -1.1255 -0.3072
  596MOL0     H82210   9.030   0.963   9.733 -2.3567  1.1971 -1.0911
  596MOL0     H82211   8.875   0.827   9.612  0.4345 -0.8137 -1.0082
  596MOL0     H82212   8.633   0.770   9.592 -0.3265  0.1078  0.3431
  596MOL0     H82213   8.765   0.668   9.524  3.5166 -0.0491  4.0883
  596MOL0     H82214   8.478   0.574   9.612 -1.2708 -4.3251 -1.7492
  596MOL0     H82215   8.530   0.620   9.454 -1.1128  1.0119  1.9352
  596MOL0     H82216   8.680   0.434   9.445  1.5898 -0.4895  1.9091
  596MOL0     H82217   8.514   0.376   9.477 -0.1735 -0.4630  1.4673
  596MOL0     H82218   8.581   0.343   9.711  0.4731  2.5094  0.1956
  596MOL0     H82219   8.742   0.389   9.674 -1.5049  2.6014  2.3190
  596MOL0     H82220   8.724   0.147   9.668 -1.5995  0.9098  2.2150
  596MOL0     H82221   8.592   0.152   9.561 -0.2819  0.5166  0.6813
  596MOL0     H82222   8.870   0.235   9.485 -0.8749 -0.0416  3.2418
  596MOL0     H82223   8.739   0.243   9.365 -1.3608 -2.9354 -1.7953
  596MOL0     H82224   8.871  -0.003   9.497 -0.4820  2.7983  1.6856
  596MOL0     H82225   8.854   0.055   9.328  1.5418 -0.0001  0.2741
  596MOL0     H82226   8.622  -0.051   9.503  0.9406 -0.2221  0.9003
  596MOL0     H82227   8.692  -0.136   9.358 -1.9077  0.7348 -4.4469
  596MOL0     H82228   8.803   0.586   9.953  0.3415 -0.5157  0.7335
  596MOL0     H82229   8.956   0.743  10.090  2.5950 -5.0753 -1.1765
  596MOL0     H82230   9.133   1.078  10.183 -0.0302  0.0895 -2.4177
  596MOL0     H82231   9.258   1.157  10.365 -0.0877  0.6822 -0.8269
  596MOL0     H82232  10.024   1.427   9.433  1.0389  0.2659  1.0410
  596MOL0     H82233  10.008   1.279   9.233 -0.5135  1.1272  1.0466
  596MOL0     H82234   9.741   0.810   9.202  1.0784  1.1954  0.4262
  596MOL0     H82235   9.687   0.618   9.064 -1.3149  0.4467  0.7730
  596MOL0     H82236   9.543   0.710   8.681  1.7222  1.3423 -1.5103
  596MOL0     H82237   9.686   0.630   8.609 -0.7698 -0.2856  0.1761
  596MOL0     H82238   9.438   0.525   8.741  1.0921  0.3171  3.0311
  596MOL0     H82239   9.574   0.420   8.760  0.0301 -0.0116 -0.4143
  596MOL0     H82240   9.474   0.516   8.485  1.2512  0.6923  0.8419
  596MOL0     H82241   9.610   0.413   8.514  0.8695  5.1879  0.6042
  596MOL0     H82242   9.326   0.339   8.598  0.7582  1.4399 -0.2915
  596MOL0     H82243   9.465   0.234   8.626  0.6442 -0.8042 -1.0526
  596MOL0     H82244   9.347   0.120   8.234 -1.2434  0.9189 -0.9215
  596MOL0     H82245   9.746   0.867   8.715  3.3854  1.0490 -0.1978
  596MOL0     H82246   9.738   1.149   8.823 -0.5519 -0.0512 -1.0772
  596MOL0     H82247   9.896   1.133   8.897 -1.1757 -0.6632  1.3083
  596MOL0     H82248   9.875   1.064   8.732  1.2470  3.5745 -0.5038
  597MOL0     O82249  11.074   2.335   1.824  0.0319 -0.7603 -0.0036
  597MOL0     C82250  11.008   2.247   1.879 -0.5002  0.6453 -0.8477
  597MOL0     O82251  10.963   2.249   2.010  0.3787 -0.1758  0.6799
  597MOL0     C82252  10.976   2.368   2.074  0.3012  0.1934  0.1570
  597MOL0     C82253  10.863   2.447   2.091  0.3293  0.0249 -0.4773
  597MOL0     C82254  10.871   2.572   2.164  0.1733  0.5018 -1.2727
  597MOL0     C82255  10.993   2.620   2.216  0.6148 -0.4969 -0.2266
  597MOL0     O82256  10.983   2.729   2.300  0.1404 -0.2777  0.2999
  597MOL0     C82257  11.086   2.746   2.401  0.2061  0.3751  0.6403
  597MOL0     C82258  11.038   2.865   2.482  0.8244 -0.8082  0.4143
  597MOL0     C82259  11.122   2.892   2.602 -0.1613  0.4788  0.0546
  597MOL0     C82260  11.103   3.031   2.663 -0.0599 -1.0560 -0.7349
  597MOL0     C82261  11.214   3.075   2.752  0.1051  1.2395 -0.8124
  597MOL0     C82262  11.228   3.222   2.761 -0.2018  0.3099 -0.5854
  597MOL0     C82263  11.320   3.254   2.879 -0.1526  0.1228 -0.3504
  597MOL0     C82264  11.360   3.402   2.904  0.2847  0.4046 -0.1739
  597MOL0     N82265  11.449   3.422   3.021  0.2646  0.5295  0.3823
  597MOL0     C82266  11.414   3.496   3.132 -0.5079  0.9521  0.0762
  597MOL0     C82267  11.537   3.506   3.193 -0.6647 -1.0932 -0.3759
  597MOL0     C82268  11.567   3.585   3.316 -0.5303 -0.5385 -0.0632
  597MOL0     C82269  11.654   3.528   3.431 -1.1355  0.4386  0.7922
  597MOL0     C82270  11.803   3.538   3.411 -0.4328 -0.4302  0.2045
  597MOL0     C82271  11.867   3.478   3.527  0.1849  0.3766 -0.0393
  597MOL0     O82272  11.820   3.541   3.645 -0.4223  0.0038  0.6400
  597MOL0     C82273  11.873   3.495   3.761  0.2827  0.3370  0.6287
  597MOL0     C82274  11.885   3.351   3.780  0.5691 -1.7014  0.1317
  597MOL0     C82275  11.931   3.289   3.900 -0.2183  0.0270  0.3234
  597MOL0     C82276  11.957   3.141   3.904  0.4590 -0.3858 -0.2491
  597MOL0     C82277  11.941   3.381   4.010 -0.0145  0.1320  0.0653
  597MOL0     C82278  11.968   3.339   4.145  0.4972  0.4254 -0.4122
  597MOL0     O82279  12.033   3.420   4.227 -0.3316  0.2581 -0.2648
  597MOL0     C82280  12.056   3.373   4.353  0.0995  1.2932  0.2388
  597MOL0     C82281  12.161   3.290   4.386  0.7605  0.4498  0.0230
  597MOL0     C82282  12.186   3.270   4.520 -0.7317  0.2578  0.4069
  597MOL0     C82283  12.108   3.311   4.621 -0.2899  0.9449  0.6918
  597MOL0     O82284  12.109   3.277   4.752 -1.0848 -0.2984  0.3406
  597MOL0     C82285  12.154   3.145   4.800 -0.0526 -0.5031  0.3194
  597MOL0     C82286  12.176   3.150   4.949 -0.0151  0.0165  0.2024
  597MOL0     C82287  12.046   3.192   5.030  0.7278 -0.6712 -0.4565
  597MOL0     C82288  12.067   3.199   5.183 -0.5508 -1.1020 -0.4394
  597MOL0     C82289  11.940   3.183   5.254 -0.4514 -0.2291 -0.1469
  597MOL0     C82290  11.962   3.163   5.403 -0.2992  0.6371 -1.0374
  597MOL0     C82291  12.014   3.296   5.465  0.8806 -0.1435  0.7042
  597MOL0     C82292  12.001   3.293   5.619 -0.0245 -0.9609 -0.1068
  597MOL0    Cl82293  12.111   3.408   5.698  0.0800 -0.1912  0.0135
  597MOL0     C82294  12.001   3.383   4.589  1.1453 -1.1476  0.1772
  597MOL0     C82295  11.975   3.422   4.456  0.4811 -0.4817 -0.3876
  597MOL0     O82296  11.943   3.218   4.164 -0.0212 -0.3591  0.2476
  597MOL0     C82297  11.915   3.515   3.993 -0.3267  0.3654  0.3702
  597MOL0     C82298  11.876   3.571   3.871 -0.1246 -0.0688 -0.1315
  597MOL0     N82299  11.636   3.443   3.127 -0.0595 -0.0674 -0.3259
  597MOL0     N82300  11.580   3.396   3.018 -0.4275  0.1375 -0.9482
  597MOL0     C82301  11.101   2.527   2.212 -0.0300 -0.2653 -0.8277
  597MOL0     C82302  11.095   2.407   2.141  0.0722 -0.5323 -0.1684
  597MOL0     C82303  10.972   2.127   1.805  0.1763 -0.1163  0.8728
  597MOL0     C82304  10.893   2.036   1.869 -0.1807  0.4260  0.0809
  597MOL0     C82305  10.875   1.907   1.814  0.0813  0.0831  0.2020
  597MOL0     C82306  10.928   1.867   1.689 -0.7387 -1.2424 -0.2738
  597MOL0     O82307  10.908   1.744   1.634  0.4061  0.0924 -0.2208
  597MOL0     C82308  10.788   1.674   1.661  0.5124 -0.5024 -0.1947
  597MOL0     C82309  10.766   1.555   1.568  0.0523 -0.1453 -0.1566
  597MOL0     C82310  10.778   1.590   1.423  0.0607 -0.6086 -0.0001
  597MOL0     C82311  10.691   1.711   1.380  0.6176 -0.5281 -0.4465
  597MOL0     C82312  10.553   1.684   1.417  0.3062 -0.0857  0.5196
  597MOL0     C82313  10.432   1.679   1.434  0.4296 -0.5769  1.3130
  597MOL0     C82314  10.985   1.966   1.614 -0.8941  0.1130 -0.6967
  597MOL0     C82315  11.011   2.095   1.662  0.1635  0.3545 -0.8184
  597MOL0     C82316  11.073   2.198   1.563  0.4062 -0.1205  0.5266
  597MOL0     H82317  10.768   2.411   2.054  1.0785 -0.8487 -1.6439
  597MOL0     H82318  10.790   2.642   2.179  1.9792  2.5848 -0.6546
  597MOL0     H82319  11.183   2.767   2.355  1.6220  3.0351  4.3391
  597MOL0     H82320  11.100   2.654   2.458 -0.8871  1.7087  3.2327
  597MOL0     H82321  11.048   2.955   2.421  1.9205 -0.3664  1.2062
  597MOL0     H82322  10.933   2.844   2.503  0.4645  0.7709  0.2847
  597MOL0     H82323  11.086   2.827   2.682 -0.9648 -0.0002 -0.6852
  597MOL0     H82324  11.226   2.864   2.583  0.1742 -0.1427  2.4849
  597MOL0     H82325  11.097   3.100   2.578 -2.3657  0.0580  0.2365
  597MOL0     H82326  11.007   3.021   2.715  0.0746 -0.3234 -0.3313
  597MOL0     H82327  11.304   3.023   2.716 -2.6130 -2.1594 -3.4429
  597MOL0     H82328  11.203   3.032   2.852 -2.2611 -0.3540 -1.6770
  597MOL0     H82329  11.268   3.261   2.667 -0.2277 -0.8285 -1.0809
  597MOL0     H82330  11.124   3.254   2.772 -0.7773 -2.0275  1.9409
  597MOL0     H82331  11.418   3.208   2.865  2.1328  4.6478 -1.0442
  597MOL0     H82332  11.264   3.227   2.969  2.1351  1.5319  1.6116
  597MOL0     H82333  11.398   3.439   2.808 -2.1619  2.5240 -0.4494
  597MOL0     H82334  11.271   3.463   2.921 -0.4830 -0.9036  0.5726
  597MOL0     H82335  11.316   3.536   3.156 -0.5007  0.8795  0.2359
  597MOL0     H82336  11.469   3.602   3.362 -1.3978 -2.3236 -1.1614
  597MOL0     H82337  11.609   3.683   3.292  0.0692 -0.8497 -0.3184
  597MOL0     H82338  11.636   3.582   3.524  2.1890  1.8781  0.7425
  597MOL0     H82339  11.623   3.423   3.434 -3.6169  1.1410  2.1748
  597MOL0     H82340  11.829   3.475   3.325 -1.8214  0.0343 -0.5856
  597MOL0     H82341  11.842   3.636   3.382  1.0050 -1.1645 -0.5044
  597MOL0     H82342  11.838   3.373   3.513  0.8091  0.5827 -4.1810
  597MOL0     H82343  11.974   3.497   3.512  0.9655 -1.7593  2.1928
  597MOL0     H82344  11.868   3.280   3.700 -1.6654 -0.7120 -0.3619
  597MOL0     H82345  11.890   3.087   3.972  1.0355  1.1607  1.6250
  597MOL0     H82346  12.058   3.124   3.944 -1.1381 -0.2984  4.3685
  597MOL0     H82347  11.938   3.093   3.807 -2.7278 -0.9077  0.5215
  597MOL0     H82348  12.228   3.250   4.311  0.8676 -1.1599  0.9240
  597MOL0     H82349  12.273   3.208   4.538 -0.8222  0.0060 -0.0060
  597MOL0     H82350  12.078   3.069   4.782 -2.2011  0.9234  2.7194
  597MOL0     H82351  12.247   3.121   4.746 -0.4145  1.2021 -1.1628
  597MOL0     H82352  12.209   3.050   4.978 -1.2922 -0.0762  1.4190
  597MOL0     H82353  12.248   3.226   4.982 -2.6390  2.1346  1.4884
  597MOL0     H82354  11.968   3.123   4.997  2.6690 -2.1217 -2.2598
  597MOL0     H82355  12.001   3.284   4.991 -1.1750 -0.8452  1.1542
  597MOL0     H82356  12.134   3.279   5.215 -0.3010 -1.3869 -0.2467
  597MOL0     H82357  12.119   3.106   5.206  1.6256 -0.4296 -2.3550
  597MOL0     H82358  11.879   3.273   5.240 -0.9665 -0.3818  0.9717
  597MOL0     H82359  11.883   3.104   5.204  0.1166 -0.1821 -0.8855
  597MOL0     H82360  12.035   3.082   5.415 -2.1209 -1.3213 -2.3702
  597MOL0     H82361  11.868   3.136   5.452 -1.6168 -1.8968 -4.5468
  597MOL0     H82362  11.951   3.379   5.433  1.1548  0.7498  2.3720
  597MOL0     H82363  12.118   3.299   5.431  1.9579 -2.7772  3.3345
  597MOL0     H82364  12.022   3.196   5.665  1.2156 -0.7347 -0.1541
  597MOL0     H82365  11.897   3.312   5.644 -0.0832 -2.2853  0.7665
  597MOL0     H82366  11.938   3.434   4.661  2.4774  2.3388 -0.9073
  597MOL0     H82367  11.891   3.490   4.452  0.6021 -0.3491 -0.6982
  597MOL0     H82368  11.925   3.589   4.073 -0.3807  0.4556  0.2938
  597MOL0     H82369  11.862   3.678   3.861 -2.0622 -0.0823  1.7538
  597MOL0     H82370  11.196   2.556   2.256 -0.0156  1.1149 -1.6876
  597MOL0     H82371  11.182   2.344   2.152  0.7061  0.3441 -0.0960
  597MOL0     H82372  10.847   2.059   1.964  0.2694  0.0250  0.3989
  597MOL0     H82373  10.829   1.826   1.870  0.2497  2.2458  3.7136
  597MOL0     H82374  10.799   1.637   1.763 -1.4712 -1.1330 -0.1694
  597MOL0     H82375  10.700   1.739   1.654 -0.2875 -1.3063  1.6964
  597MOL0     H82376  10.668   1.513   1.592 -0.2507 -2.1222 -4.0556
  597MOL0     H82377  10.848   1.487   1.593 -0.8974 -0.8808  1.0546
  597MOL0     H82378  10.880   1.621   1.398 -0.6093  1.8786  0.1325
  597MOL0     H82379  10.764   1.506   1.355  0.4389  0.9361 -2.0858
  597MOL0     H82380  10.691   1.730   1.272  0.6234 -2.1820 -0.7516
  597MOL0     H82381  10.715   1.806   1.431 -2.3708 -0.7433  1.5981
  597MOL0     H82382  10.328   1.663   1.451  0.8541 -2.4749  2.4079
  597MOL0     H82383  11.018   1.949   1.512  1.4353  0.3341 -0.0433
  597MOL0     H82384  11.014   2.289   1.553 -1.8887 -1.3907  1.6461
  597MOL0     H82385  11.168   2.236   1.601  0.1882  2.6944 -1.4214
  597MOL0     H82386  11.095   2.155   1.464 -5.1987 -0.2502 -1.0167
  598MOL0     O82387  11.167   2.292   5.643  0.4980  0.5998  0.4289
  598MOL0     C82388  11.209   2.397   5.583 -0.0775 -0.3803 -0.8221
  598MOL0     O82389  11.128   2.503   5.559 -0.2872  0.3636  0.0907
  598MOL0     C82390  11.004   2.523   5.609  0.1376  0.5870  0.2141
  598MOL0     C82391  10.952   2.646   5.566 -0.2985  0.9630  0.6041
  598MOL0     C82392  10.822   2.693   5.603 -0.8507 -1.1733 -0.0314
  598MOL0     C82393  10.749   2.611   5.685 -0.6638 -0.5305  0.1219
  598MOL0     O82394  10.627   2.664   5.720 -0.0150  0.3842 -0.5633
  598MOL0     C82395  10.544   2.576   5.800 -0.6956 -0.6401  0.2379
  598MOL0     C82396  10.406   2.646   5.799  0.1749  0.4124 -1.6720
  598MOL0     C82397  10.298   2.597   5.902 -0.1089 -0.5054  0.3053
  598MOL0     C82398  10.225   2.496   5.824  0.3589 -0.6654 -0.1763
  598MOL0     C82399  10.094   2.450   5.901 -0.0652  0.5477  0.1727
  598MOL0     C82400  10.006   2.358   5.806  0.6955  0.3355 -0.6384
  598MOL0     C82401   9.862   2.335   5.874  0.6849 -0.3312 -0.6254
  598MOL0     C82402   9.776   2.221   5.824  0.4691 -0.1475  0.1956
  598MOL0     N82403   9.690   2.259   5.707 -0.0090  0.3321 -0.3589
  598MOL0     C82404   9.560   2.300   5.709 -0.0531  0.5050  0.2882
  598MOL0     C82405   9.522   2.310   5.575 -0.9447  1.0837 -0.6326
  598MOL0     C82406   9.386   2.329   5.522  0.3144 -0.2885  0.8055
  598MOL0     C82407   9.339   2.477   5.538  0.3974  0.4404  0.4237
  598MOL0     C82408   9.421   2.592   5.483 -0.2210  0.3085  0.5959
  598MOL0     C82409   9.439   2.581   5.333  0.4103  1.0081  0.1455
  598MOL0     O82410   9.323   2.570   5.252  0.7225 -0.8416 -0.0454
  598MOL0     C82411   9.258   2.680   5.218  0.7219 -0.9196 -0.1892
  598MOL0     C82412   9.293   2.813   5.236  0.0364  0.1430 -0.2522
  598MOL0     C82413   9.213   2.920   5.228 -0.3591  0.0025 -0.3618
  598MOL0     C82414   9.258   3.065   5.257 -0.0262  0.3722 -0.3330
  598MOL0     C82415   9.074   2.895   5.197 -0.3732 -0.1084 -0.4515
  598MOL0     C82416   8.969   2.996   5.213  0.0665  0.2950  0.5410
  598MOL0     O82417   8.877   3.025   5.116  0.0495 -0.1945  0.2933
  598MOL0     C82418   8.812   3.147   5.129 -0.1455 -0.1206  0.9424
  598MOL0     C82419   8.678   3.136   5.133 -0.4406 -1.0169  0.5132
  598MOL0     C82420   8.600   3.255   5.158 -0.3618 -1.6136  0.3062
  598MOL0     C82421   8.669   3.380   5.152  0.0485 -0.2683  0.3796
  598MOL0     O82422   8.620   3.510   5.173  0.7354  0.6911  0.3373
  598MOL0     C82423   8.476   3.518   5.184  0.7008  0.4222  0.1510
  598MOL0     C82424   8.444   3.657   5.215 -0.0169  0.0444 -0.3806
  598MOL0     C82425   8.516   3.719   5.338 -0.5525 -0.1003 -0.4045
  598MOL0     C82426   8.506   3.869   5.336 -0.1761 -0.7536  0.1826
  598MOL0     C82427   8.597   3.934   5.453 -0.4937 -0.4954 -0.0938
  598MOL0     C82428   8.746   3.952   5.412  0.3643 -1.1199  0.2155
  598MOL0     C82429   8.799   4.092   5.358 -0.0101  0.5719  0.7724
  598MOL0     C82430   8.936   4.064   5.294  1.1097 -0.3402  0.0686
  598MOL0    Cl82431   9.025   4.208   5.217  0.6701  0.2821 -0.1639
  598MOL0     C82432   8.810   3.389   5.139 -0.7771 -0.7975  0.0307
  598MOL0     C82433   8.881   3.265   5.138 -0.1541 -0.2799  1.0043
  598MOL0     O82434   8.966   3.044   5.328  0.6672  0.0478  0.0630
  598MOL0     C82435   9.040   2.770   5.161 -1.2479 -0.3703 -0.3451
  598MOL0     C82436   9.129   2.667   5.184  0.7332  0.4937  1.0111
  598MOL0     N82437   9.633   2.279   5.500 -0.5848 -0.2835 -0.4226
  598MOL0     N82438   9.733   2.258   5.582  1.2190  0.3724 -0.5398
  598MOL0     C82439  10.799   2.491   5.731 -0.1408 -0.7519  0.3607
  598MOL0     C82440  10.930   2.451   5.692  0.0168  0.9827  0.0079
  598MOL0     C82441  11.362   2.411   5.579  0.3708 -0.2599 -0.7141
  598MOL0     C82442  11.418   2.530   5.624  0.1874  0.3039  0.6041
  598MOL0     C82443  11.551   2.548   5.618  0.2559 -0.5618 -0.8022
  598MOL0     C82444  11.643   2.438   5.610 -0.2788  0.6937 -0.2307
  598MOL0     O82445  11.778   2.468   5.625 -0.9143  0.1435 -0.1392
  598MOL0     C82446  11.872   2.367   5.591 -0.0940  0.0502  0.4416
  598MOL0     C82447  11.898   2.263   5.705 -0.5419 -0.2787 -0.3111
  598MOL0     C82448  11.996   2.155   5.663  0.2792 -0.1963 -1.2092
  598MOL0     C82449  12.047   2.069   5.780 -0.4377 -0.2507  0.0116
  598MOL0     C82450  11.932   2.001   5.845 -0.8425  0.4045  0.9968
  598MOL0     C82451  11.840   1.934   5.880  0.7219 -0.3927  0.1209
  598MOL0     C82452  11.585   2.309   5.584 -0.5313  0.5509  0.1715
  598MOL0     C82453  11.444   2.298   5.562 -0.2653 -0.1334 -0.3085
  598MOL0     C82454  11.390   2.164   5.512  0.4491  0.8133 -0.7908
  598MOL0     H82455  11.016   2.705   5.500  0.0438  0.0045  0.0618
  598MOL0     H82456  10.793   2.793   5.573  1.7800 -0.4165 -0.2548
  598MOL0     H82457  10.592   2.576   5.898 -0.0404  0.1942 -0.0701
  598MOL0     H82458  10.521   2.479   5.755 -0.5447  0.9176 -3.6566
  598MOL0     H82459  10.431   2.749   5.826  1.3629  0.1833 -1.8607
  598MOL0     H82460  10.364   2.646   5.698 -0.3091 -3.4547 -1.6353
  598MOL0     H82461  10.352   2.561   5.990  0.2013  0.9791  0.7448
  598MOL0     H82462  10.238   2.685   5.926 -0.3272  0.1379 -2.2891
  598MOL0     H82463  10.187   2.536   5.729 -1.1261 -3.3551 -0.8514
  598MOL0     H82464  10.287   2.410   5.795 -0.2182 -1.4378  0.8178
  598MOL0     H82465  10.034   2.540   5.914 -0.1779  0.5248 -0.1860
  598MOL0     H82466  10.112   2.398   5.996 -0.2166  3.0634  1.6614
  598MOL0     H82467   9.996   2.394   5.704 -2.6667  0.9326 -0.2220
  598MOL0     H82468  10.048   2.257   5.814 -0.6117 -0.2582 -1.0031
  598MOL0     H82469   9.798   2.423   5.883  1.5902  0.2789  0.0238
  598MOL0     H82470   9.878   2.300   5.976 -2.5139 -1.3573 -0.3871
  598MOL0     H82471   9.856   2.152   5.796  1.6190  0.2596  2.2903
  598MOL0     H82472   9.708   2.186   5.901  2.7736 -1.6408  1.6621
  598MOL0     H82473   9.499   2.319   5.796  1.8302 -1.4890  2.1566
  598MOL0     H82474   9.307   2.280   5.579  0.6831  2.6757  4.2742
  598MOL0     H82475   9.389   2.293   5.419  1.0874 -1.2463  1.1452
  598MOL0     H82476   9.238   2.499   5.502 -0.7958  3.3630  4.7127
  598MOL0     H82477   9.322   2.494   5.645 -0.3673 -1.6137  0.6813
  598MOL0     H82478   9.366   2.686   5.494  0.6911  0.9949 -0.5149
  598MOL0     H82479   9.518   2.608   5.531  0.3201  0.0049 -0.3546
  598MOL0     H82480   9.492   2.673   5.305  0.0296  2.0185  2.5163
  598MOL0     H82481   9.493   2.488   5.311  0.6852  1.2380 -0.1531
  598MOL0     H82482   9.396   2.828   5.267 -0.6095  2.6388  0.9030
  598MOL0     H82483   9.366   3.071   5.272 -0.4664  3.4003  2.9772
  598MOL0     H82484   9.214   3.095   5.352  1.9347 -1.2066  1.1744
  598MOL0     H82485   9.221   3.139   5.185  0.5432  1.6142  0.6132
  598MOL0     H82486   8.645   3.033   5.143  1.7633 -2.0386 -1.5984
  598MOL0     H82487   8.496   3.240   5.184 -0.5001 -1.9999 -0.4648
  598MOL0     H82488   8.420   3.484   5.097 -0.4561 -0.7643  1.3262
  598MOL0     H82489   8.434   3.454   5.262 -1.1398  2.8044  1.2234
  598MOL0     H82490   8.467   3.721   5.129 -1.7533  0.1575 -0.8044
  598MOL0     H82491   8.336   3.646   5.230  0.4806 -1.5399  2.9407
  598MOL0     H82492   8.620   3.687   5.329  0.2160  1.8927  0.7602
  598MOL0     H82493   8.492   3.670   5.432  0.5106 -0.8518 -0.5042
  598MOL0     H82494   8.400   3.892   5.343 -1.1615 -5.0690  2.6054
  598MOL0     H82495   8.544   3.910   5.242  2.8558 -2.2604  0.6170
  598MOL0     H82496   8.559   4.025   5.501  2.6219 -0.5904  2.8841
  598MOL0     H82497   8.586   3.855   5.528 -2.3092  0.9315  1.2444
  598MOL0     H82498   8.776   3.867   5.350  4.3719  1.1511 -1.3346
  598MOL0     H82499   8.802   3.944   5.506  0.5396  0.4486  0.2657
  598MOL0     H82500   8.810   4.161   5.442  0.4931  4.8716 -2.4713
  598MOL0     H82501   8.735   4.127   5.276  3.1001  0.8846 -1.6907
  598MOL0     H82502   8.920   3.994   5.213  3.6591 -2.0137  0.9058
  598MOL0     H82503   8.999   4.022   5.373 -0.5317 -0.1390  1.5709
  598MOL0     H82504   8.854   3.488   5.132 -1.2532 -0.6732 -1.6789
  598MOL0     H82505   8.988   3.268   5.122 -0.2311  1.6406  0.6114
  598MOL0     H82506   8.943   2.733   5.128 -0.2419 -2.1575 -1.4876
  598MOL0     H82507   9.102   2.561   5.186  3.7927 -0.6181 -2.9557
  598MOL0     H82508  10.739   2.425   5.793  2.0719 -3.3542 -0.0932
  598MOL0     H82509  10.972   2.369   5.749  0.4130  0.9455 -0.3397
  598MOL0     H82510  11.370   2.625   5.646 -1.3181 -0.2968  0.0669
  598MOL0     H82511  11.577   2.653   5.613 -2.7059  0.4312  1.5410
  598MOL0     H82512  11.830   2.318   5.502 -0.8524  1.9257 -0.2803
  598MOL0     H82513  11.970   2.408   5.565  0.7257 -1.4099  1.0976
  598MOL0     H82514  11.812   2.207   5.743 -0.9200  1.0818  0.9063
  598MOL0     H82515  11.919   2.316   5.798 -2.4878 -0.1566  0.0963
  598MOL0     H82516  11.963   2.093   5.579  0.9174  1.0053 -2.3829
  598MOL0     H82517  12.088   2.205   5.632  0.6044  0.5226  0.7771
  598MOL0     H82518  12.091   2.134   5.856 -0.2767 -1.7273  1.2265
  598MOL0     H82519  12.118   1.992   5.749 -1.5446 -1.7610  1.1176
  598MOL0     H82520  11.770   1.866   5.923  0.6046  0.5377  1.4588
  598MOL0     H82521  11.651   2.223   5.579  0.9671  1.7097 -1.0414
  598MOL0     H82522  11.470   2.096   5.480 -1.0443 -1.2813 -0.3409
  598MOL0     H82523  11.334   2.116   5.593 -0.8876 -1.2060 -2.8068
  598MOL0     H82524  11.320   2.172   5.429  1.9719 -2.3055 -2.5575
  599MOL0     O82525   3.115   4.004   7.848 -0.6093 -0.1587 -0.2595
  599MOL0     C82526   3.061   3.896   7.842 -0.2104  0.3939  0.6838
  599MOL0     O82527   3.086   3.810   7.740 -0.9622  0.7521 -0.3890
  599MOL0     C82528   3.185   3.836   7.648  0.5152  0.8970  0.4794
  599MOL0     C82529   3.135   3.881   7.526  0.9911  0.0361 -0.0165
  599MOL0     C82530   3.226   3.917   7.428  0.2229 -0.1069  0.3150
  599MOL0     C82531   3.366   3.901   7.447  0.4340  0.0348  0.5605
  599MOL0     O82532   3.445   3.927   7.336 -0.0747 -0.0763 -0.4414
  599MOL0     C82533   3.584   3.907   7.345  0.1043  0.4011  0.1493
  599MOL0     C82534   3.661   3.980   7.243 -0.4272 -0.6478 -1.2414
  599MOL0     C82535   3.644   4.138   7.255 -0.5564  1.2257 -0.1612
  599MOL0     C82536   3.759   4.216   7.199  0.3561 -0.4073  0.3512
  599MOL0     C82537   3.775   4.190   7.050 -0.3566  0.6894  0.9328
  599MOL0     C82538   3.867   4.295   6.977  0.7583  0.2978  0.1337
  599MOL0     C82539   3.775   4.401   6.922  0.0411  0.2180  0.3315
  599MOL0     C82540   3.836   4.532   6.869  0.2946  0.4898  0.4300
  599MOL0     N82541   3.924   4.600   6.969  0.4400 -0.2078 -1.1779
  599MOL0     C82542   4.057   4.608   6.973  0.5898  0.0058  0.1506
  599MOL0     C82543   4.099   4.677   7.078 -0.3269 -0.7436  0.3138
  599MOL0     C82544   4.246   4.701   7.098  0.7312  0.6958 -0.1612
  599MOL0     C82545   4.315   4.569   7.114 -0.8295 -0.4429 -1.1392
  599MOL0     C82546   4.279   4.484   7.240  0.2603 -0.1348 -0.3081
  599MOL0     C82547   4.285   4.551   7.378 -0.3051  0.1572  0.3761
  599MOL0     O82548   4.425   4.573   7.406  0.3874 -0.1405 -0.3480
  599MOL0     C82549   4.452   4.612   7.536 -0.3703  0.0547 -0.8077
  599MOL0     C82550   4.492   4.744   7.563  0.3063  0.3836  0.7636
  599MOL0     C82551   4.536   4.782   7.689  0.0517  0.0053 -1.0940
  599MOL0     C82552   4.568   4.927   7.709 -1.0987 -1.1979 -0.9097
  599MOL0     C82553   4.543   4.685   7.797  1.1744  0.0345 -0.1423
  599MOL0     C82554   4.591   4.703   7.934  0.3078 -0.6419  0.1691
  599MOL0     O82555   4.596   4.829   7.977 -0.1834 -0.7623 -0.1837
  599MOL0     C82556   4.657   4.863   8.097  0.9927 -0.1419 -0.2137
  599MOL0     C82557   4.598   4.956   8.177  0.0187 -0.6812  0.6987
  599MOL0     C82558   4.661   5.002   8.296  0.2220  0.0092 -0.1551
  599MOL0     C82559   4.778   4.948   8.339 -0.0834  0.8607  0.0706
  599MOL0     O82560   4.836   5.002   8.456  0.4060 -1.0326  0.7083
  599MOL0     C82561   4.976   5.012   8.457 -0.3066 -0.0190  1.2172
  599MOL0     C82562   5.028   4.915   8.559  0.1323 -0.7627 -0.0210
  599MOL0     C82563   5.182   4.942   8.586 -0.2940  0.4038 -0.4927
  599MOL0     C82564   5.215   5.089   8.638 -1.8323 -0.4297  0.0386
  599MOL0     C82565   5.136   5.124   8.760  0.8037  0.3953  0.2999
  599MOL0     C82566   5.118   5.008   8.855 -0.0745 -0.0504 -0.3902
  599MOL0     C82567   5.023   5.061   8.973  0.9188  0.5254  0.8185
  599MOL0     C82568   5.004   4.951   9.074 -0.1166  0.1029  1.3448
  599MOL0    Cl82569   4.915   5.011   9.220  0.1592 -0.2021  0.0149
  599MOL0     C82570   4.836   4.849   8.258 -0.4301 -0.3985  0.7923
  599MOL0     C82571   4.785   4.816   8.131  0.8545  0.3038 -0.9267
  599MOL0     O82572   4.610   4.609   7.994  0.4350 -0.2918 -0.3177
  599MOL0     C82573   4.498   4.557   7.765  0.9538 -0.7131  0.0822
  599MOL0     C82574   4.451   4.523   7.638 -0.1237  0.8273 -0.6206
  599MOL0     N82575   3.987   4.716   7.147 -0.1277  0.3869  0.5315
  599MOL0     N82576   3.882   4.681   7.081 -0.1610 -0.1536 -0.7621
  599MOL0     C82577   3.410   3.860   7.578 -0.1819  0.2270  0.2026
  599MOL0     C82578   3.321   3.826   7.672  0.6531 -0.4326 -0.5213
  599MOL0     C82579   2.942   3.849   7.932  0.8243  0.4557 -0.0587
  599MOL0     C82580   2.834   3.767   7.882 -0.4052 -0.9852 -0.7328
  599MOL0     C82581   2.725   3.735   7.966 -0.4753  0.6207  0.5978
  599MOL0     C82582   2.713   3.781   8.091  0.2189  0.4115  0.0173
  599MOL0     O82583   2.610   3.762   8.175 -0.4313  0.2820 -0.8548
  599MOL0     C82584   2.479   3.762   8.115  0.5945 -0.9065 -0.4846
  599MOL0     C82585   2.365   3.801   8.218 -0.4250  0.3969  0.6256
  599MOL0     C82586   2.396   3.938   8.276 -0.4926 -0.2686  1.2025
  599MOL0     C82587   2.326   3.987   8.393 -0.2357 -0.4735 -0.3969
  599MOL0     C82588   2.196   4.038   8.372 -0.2046  0.5225  0.2864
  599MOL0     C82589   2.079   4.078   8.360  0.0389 -0.1177 -0.0861
  599MOL0     C82590   2.823   3.843   8.147 -0.6537  0.0383 -0.8539
  599MOL0     C82591   2.938   3.877   8.071  0.0219  0.7801  0.0675
  599MOL0     C82592   3.055   3.931   8.154  0.2228  1.2520  0.5260
  599MOL0     H82593   3.028   3.886   7.507  0.6344  1.2190  2.0048
  599MOL0     H82594   3.193   3.945   7.328  3.5015 -1.9632 -1.4710
  599MOL0     H82595   3.604   3.801   7.328 -1.2956  0.0878  0.3267
  599MOL0     H82596   3.620   3.912   7.448 -1.2722  0.4378  0.6465
  599MOL0     H82597   3.768   3.965   7.263  0.0420  3.7767  0.7616
  599MOL0     H82598   3.625   3.941   7.148  1.0436 -1.6808 -1.4122
  599MOL0     H82599   3.551   4.173   7.209 -1.2727  0.9182  1.0051
  599MOL0     H82600   3.645   4.162   7.361 -0.7202  0.5367  0.0013
  599MOL0     H82601   3.735   4.320   7.222  1.3529 -0.4240  1.6148
  599MOL0     H82602   3.846   4.195   7.262 -1.6516 -3.8532  2.2597
  599MOL0     H82603   3.686   4.178   6.988  1.8470 -0.4369 -2.2541
  599MOL0     H82604   3.822   4.092   7.037  0.8693  1.6829 -3.7891
  599MOL0     H82605   3.936   4.346   7.045  1.1362  1.4600 -1.0909
  599MOL0     H82606   3.934   4.246   6.905  3.0048  0.5774  1.9302
  599MOL0     H82607   3.694   4.425   6.993  0.7859  0.3842  1.1431
  599MOL0     H82608   3.735   4.343   6.838  0.5365 -1.8391  1.4357
  599MOL0     H82609   3.887   4.492   6.781 -1.8591  0.8192 -1.0488
  599MOL0     H82610   3.752   4.594   6.834 -1.2756 -0.7912  1.7452
  599MOL0     H82611   4.113   4.562   6.892  2.4447  3.6787 -0.8718
  599MOL0     H82612   4.256   4.762   7.188  3.6281 -3.1844  2.4900
  599MOL0     H82613   4.292   4.754   7.014  0.8720 -0.2493 -0.6962
  599MOL0     H82614   4.297   4.500   7.031  0.6983  0.3896 -2.2032
  599MOL0     H82615   4.423   4.587   7.112 -0.4654 -2.0362  1.0360
  599MOL0     H82616   4.179   4.442   7.222 -0.6330  1.7203  0.0873
  599MOL0     H82617   4.351   4.403   7.247  0.8284  0.5260  2.5076
  599MOL0     H82618   4.218   4.635   7.400 -1.1140 -0.5797  0.7584
  599MOL0     H82619   4.251   4.473   7.446 -3.0002  0.7807 -0.1432
  599MOL0     H82620   4.500   4.814   7.480  0.9043  0.0010  0.4902
  599MOL0     H82621   4.484   4.979   7.755 -0.3390  1.0330 -1.8937
  599MOL0     H82622   4.576   4.974   7.611 -2.0916  1.2437  0.0760
  599MOL0     H82623   4.660   4.935   7.769 -1.0521 -2.7571 -0.7255
  599MOL0     H82624   4.499   4.989   8.149  0.0341 -0.4172  0.9603
  599MOL0     H82625   4.620   5.084   8.355 -2.0245 -1.3110  0.2269
  599MOL0     H82626   5.023   5.002   8.358 -0.5039 -0.9646  1.2158
  599MOL0     H82627   4.990   5.110   8.505 -1.1773  0.2920  0.8597
  599MOL0     H82628   4.964   4.903   8.647  0.4004 -2.1740 -0.0012
  599MOL0     H82629   5.026   4.812   8.523  2.8369 -1.7910  2.3232
  599MOL0     H82630   5.236   4.933   8.491  1.3610 -1.0728  0.5245
  599MOL0     H82631   5.222   4.858   8.643  0.3317  0.5477 -0.7044
  599MOL0     H82632   5.216   5.157   8.553  0.3842 -0.5267 -0.0823
  599MOL0     H82633   5.317   5.086   8.678 -2.5609 -1.6483  1.9324
  599MOL0     H82634   5.179   5.210   8.813  2.2877  1.5652 -2.6017
  599MOL0     H82635   5.031   5.139   8.734  0.6683 -0.7167  0.1800
  599MOL0     H82636   5.218   4.980   8.891 -0.1047  0.5648  0.1984
  599MOL0     H82637   5.074   4.916   8.815 -0.8867 -0.1908  0.7767
  599MOL0     H82638   4.933   5.094   8.920  3.2630  1.7332 -2.9083
  599MOL0     H82639   5.068   5.152   9.014  1.6269  0.0233  1.1839
  599MOL0     H82640   5.104   4.921   9.107 -0.1177  0.1864  1.4241
  599MOL0     H82641   4.951   4.866   9.030  0.1721 -0.5643  2.2568
  599MOL0     H82642   4.929   4.801   8.287 -1.2417 -2.1776  0.5780
  599MOL0     H82643   4.822   4.733   8.072 -1.4915  0.3973 -2.6963
  599MOL0     H82644   4.502   4.478   7.839 -0.5567  0.2363  1.2367
  599MOL0     H82645   4.430   4.419   7.616 -2.6503  1.5766 -2.1418
  599MOL0     H82646   3.516   3.858   7.600  0.2837 -1.3299 -1.8106
  599MOL0     H82647   3.349   3.808   7.775 -1.8307  1.9089  0.7002
  599MOL0     H82648   2.829   3.731   7.780  2.9426 -2.2239 -0.5863
  599MOL0     H82649   2.640   3.682   7.924  1.0132 -0.7026 -0.8977
  599MOL0     H82650   2.480   3.826   8.027 -2.1983 -0.1305 -0.0352
  599MOL0     H82651   2.465   3.660   8.078  3.2052 -0.6094 -2.6086
  599MOL0     H82652   2.379   3.719   8.289 -0.1017 -2.2291 -2.2594
  599MOL0     H82653   2.268   3.806   8.169 -0.9433  0.9865  1.6897
  599MOL0     H82654   2.502   3.950   8.301  0.0715 -0.2334 -0.9838
  599MOL0     H82655   2.381   4.007   8.192 -0.4365 -0.3576  1.1181
  599MOL0     H82656   2.390   4.060   8.444 -0.5003 -1.4882  1.5088
  599MOL0     H82657   2.335   3.904   8.464  4.8068  1.0500  1.1816
  599MOL0     H82658   1.973   4.092   8.352 -0.1925 -1.0637  1.0970
  599MOL0     H82659   2.815   3.875   8.250 -2.4472 -1.5316 -0.4353
  599MOL0     H82660   3.136   3.859   8.172 -0.4653  0.0274 -1.0234
  599MOL0     H82661   3.113   4.005   8.098  3.2165 -2.0048 -1.1435
  599MOL0     H82662   3.010   3.968   8.246 -0.9603  0.1464  0.4127
  600MOL0     O82663   8.006   3.766   9.669 -0.5411 -0.0580 -0.1913
  600MOL0     C82664   7.980   3.662   9.727 -0.6637 -0.0894 -0.5491
  600MOL0     O82665   7.908   3.556   9.677  0.6578  0.1571 -0.7351
  600MOL0     C82666   7.898   3.540   9.544  0.2212 -0.0619 -0.7887
  600MOL0     C82667   7.966   3.445   9.464  0.2130  0.1049 -0.8432
  600MOL0     C82668   7.929   3.420   9.334  0.2247  0.4785  0.8057
  600MOL0     C82669   7.828   3.495   9.276  1.0659  0.1604 -0.5695
  600MOL0     O82670   7.810   3.455   9.149 -0.1709 -1.1133 -0.1331
  600MOL0     C82671   7.757   3.550   9.054 -0.2850  0.4644  0.0594
  600MOL0     C82672   7.629   3.491   8.985  0.4573  0.1196 -0.1850
  600MOL0     C82673   7.526   3.596   8.940 -0.0987 -0.0122  0.3110
  600MOL0     C82674   7.389   3.538   8.929  0.0038  0.4435 -0.2072
  600MOL0     C82675   7.290   3.620   8.852 -0.2996 -0.5148  0.2684
  600MOL0     C82676   7.242   3.752   8.920 -0.6327  0.1446 -0.2057
  600MOL0     C82677   7.101   3.782   8.873  0.5616  0.4042 -0.2736
  600MOL0     C82678   7.039   3.911   8.915 -0.7580 -1.1167 -0.1124
  600MOL0     N82679   7.051   3.928   9.062 -0.6307  0.2620 -0.5788
  600MOL0     C82680   6.974   3.848   9.148  0.3805 -0.3006  0.3916
  600MOL0     C82681   7.003   3.912   9.272 -0.4514  0.3629  1.6813
  600MOL0     C82682   6.972   3.850   9.402 -0.3637  0.0199  0.2779
  600MOL0     C82683   6.820   3.868   9.431 -0.3834  0.1065 -0.0145
  600MOL0     C82684   6.780   3.816   9.563 -0.1326 -0.6624  0.2440
  600MOL0     C82685   6.797   3.665   9.576 -0.0749 -0.3851 -0.7372
  600MOL0     O82686   6.719   3.626   9.685 -0.4989 -0.1010 -0.1775
  600MOL0     C82687   6.755   3.506   9.732  0.0334 -0.9021  0.4941
  600MOL0     C82688   6.811   3.516   9.863  0.9417  0.4262 -0.3921
  600MOL0     C82689   6.857   3.406   9.936  0.8838 -0.0381  0.0270
  600MOL0     C82690   6.937   3.430  10.058  0.5106  0.2740 -0.5905
  600MOL0     C82691   6.845   3.279   9.873  0.8582 -0.2654  0.1218
  600MOL0     C82692   6.896   3.155   9.925  0.8187  0.4605 -0.1533
  600MOL0     O82693   6.817   3.045   9.915  0.4546 -0.0239  0.5684
  600MOL0     C82694   6.850   2.925   9.976 -0.3088 -0.3351 -0.3594
  600MOL0     C82695   6.835   2.812   9.892 -1.0019 -0.1683  1.2503
  600MOL0     C82696   6.869   2.692   9.940  0.7071  0.0246  0.2695
  600MOL0     C82697   6.917   2.671  10.071  0.1544  0.1313 -0.5597
  600MOL0     O82698   6.951   2.544  10.123  0.5537 -0.0351 -0.7131
  600MOL0     C82699   6.829   2.492  10.177 -0.5908 -0.7494  0.0322
  600MOL0     C82700   6.836   2.337  10.210 -0.5233 -0.2861  0.4848
  600MOL0     C82701   6.703   2.252  10.206 -0.5503  0.2413  0.4643
  600MOL0     C82702   6.602   2.299  10.312  0.8375 -0.7597 -0.2135
  600MOL0     C82703   6.460   2.232  10.311  0.3892  0.2486  0.5949
  600MOL0     C82704   6.393   2.232  10.448 -0.0952  0.2020  0.0578
  600MOL0     C82705   6.263   2.165  10.455  0.0498  0.5400  0.5444
  600MOL0     C82706   6.251   2.007  10.445  0.3025  0.1894 -0.2438
  600MOL0    Cl82707   6.304   1.927  10.584  0.0647 -0.1077 -0.1560
  600MOL0     C82708   6.927   2.784  10.154 -0.5587 -0.5360 -0.5628
  600MOL0     C82709   6.898   2.905  10.100 -0.6061  0.2446 -0.7413
  600MOL0     O82710   7.012   3.152   9.956  0.1635 -0.7615  0.1049
  600MOL0     C82711   6.787   3.274   9.742  0.3655  0.6361 -0.7561
  600MOL0     C82712   6.747   3.383   9.678 -0.1885  0.6767  0.0579
  600MOL0     N82713   7.083   4.029   9.247  0.1536  0.1338  0.3842
  600MOL0     N82714   7.122   4.023   9.123  0.4725 -0.4587  1.1528
  600MOL0     C82715   7.756   3.589   9.350 -0.4026  0.0334  0.3846
  600MOL0     C82716   7.789   3.602   9.481  0.4361 -0.7992 -0.2749
  600MOL0     C82717   8.021   3.659   9.872 -0.0222  0.8606  0.7176
  600MOL0     C82718   8.083   3.773   9.932 -0.4682 -0.6327 -0.7692
  600MOL0     C82719   8.112   3.788  10.075 -0.4871  0.2612  0.4360
  600MOL0     C82720   8.084   3.677  10.148  0.2752 -0.6000  0.0895
  600MOL0     O82721   8.124   3.683  10.285 -0.2362 -0.5603 -0.5323
  600MOL0     C82722   8.142   3.563  10.359 -0.8018  0.0485 -0.5354
  600MOL0     C82723   8.217   3.573  10.492  0.3108  0.4242  0.8866
  600MOL0     C82724   8.366   3.552  10.472 -0.3153 -0.6851 -0.9397
  600MOL0     C82725   8.446   3.600  10.599 -0.3977  0.5686  0.0604
  600MOL0     C82726   8.581   3.634  10.586 -0.6140 -0.2632 -0.3239
  600MOL0     C82727   8.694   3.656  10.553  0.1039 -0.3694  0.0340
  600MOL0     C82728   8.007   3.568  10.100 -0.7298  0.5289  0.2556
  600MOL0     C82729   7.982   3.559   9.961 -0.5811 -0.8638  0.4647
  600MOL0     C82730   7.896   3.439   9.933  0.4131  0.0562  0.1134
  600MOL0     H82731   8.038   3.370   9.497 -0.0977  0.6026  1.1031
  600MOL0     H82732   7.993   3.353   9.278  1.0324 -0.7531  3.0673
  600MOL0     H82733   7.834   3.560   8.977 -0.4425 -2.4280 -0.6115
  600MOL0     H82734   7.738   3.647   9.101  0.1446  0.2775  0.6345
  600MOL0     H82735   7.656   3.417   8.909  1.6033  0.9015 -0.5658
  600MOL0     H82736   7.566   3.430   9.051  2.3952 -1.0860  0.6149
  600MOL0     H82737   7.520   3.681   9.009 -1.8896 -0.6630  1.0223
  600MOL0     H82738   7.544   3.634   8.839  0.0356 -0.3066  0.2229
  600MOL0     H82739   7.400   3.438   8.886 -0.4801 -0.5458  1.8242
  600MOL0     H82740   7.353   3.518   9.030 -3.1370 -1.8872 -1.6381
  600MOL0     H82741   7.201   3.557   8.842 -0.3093 -0.6307  1.0723
  600MOL0     H82742   7.324   3.637   8.749 -2.9801  1.8662 -0.3770
  600MOL0     H82743   7.254   3.748   9.028  4.5270  0.8954 -0.5224
  600MOL0     H82744   7.312   3.833   8.898  0.3279 -0.4702  0.5055
  600MOL0     H82745   7.034   3.702   8.905 -0.5504  2.0418  1.7408
  600MOL0     H82746   7.115   3.781   8.764  1.0115 -2.3321 -0.2442
  600MOL0     H82747   7.086   3.993   8.859 -2.0789 -0.6429 -0.5593
  600MOL0     H82748   6.934   3.916   8.885 -0.1689 -1.4565 -2.4470
  600MOL0     H82749   6.914   3.758   9.137  0.3107 -0.3586  1.1828
  600MOL0     H82750   7.034   3.901   9.476  1.6055 -1.2585 -0.4005
  600MOL0     H82751   7.012   3.748   9.404  1.7436  0.8095  1.3755
  600MOL0     H82752   6.782   3.970   9.438 -2.8662 -0.8445  1.2865
  600MOL0     H82753   6.763   3.829   9.346 -1.6310 -0.9097  1.2358
  600MOL0     H82754   6.858   3.865   9.623  1.9965 -0.5031 -2.4500
  600MOL0     H82755   6.677   3.843   9.587 -1.1093 -0.8631 -3.2836
  600MOL0     H82756   6.765   3.613   9.486 -1.1495 -0.2175 -0.4606
  600MOL0     H82757   6.902   3.641   9.598 -0.5325 -0.3522  1.8267
  600MOL0     H82758   6.809   3.618   9.901 -3.3259 -0.1488  1.5182
  600MOL0     H82759   7.013   3.508  10.053  0.8008  0.2197  1.9013
  600MOL0     H82760   6.977   3.346  10.115 -1.8512  0.3053  1.2733
  600MOL0     H82761   6.869   3.484  10.125 -0.4467  0.1547 -1.4312
  600MOL0     H82762   6.783   2.841   9.801 -0.8724 -0.7618  0.9855
  600MOL0     H82763   6.847   2.603   9.882 -1.3408  0.1168  0.8337
  600MOL0     H82764   6.798   2.558  10.258  0.6348  2.2012 -1.7349
  600MOL0     H82765   6.751   2.492  10.100 -2.5437 -1.3449  1.9360
  600MOL0     H82766   6.904   2.296  10.136  2.5273  0.6966  2.5494
  600MOL0     H82767   6.891   2.324  10.304  0.1165  1.4106  0.3823
  600MOL0     H82768   6.721   2.145  10.212 -3.7812 -0.4402 -0.3182
  600MOL0     H82769   6.645   2.265  10.113 -0.0533  0.5060  0.1855
  600MOL0     H82770   6.587   2.407  10.304  0.1983 -0.9451 -1.8664
  600MOL0     H82771   6.642   2.272  10.410 -1.4882  0.2221  1.1024
  600MOL0     H82772   6.396   2.296  10.250 -1.3064 -1.1671  0.7705
  600MOL0     H82773   6.464   2.130  10.272 -0.6867  0.1503  0.6957
  600MOL0     H82774   6.389   2.336  10.483  2.2417  0.2736  0.2496
  600MOL0     H82775   6.462   2.188  10.521  0.6468 -0.3875 -0.9637
  600MOL0     H82776   6.205   2.204  10.371 -0.7665  0.6020  1.1265
  600MOL0     H82777   6.224   2.195  10.552 -0.6133 -1.9123  1.0939
  600MOL0     H82778   6.306   1.971  10.357  0.8099  3.3553 -1.3524
  600MOL0     H82779   6.147   1.982  10.426  0.3103 -0.0556  0.0226
  600MOL0     H82780   6.957   2.778  10.258 -1.1558  0.0594 -0.3462
  600MOL0     H82781   6.905   3.004  10.142 -0.4094  0.6819 -1.7610
  600MOL0     H82782   6.791   3.181   9.687  0.6755 -0.5573  1.1851
  600MOL0     H82783   6.694   3.380   9.584  0.6272  1.6807 -0.4546
  600MOL0     H82784   7.656   3.619   9.320 -0.1590  0.4034 -0.0700
  600MOL0     H82785   7.726   3.660   9.548  1.4278  0.1580 -0.1554
  600MOL0     H82786   8.105   3.865   9.878  3.2688  0.1314  1.6905
  600MOL0     H82787   8.143   3.877  10.128  1.8912 -0.0402 -0.3190
  600MOL0     H82788   8.048   3.508  10.370  0.1415 -1.7532 -1.1527
  600MOL0     H82789   8.205   3.499  10.296 -1.4714 -1.6348  0.4381
  600MOL0     H82790   8.192   3.485  10.551  1.8687 -0.7644 -0.1494
  600MOL0     H82791   8.203   3.667  10.547  1.9679 -0.1351  2.3361
  600MOL0     H82792   8.376   3.444  10.460  0.3192 -1.0675  2.3367
  600MOL0     H82793   8.396   3.600  10.378  0.3455 -0.4284 -0.6011
  600MOL0     H82794   8.443   3.532  10.685 -0.1271 -0.0094 -0.3897
  600MOL0     H82795   8.403   3.696  10.630  0.8460  1.0760  0.2700
  600MOL0     H82796   8.795   3.669  10.520 -0.3932  5.2950 -0.2185
  600MOL0     H82797   7.980   3.487  10.167  2.7941 -2.2279 -1.2842
  600MOL0     H82798   7.929   3.372   9.854 -1.0878 -3.3566  2.1293
  600MOL0     H82799   7.904   3.367  10.015  1.2156  1.6209  1.4706
  600MOL0     H82800   7.799   3.487   9.914  2.2256  4.7338  1.2426
  601MOL0     O82801   4.987  11.196   6.936 -0.5750 -0.3325  0.1294
  601MOL0     C82802   4.996  11.153   6.818  0.1180  1.2471  0.0792
  601MOL0     O82803   4.894  11.113   6.743  0.0769  0.2975 -0.4944
  601MOL0     C82804   4.771  11.140   6.787  0.7057  0.4292  0.6694
  601MOL0     C82805   4.708  11.258   6.726  0.8918 -0.5142  0.4149
  601MOL0     C82806   4.568  11.281   6.731  0.0846 -0.8295  0.0790
  601MOL0     C82807   4.487  11.191   6.797 -0.0097 -0.5847 -0.4445
  601MOL0     O82808   4.354  11.207   6.825 -0.0664  0.3507 -0.4917
  601MOL0     C82809   4.291  11.329   6.793 -0.0561 -0.5420  0.8174
  601MOL0     C82810   4.142  11.313   6.800  0.0175 -0.0930  0.8544
  601MOL0     C82811   4.082  11.266   6.924  0.6649 -0.1739  0.1862
  601MOL0     C82812   3.930  11.225   6.914  0.1186  0.8033  0.3143
  601MOL0     C82813   3.896  11.196   7.064  0.4049  0.4455 -0.3122
  601MOL0     C82814   3.762  11.122   7.082  0.2118 -0.0480 -0.3482
  601MOL0     C82815   3.678  11.122   7.222  0.2019 -0.6125 -0.2276
  601MOL0     C82816   3.740  11.024   7.315  0.1561 -0.2936 -0.4775
  601MOL0     N82817   3.676  11.045   7.449  0.1192 -0.3405 -0.0224
  601MOL0     C82818   3.546  11.007   7.485  0.1976  0.3951  0.6120
  601MOL0     C82819   3.515  11.050   7.607 -0.0529  0.3493 -0.8094
  601MOL0     C82820   3.388  11.032   7.671 -0.7704 -0.2555 -1.1335
  601MOL0     C82821   3.394  10.924   7.777 -0.8635 -1.2007 -0.1412
  601MOL0     C82822   3.455  10.793   7.732  0.0897  0.4603  0.1403
  601MOL0     C82823   3.453  10.684   7.837 -0.0848  0.6459 -0.1599
  601MOL0     O82824   3.448  10.745   7.969  0.0455  0.4897  0.7121
  601MOL0     C82825   3.503  10.669   8.074  1.3043  0.7163  0.3114
  601MOL0     C82826   3.496  10.529   8.088 -0.3067  0.4440  0.7132
  601MOL0     C82827   3.544  10.477   8.207  0.9084  0.2525 -0.3593
  601MOL0     C82828   3.506  10.327   8.221 -0.2697 -0.1666 -0.3509
  601MOL0     C82829   3.583  10.555   8.318 -0.7342 -0.7742 -0.4180
  601MOL0     C82830   3.616  10.502   8.451  0.4888 -0.3960 -1.1308
  601MOL0     O82831   3.646  10.371   8.458 -0.7021  0.3052 -0.5126
  601MOL0     C82832   3.673  10.308   8.575 -0.6672  0.3840 -0.1256
  601MOL0     C82833   3.807  10.321   8.625  0.6018 -0.1401 -0.9060
  601MOL0     C82834   3.837  10.290   8.756  0.2867  0.1712 -1.1440
  601MOL0     C82835   3.746  10.219   8.834  0.9223  0.1407 -0.0948
  601MOL0     O82836   3.773  10.183   8.966 -0.3710  0.2189  0.4465
  601MOL0     C82837   3.751  10.055   9.014 -0.2555 -0.4995 -0.4343
  601MOL0     C82838   3.879   9.971   8.996 -0.0449  0.1643 -0.3263
  601MOL0     C82839   4.002  10.032   9.063  0.1402 -0.2487 -0.0135
  601MOL0     C82840   4.119   9.932   9.052 -0.6558  0.3237  0.1116
  601MOL0     C82841   4.103   9.816   9.149  0.2958  0.2890  0.6734
  601MOL0     C82842   4.173   9.850   9.279 -1.4435 -0.0468  0.2958
  601MOL0     C82843   4.132   9.733   9.382 -0.0727 -0.4045 -0.7730
  601MOL0     C82844   4.202   9.758   9.520 -0.5690  0.1486 -0.6314
  601MOL0    Cl82845   4.382   9.694   9.509  0.1380  0.3118  0.1535
  601MOL0     C82846   3.619  10.193   8.778 -0.1783 -0.4832  0.4564
  601MOL0     C82847   3.575  10.243   8.649  0.6692  0.6436 -0.2420
  601MOL0     O82848   3.632  10.582   8.546 -0.5956  0.1173 -0.5625
  601MOL0     C82849   3.581  10.690   8.302  0.3672 -0.3507  0.3145
  601MOL0     C82850   3.551  10.745   8.176 -0.0118  0.1014 -1.4505
  601MOL0     N82851   3.635  11.100   7.663  0.0751 -0.6116 -0.2035
  601MOL0     N82852   3.725  11.100   7.569 -0.5581 -0.8723 -1.0874
  601MOL0     C82853   4.547  11.074   6.854 -0.2269  0.0216 -0.4803
  601MOL0     C82854   4.683  11.045   6.840 -0.0856 -0.4944 -1.0476
  601MOL0     C82855   5.122  11.135   6.753 -0.7114  0.4146 -0.3230
  601MOL0     C82856   5.121  11.172   6.614  0.3578  1.0170 -0.5407
  601MOL0     C82857   5.247  11.190   6.555 -0.5396 -0.0708 -0.2669
  601MOL0     C82858   5.372  11.147   6.623  0.9752  0.2120 -0.0601
  601MOL0     O82859   5.499  11.139   6.567  0.9931  0.3738 -0.6778
  601MOL0     C82860   5.510  11.184   6.430  1.0428 -0.3792 -0.2121
  601MOL0     C82861   5.658  11.192   6.417  0.4228 -1.0359 -0.5274
  601MOL0     C82862   5.730  11.059   6.415 -0.2216 -0.2241  0.3491
  601MOL0     C82863   5.878  11.087   6.389  0.1187  0.2141 -0.6227
  601MOL0     C82864   5.956  11.163   6.488 -0.0958 -0.9703  0.8111
  601MOL0     C82865   6.028  11.230   6.554 -0.2846  0.1701  0.3399
  601MOL0     C82866   5.366  11.108   6.765  0.0454 -0.3216  0.2940
  601MOL0     C82867   5.242  11.105   6.822  0.8664  1.0189 -0.8039
  601MOL0     C82868   5.243  11.056   6.961 -0.3743  0.3275  0.6364
  601MOL0     H82869   4.770  11.341   6.693 -2.6193  1.4213 -1.9357
  601MOL0     H82870   4.525  11.371   6.688 -0.9094 -1.8629 -1.1744
  601MOL0     H82871   4.320  11.362   6.693  2.6342 -3.1877  0.5725
  601MOL0     H82872   4.335  11.402   6.862  2.4728  0.9921 -2.1607
  601MOL0     H82873   4.104  11.412   6.774  1.6469  0.9254  2.1523
  601MOL0     H82874   4.121  11.247   6.715  1.2326  1.6336 -0.8789
  601MOL0     H82875   4.139  11.179   6.956  0.1799 -0.4915  0.1973
  601MOL0     H82876   4.099  11.349   6.993 -0.3160  1.3534 -1.3291
  601MOL0     H82877   3.862  11.302   6.876  1.3361  2.2139  0.8921
  601MOL0     H82878   3.912  11.133   6.856  3.5172  2.5091 -3.9573
  601MOL0     H82879   3.897  11.292   7.116 -1.7999  0.6209 -0.5128
  601MOL0     H82880   3.973  11.126   7.097 -1.6785 -2.3965 -1.1026
  601MOL0     H82881   3.704  11.163   6.999  2.5376 -1.3649 -2.8103
  601MOL0     H82882   3.780  11.022   7.040 -2.3484 -0.3530 -0.8667
  601MOL0     H82883   3.575  11.087   7.218 -0.1905  0.3595  0.6240
  601MOL0     H82884   3.685  11.223   7.265  0.6519 -1.1486  1.0172
  601MOL0     H82885   3.727  10.926   7.269  2.6753 -1.1149  0.4046
  601MOL0     H82886   3.847  11.041   7.330 -0.2257  2.0944  0.0331
  601MOL0     H82887   3.484  10.952   7.415  2.0615 -0.5725 -0.3769
  601MOL0     H82888   3.310  11.011   7.597 -0.7670 -1.2481 -0.8686
  601MOL0     H82889   3.366  11.129   7.718  1.0464  0.3728 -1.4877
  601MOL0     H82890   3.448  10.959   7.865  0.3350  1.2452 -1.7395
  601MOL0     H82891   3.293  10.902   7.814 -0.3623 -0.0110  2.0677
  601MOL0     H82892   3.410  10.760   7.638  1.3931 -2.5831  0.4904
  601MOL0     H82893   3.561  10.814   7.711 -0.6309  3.1922 -1.3153
  601MOL0     H82894   3.361  10.625   7.829 -0.2962  0.7545  1.1945
  601MOL0     H82895   3.533  10.612   7.818 -1.3832 -0.4969 -1.5481
  601MOL0     H82896   3.434  10.466   8.025 -0.0470  0.2732  0.6275
  601MOL0     H82897   3.399  10.316   8.244  0.1063  0.5539  1.9563
  601MOL0     H82898   3.548  10.260   8.295  1.6498 -1.2716 -2.3298
  601MOL0     H82899   3.524  10.267   8.131 -2.7262  0.2902 -1.2407
  601MOL0     H82900   3.883  10.386   8.582  0.2036  2.2168  1.6333
  601MOL0     H82901   3.935  10.305   8.801 -0.3656  2.1497 -0.2879
  601MOL0     H82902   3.722  10.066   9.120 -3.9589 -3.2942 -0.9423
  601MOL0     H82903   3.671  10.003   8.961 -0.7946 -1.8719  1.6128
  601MOL0     H82904   3.853   9.874   9.040 -0.3865 -0.1710 -1.2431
  601MOL0     H82905   3.906   9.959   8.891  0.1063 -1.5917 -0.1207
  601MOL0     H82906   3.978  10.069   9.163  0.2865  4.5975 -1.5320
  601MOL0     H82907   4.022  10.114   8.994 -2.5880 -0.0909 -0.7559
  601MOL0     H82908   4.220   9.972   9.062  0.1123 -1.7710  1.4976
  601MOL0     H82909   4.108   9.882   8.955 -2.3465 -1.8854  1.3505
  601MOL0     H82910   3.997   9.796   9.171  1.0494 -2.8606  2.0784
  601MOL0     H82911   4.149   9.724   9.110  2.1399  1.7369 -0.7553
  601MOL0     H82912   4.127   9.941   9.319  1.4282  1.9328 -0.5890
  601MOL0     H82913   4.282   9.853   9.269 -1.5561  0.0514 -0.9887
  601MOL0     H82914   4.157   9.632   9.348 -1.1481 -1.8885  2.4741
  601MOL0     H82915   4.026   9.741   9.405 -0.5355  0.9632 -3.0844
  601MOL0     H82916   4.144   9.704   9.596  1.4097 -1.5349 -0.2250
  601MOL0     H82917   4.214   9.860   9.557  0.8229 -0.1036 -0.3522
  601MOL0     H82918   3.544  10.139   8.835 -0.7325  1.4082  1.6114
  601MOL0     H82919   3.469  10.228   8.629  0.4871  0.4958  0.7556
  601MOL0     H82920   3.616  10.753   8.383  0.2047 -2.6705  2.3127
  601MOL0     H82921   3.556  10.853   8.172  0.5269  0.2208  0.9933
  601MOL0     H82922   4.485  11.010   6.917  1.0181  1.1026  1.9731
  601MOL0     H82923   4.710  10.947   6.877 -1.9096  0.2769  2.8451
  601MOL0     H82924   5.023  11.201   6.578 -0.9918 -0.7927  1.3667
  601MOL0     H82925   5.257  11.228   6.453  3.2256 -0.0365  0.0002
  601MOL0     H82926   5.474  11.124   6.346  2.5877  2.3436 -3.0146
  601MOL0     H82927   5.461  11.282   6.426  2.2570  0.2939  0.6843
  601MOL0     H82928   5.685  11.257   6.500  0.2479 -1.0019 -0.4971
  601MOL0     H82929   5.676  11.248   6.325  0.5174 -1.5342 -0.8192
  601MOL0     H82930   5.701  11.010   6.508 -1.8618 -2.3953 -1.2223
  601MOL0     H82931   5.694  10.994   6.336 -1.9237 -5.4194  4.7904
  601MOL0     H82932   5.903  11.118   6.287 -0.8255 -1.3722 -1.3771
  601MOL0     H82933   5.926  10.989   6.385  1.2832  0.6739  1.0504
  601MOL0     H82934   6.086  11.293   6.619 -4.3565  2.7805  1.8597
  601MOL0     H82935   5.458  11.101   6.822 -0.3270  3.9109  1.7818
  601MOL0     H82936   5.152  11.005   6.994  0.2873 -1.7448 -0.5489
  601MOL0     H82937   5.309  10.969   6.970 -0.6820  0.1675  1.3965
  601MOL0     H82938   5.287  11.132   7.027  1.6355 -0.0829 -0.1332
  602MOL0     O82939  10.837   6.160   1.618 -0.1655  0.2508  0.0381
  602MOL0     C82940  10.780   6.249   1.682 -0.0780  0.9792 -0.1795
  602MOL0     O82941  10.781   6.387   1.657 -0.0922 -0.2168 -0.3985
  602MOL0     C82942  10.851   6.448   1.555 -0.5517 -0.3914  0.3259
  602MOL0     C82943  10.819   6.582   1.529  0.3619 -0.1992  1.1992
  602MOL0     C82944  10.866   6.664   1.427 -1.2631  0.4947  0.0115
  602MOL0     C82945  10.959   6.605   1.338  0.8503  0.5904 -0.5122
  602MOL0     O82946  11.024   6.661   1.235 -0.2815 -0.2117  0.1232
  602MOL0     C82947  10.974   6.786   1.181  0.0293 -0.7212  0.0056
  602MOL0     C82948  11.085   6.843   1.094 -0.4933  0.0391  0.1281
  602MOL0     C82949  11.121   6.749   0.976 -0.4817 -0.1671 -0.4885
  602MOL0     C82950  11.263   6.783   0.932  0.1026 -0.4802  0.4760
  602MOL0     C82951  11.321   6.708   0.808 -0.5227 -0.3328  0.5518
  602MOL0     C82952  11.239   6.742   0.669  0.1678  0.2068  0.1588
  602MOL0     C82953  11.254   6.890   0.631  0.2722  0.4085 -0.7938
  602MOL0     C82954  11.389   6.932   0.581 -0.0003  0.0088  0.0473
  602MOL0     N82955  11.389   7.070   0.543  0.4965  0.3672  0.8597
  602MOL0     C82956  11.328   7.115   0.426  1.3280 -0.2897  0.8372
  602MOL0     C82957  11.318   7.245   0.434  0.4538 -0.3162 -0.3381
  602MOL0     C82958  11.236   7.329   0.341  0.1195 -1.0449  0.3447
  602MOL0     C82959  11.313   7.450   0.289  0.0251 -0.3023  0.3289
  602MOL0     C82960  11.225   7.550   0.218 -0.1209  0.3747  0.0405
  602MOL0     C82961  11.153   7.501   0.089 -0.1769 -0.6555 -0.4226
  602MOL0     O82962  11.015   7.471   0.100  0.1939  0.0538 -0.4192
  602MOL0     C82963  10.987   7.348   0.062 -0.7499  0.3908  0.4137
  602MOL0     C82964  10.993   7.312  -0.075  0.0249 -0.0526  0.4736
  602MOL0     C82965  10.960   7.181  -0.112 -0.9593 -0.7172  0.3764
  602MOL0     C82966  10.959   7.140  -0.257  0.4421  0.0462 -0.1348
  602MOL0     C82967  10.932   7.085  -0.009  0.5236 -0.2817 -0.4336
  602MOL0     C82968  10.886   6.947  -0.046  0.3786 -0.9308 -0.1391
  602MOL0     O82969  10.962   6.851   0.016  0.8195 -1.0616  0.7227
  602MOL0     C82970  10.919   6.724   0.032  0.5618 -0.6063  0.3348
  602MOL0     C82971  11.009   6.619   0.016  0.5322 -1.0444 -0.5467
  602MOL0     C82972  10.958   6.492   0.037  0.0141  0.8734  0.1689
  602MOL0     C82973  10.829   6.458   0.061  1.0897  0.1495  0.1283
  602MOL0     O82974  10.775   6.333   0.073 -0.1245 -0.7757 -0.4113
  602MOL0     C82975  10.776   6.249  -0.041  0.5338 -0.2735 -0.0253
  602MOL0     C82976  10.916   6.197  -0.093 -0.4102 -0.0779  0.4446
  602MOL0     C82977  10.907   6.060  -0.163 -0.2218 -0.5744  0.4434
  602MOL0     C82978  10.850   6.062  -0.300  0.5637 -1.0040 -1.0232
  602MOL0     C82979  10.833   5.919  -0.357 -0.5300  0.9457  0.0265
  602MOL0     C82980  10.981   5.870  -0.389 -0.7596  0.0992 -0.0036
  602MOL0     C82981  10.978   5.726  -0.434 -0.0499 -0.4181  0.3260
  602MOL0     C82982  11.096   5.688  -0.517 -0.4281 -0.0576  0.4824
  602MOL0    Cl82983  11.086   5.522  -0.549 -0.1866  0.0209 -0.2481
  602MOL0     C82984  10.739   6.566   0.068 -0.0084 -0.3690  0.8298
  602MOL0     C82985  10.782   6.698   0.062  0.4558  0.7011  0.8478
  602MOL0     O82986  10.795   6.925  -0.128 -0.0353 -0.4610  0.0352
  602MOL0     C82987  10.917   7.124   0.121 -1.1317 -0.7516 -0.3454
  602MOL0     C82988  10.940   7.258   0.155 -0.7614  0.3794  0.7581
  602MOL0     N82989  11.373   7.285   0.557  0.0437 -0.6770  0.0863
  602MOL0     N82990  11.417   7.178   0.623  0.0824  0.3348  0.2982
  602MOL0     C82991  11.001   6.469   1.362  0.6127  0.1707 -0.9696
  602MOL0     C82992  10.942   6.399   1.470  0.1535 -0.1415 -0.3163
  602MOL0     C82993  10.692   6.218   1.799  0.2765 -0.1779  0.2243
  602MOL0     C82994  10.699   6.303   1.911  0.0018 -0.9509  0.3784
  602MOL0     C82995  10.634   6.274   2.034  0.6829  0.9046 -1.2283
  602MOL0     C82996  10.565   6.154   2.058 -0.2287 -0.4598  0.3532
  602MOL0     O82997  10.479   6.129   2.157 -0.5278  0.1346  0.0099
  602MOL0     C82998  10.476   6.218   2.266 -0.1519  0.0244 -1.2796
  602MOL0     C82999  10.614   6.213   2.338  0.7499  0.6666 -0.4912
  602MOL0     C83000  10.628   6.343   2.416 -0.0255 -0.4028  0.7642
  602MOL0     C83001  10.732   6.338   2.528  0.0936  0.5225 -0.1081
  602MOL0     C83002  10.697   6.262   2.644  0.8084  0.1098  0.4080
  602MOL0     C83003  10.668   6.204   2.747  0.0976  0.2429  0.4263
  602MOL0     C83004  10.551   6.071   1.949 -0.9647  0.3151 -0.0732
  602MOL0     C83005  10.612   6.097   1.821  0.1851  0.3556 -0.0331
  602MOL0     C83006  10.573   5.996   1.714  0.5316 -0.6264  0.6817
  602MOL0     H83007  10.760   6.633   1.606  1.2327  1.0515  1.0691
  602MOL0     H83008  10.829   6.764   1.406  0.9696  1.6090  1.0475
  602MOL0     H83009  10.955   6.856   1.262 -0.2388 -1.1370  0.3052
  602MOL0     H83010  10.892   6.774   1.109 -0.2267  5.5758 -1.2861
  602MOL0     H83011  11.053   6.939   1.051  2.2512 -0.4441 -3.4651
  602MOL0     H83012  11.164   6.864   1.166 -0.6817  0.6551  0.1687
  602MOL0     H83013  11.109   6.644   1.004 -1.5117  0.6623  2.6273
  602MOL0     H83014  11.044   6.760   0.900 -0.4393  0.6359 -0.4247
  602MOL0     H83015  11.270   6.891   0.917 -0.6123 -0.8588 -3.3948
  602MOL0     H83016  11.332   6.748   1.010 -0.1454  0.1728  1.0023
  602MOL0     H83017  11.310   6.599   0.807  1.9065 -0.6742  2.0156
  602MOL0     H83018  11.421   6.751   0.798 -1.4655  3.1474  3.7732
  602MOL0     H83019  11.284   6.674   0.597  1.1159 -0.8671  1.6942
  602MOL0     H83020  11.132   6.727   0.684 -0.0947  2.8520  1.5997
  602MOL0     H83021  11.226   6.954   0.714 -3.4771 -1.8304 -0.1192
  602MOL0     H83022  11.180   6.911   0.553 -1.8239 -2.9574  0.0801
  602MOL0     H83023  11.467   6.928   0.658 -1.4877 -0.1172  1.6015
  602MOL0     H83024  11.421   6.867   0.499  0.1490 -0.5535  0.5481
  602MOL0     H83025  11.277   7.068   0.342  2.3884 -0.8712  0.5009
  602MOL0     H83026  11.154   7.376   0.395  1.0562 -0.6535  1.4802
  602MOL0     H83027  11.189   7.257   0.273  3.4080 -3.2971  0.2228
  602MOL0     H83028  11.366   7.494   0.374  1.2848 -4.6968  2.0862
  602MOL0     H83029  11.392   7.418   0.219 -2.3543 -1.6147 -1.9321
  602MOL0     H83030  11.161   7.607   0.286  2.1992  4.1077 -0.6338
  602MOL0     H83031  11.291   7.631   0.188  0.5560 -1.4884 -4.2646
  602MOL0     H83032  11.155   7.575   0.007  0.3703 -2.8183 -2.4743
  602MOL0     H83033  11.211   7.414   0.056 -0.0964 -0.7202 -0.1058
  602MOL0     H83034  11.025   7.394  -0.138 -1.2911 -0.4310 -0.7495
  602MOL0     H83035  11.004   7.216  -0.321  1.2547 -1.1590 -1.0268
  602MOL0     H83036  10.860   7.128  -0.300  0.5016 -0.4991 -0.1195
  602MOL0     H83037  11.008   7.043  -0.268  0.6360  0.2087 -0.7376
  602MOL0     H83038  11.113   6.649   0.005  0.1932  0.1048 -0.7842
  602MOL0     H83039  11.021   6.405   0.026 -3.6374 -2.1137  0.6974
  602MOL0     H83040  10.716   6.161  -0.018  0.1953  0.5134  2.3247
  602MOL0     H83041  10.725   6.291  -0.128 -1.6638 -1.4482  0.6390
  602MOL0     H83042  10.965   6.272  -0.155 -0.3575 -1.5176 -1.3405
  602MOL0     H83043  10.984   6.180  -0.009  0.7650 -0.4658 -0.5562
  602MOL0     H83044  10.839   5.998  -0.104  1.2061 -1.3975  1.2964
  602MOL0     H83045  11.005   6.015  -0.146 -1.6098 -3.9712  0.2281
  602MOL0     H83046  10.911   6.132  -0.357 -0.0793  0.6871  0.2881
  602MOL0     H83047  10.749   6.102  -0.288  1.8200  1.9053  0.9803
  602MOL0     H83048  10.789   5.852  -0.283  1.4188 -0.4280  0.0199
  602MOL0     H83049  10.774   5.915  -0.449  1.6435 -3.0236 -1.4715
  602MOL0     H83050  11.048   5.881  -0.303 -1.6205  1.8417  0.4985
  602MOL0     H83051  11.026   5.920  -0.475  0.7209  0.0237  0.7073
  602MOL0     H83052  10.892   5.709  -0.499 -1.2945 -0.8896  2.0597
  602MOL0     H83053  10.975   5.666  -0.343 -2.1943 -1.2925 -0.2607
  602MOL0     H83054  11.188   5.708  -0.461 -1.3788  1.9690  1.4547
  602MOL0     H83055  11.098   5.749  -0.607  1.1145  0.5434  0.8976
  602MOL0     H83056  10.632   6.548   0.062  0.0914 -0.7839  0.1761
  602MOL0     H83057  10.715   6.781   0.082 -4.1396 -2.2161 -0.8720
  602MOL0     H83058  10.871   7.051   0.187 -1.4139 -0.3782 -0.1268
  602MOL0     H83059  10.929   7.303   0.253  1.4572  1.0544  0.7538
  602MOL0     H83060  11.096   6.438   1.320  1.2886  3.4067 -2.0514
  602MOL0     H83061  11.009   6.315   1.488  3.2319  2.3104  0.4657
  602MOL0     H83062  10.746   6.401   1.916  0.6324 -1.2985  2.0113
  602MOL0     H83063  10.629   6.364   2.094 -2.0996 -1.2046  2.1082
  602MOL0     H83064  10.443   6.319   2.239 -1.8188  0.1547  0.9737
  602MOL0     H83065  10.407   6.195   2.348 -0.0348  3.6222  0.0406
  602MOL0     H83066  10.688   6.193   2.261  1.0983  3.7731 -1.0948
  602MOL0     H83067  10.609   6.134   2.413 -3.3096  1.2463  0.1232
  602MOL0     H83068  10.656   6.426   2.350  0.3931 -1.2733 -0.1884
  602MOL0     H83069  10.532   6.367   2.464 -0.8878 -1.8549 -0.1558
  602MOL0     H83070  10.751   6.439   2.565  0.7987  0.1252  0.6325
  602MOL0     H83071  10.827   6.305   2.484  0.8186 -0.9601  2.3634
  602MOL0     H83072  10.637   6.170   2.844 -3.1693  2.5245  0.3394
  602MOL0     H83073  10.488   5.984   1.964 -0.5994  0.5687  4.3253
  602MOL0     H83074  10.475   5.955   1.738  0.4563  0.0348  1.5305
  602MOL0     H83075  10.582   6.040   1.614 -0.6246  3.3427  2.1363
  602MOL0     H83076  10.642   5.912   1.722  2.6577  1.0401  0.9057
  603MOL0     O83077   0.321   5.315   8.122 -0.2616  0.1815  0.4705
  603MOL0     C83078   0.400   5.232   8.165 -0.0968 -0.2659 -0.7970
  603MOL0     O83079   0.461   5.243   8.290  0.0634 -0.8586  0.2224
  603MOL0     C83080   0.525   5.351   8.319  0.1232  0.3273  0.3263
  603MOL0     C83081   0.579   5.439   8.219 -0.4443  0.3849  0.1653
  603MOL0     C83082   0.675   5.534   8.252  0.3014 -0.1543 -0.4193
  603MOL0     C83083   0.705   5.546   8.385 -1.0946 -0.7185  0.2117
  603MOL0     O83084   0.789   5.651   8.427  0.1624  0.8193  0.3335
  603MOL0     C83085   0.858   5.739   8.327 -0.2327 -0.4755 -0.2389
  603MOL0     C83086   0.965   5.834   8.377  0.6887 -0.3068 -1.0547
  603MOL0     C83087   1.087   5.770   8.431  0.2983 -0.2811 -0.0286
  603MOL0     C83088   1.076   5.726   8.573  0.1989  0.1725 -0.6985
  603MOL0     C83089   1.216   5.689   8.633 -0.3367 -1.6284  0.7723
  603MOL0     C83090   1.209   5.601   8.758 -0.2572 -0.2539 -1.2701
  603MOL0     C83091   1.213   5.452   8.738 -0.4510  0.4483  0.1594
  603MOL0     C83092   1.151   5.358   8.840 -0.3211  0.2016  0.6980
  603MOL0     N83093   1.195   5.392   8.973 -0.0824 -0.3595 -0.0326
  603MOL0     C83094   1.328   5.408   9.012 -0.1346 -0.1222  0.8592
  603MOL0     C83095   1.328   5.421   9.144 -0.9848 -0.2530 -0.0822
  603MOL0     C83096   1.455   5.443   9.232 -0.0224  0.3859  0.8282
  603MOL0     C83097   1.428   5.438   9.389  0.5796 -0.3290 -1.3357
  603MOL0     C83098   1.562   5.418   9.464 -0.1647  0.0470  0.0103
  603MOL0     C83099   1.561   5.437   9.610  0.3254  0.7684  0.0863
  603MOL0     O83100   1.477   5.546   9.655  0.4643 -0.9677  0.2819
  603MOL0     C83101   1.511   5.642   9.742 -0.3140 -0.1462 -0.0504
  603MOL0     C83102   1.643   5.657   9.785  0.6250 -0.7095 -0.1657
  603MOL0     C83103   1.682   5.742   9.891  0.2766  0.0425  0.9082
  603MOL0     C83104   1.830   5.769   9.921  0.2270  0.1366  0.3643
  603MOL0     C83105   1.580   5.823   9.944  0.0257 -0.8715 -0.0044
  603MOL0     C83106   1.602   5.913  10.054 -0.1809 -0.9143  0.3462
  603MOL0     O83107   1.709   5.888  10.141  0.2840  0.0313  0.3015
  603MOL0     C83108   1.740   5.991  10.228 -0.1744  0.8745 -0.6373
  603MOL0     C83109   1.676   6.004  10.353 -0.1081 -0.0451 -0.0022
  603MOL0     C83110   1.721   6.109  10.437 -0.0612 -0.4852 -0.4263
  603MOL0     C83111   1.822   6.192  10.403 -0.2542  0.6022  0.0173
  603MOL0     O83112   1.857   6.278  10.500 -0.1255  0.3536 -0.5808
  603MOL0     C83113   1.805   6.409  10.489  0.5273 -0.2432  0.1353
  603MOL0     C83114   1.860   6.515  10.580  0.6285 -0.3635 -0.2300
  603MOL0     C83115   1.979   6.584  10.507 -0.1419 -0.4504  0.6772
  603MOL0     C83116   2.022   6.721  10.577 -0.2258  0.1505 -0.0995
  603MOL0     C83117   1.941   6.843  10.536  0.5678  1.1431 -0.4540
  603MOL0     C83118   1.931   6.879  10.383  0.5467  0.0078  0.3518
  603MOL0     C83119   1.920   7.027  10.361 -0.7501  0.4821 -0.1546
  603MOL0     C83120   1.871   7.074  10.234  0.3280 -0.0284 -0.7383
  603MOL0    Cl83121   1.687   7.059  10.219 -0.0120 -0.5284  0.2914
  603MOL0     C83122   1.871   6.176  10.273  0.4055 -0.5185 -0.4502
  603MOL0     C83123   1.830   6.079  10.187  0.1768 -0.2683 -0.5352
  603MOL0     O83124   1.528   6.012  10.059 -0.6874 -0.8060  0.1213
  603MOL0     C83125   1.446   5.806   9.906 -0.1365  0.7455  0.6196
  603MOL0     C83126   1.412   5.722   9.795 -0.2232  0.3222 -0.7219
  603MOL0     N83127   1.204   5.412   9.196 -0.4376  0.3733 -0.2916
  603MOL0     N83128   1.122   5.399   9.097  0.4622  1.0003  0.4133
  603MOL0     C83129   0.636   5.472   8.484  0.0355 -0.2667 -0.5738
  603MOL0     C83130   0.550   5.368   8.457 -0.9987 -0.5782 -0.3723
  603MOL0     C83131   0.442   5.112   8.077 -0.3493  1.1689  0.3944
  603MOL0     C83132   0.504   5.008   8.152 -0.1993 -0.5086 -0.5783
  603MOL0     C83133   0.530   4.884   8.106 -0.0204 -0.2083  0.0220
  603MOL0     C83134   0.486   4.852   7.978  0.1791  0.0160  0.1144
  603MOL0     O83135   0.501   4.721   7.937  0.3656  0.0873  0.7174
  603MOL0     C83136   0.506   4.684   7.795  0.2439  1.1062  0.3461
  603MOL0     C83137   0.625   4.728   7.717 -0.2283 -0.2539  0.1638
  603MOL0     C83138   0.619   4.694   7.566 -1.2206  0.3636  1.0884
  603MOL0     C83139   0.755   4.709   7.501 -1.3194 -0.7478  0.6230
  603MOL0     C83140   0.747   4.747   7.352 -1.0965 -0.0387 -0.0258
  603MOL0     C83141   0.735   4.745   7.234  0.0754 -0.0573  0.4718
  603MOL0     C83142   0.429   4.956   7.900  0.6160 -0.1266  0.4104
  603MOL0     C83143   0.404   5.087   7.948  0.1579 -0.1606  0.0200
  603MOL0     C83144   0.320   5.182   7.858  0.8195  0.1842  0.8075
  603MOL0     H83145   0.552   5.449   8.115  1.8427  3.2526 -0.2726
  603MOL0     H83146   0.709   5.596   8.169  2.8244 -2.0051 -0.9000
  603MOL0     H83147   0.771   5.793   8.287 -1.2133 -2.2380 -0.5821
  603MOL0     H83148   0.897   5.682   8.242  2.9914  2.8441 -1.2638
  603MOL0     H83149   0.996   5.894   8.292  1.2990 -0.2936 -0.8302
  603MOL0     H83150   0.913   5.895   8.452  1.1543 -0.4817 -0.5777
  603MOL0     H83151   1.128   5.691   8.368 -1.6052 -1.0226 -0.3996
  603MOL0     H83152   1.158   5.853   8.437 -0.2972  0.2461 -0.2373
  603MOL0     H83153   1.021   5.785   8.647  2.0961  2.0779 -0.6945
  603MOL0     H83154   1.022   5.631   8.574 -1.3028  0.9036  2.5844
  603MOL0     H83155   1.263   5.787   8.648 -1.0535 -0.5410 -2.9573
  603MOL0     H83156   1.282   5.645   8.557  0.2603  0.3063  0.1032
  603MOL0     H83157   1.272   5.631   8.842 -2.8137 -0.3677  0.8329
  603MOL0     H83158   1.110   5.614   8.803  1.1481  3.2204  1.3173
  603MOL0     H83159   1.318   5.422   8.741 -0.4865  0.3842  0.8431
  603MOL0     H83160   1.178   5.442   8.635  1.3927 -1.2363 -0.3517
  603MOL0     H83161   1.044   5.375   8.831 -0.0236  0.7069 -3.2770
  603MOL0     H83162   1.173   5.255   8.810 -1.0413  0.6282 -1.3951
  603MOL0     H83163   1.411   5.399   8.943 -0.4576  0.6253  0.3514
  603MOL0     H83164   1.494   5.539   9.196 -0.8522  0.6564  0.6247
  603MOL0     H83165   1.533   5.370   9.206 -1.6149 -1.2372  0.4276
  603MOL0     H83166   1.392   5.537   9.422 -1.8156 -2.1162  2.1834
  603MOL0     H83167   1.356   5.357   9.406 -0.9772  0.8072 -2.1723
  603MOL0     H83168   1.595   5.318   9.434 -1.0753 -0.9595  2.1846
  603MOL0     H83169   1.631   5.489   9.417 -1.2369 -0.8822 -3.2713
  603MOL0     H83170   1.513   5.344   9.643 -4.7572  3.6799  2.0221
  603MOL0     H83171   1.656   5.443   9.664 -0.9962 -0.0832  2.6928
  603MOL0     H83172   1.734   5.630   9.732  2.0870  0.7189  1.5075
  603MOL0     H83173   1.848   5.876   9.911 -0.6220  0.1048 -2.3689
  603MOL0     H83174   1.893   5.718   9.848 -0.9522  2.0501 -2.1513
  603MOL0     H83175   1.855   5.740  10.023 -0.0035 -0.5485  0.2320
  603MOL0     H83176   1.589   5.940  10.367 -1.5107  0.9901 -3.1055
  603MOL0     H83177   1.660   6.129  10.524  1.0074 -1.2743  0.5498
  603MOL0     H83178   1.797   6.448  10.387 -4.2801  1.0219  0.7505
  603MOL0     H83179   1.698   6.397  10.505  0.3429  0.5980 -0.4105
  603MOL0     H83180   1.778   6.585  10.599 -1.1445 -3.0470  3.1253
  603MOL0     H83181   1.891   6.475  10.677 -2.5932  0.8864  1.4529
  603MOL0     H83182   1.960   6.593  10.399 -2.0761 -3.9538  0.5762
  603MOL0     H83183   2.069   6.521  10.510  0.9956  1.0922  0.3064
  603MOL0     H83184   2.128   6.747  10.565 -0.0529 -0.0209  0.9506
  603MOL0     H83185   2.011   6.717  10.686 -1.9079 -1.2705 -0.2829
  603MOL0     H83186   1.838   6.851  10.572  0.9113  1.9961  0.3842
  603MOL0     H83187   1.991   6.926  10.587  0.0515  0.8165  0.5958
  603MOL0     H83188   1.846   6.834  10.330  0.6860  4.4814 -4.4410
  603MOL0     H83189   2.023   6.841  10.336 -0.2660 -0.9718 -0.5048
  603MOL0     H83190   2.022   7.061  10.381 -0.1181 -0.3132 -1.8961
  603MOL0     H83191   1.859   7.072  10.441 -2.0370 -2.9263  0.9465
  603MOL0     H83192   1.906   7.007  10.156 -2.3649 -3.0519  0.4516
  603MOL0     H83193   1.913   7.173  10.213  0.9085 -0.4103 -1.4163
  603MOL0     H83194   1.954   6.241  10.245  0.1685 -0.6864 -1.6158
  603MOL0     H83195   1.874   6.066  10.089  1.0930  0.2075 -0.1925
  603MOL0     H83196   1.367   5.864   9.952 -1.1637  0.1276 -0.3361
  603MOL0     H83197   1.306   5.731   9.779 -0.7564  0.4383  2.2542
  603MOL0     H83198   0.655   5.482   8.590 -0.4750  1.0283 -0.5824
  603MOL0     H83199   0.503   5.327   8.546 -0.2859  0.1677  0.3697
  603MOL0     H83200   0.527   5.031   8.255 -3.0571 -0.5641  0.1382
  603MOL0     H83201   0.578   4.810   8.169  0.5683 -0.2354 -0.4618
  603MOL0     H83202   0.499   4.575   7.789 -0.8931  1.2227 -1.1792
  603MOL0     H83203   0.423   4.719   7.732  3.1065  2.5873 -2.9303
  603MOL0     H83204   0.708   4.667   7.755 -0.5684 -3.0562 -3.0817
  603MOL0     H83205   0.643   4.836   7.719  2.6799 -0.6742  1.7184
  603MOL0     H83206   0.590   4.590   7.548 -0.5338 -0.2394  3.1805
  603MOL0     H83207   0.551   4.760   7.510 -1.6802 -2.2306 -1.6876
  603MOL0     H83208   0.803   4.613   7.520 -1.6670 -1.0714 -0.0805
  603MOL0     H83209   0.822   4.785   7.543 -0.0610 -1.5726  0.1547
  603MOL0     H83210   0.718   4.735   7.128 -0.1479 -0.4661  0.5441
  603MOL0     H83211   0.405   4.949   7.794 -1.2244  0.0864  0.7920
  603MOL0     H83212   0.377   5.276   7.855  2.0404 -0.5343  0.7733
  603MOL0     H83213   0.297   5.139   7.760 -1.1037 -1.4262  1.8864
  603MOL0     H83214   0.224   5.203   7.906  0.8148  2.2892 -0.0137
  604MOL0     O83215   4.679   1.855   6.943  0.2693 -0.2342 -0.2571
  604MOL0     C83216   4.582   1.839   6.878 -0.9139  0.3895 -0.1963
  604MOL0     O83217   4.586   1.799   6.747  1.0782  0.2830 -0.7318
  604MOL0     C83218   4.691   1.802   6.659  0.1290 -0.2096 -0.1872
  604MOL0     C83219   4.825   1.829   6.690  0.9683 -0.6056  0.2062
  604MOL0     C83220   4.926   1.827   6.587 -0.1307  0.3277 -0.3781
  604MOL0     C83221   4.890   1.796   6.450  0.3988 -0.2720 -0.4258
  604MOL0     O83222   4.994   1.801   6.358 -0.3478  0.3884 -0.2431
  604MOL0     C83223   4.988   1.681   6.275  0.5868  0.0978 -0.3043
  604MOL0     C83224   5.122   1.660   6.223  0.2524 -0.0876 -0.4736
  604MOL0     C83225   5.221   1.620   6.331 -0.2803 -0.4927 -0.4109
  604MOL0     C83226   5.362   1.568   6.282 -0.6020  0.4370 -0.1373
  604MOL0     C83227   5.446   1.670   6.196  0.4181  0.4987 -0.9404
  604MOL0     C83228   5.597   1.647   6.223 -0.0770 -0.5532  0.8380
  604MOL0     C83229   5.678   1.723   6.110 -0.0418 -0.6178 -0.6520
  604MOL0     C83230   5.786   1.811   6.172 -0.2438  0.5869  0.9503
  604MOL0     N83231   5.864   1.885   6.078  0.7806  0.9018  1.1039
  604MOL0     C83232   5.965   1.837   6.001 -0.3053  0.0408  0.9115
  604MOL0     C83233   6.026   1.940   5.929  0.6944  0.1773  0.6202
  604MOL0     C83234   6.144   1.936   5.834 -1.1741 -0.8520 -0.5304
  604MOL0     C83235   6.266   1.881   5.901  0.1291 -0.0093 -0.1846
  604MOL0     C83236   6.385   1.888   5.818  0.3343 -0.5223 -1.2553
  604MOL0     C83237   6.385   1.804   5.690  0.0528  0.2398  0.0703
  604MOL0     O83238   6.483   1.846   5.593 -0.1730 -0.4981 -0.8083
  604MOL0     C83239   6.439   1.945   5.511  0.4566 -0.1508 -0.4893
  604MOL0     C83240   6.340   1.923   5.417 -0.1405  0.6564  0.6400
  604MOL0     C83241   6.291   2.018   5.329 -0.3152 -1.1098  0.0310
  604MOL0     C83242   6.184   1.979   5.230  0.1583  0.5158 -0.5787
  604MOL0     C83243   6.345   2.150   5.344 -0.7569 -0.2729  0.1040
  604MOL0     C83244   6.298   2.274   5.258  0.0658  0.6181 -0.4922
  604MOL0     O83245   6.318   2.387   5.328  0.2414 -0.4518 -0.1493
  604MOL0     C83246   6.261   2.500   5.279 -0.3010 -0.6642 -0.1620
  604MOL0     C83247   6.138   2.538   5.322  0.4989  0.3807  0.0216
  604MOL0     C83248   6.086   2.656   5.257 -0.2271  0.8116 -0.9447
  604MOL0     C83249   6.151   2.717   5.151  0.0819 -0.1491 -0.5393
  604MOL0     O83250   6.091   2.823   5.081  0.2923  0.3871  0.4011
  604MOL0     C83251   6.015   2.931   5.140 -0.4650  0.3022  0.2513
  604MOL0     C83252   6.069   3.076   5.107  0.4043 -0.2425 -0.1900
  604MOL0     C83253   6.212   3.084   5.155  0.3250 -1.1964 -0.5978
  604MOL0     C83254   6.284   3.208   5.098  0.1446  0.5670  0.7294
  604MOL0     C83255   6.394   3.251   5.197  0.5112  0.5451  0.8553
  604MOL0     C83256   6.501   3.342   5.135  0.6939  0.4813  0.2231
  604MOL0     C83257   6.559   3.438   5.245  0.6696  0.3144  0.4193
  604MOL0     C83258   6.666   3.518   5.186  0.2198  0.5491  0.0378
  604MOL0    Cl83259   6.714   3.655   5.302  0.1322  0.1892  0.4247
  604MOL0     C83260   6.285   2.682   5.125  0.3788  0.3965  0.9803
  604MOL0     C83261   6.341   2.579   5.196  0.5655 -0.7562  1.1994
  604MOL0     O83262   6.243   2.262   5.153  0.1204 -0.2942  0.0975
  604MOL0     C83263   6.438   2.182   5.445  0.4105  0.7448  0.2979
  604MOL0     C83264   6.476   2.079   5.531 -0.5761  0.4187 -0.4336
  604MOL0     N83265   5.953   2.047   5.966  0.3895 -0.1306 -0.4482
  604MOL0     N83266   5.855   2.014   6.043 -0.4788 -0.3587 -0.3106
  604MOL0     C83267   4.759   1.755   6.418  0.4545  0.0545 -0.8951
  604MOL0     C83268   4.663   1.757   6.523 -0.3627  0.2105  0.1351
  604MOL0     C83269   4.448   1.848   6.937  0.4042  0.3005  0.1962
  604MOL0     C83270   4.339   1.899   6.862 -0.3795 -0.0744 -0.1025
  604MOL0     C83271   4.212   1.919   6.910  0.6134  0.0005  0.0088
  604MOL0     C83272   4.190   1.898   7.044  0.4721  0.6729  0.5556
  604MOL0     O83273   4.068   1.921   7.104 -0.3795 -0.5164 -0.6863
  604MOL0     C83274   4.068   2.043   7.190  0.3254 -0.8406  0.0275
  604MOL0     C83275   3.946   2.041   7.289  0.0658 -0.7694  0.9498
  604MOL0     C83276   3.815   2.094   7.223 -0.0947 -1.2396  0.6270
  604MOL0     C83277   3.798   2.247   7.256 -0.3161 -0.5447 -0.1746
  604MOL0     C83278   3.664   2.286   7.223 -0.4334 -0.5844  0.7002
  604MOL0     C83279   3.552   2.329   7.199  0.2993  0.0430 -0.3326
  604MOL0     C83280   4.300   1.859   7.124 -1.0294 -0.2804 -0.4951
  604MOL0     C83281   4.429   1.825   7.076  0.8028 -0.9751 -0.0864
  604MOL0     C83282   4.546   1.789   7.177 -0.0840 -0.4954  0.7175
  604MOL0     H83283   4.865   1.852   6.788  0.2524  1.8557 -0.0091
  604MOL0     H83284   5.033   1.837   6.601  0.3345 -4.1851  0.6059
  604MOL0     H83285   4.920   1.705   6.193  2.3192  2.2989 -1.2017
  604MOL0     H83286   4.946   1.594   6.327  0.6009  1.4738  2.1927
  604MOL0     H83287   5.113   1.583   6.146 -1.1062 -0.6497  0.2137
  604MOL0     H83288   5.155   1.750   6.170  1.1653 -0.1135  0.0415
  604MOL0     H83289   5.244   1.709   6.390 -1.4163  0.1598 -0.9263
  604MOL0     H83290   5.181   1.547   6.402  0.6264 -0.0433  0.5866
  604MOL0     H83291   5.426   1.551   6.369  1.1695  0.9588 -1.2751
  604MOL0     H83292   5.357   1.473   6.229 -1.2942  0.7166 -0.5834
  604MOL0     H83293   5.425   1.770   6.236  3.1847 -0.2489  2.9159
  604MOL0     H83294   5.424   1.654   6.090 -1.9520 -0.3647 -0.3672
  604MOL0     H83295   5.617   1.664   6.329 -4.3368 -0.0190  1.7330
  604MOL0     H83296   5.615   1.540   6.213 -5.6786 -1.7019 -0.1509
  604MOL0     H83297   5.614   1.779   6.042  0.9212 -0.3000 -1.3199
  604MOL0     H83298   5.727   1.647   6.049  1.7627  0.2940 -0.4228
  604MOL0     H83299   5.735   1.884   6.234 -0.7904 -0.0668  1.2798
  604MOL0     H83300   5.852   1.756   6.241  2.9937  0.9080 -1.6355
  604MOL0     H83301   6.014   1.741   6.003 -0.7443 -0.2809 -1.0047
  604MOL0     H83302   6.172   2.039   5.806  1.9710 -1.1796  0.9375
  604MOL0     H83303   6.123   1.881   5.742 -1.6982  1.1482 -1.6659
  604MOL0     H83304   6.278   1.941   5.992 -0.3905  1.1532 -0.8737
  604MOL0     H83305   6.247   1.778   5.935  0.7759  0.3087  1.2179
  604MOL0     H83306   6.405   1.991   5.787  0.4924 -0.1290  0.0790
  604MOL0     H83307   6.470   1.866   5.884  1.4450  0.2916 -2.3706
  604MOL0     H83308   6.406   1.698   5.708 -1.6441 -0.3975 -1.3344
  604MOL0     H83309   6.286   1.808   5.643  0.6122  3.2960 -1.0642
  604MOL0     H83310   6.314   1.818   5.408 -2.1770  1.2100 -0.5006
  604MOL0     H83311   6.130   1.889   5.260  0.7386  0.2597 -0.2890
  604MOL0     H83312   6.246   1.944   5.147  1.6875 -2.7148  1.6963
  604MOL0     H83313   6.111   2.060   5.221 -1.5071 -0.9310 -0.5270
  604MOL0     H83314   6.085   2.476   5.393  1.2051 -1.4625 -1.0026
  604MOL0     H83315   5.988   2.684   5.296 -0.4714 -1.7346  0.4993
  604MOL0     H83316   5.915   2.912   5.101  0.1705  0.1491 -1.3828
  604MOL0     H83317   6.013   2.922   5.249  2.4211  2.2267  0.5956
  604MOL0     H83318   6.085   3.083   4.999  1.5461  2.0263  0.0607
  604MOL0     H83319   6.008   3.153   5.155 -1.9605 -2.1344  0.0670
  604MOL0     H83320   6.270   2.995   5.130 -1.3352 -2.3844 -0.4197
  604MOL0     H83321   6.197   3.081   5.263 -3.8634  0.0158 -0.9469
  604MOL0     H83322   6.222   3.293   5.071 -0.1087 -0.2084 -1.2799
  604MOL0     H83323   6.335   3.177   5.007  1.5235  0.3653  1.5332
  604MOL0     H83324   6.349   3.306   5.281 -1.3969 -1.5842  1.3398
  604MOL0     H83325   6.450   3.165   5.236 -3.1383 -2.0534  0.9026
  604MOL0     H83326   6.447   3.410   5.069 -4.2661 -0.9864  2.3308
  604MOL0     H83327   6.582   3.295   5.078 -0.0619  0.7363 -1.0911
  604MOL0     H83328   6.587   3.369   5.326  0.1136  0.2805  0.5841
  604MOL0     H83329   6.481   3.502   5.287 -0.1466 -1.3179  1.5180
  604MOL0     H83330   6.633   3.548   5.086  1.9840 -4.0999 -2.2143
  604MOL0     H83331   6.756   3.457   5.172  0.9069  0.8676  2.4769
  604MOL0     H83332   6.344   2.747   5.061 -1.1130  0.7399 -0.1053
  604MOL0     H83333   6.447   2.568   5.172 -0.4556 -5.1564 -2.5217
  604MOL0     H83334   6.491   2.275   5.464 -0.8103  1.0163  2.7450
  604MOL0     H83335   6.555   2.087   5.606 -0.3389  2.5986 -0.8548
  604MOL0     H83336   4.725   1.724   6.320  2.5121  3.6275 -2.9580
  604MOL0     H83337   4.558   1.737   6.504 -0.4608 -0.2101  1.0840
  604MOL0     H83338   4.354   1.943   6.764 -0.0479  1.7798  0.7442
  604MOL0     H83339   4.137   1.964   6.846 -3.7929  0.9168  5.1260
  604MOL0     H83340   4.158   2.059   7.251  1.5424 -2.9408 -1.0988
  604MOL0     H83341   4.049   2.129   7.126 -2.6748 -2.3999 -1.3863
  604MOL0     H83342   3.970   2.096   7.381  0.0622  0.9114 -0.0197
  604MOL0     H83343   3.929   1.935   7.314 -0.3775 -1.7185 -2.7556
  604MOL0     H83344   3.814   2.069   7.117 -0.8328 -0.1969  0.3689
  604MOL0     H83345   3.733   2.045   7.277  0.6079 -0.3873  2.5776
  604MOL0     H83346   3.864   2.305   7.191  3.2933  1.5146  4.6607
  604MOL0     H83347   3.811   2.269   7.362  0.2949 -1.4701 -0.0469
  604MOL0     H83348   3.448   2.357   7.201 -0.1584 -1.4425  2.6138
  604MOL0     H83349   4.273   1.843   7.228  0.1522 -0.5739 -0.2193
  604MOL0     H83350   4.611   1.711   7.137  2.2134  1.9101 -0.5352
  604MOL0     H83351   4.615   1.873   7.188  0.2957 -0.5734 -0.9079
  604MOL0     H83352   4.512   1.742   7.270  0.4412  1.5255  1.9894
  605MOL0     O83353   2.818   0.185   9.143 -0.1000 -0.1393  0.0382
  605MOL0     C83354   2.926   0.140   9.104  0.2348  0.8898  0.2852
  605MOL0     O83355   2.956   0.006   9.111 -0.2389  1.2077  0.5406
  605MOL0     C83356   2.866  -0.099   9.146  0.5296 -0.4372 -0.3251
  605MOL0     C83357   2.730  -0.083   9.179  0.2228  0.8554 -0.5358
  605MOL0     C83358   2.667  -0.185   9.255 -0.3758 -1.0475  0.0323
  605MOL0     C83359   2.726  -0.308   9.269  0.5074  0.2975  0.9785
  605MOL0     O83360   2.668  -0.408   9.340 -1.1265  1.1268  0.2512
  605MOL0     C83361   2.674  -0.374   9.476 -0.0914 -0.1278  0.1507
  605MOL0     C83362   2.619  -0.494   9.549 -0.7674  0.9118 -0.6903
  605MOL0     C83363   2.466  -0.508   9.525 -0.1531  0.1823  1.1369
  605MOL0     C83364   2.412  -0.619   9.609  0.0899  0.6346  0.1630
  605MOL0     C83365   2.414  -0.583   9.762  0.2758 -0.8003 -0.3071
  605MOL0     C83366   2.326  -0.678   9.838  0.9114 -0.3632 -0.4533
  605MOL0     C83367   2.378  -0.825   9.833 -0.2991  0.2985 -0.3276
  605MOL0     C83368   2.301  -0.901   9.940  0.0166  0.3105 -0.3152
  605MOL0     N83369   2.391  -0.938  10.054 -0.0562  0.9708  0.0782
  605MOL0     C83370   2.469  -1.060  10.056  1.0252  0.2273 -0.5508
  605MOL0     C83371   2.522  -1.067  10.181  0.1201 -1.1083 -0.2228
  605MOL0     C83372   2.631  -1.165  10.235 -0.4093 -0.9156  0.6891
  605MOL0     C83373   2.737  -1.220  10.134  0.2157 -0.0231  0.6904
  605MOL0     C83374   2.835  -1.102  10.097  0.1153  0.1313 -0.2452
  605MOL0     C83375   2.959  -1.154  10.044 -0.4423  0.6146  0.4939
  605MOL0     O83376   3.059  -1.059  10.021  0.3373 -0.3330  0.6490
  605MOL0     C83377   3.165  -1.063  10.104  0.4361 -0.1029  0.3707
  605MOL0     C83378   3.170  -0.984  10.220 -0.0966  0.0869 -0.4806
  605MOL0     C83379   3.262  -1.007  10.324 -0.6037  0.5034 -0.4297
  605MOL0     C83380   3.278  -0.909  10.443 -0.7340  0.4205  0.0253
  605MOL0     C83381   3.353  -1.121  10.302 -0.6646  1.0104  0.0789
  605MOL0     C83382   3.442  -1.164  10.412 -0.0545 -0.7541  0.7103
  605MOL0     O83383   3.411  -1.123  10.534 -0.8348 -0.2159  0.2611
  605MOL0     C83384   3.478  -1.177  10.641  0.2655 -0.5022 -0.9838
  605MOL0     C83385   3.580  -1.099  10.701  0.8923  0.6478  1.0749
  605MOL0     C83386   3.656  -1.150  10.809 -0.4443  0.5487 -0.0304
  605MOL0     C83387   3.619  -1.284  10.860 -0.6796  0.0021 -0.1457
  605MOL0     O83388   3.684  -1.356  10.965 -0.5124  0.2882 -0.2835
  605MOL0     C83389   3.819  -1.335  11.019 -0.0322  0.0892  0.5978
  605MOL0     C83390   3.915  -1.369  10.898  0.0612 -0.8285 -0.3580
  605MOL0     C83391   4.070  -1.368  10.924  0.2904 -0.8609  0.4821
  605MOL0     C83392   4.121  -1.381  11.067 -0.7461  0.0076 -0.0515
  605MOL0     C83393   4.277  -1.405  11.078 -0.4625 -0.4696 -0.0278
  605MOL0     C83394   4.343  -1.350  11.199  0.1182 -0.0262 -0.0573
  605MOL0     C83395   4.335  -1.420  11.332 -0.2216  0.7933  0.6531
  605MOL0     C83396   4.407  -1.551  11.339 -0.5117  0.2667 -1.0037
  605MOL0    Cl83397   4.380  -1.623  11.503 -0.0933  0.0082 -0.1728
  605MOL0     C83398   3.510  -1.356  10.804  0.2988  0.7222 -0.0796
  605MOL0     C83399   3.439  -1.300  10.702 -0.4346 -0.5077  0.1527
  605MOL0     O83400   3.537  -1.230  10.385 -0.5437 -0.1358  0.4617
  605MOL0     C83401   3.356  -1.193  10.177 -0.5577  0.5118  0.1559
  605MOL0     C83402   3.265  -1.156  10.083  0.5038 -0.5634  0.1134
  605MOL0     N83403   2.485  -0.940  10.238  0.2611  0.3900 -0.7976
  605MOL0     N83404   2.409  -0.865  10.172  0.5159  0.0099  0.2944
  605MOL0     C83405   2.850  -0.329   9.213 -0.4944 -0.2111 -0.1565
  605MOL0     C83406   2.931  -0.225   9.160 -0.6785  0.0211  0.1716
  605MOL0     C83407   3.022   0.230   9.032 -0.9377  0.3728  0.1318
  605MOL0     C83408   3.072   0.192   8.906  0.0070  0.1352  0.2703
  605MOL0     C83409   3.154   0.275   8.833  0.6868  0.9226  0.2515
  605MOL0     C83410   3.195   0.394   8.894 -0.9744 -0.3116 -1.1617
  605MOL0     O83411   3.286   0.477   8.835 -0.1334 -0.0812  0.2888
  605MOL0     C83412   3.248   0.532   8.704 -0.1027 -0.2064  0.5519
  605MOL0     C83413   3.199   0.681   8.723  1.4873  0.3444 -0.1117
  605MOL0     C83414   3.219   0.762   8.592 -0.8702 -1.0503  0.2712
  605MOL0     C83415   3.238   0.916   8.611 -0.5004 -0.1132  0.7739
  605MOL0     C83416   3.125   0.972   8.675  1.7342 -0.8445 -0.6837
  605MOL0     C83417   3.023   1.017   8.732 -0.6265 -0.2021  0.2992
  605MOL0     C83418   3.154   0.428   9.015 -0.2994  0.1966 -1.3039
  605MOL0     C83419   3.066   0.345   9.089 -1.0491  0.3319 -0.5453
  605MOL0     C83420   3.066   0.378   9.238  0.6852  0.2004 -0.0208
  605MOL0     H83421   2.679   0.010   9.155  0.6954  0.8443 -1.6569
  605MOL0     H83422   2.572  -0.154   9.298 -0.4755 -1.0190 -0.2053
  605MOL0     H83423   2.608  -0.288   9.492 -1.3996 -0.6941 -1.7773
  605MOL0     H83424   2.778  -0.354   9.500 -0.5697  1.2779  1.1569
  605MOL0     H83425   2.666  -0.585   9.513  1.6333  1.4898  0.7544
  605MOL0     H83426   2.643  -0.492   9.656  2.4398  0.4456 -1.3126
  605MOL0     H83427   2.404  -0.420   9.544  1.3250  1.5416 -0.0497
  605MOL0     H83428   2.454  -0.524   9.418  4.6268  2.1548  0.0321
  605MOL0     H83429   2.309  -0.635   9.577  0.5799  0.4718 -1.3856
  605MOL0     H83430   2.465  -0.715   9.612 -0.7902 -0.0063 -2.6237
  605MOL0     H83431   2.370  -0.484   9.772 -2.4939 -1.6824 -2.5021
  605MOL0     H83432   2.518  -0.591   9.796  0.0784 -4.1663 -0.1681
  605MOL0     H83433   2.319  -0.651   9.944 -1.4925 -0.1933 -0.5895
  605MOL0     H83434   2.222  -0.681   9.803 -0.2510  0.4031  2.5820
  605MOL0     H83435   2.485  -0.846   9.835 -0.6971 -1.9820  1.9363
  605MOL0     H83436   2.339  -0.873   9.743 -2.1152 -0.3573  0.7452
  605MOL0     H83437   2.211  -0.854   9.983 -0.5154 -1.4154  0.5993
  605MOL0     H83438   2.258  -0.994   9.901 -3.1371  0.8706  1.4084
  605MOL0     H83439   2.477  -1.142   9.986  2.4524 -1.0523  1.0298
  605MOL0     H83440   2.577  -1.257  10.262  1.0752 -1.1613  3.0548
  605MOL0     H83441   2.683  -1.118  10.319  4.6919 -3.0953 -0.9035
  605MOL0     H83442   2.792  -1.297  10.188 -2.4758 -0.3408  3.2537
  605MOL0     H83443   2.701  -1.259  10.039  4.2269 -0.5868 -0.7890
  605MOL0     H83444   2.790  -1.037  10.023  2.2371  1.0398 -0.8279
  605MOL0     H83445   2.848  -1.043  10.188 -2.0026  0.7988 -0.3456
  605MOL0     H83446   3.002  -1.237  10.102 -0.5507 -0.2601 -0.6486
  605MOL0     H83447   2.930  -1.203   9.951  2.1766 -0.0748 -0.0463
  605MOL0     H83448   3.102  -0.900  10.231  0.8519  0.7531  0.5481
  605MOL0     H83449   3.226  -0.964  10.522 -1.9455 -1.1977 -1.7949
  605MOL0     H83450   3.241  -0.808  10.425  1.9953  1.2389 -1.4753
  605MOL0     H83451   3.384  -0.898  10.467 -0.5626 -2.5297  1.0596
  605MOL0     H83452   3.611  -1.000  10.667 -0.8351  0.5244 -1.1015
  605MOL0     H83453   3.740  -1.093  10.845 -0.7353  0.8993  0.1017
  605MOL0     H83454   3.818  -1.234  11.061 -3.6848 -0.8060  3.1938
  605MOL0     H83455   3.841  -1.404  11.101  1.1257 -0.2139  0.0481
  605MOL0     H83456   3.887  -1.466  10.858  3.0537 -1.4575 -1.2201
  605MOL0     H83457   3.901  -1.296  10.817 -1.2511  1.2919  1.6426
  605MOL0     H83458   4.119  -1.290  10.865  0.8854 -1.3804  0.2733
  605MOL0     H83459   4.115  -1.456  10.876  0.7481 -0.2549 -0.2154
  605MOL0     H83460   4.062  -1.453  11.125 -1.7003  0.1381 -0.8196
  605MOL0     H83461   4.098  -1.288  11.120  1.5493 -0.2244  1.4946
  605MOL0     H83462   4.300  -1.510  11.057  0.2705  0.0368 -1.9857
  605MOL0     H83463   4.325  -1.350  10.996 -0.8139 -1.1724 -0.7113
  605MOL0     H83464   4.294  -1.254  11.217 -0.4840  0.0240 -1.7772
  605MOL0     H83465   4.450  -1.344  11.178  0.2552 -1.1928  0.2475
  605MOL0     H83466   4.230  -1.446  11.351  0.5921 -2.9509  0.8505
  605MOL0     H83467   4.368  -1.355  11.413 -0.4390  0.6108  0.8901
  605MOL0     H83468   4.515  -1.536  11.333  0.0023 -0.3347  3.3187
  605MOL0     H83469   4.383  -1.626  11.263  0.7478  0.1306 -1.2911
  605MOL0     H83470   3.491  -1.455  10.845  3.6401  0.6501  1.6626
  605MOL0     H83471   3.353  -1.354  10.664  0.0249  0.7053 -2.8616
  605MOL0     H83472   3.411  -1.279  10.139  1.0169  2.2908 -1.8292
  605MOL0     H83473   3.270  -1.212   9.990  3.3690  1.3302 -1.0404
  605MOL0     H83474   2.872  -0.435   9.220 -1.2244 -0.2900  1.6352
  605MOL0     H83475   3.034  -0.224   9.128 -0.2765  0.7632  1.4103
  605MOL0     H83476   3.027   0.095   8.886  1.7955 -0.4961 -0.8936
  605MOL0     H83477   3.191   0.249   8.734  0.5351  1.2728  0.1020
  605MOL0     H83478   3.334   0.524   8.637 -1.3102 -2.0841 -0.8913
  605MOL0     H83479   3.181   0.456   8.662  1.1206 -0.1827 -1.5744
  605MOL0     H83480   3.252   0.734   8.803  2.2450 -0.5070 -0.0393
  605MOL0     H83481   3.094   0.687   8.753  0.7462 -0.4106 -2.3664
  605MOL0     H83482   3.297   0.722   8.526  1.2428  3.7519 -0.5854
  605MOL0     H83483   3.129   0.743   8.532  0.3746 -0.1220 -2.0157
  605MOL0     H83484   3.244   0.972   8.517 -1.1338 -0.0426  0.7760
  605MOL0     H83485   3.332   0.938   8.662  1.0396 -3.7383 -0.1546
  605MOL0     H83486   2.935   1.039   8.789 -0.2253  2.7026 -0.0915
  605MOL0     H83487   3.203   0.516   9.056  0.8202 -2.0802  2.9632
  605MOL0     H83488   3.093   0.480   9.266 -2.1856  1.3784 -1.1600
  605MOL0     H83489   2.969   0.356   9.285  1.4355  0.5522  1.7786
  605MOL0     H83490   3.142   0.312   9.281  1.6802  1.3732  0.0661
  606MOL0     O83491   9.964   7.448   5.003  0.3239  0.5728  0.3046
  606MOL0     C83492   9.908   7.499   4.901 -0.2445  0.0560 -1.2242
  606MOL0     O83493   9.806   7.450   4.841 -0.1794  0.1370  0.3004
  606MOL0     C83494   9.792   7.311   4.831  0.0623 -0.4994  0.3568
  606MOL0     C83495   9.669   7.261   4.881  0.0159 -0.6585 -1.2389
  606MOL0     C83496   9.625   7.133   4.846  0.3323 -0.1499  0.4799
  606MOL0     C83497   9.711   7.070   4.753  0.2966 -0.1108 -0.1737
  606MOL0     O83498   9.662   6.966   4.683 -0.2376 -0.0157 -0.3092
  606MOL0     C83499   9.525   6.976   4.637  0.2916  0.4470  0.8302
  606MOL0     C83500   9.520   6.874   4.526  0.0404  0.5348  0.6360
  606MOL0     C83501   9.414   6.914   4.421  0.3960 -0.3344  0.8544
  606MOL0     C83502   9.444   7.020   4.330  0.0911 -0.4310  1.0658
  606MOL0     C83503   9.323   7.049   4.239  0.0442 -0.9401  0.1097
  606MOL0     C83504   9.243   7.173   4.277  0.1476  0.1245  0.0063
  606MOL0     C83505   9.109   7.204   4.206 -0.2327 -0.2916 -0.3934
  606MOL0     C83506   9.154   7.245   4.060  0.0568 -0.2901 -0.0558
  606MOL0     N83507   9.089   7.155   3.965  0.1182 -0.1326 -0.3810
  606MOL0     C83508   9.155   7.078   3.877 -0.6847 -0.0324 -0.3405
  606MOL0     C83509   9.057   7.029   3.791 -0.2000  0.7513  0.0386
  606MOL0     C83510   9.068   6.949   3.658  0.5140  0.4108  0.3730
  606MOL0     C83511   8.996   6.812   3.657  0.3068  0.3646  1.0910
  606MOL0     C83512   8.988   6.762   3.512 -1.5614  0.2188 -0.5968
  606MOL0     C83513   8.999   6.605   3.506  0.1500 -0.5229  0.3772
  606MOL0     O83514   8.884   6.565   3.592 -0.2827  0.3979  0.2932
  606MOL0     C83515   8.826   6.444   3.575 -0.3735  0.5842 -0.2274
  606MOL0     C83516   8.886   6.335   3.508  0.3310 -0.6593 -0.3502
  606MOL0     C83517   8.832   6.208   3.515 -1.0081  0.3118  0.9802
  606MOL0     C83518   8.928   6.102   3.455 -0.6390 -0.4206  0.6293
  606MOL0     C83519   8.701   6.191   3.566  0.1918 -0.3527 -0.6151
  606MOL0     C83520   8.622   6.058   3.560 -0.9977  0.2555  0.9857
  606MOL0     O83521   8.507   6.059   3.626  1.0294 -0.3579  0.3006
  606MOL0     C83522   8.421   5.969   3.577  0.6285 -0.4581  0.7976
  606MOL0     C83523   8.329   6.000   3.479  1.0836  0.4427  0.0272
  606MOL0     C83524   8.232   5.902   3.443  0.9311  0.0908  0.1676
  606MOL0     C83525   8.224   5.777   3.519 -0.0923 -0.0549  0.0726
  606MOL0     O83526   8.127   5.694   3.488  0.4550 -0.6523 -0.9730
  606MOL0     C83527   8.122   5.558   3.527 -0.1325  0.0060 -0.4844
  606MOL0     C83528   8.004   5.534   3.611  0.2650  0.3026 -0.0269
  606MOL0     C83529   8.008   5.397   3.689 -0.1268  0.0333  0.0471
  606MOL0     C83530   7.890   5.421   3.787  0.1283  0.6253  0.0352
  606MOL0     C83531   7.876   5.305   3.885 -0.9815 -1.4916  0.4074
  606MOL0     C83532   7.758   5.325   3.979  1.3233  0.4675  0.4778
  606MOL0     C83533   7.760   5.238   4.108  0.1694  0.3424 -0.1774
  606MOL0     C83534   7.631   5.248   4.180  0.0838  0.1860 -0.9221
  606MOL0    Cl83535   7.594   5.418   4.244  0.2308  0.3837  0.4132
  606MOL0     C83536   8.330   5.748   3.618  0.1277 -0.0700 -0.2720
  606MOL0     C83537   8.418   5.851   3.653 -0.1719 -0.2577 -1.7890
  606MOL0     O83538   8.645   5.994   3.457  0.7283  0.5600  0.8025
  606MOL0     C83539   8.644   6.297   3.632 -0.3337 -0.0248 -0.4310
  606MOL0     C83540   8.707   6.425   3.632 -1.1734  0.0922  0.0999
  606MOL0     N83541   8.939   7.060   3.849 -0.4094 -0.3520 -0.5372
  606MOL0     N83542   8.959   7.138   3.947 -0.5938 -1.3133 -0.1456
  606MOL0     C83543   9.838   7.113   4.712  1.1606 -0.8459 -1.0407
  606MOL0     C83544   9.871   7.240   4.744  0.5447  0.2720  0.4747
  606MOL0     C83545   9.975   7.618   4.840  0.2751 -0.0711 -0.1842
  606MOL0     C83546   9.977   7.628   4.701 -0.2507 -0.2852  0.1900
  606MOL0     C83547  10.042   7.730   4.636  0.8817  0.0626 -0.1760
  606MOL0     C83548  10.105   7.828   4.708 -0.3023  0.6398  0.4655
  606MOL0     O83549  10.165   7.926   4.632 -0.4758  0.1032  0.1523
  606MOL0     C83550  10.292   7.962   4.685  0.3642 -0.9051  0.2466
  606MOL0     C83551  10.397   8.028   4.593 -0.2050 -0.8273 -0.4171
  606MOL0     C83552  10.364   8.134   4.486  0.3658 -0.1778 -0.0267
  606MOL0     C83553  10.477   8.161   4.390  0.4904  0.4220 -0.4593
  606MOL0     C83554  10.563   8.275   4.430  0.1696 -0.1273 -0.0319
  606MOL0     C83555  10.637   8.368   4.442 -0.3063 -0.2793 -0.1232
  606MOL0     C83556  10.103   7.827   4.852  1.3270 -0.1161  0.0918
  606MOL0     C83557  10.038   7.719   4.915  0.3285  0.0847  1.0589
  606MOL0     C83558  10.015   7.724   5.060  0.1542  1.0425  1.2895
  606MOL0     H83559   9.614   7.327   4.947  1.4380 -2.5938  2.1041
  606MOL0     H83560   9.531   7.089   4.880 -0.2422  0.2066 -0.5742
  606MOL0     H83561   9.495   7.078   4.609 -0.3100  0.1210  0.2760
  606MOL0     H83562   9.452   6.939   4.710 -2.1862  0.2350 -1.6218
  606MOL0     H83563   9.612   6.878   4.467 -1.1812  0.1201 -1.3909
  606MOL0     H83564   9.503   6.772   4.559 -0.8210  0.0718 -1.1804
  606MOL0     H83565   9.409   6.832   4.349  0.1894 -0.5608  1.1211
  606MOL0     H83566   9.314   6.930   4.463  0.4247 -2.2547  1.7832
  606MOL0     H83567   9.487   7.109   4.377  1.6027 -0.6396  0.1465
  606MOL0     H83568   9.526   6.982   4.269 -1.4932 -0.1393 -1.4084
  606MOL0     H83569   9.265   6.956   4.233  0.1266 -0.9814 -0.0431
  606MOL0     H83570   9.362   7.067   4.139  1.4363 -1.3092  0.5571
  606MOL0     H83571   9.211   7.161   4.381 -0.5988  3.9986  0.3909
  606MOL0     H83572   9.309   7.261   4.276  1.2106 -0.6364 -1.7899
  606MOL0     H83573   9.052   7.276   4.266  2.3995 -0.1770  2.2048
  606MOL0     H83574   9.060   7.107   4.199  1.3414 -1.1515 -0.0350
  606MOL0     H83575   9.110   7.345   4.049 -0.6333  0.1218  4.5040
  606MOL0     H83576   9.264   7.246   4.053  0.6154 -3.3900  4.4887
  606MOL0     H83577   9.263   7.064   3.872 -0.5049  1.0715  0.1662
  606MOL0     H83578   9.171   6.932   3.625  0.6836 -2.5581  1.9870
  606MOL0     H83579   9.022   7.008   3.579  1.1139 -1.1034 -1.1806
  606MOL0     H83580   9.053   6.742   3.719 -0.2138 -0.4798  0.6306
  606MOL0     H83581   8.893   6.820   3.691  0.0495 -3.2637  1.6320
  606MOL0     H83582   8.896   6.788   3.459 -2.5503  0.5562  1.2002
  606MOL0     H83583   9.069   6.808   3.453  0.7191  0.5524  2.5513
  606MOL0     H83584   8.986   6.556   3.409 -0.5851  0.3655  0.0134
  606MOL0     H83585   9.100   6.592   3.545  0.2899  0.3001  0.3078
  606MOL0     H83586   8.987   6.341   3.470  1.1694 -1.4072  1.6405
  606MOL0     H83587   8.915   6.010   3.513  0.1844 -0.2826  1.0501
  606MOL0     H83588   9.033   6.127   3.471 -0.0395 -3.1507  1.6358
  606MOL0     H83589   8.913   6.076   3.350  2.8062  1.4312 -0.4655
  606MOL0     H83590   8.335   6.096   3.429 -0.0440  0.3244 -0.3714
  606MOL0     H83591   8.166   5.924   3.361  2.0685  0.5011 -0.6656
  606MOL0     H83592   8.118   5.501   3.433  2.2178 -0.2193 -0.5125
  606MOL0     H83593   8.214   5.527   3.578  0.8131  1.5209 -1.1951
  606MOL0     H83594   7.994   5.626   3.668 -4.3246 -0.2739  0.4859
  606MOL0     H83595   7.934   5.523   3.527 -1.1866 -1.0367  1.3085
  606MOL0     H83596   8.096   5.374   3.750  1.7452  0.8270 -2.2051
  606MOL0     H83597   8.003   5.319   3.612  1.2060  1.3056 -1.4007
  606MOL0     H83598   7.797   5.436   3.731 -1.0223 -2.1725  0.9920
  606MOL0     H83599   7.917   5.509   3.845 -0.8233  0.4163  0.8162
  606MOL0     H83600   7.881   5.205   3.842  0.3631 -1.7015  0.9848
  606MOL0     H83601   7.970   5.314   3.942 -0.7059 -2.8535  0.1898
  606MOL0     H83602   7.668   5.321   3.916  3.0708  0.6187 -2.1526
  606MOL0     H83603   7.751   5.427   4.018  1.3000  1.2222 -1.3964
  606MOL0     H83604   7.837   5.279   4.174 -2.3862 -3.3981  5.9967
  606MOL0     H83605   7.782   5.133   4.085 -2.3953 -0.8239  2.2010
  606MOL0     H83606   7.624   5.175   4.261 -1.2840  2.2968  0.9977
  606MOL0     H83607   7.547   5.217   4.117 -0.1087  2.0204 -1.6491
  606MOL0     H83608   8.322   5.652   3.667  0.9771 -0.1127 -0.2127
  606MOL0     H83609   8.489   5.823   3.731  1.8758  0.8537 -3.1632
  606MOL0     H83610   8.546   6.278   3.675 -1.4508 -0.4259 -2.9802
  606MOL0     H83611   8.663   6.516   3.673  0.2515  0.5982  0.5598
  606MOL0     H83612   9.893   7.058   4.636 -1.4634 -0.4687 -3.3949
  606MOL0     H83613   9.960   7.281   4.696 -0.3829  1.1777 -0.5270
  606MOL0     H83614   9.936   7.554   4.632 -0.2832 -0.1631  0.0776
  606MOL0     H83615  10.048   7.723   4.527 -1.7319  0.0649 -0.3918
  606MOL0     H83616  10.268   8.031   4.766  0.4239 -0.9902  0.3372
  606MOL0     H83617  10.348   7.887   4.741  0.9679  0.7493  1.9589
  606MOL0     H83618  10.441   7.941   4.542 -2.1619 -0.9687 -1.9907
  606MOL0     H83619  10.459   8.073   4.671 -0.5133 -1.8487  0.4438
  606MOL0     H83620  10.288   8.080   4.428  1.8651 -2.4467  0.0226
  606MOL0     H83621  10.317   8.228   4.518  0.1240 -1.2541  3.0749
  606MOL0     H83622  10.428   8.178   4.294 -0.8881  4.9255  0.7671
  606MOL0     H83623  10.534   8.068   4.379  1.8983  1.1890  0.0394
  606MOL0     H83624  10.701   8.453   4.429  3.4552 -2.8742 -0.1080
  606MOL0     H83625  10.145   7.911   4.907  0.0535  2.8488 -3.0981
  606MOL0     H83626   9.927   7.664   5.087 -0.4292 -0.0988 -2.4389
  606MOL0     H83627  10.105   7.689   5.112  0.8535  2.0796  0.8203
  606MOL0     H83628  10.001   7.826   5.096  0.8078  1.9914 -0.9491
  607MOL0     O83629   0.600   4.299   9.791  0.1966 -0.0649 -0.0453
  607MOL0     C83630   0.506   4.251   9.726  0.1482 -0.5154 -0.0109
  607MOL0     O83631   0.498   4.247   9.582 -0.5646  0.6061  0.5029
  607MOL0     C83632   0.592   4.325   9.516  0.3103 -0.0384 -0.1693
  607MOL0     C83633   0.571   4.468   9.509  0.4948 -0.0911 -0.8248
  607MOL0     C83634   0.659   4.554   9.444 -0.1834  0.7185 -0.7200
  607MOL0     C83635   0.780   4.501   9.384  0.1366  0.0632 -0.0361
  607MOL0     O83636   0.886   4.570   9.320  0.9160 -0.4783  0.1572
  607MOL0     C83637   0.866   4.707   9.292  0.0076  0.8507  0.0188
  607MOL0     C83638   0.770   4.733   9.181 -0.2260 -0.2640  0.8425
  607MOL0     C83639   0.743   4.878   9.160 -0.3254  1.0131  0.4352
  607MOL0     C83640   0.673   4.891   9.026 -0.1402 -0.7675  0.4819
  607MOL0     C83641   0.680   5.038   8.985  0.1739  0.0581 -0.3620
  607MOL0     C83642   0.627   5.081   8.842 -0.8401 -0.4794 -0.3818
  607MOL0     C83643   0.480   5.081   8.835  0.4707  0.0846  0.2858
  607MOL0     C83644   0.422   4.942   8.791 -0.4109 -0.2381 -0.1307
  607MOL0     N83645   0.301   4.951   8.720  0.9713 -0.7081  0.0818
  607MOL0     C83646   0.181   4.883   8.750 -0.4333 -0.7398  0.4113
  607MOL0     C83647   0.109   4.891   8.640  0.2772 -0.5060 -0.3038
  607MOL0     C83648  -0.037   4.847   8.640  0.0765  0.4067  0.1568
  607MOL0     C83649  -0.058   4.694   8.651 -0.7611  0.2523 -0.8504
  607MOL0     C83650  -0.018   4.596   8.546  0.2857 -0.2418  0.0610
  607MOL0     C83651  -0.048   4.452   8.587 -0.0242  0.0939 -0.2162
  607MOL0     O83652   0.021   4.402   8.697 -0.5923 -0.2799 -0.4731
  607MOL0     C83653   0.041   4.275   8.714  0.0285 -0.1669  0.9468
  607MOL0     C83654   0.176   4.236   8.745 -0.1099  0.0005 -0.4140
  607MOL0     C83655   0.209   4.096   8.748  0.0925 -0.7758 -0.1311
  607MOL0     C83656   0.348   4.068   8.765  0.2785  0.7349 -0.4539
  607MOL0     C83657   0.105   4.001   8.732 -0.4542  0.0782  0.1973
  607MOL0     C83658   0.138   3.858   8.716  0.2565 -1.0308  0.4285
  607MOL0     O83659   0.241   3.820   8.630 -0.6068  0.2829  0.1745
  607MOL0     C83660   0.283   3.685   8.634 -0.8339 -1.0220 -0.0596
  607MOL0     C83661   0.349   3.646   8.749 -0.2111  0.3869  0.4062
  607MOL0     C83662   0.394   3.511   8.762 -0.3310 -0.4838  0.6669
  607MOL0     C83663   0.387   3.416   8.649  0.5829 -0.0652 -0.3305
  607MOL0     O83664   0.409   3.276   8.658 -0.2147 -0.0681 -0.1530
  607MOL0     C83665   0.475   3.223   8.768 -1.1200  0.1512  0.5150
  607MOL0     C83666   0.615   3.182   8.716 -0.2774  0.0130 -0.3220
  607MOL0     C83667   0.669   3.064   8.801 -0.5840 -0.5035  0.5348
  607MOL0     C83668   0.818   3.089   8.846  0.0592  1.3476 -0.1991
  607MOL0     C83669   0.921   3.090   8.728 -1.1350  0.6748  0.4817
  607MOL0     C83670   0.922   2.958   8.650  0.5944  0.2884  0.6740
  607MOL0     C83671   1.000   2.970   8.513  0.6513  0.0631 -0.4876
  607MOL0     C83672   1.136   3.031   8.523 -0.6243  0.5897  0.6513
  607MOL0    Cl83673   1.240   2.914   8.614  0.1500 -0.1405  0.4982
  607MOL0     C83674   0.310   3.468   8.538  0.5123 -0.2066  0.1607
  607MOL0     C83675   0.259   3.597   8.527  0.2594 -0.7176  0.6743
  607MOL0     O83676   0.058   3.782   8.768 -0.7875 -0.5425 -0.7617
  607MOL0     C83677  -0.028   4.046   8.730  0.9281  0.8217  0.0464
  607MOL0     C83678  -0.065   4.178   8.706 -0.0265  0.1511 -1.2624
  607MOL0     N83679   0.176   4.955   8.539  0.1857  0.9098 -0.1712
  607MOL0     N83680   0.290   5.001   8.592  0.0589 -0.4958 -0.3840
  607MOL0     C83681   0.800   4.361   9.399 -0.5563  0.1979 -0.0260
  607MOL0     C83682   0.699   4.274   9.451  0.1202  0.1994 -0.0698
  607MOL0     C83683   0.397   4.198   9.808  0.4891 -0.2740  0.0321
  607MOL0     C83684   0.327   4.086   9.756 -0.2687 -0.2057 -0.2003
  607MOL0     C83685   0.237   4.016   9.834  1.3356  0.0353  0.4379
  607MOL0     C83686   0.190   4.060   9.958 -0.4359 -0.4442  1.3054
  607MOL0     O83687   0.078   3.992  10.009  0.7698  0.2388  0.5338
  607MOL0     C83688   0.036   4.034  10.135  0.8562 -0.2817  0.3445
  607MOL0     C83689  -0.101   3.970  10.158  1.5578  0.0363 -0.1226
  607MOL0     C83690  -0.101   3.821  10.178 -0.4519 -0.1861  0.7796
  607MOL0     C83691  -0.225   3.764  10.242  0.1901 -0.1611 -0.0872
  607MOL0     C83692  -0.312   3.717  10.130  1.2370 -0.4414  0.0122
  607MOL0     C83693  -0.394   3.674  10.040 -0.7164  1.0209 -0.8104
  607MOL0     C83694   0.245   4.185  10.002 -0.2007  0.4218 -0.2779
  607MOL0     C83695   0.346   4.250   9.926 -0.2783 -0.2491 -0.2119
  607MOL0     C83696   0.397   4.379   9.982 -0.4076 -0.3547 -0.1969
  607MOL0     H83697   0.495   4.511   9.574  0.7974 -1.8306  0.7806
  607MOL0     H83698   0.636   4.659   9.460  0.2282  0.2660  4.3061
  607MOL0     H83699   0.964   4.752   9.279 -0.8500  2.4242 -1.3654
  607MOL0     H83700   0.831   4.762   9.381 -0.2239 -1.1434  1.2190
  607MOL0     H83701   0.812   4.706   9.083 -0.3237  3.4435 -0.3758
  607MOL0     H83702   0.670   4.693   9.202 -0.0370 -1.6263 -0.6344
  607MOL0     H83703   0.678   4.922   9.235 -0.6329  2.7302 -0.7743
  607MOL0     H83704   0.837   4.933   9.177 -0.6771  0.5757  4.7115
  607MOL0     H83705   0.735   4.840   8.953  0.9694 -1.2075  1.7027
  607MOL0     H83706   0.572   4.848   9.028 -1.4558  1.8647 -2.2820
  607MOL0     H83707   0.776   5.090   8.990 -1.4021  3.1843  0.1086
  607MOL0     H83708   0.615   5.093   9.054 -1.1639 -0.5093 -1.1427
  607MOL0     H83709   0.648   5.188   8.832  1.7378 -0.5557  2.7814
  607MOL0     H83710   0.680   5.032   8.760  1.7248 -0.1518  0.9660
  607MOL0     H83711   0.449   5.154   8.759 -0.9552  0.0218  0.7792
  607MOL0     H83712   0.437   5.100   8.934  0.6665  0.7853  0.2401
  607MOL0     H83713   0.502   4.900   8.730  1.9048  2.4577  0.8502
  607MOL0     H83714   0.411   4.874   8.876  2.0000 -1.0105 -0.3536
  607MOL0     H83715   0.161   4.839   8.847  0.3405  0.0333  0.9316
  607MOL0     H83716  -0.083   4.883   8.548  0.7125 -0.4774 -0.5279
  607MOL0     H83717  -0.078   4.905   8.723  0.1907  2.9346 -1.4456
  607MOL0     H83718  -0.002   4.665   8.740 -0.3468  1.2176 -0.7796
  607MOL0     H83719  -0.165   4.674   8.665 -0.7083 -0.4600 -1.4247
  607MOL0     H83720  -0.085   4.623   8.464 -2.4849  0.2997  2.3682
  607MOL0     H83721   0.089   4.600   8.523 -0.1428  0.0262 -2.0646
  607MOL0     H83722  -0.153   4.439   8.616 -0.7274 -1.6698 -3.0540
  607MOL0     H83723  -0.021   4.397   8.496  0.5018  1.4784 -0.9198
  607MOL0     H83724   0.254   4.310   8.758  1.0099 -1.0440 -0.9096
  607MOL0     H83725   0.379   4.113   8.860  3.5399 -2.0707  0.0190
  607MOL0     H83726   0.393   4.118   8.680  0.8466  0.6918 -0.1820
  607MOL0     H83727   0.371   3.961   8.770 -0.6292  0.5757  0.6573
  607MOL0     H83728   0.376   3.728   8.815  1.1440 -0.6158  1.1642
  607MOL0     H83729   0.443   3.485   8.855  0.6341 -1.7543 -0.1531
  607MOL0     H83730   0.478   3.287   8.856 -2.5321  1.8666 -0.6173
  607MOL0     H83731   0.412   3.136   8.791 -1.0599 -1.0172 -3.0189
  607MOL0     H83732   0.607   3.150   8.612 -2.0271  0.8578 -0.4751
  607MOL0     H83733   0.686   3.266   8.715 -0.4678  0.2080  0.9923
  607MOL0     H83734   0.642   2.967   8.758 -1.2828 -0.4030  0.7390
  607MOL0     H83735   0.605   3.057   8.889 -1.0330 -1.2468  0.1633
  607MOL0     H83736   0.844   3.010   8.917  0.1435  1.8471  0.3281
  607MOL0     H83737   0.826   3.172   8.916 -2.2141 -0.3168  2.2580
  607MOL0     H83738   0.912   3.170   8.655 -0.3106  0.7887  0.5040
  607MOL0     H83739   1.020   3.100   8.773 -0.5446  1.8993 -1.0155
  607MOL0     H83740   0.823   2.922   8.622 -0.0562  0.0522  3.0435
  607MOL0     H83741   0.971   2.883   8.713 -2.9534 -3.8048 -0.9229
  607MOL0     H83742   0.936   3.023   8.442 -0.5564 -0.6513  0.0232
  607MOL0     H83743   0.998   2.867   8.474 -2.1604 -0.4358  0.7077
  607MOL0     H83744   1.140   3.131   8.567 -2.0417  2.1146 -2.3626
  607MOL0     H83745   1.165   3.047   8.419  2.2628  1.8854  1.5744
  607MOL0     H83746   0.283   3.401   8.456 -1.7024  0.4963  0.2445
  607MOL0     H83747   0.200   3.621   8.438  2.0611 -3.3603 -1.4061
  607MOL0     H83748  -0.104   3.969   8.721  0.4945  1.3663 -1.1171
  607MOL0     H83749  -0.167   4.214   8.707 -0.3885 -0.7474  1.0593
  607MOL0     H83750   0.885   4.317   9.348 -1.1292 -0.3008 -0.5786
  607MOL0     H83751   0.713   4.166   9.446 -2.2576 -0.1177 -3.1237
  607MOL0     H83752   0.367   4.051   9.662 -1.9698 -1.6522 -0.4464
  607MOL0     H83753   0.183   3.929   9.800  0.5705  0.6999 -0.0645
  607MOL0     H83754   0.097   4.000  10.218  1.5343  2.1366  0.9132
  607MOL0     H83755   0.035   4.143  10.131  4.8099 -0.0494  1.7666
  607MOL0     H83756  -0.172   3.991  10.077 -0.5736  1.9289  2.1063
  607MOL0     H83757  -0.157   4.011  10.242 -3.3943 -0.3815 -2.8576
  607MOL0     H83758  -0.094   3.769  10.082  1.3082 -3.0148  2.3013
  607MOL0     H83759  -0.023   3.786  10.246 -0.5445 -4.1469 -0.8950
  607MOL0     H83760  -0.282   3.842  10.294  0.8231  2.3322 -2.8313
  607MOL0     H83761  -0.200   3.683  10.311 -2.8981  0.2322  1.6905
  607MOL0     H83762  -0.465   3.624   9.977 -0.9543 -0.4573  0.5558
  607MOL0     H83763   0.200   4.227  10.092 -0.5380 -1.4891  0.4887
  607MOL0     H83764   0.500   4.376  10.018  0.3646  0.0937 -2.2326
  607MOL0     H83765   0.408   4.451   9.901 -0.4898  1.1742  1.0958
  607MOL0     H83766   0.339   4.413  10.069  2.2097  1.3706  0.9893
  608MOL0     O83767   9.431   5.019   8.863  0.0727 -0.3929  1.0934
  608MOL0     C83768   9.470   4.980   8.750  0.5129  0.7122 -0.0484
  608MOL0     O83769   9.573   4.910   8.718  0.1206 -0.4037 -0.3008
  608MOL0     C83770   9.654   4.869   8.820 -0.3525  0.1193  0.3936
  608MOL0     C83771   9.691   4.735   8.814 -0.9090  0.5014  0.4157
  608MOL0     C83772   9.776   4.666   8.905  0.9038  0.2303  0.8005
  608MOL0     C83773   9.827   4.745   9.013 -0.2464  0.7179  0.2984
  608MOL0     O83774   9.919   4.692   9.098 -0.3257 -0.8697 -0.3855
  608MOL0     C83775   9.878   4.678   9.236 -0.1805  0.3652  0.4194
  608MOL0     C83776   9.908   4.533   9.274  0.7244  0.0464 -0.0529
  608MOL0     C83777  10.058   4.504   9.295 -0.3393 -0.5461 -0.5617
  608MOL0     C83778  10.093   4.359   9.356  0.8565  0.3417 -1.1188
  608MOL0     C83779  10.120   4.369   9.515  0.2098  0.3155  1.3808
  608MOL0     C83780  10.004   4.433   9.592  0.7848 -0.2958 -0.1794
  608MOL0     C83781  10.031   4.438   9.741  0.1729 -0.4301 -0.3424
  608MOL0     C83782   9.911   4.474   9.825 -0.5555  0.9629 -0.0827
  608MOL0     N83783   9.944   4.496   9.962 -0.3517  0.1724  0.9060
  608MOL0     C83784  10.054   4.557  10.015 -0.1286  0.5019  0.6942
  608MOL0     C83785  10.035   4.528  10.141 -0.2742  0.0970 -0.4216
  608MOL0     C83786  10.141   4.572  10.246 -0.1711  0.4384 -0.7176
  608MOL0     C83787  10.109   4.715  10.297  0.7778  0.4208 -0.1561
  608MOL0     C83788  10.062   4.708  10.444 -0.2920  0.0977 -0.0032
  608MOL0     C83789  10.064   4.841  10.516  0.3508 -0.6479 -0.2750
  608MOL0     O83790  10.196   4.893  10.526 -0.3160 -0.2865  0.4849
  608MOL0     C83791  10.213   4.988  10.623 -0.5497 -0.6865 -0.0849
  608MOL0     C83792  10.240   5.121  10.582 -0.3389  0.5092 -0.3909
  608MOL0     C83793  10.273   5.219  10.671 -0.1850 -0.4821  0.7497
  608MOL0     C83794  10.308   5.356  10.611  0.1790  0.0464  0.1940
  608MOL0     C83795  10.293   5.179  10.808  0.3081  0.5437  0.0687
  608MOL0     C83796  10.343   5.270  10.913  0.0817 -0.2947 -0.2096
  608MOL0     O83797  10.414   5.221  11.018  0.3324  0.7504  0.9682
  608MOL0     C83798  10.458   5.304  11.117  0.5662 -0.0561 -0.0394
  608MOL0     C83799  10.551   5.409  11.101 -0.3196  1.2919 -0.1517
  608MOL0     C83800  10.603   5.475  11.204 -0.0825  0.0638 -0.0865
  608MOL0     C83801  10.559   5.442  11.336  0.8662  0.2988  0.0322
  608MOL0     O83802  10.582   5.514  11.452 -0.1503 -0.7882 -0.2990
  608MOL0     C83803  10.562   5.656  11.432  0.9376  0.5310 -0.6351
  608MOL0     C83804  10.555   5.743  11.569  0.1089  0.2116  0.3730
  608MOL0     C83805  10.516   5.886  11.535  0.4853 -0.3864 -0.0037
  608MOL0     C83806  10.494   5.960  11.664 -0.9115  0.1533 -0.0409
  608MOL0     C83807  10.432   6.096  11.651  0.1940  0.2816  0.3803
  608MOL0     C83808  10.371   6.143  11.776 -0.1538 -0.8663 -0.2338
  608MOL0     C83809  10.299   6.282  11.736  0.2300 -0.1789 -0.0593
  608MOL0     C83810  10.381   6.390  11.654  0.3457 -0.2675 -0.1064
  608MOL0    Cl83811  10.283   6.543  11.662 -0.9307  0.3264  0.1902
  608MOL0     C83812  10.461   5.344  11.353  0.0978  0.5206 -0.3209
  608MOL0     C83813  10.407   5.280  11.248 -1.2164 -0.1122  0.6097
  608MOL0     O83814  10.299   5.383  10.908  0.5022  0.3228 -0.0972
  608MOL0     C83815  10.267   5.050  10.850  0.1762  0.0001 -1.0915
  608MOL0     C83816  10.235   4.953  10.757  0.2039 -0.1841 -0.2990
  608MOL0     N83817   9.916   4.462  10.165  0.5259 -0.1737  0.5080
  608MOL0     N83818   9.861   4.446  10.052 -0.7979  0.1175 -0.4455
  608MOL0     C83819   9.797   4.882   9.012  0.9033  0.3203 -0.2536
  608MOL0     C83820   9.714   4.945   8.920  0.6101 -0.3691 -0.0417
  608MOL0     C83821   9.392   5.022   8.625 -0.1858 -0.2414 -0.2658
  608MOL0     C83822   9.329   5.149   8.620 -0.5607  0.1450 -0.3176
  608MOL0     C83823   9.257   5.195   8.508 -1.7106  0.8409 -0.5450
  608MOL0     C83824   9.246   5.112   8.391 -0.2671  0.4922 -1.1179
  608MOL0     O83825   9.167   5.129   8.279  0.2271 -0.1507 -0.6449
  608MOL0     C83826   9.053   5.224   8.286 -0.2810  0.2344 -0.1741
  608MOL0     C83827   8.919   5.184   8.335  0.7407 -0.2593 -0.1392
  608MOL0     C83828   8.816   5.299   8.337  0.3678  0.1112  0.2449
  608MOL0     C83829   8.678   5.250   8.308  0.4455  0.3416 -0.1090
  608MOL0     C83830   8.664   5.191   8.174  0.1409  0.8343  0.2770
  608MOL0     C83831   8.666   5.165   8.052 -0.4059  0.4769 -0.4175
  608MOL0     C83832   9.324   4.999   8.392  0.0478  0.3144  0.2634
  608MOL0     C83833   9.388   4.945   8.506  0.6483  0.4108  0.2675
  608MOL0     C83834   9.433   4.800   8.502  0.4610  0.6672 -0.1841
  608MOL0     H83835   9.640   4.679   8.736 -1.7681  0.0979  1.2440
  608MOL0     H83836   9.802   4.562   8.889 -1.1415 -0.3694  1.1456
  608MOL0     H83837   9.769   4.688   9.244 -0.3409  0.8864 -1.6509
  608MOL0     H83838   9.920   4.756   9.299  0.0072  0.4517  0.1888
  608MOL0     H83839   9.853   4.506   9.364  0.7872  1.3629  0.4029
  608MOL0     H83840   9.884   4.458   9.198 -2.2055 -2.4921  3.1052
  608MOL0     H83841  10.115   4.523   9.204  2.5698 -1.1136  1.0091
  608MOL0     H83842  10.091   4.581   9.366 -2.9051  1.8940 -1.7916
  608MOL0     H83843   9.998   4.307   9.338  0.1174 -0.1422  3.1601
  608MOL0     H83844  10.174   4.310   9.301  0.0452 -2.5162  0.0698
  608MOL0     H83845  10.211   4.426   9.538  0.9978 -1.6553  3.5089
  608MOL0     H83846  10.130   4.266   9.551  2.9672 -0.1957 -0.5243
  608MOL0     H83847   9.973   4.533   9.559 -1.6465 -0.9586 -0.1110
  608MOL0     H83848   9.915   4.371   9.579 -1.0362  1.6561  1.9871
  608MOL0     H83849  10.108   4.514   9.760 -0.0361 -0.2515 -0.1991
  608MOL0     H83850  10.084   4.347   9.771  2.1478  0.1430 -1.8640
  608MOL0     H83851   9.862   4.561   9.782  1.0746  0.3763 -3.4416
  608MOL0     H83852   9.847   4.387   9.807  0.7767 -0.2124  0.6665
  608MOL0     H83853  10.141   4.612   9.981  0.9176 -1.0642  0.7516
  608MOL0     H83854  10.242   4.548  10.211 -0.6073 -1.3235 -0.8453
  608MOL0     H83855  10.121   4.496  10.321  1.4471  1.0531  0.3965
  608MOL0     H83856  10.202   4.772  10.295  0.9839  0.4897  3.5293
  608MOL0     H83857  10.024   4.757  10.243  1.3385  1.5453 -0.2043
  608MOL0     H83858   9.961   4.667  10.447 -0.7233  1.1202 -0.1672
  608MOL0     H83859  10.110   4.634  10.509  0.2314  2.0802  2.0309
  608MOL0     H83860  10.000   4.916  10.469 -0.2354 -0.3541  0.9662
  608MOL0     H83861  10.023   4.835  10.617  2.3235  2.6438  0.8543
  608MOL0     H83862  10.222   5.131  10.475 -2.6673 -2.5655 -0.4258
  608MOL0     H83863  10.240   5.384  10.530 -1.8564 -0.8660  1.5113
  608MOL0     H83864  10.412   5.372  10.579 -0.5482  1.4397 -1.6878
  608MOL0     H83865  10.281   5.441  10.674 -0.6392  0.7472 -1.0444
  608MOL0     H83866  10.574   5.434  10.998 -1.5481 -0.4210 -0.9070
  608MOL0     H83867  10.669   5.559  11.182  1.6373 -0.9121  1.0811
  608MOL0     H83868  10.626   5.696  11.353  1.8060  0.0185 -0.2068
  608MOL0     H83869  10.471   5.674  11.373  2.0505  2.4451 -1.8930
  608MOL0     H83870  10.489   5.697  11.643  0.1150  1.7104  1.3552
  608MOL0     H83871  10.657   5.742  11.606  0.9597 -2.4442 -1.7090
  608MOL0     H83872  10.428   5.887  11.469  2.1234 -1.7113 -2.3686
  608MOL0     H83873  10.594   5.939  11.480  0.8714 -3.1228 -2.3244
  608MOL0     H83874  10.590   5.970  11.714 -0.2575  2.7577 -1.6501
  608MOL0     H83875  10.431   5.889  11.720 -0.5940 -1.7146 -1.9217
  608MOL0     H83876  10.511   6.164  11.617 -0.2722  1.0022  0.6991
  608MOL0     H83877  10.352   6.097  11.577  1.6883 -1.3087 -1.3544
  608MOL0     H83878  10.446   6.160  11.854 -1.7718 -2.8708  1.9110
  608MOL0     H83879  10.303   6.069  11.820 -1.0089 -0.7770 -1.3574
  608MOL0     H83880  10.263   6.324  11.831  1.3441  4.3327 -1.4191
  608MOL0     H83881  10.212   6.253  11.676  1.0103 -1.7304 -0.4946
  608MOL0     H83882  10.393   6.359  11.550 -0.2726  0.8989 -0.5469
  608MOL0     H83883  10.478   6.401  11.704  0.6577 -1.3943 -0.4460
  608MOL0     H83884  10.419   5.319  11.450 -0.8127 -1.9103 -1.2709
  608MOL0     H83885  10.339   5.199  11.274 -1.0649 -1.4751 -2.6471
  608MOL0     H83886  10.280   5.025  10.955 -0.5495  0.7255 -0.8199
  608MOL0     H83887  10.247   4.847  10.774  4.6394 -0.3632 -2.9190
  608MOL0     H83888   9.847   4.946   9.083  3.6789 -1.8774 -0.0541
  608MOL0     H83889   9.680   5.047   8.932 -3.1742 -1.3253 -1.3038
  608MOL0     H83890   9.334   5.213   8.708 -4.5976  1.6874 -0.9710
  608MOL0     H83891   9.212   5.294   8.503  1.6203  2.4745 -0.5019
  608MOL0     H83892   9.079   5.303   8.356 -4.2540  0.7599  0.9343
  608MOL0     H83893   9.034   5.262   8.185 -1.8984 -0.0308  0.0076
  608MOL0     H83894   8.926   5.143   8.436 -1.3200  3.6588  1.8353
  608MOL0     H83895   8.896   5.109   8.259 -0.1564 -1.7710  1.5390
  608MOL0     H83896   8.810   5.347   8.435  1.5475  2.4522 -0.7501
  608MOL0     H83897   8.845   5.361   8.252  5.6570 -3.3510 -1.0337
  608MOL0     H83898   8.606   5.333   8.306 -1.0785 -0.7753  2.3343
  608MOL0     H83899   8.646   5.173   8.380  1.2900  2.6350  2.9168
  608MOL0     H83900   8.673   5.136   7.949  0.6771  2.9286 -1.1160
  608MOL0     H83901   9.318   4.947   8.297 -2.0581 -1.6481  1.3942
  608MOL0     H83902   9.414   4.759   8.602 -0.1026  1.6218  0.1101
  608MOL0     H83903   9.379   4.748   8.422  0.0694  0.6663  0.0804
  608MOL0     H83904   9.539   4.783   8.478  0.2542 -3.6915  1.1985
  609MOL0     O83905   2.809   7.594   1.795 -0.3590 -0.3009 -0.4496
  609MOL0     C83906   2.909   7.636   1.743 -0.0969 -0.6996  0.2863
  609MOL0     O83907   3.039   7.610   1.792  0.4968 -0.2040 -0.0538
  609MOL0     C83908   3.079   7.506   1.875  0.7867  0.1145  0.1730
  609MOL0     C83909   2.995   7.395   1.905 -1.1093  0.3727 -0.7249
  609MOL0     C83910   3.048   7.292   1.988  0.9241 -0.6093 -0.2834
  609MOL0     C83911   3.180   7.300   2.043  0.0004  0.9028  0.7085
  609MOL0     O83912   3.244   7.206   2.121  0.1520  0.4326 -0.3352
  609MOL0     C83913   3.165   7.119   2.205  0.6238 -0.2149  0.8309
  609MOL0     C83914   3.249   7.059   2.312  0.7453 -0.4976 -0.0318
  609MOL0     C83915   3.302   7.151   2.421 -0.1933 -1.5729 -0.6322
  609MOL0     C83916   3.338   7.075   2.547  0.1800  0.1113  0.6095
  609MOL0     C83917   3.421   7.176   2.632 -0.4689 -0.1676 -0.1230
  609MOL0     C83918   3.499   7.104   2.747 -0.7573  0.4403  0.0201
  609MOL0     C83919   3.639   7.065   2.700  0.4340  0.2410 -0.5854
  609MOL0     C83920   3.728   7.037   2.820  0.1920 -0.7530  0.2678
  609MOL0     N83921   3.866   7.017   2.774 -0.0598  0.3113 -0.0720
  609MOL0     C83922   3.897   6.919   2.680  0.4268  0.4310  0.1105
  609MOL0     C83923   4.006   6.960   2.610  0.1371  0.0904 -0.3650
  609MOL0     C83924   4.088   6.908   2.494  0.2974 -0.0410  0.6938
  609MOL0     C83925   4.045   6.989   2.367  0.1171 -0.4598 -0.1891
  609MOL0     C83926   4.097   6.938   2.234  0.3989 -0.1464 -0.5330
  609MOL0     C83927   4.245   6.973   2.218  0.2746  0.3500 -0.5662
  609MOL0     O83928   4.278   6.891   2.105 -0.2660 -0.4231  0.8809
  609MOL0     C83929   4.388   6.918   2.034 -0.6369 -0.2346  0.6241
  609MOL0     C83930   4.457   7.042   2.014 -1.0536 -0.9309  0.7347
  609MOL0     C83931   4.578   7.049   1.939  0.2341  0.0490  0.8246
  609MOL0     C83932   4.632   7.186   1.913 -0.1268 -0.0312 -1.3915
  609MOL0     C83933   4.643   6.929   1.899  0.3668 -0.4796 -0.2379
  609MOL0     C83934   4.771   6.923   1.833  0.6566 -0.3443 -0.4899
  609MOL0     O83935   4.790   6.813   1.756  0.2844  0.3536 -0.3261
  609MOL0     C83936   4.914   6.807   1.708  0.0245 -0.1576 -1.1074
  609MOL0     C83937   4.950   6.871   1.583 -0.2596 -1.0303  0.3208
  609MOL0     C83938   5.088   6.875   1.545  0.8999  0.1230  0.3169
  609MOL0     C83939   5.188   6.803   1.609  0.1716  0.1017 -0.4871
  609MOL0     O83940   5.312   6.814   1.556  0.1109  0.2789  0.5766
  609MOL0     C83941   5.410   6.709   1.594 -0.1511 -0.6917 -0.9613
  609MOL0     C83942   5.518   6.676   1.494 -0.4040 -0.4367  0.3301
  609MOL0     C83943   5.630   6.781   1.496 -0.5657  0.5272 -0.4396
  609MOL0     C83944   5.753   6.744   1.414  0.2121 -0.9187 -0.3471
  609MOL0     C83945   5.749   6.786   1.264  0.9152  0.1883 -0.9039
  609MOL0     C83946   5.871   6.753   1.183  0.5047  0.0267 -0.6420
  609MOL0     C83947   5.850   6.810   1.043  0.6232 -0.1833  0.8162
  609MOL0     C83948   5.964   6.790   0.950 -0.1871  0.2426 -0.1791
  609MOL0    Cl83949   6.109   6.890   0.999  0.0218  0.2672  0.0750
  609MOL0     C83950   5.150   6.733   1.727 -0.9833 -1.5758 -0.3268
  609MOL0     C83951   5.019   6.751   1.787  1.2081  0.2167  0.6293
  609MOL0     O83952   4.854   7.007   1.864 -1.0998  0.5611  0.1149
  609MOL0     C83953   4.577   6.813   1.933  0.6361  0.1081  0.4098
  609MOL0     C83954   4.449   6.803   1.987  0.6772 -1.1222  0.4143
  609MOL0     N83955   4.040   7.082   2.677  0.2173 -0.3370 -0.5215
  609MOL0     N83956   3.955   7.114   2.771  0.2625  0.4199  0.9941
  609MOL0     C83957   3.253   7.425   2.020 -0.5458 -1.0036  0.3114
  609MOL0     C83958   3.199   7.524   1.934 -0.1324  0.0171 -0.7588
  609MOL0     C83959   2.909   7.743   1.632 -0.1326 -0.9961 -0.7116
  609MOL0     C83960   2.795   7.817   1.618  0.5322 -0.5544 -0.8463
  609MOL0     C83961   2.781   7.907   1.515  0.5030 -0.1974  0.0575
  609MOL0     C83962   2.878   7.928   1.418 -0.5151 -0.3340  0.0295
  609MOL0     O83963   2.883   8.034   1.321 -0.6100  0.4396 -0.3470
  609MOL0     C83964   2.761   8.075   1.255 -0.0824  0.2486  0.1145
  609MOL0     C83965   2.757   8.226   1.237 -0.0663  0.1347  0.7657
  609MOL0     C83966   2.826   8.299   1.345  0.1486 -0.3919 -0.4603
  609MOL0     C83967   2.831   8.459   1.317 -0.4531 -0.3267 -1.2840
  609MOL0     C83968   2.695   8.526   1.309  0.0231 -0.4174  0.0345
  609MOL0     C83969   2.592   8.587   1.294 -0.7980  0.2445  0.4554
  609MOL0     C83970   2.997   7.854   1.430  0.5786  0.3290  0.1081
  609MOL0     C83971   3.010   7.761   1.537  0.3711 -0.1785 -0.3657
  609MOL0     C83972   3.129   7.665   1.531  0.8425  0.4799  0.3463
  609MOL0     H83973   2.889   7.392   1.881 -1.4970  0.2541  0.9137
  609MOL0     H83974   2.994   7.199   1.996 -2.7385  1.3505  0.0062
  609MOL0     H83975   3.121   7.039   2.144 -0.1617  1.5779 -1.0982
  609MOL0     H83976   3.079   7.174   2.244  0.3662  0.2359 -0.3324
  609MOL0     H83977   3.205   6.967   2.352  0.1547 -0.9466 -1.6276
  609MOL0     H83978   3.336   7.024   2.256  1.8794 -0.9407  1.9306
  609MOL0     H83979   3.389   7.209   2.386  0.4920 -2.2545 -0.1048
  609MOL0     H83980   3.231   7.230   2.447  0.0200 -2.1956  2.1809
  609MOL0     H83981   3.251   7.028   2.594 -0.3935 -1.4670 -1.8397
  609MOL0     H83982   3.398   6.987   2.521 -1.4231 -0.6462 -0.7998
  609MOL0     H83983   3.349   7.247   2.673  1.8482  1.5759  1.1675
  609MOL0     H83984   3.489   7.229   2.565  2.7558  0.1663  3.1167
  609MOL0     H83985   3.494   7.154   2.845 -2.1397 -3.8650  2.4404
  609MOL0     H83986   3.448   7.011   2.775  0.8466 -1.3862 -2.7044
  609MOL0     H83987   3.667   7.145   2.631  1.0697 -0.7230 -1.4668
  609MOL0     H83988   3.625   6.976   2.637 -3.6076  0.8493 -0.8792
  609MOL0     H83989   3.717   7.129   2.878  1.0825 -0.2561 -0.3144
  609MOL0     H83990   3.691   6.954   2.881 -1.6107 -0.8277 -0.8541
  609MOL0     H83991   3.849   6.823   2.669  1.5234  0.0511 -2.0956
  609MOL0     H83992   4.066   6.804   2.471  0.4559  0.0105  0.2969
  609MOL0     H83993   4.196   6.910   2.513  0.6147 -0.4234 -0.9344
  609MOL0     H83994   3.935   6.991   2.360 -0.2324 -3.5807  2.0868
  609MOL0     H83995   4.086   7.090   2.375 -0.2511 -0.3242  0.0436
  609MOL0     H83996   4.083   6.829   2.230 -1.1014 -0.0050  0.3240
  609MOL0     H83997   4.044   6.988   2.153  0.4228  1.9071  0.6537
  609MOL0     H83998   4.266   7.079   2.203  0.6951  0.6684  1.8267
  609MOL0     H83999   4.306   6.949   2.305  2.0232  0.9997 -1.5641
  609MOL0     H84000   4.410   7.133   2.050  0.4334  1.5870 -3.0869
  609MOL0     H84001   4.550   7.251   1.883  2.5430  3.8113 -1.0471
  609MOL0     H84002   4.699   7.178   1.827  1.4574 -0.2375 -0.1863
  609MOL0     H84003   4.696   7.216   1.996 -2.5107  1.2847  0.0705
  609MOL0     H84004   4.879   6.932   1.528  0.7777 -0.2785 -0.2241
  609MOL0     H84005   5.114   6.929   1.454 -1.4202 -2.8454 -2.3573
  609MOL0     H84006   5.461   6.743   1.685  1.5156 -0.8700 -1.7946
  609MOL0     H84007   5.357   6.615   1.612  2.5849 -2.0082  0.8718
  609MOL0     H84008   5.557   6.578   1.521 -4.2465 -2.0585  0.4727
  609MOL0     H84009   5.492   6.674   1.388  0.5222  4.1591 -0.2131
  609MOL0     H84010   5.660   6.793   1.601 -1.3986 -1.0365  0.0162
  609MOL0     H84011   5.593   6.878   1.462 -1.9365 -0.3240 -1.4879
  609MOL0     H84012   5.760   6.635   1.413  2.1208 -0.9457  2.4234
  609MOL0     H84013   5.842   6.787   1.461  0.3895 -0.1715 -1.3381
  609MOL0     H84014   5.664   6.728   1.227 -0.8697  0.5143  2.3041
  609MOL0     H84015   5.723   6.891   1.249  0.7542 -0.0097 -2.1052
  609MOL0     H84016   5.897   6.647   1.170  1.7041  0.2759 -0.3733
  609MOL0     H84017   5.954   6.800   1.237  2.7739 -4.2620  0.0689
  609MOL0     H84018   5.819   6.915   1.047 -0.4318 -0.5082  1.5372
  609MOL0     H84019   5.764   6.757   1.001  0.4426  0.0021  0.9474
  609MOL0     H84020   5.932   6.819   0.850 -0.5416 -0.3341 -0.2353
  609MOL0     H84021   5.986   6.683   0.942 -0.7278 -0.1600  2.5458
  609MOL0     H84022   5.234   6.705   1.790 -1.5767 -3.8694 -0.4636
  609MOL0     H84023   4.981   6.705   1.878 -1.7648  0.2792 -0.4551
  609MOL0     H84024   4.615   6.722   1.886  1.1859  0.9644 -0.8753
  609MOL0     H84025   4.390   6.712   2.002 -1.9572 -0.0124 -2.2565
  609MOL0     H84026   3.352   7.445   2.060 -0.6586  1.3754 -0.4480
  609MOL0     H84027   3.248   7.619   1.920 -0.3308  0.0268 -1.4594
  609MOL0     H84028   2.714   7.813   1.690 -0.8075  1.8283 -2.1240
  609MOL0     H84029   2.698   7.976   1.520  0.7374  0.1741 -1.0173
  609MOL0     H84030   2.759   8.033   1.154 -2.4733  1.4466 -0.4227
  609MOL0     H84031   2.671   8.041   1.306  0.0393 -0.3523 -0.0697
  609MOL0     H84032   2.650   8.250   1.239 -0.2125 -0.1150 -1.2930
  609MOL0     H84033   2.788   8.266   1.140  4.1994  1.7598  2.5419
  609MOL0     H84034   2.780   8.275   1.441 -1.2892 -0.3255 -1.1088
  609MOL0     H84035   2.932   8.270   1.346  0.8067  1.6602  2.2954
  609MOL0     H84036   2.886   8.489   1.228  0.9224 -1.8733 -1.0059
  609MOL0     H84037   2.888   8.504   1.398 -0.7031 -1.5060 -0.4297
  609MOL0     H84038   2.505   8.647   1.276  0.3212  1.3974 -1.3715
  609MOL0     H84039   3.076   7.858   1.355  2.5330 -0.6723  2.0097
  609MOL0     H84040   3.099   7.562   1.551 -1.8844  1.4545  1.7983
  609MOL0     H84041   3.165   7.669   1.428 -0.7946 -0.4003 -0.2990
  609MOL0     H84042   3.215   7.696   1.591 -1.1798  0.3559  3.5218
  610MOL0     O84043   9.219   5.494  11.421  0.1672  0.3532 -0.7278
  610MOL0     C84044   9.107   5.468  11.446 -0.4525 -0.7120 -0.2248
  610MOL0     O84045   9.057   5.484  11.576  0.6838  0.5608  0.0821
  610MOL0     C84046   9.130   5.544  11.671 -0.6187  0.5656 -0.8231
  610MOL0     C84047   9.137   5.687  11.686  0.8509  0.7105  1.0055
  610MOL0     C84048   9.223   5.742  11.786 -0.3600  0.3907  0.8292
  610MOL0     C84049   9.280   5.655  11.887  0.1559  0.0573  0.0207
  610MOL0     O84050   9.354   5.711  11.979  0.3710 -0.1397  0.1501
  610MOL0     C84051   9.424   5.831  11.952 -0.6917  0.1303  0.1174
  610MOL0     C84052   9.517   5.858  12.071  0.0310  0.6150 -0.4117
  610MOL0     C84053   9.596   5.982  12.067  0.0859 -0.2268 -0.2972
  610MOL0     C84054   9.711   5.982  12.179  0.6698 -0.8158 -0.2810
  610MOL0     C84055   9.788   6.109  12.186  0.9499 -0.3330 -0.3327
  610MOL0     C84056   9.885   6.109  12.298 -0.6039 -0.7204  0.1134
  610MOL0     C84057   9.934   6.256  12.318 -0.8760  0.1943 -0.7555
  610MOL0     C84058  10.050   6.267  12.416 -0.5592  0.7696  0.3484
  610MOL0     N84059  10.004   6.254  12.561 -0.2939  0.9095  0.6701
  610MOL0     C84060  10.055   6.176  12.653 -0.3162 -0.2394 -0.4331
  610MOL0     C84061  10.020   6.218  12.777 -0.5637 -0.2413  0.9751
  610MOL0     C84062  10.053   6.169  12.917 -0.2236  0.3654 -0.1696
  610MOL0     C84063  10.207   6.155  12.940 -0.1683 -0.0360 -0.4120
  610MOL0     C84064  10.264   6.024  12.895  0.0657  1.0150 -0.4196
  610MOL0     C84065  10.413   6.013  12.929 -0.4772  0.8634 -0.3161
  610MOL0     O84066  10.486   6.120  12.869  0.1458 -0.7268 -0.4707
  610MOL0     C84067  10.605   6.089  12.812  0.5526 -0.7430 -0.1793
  610MOL0     C84068  10.635   5.987  12.721  0.6569 -0.6346 -0.6073
  610MOL0     C84069  10.766   5.964  12.673 -0.0748  0.6088 -0.0079
  610MOL0     C84070  10.783   5.848  12.569 -0.4547  0.6186 -0.4407
  610MOL0     C84071  10.870   6.057  12.716  0.4550  0.6217  1.0158
  610MOL0     C84072  11.007   6.057  12.653  0.2263 -0.5127  0.2343
  610MOL0     O84073  11.090   6.156  12.682 -0.4422  0.4737  0.4446
  610MOL0     C84074  11.193   6.161  12.596 -0.1425 -0.2994 -0.5264
  610MOL0     C84075  11.183   6.239  12.489 -0.0780 -0.3935  0.2486
  610MOL0     C84076  11.292   6.263  12.412 -0.5376  0.3971  0.4247
  610MOL0     C84077  11.420   6.202  12.428 -0.3523  0.8278  0.1864
  610MOL0     O84078  11.531   6.243  12.349  0.3951 -0.4422  0.4887
  610MOL0     C84079  11.659   6.197  12.366 -0.6115 -0.2175  0.3935
  610MOL0     C84080  11.730   6.248  12.240 -0.4082 -0.3501  0.0699
  610MOL0     C84081  11.877   6.232  12.254 -0.2472  0.4584  1.2407
  610MOL0     C84082  11.938   6.092  12.255  0.7254 -0.5827  0.1536
  610MOL0     C84083  12.086   6.104  12.227  0.1151  0.7468 -0.3440
  610MOL0     C84084  12.164   5.979  12.268  0.0039  0.7133  0.4485
  610MOL0     C84085  12.310   6.011  12.288 -1.0106  0.5437  0.5547
  610MOL0     C84086  12.390   6.065  12.164 -0.1823  0.8540 -0.2734
  610MOL0    Cl84087  12.334   6.215  12.095  0.1675  0.3005  0.5856
  610MOL0     C84088  11.422   6.112  12.537  0.2101 -0.1877  0.8595
  610MOL0     C84089  11.307   6.090  12.618  0.0932  0.3200  0.2682
  610MOL0     O84090  11.022   5.966  12.569 -0.2669 -0.4787 -0.0156
  610MOL0     C84091  10.835   6.157  12.803 -0.1152  0.9897 -0.5338
  610MOL0     C84092  10.706   6.167  12.861 -0.1017  0.5158  0.7693
  610MOL0     N84093   9.956   6.331  12.751 -0.2148  0.2172  0.8522
  610MOL0     N84094   9.944   6.357  12.624  0.0181 -0.1287 -0.6532
  610MOL0     C84095   9.262   5.514  11.875  0.2629  1.5675 -0.8013
  610MOL0     C84096   9.202   5.466  11.762  0.0192 -0.4621 -0.4271
  610MOL0     C84097   9.042   5.402  11.338 -0.0428  0.1262  1.3655
  610MOL0     C84098   9.065   5.453  11.204 -0.2919 -0.0884  0.0130
  610MOL0     C84099   8.988   5.421  11.096 -0.1770  0.1656  1.1154
  610MOL0     C84100   8.882   5.333  11.111 -0.1732 -0.7311  0.3727
  610MOL0     O84101   8.780   5.297  11.020 -0.3210  0.2368  0.3671
  610MOL0     C84102   8.758   5.392  10.922  0.7669 -0.0467  0.2692
  610MOL0     C84103   8.609   5.371  10.862  0.4701 -0.7738  0.1577
  610MOL0     C84104   8.515   5.413  10.969  0.8714 -0.2371 -0.3000
  610MOL0     C84105   8.370   5.408  10.903  0.2158 -0.7678 -0.3743
  610MOL0     C84106   8.333   5.268  10.870  0.5419 -0.2568 -0.3352
  610MOL0     C84107   8.307   5.160  10.827  0.4179  0.0560 -0.4455
  610MOL0     C84108   8.863   5.272  11.239 -0.7212 -0.9089 -0.0222
  610MOL0     C84109   8.936   5.312  11.349  0.7253  0.2818 -0.0984
  610MOL0     C84110   8.896   5.245  11.478  0.3446 -0.1691 -0.0108
  610MOL0     H84111   9.091   5.756  11.616  1.5122 -0.2209 -0.4106
  610MOL0     H84112   9.242   5.849  11.794  2.0297  0.4562 -3.0698
  610MOL0     H84113   9.355   5.912  11.927 -3.2988 -3.0659 -4.8564
  610MOL0     H84114   9.492   5.821  11.867  0.4991  0.8629  0.9601
  610MOL0     H84115   9.455   5.861  12.160  0.4408 -1.2604 -0.0207
  610MOL0     H84116   9.587   5.774  12.074  0.7301  1.1966  2.5423
  610MOL0     H84117   9.643   5.996  11.969  0.9608 -0.5426  0.0746
  610MOL0     H84118   9.532   6.070  12.080 -1.6345 -1.1034 -2.1709
  610MOL0     H84119   9.675   5.954  12.279  3.4747 -1.2642  0.6969
  610MOL0     H84120   9.782   5.907  12.145  1.0847 -0.2201 -0.7498
  610MOL0     H84121   9.717   6.192  12.187 -1.3884 -2.0537 -3.2916
  610MOL0     H84122   9.841   6.122  12.091 -0.6718 -0.9495 -1.3762
  610MOL0     H84123   9.834   6.082  12.390  0.5104  0.2284  1.0401
  610MOL0     H84124   9.961   6.033  12.276 -0.1431 -0.0037 -0.8885
  610MOL0     H84125   9.853   6.315  12.361 -0.5059 -0.3095  0.7062
  610MOL0     H84126   9.967   6.296  12.221 -2.8134  0.8785 -1.1899
  610MOL0     H84127  10.120   6.185  12.399 -3.9099 -2.2843  0.0480
  610MOL0     H84128  10.098   6.365  12.403 -1.9916  1.2307 -2.3234
  610MOL0     H84129  10.109   6.085  12.628 -1.0746  0.1319 -3.9205
  610MOL0     H84130  10.020   6.066  12.934  3.8312 -0.6522  3.6218
  610MOL0     H84131  10.012   6.224  13.002  3.0689  0.2704  1.6483
  610MOL0     H84132  10.270   6.235  12.901 -1.0319  1.3971  0.9590
  610MOL0     H84133  10.224   6.166  13.048 -0.2589 -0.3666 -0.3628
  610MOL0     H84134  10.210   5.941  12.940 -2.2273  2.6620  0.0304
  610MOL0     H84135  10.265   6.014  12.786 -3.0582  0.0518 -0.4417
  610MOL0     H84136  10.422   6.019  13.038 -1.0273  2.8518 -0.3508
  610MOL0     H84137  10.439   5.911  12.900 -1.5256 -0.2764  2.4487
  610MOL0     H84138  10.560   5.921  12.677  0.1507 -0.2814 -0.2870
  610MOL0     H84139  10.856   5.780  12.614 -0.6987  0.4292 -0.3262
  610MOL0     H84140  10.816   5.881  12.470  0.5679  1.2468  0.0979
  610MOL0     H84141  10.692   5.792  12.545 -0.6541  1.8900 -3.0231
  610MOL0     H84142  11.099   6.301  12.461  0.8357  2.5354  3.3187
  610MOL0     H84143  11.278   6.329  12.327  1.9585 -0.8423 -1.0800
  610MOL0     H84144  11.695   6.240  12.460 -1.7202  0.8447  0.3668
  610MOL0     H84145  11.648   6.089  12.380 -0.1909 -0.2473  0.5129
  610MOL0     H84146  11.705   6.186  12.154  0.5713  2.7136 -2.5949
  610MOL0     H84147  11.709   6.351  12.210  1.5210 -0.4438 -1.8209
  610MOL0     H84148  11.920   6.288  12.338  1.8430  1.2840 -0.2727
  610MOL0     H84149  11.910   6.294  12.170  0.7889 -1.5571  0.0919
  610MOL0     H84150  11.880   6.027  12.189 -0.4820 -1.4101  1.9622
  610MOL0     H84151  11.933   6.052  12.357  1.5845  0.6029  0.6809
  610MOL0     H84152  12.105   6.124  12.122 -1.3377  0.8980 -0.5990
  610MOL0     H84153  12.116   6.185  12.294 -0.1761 -0.0547  0.7904
  610MOL0     H84154  12.157   5.898  12.196  6.1198  0.7333 -0.6747
  610MOL0     H84155  12.123   5.957  12.368 -1.3548  3.0977  0.5007
  610MOL0     H84156  12.362   5.920  12.319 -1.5254  0.3819  0.9480
  610MOL0     H84157  12.318   6.083  12.370  1.0780 -0.5934  1.4358
  610MOL0     H84158  12.381   5.984  12.092 -0.9710 -0.0624  0.8362
  610MOL0     H84159  12.497   6.076  12.185  0.6126 -3.0483 -1.5170
  610MOL0     H84160  11.513   6.059  12.563 -0.3384 -2.7359 -1.8920
  610MOL0     H84161  11.325   6.020  12.699 -1.1941 -0.0683  0.2324
  610MOL0     H84162  10.907   6.232  12.835 -2.5360  1.7224  4.0481
  610MOL0     H84163  10.690   6.248  12.931  1.7473  0.5213  1.2372
  610MOL0     H84164   9.297   5.443  11.949 -3.6452  1.4303  1.2015
  610MOL0     H84165   9.186   5.358  11.765 -1.3898 -0.2563 -0.1051
  610MOL0     H84166   9.139   5.532  11.198 -1.2313  0.8914  0.7860
  610MOL0     H84167   8.993   5.491  11.013 -0.9894 -0.6348  0.3518
  610MOL0     H84168   8.777   5.495  10.955  0.1663 -0.7588  3.0705
  610MOL0     H84169   8.830   5.362  10.845 -0.0748  3.5254 -2.1670
  610MOL0     H84170   8.592   5.272  10.819  2.7442 -0.9848 -0.3746
  610MOL0     H84171   8.589   5.429  10.772 -0.0610 -3.0551 -1.2425
  610MOL0     H84172   8.520   5.346  11.055  0.5293  0.1806  0.0482
  610MOL0     H84173   8.539   5.516  10.997 -2.3227 -0.3013  3.4136
  610MOL0     H84174   8.357   5.472  10.815  2.2001 -2.1628 -1.7685
  610MOL0     H84175   8.300   5.445  10.979  2.2339 -0.4727  1.4568
  610MOL0     H84176   8.282   5.061  10.795  2.3152 -1.1538  1.5415
  610MOL0     H84177   8.784   5.201  11.262  0.9043 -2.0079  2.6637
  610MOL0     H84178   8.790   5.259  11.503  0.8377 -0.0076  2.2716
  610MOL0     H84179   8.919   5.139  11.465  0.0120 -0.4140  1.2672
  610MOL0     H84180   8.943   5.289  11.567 -0.6551  3.6207 -1.1606
  611MOL0     O84181   3.631   2.108   4.634  0.0652  0.4283  0.0860
  611MOL0     C84182   3.729   2.050   4.682  1.2425 -0.4564  0.2419
  611MOL0     O84183   3.777   1.929   4.652 -0.8891  0.5682  0.6720
  611MOL0     C84184   3.695   1.824   4.606  0.3273 -0.2580  0.4755
  611MOL0     C84185   3.562   1.802   4.645 -0.2395 -0.7270  1.0177
  611MOL0     C84186   3.488   1.703   4.587 -0.3345  0.9748  0.7422
  611MOL0     C84187   3.540   1.623   4.483  0.6583 -0.9352  0.3758
  611MOL0     O84188   3.475   1.507   4.443 -0.1934  0.6231  0.0614
  611MOL0     C84189   3.398   1.431   4.538 -0.8197 -0.4199  0.7259
  611MOL0     C84190   3.350   1.302   4.465  0.2184  0.6847  0.2213
  611MOL0     C84191   3.257   1.210   4.550  0.2396  0.5461  0.7184
  611MOL0     C84192   3.127   1.289   4.595  0.5110  0.4982  0.0477
  611MOL0     C84193   3.011   1.199   4.651  0.6142  0.9230  0.9476
  611MOL0     C84194   2.892   1.284   4.704  0.0198  0.2206 -0.1934
  611MOL0     C84195   2.829   1.387   4.616  0.7867 -0.7320 -0.4672
  611MOL0     C84196   2.773   1.320   4.493 -0.2092 -0.3006  0.9503
  611MOL0     N84197   2.704   1.417   4.412  0.0613  0.2741  0.1893
  611MOL0     C84198   2.757   1.540   4.364 -0.2342  0.2246  1.0630
  611MOL0     C84199   2.687   1.572   4.251 -0.3334  0.1726 -0.2914
  611MOL0     C84200   2.704   1.705   4.172 -0.3379  0.8258 -0.5629
  611MOL0     C84201   2.575   1.788   4.159  0.7076  0.3378  0.8712
  611MOL0     C84202   2.508   1.821   4.293  0.1809 -0.0998 -0.1926
  611MOL0     C84203   2.421   1.947   4.290  0.6624  0.7879 -0.2890
  611MOL0     O84204   2.505   2.058   4.249  0.1182  0.7622 -0.8335
  611MOL0     C84205   2.453   2.185   4.251  1.1721 -0.2378 -0.0890
  611MOL0     C84206   2.320   2.212   4.279 -0.0915  1.0682 -0.7737
  611MOL0     C84207   2.267   2.341   4.280 -0.1367  0.4425 -0.1814
  611MOL0     C84208   2.118   2.368   4.318 -0.4238 -1.2203 -0.2880
  611MOL0     C84209   2.348   2.448   4.241  1.0334  0.1418 -0.1023
  611MOL0     C84210   2.297   2.589   4.224  0.4236 -0.2306  1.0078
  611MOL0     O84211   2.232   2.648   4.327  0.0064 -0.0949  0.3108
  611MOL0     C84212   2.173   2.779   4.331  0.7240  0.5810 -0.1774
  611MOL0     C84213   2.181   2.880   4.231 -0.1312  0.5665  0.5257
  611MOL0     C84214   2.127   3.004   4.258 -0.4610 -0.1100  0.7104
  611MOL0     C84215   2.062   3.026   4.376 -0.5049  0.3579  0.7844
  611MOL0     O84216   2.003   3.149   4.384 -0.6452  0.5986  0.3068
  611MOL0     C84217   1.896   3.155   4.480  0.1339  0.6885 -0.2217
  611MOL0     C84218   1.788   3.261   4.437  1.1085 -0.1822  1.2638
  611MOL0     C84219   1.680   3.292   4.542 -0.5904  0.2806  0.3618
  611MOL0     C84220   1.562   3.196   4.551 -0.1085 -0.2521 -0.9145
  611MOL0     C84221   1.442   3.237   4.645  0.1723 -0.8710  0.2943
  611MOL0     C84222   1.305   3.203   4.586  0.6590 -0.4956 -0.5528
  611MOL0     C84223   1.183   3.229   4.674  0.6298  0.1150 -0.1550
  611MOL0     C84224   1.044   3.229   4.598  0.5222  0.2308 -0.3374
  611MOL0    Cl84225   1.006   3.069   4.533  0.2989  0.6096 -0.3954
  611MOL0     C84226   2.056   2.922   4.469 -0.8999  0.1636  0.2837
  611MOL0     C84227   2.104   2.794   4.447  0.4286  0.2494 -0.1183
  611MOL0     O84228   2.328   2.643   4.119  0.2865 -0.5507  0.6139
  611MOL0     C84229   2.478   2.410   4.191 -0.4077 -0.3316 -0.5098
  611MOL0     C84230   2.534   2.287   4.203 -0.5673  0.3394  0.3015
  611MOL0     N84231   2.587   1.478   4.244  0.1264  0.6137  1.0508
  611MOL0     N84232   2.606   1.382   4.329  0.2164  0.3213 -0.0790
  611MOL0     C84233   3.678   1.639   4.442 -0.1570  0.1916  0.2298
  611MOL0     C84234   3.747   1.741   4.507 -1.1568 -0.6113 -0.1177
  611MOL0     C84235   3.768   2.119   4.805 -0.6403  0.2951  0.7428
  611MOL0     C84236   3.828   2.051   4.911 -1.0742  0.1191 -0.6806
  611MOL0     C84237   3.863   2.105   5.030 -0.4224  0.0206 -0.8392
  611MOL0     C84238   3.847   2.244   5.054  0.0564  0.0879 -0.9739
  611MOL0     O84239   3.896   2.300   5.168 -0.3169  1.0167 -0.1099
  611MOL0     C84240   3.920   2.440   5.181  0.1941  0.1770 -0.1921
  611MOL0     C84241   4.051   2.481   5.112 -0.1210  0.3087 -1.1629
  611MOL0     C84242   4.083   2.633   5.129 -0.3667 -1.1439  0.4564
  611MOL0     C84243   4.127   2.712   5.003  0.1569 -0.4034 -0.7134
  611MOL0     C84244   4.024   2.722   4.906  0.4734  0.1767 -0.1645
  611MOL0     C84245   3.935   2.713   4.825 -0.6143  0.1791 -0.9280
  611MOL0     C84246   3.786   2.324   4.958 -0.8668  0.5443  0.4734
  611MOL0     C84247   3.750   2.262   4.825 -0.4486 -0.0623 -0.8833
  611MOL0     C84248   3.715   2.371   4.731 -0.7014 -0.2259 -0.4281
  611MOL0     H84249   3.541   1.854   4.738 -3.0119  0.0586  0.0334
  611MOL0     H84250   3.388   1.687   4.627 -1.6582  0.1391 -2.5286
  611MOL0     H84251   3.316   1.495   4.570 -3.3581 -2.0460 -1.9865
  611MOL0     H84252   3.469   1.394   4.612  1.4845 -0.2551 -1.2683
  611MOL0     H84253   3.313   1.333   4.367  0.2023 -1.3389 -0.4605
  611MOL0     H84254   3.433   1.235   4.439 -1.7966 -3.0089  2.4721
  611MOL0     H84255   3.231   1.128   4.482  2.8863  1.0827 -1.0947
  611MOL0     H84256   3.312   1.166   4.634  3.4787 -0.1663 -1.5932
  611MOL0     H84257   3.146   1.368   4.669  0.0938  2.1902 -1.5693
  611MOL0     H84258   3.089   1.333   4.502  0.5117  0.4786  0.0387
  611MOL0     H84259   3.049   1.123   4.719  0.1777 -0.2155 -0.0545
  611MOL0     H84260   2.956   1.138   4.579 -0.8444  0.4980  2.3790
  611MOL0     H84261   2.817   1.205   4.713 -1.2685  1.2897 -1.2210
  611MOL0     H84262   2.916   1.312   4.806  0.8118  2.0549 -0.8445
  611MOL0     H84263   2.902   1.463   4.588 -1.4023  0.4297 -3.5881
  611MOL0     H84264   2.751   1.425   4.682  0.8561  0.5260 -1.0773
  611MOL0     H84265   2.860   1.287   4.434 -1.5969 -1.4041 -0.5748
  611MOL0     H84266   2.704   1.236   4.507  1.1646 -2.4384 -3.2644
  611MOL0     H84267   2.835   1.612   4.386  1.1152 -0.8313 -0.0469
  611MOL0     H84268   2.743   1.689   4.071  0.1758  3.2212 -0.7992
  611MOL0     H84269   2.784   1.760   4.221 -1.1132  2.2687 -0.8452
  611MOL0     H84270   2.600   1.879   4.103 -0.7533  1.3590  1.8253
  611MOL0     H84271   2.516   1.725   4.091  1.6913  0.1965  0.1111
  611MOL0     H84272   2.449   1.733   4.322 -0.5774  0.5765  0.3815
  611MOL0     H84273   2.583   1.834   4.370  0.6896 -1.2346 -0.4825
  611MOL0     H84274   2.345   1.931   4.213  0.3586 -1.5118  0.3888
  611MOL0     H84275   2.361   1.964   4.380  0.9185  0.7565 -0.1105
  611MOL0     H84276   2.264   2.133   4.327 -2.5125  3.2095  0.0996
  611MOL0     H84277   2.065   2.273   4.309  1.1274 -1.9283 -3.5204
  611MOL0     H84278   2.073   2.433   4.242 -0.0138 -2.5307 -1.7232
  611MOL0     H84279   2.113   2.427   4.410  0.9267 -1.4514 -0.0402
  611MOL0     H84280   2.232   2.864   4.136  0.3397  0.1896  0.8351
  611MOL0     H84281   2.126   3.087   4.188 -4.1613  1.5711  2.4741
  611MOL0     H84282   1.839   3.061   4.486  0.6065  0.4672  3.9141
  611MOL0     H84283   1.933   3.164   4.582 -1.6436 -1.0623  0.6543
  611MOL0     H84284   1.844   3.351   4.410  1.6837 -0.8787  0.0494
  611MOL0     H84285   1.742   3.224   4.344  0.1602  2.0000  0.8198
  611MOL0     H84286   1.642   3.386   4.501  1.4679  2.3949  2.9018
  611MOL0     H84287   1.728   3.308   4.639  0.4241  1.9624 -0.3783
  611MOL0     H84288   1.605   3.102   4.587  1.1199  0.2932 -0.9274
  611MOL0     H84289   1.516   3.172   4.455 -5.2556 -0.2192  1.1999
  611MOL0     H84290   1.460   3.188   4.741  3.0975  0.3834  0.5006
  611MOL0     H84291   1.429   3.344   4.660  2.3279 -0.2531 -1.5910
  611MOL0     H84292   1.303   3.101   4.547  2.1692 -0.9470  0.4525
  611MOL0     H84293   1.290   3.270   4.501 -4.3253 -0.2173  0.2377
  611MOL0     H84294   1.197   3.324   4.727  3.4046 -0.8139  0.9334
  611MOL0     H84295   1.176   3.164   4.762  1.3526  0.6097  0.2807
  611MOL0     H84296   1.051   3.308   4.523  2.5266 -2.7727 -3.6739
  611MOL0     H84297   0.966   3.259   4.668  1.6853 -1.8587  2.0250
  611MOL0     H84298   2.006   2.940   4.563 -1.8592  1.4811 -0.4593
  611MOL0     H84299   2.076   2.723   4.524 -2.3541  1.8651  0.4693
  611MOL0     H84300   2.526   2.498   4.148  0.7474  2.0389  4.8250
  611MOL0     H84301   2.636   2.257   4.184 -0.7592 -0.1382 -0.0209
  611MOL0     H84302   3.712   1.589   4.352 -1.3675  0.2875 -0.3069
  611MOL0     H84303   3.849   1.768   4.480 -0.7522 -0.7335  1.2206
  611MOL0     H84304   3.856   1.947   4.898 -0.4449  0.6318 -4.6362
  611MOL0     H84305   3.923   2.048   5.101  2.3865  1.9947 -1.4640
  611MOL0     H84306   3.831   2.497   5.151  0.4769  0.0658 -1.2904
  611MOL0     H84307   3.926   2.451   5.290 -2.6806 -2.7924  0.4427
  611MOL0     H84308   4.058   2.464   5.004  0.5490  2.4099 -1.5048
  611MOL0     H84309   4.138   2.422   5.144  1.4306  1.5727 -2.8042
  611MOL0     H84310   3.999   2.685   5.176 -0.5707 -1.8212  0.8574
  611MOL0     H84311   4.148   2.650   5.215 -2.3904  2.0343  1.5498
  611MOL0     H84312   4.217   2.662   4.967  2.7168  0.8407  3.3088
  611MOL0     H84313   4.155   2.814   5.031 -1.1080 -0.2005 -0.1091
  611MOL0     H84314   3.876   2.703   4.736  3.0836  0.3262 -3.6179
  611MOL0     H84315   3.774   2.432   4.959  4.4478  1.4411 -0.4957
  611MOL0     H84316   3.783   2.454   4.750  2.1423 -2.6756  1.0230
  611MOL0     H84317   3.735   2.330   4.632  1.2834  2.4773 -1.2419
  611MOL0     H84318   3.613   2.411   4.723 -0.9675 -0.3983  1.4761
  612MOL0     O84319   1.003   7.370   4.558 -0.3140  0.1498  0.3025
  612MOL0     C84320   1.024   7.426   4.447  0.5584  1.0418  0.4292
  612MOL0     O84321   1.088   7.362   4.339  0.0272  0.4731 -0.5061
  612MOL0     C84322   1.098   7.227   4.322 -0.7189 -1.2817  0.3725
  612MOL0     C84323   1.201   7.179   4.236  0.2713 -0.2567  0.1656
  612MOL0     C84324   1.226   7.045   4.215  0.4373  0.1055 -0.0828
  612MOL0     C84325   1.135   6.948   4.266  0.8568 -0.7225 -0.8195
  612MOL0     O84326   1.154   6.815   4.239 -0.3521  0.5535  0.1980
  612MOL0     C84327   1.046   6.721   4.259 -0.3090  0.3437  0.2294
  612MOL0     C84328   0.937   6.761   4.155  0.0058 -1.0162 -0.3265
  612MOL0     C84329   0.811   6.670   4.157  0.1783 -0.1167 -0.8913
  612MOL0     C84330   0.829   6.531   4.106 -0.2834  0.1486 -1.8472
  612MOL0     C84331   0.881   6.521   3.964 -0.7293  0.0168 -0.0054
  612MOL0     C84332   0.815   6.429   3.867 -0.6052 -0.1224  1.5882
  612MOL0     C84333   0.865   6.456   3.725  0.3748 -0.6248 -0.7668
  612MOL0     C84334   0.793   6.369   3.625 -0.1251  0.6655 -0.4422
  612MOL0     N84335   0.696   6.442   3.545 -0.1105  0.5831  0.1823
  612MOL0     C84336   0.564   6.469   3.582 -0.6312  0.4130  0.0021
  612MOL0     C84337   0.501   6.526   3.476  0.2299  0.6959 -1.0258
  612MOL0     C84338   0.349   6.554   3.476 -0.7426 -0.8337  0.0983
  612MOL0     C84339   0.306   6.602   3.340  0.6852  1.6365 -0.8676
  612MOL0     C84340   0.157   6.662   3.351  0.0606  0.3333 -0.4122
  612MOL0     C84341   0.127   6.724   3.214 -0.9051 -0.2113  1.6396
  612MOL0     O84342   0.006   6.792   3.215 -0.1998  0.3637 -0.2336
  612MOL0     C84343  -0.022   6.908   3.280 -0.7714 -0.3832  0.4250
  612MOL0     C84344   0.085   6.970   3.352 -0.6326  0.4168 -0.6319
  612MOL0     C84345   0.063   7.095   3.419  0.4767 -0.3897  0.9324
  612MOL0     C84346   0.165   7.149   3.505  0.0726 -0.2350 -0.8152
  612MOL0     C84347  -0.063   7.163   3.411  0.6382  0.4637  0.2841
  612MOL0     C84348  -0.092   7.295   3.463 -0.0388 -0.8830  0.6851
  612MOL0     O84349  -0.210   7.327   3.516  0.8531  0.2281 -0.3677
  612MOL0     C84350  -0.249   7.445   3.564 -1.0498  0.0283 -0.3790
  612MOL0     C84351  -0.291   7.548   3.469  1.3609  1.3442 -1.1606
  612MOL0     C84352  -0.368   7.659   3.515 -0.1134  0.9640 -0.1941
  612MOL0     C84353  -0.378   7.675   3.658 -0.5002 -0.1161 -0.3017
  612MOL0     O84354  -0.445   7.789   3.689  0.3444 -0.1855  0.2022
  612MOL0     C84355  -0.500   7.798   3.824  0.2724  0.3996 -0.9187
  612MOL0     C84356  -0.579   7.926   3.839 -0.5617  1.0066 -0.0851
  612MOL0     C84357  -0.687   7.929   3.729  0.1257  0.8326 -0.5894
  612MOL0     C84358  -0.760   8.060   3.726  0.3765 -0.4741  0.3108
  612MOL0     C84359  -0.890   8.048   3.644 -0.3338  0.0293 -0.0595
  612MOL0     C84360  -0.955   8.187   3.653 -0.3994 -0.0975  0.3042
  612MOL0     C84361  -1.108   8.188   3.618  0.3506 -0.7718 -0.6737
  612MOL0     C84362  -1.175   8.322   3.641  0.5894  0.6139  0.6103
  612MOL0    Cl84363  -1.348   8.294   3.606 -0.3770  0.1206 -0.2980
  612MOL0     C84364  -0.328   7.574   3.746  0.3321 -0.3299  0.0794
  612MOL0     C84365  -0.264   7.466   3.699 -0.0450  0.2659  0.5065
  612MOL0     O84366   0.001   7.368   3.466  0.7469 -0.9001 -0.0089
  612MOL0     C84367  -0.160   7.084   3.344 -0.0743  0.3996 -0.6400
  612MOL0     C84368  -0.143   6.957   3.286 -0.3908 -0.7455  0.3311
  612MOL0     N84369   0.584   6.518   3.371  0.9096 -0.4029 -0.1832
  612MOL0     N84370   0.701   6.469   3.409 -0.5761  0.4061  0.4116
  612MOL0     C84371   1.027   6.998   4.353 -0.1035  0.1474  0.4581
  612MOL0     C84372   1.014   7.133   4.382  0.2426  0.1323 -0.1137
  612MOL0     C84373   0.995   7.571   4.441  0.2947 -0.3602 -0.0579
  612MOL0     C84374   1.083   7.643   4.359  0.6758 -0.2264 -0.1537
  612MOL0     C84375   1.060   7.777   4.342 -0.0003  0.4347 -0.4016
  612MOL0     C84376   0.960   7.848   4.400  0.1300  0.0589  0.0431
  612MOL0     O84377   0.939   7.980   4.373 -1.2706  0.3368 -0.2686
  612MOL0     C84378   0.839   8.002   4.282  0.2548 -0.7442  0.1232
  612MOL0     C84379   0.878   8.115   4.181  0.2711 -0.0663 -0.1499
  612MOL0     C84380   0.989   8.068   4.088 -0.4752  0.0915 -0.6357
  612MOL0     C84381   1.060   8.193   4.042  0.5496 -0.1153  0.9551
  612MOL0     C84382   1.168   8.138   3.960  0.3307  0.4166  0.1912
  612MOL0     C84383   1.255   8.089   3.884 -0.4676  0.1574  0.4337
  612MOL0     C84384   0.869   7.772   4.487  0.0912 -0.1941  0.7168
  612MOL0     C84385   0.885   7.633   4.508 -0.7142 -1.0757 -0.5833
  612MOL0     C84386   0.787   7.550   4.585 -0.3697  1.1416  0.0935
  612MOL0     H84387   1.279   7.242   4.194  2.0685 -1.4509  1.5300
  612MOL0     H84388   1.310   7.007   4.157 -1.3789 -0.7077 -2.3350
  612MOL0     H84389   1.010   6.725   4.363  3.2907 -0.2470  1.6559
  612MOL0     H84390   1.088   6.621   4.248 -2.7866 -0.9112  1.3912
  612MOL0     H84391   0.894   6.860   4.173  1.2152 -0.7869  1.7194
  612MOL0     H84392   0.982   6.767   4.056  0.2168  0.7784 -0.1550
  612MOL0     H84393   0.773   6.682   4.259 -0.2575  1.6024 -1.2123
  612MOL0     H84394   0.726   6.709   4.100 -1.9042  0.1349  2.1524
  612MOL0     H84395   0.906   6.494   4.174 -0.6985  3.2920  0.5948
  612MOL0     H84396   0.740   6.471   4.126  1.3325 -2.0044 -0.6621
  612MOL0     H84397   0.987   6.497   3.953 -0.5066  1.2537 -0.7321
  612MOL0     H84398   0.867   6.618   3.915  0.8557  0.4916  0.4088
  612MOL0     H84399   0.830   6.326   3.902 -1.2026  0.4855  3.7574
  612MOL0     H84400   0.706   6.440   3.872 -0.7146 -1.5849  4.0076
  612MOL0     H84401   0.969   6.423   3.720  0.2599 -0.8078 -2.3247
  612MOL0     H84402   0.861   6.562   3.697 -0.7435 -0.5715 -0.4642
  612MOL0     H84403   0.866   6.328   3.554 -0.9132 -1.3807 -0.1277
  612MOL0     H84404   0.730   6.289   3.665 -0.4887  0.4585 -1.3831
  612MOL0     H84405   0.513   6.444   3.674 -1.1056 -1.8895 -0.8038
  612MOL0     H84406   0.311   6.634   3.540 -0.4272  1.1854 -2.0899
  612MOL0     H84407   0.300   6.458   3.493 -1.8397 -0.7747 -2.3503
  612MOL0     H84408   0.368   6.685   3.305 -1.9097  2.0064 -5.2518
  612MOL0     H84409   0.322   6.519   3.271 -0.0240  1.4869 -0.8618
  612MOL0     H84410   0.078   6.593   3.383 -2.1765  2.2101 -1.5496
  612MOL0     H84411   0.161   6.744   3.424 -2.0534 -0.0029  0.1437
  612MOL0     H84412   0.205   6.795   3.187 -2.1310  0.1784 -1.3809
  612MOL0     H84413   0.122   6.649   3.134 -0.6944  0.7647  0.6886
  612MOL0     H84414   0.188   6.935   3.353  0.5796  3.6158 -1.9406
  612MOL0     H84415   0.124   7.196   3.594 -1.1681 -0.1268 -1.4271
  612MOL0     H84416   0.238   7.210   3.451  2.1633 -2.5617 -0.8335
  612MOL0     H84417   0.219   7.064   3.548 -2.1218 -1.6149 -0.6080
  612MOL0     H84418  -0.274   7.527   3.364  0.2398  2.0065 -1.4882
  612MOL0     H84419  -0.401   7.739   3.450  0.7780 -0.8200 -3.0211
  612MOL0     H84420  -0.557   7.706   3.840  0.9656 -0.1544 -1.6265
  612MOL0     H84421  -0.415   7.799   3.893 -0.7381  0.2747  0.3735
  612MOL0     H84422  -0.620   7.948   3.938  1.1505  1.4915  0.5374
  612MOL0     H84423  -0.500   7.999   3.822  0.1981  0.9033  2.5666
  612MOL0     H84424  -0.763   7.851   3.739  1.5902 -0.5334  0.4176
  612MOL0     H84425  -0.646   7.905   3.631 -1.5766 -4.3952 -0.3344
  612MOL0     H84426  -0.690   8.134   3.685  1.6319 -1.6710  0.2515
  612MOL0     H84427  -0.784   8.097   3.826  1.8604  0.0858  0.4823
  612MOL0     H84428  -0.855   8.035   3.542  2.8535  1.2521  0.7494
  612MOL0     H84429  -0.958   7.977   3.692 -2.5844  2.0200 -0.1450
  612MOL0     H84430  -0.899   8.253   3.585 -0.6924 -0.7733 -0.6106
  612MOL0     H84431  -0.941   8.225   3.754  1.4867  0.7335 -0.2108
  612MOL0     H84432  -1.163   8.107   3.667 -2.5725  1.2895 -0.3144
  612MOL0     H84433  -1.117   8.163   3.512  1.5287 -1.3395 -0.6631
  612MOL0     H84434  -1.134   8.392   3.568 -1.5254  1.4784  0.1778
  612MOL0     H84435  -1.150   8.361   3.741 -1.9175 -0.2310  1.6458
  612MOL0     H84436  -0.344   7.582   3.853 -2.0751 -1.5707 -0.1188
  612MOL0     H84437  -0.228   7.384   3.760  1.5362 -0.8309 -1.7631
  612MOL0     H84438  -0.263   7.118   3.336  0.5409  2.5398 -0.2462
  612MOL0     H84439  -0.227   6.905   3.241  0.5440 -0.9095 -1.2925
  612MOL0     H84440   0.962   6.925   4.400 -1.6757  2.1060  1.5091
  612MOL0     H84441   0.932   7.162   4.447 -1.3118 -1.4745 -1.2338
  612MOL0     H84442   1.160   7.587   4.307  2.6338 -0.2637  2.5780
  612MOL0     H84443   1.130   7.832   4.279 -1.4863  0.2181 -2.3478
  612MOL0     H84444   0.811   7.922   4.213  0.2248  2.9911 -4.7833
  612MOL0     H84445   0.740   8.008   4.330 -0.0825 -0.0195 -0.6350
  612MOL0     H84446   0.894   8.206   4.240  0.0499 -0.4077  0.4511
  612MOL0     H84447   0.793   8.117   4.112 -0.5593 -1.2963  0.7783
  612MOL0     H84448   1.059   8.003   4.140  2.1384  1.0774 -2.6866
  612MOL0     H84449   0.949   8.017   4.000 -0.2397  0.4495 -0.9586
  612MOL0     H84450   1.100   8.271   4.108  2.6436  2.9543 -3.4444
  612MOL0     H84451   0.985   8.244   3.980  0.4633 -0.1840  1.0040
  612MOL0     H84452   1.327   8.041   3.821 -1.1462 -2.1440  1.2940
  612MOL0     H84453   0.783   7.830   4.520  0.8743  2.9860 -2.2152
  612MOL0     H84454   0.825   7.539   4.687 -1.3916  0.6625  0.4349
  612MOL0     H84455   0.685   7.585   4.602 -0.2272  1.1775  0.9106
  612MOL0     H84456   0.771   7.452   4.539 -1.4325  0.7933  1.1610
  613MOL0     O84457   7.319   1.113   3.892  0.2394 -0.1780  0.3832
  613MOL0     C84458   7.294   1.214   3.963  0.0474 -0.3805  0.0245
  613MOL0     O84459   7.385   1.273   4.046  0.6133 -0.5340  0.3765
  613MOL0     C84460   7.505   1.221   4.072 -0.0586 -0.4335  0.4669
  613MOL0     C84461   7.577   1.274   4.185  0.0283  0.8478  0.0027
  613MOL0     C84462   7.709   1.229   4.217  0.2326 -0.5833  0.5884
  613MOL0     C84463   7.774   1.144   4.142  0.3864  0.2621  1.5034
  613MOL0     O84464   7.898   1.104   4.151  0.2843 -0.8702  0.6770
  613MOL0     C84465   7.942   1.052   4.276  0.3363 -0.0577  0.3619
  613MOL0     C84466   8.081   0.984   4.262  0.2206 -0.2555 -0.0474
  613MOL0     C84467   8.062   0.855   4.179  0.3622  1.2733  0.7730
  613MOL0     C84468   8.182   0.769   4.193  0.0956  0.4302  0.1210
  613MOL0     C84469   8.177   0.636   4.128 -0.3845 -0.1394 -0.3032
  613MOL0     C84470   8.076   0.539   4.180  0.6217  0.0099 -0.5211
  613MOL0     C84471   8.098   0.489   4.325  0.2998 -0.2517 -0.5740
  613MOL0     C84472   8.066   0.339   4.352 -0.9297 -0.5967  0.0119
  613MOL0     N84473   8.148   0.255   4.270 -0.1022  0.5280  0.2450
  613MOL0     C84474   8.281   0.253   4.242  0.1621  0.6334 -0.0308
  613MOL0     C84475   8.286   0.181   4.127 -0.2093  0.1461  0.8197
  613MOL0     C84476   8.404   0.182   4.035  0.5595  0.6605 -0.7767
  613MOL0     C84477   8.363   0.233   3.893  0.2340  0.7822 -0.0936
  613MOL0     C84478   8.338   0.116   3.788  0.5645  0.7650 -0.4159
  613MOL0     C84479   8.302   0.146   3.646 -0.0256 -0.0080 -0.7455
  613MOL0     O84480   8.409   0.215   3.593 -0.1015 -0.3273  0.1669
  613MOL0     C84481   8.399   0.239   3.456  0.7215 -0.0931  0.4499
  613MOL0     C84482   8.356   0.361   3.397 -0.6483 -0.5612  0.3944
  613MOL0     C84483   8.356   0.371   3.256  0.0958 -1.0044  0.2685
  613MOL0     C84484   8.322   0.511   3.206 -1.6943 -0.4772  0.5189
  613MOL0     C84485   8.365   0.253   3.169 -0.1913 -1.6166 -0.2001
  613MOL0     C84486   8.355   0.251   3.020 -0.5133  0.4563  0.2521
  613MOL0     O84487   8.370   0.375   2.957  0.9104  0.3514 -0.3494
  613MOL0     C84488   8.344   0.374   2.827 -0.3057 -0.0359 -0.0527
  613MOL0     C84489   8.213   0.405   2.787 -0.5995  0.1535 -0.6716
  613MOL0     C84490   8.172   0.386   2.657  0.3796 -0.0776 -0.7430
  613MOL0     C84491   8.253   0.337   2.560 -0.5689 -0.2274  0.3895
  613MOL0     O84492   8.203   0.313   2.440  0.0133  0.2959 -0.4423
  613MOL0     C84493   8.142   0.424   2.366 -0.3020  0.2451 -0.3847
  613MOL0     C84494   8.235   0.497   2.262  0.6078 -0.0511 -0.6714
  613MOL0     C84495   8.304   0.392   2.172 -0.1011  0.2745  0.4541
  613MOL0     C84496   8.348   0.442   2.032 -0.0087  1.0812 -0.2974
  613MOL0     C84497   8.348   0.317   1.934 -0.0106  0.2552 -0.1503
  613MOL0     C84498   8.448   0.209   1.954  0.7741  1.1174  0.2623
  613MOL0     C84499   8.430   0.090   1.847 -1.0274 -0.5536 -0.1474
  613MOL0     C84500   8.575   0.014   1.846  1.2468 -0.0231  0.2254
  613MOL0    Cl84501   8.600  -0.107   1.716  0.6242 -0.1324  0.0532
  613MOL0     C84502   8.382   0.297   2.597  0.0424  0.1420  0.0067
  613MOL0     C84503   8.426   0.323   2.727  0.8320  0.6671  0.0771
  613MOL0     O84504   8.344   0.142   2.961  0.4731 -0.6100 -0.7434
  613MOL0     C84505   8.399   0.135   3.227 -0.7666  0.2709 -0.4373
  613MOL0     C84506   8.411   0.129   3.369  0.0925  0.3957  1.6614
  613MOL0     N84507   8.162   0.128   4.092 -0.6719 -0.0678 -0.4076
  613MOL0     N84508   8.075   0.179   4.183  0.0095 -0.0703 -0.0884
  613MOL0     C84509   7.710   1.090   4.028  0.8686 -0.0134  0.6297
  613MOL0     C84510   7.578   1.130   3.997 -0.9403  0.8478 -0.3233
  613MOL0     C84511   7.155   1.275   3.970 -0.8737 -0.3830 -0.2624
  613MOL0     C84512   7.118   1.365   4.065 -0.0280  0.3100 -0.7832
  613MOL0     C84513   6.990   1.405   4.100 -0.7298 -1.1882 -0.8532
  613MOL0     C84514   6.881   1.364   4.022  1.0441 -0.5748  0.0812
  613MOL0     O84515   6.753   1.412   4.049  1.2890 -0.4971 -0.1529
  613MOL0     C84516   6.735   1.553   4.047 -0.3322 -0.8011 -0.7490
  613MOL0     C84517   6.605   1.582   3.960  0.0402  0.2964 -0.1863
  613MOL0     C84518   6.635   1.575   3.813 -1.3997  0.3561  1.1012
  613MOL0     C84519   6.518   1.548   3.726 -1.2844  0.0443 -0.5415
  613MOL0     C84520   6.469   1.412   3.754 -0.0473  0.8402  0.2436
  613MOL0     C84521   6.417   1.300   3.757  0.1532 -0.3249 -0.7653
  613MOL0     C84522   6.912   1.277   3.917  0.0094 -0.8484  0.1033
  613MOL0     C84523   7.048   1.241   3.881 -1.1079 -0.2415  1.0178
  613MOL0     C84524   7.070   1.148   3.764  0.5062  0.0305  0.3023
  613MOL0     H84525   7.512   1.344   4.237 -1.7062 -0.8351  0.1940
  613MOL0     H84526   7.762   1.271   4.302  0.9294  1.2347 -0.6710
  613MOL0     H84527   7.867   0.981   4.312 -0.6703  0.3389 -0.8786
  613MOL0     H84528   7.938   1.128   4.354  0.8535 -1.2142  1.5430
  613MOL0     H84529   8.137   1.070   4.223 -1.6258  2.1814  2.2848
  613MOL0     H84530   8.117   0.950   4.360 -0.1342  0.1919  0.2425
  613MOL0     H84531   7.965   0.814   4.209  0.0250  0.6648 -1.0234
  613MOL0     H84532   8.059   0.873   4.071  0.5097 -0.1447  0.5102
  613MOL0     H84533   8.264   0.837   4.167  0.1910  1.4582  2.8090
  613MOL0     H84534   8.192   0.748   4.299 -0.5159  0.2396  0.1477
  613MOL0     H84535   8.276   0.598   4.157 -0.7900  0.1515  1.5641
  613MOL0     H84536   8.172   0.636   4.018 -2.9249  1.5306 -0.2639
  613MOL0     H84537   7.980   0.590   4.166  0.6000  0.0423 -0.2572
  613MOL0     H84538   8.062   0.447   4.122  0.9268 -0.2875 -0.1296
  613MOL0     H84539   8.026   0.550   4.380 -0.1627  0.1754 -1.6314
  613MOL0     H84540   8.195   0.514   4.368  2.3889 -1.2620 -4.2737
  613MOL0     H84541   8.088   0.338   4.459 -1.0814  0.5464  0.0718
  613MOL0     H84542   7.959   0.321   4.336 -0.9346 -1.1112  0.5909
  613MOL0     H84543   8.355   0.319   4.287  0.7518  0.7492 -1.1411
  613MOL0     H84544   8.437   0.078   4.047 -1.3215  0.3106  2.3519
  613MOL0     H84545   8.488   0.246   4.065 -1.1960  2.6295  0.2059
  613MOL0     H84546   8.271   0.291   3.900 -0.6976 -0.6075 -0.4119
  613MOL0     H84547   8.435   0.299   3.845 -0.6793 -0.7646 -3.9716
  613MOL0     H84548   8.426   0.053   3.772 -1.3559 -2.1486 -0.2348
  613MOL0     H84549   8.267   0.043   3.828 -0.4747  0.1879 -3.1020
  613MOL0     H84550   8.282   0.048   3.600  1.1935 -0.0259 -1.2757
  613MOL0     H84551   8.213   0.209   3.638 -1.0461 -1.4789 -1.4616
  613MOL0     H84552   8.321   0.440   3.463 -0.0439 -1.4485  1.8267
  613MOL0     H84553   8.224   0.493   3.160 -1.9656 -0.3193  1.0319
  613MOL0     H84554   8.397   0.558   3.142 -2.9202  0.7009 -0.0993
  613MOL0     H84555   8.322   0.581   3.290 -2.2857 -1.0463  1.0044
  613MOL0     H84556   8.142   0.440   2.861  0.3144  2.7015 -0.8958
  613MOL0     H84557   8.068   0.414   2.638  0.6665  2.2267  0.7147
  613MOL0     H84558   8.052   0.384   2.317 -2.0752  0.8768  2.1387
  613MOL0     H84559   8.106   0.498   2.438 -0.1472  1.9619 -1.9922
  613MOL0     H84560   8.186   0.573   2.200 -3.4014 -2.4739 -0.8137
  613MOL0     H84561   8.312   0.555   2.315 -1.2588  2.4224 -0.4667
  613MOL0     H84562   8.235   0.309   2.152  0.2006  0.1831 -0.2688
  613MOL0     H84563   8.395   0.347   2.213 -0.4656 -0.4486  0.4921
  613MOL0     H84564   8.445   0.493   2.026 -0.1904  1.2948 -1.9434
  613MOL0     H84565   8.265   0.504   1.997 -1.0139  0.1635  0.3789
  613MOL0     H84566   8.251   0.268   1.919  0.9769 -1.9871  0.3842
  613MOL0     H84567   8.364   0.356   1.833 -0.3062 -1.0749 -0.7324
  613MOL0     H84568   8.449   0.172   2.057 -0.0823  3.1901  1.0610
  613MOL0     H84569   8.545   0.255   1.933  1.5590 -1.0220 -1.1585
  613MOL0     H84570   8.397   0.117   1.746 -2.8051  0.6079  0.7003
  613MOL0     H84571   8.362   0.011   1.879 -0.4740 -1.7920 -1.8421
  613MOL0     H84572   8.597  -0.018   1.949 -0.9217 -0.2581  0.6512
  613MOL0     H84573   8.651   0.091   1.828  0.7532  0.1612 -1.1790
  613MOL0     H84574   8.438   0.244   2.521  3.2579  2.4432  0.5606
  613MOL0     H84575   8.527   0.290   2.747  0.4195 -1.1957 -0.6194
  613MOL0     H84576   8.404   0.043   3.169 -1.6594 -1.2118  1.7353
  613MOL0     H84577   8.430   0.029   3.407 -1.4044 -0.2457  0.8414
  613MOL0     H84578   7.765   1.022   3.964  1.6435  2.4936 -1.5796
  613MOL0     H84579   7.549   1.087   3.901  1.5081  3.2380 -2.3102
  613MOL0     H84580   7.192   1.403   4.136 -1.0946  2.6186 -0.8387
  613MOL0     H84581   6.970   1.487   4.167 -0.6605 -0.4687 -1.6851
  613MOL0     H84582   6.719   1.596   4.146 -2.1295 -1.0666 -0.8845
  613MOL0     H84583   6.821   1.609   4.009 -1.3113 -0.5198 -2.6718
  613MOL0     H84584   6.586   1.685   3.993  0.7108  0.8596 -1.4792
  613MOL0     H84585   6.529   1.510   3.992  0.0136  0.6305  0.5388
  613MOL0     H84586   6.669   1.671   3.775 -0.4152  0.8100  3.0001
  613MOL0     H84587   6.715   1.503   3.795  0.4610  2.4989  0.3881
  613MOL0     H84588   6.548   1.541   3.621 -2.2737 -2.3014 -0.7342
  613MOL0     H84589   6.442   1.626   3.732 -0.5714  0.8300 -1.4231
  613MOL0     H84590   6.354   1.214   3.764 -1.1584  0.7203  1.8988
  613MOL0     H84591   6.832   1.229   3.861 -0.0437 -2.5596  1.5653
  613MOL0     H84592   7.129   1.196   3.685  1.2420 -1.3101  0.0064
  613MOL0     H84593   7.123   1.057   3.792 -0.0455  0.4876  3.1796
  613MOL0     H84594   6.969   1.116   3.736  0.9050 -0.8718 -0.1240
  614MOL0     O84595   7.736   4.817   1.942 -0.2956  0.2000 -0.3547
  614MOL0     C84596   7.621   4.818   1.923 -0.2658 -0.7098 -0.8495
  614MOL0     O84597   7.519   4.862   2.013 -0.0208 -0.3200  0.2000
  614MOL0     C84598   7.563   4.952   2.110 -0.1272 -0.8208 -1.3171
  614MOL0     C84599   7.506   4.952   2.245  0.5063 -0.3142  0.0863
  614MOL0     C84600   7.541   5.049   2.346  0.1369 -0.7417 -0.9988
  614MOL0     C84601   7.628   5.146   2.317  0.0665  0.1464 -0.6631
  614MOL0     O84602   7.675   5.236   2.405 -0.4140 -0.2566  0.0474
  614MOL0     C84603   7.643   5.239   2.552  0.1825 -0.4716 -0.0686
  614MOL0     C84604   7.762   5.178   2.621  0.8507  0.9076  0.3105
  614MOL0     C84605   7.786   5.035   2.592  0.4986 -0.2006 -0.4782
  614MOL0     C84606   7.890   4.996   2.482 -0.6191  0.2455  0.1378
  614MOL0     C84607   7.862   4.851   2.429 -0.4953  0.0808  0.0524
  614MOL0     C84608   7.974   4.815   2.342  0.1232  0.3143  0.5728
  614MOL0     C84609   7.941   4.681   2.287 -0.1779  0.0122  0.1927
  614MOL0     C84610   8.058   4.619   2.204 -0.0573  0.9397  0.4124
  614MOL0     N84611   8.165   4.573   2.301  0.2649 -0.2292  0.0695
  614MOL0     C84612   8.198   4.440   2.313  0.4117  0.0566  0.6002
  614MOL0     C84613   8.327   4.444   2.363 -0.3224  0.0207 -0.2853
  614MOL0     C84614   8.408   4.324   2.422  0.1609  0.6643  0.1592
  614MOL0     C84615   8.484   4.362   2.551 -0.5589  0.9528  0.4942
  614MOL0     C84616   8.615   4.430   2.528 -0.1845  0.1845 -0.1712
  614MOL0     C84617   8.685   4.445   2.667  0.5491 -0.6724  0.7428
  614MOL0     O84618   8.723   4.318   2.716  0.0599  0.2191  0.3969
  614MOL0     C84619   8.862   4.299   2.712  1.1715 -0.6368 -0.0068
  614MOL0     C84620   8.906   4.225   2.817  0.5533  1.1383 -0.8690
  614MOL0     C84621   9.045   4.177   2.817  0.7375  0.0243  1.0046
  614MOL0     C84622   9.091   4.102   2.932  0.9798 -0.6077  1.1373
  614MOL0     C84623   9.136   4.218   2.711 -0.8115  0.0800  0.3556
  614MOL0     C84624   9.290   4.202   2.710  0.2853  0.9695  0.6448
  614MOL0     O84625   9.362   4.288   2.631  0.1551  0.9601 -0.1334
  614MOL0     C84626   9.488   4.256   2.578  0.0824 -0.3449  0.0188
  614MOL0     C84627   9.518   4.135   2.520 -0.1306  0.7837 -0.8166
  614MOL0     C84628   9.651   4.119   2.476  0.4437  0.9473 -0.3752
  614MOL0     C84629   9.741   4.228   2.464  0.3487  0.7204  0.3959
  614MOL0     O84630   9.864   4.229   2.400  0.6194 -0.5207  0.7430
  614MOL0     C84631   9.877   4.122   2.299 -0.4117 -0.5790 -1.1064
  614MOL0     C84632   9.983   4.169   2.201  0.5972  0.3117 -0.1509
  614MOL0     C84633  10.010   4.050   2.106  0.4853  0.2381  0.7278
  614MOL0     C84634  10.039   4.117   1.978  0.5688  0.2555 -0.8047
  614MOL0     C84635  10.086   4.017   1.870 -0.6510 -0.0341 -0.2875
  614MOL0     C84636   9.961   3.952   1.820  0.4680  0.4409  0.1835
  614MOL0     C84637   9.990   3.854   1.707 -0.0613  0.2147  0.5355
  614MOL0     C84638  10.039   3.925   1.575 -0.0821 -0.9497  0.2358
  614MOL0    Cl84639   9.899   4.021   1.512  0.2598  0.0655  0.2505
  614MOL0     C84640   9.707   4.348   2.521 -0.4211  0.0287 -0.2508
  614MOL0     C84641   9.581   4.364   2.582 -0.3357  0.2148  0.3017
  614MOL0     O84642   9.334   4.093   2.757  0.0285 -0.0056 -0.3940
  614MOL0     C84643   9.089   4.301   2.611  0.0526 -0.3261 -0.2274
  614MOL0     C84644   8.954   4.343   2.609 -0.9847 -0.1742  0.1056
  614MOL0     N84645   8.375   4.573   2.368 -0.6865  0.3703  0.0183
  614MOL0     N84646   8.277   4.646   2.326 -0.1912  0.3324 -1.3570
  614MOL0     C84647   7.684   5.148   2.193 -0.0316 -0.3142 -0.6791
  614MOL0     C84648   7.661   5.053   2.089  1.1045 -1.1982  0.2138
  614MOL0     C84649   7.567   4.747   1.802 -0.0809  0.6577  0.8431
  614MOL0     C84650   7.643   4.650   1.730  0.0371 -0.0773  0.1981
  614MOL0     C84651   7.586   4.557   1.638  0.1068 -0.6045 -0.4788
  614MOL0     C84652   7.455   4.570   1.601 -0.1436  0.7507 -0.0222
  614MOL0     O84653   7.373   4.487   1.534  0.1410  0.1838  1.0703
  614MOL0     C84654   7.427   4.357   1.503  0.0215 -0.2802  0.3674
  614MOL0     C84655   7.315   4.255   1.462  0.4276 -0.1689  0.2874
  614MOL0     C84656   7.251   4.280   1.327  0.7640  0.2214  0.0909
  614MOL0     C84657   7.138   4.388   1.340  0.1711 -0.0619 -0.1721
  614MOL0     C84658   7.051   4.370   1.229  1.2005 -0.7744 -0.3373
  614MOL0     C84659   6.966   4.355   1.149 -0.3037 -0.2452  0.7698
  614MOL0     C84660   7.381   4.673   1.660 -0.0401  0.0742  0.1084
  614MOL0     C84661   7.438   4.766   1.753  0.5016  0.2301  0.9094
  614MOL0     C84662   7.338   4.863   1.799 -0.1471  0.5670 -0.5806
  614MOL0     H84663   7.433   4.878   2.275  1.0311 -0.1292  1.9338
  614MOL0     H84664   7.488   5.043   2.440  1.0841 -2.2200 -0.5288
  614MOL0     H84665   7.549   5.189   2.576  2.4377 -4.6264  1.1954
  614MOL0     H84666   7.635   5.345   2.575  1.8419 -0.1112 -0.9157
  614MOL0     H84667   7.852   5.235   2.595  1.1051  0.5660  0.4366
  614MOL0     H84668   7.735   5.177   2.727 -0.9194 -2.5475 -0.0471
  614MOL0     H84669   7.830   5.000   2.686 -1.9881 -0.7691  0.5593
  614MOL0     H84670   7.690   4.983   2.581 -0.0243  0.7422 -0.4952
  614MOL0     H84671   7.893   5.068   2.400 -0.3325  0.0421 -0.0325
  614MOL0     H84672   7.990   4.996   2.524 -0.1078 -2.5626 -0.8569
  614MOL0     H84673   7.765   4.834   2.380  0.0704 -1.3789 -0.6215
  614MOL0     H84674   7.868   4.783   2.514 -1.5635 -1.3792 -0.9962
  614MOL0     H84675   7.987   4.891   2.264  0.3500 -1.3814 -1.0973
  614MOL0     H84676   8.061   4.811   2.409 -0.6570 -1.3812  1.5359
  614MOL0     H84677   7.847   4.689   2.232 -0.1802 -0.0623  0.1849
  614MOL0     H84678   7.921   4.606   2.365  3.3790 -3.0645 -1.5210
  614MOL0     H84679   8.022   4.531   2.149 -0.8127  0.0919  2.1650
  614MOL0     H84680   8.079   4.695   2.128 -1.6945  1.3237  0.3140
  614MOL0     H84681   8.142   4.348   2.296  0.3284 -0.4664  3.1989
  614MOL0     H84682   8.477   4.285   2.347  0.1749  2.9697 -1.1156
  614MOL0     H84683   8.330   4.250   2.440 -1.7445  1.6533 -3.0128
  614MOL0     H84684   8.422   4.425   2.614 -0.5346  1.6251 -0.1486
  614MOL0     H84685   8.505   4.268   2.603  0.5696  0.5370 -0.6513
  614MOL0     H84686   8.682   4.389   2.452 -2.4283  0.3079 -2.3509
  614MOL0     H84687   8.597   4.531   2.488 -0.7916  0.6251  1.1593
  614MOL0     H84688   8.768   4.513   2.648  0.6061 -1.3448 -1.8606
  614MOL0     H84689   8.622   4.500   2.737  1.8738  2.6186 -0.4895
  614MOL0     H84690   8.824   4.196   2.883 -0.0920  0.1537 -2.0424
  614MOL0     H84691   9.181   4.148   2.973  0.1464  0.6642  1.5623
  614MOL0     H84692   9.109   3.998   2.902 -3.1483 -0.2312 -4.3930
  614MOL0     H84693   9.014   4.101   3.009 -0.9844  2.4659 -0.5741
  614MOL0     H84694   9.444   4.056   2.512  1.1985 -0.6042  0.1001
  614MOL0     H84695   9.680   4.026   2.429 -2.3722  0.4403 -1.2924
  614MOL0     H84696   9.910   4.031   2.350 -0.8577  0.3211  0.9095
  614MOL0     H84697   9.784   4.099   2.246  0.1761  0.9190 -2.8906
  614MOL0     H84698   9.946   4.261   2.154 -0.9607 -0.6596 -0.9155
  614MOL0     H84699  10.076   4.193   2.255  2.5710  0.6106 -3.3920
  614MOL0     H84700   9.914   3.997   2.094  0.2078  0.9188 -0.2085
  614MOL0     H84701  10.085   3.976   2.134 -0.5998 -0.7724  1.0827
  614MOL0     H84702  10.120   4.186   2.001 -0.0888  0.5807  0.6069
  614MOL0     H84703   9.956   4.177   1.940 -1.1374 -3.1561 -3.0165
  614MOL0     H84704  10.153   4.059   1.795  2.0400  2.0974  2.9852
  614MOL0     H84705  10.151   3.942   1.917  0.8331  0.2878 -1.7317
  614MOL0     H84706   9.887   4.023   1.782 -1.9990 -3.3157 -2.6548
  614MOL0     H84707   9.906   3.906   1.902 -2.2720  1.6228 -0.8904
  614MOL0     H84708   9.894   3.805   1.689 -1.7581  1.8643  4.1609
  614MOL0     H84709  10.072   3.795   1.748  0.8030  0.9368 -0.1186
  614MOL0     H84710  10.076   3.857   1.497  0.2251 -0.2940 -0.1984
  614MOL0     H84711  10.121   3.997   1.589  0.1232 -0.8638 -1.2319
  614MOL0     H84712   9.770   4.436   2.516  0.4456 -0.5246  0.6298
  614MOL0     H84713   9.556   4.460   2.627 -2.9828  0.3315 -1.1940
  614MOL0     H84714   9.149   4.336   2.528  1.0665 -0.6934  0.3282
  614MOL0     H84715   8.913   4.400   2.526  3.1399 -0.4878 -2.4611
  614MOL0     H84716   7.752   5.232   2.181  0.5295 -0.1600  2.5873
  614MOL0     H84717   7.702   5.051   1.989  0.8084 -0.1063  0.0676
  614MOL0     H84718   7.741   4.621   1.767 -0.7916 -0.0834  2.5629
  614MOL0     H84719   7.653   4.481   1.598  1.6054  0.0691  0.6581
  614MOL0     H84720   7.508   4.361   1.430  1.7360  0.6805  2.2270
  614MOL0     H84721   7.464   4.324   1.600 -0.5255  0.3924  0.8201
  614MOL0     H84722   7.239   4.256   1.541 -1.4841 -0.3930 -1.4932
  614MOL0     H84723   7.363   4.156   1.456 -0.9359 -0.8901  0.9392
  614MOL0     H84724   7.329   4.309   1.256  0.5184 -2.7206 -1.5634
  614MOL0     H84725   7.214   4.181   1.301 -1.0833  0.6402  0.9944
  614MOL0     H84726   7.178   4.489   1.327 -2.4885  1.0413 -0.3074
  614MOL0     H84727   7.084   4.375   1.434  2.5495  2.9767  1.8165
  614MOL0     H84728   6.888   4.338   1.078  0.4041 -0.8273  0.1074
  614MOL0     H84729   7.282   4.692   1.620  1.2243  4.4861 -1.5141
  614MOL0     H84730   7.271   4.888   1.716  2.5587 -1.7945 -3.7789
  614MOL0     H84731   7.283   4.819   1.882  1.0901  0.5490  0.2606
  614MOL0     H84732   7.391   4.950   1.838  2.5831 -1.0528 -0.3871
  615MOL0     O84733  10.972   5.181   2.242 -0.8948  0.4033 -0.3049
  615MOL0     C84734  10.993   5.145   2.365 -0.2051  0.5054  0.6045
  615MOL0     O84735  11.054   5.217   2.453 -0.5284  0.3949  0.9327
  615MOL0     C84736  11.096   5.341   2.423 -0.3059 -0.1369 -0.4331
  615MOL0     C84737  11.015   5.455   2.454 -1.1467  0.3578 -0.4286
  615MOL0     C84738  11.080   5.579   2.447  0.3960 -0.5522  0.6119
  615MOL0     C84739  11.206   5.606   2.397 -0.1487 -0.0746  0.1274
  615MOL0     O84740  11.254   5.736   2.396  0.5998 -0.9974  0.0589
  615MOL0     C84741  11.389   5.743   2.433  0.2817  0.1277 -0.3292
  615MOL0     C84742  11.400   5.883   2.497  0.3608 -0.6045  0.5923
  615MOL0     C84743  11.338   5.895   2.638  0.6555 -0.1858 -0.6138
  615MOL0     C84744  11.431   5.865   2.758 -0.4488 -0.6643  0.9267
  615MOL0     C84745  11.344   5.887   2.888 -0.1880  0.1822  0.5961
  615MOL0     C84746  11.443   5.873   3.012 -0.4538 -0.3786 -0.4248
  615MOL0     C84747  11.385   5.933   3.141  0.1151 -0.0307  0.6994
  615MOL0     C84748  11.489   5.921   3.247 -0.8328  0.9556  0.4991
  615MOL0     N84749  11.513   5.780   3.296 -0.5868  0.2941 -0.6414
  615MOL0     C84750  11.436   5.705   3.381  0.4376  0.2072  0.6733
  615MOL0     C84751  11.524   5.618   3.439  0.1870  0.3284 -0.8899
  615MOL0     C84752  11.468   5.503   3.536  0.3523  0.0872 -0.5457
  615MOL0     C84753  11.588   5.472   3.646  1.7251 -0.1559  0.9293
  615MOL0     C84754  11.527   5.426   3.776 -0.5669 -0.2704  0.9010
  615MOL0     C84755  11.656   5.405   3.870 -0.0508  0.3866 -0.2649
  615MOL0     O84756  11.615   5.383   4.002 -0.3760  0.8669 -0.2535
  615MOL0     C84757  11.564   5.252   4.028 -0.4535 -0.1044 -0.1971
  615MOL0     C84758  11.544   5.143   3.944  0.4048 -0.5338  0.3572
  615MOL0     C84759  11.478   5.025   3.979  1.1000 -1.1405 -0.4544
  615MOL0     C84760  11.462   4.914   3.883 -0.2697 -0.1731  0.2201
  615MOL0     C84761  11.426   5.016   4.105  0.2134 -0.0761  0.3563
  615MOL0     C84762  11.346   4.900   4.161  0.1814  0.6094  0.0493
  615MOL0     O84763  11.247   4.843   4.085 -0.1975 -0.1328 -0.3453
  615MOL0     C84764  11.181   4.732   4.128 -0.3217  0.6395  0.2426
  615MOL0     C84765  11.051   4.711   4.080 -0.4899 -0.4420 -0.4424
  615MOL0     C84766  10.975   4.595   4.104 -0.5288  0.3952 -0.3544
  615MOL0     C84767  11.042   4.494   4.178 -0.0122  0.9380  0.9703
  615MOL0     O84768  10.982   4.379   4.229  0.1962 -0.4027 -0.1581
  615MOL0     C84769  10.839   4.350   4.200 -0.3976  0.1932  0.6337
  615MOL0     C84770  10.812   4.294   4.052  0.2757 -0.2790 -0.2475
  615MOL0     C84771  10.924   4.195   4.008 -0.4980  0.3413  1.1988
  615MOL0     C84772  10.977   4.248   3.862  0.5479  0.1509 -0.7684
  615MOL0     C84773  11.062   4.146   3.783 -0.3757  0.2355  0.3724
  615MOL0     C84774  11.132   4.032   3.871  0.4506 -1.1455 -0.8383
  615MOL0     C84775  11.219   3.935   3.797  0.4253 -0.7656 -0.5542
  615MOL0     C84776  11.142   3.858   3.690 -0.4204  0.0225  0.1244
  615MOL0    Cl84777  11.250   3.735   3.615  0.4973  0.2073  0.1926
  615MOL0     C84778  11.181   4.510   4.220  0.2335  1.5019  0.0010
  615MOL0     C84779  11.242   4.634   4.209 -0.1033  0.1950  0.4652
  615MOL0     O84780  11.374   4.878   4.280 -0.1209 -1.0127 -0.2108
  615MOL0     C84781  11.452   5.120   4.197 -1.0738  0.3357  0.6514
  615MOL0     C84782  11.532   5.228   4.163 -0.6904  0.2598 -0.0022
  615MOL0     N84783  11.650   5.637   3.387  0.1433  1.1681 -0.3539
  615MOL0     N84784  11.640   5.740   3.312 -0.3590  0.4071  0.1895
  615MOL0     C84785  11.280   5.492   2.349 -0.3579 -0.0111 -0.7562
  615MOL0     C84786  11.226   5.362   2.365  0.1830 -0.3584 -0.0042
  615MOL0     C84787  10.946   5.022   2.417  0.7590  0.3878 -1.5193
  615MOL0     C84788  11.005   4.980   2.537 -0.2459 -0.1798  0.0176
  615MOL0     C84789  10.982   4.851   2.585  0.5517  0.2408 -0.7106
  615MOL0     C84790  10.880   4.770   2.529 -0.9808 -0.6580 -0.5342
  615MOL0     O84791  10.850   4.638   2.567 -0.0317 -0.2010 -0.4622
  615MOL0     C84792  10.958   4.570   2.642 -0.8914  0.3503 -0.1440
  615MOL0     C84793  10.944   4.419   2.631  0.5077  0.1283  0.6847
  615MOL0     C84794  10.803   4.364   2.671  0.0135 -0.1816  0.2406
  615MOL0     C84795  10.797   4.212   2.643 -0.2623  0.3531  0.8860
  615MOL0     C84796  10.896   4.144   2.725  0.6231 -0.4117 -0.5091
  615MOL0     C84797  10.973   4.108   2.814 -0.4906 -0.1922  1.2063
  615MOL0     C84798  10.823   4.823   2.410 -0.0512  0.5129 -0.0816
  615MOL0     C84799  10.856   4.936   2.344 -0.0556 -0.4348  0.0885
  615MOL0     C84800  10.767   4.983   2.233 -0.5657 -0.6504  0.4137
  615MOL0     H84801  10.919   5.436   2.500 -0.4803 -2.3672 -0.0045
  615MOL0     H84802  11.023   5.667   2.473  0.0420 -0.5632 -0.0925
  615MOL0     H84803  11.444   5.745   2.338  1.6648  1.1829  0.4636
  615MOL0     H84804  11.422   5.664   2.500  1.3961 -0.2201 -1.2709
  615MOL0     H84805  11.498   5.930   2.490  0.7808 -1.7011 -2.7874
  615MOL0     H84806  11.328   5.945   2.442  2.0921  0.5390 -0.4932
  615MOL0     H84807  11.286   5.991   2.639  0.3567 -0.3304  1.4849
  615MOL0     H84808  11.251   5.828   2.644 -0.6244  1.3403 -1.3623
  615MOL0     H84809  11.478   5.767   2.759  1.4824  0.1587 -0.7553
  615MOL0     H84810  11.511   5.939   2.747  1.0080 -2.3406 -0.1104
  615MOL0     H84811  11.266   5.810   2.888 -0.5370  0.5038 -0.7114
  615MOL0     H84812  11.283   5.977   2.882 -1.1285 -0.4030  1.0869
  615MOL0     H84813  11.473   5.772   3.041 -0.1502  0.7608  3.8193
  615MOL0     H84814  11.532   5.926   2.978 -0.3457 -2.0979 -3.1384
  615MOL0     H84815  11.291   5.886   3.170  1.1367 -2.1139  0.8157
  615MOL0     H84816  11.367   6.041   3.131 -0.0652 -0.2546 -2.6840
  615MOL0     H84817  11.581   5.975   3.223 -2.2848  2.6438 -1.6587
  615MOL0     H84818  11.452   5.979   3.332 -1.6807  1.3436 -0.1189
  615MOL0     H84819  11.329   5.713   3.399 -0.1347  2.6259 -2.8746
  615MOL0     H84820  11.445   5.416   3.474 -2.1779  0.0321  0.3517
  615MOL0     H84821  11.376   5.534   3.587 -0.4286  1.1255 -2.5013
  615MOL0     H84822  11.658   5.394   3.615  0.7073 -0.6317 -0.2842
  615MOL0     H84823  11.646   5.563   3.660  0.1728  1.5876 -2.7132
  615MOL0     H84824  11.470   5.503   3.827  0.2801 -0.5843  2.3770
  615MOL0     H84825  11.474   5.331   3.763  0.1333 -0.6330  0.5779
  615MOL0     H84826  11.720   5.329   3.825  0.9722 -1.0202  3.1900
  615MOL0     H84827  11.706   5.503   3.865 -0.0343  0.3107 -2.1895
  615MOL0     H84828  11.566   5.158   3.839 -2.7127 -0.1592 -0.3488
  615MOL0     H84829  11.529   4.917   3.797 -0.6261  0.4257 -0.0458
  615MOL0     H84830  11.362   4.912   3.838  0.2450  0.3710 -0.9802
  615MOL0     H84831  11.471   4.817   3.933 -0.6133 -0.4449 -0.2340
  615MOL0     H84832  11.006   4.791   4.022  3.5674  1.7934 -0.9068
  615MOL0     H84833  10.878   4.576   4.059 -0.7718  1.6932 -0.4126
  615MOL0     H84834  10.798   4.274   4.267 -3.5576  3.2877  2.5534
  615MOL0     H84835  10.782   4.441   4.221  0.4846  0.9374 -0.1002
  615MOL0     H84836  10.712   4.252   4.062  1.3079 -3.0541 -0.6914
  615MOL0     H84837  10.809   4.377   3.981 -0.7334  1.9944  2.2901
  615MOL0     H84838  10.884   4.093   4.008  0.1995  0.0412 -0.0647
  615MOL0     H84839  11.013   4.199   4.072  1.3405 -1.0471 -1.0832
  615MOL0     H84840  11.034   4.339   3.880 -0.7664  0.9666 -0.6634
  615MOL0     H84841  10.889   4.273   3.801 -0.5749 -0.1518  0.6775
  615MOL0     H84842  10.995   4.087   3.719 -0.4474 -2.3590  2.6157
  615MOL0     H84843  11.137   4.192   3.718 -0.5304 -1.6479 -1.2419
  615MOL0     H84844  11.050   3.978   3.920 -2.0684  2.2963 -0.9285
  615MOL0     H84845  11.197   4.080   3.945 -0.2507 -1.7774  0.2224
  615MOL0     H84846  11.264   3.877   3.878  1.8675  2.1625  0.9259
  615MOL0     H84847  11.285   3.993   3.732 -0.0940 -0.8154 -1.1281
  615MOL0     H84848  11.114   3.930   3.612  2.4632  3.9087  2.3218
  615MOL0     H84849  11.058   3.800   3.730  0.8104 -2.2112 -0.3791
  615MOL0     H84850  11.235   4.430   4.270  0.6727  2.2888  0.8283
  615MOL0     H84851  11.347   4.649   4.233 -0.0576  0.4943  0.0917
  615MOL0     H84852  11.427   5.109   4.302 -3.9672 -2.6423 -0.1695
  615MOL0     H84853  11.562   5.305   4.234 -2.5553 -0.1588  1.3345
  615MOL0     H84854  11.380   5.503   2.308 -0.6178  2.0866 -0.8994
  615MOL0     H84855  11.282   5.282   2.319  1.4933  1.7799 -2.3266
  615MOL0     H84856  11.073   5.044   2.593 -2.3591 -0.3587  2.9990
  615MOL0     H84857  11.034   4.804   2.668 -1.9924 -3.6291 -1.0199
  615MOL0     H84858  11.056   4.602   2.608 -1.5132  1.7096 -0.7150
  615MOL0     H84859  10.955   4.587   2.750  2.1910  0.8631 -0.0553
  615MOL0     H84860  11.015   4.389   2.708 -0.0530  0.8088  1.4838
  615MOL0     H84861  10.974   4.397   2.528 -2.2430  1.7122 -0.5689
  615MOL0     H84862  10.784   4.379   2.778 -2.6737  3.0537 -0.5039
  615MOL0     H84863  10.715   4.402   2.618  2.7583  0.5164 -4.3588
  615MOL0     H84864  10.803   4.192   2.536 -0.5569  0.4797  0.8419
  615MOL0     H84865  10.706   4.160   2.674  0.2177 -0.4663  0.9296
  615MOL0     H84866  11.046   4.080   2.887  0.7364  2.0535  0.9535
  615MOL0     H84867  10.745   4.757   2.374 -0.5884  1.6721 -1.1295
  615MOL0     H84868  10.669   4.936   2.240 -1.0352  0.5242  3.1219
  615MOL0     H84869  10.755   5.091   2.245 -1.7613 -1.0113  3.5701
  615MOL0     H84870  10.822   4.962   2.141  0.8414  0.7885  0.8862
  616MOL0     O84871   5.422   3.295  10.347 -0.6262  0.3650  0.5362
  616MOL0     C84872   5.385   3.390  10.416 -0.4852  0.7908 -0.7845
  616MOL0     O84873   5.429   3.516  10.403 -0.2458  0.2952  0.4389
  616MOL0     C84874   5.553   3.531  10.338 -0.7473 -0.4699 -0.6427
  616MOL0     C84875   5.666   3.446  10.385  0.2457  0.0342  0.4342
  616MOL0     C84876   5.787   3.450  10.308 -0.4443 -0.0623  0.5185
  616MOL0     C84877   5.798   3.544  10.201 -1.4109  0.2396  0.6615
  616MOL0     O84878   5.920   3.558  10.134  0.7488 -0.2775  0.3029
  616MOL0     C84879   5.992   3.441  10.099  0.2237  0.7058  0.5439
  616MOL0     C84880   6.110   3.470  10.001 -0.0516 -0.3491  0.0066
  616MOL0     C84881   6.198   3.361   9.946  0.3416 -0.0371 -0.0737
  616MOL0     C84882   6.295   3.425   9.843 -0.8492  0.6285  0.0480
  616MOL0     C84883   6.410   3.330   9.811  0.2429  0.6315  0.1976
  616MOL0     C84884   6.359   3.206   9.748 -0.3584 -0.3200 -1.1109
  616MOL0     C84885   6.478   3.107   9.704 -0.2272 -0.2382 -0.8100
  616MOL0     C84886   6.420   2.985   9.645 -0.0639  0.0276 -0.0720
  616MOL0     N84887   6.518   2.874   9.637  0.3998 -0.0541  0.1360
  616MOL0     C84888   6.616   2.854   9.544  0.1246 -0.3299  0.0948
  616MOL0     C84889   6.683   2.742   9.587 -0.0579  1.4242 -0.2670
  616MOL0     C84890   6.808   2.683   9.514  0.0648 -0.6403 -0.4898
  616MOL0     C84891   6.878   2.562   9.580  0.1848 -0.7957  0.3293
  616MOL0     C84892   6.993   2.516   9.485 -0.1546 -0.5521 -0.1451
  616MOL0     C84893   7.059   2.395   9.535 -0.1342 -0.1228 -0.0664
  616MOL0     O84894   7.139   2.316   9.445 -0.1189  0.9933 -0.1751
  616MOL0     C84895   7.198   2.198   9.485 -0.2896  0.6046 -0.1158
  616MOL0     C84896   7.335   2.207   9.512  0.1840  0.2330  0.0682
  616MOL0     C84897   7.404   2.097   9.540  0.8314  0.9821  0.4244
  616MOL0     C84898   7.540   2.102   9.602 -0.0747 -0.3323  0.1362
  616MOL0     C84899   7.346   1.971   9.525  0.6908 -1.2576 -0.0257
  616MOL0     C84900   7.421   1.851   9.518 -0.3957  0.3452 -0.2447
  616MOL0     O84901   7.360   1.746   9.582  0.0295  0.3662  0.0820
  616MOL0     C84902   7.438   1.647   9.644 -0.2743 -0.2945 -0.2236
  616MOL0     C84903   7.378   1.519   9.658  0.2840  0.5539 -0.5816
  616MOL0     C84904   7.447   1.419   9.727  0.6022 -1.6332  0.9885
  616MOL0     C84905   7.583   1.432   9.758  0.6591  0.2572 -0.0669
  616MOL0     O84906   7.639   1.315   9.795  0.2341  0.2869  0.0499
  616MOL0     C84907   7.778   1.299   9.784  0.6461  0.8116  0.5405
  616MOL0     C84908   7.813   1.181   9.873 -0.5400 -0.5080  0.7440
  616MOL0     C84909   7.761   1.045   9.826 -0.4569 -0.5924 -0.7632
  616MOL0     C84910   7.790   0.942   9.936 -0.2157 -0.4409  0.1726
  616MOL0     C84911   7.720   0.811   9.903  0.0054 -0.0149 -0.0428
  616MOL0     C84912   7.750   0.702  10.004 -0.0969 -0.3033 -0.7245
  616MOL0     C84913   7.688   0.570   9.966  0.3878 -0.1819  0.1471
  616MOL0     C84914   7.649   0.476  10.079 -0.1398 -0.1392 -0.4858
  616MOL0    Cl84915   7.532   0.531  10.200  0.0993  0.4265 -0.0817
  616MOL0     C84916   7.643   1.558   9.739  1.2157  0.4414 -0.7498
  616MOL0     C84917   7.565   1.665   9.692 -0.4906 -0.9400  0.8352
  616MOL0     O84918   7.524   1.848   9.448 -0.0344  0.3468 -0.5476
  616MOL0     C84919   7.209   1.958   9.503 -0.3486 -0.3447  0.4484
  616MOL0     C84920   7.132   2.076   9.482  0.0848  0.4425  0.6942
  616MOL0     N84921   6.605   2.679   9.685  0.5163 -1.1169  0.5183
  616MOL0     N84922   6.513   2.772   9.722 -0.1220  0.4687  0.5916
  616MOL0     C84923   5.689   3.631  10.164  0.5561  0.6977 -0.9410
  616MOL0     C84924   5.563   3.629  10.235 -0.4555  0.5641 -0.1313
  616MOL0     C84925   5.309   3.363  10.537 -0.5055  0.6309  0.1566
  616MOL0     C84926   5.340   3.427  10.662 -0.1717 -0.2704 -0.4395
  616MOL0     C84927   5.272   3.393  10.779  0.1562 -0.0223  0.2481
  616MOL0     C84928   5.188   3.285  10.781  0.1992 -0.5432  0.2084
  616MOL0     O84929   5.117   3.259  10.898  0.1586  0.3902 -0.2591
  616MOL0     C84930   5.044   3.142  10.913 -0.7238  0.2628 -0.0518
  616MOL0     C84931   5.114   3.008  10.917  0.1603 -0.7144  0.8854
  616MOL0     C84932   5.233   2.998  11.012 -0.4102  0.9096  0.0510
  616MOL0     C84933   5.196   2.994  11.156  0.2001  0.0774  0.4949
  616MOL0     C84934   5.317   2.974  11.238 -0.5354 -0.0481  0.4424
  616MOL0     C84935   5.428   2.965  11.298  0.6927 -0.0328 -0.1082
  616MOL0     C84936   5.165   3.220  10.660  1.2630 -0.5002 -0.8399
  616MOL0     C84937   5.219   3.253  10.539  0.6964 -0.0237  0.4573
  616MOL0     C84938   5.176   3.166  10.416  1.6971 -0.3765  0.5279
  616MOL0     H84939   5.648   3.392  10.477  1.0185 -0.6355  0.2052
  616MOL0     H84940   5.877   3.394  10.331 -0.9660 -1.7242 -1.1553
  616MOL0     H84941   5.932   3.359  10.057  0.6562  0.5384  0.2386
  616MOL0     H84942   6.039   3.405  10.191  1.2481 -0.9576 -0.5759
  616MOL0     H84943   6.055   3.515   9.917  0.1517  1.0274  0.5756
  616MOL0     H84944   6.169   3.539  10.062  0.4436 -0.6329 -0.1496
  616MOL0     H84945   6.258   3.322  10.028 -0.8393 -0.8840  0.4242
  616MOL0     H84946   6.135   3.283   9.901  0.2895  0.0283 -0.1150
  616MOL0     H84947   6.239   3.465   9.759 -2.1394  0.4994  0.8214
  616MOL0     H84948   6.339   3.510   9.896  2.2709 -0.4563 -0.5705
  616MOL0     H84949   6.457   3.296   9.904  1.7874  0.1831 -0.7030
  616MOL0     H84950   6.492   3.385   9.763  0.7407  2.0786  2.5046
  616MOL0     H84951   6.282   3.159   9.810  0.2820  3.5997  3.2440
  616MOL0     H84952   6.317   3.236   9.651  3.1817  1.9100 -2.1420
  616MOL0     H84953   6.534   3.079   9.793  0.9640 -1.2269 -1.8291
  616MOL0     H84954   6.553   3.139   9.631 -0.1461  0.0411 -0.6048
  616MOL0     H84955   6.332   2.962   9.705 -0.3188  0.1228 -0.4076
  616MOL0     H84956   6.391   3.014   9.543 -0.3600  1.5968  0.4251
  616MOL0     H84957   6.644   2.912   9.457 -0.5085  1.2425  0.8825
  616MOL0     H84958   6.889   2.757   9.506  0.6746 -0.6735  3.1995
  616MOL0     H84959   6.782   2.655   9.412  1.4490 -2.4265 -0.4099
  616MOL0     H84960   6.925   2.588   9.675  0.8823  2.8634 -0.8862
  616MOL0     H84961   6.803   2.485   9.599 -3.2042  2.2219  0.1156
  616MOL0     H84962   6.949   2.499   9.386  1.5148  0.0974 -1.0350
  616MOL0     H84963   7.066   2.598   9.478 -1.3971  0.9179  2.6271
  616MOL0     H84964   7.128   2.424   9.615  0.6786 -1.5430 -0.2248
  616MOL0     H84965   6.989   2.320   9.573  0.1299 -0.0409  0.6068
  616MOL0     H84966   7.378   2.307   9.517 -0.7321  0.6358  0.1463
  616MOL0     H84967   7.578   2.193   9.648 -0.2349 -1.2598  2.1965
  616MOL0     H84968   7.618   2.066   9.533  0.0121 -4.5902  2.1149
  616MOL0     H84969   7.532   2.026   9.680  3.2861 -0.9772  0.0320
  616MOL0     H84970   7.275   1.514   9.626  0.8123 -2.0691 -2.1714
  616MOL0     H84971   7.388   1.329   9.728 -1.6215 -0.3578 -1.6701
  616MOL0     H84972   7.798   1.267   9.681 -1.7775 -3.0492  1.0354
  616MOL0     H84973   7.822   1.394   9.814  0.4071  1.5275 -1.2264
  616MOL0     H84974   7.922   1.182   9.882 -0.5332 -1.1017  0.7195
  616MOL0     H84975   7.774   1.201   9.973  0.4498  0.4875  0.9597
  616MOL0     H84976   7.792   1.013   9.726 -2.6954  1.6759 -2.3212
  616MOL0     H84977   7.651   1.047   9.821 -0.5210  1.1144  0.3304
  616MOL0     H84978   7.748   0.978  10.030 -2.2715 -0.9644 -0.4936
  616MOL0     H84979   7.899   0.936   9.945  0.0920  2.1239 -0.9322
  616MOL0     H84980   7.615   0.836   9.893  0.2415  1.9149  1.6474
  616MOL0     H84981   7.752   0.769   9.807 -2.3452 -1.1180 -0.3990
  616MOL0     H84982   7.716   0.735  10.103  0.2137  1.9160 -1.3208
  616MOL0     H84983   7.859   0.700  10.005 -0.0988 -2.2659 -0.0891
  616MOL0     H84984   7.763   0.514   9.911 -2.3038 -2.2036 -1.7612
  616MOL0     H84985   7.599   0.594   9.906  0.0861 -1.0456  0.2322
  616MOL0     H84986   7.743   0.462  10.133 -1.5993  1.3553  2.6744
  616MOL0     H84987   7.617   0.383  10.031  0.6987 -1.5252  1.4958
  616MOL0     H84988   7.749   1.573   9.756  1.4637 -1.0436 -0.8965
  616MOL0     H84989   7.609   1.764   9.683 -0.4877 -0.8864  1.4011
  616MOL0     H84990   7.159   1.862   9.494 -0.0387 -0.3140 -2.5255
  616MOL0     H84991   7.028   2.058   9.456  0.8755 -1.0436 -1.8813
  616MOL0     H84992   5.707   3.698  10.081 -1.1051  1.3222 -0.8349
  616MOL0     H84993   5.488   3.707  10.222 -0.7455  0.4717  0.8799
  616MOL0     H84994   5.419   3.501  10.664 -1.0630  0.9218 -3.3593
  616MOL0     H84995   5.291   3.455  10.866 -1.8660 -1.1133  1.5641
  616MOL0     H84996   4.987   3.145  11.006  1.4161 -0.0120  1.3204
  616MOL0     H84997   4.970   3.137  10.832  0.1482 -1.8428 -0.8018
  616MOL0     H84998   5.144   2.988  10.814  0.4200  1.2519  0.5464
  616MOL0     H84999   5.033   2.939  10.943 -0.8245  0.3908  0.8261
  616MOL0     H85000   5.285   2.903  10.993  1.8820  1.4986  2.7104
  616MOL0     H85001   5.312   3.071  10.990  0.1707  0.7465  1.4766
  616MOL0     H85002   5.125   2.915  11.179 -1.2575  1.1466 -0.1823
  616MOL0     H85003   5.145   3.086  11.187 -0.3296  0.0428 -0.2550
  616MOL0     H85004   5.528   2.953  11.335 -0.0146  1.3611  2.4709
  616MOL0     H85005   5.117   3.122  10.654  0.5445 -0.4998  2.6979
  616MOL0     H85006   5.246   3.083  10.401  0.3211 -1.2684 -1.2556
  616MOL0     H85007   5.072   3.133  10.413  1.8192 -0.7339 -1.3812
  616MOL0     H85008   5.165   3.225  10.325 -1.6288 -0.2700  0.9057
  617MOL0     O85009   9.136   2.219   1.097  0.5063 -0.1577  1.3134
  617MOL0     C85010   9.036   2.145   1.103  0.2873 -0.2884 -0.4219
  617MOL0     O85011   8.974   2.076   1.004 -0.5781  0.9231  0.2184
  617MOL0     C85012   9.032   2.076   0.878 -1.2430  0.1320  0.1990
  617MOL0     C85013   9.129   1.975   0.853 -0.6852 -0.5789  0.1095
  617MOL0     C85014   9.167   1.943   0.724  1.0109 -0.4922 -0.3596
  617MOL0     C85015   9.109   2.008   0.619  0.7035 -0.0372  0.3052
  617MOL0     O85016   9.142   1.960   0.496 -0.0877  0.5264 -0.7152
  617MOL0     C85017   9.091   2.022   0.381  0.0696 -0.0100  0.2863
  617MOL0     C85018   9.110   1.927   0.258  1.3962  0.3101 -0.0712
  617MOL0     C85019   9.255   1.873   0.215  0.9832 -0.6980  0.1454
  617MOL0     C85020   9.257   1.881   0.068 -0.6363 -0.6620 -0.7299
  617MOL0     C85021   9.382   1.811   0.003 -0.4048  0.0365  0.7499
  617MOL0     C85022   9.399   1.845  -0.144  0.6067  0.6539  1.2752
  617MOL0     C85023   9.543   1.823  -0.202 -0.3815 -0.2609  0.1853
  617MOL0     C85024   9.603   1.682  -0.194 -0.1195  0.1677 -0.1522
  617MOL0     N85025   9.510   1.572  -0.241  0.7235  0.0388  0.2550
  617MOL0     C85026   9.493   1.461  -0.166  0.2894  0.4981  0.1929
  617MOL0     C85027   9.372   1.408  -0.188  1.5890  0.5015 -0.0304
  617MOL0     C85028   9.324   1.284  -0.124 -0.5438  0.1140 -0.2138
  617MOL0     C85029   9.358   1.174  -0.211 -0.0866  0.7788  1.1128
  617MOL0     C85030   9.291   1.044  -0.160 -0.2223  0.1267 -0.1262
  617MOL0     C85031   9.241   0.952  -0.278 -0.9221  0.2827 -0.8008
  617MOL0     O85032   9.344   0.864  -0.331 -1.2138 -0.0877 -0.6290
  617MOL0     C85033   9.314   0.775  -0.431 -0.2279 -0.4061 -0.5437
  617MOL0     C85034   9.390   0.655  -0.425  0.4875  0.0689 -0.6350
  617MOL0     C85035   9.374   0.553  -0.522  0.1995 -0.9174  0.6363
  617MOL0     C85036   9.418   0.416  -0.489  1.2667  0.6924 -0.4927
  617MOL0     C85037   9.276   0.571  -0.627 -0.7316 -0.3750  0.6747
  617MOL0     C85038   9.250   0.476  -0.736 -1.1672  0.9594  0.1985
  617MOL0     O85039   9.120   0.470  -0.792  0.0619 -1.0236 -0.2308
  617MOL0     C85040   9.091   0.416  -0.910  0.0145  0.0880 -0.0354
  617MOL0     C85041   8.961   0.362  -0.930  0.1638 -0.1204  0.6332
  617MOL0     C85042   8.922   0.300  -1.045  0.4140  0.7953 -0.1815
  617MOL0     C85043   9.006   0.281  -1.151 -0.5728  0.3042  0.3470
  617MOL0     O85044   8.957   0.209  -1.262 -0.6001 -0.0702 -0.0667
  617MOL0     C85045   9.032   0.166  -1.375 -0.0007 -0.2215  1.0765
  617MOL0     C85046   8.960   0.183  -1.504 -0.0838 -0.7776  0.1697
  617MOL0     C85047   8.959   0.056  -1.591 -0.9320 -0.2559  0.6314
  617MOL0     C85048   9.088   0.034  -1.668  0.6454  0.7463 -0.0314
  617MOL0     C85049   9.049  -0.075  -1.771  0.1222  0.6153  0.0691
  617MOL0     C85050   9.054  -0.213  -1.708  0.2464 -0.1340  0.3107
  617MOL0     C85051   9.040  -0.339  -1.789  0.0343 -0.5927  0.3066
  617MOL0     C85052   8.894  -0.396  -1.781 -0.0230  0.8468  0.3404
  617MOL0    Cl85053   8.774  -0.267  -1.825 -0.2049  0.1099  0.3505
  617MOL0     C85054   9.134   0.330  -1.136  0.0007  0.1441 -0.5164
  617MOL0     C85055   9.179   0.398  -1.018  1.2083  0.4862  0.2583
  617MOL0     O85056   9.349   0.420  -0.779 -0.5569 -0.2343 -0.6223
  617MOL0     C85057   9.204   0.690  -0.633 -0.6880 -0.4419 -0.0279
  617MOL0     C85058   9.217   0.787  -0.533 -0.3077  0.2313 -0.8340
  617MOL0     N85059   9.322   1.473  -0.296  0.1995  0.1303  0.3162
  617MOL0     N85060   9.401   1.577  -0.328 -0.2552 -0.3574 -1.0306
  617MOL0     C85061   8.993   2.094   0.644  0.6726 -0.0381 -0.2878
  617MOL0     C85062   8.960   2.135   0.772  0.2337 -0.6710 -0.1369
  617MOL0     C85063   8.971   2.134   1.242  0.0859 -0.6248  0.5562
  617MOL0     C85064   8.839   2.084   1.248  0.2703 -1.1092 -0.4364
  617MOL0     C85065   8.770   2.065   1.369  0.3708  1.0965 -0.6485
  617MOL0     C85066   8.832   2.103   1.484  0.0738 -0.7737 -0.1453
  617MOL0     O85067   8.778   2.080   1.604 -0.4141  0.6391 -0.5401
  617MOL0     C85068   8.700   2.193   1.640  0.2272  0.0652 -0.5641
  617MOL0     C85069   8.685   2.204   1.786 -0.1372  0.2140 -0.4813
  617MOL0     C85070   8.609   2.085   1.849 -0.7289  0.1172  0.1067
  617MOL0     C85071   8.500   2.138   1.948 -0.0588 -0.1142 -0.8943
  617MOL0     C85072   8.438   2.033   2.035  0.7379 -0.4833  0.0021
  617MOL0     C85073   8.399   1.935   2.102 -0.5390 -0.0952  0.6684
  617MOL0     C85074   8.960   2.150   1.484  0.1481  0.3300  0.1195
  617MOL0     C85075   9.036   2.167   1.364  0.0155 -0.1034  0.8293
  617MOL0     C85076   9.179   2.186   1.377 -0.4048  0.7182 -0.4730
  617MOL0     H85077   9.187   1.929   0.933  0.1024 -1.1428 -0.7684
  617MOL0     H85078   9.248   1.872   0.716  2.0984  0.6444  0.2997
  617MOL0     H85079   9.152   2.111   0.364  3.1419 -2.5687 -4.2770
  617MOL0     H85080   8.983   2.038   0.390 -0.4271 -2.0998 -1.2828
  617MOL0     H85081   9.044   1.840   0.270  0.0955  1.3591  0.7028
  617MOL0     H85082   9.056   1.976   0.177 -2.6430 -0.8346  1.6697
  617MOL0     H85083   9.321   1.951   0.256 -1.0427  1.1184  0.1272
  617MOL0     H85084   9.276   1.769   0.241 -0.7161 -1.0462  0.1868
  617MOL0     H85085   9.167   1.842   0.020 -0.8237  0.2181 -1.1098
  617MOL0     H85086   9.252   1.988   0.047 -1.2990  0.3601  3.6677
  617MOL0     H85087   9.367   1.703   0.012  2.6111 -0.6659 -1.2490
  617MOL0     H85088   9.477   1.823   0.056  1.3887 -2.6256 -1.5737
  617MOL0     H85089   9.327   1.798  -0.211 -0.5482  3.3783  0.4763
  617MOL0     H85090   9.385   1.953  -0.151  0.9561  0.6231 -0.4037
  617MOL0     H85091   9.608   1.890  -0.146  1.4132 -2.8279  1.3207
  617MOL0     H85092   9.543   1.850  -0.308 -1.1796  1.3600  0.5614
  617MOL0     H85093   9.689   1.667  -0.261 -0.4529 -4.8365  0.1659
  617MOL0     H85094   9.636   1.653  -0.094  3.5144 -0.2913 -1.3033
  617MOL0     H85095   9.557   1.426  -0.086  0.8795  2.9675  0.9025
  617MOL0     H85096   9.216   1.282  -0.107 -0.3459  0.3737  1.1414
  617MOL0     H85097   9.373   1.275  -0.026  1.1993  4.4439 -0.4891
  617MOL0     H85098   9.319   1.204  -0.309 -0.2777 -1.6939  0.3440
  617MOL0     H85099   9.467   1.161  -0.211 -0.0274  1.0468  2.8583
  617MOL0     H85100   9.371   1.001  -0.098 -0.2001  1.0963  0.5392
  617MOL0     H85101   9.211   1.075  -0.092 -0.0120  1.7362 -0.5795
  617MOL0     H85102   9.163   0.890  -0.234  2.5229 -2.8945  1.4814
  617MOL0     H85103   9.198   1.019  -0.353 -1.3167 -0.3795 -1.1728
  617MOL0     H85104   9.462   0.628  -0.348 -1.8980 -0.9377  1.3854
  617MOL0     H85105   9.464   0.406  -0.391  0.1724  0.0390 -0.0282
  617MOL0     H85106   9.497   0.392  -0.561  2.0402 -0.1763  0.6098
  617MOL0     H85107   9.339   0.343  -0.511  2.4916 -0.5500 -0.9726
  617MOL0     H85108   8.890   0.366  -0.848 -3.2272 -1.0870 -2.0421
  617MOL0     H85109   8.816   0.277  -1.057  0.9392 -0.5569 -3.3732
  617MOL0     H85110   9.118   0.233  -1.382 -2.0924  2.4140 -1.5026
  617MOL0     H85111   9.070   0.066  -1.350 -0.4180 -0.2759  1.5001
  617MOL0     H85112   8.860   0.215  -1.473  0.1257  0.5336 -0.4217
  617MOL0     H85113   8.994   0.269  -1.563 -2.6704  0.3544  0.1969
  617MOL0     H85114   8.875   0.066  -1.660 -0.0068 -1.5863 -0.7566
  617MOL0     H85115   8.927  -0.033  -1.536 -4.4030  0.3253 -0.1940
  617MOL0     H85116   9.170   0.001  -1.603  2.1323  2.9144 -0.7110
  617MOL0     H85117   9.125   0.129  -1.707 -1.8806  1.4752 -0.8689
  617MOL0     H85118   8.947  -0.059  -1.807  0.5069  2.0209 -0.4500
  617MOL0     H85119   9.122  -0.060  -1.850 -2.6030  1.6184 -2.4425
  617MOL0     H85120   8.979  -0.213  -1.629  1.8302 -0.3145  1.8849
  617MOL0     H85121   9.151  -0.220  -1.658 -1.8374 -0.9632  4.7349
  617MOL0     H85122   9.107  -0.417  -1.750  0.2287 -0.4420  0.2746
  617MOL0     H85123   9.061  -0.326  -1.895 -1.8998  0.1980 -0.0148
  617MOL0     H85124   8.875  -0.434  -1.680 -1.7493  0.1245 -0.2104
  617MOL0     H85125   8.868  -0.484  -1.841 -4.7161  1.7529  0.6716
  617MOL0     H85126   9.211   0.313  -1.211  1.1313 -2.2553  1.0388
  617MOL0     H85127   9.281   0.432  -1.003  1.1252  0.2791  1.4136
  617MOL0     H85128   9.145   0.707  -0.722 -0.0637  0.1432 -0.3418
  617MOL0     H85129   9.174   0.886  -0.543  0.4698  0.7052  0.3272
  617MOL0     H85130   8.916   2.117   0.570  0.3613 -0.9446 -0.2582
  617MOL0     H85131   8.864   2.179   0.796 -0.7048 -1.8750 -1.4860
  617MOL0     H85132   8.772   2.053   1.168 -2.2870  2.6692 -0.0162
  617MOL0     H85133   8.666   2.032   1.364  0.3421  1.3982 -3.9900
  617MOL0     H85134   8.745   2.290   1.617  1.0167  0.7275  3.2176
  617MOL0     H85135   8.597   2.183   1.603 -0.0500 -0.3901  0.2893
  617MOL0     H85136   8.639   2.298   1.817  2.8174  1.4363  0.5780
  617MOL0     H85137   8.777   2.201   1.844 -1.0527 -3.6710  1.1191
  617MOL0     H85138   8.576   2.024   1.765  0.2632  1.5598 -1.3845
  617MOL0     H85139   8.681   2.016   1.893  0.1034  0.6426 -0.3928
  617MOL0     H85140   8.413   2.192   1.911 -1.7119 -2.6071 -0.8733
  617MOL0     H85141   8.547   2.204   2.021  1.2044 -1.4849 -0.4308
  617MOL0     H85142   8.349   1.867   2.167  1.4028  0.2196  2.5844
  617MOL0     H85143   9.012   2.164   1.578  1.6501  0.0216 -0.6384
  617MOL0     H85144   9.208   2.289   1.355  0.9193  0.7647  1.2268
  617MOL0     H85145   9.193   2.173   1.485 -5.1187  2.0406  0.5442
  617MOL0     H85146   9.247   2.127   1.314  1.8971  2.9689 -0.2697
  618MOL0     O85147   7.056   4.762   9.508 -0.4914 -0.0413 -0.8618
  618MOL0     C85148   7.126   4.727   9.417 -0.0335 -0.5014  0.2678
  618MOL0     O85149   7.113   4.607   9.352  0.2791  0.0135  0.4273
  618MOL0     C85150   6.987   4.544   9.348 -0.2228 -0.3331  0.2506
  618MOL0     C85151   6.857   4.601   9.376 -0.6130 -0.3718 -0.2417
  618MOL0     C85152   6.740   4.527   9.353 -0.7157 -0.7188 -0.1883
  618MOL0     C85153   6.753   4.404   9.304  0.2765  1.1115  0.2492
  618MOL0     O85154   6.636   4.332   9.279 -0.2558 -0.4762  0.0969
  618MOL0     C85155   6.625   4.255   9.160  0.4266  0.1437 -0.1251
  618MOL0     C85156   6.611   4.112   9.201  0.1112  0.2093  0.0003
  618MOL0     C85157   6.551   4.030   9.078 -1.3591 -0.5719 -0.3060
  618MOL0     C85158   6.539   3.886   9.108  0.3393 -0.0574  0.4627
  618MOL0     C85159   6.633   3.803   9.016  0.3519 -0.1704  0.0752
  618MOL0     C85160   6.630   3.657   9.076  0.3193 -1.1838  0.5731
  618MOL0     C85161   6.722   3.560   8.982 -0.4127 -0.2661 -0.4739
  618MOL0     C85162   6.773   3.432   9.046 -1.0937  0.1036 -0.4377
  618MOL0     N85163   6.882   3.469   9.145 -0.4512  0.7946  0.7463
  618MOL0     C85164   7.016   3.482   9.129 -0.2231  0.5674  0.1819
  618MOL0     C85165   7.073   3.479   9.251 -0.6652 -0.5869 -0.7257
  618MOL0     C85166   7.215   3.479   9.280 -0.2395 -0.3796 -0.4332
  618MOL0     C85167   7.252   3.399   9.415 -0.8719 -0.4996  0.0892
  618MOL0     C85168   7.404   3.404   9.434 -0.9221  0.0842 -0.0979
  618MOL0     C85169   7.440   3.300   9.541  0.1212  0.2205  0.4023
  618MOL0     O85170   7.585   3.290   9.536 -0.3178  0.2137 -0.4730
  618MOL0     C85171   7.645   3.216   9.636 -0.6422 -0.3210  0.2788
  618MOL0     C85172   7.581   3.146   9.742 -0.5150 -0.3706 -0.5273
  618MOL0     C85173   7.651   3.082   9.847 -0.7408  0.6196  0.1852
  618MOL0     C85174   7.578   3.031   9.969  0.9944  0.5858  0.3781
  618MOL0     C85175   7.795   3.089   9.831  1.3201 -0.6997 -1.3023
  618MOL0     C85176   7.891   3.034   9.926 -0.7109 -1.0235  0.5586
  618MOL0     O85177   8.013   3.098   9.923  0.3114 -0.0573  0.0778
  618MOL0     C85178   8.096   3.117  10.035  0.3180  0.1445  0.3511
  618MOL0     C85179   8.117   3.019  10.136  0.4356 -0.1181 -0.6904
  618MOL0     C85180   8.207   3.035  10.240  0.6249 -0.0982 -0.8327
  618MOL0     C85181   8.290   3.149  10.245 -1.0767  0.3697 -0.7938
  618MOL0     O85182   8.379   3.173  10.344 -0.6239  0.4795 -0.1845
  618MOL0     C85183   8.443   3.055  10.399  1.3786 -0.2477  0.6128
  618MOL0     C85184   8.577   3.085  10.468 -0.1634 -0.2129  0.6297
  618MOL0     C85185   8.559   3.158  10.601 -0.2892 -0.2533  0.0107
  618MOL0     C85186   8.699   3.202  10.645 -0.0578 -0.4633 -0.2090
  618MOL0     C85187   8.682   3.294  10.766 -0.8155  0.5718  0.1491
  618MOL0     C85188   8.680   3.219  10.901 -0.7907 -0.1535  0.0375
  618MOL0     C85189   8.805   3.139  10.952  0.8924 -0.5800 -0.3992
  618MOL0     C85190   8.795   3.091  11.102  0.1556  0.3222 -0.9412
  618MOL0    Cl85191   8.669   2.967  11.136 -0.5385  0.3841  0.1095
  618MOL0     C85192   8.272   3.249  10.152  0.1416  1.3851 -0.3432
  618MOL0     C85193   8.177   3.233  10.050 -0.5972 -0.8044  0.0770
  618MOL0     O85194   7.853   2.944   9.999  0.1284  0.7828 -0.1180
  618MOL0     C85195   7.856   3.154   9.723  0.7198 -0.3064  0.4739
  618MOL0     C85196   7.780   3.208   9.622  0.6576  0.8558 -0.0837
  618MOL0     N85197   6.965   3.469   9.341 -0.4498  0.4909  0.9244
  618MOL0     N85198   6.850   3.473   9.278  0.0781  1.0341 -0.0098
  618MOL0     C85199   6.877   4.347   9.286  0.3176  0.1044 -0.4138
  618MOL0     C85200   6.994   4.416   9.297  0.1916 -0.0810 -1.0124
  618MOL0     C85201   7.255   4.801   9.389  0.6725  0.1355  0.0997
  618MOL0     C85202   7.356   4.730   9.333  0.0897 -0.5025  0.7156
  618MOL0     C85203   7.472   4.787   9.291 -0.6793  0.4344 -1.0150
  618MOL0     C85204   7.501   4.921   9.322 -0.7476 -0.3744 -0.0747
  618MOL0     O85205   7.618   4.990   9.300  0.0309 -0.5873  0.1937
  618MOL0     C85206   7.727   4.929   9.236 -0.0558 -0.2053  0.3685
  618MOL0     C85207   7.794   4.811   9.313  0.0290 -0.3958 -0.0391
  618MOL0     C85208   7.857   4.849   9.449  0.4670 -0.1762  0.0566
  618MOL0     C85209   7.939   4.980   9.441 -0.6494  0.0180 -0.3514
  618MOL0     C85210   8.029   4.984   9.327 -0.3212 -0.3681 -0.0334
  618MOL0     C85211   8.106   4.971   9.233 -0.8818 -0.2478  0.3412
  618MOL0     C85212   7.399   4.990   9.383  0.0880 -0.1657  0.5401
  618MOL0     C85213   7.279   4.929   9.431 -1.9439 -0.4105 -0.5391
  618MOL0     C85214   7.184   5.023   9.485 -0.9082 -0.1067 -0.1865
  618MOL0     H85215   6.842   4.708   9.389  1.9259  0.3706 -2.5177
  618MOL0     H85216   6.642   4.573   9.344 -1.4616 -2.2528 -0.0691
  618MOL0     H85217   6.709   4.273   9.092 -1.6003  0.9709 -2.5822
  618MOL0     H85218   6.527   4.282   9.119 -2.2583 -4.7300  2.1961
  618MOL0     H85219   6.712   4.081   9.230  0.2118 -0.0695 -0.6314
  618MOL0     H85220   6.533   4.106   9.278 -2.2916  1.2113 -2.2020
  618MOL0     H85221   6.450   4.061   9.050 -2.1546 -0.1155  2.7718
  618MOL0     H85222   6.616   4.062   8.996 -0.3056  0.3844  0.8497
  618MOL0     H85223   6.558   3.863   9.213 -3.1488 -0.6810  1.0836
  618MOL0     H85224   6.435   3.856   9.091  0.4891 -0.3843  0.0963
  618MOL0     H85225   6.732   3.848   9.019 -0.1863  1.0754  3.0655
  618MOL0     H85226   6.597   3.808   8.913  0.3541 -1.2783  0.0049
  618MOL0     H85227   6.660   3.650   9.181  0.2818  1.1016  0.7774
  618MOL0     H85228   6.527   3.620   9.074  0.1152 -0.6351  0.6485
  618MOL0     H85229   6.812   3.617   8.959 -1.5517  0.8306 -2.4344
  618MOL0     H85230   6.672   3.526   8.891 -1.3367 -3.8188  1.1574
  618MOL0     H85231   6.689   3.389   9.100  0.8652 -2.3012  0.9475
  618MOL0     H85232   6.804   3.364   8.966 -1.2855  1.8864 -2.0895
  618MOL0     H85233   7.077   3.497   9.040  1.5793  2.5324  1.6741
  618MOL0     H85234   7.227   3.585   9.304 -0.7080 -0.2814 -0.6276
  618MOL0     H85235   7.275   3.448   9.194 -1.8603  0.6432 -1.9931
  618MOL0     H85236   7.196   3.452   9.492 -1.6636  2.8610 -2.5547
  618MOL0     H85237   7.217   3.295   9.414  1.3298 -1.4890  4.0653
  618MOL0     H85238   7.441   3.372   9.336  0.1023  0.4342  0.1598
  618MOL0     H85239   7.446   3.503   9.454  1.4946 -0.5495 -1.6142
  618MOL0     H85240   7.395   3.337   9.634 -0.2210  1.0440 -0.0883
  618MOL0     H85241   7.403   3.200   9.516  0.0486  0.1717  0.7005
  618MOL0     H85242   7.474   3.162   9.753 -0.2850  1.6595 -0.8512
  618MOL0     H85243   7.479   3.076   9.955 -0.6370 -2.2783  1.7712
  618MOL0     H85244   7.624   3.065  10.062  0.5860 -1.6248  1.4694
  618MOL0     H85245   7.582   2.921   9.964  1.5443  0.5845  0.7531
  618MOL0     H85246   8.069   2.922  10.138 -6.8887  2.8722  1.9322
  618MOL0     H85247   8.224   2.956  10.312  2.4387  0.6442 -0.4011
  618MOL0     H85248   8.382   3.004  10.474  2.5565 -1.4906  0.7805
  618MOL0     H85249   8.463   2.988  10.315  2.6651 -0.7557  1.2776
  618MOL0     H85250   8.643   2.997  10.465 -1.1783 -0.9707  0.0364
  618MOL0     H85251   8.624   3.156  10.399 -0.5845  0.2310  0.7985
  618MOL0     H85252   8.526   3.088  10.678 -0.6601 -1.4300 -1.1850
  618MOL0     H85253   8.490   3.240  10.582 -0.8474 -0.9505 -1.0864
  618MOL0     H85254   8.743   3.264  10.566 -0.5315  1.9955  1.3692
  618MOL0     H85255   8.779   3.129  10.660 -0.7277 -1.2587 -0.4571
  618MOL0     H85256   8.784   3.332  10.772 -0.0848 -1.2684  0.0772
  618MOL0     H85257   8.611   3.376  10.754  1.1315  1.9576 -3.2588
  618MOL0     H85258   8.599   3.146  10.904  0.8146 -2.0688  4.0044
  618MOL0     H85259   8.643   3.298  10.967 -0.0403  4.2732 -4.3080
  618MOL0     H85260   8.899   3.193  10.945  0.6099  0.0500  0.4877
  618MOL0     H85261   8.801   3.055  10.882  0.0492 -1.0988  0.2400
  618MOL0     H85262   8.781   3.180  11.165 -1.3733 -0.6567  0.1662
  618MOL0     H85263   8.887   3.049  11.144 -1.0445 -0.3999  1.1078
  618MOL0     H85264   8.342   3.331  10.164  3.2528 -1.2810  1.4421
  618MOL0     H85265   8.190   3.302   9.967  3.5924 -2.6932 -1.0835
  618MOL0     H85266   7.961   3.150   9.698  0.7758 -0.3107  0.7009
  618MOL0     H85267   7.815   3.235   9.523  2.1652 -1.9681 -0.4278
  618MOL0     H85268   6.876   4.243   9.252  1.1265  0.6436 -2.2152
  618MOL0     H85269   7.090   4.376   9.268  0.4988  0.0016 -0.1478
  618MOL0     H85270   7.349   4.626   9.300 -1.2647 -0.8921  2.0946
  618MOL0     H85271   7.545   4.727   9.238  0.8700 -0.2092  1.6128
  618MOL0     H85272   7.701   4.889   9.137  1.0839 -0.3396  0.1182
  618MOL0     H85273   7.809   4.999   9.218  0.3534 -0.2987  1.7749
  618MOL0     H85274   7.873   4.762   9.255 -0.8192 -0.7801 -0.9005
  618MOL0     H85275   7.723   4.730   9.332 -0.8009 -0.3071 -2.4549
  618MOL0     H85276   7.780   4.866   9.524  1.9188  2.4876  1.0982
  618MOL0     H85277   7.916   4.763   9.483  1.0568 -1.0433 -2.9392
  618MOL0     H85278   8.008   4.978   9.526  1.5766 -3.6733 -1.9820
  618MOL0     H85279   7.881   5.071   9.455 -2.8225 -1.0668 -1.7445
  618MOL0     H85280   8.188   4.950   9.167  0.3492 -0.0560  1.7468
  618MOL0     H85281   7.413   5.097   9.392  3.5233 -0.3782 -0.7959
  618MOL0     H85282   7.159   5.007   9.590 -0.2974 -2.2584 -0.3067
  618MOL0     H85283   7.220   5.125   9.468 -2.0401  0.6533  1.6868
  618MOL0     H85284   7.091   5.028   9.428 -0.5461  1.1462 -0.6938
  619MOL0     O85285  10.079  10.764   3.192 -0.2497 -0.1563 -0.3363
  619MOL0     C85286  10.146  10.867   3.175  0.8759 -0.4586 -0.1209
  619MOL0     O85287  10.129  10.950   3.065 -0.3399 -0.0557  0.3518
  619MOL0     C85288  10.020  10.924   2.985 -0.9725  0.5300 -0.3765
  619MOL0     C85289   9.895  10.968   3.034 -0.1466 -0.6455  0.1560
  619MOL0     C85290   9.779  10.922   2.976 -0.5063 -0.6368  0.7191
  619MOL0     C85291   9.786  10.834   2.863 -0.3666 -0.0925  0.3430
  619MOL0     O85292   9.675  10.804   2.787 -0.2102 -0.6869 -0.0816
  619MOL0     C85293   9.550  10.768   2.842  0.1238  0.6065 -0.0765
  619MOL0     C85294   9.560  10.620   2.853  0.8732  0.2131 -0.7014
  619MOL0     C85295   9.436  10.553   2.909  0.3111  0.3284 -0.3342
  619MOL0     C85296   9.427  10.399   2.876  0.7853  0.0611  0.4414
  619MOL0     C85297   9.319  10.319   2.945  0.1510 -0.5528 -0.2083
  619MOL0     C85298   9.329  10.171   2.917  0.2761 -0.0630 -0.7329
  619MOL0     C85299   9.229  10.094   3.009 -0.2589 -0.5999 -0.0923
  619MOL0     C85300   9.196   9.945   2.979 -0.4547  0.3424 -0.3074
  619MOL0     N85301   9.138   9.923   2.846 -0.5557 -1.0587  0.2205
  619MOL0     C85302   9.101   9.800   2.802 -0.7205  0.6457  0.8130
  619MOL0     C85303   9.036   9.813   2.683  0.5294  0.5961  0.5161
  619MOL0     C85304   8.985   9.705   2.597 -0.4475  1.2328 -0.7396
  619MOL0     C85305   9.106   9.607   2.563 -0.2522  0.0687  0.8774
  619MOL0     C85306   9.214   9.671   2.479 -1.3514  0.4833  0.6146
  619MOL0     C85307   9.323   9.586   2.404  1.2629  0.2154 -0.5154
  619MOL0     O85308   9.244   9.490   2.338 -0.9677  0.1517  0.8083
  619MOL0     C85309   9.318   9.383   2.277  0.6056 -0.2147  0.2389
  619MOL0     C85310   9.451   9.348   2.277 -0.1305 -0.2965  0.3154
  619MOL0     C85311   9.508   9.235   2.211  0.0945 -0.4213  0.5517
  619MOL0     C85312   9.662   9.220   2.216  0.0589  0.1024  0.3949
  619MOL0     C85313   9.421   9.142   2.143 -0.3611 -0.1766 -0.1558
  619MOL0     C85314   9.460   9.018   2.075 -0.3568 -0.0529 -1.2576
  619MOL0     O85315   9.358   8.946   2.012 -0.4626 -1.1101  0.5485
  619MOL0     C85316   9.390   8.826   1.955  0.4665 -0.1849 -0.3007
  619MOL0     C85317   9.427   8.717   2.033 -0.1428 -0.6100 -0.2534
  619MOL0     C85318   9.455   8.599   1.980  0.5638 -0.5281  0.2072
  619MOL0     C85319   9.433   8.577   1.839  0.7041 -0.0865 -0.3029
  619MOL0     O85320   9.455   8.447   1.795 -0.1523 -1.7876 -0.6760
  619MOL0     C85321   9.533   8.431   1.679  0.1232  0.0293 -0.2899
  619MOL0     C85322   9.515   8.302   1.622  0.4284  0.0624 -0.0583
  619MOL0     C85323   9.604   8.278   1.494  0.0953 -0.6495 -0.7579
  619MOL0     C85324   9.717   8.170   1.501 -0.0758  0.7117 -0.4238
  619MOL0     C85325   9.780   8.129   1.368 -0.3212  0.5316  0.3363
  619MOL0     C85326   9.874   8.002   1.373 -0.1207 -0.2691  0.1542
  619MOL0     C85327   9.957   8.004   1.247  0.2164  0.4366 -0.5832
  619MOL0     C85328  10.025   7.866   1.242 -0.1558 -0.2586  0.5492
  619MOL0    Cl85329  10.128   7.834   1.092  0.5680 -0.2233  0.6356
  619MOL0     C85330   9.414   8.692   1.757 -0.3327  0.2762  0.2243
  619MOL0     C85331   9.397   8.812   1.820  0.5915  0.0097  0.0382
  619MOL0     O85332   9.582   8.984   2.072 -0.7728  1.0254  0.3537
  619MOL0     C85333   9.288   9.184   2.142 -0.0753  0.4411  0.2736
  619MOL0     C85334   9.239   9.300   2.203  0.5242  0.0203  0.3666
  619MOL0     N85335   9.035   9.950   2.664 -0.3779  0.2129  0.1920
  619MOL0     N85336   9.095  10.020   2.754  0.1186  0.0970  0.6822
  619MOL0     C85337   9.909  10.782   2.822  0.3657  0.1703 -0.2031
  619MOL0     C85338  10.028  10.833   2.878  0.0016 -0.0407 -1.0964
  619MOL0     C85339  10.244  10.919   3.283  0.4100  0.5037 -0.6306
  619MOL0     C85340  10.301  11.048   3.264  0.4091 -0.5698 -0.6724
  619MOL0     C85341  10.374  11.111   3.354 -0.0325 -0.6616 -0.9182
  619MOL0     C85342  10.404  11.050   3.478  0.6006 -0.6518  0.1960
  619MOL0     O85343  10.485  11.102   3.568 -0.8483 -0.5612 -0.2464
  619MOL0     C85344  10.522  11.243   3.573  0.7242 -0.9146 -0.0010
  619MOL0     C85345  10.588  11.282   3.715 -0.1409  0.2153 -0.1698
  619MOL0     C85346  10.675  11.176   3.780 -0.0440  0.4743  0.3376
  619MOL0     C85347  10.589  11.077   3.872 -0.8224 -0.6752  0.5537
  619MOL0     C85348  10.673  10.988   3.947  0.7751  0.0848 -0.3984
  619MOL0     C85349  10.757  10.919   3.990  0.2802 -0.1083  0.6278
  619MOL0     C85350  10.347  10.933   3.505  1.0477 -0.5696 -0.1168
  619MOL0     C85351  10.270  10.861   3.409 -0.8937  0.2619 -0.2255
  619MOL0     C85352  10.202  10.726   3.451  0.9492  0.5694 -0.8275
  619MOL0     H85353   9.885  11.040   3.115  0.8060  0.5471 -0.7372
  619MOL0     H85354   9.687  10.966   3.013 -1.8787 -0.4674 -2.5686
  619MOL0     H85355   9.469  10.787   2.770  0.9117 -0.3167 -1.2377
  619MOL0     H85356   9.524  10.828   2.930  3.3353 -0.4218  1.7239
  619MOL0     H85357   9.586  10.580   2.754 -1.2917  0.3336 -1.3562
  619MOL0     H85358   9.637  10.589   2.925  0.5664 -0.3909 -0.6267
  619MOL0     H85359   9.423  10.587   3.013 -0.9418  0.3409 -0.4821
  619MOL0     H85360   9.358  10.601   2.850 -0.0726  0.1012 -0.0191
  619MOL0     H85361   9.402  10.384   2.771 -5.0612 -0.2004  1.5254
  619MOL0     H85362   9.524  10.352   2.898  0.0767 -1.4593  0.4426
  619MOL0     H85363   9.226  10.362   2.908 -0.3779  1.2880  2.9382
  619MOL0     H85364   9.329  10.330   3.053 -0.7902  0.5256 -0.2188
  619MOL0     H85365   9.298  10.171   2.812 -3.0559 -1.1094  0.1329
  619MOL0     H85366   9.432  10.136   2.928  0.3364  0.3583  0.1176
  619MOL0     H85367   9.149  10.168   3.012  3.4754  3.8316  0.3367
  619MOL0     H85368   9.278  10.091   3.107  1.2594 -0.9764 -0.8359
  619MOL0     H85369   9.284   9.883   3.001 -2.4656 -2.2765  0.8149
  619MOL0     H85370   9.118   9.924   3.052  0.1047  0.9214  0.4740
  619MOL0     H85371   9.120   9.705   2.851 -1.2897 -1.2993 -2.3988
  619MOL0     H85372   8.936   9.740   2.506  0.2014 -0.4104 -1.7791
  619MOL0     H85373   8.904   9.650   2.646  0.7612 -1.2177 -1.3241
  619MOL0     H85374   9.148   9.566   2.655  2.7216  2.2006  0.5851
  619MOL0     H85375   9.065   9.531   2.494  1.4036  2.1987 -2.7427
  619MOL0     H85376   9.182   9.746   2.407 -0.1298 -1.9344 -2.7262
  619MOL0     H85377   9.272   9.721   2.557  4.6739 -2.7358 -1.1887
  619MOL0     H85378   9.387   9.645   2.337  1.8227  0.8047  0.5089
  619MOL0     H85379   9.390   9.539   2.476  2.5768 -2.2100 -3.1427
  619MOL0     H85380   9.514   9.427   2.315 -0.8137  0.7158 -0.6252
  619MOL0     H85381   9.706   9.214   2.116 -1.7957 -1.1335 -0.4173
  619MOL0     H85382   9.693   9.130   2.271 -0.2654 -1.7306 -2.2086
  619MOL0     H85383   9.711   9.302   2.268  3.6210 -2.1050  0.8212
  619MOL0     H85384   9.425   8.724   2.142 -2.3264  0.3480 -0.2971
  619MOL0     H85385   9.477   8.509   2.037  0.9427  0.3258  1.4492
  619MOL0     H85386   9.487   8.506   1.613 -1.3362 -1.9118 -1.5731
  619MOL0     H85387   9.632   8.467   1.710 -0.1504 -0.5930  1.4193
  619MOL0     H85388   9.533   8.222   1.694 -1.9500  1.2777  2.0394
  619MOL0     H85389   9.412   8.287   1.589 -0.1154 -0.8772  1.9203
  619MOL0     H85390   9.649   8.370   1.456 -0.2006 -1.1370 -2.3513
  619MOL0     H85391   9.529   8.249   1.420 -0.8096  1.1454 -0.5810
  619MOL0     H85392   9.678   8.084   1.557  2.4488 -0.6913 -0.6392
  619MOL0     H85393   9.798   8.209   1.563  0.3685 -0.7651 -0.0144
  619MOL0     H85394   9.697   8.105   1.301  0.1665 -0.3930  0.0443
  619MOL0     H85395   9.831   8.218   1.328 -0.4533  1.3640  1.9346
  619MOL0     H85396   9.804   7.918   1.370 -0.0511 -0.3777 -3.6126
  619MOL0     H85397   9.933   8.006   1.465  0.3920 -0.3827 -0.1658
  619MOL0     H85398  10.032   8.083   1.245  1.5537 -0.7601  0.1953
  619MOL0     H85399   9.892   7.998   1.159  0.4566 -1.3897 -0.6674
  619MOL0     H85400   9.946   7.792   1.225  0.8710 -1.4438  0.7645
  619MOL0     H85401  10.093   7.843   1.325 -0.8632 -1.0047  0.9339
  619MOL0     H85402   9.406   8.687   1.649 -2.3868  2.9236  0.1483
  619MOL0     H85403   9.369   8.908   1.778 -0.0787 -0.5618 -0.8695
  619MOL0     H85404   9.221   9.132   2.074  2.2621  1.2517 -2.8712
  619MOL0     H85405   9.133   9.321   2.188  1.0159  1.8099 -1.0120
  619MOL0     H85406   9.921  10.725   2.731  5.0694  1.1543 -0.4395
  619MOL0     H85407  10.128  10.811   2.841  0.6079 -2.3963  1.6148
  619MOL0     H85408  10.285  11.098   3.168  0.1452 -0.9055 -0.8069
  619MOL0     H85409  10.426  11.203   3.331  0.3125 -0.1201  1.7405
  619MOL0     H85410  10.588  11.266   3.489 -0.7538  2.6088 -0.3407
  619MOL0     H85411  10.434  11.304   3.556 -1.1971 -3.7360 -0.9104
  619MOL0     H85412  10.511  11.304   3.789  3.6262 -0.3800  4.4451
  619MOL0     H85413  10.653  11.370   3.704 -2.5138  1.9982 -0.7863
  619MOL0     H85414  10.729  11.130   3.696  0.1532  1.6487 -0.2025
  619MOL0     H85415  10.755  11.219   3.841 -1.5661 -0.2586  2.9727
  619MOL0     H85416  10.528  11.023   3.799  0.7132  1.4490 -2.5224
  619MOL0     H85417  10.531  11.136   3.944  1.4480 -1.8551  3.5657
  619MOL0     H85418  10.846  10.870   4.024  0.0879  0.1885  1.6050
  619MOL0     H85419  10.367  10.890   3.603  0.1650  1.0940  0.8184
  619MOL0     H85420  10.092  10.728   3.453  0.5560 -4.3156  3.3730
  619MOL0     H85421  10.243  10.641   3.397  1.9526 -1.1636  2.4037
  619MOL0     H85422  10.225  10.713   3.557 -1.9645 -0.5766 -0.2380
  620MOL0     O85423   5.485   8.031  11.072 -0.4663 -0.0771  0.2926
  620MOL0     C85424   5.433   8.073  10.973  1.3241  0.3136  0.0758
  620MOL0     O85425   5.316   8.021  10.923  0.0574 -0.2039  0.3348
  620MOL0     C85426   5.243   7.923  10.983  0.1781 -0.3331 -0.0353
  620MOL0     C85427   5.239   7.890  11.113 -1.2692  0.6698 -0.4647
  620MOL0     C85428   5.172   7.777  11.157  0.6629  0.7082 -0.7555
  620MOL0     C85429   5.105   7.693  11.066 -0.2101  0.0770  0.1243
  620MOL0     O85430   5.055   7.582  11.123  0.1460 -0.2232 -0.3147
  620MOL0     C85431   5.002   7.479  11.037 -0.0207 -0.0223  0.7211
  620MOL0     C85432   4.947   7.370  11.126  0.1595  0.9677 -0.6467
  620MOL0     C85433   5.058   7.293  11.209 -0.4957  0.6108 -0.3316
  620MOL0     C85434   5.004   7.158  11.261  0.2791 -0.2668 -0.0064
  620MOL0     C85435   5.099   7.098  11.370  0.6107  0.4289  0.6903
  620MOL0     C85436   5.246   7.074  11.326 -0.6233  0.2465  0.0867
  620MOL0     C85437   5.265   6.930  11.277 -0.4387 -0.1649  0.5991
  620MOL0     C85438   5.409   6.883  11.242 -0.5701 -0.3723 -0.5735
  620MOL0     N85439   5.446   6.973  11.137  0.5610  0.2813 -0.7065
  620MOL0     C85440   5.567   7.042  11.128  0.4730  0.6376 -0.8399
  620MOL0     C85441   5.555   7.120  11.017 -0.3589 -0.1526  0.0637
  620MOL0     C85442   5.642   7.226  10.951 -0.3618 -0.3868 -0.5178
  620MOL0     C85443   5.717   7.180  10.822  1.0428 -0.5293 -0.0778
  620MOL0     C85444   5.797   7.303  10.781 -0.0039  1.4886  0.4658
  620MOL0     C85445   5.867   7.270  10.651 -0.6356 -0.0190  0.5869
  620MOL0     O85446   5.954   7.153  10.676  0.1154 -0.2260  0.5933
  620MOL0     C85447   5.984   7.063  10.572  1.1799 -0.0756  1.4273
  620MOL0     C85448   5.984   6.932  10.606  0.3717 -0.2409  0.2367
  620MOL0     C85449   6.001   6.837  10.502 -0.1238  1.1510 -0.3932
  620MOL0     C85450   5.991   6.688  10.538 -0.2450 -0.3801 -0.3972
  620MOL0     C85451   6.000   6.874  10.364 -0.4183  0.0980  1.6564
  620MOL0     C85452   6.000   6.786  10.247 -0.9683 -0.1280  0.4416
  620MOL0     O85453   6.041   6.653  10.266 -0.2758  0.5976  0.2734
  620MOL0     C85454   6.082   6.565  10.171  0.8287 -0.5350 -0.3512
  620MOL0     C85455   6.097   6.434  10.210  0.0002 -0.5229 -0.3998
  620MOL0     C85456   6.157   6.339  10.142 -0.6779 -0.5858  0.0455
  620MOL0     C85457   6.208   6.374  10.017 -0.1624  0.6272  1.3162
  620MOL0     O85458   6.279   6.290   9.928 -0.1192 -0.0815  0.1647
  620MOL0     C85459   6.242   6.154   9.940  1.1464 -0.3564  0.2963
  620MOL0     C85460   6.309   6.057   9.839 -0.3716  0.2755  0.3221
  620MOL0     C85461   6.276   6.107   9.697 -0.3067  0.1532 -0.2383
  620MOL0     C85462   6.344   6.030   9.587 -0.7956 -0.1166  1.1581
  620MOL0     C85463   6.293   6.078   9.454  0.7377  0.4821  0.4587
  620MOL0     C85464   6.163   6.018   9.408  0.5856 -0.0815 -0.8291
  620MOL0     C85465   6.087   6.093   9.286 -0.1802  0.0316 -0.9413
  620MOL0     C85466   6.002   5.993   9.197 -0.2995 -0.4575 -0.5028
  620MOL0    Cl85467   6.113   5.856   9.142  0.4319  0.1593  0.1828
  620MOL0     C85468   6.201   6.499   9.963  0.2548 -0.1125 -1.1194
  620MOL0     C85469   6.141   6.597  10.046  0.4028  0.4113  0.9435
  620MOL0     O85470   5.964   6.826  10.139 -0.0532  0.3510 -0.2046
  620MOL0     C85471   5.987   7.015  10.331 -1.1014 -0.0734  0.8046
  620MOL0     C85472   5.980   7.103  10.437 -0.1240 -0.3031  0.4849
  620MOL0     N85473   5.434   7.100  10.955 -1.2360  0.5431  0.8404
  620MOL0     N85474   5.374   7.016  11.029 -0.2783 -0.3879 -0.2446
  620MOL0     C85475   5.110   7.727  10.934  0.3935 -0.4382 -0.6248
  620MOL0     C85476   5.174   7.845  10.890  0.8616  0.2737 -0.5341
  620MOL0     C85477   5.516   8.169  10.895  0.3811  0.2041  0.2853
  620MOL0     C85478   5.654   8.165  10.911 -0.3242 -0.1369 -0.3000
  620MOL0     C85479   5.740   8.238  10.827  0.3450 -0.2905  0.0266
  620MOL0     C85480   5.685   8.317  10.732 -0.9417 -0.7190  1.1190
  620MOL0     O85481   5.768   8.378  10.650 -0.6644 -0.0404  0.3646
  620MOL0     C85482   5.735   8.507  10.604 -0.3571 -0.8846 -0.2585
  620MOL0     C85483   5.863   8.591  10.609  0.1360  0.1659  0.6461
  620MOL0     C85484   5.946   8.585  10.738  0.4628  0.0733 -0.1522
  620MOL0     C85485   5.860   8.628  10.863 -0.0256 -0.0694  0.5316
  620MOL0     C85486   5.823   8.768  10.844 -0.1989 -0.1754 -0.6383
  620MOL0     C85487   5.800   8.884  10.838  0.8562 -0.0749  1.0673
  620MOL0     C85488   5.547   8.335  10.715 -0.2244 -0.4704  0.1450
  620MOL0     C85489   5.465   8.256  10.797  0.9412 -0.1062  0.6882
  620MOL0     C85490   5.320   8.285  10.778  0.7553  0.1417 -1.1270
  620MOL0     H85491   5.288   7.942  11.194  1.7968 -1.1550 -0.9955
  620MOL0     H85492   5.177   7.743  11.260  0.9592 -2.2476 -1.6773
  620MOL0     H85493   5.089   7.441  10.982  0.1417  1.5591 -0.1934
  620MOL0     H85494   4.926   7.523  10.973  0.0605 -0.8374  0.0604
  620MOL0     H85495   4.873   7.408  11.197  0.9117  0.6905  0.3077
  620MOL0     H85496   4.892   7.302  11.061 -3.0636  0.6099  2.1428
  620MOL0     H85497   5.147   7.278  11.147 -0.0766  3.6780 -0.6130
  620MOL0     H85498   5.093   7.348  11.296  0.7776 -1.2623  0.4140
  620MOL0     H85499   4.908   7.175  11.309 -0.6832  1.3202 -2.2989
  620MOL0     H85500   4.986   7.087  11.180  0.1426  0.9890 -1.1097
  620MOL0     H85501   5.057   7.000  11.398 -0.1856  0.0811 -1.5259
  620MOL0     H85502   5.091   7.151  11.465 -0.7752  0.8571  0.3529
  620MOL0     H85503   5.285   7.151  11.259  4.5939 -0.2678  2.1225
  620MOL0     H85504   5.306   7.079  11.417 -2.5642  0.8087  1.4025
  620MOL0     H85505   5.210   6.912  11.184  0.0773  0.7606  0.1039
  620MOL0     H85506   5.220   6.865  11.352 -1.4319  3.8782  3.8646
  620MOL0     H85507   5.481   6.904  11.321 -0.9223 -1.0164 -0.0732
  620MOL0     H85508   5.415   6.781  11.203  2.1903  0.1940 -1.8945
  620MOL0     H85509   5.647   7.055  11.199  1.8376 -1.4101 -1.8981
  620MOL0     H85510   5.711   7.270  11.024 -0.9365 -1.7977  0.9386
  620MOL0     H85511   5.568   7.304  10.934 -2.3135 -1.9699  0.2998
  620MOL0     H85512   5.779   7.090  10.833  0.7601 -0.6021  1.0892
  620MOL0     H85513   5.642   7.152  10.748 -1.9055 -3.1222  3.5038
  620MOL0     H85514   5.733   7.389  10.760  2.1910  3.4017  1.2471
  620MOL0     H85515   5.866   7.322  10.864  2.0685 -1.6221 -0.3562
  620MOL0     H85516   5.786   7.244  10.582  1.3605  0.0089 -1.9165
  620MOL0     H85517   5.931   7.353  10.618  0.6524 -1.1768  0.0761
  620MOL0     H85518   5.976   6.896  10.708 -2.5864 -2.2435 -0.5619
  620MOL0     H85519   6.084   6.641  10.506  1.3051  2.1220  0.1122
  620MOL0     H85520   5.899   6.652  10.490 -1.2543  0.6405  0.6867
  620MOL0     H85521   5.999   6.654  10.642  0.5086 -2.3850 -1.0821
  620MOL0     H85522   6.061   6.409  10.309  0.5291  1.0204  0.2149
  620MOL0     H85523   6.150   6.237  10.179 -1.8456 -0.5564 -0.0498
  620MOL0     H85524   6.277   6.129  10.041  3.4161  1.0097 -0.0621
  620MOL0     H85525   6.136   6.135   9.925  1.0982 -0.0017  0.1658
  620MOL0     H85526   6.415   6.056   9.864 -0.2947  0.6551  0.0203
  620MOL0     H85527   6.281   5.951   9.843  1.6772 -0.3352 -0.5440
  620MOL0     H85528   6.298   6.214   9.695 -0.0196  0.1041  0.2431
  620MOL0     H85529   6.168   6.103   9.679 -0.3230  2.9571 -1.4143
  620MOL0     H85530   6.345   5.920   9.587  0.4680 -0.1449 -0.6193
  620MOL0     H85531   6.450   6.056   9.589 -0.2383 -1.9795 -0.2218
  620MOL0     H85532   6.300   6.187   9.458  3.0129  0.4534 -0.7578
  620MOL0     H85533   6.361   6.042   9.376  0.6352 -0.6672  0.8841
  620MOL0     H85534   6.090   6.012   9.490  2.0747 -2.2486  0.4348
  620MOL0     H85535   6.186   5.916   9.377  0.4192  0.0536 -1.3983
  620MOL0     H85536   6.161   6.123   9.212  0.0898 -0.7177 -0.9826
  620MOL0     H85537   6.023   6.175   9.321 -1.4932 -1.0015 -0.8434
  620MOL0     H85538   5.960   6.036   9.106  1.0376  0.9214 -0.5055
  620MOL0     H85539   5.916   5.962   9.257 -1.5917 -0.2491 -2.1660
  620MOL0     H85540   6.241   6.506   9.863  0.2376  0.1790 -1.1069
  620MOL0     H85541   6.134   6.697  10.005  2.0149  0.1669  0.0030
  620MOL0     H85542   5.988   7.042  10.226  0.1578  0.5670  0.9664
  620MOL0     H85543   5.974   7.208  10.408  2.0223 -0.7610 -1.9833
  620MOL0     H85544   5.070   7.666  10.853  2.9815 -1.1021 -1.4953
  620MOL0     H85545   5.182   7.869  10.784  1.3920 -0.9732 -0.7901
  620MOL0     H85546   5.709   8.094  10.973  1.1833  1.3324  0.1307
  620MOL0     H85547   5.842   8.232  10.863  0.7537  2.1207 -0.5707
  620MOL0     H85548   5.693   8.512  10.503 -0.2748 -1.7129 -0.3367
  620MOL0     H85549   5.670   8.570  10.666 -0.4214  1.1957 -2.2835
  620MOL0     H85550   5.830   8.693  10.585  2.0171  0.5990 -0.2165
  620MOL0     H85551   5.917   8.544  10.527 -1.0035 -0.3454  0.1774
  620MOL0     H85552   5.984   8.483  10.750  2.7388  1.0782  1.7415
  620MOL0     H85553   6.035   8.648  10.741 -0.1406  0.8885  1.9440
  620MOL0     H85554   5.918   8.621  10.956  0.0319  1.8782  0.6648
  620MOL0     H85555   5.775   8.559  10.871 -0.3788  0.2123 -0.6790
  620MOL0     H85556   5.770   8.982  10.807 -1.9571 -1.3547 -0.6831
  620MOL0     H85557   5.510   8.401  10.637  1.0232  0.0568 -0.0260
  620MOL0     H85558   5.280   8.245  10.684 -0.1173 -0.6158 -0.4554
  620MOL0     H85559   5.253   8.246  10.855  3.4706 -0.7920  0.9238
  620MOL0     H85560   5.299   8.391  10.766  0.3474  0.9835  4.5133
  621MOL0     O85561   7.298   5.221   7.692  0.1637 -0.6879 -0.2518
  621MOL0     C85562   7.273   5.172   7.800  0.3249 -0.0373 -0.0036
  621MOL0     O85563   7.357   5.106   7.888 -0.3460  0.1696 -0.1077
  621MOL0     C85564   7.494   5.095   7.864 -0.0510 -0.1679  1.1135
  621MOL0     C85565   7.563   5.003   7.948 -0.5288  0.8539 -0.0240
  621MOL0     C85566   7.701   4.993   7.952  0.6438 -1.1003 -0.4882
  621MOL0     C85567   7.779   5.066   7.862 -0.5197  0.3900 -1.1514
  621MOL0     O85568   7.912   5.028   7.849 -0.3321  0.1617 -0.5406
  621MOL0     C85569   7.985   5.067   7.733 -0.2388 -0.1897  0.9208
  621MOL0     C85570   8.133   5.053   7.768 -0.4132  0.7258 -0.8025
  621MOL0     C85571   8.191   5.166   7.871  1.0436 -1.0033  1.2953
  621MOL0     C85572   8.222   5.302   7.794  0.9309  0.8594 -0.9781
  621MOL0     C85573   8.369   5.338   7.794 -0.0211  0.1702  0.0784
  621MOL0     C85574   8.407   5.424   7.920 -0.2515 -0.7974  0.0688
  621MOL0     C85575   8.546   5.487   7.897 -0.2339 -0.7172  0.1177
  621MOL0     C85576   8.601   5.588   7.998  1.0389 -0.1865 -0.2044
  621MOL0     N85577   8.510   5.708   8.009 -0.4524  0.7407  0.3888
  621MOL0     C85578   8.492   5.797   7.911 -0.3803 -1.8927 -0.3647
  621MOL0     C85579   8.448   5.915   7.979  0.7205  0.3910  0.0243
  621MOL0     C85580   8.436   6.046   7.907  0.2533  0.4204 -0.3142
  621MOL0     C85581   8.444   6.178   7.987 -0.0074  0.2023  0.4451
  621MOL0     C85582   8.362   6.187   8.117  1.0647 -0.1764 -0.0084
  621MOL0     C85583   8.215   6.175   8.088 -0.5883 -0.7676 -0.3023
  621MOL0     O85584   8.163   6.298   8.040  0.7652  0.2314  0.2207
  621MOL0     C85585   8.119   6.400   8.124 -0.3576 -0.2333  0.0047
  621MOL0     C85586   8.136   6.401   8.266  0.1502  1.0126  1.1308
  621MOL0     C85587   8.091   6.504   8.345 -0.4650 -0.6432 -0.2035
  621MOL0     C85588   8.105   6.494   8.499 -1.0689 -0.6451  1.1112
  621MOL0     C85589   8.024   6.614   8.282  0.9519 -0.3803  0.8400
  621MOL0     C85590   7.983   6.737   8.348  1.1620  0.4799 -0.6110
  621MOL0     O85591   7.876   6.800   8.294 -0.1541  0.2829  0.0678
  621MOL0     C85592   7.842   6.919   8.345  0.2540 -0.0143 -0.3507
  621MOL0     C85593   7.898   7.035   8.282 -0.6359  0.2170 -0.3662
  621MOL0     C85594   7.865   7.159   8.345 -0.0854  0.4582 -0.0668
  621MOL0     C85595   7.772   7.163   8.455 -0.4277  0.6857  0.7320
  621MOL0     O85596   7.738   7.283   8.528 -0.2302 -0.1355  0.2601
  621MOL0     C85597   7.821   7.400   8.535 -1.9833  0.2223 -0.4789
  621MOL0     C85598   7.774   7.479   8.654 -0.6109 -0.4856 -0.1076
  621MOL0     C85599   7.822   7.429   8.796  0.5344 -0.2726 -0.3248
  621MOL0     C85600   7.763   7.523   8.912 -0.0610  0.5679  0.1509
  621MOL0     C85601   7.613   7.543   8.926 -0.0759  0.1180  0.4049
  621MOL0     C85602   7.517   7.424   8.918  0.4794 -0.5242 -1.4728
  621MOL0     C85603   7.522   7.344   9.048 -0.3021 -0.4565  0.4529
  621MOL0     C85604   7.400   7.245   9.041 -0.4275  0.0555  0.0277
  621MOL0    Cl85605   7.417   7.088   8.943  0.0827 -0.1928  0.0427
  621MOL0     C85606   7.702   7.048   8.496  0.4159 -0.1062 -0.6692
  621MOL0     C85607   7.745   6.923   8.447  0.3161 -0.3697 -0.1237
  621MOL0     O85608   8.056   6.789   8.429 -0.1489 -0.1137 -0.5837
  621MOL0     C85609   8.011   6.605   8.140  0.3196  0.4518 -0.4483
  621MOL0     C85610   8.059   6.505   8.059  0.6252  0.4658 -0.4465
  621MOL0     N85611   8.425   5.878   8.110  0.2670  0.0751 -0.2331
  621MOL0     N85612   8.477   5.763   8.128 -0.2568 -0.9723  0.5871
  621MOL0     C85613   7.712   5.161   7.786 -0.3321  0.0581 -0.1300
  621MOL0     C85614   7.573   5.181   7.782 -0.2338 -0.0391 -0.1256
  621MOL0     C85615   7.153   5.215   7.869 -0.6559  0.3911  0.1827
  621MOL0     C85616   7.117   5.353   7.848  0.1066 -0.1063 -0.3652
  621MOL0     C85617   6.989   5.391   7.908  0.5501 -0.5746 -0.3840
  621MOL0     C85618   6.910   5.303   7.987  1.2714  0.8186 -0.1335
  621MOL0     O85619   6.805   5.360   8.051  0.8809  0.0977  0.0493
  621MOL0     C85620   6.734   5.291   8.156  0.3257 -0.3712  0.0700
  621MOL0     C85621   6.642   5.395   8.213 -0.1524  0.3654 -0.6167
  621MOL0     C85622   6.569   5.326   8.340 -0.2883  0.3051 -0.5822
  621MOL0     C85623   6.458   5.421   8.392 -0.2603  1.1113  0.5728
  621MOL0     C85624   6.515   5.542   8.459  0.1587 -0.0920 -0.2236
  621MOL0     C85625   6.566   5.636   8.511 -0.3038 -0.7093 -0.7329
  621MOL0     C85626   6.948   5.171   8.005  0.0381  0.3978  0.5025
  621MOL0     C85627   7.070   5.132   7.947  0.0598  0.8267 -0.2320
  621MOL0     C85628   7.105   4.992   7.993  0.0216 -0.1066 -0.6091
  621MOL0     H85629   7.515   4.936   8.019 -0.7343  2.0926  1.0493
  621MOL0     H85630   7.743   4.920   8.021  3.4043  1.5307  0.8883
  621MOL0     H85631   7.967   5.169   7.697 -2.4496 -0.9638 -0.4117
  621MOL0     H85632   7.956   5.003   7.649  3.3856 -0.1756 -0.4937
  621MOL0     H85633   8.155   4.956   7.812 -0.3454  0.5261 -1.2684
  621MOL0     H85634   8.195   5.049   7.678 -1.3630 -0.4975 -1.4377
  621MOL0     H85635   8.115   5.178   7.948 -3.5504 -0.3263 -2.8716
  621MOL0     H85636   8.282   5.122   7.914  3.0777  0.7604 -0.8920
  621MOL0     H85637   8.183   5.294   7.693 -2.7758 -1.3840  0.4251
  621MOL0     H85638   8.156   5.370   7.850 -0.4146 -0.0422 -1.4091
  621MOL0     H85639   8.386   5.387   7.698 -3.6271 -0.1556 -0.8906
  621MOL0     H85640   8.420   5.241   7.800  0.8303  0.6071 -0.0793
  621MOL0     H85641   8.324   5.489   7.949 -0.8223 -2.0387  1.3084
  621MOL0     H85642   8.422   5.353   8.002  1.1862  2.4522  2.9503
  621MOL0     H85643   8.553   5.530   7.797  1.6170  2.3444  1.4419
  621MOL0     H85644   8.620   5.408   7.912 -0.6869 -2.0705 -3.6959
  621MOL0     H85645   8.612   5.547   8.099  2.2957  1.5852  0.4350
  621MOL0     H85646   8.694   5.627   7.956 -1.1479  2.2160 -3.2733
  621MOL0     H85647   8.498   5.787   7.803 -1.9682  0.6972 -0.7882
  621MOL0     H85648   8.343   6.045   7.849 -0.1028  2.4916  0.1326
  621MOL0     H85649   8.511   6.057   7.828  1.0440  0.3103  0.4065
  621MOL0     H85650   8.549   6.197   8.013  0.0387 -0.5475  0.8364
  621MOL0     H85651   8.400   6.256   7.923 -1.4902  1.2083  2.5524
  621MOL0     H85652   8.399   6.104   8.178 -1.2613 -3.0082 -2.1343
  621MOL0     H85653   8.388   6.287   8.152  4.6829  0.7335 -4.4103
  621MOL0     H85654   8.203   6.104   8.006 -2.1223 -0.5908 -0.2546
  621MOL0     H85655   8.164   6.142   8.179  0.2527  0.0813  0.5013
  621MOL0     H85656   8.183   6.317   8.316  1.4325  0.1948 -1.2908
  621MOL0     H85657   8.148   6.400   8.536 -0.3928 -1.4274 -1.4552
  621MOL0     H85658   8.007   6.516   8.541 -3.2703  1.4041 -4.2695
  621MOL0     H85659   8.176   6.571   8.529 -1.0769 -1.0857  2.3024
  621MOL0     H85660   7.966   7.031   8.198  0.0992 -0.0484  0.2342
  621MOL0     H85661   7.931   7.239   8.312  0.8691 -0.5425 -0.6687
  621MOL0     H85662   7.923   7.364   8.553 -1.7390  1.0492 -0.1884
  621MOL0     H85663   7.828   7.469   8.450  3.5984  0.6950 -0.0222
  621MOL0     H85664   7.815   7.580   8.643 -1.3824 -0.0821  0.5955
  621MOL0     H85665   7.666   7.488   8.646 -0.6876 -0.4979  0.8110
  621MOL0     H85666   7.931   7.433   8.789  0.6018 -2.7731 -1.7025
  621MOL0     H85667   7.794   7.326   8.821 -0.7581  0.3320  0.8480
  621MOL0     H85668   7.810   7.622   8.904  2.1570 -0.5678 -2.4328
  621MOL0     H85669   7.800   7.482   9.006  1.7994  1.3265 -0.2134
  621MOL0     H85670   7.581   7.598   9.015 -0.0855  2.3772 -0.9071
  621MOL0     H85671   7.591   7.607   8.840 -1.2262 -0.2608  0.3956
  621MOL0     H85672   7.541   7.357   8.835 -0.8911 -4.0603  0.7392
  621MOL0     H85673   7.413   7.458   8.917  0.3810 -0.3667  1.7554
  621MOL0     H85674   7.513   7.421   9.125 -2.0995  1.1808 -1.2587
  621MOL0     H85675   7.611   7.284   9.069 -0.5410 -1.0158 -0.0895
  621MOL0     H85676   7.310   7.291   8.999  1.2761  0.7512 -3.1592
  621MOL0     H85677   7.380   7.229   9.147  0.4439 -0.5276  0.1170
  621MOL0     H85678   7.633   7.057   8.579  2.3123  0.6796  0.9236
  621MOL0     H85679   7.698   6.829   8.475 -1.0032 -0.1615 -1.5216
  621MOL0     H85680   7.952   6.681   8.089 -0.3833  0.5248  0.4481
  621MOL0     H85681   8.038   6.493   7.953  0.0191 -0.9481 -0.1818
  621MOL0     H85682   7.762   5.239   7.730 -2.0704  1.2071 -0.1476
  621MOL0     H85683   7.536   5.260   7.718  3.1590  0.0816 -2.1583
  621MOL0     H85684   7.183   5.422   7.796 -2.1204  3.3354  0.9405
  621MOL0     H85685   6.953   5.491   7.885 -1.6976 -1.0298  0.8361
  621MOL0     H85686   6.682   5.205   8.112 -0.7467  0.8738 -1.2213
  621MOL0     H85687   6.799   5.245   8.231  0.6129  0.4385  0.3283
  621MOL0     H85688   6.568   5.416   8.136 -1.3624 -2.1086 -0.2256
  621MOL0     H85689   6.700   5.482   8.246  0.8698  0.2514 -2.0113
  621MOL0     H85690   6.525   5.229   8.318 -0.8061  0.8561 -2.1464
  621MOL0     H85691   6.657   5.304   8.401 -0.8170 -2.8360 -0.7891
  621MOL0     H85692   6.400   5.374   8.472 -1.8829  2.9251  0.5449
  621MOL0     H85693   6.392   5.453   8.311  2.3868  0.8471 -1.8554
  621MOL0     H85694   6.610   5.714   8.570 -2.6087 -1.3678  2.0992
  621MOL0     H85695   6.884   5.105   8.063 -1.1448  0.9446 -0.1264
  621MOL0     H85696   7.141   5.003   8.096 -1.7809  2.0599 -0.1149
  621MOL0     H85697   7.018   4.926   8.001  1.2999 -1.9164 -1.0662
  621MOL0     H85698   7.184   4.945   7.934  0.4939  1.4004 -1.2241
  622MOL0     O85699   5.176  10.278   4.231  0.5123  1.1668 -0.3232
  622MOL0     C85700   5.217  10.384   4.196 -0.2851  0.1526  0.1576
  622MOL0     O85701   5.317  10.451   4.245 -0.2524 -0.1649  0.0860
  622MOL0     C85702   5.419  10.393   4.307  0.8058 -0.2075  0.7109
  622MOL0     C85703   5.418  10.279   4.397  0.1471  0.0284  0.1211
  622MOL0     C85704   5.536  10.240   4.465  0.5670 -0.1353 -0.1286
  622MOL0     C85705   5.663  10.297   4.425  0.3903  0.0360  0.1268
  622MOL0     O85706   5.784  10.250   4.469 -0.4092  0.0274 -0.9442
  622MOL0     C85707   5.794  10.178   4.596 -0.7584  0.3504  0.5092
  622MOL0     C85708   5.946  10.156   4.642 -0.0766 -1.2238 -0.4175
  622MOL0     C85709   6.035  10.106   4.519  0.1064  0.5961 -0.7433
  622MOL0     C85710   6.181  10.099   4.552 -0.4887  0.8041  0.5152
  622MOL0     C85711   6.280  10.075   4.442  0.9137 -0.3320 -0.9683
  622MOL0     C85712   6.411  10.032   4.500  0.7240 -1.1919  0.1862
  622MOL0     C85713   6.530  10.021   4.403  0.5056  0.1950 -0.8621
  622MOL0     C85714   6.498   9.909   4.306 -0.0422  0.3873 -0.0524
  622MOL0     N85715   6.605   9.883   4.214 -0.4691  0.2187 -0.0714
  622MOL0     C85716   6.587   9.833   4.086 -0.0354 -0.0010 -0.7677
  622MOL0     C85717   6.709   9.798   4.032  0.0962 -0.2290  0.1064
  622MOL0     C85718   6.736   9.748   3.891 -0.3985 -0.1529 -0.0353
  622MOL0     C85719   6.729   9.595   3.874 -0.5086  0.8136 -0.4994
  622MOL0     C85720   6.794   9.529   4.001 -0.5433  0.5949  0.1543
  622MOL0     C85721   6.778   9.378   3.985  0.2095  0.4618 -0.5027
  622MOL0     O85722   6.858   9.347   3.869  0.2963  0.1444 -0.2631
  622MOL0     C85723   6.865   9.224   3.816  0.0332 -0.8725  0.3447
  622MOL0     C85724   6.902   9.223   3.677 -0.7376 -0.3691 -0.2356
  622MOL0     C85725   6.918   9.111   3.602 -0.0218 -0.5967 -0.3583
  622MOL0     C85726   6.974   9.137   3.462  0.2007  0.0439  0.6066
  622MOL0     C85727   6.878   8.985   3.660  0.2112  0.2417  0.8385
  622MOL0     C85728   6.894   8.853   3.589 -0.2459 -1.1005  0.8202
  622MOL0     O85729   6.856   8.746   3.647  0.7773  0.3347  0.0085
  622MOL0     C85730   6.875   8.626   3.589 -0.4520 -0.1749 -0.2323
  622MOL0     C85731   6.834   8.592   3.464  0.7782  0.0536 -0.0654
  622MOL0     C85732   6.875   8.480   3.401  0.1243 -0.5772  0.1141
  622MOL0     C85733   6.950   8.378   3.465  0.5382  0.2254  0.3525
  622MOL0     O85734   6.994   8.260   3.405  0.3472 -0.1575 -0.3072
  622MOL0     C85735   6.932   8.222   3.286 -1.0080 -0.3978 -0.0379
  622MOL0     C85736   6.967   8.073   3.265 -0.7295 -0.5295  0.7280
  622MOL0     C85737   6.841   7.992   3.299 -0.3043 -0.3353 -0.2095
  622MOL0     C85738   6.878   7.843   3.307 -0.5093 -0.2008  0.7074
  622MOL0     C85739   6.758   7.753   3.334  1.0622 -0.8642  0.1117
  622MOL0     C85740   6.795   7.614   3.309  0.9442 -0.7847 -0.0236
  622MOL0     C85741   6.672   7.520   3.332  0.1952 -0.2078 -0.0487
  622MOL0     C85742   6.705   7.375   3.318  0.9588  0.0714 -0.0248
  622MOL0    Cl85743   6.762   7.330   3.154 -0.0497  0.2612 -0.1669
  622MOL0     C85744   7.001   8.418   3.591  0.0505 -1.0557 -0.8016
  622MOL0     C85745   6.970   8.551   3.649  1.1641  1.8666  0.1877
  622MOL0     O85746   6.943   8.855   3.473  0.4054 -0.2415 -0.3167
  622MOL0     C85747   6.852   8.987   3.795  0.3869  0.1161  0.5859
  622MOL0     C85748   6.835   9.105   3.874  0.0907 -0.9429  0.6906
  622MOL0     N85749   6.801   9.810   4.129 -0.2002 -0.5093 -0.4429
  622MOL0     N85750   6.731   9.837   4.240  0.1751 -0.1794  0.4483
  622MOL0     C85751   5.664  10.400   4.338 -0.8470 -0.4708  0.1408
  622MOL0     C85752   5.541  10.453   4.288 -0.1659 -0.3488  1.3713
  622MOL0     C85753   5.160  10.448   4.081 -0.4463  0.6257  0.8018
  622MOL0     C85754   5.216  10.569   4.030  0.2676 -0.6395 -0.5587
  622MOL0     C85755   5.163  10.635   3.920  0.4192 -0.3584  0.3468
  622MOL0     C85756   5.050  10.602   3.853 -0.0071 -0.8592  0.5320
  622MOL0     O85757   5.005  10.671   3.739  0.1671 -0.5935  0.0221
  622MOL0     C85758   5.064  10.626   3.617  0.0150 -0.5755 -0.4089
  622MOL0     C85759   4.981  10.520   3.546 -0.1563  0.3549 -0.3021
  622MOL0     C85760   4.841  10.552   3.509 -0.1828 -0.1990  0.6670
  622MOL0     C85761   4.841  10.645   3.376  0.3819 -0.6160 -0.2776
  622MOL0     C85762   4.702  10.664   3.331  0.0450 -0.2219 -0.4023
  622MOL0     C85763   4.586  10.667   3.302  0.0885  0.8717  0.3609
  622MOL0     C85764   4.986  10.487   3.908  0.1024 -0.3573  0.7010
  622MOL0     C85765   5.036  10.411   4.021  0.4434  1.2846 -0.5705
  622MOL0     C85766   4.940  10.303   4.065  0.6518 -0.6593  0.3925
  622MOL0     H85767   5.326  10.229   4.427 -0.1984 -0.5729 -1.7813
  622MOL0     H85768   5.512  10.165   4.540 -0.3496  0.7758  0.5096
  622MOL0     H85769   5.740  10.082   4.596 -0.3498  0.0439 -2.2115
  622MOL0     H85770   5.749  10.249   4.666  1.8758  4.0170 -1.2046
  622MOL0     H85771   5.988  10.254   4.667 -1.0390  0.0949 -3.5238
  622MOL0     H85772   5.937  10.081   4.721 -0.3245 -2.3509 -1.4834
  622MOL0     H85773   6.001  10.011   4.476  0.0079  0.7003 -0.8951
  622MOL0     H85774   6.028  10.178   4.437  0.7940  0.6327 -0.7740
  622MOL0     H85775   6.203  10.198   4.595  1.8523  0.9202 -0.8198
  622MOL0     H85776   6.198  10.036   4.640 -2.3430 -0.8966 -0.2877
  622MOL0     H85777   6.292  10.170   4.390  0.3129  0.0575 -0.4157
  622MOL0     H85778   6.235  10.001   4.375 -0.3262  0.0093 -0.5391
  622MOL0     H85779   6.442  10.110   4.570  1.7244 -1.3990 -0.0108
  622MOL0     H85780   6.401   9.938   4.556 -0.3486 -0.5033  1.1795
  622MOL0     H85781   6.624  10.010   4.457  0.9327  1.5707 -1.2826
  622MOL0     H85782   6.529  10.115   4.347 -1.0877  1.5453  1.2556
  622MOL0     H85783   6.497   9.813   4.359  0.0951 -0.9017 -2.2941
  622MOL0     H85784   6.402   9.929   4.259  1.1925  0.3418 -2.7967
  622MOL0     H85785   6.494   9.808   4.037  0.1290 -0.9867 -0.5992
  622MOL0     H85786   6.840   9.776   3.874 -0.9905  2.1893 -0.2061
  622MOL0     H85787   6.675   9.801   3.817 -1.6647 -0.9257  0.4179
  622MOL0     H85788   6.621   9.577   3.872 -0.5847  1.1155 -3.0335
  622MOL0     H85789   6.774   9.565   3.779  0.3486 -0.0895  0.1824
  622MOL0     H85790   6.899   9.558   4.001 -0.5252  0.7892 -2.6471
  622MOL0     H85791   6.745   9.562   4.093 -1.0852  0.4544 -0.0795
  622MOL0     H85792   6.812   9.336   4.079 -2.3072  0.5667  0.5306
  622MOL0     H85793   6.675   9.343   3.976  0.1654 -0.1393  1.7511
  622MOL0     H85794   6.925   9.324   3.644 -0.1571  0.8798  3.5057
  622MOL0     H85795   6.968   9.245   3.443 -3.3711  0.0566  1.2126
  622MOL0     H85796   6.914   9.083   3.389  1.1213  1.0561 -0.9475
  622MOL0     H85797   7.079   9.107   3.457  1.1611  3.1682 -0.2460
  622MOL0     H85798   6.764   8.653   3.409  0.7364 -2.1391 -2.6700
  622MOL0     H85799   6.846   8.478   3.297 -0.9633  0.5669  0.3756
  622MOL0     H85800   6.825   8.246   3.295 -0.1162  3.6538  2.1090
  622MOL0     H85801   6.967   8.281   3.201 -3.7741  0.4541 -0.6743
  622MOL0     H85802   6.993   8.057   3.160 -0.5906 -0.8892  0.8133
  622MOL0     H85803   7.054   8.046   3.326 -0.4980 -1.3065  0.0674
  622MOL0     H85804   6.760   8.000   3.227  0.7555 -2.4774 -1.7576
  622MOL0     H85805   6.800   8.030   3.393 -0.6243  1.5133 -1.0581
  622MOL0     H85806   6.965   7.836   3.374 -0.1135 -0.6288  0.1543
  622MOL0     H85807   6.902   7.815   3.204  1.6329  2.0615  0.4631
  622MOL0     H85808   6.723   7.759   3.437  1.0779 -1.7325  0.1814
  622MOL0     H85809   6.669   7.777   3.275 -0.8973  0.2304  3.2927
  622MOL0     H85810   6.875   7.580   3.374  1.9863  0.8214 -0.4030
  622MOL0     H85811   6.825   7.613   3.204 -0.9145  0.1785 -0.6217
  622MOL0     H85812   6.589   7.546   3.266 -0.7844 -3.4600 -0.2804
  622MOL0     H85813   6.638   7.542   3.434 -0.5616 -0.7604 -0.1762
  622MOL0     H85814   6.610   7.324   3.337 -0.3042  2.3105  0.0832
  622MOL0     H85815   6.782   7.342   3.389  1.7334 -1.1256 -1.3791
  622MOL0     H85816   7.077   8.358   3.640  0.7422  1.6317  1.7403
  622MOL0     H85817   7.023   8.590   3.735  0.2396  0.4977  1.4402
  622MOL0     H85818   6.850   8.891   3.846  2.9187  0.7093  1.9770
  622MOL0     H85819   6.823   9.091   3.981 -0.7048 -1.1430  0.5868
  622MOL0     H85820   5.756  10.451   4.313 -3.1490  3.1696 -1.9025
  622MOL0     H85821   5.536  10.540   4.223 -3.5232  0.7371  2.8658
  622MOL0     H85822   5.297  10.619   4.083 -0.2077  1.5322 -1.7385
  622MOL0     H85823   5.208  10.727   3.885 -1.7312 -0.0411 -1.8617
  622MOL0     H85824   5.075  10.708   3.546  1.1377 -1.5327 -1.3845
  622MOL0     H85825   5.160  10.579   3.638 -0.4902 -1.6407 -0.4082
  622MOL0     H85826   4.972  10.449   3.628  0.4975  0.5684 -0.0338
  622MOL0     H85827   5.034  10.478   3.460 -0.0394  1.0415 -0.5749
  622MOL0     H85828   4.791  10.461   3.475  1.0588 -0.1071 -1.5870
  622MOL0     H85829   4.785  10.581   3.599  0.0896 -1.1348  1.1525
  622MOL0     H85830   4.901  10.614   3.290  0.2047  0.1755 -0.7044
  622MOL0     H85831   4.876  10.745   3.404  0.4508 -0.7318  0.0446
  622MOL0     H85832   4.493  10.689   3.252  1.1889 -1.2656 -2.9010
  622MOL0     H85833   4.898  10.460   3.850 -0.5321 -0.5552  1.7334
  622MOL0     H85834   4.899  10.264   3.972  1.3368  4.3849 -2.3743
  622MOL0     H85835   4.980  10.220   4.125  2.9425  0.4273  0.4605
  622MOL0     H85836   4.863  10.354   4.123  1.6635  0.7758  0.5256
  623MOL0     O85837  11.008   9.455   8.194 -0.3973 -0.0650  0.0249
  623MOL0     C85838  10.991   9.548   8.121  0.7015 -1.0525 -0.9489
  623MOL0     O85839  11.079   9.605   8.037 -0.4260 -0.4762 -0.4389
  623MOL0     C85840  11.202   9.565   8.001 -0.0955 -0.3801 -0.0230
  623MOL0     C85841  11.232   9.429   7.974 -0.2819  0.1507 -0.3991
  623MOL0     C85842  11.367   9.404   7.951  0.4750  0.8184  0.8405
  623MOL0     C85843  11.458   9.500   7.921  0.4950  0.2840 -0.7516
  623MOL0     O85844  11.586   9.448   7.887  0.2027  0.0395 -0.7914
  623MOL0     C85845  11.682   9.538   7.838 -0.7187 -0.9368 -0.0009
  623MOL0     C85846  11.796   9.459   7.775 -0.9271 -0.0466 -0.3853
  623MOL0     C85847  11.918   9.533   7.718  0.2570 -0.2981 -0.4941
  623MOL0     C85848  11.910   9.574   7.574 -0.3136  0.7553  0.1134
  623MOL0     C85849  12.007   9.695   7.552 -0.0755 -0.2252 -0.2101
  623MOL0     C85850  12.018   9.724   7.398 -0.0940  0.2030 -1.1481
  623MOL0     C85851  12.080   9.605   7.327  0.0548 -0.0413  0.0820
  623MOL0     C85852  12.147   9.645   7.195  0.7793 -0.0637  0.9219
  623MOL0     N85853  12.186   9.534   7.099  0.1101  0.1939 -0.3485
  623MOL0     C85854  12.319   9.495   7.083 -0.0920  0.1929  0.2028
  623MOL0     C85855  12.332   9.440   6.955  0.1449  0.7165 -0.1645
  623MOL0     C85856  12.452   9.379   6.877  0.8177  0.1627 -1.0774
  623MOL0     C85857  12.452   9.224   6.881 -0.6893 -0.0486 -0.5283
  623MOL0     C85858  12.584   9.168   6.926 -0.4888 -0.0012  0.4513
  623MOL0     C85859  12.626   9.190   7.075  0.0350  0.9568 -0.6289
  623MOL0     O85860  12.705   9.305   7.088 -0.2316  0.4428  0.1021
  623MOL0     C85861  12.736   9.358   7.218 -0.4708  0.5949  0.5412
  623MOL0     C85862  12.706   9.287   7.342  0.3380  0.1196 -0.1033
  623MOL0     C85863  12.744   9.336   7.465 -0.7814  0.0073  0.5897
  623MOL0     C85864  12.704   9.250   7.578  0.1424 -0.3069  0.5872
  623MOL0     C85865  12.808   9.465   7.480 -0.5476 -0.5075 -0.5709
  623MOL0     C85866  12.861   9.510   7.610 -0.3480  0.0835  0.3298
  623MOL0     O85867  12.908   9.417   7.688 -0.0873  0.8106 -0.0946
  623MOL0     C85868  12.965   9.448   7.810 -0.8049  0.5583 -0.8048
  623MOL0     C85869  12.902   9.527   7.904  0.1689 -0.2338 -0.3817
  623MOL0     C85870  12.961   9.557   8.023 -0.4304  0.6421 -0.0989
  623MOL0     C85871  13.094   9.516   8.052 -1.7206 -0.9338  0.5249
  623MOL0     O85872  13.151   9.565   8.166 -0.7235 -0.3931  0.2729
  623MOL0     C85873  13.289   9.545   8.200  0.1051 -0.3399  0.5948
  623MOL0     C85874  13.324   9.620   8.332 -0.6423  0.5758  0.5633
  623MOL0     C85875  13.468   9.667   8.334  0.2578  0.2248  0.6010
  623MOL0     C85876  13.479   9.817   8.293  0.1459 -0.6117  0.5408
  623MOL0     C85877  13.620   9.843   8.246 -0.4493  0.6391 -0.2207
  623MOL0     C85878  13.664   9.782   8.113  1.1507 -0.4530  0.5891
  623MOL0     C85879  13.786   9.854   8.059 -0.4169  0.7340  0.4553
  623MOL0     C85880  13.880   9.759   7.970  0.0579 -0.1822 -0.1880
  623MOL0    Cl85881  13.966   9.647   8.076  0.2727 -0.2220 -0.3210
  623MOL0     C85882  13.163   9.445   7.957  0.4921 -1.2572 -0.9792
  623MOL0     C85883  13.096   9.407   7.839 -0.6522 -0.5569  0.2533
  623MOL0     O85884  12.859   9.635   7.634  0.0016  0.1225 -0.3652
  623MOL0     C85885  12.839   9.540   7.355 -0.0486 -0.4314 -0.6981
  623MOL0     C85886  12.795   9.492   7.221 -0.1767 -0.6475 -0.0393
  623MOL0     N85887  12.204   9.456   6.894  0.5353 -0.0876 -0.7426
  623MOL0     N85888  12.119   9.506   6.981  0.3587  0.1808 -0.5489
  623MOL0     C85889  11.427   9.629   7.939 -0.2038  0.1823  0.3277
  623MOL0     C85890  11.300   9.668   7.978 -0.1906  0.2052 -0.1002
  623MOL0     C85891  10.866   9.637   8.141 -0.4461 -0.0234 -0.2127
  623MOL0     C85892  10.865   9.770   8.081  0.4858 -0.6317  0.2724
  623MOL0     C85893  10.762   9.857   8.113 -0.0252  0.3903  0.9103
  623MOL0     C85894  10.659   9.812   8.190 -0.4830  0.8634  0.8350
  623MOL0     O85895  10.565   9.909   8.204  0.7096 -0.3477  0.0128
  623MOL0     C85896  10.460   9.905   8.300 -0.3113 -0.1268  0.2656
  623MOL0     C85897  10.380  10.040   8.325  0.5759 -0.5165  0.5279
  623MOL0     C85898  10.287  10.077   8.207  0.3187 -0.3701 -0.2179
  623MOL0     C85899  10.184   9.966   8.167  0.3244 -0.4757  0.0049
  623MOL0     C85900  10.096  10.029   8.077  0.8603 -0.3441  0.8012
  623MOL0     C85901  10.018  10.076   7.997 -0.2925 -0.2314  0.4938
  623MOL0     C85902  10.654   9.684   8.240 -0.3461 -0.0733 -0.1342
  623MOL0     C85903  10.756   9.593   8.218  0.3589 -0.9521  1.3057
  623MOL0     C85904  10.739   9.452   8.293 -0.8275 -0.0852  0.2083
  623MOL0     H85905  11.162   9.349   7.995  1.5361 -1.5734 -0.6551
  623MOL0     H85906  11.394   9.299   7.955 -2.7450 -0.0905  3.3047
  623MOL0     H85907  11.728   9.611   7.905  2.7936 -0.2171 -2.8562
  623MOL0     H85908  11.643   9.608   7.764  1.0765  0.4073  0.2491
  623MOL0     H85909  11.848   9.402   7.852  1.6102 -0.1089 -2.0175
  623MOL0     H85910  11.757   9.391   7.699  0.5987 -2.4458  0.8341
  623MOL0     H85911  11.933   9.619   7.784 -1.1679 -1.1376  1.0010
  623MOL0     H85912  12.010   9.475   7.730 -0.5995 -1.4378  0.8435
  623MOL0     H85913  11.935   9.482   7.520  0.6254  1.8346 -1.4170
  623MOL0     H85914  11.813   9.609   7.537 -0.2531  0.8513  0.0436
  623MOL0     H85915  12.104   9.680   7.599 -0.7005  0.4738  1.3569
  623MOL0     H85916  11.966   9.782   7.604 -0.4075  0.9747 -2.3471
  623MOL0     H85917  11.924   9.751   7.350  0.3439  1.7282 -1.1881
  623MOL0     H85918  12.081   9.811   7.378  1.4533 -0.9611 -1.5399
  623MOL0     H85919  12.009   9.526   7.302  0.9233 -0.7938 -0.0417
  623MOL0     H85920  12.159   9.560   7.387  1.1346  0.9818 -0.5310
  623MOL0     H85921  12.086   9.720   7.144  0.5897 -0.9009 -0.1154
  623MOL0     H85922  12.246   9.686   7.216  1.4182 -1.2387  0.2796
  623MOL0     H85923  12.394   9.500   7.162 -1.1591 -0.3440  1.2879
  623MOL0     H85924  12.536   9.426   6.929 -1.0075  0.7309  1.5539
  623MOL0     H85925  12.452   9.412   6.773 -2.0550 -0.9588 -1.5116
  623MOL0     H85926  12.375   9.187   6.950 -0.4274 -1.4331 -0.9560
  623MOL0     H85927  12.425   9.189   6.781  0.4439 -0.5902 -0.6568
  623MOL0     H85928  12.587   9.061   6.901  0.5064  0.1865 -0.3191
  623MOL0     H85929  12.665   9.210   6.864 -0.2336 -1.7059 -0.4339
  623MOL0     H85930  12.540   9.197   7.142  1.2369 -2.0593  1.4492
  623MOL0     H85931  12.680   9.106   7.119  0.6806 -0.2559 -3.4890
  623MOL0     H85932  12.653   9.193   7.339 -1.1228  0.9243 -2.0915
  623MOL0     H85933  12.607   9.226   7.534  0.6947  2.7005 -2.6913
  623MOL0     H85934  12.694   9.293   7.678  4.6539  3.1380 -0.1362
  623MOL0     H85935  12.770   9.163   7.585 -2.6853 -3.0094 -2.7562
  623MOL0     H85936  12.801   9.566   7.890 -0.5684 -1.7178  0.5655
  623MOL0     H85937  12.926   9.638   8.087  0.2873  1.0328 -0.1848
  623MOL0     H85938  13.310   9.438   8.195 -4.7182 -1.4852  0.0217
  623MOL0     H85939  13.351   9.585   8.119 -0.1049  1.2838  1.1830
  623MOL0     H85940  13.263   9.708   8.353  0.1272  2.0607 -2.6819
  623MOL0     H85941  13.313   9.557   8.420  1.3301  0.7281  0.9657
  623MOL0     H85942  13.522   9.589   8.280 -0.3706 -0.3410  0.7704
  623MOL0     H85943  13.511   9.661   8.435 -0.8046 -1.5566  0.9850
  623MOL0     H85944  13.471   9.877   8.384 -0.9908  0.7377 -0.4060
  623MOL0     H85945  13.404   9.853   8.223 -0.1321  0.9033  1.5686
  623MOL0     H85946  13.637   9.951   8.254  0.4342  0.4199  1.4887
  623MOL0     H85947  13.688   9.797   8.319 -0.8799 -1.8412 -1.3124
  623MOL0     H85948  13.582   9.788   8.041  1.7673 -2.4603 -0.3321
  623MOL0     H85949  13.676   9.674   8.112  1.6977 -0.4229  1.9584
  623MOL0     H85950  13.847   9.879   8.147 -1.7160  2.9279  0.7979
  623MOL0     H85951  13.765   9.948   8.007  1.0109  2.5671  2.9517
  623MOL0     H85952  13.952   9.812   7.907  0.5517  2.3362  2.3101
  623MOL0     H85953  13.817   9.699   7.905 -1.3743  1.5038 -0.4268
  623MOL0     H85954  13.265   9.416   7.977  0.3033 -0.1920  1.9127
  623MOL0     H85955  13.153   9.345   7.771 -2.0035 -1.3789 -0.1768
  623MOL0     H85956  12.894   9.634   7.349 -1.8172  0.7004 -0.0524
  623MOL0     H85957  12.807   9.548   7.129 -1.2956 -0.1684  0.0903
  623MOL0     H85958  11.494   9.714   7.931  0.4272 -0.2372  0.9020
  623MOL0     H85959  11.270   9.767   8.009 -0.8461 -0.5742  1.8547
  623MOL0     H85960  10.943   9.802   8.013  0.5236 -0.1416  0.5419
  623MOL0     H85961  10.765   9.960   8.082  3.7585  0.8528  2.2433
  623MOL0     H85962  10.397   9.818   8.282 -0.9011  0.1018  1.1517
  623MOL0     H85963  10.511   9.892   8.397 -2.4572  1.8016  1.7757
  623MOL0     H85964  10.443  10.122   8.362  1.6841 -0.6539 -0.9700
  623MOL0     H85965  10.308  10.019   8.404  0.0780  1.3130  0.6080
  623MOL0     H85966  10.224  10.161   8.236  0.5957 -0.7537  1.6602
  623MOL0     H85967  10.346  10.107   8.120 -1.4846  0.7379 -1.1070
  623MOL0     H85968  10.135   9.917   8.251 -3.0597  0.9134 -0.9958
  623MOL0     H85969  10.238   9.887   8.113 -1.3991  0.0869 -2.7163
  623MOL0     H85970   9.948  10.107   7.923  0.8041  1.3542  0.0785
  623MOL0     H85971  10.569   9.661   8.305  0.8485 -0.2957  1.3941
  623MOL0     H85972  10.785   9.366   8.243 -2.2853  1.0800 -3.4920
  623MOL0     H85973  10.812   9.478   8.370 -0.4016  4.2457 -1.4030
  623MOL0     H85974  10.636   9.443   8.328  0.2865  0.1079  4.0024
  624MOL0     O85975   1.892   6.725  11.541 -0.0589 -0.0215  0.0544
  624MOL0     C85976   1.888   6.618  11.497 -0.8786  0.3415  0.0802
  624MOL0     O85977   1.977   6.567  11.412  0.1799  0.9354 -0.0500
  624MOL0     C85978   2.095   6.637  11.396  1.0161  0.5532 -0.3505
  624MOL0     C85979   2.214   6.571  11.439  0.0758 -0.1153 -0.5700
  624MOL0     C85980   2.339   6.628  11.420  0.3039 -0.8325 -0.6548
  624MOL0     C85981   2.347   6.747  11.352 -0.5827 -0.4969 -0.0273
  624MOL0     O85982   2.470   6.796  11.313 -0.7484 -0.7371  0.2473
  624MOL0     C85983   2.504   6.770  11.169 -0.2259  0.6483 -1.1119
  624MOL0     C85984   2.565   6.631  11.141 -0.2466  1.1659  1.1133
  624MOL0     C85985   2.686   6.595  11.205 -0.1352  0.3951 -0.2985
  624MOL0     C85986   2.811   6.638  11.129 -1.0230 -0.0360  0.6364
  624MOL0     C85987   2.881   6.538  11.035  0.2150  0.1028 -0.0797
  624MOL0     C85988   2.791   6.480  10.920 -0.6382  0.2682  0.0919
  624MOL0     C85989   2.860   6.366  10.843  0.0877 -0.6834 -0.5257
  624MOL0     C85990   2.998   6.403  10.797  1.2891 -0.9422 -0.7994
  624MOL0     N85991   3.076   6.300  10.741 -0.6029  0.8482 -0.0359
  624MOL0     C85992   3.065   6.246  10.611  0.2727 -0.7832 -0.0828
  624MOL0     C85993   3.153   6.143  10.610  0.1854 -0.8271 -0.7474
  624MOL0     C85994   3.157   6.052  10.490  0.6911  0.6765 -0.6098
  624MOL0     C85995   3.069   6.095  10.373 -0.3854  0.0654  0.0623
  624MOL0     C85996   3.140   6.219  10.303  0.6175 -0.7903  0.1391
  624MOL0     C85997   3.247   6.180  10.207  0.2845 -0.3053 -0.8181
  624MOL0     O85998   3.269   6.284  10.119 -0.4991 -0.1908  0.0364
  624MOL0     C85999   3.346   6.253  10.008  0.5026 -0.1043  0.5910
  624MOL0     C86000   3.449   6.150  10.002 -0.2754  0.3409 -0.8836
  624MOL0     C86001   3.516   6.136   9.885 -0.9336  0.4215 -0.0696
  624MOL0     C86002   3.605   6.013   9.886 -0.3129  0.0126 -1.0162
  624MOL0     C86003   3.507   6.221   9.773  0.0863  0.6766  0.9444
  624MOL0     C86004   3.596   6.207   9.649 -0.5957  0.0278 -0.7123
  624MOL0     O86005   3.712   6.138   9.652  0.5140  0.5657  0.1068
  624MOL0     C86006   3.772   6.119   9.534  0.1459  0.6729 -0.3786
  624MOL0     C86007   3.824   6.224   9.458 -0.2719 -0.5173  0.4375
  624MOL0     C86008   3.885   6.187   9.336 -0.5649 -0.2552 -0.1784
  624MOL0     C86009   3.897   6.054   9.283 -0.3228  0.2539 -0.0520
  624MOL0     O86010   3.943   6.019   9.157  0.9279  0.2367 -0.5752
  624MOL0     C86011   3.867   6.093   9.058  0.2859  0.2726 -0.1730
  624MOL0     C86012   3.905   6.046   8.917 -0.1045  0.8559 -0.1586
  624MOL0     C86013   3.788   6.083   8.813 -1.1241 -0.9868 -0.3017
  624MOL0     C86014   3.781   5.980   8.702 -1.4517 -0.3894  0.6558
  624MOL0     C86015   3.687   6.043   8.592 -0.6104 -0.8114 -0.3751
  624MOL0     C86016   3.682   5.945   8.474  0.5121 -0.2334  0.3174
  624MOL0     C86017   3.588   5.981   8.354 -0.1717 -0.7325  0.4228
  624MOL0     C86018   3.455   6.033   8.385 -0.1728 -1.2704  0.6401
  624MOL0    Cl86019   3.360   5.926   8.499 -0.1185 -0.2391  0.0473
  624MOL0     C86020   3.841   5.957   9.364 -0.2135  0.6206 -1.2075
  624MOL0     C86021   3.789   5.994   9.489  0.9849 -0.2688 -0.2777
  624MOL0     O86022   3.547   6.250   9.544 -0.2426 -0.1292  0.0612
  624MOL0     C86023   3.406   6.313   9.779  0.1705 -0.5535  0.9526
  624MOL0     C86024   3.326   6.329   9.894 -0.9060 -0.0704 -0.9886
  624MOL0     N86025   3.224   6.139  10.732 -0.5034  0.6760  1.2310
  624MOL0     N86026   3.178   6.233  10.808 -0.1408  0.6541  0.2217
  624MOL0     C86027   2.232   6.808  11.297  0.2971  0.1581 -0.2992
  624MOL0     C86028   2.105   6.757  11.320 -0.1643 -0.3404  0.3341
  624MOL0     C86029   1.786   6.523  11.552  0.5633 -0.4822  0.7401
  624MOL0     C86030   1.655   6.577  11.577  0.1590  0.4141 -0.8070
  624MOL0     C86031   1.553   6.493  11.615  0.1607 -0.4323  0.2351
  624MOL0     C86032   1.578   6.359  11.654 -0.5293  0.3017 -0.4314
  624MOL0     O86033   1.493   6.262  11.690  0.8139 -0.3513 -0.5067
  624MOL0     C86034   1.382   6.304  11.769  0.2454 -0.4769 -0.5955
  624MOL0     C86035   1.334   6.176  11.839 -0.3441  0.0426 -0.7113
  624MOL0     C86036   1.430   6.144  11.947 -0.2964  0.0614 -1.0734
  624MOL0     C86037   1.364   6.071  12.065  0.0642  0.6796  0.2947
  624MOL0     C86038   1.300   6.163  12.158 -0.3577 -0.3859 -0.4478
  624MOL0     C86039   1.250   6.239  12.237  0.0544  0.3001  0.1744
  624MOL0     C86040   1.711   6.309  11.650 -0.3806 -0.0719 -0.3241
  624MOL0     C86041   1.809   6.397  11.599 -0.5571  0.0784  0.6290
  624MOL0     C86042   1.948   6.335  11.619  0.0083 -0.4601  0.6010
  624MOL0     H86043   2.190   6.477  11.487 -1.3828  0.3365 -0.3821
  624MOL0     H86044   2.431   6.582  11.456  0.2414 -0.3481  0.1574
  624MOL0     H86045   2.575   6.847  11.138 -1.6185  2.6660  0.4424
  624MOL0     H86046   2.413   6.778  11.108 -0.9983 -0.1870 -0.1254
  624MOL0     H86047   2.489   6.557  11.169 -1.5843  2.3435  0.6842
  624MOL0     H86048   2.575   6.633  11.032 -0.3378 -0.2840  1.0538
  624MOL0     H86049   2.677   6.643  11.303 -3.5798  1.6644 -1.1014
  624MOL0     H86050   2.688   6.487  11.221 -0.1732  0.8813  4.2250
  624MOL0     H86051   2.791   6.720  11.060 -2.6070  0.0998  1.2203
  624MOL0     H86052   2.877   6.664  11.212 -1.2644 -1.6402  1.3653
  624MOL0     H86053   2.919   6.449  11.087  1.7767  1.2027  0.7231
  624MOL0     H86054   2.965   6.594  10.994 -0.7965  3.1546  1.7277
  624MOL0     H86055   2.698   6.454  10.970 -1.5657  4.3704  0.8543
  624MOL0     H86056   2.759   6.563  10.856  0.4919  0.9028  0.3217
  624MOL0     H86057   2.802   6.334  10.756  2.7354 -0.7386 -2.3879
  624MOL0     H86058   2.869   6.278  10.908 -2.8564  0.9065  2.3702
  624MOL0     H86059   2.986   6.491  10.733 -3.7532  0.9712  2.2021
  624MOL0     H86060   3.056   6.447  10.879 -3.0055  0.2112  1.9554
  624MOL0     H86061   2.993   6.285  10.539  0.9510 -0.4275 -0.5831
  624MOL0     H86062   3.113   5.958  10.523 -0.5666  2.1335  2.1657
  624MOL0     H86063   3.262   6.022  10.478  0.1296 -2.5290  1.5402
  624MOL0     H86064   3.059   6.005  10.312 -2.7087 -0.7107  1.4551
  624MOL0     H86065   2.969   6.120  10.412  0.0740  3.6780 -0.7269
  624MOL0     H86066   3.055   6.270  10.256  0.3221 -0.4918  0.9665
  624MOL0     H86067   3.182   6.292  10.373 -0.8627  0.2054  0.0420
  624MOL0     H86068   3.341   6.143  10.247  0.0314  2.0272  2.3306
  624MOL0     H86069   3.212   6.093  10.151 -0.1700  0.6447 -2.0619
  624MOL0     H86070   3.463   6.086  10.088 -1.3977  2.0287  0.6566
  624MOL0     H86071   3.557   5.940   9.952 -0.7624 -1.2179 -2.6334
  624MOL0     H86072   3.708   6.031   9.918  1.3037 -0.6134 -5.2316
  624MOL0     H86073   3.600   5.956   9.793 -0.5428 -1.7399  0.0216
  624MOL0     H86074   3.817   6.322   9.504  1.3651  0.3213 -1.0239
  624MOL0     H86075   3.917   6.264   9.266 -4.1459  1.6546  0.0026
  624MOL0     H86076   3.759   6.075   9.065  0.0194  0.2153 -3.3021
  624MOL0     H86077   3.883   6.200   9.073 -0.4168  0.3082  0.4420
  624MOL0     H86078   4.001   6.092   8.892  1.5497 -0.6685  2.7730
  624MOL0     H86079   3.912   5.937   8.924 -3.9535  0.5670  2.2617
  624MOL0     H86080   3.818   6.177   8.766 -0.8173 -0.1157  1.5370
  624MOL0     H86081   3.689   6.084   8.858 -0.6057  2.4159  1.1112
  624MOL0     H86082   3.756   5.883   8.747  1.8725 -1.0879  1.2858
  624MOL0     H86083   3.879   5.963   8.655 -1.1679  1.3122  0.5604
  624MOL0     H86084   3.587   6.064   8.630  0.0601  1.4341  0.3523
  624MOL0     H86085   3.719   6.139   8.548  2.5379 -0.7263  1.7983
  624MOL0     H86086   3.650   5.849   8.514 -3.6487  0.0487 -1.8057
  624MOL0     H86087   3.780   5.933   8.427  0.4726 -0.2409  0.2367
  624MOL0     H86088   3.582   5.888   8.297 -0.6056 -1.1725  1.1758
  624MOL0     H86089   3.641   6.059   8.298 -0.9026 -0.4532  0.0969
  624MOL0     H86090   3.391   6.043   8.296  0.0926  3.5017  0.7155
  624MOL0     H86091   3.474   6.139   8.405  3.6806 -1.2112 -2.2324
  624MOL0     H86092   3.835   5.855   9.326  0.5603  0.3857 -0.7199
  624MOL0     H86093   3.772   5.921   9.567 -2.2181 -0.2680 -0.8261
  624MOL0     H86094   3.379   6.368   9.688  4.0550 -0.9241 -0.6167
  624MOL0     H86095   3.248   6.404   9.889 -1.8639 -0.9610  0.0089
  624MOL0     H86096   2.221   6.893  11.231  1.2045  0.7861  0.3371
  624MOL0     H86097   2.022   6.791  11.260  0.4424  0.5025 -0.0428
  624MOL0     H86098   1.643   6.682  11.550 -0.5403  0.6448  0.3376
  624MOL0     H86099   1.455   6.533  11.639  0.9733  0.6964  1.9114
  624MOL0     H86100   1.401   6.372  11.853 -3.5089 -2.2539  1.9562
  624MOL0     H86101   1.318   6.353  11.696  3.4392 -0.6343 -3.7936
  624MOL0     H86102   1.338   6.095  11.765 -0.3531 -1.1309  0.5277
  624MOL0     H86103   1.234   6.197  11.877 -0.8112  0.3375 -2.0772
  624MOL0     H86104   1.514   6.080  11.919  0.6767 -1.1002  3.6385
  624MOL0     H86105   1.472   6.241  11.976 -0.4337  0.4009 -1.9691
  624MOL0     H86106   1.444   6.010  12.108  2.1719  2.4625 -0.8527
  624MOL0     H86107   1.291   6.007  12.016  0.4701  0.3666  0.1030
  624MOL0     H86108   1.194   6.305  12.300  0.4303  3.9092 -2.8993
  624MOL0     H86109   1.736   6.207  11.675  0.7682  0.3153  0.1723
  624MOL0     H86110   1.968   6.251  11.685  1.9314 -1.2237 -0.8407
  624MOL0     H86111   1.984   6.311  11.518 -2.5137 -2.7888  0.1385
  624MOL0     H86112   2.005   6.422  11.652 -1.2937  0.0008  1.7293
  625MOL0     O86113   5.914   6.372   7.737  0.0352  0.3234  0.4104
  625MOL0     C86114   5.818   6.392   7.666 -0.6667 -0.0214  0.3534
  625MOL0     O86115   5.775   6.519   7.632  0.1766 -0.2744  0.3835
  625MOL0     C86116   5.866   6.620   7.618 -0.4653 -0.5537 -0.3485
  625MOL0     C86117   6.000   6.605   7.561 -0.5725  0.7349 -0.1711
  625MOL0     C86118   6.097   6.698   7.585  0.1563 -0.9200  0.3969
  625MOL0     C86119   6.071   6.814   7.665  0.0484  0.6183 -0.1369
  625MOL0     O86120   6.173   6.902   7.682  0.5312  0.7631 -0.5112
  625MOL0     C86121   6.148   7.033   7.709  0.8637 -0.2707 -0.0825
  625MOL0     C86122   6.284   7.111   7.717 -0.4652 -0.7761 -0.2086
  625MOL0     C86123   6.355   7.151   7.589 -0.0586  0.7045  0.8919
  625MOL0     C86124   6.279   7.251   7.502  0.3323  0.5405 -0.4091
  625MOL0     C86125   6.352   7.284   7.367  0.4254 -0.5947  0.6707
  625MOL0     C86126   6.260   7.371   7.274 -0.2294  0.7021 -0.2456
  625MOL0     C86127   6.316   7.397   7.137 -1.0754  0.6873 -0.4496
  625MOL0     C86128   6.403   7.530   7.138  0.4581 -0.5019 -0.0339
  625MOL0     N86129   6.472   7.524   7.012  0.8629  0.3681  0.6739
  625MOL0     C86130   6.427   7.466   6.890  0.1664 -0.6119  0.0374
  625MOL0     C86131   6.527   7.507   6.802 -0.3592 -1.1402  1.0692
  625MOL0     C86132   6.529   7.469   6.655 -0.2553 -0.9158  0.4772
  625MOL0     C86133   6.655   7.387   6.620  0.0402  0.3899 -0.3168
  625MOL0     C86134   6.622   7.240   6.662  0.8309 -0.3580 -0.0637
  625MOL0     C86135   6.733   7.140   6.641  1.0764 -0.2751  0.5648
  625MOL0     O86136   6.855   7.172   6.699  0.3427 -0.9999  0.2912
  625MOL0     C86137   6.960   7.095   6.681  0.4622 -0.4539  0.6519
  625MOL0     C86138   6.952   6.962   6.623  0.1432  0.9674 -0.1721
  625MOL0     C86139   7.061   6.875   6.609  0.1172  0.2540 -0.2799
  625MOL0     C86140   7.032   6.728   6.574  0.1317  1.2767 -0.0074
  625MOL0     C86141   7.190   6.930   6.625 -0.7286 -0.7490  0.3683
  625MOL0     C86142   7.324   6.883   6.562  0.4568  0.2110 -1.0711
  625MOL0     O86143   7.315   6.777   6.468 -0.2244  0.3562  0.6345
  625MOL0     C86144   7.433   6.710   6.425 -0.2458 -1.2338  0.1157
  625MOL0     C86145   7.542   6.781   6.371 -0.4126  0.1697  0.1908
  625MOL0     C86146   7.671   6.713   6.348  1.2359 -0.1854 -0.1397
  625MOL0     C86147   7.681   6.583   6.378 -0.0742 -0.3060  0.4725
  625MOL0     O86148   7.792   6.515   6.362  0.2874 -0.3562 -0.0660
  625MOL0     C86149   7.812   6.454   6.237 -0.6084  0.0552  0.6983
  625MOL0     C86150   7.967   6.456   6.210  0.1928 -0.1501 -1.4838
  625MOL0     C86151   8.002   6.383   6.084 -1.1219  0.6640 -1.7285
  625MOL0     C86152   7.962   6.449   5.950 -0.7535 -0.3695 -0.3511
  625MOL0     C86153   8.011   6.350   5.837  0.4472 -0.0264  0.6238
  625MOL0     C86154   7.973   6.395   5.690 -0.6018 -0.6142 -0.1964
  625MOL0     C86155   7.826   6.406   5.666  0.5407  0.1305  0.7949
  625MOL0     C86156   7.795   6.460   5.527  0.2326 -0.0214 -0.2574
  625MOL0    Cl86157   7.616   6.474   5.492  0.4989  0.2398 -0.4967
  625MOL0     C86158   7.570   6.513   6.434  0.4202  0.4357 -0.0816
  625MOL0     C86159   7.450   6.575   6.459 -0.0875  0.4933  0.5158
  625MOL0     O86160   7.428   6.938   6.603  0.0839 -0.9205  1.0298
  625MOL0     C86161   7.197   7.064   6.680  0.7693 -0.3129 -0.0995
  625MOL0     C86162   7.092   7.139   6.712  1.3989  0.3219  0.0266
  625MOL0     N86163   6.628   7.570   6.878  0.1033 -0.3935  0.7046
  625MOL0     N86164   6.598   7.575   7.002 -1.4820  0.2650  0.3184
  625MOL0     C86165   5.937   6.830   7.712  0.8580 -0.6369 -0.5024
  625MOL0     C86166   5.841   6.736   7.688  0.1382  1.0715 -1.2346
  625MOL0     C86167   5.731   6.281   7.629 -0.5424 -0.4310  0.3004
  625MOL0     C86168   5.600   6.321   7.596  0.3726 -0.2474 -0.0773
  625MOL0     C86169   5.502   6.225   7.548  0.0289  0.2091 -0.4023
  625MOL0     C86170   5.533   6.092   7.548  0.1969  0.1971  0.6204
  625MOL0     O86171   5.434   6.012   7.497 -0.0548  0.7494 -0.0716
  625MOL0     C86172   5.456   5.871   7.489 -0.5787  0.5553 -0.5137
  625MOL0     C86173   5.345   5.788   7.425 -0.7968 -0.4341 -0.4562
  625MOL0     C86174   5.206   5.842   7.458  0.8936 -0.1981 -0.7421
  625MOL0     C86175   5.167   5.816   7.599  0.0468  0.0136  0.1075
  625MOL0     C86176   5.023   5.799   7.610 -0.1867  0.8692 -0.4766
  625MOL0     C86177   4.901   5.784   7.624 -0.7642 -0.8756 -0.2785
  625MOL0     C86178   5.661   6.050   7.584 -0.0386 -0.0011  0.1935
  625MOL0     C86179   5.758   6.147   7.629  1.0248  0.2490 -0.2491
  625MOL0     C86180   5.899   6.092   7.656 -0.1104  0.2093  0.2695
  625MOL0     H86181   6.029   6.509   7.519 -0.2948  0.6126  0.2962
  625MOL0     H86182   6.200   6.696   7.553  0.1958 -0.9935  0.5259
  625MOL0     H86183   6.102   7.044   7.808  1.3056  1.2989 -0.0207
  625MOL0     H86184   6.077   7.083   7.643  1.7218  2.9708  1.2406
  625MOL0     H86185   6.262   7.199   7.778  1.1854 -1.9462  2.2536
  625MOL0     H86186   6.351   7.053   7.782 -1.5249  0.5764  2.2419
  625MOL0     H86187   6.457   7.190   7.603  0.5721 -0.8698  0.8242
  625MOL0     H86188   6.367   7.059   7.532 -1.5421  0.9630  0.1157
  625MOL0     H86189   6.175   7.230   7.477  0.2786  2.9704 -2.6382
  625MOL0     H86190   6.287   7.352   7.544  2.8512  0.1467  0.1895
  625MOL0     H86191   6.385   7.194   7.313  2.3740  1.6802 -2.2632
  625MOL0     H86192   6.443   7.340   7.388 -1.4499  2.7754  0.6201
  625MOL0     H86193   6.163   7.322   7.278  1.2414 -2.4851 -0.4819
  625MOL0     H86194   6.251   7.471   7.318  0.2735 -0.0661  1.7148
  625MOL0     H86195   6.230   7.407   7.070  0.0391  0.2747 -1.9825
  625MOL0     H86196   6.373   7.311   7.101  0.1105  1.4519 -0.4524
  625MOL0     H86197   6.344   7.621   7.151  0.3690 -0.0184 -3.0464
  625MOL0     H86198   6.476   7.532   7.219  0.4932 -0.3321 -0.0684
  625MOL0     H86199   6.335   7.412   6.870  0.7429 -0.9081 -2.0837
  625MOL0     H86200   6.522   7.562   6.597  1.5067 -1.0898 -0.0659
  625MOL0     H86201   6.438   7.411   6.634  0.3858 -0.2268 -7.0929
  625MOL0     H86202   6.687   7.395   6.515 -0.8816  0.9517 -0.5627
  625MOL0     H86203   6.743   7.421   6.675  1.9483 -3.0492 -0.9210
  625MOL0     H86204   6.604   7.253   6.769  1.7772 -0.3326  0.1012
  625MOL0     H86205   6.527   7.216   6.613 -0.1973 -0.2963  1.8327
  625MOL0     H86206   6.698   7.045   6.682  1.0730 -0.5568 -0.0850
  625MOL0     H86207   6.747   7.121   6.534  3.2043 -2.0394  1.0769
  625MOL0     H86208   6.854   6.917   6.606 -0.6069  3.3587 -3.1891
  625MOL0     H86209   7.093   6.713   6.485 -0.9991 -0.0312 -0.6104
  625MOL0     H86210   6.931   6.706   6.538 -0.3240  1.4053  1.1445
  625MOL0     H86211   7.053   6.658   6.656 -0.9554 -0.8228 -1.4511
  625MOL0     H86212   7.528   6.886   6.350  0.8028  0.0254 -1.5936
  625MOL0     H86213   7.757   6.770   6.315  0.4380  1.0305 -0.1863
  625MOL0     H86214   7.773   6.352   6.243 -0.7946  0.1534  1.2349
  625MOL0     H86215   7.750   6.513   6.169 -2.3821 -0.0203  2.1598
  625MOL0     H86216   8.006   6.558   6.204 -0.2749 -0.0284 -2.9474
  625MOL0     H86217   8.023   6.404   6.288  1.9474  1.9874 -1.2371
  625MOL0     H86218   7.957   6.284   6.096 -0.4637  0.6277  1.4058
  625MOL0     H86219   8.111   6.379   6.088 -0.9038  0.9190  5.0978
  625MOL0     H86220   8.013   6.545   5.937 -0.4857 -0.1895  1.6025
  625MOL0     H86221   7.856   6.475   5.940 -0.3881  1.3158 -0.2364
  625MOL0     H86222   8.120   6.350   5.840  0.4767  2.1263  1.0290
  625MOL0     H86223   7.970   6.249   5.854  1.3471 -0.6270 -0.6332
  625MOL0     H86224   8.021   6.328   5.618 -1.4138 -1.4566  0.0221
  625MOL0     H86225   8.009   6.498   5.681 -2.1883 -0.1734 -2.0808
  625MOL0     H86226   7.767   6.451   5.745  1.6048 -1.3176  2.4963
  625MOL0     H86227   7.804   6.299   5.656  2.6772 -0.3847  1.0106
  625MOL0     H86228   7.846   6.397   5.453  2.6180  2.8544 -1.2779
  625MOL0     H86229   7.837   6.561   5.525  1.7969 -0.6018  0.9410
  625MOL0     H86230   7.588   6.415   6.476 -3.3380 -0.3159  0.0973
  625MOL0     H86231   7.370   6.518   6.504  0.6364 -0.0652  1.1266
  625MOL0     H86232   7.293   7.110   6.700  0.7679 -0.2371 -0.2671
  625MOL0     H86233   7.099   7.243   6.743 -1.3979  0.2619  1.2222
  625MOL0     H86234   5.917   6.913   7.780  0.9973 -0.6315 -0.4679
  625MOL0     H86235   5.746   6.746   7.739 -0.5263  0.9828 -2.4191
  625MOL0     H86236   5.564   6.423   7.602 -0.9894 -0.7075  0.0004
  625MOL0     H86237   5.401   6.251   7.516  0.0763  2.9120  1.3159
  625MOL0     H86238   5.548   5.855   7.431  1.3951 -1.2037  2.7621
  625MOL0     H86239   5.475   5.835   7.591 -3.3538  1.8427  0.5274
  625MOL0     H86240   5.366   5.690   7.470 -0.0357  1.1724  2.9629
  625MOL0     H86241   5.357   5.777   7.317 -1.0740 -2.3453 -0.3361
  625MOL0     H86242   5.188   5.946   7.429 -3.3489 -0.7786 -0.8194
  625MOL0     H86243   5.132   5.790   7.397 -0.4198 -0.9179  1.3702
  625MOL0     H86244   5.199   5.908   7.649 -1.1509  1.2650 -1.3094
  625MOL0     H86245   5.223   5.733   7.643  1.2081  0.9912  0.5076
  625MOL0     H86246   4.798   5.755   7.618 -0.7308 -1.7229  2.3153
  625MOL0     H86247   5.694   5.946   7.588  2.7803  0.7105 -1.4393
  625MOL0     H86248   5.971   6.160   7.611 -0.9188  1.9576  1.4915
  625MOL0     H86249   5.918   6.059   7.759  0.1744  0.9498  0.4562
  625MOL0     H86250   5.894   6.008   7.586 -2.5631 -0.8437  1.5693
  626MOL0     O86251  11.194   9.975   9.181 -0.9817 -0.3857 -0.0450
  626MOL0     C86252  11.309  10.024   9.188  0.3081 -0.0835  0.8057
  626MOL0     O86253  11.395  10.028   9.297 -0.5195 -0.0256 -0.0975
  626MOL0     C86254  11.360   9.952   9.414  0.7108  0.5448 -0.4410
  626MOL0     C86255  11.286  10.008   9.520 -1.5745  0.1944 -0.1677
  626MOL0     C86256  11.253   9.923   9.628  0.7827 -0.1819 -0.2688
  626MOL0     C86257  11.298   9.789   9.641  0.1098  0.3405  0.4646
  626MOL0     O86258  11.255   9.714   9.745  0.1251 -0.1855 -0.0929
  626MOL0     C86259  11.198   9.584   9.717 -0.3334  0.2987  0.0375
  626MOL0     C86260  11.078   9.584   9.812  0.2265  0.4916 -0.1436
  626MOL0     C86261  11.024   9.446   9.863 -0.8514 -0.5779  0.7354
  626MOL0     C86262  10.883   9.486   9.930  0.0922 -0.2458 -0.8944
  626MOL0     C86263  10.857   9.348  10.001 -0.8050 -0.7555 -0.0778
  626MOL0     C86264  10.713   9.326  10.031  0.6015 -0.7152 -0.5126
  626MOL0     C86265  10.676   9.404  10.162 -0.3829  0.3284  0.2745
  626MOL0     C86266  10.526   9.428  10.165 -0.2746 -0.6643  0.0474
  626MOL0     N86267  10.449   9.302  10.178 -0.1726  0.3891 -0.5801
  626MOL0     C86268  10.374   9.264  10.286 -0.2887  0.1021 -0.8894
  626MOL0     C86269  10.297   9.161  10.248  0.6287 -0.6363  0.5337
  626MOL0     C86270  10.195   9.089  10.335  0.0921 -0.8318 -0.1973
  626MOL0     C86271  10.085   9.191  10.363  0.5756  0.2798 -0.5286
  626MOL0     C86272   9.957   9.143  10.451  0.2960  0.4103  0.5681
  626MOL0     C86273   9.873   9.036  10.393  0.7853  0.6250  0.4232
  626MOL0     O86274   9.816   9.063  10.264 -0.7497  0.0620 -0.0255
  626MOL0     C86275   9.744   8.971  10.201  1.4028  1.2434  0.4398
  626MOL0     C86276   9.804   8.877  10.121  0.9031 -0.1691  0.2938
  626MOL0     C86277   9.720   8.782  10.049 -0.3387  0.2998  0.5028
  626MOL0     C86278   9.791   8.675   9.966  0.3953  0.4563 -0.5255
  626MOL0     C86279   9.581   8.785  10.056 -0.3800  1.4465  0.5597
  626MOL0     C86280   9.503   8.698   9.974 -0.6636  0.6573  1.0467
  626MOL0     O86281   9.466   8.581  10.043  0.4346  0.4506 -0.4729
  626MOL0     C86282   9.410   8.471   9.971 -0.5782  1.9608 -1.0995
  626MOL0     C86283   9.358   8.360  10.043  0.4010 -0.8432  0.8458
  626MOL0     C86284   9.304   8.249   9.984 -0.2718  0.9927 -0.3451
  626MOL0     C86285   9.314   8.232   9.840  1.0575 -0.5104 -0.7893
  626MOL0     O86286   9.270   8.121   9.780  0.4427 -0.4843 -0.1023
  626MOL0     C86287   9.342   8.071   9.662 -0.0154 -0.2022 -0.1380
  626MOL0     C86288   9.337   7.915   9.653  0.5083  0.6672  0.7278
  626MOL0     C86289   9.438   7.872   9.537  0.6053 -0.1237 -0.3710
  626MOL0     C86290   9.462   7.722   9.548  0.9480 -0.2364  0.1822
  626MOL0     C86291   9.555   7.696   9.660 -1.0711 -0.7678  0.2484
  626MOL0     C86292   9.593   7.543   9.662 -0.5547  0.6627  1.6702
  626MOL0     C86293   9.636   7.506   9.804 -0.7660 -0.5348 -0.1226
  626MOL0     C86294   9.642   7.352   9.836  0.8408 -0.3088  0.8942
  626MOL0    Cl86295   9.760   7.282   9.720 -0.6993  0.0178 -0.4130
  626MOL0     C86296   9.397   8.327   9.768 -0.3025  0.9519 -0.4397
  626MOL0     C86297   9.439   8.441   9.838  0.4109  0.6429 -1.4591
  626MOL0     O86298   9.455   8.733   9.869 -0.3969  0.5168 -0.5328
  626MOL0     C86299   9.519   8.883  10.133 -0.8393  0.2802 -0.1387
  626MOL0     C86300   9.601   8.976  10.200 -0.8457 -1.1007  0.3800
  626MOL0     N86301  10.328   9.135  10.107  0.2779  0.1473  0.2319
  626MOL0     N86302  10.410   9.227  10.070  0.0838 -0.2372 -0.3260
  626MOL0     C86303  11.388   9.754   9.546 -0.8655 -0.1677 -0.1634
  626MOL0     C86304  11.418   9.831   9.434  0.3128 -0.0744 -0.6391
  626MOL0     C86305  11.349  10.111   9.079 -0.0426 -0.1916 -0.0028
  626MOL0     C86306  11.486  10.142   9.063  0.2756 -0.7332 -1.2063
  626MOL0     C86307  11.530  10.231   8.964 -0.5249  0.8072 -0.4772
  626MOL0     C86308  11.431  10.290   8.871 -0.0898  0.0468 -0.3944
  626MOL0     O86309  11.456  10.378   8.772  0.0761 -0.3139  0.6886
  626MOL0     C86310  11.586  10.415   8.751 -0.1463 -0.6929 -0.9855
  626MOL0     C86311  11.603  10.493   8.627 -0.0986 -0.1499  0.2744
  626MOL0     C86312  11.526  10.625   8.632 -1.0814  0.0998 -0.1054
  626MOL0     C86313  11.608  10.737   8.577  0.0150 -0.6092 -0.2069
  626MOL0     C86314  11.635  10.725   8.427 -0.3807 -0.7865 -0.4127
  626MOL0     C86315  11.653  10.728   8.305 -0.5509 -0.2860 -0.3063
  626MOL0     C86316  11.305  10.247   8.883 -0.1949 -0.3517  1.2347
  626MOL0     C86317  11.261  10.157   8.983  0.0511 -0.5234 -0.4930
  626MOL0     C86318  11.103  10.125   8.971 -0.0902  0.9223 -0.4575
  626MOL0     H86319  11.260  10.113   9.507  1.7755  0.8774 -3.3103
  626MOL0     H86320  11.177   9.956   9.698  1.5900 -1.7071  1.3914
  626MOL0     H86321  11.271   9.507   9.742  0.2851  0.4959 -1.0748
  626MOL0     H86322  11.161   9.571   9.614  1.2849 -0.6473 -0.4608
  626MOL0     H86323  11.101   9.646   9.899 -1.3229 -0.5461  1.0642
  626MOL0     H86324  10.988   9.616   9.759  1.3782 -2.0602 -4.0118
  626MOL0     H86325  11.020   9.372   9.783 -1.8294  0.9003 -0.6380
  626MOL0     H86326  11.092   9.416   9.944 -1.2018 -0.7529  0.9732
  626MOL0     H86327  10.887   9.568  10.003  0.3598 -0.8072 -0.2591
  626MOL0     H86328  10.822   9.519   9.846  1.3244  0.7519 -1.4263
  626MOL0     H86329  10.920   9.345  10.091  0.8583 -0.1599 -1.1679
  626MOL0     H86330  10.889   9.266   9.936 -3.3137 -1.9480  0.0874
  626MOL0     H86331  10.654   9.363   9.947  1.9516  4.2188  0.4114
  626MOL0     H86332  10.698   9.218  10.044  2.9382 -0.8849  1.7588
  626MOL0     H86333  10.710   9.507  10.164 -2.1198  0.9593 -0.5462
  626MOL0     H86334  10.699   9.351  10.255  0.3888 -0.4327 -0.3357
  626MOL0     H86335  10.501   9.493  10.249 -3.4320  0.3266 -1.4948
  626MOL0     H86336  10.479   9.475  10.078 -1.4939  1.6378  1.8607
  626MOL0     H86337  10.369   9.309  10.385  2.7425 -2.1441  0.4514
  626MOL0     H86338  10.238   9.040  10.424 -0.3209 -2.0368 -0.6461
  626MOL0     H86339  10.157   9.012  10.268 -1.2264 -1.7557  1.5237
  626MOL0     H86340  10.126   9.282  10.408 -2.3151  1.0625  0.7659
  626MOL0     H86341  10.054   9.220  10.262  2.1399 -0.8503 -1.3765
  626MOL0     H86342  10.001   9.112  10.546  0.5876  1.9420  0.9636
  626MOL0     H86343   9.890   9.227  10.472  0.7380  0.6448  1.0671
  626MOL0     H86344   9.932   8.944  10.381 -1.9452 -1.4821  1.9789
  626MOL0     H86345   9.793   9.016  10.464  1.9186  1.0512  1.8713
  626MOL0     H86346   9.912   8.882  10.134  0.5824  0.7520  3.8162
  626MOL0     H86347   9.741   8.579   9.982  1.8999 -0.1065  1.1897
  626MOL0     H86348   9.894   8.668  10.002  0.1717  0.4638  0.1240
  626MOL0     H86349   9.781   8.684   9.857 -1.3723 -1.6592 -0.6099
  626MOL0     H86350   9.343   8.377  10.149 -0.5875  0.1416  0.5652
  626MOL0     H86351   9.258   8.166  10.037 -0.3314  1.3071  0.1034
  626MOL0     H86352   9.292   8.115   9.575  1.4918 -2.0525 -2.0487
  626MOL0     H86353   9.445   8.105   9.661  0.2504 -0.7550  2.4214
  626MOL0     H86354   9.363   7.880   9.753 -0.3580 -0.0047  0.7307
  626MOL0     H86355   9.236   7.878   9.637 -0.0126  1.9826  0.8291
  626MOL0     H86356   9.535   7.923   9.541  1.0184 -0.6756 -2.4558
  626MOL0     H86357   9.391   7.898   9.442 -2.0277 -5.4902 -0.9090
  626MOL0     H86358   9.498   7.693   9.449 -0.9901 -0.0341 -0.6345
  626MOL0     H86359   9.368   7.673   9.576  1.0695 -0.6201 -0.0746
  626MOL0     H86360   9.643   7.761   9.655 -3.2818  2.5386  1.1992
  626MOL0     H86361   9.510   7.704   9.759  0.4369 -1.9158  1.0685
  626MOL0     H86362   9.677   7.510   9.600 -3.8661 -1.6193 -2.0534
  626MOL0     H86363   9.509   7.486   9.622 -0.1120  1.6541 -0.8682
  626MOL0     H86364   9.550   7.540   9.862 -0.1424  1.9485 -0.5443
  626MOL0     H86365   9.728   7.563   9.819 -2.9631  3.6610 -0.9806
  626MOL0     H86366   9.545   7.303   9.830  0.6688 -0.1644  2.3244
  626MOL0     H86367   9.671   7.328   9.938  2.3705 -0.7166  0.3988
  626MOL0     H86368   9.423   8.307   9.665  2.8805 -4.2558  0.9953
  626MOL0     H86369   9.498   8.516   9.786 -0.9729  1.8181 -1.3801
  626MOL0     H86370   9.410   8.887  10.130 -0.9204 -1.0378 -3.0376
  626MOL0     H86371   9.557   9.060  10.253 -4.7339 -0.6779 -3.0155
  626MOL0     H86372  11.453   9.669   9.563  0.2602  0.1253 -2.5290
  626MOL0     H86373  11.485   9.784   9.363 -3.0041 -2.5576 -2.4118
  626MOL0     H86374  11.563  10.092   9.121  0.1438  1.6133  1.1707
  626MOL0     H86375  11.636  10.239   8.947 -0.2114 -1.6495  0.0110
  626MOL0     H86376  11.617  10.473   8.838 -0.2673 -1.1090 -0.6608
  626MOL0     H86377  11.648  10.325   8.745  0.1979 -0.9347  3.2445
  626MOL0     H86378  11.564  10.437   8.541  0.4926 -0.0407 -0.0741
  626MOL0     H86379  11.709  10.508   8.604 -0.5381  0.9761 -1.1400
  626MOL0     H86380  11.430  10.617   8.580 -0.4787 -1.6788 -1.0446
  626MOL0     H86381  11.500  10.634   8.738  0.6870 -1.6278  0.5374
  626MOL0     H86382  11.705  10.743   8.627  0.5584  0.7170 -1.3356
  626MOL0     H86383  11.564  10.835   8.602  2.6124  0.6263 -0.0759
  626MOL0     H86384  11.677  10.734   8.201 -1.8860  0.8383 -0.5701
  626MOL0     H86385  11.251  10.279   8.795  2.6337 -3.6835 -2.0520
  626MOL0     H86386  11.049  10.157   9.060 -2.8338  2.4932 -2.5491
  626MOL0     H86387  11.068  10.199   8.899 -2.0350  0.4523 -0.0397
  626MOL0     H86388  11.077  10.023   8.941  2.1535 -0.2159  1.0805
  627MOL0     O86389   7.890   6.713   2.899  0.6266  0.3781 -0.0982
  627MOL0     C86390   8.001   6.715   2.949 -0.4422  0.0889 -0.2465
  627MOL0     O86391   8.060   6.616   3.024  0.8261  0.4786 -0.3021
  627MOL0     C86392   7.993   6.506   3.063 -1.1438  0.4694 -0.6449
  627MOL0     C86393   8.002   6.379   2.988 -0.2273 -0.3213  0.9684
  627MOL0     C86394   7.935   6.265   3.030  0.8777  0.2583  0.1242
  627MOL0     C86395   7.850   6.269   3.143  0.5272 -0.7097 -0.1993
  627MOL0     O86396   7.807   6.147   3.182  0.5802  0.4263  0.0540
  627MOL0     C86397   7.703   6.146   3.283 -0.3618  0.8974  0.0597
  627MOL0     C86398   7.671   5.998   3.318 -0.1188  1.0581 -0.5363
  627MOL0     C86399   7.664   5.974   3.465 -0.6164 -0.0133 -0.9077
  627MOL0     C86400   7.684   5.834   3.507  0.9063  0.2424 -0.0972
  627MOL0     C86401   7.654   5.808   3.648  0.2348 -0.4710 -0.1573
  627MOL0     C86402   7.610   5.654   3.665 -0.5812 -0.0206  0.8914
  627MOL0     C86403   7.587   5.623   3.813 -0.1662  1.2430 -0.3501
  627MOL0     C86404   7.437   5.652   3.843  1.0179 -1.0444  0.0104
  627MOL0     N86405   7.347   5.558   3.769 -0.5189  0.0237  0.3004
  627MOL0     C86406   7.279   5.589   3.657  0.3659  0.2313 -0.6272
  627MOL0     C86407   7.255   5.467   3.610  0.4433  0.4530  0.4036
  627MOL0     C86408   7.179   5.425   3.486 -0.4971 -0.5585 -0.3257
  627MOL0     C86409   7.257   5.395   3.363 -0.6877 -0.3788  0.2027
  627MOL0     C86410   7.181   5.311   3.264  0.4982 -0.0628  0.6759
  627MOL0     C86411   7.282   5.248   3.162 -0.2684 -1.5723 -0.1568
  627MOL0     O86412   7.358   5.135   3.228 -0.3206  0.3004 -1.0367
  627MOL0     C86413   7.290   5.023   3.236  1.1010  0.1917  0.6887
  627MOL0     C86414   7.286   4.944   3.130  1.0919 -0.9105  0.0582
  627MOL0     C86415   7.235   4.817   3.136  0.8361 -0.4463 -0.2979
  627MOL0     C86416   7.230   4.735   3.002  0.2730 -0.1044 -0.3622
  627MOL0     C86417   7.177   4.767   3.255 -0.1439  0.2584 -0.3947
  627MOL0     C86418   7.088   4.644   3.280 -0.1412 -0.0071 -0.6898
  627MOL0     O86419   6.998   4.655   3.383  0.1767 -0.3031  0.4171
  627MOL0     C86420   6.906   4.565   3.423  0.0209 -0.4186 -0.6134
  627MOL0     C86421   6.837   4.627   3.533  0.0902  0.1609  0.0901
  627MOL0     C86422   6.735   4.552   3.592  0.4559  0.3366  0.1749
  627MOL0     C86423   6.684   4.426   3.537 -1.2721 -0.3766 -0.3194
  627MOL0     O86424   6.573   4.382   3.607  0.7612  0.3696  0.6478
  627MOL0     C86425   6.568   4.249   3.650  0.2389  0.3526  0.5639
  627MOL0     C86426   6.650   4.240   3.771 -0.1569  0.2014  0.0819
  627MOL0     C86427   6.559   4.273   3.890 -0.0315 -0.6512 -0.2145
  627MOL0     C86428   6.665   4.342   3.995  0.3502 -0.0371  0.8697
  627MOL0     C86429   6.603   4.407   4.122 -0.4405  0.6977  0.1777
  627MOL0     C86430   6.707   4.448   4.225 -0.7342  0.8895 -0.5010
  627MOL0     C86431   6.787   4.575   4.191  0.3575  0.0670  0.0119
  627MOL0     C86432   6.866   4.631   4.307 -0.4875  0.3644 -0.6469
  627MOL0    Cl86433   6.988   4.524   4.379 -0.1106 -0.0934 -0.3301
  627MOL0     C86434   6.756   4.371   3.423  1.1662 -0.7507 -0.5712
  627MOL0     C86435   6.873   4.434   3.381  0.0859 -0.8910  0.0915
  627MOL0     O86436   7.103   4.540   3.209  0.0667 -1.8217 -0.4375
  627MOL0     C86437   7.184   4.860   3.365  0.1546  0.0847 -0.9691
  627MOL0     C86438   7.230   4.990   3.348  0.1374 -0.8259 -0.6929
  627MOL0     N86439   7.296   5.366   3.691 -0.4092 -0.1613 -0.1199
  627MOL0     N86440   7.355   5.425   3.788  0.3526 -0.8577 -0.1195
  627MOL0     C86441   7.830   6.392   3.210 -0.5423 -0.4047 -0.1037
  627MOL0     C86442   7.898   6.510   3.163  0.1209  0.6351  0.1809
  627MOL0     C86443   8.083   6.843   2.945  0.4265  0.8916 -0.8482
  627MOL0     C86444   8.004   6.963   2.941 -0.0447 -0.8311  0.6240
  627MOL0     C86445   8.068   7.088   2.958  0.3354  0.4802 -0.4162
  627MOL0     C86446   8.206   7.088   2.991  0.4367 -0.4698 -0.5934
  627MOL0     O86447   8.265   7.203   3.038  0.4826  0.2752 -0.0763
  627MOL0     C86448   8.176   7.315   3.079 -0.3781  0.2501  0.1818
  627MOL0     C86449   8.154   7.313   3.223 -0.0853 -0.5255  0.6550
  627MOL0     C86450   8.070   7.433   3.254  0.0682  0.1137 -0.3959
  627MOL0     C86451   8.053   7.448   3.398  0.5171 -0.2096  0.0794
  627MOL0     C86452   8.004   7.588   3.436 -0.4677  0.5946  0.3667
  627MOL0     C86453   7.963   7.699   3.462 -0.3670 -0.6674  0.5520
  627MOL0     C86454   8.287   6.970   2.986  0.6120 -0.2600 -0.1201
  627MOL0     C86455   8.214   6.853   2.958 -0.7794  0.0666 -1.0889
  627MOL0     C86456   8.300   6.727   2.954 -0.3642  0.4140 -0.1918
  627MOL0     H86457   8.050   6.383   2.890 -0.5924 -2.6571  0.6285
  627MOL0     H86458   7.937   6.176   2.969  2.3364 -1.3917  2.4307
  627MOL0     H86459   7.612   6.187   3.239  0.3191  0.2561 -2.0724
  627MOL0     H86460   7.744   6.200   3.369 -1.1087 -1.5809  2.1137
  627MOL0     H86461   7.579   5.965   3.270  1.2100 -0.2012 -2.3408
  627MOL0     H86462   7.753   5.937   3.280 -0.5649 -0.6759  1.1175
  627MOL0     H86463   7.744   6.025   3.520 -0.4226 -0.7010 -0.5345
  627MOL0     H86464   7.571   6.014   3.507  0.2146  0.2349  0.7680
  627MOL0     H86465   7.626   5.795   3.423  0.6988  2.1542 -0.8970
  627MOL0     H86466   7.786   5.795   3.496  0.0087 -1.7464 -1.9681
  627MOL0     H86467   7.582   5.879   3.690 -0.0569  1.4047 -3.4236
  627MOL0     H86468   7.752   5.819   3.695  0.2194 -1.7468  0.1986
  627MOL0     H86469   7.529   5.625   3.597 -0.2287 -1.2622  0.9600
  627MOL0     H86470   7.692   5.596   3.623  0.3459  2.6167 -1.2114
  627MOL0     H86471   7.660   5.677   3.874  1.3363 -1.1202  0.1092
  627MOL0     H86472   7.609   5.516   3.821 -1.3109  1.0067 -0.2181
  627MOL0     H86473   7.408   5.639   3.948 -2.0437  2.0201 -0.3022
  627MOL0     H86474   7.397   5.751   3.819 -3.7663 -2.8343 -0.4369
  627MOL0     H86475   7.249   5.680   3.605 -3.3360  1.1354  2.6266
  627MOL0     H86476   7.118   5.512   3.460  2.8926  3.3952  3.4496
  627MOL0     H86477   7.123   5.340   3.527  0.1631  0.1284  2.1322
  627MOL0     H86478   7.293   5.489   3.321  0.3218 -0.5587  0.6572
  627MOL0     H86479   7.350   5.343   3.387 -1.5286 -2.5699 -0.9640
  627MOL0     H86480   7.118   5.233   3.308  0.1851 -0.0403  0.2702
  627MOL0     H86481   7.115   5.378   3.208 -1.6962 -3.5073 -1.1805
  627MOL0     H86482   7.241   5.222   3.064 -1.8409  2.4168 -0.7504
  627MOL0     H86483   7.345   5.335   3.140 -4.3696  1.9696  0.8482
  627MOL0     H86484   7.325   4.977   3.034 -1.6397  1.2701 -0.4198
  627MOL0     H86485   7.317   4.669   2.996  0.7064  0.3266  0.8791
  627MOL0     H86486   7.234   4.798   2.913 -0.2023  1.4854  0.7048
  627MOL0     H86487   7.146   4.665   3.008 -0.6503  1.0558  0.9891
  627MOL0     H86488   6.867   4.721   3.579  0.2280 -0.3137  0.9897
  627MOL0     H86489   6.678   4.601   3.670 -1.9664 -3.6556  1.2180
  627MOL0     H86490   6.470   4.204   3.670  0.8930 -1.5970 -0.2948
  627MOL0     H86491   6.602   4.190   3.564 -1.7265 -0.5730  0.3778
  627MOL0     H86492   6.689   4.137   3.774 -0.4867  0.0535 -0.6264
  627MOL0     H86493   6.733   4.310   3.756 -0.6858  0.4132 -2.0966
  627MOL0     H86494   6.518   4.186   3.941 -0.5903  0.0073  0.4706
  627MOL0     H86495   6.478   4.343   3.869  0.5185  0.6636  1.7162
  627MOL0     H86496   6.715   4.421   3.937 -2.5874  0.3201 -1.4014
  627MOL0     H86497   6.728   4.259   4.025 -1.3776 -2.1567 -1.0213
  627MOL0     H86498   6.536   4.485   4.084 -2.1118 -1.1115 -0.7683
  627MOL0     H86499   6.545   4.331   4.174  2.5769 -1.1352  1.1358
  627MOL0     H86500   6.769   4.360   4.242 -1.3782 -1.0141 -6.1206
  627MOL0     H86501   6.652   4.452   4.320  0.4532 -5.0845  0.8679
  627MOL0     H86502   6.712   4.647   4.157  1.7681  2.4066  1.5368
  627MOL0     H86503   6.859   4.562   4.110 -1.5246 -5.8188 -1.2078
  627MOL0     H86504   6.794   4.654   4.387 -1.4406 -2.7169 -0.4846
  627MOL0     H86505   6.927   4.713   4.267  2.0192 -0.3671  1.4199
  627MOL0     H86506   6.719   4.282   3.374 -2.2749  0.2757 -0.1141
  627MOL0     H86507   6.922   4.399   3.291  0.9475  0.2989  0.0621
  627MOL0     H86508   7.151   4.825   3.462 -2.9876 -1.6079 -2.4957
  627MOL0     H86509   7.231   5.059   3.432 -2.3000 -3.7148  1.9908
  627MOL0     H86510   7.771   6.394   3.302  0.5668  0.4243  0.6187
  627MOL0     H86511   7.897   6.604   3.219  0.5488 -0.3012  1.8328
  627MOL0     H86512   7.897   6.953   2.926 -0.2928  0.9051  1.0498
  627MOL0     H86513   7.991   7.164   2.962 -2.8001 -2.3330 -2.2069
  627MOL0     H86514   8.230   7.405   3.052 -3.0451  1.3110 -2.1227
  627MOL0     H86515   8.086   7.319   3.017  1.9888 -3.6966 -4.1274
  627MOL0     H86516   8.245   7.311   3.283  0.5299 -0.8358 -0.2673
  627MOL0     H86517   8.089   7.226   3.241  0.0490 -0.5936  0.8084
  627MOL0     H86518   8.109   7.525   3.210  2.5570 -0.6936 -0.0190
  627MOL0     H86519   7.970   7.427   3.210  0.5192 -2.7699 -1.2672
  627MOL0     H86520   8.154   7.445   3.440  1.3431  1.9459 -1.5463
  627MOL0     H86521   7.990   7.366   3.432  2.8789 -1.8151  0.8017
  627MOL0     H86522   7.927   7.795   3.492 -1.8605  0.0809 -3.0475
  627MOL0     H86523   8.388   6.977   3.023  1.0347  2.4033 -1.5326
  627MOL0     H86524   8.295   6.691   3.057  0.4701  2.0300  0.4465
  627MOL0     H86525   8.261   6.650   2.886 -2.2248  0.4258  0.8022
  627MOL0     H86526   8.406   6.735   2.927 -0.7282 -1.5922 -2.5452
  628MOL0     O86527   1.119   2.930   1.690  0.5403 -0.6198 -0.4787
  628MOL0     C86528   1.032   2.959   1.769 -0.5442  0.6264 -0.3346
  628MOL0     O86529   1.056   3.029   1.888 -0.2829  0.0864 -0.1958
  628MOL0     C86530   1.166   3.107   1.892 -1.5932 -0.0944 -0.4702
  628MOL0     C86531   1.263   3.086   1.988  0.0599  0.6929  0.5592
  628MOL0     C86532   1.372   3.174   2.013 -0.3408 -0.3750  0.2608
  628MOL0     C86533   1.395   3.276   1.925 -0.2006 -1.1848 -0.3938
  628MOL0     O86534   1.511   3.354   1.948  0.2186 -0.0878  0.8120
  628MOL0     C86535   1.522   3.483   1.884  0.5491  0.1360 -0.4386
  628MOL0     C86536   1.660   3.555   1.885  0.1848  0.2955  0.2307
  628MOL0     C86537   1.758   3.482   1.797  0.5424 -0.6457 -0.0223
  628MOL0     C86538   1.746   3.533   1.648 -0.4956  1.2132 -0.4032
  628MOL0     C86539   1.818   3.429   1.549 -0.3028 -1.6850  0.0307
  628MOL0     C86540   1.737   3.289   1.551 -0.0030 -0.4359  0.0233
  628MOL0     C86541   1.814   3.172   1.484 -0.8400 -1.3071  0.0611
  628MOL0     C86542   1.854   3.238   1.349 -0.0606  0.5976 -0.9407
  628MOL0     N86543   1.909   3.133   1.261 -0.1001  0.1335  0.0525
  628MOL0     C86544   2.032   3.072   1.283 -0.3847 -0.7404 -0.4201
  628MOL0     C86545   2.047   2.989   1.184 -0.2201 -0.3945  0.3583
  628MOL0     C86546   2.158   2.891   1.175  0.8462  0.0743  0.5354
  628MOL0     C86547   2.169   2.783   1.284 -0.6270  0.3511  0.5793
  628MOL0     C86548   2.282   2.826   1.380 -0.0300 -0.2240  0.3236
  628MOL0     C86549   2.319   2.755   1.515 -0.4380  0.1980 -0.3468
  628MOL0     O86550   2.387   2.844   1.611  0.2059  0.5330  0.5549
  628MOL0     C86551   2.315   2.940   1.684  0.7048 -0.3245 -0.5845
  628MOL0     C86552   2.377   3.002   1.796 -0.3915  0.8772  1.2542
  628MOL0     C86553   2.308   3.090   1.874  0.2688 -0.3636  0.2173
  628MOL0     C86554   2.389   3.143   1.987  0.0043 -0.5051  0.8607
  628MOL0     C86555   2.175   3.129   1.843  0.1202 -0.4676  0.4981
  628MOL0     C86556   2.098   3.243   1.910 -0.3314  0.5599 -0.1770
  628MOL0     O86557   2.117   3.257   2.044 -0.7186 -0.5571  0.7550
  628MOL0     C86558   2.029   3.344   2.104 -0.3058 -0.2375 -0.6799
  628MOL0     C86559   1.919   3.284   2.170  0.1467  0.1163  0.4372
  628MOL0     C86560   1.829   3.372   2.247 -0.1930  0.7958 -0.5276
  628MOL0     C86561   1.843   3.504   2.237  1.1010 -0.8765  0.2951
  628MOL0     O86562   1.759   3.586   2.314  0.5135 -0.1522 -0.2649
  628MOL0     C86563   1.750   3.568   2.457  0.4922  0.0538  0.1587
  628MOL0     C86564   1.864   3.651   2.530 -0.0181  0.8898  0.5543
  628MOL0     C86565   1.834   3.686   2.674  0.9215 -0.3163 -0.8288
  628MOL0     C86566   1.740   3.811   2.686 -1.3445  0.4336  0.6891
  628MOL0     C86567   1.731   3.862   2.833 -0.3027 -0.1220 -0.1275
  628MOL0     C86568   1.623   3.963   2.846 -0.4361  0.0905  0.0521
  628MOL0     C86569   1.573   3.991   2.993  0.3000 -0.2393  0.6318
  628MOL0     C86570   1.441   4.074   2.993 -0.2252  0.9164  0.6040
  628MOL0    Cl86571   1.303   3.981   2.926 -0.5384 -0.2931  0.0005
  628MOL0     C86572   1.948   3.564   2.171  0.3809 -0.5510  0.3560
  628MOL0     C86573   2.045   3.485   2.100  0.7337 -0.4305  1.2322
  628MOL0     O86574   2.022   3.312   1.839 -0.8925  0.3816  0.0509
  628MOL0     C86575   2.112   3.062   1.739 -0.4471  0.3834  0.0432
  628MOL0     C86576   2.185   2.967   1.660 -0.1027  0.2077  0.0507
  628MOL0     N86577   1.933   3.002   1.101 -0.4163 -0.7900 -0.2287
  628MOL0     N86578   1.847   3.077   1.156  0.6674  1.2648  0.9552
  628MOL0     C86579   1.303   3.287   1.814 -0.5852 -0.2495 -0.1470
  628MOL0     C86580   1.195   3.208   1.808 -0.0458  0.0542 -0.3435
  628MOL0     C86581   0.899   2.894   1.735 -0.0658 -0.7041  0.7235
  628MOL0     C86582   0.794   2.923   1.828  0.3538  0.5589  0.5852
  628MOL0     C86583   0.673   2.852   1.827 -0.1710 -1.1755  0.2257
  628MOL0     C86584   0.644   2.763   1.718  0.5932 -0.8054  0.4413
  628MOL0     O86585   0.520   2.701   1.725 -0.2629 -0.7225  0.4865
  628MOL0     C86586   0.451   2.668   1.604 -0.3299 -0.9304 -0.2819
  628MOL0     C86587   0.416   2.793   1.521  0.8897  0.4905  0.3160
  628MOL0     C86588   0.352   2.753   1.385  1.0040 -0.3475 -0.0928
  628MOL0     C86589   0.439   2.814   1.271 -0.4334  0.2956  0.0873
  628MOL0     C86590   0.567   2.751   1.260 -0.7376  1.1757  0.3769
  628MOL0     C86591   0.657   2.667   1.249  0.1981  0.2581 -0.1519
  628MOL0     C86592   0.736   2.760   1.615 -0.0702 -0.2135  0.3858
  628MOL0     C86593   0.863   2.816   1.619  0.0105 -0.4183  0.0631
  628MOL0     C86594   0.953   2.787   1.503  0.1143  0.3966  0.2661
  628MOL0     H86595   1.238   3.015   2.067  0.1312  1.0686  0.9240
  628MOL0     H86596   1.438   3.160   2.098 -0.2608 -1.8146 -0.0147
  628MOL0     H86597   1.449   3.549   1.932  2.4149  1.8441  0.1532
  628MOL0     H86598   1.511   3.465   1.777  3.7239 -2.2716 -0.5162
  628MOL0     H86599   1.646   3.661   1.861 -1.3332  0.1432  0.3421
  628MOL0     H86600   1.709   3.557   1.982  1.3698  1.6914 -0.3596
  628MOL0     H86601   1.859   3.507   1.832  0.4298 -1.1653  0.7178
  628MOL0     H86602   1.747   3.374   1.811 -0.5275 -0.5648 -0.2127
  628MOL0     H86603   1.643   3.557   1.620 -0.3481  4.4855  1.4180
  628MOL0     H86604   1.792   3.632   1.650  2.8320 -0.1973  2.9563
  628MOL0     H86605   1.920   3.407   1.583  0.3609 -2.0179 -2.0393
  628MOL0     H86606   1.832   3.476   1.451  0.3886 -0.7902  0.5451
  628MOL0     H86607   1.726   3.244   1.650  3.1599 -2.3717 -0.3501
  628MOL0     H86608   1.641   3.305   1.501 -0.5662  1.1388  1.5443
  628MOL0     H86609   1.750   3.087   1.460 -2.1581 -0.7211  1.3285
  628MOL0     H86610   1.901   3.142   1.544  0.1359 -0.5916 -0.9495
  628MOL0     H86611   1.775   3.296   1.299 -2.5368 -3.2398 -1.9265
  628MOL0     H86612   1.933   3.309   1.374  0.3844 -0.6335  1.3658
  628MOL0     H86613   2.102   3.090   1.364  0.2571  1.8948 -1.4620
  628MOL0     H86614   2.241   2.962   1.166 -0.8098  1.8447 -3.4263
  628MOL0     H86615   2.149   2.848   1.074  2.6841 -1.2418  0.8850
  628MOL0     H86616   2.072   2.762   1.328 -0.9168 -3.1519 -1.3998
  628MOL0     H86617   2.189   2.690   1.229 -3.3069 -0.7356  1.3258
  628MOL0     H86618   2.378   2.816   1.327  0.8090 -0.2017  1.7863
  628MOL0     H86619   2.263   2.933   1.392 -3.0200 -0.4979 -1.1297
  628MOL0     H86620   2.235   2.707   1.566  1.8620 -1.6727  1.9548
  628MOL0     H86621   2.388   2.675   1.486 -0.8687  0.3831 -1.9887
  628MOL0     H86622   2.480   2.975   1.816 -0.0849  1.5685  0.6692
  628MOL0     H86623   2.431   3.238   1.952  0.3627  0.3371  3.3868
  628MOL0     H86624   2.473   3.074   2.000  1.5492  1.1405  0.0276
  628MOL0     H86625   2.340   3.167   2.082  1.7858  1.8619  1.2910
  628MOL0     H86626   1.886   3.182   2.155 -0.6905  0.4657 -0.1469
  628MOL0     H86627   1.753   3.337   2.316  0.8137  0.9213  0.6748
  628MOL0     H86628   1.650   3.578   2.501  0.3160 -0.8402 -0.0247
  628MOL0     H86629   1.771   3.464   2.484  0.4545  0.0825  0.2983
  628MOL0     H86630   1.956   3.592   2.536 -1.2558 -1.2285 -0.2758
  628MOL0     H86631   1.890   3.747   2.486 -2.2046  0.1543 -2.6733
  628MOL0     H86632   1.927   3.711   2.726  0.6956  1.7815 -1.3288
  628MOL0     H86633   1.783   3.607   2.730 -0.5930  2.4513  2.0757
  628MOL0     H86634   1.641   3.799   2.640  0.8204  2.8423 -5.8222
  628MOL0     H86635   1.787   3.888   2.624  2.9301 -2.7508 -0.5491
  628MOL0     H86636   1.716   3.785   2.908 -0.1877  1.4369  1.5622
  628MOL0     H86637   1.831   3.901   2.857  0.8171 -2.5642 -0.5107
  628MOL0     H86638   1.540   3.921   2.788 -1.1721  2.9929 -1.1556
  628MOL0     H86639   1.658   4.059   2.807  0.7397 -0.1006  0.5876
  628MOL0     H86640   1.655   4.041   3.047  0.1235 -0.0166  0.6973
  628MOL0     H86641   1.551   3.896   3.042  0.8718 -0.5341  0.3213
  628MOL0     H86642   1.450   4.163   2.930 -3.4547 -2.7295 -5.9859
  628MOL0     H86643   1.395   4.096   3.090 -1.0944  1.3898  0.0977
  628MOL0     H86644   1.950   3.673   2.180 -1.2920 -0.1657 -2.6040
  628MOL0     H86645   2.129   3.532   2.049  2.0408 -1.4005  2.4041
  628MOL0     H86646   2.005   3.080   1.731 -0.4704  0.4578  0.5100
  628MOL0     H86647   2.124   2.910   1.591  2.4017  0.1302 -2.2287
  628MOL0     H86648   1.332   3.364   1.743 -2.2828 -0.4636 -1.1142
  628MOL0     H86649   1.123   3.224   1.728  0.6219  2.6845 -0.5078
  628MOL0     H86650   0.814   2.996   1.906 -2.0578  1.2544  0.6349
  628MOL0     H86651   0.601   2.873   1.906  0.5596 -3.0664  1.4889
  628MOL0     H86652   0.519   2.612   1.538  0.8443  0.8355 -0.6477
  628MOL0     H86653   0.371   2.602   1.638  2.3501 -2.6377  3.3655
  628MOL0     H86654   0.502   2.860   1.509  1.1384 -0.0809 -1.3076
  628MOL0     H86655   0.337   2.848   1.574  0.2593  0.7790 -0.8862
  628MOL0     H86656   0.351   2.645   1.368 -0.5758 -0.1136 -1.7190
  628MOL0     H86657   0.251   2.793   1.382  1.7920  2.0319  1.7343
  628MOL0     H86658   0.458   2.921   1.272  0.5265  0.4715 -5.4222
  628MOL0     H86659   0.389   2.800   1.175  0.3392  1.0889 -0.4372
  628MOL0     H86660   0.738   2.596   1.250  1.2095  1.3891  0.4169
  628MOL0     H86661   0.711   2.687   1.537 -3.6904  1.0047  0.2001
  628MOL0     H86662   0.899   2.800   1.409  1.7833  0.7459 -0.6916
  628MOL0     H86663   1.027   2.868   1.499 -2.2080  2.8404  2.5547
  628MOL0     H86664   1.003   2.690   1.503  0.8932  0.6899 -3.0250
  629MOL0     O86665   9.628   0.381   2.871  0.8297  0.9464 -0.4518
  629MOL0     C86666   9.594   0.486   2.843  0.5847 -1.3228  0.1466
  629MOL0     O86667   9.636   0.556   2.735 -0.6499 -0.2887  0.1780
  629MOL0     C86668   9.710   0.507   2.633 -0.2810  0.2746 -0.4884
  629MOL0     C86669   9.709   0.371   2.594  0.8167 -0.3167  0.1262
  629MOL0     C86670   9.789   0.315   2.492  0.7423 -0.5809 -0.3341
  629MOL0     C86671   9.886   0.393   2.440  0.3081 -0.8295  0.5258
  629MOL0     O86672   9.966   0.345   2.345 -0.6064 -0.0507  0.0253
  629MOL0     C86673   9.948   0.393   2.210  0.1009  0.7695 -0.6436
  629MOL0     C86674  10.050   0.334   2.115  0.3867  0.2889 -0.3207
  629MOL0     C86675  10.197   0.362   2.153 -0.1346  0.5053  0.1162
  629MOL0     C86676  10.295   0.313   2.054 -0.0766  0.1001  0.4669
  629MOL0     C86677  10.434   0.344   2.092 -1.3472 -0.1547 -0.8018
  629MOL0     C86678  10.558   0.287   2.014  0.0411  0.2073 -0.0848
  629MOL0     C86679  10.567   0.356   1.883  0.7890  1.3483 -1.5223
  629MOL0     C86680  10.634   0.489   1.889  0.2236 -0.3388  1.4435
  629MOL0     N86681  10.602   0.578   1.774  0.5106 -0.0777  0.3682
  629MOL0     C86682  10.474   0.602   1.710 -0.2509  0.7401 -0.0995
  629MOL0     C86683  10.499   0.712   1.635 -0.6633 -0.0364 -0.3438
  629MOL0     C86684  10.380   0.768   1.564 -0.7155  0.9027  0.7361
  629MOL0     C86685  10.407   0.899   1.475  0.4039 -0.9898 -0.3825
  629MOL0     C86686  10.369   1.034   1.551 -0.1437  0.2468 -0.3336
  629MOL0     C86687  10.392   1.166   1.477  1.5635  0.2553  0.1504
  629MOL0     O86688  10.283   1.231   1.416 -0.7313  0.5786 -0.2218
  629MOL0     C86689  10.201   1.323   1.488 -0.3533 -0.2803 -1.1609
  629MOL0     C86690  10.205   1.342   1.626 -0.8273 -0.3956 -1.1975
  629MOL0     C86691  10.120   1.433   1.695  0.2931  0.0153  0.2441
  629MOL0     C86692  10.145   1.461   1.842 -0.4292  0.1456  0.0228
  629MOL0     C86693  10.029   1.519   1.622 -0.0482 -0.6371  0.8406
  629MOL0     C86694   9.924   1.608   1.676  0.4283 -0.9104  0.1019
  629MOL0     O86695   9.893   1.719   1.602  0.5201  0.3941 -0.6060
  629MOL0     C86696   9.791   1.789   1.648 -0.0069  0.8525  0.0810
  629MOL0     C86697   9.814   1.924   1.669 -0.7964 -0.0924 -0.1897
  629MOL0     C86698   9.707   2.003   1.716  0.4014 -0.6290 -0.2931
  629MOL0     C86699   9.577   1.955   1.755 -0.1434  0.2208 -0.3039
  629MOL0     O86700   9.492   2.029   1.829  0.0017  0.2019 -0.2964
  629MOL0     C86701   9.380   1.965   1.887 -0.8382 -0.5786  0.7091
  629MOL0     C86702   9.291   2.065   1.970 -0.3550  0.2335 -0.0727
  629MOL0     C86703   9.209   2.159   1.885  0.4478 -0.3084  0.3694
  629MOL0     C86704   9.131   2.259   1.972 -0.5934  0.4241  0.0838
  629MOL0     C86705   9.038   2.353   1.891 -0.0315 -0.4943  0.8504
  629MOL0     C86706   9.105   2.440   1.784 -0.2773 -0.2058  0.4604
  629MOL0     C86707   9.014   2.530   1.696 -0.3845 -0.1087 -0.7133
  629MOL0     C86708   9.082   2.634   1.608 -0.3780  0.3019 -0.0584
  629MOL0    Cl86709   9.236   2.567   1.529  0.1081  0.0908 -0.1368
  629MOL0     C86710   9.559   1.820   1.724  1.1107 -0.3540  0.7396
  629MOL0     C86711   9.660   1.739   1.674  0.1860 -1.0228  0.1202
  629MOL0     O86712   9.885   1.584   1.789 -0.4518  0.4196 -0.0770
  629MOL0     C86713  10.019   1.505   1.479 -0.7147  0.0196  0.2471
  629MOL0     C86714  10.105   1.403   1.418  0.0184 -0.1149 -0.6029
  629MOL0     N86715  10.629   0.758   1.648 -0.6309  0.0906 -0.1288
  629MOL0     N86716  10.677   0.678   1.728 -0.5109 -0.2529 -0.1546
  629MOL0     C86717   9.901   0.530   2.476 -0.1023  0.1008  0.5265
  629MOL0     C86718   9.807   0.580   2.569 -0.1920 -0.8240  0.7427
  629MOL0     C86719   9.482   0.556   2.930  0.2505 -0.8188  0.3085
  629MOL0     C86720   9.431   0.680   2.877  0.3616  0.6789  0.4628
  629MOL0     C86721   9.317   0.740   2.937 -0.8160 -0.0437 -0.4649
  629MOL0     C86722   9.262   0.681   3.052  0.5463  0.2741  0.3703
  629MOL0     O86723   9.135   0.712   3.093  0.1644 -0.1893  0.0545
  629MOL0     C86724   9.137   0.802   3.201 -1.1653 -0.6513 -0.4566
  629MOL0     C86725   9.034   0.776   3.311  0.2927 -0.1681 -0.0593
  629MOL0     C86726   9.019   0.898   3.409  0.0805  0.9332 -0.0184
  629MOL0     C86727   9.145   0.926   3.486  0.6287 -0.3413  0.3212
  629MOL0     C86728   9.122   1.050   3.566  0.4928 -0.0771 -0.3146
  629MOL0     C86729   9.123   1.150   3.633  0.6651  0.2105  0.4523
  629MOL0     C86730   9.319   0.571   3.110 -0.1228  1.4220 -0.6470
  629MOL0     C86731   9.432   0.515   3.053 -0.0018 -0.2015  0.2174
  629MOL0     C86732   9.495   0.390   3.115 -0.2772 -0.4917  0.2056
  629MOL0     H86733   9.641   0.304   2.646  0.2552 -0.4521 -0.7560
  629MOL0     H86734   9.767   0.217   2.451 -1.6436  0.3207 -1.3589
  629MOL0     H86735   9.946   0.502   2.207  0.6268  0.8235  0.4181
  629MOL0     H86736   9.852   0.374   2.161  0.5486  0.5173 -1.4524
  629MOL0     H86737  10.047   0.226   2.101 -0.9038 -0.2484  3.1342
  629MOL0     H86738  10.031   0.383   2.019 -1.4036  0.1573 -0.0615
  629MOL0     H86739  10.217   0.469   2.165  0.0388  0.4516  0.3082
  629MOL0     H86740  10.226   0.302   2.240 -2.6745 -0.0564  0.6636
  629MOL0     H86741  10.295   0.204   2.047  0.7231  0.1114  0.1798
  629MOL0     H86742  10.275   0.360   1.957  2.7159  0.1732 -0.1473
  629MOL0     H86743  10.441   0.300   2.192 -2.7754  0.8975 -0.2049
  629MOL0     H86744  10.456   0.450   2.104  0.8317 -0.6974  0.7111
  629MOL0     H86745  10.647   0.298   2.075 -0.6368 -0.5833  1.0933
  629MOL0     H86746  10.542   0.183   1.985 -0.5828  0.0965  0.6235
  629MOL0     H86747  10.467   0.362   1.840  0.8576  1.9903 -1.6085
  629MOL0     H86748  10.630   0.305   1.809  2.3066  2.1354 -0.8399
  629MOL0     H86749  10.608   0.555   1.972  0.2668  2.8694 -0.9234
  629MOL0     H86750  10.742   0.475   1.898  0.1063 -1.4985  1.1633
  629MOL0     H86751  10.381   0.548   1.724  0.2124 -0.1311 -0.2977
  629MOL0     H86752  10.294   0.779   1.630 -0.4433  0.4733  1.1685
  629MOL0     H86753  10.349   0.682   1.503  0.1767  0.8664  0.3056
  629MOL0     H86754  10.515   0.900   1.455  1.1379  2.5113  2.7377
  629MOL0     H86755  10.354   0.886   1.380  2.9440 -1.6170 -1.8162
  629MOL0     H86756  10.272   1.022   1.600  0.3072 -1.5947  0.2164
  629MOL0     H86757  10.431   1.047   1.641  0.4043 -1.3454 -0.4292
  629MOL0     H86758  10.434   1.240   1.545  0.2511  1.2045 -0.0107
  629MOL0     H86759  10.466   1.138   1.402 -1.0480 -2.5304 -1.6352
  629MOL0     H86760  10.254   1.277   1.698 -1.7529  0.7708  0.5482
  629MOL0     H86761  10.229   1.405   1.884 -0.2797  1.4877  1.6387
  629MOL0     H86762  10.061   1.417   1.897 -0.8936 -2.3824 -2.4917
  629MOL0     H86763  10.153   1.570   1.856  1.5022 -0.1930  2.1297
  629MOL0     H86764   9.909   1.974   1.659 -0.6458 -0.0314  1.4058
  629MOL0     H86765   9.719   2.105   1.750 -2.8561 -0.5621  1.0501
  629MOL0     H86766   9.319   1.921   1.808  0.9306 -1.7288 -0.1090
  629MOL0     H86767   9.412   1.882   1.951 -0.0992 -0.8474  0.0221
  629MOL0     H86768   9.248   1.995   2.041 -0.2086  2.1838  2.0437
  629MOL0     H86769   9.352   2.129   2.034 -0.4450 -1.6458  1.9760
  629MOL0     H86770   9.131   2.112   1.825 -1.3709  1.8390  0.9316
  629MOL0     H86771   9.261   2.213   1.806 -3.2186 -0.9313 -2.7712
  629MOL0     H86772   9.209   2.314   2.026  0.3845 -2.6231  1.9938
  629MOL0     H86773   9.074   2.209   2.050  0.3549 -0.0769  0.4612
  629MOL0     H86774   8.977   2.290   1.825  1.6835 -0.2282 -1.0723
  629MOL0     H86775   8.960   2.414   1.938 -1.0063 -1.6326  0.7612
  629MOL0     H86776   9.160   2.372   1.719  0.1895  0.6523 -0.0537
  629MOL0     H86777   9.176   2.506   1.835 -0.3476 -1.9342  3.0163
  629MOL0     H86778   8.940   2.592   1.748 -0.4715 -1.3929  0.7655
  629MOL0     H86779   8.969   2.463   1.623  1.7954 -2.1949 -0.2823
  629MOL0     H86780   9.121   2.717   1.667  2.3040 -0.8463 -0.0618
  629MOL0     H86781   9.010   2.672   1.536  0.3803 -0.5091 -1.2867
  629MOL0     H86782   9.463   1.777   1.753  0.0266  2.2911  1.3756
  629MOL0     H86783   9.650   1.635   1.647  1.0220 -0.5343 -2.3929
  629MOL0     H86784   9.942   1.563   1.430 -1.2215  1.9277  3.0565
  629MOL0     H86785  10.091   1.396   1.311 -2.6096 -2.9923 -0.2172
  629MOL0     H86786   9.968   0.600   2.427 -1.9600 -1.4413 -4.8917
  629MOL0     H86787   9.816   0.687   2.588  1.0347 -0.8933  0.6404
  629MOL0     H86788   9.455   0.728   2.783 -0.4367  0.6933  0.2582
  629MOL0     H86789   9.258   0.816   2.886  2.0612  1.0466 -2.3886
  629MOL0     H86790   9.232   0.811   3.254 -2.9028  0.6333  2.7430
  629MOL0     H86791   9.130   0.904   3.163  4.7347  0.4314  0.4525
  629MOL0     H86792   9.077   0.685   3.353 -1.3796 -2.1977 -2.4214
  629MOL0     H86793   8.936   0.757   3.265 -0.4708  0.8826  1.0650
  629MOL0     H86794   8.991   0.984   3.348  0.9534  0.9677 -0.3885
  629MOL0     H86795   8.939   0.877   3.480 -2.1393  1.1321 -2.3061
  629MOL0     H86796   9.227   0.941   3.415  0.4737 -0.3398  0.1422
  629MOL0     H86797   9.164   0.842   3.554 -0.5117 -1.1952 -0.3833
  629MOL0     H86798   9.136   1.239   3.692 -0.3204 -0.5528  1.8813
  629MOL0     H86799   9.286   0.545   3.210  0.2647  1.6211 -0.4676
  629MOL0     H86800   9.435   0.375   3.205 -0.6186 -0.5666 -0.0347
  629MOL0     H86801   9.484   0.305   3.048 -0.4363  1.5039 -2.4798
  629MOL0     H86802   9.596   0.409   3.154 -0.0385  2.1164 -1.3905
  630MOL0     O86803   8.255   4.122   0.848 -0.4484 -0.2799  0.7123
  630MOL0     C86804   8.355   4.194   0.838 -0.4986 -0.5981  0.5061
  630MOL0     O86805   8.473   4.160   0.786  0.6162 -0.2412  0.1674
  630MOL0     C86806   8.515   4.030   0.778  0.9120 -0.4183  0.0855
  630MOL0     C86807   8.509   3.963   0.653  0.0668  0.0201 -0.1417
  630MOL0     C86808   8.558   3.829   0.647  0.3307 -0.9712  0.4233
  630MOL0     C86809   8.624   3.769   0.760 -0.0893 -0.2862 -0.1903
  630MOL0     O86810   8.679   3.642   0.777  0.0472  1.0212 -0.4665
  630MOL0     C86811   8.708   3.563   0.656 -0.3130 -0.6550 -0.9215
  630MOL0     C86812   8.785   3.437   0.701  0.1166  0.4130 -0.1623
  630MOL0     C86813   8.704   3.341   0.787 -0.1048  1.0266 -1.0454
  630MOL0     C86814   8.769   3.198   0.800  0.1475  0.1769 -0.6674
  630MOL0     C86815   8.677   3.105   0.891  0.3385  0.5150 -0.2485
  630MOL0     C86816   8.743   2.979   0.932 -0.4043 -0.3853 -0.9450
  630MOL0     C86817   8.875   3.000   1.002 -1.1002 -0.1435 -0.5489
  630MOL0     C86818   8.854   3.099   1.114  0.5841 -0.1498 -0.6215
  630MOL0     N86819   8.941   3.070   1.229 -0.7809  0.0187 -0.2114
  630MOL0     C86820   9.068   3.113   1.253 -0.4150  0.4061  0.1053
  630MOL0     C86821   9.113   3.033   1.354  0.0356 -0.8216  0.0447
  630MOL0     C86822   9.248   3.053   1.428 -0.2085  0.1914  0.6569
  630MOL0     C86823   9.356   3.038   1.318 -0.2278 -0.4481 -0.2935
  630MOL0     C86824   9.503   3.079   1.344  0.3660 -0.1030 -0.3875
  630MOL0     C86825   9.581   2.989   1.435 -0.3065  0.1240 -0.2364
  630MOL0     O86826   9.543   2.994   1.569  0.5396  0.4709 -0.2817
  630MOL0     C86827   9.577   3.103   1.640 -0.9101  1.2009  0.6857
  630MOL0     C86828   9.521   3.109   1.770  0.7606  0.0488  0.3597
  630MOL0     C86829   9.564   3.213   1.858 -0.2312  0.1774  0.1573
  630MOL0     C86830   9.489   3.215   1.991 -0.1809  1.0524 -0.9183
  630MOL0     C86831   9.657   3.308   1.818 -0.6650  0.1699 -0.3464
  630MOL0     C86832   9.716   3.418   1.901  0.1746 -0.4673  0.2464
  630MOL0     O86833   9.647   3.444   2.019 -0.2290 -0.6806 -0.6244
  630MOL0     C86834   9.697   3.531   2.107 -0.7105  0.5540  1.1468
  630MOL0     C86835   9.648   3.657   2.135  0.0105 -0.0285 -0.6027
  630MOL0     C86836   9.700   3.739   2.235 -0.4703  0.6758  1.3056
  630MOL0     C86837   9.809   3.691   2.310 -0.3116 -0.7682  0.2172
  630MOL0     O86838   9.862   3.780   2.407 -0.0316 -0.1495  0.3383
  630MOL0     C86839   9.930   3.707   2.512  0.3135 -0.0242  1.7039
  630MOL0     C86840   9.942   3.820   2.622  0.8167 -0.1607  0.0216
  630MOL0     C86841   9.798   3.856   2.680  0.4978 -0.2713  0.0594
  630MOL0     C86842   9.802   3.972   2.772 -0.1406 -1.1568 -0.1315
  630MOL0     C86843   9.894   3.955   2.898  0.1062 -0.7006  0.0139
  630MOL0     C86844   9.843   3.840   2.994 -0.0439 -0.6214  0.3227
  630MOL0     C86845   9.709   3.880   3.055 -0.3252 -0.1967 -0.1012
  630MOL0     C86846   9.718   3.844   3.199  0.4936  0.4522 -1.0889
  630MOL0    Cl86847   9.567   3.901   3.277 -0.3733  0.1679  0.0487
  630MOL0     C86848   9.862   3.557   2.288 -0.1418  0.4151 -0.4323
  630MOL0     C86849   9.801   3.478   2.192  0.7439  0.2674  0.6713
  630MOL0     O86850   9.820   3.481   1.867  0.4480  0.5998 -0.4764
  630MOL0     C86851   9.705   3.308   1.689 -0.2415 -1.2391  0.4794
  630MOL0     C86852   9.667   3.206   1.602  0.2708 -0.8227  0.4572
  630MOL0     N86853   9.008   2.957   1.392  0.4528 -0.3583  0.1533
  630MOL0     N86854   8.907   2.974   1.320 -1.1490 -0.1662  0.3772
  630MOL0     C86855   8.624   3.837   0.888  0.9882  0.0840  0.6802
  630MOL0     C86856   8.578   3.972   0.890  0.5284 -0.0929  0.2674
  630MOL0     C86857   8.341   4.344   0.857 -0.2168 -0.2322 -0.0921
  630MOL0     C86858   8.411   4.425   0.759  0.4535 -0.2270 -0.2306
  630MOL0     C86859   8.403   4.564   0.763 -0.0119 -0.4112  0.7427
  630MOL0     C86860   8.335   4.625   0.869  1.1452 -0.5815 -0.2919
  630MOL0     O86861   8.321   4.753   0.902 -0.4784  0.0390  0.5085
  630MOL0     C86862   8.396   4.847   0.822 -0.8630 -0.3782  0.2586
  630MOL0     C86863   8.377   4.999   0.848 -0.5199  0.4342  0.1996
  630MOL0     C86864   8.393   5.034   1.001  0.2214 -0.3960 -0.4160
  630MOL0     C86865   8.404   5.190   1.020 -0.3633 -1.1401  0.5561
  630MOL0     C86866   8.535   5.240   0.974 -1.4307 -0.8608 -0.0149
  630MOL0     C86867   8.640   5.285   0.941 -0.1353  0.0723  0.5112
  630MOL0     C86868   8.262   4.544   0.960 -1.0317 -0.1269 -0.0373
  630MOL0     C86869   8.269   4.406   0.965 -0.3662  0.6161 -0.4933
  630MOL0     C86870   8.197   4.325   1.070 -0.4135  0.3694  0.3579
  630MOL0     H86871   8.464   4.010   0.566  1.5129  3.2565  0.7163
  630MOL0     H86872   8.525   3.771   0.562 -4.1740  1.2814  0.3462
  630MOL0     H86873   8.770   3.626   0.591  0.8428 -1.1450 -0.3203
  630MOL0     H86874   8.610   3.540   0.613  0.8474  1.2904 -5.0956
  630MOL0     H86875   8.819   3.378   0.615  0.8952 -3.2170  2.4265
  630MOL0     H86876   8.875   3.468   0.755 -0.0564 -1.4224  1.2534
  630MOL0     H86877   8.705   3.381   0.889  1.7206 -3.3525  0.9188
  630MOL0     H86878   8.603   3.340   0.744  0.0001  3.2503 -1.4705
  630MOL0     H86879   8.775   3.154   0.700 -2.2886  1.0487 -1.2768
  630MOL0     H86880   8.869   3.213   0.841 -0.0925  1.1852 -0.4235
  630MOL0     H86881   8.585   3.086   0.835  2.0469  0.2318 -3.1937
  630MOL0     H86882   8.638   3.150   0.982 -1.4543 -2.3206  0.5048
  630MOL0     H86883   8.683   2.932   1.011 -0.0745  0.8020  0.0365
  630MOL0     H86884   8.758   2.916   0.844 -0.5899 -0.9471 -0.5836
  630MOL0     H86885   8.956   3.026   0.934  1.8371 -3.1632  1.4315
  630MOL0     H86886   8.910   2.906   1.047 -0.1033  1.3219  1.9986
  630MOL0     H86887   8.866   3.205   1.089  1.0443  0.4293  1.7150
  630MOL0     H86888   8.751   3.099   1.150  0.5241  4.1188 -0.2629
  630MOL0     H86889   9.123   3.194   1.208 -0.0158 -0.1326 -0.3866
  630MOL0     H86890   9.257   2.979   1.508 -2.5213 -1.3651 -0.4317
  630MOL0     H86891   9.250   3.156   1.465  2.6632  0.9366 -1.1710
  630MOL0     H86892   9.360   2.936   1.277 -0.9301 -0.6818  0.2093
  630MOL0     H86893   9.325   3.104   1.236  0.7668  2.7669  1.7515
  630MOL0     H86894   9.563   3.076   1.253  1.9678  1.1189  0.5698
  630MOL0     H86895   9.497   3.180   1.385 -2.5161 -0.6987  0.9505
  630MOL0     H86896   9.569   2.893   1.383 -3.4073  1.7260 -2.8708
  630MOL0     H86897   9.689   3.006   1.430  0.2027 -1.4065  2.9549
  630MOL0     H86898   9.450   3.034   1.801  1.3168  0.0969  1.8092
  630MOL0     H86899   9.414   3.136   1.986  1.1594 -0.4669  1.1640
  630MOL0     H86900   9.435   3.309   2.005  0.2632  1.0459  1.1315
  630MOL0     H86901   9.559   3.196   2.073  2.4094  1.8680 -2.8232
  630MOL0     H86902   9.565   3.699   2.079 -1.6327 -0.9392  1.0608
  630MOL0     H86903   9.654   3.837   2.247 -0.2341  1.1171 -0.9740
  630MOL0     H86904   9.882   3.616   2.550 -0.3359 -0.4786 -0.1111
  630MOL0     H86905  10.027   3.687   2.466  0.1370  2.8214 -0.0930
  630MOL0     H86906  10.000   3.775   2.703 -0.0436  0.7749  1.2015
  630MOL0     H86907   9.988   3.913   2.588  0.0564  0.9009  1.7635
  630MOL0     H86908   9.754   3.775   2.737 -0.2905  0.4515  0.5011
  630MOL0     H86909   9.719   3.875   2.607 -0.2102  2.3425  1.3905
  630MOL0     H86910   9.703   3.995   2.814  0.0536 -2.4481  1.1239
  630MOL0     H86911   9.839   4.056   2.713 -0.3856 -2.6192 -2.4871
  630MOL0     H86912   9.995   3.921   2.874  0.5494 -0.0194  0.8514
  630MOL0     H86913   9.897   4.047   2.958 -1.7675 -2.7777  3.6222
  630MOL0     H86914   9.922   3.835   3.071  0.5221 -0.6446 -0.2503
  630MOL0     H86915   9.831   3.745   2.942 -3.4444  0.0226 -0.2610
  630MOL0     H86916   9.628   3.831   3.000  0.4055 -0.6127 -0.8406
  630MOL0     H86917   9.689   3.987   3.043  0.7626  0.1953  1.2289
  630MOL0     H86918   9.800   3.887   3.257  0.4923 -2.7028  1.5324
  630MOL0     H86919   9.725   3.736   3.213 -0.5969  0.5570  0.6791
  630MOL0     H86920   9.941   3.519   2.351  0.2793 -0.2940 -1.3759
  630MOL0     H86921   9.830   3.375   2.174 -1.2524 -0.2172 -0.0161
  630MOL0     H86922   9.766   3.393   1.658 -0.0634 -2.1144 -1.7720
  630MOL0     H86923   9.696   3.213   1.497  0.7048  0.4704  0.6523
  630MOL0     H86924   8.663   3.793   0.980  0.1339 -2.2091  0.0171
  630MOL0     H86925   8.585   4.038   0.976  0.8595 -0.5414  0.5872
  630MOL0     H86926   8.472   4.385   0.678  1.4221  4.5208 -2.2201
  630MOL0     H86927   8.445   4.624   0.683 -0.8516 -0.3623  0.3265
  630MOL0     H86928   8.500   4.815   0.832 -0.5273  0.8180  0.7424
  630MOL0     H86929   8.375   4.836   0.715  0.6711  2.5677 -0.4430
  630MOL0     H86930   8.283   5.029   0.801  1.0669 -0.1078 -3.6642
  630MOL0     H86931   8.446   5.056   0.786  2.7961 -1.7138  1.6268
  630MOL0     H86932   8.315   4.989   1.064 -0.4584 -0.8195 -1.5238
  630MOL0     H86933   8.487   4.991   1.037 -0.9620 -1.5637  1.4428
  630MOL0     H86934   8.401   5.208   1.128 -1.2958 -4.7346  1.2718
  630MOL0     H86935   8.322   5.242   0.970 -1.2487 -0.8172  2.2549
  630MOL0     H86936   8.734   5.328   0.911 -0.6122  0.7308 -0.0671
  630MOL0     H86937   8.204   4.594   1.038 -0.3659 -2.3383  1.9848
  630MOL0     H86938   8.094   4.362   1.079 -0.4836 -0.2243  2.8315
  630MOL0     H86939   8.184   4.222   1.037 -0.2161  1.4686 -3.6494
  630MOL0     H86940   8.253   4.328   1.164  0.1383 -2.7100  0.2254
  631MOL0     O86941   9.188   4.212   6.959  0.5881  0.4510  0.4202
  631MOL0     C86942   9.075   4.257   6.957 -0.1847  0.1762 -0.2430
  631MOL0     O86943   8.963   4.200   7.000  0.4010  0.1020 -0.4548
  631MOL0     C86944   8.965   4.061   7.007  0.0437  0.3084  0.1487
  631MOL0     C86945   8.941   3.993   6.889  0.3106 -0.0470 -0.1852
  631MOL0     C86946   8.919   3.852   6.888  0.6049 -0.8829  0.1765
  631MOL0     C86947   8.932   3.782   7.008  0.4514  0.1730  0.1348
  631MOL0     O86948   8.909   3.647   6.995 -0.1732 -0.1746  0.2292
  631MOL0     C86949   8.903   3.577   7.119  0.4474 -0.1681  0.8751
  631MOL0     C86950   8.828   3.446   7.109  0.1060 -0.7828 -0.6502
  631MOL0     C86951   8.903   3.351   7.024 -0.1680 -0.4989 -0.0409
  631MOL0     C86952   8.828   3.214   7.027  0.1806 -1.1429 -0.4873
  631MOL0     C86953   8.827   3.133   6.897 -0.7115 -0.3779 -0.1812
  631MOL0     C86954   8.826   2.981   6.898  0.6633  0.4060 -0.2270
  631MOL0     C86955   8.827   2.938   6.750 -0.4527  0.3701  0.4220
  631MOL0     C86956   8.845   2.793   6.755 -0.1292 -0.5024 -0.3147
  631MOL0     N86957   8.848   2.728   6.622 -1.0479  0.0737  0.3781
  631MOL0     C86958   8.762   2.725   6.519 -0.2692 -0.3662 -0.1020
  631MOL0     C86959   8.813   2.641   6.431 -0.4721  0.1087  0.2191
  631MOL0     C86960   8.744   2.618   6.303 -1.0031  0.9953 -0.5168
  631MOL0     C86961   8.783   2.719   6.213  0.2629 -0.0019  0.3329
  631MOL0     C86962   8.688   2.732   6.087  0.5970 -0.4781 -0.4068
  631MOL0     C86963   8.766   2.776   5.968  1.5115 -0.4803  1.1281
  631MOL0     O86964   8.677   2.801   5.860 -1.0232  0.4343 -0.8505
  631MOL0     C86965   8.714   2.733   5.750  0.0171 -0.5518 -0.5951
  631MOL0     C86966   8.844   2.727   5.696  0.2778  0.6828 -0.2158
  631MOL0     C86967   8.873   2.655   5.576  0.8366  0.6954  0.1742
  631MOL0     C86968   9.013   2.679   5.529  0.3596  0.1802  0.4131
  631MOL0     C86969   8.768   2.575   5.513 -0.2477 -0.7911 -0.2343
  631MOL0     C86970   8.778   2.490   5.389  0.1878  0.4843  0.8518
  631MOL0     O86971   8.666   2.418   5.346  0.3664  0.2902  0.2323
  631MOL0     C86972   8.697   2.313   5.270 -0.3102  0.0370  0.6195
  631MOL0     C86973   8.670   2.192   5.329 -0.1337 -0.6312  0.8587
  631MOL0     C86974   8.694   2.081   5.259  0.6509 -0.5495  0.3746
  631MOL0     C86975   8.738   2.081   5.127  0.2353  0.4249  0.3373
  631MOL0     O86976   8.767   1.956   5.079 -0.7002 -0.3599  0.5827
  631MOL0     C86977   8.816   1.932   4.943 -0.0389 -0.4507  0.8686
  631MOL0     C86978   8.963   1.958   4.929  0.4865  0.2075  0.6683
  631MOL0     C86979   9.025   1.894   4.814  0.1200  0.7682  0.1643
  631MOL0     C86980   9.056   1.740   4.833 -0.6320 -0.4440  0.2044
  631MOL0     C86981   9.138   1.675   4.718 -0.1110  0.9710  0.0486
  631MOL0     C86982   9.273   1.757   4.688  0.5043 -0.0290 -0.8854
  631MOL0     C86983   9.349   1.695   4.573  0.5355  0.1462 -0.5021
  631MOL0     C86984   9.498   1.724   4.567  0.5116  1.0754 -0.4674
  631MOL0    Cl86985   9.565   1.898   4.574  0.2676 -0.1145 -0.3912
  631MOL0     C86986   8.767   2.202   5.064 -0.5616 -0.4138 -0.3598
  631MOL0     C86987   8.744   2.322   5.135 -0.0904  1.1201 -0.1445
  631MOL0     O86988   8.893   2.486   5.334  0.6381 -0.6399 -0.2734
  631MOL0     C86989   8.647   2.568   5.574  1.0037  0.0907  0.3091
  631MOL0     C86990   8.617   2.649   5.686  0.2836 -0.1832 -0.2320
  631MOL0     N86991   8.945   2.612   6.471 -0.2934  0.6205 -0.2523
  631MOL0     N86992   8.960   2.666   6.585 -0.1919 -0.0145  0.2214
  631MOL0     C86993   8.973   3.846   7.127  0.8516 -0.0658  0.8792
  631MOL0     C86994   8.982   3.986   7.125  0.6771  0.2829  0.0701
  631MOL0     C86995   9.080   4.402   6.920  0.2978  0.3805  0.6038
  631MOL0     C86996   9.192   4.482   6.931  0.1393 -0.4030  0.7171
  631MOL0     C86997   9.185   4.619   6.905 -0.1651  0.7514  0.0049
  631MOL0     C86998   9.064   4.679   6.873 -0.2108 -0.4909 -0.5300
  631MOL0     O86999   9.071   4.816   6.853  0.2918  0.5098 -0.3573
  631MOL0     C87000   8.955   4.895   6.887 -0.1076 -0.5493 -0.0584
  631MOL0     C87001   8.966   4.958   7.027 -0.7194 -0.7118 -0.9218
  631MOL0     C87002   8.867   5.074   7.061 -0.1308  0.4273 -1.3770
  631MOL0     C87003   8.719   5.046   7.020 -0.7569 -0.2977  0.3330
  631MOL0     C87004   8.637   5.165   7.011  0.0028  0.2797 -0.1271
  631MOL0     C87005   8.579   5.264   6.994  0.0952 -0.1359  0.2262
  631MOL0     C87006   8.958   4.605   6.856 -0.0745 -0.0461 -0.8479
  631MOL0     C87007   8.957   4.468   6.877 -0.4796  0.3387  0.3702
  631MOL0     C87008   8.824   4.399   6.853  0.4230 -0.1578  0.7888
  631MOL0     H87009   8.941   4.035   6.789 -0.0497 -3.2203 -1.6471
  631MOL0     H87010   8.915   3.800   6.792 -0.7378 -3.2513  1.4197
  631MOL0     H87011   8.833   3.635   7.181 -3.6420 -0.6823 -2.8362
  631MOL0     H87012   9.002   3.568   7.164  0.9463  1.5044  0.1887
  631MOL0     H87013   8.828   3.397   7.207  0.7574 -1.0029 -0.7595
  631MOL0     H87014   8.729   3.474   7.071  0.0018 -1.1703 -0.6724
  631MOL0     H87015   8.902   3.388   6.921  2.1348  1.2657  0.4690
  631MOL0     H87016   9.005   3.332   7.059 -0.2075 -0.1973  0.2467
  631MOL0     H87017   8.892   3.158   7.097  0.2718  2.3558  2.5550
  631MOL0     H87018   8.726   3.234   7.061  0.5015 -0.1255 -0.0584
  631MOL0     H87019   8.921   3.167   6.853  0.3401  0.5294  2.5431
  631MOL0     H87020   8.741   3.163   6.836 -0.0664 -3.2567 -2.7863
  631MOL0     H87021   8.914   2.942   6.949  1.7642  0.2357 -2.1652
  631MOL0     H87022   8.737   2.956   6.956  1.9706  2.3612  2.8200
  631MOL0     H87023   8.906   2.992   6.698  1.1665 -0.3211  2.0365
  631MOL0     H87024   8.733   2.961   6.699 -0.5947  0.5603  0.7627
  631MOL0     H87025   8.947   2.788   6.795 -1.5139 -0.7108  3.5743
  631MOL0     H87026   8.784   2.740   6.829 -1.4383 -0.7610 -1.5458
  631MOL0     H87027   8.662   2.765   6.523 -0.0191  0.5686 -2.0644
  631MOL0     H87028   8.636   2.608   6.313 -1.4362  3.0579 -2.4424
  631MOL0     H87029   8.764   2.515   6.271 -4.3163  0.0034  0.2012
  631MOL0     H87030   8.791   2.816   6.264 -0.7695 -0.0229  0.5621
  631MOL0     H87031   8.883   2.697   6.177  0.6175 -0.5667  1.6200
  631MOL0     H87032   8.645   2.634   6.062 -0.2664 -0.5741  1.2565
  631MOL0     H87033   8.606   2.796   6.121  1.0753 -1.3287  2.7543
  631MOL0     H87034   8.824   2.869   5.982 -1.4139  1.4236  1.4488
  631MOL0     H87035   8.840   2.698   5.947  1.1456 -0.5958  0.2365
  631MOL0     H87036   8.929   2.776   5.743 -0.1268 -0.6832  2.1254
  631MOL0     H87037   9.080   2.749   5.580 -1.0011  1.2979  0.7631
  631MOL0     H87038   9.005   2.714   5.426 -2.5185  1.2732  0.8914
  631MOL0     H87039   9.065   2.584   5.545 -0.5685 -0.4365 -0.1302
  631MOL0     H87040   8.625   2.182   5.427 -2.0834 -0.7314 -0.0077
  631MOL0     H87041   8.688   1.986   5.310  3.0290 -0.4706  0.9555
  631MOL0     H87042   8.803   1.827   4.917  0.7627 -0.3832  0.1586
  631MOL0     H87043   8.766   1.997   4.870  0.9647  1.9526  2.2022
  631MOL0     H87044   8.962   2.066   4.911 -1.8931  0.2713  0.9564
  631MOL0     H87045   9.022   1.934   5.018  0.8294  0.2995  0.4702
  631MOL0     H87046   9.125   1.936   4.797  1.5429 -2.5908 -0.4584
  631MOL0     H87047   8.976   1.908   4.717  1.7864 -1.6528 -1.1202
  631MOL0     H87048   8.963   1.686   4.850 -1.3671 -0.2362 -2.6356
  631MOL0     H87049   9.122   1.745   4.920 -1.0578 -1.2830  0.5865
  631MOL0     H87050   9.159   1.568   4.723 -3.4591  0.1647 -0.7984
  631MOL0     H87051   9.082   1.681   4.625 -1.9104 -4.1243  0.4995
  631MOL0     H87052   9.331   1.753   4.781 -0.4138 -0.6186 -0.3133
  631MOL0     H87053   9.255   1.862   4.667  0.6793  0.3848  0.8680
  631MOL0     H87054   9.306   1.738   4.482  2.6233  0.5558 -1.3499
  631MOL0     H87055   9.335   1.587   4.561  1.7736  0.1795 -3.0892
  631MOL0     H87056   9.541   1.685   4.474 -0.5497 -0.1391 -0.4886
  631MOL0     H87057   9.531   1.667   4.655  1.6575 -0.0614 -1.6055
  631MOL0     H87058   8.790   2.196   4.958 -3.1388 -2.7364 -0.9107
  631MOL0     H87059   8.749   2.415   5.080  0.3962  0.0210 -2.0453
  631MOL0     H87060   8.558   2.517   5.539 -0.7574  1.7083  2.1508
  631MOL0     H87061   8.523   2.656   5.741  0.4902 -0.0300  0.1071
  631MOL0     H87062   9.006   3.791   7.215  1.8140 -1.5223 -0.3344
  631MOL0     H87063   9.006   4.041   7.216  2.8925  2.2271 -1.5840
  631MOL0     H87064   9.288   4.432   6.937 -0.8486 -2.4167  0.3776
  631MOL0     H87065   9.276   4.678   6.900 -1.0481  2.0011 -2.5415
  631MOL0     H87066   8.944   4.983   6.823 -3.0335 -0.2359  0.7145
  631MOL0     H87067   8.862   4.837   6.881  1.5615 -3.3414 -1.0209
  631MOL0     H87068   9.068   4.994   7.039  0.2551 -3.4334 -0.1071
  631MOL0     H87069   8.952   4.883   7.106 -1.2278 -1.4227 -1.6714
  631MOL0     H87070   8.864   5.094   7.169  0.9483 -0.2570 -1.2112
  631MOL0     H87071   8.885   5.162   6.998 -1.3251 -0.2275 -2.6926
  631MOL0     H87072   8.658   4.978   7.080 -2.1606  0.3315 -0.3274
  631MOL0     H87073   8.716   5.012   6.916  1.0727  1.9989 -0.5600
  631MOL0     H87074   8.516   5.348   6.973  1.8251  0.7895 -1.6708
  631MOL0     H87075   8.863   4.648   6.825 -0.6739 -0.0397  0.8543
  631MOL0     H87076   8.837   4.311   6.789 -2.9238 -0.0972 -0.1394
  631MOL0     H87077   8.765   4.384   6.944 -0.3870  2.1137  0.6975
  631MOL0     H87078   8.756   4.463   6.797  0.3762 -0.5900  0.3501
  632MOL0     O87079   6.260   4.041  10.415  0.9392  0.2983  0.7918
  632MOL0     C87080   6.287   3.946  10.487 -0.2450  1.1967 -0.1664
  632MOL0     O87081   6.394   3.951  10.572 -0.0004 -0.0933  0.0408
  632MOL0     C87082   6.511   4.007  10.529 -0.1339  0.2990  0.2227
  632MOL0     C87083   6.616   3.945  10.470  0.4523 -0.6398  0.0034
  632MOL0     C87084   6.732   4.013  10.437  0.3575 -0.2019  0.0347
  632MOL0     C87085   6.744   4.150  10.464 -0.0446 -0.2851  0.5568
  632MOL0     O87086   6.865   4.223  10.443  0.4964 -0.1434  0.0617
  632MOL0     C87087   6.938   4.181  10.336  0.5461  0.3835  0.1306
  632MOL0     C87088   7.035   4.289  10.275 -0.2087  0.1892  0.8209
  632MOL0     C87089   7.123   4.233  10.171 -0.5947  0.0830  0.2773
  632MOL0     C87090   7.201   4.331  10.083  0.8086 -0.4141 -0.9020
  632MOL0     C87091   7.186   4.309   9.939 -0.1544  0.1048  0.1715
  632MOL0     C87092   7.263   4.416   9.861  0.7333 -0.9468  0.5984
  632MOL0     C87093   7.200   4.455   9.722 -0.0140  0.5139 -0.0250
  632MOL0     C87094   7.148   4.340   9.638 -0.1976  0.1606  0.7483
  632MOL0     N87095   7.015   4.289   9.678 -1.0973 -0.2809 -0.7806
  632MOL0     C87096   6.904   4.366   9.668  0.4501  0.3149  0.7507
  632MOL0     C87097   6.804   4.278   9.679  0.5250 -1.2933  0.3059
  632MOL0     C87098   6.662   4.307   9.685  1.0728 -0.4191 -1.0629
  632MOL0     C87099   6.599   4.298   9.826 -0.3927 -0.1437  0.0308
  632MOL0     C87100   6.633   4.409   9.935  0.7555  0.4939 -0.1612
  632MOL0     C87101   6.566   4.377  10.077  1.3738 -0.5798  0.2049
  632MOL0     O87102   6.603   4.485  10.161 -0.2931 -0.2094 -0.3339
  632MOL0     C87103   6.513   4.529  10.251  0.4359 -0.1354 -1.1932
  632MOL0     C87104   6.408   4.448  10.311 -0.2856 -0.9899  0.6071
  632MOL0     C87105   6.334   4.492  10.417 -0.1582 -0.3346 -0.8923
  632MOL0     C87106   6.233   4.393  10.479  0.3766 -0.3700  1.0233
  632MOL0     C87107   6.353   4.624  10.461  0.4114  0.8868 -0.7221
  632MOL0     C87108   6.265   4.679  10.559 -0.2999 -0.0685 -0.3205
  632MOL0     O87109   6.127   4.671  10.533 -0.8390  0.2865 -0.0637
  632MOL0     C87110   6.033   4.708  10.623 -0.8093 -1.0341  0.8697
  632MOL0     C87111   5.981   4.620  10.718 -0.1073  0.9722  0.5322
  632MOL0     C87112   5.871   4.654  10.796 -0.2576 -0.1866 -0.3752
  632MOL0     C87113   5.806   4.782  10.781  0.3237 -0.6509  0.0565
  632MOL0     O87114   5.696   4.817  10.859 -0.6432  0.3369  0.4985
  632MOL0     C87115   5.576   4.739  10.841  1.4448  0.1565 -0.3854
  632MOL0     C87116   5.458   4.800  10.918 -0.1949  0.3034 -0.1375
  632MOL0     C87117   5.330   4.698  10.925 -0.9477 -1.1418  0.0836
  632MOL0     C87118   5.213   4.750  11.004  0.1626 -0.5140 -0.0699
  632MOL0     C87119   5.071   4.756  10.945  0.5679  0.2889 -0.7705
  632MOL0     C87120   4.939   4.750  11.025 -0.8894  0.1655  0.8281
  632MOL0     C87121   4.818   4.741  10.932 -0.1315 -0.4021 -1.0645
  632MOL0     C87122   4.685   4.723  11.006  0.7570  0.2170 -0.0579
  632MOL0    Cl87123   4.679   4.552  11.070 -0.2188  0.5537  0.3837
  632MOL0     C87124   5.854   4.870  10.677  0.3651  0.7250 -1.1924
  632MOL0     C87125   5.970   4.830  10.606 -0.8454  1.4775  0.0567
  632MOL0     O87126   6.314   4.739  10.648  0.2319 -0.7205  0.0761
  632MOL0     C87127   6.442   4.699  10.399 -1.1899 -0.3895  0.0439
  632MOL0     C87128   6.524   4.657  10.296 -0.4199 -0.3265  0.1224
  632MOL0     N87129   6.854   4.148   9.688 -1.3103 -0.3245  0.3728
  632MOL0     N87130   6.981   4.160   9.681 -0.0997  0.3047  0.0636
  632MOL0     C87131   6.636   4.208  10.535  1.0422 -0.2564  0.7317
  632MOL0     C87132   6.510   4.145  10.557 -0.9943 -0.2943  0.8078
  632MOL0     C87133   6.168   3.861  10.513  0.1813  0.4066  0.6179
  632MOL0     C87134   6.133   3.833  10.644 -1.0932 -0.1364 -0.0734
  632MOL0     C87135   6.011   3.765  10.681  0.5220  0.1638 -0.1653
  632MOL0     C87136   5.911   3.733  10.594  0.8169 -0.2874 -0.1794
  632MOL0     O87137   5.792   3.678  10.633 -0.2754 -0.0084 -0.3546
  632MOL0     C87138   5.716   3.736  10.742  0.4995 -0.5749  0.4080
  632MOL0     C87139   5.562   3.728  10.700 -0.1705 -0.1893 -0.5592
  632MOL0     C87140   5.481   3.746  10.819  0.1397 -0.4917 -0.2868
  632MOL0     C87141   5.333   3.786  10.789  0.0729 -0.0086 -0.3733
  632MOL0     C87142   5.246   3.781  10.909 -1.3088 -0.5054  0.4500
  632MOL0     C87143   5.183   3.758  11.009 -0.0874  0.8612  0.6083
  632MOL0     C87144   5.951   3.752  10.454  0.1879  0.7667  0.1762
  632MOL0     C87145   6.073   3.810  10.407  0.1950 -0.4950 -0.5868
  632MOL0     C87146   6.093   3.823  10.254  0.1224  0.0126  0.1326
  632MOL0     H87147   6.605   3.842  10.438  2.2725 -1.0561  0.5930
  632MOL0     H87148   6.821   3.959  10.407 -1.0995 -2.1263 -1.1033
  632MOL0     H87149   6.872   4.147  10.255 -1.4194 -0.0957  1.8616
  632MOL0     H87150   7.004   4.099  10.367  0.4381 -0.3275 -1.3966
  632MOL0     H87151   6.980   4.376  10.239 -3.8791 -1.7442  1.3003
  632MOL0     H87152   7.108   4.330  10.345 -1.3440  1.3715  1.3397
  632MOL0     H87153   7.198   4.171  10.221  2.1130  1.3939 -1.8517
  632MOL0     H87154   7.063   4.179  10.097 -0.5237  2.1141 -1.3841
  632MOL0     H87155   7.164   4.430  10.108 -4.9108 -2.4476  0.1986
  632MOL0     H87156   7.304   4.302  10.108 -0.2633 -2.6956  1.3902
  632MOL0     H87157   7.079   4.315   9.920 -0.1405 -1.9098 -0.8199
  632MOL0     H87158   7.207   4.207   9.903  0.6172  0.5692 -0.7507
  632MOL0     H87159   7.280   4.508   9.918  0.6321 -1.6217  1.7350
  632MOL0     H87160   7.361   4.378   9.830  0.3076  0.1181 -2.4334
  632MOL0     H87161   7.277   4.504   9.662 -0.9878 -0.5713 -2.2949
  632MOL0     H87162   7.119   4.524   9.748 -1.5922 -0.7906 -1.2763
  632MOL0     H87163   7.145   4.368   9.533  2.2567 -2.7460 -0.2622
  632MOL0     H87164   7.222   4.260   9.652  0.9277  0.6379 -1.9549
  632MOL0     H87165   6.894   4.474   9.660 -2.8142  0.1986  1.6892
  632MOL0     H87166   6.618   4.222   9.632  2.9706 -1.0147 -1.7698
  632MOL0     H87167   6.623   4.390   9.627  3.1770  2.0215  0.7614
  632MOL0     H87168   6.490   4.302   9.811 -0.0545  0.7584 -2.7031
  632MOL0     H87169   6.617   4.198   9.865 -1.0768 -0.2087  0.1977
  632MOL0     H87170   6.742   4.409   9.943  0.6572 -0.7996  1.7082
  632MOL0     H87171   6.591   4.500   9.891 -1.6019 -1.2970 -1.8839
  632MOL0     H87172   6.459   4.376  10.053  1.8990 -0.3382 -2.4484
  632MOL0     H87173   6.606   4.291  10.132  2.3784  0.9301  1.9566
  632MOL0     H87174   6.417   4.346  10.276  1.4480 -0.9689  0.9034
  632MOL0     H87175   6.243   4.382  10.587  0.4642 -1.0175  0.9520
  632MOL0     H87176   6.241   4.295  10.430 -0.9077 -0.3953  0.8375
  632MOL0     H87177   6.132   4.423  10.449  0.7387  0.8556  0.9745
  632MOL0     H87178   6.028   4.522  10.724 -1.9580 -0.3876 -3.1421
  632MOL0     H87179   5.822   4.583  10.861  0.0827 -2.4811 -2.4526
  632MOL0     H87180   5.542   4.729  10.737 -2.5551  0.7010  0.7022
  632MOL0     H87181   5.589   4.635  10.874 -1.4404 -0.9741 -2.4206
  632MOL0     H87182   5.500   4.808  11.019 -1.1757  0.2703  0.2835
  632MOL0     H87183   5.412   4.889  10.875 -1.6251 -0.0299  0.6523
  632MOL0     H87184   5.371   4.608  10.969  0.4000 -0.3598  0.4703
  632MOL0     H87185   5.281   4.687  10.828 -1.6461 -1.6923  0.4867
  632MOL0     H87186   5.235   4.849  11.045 -0.7968 -0.5803  0.6683
  632MOL0     H87187   5.199   4.686  11.092  1.2508  1.9119  1.9875
  632MOL0     H87188   5.062   4.854  10.898 -2.7712  2.1779  3.1705
  632MOL0     H87189   5.065   4.673  10.875 -3.6333  1.7540 -2.4871
  632MOL0     H87190   4.935   4.839  11.088  0.0180  0.4391  0.5024
  632MOL0     H87191   4.952   4.665  11.092  2.1395 -0.5566 -0.5138
  632MOL0     H87192   4.828   4.655  10.865 -0.0452 -1.0529 -0.2361
  632MOL0     H87193   4.805   4.830  10.870  0.4192 -2.4990 -4.4957
  632MOL0     H87194   4.618   4.741  10.921  0.2730 -0.2046  0.2278
  632MOL0     H87195   4.671   4.797  11.085  0.6821  1.2420 -1.0037
  632MOL0     H87196   5.787   4.953  10.660  1.1016  1.7946  0.8172
  632MOL0     H87197   5.998   4.894  10.523 -1.9327  1.0249 -0.6890
  632MOL0     H87198   6.456   4.804  10.425 -0.3281 -0.2961 -0.7219
  632MOL0     H87199   6.586   4.720  10.234 -0.6101  0.3343  0.5957
  632MOL0     H87200   6.654   4.305  10.580  3.1409 -0.7049  0.9712
  632MOL0     H87201   6.430   4.205  10.599  0.8996  2.4663  0.7938
  632MOL0     H87202   6.209   3.855  10.719 -1.5117  2.1418 -0.2495
  632MOL0     H87203   5.991   3.736  10.784 -2.5412 -0.7556 -0.9281
  632MOL0     H87204   5.725   3.680  10.835  1.1923  0.0038  0.6972
  632MOL0     H87205   5.743   3.840  10.761 -1.0214 -0.0936  0.1071
  632MOL0     H87206   5.550   3.624  10.668 -5.3443  1.2282 -4.4758
  632MOL0     H87207   5.545   3.810  10.630  0.4882  2.3132  1.9762
  632MOL0     H87208   5.468   3.652  10.874  1.6845 -1.7608 -1.9527
  632MOL0     H87209   5.524   3.829  10.875  0.7813 -0.9031 -0.1591
  632MOL0     H87210   5.301   3.707  10.719 -0.2093 -1.3045  1.1479
  632MOL0     H87211   5.321   3.881  10.736  2.0845 -0.4875 -1.8370
  632MOL0     H87212   5.115   3.748  11.091  0.8654  0.5969  1.3819
  632MOL0     H87213   5.882   3.707  10.383 -0.3050 -0.7505  1.5471
  632MOL0     H87214   6.151   3.914  10.233 -2.1934  1.6946  0.5731
  632MOL0     H87215   6.139   3.735  10.209  3.8001  3.0816 -2.8146
  632MOL0     H87216   6.004   3.845  10.195  0.5748  1.6076 -0.0064
  633MOL0     O87217   2.904   5.468   3.781  0.5439  0.7262 -0.0494
  633MOL0     C87218   2.892   5.408   3.672 -0.3042 -1.2852 -0.7856
  633MOL0     O87219   2.851   5.467   3.566  0.5635  0.9128  0.1703
  633MOL0     C87220   2.826   5.601   3.565 -0.4965 -0.5697 -0.6213
  633MOL0     C87221   2.754   5.673   3.662  0.0240 -1.0080 -0.0434
  633MOL0     C87222   2.746   5.807   3.650  0.3120 -0.6255 -0.4501
  633MOL0     C87223   2.796   5.866   3.534  0.1231  0.1189  0.1623
  633MOL0     O87224   2.794   6.003   3.520 -0.6162  0.5062  0.3495
  633MOL0     C87225   2.715   6.031   3.406  0.0153 -0.4384  0.8556
  633MOL0     C87226   2.687   6.175   3.408 -0.1855 -0.0504  0.3357
  633MOL0     C87227   2.609   6.237   3.295  0.1447  0.0840  0.5749
  633MOL0     C87228   2.465   6.180   3.278 -0.3204  0.1684  0.3543
  633MOL0     C87229   2.370   6.291   3.220 -0.1249  0.1831  0.1943
  633MOL0     C87230   2.231   6.237   3.170  0.4085  0.2823  0.2138
  633MOL0     C87231   2.125   6.199   3.276 -0.3392  0.3892  0.0847
  633MOL0     C87232   2.046   6.327   3.318  0.7367 -0.3135  0.5222
  633MOL0     N87233   1.949   6.300   3.426 -0.3055 -0.5491  0.4413
  633MOL0     C87234   1.854   6.393   3.461  0.2339 -0.3059  0.3767
  633MOL0     C87235   1.771   6.328   3.540 -1.0694 -0.5199 -0.0157
  633MOL0     C87236   1.656   6.391   3.611  0.6958  0.3643  0.7592
  633MOL0     C87237   1.698   6.487   3.723  1.0158 -0.4893  1.1362
  633MOL0     C87238   1.836   6.468   3.789  0.0609  1.6037 -0.4426
  633MOL0     C87239   1.850   6.337   3.857 -0.1323 -0.0609  0.4048
  633MOL0     O87240   1.956   6.339   3.954 -0.3763 -0.0681  0.4415
  633MOL0     C87241   2.021   6.230   4.001  0.4640  0.6164 -0.0805
  633MOL0     C87242   1.977   6.097   3.962  0.2835  1.2155 -0.9569
  633MOL0     C87243   2.051   5.980   3.993  1.3315  0.7990  0.6186
  633MOL0     C87244   1.988   5.842   3.944 -0.1291 -0.0423  0.4719
  633MOL0     C87245   2.171   5.991   4.058  0.0503  0.3892 -0.0867
  633MOL0     C87246   2.258   5.869   4.094 -0.0620  0.4601  0.5545
  633MOL0     O87247   2.246   5.765   4.010 -0.6575 -0.2575  0.1908
  633MOL0     C87248   2.324   5.652   4.021 -0.6807  0.4853 -0.5563
  633MOL0     C87249   2.349   5.580   4.139 -0.9238 -0.0800 -0.4936
  633MOL0     C87250   2.445   5.482   4.134  0.5373 -0.5130 -0.2382
  633MOL0     C87251   2.501   5.440   4.011 -0.0234  0.7785 -0.8906
  633MOL0     O87252   2.597   5.344   4.024  0.4658 -0.3746  0.6458
  633MOL0     C87253   2.569   5.240   3.929 -0.5409 -0.7747  0.5198
  633MOL0     C87254   2.665   5.122   3.975  0.1594 -0.9335 -0.5034
  633MOL0     C87255   2.637   5.075   4.113  0.0532  0.1638 -0.2408
  633MOL0     C87256   2.665   4.925   4.131 -0.9079  0.7563 -0.2729
  633MOL0     C87257   2.594   4.861   4.252 -0.4673 -0.1438 -0.8471
  633MOL0     C87258   2.532   4.715   4.251 -0.3220 -0.2347  0.4344
  633MOL0     C87259   2.633   4.611   4.207 -0.6990 -0.8267 -0.3797
  633MOL0     C87260   2.574   4.473   4.211  0.2132 -0.4465 -0.0839
  633MOL0    Cl87261   2.721   4.358   4.213  0.0066  0.1016  0.1476
  633MOL0     C87262   2.461   5.503   3.894 -0.3262  0.2502 -0.4452
  633MOL0     C87263   2.383   5.620   3.901  0.3020  0.6958 -0.5253
  633MOL0     O87264   2.332   5.882   4.186 -0.8743  0.2935 -1.0156
  633MOL0     C87265   2.213   6.119   4.100 -0.0762  0.1899  0.0156
  633MOL0     C87266   2.130   6.236   4.079  0.1032 -0.7504  0.4092
  633MOL0     N87267   1.815   6.196   3.562  0.0103 -0.5146 -0.1781
  633MOL0     N87268   1.916   6.180   3.484  0.4515 -0.5928  0.0060
  633MOL0     C87269   2.866   5.795   3.444  0.1509 -0.7809 -0.0317
  633MOL0     C87270   2.891   5.664   3.462  0.4829  0.4244 -0.1309
  633MOL0     C87271   2.908   5.261   3.667 -0.4775  0.1260 -0.7808
  633MOL0     C87272   2.868   5.197   3.545 -0.0376 -0.1097  0.0673
  633MOL0     C87273   2.878   5.058   3.538  0.5815 -1.1666  0.4647
  633MOL0     C87274   2.920   4.981   3.644  0.0322 -0.2164  0.1286
  633MOL0     O87275   2.921   4.842   3.610 -0.4544 -1.0063 -0.6017
  633MOL0     C87276   2.923   4.737   3.716 -0.7423 -0.3392 -0.6333
  633MOL0     C87277   2.797   4.742   3.810  0.6317  0.4102 -0.2747
  633MOL0     C87278   2.659   4.721   3.733  0.2179  0.2486  0.0842
  633MOL0     C87279   2.546   4.704   3.842  0.5843 -0.2161  0.3585
  633MOL0     C87280   2.455   4.816   3.828 -0.1204 -0.7100 -0.2316
  633MOL0     C87281   2.365   4.896   3.831 -0.2975 -0.5359 -0.2271
  633MOL0     C87282   2.976   5.046   3.763  0.0528  0.8290 -0.3513
  633MOL0     C87283   2.975   5.187   3.774  0.0583  0.0893  0.1078
  633MOL0     C87284   3.046   5.236   3.896 -0.0416  0.3761  0.4100
  633MOL0     H87285   2.702   5.618   3.740  2.8396 -1.4882  1.6322
  633MOL0     H87286   2.702   5.877   3.720  3.1267  0.1592  0.6697
  633MOL0     H87287   2.616   5.984   3.406  0.2340 -0.9045  0.3112
  633MOL0     H87288   2.769   6.018   3.312 -1.6559 -1.3739 -0.0206
  633MOL0     H87289   2.623   6.192   3.496 -0.3231  3.2135 -0.2628
  633MOL0     H87290   2.781   6.229   3.416  1.3329 -0.3386 -7.5665
  633MOL0     H87291   2.609   6.346   3.302 -0.6948 -0.0108  2.6957
  633MOL0     H87292   2.670   6.214   3.207 -1.4816 -0.3192 -0.4955
  633MOL0     H87293   2.471   6.087   3.221  0.3196  0.1904  0.3756
  633MOL0     H87294   2.421   6.145   3.371  3.5741 -1.3283  1.8418
  633MOL0     H87295   2.426   6.339   3.140  1.9914 -0.0904  1.4281
  633MOL0     H87296   2.349   6.372   3.291 -0.3085  3.6815 -3.4847
  633MOL0     H87297   2.178   6.313   3.111 -2.0951 -1.7127 -0.2748
  633MOL0     H87298   2.242   6.157   3.096 -1.4795 -0.0276  0.2229
  633MOL0     H87299   2.188   6.163   3.358  0.5689  0.2399 -0.6635
  633MOL0     H87300   2.055   6.120   3.248 -1.6037  1.3460  0.4422
  633MOL0     H87301   2.119   6.403   3.347 -1.5632  3.0081 -1.6125
  633MOL0     H87302   1.977   6.358   3.238 -0.7565 -1.0949  1.4563
  633MOL0     H87303   1.838   6.493   3.421  0.7208 -0.5081 -0.3469
  633MOL0     H87304   1.609   6.301   3.651  3.3986 -1.5435 -0.1199
  633MOL0     H87305   1.593   6.423   3.527  1.3939 -2.2710 -0.8703
  633MOL0     H87306   1.704   6.582   3.669 -0.1288 -0.4646  1.0271
  633MOL0     H87307   1.622   6.492   3.802 -0.2373 -0.7452 -0.0280
  633MOL0     H87308   1.916   6.462   3.715  0.4910  0.7523  0.0717
  633MOL0     H87309   1.844   6.549   3.861  0.7382  0.0069  1.3696
  633MOL0     H87310   1.757   6.309   3.907 -0.3171  0.9164  0.6446
  633MOL0     H87311   1.876   6.269   3.776 -0.4591  2.6081 -2.1364
  633MOL0     H87312   1.889   6.078   3.902  0.7269  0.7756 -1.4867
  633MOL0     H87313   1.896   5.872   3.893  0.4766  1.8820  0.4240
  633MOL0     H87314   1.950   5.792   4.034  2.6493 -0.0992  1.7168
  633MOL0     H87315   2.056   5.794   3.872  0.2085  4.1607 -2.3340
  633MOL0     H87316   2.304   5.609   4.233 -1.7464 -0.4856 -0.7439
  633MOL0     H87317   2.475   5.428   4.223  3.1040  0.8454 -0.1984
  633MOL0     H87318   2.466   5.204   3.926  0.0625 -2.5625 -1.7848
  633MOL0     H87319   2.602   5.280   3.833  0.0227 -0.3804  0.8700
  633MOL0     H87320   2.655   5.041   3.901  0.2679 -1.7358  0.3393
  633MOL0     H87321   2.771   5.150   3.980 -0.1658  0.1771  0.6611
  633MOL0     H87322   2.533   5.098   4.135  0.4603  1.3698  0.5164
  633MOL0     H87323   2.709   5.120   4.182 -1.7289 -0.3261  2.0798
  633MOL0     H87324   2.772   4.905   4.133 -0.3781  3.1611 -0.5571
  633MOL0     H87325   2.614   4.876   4.047  0.5872  2.4491 -2.2919
  633MOL0     H87326   2.665   4.855   4.334 -0.9043 -1.3309 -0.5321
  633MOL0     H87327   2.510   4.925   4.278  0.9727 -0.1998  5.3695
  633MOL0     H87328   2.449   4.703   4.181  0.6299 -2.2050 -0.4451
  633MOL0     H87329   2.500   4.707   4.355 -0.1143  0.4306  0.5533
  633MOL0     H87330   2.718   4.604   4.275 -1.0242  1.5789  0.3728
  633MOL0     H87331   2.677   4.631   4.108 -0.3372 -1.0807 -0.2719
  633MOL0     H87332   2.509   4.447   4.127  1.2388 -3.3693 -0.0855
  633MOL0     H87333   2.515   4.467   4.303  2.1035  1.7486  1.3787
  633MOL0     H87334   2.514   5.465   3.808  2.3796 -1.1310  1.6717
  633MOL0     H87335   2.365   5.681   3.813  4.7132  1.0965 -1.3861
  633MOL0     H87336   2.302   6.123   4.161 -0.3467 -2.2542  0.6626
  633MOL0     H87337   2.151   6.335   4.119  3.0600 -1.9225  2.1261
  633MOL0     H87338   2.906   5.854   3.362  0.0721 -0.6921 -0.0046
  633MOL0     H87339   2.967   5.608   3.408  0.6359 -0.7957  1.2982
  633MOL0     H87340   2.807   5.251   3.473 -0.2618  1.5624  1.4454
  633MOL0     H87341   2.836   5.003   3.454 -2.6371 -0.2708  1.3594
  633MOL0     H87342   2.938   4.640   3.668  2.9544  0.6265 -1.8134
  633MOL0     H87343   3.013   4.746   3.778 -2.6069 -0.1067  2.2232
  633MOL0     H87344   2.796   4.836   3.867 -0.3143 -1.6742  3.4909
  633MOL0     H87345   2.802   4.672   3.894  0.8547  0.6384 -0.0930
  633MOL0     H87346   2.638   4.804   3.665 -0.9876  0.7167  0.9835
  633MOL0     H87347   2.658   4.624   3.683  3.0816 -2.0882  3.9895
  633MOL0     H87348   2.585   4.699   3.944 -1.0229 -0.0261  1.0157
  633MOL0     H87349   2.499   4.607   3.822  2.3320 -1.3635  1.5592
  633MOL0     H87350   2.279   4.959   3.827  1.0992  1.7007  2.1252
  633MOL0     H87351   3.023   4.979   3.834  1.3948  0.3391 -1.6432
  633MOL0     H87352   2.981   5.285   3.968  2.0940  1.7213  1.5351
  633MOL0     H87353   3.099   5.153   3.945  2.5217  1.5896 -0.1657
  633MOL0     H87354   3.124   5.304   3.861 -2.8613  2.1550 -3.0676
  634MOL0     O87355   1.764   6.237   7.907 -0.3009  0.3231  0.3235
  634MOL0     C87356   1.672   6.165   7.938  0.3812  0.1655  0.3312
  634MOL0     O87357   1.669   6.097   8.051 -0.8295  0.3248  0.3916
  634MOL0     C87358   1.780   6.028   8.095 -0.6136 -0.3644 -0.1237
  634MOL0     C87359   1.889   5.986   8.020  0.5079  0.4074 -0.4569
  634MOL0     C87360   1.972   5.884   8.071 -0.9124 -0.0826  0.0019
  634MOL0     C87361   1.962   5.840   8.205  0.4778 -0.0283 -1.0234
  634MOL0     O87362   2.042   5.742   8.268  0.0389 -0.3255 -0.4383
  634MOL0     C87363   2.111   5.652   8.170  1.0427 -0.4359  0.2053
  634MOL0     C87364   2.159   5.534   8.261  0.0360 -0.5533  0.1469
  634MOL0     C87365   2.040   5.446   8.285  0.2099 -0.2759  0.4958
  634MOL0     C87366   2.052   5.362   8.417 -0.5003  0.7833 -0.0963
  634MOL0     C87367   2.002   5.219   8.377  0.4159  0.8449 -0.3081
  634MOL0     C87368   2.016   5.122   8.492 -0.5829  0.6818  0.1821
  634MOL0     C87369   1.915   5.005   8.474 -0.1246 -0.0439 -0.3234
  634MOL0     C87370   1.942   4.900   8.364 -0.2921 -0.4717 -0.9623
  634MOL0     N87371   2.074   4.842   8.389 -0.4891 -0.0426 -0.2951
  634MOL0     C87372   2.071   4.716   8.444  0.8554  0.3316 -0.4920
  634MOL0     C87373   2.192   4.664   8.415  1.1810 -0.3756 -0.2885
  634MOL0     C87374   2.242   4.529   8.450 -0.1170 -0.7774 -0.5056
  634MOL0     C87375   2.214   4.432   8.343 -0.1923  0.3360 -0.2273
  634MOL0     C87376   2.297   4.457   8.220 -0.6270  0.6073 -0.4935
  634MOL0     C87377   2.296   4.331   8.134  0.0668 -1.0750  0.3417
  634MOL0     O87378   2.380   4.352   8.021 -0.0256  0.1376  0.0041
  634MOL0     C87379   2.343   4.407   7.901 -0.1016  2.0729  0.0237
  634MOL0     C87380   2.212   4.445   7.869  0.0308  0.3949 -0.6877
  634MOL0     C87381   2.166   4.498   7.752  0.5529  0.3715 -0.0735
  634MOL0     C87382   2.015   4.532   7.749  0.3529  0.4857 -0.1436
  634MOL0     C87383   2.261   4.506   7.651 -0.3902 -0.4601  0.5392
  634MOL0     C87384   2.222   4.526   7.511  0.9993  0.1458 -0.5382
  634MOL0     O87385   2.321   4.509   7.420  0.6760 -0.2132  0.9878
  634MOL0     C87386   2.305   4.544   7.288  0.0046  0.1521  0.0628
  634MOL0     C87387   2.361   4.456   7.193  0.1970 -0.0569 -0.7772
  634MOL0     C87388   2.348   4.489   7.058  0.2787  0.4133  0.5336
  634MOL0     C87389   2.281   4.600   7.010  0.3598 -0.1022  0.2753
  634MOL0     O87390   2.275   4.623   6.866  0.5999 -0.1307 -0.6283
  634MOL0     C87391   2.239   4.753   6.809 -0.8850  0.4071 -0.7125
  634MOL0     C87392   2.203   4.749   6.668 -0.5312 -0.2054  0.2880
  634MOL0     C87393   2.068   4.676   6.646  0.4592 -0.6849 -0.2550
  634MOL0     C87394   2.029   4.683   6.498  0.1400  0.9761  0.6138
  634MOL0     C87395   1.900   4.602   6.454 -0.6010 -0.2076 -0.7503
  634MOL0     C87396   1.927   4.455   6.482 -0.1555  0.4173 -1.2345
  634MOL0     C87397   1.835   4.347   6.422  0.5077  0.7381  0.1043
  634MOL0     C87398   1.882   4.209   6.472  1.1336 -0.6444 -0.1318
  634MOL0    Cl87399   2.034   4.167   6.398  0.4561  0.1450 -0.0343
  634MOL0     C87400   2.221   4.685   7.105 -0.3588  0.6249 -0.0884
  634MOL0     C87401   2.239   4.658   7.245 -0.1979  0.8419  0.7133
  634MOL0     O87402   2.101   4.550   7.474  0.3712  0.1660  0.1160
  634MOL0     C87403   2.400   4.482   7.682 -0.1362 -0.3326  0.4220
  634MOL0     C87404   2.439   4.436   7.805 -0.0662 -0.7356  0.3494
  634MOL0     N87405   2.267   4.757   8.343  0.2582 -1.3128  0.0318
  634MOL0     N87406   2.192   4.864   8.324  0.0044  0.5099  0.7720
  634MOL0     C87407   1.856   5.895   8.284 -0.6815 -0.1169 -0.7576
  634MOL0     C87408   1.766   5.984   8.224  0.0422  0.2266  0.4515
  634MOL0     C87409   1.544   6.189   7.867 -0.1573 -0.1971 -0.0425
  634MOL0     C87410   1.424   6.129   7.925 -0.2967 -0.2373 -0.3040
  634MOL0     C87411   1.299   6.128   7.855  0.7117 -0.9434  0.1248
  634MOL0     C87412   1.284   6.187   7.733  0.4352  0.0150  1.1773
  634MOL0     O87413   1.164   6.183   7.661  0.0137  0.0161 -0.5591
  634MOL0     C87414   1.166   6.084   7.566 -0.2669  0.0323 -0.1439
  634MOL0     C87415   1.029   6.080   7.500 -0.6836 -0.7537  0.1079
  634MOL0     C87416   0.923   6.040   7.596  0.0639 -0.0854 -0.5591
  634MOL0     C87417   0.784   6.045   7.519 -0.2460 -0.9511  0.9792
  634MOL0     C87418   0.668   6.010   7.599  1.0616  0.5908 -0.2709
  634MOL0     C87419   0.563   5.970   7.642 -0.1333  0.8143 -0.6362
  634MOL0     C87420   1.399   6.250   7.676  0.3283  0.0616  0.1028
  634MOL0     C87421   1.531   6.257   7.736 -0.3649  1.1846 -0.1787
  634MOL0     C87422   1.647   6.324   7.654  0.2726 -0.0343  0.7245
  634MOL0     H87423   1.899   6.006   7.913 -2.4487 -2.0726 -1.3657
  634MOL0     H87424   2.050   5.841   8.008 -0.6953 -1.0451  0.9064
  634MOL0     H87425   2.199   5.701   8.127  2.1811 -1.1675  1.5789
  634MOL0     H87426   2.038   5.615   8.097  0.7444  1.6653 -0.6316
  634MOL0     H87427   2.230   5.469   8.208  0.0788 -1.0914  0.8507
  634MOL0     H87428   2.202   5.578   8.351  0.2156  0.2914 -0.3379
  634MOL0     H87429   1.953   5.510   8.299  1.8445  1.5871  3.0223
  634MOL0     H87430   2.032   5.384   8.195 -1.3919 -1.8372  1.6432
  634MOL0     H87431   2.156   5.354   8.449 -0.3409  0.6858 -0.6191
  634MOL0     H87432   1.990   5.408   8.494  0.9425  3.5130 -0.4488
  634MOL0     H87433   2.051   5.176   8.289 -1.4715  0.4397 -1.2303
  634MOL0     H87434   1.899   5.219   8.339  0.5444 -1.2187 -0.7881
  634MOL0     H87435   2.122   5.095   8.494 -0.2990  1.3562 -2.0616
  634MOL0     H87436   2.000   5.169   8.589 -0.5901  1.3011 -0.1117
  634MOL0     H87437   1.817   5.053   8.464 -0.2036 -0.5323 -2.6152
  634MOL0     H87438   1.913   4.957   8.572  5.2725 -1.0412 -0.4143
  634MOL0     H87439   1.863   4.826   8.375  0.6283 -1.3992 -0.5024
  634MOL0     H87440   1.930   4.937   8.261  1.9520 -1.3811 -1.6068
  634MOL0     H87441   2.000   4.668   8.511  1.9405  0.4230  0.7607
  634MOL0     H87442   2.197   4.494   8.544 -0.2132 -1.0673 -0.6564
  634MOL0     H87443   2.346   4.527   8.481 -0.3240  1.6756  0.5562
  634MOL0     H87444   2.240   4.330   8.373  1.1477  0.2262 -1.6413
  634MOL0     H87445   2.107   4.428   8.320 -0.8542  1.1691  2.3349
  634MOL0     H87446   2.270   4.539   8.154  2.6999  2.1683 -0.0821
  634MOL0     H87447   2.403   4.470   8.244 -0.1406 -1.0712 -1.5164
  634MOL0     H87448   2.343   4.256   8.199  2.2309  1.5060  1.9829
  634MOL0     H87449   2.198   4.287   8.117 -0.1738 -1.3878  2.3334
  634MOL0     H87450   2.141   4.425   7.949  1.2503 -0.4205  0.2201
  634MOL0     H87451   1.988   4.596   7.665  0.4469 -0.9091 -1.2761
  634MOL0     H87452   1.985   4.567   7.849  0.5684 -0.3934  0.2377
  634MOL0     H87453   1.953   4.443   7.734 -1.4923  1.2527  2.1999
  634MOL0     H87454   2.422   4.372   7.225  0.9579 -0.0115 -2.0264
  634MOL0     H87455   2.409   4.438   6.984 -2.1263  1.0625 -2.0919
  634MOL0     H87456   2.150   4.788   6.862  2.4468  1.7068  4.8425
  634MOL0     H87457   2.310   4.833   6.831 -1.2777  0.4439  0.5031
  634MOL0     H87458   2.205   4.854   6.638 -0.1092 -0.1381  0.5557
  634MOL0     H87459   2.277   4.699   6.604 -2.9843 -1.4063 -1.8269
  634MOL0     H87460   1.992   4.719   6.713  0.3464 -0.6428 -0.4088
  634MOL0     H87461   2.087   4.574   6.678 -2.7597 -0.6504  2.2894
  634MOL0     H87462   2.116   4.643   6.444  0.1564  1.9634 -0.1195
  634MOL0     H87463   2.018   4.781   6.452  0.9277 -0.5551 -3.2035
  634MOL0     H87464   1.814   4.653   6.500  0.4923  2.1615 -1.1781
  634MOL0     H87465   1.887   4.608   6.346  1.5595  1.4925 -0.9834
  634MOL0     H87466   1.903   4.450   6.589 -2.6095 -2.7358 -1.7604
  634MOL0     H87467   2.032   4.432   6.461 -0.2382 -0.5782 -0.6033
  634MOL0     H87468   1.834   4.342   6.312  1.0279  1.0667  0.0815
  634MOL0     H87469   1.730   4.349   6.451  0.5051  1.6975  0.0447
  634MOL0     H87470   1.807   4.133   6.447  1.3892 -1.4816  1.4817
  634MOL0     H87471   1.888   4.208   6.582  1.3061 -0.3390 -0.1398
  634MOL0     H87472   2.178   4.776   7.063  0.1380  1.0650  0.3531
  634MOL0     H87473   2.228   4.732   7.325  1.5827  2.2051 -0.2456
  634MOL0     H87474   2.485   4.477   7.615 -0.8781 -3.4074 -0.4788
  634MOL0     H87475   2.545   4.435   7.830  0.3846  3.3714 -0.5929
  634MOL0     H87476   1.827   5.870   8.385  1.8818 -1.3281 -0.2428
  634MOL0     H87477   1.687   6.015   8.292 -0.5688  0.5777 -0.3992
  634MOL0     H87478   1.423   6.063   8.011  1.3061 -0.6630 -0.5905
  634MOL0     H87479   1.210   6.072   7.884  2.1730 -3.2446  0.3659
  634MOL0     H87480   1.248   6.109   7.499  0.7600 -1.7033  0.4139
  634MOL0     H87481   1.192   5.989   7.613 -1.1975 -0.8039 -1.2491
  634MOL0     H87482   1.017   6.008   7.418 -2.3267  1.9625 -2.2136
  634MOL0     H87483   1.007   6.179   7.461 -1.0881 -1.2050 -0.8401
  634MOL0     H87484   0.926   5.939   7.639  1.2098  0.3278  0.3888
  634MOL0     H87485   0.920   6.104   7.684 -1.7646  0.8621 -1.2546
  634MOL0     H87486   0.779   5.989   7.426  1.0414  1.5335 -0.7064
  634MOL0     H87487   0.770   6.144   7.475  1.7741 -2.2690 -3.1628
  634MOL0     H87488   0.472   5.931   7.683  0.5960 -0.4516 -0.1767
  634MOL0     H87489   1.385   6.302   7.582  1.8970 -1.6114 -1.1351
  634MOL0     H87490   1.646   6.433   7.665 -0.2727 -0.1830  2.2986
  634MOL0     H87491   1.744   6.275   7.668  1.0076  1.1469  0.0004
  634MOL0     H87492   1.620   6.315   7.548  1.3264  0.3158  0.4082
  635MOL0     O87493   6.424   7.190  10.296 -0.6791 -0.5071  0.4690
  635MOL0     C87494   6.530   7.140  10.325 -0.0324  1.1592 -0.1396
  635MOL0     O87495   6.645   7.199  10.352 -0.4313 -0.5180 -0.2886
  635MOL0     C87496   6.634   7.332  10.399  0.7550 -0.0053 -0.1520
  635MOL0     C87497   6.684   7.444  10.331 -0.8318 -0.4143 -0.1892
  635MOL0     C87498   6.651   7.576  10.361  0.2839  0.3592  0.4239
  635MOL0     C87499   6.583   7.606  10.471  1.0543  0.4396  0.2412
  635MOL0     O87500   6.549   7.737  10.504  0.7784  0.5139  0.0117
  635MOL0     C87501   6.625   7.853  10.452  0.0465  0.2954 -0.6852
  635MOL0     C87502   6.547   7.914  10.334  0.3426  0.8388  0.6655
  635MOL0     C87503   6.631   8.000  10.240  0.3533  0.0297  0.8682
  635MOL0     C87504   6.561   8.013  10.113 -0.0724 -0.3785 -0.5294
  635MOL0     C87505   6.626   8.083  10.002  0.0565  0.3187 -0.6430
  635MOL0     C87506   6.565   8.070   9.866 -0.8640 -1.0492 -0.3490
  635MOL0     C87507   6.644   8.130   9.747 -0.0340 -0.1964  0.6690
  635MOL0     C87508   6.778   8.073   9.697  0.0774 -0.5835 -0.1152
  635MOL0     N87509   6.776   7.931   9.686 -0.5515  0.3167  0.3966
  635MOL0     C87510   6.731   7.852   9.573  0.6247 -0.6042  0.5464
  635MOL0     C87511   6.745   7.723   9.618  0.2848  0.3960  0.4229
  635MOL0     C87512   6.687   7.598   9.548  0.9319  0.3141 -0.4556
  635MOL0     C87513   6.720   7.577   9.405  0.3578  1.0031  0.2015
  635MOL0     C87514   6.699   7.436   9.371 -0.1508  0.8676  0.1323
  635MOL0     C87515   6.742   7.408   9.230 -0.3442 -0.4062  0.6275
  635MOL0     O87516   6.635   7.454   9.136 -0.2415 -0.2744  0.1780
  635MOL0     C87517   6.668   7.517   9.021  0.4061 -0.2091 -0.0294
  635MOL0     C87518   6.576   7.515   8.924  0.0053  0.2963 -0.6141
  635MOL0     C87519   6.586   7.581   8.801 -0.0731 -0.1404  0.5059
  635MOL0     C87520   6.482   7.544   8.694 -0.1859  0.6020  0.0389
  635MOL0     C87521   6.701   7.665   8.777  0.2414  0.4843  0.4516
  635MOL0     C87522   6.724   7.749   8.657 -0.3649 -0.5206  0.2102
  635MOL0     O87523   6.834   7.826   8.659  0.0844 -0.3600  0.5201
  635MOL0     C87524   6.866   7.925   8.559 -0.1822 -0.0336  0.2419
  635MOL0     C87525   6.957   7.902   8.451 -0.8101 -0.6257 -0.9137
  635MOL0     C87526   6.990   8.012   8.367 -0.5395 -0.2810  0.2719
  635MOL0     C87527   6.917   8.128   8.364 -1.1561 -0.2152  0.2341
  635MOL0     O87528   6.961   8.228   8.281  0.2240  1.0453  0.2000
  635MOL0     C87529   6.875   8.340   8.270 -0.5901 -0.4494  0.0662
  635MOL0     C87530   6.887   8.410   8.136 -0.3014  0.9517  0.0058
  635MOL0     C87531   6.995   8.511   8.109 -0.0362  0.3058  0.2502
  635MOL0     C87532   7.133   8.445   8.116 -0.8589  0.3593  0.2649
  635MOL0     C87533   7.248   8.559   8.115 -0.0837 -1.0207  0.1246
  635MOL0     C87534   7.291   8.582   7.975  0.2543  0.5393  0.4300
  635MOL0     C87535   7.423   8.665   7.969 -1.1387  0.1210  0.7749
  635MOL0     C87536   7.547   8.571   7.962  0.2220 -0.2715  0.1967
  635MOL0    Cl87537   7.613   8.544   8.130 -0.1070  0.0833 -0.5940
  635MOL0     C87538   6.834   8.151   8.475 -0.4786 -0.9529  0.3697
  635MOL0     C87539   6.804   8.054   8.569  0.3753  0.1231 -0.4074
  635MOL0     O87540   6.635   7.751   8.564 -0.1593  0.5330  0.9345
  635MOL0     C87541   6.797   7.660   8.884  0.3076 -0.3841 -0.5837
  635MOL0     C87542   6.779   7.595   9.001  0.5027 -0.7824  0.3664
  635MOL0     N87543   6.801   7.727   9.748  0.1117 -0.1573  0.9088
  635MOL0     N87544   6.813   7.845   9.785  0.7275 -1.1194 -0.5698
  635MOL0     C87545   6.543   7.503  10.559 -1.0701 -0.5460  0.1833
  635MOL0     C87546   6.561   7.370  10.522 -0.2357 -0.3371 -0.5850
  635MOL0     C87547   6.542   6.994  10.306 -0.7944 -0.4785  0.0448
  635MOL0     C87548   6.653   6.954  10.228 -0.7296 -0.0576 -0.8192
  635MOL0     C87549   6.669   6.823  10.189  0.7960 -0.1638 -1.2912
  635MOL0     C87550   6.572   6.728  10.228  0.4491  0.9579 -0.1470
  635MOL0     O87551   6.601   6.596  10.187 -0.7279 -0.4517  0.3426
  635MOL0     C87552   6.504   6.493  10.225 -0.3380 -0.3126  0.0298
  635MOL0     C87553   6.573   6.358  10.204  0.2177 -0.4811  0.5143
  635MOL0     C87554   6.718   6.347  10.262 -0.9406 -0.2275  0.0924
  635MOL0     C87555   6.783   6.215  10.232 -0.0706  1.1193  0.3078
  635MOL0     C87556   6.759   6.118  10.332  0.2668  0.4157  0.6191
  635MOL0     C87557   6.718   6.036  10.407 -0.1928  0.1882 -0.8905
  635MOL0     C87558   6.463   6.767  10.294  0.8139 -0.1316  0.0743
  635MOL0     C87559   6.449   6.898  10.337 -1.1136  0.1392 -0.1068
  635MOL0     C87560   6.331   6.929  10.424 -0.2154 -0.2124  0.2484
  635MOL0     H87561   6.720   7.413  10.233 -1.2753 -3.7776  0.5841
  635MOL0     H87562   6.677   7.660  10.297 -3.4372  1.2443 -0.1356
  635MOL0     H87563   6.734   7.839  10.443  0.4140  2.3374  0.0360
  635MOL0     H87564   6.621   7.924  10.535  1.0923 -1.6923  1.1710
  635MOL0     H87565   6.508   7.827  10.280  0.5799 -0.2816  2.2216
  635MOL0     H87566   6.463   7.972  10.372 -1.3426  1.5127 -3.5144
  635MOL0     H87567   6.630   8.100  10.284 -0.0993  1.0437 -1.3280
  635MOL0     H87568   6.734   7.965  10.231 -0.4540 -1.9612 -1.6478
  635MOL0     H87569   6.539   7.912  10.077 -4.4915  0.3209 -0.3298
  635MOL0     H87570   6.468   8.066  10.134  0.4399 -0.5637  2.6358
  635MOL0     H87571   6.728   8.042   9.997 -0.2598 -0.4123 -1.2532
  635MOL0     H87572   6.641   8.189  10.026  2.8039  0.5377 -2.8112
  635MOL0     H87573   6.540   7.965   9.848 -1.0739 -1.0417 -0.1176
  635MOL0     H87574   6.477   8.136   9.861  0.4479  0.7000 -1.7293
  635MOL0     H87575   6.659   8.237   9.765  1.2704 -0.0575 -1.0135
  635MOL0     H87576   6.579   8.120   9.660  2.0764 -1.4582 -0.8361
  635MOL0     H87577   6.807   8.116   9.600 -1.4383 -0.4078 -0.5201
  635MOL0     H87578   6.852   8.099   9.773  1.1353  1.6019 -1.7654
  635MOL0     H87579   6.684   7.882   9.480  0.9318 -0.7126  0.3564
  635MOL0     H87580   6.578   7.609   9.549  1.0061  1.0654  0.2585
  635MOL0     H87581   6.724   7.513   9.605  0.1749  0.1960 -0.1309
  635MOL0     H87582   6.652   7.646   9.355  0.0859  1.6721  1.4629
  635MOL0     H87583   6.822   7.602   9.374  0.2726 -1.0016 -1.9885
  635MOL0     H87584   6.755   7.368   9.437 -0.3640  0.5963  0.0360
  635MOL0     H87585   6.592   7.416   9.379  0.1281 -0.3815  1.0904
  635MOL0     H87586   6.844   7.442   9.211 -0.1467 -2.2332 -2.1477
  635MOL0     H87587   6.753   7.299   9.225  1.2665 -0.2266 -0.5795
  635MOL0     H87588   6.493   7.447   8.941  0.6268 -1.3385 -3.4424
  635MOL0     H87589   6.399   7.496   8.748  0.6596 -0.7882  0.1662
  635MOL0     H87590   6.530   7.471   8.628  0.2267  2.5394 -1.8847
  635MOL0     H87591   6.455   7.632   8.636 -1.7719 -0.0704 -0.3166
  635MOL0     H87592   7.002   7.807   8.424 -0.2137 -0.3944 -0.7461
  635MOL0     H87593   7.072   8.018   8.296 -0.8253 -1.6095 -0.1876
  635MOL0     H87594   6.774   8.303   8.288 -0.6293  0.1315  1.1663
  635MOL0     H87595   6.909   8.414   8.344 -0.3437  0.8054 -1.2595
  635MOL0     H87596   6.885   8.333   8.059 -3.5292 -1.3850  2.1329
  635MOL0     H87597   6.787   8.456   8.130 -1.0978 -0.8457 -1.3590
  635MOL0     H87598   6.991   8.573   8.199 -3.9811 -0.0430  0.4610
  635MOL0     H87599   6.977   8.564   8.015 -0.7137  1.1973  0.8639
  635MOL0     H87600   7.157   8.371   8.039 -2.7874 -1.2130  1.1056
  635MOL0     H87601   7.144   8.408   8.218  2.4801  4.3926  1.6356
  635MOL0     H87602   7.220   8.655   8.159 -0.7172 -2.0439  2.0549
  635MOL0     H87603   7.330   8.512   8.169  0.2553 -0.0045  0.5120
  635MOL0     H87604   7.214   8.646   7.931  0.9552  1.2248  0.1792
  635MOL0     H87605   7.285   8.488   7.919 -1.9702 -0.6853  2.5196
  635MOL0     H87606   7.418   8.747   8.042 -1.7646  2.9698 -2.2417
  635MOL0     H87607   7.414   8.728   7.880 -1.6844 -0.8496  0.1412
  635MOL0     H87608   7.639   8.598   7.909  1.8421  0.1689  3.0542
  635MOL0     H87609   7.522   8.476   7.913  0.4151  1.8527 -4.6223
  635MOL0     H87610   6.785   8.248   8.486 -0.8058 -0.6263 -2.9752
  635MOL0     H87611   6.735   8.077   8.649 -1.0484  3.5289 -2.3964
  635MOL0     H87612   6.885   7.724   8.884 -1.4586  2.2842  2.0433
  635MOL0     H87613   6.860   7.614   9.072  1.6600  3.1906 -1.7700
  635MOL0     H87614   6.494   7.532  10.651 -1.1424 -1.7373  0.5323
  635MOL0     H87615   6.527   7.291  10.588  3.6188  0.0087  2.1304
  635MOL0     H87616   6.729   7.027  10.201 -2.4875  2.6128  0.8828
  635MOL0     H87617   6.751   6.785  10.128  1.0616 -2.2011  0.2341
  635MOL0     H87618   6.478   6.488  10.331  3.3518 -1.9206  1.0382
  635MOL0     H87619   6.417   6.508  10.160  1.0912 -0.9715 -2.1753
  635MOL0     H87620   6.576   6.339  10.096  0.2429  1.4218  0.1487
  635MOL0     H87621   6.529   6.268  10.248 -1.2860  0.8867  1.9129
  635MOL0     H87622   6.789   6.416  10.215  0.1416 -2.3527 -1.5367
  635MOL0     H87623   6.717   6.365  10.369  1.5922 -0.6206  0.2422
  635MOL0     H87624   6.891   6.235  10.233  0.5297 -1.7347  0.9905
  635MOL0     H87625   6.761   6.176  10.133  0.7933 -1.3323  1.0050
  635MOL0     H87626   6.695   5.967  10.486  0.6418  0.6215 -0.2459
  635MOL0     H87627   6.388   6.692  10.319  1.6487 -0.7603  0.7707
  635MOL0     H87628   6.247   6.971  10.368  2.5737 -0.2392 -4.4453
  635MOL0     H87629   6.316   6.836  10.480  2.3746 -0.9121 -0.0557
  635MOL0     H87630   6.350   7.004  10.502 -3.9429 -0.4508  1.5650
  636MOL0     O87631   9.448   1.188   8.063  0.6888 -0.0599  0.6975
  636MOL0     C87632   9.559   1.210   8.024 -0.1341 -0.0839  0.3492
  636MOL0     O87633   9.643   1.321   8.050  0.5478 -0.5824 -0.1889
  636MOL0     C87634   9.588   1.442   8.099  0.2088  0.0793 -0.1701
  636MOL0     C87635   9.463   1.493   8.098  0.6304  0.5866  0.0517
  636MOL0     C87636   9.438   1.619   8.157  0.8230  0.3204 -0.1113
  636MOL0     C87637   9.543   1.714   8.184  0.1033  0.1190 -1.3753
  636MOL0     O87638   9.522   1.841   8.213 -0.2619 -0.4062  0.0936
  636MOL0     C87639   9.413   1.907   8.138  0.5246  0.2030 -0.5020
  636MOL0     C87640   9.346   2.018   8.216  0.2858 -0.1370 -0.2503
  636MOL0     C87641   9.274   1.960   8.341  0.3854 -0.0637  0.3199
  636MOL0     C87642   9.237   2.064   8.443  0.7863 -0.0682 -0.5770
  636MOL0     C87643   9.115   2.155   8.408 -0.4352 -0.5674  0.2187
  636MOL0     C87644   9.061   2.206   8.542 -0.1975  0.1207 -1.2117
  636MOL0     C87645   8.948   2.309   8.518  1.9295  0.0938 -0.1863
  636MOL0     C87646   8.910   2.385   8.648  0.2831  0.4952  0.3251
  636MOL0     N87647   9.005   2.482   8.695 -0.3514 -0.6755  0.5135
  636MOL0     C87648   9.008   2.602   8.640  0.3105 -0.1100  0.5754
  636MOL0     C87649   9.103   2.670   8.703  0.8922 -0.0576  0.5642
  636MOL0     C87650   9.153   2.809   8.661 -1.0746  0.1265  0.0368
  636MOL0     C87651   9.035   2.892   8.613  0.4842 -0.3643 -0.9131
  636MOL0     C87652   9.114   3.020   8.565  0.4381 -0.0596  0.6793
  636MOL0     C87653   9.007   3.131   8.558 -0.2344  0.1658  0.3522
  636MOL0     O87654   8.924   3.142   8.449  0.6426 -0.1110  0.1348
  636MOL0     C87655   8.870   3.263   8.431  0.0937  0.0033  1.3254
  636MOL0     C87656   8.854   3.296   8.292 -0.8385  0.0807 -1.1823
  636MOL0     C87657   8.837   3.424   8.238 -0.4735 -0.4735  0.2118
  636MOL0     C87658   8.800   3.435   8.091  0.7668 -0.0710  0.5685
  636MOL0     C87659   8.822   3.532   8.326 -1.3480 -0.1123  0.4935
  636MOL0     C87660   8.801   3.671   8.282  0.0168  0.4211 -0.3530
  636MOL0     O87661   8.717   3.742   8.373 -0.2970 -0.7326  0.3481
  636MOL0     C87662   8.714   3.885   8.384  0.0103 -0.2941 -1.4925
  636MOL0     C87663   8.610   3.926   8.471  0.0794  0.2803 -0.2887
  636MOL0     C87664   8.598   4.060   8.494  0.1751  0.1357 -0.0208
  636MOL0     C87665   8.693   4.146   8.447 -0.9693 -0.1353  0.4839
  636MOL0     O87666   8.689   4.285   8.470 -0.2701  0.2356  0.4221
  636MOL0     C87667   8.806   4.369   8.459 -0.4734 -0.0941  0.0982
  636MOL0     C87668   8.781   4.507   8.534  0.2049  0.8245  0.0380
  636MOL0     C87669   8.774   4.503   8.689 -0.3955  0.1777  0.1415
  636MOL0     C87670   8.784   4.648   8.731  0.5198  0.0902  0.3998
  636MOL0     C87671   8.787   4.645   8.884 -1.2190 -0.3399 -0.3539
  636MOL0     C87672   8.773   4.781   8.955  0.0595  0.4104 -0.9845
  636MOL0     C87673   8.717   4.765   9.091  0.0634  0.1452 -0.0342
  636MOL0     C87674   8.777   4.659   9.178  0.3991 -1.3559 -0.4102
  636MOL0    Cl87675   8.953   4.664   9.203 -0.3399  0.4231  0.5025
  636MOL0     C87676   8.797   4.103   8.366  0.4462 -0.6796 -1.1947
  636MOL0     C87677   8.816   3.969   8.334 -0.1403  0.5599 -1.2912
  636MOL0     O87678   8.849   3.717   8.178  0.2398  0.9317  0.4034
  636MOL0     C87679   8.816   3.499   8.473 -0.4025 -0.1589  0.5008
  636MOL0     C87680   8.832   3.363   8.517  0.4780 -0.1357 -0.5961
  636MOL0     N87681   9.157   2.591   8.799  0.6898  0.5994  0.4200
  636MOL0     N87682   9.098   2.476   8.794 -0.5663  0.7461 -0.0254
  636MOL0     C87683   9.669   1.659   8.194  0.0616 -0.7258 -0.1540
  636MOL0     C87684   9.688   1.528   8.147 -0.2757  0.5014  0.1558
  636MOL0     C87685   9.616   1.127   7.909 -0.0116 -0.0049 -0.5466
  636MOL0     C87686   9.703   1.185   7.815 -0.8300 -0.7997 -0.8319
  636MOL0     C87687   9.731   1.117   7.700 -0.3699  0.0372 -0.5339
  636MOL0     C87688   9.675   0.989   7.676 -0.0517  0.0804 -0.3207
  636MOL0     O87689   9.700   0.912   7.571 -0.2335  0.0611  0.0530
  636MOL0     C87690   9.798   0.955   7.477 -0.1938  0.2499  0.3074
  636MOL0     C87691   9.727   1.047   7.372 -0.7120  0.3495 -0.1797
  636MOL0     C87692   9.837   1.115   7.290  0.4046  0.2420 -0.0565
  636MOL0     C87693   9.796   1.123   7.147 -0.1318 -0.1679  0.7434
  636MOL0     C87694   9.871   1.230   7.074 -0.8658  0.2223  0.0061
  636MOL0     C87695   9.922   1.318   7.007 -0.0738  0.2739  0.9759
  636MOL0     C87696   9.590   0.928   7.773  0.3802 -1.3540 -0.2454
  636MOL0     C87697   9.554   1.000   7.891 -0.9040  0.1628  0.4083
  636MOL0     C87698   9.472   0.920   7.985 -0.7327  0.3534  0.1910
  636MOL0     H87699   9.378   1.436   8.064  2.6006 -0.8835 -2.7748
  636MOL0     H87700   9.331   1.627   8.174  0.7356  0.8731 -0.8651
  636MOL0     H87701   9.338   1.851   8.081 -0.1411  1.5600 -1.0025
  636MOL0     H87702   9.474   1.967   8.070 -0.3028  2.7093  0.8826
  636MOL0     H87703   9.420   2.091   8.251 -0.7546  0.7916  0.0937
  636MOL0     H87704   9.267   2.063   8.155 -0.9524 -0.4908  1.0254
  636MOL0     H87705   9.191   1.891   8.325  0.5340 -0.1000 -0.3392
  636MOL0     H87706   9.338   1.890   8.396 -1.9440 -0.0340  3.3150
  636MOL0     H87707   9.211   2.001   8.528  2.3668 -0.4345 -0.3441
  636MOL0     H87708   9.330   2.116   8.466  1.8200 -1.8564 -0.5602
  636MOL0     H87709   9.040   2.095   8.355 -2.4179  1.2868  0.7503
  636MOL0     H87710   9.151   2.234   8.342  1.2050 -1.7483 -0.3547
  636MOL0     H87711   9.045   2.128   8.617  1.2358  1.8175  1.0256
  636MOL0     H87712   9.143   2.268   8.581  1.2461 -2.3500 -0.0671
  636MOL0     H87713   8.861   2.253   8.483  2.2193 -1.3093  1.1759
  636MOL0     H87714   8.985   2.380   8.444 -0.0621  1.9037  0.4775
  636MOL0     H87715   8.812   2.432   8.631  0.4328 -0.2441 -3.3302
  636MOL0     H87716   8.889   2.313   8.728 -1.7958  1.4193  0.7057
  636MOL0     H87717   8.946   2.621   8.553  2.0852  2.8053 -0.1908
  636MOL0     H87718   9.231   2.801   8.584 -1.4340  0.8154 -0.4164
  636MOL0     H87719   9.205   2.860   8.742  0.5855 -1.1889 -0.1548
  636MOL0     H87720   8.985   2.861   8.521  0.8525  0.0724 -1.2657
  636MOL0     H87721   8.959   2.894   8.692  1.0185 -0.2814 -0.3907
  636MOL0     H87722   9.196   3.055   8.628  0.9668 -0.0659  0.0040
  636MOL0     H87723   9.149   3.004   8.462 -0.9390 -1.2777  0.3581
  636MOL0     H87724   8.954   3.123   8.653 -0.3539  3.6416  0.7040
  636MOL0     H87725   9.065   3.223   8.549  0.6562 -0.5687 -2.1300
  636MOL0     H87726   8.872   3.206   8.233  1.1262 -0.3301 -0.0532
  636MOL0     H87727   8.769   3.338   8.052  1.6562 -0.4108  0.6718
  636MOL0     H87728   8.882   3.468   8.027 -0.5241 -1.9806 -2.2882
  636MOL0     H87729   8.715   3.500   8.069  2.0742  0.6319 -2.9930
  636MOL0     H87730   8.544   3.845   8.501 -1.1078  0.7595 -1.5133
  636MOL0     H87731   8.519   4.098   8.558  1.7236  1.4609  1.2125
  636MOL0     H87732   8.894   4.325   8.507 -0.9498 -1.1334  0.0505
  636MOL0     H87733   8.844   4.384   8.357 -1.1316  0.4461 -0.0792
  636MOL0     H87734   8.862   4.576   8.509  0.3504  0.1721 -1.4294
  636MOL0     H87735   8.693   4.550   8.486 -0.4969 -0.4662  0.1360
  636MOL0     H87736   8.870   4.462   8.723  1.1869  1.6477 -2.2857
  636MOL0     H87737   8.688   4.450   8.730 -0.6424 -1.2775 -2.1031
  636MOL0     H87738   8.697   4.702   8.693  1.9600  2.3106  0.0697
  636MOL0     H87739   8.879   4.682   8.688  1.6734 -2.3734  0.8304
  636MOL0     H87740   8.702   4.584   8.914  0.8562 -2.7600  1.0111
  636MOL0     H87741   8.880   4.604   8.926 -0.0895  0.6123 -1.8014
  636MOL0     H87742   8.715   4.853   8.897  0.2633  1.7271  0.4003
  636MOL0     H87743   8.876   4.815   8.962  1.2514 -3.0748  0.4097
  636MOL0     H87744   8.609   4.750   9.082  0.0287  0.2127  0.2760
  636MOL0     H87745   8.735   4.852   9.155 -0.0680  0.5086 -0.4817
  636MOL0     H87746   8.746   4.556   9.157 -1.8830 -1.1802  1.5685
  636MOL0     H87747   8.737   4.682   9.278  0.1898  0.1418 -0.8099
  636MOL0     H87748   8.870   4.168   8.319 -0.5051 -0.9880 -3.2111
  636MOL0     H87749   8.892   3.931   8.267  0.6520  0.0627 -0.1241
  636MOL0     H87750   8.809   3.580   8.545  2.7566  1.7204 -1.0566
  636MOL0     H87751   8.828   3.341   8.623  1.2493 -1.3016 -0.7952
  636MOL0     H87752   9.743   1.735   8.219 -3.8162  2.3191  3.7132
  636MOL0     H87753   9.787   1.486   8.163  0.6486  2.5341  0.1200
  636MOL0     H87754   9.756   1.279   7.828  0.7753 -1.6567 -0.9058
  636MOL0     H87755   9.798   1.159   7.626 -0.6578  0.2849 -0.6565
  636MOL0     H87756   9.888   0.997   7.523 -0.8991 -2.0445  4.2484
  636MOL0     H87757   9.849   0.872   7.428 -0.4614  0.5864 -0.5579
  636MOL0     H87758   9.661   1.121   7.417 -3.5050 -2.6062  0.9720
  636MOL0     H87759   9.665   0.972   7.322 -2.8661  1.5448  0.6045
  636MOL0     H87760   9.841   1.214   7.337  0.1317  0.9176 -1.4094
  636MOL0     H87761   9.935   1.066   7.300 -0.0892 -0.8485 -0.4288
  636MOL0     H87762   9.689   1.143   7.139  0.0199  0.7325  0.9142
  636MOL0     H87763   9.821   1.026   7.102  0.4529  0.7572 -1.0174
  636MOL0     H87764   9.953   1.396   6.940  0.9544 -0.4743  0.5299
  636MOL0     H87765   9.544   0.830   7.762 -0.3150 -1.4308  2.5307
  636MOL0     H87766   9.508   0.926   8.088 -1.9467 -1.8496  0.8087
  636MOL0     H87767   9.368   0.951   7.976 -0.6064  1.0833  1.1050
  636MOL0     H87768   9.487   0.813   7.966  4.6456  0.5131  1.7910
  637MOL0     O87769   5.897  10.666   4.315 -0.2252 -0.0935  0.4168
  637MOL0     C87770   5.980  10.706   4.395 -0.4342  0.4440  0.3884
  637MOL0     O87771   6.114  10.683   4.388  0.1102  0.7903 -0.4143
  637MOL0     C87772   6.155  10.592   4.295  0.1310  1.0881  0.4665
  637MOL0     C87773   6.244  10.625   4.200 -0.8444  0.1936  0.5510
  637MOL0     C87774   6.286  10.535   4.100  0.7670 -0.0165 -0.1309
  637MOL0     C87775   6.224  10.398   4.106  0.0349 -0.8762  0.9476
  637MOL0     O87776   6.261  10.306   4.013  0.5985 -0.2001  0.5992
  637MOL0     C87777   6.190  10.184   3.972  0.2938 -0.8039  0.5493
  637MOL0     C87778   6.195  10.072   4.072 -0.1072  0.0292  0.0287
  637MOL0     C87779   6.069   9.978   4.071 -0.0459 -0.5498 -0.1769
  637MOL0     C87780   5.943  10.055   4.128 -0.2277 -0.3415 -0.7249
  637MOL0     C87781   5.831   9.963   4.142  1.5918 -0.8138  0.1899
  637MOL0     C87782   5.720  10.010   4.228 -0.0482  0.1506 -0.2588
  637MOL0     C87783   5.610   9.901   4.239  0.2000  0.4713 -0.3121
  637MOL0     C87784   5.509   9.895   4.132  0.2642  0.0047  0.6818
  637MOL0     N87785   5.410   9.794   4.173 -0.4189 -0.5909 -0.4714
  637MOL0     C87786   5.425   9.665   4.117  0.4413  0.4741  0.0296
  637MOL0     C87787   5.318   9.599   4.178 -1.2695 -0.0541  0.2866
  637MOL0     C87788   5.286   9.453   4.163 -0.0939 -0.9103  0.3544
  637MOL0     C87789   5.378   9.352   4.234  0.9041 -0.7821 -0.7869
  637MOL0     C87790   5.366   9.396   4.383 -0.1633 -1.1379  0.1677
  637MOL0     C87791   5.461   9.310   4.472 -0.4325  0.3541  0.5033
  637MOL0     O87792   5.599   9.327   4.430  0.0775  1.1765 -0.7363
  637MOL0     C87793   5.707   9.285   4.505 -1.0977 -1.0902 -0.4282
  637MOL0     C87794   5.708   9.226   4.623 -0.2088  1.0091  0.5936
  637MOL0     C87795   5.822   9.174   4.681 -0.2896 -0.1450 -0.5608
  637MOL0     C87796   5.793   9.098   4.809 -0.9711  0.3276 -0.2365
  637MOL0     C87797   5.956   9.207   4.632  0.6223  0.1691  0.3682
  637MOL0     C87798   6.095   9.179   4.682 -0.2841 -1.0010 -0.0506
  637MOL0     O87799   6.089   9.141   4.809  1.1687 -0.1202 -0.4382
  637MOL0     C87800   6.201   9.104   4.874 -0.3714 -0.5505  0.2276
  637MOL0     C87801   6.301   9.015   4.820 -0.0017  0.0431 -0.2588
  637MOL0     C87802   6.424   8.994   4.879  0.9695  0.2484 -0.8925
  637MOL0     C87803   6.443   9.056   5.007 -0.0704  0.5158 -0.8104
  637MOL0     O87804   6.552   9.067   5.076 -0.8636  0.7911 -0.9948
  637MOL0     C87805   6.552   8.986   5.202  0.2062 -0.2955  0.3197
  637MOL0     C87806   6.690   9.016   5.277  0.9653 -0.0537 -0.0121
  637MOL0     C87807   6.813   8.996   5.188  0.9997  0.9037  0.1228
  637MOL0     C87808   6.942   9.051   5.257  1.2310  0.1385 -0.3288
  637MOL0     C87809   7.069   9.013   5.179 -0.2675 -0.4946  0.5369
  637MOL0     C87810   7.101   9.114   5.073 -1.1471  0.0091  0.1260
  637MOL0     C87811   7.234   9.068   4.999  0.4593  0.3355 -0.3411
  637MOL0     C87812   7.218   9.069   4.844  0.8071 -0.7603 -0.5438
  637MOL0    Cl87813   7.378   9.017   4.773  0.3726  0.1436 -0.0795
  637MOL0     C87814   6.344   9.141   5.058  0.1576 -0.4018 -0.0881
  637MOL0     C87815   6.229   9.167   4.996 -0.1065 -0.0813  0.2615
  637MOL0     O87816   6.200   9.208   4.617  0.5064 -0.1906 -0.2094
  637MOL0     C87817   5.952   9.273   4.515 -0.8718  0.2416 -1.1299
  637MOL0     C87818   5.831   9.300   4.454 -0.2594 -1.1963 -0.1593
  637MOL0     N87819   5.242   9.691   4.255  0.3926  0.2306 -0.3535
  637MOL0     N87820   5.293   9.808   4.237  0.4694 -0.1630 -1.4816
  637MOL0     C87821   6.139  10.363   4.213 -0.2243  0.2820  0.4958
  637MOL0     C87822   6.115  10.459   4.304  0.2863  0.1323  0.1563
  637MOL0     C87823   5.935  10.819   4.475 -0.3358  0.4536  0.4619
  637MOL0     C87824   6.032  10.888   4.554 -0.1733 -0.4695 -0.0708
  637MOL0     C87825   5.995  10.988   4.642 -0.4847  0.8315 -0.1087
  637MOL0     C87826   5.862  11.030   4.649 -0.2248 -0.7687 -0.5147
  637MOL0     O87827   5.813  11.142   4.715 -1.1425  0.6457  0.3210
  637MOL0     C87828   5.894  11.226   4.801 -0.8803 -0.3361  0.8891
  637MOL0     C87829   5.811  11.350   4.833  0.6295  1.1302 -0.0876
  637MOL0     C87830   5.758  11.426   4.705  1.0688 -0.6960  0.2301
  637MOL0     C87831   5.763  11.572   4.742 -0.5210  0.5253 -0.1701
  637MOL0     C87832   5.711  11.641   4.629  0.3437 -0.0531 -0.0533
  637MOL0     C87833   5.653  11.688   4.530  0.6952 -0.6427  0.3298
  637MOL0     C87834   5.766  10.973   4.572 -0.1037 -0.4775 -0.1343
  637MOL0     C87835   5.799  10.868   4.485 -0.3101  1.1628  0.2827
  637MOL0     C87836   5.683  10.796   4.418  0.0200 -0.4462  0.0226
  637MOL0     H87837   6.287  10.724   4.210 -3.1932  1.1000  2.9076
  637MOL0     H87838   6.361  10.552   4.023 -1.2515  0.3534 -2.1278
  637MOL0     H87839   6.248  10.156   3.883  2.5155  2.3588  0.8150
  637MOL0     H87840   6.088  10.213   3.948  0.9441  1.3432  0.1061
  637MOL0     H87841   6.270  10.003   4.031  0.6721 -0.8178  2.7017
  637MOL0     H87842   6.237  10.098   4.169  1.2454 -2.1557  0.1000
  637MOL0     H87843   6.051   9.938   3.970 -0.3459  1.6287 -1.0481
  637MOL0     H87844   6.094   9.896   4.138 -0.3410 -0.4120  0.1077
  637MOL0     H87845   5.964  10.095   4.227 -1.6632 -1.0889 -0.0970
  637MOL0     H87846   5.920  10.143   4.067 -0.0462  2.3021  2.6956
  637MOL0     H87847   5.862   9.870   4.192  1.4093 -1.4104 -0.7741
  637MOL0     H87848   5.800   9.939   4.039 -0.3692 -0.4509  0.6634
  637MOL0     H87849   5.755  10.019   4.331 -1.6128 -0.1661  0.3370
  637MOL0     H87850   5.680  10.102   4.184  1.7642 -0.0480 -2.4255
  637MOL0     H87851   5.549   9.939   4.321 -3.1543 -1.3624 -1.7831
  637MOL0     H87852   5.642   9.797   4.251 -2.1665 -0.1902  0.7539
  637MOL0     H87853   5.458   9.992   4.125  1.4200  0.9579  3.7450
  637MOL0     H87854   5.554   9.859   4.039  0.2443 -0.3536  0.8103
  637MOL0     H87855   5.490   9.613   4.048 -0.2869  3.4253 -3.1879
  637MOL0     H87856   5.292   9.428   4.057  0.8477 -3.1666  0.8952
  637MOL0     H87857   5.181   9.435   4.191 -0.3014  0.3836  0.4666
  637MOL0     H87858   5.336   9.251   4.229 -0.5328 -0.3326  1.2628
  637MOL0     H87859   5.481   9.353   4.196  0.1627 -1.7950 -3.0139
  637MOL0     H87860   5.400   9.500   4.379  1.1972 -1.5934 -1.8045
  637MOL0     H87861   5.263   9.401   4.418 -0.4915  0.4933 -0.9447
  637MOL0     H87862   5.453   9.337   4.578  0.7775 -1.1113  1.0110
  637MOL0     H87863   5.420   9.209   4.457 -0.0661  0.6867 -3.8131
  637MOL0     H87864   5.609   9.197   4.656  0.3046 -1.4870  0.1446
  637MOL0     H87865   5.687   9.100   4.837 -0.6013 -2.8692  2.0025
  637MOL0     H87866   5.839   9.137   4.901  0.6579 -1.4450 -0.2413
  637MOL0     H87867   5.824   8.993   4.808 -1.0076  0.2850  1.0908
  637MOL0     H87868   6.290   8.968   4.722 -1.9162  2.0125 -1.0662
  637MOL0     H87869   6.508   8.947   4.828  1.3229  0.7034 -0.7340
  637MOL0     H87870   6.482   9.022   5.279  1.1930 -0.3588  1.2749
  637MOL0     H87871   6.520   8.884   5.179 -3.3103  0.3165  1.8355
  637MOL0     H87872   6.683   9.118   5.316  1.3229 -0.7315  1.9290
  637MOL0     H87873   6.699   8.950   5.364 -1.5098 -0.5635 -0.0723
  637MOL0     H87874   6.804   9.035   5.087 -1.1978 -1.3659 -0.6596
  637MOL0     H87875   6.816   8.888   5.168  3.8942  1.0853 -0.9370
  637MOL0     H87876   6.966   8.991   5.345 -0.5696 -0.0206  0.0838
  637MOL0     H87877   6.915   9.152   5.287 -4.4125 -1.3975  0.9455
  637MOL0     H87878   7.149   9.007   5.254  0.3883  2.2009  0.1759
  637MOL0     H87879   7.053   8.912   5.142  0.7627 -1.7802  3.2803
  637MOL0     H87880   7.126   9.201   5.135 -0.2607 -0.0339 -0.1515
  637MOL0     H87881   7.020   9.131   5.001  1.0028  0.9148 -2.2412
  637MOL0     H87882   7.260   8.963   5.016  2.0201  0.4806 -1.5483
  637MOL0     H87883   7.317   9.129   5.035  0.4476 -1.1152  2.4179
  637MOL0     H87884   7.176   9.168   4.823 -3.4594 -1.9467  1.2938
  637MOL0     H87885   7.143   8.997   4.808 -0.6084  1.7233 -2.9377
  637MOL0     H87886   6.354   9.197   5.151 -1.6412 -3.4199  2.1317
  637MOL0     H87887   6.169   9.230   5.061  1.7857  0.1559  1.8694
  637MOL0     H87888   6.045   9.299   4.465 -0.3814  1.8593  0.5151
  637MOL0     H87889   5.837   9.341   4.353  0.4603  1.2246  0.7926
  637MOL0     H87890   6.086  10.269   4.220 -2.5607  1.4468 -0.6595
  637MOL0     H87891   6.048  10.423   4.382 -2.2205 -1.4305 -2.5127
  637MOL0     H87892   6.138  10.865   4.560  0.2536  1.5668  1.3529
  637MOL0     H87893   6.072  11.019   4.712 -1.6339  2.2136  0.5997
  637MOL0     H87894   5.911  11.179   4.898  0.2786 -0.9393  0.4071
  637MOL0     H87895   5.986  11.262   4.755 -2.7961  0.6689 -2.5029
  637MOL0     H87896   5.878  11.417   4.887 -1.4904  1.5112  2.2241
  637MOL0     H87897   5.728  11.320   4.898  3.0058  0.3456  2.8004
  637MOL0     H87898   5.818  11.405   4.615  1.7586  0.2599  0.4517
  637MOL0     H87899   5.656  11.396   4.680  1.0681 -1.3125  0.9174
  637MOL0     H87900   5.870  11.594   4.746  0.1286 -1.7267 -2.3274
  637MOL0     H87901   5.714  11.596   4.837  1.8037 -1.6588  1.7115
  637MOL0     H87902   5.605  11.728   4.443 -1.8168  2.8713  3.0078
  637MOL0     H87903   5.659  10.995   4.576 -0.0584  0.1062 -1.5642
  637MOL0     H87904   5.584  10.830   4.452  0.3500 -0.7928  1.4120
  637MOL0     H87905   5.683  10.801   4.309 -1.0606  1.9896  0.0624
  637MOL0     H87906   5.688  10.689   4.439  0.3251 -0.7739 -1.5879
  638MOL0     O87907  11.462   6.351   2.720 -1.2492  0.5608 -0.3771
  638MOL0     C87908  11.342   6.350   2.706 -0.3976  0.1929  1.0707
  638MOL0     O87909  11.290   6.395   2.585  0.3171  0.0900  0.2521
  638MOL0     C87910  11.361   6.369   2.467 -0.3768  0.8489 -1.7521
  638MOL0     C87911  11.359   6.466   2.363 -0.1054 -0.1328  0.2224
  638MOL0     C87912  11.419   6.434   2.241 -0.5145  1.0952  0.4449
  638MOL0     C87913  11.466   6.305   2.212 -1.0263 -0.2255  0.3788
  638MOL0     O87914  11.514   6.259   2.083 -0.3384 -0.2242  1.2905
  638MOL0     C87915  11.539   6.364   1.980  0.5850  0.9407  0.5594
  638MOL0     C87916  11.625   6.303   1.866  0.0422 -0.4419  0.1434
  638MOL0     C87917  11.605   6.402   1.754 -0.2244 -0.1549 -0.3632
  638MOL0     C87918  11.721   6.377   1.646  0.7915  0.3469 -0.3971
  638MOL0     C87919  11.761   6.515   1.589 -0.5820 -0.1774 -0.5251
  638MOL0     C87920  11.842   6.606   1.671 -0.9822 -0.6044  0.6834
  638MOL0     C87921  11.913   6.727   1.598  0.2019 -1.1452  0.2053
  638MOL0     C87922  11.966   6.841   1.703  0.7791 -0.3887  0.6792
  638MOL0     N87923  11.850   6.898   1.779 -0.4603 -0.2284 -0.3346
  638MOL0     C87924  11.807   7.034   1.751 -0.6786  0.0211 -0.3514
  638MOL0     C87925  11.779   7.091   1.872 -0.0587 -0.8128 -0.4519
  638MOL0     C87926  11.753   7.236   1.911 -0.5695 -0.3340 -0.1658
  638MOL0     C87927  11.884   7.324   1.921 -0.1092 -0.0715 -0.5553
  638MOL0     C87928  11.986   7.285   2.030  0.2433  0.9799  0.2200
  638MOL0     C87929  12.129   7.329   1.992 -0.2414  0.0622  0.9415
  638MOL0     O87930  12.188   7.282   1.874  0.0716 -0.3121 -0.6662
  638MOL0     C87931  12.317   7.321   1.856 -0.5138  0.8459 -0.0133
  638MOL0     C87932  12.410   7.213   1.846 -1.2699  0.7277 -1.1062
  638MOL0     C87933  12.558   7.227   1.824  1.0193  0.7395 -0.7058
  638MOL0     C87934  12.647   7.101   1.824 -0.6508  0.3583  0.3168
  638MOL0     C87935  12.603   7.362   1.792 -0.4822 -0.1647  0.2257
  638MOL0     C87936  12.744   7.412   1.795  0.9492 -0.6657  0.1075
  638MOL0     O87937  12.763   7.548   1.788  0.2099  1.0576 -0.5704
  638MOL0     C87938  12.888   7.602   1.816 -0.1647 -0.1839 -0.6928
  638MOL0     C87939  12.914   7.693   1.929 -0.2775  1.1110  0.5829
  638MOL0     C87940  13.040   7.763   1.956  0.6204 -0.4183 -1.1356
  638MOL0     C87941  13.133   7.737   1.862 -0.1251 -0.2805  0.3162
  638MOL0     O87942  13.244   7.811   1.879 -0.7737  0.5072  0.3811
  638MOL0     C87943  13.334   7.840   1.767  0.2314  0.3100 -0.6005
  638MOL0     C87944  13.441   7.949   1.817  1.4049 -0.5197  0.3900
  638MOL0     C87945  13.396   8.107   1.820  0.1368 -0.1332 -0.0867
  638MOL0     C87946  13.345   8.152   1.684  0.4990  0.4812 -0.8445
  638MOL0     C87947  13.304   8.305   1.675 -0.4471 -0.0742  0.6115
  638MOL0     C87948  13.374   8.403   1.758  0.4029 -0.9121 -0.0539
  638MOL0     C87949  13.343   8.548   1.711 -0.0956  0.8254  0.3409
  638MOL0     C87950  13.435   8.655   1.772 -0.6370  0.2339  0.5047
  638MOL0    Cl87951  13.618   8.635   1.765 -0.0170  0.1594 -0.0357
  638MOL0     C87952  13.118   7.640   1.766 -0.5362 -0.5174  0.4159
  638MOL0     C87953  13.001   7.573   1.741 -0.6706  0.1419 -0.5569
  638MOL0     O87954  12.831   7.329   1.802  0.1556 -0.5131 -0.2499
  638MOL0     C87955  12.505   7.470   1.789  0.0227  0.2789 -0.2072
  638MOL0     C87956  12.369   7.449   1.828  0.5206  0.7236  0.4390
  638MOL0     N87957  11.802   6.998   1.977 -0.1004 -0.5368 -0.6388
  638MOL0     N87958  11.849   6.885   1.915  0.3862 -0.2713 -0.2516
  638MOL0     C87959  11.468   6.208   2.316  1.0781 -0.4357 -0.5000
  638MOL0     C87960  11.409   6.242   2.441  0.1575  0.4747 -0.1502
  638MOL0     C87961  11.254   6.303   2.811  0.3586 -0.6623  0.2230
  638MOL0     C87962  11.120   6.262   2.776  0.1104 -0.0266 -0.9224
  638MOL0     C87963  11.032   6.214   2.873 -0.5386 -0.0544  0.3511
  638MOL0     C87964  11.079   6.202   3.008  0.5027  0.3067 -0.4458
  638MOL0     O87965  10.976   6.174   3.101  0.2021 -0.2731 -0.3065
  638MOL0     C87966  10.995   6.064   3.189 -0.9676 -0.3484 -0.4407
  638MOL0     C87967  10.857   6.047   3.261 -0.5136 -0.1761 -0.6503
  638MOL0     C87968  10.758   5.944   3.205 -0.2306 -0.5914 -0.5643
  638MOL0     C87969  10.668   5.990   3.086 -1.7419  0.2221  0.4159
  638MOL0     C87970  10.609   5.869   3.016  0.3224  0.7755 -0.3116
  638MOL0     C87971  10.551   5.775   2.958  0.0884 -0.9188  0.3955
  638MOL0     C87972  11.206   6.241   3.050 -0.3427 -0.6664  0.1280
  638MOL0     C87973  11.294   6.294   2.949  0.3238 -0.0828 -0.6091
  638MOL0     C87974  11.426   6.350   3.011 -0.1255  0.2401 -0.1692
  638MOL0     H87975  11.309   6.560   2.380  1.6579  0.4889  2.5662
  638MOL0     H87976  11.428   6.513   2.167  1.9112  1.2949  0.8840
  638MOL0     H87977  11.591   6.448   2.027 -2.9455  3.6113  0.1648
  638MOL0     H87978  11.444   6.403   1.941  1.1750  2.3424  0.4898
  638MOL0     H87979  11.727   6.281   1.898  0.3821  0.2875 -0.4094
  638MOL0     H87980  11.582   6.206   1.838 -0.1872 -0.1024 -0.7101
  638MOL0     H87981  11.512   6.387   1.699  0.6273  1.4657 -2.3898
  638MOL0     H87982  11.605   6.499   1.806 -0.6994 -1.4723  2.2586
  638MOL0     H87983  11.810   6.332   1.689 -0.9291 -2.4769  0.4858
  638MOL0     H87984  11.690   6.319   1.558  0.6498  1.5616 -1.1695
  638MOL0     H87985  11.669   6.571   1.571 -0.1487  0.7069 -0.0413
  638MOL0     H87986  11.815   6.491   1.496  2.4293  3.2712  0.1263
  638MOL0     H87987  11.778   6.658   1.744  3.1271  2.6257  2.4244
  638MOL0     H87988  11.911   6.552   1.735 -0.6709 -0.3229  0.5914
  638MOL0     H87989  11.843   6.777   1.531 -1.4485 -1.0813  1.8978
  638MOL0     H87990  11.997   6.687   1.540  1.2756  1.0878  0.1284
  638MOL0     H87991  12.030   6.802   1.782 -1.1001 -0.7894  2.0851
  638MOL0     H87992  12.009   6.927   1.651  1.1076  0.0852  1.7320
  638MOL0     H87993  11.809   7.097   1.662  1.5757 -1.2511 -1.2673
  638MOL0     H87994  11.704   7.237   2.008  1.4440  0.7488  0.9219
  638MOL0     H87995  11.678   7.264   1.837 -0.9148  1.0604  0.6746
  638MOL0     H87996  11.926   7.307   1.822  1.8735  1.9516 -0.1507
  638MOL0     H87997  11.850   7.428   1.933 -1.9607 -0.5214 -1.6312
  638MOL0     H87998  11.962   7.335   2.124 -0.6887  3.5299 -1.2739
  638MOL0     H87999  11.986   7.176   2.046  2.1701  0.9196  0.0151
  638MOL0     H88000  12.105   7.435   1.973 -1.2813 -0.2254  0.5782
  638MOL0     H88001  12.197   7.325   2.078  0.2224  1.9886  0.7294
  638MOL0     H88002  12.374   7.113   1.871  4.0085 -1.4728 -1.0762
  638MOL0     H88003  12.724   7.101   1.902  0.9247 -0.6328 -1.1604
  638MOL0     H88004  12.693   7.108   1.725 -1.2251 -2.7460 -0.2538
  638MOL0     H88005  12.588   7.010   1.837 -1.8831  1.1786  0.5922
  638MOL0     H88006  12.833   7.705   2.001 -2.2249 -3.7284 -0.4234
  638MOL0     H88007  13.052   7.819   2.048 -2.6119 -0.6534 -0.4523
  638MOL0     H88008  13.390   7.747   1.754  3.6281  2.5593 -4.5884
  638MOL0     H88009  13.299   7.875   1.669  1.7773 -0.5703 -1.5051
  638MOL0     H88010  13.475   7.931   1.919  1.1956  0.3607  0.6255
  638MOL0     H88011  13.537   7.932   1.768  0.1996 -1.3163 -1.8627
  638MOL0     H88012  13.484   8.156   1.862  0.4486 -1.9874  1.5412
  638MOL0     H88013  13.309   8.124   1.885 -1.4864  1.0325 -2.3863
  638MOL0     H88014  13.259   8.094   1.650  1.3708 -1.2059 -0.2483
  638MOL0     H88015  13.417   8.117   1.610 -1.2591 -1.2376 -1.8542
  638MOL0     H88016  13.333   8.336   1.574  1.2025 -4.7247 -0.5715
  638MOL0     H88017  13.197   8.311   1.692 -0.7332 -2.3003 -0.0928
  638MOL0     H88018  13.482   8.387   1.767  0.4026 -0.8103  0.1243
  638MOL0     H88019  13.328   8.388   1.856 -0.6782 -1.1335 -0.5860
  638MOL0     H88020  13.237   8.572   1.724 -0.5344 -1.1515  0.8319
  638MOL0     H88021  13.355   8.540   1.602  0.9151  0.3125  0.4756
  638MOL0     H88022  13.393   8.662   1.873  1.5630 -2.2787  1.7049
  638MOL0     H88023  13.398   8.743   1.719 -0.0217  0.5397  0.5736
  638MOL0     H88024  13.186   7.604   1.689 -1.2926 -0.8867 -0.0911
  638MOL0     H88025  12.995   7.501   1.660 -3.5048 -0.0555 -0.2902
  638MOL0     H88026  12.526   7.575   1.769  0.9407 -0.4250 -3.5515
  638MOL0     H88027  12.299   7.532   1.832  1.3758  1.6300 -1.7029
  638MOL0     H88028  11.518   6.113   2.298 -1.4181 -1.9152 -0.1238
  638MOL0     H88029  11.405   6.167   2.519  1.5870  3.2884  2.9148
  638MOL0     H88030  11.108   6.274   2.669 -4.6336  1.3096 -0.4438
  638MOL0     H88031  10.940   6.165   2.844  0.9865 -1.6995 -2.1816
  638MOL0     H88032  11.021   5.975   3.130  1.0978 -0.7265  0.9394
  638MOL0     H88033  11.074   6.077   3.264 -2.2857 -2.1449  1.3780
  638MOL0     H88034  10.802   6.141   3.259 -1.1186 -0.2916  3.2222
  638MOL0     H88035  10.875   6.036   3.368  1.7556 -0.4651 -1.0188
  638MOL0     H88036  10.819   5.857   3.180  1.1794  0.6408 -1.6145
  638MOL0     H88037  10.694   5.925   3.292 -2.0653 -0.2385 -1.7756
  638MOL0     H88038  10.729   6.035   3.008  0.5252  1.5526  2.7847
  638MOL0     H88039  10.590   6.060   3.118  0.2347  1.9454  1.6846
  638MOL0     H88040  10.482   5.702   2.921 -1.2330  0.3695  0.2065
  638MOL0     H88041  11.233   6.253   3.155  1.4287  2.1202 -0.5459
  638MOL0     H88042  11.426   6.458   3.028 -1.2407  0.0670  1.1053
  638MOL0     H88043  11.432   6.303   3.110  1.0716 -0.0338 -0.3597
  638MOL0     H88044  11.517   6.320   2.959  1.1005 -0.1346  2.0336
  639MOL0     O88045   0.415  10.465   8.594  0.1952 -0.3845 -1.2231
  639MOL0     C88046   0.423  10.584   8.635  0.2951 -0.2991 -1.1234
  639MOL0     O88047   0.410  10.625   8.769 -0.2117 -0.6232 -0.2075
  639MOL0     C88048   0.370  10.535   8.869 -0.2343  0.2181  1.2298
  639MOL0     C88049   0.455  10.435   8.916  0.4569 -0.9031  0.3037
  639MOL0     C88050   0.412  10.358   9.014  0.2627  0.1970  0.1321
  639MOL0     C88051   0.284  10.381   9.080 -0.4380  0.0221  0.3051
  639MOL0     O88052   0.227  10.303   9.180 -0.4549  0.2740  0.2869
  639MOL0     C88053   0.298  10.188   9.226  0.5706  0.6865 -0.4236
  639MOL0     C88054   0.214  10.102   9.330 -0.5841  0.6201 -0.3366
  639MOL0     C88055   0.154  10.199   9.427 -0.0862  0.3072 -0.3856
  639MOL0     C88056   0.072  10.122   9.533  0.4129 -0.4095  0.3699
  639MOL0     C88057   0.156  10.122   9.665 -0.2394  0.4944  0.4428
  639MOL0     C88058   0.059  10.082   9.784  0.9584 -0.0942  1.2978
  639MOL0     C88059   0.137  10.019   9.897  0.2671 -0.7354  1.1309
  639MOL0     C88060   0.224   9.890   9.857 -0.1332  0.6849  0.0998
  639MOL0     N88061   0.289   9.827   9.971  0.5390 -0.1014  0.6683
  639MOL0     C88062   0.234   9.810  10.094  0.1433 -0.7207  0.1695
  639MOL0     C88063   0.329   9.775  10.179 -0.1589 -0.1925 -0.9667
  639MOL0     C88064   0.319   9.768  10.331  0.2033 -0.2763 -0.8649
  639MOL0     C88065   0.284   9.630  10.397  0.5066 -0.2653 -0.1205
  639MOL0     C88066   0.136   9.591  10.390 -0.4395  2.3383 -0.4499
  639MOL0     C88067   0.119   9.463  10.460 -0.1884 -0.5354 -0.4175
  639MOL0     O88068   0.218   9.369  10.415  0.1415 -0.1708  0.3400
  639MOL0     C88069   0.178   9.240  10.439  0.9963 -1.1745 -0.7270
  639MOL0     C88070   0.208   9.185  10.565  0.6694  0.6900  1.0916
  639MOL0     C88071   0.166   9.057  10.603 -0.1360 -0.3761  0.1757
  639MOL0     C88072   0.204   9.005  10.739  0.1636  0.1308 -0.1289
  639MOL0     C88073   0.095   8.982  10.503  0.4836 -0.7093  0.6545
  639MOL0     C88074   0.048   8.847  10.541  0.0526 -0.1823  0.5414
  639MOL0     O88075  -0.082   8.807  10.524  0.5046 -0.3490 -0.6113
  639MOL0     C88076  -0.171   8.903  10.474 -0.6279 -0.2680 -0.0198
  639MOL0     C88077  -0.200   9.028  10.538 -0.7876 -0.0785 -0.5490
  639MOL0     C88078  -0.294   9.118  10.475 -0.7655 -0.3155  0.9128
  639MOL0     C88079  -0.360   9.077  10.359 -0.4012 -0.0570  0.6728
  639MOL0     O88080  -0.449   9.157  10.296  0.0004 -0.3082 -0.3005
  639MOL0     C88081  -0.594   9.125  10.298  0.5316  0.3351  0.1752
  639MOL0     C88082  -0.640   9.109  10.437 -0.5109 -0.1233 -0.4516
  639MOL0     C88083  -0.787   9.064  10.436 -0.3094  1.1100 -0.1732
  639MOL0     C88084  -0.853   9.093  10.579  1.2537  0.5779  0.1924
  639MOL0     C88085  -1.002   9.063  10.568  1.0729 -0.0569  0.3344
  639MOL0     C88086  -1.065   9.074  10.706  0.0895  0.2571 -0.0894
  639MOL0     C88087  -1.070   9.212  10.779 -0.7162  0.8277 -0.8262
  639MOL0     C88088  -1.132   9.331  10.720  0.5839 -0.3304  0.8893
  639MOL0    Cl88089  -1.296   9.298  10.663  0.0073 -0.0659  0.1486
  639MOL0     C88090  -0.334   8.948  10.310 -0.0901 -0.2372  0.3590
  639MOL0     C88091  -0.243   8.862  10.369  0.3836 -0.6361  0.2703
  639MOL0     O88092   0.136   8.777  10.591  0.0299 -0.3231  0.1268
  639MOL0     C88093   0.086   9.030  10.370  0.4160 -1.2779  0.3276
  639MOL0     C88094   0.124   9.160  10.348  0.7371 -0.3255  0.9627
  639MOL0     N88095   0.444   9.764  10.097  0.0597  0.0329  0.6071
  639MOL0     N88096   0.419   9.791   9.971  0.8214  0.6297 -0.4839
  639MOL0     C88097   0.202  10.487   9.038 -0.1256 -1.2310  0.0777
  639MOL0     C88098   0.252  10.567   8.929  0.0555  0.5470  0.5156
  639MOL0     C88099   0.489  10.671   8.540  0.3489  0.2321 -0.4959
  639MOL0     C88100   0.576  10.765   8.595  0.5444  0.2227  0.2361
  639MOL0     C88101   0.647  10.856   8.525 -0.4706 -0.6604  0.2335
  639MOL0     C88102   0.627  10.864   8.387 -0.6582  0.1925  0.1069
  639MOL0     O88103   0.706  10.965   8.331 -0.2449 -0.4693  0.1151
  639MOL0     C88104   0.703  10.990   8.191  1.0185 -0.0566  0.1993
  639MOL0     C88105   0.800  11.099   8.139  0.2245  0.4534  0.8672
  639MOL0     C88106   0.740  11.227   8.188 -0.4895  0.9953 -0.1854
  639MOL0     C88107   0.817  11.295   8.298  1.4227 -0.1273  0.4205
  639MOL0     C88108   0.932  11.371   8.245 -0.0411  0.2355  0.0678
  639MOL0     C88109   1.031  11.427   8.212 -0.2593  0.2788 -0.8760
  639MOL0     C88110   0.536  10.777   8.330 -0.2392 -0.3300  0.2258
  639MOL0     C88111   0.471  10.673   8.399 -0.6694  0.4314  0.0404
  639MOL0     C88112   0.394  10.567   8.329 -0.1617  0.5240 -0.1482
  639MOL0     H88113   0.546  10.413   8.862  2.6025  0.2180  3.2099
  639MOL0     H88114   0.459  10.263   9.037 -0.3221 -0.0064  0.5006
  639MOL0     H88115   0.394  10.207   9.274  2.5066 -4.0697 -1.8114
  639MOL0     H88116   0.327  10.120   9.145  0.5088  1.1271 -0.8225
  639MOL0     H88117   0.132  10.050   9.278  1.6780 -4.0305  0.2590
  639MOL0     H88118   0.267  10.018   9.375 -2.2403  0.2606  1.0727
  639MOL0     H88119   0.233  10.251   9.482  0.5209  0.6044 -1.5093
  639MOL0     H88120   0.086  10.265   9.372 -1.3560 -1.4307 -0.9896
  639MOL0     H88121  -0.016  10.184   9.551  0.7856 -0.2864  2.0082
  639MOL0     H88122   0.048  10.020   9.503  1.1886 -0.6143  0.4117
  639MOL0     H88123   0.178  10.228   9.681 -1.6554  0.8618  0.1085
  639MOL0     H88124   0.245  10.059   9.652 -1.2945 -0.7708 -1.0365
  639MOL0     H88125   0.018  10.173   9.828  2.9281  0.8110  1.3648
  639MOL0     H88126  -0.021  10.014   9.754 -0.0419  1.4885  0.2466
  639MOL0     H88127   0.067  10.008   9.981 -0.7064  2.4473  0.8851
  639MOL0     H88128   0.206  10.098   9.928 -0.6404  1.0360 -1.0467
  639MOL0     H88129   0.158   9.811   9.820 -1.5800  0.2892  3.1608
  639MOL0     H88130   0.298   9.909   9.779  1.2390  0.0834  1.2092
  639MOL0     H88131   0.131   9.826  10.124 -0.9236 -4.8753 -0.5677
  639MOL0     H88132   0.239   9.836  10.362 -2.1070 -3.1252 -0.1934
  639MOL0     H88133   0.415   9.799  10.372  0.1924 -1.3509 -0.0119
  639MOL0     H88134   0.360   9.562  10.356  2.3235  2.6595 -1.9772
  639MOL0     H88135   0.307   9.648  10.502 -0.3621 -0.8252  0.1710
  639MOL0     H88136   0.067   9.669  10.424  1.8746  3.9799  0.7473
  639MOL0     H88137   0.099   9.563  10.291  0.3578 -2.3498  0.3404
  639MOL0     H88138   0.142   9.473  10.567 -1.9117  0.4026 -0.0894
  639MOL0     H88139   0.016   9.430  10.448 -0.4779  0.7659 -1.8772
  639MOL0     H88140   0.254   9.254  10.635  2.3519  1.3832 -0.6039
  639MOL0     H88141   0.265   9.078  10.793 -0.9454  2.8348 -2.2944
  639MOL0     H88142   0.267   8.917  10.725 -1.6121 -0.9717 -1.7669
  639MOL0     H88143   0.121   8.994  10.809  1.1698  1.9702  1.4472
  639MOL0     H88144  -0.156   9.036  10.636 -2.4837  0.6818  0.1895
  639MOL0     H88145  -0.326   9.211  10.521  2.4335  1.6172 -0.5004
  639MOL0     H88146  -0.648   9.204  10.245  0.6162  1.0940  1.1863
  639MOL0     H88147  -0.611   9.034  10.240 -2.3561  2.4903 -2.6876
  639MOL0     H88148  -0.574   9.044  10.495 -2.5231  0.2420  2.4522
  639MOL0     H88149  -0.631   9.200  10.498 -0.0740 -1.9833  2.4572
  639MOL0     H88150  -0.781   8.955  10.439  1.9355  1.1311 -1.5890
  639MOL0     H88151  -0.845   9.091  10.347  2.4139 -0.7439 -2.7012
  639MOL0     H88152  -0.839   9.197  10.610  1.6976 -0.0669  2.3144
  639MOL0     H88153  -0.796   9.024  10.640  0.2571 -3.2808 -2.8395
  639MOL0     H88154  -1.059   9.139  10.515  2.6549  3.1497  2.8517
  639MOL0     H88155  -1.016   8.973  10.508 -2.2292  0.7302 -0.2653
  639MOL0     H88156  -1.020   8.996  10.769 -1.1520 -0.0750  0.4228
  639MOL0     H88157  -1.169   9.040  10.699  0.1488  0.4706 -2.6956
  639MOL0     H88158  -0.966   9.230  10.810 -0.0024 -2.4322 -1.0391
  639MOL0     H88159  -1.128   9.188  10.869 -3.8972  0.2828 -2.8944
  639MOL0     H88160  -1.068   9.360  10.636 -1.4578  2.0368  0.0161
  639MOL0     H88161  -1.135   9.415  10.790  2.0359  1.3507 -0.9622
  639MOL0     H88162  -0.387   8.909  10.223 -1.4349 -0.5001  1.2600
  639MOL0     H88163  -0.239   8.764  10.323  0.9849 -0.0614 -0.9507
  639MOL0     H88164   0.034   8.970  10.295 -4.1185  0.4065  1.7706
  639MOL0     H88165   0.103   9.189  10.245 -2.4882 -3.2301  0.6050
  639MOL0     H88166   0.122  10.524   9.101  2.0628 -0.0395  2.3255
  639MOL0     H88167   0.183  10.640   8.889 -1.7802 -1.5774 -0.4035
  639MOL0     H88168   0.586  10.767   8.703 -0.4743 -1.1538  0.3974
  639MOL0     H88169   0.711  10.930   8.571  0.8986 -2.0453  0.6423
  639MOL0     H88170   0.736  10.896   8.145 -2.7381 -0.7999 -1.3892
  639MOL0     H88171   0.601  11.003   8.154  1.3886 -2.7076 -2.0871
  639MOL0     H88172   0.814  11.087   8.031  6.4092 -0.0045  1.3443
  639MOL0     H88173   0.899  11.069   8.176 -0.1160 -1.6654  0.2173
  639MOL0     H88174   0.722  11.297   8.105  0.1854  1.0182 -0.3152
  639MOL0     H88175   0.641  11.195   8.222  0.9509 -2.8820  0.7686
  639MOL0     H88176   0.845  11.221   8.374  0.5372  1.7607  2.7224
  639MOL0     H88177   0.747  11.361   8.350  0.1196 -0.9467 -0.2443
  639MOL0     H88178   1.129  11.463   8.186  0.8849 -3.0352 -1.6561
  639MOL0     H88179   0.504  10.783   8.226 -1.9279 -1.6955  0.6328
  639MOL0     H88180   0.294  10.579   8.374 -0.8783 -0.9036 -1.2708
  639MOL0     H88181   0.360  10.582   8.226  0.0435 -0.5518 -0.3866
  639MOL0     H88182   0.418  10.463   8.354 -2.2981  0.2002  0.7994
  640MOL0     O88183  11.262  11.450   1.199 -0.2453  0.8561  0.4203
  640MOL0     C88184  11.258  11.327   1.233 -0.4720 -0.1158  0.4470
  640MOL0     O88185  11.203  11.231   1.149 -0.9544  0.4259  0.0700
  640MOL0     C88186  11.118  11.258   1.050 -0.1655 -0.8738 -0.0737
  640MOL0     C88187  10.985  11.222   1.047 -0.3020 -0.0653 -0.3465
  640MOL0     C88188  10.889  11.263   0.956  0.5777  0.5089  0.8569
  640MOL0     C88189  10.926  11.344   0.843  1.2733  1.8928 -0.5281
  640MOL0     O88190  10.846  11.395   0.740  0.0474 -0.2722  0.5622
  640MOL0     C88191  10.734  11.328   0.692  0.6976  0.3228  0.2935
  640MOL0     C88192  10.661  11.405   0.583  0.1285  0.1754  0.4733
  640MOL0     C88193  10.594  11.539   0.640 -0.2402  0.3404  0.4322
  640MOL0     C88194  10.699  11.647   0.637 -0.2360 -0.5301 -0.6033
  640MOL0     C88195  10.624  11.780   0.647  1.5866 -0.7947 -0.0479
  640MOL0     C88196  10.695  11.915   0.659 -0.0586  0.5867 -1.0252
  640MOL0     C88197  10.596  12.032   0.662  0.7219 -0.1117 -0.6612
  640MOL0     C88198  10.673  12.164   0.685  0.1752  0.9895  0.3872
  640MOL0     N88199  10.744  12.219   0.562 -0.3232  0.0650  0.8031
  640MOL0     C88200  10.873  12.206   0.512  0.2004  0.1345  0.1230
  640MOL0     C88201  10.888  12.310   0.426  1.4886 -0.8349 -0.9708
  640MOL0     C88202  11.004  12.354   0.344 -0.0669  0.3586 -0.4882
  640MOL0     C88203  11.109  12.442   0.420 -0.7479  0.0556  0.3858
  640MOL0     C88204  11.084  12.594   0.390 -0.2093  0.0134 -0.0715
  640MOL0     C88205  11.147  12.700   0.492  0.1910 -0.2495 -0.8641
  640MOL0     O88206  11.101  12.835   0.446 -0.9420 -0.1977  0.3013
  640MOL0     C88207  11.187  12.936   0.466  0.5365 -0.2410  0.0067
  640MOL0     C88208  11.200  13.022   0.355 -0.0134 -0.4148  0.3221
  640MOL0     C88209  11.279  13.133   0.339  1.2554  0.6785 -0.0544
  640MOL0     C88210  11.267  13.221   0.218  0.0652 -0.2965 -0.0300
  640MOL0     C88211  11.355  13.165   0.452 -0.1850  0.8734  0.0020
  640MOL0     C88212  11.449  13.278   0.464 -0.5043 -0.9478  1.1634
  640MOL0     O88213  11.510  13.301   0.583  0.5303 -0.0311  0.0655
  640MOL0     C88214  11.630  13.373   0.582 -0.6447 -0.3949 -0.3187
  640MOL0     C88215  11.728  13.341   0.674  0.1078  0.8095 -0.4328
  640MOL0     C88216  11.839  13.425   0.693 -0.0920  0.5455 -1.1720
  640MOL0     C88217  11.879  13.528   0.600  0.0463  0.4662 -0.6045
  640MOL0     O88218  12.002  13.589   0.608  0.1824 -0.5323  0.4041
  640MOL0     C88219  12.111  13.533   0.688 -0.4142 -0.6036 -0.1249
  640MOL0     C88220  12.254  13.590   0.640  0.4751  0.9274  0.5327
  640MOL0     C88221  12.243  13.737   0.605  0.2998 -0.6835  0.3468
  640MOL0     C88222  12.366  13.836   0.638  0.1557 -0.2335  1.1825
  640MOL0     C88223  12.404  13.869   0.784 -0.6987  0.1113  0.7389
  640MOL0     C88224  12.523  13.957   0.770 -1.3547 -1.0466 -0.2091
  640MOL0     C88225  12.592  13.978   0.910  1.0164  0.0541  0.1942
  640MOL0     C88226  12.740  14.013   0.895  0.3575 -1.0744 -0.4452
  640MOL0    Cl88227  12.816  13.862   0.835  0.5751 -0.1712  0.1362
  640MOL0     C88228  11.778  13.561   0.501 -0.4736 -0.2194 -0.2638
  640MOL0     C88229  11.661  13.483   0.497  0.0873 -1.6264 -0.4728
  640MOL0     O88230  11.481  13.330   0.354  0.7976 -0.4919  0.5917
  640MOL0     C88231  11.350  13.078   0.573  0.5504  0.7705 -0.0443
  640MOL0     C88232  11.264  12.968   0.576 -0.1409 -0.9035  0.8116
  640MOL0     N88233  10.789  12.398   0.439  0.2774 -0.3883 -0.2761
  640MOL0     N88234  10.708  12.349   0.527 -0.1934 -0.6835  0.8097
  640MOL0     C88235  11.062  11.381   0.834  0.1453 -0.0716 -0.6183
  640MOL0     C88236  11.159  11.347   0.942 -1.0402 -0.1958 -0.4168
  640MOL0     C88237  11.325  11.289   1.359 -0.3767 -0.0648  0.3367
  640MOL0     C88238  11.292  11.158   1.403 -0.4703  0.5133 -0.6831
  640MOL0     C88239  11.337  11.101   1.522  0.3912  0.1403  0.4537
  640MOL0     C88240  11.416  11.185   1.607  0.4821  0.5399  1.0441
  640MOL0     O88241  11.462  11.154   1.733 -0.0662 -0.6355  0.0026
  640MOL0     C88242  11.386  11.057   1.809  0.0843  0.3303 -0.7620
  640MOL0     C88243  11.412  11.060   1.963  0.1840  0.0731  0.2863
  640MOL0     C88244  11.544  11.039   2.022 -1.4773  1.3847 -0.4797
  640MOL0     C88245  11.567  11.104   2.159  0.6086  0.1811  0.3902
  640MOL0     C88246  11.687  11.074   2.236 -0.5798 -0.2594 -0.2587
  640MOL0     C88247  11.786  11.044   2.301 -0.3512  0.3149  0.0446
  640MOL0     C88248  11.448  11.317   1.560  0.6106  0.9241 -0.5362
  640MOL0     C88249  11.403  11.377   1.439  1.0477  0.4870  0.3860
  640MOL0     C88250  11.448  11.505   1.390  0.1926  0.4229  0.1884
  640MOL0     H88251  10.931  11.157   1.115 -6.4163  1.3459 -3.1892
  640MOL0     H88252  10.786  11.230   0.957  0.5307  0.6552  1.6313
  640MOL0     H88253  10.659  11.297   0.766  0.4319  0.4941  0.0963
  640MOL0     H88254  10.772  11.233   0.653  2.0511  1.8127 -2.2344
  640MOL0     H88255  10.728  11.420   0.498  1.2667  1.8525  1.6000
  640MOL0     H88256  10.586  11.337   0.544  2.0225 -2.4863  1.2139
  640MOL0     H88257  10.520  11.556   0.562  2.5452 -2.8210 -3.2614
  640MOL0     H88258  10.544  11.515   0.735  3.6929  0.3841  2.7099
  640MOL0     H88259  10.770  11.640   0.721 -0.3958  2.4226 -0.1229
  640MOL0     H88260  10.759  11.641   0.546  0.2449 -1.4823 -0.2493
  640MOL0     H88261  10.561  11.767   0.735  1.4750 -0.1598 -0.0326
  640MOL0     H88262  10.564  11.782   0.556  2.8166 -0.3473 -0.8719
  640MOL0     H88263  10.735  11.908   0.760 -2.9496 -0.1978  0.1563
  640MOL0     H88264  10.776  11.924   0.586  0.7625 -0.5045 -0.2820
  640MOL0     H88265  10.524  12.027   0.743 -1.6583 -2.6559 -2.7109
  640MOL0     H88266  10.537  12.032   0.570 -0.0418 -3.6597 -0.3023
  640MOL0     H88267  10.614  12.241   0.735 -0.0094  1.2812 -0.2772
  640MOL0     H88268  10.750  12.143   0.760 -0.5061  2.8431  1.6830
  640MOL0     H88269  10.939  12.121   0.518 -1.1312 -0.8297  2.5134
  640MOL0     H88270  10.971  12.408   0.256 -2.5357  0.1210  0.2198
  640MOL0     H88271  11.051  12.264   0.302 -2.0338 -1.3708  0.8325
  640MOL0     H88272  11.086  12.419   0.524  0.2004 -1.2933  0.3252
  640MOL0     H88273  11.215  12.417   0.405 -0.8935  0.7903 -2.5355
  640MOL0     H88274  11.116  12.626   0.291 -4.2611  2.1862 -0.8829
  640MOL0     H88275  10.976  12.615   0.394 -0.0808  1.0464 -1.5330
  640MOL0     H88276  11.113  12.679   0.594 -1.2157 -2.5121 -1.7284
  640MOL0     H88277  11.256  12.696   0.503  0.1001  1.9883  2.4160
  640MOL0     H88278  11.131  13.003   0.274 -0.6303 -1.8191  1.1314
  640MOL0     H88279  11.183  13.199   0.151  2.3926  1.4798 -3.8723
  640MOL0     H88280  11.352  13.221   0.150 -0.0756 -1.2449 -0.2262
  640MOL0     H88281  11.248  13.324   0.250  0.2069 -0.1108 -0.5377
  640MOL0     H88282  11.714  13.253   0.736  0.4954  2.2258  1.7618
  640MOL0     H88283  11.908  13.393   0.770 -2.1323  1.2282  1.0693
  640MOL0     H88284  12.101  13.561   0.793  4.0425  1.0089  0.0470
  640MOL0     H88285  12.110  13.424   0.676  3.7559 -0.9808  1.2988
  640MOL0     H88286  12.324  13.578   0.724 -1.2684  0.2531  1.9729
  640MOL0     H88287  12.298  13.534   0.557  1.7358  2.9520 -0.2422
  640MOL0     H88288  12.154  13.774   0.657 -0.5279 -1.4707 -0.4924
  640MOL0     H88289  12.223  13.732   0.498 -1.4654 -0.7658  0.6534
  640MOL0     H88290  12.334  13.935   0.604 -2.6190 -1.7760 -1.1394
  640MOL0     H88291  12.446  13.807   0.569 -0.1818 -0.1757  0.7665
  640MOL0     H88292  12.319  13.924   0.825 -2.5837 -1.0935 -1.2963
  640MOL0     H88293  12.413  13.775   0.840  0.5934  1.0789  2.2528
  640MOL0     H88294  12.492  14.050   0.721 -0.2208 -1.1344 -1.1335
  640MOL0     H88295  12.598  13.911   0.706 -0.6778 -3.8207  2.3515
  640MOL0     H88296  12.578  13.892   0.976 -2.0701  1.8769  2.1720
  640MOL0     H88297  12.543  14.064   0.956  3.3331  0.6601  1.6618
  640MOL0     H88298  12.772  14.040   0.996 -0.9150  1.7127 -0.6852
  640MOL0     H88299  12.756  14.104   0.835  2.6705 -0.7335  0.5967
  640MOL0     H88300  11.786  13.646   0.434  0.2757  0.5180  0.7351
  640MOL0     H88301  11.584  13.516   0.428  0.0795  0.3975  0.4407
  640MOL0     H88302  11.404  13.099   0.665  0.4768 -1.9685  0.7167
  640MOL0     H88303  11.256  12.903   0.662  0.9026 -0.8078  0.9936
  640MOL0     H88304  11.102  11.419   0.740  0.0461  2.4462  0.2666
  640MOL0     H88305  11.255  11.395   0.926 -0.5904  0.0530  2.5170
  640MOL0     H88306  11.219  11.105   1.342 -0.1474  2.2523 -2.6755
  640MOL0     H88307  11.306  11.001   1.551  1.1125  0.3422  2.0171
  640MOL0     H88308  11.281  11.077   1.789 -0.1353 -0.8282 -0.8445
  640MOL0     H88309  11.400  10.957   1.767 -0.2915  0.3829 -1.0143
  640MOL0     H88310  11.336  11.007   2.021  2.5600  0.0390  3.6295
  640MOL0     H88311  11.398  11.168   1.972  0.7489  0.3347 -1.5735
  640MOL0     H88312  11.558  10.930   2.030 -1.3332  1.1791 -2.7854
  640MOL0     H88313  11.617  11.083   1.954 -0.2380  3.0672  1.7887
  640MOL0     H88314  11.487  11.064   2.222  2.6459 -0.4784  2.7316
  640MOL0     H88315  11.557  11.211   2.141 -2.6766 -0.3595 -1.8539
  640MOL0     H88316  11.866  11.000   2.358  0.5613  0.7382 -0.8756
  640MOL0     H88317  11.501  11.365   1.642  1.6265 -1.8925  0.5853
  640MOL0     H88318  11.478  11.507   1.285 -0.3272  2.8373  0.0112
  640MOL0     H88319  11.372  11.582   1.407 -0.9943 -0.3762 -1.2595
  640MOL0     H88320  11.538  11.541   1.441 -0.9681  0.4665  2.2915
  641MOL0     O88321   6.960   0.779   2.927 -0.4208  0.7980  0.0372
  641MOL0     C88322   6.912   0.825   2.828 -0.8606 -0.2344 -0.4681
  641MOL0     O88323   6.811   0.913   2.823  0.1020 -0.1982  0.5699
  641MOL0     C88324   6.714   0.912   2.921 -0.3288  0.5618 -0.5696
  641MOL0     C88325   6.683   0.802   3.010 -0.3653 -0.3075  0.4396
  641MOL0     C88326   6.583   0.837   3.110  0.1083  0.7955  0.6910
  641MOL0     C88327   6.512   0.953   3.110  0.8774 -0.3496 -0.8254
  641MOL0     O88328   6.422   0.978   3.206 -0.8383 -0.2130 -0.1989
  641MOL0     C88329   6.360   1.105   3.221  0.3806  0.2675  0.1281
  641MOL0     C88330   6.244   1.140   3.125  0.0687 -0.8437  0.7724
  641MOL0     C88331   6.152   1.027   3.083 -1.5193  1.3612 -0.2738
  641MOL0     C88332   6.063   1.077   2.968 -0.2727  0.2846 -0.5364
  641MOL0     C88333   5.976   0.963   2.911 -0.0018  0.2982  0.1069
  641MOL0     C88334   5.873   1.030   2.815  0.0557 -0.7364  0.0008
  641MOL0     C88335   5.811   0.932   2.712 -0.0787 -0.1436  0.2105
  641MOL0     C88336   5.761   0.792   2.770 -1.0315 -0.7630 -0.0033
  641MOL0     N88337   5.665   0.796   2.875 -0.1926 -0.5008 -0.3141
  641MOL0     C88338   5.545   0.865   2.883 -0.2370 -0.0330  0.7213
  641MOL0     C88339   5.513   0.845   3.016  0.1841 -1.0621 -0.8193
  641MOL0     C88340   5.394   0.901   3.080  0.0927 -0.7194 -0.0161
  641MOL0     C88341   5.384   1.051   3.088  0.3870 -0.7766 -0.4763
  641MOL0     C88342   5.502   1.115   3.163  0.6024 -0.6646 -0.1685
  641MOL0     C88343   5.628   1.134   3.073  0.8800 -0.7300 -0.5531
  641MOL0     O88344   5.736   1.198   3.158  0.5087  0.2453 -0.6532
  641MOL0     C88345   5.803   1.123   3.249 -0.6170 -0.4653 -0.0412
  641MOL0     C88346   5.895   1.189   3.327  0.0098 -0.5606 -0.6358
  641MOL0     C88347   5.974   1.124   3.428  1.1403 -0.4107 -0.2226
  641MOL0     C88348   6.057   1.226   3.512 -0.4215 -0.2008 -0.2830
  641MOL0     C88349   5.964   0.980   3.449  0.6841 -1.1626 -0.0501
  641MOL0     C88350   6.024   0.902   3.564 -0.2587  0.1513  0.1802
  641MOL0     O88351   5.959   0.790   3.591 -0.7198 -0.4109 -0.2216
  641MOL0     C88352   6.002   0.719   3.703  0.2456  0.3893 -0.2035
  641MOL0     C88353   6.135   0.675   3.691  0.2465 -0.7305 -0.7412
  641MOL0     C88354   6.189   0.605   3.802  0.4734  0.3442 -0.6846
  641MOL0     C88355   6.129   0.587   3.922  0.1457 -0.8200  0.3571
  641MOL0     O88356   6.191   0.529   4.027 -0.3413 -0.2326 -0.6407
  641MOL0     C88357   6.184   0.592   4.161  0.1111 -0.2036  0.3292
  641MOL0     C88358   6.310   0.679   4.161 -0.1952  0.1515 -0.0853
  641MOL0     C88359   6.446   0.609   4.170  0.1817  0.2861  0.3208
  641MOL0     C88360   6.558   0.713   4.154 -1.2998 -0.1673  0.1178
  641MOL0     C88361   6.694   0.658   4.151 -0.9779 -0.6679  0.0305
  641MOL0     C88362   6.775   0.698   4.275 -0.4181  0.1676 -0.5168
  641MOL0     C88363   6.709   0.634   4.410  0.0930 -0.8671  0.6241
  641MOL0     C88364   6.791   0.692   4.523 -0.8051 -0.0827  0.0516
  641MOL0    Cl88365   6.918   0.587   4.570 -0.2996  0.2427  0.2054
  641MOL0     C88366   5.998   0.632   3.926  0.5379  0.9226  0.9548
  641MOL0     C88367   5.926   0.689   3.817 -0.6163 -0.3258 -0.3251
  641MOL0     O88368   6.126   0.947   3.627  0.6363 -0.0759  1.1216
  641MOL0     C88369   5.867   0.915   3.361 -0.8908  0.2917  0.2861
  641MOL0     C88370   5.791   0.982   3.268  0.9621 -0.4464  0.1169
  641MOL0     N88371   5.600   0.770   3.087  0.6444 -0.6429  0.3909
  641MOL0     N88372   5.687   0.742   3.003  0.6745  0.0147 -0.4811
  641MOL0     C88373   6.547   1.055   3.017 -0.2958  0.3654  0.3297
  641MOL0     C88374   6.655   1.035   2.931 -0.5609 -0.0480 -0.3567
  641MOL0     C88375   6.989   0.783   2.706 -1.0962  0.6009 -0.4119
  641MOL0     C88376   6.982   0.875   2.596 -0.6439  0.4373 -0.6023
  641MOL0     C88377   7.046   0.850   2.477  0.3780 -1.0316  1.2367
  641MOL0     C88378   7.116   0.732   2.455 -0.3728 -0.0414  1.3017
  641MOL0     O88379   7.200   0.703   2.348 -0.1805  0.0692  0.1978
  641MOL0     C88380   7.198   0.787   2.233 -1.0726 -0.1583 -0.1622
  641MOL0     C88381   7.277   0.730   2.115  0.1813 -0.9060 -0.0461
  641MOL0     C88382   7.423   0.752   2.152 -0.3225 -0.5078  0.6307
  641MOL0     C88383   7.500   0.693   2.034  1.1477  0.6142 -0.8635
  641MOL0     C88384   7.640   0.709   2.051 -1.1197  0.0692  0.2830
  641MOL0     C88385   7.762   0.722   2.023  0.1729 -0.4833 -0.0932
  641MOL0     C88386   7.120   0.638   2.558 -0.2301  0.4794 -0.1758
  641MOL0     C88387   7.055   0.658   2.682 -0.1296 -0.3682  0.7358
  641MOL0     C88388   7.032   0.534   2.768  0.3097  0.1160 -0.7744
  641MOL0     H88389   6.746   0.713   3.001  1.5906  1.1847 -2.4288
  641MOL0     H88390   6.540   0.783   3.194 -1.0408 -1.3438 -1.1722
  641MOL0     H88391   6.432   1.186   3.233 -0.8671  1.4279  0.0988
  641MOL0     H88392   6.305   1.111   3.316 -1.2753 -1.6901 -0.6298
  641MOL0     H88393   6.185   1.222   3.167  0.2488 -0.5485  0.4539
  641MOL0     H88394   6.291   1.185   3.037 -1.4990 -2.1885 -0.8300
  641MOL0     H88395   6.218   0.947   3.047 -1.8437  1.6318 -1.5073
  641MOL0     H88396   6.087   0.985   3.161 -1.0980 -1.4572 -1.3355
  641MOL0     H88397   6.004   1.155   3.017  1.0772  0.7599  0.4107
  641MOL0     H88398   6.118   1.138   2.896 -1.6713  2.4743  0.1730
  641MOL0     H88399   5.926   0.903   2.988  0.0616  0.2736  0.1282
  641MOL0     H88400   6.043   0.902   2.850  0.4189  1.1188 -0.2595
  641MOL0     H88401   5.794   1.079   2.872  0.0427 -1.1795  0.3717
  641MOL0     H88402   5.900   1.122   2.763 -1.4596  0.0287  0.5083
  641MOL0     H88403   5.888   0.901   2.640  1.5501  0.4951  1.6123
  641MOL0     H88404   5.743   0.996   2.655  1.2073  0.3930 -0.7849
  641MOL0     H88405   5.718   0.739   2.684  3.2057 -3.1686 -0.8973
  641MOL0     H88406   5.847   0.740   2.812  0.1793  0.4069 -0.9451
  641MOL0     H88407   5.490   0.917   2.805  4.2461 -0.3127 -3.0766
  641MOL0     H88408   5.387   0.861   3.181 -1.6080  0.4330  0.3449
  641MOL0     H88409   5.306   0.861   3.030 -1.4646  0.4381  1.7016
  641MOL0     H88410   5.378   1.089   2.986  1.8782 -2.7991 -1.3810
  641MOL0     H88411   5.293   1.076   3.145  1.4843 -0.2255  1.1225
  641MOL0     H88412   5.458   1.203   3.210  0.1414 -1.5508  1.1365
  641MOL0     H88413   5.526   1.043   3.241  0.1908  0.9182  1.4887
  641MOL0     H88414   5.669   1.043   3.027 -2.9049 -2.5699 -0.6343
  641MOL0     H88415   5.587   1.191   2.989 -0.7835 -1.1917 -0.0949
  641MOL0     H88416   5.910   1.296   3.320  0.8671 -0.4470  1.8769
  641MOL0     H88417   6.048   1.213   3.621 -0.0328 -1.9549 -0.4358
  641MOL0     H88418   6.050   1.333   3.487  1.5725 -0.1109 -0.6300
  641MOL0     H88419   6.156   1.190   3.484  0.7693  2.4873  0.0629
  641MOL0     H88420   6.191   0.692   3.600 -2.4363 -0.9855 -2.5508
  641MOL0     H88421   6.294   0.580   3.803  1.2144  3.0480 -2.0004
  641MOL0     H88422   6.106   0.667   4.177  2.0279  1.7266  1.0744
  641MOL0     H88423   6.184   0.511   4.234  1.9373 -4.3520 -3.7682
  641MOL0     H88424   6.311   0.750   4.078 -3.8795 -0.5005 -0.8523
  641MOL0     H88425   6.304   0.748   4.246 -0.8822  1.8367 -1.4380
  641MOL0     H88426   6.464   0.553   4.078  0.0160  1.3971 -0.4103
  641MOL0     H88427   6.456   0.545   4.258 -1.1209 -1.8969 -1.0292
  641MOL0     H88428   6.558   0.786   4.236  0.5618  0.7308 -0.6161
  641MOL0     H88429   6.543   0.765   4.059 -1.4751  1.8738  1.2043
  641MOL0     H88430   6.705   0.549   4.145  0.5365 -0.5811  0.9319
  641MOL0     H88431   6.737   0.696   4.058 -0.8443 -2.9433 -0.9132
  641MOL0     H88432   6.783   0.805   4.292 -0.6444  0.4129 -1.8937
  641MOL0     H88433   6.879   0.665   4.262 -0.7384 -0.1124 -2.8087
  641MOL0     H88434   6.711   0.524   4.408  0.9762 -0.8443 -1.6437
  641MOL0     H88435   6.604   0.659   4.428 -0.5080 -2.2979 -0.6153
  641MOL0     H88436   6.729   0.696   4.613  0.2045 -3.2542  1.0087
  641MOL0     H88437   6.818   0.798   4.512 -6.2507  1.6004 -0.2138
  641MOL0     H88438   5.953   0.605   4.021 -3.1022  2.1269 -0.2305
  641MOL0     H88439   5.818   0.698   3.818 -0.8465 -2.1807 -1.6870
  641MOL0     H88440   5.848   0.809   3.361  0.4833 -0.0262 -2.3489
  641MOL0     H88441   5.715   0.929   3.211  2.1822 -3.7417  1.3132
  641MOL0     H88442   6.523   1.160   3.022  0.0576  0.5285 -1.0590
  641MOL0     H88443   6.686   1.123   2.875 -2.5868  1.7097  1.1044
  641MOL0     H88444   6.935   0.971   2.613 -2.0305 -0.4450  0.7828
  641MOL0     H88445   7.033   0.916   2.392 -0.4938 -1.8162  0.7477
  641MOL0     H88446   7.095   0.810   2.203 -0.6497  0.1644 -1.4520
  641MOL0     H88447   7.225   0.889   2.259 -0.4533 -0.2139 -0.5651
  641MOL0     H88448   7.250   0.786   2.025 -0.9408 -1.8999 -0.3496
  641MOL0     H88449   7.236   0.632   2.093 -0.2292 -0.8583  0.4686
  641MOL0     H88450   7.446   0.858   2.143  1.0300 -0.9204 -1.7978
  641MOL0     H88451   7.452   0.712   2.250  0.0066 -1.0666  0.3094
  641MOL0     H88452   7.460   0.724   1.937 -0.6835  1.2876  0.0641
  641MOL0     H88453   7.468   0.588   2.036  0.4575  0.7548  2.9805
  641MOL0     H88454   7.868   0.727   2.008  0.0547  0.2435 -0.7670
  641MOL0     H88455   7.162   0.543   2.527 -1.8829  0.6952 -3.4997
  641MOL0     H88456   7.060   0.549   2.873  3.5014  2.0280 -1.7438
  641MOL0     H88457   6.933   0.490   2.754  0.3398  1.1007 -6.5352
  641MOL0     H88458   7.107   0.458   2.743  1.5426  0.7222  0.8147
  642MOL0     O88459   5.053   9.294   0.441 -0.1772 -0.5604  0.1404
  642MOL0     C88460   5.145   9.215   0.446 -0.7924 -0.2953  0.4816
  642MOL0     O88461   5.192   9.136   0.341 -0.1911 -0.0475  0.4743
  642MOL0     C88462   5.141   9.160   0.221 -0.0299 -0.1035 -0.5302
  642MOL0     C88463   5.154   9.287   0.159 -0.7284 -0.5811 -0.0397
  642MOL0     C88464   5.090   9.315   0.043 -0.3564  0.8941 -0.0546
  642MOL0     C88465   5.025   9.212  -0.029 -0.5988  0.6303  0.4851
  642MOL0     O88466   4.987   9.259  -0.157  0.4958 -0.0596 -0.6185
  642MOL0     C88467   4.950   9.162  -0.254  0.1205 -0.6373 -0.6810
  642MOL0     C88468   5.053   9.153  -0.356 -0.2771  0.2421  0.6358
  642MOL0     C88469   5.188   9.100  -0.310  1.0749 -0.6828  0.2293
  642MOL0     C88470   5.298   9.093  -0.408  0.0883  0.7369 -0.1237
  642MOL0     C88471   5.420   9.045  -0.329 -0.8434 -0.5981 -0.0952
  642MOL0     C88472   5.489   9.156  -0.247 -0.7787 -0.5681  0.4990
  642MOL0     C88473   5.600   9.108  -0.154  0.5986  0.5624  0.7790
  642MOL0     C88474   5.558   9.125  -0.007  0.4313 -0.3460  0.4069
  642MOL0     N88475   5.664   9.068   0.087  0.6918  0.2984  0.2346
  642MOL0     C88476   5.652   8.967   0.165 -0.0605  0.6111 -0.0788
  642MOL0     C88477   5.781   8.942   0.213  0.0675 -1.0160  0.1506
  642MOL0     C88478   5.845   8.833   0.286 -0.6804  0.1997 -0.6342
  642MOL0     C88479   5.830   8.703   0.215 -1.2322  0.0048 -0.4552
  642MOL0     C88480   5.821   8.589   0.326  0.0182 -0.2592 -1.5248
  642MOL0     C88481   5.836   8.443   0.271  0.2163 -0.1759  0.2335
  642MOL0     O88482   5.709   8.382   0.228 -0.4167  0.7117 -1.0578
  642MOL0     C88483   5.671   8.266   0.304  0.5960 -0.6820 -0.1121
  642MOL0     C88484   5.649   8.149   0.228 -0.1264  0.0299 -0.0145
  642MOL0     C88485   5.615   8.026   0.293  0.1429 -0.3106 -0.1900
  642MOL0     C88486   5.574   7.909   0.202  0.1114 -0.6877 -0.6577
  642MOL0     C88487   5.628   8.017   0.434 -0.3091 -0.1010  0.3971
  642MOL0     C88488   5.603   7.896   0.515 -0.4447 -0.3452  0.2535
  642MOL0     O88489   5.658   7.896   0.645  0.7336  0.0531 -0.1784
  642MOL0     C88490   5.658   7.779   0.723 -0.3478 -0.6647  0.0161
  642MOL0     C88491   5.786   7.740   0.779 -0.6361  0.5676  0.1866
  642MOL0     C88492   5.804   7.619   0.848  0.0714 -0.3302  0.8642
  642MOL0     C88493   5.693   7.533   0.875  0.6298  0.6234 -0.1006
  642MOL0     O88494   5.718   7.410   0.929 -0.0302  0.2118  0.3300
  642MOL0     C88495   5.627   7.342   1.019 -0.9099 -0.1242 -0.0919
  642MOL0     C88496   5.697   7.234   1.105 -0.2755  0.3555  1.1648
  642MOL0     C88497   5.820   7.282   1.179  0.7605  0.4244 -0.3298
  642MOL0     C88498   5.820   7.216   1.322 -0.9738  0.2010  1.2868
  642MOL0     C88499   5.961   7.210   1.373 -0.1004 -0.1625  0.7026
  642MOL0     C88500   6.046   7.122   1.281 -0.0346 -0.2974  0.3677
  642MOL0     C88501   6.180   7.093   1.357  0.9673  0.5919  0.1952
  642MOL0     C88502   6.265   7.215   1.385 -0.0298  0.9174  0.6588
  642MOL0    Cl88503   6.418   7.155   1.465 -0.0881  0.1815  0.4264
  642MOL0     C88504   5.571   7.577   0.816 -0.0211 -0.5065 -1.2596
  642MOL0     C88505   5.550   7.700   0.747  0.0552  1.1522  0.7057
  642MOL0     O88506   5.536   7.804   0.466 -0.0498 -0.3083  0.3543
  642MOL0     C88507   5.660   8.129   0.509  0.9917 -0.5471  0.9967
  642MOL0     C88508   5.680   8.254   0.445  0.8541  0.0204 -0.4790
  642MOL0     N88509   5.863   9.048   0.160 -0.2957  0.4414  0.6304
  642MOL0     N88510   5.789   9.120   0.089 -0.0128  0.1911  0.3960
  642MOL0     C88511   5.026   9.086   0.020  0.0274  1.8965 -0.1118
  642MOL0     C88512   5.077   9.055   0.150 -0.4506 -0.0198 -0.5944
  642MOL0     C88513   5.222   9.197   0.569 -0.4704 -1.1438  0.1365
  642MOL0     C88514   5.170   9.236   0.689 -1.1066 -0.3609 -0.1725
  642MOL0     C88515   5.244   9.218   0.808 -0.6573  0.1674  0.7404
  642MOL0     C88516   5.367   9.165   0.821 -0.6463 -0.1721 -0.3815
  642MOL0     O88517   5.420   9.163   0.950 -0.2856  0.3752  0.0680
  642MOL0     C88518   5.529   9.069   0.974  0.0716 -0.3719  0.7354
  642MOL0     C88519   5.592   9.125   1.105 -0.6673  0.4783 -0.4131
  642MOL0     C88520   5.499   9.097   1.228 -0.1488  0.0428  0.3185
  642MOL0     C88521   5.414   8.973   1.247 -0.7589 -0.3801 -0.5401
  642MOL0     C88522   5.481   8.842   1.237 -0.0958  0.3098  0.6437
  642MOL0     C88523   5.519   8.729   1.230 -1.1976  1.1647  1.4535
  642MOL0     C88524   5.420   9.119   0.706 -1.3494 -0.3034  0.1600
  642MOL0     C88525   5.355   9.140   0.578 -0.6018 -0.2284 -1.3173
  642MOL0     C88526   5.437   9.081   0.464  0.0154 -0.5282  0.3325
  642MOL0     H88527   5.198   9.375   0.205 -1.3417  0.7731 -1.9423
  642MOL0     H88528   5.106   9.415   0.003  2.5483  0.9086  0.8427
  642MOL0     H88529   4.858   9.193  -0.304 -0.3838  0.8556  1.0889
  642MOL0     H88530   4.930   9.065  -0.208 -1.7144  1.0008  2.2577
  642MOL0     H88531   5.010   9.107  -0.446 -1.1421  1.5835  0.3165
  642MOL0     H88532   5.064   9.257  -0.389 -0.5320 -0.0158 -0.2979
  642MOL0     H88533   5.223   9.165  -0.229 -3.3365  1.6070  0.5907
  642MOL0     H88534   5.162   9.003  -0.267 -1.4651 -0.4527 -0.6077
  642MOL0     H88535   5.262   9.025  -0.486 -1.1609  0.3905  0.7340
  642MOL0     H88536   5.328   9.188  -0.454  3.2777  0.6885  1.5755
  642MOL0     H88537   5.485   9.000  -0.404 -1.4452 -3.2095  0.8327
  642MOL0     H88538   5.400   8.962  -0.260  3.6813 -2.2356 -0.4217
  642MOL0     H88539   5.539   9.226  -0.315  0.9183  0.1606  2.3939
  642MOL0     H88540   5.419   9.217  -0.189  0.7058  0.0802  1.6780
  642MOL0     H88541   5.684   9.176  -0.174  1.2012 -0.5542 -0.7239
  642MOL0     H88542   5.628   9.004  -0.172  1.6433  1.0092 -0.3888
  642MOL0     H88543   5.543   9.232   0.009 -2.1836 -0.1183 -2.6012
  642MOL0     H88544   5.466   9.067   0.007 -0.4217  0.9592  0.3309
  642MOL0     H88545   5.582   8.886   0.181 -0.2615  0.4984 -1.3908
  642MOL0     H88546   5.789   8.821   0.379  2.0950 -1.7665  0.9528
  642MOL0     H88547   5.950   8.846   0.313 -0.0864 -0.1783 -2.6195
  642MOL0     H88548   5.734   8.691   0.163 -1.1973  1.6757 -0.9633
  642MOL0     H88549   5.921   8.684   0.158 -0.6677 -0.0641  0.4416
  642MOL0     H88550   5.906   8.600   0.395 -0.0972  0.9463 -1.5559
  642MOL0     H88551   5.732   8.597   0.389  0.5949 -2.1241 -0.3656
  642MOL0     H88552   5.902   8.431   0.185 -2.1443  1.0746 -1.9155
  642MOL0     H88553   5.873   8.383   0.354  1.8295  0.5351  0.0663
  642MOL0     H88554   5.631   8.158   0.121 -3.0888  2.2173  0.5276
  642MOL0     H88555   5.489   7.853   0.244 -1.5037  1.1981 -1.2950
  642MOL0     H88556   5.642   7.828   0.174  0.1783 -1.0845  0.5780
  642MOL0     H88557   5.537   7.947   0.107 -3.3048 -0.7107  0.5478
  642MOL0     H88558   5.876   7.800   0.770  0.8159 -1.3855  0.9158
  642MOL0     H88559   5.904   7.588   0.879  1.4061  1.9641 -0.8234
  642MOL0     H88560   5.588   7.420   1.086 -0.4312  1.2587 -1.3657
  642MOL0     H88561   5.551   7.286   0.965 -1.2299  1.4359 -1.3321
  642MOL0     H88562   5.618   7.200   1.172  0.1891 -4.5415 -0.3758
  642MOL0     H88563   5.730   7.153   1.040  2.5530  1.8469  0.5752
  642MOL0     H88564   5.829   7.389   1.195  3.0014  0.8770 -3.6189
  642MOL0     H88565   5.910   7.258   1.122 -0.8963 -1.5747 -2.3082
  642MOL0     H88566   5.795   7.110   1.330 -1.1084  0.3539  4.0726
  642MOL0     H88567   5.762   7.281   1.389 -0.3140 -0.2925  2.3684
  642MOL0     H88568   6.010   7.307   1.385 -1.8611  0.6742  1.3172
  642MOL0     H88569   5.962   7.174   1.477 -2.1159  1.5103  1.3668
  642MOL0     H88570   6.085   7.165   1.188  3.1846 -0.4237  1.5263
  642MOL0     H88571   5.984   7.035   1.258  0.0193  0.0074 -1.0153
  642MOL0     H88572   6.238   7.020   1.300 -0.4452 -2.3068  2.2514
  642MOL0     H88573   6.147   7.036   1.443  0.7892  2.9940  1.8245
  642MOL0     H88574   6.216   7.295   1.442 -2.0084  1.8240 -2.0771
  642MOL0     H88575   6.297   7.264   1.292  0.1333  3.9773  2.2079
  642MOL0     H88576   5.489   7.508   0.828 -2.6044  2.6150  0.7542
  642MOL0     H88577   5.449   7.726   0.714 -0.9425 -0.7909  2.0687
  642MOL0     H88578   5.672   8.127   0.616 -1.3143  1.9048  1.3978
  642MOL0     H88579   5.711   8.344   0.496  2.1188 -0.0199 -1.1357
  642MOL0     H88580   4.959   9.015  -0.027 -0.2766  0.8270  1.7940
  642MOL0     H88581   5.055   8.959   0.196  1.8437 -0.7757 -0.9680
  642MOL0     H88582   5.074   9.286   0.696 -1.2209 -0.7421  1.2499
  642MOL0     H88583   5.187   9.253   0.893 -1.2995  1.9281 -0.3462
  642MOL0     H88584   5.488   8.968   0.985 -0.2362 -0.4746 -1.1173
  642MOL0     H88585   5.606   9.076   0.897 -1.1035  4.1647 -0.3097
  642MOL0     H88586   5.617   9.230   1.085 -0.4179  0.0609 -2.5565
  642MOL0     H88587   5.691   9.081   1.118 -0.9117 -1.4303 -3.7966
  642MOL0     H88588   5.567   9.120   1.312  1.4768 -0.8179 -0.7106
  642MOL0     H88589   5.431   9.182   1.236  1.9861  1.7077  3.1168
  642MOL0     H88590   5.343   8.968   1.165 -1.0829 -1.8163 -0.2040
  642MOL0     H88591   5.356   8.980   1.340  3.1449 -0.1152  2.1288
  642MOL0     H88592   5.560   8.630   1.232 -1.0165  1.2437  1.6409
  642MOL0     H88593   5.519   9.074   0.695 -1.4138 -0.4172  0.0415
  642MOL0     H88594   5.544   9.079   0.488 -0.0733 -0.7578  0.7092
  642MOL0     H88595   5.401   8.981   0.441  0.1974 -0.8950  1.5574
  642MOL0     H88596   5.431   9.148   0.377  1.6468 -1.9697 -0.9590
  643MOL0     O88597   9.227   2.660   3.689  0.1453 -0.3291  0.5701
  643MOL0     C88598   9.145   2.591   3.753 -0.3383  0.4601  0.9521
  643MOL0     O88599   9.166   2.539   3.882  0.2658  0.1109 -0.6198
  643MOL0     C88600   9.285   2.566   3.937 -0.4010 -0.9273 -0.3999
  643MOL0     C88601   9.375   2.465   3.927 -0.2899  0.4616 -0.0492
  643MOL0     C88602   9.496   2.470   3.992  0.1604  0.0861  0.4286
  643MOL0     C88603   9.526   2.587   4.061 -0.5049 -1.4402 -1.2983
  643MOL0     O88604   9.661   2.588   4.116  0.3804 -0.3164  0.1022
  643MOL0     C88605   9.701   2.699   4.203  0.0216  0.9069  1.1222
  643MOL0     C88606   9.734   2.820   4.112 -0.5865  0.2274  1.1862
  643MOL0     C88607   9.888   2.834   4.079 -0.2834 -0.9180 -0.1017
  643MOL0     C88608   9.923   2.964   4.009 -0.6662  0.6613 -0.4365
  643MOL0     C88609  10.078   2.994   4.008 -0.9331  0.1533  1.3546
  643MOL0     C88610  10.137   3.031   4.139 -0.0250 -0.5547  0.0929
  643MOL0     C88611  10.283   3.080   4.115  0.1584  0.7424  0.7771
  643MOL0     C88612  10.308   3.177   3.994  0.2254 -1.0188  0.2280
  643MOL0     N88613  10.439   3.229   4.026 -0.2361  0.4006 -0.4076
  643MOL0     C88614  10.471   3.319   4.116 -0.4726 -1.7250 -0.0453
  643MOL0     C88615  10.609   3.326   4.118 -1.1949 -1.1231 -0.9991
  643MOL0     C88616  10.702   3.409   4.201  0.1658  0.0014 -0.1350
  643MOL0     C88617  10.693   3.551   4.138  0.4625  0.0982 -0.7434
  643MOL0     C88618  10.819   3.631   4.186  0.1622 -0.5436 -1.4573
  643MOL0     C88619  10.794   3.726   4.302  0.0960  0.3407 -0.0255
  643MOL0     O88620  10.873   3.835   4.281 -0.9802 -0.2125  0.8314
  643MOL0     C88621  11.003   3.847   4.347  0.4183  0.2273  0.6625
  643MOL0     C88622  11.074   3.970   4.352 -0.2504 -0.4227 -0.2740
  643MOL0     C88623  11.213   3.969   4.390 -0.3590 -0.9830  0.3275
  643MOL0     C88624  11.284   4.094   4.353  1.2215  0.2024 -0.2438
  643MOL0     C88625  11.271   3.858   4.447  0.4798  0.8817 -0.6365
  643MOL0     C88626  11.412   3.856   4.494 -0.3163  0.0887  0.1284
  643MOL0     O88627  11.489   3.739   4.517  0.6642 -0.0417  0.2829
  643MOL0     C88628  11.622   3.743   4.507  0.2405  0.9857  0.2489
  643MOL0     C88629  11.703   3.748   4.618  0.1392  0.4443 -0.0499
  643MOL0     C88630  11.841   3.755   4.606  0.5982 -0.1388 -1.1507
  643MOL0     C88631  11.909   3.754   4.482 -0.4615  0.1845  0.0431
  643MOL0     O88632  12.045   3.767   4.467  0.0617  0.6156 -0.9040
  643MOL0     C88633  12.120   3.853   4.560 -0.4636  0.3882  0.2158
  643MOL0     C88634  12.201   3.787   4.675 -0.0361 -0.0076 -0.8737
  643MOL0     C88635  12.263   3.885   4.768  0.0962 -0.3815 -0.4273
  643MOL0     C88636  12.350   3.830   4.882  0.5959 -0.0248 -1.1942
  643MOL0     C88637  12.444   3.926   4.960 -0.2493 -0.3737 -0.4451
  643MOL0     C88638  12.575   3.974   4.893  0.3712 -0.2289 -0.1194
  643MOL0     C88639  12.672   4.019   5.000  0.1455 -0.4438  0.8439
  643MOL0     C88640  12.626   4.124   5.097  0.8709  0.2303 -0.6613
  643MOL0    Cl88641  12.541   4.059   5.247 -0.1360  0.2161  0.3870
  643MOL0     C88642  11.824   3.741   4.364  0.2487  0.2219  0.4003
  643MOL0     C88643  11.683   3.732   4.385  0.3421 -0.4500 -0.5645
  643MOL0     O88644  11.458   3.966   4.519  0.2658 -0.6851 -0.1559
  643MOL0     C88645  11.197   3.741   4.460 -0.3149 -0.8044 -0.8298
  643MOL0     C88646  11.067   3.736   4.398 -0.4284  0.3033 -0.0482
  643MOL0     N88647  10.656   3.229   4.031  0.0003  0.0552  0.6327
  643MOL0     N88648  10.552   3.172   3.974 -0.3959 -0.5124 -0.0589
  643MOL0     C88649   9.436   2.700   4.070 -0.0357  0.3860  0.0310
  643MOL0     C88650   9.318   2.687   4.003 -0.4049 -0.5003 -0.3401
  643MOL0     C88651   9.009   2.581   3.702  0.6413 -0.6024 -1.2299
  643MOL0     C88652   8.986   2.492   3.594 -0.6346 -0.6281 -0.3806
  643MOL0     C88653   8.866   2.468   3.546  0.7253 -0.3660 -0.2436
  643MOL0     C88654   8.745   2.520   3.597 -0.5780 -0.2703  0.2755
  643MOL0     O88655   8.624   2.476   3.553  0.9734 -0.1105 -0.4921
  643MOL0     C88656   8.504   2.530   3.619 -0.2668 -0.7371  0.3504
  643MOL0     C88657   8.486   2.675   3.556  0.6153  0.1689 -0.8970
  643MOL0     C88658   8.425   2.677   3.411  0.6781  0.0787  0.1564
  643MOL0     C88659   8.351   2.813   3.399 -0.2444  0.6727  0.1418
  643MOL0     C88660   8.286   2.824   3.275  0.3964  0.7069  0.3062
  643MOL0     C88661   8.201   2.836   3.182 -0.3040  0.3560  0.3328
  643MOL0     C88662   8.771   2.617   3.691  0.7007  0.1745  0.7686
  643MOL0     C88663   8.897   2.638   3.759 -0.7661 -0.5540 -0.4421
  643MOL0     C88664   8.903   2.735   3.872  0.1785  0.5393 -0.3648
  643MOL0     H88665   9.347   2.381   3.864  0.4439 -0.2909  0.6173
  643MOL0     H88666   9.565   2.386   3.991 -2.4715 -2.3051  2.8971
  643MOL0     H88667   9.791   2.673   4.259 -0.8109  0.7184  2.4143
  643MOL0     H88668   9.619   2.729   4.268 -0.8645 -2.2605  1.6378
  643MOL0     H88669   9.688   2.793   4.016  0.4376 -2.6161  1.3985
  643MOL0     H88670   9.697   2.915   4.151 -1.5149  0.3864 -0.0188
  643MOL0     H88671   9.949   2.831   4.170 -1.1775  1.5707  0.6656
  643MOL0     H88672   9.924   2.750   4.019 -0.8676 -0.4433 -1.1456
  643MOL0     H88673   9.881   2.949   3.909 -1.4778 -3.0439  0.2923
  643MOL0     H88674   9.885   3.052   4.062  1.1057 -0.2235  2.5383
  643MOL0     H88675  10.091   3.085   3.949 -3.1119  0.0686  0.6258
  643MOL0     H88676  10.141   2.914   3.967 -0.0040  1.4283  0.2020
  643MOL0     H88677  10.072   3.114   4.169  3.7207  2.8584 -0.3824
  643MOL0     H88678  10.122   2.950   4.210 -0.5044 -1.0191 -0.5222
  643MOL0     H88679  10.342   2.989   4.102 -2.1435 -0.4237 -3.1065
  643MOL0     H88680  10.309   3.128   4.210  0.7421  1.7661  0.1275
  643MOL0     H88681  10.300   3.119   3.901 -2.6501 -3.3558  1.7236
  643MOL0     H88682  10.233   3.256   3.997  2.8901  1.6923  3.8373
  643MOL0     H88683  10.412   3.389   4.173  2.1856  1.3811 -0.7974
  643MOL0     H88684  10.802   3.365   4.205 -0.1584 -0.6531  2.1830
  643MOL0     H88685  10.665   3.413   4.304 -1.8781 -0.1665 -0.8093
  643MOL0     H88686  10.699   3.550   4.029  0.3332  2.4661 -0.8255
  643MOL0     H88687  10.593   3.595   4.146 -1.1709 -2.5308 -4.2033
  643MOL0     H88688  10.895   3.557   4.211  0.6792  0.5837  0.4851
  643MOL0     H88689  10.866   3.690   4.107 -2.2703  2.7998 -0.6923
  643MOL0     H88690  10.691   3.759   4.291  0.4111  1.0818 -0.8594
  643MOL0     H88691  10.813   3.678   4.399 -0.0316 -0.8808 -0.5791
  643MOL0     H88692  11.031   4.064   4.318 -0.2425 -0.5141 -0.5423
  643MOL0     H88693  11.312   4.138   4.449  0.7126 -2.6938  1.3688
  643MOL0     H88694  11.228   4.160   4.287  2.4242  1.4813 -0.0415
  643MOL0     H88695  11.368   4.059   4.293  1.6012 -2.1708  1.5223
  643MOL0     H88696  11.650   3.757   4.712 -0.4640 -2.2252 -0.0559
  643MOL0     H88697  11.895   3.782   4.696  0.6315  2.7290 -1.9334
  643MOL0     H88698  12.186   3.929   4.518  0.5040  0.4161  1.7381
  643MOL0     H88699  12.049   3.923   4.605 -1.7037  0.7318 -2.1003
  643MOL0     H88700  12.136   3.724   4.737 -0.3005  0.7370 -0.3838
  643MOL0     H88701  12.275   3.723   4.627 -0.9555  0.5955 -3.2324
  643MOL0     H88702  12.177   3.935   4.813 -0.5695 -0.6449 -1.3716
  643MOL0     H88703  12.322   3.960   4.714 -0.9484  0.8859  0.1268
  643MOL0     H88704  12.426   3.771   4.832  0.8488 -1.3923  0.6730
  643MOL0     H88705  12.289   3.769   4.950 -1.6540  3.3935  0.1292
  643MOL0     H88706  12.385   4.005   5.008  0.9773  0.3403 -0.0787
  643MOL0     H88707  12.485   3.862   5.038 -0.8879  1.1469  1.2213
  643MOL0     H88708  12.551   4.055   4.824  1.0129  0.1808  0.1314
  643MOL0     H88709  12.612   3.885   4.842 -1.6592 -0.2128 -1.7679
  643MOL0     H88710  12.769   4.041   4.956 -0.0509  0.8798  1.0301
  643MOL0     H88711  12.683   3.930   5.063 -0.1985 -0.7253  0.5138
  643MOL0     H88712  12.563   4.201   5.052 -2.9459 -1.3400  1.5094
  643MOL0     H88713  12.715   4.175   5.135  0.9129 -1.5638  1.9721
  643MOL0     H88714  11.868   3.725   4.266  0.7473  2.3867  0.2217
  643MOL0     H88715  11.609   3.724   4.307 -1.0908  4.2624 -0.0553
  643MOL0     H88716  11.242   3.660   4.517  1.9248  0.3830 -0.8188
  643MOL0     H88717  11.018   3.640   4.410  1.2958 -0.5606  0.4416
  643MOL0     H88718   9.447   2.791   4.128  1.4271 -0.1312  0.6288
  643MOL0     H88719   9.252   2.774   4.009  0.6693  0.4391 -1.6817
  643MOL0     H88720   9.069   2.444   3.543 -0.3665 -1.3681  0.6928
  643MOL0     H88721   8.859   2.387   3.475 -2.7169  0.0636 -0.6012
  643MOL0     H88722   8.417   2.466   3.602 -0.3788 -0.6596  0.6338
  643MOL0     H88723   8.524   2.538   3.726  3.0707  0.2434 -0.2279
  643MOL0     H88724   8.582   2.727   3.545  0.5862 -0.1199 -3.0188
  643MOL0     H88725   8.423   2.717   3.634 -0.4867 -2.3175 -0.3629
  643MOL0     H88726   8.517   2.691   3.354  0.4974  1.9720  0.2813
  643MOL0     H88727   8.377   2.586   3.375  0.7729  0.0789  0.0283
  643MOL0     H88728   8.425   2.893   3.407  0.3894 -0.0218  1.5284
  643MOL0     H88729   8.272   2.830   3.474 -0.3097  1.6034 -0.1190
  643MOL0     H88730   8.119   2.837   3.112 -1.9612 -1.6188  2.1018
  643MOL0     H88731   8.679   2.664   3.725 -1.5601 -0.7177 -3.4597
  643MOL0     H88732   9.000   2.721   3.919  2.4373 -1.2744 -4.9611
  643MOL0     H88733   8.908   2.833   3.825  1.0735 -0.0124 -1.4628
  643MOL0     H88734   8.810   2.730   3.931  0.8058 -0.0264  0.6103
  644MOL0     O88735   6.202   0.477   7.473  0.3318  0.0427 -0.5674
  644MOL0     C88736   6.089   0.443   7.438  0.0864 -0.2520 -0.3424
  644MOL0     O88737   5.988   0.413   7.523 -0.2422  0.7907 -1.2673
  644MOL0     C88738   5.985   0.482   7.651  0.0616  0.0590  0.0187
  644MOL0     C88739   5.892   0.427   7.739 -0.3961 -0.5364 -0.2623
  644MOL0     C88740   5.879   0.476   7.866 -0.5038  0.1031 -0.5169
  644MOL0     C88741   5.967   0.570   7.925  0.2533 -0.4263 -0.5875
  644MOL0     O88742   5.967   0.601   8.065 -0.0627  0.5921  0.4468
  644MOL0     C88743   5.882   0.709   8.110  0.5759 -0.3939 -0.3351
  644MOL0     C88744   5.960   0.825   8.181 -0.4581  1.0569 -0.7224
  644MOL0     C88745   5.884   0.954   8.210  0.2384  0.3902  0.1609
  644MOL0     C88746   5.978   1.053   8.299 -0.1823  0.3712  1.6807
  644MOL0     C88747   6.106   1.084   8.222 -0.1438 -0.3601  0.6182
  644MOL0     C88748   6.193   1.194   8.273 -0.4676 -0.2469 -0.3224
  644MOL0     C88749   6.314   1.233   8.188  0.0783  0.1863 -0.1119
  644MOL0     C88750   6.280   1.329   8.072  0.0967  0.2061 -0.4476
  644MOL0     N88751   6.237   1.245   7.959  0.1515  0.0984  0.4877
  644MOL0     C88752   6.318   1.155   7.894  1.4509 -0.2537  0.4791
  644MOL0     C88753   6.231   1.082   7.813  0.2308 -0.7470  0.2288
  644MOL0     C88754   6.255   0.958   7.731  0.1445 -0.3422  0.0578
  644MOL0     C88755   6.366   0.982   7.634 -0.4077 -0.0132  0.1624
  644MOL0     C88756   6.414   0.839   7.587  0.4895 -0.9598 -0.9796
  644MOL0     C88757   6.554   0.836   7.518  1.1280 -0.0908 -0.7637
  644MOL0     O88758   6.559   0.931   7.411  0.5337  0.6651 -0.3966
  644MOL0     C88759   6.500   0.893   7.296 -1.0171 -0.5945 -0.3523
  644MOL0     C88760   6.537   0.779   7.231 -0.2033  0.0319  0.1437
  644MOL0     C88761   6.489   0.730   7.106 -0.6399 -0.1919  0.2031
  644MOL0     C88762   6.538   0.603   7.052 -0.3330  0.6447 -0.9085
  644MOL0     C88763   6.385   0.808   7.044  0.3164  0.5507  0.4326
  644MOL0     C88764   6.310   0.781   6.915  0.3165  0.7707 -0.3864
  644MOL0     O88765   6.300   0.644   6.878  1.0952 -0.1569 -0.3121
  644MOL0     C88766   6.220   0.621   6.770 -0.1716 -0.2692  0.2033
  644MOL0     C88767   6.273   0.535   6.668 -0.1523  0.1518  0.0570
  644MOL0     C88768   6.196   0.492   6.560  0.2534  0.0733  0.6023
  644MOL0     C88769   6.063   0.540   6.551 -0.4933 -0.3878  0.0342
  644MOL0     O88770   5.985   0.499   6.452 -0.3726 -0.7689  0.0457
  644MOL0     C88771   5.899   0.589   6.387 -0.0366 -0.1632  0.6576
  644MOL0     C88772   5.835   0.513   6.277 -0.3743 -0.3328 -1.0275
  644MOL0     C88773   5.715   0.441   6.335  0.1498  0.4840  0.2535
  644MOL0     C88774   5.752   0.312   6.420  0.4855  0.1887  0.1059
  644MOL0     C88775   5.625   0.231   6.461  0.3095 -0.3049  0.4329
  644MOL0     C88776   5.533   0.175   6.350  0.1936  0.2996 -0.1059
  644MOL0     C88777   5.451   0.051   6.396  1.0092 -0.5215 -0.8658
  644MOL0     C88778   5.365  -0.022   6.290  0.1729  0.4697  0.4488
  644MOL0    Cl88779   5.481  -0.069   6.164  0.2637 -0.2222 -0.0569
  644MOL0     C88780   6.012   0.628   6.654  0.4684 -0.4375 -0.3620
  644MOL0     C88781   6.088   0.652   6.768 -0.5951 -0.8109 -0.0455
  644MOL0     O88782   6.272   0.881   6.850 -0.3851  0.3861 -0.2305
  644MOL0     C88783   6.355   0.935   7.097 -0.5682  1.0384 -0.4646
  644MOL0     C88784   6.409   0.977   7.226 -0.2724  0.5452 -0.1761
  644MOL0     N88785   6.102   1.128   7.815 -0.1465 -0.4116 -0.2476
  644MOL0     N88786   6.115   1.234   7.896  0.5412  0.1194  0.3689
  644MOL0     C88787   6.063   0.624   7.836 -0.1149 -0.3141 -1.2437
  644MOL0     C88788   6.059   0.590   7.698  0.2202  0.1179  0.7260
  644MOL0     C88789   6.069   0.407   7.297 -0.2510  0.5740  0.6061
  644MOL0     C88790   6.166   0.444   7.205 -0.0228 -0.2462 -0.6692
  644MOL0     C88791   6.169   0.405   7.075  0.1569  1.3651  1.3941
  644MOL0     C88792   6.071   0.321   7.026 -0.2414  0.1991  0.2710
  644MOL0     O88793   6.095   0.273   6.902  0.8958  0.0094  0.1276
  644MOL0     C88794   5.991   0.190   6.833 -0.7773  0.7654 -1.2394
  644MOL0     C88795   6.021   0.039   6.832 -0.5374  0.4010  0.4051
  644MOL0     C88796   6.138  -0.011   6.746  0.2386  0.2410 -1.2018
  644MOL0     C88797   6.125   0.030   6.601  0.2499 -0.3359  0.4260
  644MOL0     C88798   5.995   0.002   6.536  0.3724  0.2764  0.9280
  644MOL0     C88799   5.897  -0.037   6.476  0.1505 -0.7396 -0.6147
  644MOL0     C88800   5.971   0.290   7.113  0.8322  0.1203 -0.6898
  644MOL0     C88801   5.963   0.328   7.253 -0.3563 -0.0324 -0.3445
  644MOL0     C88802   5.850   0.269   7.329 -0.4446 -0.0734 -0.6708
  644MOL0     H88803   5.820   0.356   7.700 -1.3374  1.6658 -2.8787
  644MOL0     H88804   5.804   0.438   7.935  0.8637  0.9533  1.5314
  644MOL0     H88805   5.828   0.672   8.197  0.9644  2.9026  1.4653
  644MOL0     H88806   5.811   0.741   8.033  2.4844 -3.8471 -3.9338
  644MOL0     H88807   5.987   0.778   8.276 -3.0950 -0.5373 -0.6361
  644MOL0     H88808   6.042   0.851   8.114  0.5735  2.3752  0.9655
  644MOL0     H88809   5.852   0.992   8.112  1.7384  0.7605 -0.2107
  644MOL0     H88810   5.798   0.934   8.274  1.2781  2.5047  2.3832
  644MOL0     H88811   5.930   1.142   8.342  1.5648  0.9436  2.5583
  644MOL0     H88812   6.003   0.991   8.385  1.0136  0.7904  1.6636
  644MOL0     H88813   6.077   1.117   8.121  1.7659  0.5395  0.3251
  644MOL0     H88814   6.168   0.994   8.218 -1.0265 -1.0318  1.5807
  644MOL0     H88815   6.127   1.280   8.275 -1.4479 -0.9751 -0.5703
  644MOL0     H88816   6.210   1.170   8.378 -2.5710  0.1404  0.1524
  644MOL0     H88817   6.357   1.140   8.150 -0.5587 -0.3448  0.4348
  644MOL0     H88818   6.396   1.274   8.247 -0.5293  2.7799 -0.9294
  644MOL0     H88819   6.206   1.408   8.090  1.8902  2.2541 -1.6184
  644MOL0     H88820   6.374   1.375   8.042 -0.3001 -0.2452 -2.6004
  644MOL0     H88821   6.421   1.123   7.908  0.9682 -2.0683  0.1676
  644MOL0     H88822   6.165   0.929   7.676  1.4925 -3.8260 -0.5453
  644MOL0     H88823   6.275   0.879   7.803 -3.2159 -0.5826  0.9151
  644MOL0     H88824   6.328   1.040   7.549 -1.1115 -0.2557  0.3036
  644MOL0     H88825   6.457   1.016   7.685 -0.2847 -0.5764  0.3212
  644MOL0     H88826   6.412   0.771   7.672 -0.4213  1.1305  0.7835
  644MOL0     H88827   6.336   0.800   7.521 -1.2627  1.1774 -0.3028
  644MOL0     H88828   6.634   0.865   7.587  3.1682 -2.9689 -1.6993
  644MOL0     H88829   6.567   0.731   7.489 -1.8731 -0.6905 -0.2229
  644MOL0     H88830   6.605   0.717   7.288  1.6179  0.3201 -1.6215
  644MOL0     H88831   6.642   0.588   7.080 -1.3166 -3.9317  1.0636
  644MOL0     H88832   6.538   0.582   6.944 -1.2627 -1.7967 -0.4931
  644MOL0     H88833   6.481   0.519   7.092  1.8852  0.0968  1.2915
  644MOL0     H88834   6.369   0.485   6.673 -2.3286 -4.6926 -1.2040
  644MOL0     H88835   6.236   0.420   6.489 -0.8723  0.1094 -0.0990
  644MOL0     H88836   5.829   0.638   6.456  1.9339 -1.5449  3.8236
  644MOL0     H88837   5.956   0.673   6.346 -0.3807 -1.2146 -2.2161
  644MOL0     H88838   5.806   0.583   6.199 -1.0619  1.4747  0.7734
  644MOL0     H88839   5.902   0.438   6.233 -0.7646 -0.3223 -1.6372
  644MOL0     H88840   5.664   0.407   6.244  1.6780 -1.8122  0.1802
  644MOL0     H88841   5.641   0.506   6.382  0.7693  0.8716  0.7042
  644MOL0     H88842   5.786   0.332   6.522  1.9174 -1.9846  0.0960
  644MOL0     H88843   5.822   0.255   6.359  0.1857 -0.4027  0.3094
  644MOL0     H88844   5.672   0.148   6.516  4.6943  1.2019 -0.6524
  644MOL0     H88845   5.556   0.277   6.532 -0.5210 -0.7501 -0.0640
  644MOL0     H88846   5.593   0.149   6.262 -1.1665  1.1332 -1.3203
  644MOL0     H88847   5.461   0.246   6.308  2.9222  2.0823 -2.0362
  644MOL0     H88848   5.384   0.067   6.481  2.7548 -0.7368  0.6119
  644MOL0     H88849   5.522  -0.023   6.433 -1.3042 -1.7832  1.4107
  644MOL0     H88850   5.300   0.053   6.244  1.7853 -0.1143 -3.1197
  644MOL0     H88851   5.304  -0.106   6.325 -1.4364 -0.1416 -3.3950
  644MOL0     H88852   5.917   0.681   6.656  0.3533 -0.4981  3.6062
  644MOL0     H88853   6.048   0.727   6.836  1.5869  3.3043 -2.8427
  644MOL0     H88854   6.296   1.008   7.042 -0.1890  0.9962 -0.9323
  644MOL0     H88855   6.384   1.077   7.260 -0.0333  0.4637  0.2440
  644MOL0     H88856   6.123   0.704   7.879 -0.3059 -0.3233 -0.9519
  644MOL0     H88857   6.122   0.646   7.630 -1.8205 -0.4393 -1.8230
  644MOL0     H88858   6.253   0.504   7.230  0.8317  0.1027 -3.9661
  644MOL0     H88859   6.244   0.423   6.999 -2.3049  0.1813 -1.5350
  644MOL0     H88860   5.896   0.208   6.883  0.1134  2.7778 -0.1598
  644MOL0     H88861   5.969   0.213   6.728  3.0243  0.1248 -2.3427
  644MOL0     H88862   5.927  -0.011   6.806  0.1505 -0.6539 -0.0887
  644MOL0     H88863   6.057   0.003   6.929 -0.1857 -1.4003 -0.3643
  644MOL0     H88864   6.229   0.039   6.779 -0.9732  3.7060 -2.6164
  644MOL0     H88865   6.141  -0.119   6.761  1.1175  0.3540 -0.5212
  644MOL0     H88866   6.205  -0.011   6.540  1.2713  1.5856  0.3868
  644MOL0     H88867   6.133   0.140   6.603 -2.2518  0.0005 -1.6689
  644MOL0     H88868   5.807  -0.046   6.420  0.0456 -0.9837 -0.4076
  644MOL0     H88869   5.905   0.212   7.076  2.3276 -1.8284  0.5334
  644MOL0     H88870   5.879   0.190   7.399  1.4183  1.5358  0.4635
  644MOL0     H88871   5.785   0.347   7.369 -0.2667 -0.7002  0.9396
  644MOL0     H88872   5.777   0.212   7.270 -0.2289 -4.3329  2.6693
  645MOL0     O88873   9.579   0.544  10.438 -0.1229 -0.1707  0.4155
  645MOL0     C88874   9.475   0.582  10.386 -0.3741  0.4797 -0.4944
  645MOL0     O88875   9.417   0.697  10.416 -1.0369  0.6925  0.1655
  645MOL0     C88876   9.469   0.771  10.525 -0.1413 -0.3032 -0.2423
  645MOL0     C88877   9.442   0.732  10.665 -0.5008  0.4517 -0.4792
  645MOL0     C88878   9.509   0.807  10.775 -0.1259  1.0215  0.8092
  645MOL0     C88879   9.593   0.917  10.736 -0.3817 -0.1790 -0.4037
  645MOL0     O88880   9.653   1.000  10.832  0.1300  0.4375 -0.9356
  645MOL0     C88881   9.603   0.990  10.972 -0.2153 -0.1774  0.2681
  645MOL0     C88882   9.585   1.134  11.014  0.9312 -0.0042  0.5766
  645MOL0     C88883   9.480   1.211  10.931 -0.2098 -0.2017  0.1509
  645MOL0     C88884   9.480   1.365  10.970  0.2495  0.0123  0.0055
  645MOL0     C88885   9.580   1.449  10.882  0.1514  0.1306 -0.1749
  645MOL0     C88886   9.583   1.598  10.926 -0.0504  0.2555  0.7193
  645MOL0     C88887   9.655   1.664  10.812  0.4930 -0.1714 -0.0443
  645MOL0     C88888   9.677   1.815  10.839  0.1059  0.1518 -0.4130
  645MOL0     N88889   9.748   1.846  10.964  0.3739  0.1342 -0.1672
  645MOL0     C88890   9.867   1.789  11.002 -0.3507 -0.6937 -1.0510
  645MOL0     C88891   9.900   1.845  11.123 -0.7476 -1.1021  0.3849
  645MOL0     C88892  10.028   1.844  11.196  0.5771  0.5585 -0.2844
  645MOL0     C88893  10.133   1.886  11.099 -1.3553 -0.0997 -0.0803
  645MOL0     C88894  10.278   1.850  11.146 -1.0346 -0.6327 -0.7558
  645MOL0     C88895  10.372   1.845  11.025 -0.0788  0.5959 -0.6931
  645MOL0     O88896  10.375   1.980  10.972  0.4375 -0.6152 -0.2498
  645MOL0     C88897  10.466   2.015  10.877  0.4002  0.5385  0.6356
  645MOL0     C88898  10.529   1.913  10.809 -0.5064 -1.0072 -0.5007
  645MOL0     C88899  10.626   1.938  10.715  0.8686  0.4408  0.3136
  645MOL0     C88900  10.685   1.814  10.649 -0.3637 -0.8657 -0.4415
  645MOL0     C88901  10.664   2.072  10.686 -1.1604 -1.3794 -0.5737
  645MOL0     C88902  10.754   2.092  10.568  0.2494 -1.4350  0.0169
  645MOL0     O88903  10.841   2.197  10.593 -0.4598 -0.0881 -0.3044
  645MOL0     C88904  10.947   2.233  10.506  0.5379  0.4078  0.2398
  645MOL0     C88905  10.975   2.370  10.500 -0.4540  0.8179  0.3274
  645MOL0     C88906  11.071   2.420  10.412  0.7841 -0.0707 -0.0734
  645MOL0     C88907  11.149   2.318  10.344 -0.0031 -0.6398  0.5281
  645MOL0     O88908  11.256   2.376  10.285  0.1319 -0.2086  0.1536
  645MOL0     C88909  11.282   2.328  10.146 -0.0678  1.3536 -0.5891
  645MOL0     C88910  11.351   2.429  10.063  0.2349 -0.7116 -0.4439
  645MOL0     C88911  11.379   2.397   9.917  0.2241  0.2578  0.9321
  645MOL0     C88912  11.444   2.521   9.859 -0.4434 -0.7745  0.5435
  645MOL0     C88913  11.499   2.488   9.714 -0.8126 -0.2133 -0.8734
  645MOL0     C88914  11.564   2.597   9.642  0.1990 -1.1996  1.0114
  645MOL0     C88915  11.646   2.555   9.527 -0.5225  0.0740  0.2377
  645MOL0     C88916  11.721   2.676   9.452 -0.4258  0.5652  0.4527
  645MOL0    Cl88917  11.783   2.595   9.294 -1.0099 -0.6512  0.7360
  645MOL0     C88918  11.114   2.183  10.344  0.1549  0.4485  0.4199
  645MOL0     C88919  11.010   2.137  10.424 -0.3258  0.1092 -0.5819
  645MOL0     O88920  10.739   2.044  10.460 -0.3168 -0.1046  0.4421
  645MOL0     C88921  10.598   2.179  10.759 -0.3811 -0.1348  0.4243
  645MOL0     C88922  10.494   2.144  10.851 -0.5029 -0.5747 -0.5116
  645MOL0     N88923   9.789   1.927  11.160 -0.7643 -0.5191 -0.7537
  645MOL0     N88924   9.706   1.933  11.066  0.1200 -0.3799 -0.4545
  645MOL0     C88925   9.618   0.943  10.600 -0.7124 -0.5088 -1.0499
  645MOL0     C88926   9.546   0.882  10.502 -0.1404 -0.1146 -0.2888
  645MOL0     C88927   9.416   0.522  10.266 -0.1600 -0.3768 -0.6789
  645MOL0     C88928   9.316   0.594  10.189  1.5778  0.2449  0.2183
  645MOL0     C88929   9.281   0.554  10.064  0.1997  0.7266 -0.3436
  645MOL0     C88930   9.307   0.419  10.026 -0.4683 -0.5746  0.0422
  645MOL0     O88931   9.257   0.354   9.913  0.1416  0.1552 -0.1528
  645MOL0     C88932   9.179   0.436   9.817  0.4544 -0.2834 -0.6043
  645MOL0     C88933   9.158   0.349   9.696  1.2105 -0.0196 -0.6246
  645MOL0     C88934   9.281   0.292   9.623 -0.5701  0.3126 -0.3685
  645MOL0     C88935   9.362   0.403   9.557 -0.7852  0.8647 -0.8651
  645MOL0     C88936   9.455   0.348   9.466 -0.4241  0.1775  0.7486
  645MOL0     C88937   9.519   0.294   9.383 -0.8188 -0.9577 -0.6371
  645MOL0     C88938   9.398   0.343  10.100  1.2588 -0.1139 -0.6313
  645MOL0     C88939   9.451   0.394  10.220 -0.4164  0.1832  0.6816
  645MOL0     C88940   9.525   0.291  10.305  0.2310  0.0762  0.2842
  645MOL0     H88941   9.380   0.647  10.691  0.5692  0.2704  1.6743
  645MOL0     H88942   9.487   0.771  10.875 -0.0401 -2.2918 -0.2319
  645MOL0     H88943   9.676   0.939  11.036  0.4793  1.5197  0.8847
  645MOL0     H88944   9.507   0.937  10.975 -0.1907 -0.7621 -3.7920
  645MOL0     H88945   9.566   1.146  11.121  2.1061  0.5623  0.7388
  645MOL0     H88946   9.682   1.182  10.997  1.6596 -0.7262  2.4365
  645MOL0     H88947   9.504   1.212  10.825  2.2095  1.1506  0.6378
  645MOL0     H88948   9.376   1.176  10.939 -1.4729  2.3470 -2.9309
  645MOL0     H88949   9.384   1.412  10.947  0.7416  1.3402  0.5624
  645MOL0     H88950   9.503   1.368  11.077 -0.6093  1.1389  0.1837
  645MOL0     H88951   9.545   1.445  10.779  0.2336 -4.7878 -0.2900
  645MOL0     H88952   9.677   1.400  10.891  0.1885  0.6348  4.5379
  645MOL0     H88953   9.483   1.642  10.933  0.1233  1.2808 -2.0120
  645MOL0     H88954   9.635   1.610  11.021  1.6318 -1.3954  0.0664
  645MOL0     H88955   9.602   1.667  10.717  2.3541  0.2516 -1.1252
  645MOL0     H88956   9.752   1.616  10.795  1.6699  1.1687  2.3266
  645MOL0     H88957   9.732   1.867  10.760 -0.6689 -0.1328 -1.1590
  645MOL0     H88958   9.578   1.859  10.851  0.0062 -0.4636  1.1701
  645MOL0     H88959   9.928   1.717  10.949  0.5351  0.7692 -2.0952
  645MOL0     H88960  10.053   1.749  11.245  0.9660  0.6416 -0.3220
  645MOL0     H88961  10.023   1.932  11.261 -2.7965  1.8067 -1.9858
  645MOL0     H88962  10.115   1.834  11.005  1.5778 -0.1579 -0.7248
  645MOL0     H88963  10.129   1.994  11.078  0.7876 -0.4405 -2.8973
  645MOL0     H88964  10.313   1.927  11.217  2.1854  0.2080 -3.0336
  645MOL0     H88965  10.284   1.761  11.209  1.2917  0.9724  1.5285
  645MOL0     H88966  10.470   1.811  11.058 -0.5907 -1.9669 -1.6150
  645MOL0     H88967  10.345   1.763  10.957  0.9429 -1.6217  1.4290
  645MOL0     H88968  10.505   1.808  10.825 -1.5738 -1.2391 -3.0929
  645MOL0     H88969  10.794   1.806  10.651 -0.3035 -4.1293  5.1487
  645MOL0     H88970  10.653   1.818  10.544  0.4021  1.5634 -0.6323
  645MOL0     H88971  10.646   1.721  10.691  0.5102 -0.1121  2.2289
  645MOL0     H88972  10.932   2.440  10.571  1.1193  3.6093 -1.2795
  645MOL0     H88973  11.088   2.527  10.400 -2.6446  0.7002  0.7149
  645MOL0     H88974  11.342   2.237  10.141  0.1728  1.5254 -0.8495
  645MOL0     H88975  11.190   2.302  10.091  1.5775 -4.5728 -1.2103
  645MOL0     H88976  11.288   2.518  10.061 -1.3965 -1.6987  2.1143
  645MOL0     H88977  11.446   2.445  10.116  0.1322 -0.3714 -0.3600
  645MOL0     H88978  11.289   2.365   9.864 -1.2260  3.9594  0.8935
  645MOL0     H88979  11.459   2.325   9.897 -0.9076 -0.5394 -1.0622
  645MOL0     H88980  11.527   2.547   9.925  0.5603 -3.8558  0.6537
  645MOL0     H88981  11.380   2.610   9.862  0.1312 -0.3041 -0.6360
  645MOL0     H88982  11.569   2.406   9.732 -1.4108 -0.1897  2.1127
  645MOL0     H88983  11.435   2.440   9.640  1.1240 -1.8546 -1.5843
  645MOL0     H88984  11.617   2.659   9.715  2.0846 -0.0520 -1.1985
  645MOL0     H88985  11.490   2.666   9.601  1.1593 -0.7448  0.0066
  645MOL0     H88986  11.583   2.498   9.458 -2.5403 -0.6220  2.5116
  645MOL0     H88987  11.729   2.493   9.562 -0.3285 -0.0549 -0.4404
  645MOL0     H88988  11.810   2.707   9.507  0.6817  3.3754 -2.6247
  645MOL0     H88989  11.644   2.752   9.433 -1.5104 -0.7253 -0.5490
  645MOL0     H88990  11.189   2.114  10.308 -0.3867  0.3056 -0.4480
  645MOL0     H88991  10.989   2.031  10.433  2.8734 -0.4747  1.5412
  645MOL0     H88992  10.621   2.282  10.736  2.1443 -1.1816 -2.4695
  645MOL0     H88993  10.455   2.220  10.918 -0.1105 -0.4956 -0.3662
  645MOL0     H88994   9.684   1.025  10.576 -2.1774  0.3114 -2.5176
  645MOL0     H88995   9.552   0.910  10.398 -0.7284 -1.3208 -0.6544
  645MOL0     H88996   9.284   0.694  10.215 -1.2021 -0.4556 -0.1274
  645MOL0     H88997   9.215   0.634  10.032 -0.9431 -0.2608 -0.5612
  645MOL0     H88998   9.082   0.468   9.856  1.5784  0.5372  1.7170
  645MOL0     H88999   9.222   0.529   9.779 -0.9410  0.1051 -1.3135
  645MOL0     H89000   9.095   0.408   9.630 -0.7548 -0.8704  0.4008
  645MOL0     H89001   9.097   0.262   9.722  2.2853 -0.7204 -0.3876
  645MOL0     H89002   9.340   0.223   9.684 -0.7916 -1.2185 -1.8194
  645MOL0     H89003   9.241   0.229   9.542 -3.3881 -0.3531  1.3771
  645MOL0     H89004   9.407   0.463   9.636  2.3042 -0.9904 -1.0618
  645MOL0     H89005   9.294   0.459   9.493  0.0545 -0.3468 -2.9471
  645MOL0     H89006   9.574   0.250   9.302  0.8706  0.4749 -0.3367
  645MOL0     H89007   9.429   0.251  10.051 -1.3824 -1.2674 -0.3239
  645MOL0     H89008   9.633   0.309  10.299  0.1956  0.3259  0.3979
  645MOL0     H89009   9.491   0.283  10.409  3.7725 -3.6149  1.4461
  645MOL0     H89010   9.513   0.196  10.251  0.1552  0.5625 -0.5651
  646MOL0     O89011  11.091   4.801   4.780 -0.5786  0.3241  0.5600
  646MOL0     C89012  11.152   4.869   4.702  0.2528 -0.3493  0.2804
  646MOL0     O89013  11.267   4.837   4.645  0.6415  0.1350  0.7132
  646MOL0     C89014  11.297   4.704   4.664  0.5642 -0.2549 -0.2021
  646MOL0     C89015  11.379   4.664   4.774 -0.1398  0.0088  1.0996
  646MOL0     C89016  11.385   4.529   4.820 -0.6419 -0.3405 -0.2595
  646MOL0     C89017  11.344   4.424   4.744 -0.3257  0.2674  0.6914
  646MOL0     O89018  11.377   4.296   4.792 -0.0625 -0.6277  0.5598
  646MOL0     C89019  11.310   4.177   4.755  0.3267 -0.2161  0.4565
  646MOL0     C89020  11.257   4.123   4.885  0.1778 -1.4178 -0.2086
  646MOL0     C89021  11.364   4.087   4.997 -0.9632 -0.0001  0.0509
  646MOL0     C89022  11.477   3.989   4.949 -0.4863  0.0642  0.4828
  646MOL0     C89023  11.592   3.980   5.040  0.0455  0.2664  0.0191
  646MOL0     C89024  11.579   3.954   5.195 -0.4855 -0.1722  0.5983
  646MOL0     C89025  11.732   3.954   5.233 -1.1604  0.9959 -0.5546
  646MOL0     C89026  11.754   3.907   5.376  0.2299 -0.4334 -0.9305
  646MOL0     N89027  11.737   3.761   5.391  0.4284 -0.3158 -1.4634
  646MOL0     C89028  11.622   3.700   5.408  0.4796 -0.1985 -0.9696
  646MOL0     C89029  11.655   3.584   5.474 -0.5889 -0.3455  0.5533
  646MOL0     C89030  11.557   3.476   5.520 -0.3204  0.4826  0.0234
  646MOL0     C89031  11.449   3.523   5.605 -0.3247  0.5365  0.1573
  646MOL0     C89032  11.351   3.419   5.675 -0.0890  0.3692 -0.2047
  646MOL0     C89033  11.282   3.486   5.791  0.4026 -0.1101 -0.4883
  646MOL0     O89034  11.388   3.518   5.884  0.5362 -0.0197 -0.3116
  646MOL0     C89035  11.355   3.572   6.003  0.0492  0.2359  0.4867
  646MOL0     C89036  11.230   3.634   6.036  0.0986  0.0517 -0.6401
  646MOL0     C89037  11.212   3.702   6.164  0.1393  0.7480 -0.0736
  646MOL0     C89038  11.076   3.769   6.188  0.3138 -0.3612  0.0117
  646MOL0     C89039  11.320   3.697   6.256  0.1263 -0.3085  0.1825
  646MOL0     C89040  11.306   3.769   6.385  1.2028  0.3884 -0.3713
  646MOL0     O89041  11.185   3.751   6.454 -0.2148 -0.0160  0.1550
  646MOL0     C89042  11.192   3.778   6.585  0.0934  0.0944  0.5942
  646MOL0     C89043  11.234   3.690   6.687 -1.1924  0.4332  0.6862
  646MOL0     C89044  11.219   3.706   6.821  0.2103  0.2759  0.1411
  646MOL0     C89045  11.165   3.830   6.871  0.2796  0.8527  0.2144
  646MOL0     O89046  11.158   3.851   7.008 -1.4417  0.5178 -0.0770
  646MOL0     C89047  11.041   3.911   7.056  0.1656  0.0721 -0.0405
  646MOL0     C89048  10.925   3.810   7.068  0.3638 -0.4094  0.2142
  646MOL0     C89049  10.804   3.859   7.150  0.0012 -0.2006  0.7610
  646MOL0     C89050  10.823   3.915   7.284 -0.6399  0.7893 -0.7648
  646MOL0     C89051  10.690   3.941   7.344  0.3201  0.2115  0.1598
  646MOL0     C89052  10.717   4.014   7.476 -0.0929 -0.7380  0.0617
  646MOL0     C89053  10.587   4.038   7.544 -0.4259  0.3181 -0.4176
  646MOL0     C89054  10.592   4.077   7.689  0.5331  0.5360  0.6118
  646MOL0    Cl89055  10.646   4.233   7.718  0.2853  0.0195 -0.3017
  646MOL0     C89056  11.119   3.918   6.773  0.1544  0.4094  0.5969
  646MOL0     C89057  11.124   3.886   6.633  1.2499  0.4193  0.4241
  646MOL0     O89058  11.405   3.807   6.431 -0.2569  0.3071 -0.0096
  646MOL0     C89059  11.441   3.636   6.227  0.6553  1.3206 -0.4425
  646MOL0     C89060  11.455   3.573   6.103 -0.4656 -0.4757  0.8754
  646MOL0     N89061  11.790   3.573   5.485 -0.5858 -0.4224  0.5890
  646MOL0     N89062  11.835   3.687   5.435 -0.0249  0.0709  0.8224
  646MOL0     C89063  11.280   4.457   4.621 -0.0708  0.2302  0.2659
  646MOL0     C89064  11.258   4.593   4.586  0.4444 -0.6061 -0.7719
  646MOL0     C89065  11.104   5.018   4.685  0.2011  0.0987  0.0535
  646MOL0     C89066  11.168   5.094   4.581  0.1220  0.3985  0.3201
  646MOL0     C89067  11.120   5.221   4.544  0.1743 -0.0180 -0.5210
  646MOL0     C89068  11.024   5.289   4.611 -0.0984 -1.7914 -0.5509
  646MOL0     O89069  10.992   5.421   4.562 -0.0783  0.4109  0.2399
  646MOL0     C89070  10.881   5.494   4.626 -0.1890 -0.1256  0.0456
  646MOL0     C89071  10.822   5.590   4.528  0.0753  0.6312  0.0866
  646MOL0     C89072  10.918   5.708   4.482 -1.0749  0.3138  0.7047
  646MOL0     C89073  10.844   5.811   4.405  0.2098 -0.7501  0.1585
  646MOL0     C89074  10.786   5.746   4.280  0.9204  0.0103 -0.6241
  646MOL0     C89075  10.726   5.701   4.181 -0.8867  0.7757  0.4651
  646MOL0     C89076  10.972   5.223   4.729 -0.1204 -0.1674  0.2348
  646MOL0     C89077  11.005   5.089   4.770 -0.0971  0.0763  0.1989
  646MOL0     C89078  10.936   5.025   4.894  0.8206  0.1540 -0.0916
  646MOL0     H89079  11.417   4.746   4.835  0.9983  2.0232 -2.0061
  646MOL0     H89080  11.435   4.499   4.912  1.4918  1.5009 -0.7203
  646MOL0     H89081  11.377   4.108   4.703 -1.1381 -0.8006 -0.7096
  646MOL0     H89082  11.228   4.191   4.685  0.3218  3.6568  1.0192
  646MOL0     H89083  11.196   4.208   4.918  1.9266 -0.6644  1.3157
  646MOL0     H89084  11.201   4.031   4.871  1.8381 -2.3269 -1.1775
  646MOL0     H89085  11.396   4.188   5.026  2.2487 -0.5836 -1.0926
  646MOL0     H89086  11.309   4.049   5.083 -3.0993 -1.8518 -1.9945
  646MOL0     H89087  11.434   3.890   4.930  1.3740 -0.7010  0.0044
  646MOL0     H89088  11.511   4.011   4.848 -0.8789 -2.8788 -0.3938
  646MOL0     H89089  11.634   4.080   5.029  0.6039 -0.1591 -2.3159
  646MOL0     H89090  11.661   3.903   5.004 -0.7815 -0.7538  0.5279
  646MOL0     H89091  11.529   4.035   5.248  0.2870  0.0273  1.0368
  646MOL0     H89092  11.520   3.865   5.219 -1.4477 -0.6344 -2.8812
  646MOL0     H89093  11.773   4.054   5.219 -0.4188  1.6084  4.2344
  646MOL0     H89094  11.797   3.895   5.168  0.1652  2.3268 -0.4969
  646MOL0     H89095  11.855   3.933   5.408 -0.7313  0.9430  1.2591
  646MOL0     H89096  11.698   3.975   5.441  0.4003  1.1686 -2.3942
  646MOL0     H89097  11.523   3.733   5.376  0.6254  2.9613  1.3515
  646MOL0     H89098  11.616   3.400   5.573  1.7762  0.8288 -1.6812
  646MOL0     H89099  11.511   3.434   5.431 -0.9171  1.3718 -0.1007
  646MOL0     H89100  11.506   3.585   5.675  2.0739  1.2744 -2.2860
  646MOL0     H89101  11.375   3.580   5.548  0.4362  0.6242 -0.7442
  646MOL0     H89102  11.292   3.371   5.596  1.6886  0.6394 -1.7774
  646MOL0     H89103  11.408   3.343   5.730  0.1328  0.2950 -0.5322
  646MOL0     H89104  11.238   3.576   5.746 -0.3155 -1.6071 -2.9745
  646MOL0     H89105  11.208   3.417   5.832 -0.2926 -0.2314 -1.8965
  646MOL0     H89106  11.147   3.636   5.966  0.8556  0.3434 -1.5536
  646MOL0     H89107  11.030   3.697   6.255 -0.0211  2.5703  3.1932
  646MOL0     H89108  11.024   3.792   6.094 -1.4171  0.6088  1.1667
  646MOL0     H89109  11.086   3.858   6.251 -0.1091 -2.1668  2.8164
  646MOL0     H89110  11.262   3.591   6.654  1.0373 -0.0156  3.5878
  646MOL0     H89111  11.249   3.638   6.900 -2.0339 -2.3813 -1.1163
  646MOL0     H89112  11.071   3.937   7.158 -0.7260 -0.0499  0.2626
  646MOL0     H89113  11.012   4.000   6.998 -0.5087  1.6234  2.4930
  646MOL0     H89114  10.889   3.791   6.966 -0.4199  3.2091 -0.3397
  646MOL0     H89115  10.965   3.714   7.102  2.3758  0.0513 -0.7000
  646MOL0     H89116  10.742   3.770   7.162  0.4147 -1.0057 -2.2681
  646MOL0     H89117  10.748   3.925   7.083 -0.6545  0.7650  2.2022
  646MOL0     H89118  10.880   4.007   7.269 -1.1109  0.9292 -1.7454
  646MOL0     H89119  10.874   3.847   7.354  1.0083  3.3155  0.6510
  646MOL0     H89120  10.621   3.994   7.277  0.1678  0.0127  0.1550
  646MOL0     H89121  10.651   3.841   7.367 -0.2195  0.3698 -0.0489
  646MOL0     H89122  10.771   4.108   7.462 -0.0553 -0.4197  1.9893
  646MOL0     H89123  10.771   3.948   7.545  0.0776  0.7681  1.4385
  646MOL0     H89124  10.529   3.947   7.528  0.6405  0.0086 -2.9439
  646MOL0     H89125  10.542   4.115   7.481 -0.0370  0.6323 -0.3185
  646MOL0     H89126  10.649   4.006   7.750 -1.3885 -2.1217 -0.5026
  646MOL0     H89127  10.487   4.080   7.718 -0.1682 -1.4999 -1.4326
  646MOL0     H89128  11.103   4.024   6.790  2.1684  0.9814 -0.7152
  646MOL0     H89129  11.090   3.961   6.562  1.0595 -1.8666 -2.0631
  646MOL0     H89130  11.517   3.632   6.304 -0.0053 -0.9398  0.1776
  646MOL0     H89131  11.552   3.527   6.082  1.3797  3.5286 -0.3748
  646MOL0     H89132  11.264   4.382   4.544  0.5992  0.6117 -0.2556
  646MOL0     H89133  11.204   4.607   4.493 -0.0919 -0.9074 -0.5074
  646MOL0     H89134  11.239   5.032   4.528 -1.4901 -0.8850 -0.3982
  646MOL0     H89135  11.164   5.254   4.451 -1.3759  0.3368 -1.1431
  646MOL0     H89136  10.796   5.434   4.657 -0.7793  1.4830  1.7086
  646MOL0     H89137  10.920   5.551   4.711  0.7658 -3.6352  2.1644
  646MOL0     H89138  10.733   5.632   4.575 -0.4912 -0.0100 -0.4026
  646MOL0     H89139  10.787   5.532   4.442  3.0197  0.8903 -1.4179
  646MOL0     H89140  10.968   5.757   4.566 -0.1799 -0.9731  0.9477
  646MOL0     H89141  10.998   5.671   4.418  0.0171  4.3723 -0.5747
  646MOL0     H89142  10.923   5.881   4.375 -0.0684 -0.8772 -0.9272
  646MOL0     H89143  10.765   5.867   4.456 -0.6098  0.0430 -1.8571
  646MOL0     H89144  10.670   5.658   4.100  1.4184  3.0102 -2.5743
  646MOL0     H89145  10.898   5.280   4.785 -0.5864 -0.4140 -0.1244
  646MOL0     H89146  11.011   4.977   4.959  0.1594 -0.9086 -0.0878
  646MOL0     H89147  10.895   5.112   4.947  3.5230  1.5554 -0.1361
  646MOL0     H89148  10.863   4.954   4.854  2.5375 -0.8098 -1.6501
  647MOL0     O89149   2.633   8.978   3.017  0.6332 -0.8450 -0.5775
  647MOL0     C89150   2.638   8.865   3.055 -0.3596  0.4560 -0.1455
  647MOL0     O89151   2.582   8.759   2.987  0.4615  0.3550 -0.3017
  647MOL0     C89152   2.526   8.775   2.859 -0.7564 -0.7211 -0.7044
  647MOL0     C89153   2.392   8.798   2.842 -0.4769  0.1939  0.4756
  647MOL0     C89154   2.354   8.847   2.722 -1.2125  0.4389  1.0326
  647MOL0     C89155   2.432   8.846   2.611 -0.0129 -0.1444  0.6158
  647MOL0     O89156   2.392   8.867   2.483  0.3698 -0.0168 -0.6912
  647MOL0     C89157   2.257   8.821   2.441  0.8599 -0.0379  1.2443
  647MOL0     C89158   2.236   8.844   2.291 -0.3996 -0.5346 -0.0288
  647MOL0     C89159   2.349   8.802   2.198  0.0677  0.8459 -0.4419
  647MOL0     C89160   2.302   8.809   2.057  0.1724  0.5350  0.5624
  647MOL0     C89161   2.418   8.752   1.966  0.4258 -0.2520 -0.3351
  647MOL0     C89162   2.376   8.733   1.822  0.3129  0.7582  1.4036
  647MOL0     C89163   2.503   8.704   1.752 -0.0088  0.4252 -0.0823
  647MOL0     C89164   2.481   8.623   1.618 -0.1342 -0.0373  0.5774
  647MOL0     N89165   2.442   8.480   1.618  0.3906 -0.7365  0.4316
  647MOL0     C89166   2.528   8.379   1.653  0.1579 -0.1906 -0.5300
  647MOL0     C89167   2.464   8.272   1.615 -0.7541  0.1436 -0.2790
  647MOL0     C89168   2.516   8.134   1.637  0.4201  0.4780 -0.4517
  647MOL0     C89169   2.450   8.069   1.755 -0.5195  0.0848  0.7046
  647MOL0     C89170   2.466   8.137   1.896 -0.9708 -0.0282 -0.2239
  647MOL0     C89171   2.609   8.163   1.964  0.1757  0.9735 -0.4773
  647MOL0     O89172   2.676   8.038   1.966  0.0023 -0.4939 -0.3662
  647MOL0     C89173   2.807   8.020   2.010  0.1454  1.2291 -0.5120
  647MOL0     C89174   2.885   8.124   2.072  0.6419 -0.2062 -0.1348
  647MOL0     C89175   3.016   8.090   2.112  0.7040 -0.4438  0.5930
  647MOL0     C89176   3.087   8.201   2.183 -0.9873 -0.1161 -0.2808
  647MOL0     C89177   3.059   7.955   2.113 -0.1345  0.1472  0.4777
  647MOL0     C89178   3.188   7.917   2.176 -0.0632 -0.9218 -0.2605
  647MOL0     O89179   3.195   7.789   2.225  0.2950  0.4795 -0.2414
  647MOL0     C89180   3.293   7.729   2.301  1.0504  0.6745 -0.0198
  647MOL0     C89181   3.428   7.765   2.307  0.5658 -0.1469  0.4699
  647MOL0     C89182   3.522   7.701   2.394  0.5657 -0.7244 -0.1516
  647MOL0     C89183   3.483   7.596   2.470  0.9130 -0.0477 -0.3845
  647MOL0     O89184   3.557   7.531   2.557 -0.1769 -0.0847 -0.0280
  647MOL0     C89185   3.689   7.482   2.531 -0.2527  0.1571 -0.0401
  647MOL0     C89186   3.692   7.374   2.421 -0.5517 -0.4395 -0.9834
  647MOL0     C89187   3.754   7.442   2.290  0.0217 -0.3813  0.4082
  647MOL0     C89188   3.744   7.353   2.159 -0.4567  0.7026 -0.0625
  647MOL0     C89189   3.604   7.304   2.110 -0.6327 -0.5163 -0.1165
  647MOL0     C89190   3.611   7.209   1.990  0.2133  0.2720 -0.9255
  647MOL0     C89191   3.680   7.075   2.017 -0.0387  0.3486  0.4869
  647MOL0     C89192   3.693   7.001   1.882 -0.4559  0.1738  0.2960
  647MOL0    Cl89193   3.832   6.883   1.917  0.2237  0.0236  0.1750
  647MOL0     C89194   3.349   7.555   2.463  0.0167 -0.2494  0.8332
  647MOL0     C89195   3.265   7.617   2.372  0.3607 -0.1373 -1.0054
  647MOL0     O89196   3.282   7.997   2.168  0.4694  0.1787  0.0649
  647MOL0     C89197   2.979   7.864   2.053  0.0175 -0.1047  0.9085
  647MOL0     C89198   2.853   7.891   2.005  0.8751  0.1604 -0.2511
  647MOL0     N89199   2.352   8.307   1.554 -0.2397 -0.1267  1.2839
  647MOL0     N89200   2.341   8.435   1.547  0.0183 -0.2193 -0.4774
  647MOL0     C89201   2.568   8.819   2.632 -0.1311  0.9190  0.6025
  647MOL0     C89202   2.616   8.786   2.754  0.6579  0.0718  0.2456
  647MOL0     C89203   2.687   8.837   3.191 -0.5416  0.6744  0.1200
  647MOL0     C89204   2.658   8.712   3.246  0.8370 -1.0214 -0.0668
  647MOL0     C89205   2.715   8.668   3.363  0.2503  0.5775  0.4010
  647MOL0     C89206   2.802   8.756   3.428  0.0539 -0.1330  0.4951
  647MOL0     O89207   2.859   8.720   3.542 -0.5098 -0.4807  0.4776
  647MOL0     C89208   2.798   8.785   3.654 -0.4556 -0.5084  0.4614
  647MOL0     C89209   2.676   8.705   3.703 -0.1388  0.1989  0.2139
  647MOL0     C89210   2.627   8.779   3.829  0.0351  0.1133 -0.9102
  647MOL0     C89211   2.493   8.730   3.862  1.0877 -0.3222 -0.4560
  647MOL0     C89212   2.390   8.789   3.774  0.8981 -0.1387  0.1328
  647MOL0     C89213   2.305   8.831   3.693 -0.5696  0.0627  0.1171
  647MOL0     C89214   2.843   8.871   3.369  0.0708  0.3020  0.7597
  647MOL0     C89215   2.783   8.916   3.257 -0.1724 -0.3821 -1.4565
  647MOL0     C89216   2.836   9.049   3.222 -0.2343  0.3074 -0.2009
  647MOL0     H89217   2.313   8.785   2.916 -1.9377 -2.0120 -1.3325
  647MOL0     H89218   2.253   8.885   2.711 -1.8817 -1.7649 -2.0446
  647MOL0     H89219   2.175   8.878   2.485 -0.0973 -0.1566 -0.3146
  647MOL0     H89220   2.238   8.716   2.462 -2.3644  0.0981 -0.4439
  647MOL0     H89221   2.133   8.815   2.267 -0.9237  0.7784  0.5496
  647MOL0     H89222   2.231   8.952   2.274  1.0556 -0.6268 -1.2435
  647MOL0     H89223   2.424   8.881   2.208 -0.0047  0.8511  0.0865
  647MOL0     H89224   2.384   8.703   2.230 -0.8117  0.6576 -0.0463
  647MOL0     H89225   2.205   8.762   2.036 -0.1305 -0.7123  4.0793
  647MOL0     H89226   2.290   8.917   2.043  1.0504  0.5344 -0.3172
  647MOL0     H89227   2.443   8.661   2.020 -2.6480  0.0935  1.9415
  647MOL0     H89228   2.501   8.823   1.968  0.8237 -0.7234  0.7863
  647MOL0     H89229   2.311   8.646   1.808  2.2320 -0.7369  1.4341
  647MOL0     H89230   2.318   8.816   1.780 -1.2194  0.1954  2.3146
  647MOL0     H89231   2.566   8.649   1.821  2.0842  4.6806  1.7376
  647MOL0     H89232   2.561   8.795   1.734 -1.0034  1.0903 -0.0141
  647MOL0     H89233   2.402   8.675   1.563  0.1959  0.8384  0.9159
  647MOL0     H89234   2.571   8.639   1.558  0.1896  0.5040  1.2039
  647MOL0     H89235   2.616   8.390   1.715  1.0117  2.0288 -1.9956
  647MOL0     H89236   2.623   8.146   1.660  0.5208  1.1539 -1.2424
  647MOL0     H89237   2.493   8.078   1.547 -2.6183 -0.3363  0.7164
  647MOL0     H89238   2.344   8.047   1.741  0.0443 -2.8412  0.3788
  647MOL0     H89239   2.491   7.967   1.754 -0.9980 -0.2555  3.9412
  647MOL0     H89240   2.418   8.235   1.898  2.2464  1.7527  4.0455
  647MOL0     H89241   2.409   8.076   1.966 -0.1365 -1.2263 -0.5427
  647MOL0     H89242   2.672   8.244   1.927  0.4841  0.4050 -1.2140
  647MOL0     H89243   2.588   8.203   2.064  0.7039  1.2941 -0.4955
  647MOL0     H89244   2.854   8.228   2.068  0.6838 -0.2456 -2.1625
  647MOL0     H89245   3.079   8.194   2.292 -1.8870  1.5431 -0.1958
  647MOL0     H89246   3.033   8.296   2.171 -2.5818 -0.9042  0.4094
  647MOL0     H89247   3.192   8.208   2.154  0.2149 -3.5135  2.5500
  647MOL0     H89248   3.468   7.851   2.254  0.9289 -0.6315 -0.0433
  647MOL0     H89249   3.624   7.738   2.393 -0.0721  1.4002  1.9808
  647MOL0     H89250   3.752   7.566   2.501 -1.0116  0.2270 -1.5449
  647MOL0     H89251   3.738   7.451   2.624 -0.5368  0.2542  0.1421
  647MOL0     H89252   3.764   7.300   2.456 -1.4952  0.5558  3.6429
  647MOL0     H89253   3.591   7.333   2.419 -0.8374  0.2336 -0.6724
  647MOL0     H89254   3.856   7.464   2.322  0.6099  0.2728 -1.7836
  647MOL0     H89255   3.697   7.533   2.270  0.9766  0.0080 -0.6157
  647MOL0     H89256   3.803   7.262   2.173 -0.4274  0.6905 -0.2626
  647MOL0     H89257   3.798   7.397   2.075  0.8042  2.8264  1.7477
  647MOL0     H89258   3.540   7.262   2.187 -1.8855  0.3956 -0.6217
  647MOL0     H89259   3.558   7.397   2.074 -0.7273 -0.0994  1.0437
  647MOL0     H89260   3.661   7.250   1.901 -3.2033  1.3224 -2.5472
  647MOL0     H89261   3.507   7.191   1.961 -0.0949 -2.6070  1.5248
  647MOL0     H89262   3.624   7.017   2.091 -0.5100  3.2286  2.5448
  647MOL0     H89263   3.778   7.089   2.063  0.8774 -1.7683 -0.6826
  647MOL0     H89264   3.739   7.066   1.808 -0.6305  0.6020  0.5636
  647MOL0     H89265   3.604   6.957   1.836 -0.1758  2.0033 -2.1547
  647MOL0     H89266   3.315   7.484   2.538 -4.7058  0.3314 -0.4382
  647MOL0     H89267   3.159   7.591   2.378 -0.4771  3.1915  1.6666
  647MOL0     H89268   3.025   7.766   2.049  0.6067  0.1502  1.2526
  647MOL0     H89269   2.790   7.808   1.976  1.5926 -0.5444  0.1878
  647MOL0     H89270   2.627   8.823   2.541  1.1144  2.2716  1.4178
  647MOL0     H89271   2.725   8.778   2.755  0.6095 -0.7629  1.4829
  647MOL0     H89272   2.608   8.635   3.187 -0.8968 -0.4587  0.6150
  647MOL0     H89273   2.709   8.569   3.405 -0.6351  0.7374  0.6736
  647MOL0     H89274   2.879   8.779   3.727  0.3510 -1.8633 -0.5063
  647MOL0     H89275   2.767   8.886   3.628 -1.2548 -0.9283 -0.2612
  647MOL0     H89276   2.712   8.609   3.741 -0.7483  0.0388  0.4015
  647MOL0     H89277   2.596   8.698   3.629 -1.5467  0.1366  1.6654
  647MOL0     H89278   2.699   8.757   3.908  1.3716  3.1825 -1.1348
  647MOL0     H89279   2.643   8.886   3.810  0.3430 -0.1183 -1.9930
  647MOL0     H89280   2.471   8.768   3.962  0.8697  1.7065 -1.2198
  647MOL0     H89281   2.491   8.621   3.862  3.1366 -0.4641  2.2750
  647MOL0     H89282   2.245   8.881   3.619  2.0102  1.2131 -1.3460
  647MOL0     H89283   2.922   8.923   3.422  1.2551 -2.4362  1.9025
  647MOL0     H89284   2.932   9.072   3.269 -0.4688  3.9134 -1.1540
  647MOL0     H89285   2.861   9.038   3.116 -1.8049 -0.5751 -0.5078
  647MOL0     H89286   2.765   9.131   3.235 -1.9427 -1.0964 -0.3773
  648MOL0     O89287   4.667  11.167   7.635  0.2167 -1.1424  0.0367
  648MOL0     C89288   4.679  11.246   7.730 -0.2708  0.4720 -0.5414
  648MOL0     O89289   4.692  11.205   7.865  0.2030 -0.1133  0.9930
  648MOL0     C89290   4.679  11.068   7.897  0.3262  0.3295  0.0225
  648MOL0     C89291   4.574  10.989   7.849  0.2159 -0.3111 -0.6205
  648MOL0     C89292   4.561  10.859   7.890 -0.8482 -0.9194  0.0872
  648MOL0     C89293   4.663  10.800   7.967 -0.2517 -0.0263 -0.1895
  648MOL0     O89294   4.679  10.662   7.995 -0.1600 -0.0112 -0.2182
  648MOL0     C89295   4.573  10.574   7.962  0.2663  1.1351  0.0779
  648MOL0     C89296   4.597  10.525   7.817 -0.3648 -0.5208  0.3189
  648MOL0     C89297   4.505  10.406   7.766  1.4171  0.4320  0.4765
  648MOL0     C89298   4.361  10.449   7.806 -0.4706  0.0142 -0.0952
  648MOL0     C89299   4.272  10.326   7.777  0.3211 -0.4608 -0.4627
  648MOL0     C89300   4.243  10.289   7.621  0.5770  0.2983 -0.8061
  648MOL0     C89301   4.138  10.378   7.566 -0.0333  0.1960 -0.0459
  648MOL0     C89302   4.098  10.330   7.421  0.0172  0.3091 -1.1739
  648MOL0     N89303   4.210  10.344   7.325  0.6969 -0.0749 -1.0711
  648MOL0     C89304   4.266  10.464   7.291  0.0182 -0.1832 -0.4764
  648MOL0     C89305   4.359  10.428   7.192  0.3804 -0.5587  0.8892
  648MOL0     C89306   4.431  10.531   7.104 -0.2244  0.1691  0.9832
  648MOL0     C89307   4.344  10.595   6.989 -0.0650  0.9091 -0.5654
  648MOL0     C89308   4.413  10.722   6.920  0.0648 -0.0395  0.3041
  648MOL0     C89309   4.537  10.692   6.839 -0.3069 -0.0579  0.1644
  648MOL0     O89310   4.655  10.682   6.924  0.1814 -0.7272  0.2955
  648MOL0     C89311   4.779  10.681   6.862 -0.7309  0.4043  0.6207
  648MOL0     C89312   4.803  10.706   6.725  1.3362  0.2275  0.0816
  648MOL0     C89313   4.930  10.697   6.663 -0.5636 -0.7959  0.6809
  648MOL0     C89314   4.926  10.739   6.519 -0.1078 -0.6616  0.6233
  648MOL0     C89315   5.043  10.673   6.745  0.1605  0.7057  0.5062
  648MOL0     C89316   5.185  10.676   6.690 -0.2366  0.0113 -0.1460
  648MOL0     O89317   5.209  10.667   6.558 -0.5577  0.8801  0.7335
  648MOL0     C89318   5.346  10.645   6.515  0.4206  0.2659 -0.5184
  648MOL0     C89319   5.379  10.530   6.446 -0.1849 -0.6531 -0.0741
  648MOL0     C89320   5.512  10.509   6.419 -0.1369  0.9071 -0.9587
  648MOL0     C89321   5.620  10.595   6.454  0.4263  0.2560 -0.3173
  648MOL0     O89322   5.751  10.549   6.445  0.4175  0.5619  0.1368
  648MOL0     C89323   5.788  10.488   6.325  0.0045 -0.3060 -0.1978
  648MOL0     C89324   5.937  10.465   6.343  0.8974 -0.4741  0.1912
  648MOL0     C89325   6.029  10.591   6.309  0.8924 -1.0930  0.7693
  648MOL0     C89326   6.177  10.558   6.321  0.3697  0.4087 -0.3277
  648MOL0     C89327   6.259  10.685   6.306 -0.2002 -0.2214 -0.3023
  648MOL0     C89328   6.403  10.643   6.306  0.2536 -0.1384  0.2358
  648MOL0     C89329   6.498  10.749   6.265 -0.5028 -1.3273  0.8639
  648MOL0     C89330   6.521  10.852   6.373  1.2357 -0.3666  0.1032
  648MOL0    Cl89331   6.661  10.950   6.326  0.0924 -0.2018  0.4718
  648MOL0     C89332   5.582  10.707   6.529  0.1319 -0.7056  0.0632
  648MOL0     C89333   5.440  10.735   6.555 -0.6400 -0.2733 -0.4402
  648MOL0     O89334   5.271  10.684   6.778 -0.6936  0.6671 -0.2170
  648MOL0     C89335   5.020  10.640   6.878 -0.2650 -0.1717  0.1869
  648MOL0     C89336   4.894  10.648   6.935  0.4884  0.2228 -0.9933
  648MOL0     N89337   4.360  10.283   7.181  0.2603 -0.4573  0.0188
  648MOL0     N89338   4.271  10.235   7.263 -0.2115  0.2173  0.1150
  648MOL0     C89339   4.768  10.879   8.008  0.1822  0.1168 -0.7015
  648MOL0     C89340   4.783  11.017   7.970  1.0395  0.4212 -0.1299
  648MOL0     C89341   4.671  11.387   7.696  0.3835  0.0474  0.5671
  648MOL0     C89342   4.733  11.428   7.578 -0.1826 -0.3753  0.5675
  648MOL0     C89343   4.736  11.562   7.545  0.5750  0.0348 -0.3500
  648MOL0     C89344   4.673  11.659   7.624 -0.4501 -0.3797 -0.1821
  648MOL0     O89345   4.681  11.789   7.597 -0.3245 -0.2688 -0.3895
  648MOL0     C89346   4.708  11.837   7.465 -0.2403  0.4173  0.2995
  648MOL0     C89347   4.860  11.860   7.443 -0.5084 -0.1215  0.6606
  648MOL0     C89348   4.912  11.990   7.518 -0.1486  0.4302 -0.4661
  648MOL0     C89349   5.068  11.995   7.513  0.2897  0.2180  0.1381
  648MOL0     C89350   5.111  11.984   7.651  0.1821 -1.1741 -0.5798
  648MOL0     C89351   5.135  11.951   7.764  0.3662 -0.4606  0.4566
  648MOL0     C89352   4.605  11.611   7.743  0.4940 -0.1433 -0.2991
  648MOL0     C89353   4.595  11.478   7.778 -1.7622 -0.2921  1.3714
  648MOL0     C89354   4.498  11.437   7.889 -0.9836 -0.3214 -0.0879
  648MOL0     H89355   4.502  11.045   7.790  1.0501  2.4189  0.8021
  648MOL0     H89356   4.473  10.801   7.865  0.6506 -4.1963  1.7768
  648MOL0     H89357   4.473  10.616   7.980 -1.5366 -2.7452  0.1780
  648MOL0     H89358   4.578  10.485   8.026 -2.0035 -2.6428 -4.4016
  648MOL0     H89359   4.586  10.614   7.755  2.9054  1.3731  2.1391
  648MOL0     H89360   4.703  10.497   7.810 -0.1641  0.1181  0.6990
  648MOL0     H89361   4.523  10.399   7.658  1.3954  3.8838  0.1540
  648MOL0     H89362   4.526  10.306   7.806  1.6635  0.7084  1.0476
  648MOL0     H89363   4.354  10.475   7.912 -0.1296  4.0138 -0.8988
  648MOL0     H89364   4.338  10.533   7.740  0.2816  0.4641  0.2034
  648MOL0     H89365   4.176  10.342   7.827  0.0881  1.6050 -1.4921
  648MOL0     H89366   4.325  10.247   7.832  1.0007  1.4212  1.7228
  648MOL0     H89367   4.343  10.295   7.576  1.8175 -1.9541  1.3666
  648MOL0     H89368   4.224  10.182   7.604  1.2251  0.2763 -1.4217
  648MOL0     H89369   4.184  10.477   7.565  2.0926 -0.7312 -1.8450
  648MOL0     H89370   4.044  10.380   7.623 -0.5045 -0.4351 -0.7741
  648MOL0     H89371   4.059  10.228   7.421 -1.5396  0.8649 -1.9822
  648MOL0     H89372   4.011  10.387   7.389 -2.1265 -1.5476  1.0093
  648MOL0     H89373   4.241  10.569   7.306  0.4744 -0.0802 -0.4447
  648MOL0     H89374   4.505  10.472   7.048 -0.2971 -0.5238  1.6170
  648MOL0     H89375   4.468  10.607   7.174  2.7555  0.7734 -1.0512
  648MOL0     H89376   4.333  10.516   6.914 -2.5803 -1.6079  2.2040
  648MOL0     H89377   4.245  10.625   7.024 -0.1375 -1.0796  1.1461
  648MOL0     H89378   4.345  10.753   6.840 -1.9256  0.2009  1.9979
  648MOL0     H89379   4.425  10.800   6.996  1.2906 -1.5093  1.6931
  648MOL0     H89380   4.518  10.601   6.782 -1.7463 -0.3494  1.0526
  648MOL0     H89381   4.555  10.781   6.779  0.3528  0.3276  0.9102
  648MOL0     H89382   4.718  10.713   6.658  1.3595 -1.6567 -0.2055
  648MOL0     H89383   4.947  10.658   6.448 -0.7361 -0.2232 -0.0751
  648MOL0     H89384   4.993  10.822   6.496 -5.1028  3.2928 -1.4325
  648MOL0     H89385   4.829  10.781   6.492  0.3950  0.7626  0.9395
  648MOL0     H89386   5.298  10.472   6.404 -2.4155  0.8123  1.9536
  648MOL0     H89387   5.539  10.418   6.367  1.4962  1.7543 -1.6594
  648MOL0     H89388   5.737  10.391   6.322 -0.1850 -0.2685  1.3207
  648MOL0     H89389   5.767  10.541   6.232 -1.7539 -1.3143 -0.4280
  648MOL0     H89390   5.966  10.445   6.446  2.0700  3.9843  0.9208
  648MOL0     H89391   5.968  10.381   6.279  1.0768 -0.4777  0.2831
  648MOL0     H89392   5.999  10.672   6.376  0.1535 -1.9328  1.4916
  648MOL0     H89393   6.004  10.626   6.209 -5.2638 -0.4542  2.0649
  648MOL0     H89394   6.200  10.487   6.241 -1.7571 -1.0179  0.2507
  648MOL0     H89395   6.200  10.519   6.421 -1.5549 -0.7910 -0.3067
  648MOL0     H89396   6.225  10.739   6.217 -0.6938 -1.3070 -0.7926
  648MOL0     H89397   6.235  10.745   6.394  0.6587  0.9504 -0.8416
  648MOL0     H89398   6.414  10.569   6.226  0.1808 -0.0156  0.1107
  648MOL0     H89399   6.450  10.602   6.395  3.5302  0.7336 -0.9305
  648MOL0     H89400   6.465  10.795   6.171 -0.7350 -1.3386  0.9380
  648MOL0     H89401   6.591  10.700   6.235 -0.0231 -0.3280  0.7003
  648MOL0     H89402   6.522  10.807   6.473  2.1283 -0.0631  0.2369
  648MOL0     H89403   6.433  10.916   6.378  0.6554 -1.2530  2.4008
  648MOL0     H89404   5.650  10.770   6.586 -2.3694  0.0564  2.3938
  648MOL0     H89405   5.417  10.822   6.615  0.1208 -1.1480  1.2027
  648MOL0     H89406   5.096  10.615   6.951 -1.9028 -2.3948  1.2603
  648MOL0     H89407   4.872  10.615   7.036 -2.5670  1.3884 -1.1729
  648MOL0     H89408   4.848  10.833   8.066  0.0435  0.6575 -0.0654
  648MOL0     H89409   4.859  11.085   8.008  0.5153  1.2516 -0.5396
  648MOL0     H89410   4.758  11.360   7.497 -2.4879  0.9272 -1.3951
  648MOL0     H89411   4.791  11.599   7.459  2.4598  1.9053  1.5025
  648MOL0     H89412   4.671  11.765   7.391  0.0468  0.4188  0.1496
  648MOL0     H89413   4.656  11.932   7.451  3.2839  2.2544 -1.8761
  648MOL0     H89414   4.887  11.853   7.337  3.3834  2.0495  1.3093
  648MOL0     H89415   4.932  11.790   7.486  1.8152  1.5845 -0.2505
  648MOL0     H89416   4.868  12.080   7.473 -0.7833  1.1127  1.4348
  648MOL0     H89417   4.872  11.991   7.620  2.1022 -0.9544  0.4877
  648MOL0     H89418   5.099  12.089   7.466  4.0681 -0.8269  0.1826
  648MOL0     H89419   5.091  11.913   7.445 -0.1936  0.9529 -0.9504
  648MOL0     H89420   5.150  11.912   7.863  2.0720 -1.1217 -0.0266
  648MOL0     H89421   4.568  11.680   7.818 -2.6620 -1.1680 -0.7925
  648MOL0     H89422   4.434  11.524   7.906 -0.3392  0.2426 -0.5058
  648MOL0     H89423   4.449  11.351   7.841  1.5077 -0.5823 -2.4186
  648MOL0     H89424   4.543  11.391   7.978 -0.7745 -2.3090 -1.1637
  649MOL0     O89425   4.265   0.829   7.514 -0.5875  0.6307 -0.1412
  649MOL0     C89426   4.154   0.810   7.564  0.3171  0.2851  1.0527
  649MOL0     O89427   4.123   0.728   7.659 -0.0443  0.6137  0.4826
  649MOL0     C89428   4.223   0.663   7.733 -0.1594 -0.4118  0.0518
  649MOL0     C89429   4.332   0.594   7.674 -0.1357 -0.0797  0.2960
  649MOL0     C89430   4.432   0.548   7.761 -0.0868 -0.5365  0.5596
  649MOL0     C89431   4.430   0.568   7.897  0.2726 -0.0541 -0.5828
  649MOL0     O89432   4.516   0.511   7.990  0.3778 -0.4614  0.5960
  649MOL0     C89433   4.621   0.434   7.941 -0.0992  0.0347  0.5597
  649MOL0     C89434   4.711   0.406   8.065 -0.0913  0.3114 -0.0042
  649MOL0     C89435   4.812   0.311   8.012 -0.4800  0.5408 -0.7041
  649MOL0     C89436   4.825   0.176   8.096 -0.3380 -0.5537 -0.1415
  649MOL0     C89437   4.949   0.111   8.047 -0.5486 -0.4670 -0.9228
  649MOL0     C89438   4.928  -0.040   8.039  0.1961 -0.1571  0.5478
  649MOL0     C89439   4.891  -0.083   8.181 -1.1773  0.1957  0.6414
  649MOL0     C89440   4.906  -0.238   8.184  1.1112 -0.0631  0.0601
  649MOL0     N89441   5.045  -0.281   8.193 -0.0563 -0.6693  0.6113
  649MOL0     C89442   5.120  -0.264   8.308  0.2370 -0.4379  0.0058
  649MOL0     C89443   5.245  -0.249   8.271  0.2204  0.5698  0.3237
  649MOL0     C89444   5.352  -0.224   8.371 -0.7202 -0.0389 -0.3284
  649MOL0     C89445   5.393  -0.069   8.381 -0.2006  0.5705  0.8578
  649MOL0     C89446   5.503  -0.062   8.487  0.4124 -0.3930  0.5840
  649MOL0     C89447   5.486  -0.115   8.624  0.3951 -0.2655 -1.0674
  649MOL0     O89448   5.356  -0.067   8.665  0.2088 -0.2176  0.2687
  649MOL0     C89449   5.321  -0.077   8.801 -0.0050 -0.3563  0.4921
  649MOL0     C89450   5.413  -0.106   8.902  0.3502  0.0438 -0.6066
  649MOL0     C89451   5.388  -0.108   9.040 -0.0697 -0.1488 -0.9087
  649MOL0     C89452   5.499  -0.139   9.139  0.3628 -0.3564 -0.0423
  649MOL0     C89453   5.253  -0.080   9.082  0.2583 -0.3543  0.3241
  649MOL0     C89454   5.197  -0.063   9.218 -0.1339  0.1802  0.3149
  649MOL0     O89455   5.068  -0.031   9.226 -0.5765  0.1490 -1.3507
  649MOL0     C89456   5.003  -0.026   9.345  0.9477  0.2412 -0.2371
  649MOL0     C89457   4.999  -0.130   9.436  0.3247  0.6639  0.4383
  649MOL0     C89458   4.941  -0.112   9.563  0.6601 -0.6374  0.3953
  649MOL0     C89459   4.872   0.001   9.597 -0.5249 -0.2078  0.5702
  649MOL0     O89460   4.815   0.009   9.725  0.0635  0.4116  0.0478
  649MOL0     C89461   4.716   0.106   9.766 -0.5223  0.2707  0.4324
  649MOL0     C89462   4.643   0.058   9.895  0.4289 -0.1601 -0.3605
  649MOL0     C89463   4.550  -0.068   9.872  0.8304 -0.8547 -1.2661
  649MOL0     C89464   4.475  -0.089  10.012  0.7988 -0.2314 -0.3115
  649MOL0     C89465   4.377   0.027  10.066 -0.5627  0.4592  0.4407
  649MOL0     C89466   4.235  -0.021  10.104  0.1234 -0.0713  0.7090
  649MOL0     C89467   4.226  -0.028  10.258 -0.5079 -0.0565 -0.1393
  649MOL0     C89468   4.080  -0.088  10.296  0.1590 -0.5335  0.7230
  649MOL0    Cl89469   3.950   0.028  10.250 -0.2881  0.5300  0.4213
  649MOL0     C89470   4.864   0.101   9.498 -0.5046  0.3141 -0.1117
  649MOL0     C89471   4.922   0.084   9.369 -0.2967  0.2328 -0.0885
  649MOL0     O89472   5.271  -0.083   9.311  0.4395  0.0654 -0.6154
  649MOL0     C89473   5.163  -0.059   8.976  0.4455  0.5706 -1.0281
  649MOL0     C89474   5.195  -0.057   8.841 -0.1254 -0.0011  0.5069
  649MOL0     N89475   5.253  -0.276   8.134 -0.7100  0.4737  0.3755
  649MOL0     N89476   5.133  -0.293   8.090 -0.6400 -0.2433  0.2715
  649MOL0     C89477   4.325   0.645   7.951 -0.5253  0.3887 -1.2051
  649MOL0     C89478   4.234   0.700   7.873  0.9720  0.5618  0.3808
  649MOL0     C89479   4.038   0.878   7.494 -0.9313 -0.2901  0.2850
  649MOL0     C89480   3.910   0.847   7.544  0.3304 -0.9761 -0.9301
  649MOL0     C89481   3.802   0.918   7.503 -0.3001 -0.3711 -0.4102
  649MOL0     C89482   3.809   1.012   7.405 -1.2192 -0.3305  0.0272
  649MOL0     O89483   3.692   1.059   7.353  0.4117 -0.1569  0.4211
  649MOL0     C89484   3.650   1.175   7.418 -0.4034  0.5439 -0.6187
  649MOL0     C89485   3.495   1.177   7.419  1.4204  0.8398  0.5036
  649MOL0     C89486   3.447   1.053   7.501 -0.1488  0.0102 -0.5041
  649MOL0     C89487   3.296   1.052   7.529  0.6436 -0.4714  0.8827
  649MOL0     C89488   3.265   0.920   7.588  0.1679 -0.1593 -0.8217
  649MOL0     C89489   3.238   0.816   7.637 -0.0266  0.2397 -0.1841
  649MOL0     C89490   3.928   1.038   7.349 -0.1439 -0.5245 -0.4142
  649MOL0     C89491   4.050   0.977   7.394  0.1642  0.5090  0.0088
  649MOL0     C89492   4.184   1.019   7.328  0.4486  0.4156  0.5859
  649MOL0     H89493   4.326   0.559   7.571 -2.0393  4.2252 -1.2973
  649MOL0     H89494   4.501   0.476   7.718  0.9902  0.2243  0.9771
  649MOL0     H89495   4.675   0.489   7.865 -2.8502  2.5910  0.2619
  649MOL0     H89496   4.574   0.343   7.903 -0.2791  0.8630 -1.3231
  649MOL0     H89497   4.760   0.496   8.104  0.3527  0.6220 -1.2459
  649MOL0     H89498   4.652   0.357   8.143 -1.0800 -1.6294 -1.8836
  649MOL0     H89499   4.784   0.279   7.911  2.6771 -0.0216 -1.5015
  649MOL0     H89500   4.912   0.354   8.004  0.6939 -1.9804 -0.5709
  649MOL0     H89501   4.825   0.189   8.204  0.8080 -0.6984 -0.1160
  649MOL0     H89502   4.732   0.122   8.077 -1.0452  0.9213 -1.1077
  649MOL0     H89503   5.037   0.134   8.108  2.3539 -1.2277 -4.4450
  649MOL0     H89504   4.970   0.146   7.946 -1.0063 -2.4729 -1.7522
  649MOL0     H89505   4.856  -0.071   7.963  1.5209 -4.2639  0.7250
  649MOL0     H89506   5.019  -0.089   8.004  0.5204  1.3856 -0.8973
  649MOL0     H89507   4.786  -0.059   8.198 -1.2150  0.4056  0.1129
  649MOL0     H89508   4.957  -0.039   8.256  2.5263 -1.7207 -1.1988
  649MOL0     H89509   4.852  -0.272   8.273  2.6183  1.0102  1.4183
  649MOL0     H89510   4.876  -0.276   8.086  0.9656  0.7843 -0.2299
  649MOL0     H89511   5.065  -0.252   8.400  0.7231 -2.4465  0.6084
  649MOL0     H89512   5.443  -0.282   8.354 -0.8788 -1.2231  2.3822
  649MOL0     H89513   5.315  -0.241   8.472 -1.0425  1.8504 -0.0939
  649MOL0     H89514   5.434  -0.053   8.281 -0.2518 -1.6516  0.4094
  649MOL0     H89515   5.311  -0.001   8.405  0.1755  1.0819  0.7144
  649MOL0     H89516   5.588  -0.123   8.456 -0.0109 -0.8481  0.3005
  649MOL0     H89517   5.510   0.046   8.496  0.1142 -0.5365  3.4313
  649MOL0     H89518   5.496  -0.224   8.628 -1.7036 -0.5196 -1.5310
  649MOL0     H89519   5.560  -0.076   8.695 -0.0646 -1.1888 -0.0489
  649MOL0     H89520   5.516  -0.138   8.886 -0.1277 -1.9707 -0.0149
  649MOL0     H89521   5.595  -0.166   9.094  0.4988  0.5648 -0.3256
  649MOL0     H89522   5.472  -0.223   9.203 -2.0961 -1.0830 -1.9110
  649MOL0     H89523   5.511  -0.051   9.204  1.8029  2.1848 -3.4060
  649MOL0     H89524   5.044  -0.226   9.417 -3.6344 -1.7528  2.0174
  649MOL0     H89525   4.955  -0.189   9.638  1.7958 -1.6837 -0.8530
  649MOL0     H89526   4.759   0.203   9.794 -2.4346  1.8499 -1.7094
  649MOL0     H89527   4.642   0.116   9.686 -1.3054 -0.9533  0.9727
  649MOL0     H89528   4.707   0.034   9.980 -0.5435  0.7005  0.6425
  649MOL0     H89529   4.576   0.135   9.935 -1.4021 -1.5836 -0.5647
  649MOL0     H89530   4.626  -0.146   9.860  1.9666  0.2860 -1.6523
  649MOL0     H89531   4.482  -0.049   9.789  1.2018  1.4106 -1.1171
  649MOL0     H89532   4.555  -0.105  10.085  0.0131  2.8344  1.4048
  649MOL0     H89533   4.411  -0.178  10.008  1.9978 -1.2945  2.1377
  649MOL0     H89534   4.429   0.080  10.146  1.2609 -1.5481  0.6590
  649MOL0     H89535   4.364   0.090   9.978 -1.1284  0.5346  0.5731
  649MOL0     H89536   4.211  -0.118  10.060  3.3009 -0.8027  0.2911
  649MOL0     H89537   4.157   0.041  10.060 -2.8961 -3.0686  1.4850
  649MOL0     H89538   4.248   0.066  10.310  2.5374 -0.2432 -0.9119
  649MOL0     H89539   4.303  -0.098  10.292  1.0824  1.7249  0.0741
  649MOL0     H89540   4.064  -0.118  10.400 -0.1982  0.4533  0.9691
  649MOL0     H89541   4.049  -0.166  10.226 -0.9643 -0.4312  1.0854
  649MOL0     H89542   4.815   0.195   9.523 -1.8386 -0.8123  1.8171
  649MOL0     H89543   4.914   0.159   9.291 -0.8656  0.6186  0.3229
  649MOL0     H89544   5.062  -0.025   9.001 -0.2321 -2.4805  0.9287
  649MOL0     H89545   5.141  -0.010   8.759  4.2067  1.8268 -1.5982
  649MOL0     H89546   4.321   0.652   8.059 -0.9829 -1.3563 -1.0799
  649MOL0     H89547   4.150   0.753   7.916 -0.1918  0.6427 -1.8168
  649MOL0     H89548   3.888   0.786   7.631  0.5707  1.0302  0.6029
  649MOL0     H89549   3.702   0.887   7.531  0.0461 -2.6856 -1.5268
  649MOL0     H89550   3.674   1.164   7.524 -1.3063 -3.1531 -0.6588
  649MOL0     H89551   3.682   1.270   7.375 -1.1758  0.4992 -1.3270
  649MOL0     H89552   3.460   1.164   7.317 -1.3314 -3.9797  1.7365
  649MOL0     H89553   3.455   1.275   7.446  0.3371  0.2687  1.0168
  649MOL0     H89554   3.480   0.970   7.437  3.2693 -0.1979  1.3181
  649MOL0     H89555   3.507   1.053   7.592 -0.0383  1.2056 -0.5669
  649MOL0     H89556   3.237   1.070   7.438  3.1153  3.4652 -0.2264
  649MOL0     H89557   3.270   1.131   7.599  0.5455  0.4348 -0.1469
  649MOL0     H89558   3.221   0.721   7.683 -0.3253  1.0680  1.4815
  649MOL0     H89559   3.924   1.117   7.274  0.7850 -1.8339 -1.9013
  649MOL0     H89560   4.250   1.078   7.392 -0.0423  0.6679  0.8636
  649MOL0     H89561   4.236   0.929   7.293  2.4919  1.0804  1.7530
  649MOL0     H89562   4.159   1.089   7.248 -1.3424  2.1249  2.5338
  650MOL0     O89563  10.898   8.410   4.952 -0.5830  0.6415 -0.5280
  650MOL0     C89564  10.855   8.488   5.031 -0.1357 -1.1911  0.0247
  650MOL0     O89565  10.733   8.551   5.020  0.2936  0.5408 -0.4091
  650MOL0     C89566  10.627   8.518   4.935  0.1295 -0.2875  0.2677
  650MOL0     C89567  10.515   8.604   4.936  0.8350 -0.2312  0.4195
  650MOL0     C89568  10.409   8.583   4.856  0.8292 -0.0163 -0.3990
  650MOL0     C89569  10.403   8.473   4.773 -0.2510  0.0742 -0.3042
  650MOL0     O89570  10.305   8.436   4.676  0.1705 -0.4718 -0.3899
  650MOL0     C89571  10.198   8.526   4.636  0.6726  0.2886  0.1032
  650MOL0     C89572  10.231   8.624   4.535 -0.2113  0.9968  0.1578
  650MOL0     C89573  10.327   8.568   4.430 -0.4448 -0.3723  0.4026
  650MOL0     C89574  10.305   8.624   4.288  0.4962 -0.0286 -0.2087
  650MOL0     C89575  10.401   8.553   4.187 -0.3618 -0.1203 -0.0132
  650MOL0     C89576  10.552   8.611   4.218 -0.4105  0.3109  0.2882
  650MOL0     C89577  10.585   8.746   4.157  0.1119  0.1878 -0.1270
  650MOL0     C89578  10.542   8.766   4.008 -0.3820 -1.1700  0.2171
  650MOL0     N89579  10.613   8.676   3.922 -0.4017 -0.2059  0.2140
  650MOL0     C89580  10.741   8.660   3.905 -0.8530 -0.1438  0.1137
  650MOL0     C89581  10.757   8.584   3.796  0.3016 -0.0792  0.3378
  650MOL0     C89582  10.885   8.528   3.748 -1.0053  0.7273  0.4900
  650MOL0     C89583  10.976   8.636   3.712  0.7114  0.5497  0.9783
  650MOL0     C89584  10.926   8.761   3.634  0.4588 -0.6241 -0.3466
  650MOL0     C89585  11.043   8.858   3.599 -1.3101  0.0934  0.3377
  650MOL0     O89586  11.145   8.852   3.706  0.1058  0.3250  0.5673
  650MOL0     C89587  11.130   8.901   3.828  0.1822  0.8279 -0.5949
  650MOL0     C89588  11.013   8.979   3.866 -0.4288  1.0225  0.1056
  650MOL0     C89589  11.008   9.026   4.001  1.3326  0.1772  0.0945
  650MOL0     C89590  10.882   9.115   4.034 -1.3528  1.1028  0.2358
  650MOL0     C89591  11.116   9.007   4.095 -0.2848  0.2945 -0.4616
  650MOL0     C89592  11.133   9.087   4.225 -0.6432  0.5872  0.2154
  650MOL0     O89593  11.232   9.027   4.308  0.2473  0.3427 -0.4934
  650MOL0     C89594  11.241   9.095   4.434  0.4841 -0.9447  0.2132
  650MOL0     C89595  11.358   9.160   4.465 -0.3426 -1.0692 -0.1461
  650MOL0     C89596  11.365   9.231   4.580 -0.7529 -0.3800  0.1274
  650MOL0     C89597  11.254   9.241   4.665  0.6359 -0.5855  0.5517
  650MOL0     O89598  11.247   9.306   4.787  0.3455 -0.2605  0.3992
  650MOL0     C89599  11.314   9.432   4.787 -0.7186  0.3165  0.8327
  650MOL0     C89600  11.248   9.524   4.900 -0.2198  0.0446 -0.0296
  650MOL0     C89601  11.104   9.579   4.882 -0.6641 -0.0894 -1.0660
  650MOL0     C89602  10.976   9.497   4.900 -0.9942  0.5990 -0.1119
  650MOL0     C89603  10.944   9.434   5.042  0.4701  0.2782  0.0107
  650MOL0     C89604  10.908   9.531   5.153 -0.4316  0.2803 -1.0651
  650MOL0     C89605  10.891   9.474   5.293  0.1269 -0.4520  0.1277
  650MOL0     C89606  10.799   9.565   5.378 -0.5263  0.6333  0.8410
  650MOL0    Cl89607  10.647   9.553   5.292 -0.4164  0.4372 -0.7444
  650MOL0     C89608  11.133   9.179   4.630  0.4413  1.2004 -0.3551
  650MOL0     C89609  11.128   9.109   4.513 -0.5188 -0.4737 -0.6768
  650MOL0     O89610  11.067   9.192   4.248 -0.1302  1.1657  0.7663
  650MOL0     C89611  11.219   8.920   4.051 -0.1564 -0.9988  0.5980
  650MOL0     C89612  11.225   8.864   3.923 -0.1819 -0.5099 -0.0784
  650MOL0     N89613  10.629   8.556   3.747 -0.1406  0.4018  0.8524
  650MOL0     N89614  10.543   8.618   3.824  0.6835  0.0375  0.1901
  650MOL0     C89615  10.505   8.379   4.772  0.6555 -1.0550  1.0342
  650MOL0     C89616  10.623   8.404   4.847  0.8251 -0.2575  0.6357
  650MOL0     C89617  10.942   8.535   5.135  0.2324  0.4422  0.0679
  650MOL0     C89618  10.879   8.595   5.249 -0.9359  0.5468 -0.2782
  650MOL0     C89619  10.959   8.633   5.364  0.6208 -0.0969  0.3456
  650MOL0     C89620  11.098   8.636   5.353  0.4458  0.6686 -0.0301
  650MOL0     O89621  11.183   8.663   5.458 -0.0597 -0.2717 -0.4014
  650MOL0     C89622  11.137   8.725   5.581 -1.2422 -0.1327  0.2225
  650MOL0     C89623  11.117   8.619   5.684 -0.8283  1.1496  0.3855
  650MOL0     C89624  11.257   8.569   5.727  0.3870  0.0669 -0.3128
  650MOL0     C89625  11.293   8.635   5.866 -1.1140  0.3538  0.8070
  650MOL0     C89626  11.438   8.661   5.875 -0.9390 -0.3125 -1.2901
  650MOL0     C89627  11.557   8.694   5.875  0.4252  0.0378 -0.2091
  650MOL0     C89628  11.159   8.582   5.240 -0.8999 -0.2830 -1.0840
  650MOL0     C89629  11.091   8.527   5.137  0.1186  0.2958  0.3626
  650MOL0     C89630  11.164   8.450   5.034 -0.0997  0.2794  0.3008
  650MOL0     H89631  10.504   8.694   4.996 -2.7275 -0.2128 -0.0489
  650MOL0     H89632  10.324   8.650   4.850  0.5249 -0.1524  1.6324
  650MOL0     H89633  10.144   8.578   4.715 -2.1213  0.0789 -1.5242
  650MOL0     H89634  10.125   8.456   4.594 -0.7596  1.8912 -0.2098
  650MOL0     H89635  10.138   8.662   4.490 -1.4446 -2.7720 -0.7923
  650MOL0     H89636  10.266   8.711   4.593 -2.8765  1.0596  1.8927
  650MOL0     H89637  10.421   8.610   4.469  0.9801  0.0261 -3.0443
  650MOL0     H89638  10.335   8.459   4.435 -0.2815 -0.3160  1.7641
  650MOL0     H89639  10.204   8.603   4.252  1.1780  1.2627 -3.1681
  650MOL0     H89640  10.326   8.731   4.281  2.8818 -0.4277  0.0062
  650MOL0     H89641  10.383   8.554   4.079  1.6468  1.3717 -0.3894
  650MOL0     H89642  10.415   8.450   4.223  2.8736  1.0280  2.4749
  650MOL0     H89643  10.561   8.615   4.327  2.4478 -0.6421  0.1722
  650MOL0     H89644  10.627   8.536   4.193 -0.8824 -0.9970  2.5499
  650MOL0     H89645  10.693   8.749   4.177 -0.0741 -3.4403  2.4328
  650MOL0     H89646  10.532   8.824   4.212  1.2772  3.3516 -3.1176
  650MOL0     H89647  10.434   8.748   4.012 -0.8341  1.2807  1.6814
  650MOL0     H89648  10.552   8.871   3.976 -0.3871 -1.4410 -0.7010
  650MOL0     H89649  10.829   8.678   3.967 -0.3234 -0.3813 -0.5561
  650MOL0     H89650  10.872   8.456   3.667  4.8059 -0.1036 -0.1692
  650MOL0     H89651  10.924   8.467   3.830 -1.9774 -0.8880 -0.2078
  650MOL0     H89652  11.008   8.663   3.813 -1.6127 -0.9287  2.2130
  650MOL0     H89653  11.054   8.584   3.656  0.3206  2.0666 -1.0762
  650MOL0     H89654  10.879   8.731   3.540  1.4424  0.5294 -1.2460
  650MOL0     H89655  10.851   8.815   3.693 -1.3654 -1.2788 -1.9504
  650MOL0     H89656  11.089   8.822   3.507 -2.1121 -1.1771  0.3912
  650MOL0     H89657  11.020   8.963   3.579  2.1993  1.1287  1.1600
  650MOL0     H89658  10.938   8.987   3.789  0.8310 -1.1042 -1.4577
  650MOL0     H89659  10.813   9.100   3.951  1.8911  1.6030 -2.8099
  650MOL0     H89660  10.917   9.217   4.046  2.9441 -0.3301  1.7991
  650MOL0     H89661  10.829   9.081   4.123  1.3693  0.7760  1.8606
  650MOL0     H89662  11.443   9.158   4.397 -0.3428 -3.8200 -0.2086
  650MOL0     H89663  11.456   9.270   4.623 -1.5708 -1.6599  3.2808
  650MOL0     H89664  11.424   9.427   4.789 -0.5755  2.0615 -0.1177
  650MOL0     H89665  11.296   9.475   4.688  1.6872 -2.4370 -0.9611
  650MOL0     H89666  11.271   9.473   4.994  2.2405  1.1467  0.0380
  650MOL0     H89667  11.317   9.608   4.908  3.1989 -2.6694  4.0109
  650MOL0     H89668  11.083   9.638   4.792 -2.9590  0.6952 -0.0849
  650MOL0     H89669  11.096   9.641   4.972  1.3172  0.0630 -0.9405
  650MOL0     H89670  10.986   9.414   4.830  0.2322  1.5426 -1.1059
  650MOL0     H89671  10.901   9.564   4.856  2.0507  1.8290 -4.0716
  650MOL0     H89672  10.854   9.374   5.027  1.6374 -1.9556  1.4570
  650MOL0     H89673  11.023   9.366   5.075 -0.8964 -0.5965  1.5923
  650MOL0     H89674  10.820   9.586   5.116 -0.8523 -1.0491 -2.1419
  650MOL0     H89675  10.982   9.610   5.167 -1.0989  0.9905 -1.4024
  650MOL0     H89676  10.992   9.458   5.332 -0.5631 -0.8722  1.8586
  650MOL0     H89677  10.847   9.374   5.295 -1.0861  0.0432  2.1358
  650MOL0     H89678  10.842   9.665   5.371  3.7680 -0.8131  3.1211
  650MOL0     H89679  10.779   9.536   5.481 -1.8763 -0.5839  0.2813
  650MOL0     H89680  11.053   9.193   4.702  3.1162 -1.4955  3.5078
  650MOL0     H89681  11.036   9.062   4.482  1.1517 -5.1882  0.6768
  650MOL0     H89682  11.305   8.906   4.115  1.6578  0.8212 -1.2719
  650MOL0     H89683  11.306   8.801   3.887  0.6970  1.9957 -3.0370
  650MOL0     H89684  10.498   8.291   4.709  1.9023  1.1854 -2.5757
  650MOL0     H89685  10.702   8.330   4.832  3.3815  1.9160  2.4470
  650MOL0     H89686  10.771   8.593   5.250 -1.0575  3.2213 -0.9848
  650MOL0     H89687  10.906   8.672   5.451 -4.2679  0.4666 -2.5300
  650MOL0     H89688  11.218   8.790   5.615 -1.6914 -0.0711  1.2377
  650MOL0     H89689  11.048   8.790   5.574 -0.6895  0.9268  2.1143
  650MOL0     H89690  11.064   8.530   5.649 -2.2944  0.8258  3.1442
  650MOL0     H89691  11.051   8.645   5.767  0.6086  1.2208  1.5533
  650MOL0     H89692  11.250   8.461   5.745 -0.4699  0.4938  2.3190
  650MOL0     H89693  11.327   8.584   5.645 -0.2987 -2.5768 -1.5044
  650MOL0     H89694  11.264   8.572   5.950  0.1848  0.8392  1.6505
  650MOL0     H89695  11.226   8.720   5.879 -1.3894 -0.1410  2.8933
  650MOL0     H89696  11.656   8.722   5.905 -0.6457  0.1449  3.8688
  650MOL0     H89697  11.267   8.587   5.249 -0.9747 -0.8092  0.2622
  650MOL0     H89698  11.130   8.346   5.033  0.5570  0.0547 -0.8887
  650MOL0     H89699  11.150   8.511   4.944 -0.5588 -0.5453 -0.2039
  650MOL0     H89700  11.270   8.449   5.060 -0.0921  2.2733  0.4754
  651MOL0     O89701   2.648   7.302   3.853 -0.0505  0.0080  0.1553
  651MOL0     C89702   2.656   7.296   3.733 -0.3147 -0.2351 -0.1206
  651MOL0     O89703   2.562   7.256   3.649 -0.3609  0.2166  0.7059
  651MOL0     C89704   2.435   7.258   3.703  0.5471  0.5651 -0.4839
  651MOL0     C89705   2.370   7.136   3.694  0.1254  0.4016 -1.0111
  651MOL0     C89706   2.243   7.114   3.749 -0.8095 -0.0744  0.3258
  651MOL0     C89707   2.174   7.216   3.800 -0.1803  1.1251 -0.6724
  651MOL0     O89708   2.049   7.179   3.851 -0.3641  0.0628 -0.0431
  651MOL0     C89709   2.020   7.214   3.994 -0.4891  0.8957 -0.1068
  651MOL0     C89710   1.881   7.274   3.990 -0.4002 -0.0893 -0.9997
  651MOL0     C89711   1.814   7.308   4.131  0.2611  1.0511  0.3049
  651MOL0     C89712   1.780   7.174   4.192 -0.3746  0.5521 -0.1312
  651MOL0     C89713   1.652   7.169   4.280 -0.3658  0.6148  0.4184
  651MOL0     C89714   1.674   7.193   4.423 -0.7880 -0.5226  0.4668
  651MOL0     C89715   1.578   7.142   4.518  0.0044 -0.0960  0.6190
  651MOL0     C89716   1.436   7.199   4.514 -0.2101 -0.5292  0.2959
  651MOL0     N89717   1.439   7.347   4.522  0.7900  0.0145  0.1667
  651MOL0     C89718   1.422   7.419   4.636 -0.1861 -0.6417 -0.3177
  651MOL0     C89719   1.385   7.545   4.595 -0.2367  0.0089 -0.0587
  651MOL0     C89720   1.349   7.669   4.664  0.4481  0.2550 -0.3846
  651MOL0     C89721   1.214   7.629   4.733  0.2108  0.7500 -0.1508
  651MOL0     C89722   1.165   7.754   4.806  0.0303  0.3819  0.3187
  651MOL0     C89723   1.018   7.731   4.868 -0.1548 -0.0761  0.2554
  651MOL0     O89724   1.022   7.638   4.981 -0.2972  0.2217  0.0761
  651MOL0     C89725   1.045   7.702   5.101 -0.1807  0.2788  0.4296
  651MOL0     C89726   0.936   7.761   5.160  0.0150 -0.1095  0.5319
  651MOL0     C89727   0.941   7.812   5.291 -0.6646 -0.6824  0.1048
  651MOL0     C89728   0.824   7.885   5.336  0.6828 -0.2825  0.0442
  651MOL0     C89729   1.063   7.802   5.358 -0.1238  0.5731 -0.4803
  651MOL0     C89730   1.092   7.856   5.496 -0.0833 -0.3043  0.2675
  651MOL0     O89731   1.210   7.919   5.512 -0.1534 -0.3562  0.1059
  651MOL0     C89732   1.216   8.006   5.623  0.2411 -0.7490 -0.6810
  651MOL0     C89733   1.154   8.135   5.625 -0.5561  0.7643  0.4269
  651MOL0     C89734   1.175   8.229   5.719  0.3669  0.1422 -0.9652
  651MOL0     C89735   1.252   8.202   5.829 -0.4128  0.1773  0.0452
  651MOL0     O89736   1.267   8.308   5.919 -0.2926  0.0869  0.3883
  651MOL0     C89737   1.397   8.337   5.982  0.2711 -0.1036 -0.5438
  651MOL0     C89738   1.356   8.368   6.129 -0.2103  0.3859  0.3503
  651MOL0     C89739   1.450   8.471   6.195 -0.0966  0.1851  0.0282
  651MOL0     C89740   1.413   8.475   6.339 -0.1080  0.7260 -0.0267
  651MOL0     C89741   1.511   8.562   6.430  0.8387  0.1903  0.9885
  651MOL0     C89742   1.505   8.717   6.392 -0.7238  0.3336 -0.5196
  651MOL0     C89743   1.556   8.809   6.515  0.2690  0.8214  0.3676
  651MOL0     C89744   1.692   8.872   6.494  0.1092 -1.4753  1.0535
  651MOL0    Cl89745   1.714   8.959   6.336 -0.2066  0.3075 -0.1056
  651MOL0     C89746   1.322   8.077   5.832  0.8185 -0.0269 -0.6100
  651MOL0     C89747   1.309   7.982   5.726 -0.6879 -0.5411  0.6215
  651MOL0     O89748   1.001   7.843   5.582  0.6015  0.6743 -0.1970
  651MOL0     C89749   1.167   7.738   5.301  0.2820 -0.2718 -0.3238
  651MOL0     C89750   1.160   7.691   5.167 -0.2909  0.2767 -0.4584
  651MOL0     N89751   1.405   7.553   4.463 -0.2016 -0.0018 -0.4281
  651MOL0     N89752   1.424   7.437   4.418  0.0388  0.6951 -0.6192
  651MOL0     C89753   2.240   7.336   3.821  0.4937  0.5858 -0.0160
  651MOL0     C89754   2.373   7.357   3.773  0.3399 -0.1081 -0.6768
  651MOL0     C89755   2.786   7.358   3.685  0.1746  0.4986 -0.3659
  651MOL0     C89756   2.904   7.315   3.749 -0.5992 -0.1432 -0.3140
  651MOL0     C89757   3.034   7.358   3.712  0.9333  0.2638 -0.0430
  651MOL0     C89758   3.049   7.458   3.619 -0.8026  1.0021 -0.5148
  651MOL0     O89759   3.177   7.491   3.576  0.6624  0.0012  0.1448
  651MOL0     C89760   3.213   7.627   3.538  0.8040 -0.4669 -0.6549
  651MOL0     C89761   3.231   7.655   3.385  0.5236  0.1713  0.3922
  651MOL0     C89762   3.298   7.792   3.375  0.0006 -0.2706  0.3874
  651MOL0     C89763   3.450   7.788   3.418  0.6835 -0.1730 -0.3777
  651MOL0     C89764   3.552   7.792   3.320 -0.7913  0.1198  0.1306
  651MOL0     C89765   3.641   7.807   3.234  0.0854 -0.0725  0.9922
  651MOL0     C89766   2.937   7.500   3.556  0.7595 -1.4510 -0.8267
  651MOL0     C89767   2.807   7.448   3.580  0.0211  0.9521 -0.4656
  651MOL0     C89768   2.698   7.494   3.490  0.2247  0.1628  0.4420
  651MOL0     H89769   2.428   7.056   3.649  2.0825  0.4042  1.3206
  651MOL0     H89770   2.210   7.010   3.746 -1.0311  0.0228 -2.2554
  651MOL0     H89771   2.092   7.279   4.045  0.9301  0.7232 -1.7886
  651MOL0     H89772   2.020   7.122   4.052 -2.5366  1.1003  0.2949
  651MOL0     H89773   1.888   7.360   3.923 -3.6077  0.2360 -1.0476
  651MOL0     H89774   1.824   7.196   3.939 -0.1945 -2.5796  2.2499
  651MOL0     H89775   1.870   7.379   4.193  0.4056  1.1274  0.0906
  651MOL0     H89776   1.721   7.358   4.103 -0.1483  0.3834  0.4383
  651MOL0     H89777   1.776   7.085   4.128 -0.0718 -0.9774  1.8472
  651MOL0     H89778   1.858   7.142   4.262 -2.0758 -2.9368  0.4375
  651MOL0     H89779   1.610   7.068   4.275  1.9956 -0.4818  0.8137
  651MOL0     H89780   1.587   7.243   4.234 -1.6990 -1.6459 -1.5398
  651MOL0     H89781   1.771   7.152   4.452 -0.3594 -0.4873 -0.8493
  651MOL0     H89782   1.684   7.300   4.443 -1.2315 -0.0840 -1.4499
  651MOL0     H89783   1.627   7.177   4.609 -2.3695  0.1838  1.8766
  651MOL0     H89784   1.580   7.033   4.529 -0.0757  0.0689  2.5699
  651MOL0     H89785   1.396   7.178   4.414  0.0262 -0.3750  0.1694
  651MOL0     H89786   1.378   7.150   4.593 -3.6146 -0.9788 -2.2117
  651MOL0     H89787   1.425   7.394   4.741 -2.6274  0.1314 -0.0149
  651MOL0     H89788   1.330   7.749   4.591  4.0289 -0.7221 -2.6258
  651MOL0     H89789   1.422   7.681   4.744 -0.2757  1.2499  0.1627
  651MOL0     H89790   1.145   7.616   4.650 -0.5521  0.8775  0.4485
  651MOL0     H89791   1.209   7.542   4.799  1.8306  1.0827  0.4479
  651MOL0     H89792   1.234   7.783   4.885 -1.5576  1.4332  1.3788
  651MOL0     H89793   1.167   7.832   4.730  1.0103 -0.4370 -0.5344
  651MOL0     H89794   0.984   7.830   4.902  1.9062 -0.1956  2.9142
  651MOL0     H89795   0.947   7.686   4.797 -1.0996 -0.2637  1.2832
  651MOL0     H89796   0.851   7.784   5.096  0.8025 -0.1810 -0.5618
  651MOL0     H89797   0.758   7.924   5.258  0.8636  2.2047  1.0617
  651MOL0     H89798   0.849   7.968   5.403  1.7892 -0.0280 -0.6568
  651MOL0     H89799   0.765   7.813   5.394 -0.0712  0.8360  0.6903
  651MOL0     H89800   1.086   8.155   5.543  2.3752  1.9842 -1.9026
  651MOL0     H89801   1.132   8.329   5.722  0.4172  0.1745  2.1181
  651MOL0     H89802   1.477   8.262   5.974 -1.1936 -1.6727 -1.2232
  651MOL0     H89803   1.445   8.423   5.936 -2.8079  2.1015  0.0339
  651MOL0     H89804   1.254   8.406   6.144  1.0031  4.5773 -0.6501
  651MOL0     H89805   1.362   8.272   6.179  1.3226 -0.1164 -0.7183
  651MOL0     H89806   1.442   8.567   6.142 -4.5620 -1.8762 -3.7746
  651MOL0     H89807   1.550   8.429   6.184  0.6273  1.9323 -0.4856
  651MOL0     H89808   1.396   8.380   6.391 -1.1767  1.7471  1.6055
  651MOL0     H89809   1.317   8.529   6.342  1.6183  4.0180  1.1066
  651MOL0     H89810   1.479   8.553   6.534  2.1882 -1.4855  1.3016
  651MOL0     H89811   1.617   8.543   6.409  0.7965  0.1716  0.7936
  651MOL0     H89812   1.399   8.744   6.383 -1.1845 -1.1485  0.0447
  651MOL0     H89813   1.560   8.747   6.302  0.8297  1.5299  0.7891
  651MOL0     H89814   1.564   8.745   6.604 -0.5870  0.5052  0.2325
  651MOL0     H89815   1.484   8.884   6.549  1.5945  0.9672  3.1149
  651MOL0     H89816   1.773   8.800   6.512 -0.8380 -2.5665  1.0506
  651MOL0     H89817   1.697   8.948   6.572 -4.2052 -0.0087  0.1554
  651MOL0     H89818   1.390   8.042   5.909 -0.3123 -1.0253 -0.0388
  651MOL0     H89819   1.372   7.894   5.735  1.1898  0.9000  2.7555
  651MOL0     H89820   1.263   7.726   5.351  0.1903  1.9272  0.4747
  651MOL0     H89821   1.235   7.636   5.112 -1.0780  0.3657 -1.6632
  651MOL0     H89822   2.177   7.414   3.862 -0.8164 -0.9051  0.8984
  651MOL0     H89823   2.430   7.445   3.802 -0.2924 -0.3762  1.6186
  651MOL0     H89824   2.890   7.262   3.842  0.1016  3.5385  2.0943
  651MOL0     H89825   3.122   7.328   3.769  1.0788 -0.3734 -0.5899
  651MOL0     H89826   3.138   7.696   3.578  1.5571  0.5791 -1.0069
  651MOL0     H89827   3.301   7.663   3.592  0.8514 -3.3077  1.3832
  651MOL0     H89828   3.135   7.651   3.333 -1.2755 -0.4533  3.4782
  651MOL0     H89829   3.288   7.573   3.340 -0.7596 -0.8743  0.6101
  651MOL0     H89830   3.285   7.829   3.273 -0.7451  0.4516  0.7287
  651MOL0     H89831   3.253   7.869   3.439  0.4064 -0.7098  1.2217
  651MOL0     H89832   3.471   7.715   3.496 -0.4742  3.0367  3.2399
  651MOL0     H89833   3.467   7.877   3.480 -0.9330  1.7822 -2.5678
  651MOL0     H89834   3.716   7.795   3.158 -1.1918  1.0422 -0.5051
  651MOL0     H89835   2.953   7.571   3.475 -1.1351  3.7750  2.8972
  651MOL0     H89836   2.624   7.416   3.467 -1.8623  2.0801  0.3342
  651MOL0     H89837   2.654   7.584   3.533  0.3077 -0.6177  2.2526
  651MOL0     H89838   2.739   7.526   3.393 -0.8900 -0.7047 -0.3516
  652MOL0     O89839   6.361   8.464   7.951 -0.2359 -0.1146  0.2672
  652MOL0     C89840   6.341   8.562   7.876 -0.2984  0.0667 -0.4226
  652MOL0     O89841   6.391   8.567   7.744  0.7603 -0.2259 -0.0361
  652MOL0     C89842   6.473   8.467   7.706  0.3493 -0.0891  1.6082
  652MOL0     C89843   6.428   8.386   7.600  0.1069  0.5892 -0.0853
  652MOL0     C89844   6.509   8.285   7.551  0.4678 -0.9377  0.4054
  652MOL0     C89845   6.638   8.279   7.600  0.2443  0.4337 -0.2981
  652MOL0     O89846   6.715   8.171   7.558  0.1428  0.1974  0.4471
  652MOL0     C89847   6.659   8.043   7.567  0.0430  0.4587 -0.1204
  652MOL0     C89848   6.743   7.967   7.681  0.5543  0.5637  0.6511
  652MOL0     C89849   6.689   7.992   7.827 -0.1831 -0.6834 -0.3005
  652MOL0     C89850   6.774   7.922   7.942 -0.0529 -0.9225  0.0637
  652MOL0     C89851   6.759   7.961   8.094 -0.7691 -0.6316  0.2392
  652MOL0     C89852   6.607   7.942   8.127  0.4099 -0.2197 -0.6274
  652MOL0     C89853   6.564   7.968   8.264 -0.1364  0.0663 -0.8508
  652MOL0     C89854   6.411   8.006   8.284 -0.4100  0.2894  0.4643
  652MOL0     N89855   6.372   8.030   8.421 -0.3639  0.6477 -0.3252
  652MOL0     C89856   6.382   7.935   8.523  0.2421 -0.0978 -1.0712
  652MOL0     C89857   6.336   8.006   8.628  0.3596  0.6411 -0.6100
  652MOL0     C89858   6.310   7.935   8.763  0.0306  0.7418 -0.5193
  652MOL0     C89859   6.442   7.960   8.850  0.8580  1.0314  1.1902
  652MOL0     C89860   6.405   7.916   8.990  0.0010 -0.0115  0.0969
  652MOL0     C89861   6.532   7.926   9.069  0.0662 -0.8430 -0.4078
  652MOL0     O89862   6.498   7.971   9.200 -0.1390 -0.5848  0.2363
  652MOL0     C89863   6.458   7.878   9.288  0.0842  0.5085 -0.5736
  652MOL0     C89864   6.408   7.932   9.406  0.4234  0.1894  0.0866
  652MOL0     C89865   6.352   7.843   9.505  0.1914 -0.3588  0.9997
  652MOL0     C89866   6.293   7.908   9.629 -0.9654  0.4521 -0.2053
  652MOL0     C89867   6.346   7.708   9.473  0.4082 -0.0614  0.3686
  652MOL0     C89868   6.298   7.602   9.564  0.7542  0.5359  0.0943
  652MOL0     O89869   6.249   7.631   9.684 -0.4154 -0.1720  0.6897
  652MOL0     C89870   6.174   7.538   9.736 -0.3663  0.0638 -1.0477
  652MOL0     C89871   6.222   7.433   9.825  0.2642  0.7376 -0.8940
  652MOL0     C89872   6.135   7.338   9.869  0.5066  1.2271  0.4511
  652MOL0     C89873   6.001   7.328   9.812  0.3774 -0.3690 -0.8043
  652MOL0     O89874   5.924   7.237   9.873  0.2047  0.4829 -0.6142
  652MOL0     C89875   5.807   7.205   9.796  0.9011  0.0564  1.2145
  652MOL0     C89876   5.769   7.056   9.807  0.7675  0.6600 -0.1982
  652MOL0     C89877   5.848   6.972   9.708 -0.3020 -1.1096 -0.5044
  652MOL0     C89878   5.837   6.822   9.743 -0.4145 -0.6902 -0.0310
  652MOL0     C89879   5.935   6.737   9.659  0.7665 -0.3807  0.4780
  652MOL0     C89880   5.961   6.599   9.726 -0.0026 -0.2502 -0.1999
  652MOL0     C89881   6.009   6.491   9.622 -0.9099  0.0609  0.2092
  652MOL0     C89882   6.117   6.536   9.520 -0.3350 -0.3726 -0.1676
  652MOL0    Cl89883   6.172   6.410   9.424 -0.1165  0.5935  0.4768
  652MOL0     C89884   5.955   7.428   9.733  0.3267 -0.7927  0.0305
  652MOL0     C89885   6.042   7.524   9.694  0.0779 -0.6614 -0.0725
  652MOL0     O89886   6.329   7.493   9.539 -1.0014  0.7646 -0.1418
  652MOL0     C89887   6.372   7.663   9.341 -1.1217 -0.2744 -0.9346
  652MOL0     C89888   6.426   7.752   9.252 -0.0545  0.3350 -0.2817
  652MOL0     N89889   6.316   8.138   8.596  0.3472 -0.4840  0.4055
  652MOL0     N89890   6.346   8.147   8.468  0.1374 -0.6391 -0.6455
  652MOL0     C89891   6.678   8.364   7.696 -1.4267 -0.0067  0.2943
  652MOL0     C89892   6.600   8.458   7.754  1.1456 -0.6965 -0.6671
  652MOL0     C89893   6.236   8.663   7.912  0.3255  0.1090 -0.0612
  652MOL0     C89894   6.184   8.739   7.803  0.8609  0.3505  0.1713
  652MOL0     C89895   6.078   8.833   7.825 -0.5322  0.0158 -0.0522
  652MOL0     C89896   6.027   8.855   7.950 -0.2903  0.1785 -0.0346
  652MOL0     O89897   5.921   8.948   7.973 -0.6030  1.0928  0.3924
  652MOL0     C89898   5.960   9.085   7.961  0.1662 -0.4918 -0.5825
  652MOL0     C89899   5.832   9.178   7.951  0.6863  0.4113  0.5197
  652MOL0     C89900   5.769   9.208   8.084  0.3153  0.2155 -0.5022
  652MOL0     C89901   5.642   9.295   8.087 -0.4241  0.1582 -1.0719
  652MOL0     C89902   5.545   9.214   8.015  0.2403  1.1738  0.7108
  652MOL0     C89903   5.466   9.142   7.952 -0.6108  0.3608 -0.6494
  652MOL0     C89904   6.081   8.791   8.056  0.5486  0.2207 -0.0825
  652MOL0     C89905   6.184   8.699   8.044 -0.5651  0.7661  0.9085
  652MOL0     C89906   6.226   8.632   8.180  0.0090  0.9495 -0.8470
  652MOL0     H89907   6.332   8.398   7.552  0.2547 -1.8593 -1.1289
  652MOL0     H89908   6.489   8.206   7.479  1.2334 -2.3611  1.7104
  652MOL0     H89909   6.676   7.981   7.478 -0.4109 -0.6435  0.5291
  652MOL0     H89910   6.554   8.046   7.599  0.0438  0.4912 -0.1213
  652MOL0     H89911   6.731   7.860   7.662 -5.0535  1.0497 -0.4348
  652MOL0     H89912   6.843   8.010   7.683 -0.0602  2.0622  2.3681
  652MOL0     H89913   6.704   8.100   7.843  1.9814 -0.6409 -2.1839
  652MOL0     H89914   6.588   7.949   7.830 -1.1924  1.4491 -0.9376
  652MOL0     H89915   6.752   7.816   7.923  2.2816 -1.6660  1.1266
  652MOL0     H89916   6.879   7.932   7.915 -0.4694 -1.4414 -1.8969
  652MOL0     H89917   6.786   8.067   8.106  0.3326 -1.1201  2.5414
  652MOL0     H89918   6.827   7.902   8.155  1.7186  1.5228 -0.2767
  652MOL0     H89919   6.554   8.013   8.062 -0.6511  0.0749  0.5263
  652MOL0     H89920   6.576   7.842   8.096  3.2423 -2.5319  3.1466
  652MOL0     H89921   6.615   8.060   8.296 -0.4242  0.5210 -1.6747
  652MOL0     H89922   6.597   7.889   8.333  0.3616  1.4685  0.5863
  652MOL0     H89923   6.384   8.091   8.221 -0.2969  0.3738  0.5301
  652MOL0     H89924   6.348   7.930   8.237 -1.7214  0.0058  2.5392
  652MOL0     H89925   6.413   7.831   8.520  0.5262 -0.1555  1.4131
  652MOL0     H89926   6.303   7.827   8.746 -0.4320  0.9124 -1.4679
  652MOL0     H89927   6.228   7.982   8.818  0.4387 -1.0784  1.8055
  652MOL0     H89928   6.532   7.908   8.817  0.8274  0.8355  1.4115
  652MOL0     H89929   6.466   8.066   8.837 -0.4304  0.9646 -4.4292
  652MOL0     H89930   6.324   7.979   9.029  0.2699 -0.1440  0.8833
  652MOL0     H89931   6.375   7.811   8.984 -1.9677  0.4843  0.5912
  652MOL0     H89932   6.597   7.840   9.051  0.9347  0.4083 -4.0712
  652MOL0     H89933   6.598   8.003   9.027 -1.2645  0.4590 -0.1722
  652MOL0     H89934   6.413   8.039   9.419  1.3864  0.3736 -1.5748
  652MOL0     H89935   6.196   7.863   9.656 -0.5385 -0.0632  0.4955
  652MOL0     H89936   6.275   8.013   9.605  3.4859  0.9796 -2.1104
  652MOL0     H89937   6.371   7.902   9.704 -0.5535 -4.1362 -0.7321
  652MOL0     H89938   6.322   7.439   9.866  0.2899  2.4749 -1.1533
  652MOL0     H89939   6.162   7.254   9.933 -0.0580  0.9185  0.2970
  652MOL0     H89940   5.718   7.264   9.820  0.3445 -0.9597  1.7034
  652MOL0     H89941   5.820   7.227   9.689 -1.1881 -0.7132  0.7588
  652MOL0     H89942   5.772   7.011   9.906 -2.9232  1.1753  0.2949
  652MOL0     H89943   5.668   7.045   9.766  1.7530 -5.9988 -2.0085
  652MOL0     H89944   5.954   6.997   9.712  0.8785 -1.9300 -8.7320
  652MOL0     H89945   5.819   6.992   9.605 -3.5155  2.3098  0.8350
  652MOL0     H89946   5.735   6.787   9.726 -0.1550 -1.8542  0.6248
  652MOL0     H89947   5.842   6.808   9.851  1.1752  1.8100  0.3091
  652MOL0     H89948   5.907   6.725   9.554  0.1907  0.4552  0.5263
  652MOL0     H89949   6.026   6.799   9.667  2.8186 -3.4441  3.3575
  652MOL0     H89950   5.869   6.551   9.762 -1.5613  1.4341 -1.7954
  652MOL0     H89951   6.028   6.629   9.807  0.7684  4.3797 -2.2967
  652MOL0     H89952   5.914   6.454   9.581  0.0925 -2.5410  0.0793
  652MOL0     H89953   6.056   6.406   9.672 -2.4318 -1.7086 -1.2127
  652MOL0     H89954   6.209   6.554   9.577  0.0934 -6.1954  1.6793
  652MOL0     H89955   6.088   6.617   9.453 -0.5408 -2.4690 -2.7932
  652MOL0     H89956   5.849   7.441   9.713 -0.0236 -0.4937  1.9652
  652MOL0     H89957   5.999   7.597   9.627  1.0656 -0.5414 -0.6043
  652MOL0     H89958   6.365   7.558   9.314 -2.2326 -0.9344  1.5374
  652MOL0     H89959   6.439   7.713   9.151  2.2814 -0.8269  0.3781
  652MOL0     H89960   6.774   8.356   7.747 -2.0091  0.2297  1.4620
  652MOL0     H89961   6.624   8.509   7.847  1.1996 -3.5274  0.9733
  652MOL0     H89962   6.215   8.724   7.700  2.7954  3.7424  0.0855
  652MOL0     H89963   6.029   8.886   7.743 -1.4355 -0.6892  0.0118
  652MOL0     H89964   6.022   9.109   8.048 -2.3815  0.8383  0.9975
  652MOL0     H89965   6.024   9.078   7.873  0.2182 -4.3007 -0.4261
  652MOL0     H89966   5.761   9.126   7.887  2.3577 -2.9938  1.1829
  652MOL0     H89967   5.876   9.271   7.912  3.7308 -1.7533 -1.7114
  652MOL0     H89968   5.745   9.118   8.142  2.9643 -0.1408  0.1426
  652MOL0     H89969   5.840   9.257   8.151  2.1595 -2.1629 -0.5735
  652MOL0     H89970   5.660   9.392   8.041 -2.7172  0.2365 -1.9393
  652MOL0     H89971   5.607   9.332   8.184  0.1486  1.7341 -1.4323
  652MOL0     H89972   5.409   9.087   7.880 -0.0986 -1.2855  0.1641
  652MOL0     H89973   6.053   8.820   8.157  4.9975  0.6581  1.2703
  652MOL0     H89974   6.232   8.525   8.160 -0.5611  1.5603 -5.5918
  652MOL0     H89975   6.320   8.676   8.214 -0.7956  2.0950 -0.0388
  652MOL0     H89976   6.156   8.666   8.257  1.5581  0.5561  0.8018
  653MOL0     O89977   7.246  11.547   9.617 -0.1014  0.2832  1.0988
  653MOL0     C89978   7.132  11.506   9.614 -0.2065 -0.6435 -0.9671
  653MOL0     O89979   7.076  11.441   9.721 -0.6686  0.1715 -0.1277
  653MOL0     C89980   7.152  11.379   9.816 -0.3490 -0.7554  0.3245
  653MOL0     C89981   7.127  11.243   9.832  0.2158 -0.2751  0.1337
  653MOL0     C89982   7.186  11.169   9.933 -0.1371 -0.2198  0.5311
  653MOL0     C89983   7.288  11.214  10.011  0.7328  0.0272 -0.2092
  653MOL0     O89984   7.353  11.141  10.109  0.1615  0.9278  0.0262
  653MOL0     C89985   7.280  11.029  10.155 -0.0494 -0.4852  0.4180
  653MOL0     C89986   7.375  10.959  10.255  0.8411 -0.0044 -0.9973
  653MOL0     C89987   7.367  11.032  10.397  0.4936 -0.4240 -0.1986
  653MOL0     C89988   7.460  10.970  10.497  0.6872  1.1642  0.3199
  653MOL0     C89989   7.505  11.068  10.609 -0.1928  0.8362  0.1404
  653MOL0     C89990   7.596  10.995  10.714 -0.7618 -0.3632 -0.5119
  653MOL0     C89991   7.735  10.966  10.663  0.1132  0.8176 -0.8980
  653MOL0     C89992   7.804  11.079  10.568 -0.1026 -0.0573 -0.6796
  653MOL0     N89993   7.938  11.050  10.517  0.0636 -0.0315  0.7833
  653MOL0     C89994   8.046  11.141  10.499  1.1732  0.0076 -1.4008
  653MOL0     C89995   8.161  11.067  10.483  0.5626 -0.6862  0.9063
  653MOL0     C89996   8.301  11.128  10.510 -0.3303 -0.1936  0.0353
  653MOL0     C89997   8.338  11.214  10.390 -1.1863  0.2754  0.3717
  653MOL0     C89998   8.495  11.223  10.360 -0.2739 -1.1342  0.0213
  653MOL0     C89999   8.582  11.241  10.481  0.3252  0.3390  0.5354
  653MOL0     O90000   8.594  11.105  10.532 -0.2725 -0.4399 -0.2295
  653MOL0     C90001   8.682  11.099  10.639 -0.7767 -0.1646 -0.1409
  653MOL0     C90002   8.641  11.141  10.766  0.4070 -0.2355 -0.4725
  653MOL0     C90003   8.735  11.135  10.872  0.0326 -0.3524 -1.4513
  653MOL0     C90004   8.698  11.186  11.013  0.3498  0.3951 -0.1019
  653MOL0     C90005   8.869  11.086  10.856  0.1156  0.3109 -0.1613
  653MOL0     C90006   8.982  11.074  10.961 -0.5587  0.3815 -0.1124
  653MOL0     O90007   9.118  11.075  10.915  0.0729  0.0330 -0.2869
  653MOL0     C90008   9.210  11.031  10.996 -0.3181 -1.0725 -0.5045
  653MOL0     C90009   9.250  11.106  11.107 -0.1364  0.5782 -0.5942
  653MOL0     C90010   9.340  11.057  11.204  0.2288  1.0811  0.3936
  653MOL0     C90011   9.389  10.930  11.186 -0.8822  0.1567 -0.9486
  653MOL0     O90012   9.481  10.878  11.271 -0.7900 -0.0303 -0.0200
  653MOL0     C90013   9.463  10.739  11.319  0.0172 -0.5639  0.9618
  653MOL0     C90014   9.350  10.718  11.415 -0.5330 -0.1235  0.1803
  653MOL0     C90015   9.305  10.576  11.435  0.4649  0.1155 -0.2913
  653MOL0     C90016   9.199  10.571  11.536  0.1853  0.2031  0.8201
  653MOL0     C90017   9.177  10.417  11.577 -0.2329 -0.3486  0.5196
  653MOL0     C90018   9.041  10.410  11.638  0.0271  0.1578 -1.2094
  653MOL0     C90019   9.045  10.447  11.788  0.3387  0.5067  0.1764
  653MOL0     C90020   8.907  10.438  11.855 -0.0345  0.2344  0.1414
  653MOL0    Cl90021   8.801  10.580  11.809  0.2012  0.2589 -0.2722
  653MOL0     C90022   9.349  10.856  11.077 -0.3448 -0.3014  1.1658
  653MOL0     C90023   9.262  10.905  10.976  0.2360 -1.1159 -0.8094
  653MOL0     O90024   8.948  11.077  11.074  0.3216 -0.0232  0.4945
  653MOL0     C90025   8.905  11.044  10.729  0.1605 -0.5447  0.2371
  653MOL0     C90026   8.810  11.047  10.625  0.1831 -0.8165 -0.4920
  653MOL0     N90027   8.121  10.934  10.463  0.5217  0.0081  0.0889
  653MOL0     N90028   7.991  10.927  10.502 -0.0180 -0.6853 -0.1859
  653MOL0     C90029   7.324  11.348   9.983  0.0321 -0.0907  0.1506
  653MOL0     C90030   7.256  11.433   9.899  0.5098  0.1348  0.1875
  653MOL0     C90031   7.066  11.509   9.488  0.2452 -0.4320 -0.0074
  653MOL0     C90032   7.138  11.517   9.370 -0.2405  0.1960  0.1013
  653MOL0     C90033   7.088  11.518   9.240 -0.1994 -1.0381 -0.1004
  653MOL0     C90034   6.952  11.515   9.226  0.2483  0.0589  0.7731
  653MOL0     O90035   6.880  11.530   9.109  0.1137  0.4067 -0.4570
  653MOL0     C90036   6.949  11.592   8.998 -0.2839  0.6416  0.3557
  653MOL0     C90037   6.852  11.603   8.880 -0.6295  0.3374  1.0770
  653MOL0     C90038   6.748  11.717   8.899 -0.1595 -0.0845  0.0371
  653MOL0     C90039   6.640  11.711   8.797  1.0392  0.6339 -0.1777
  653MOL0     C90040   6.558  11.825   8.818  0.2096  0.3693 -0.5803
  653MOL0     C90041   6.484  11.919   8.820  0.0795 -0.6230 -0.3787
  653MOL0     C90042   6.869  11.502   9.341  0.1792 -0.1045  0.3789
  653MOL0     C90043   6.926  11.491   9.466 -0.4583 -0.3447 -0.2625
  653MOL0     C90044   6.828  11.449   9.576  0.5782  0.6660 -0.1902
  653MOL0     H90045   7.054  11.201   9.763  1.1511 -0.4546 -0.7792
  653MOL0     H90046   7.148  11.069   9.951  0.8220 -0.6080  0.4832
  653MOL0     H90047   7.261  10.959  10.073 -1.8680 -1.5930  1.6692
  653MOL0     H90048   7.176  11.044  10.188 -0.3392 -2.9907  0.8689
  653MOL0     H90049   7.344  10.856  10.275  3.9840 -0.9474 -0.3563
  653MOL0     H90050   7.474  10.960  10.208  1.7434  0.5918  0.8567
  653MOL0     H90051   7.395  11.136  10.379 -0.9365  0.7471  3.3398
  653MOL0     H90052   7.264  11.025  10.434 -0.2584 -1.2127 -2.2944
  653MOL0     H90053   7.418  10.885  10.552  2.1394 -2.0494 -3.0780
  653MOL0     H90054   7.545  10.932  10.439 -1.7849 -0.9904 -2.2472
  653MOL0     H90055   7.414  11.107  10.654 -1.2975 -1.1372 -0.2827
  653MOL0     H90056   7.557  11.149  10.558 -0.0376 -0.1160 -1.2614
  653MOL0     H90057   7.621  11.058  10.800  2.7967 -0.2925 -1.4549
  653MOL0     H90058   7.546  10.905  10.751  2.1603 -1.9311 -0.0548
  653MOL0     H90059   7.740  10.868  10.614  0.2154 -1.0655  2.5053
  653MOL0     H90060   7.796  10.950  10.752 -0.2131 -2.4851 -1.1462
  653MOL0     H90061   7.738  11.093  10.482  0.1825 -0.7848 -1.0252
  653MOL0     H90062   7.819  11.170  10.627  6.0256 -1.9234  1.4203
  653MOL0     H90063   8.032  11.246  10.526 -2.6365  0.2925 -3.7127
  653MOL0     H90064   8.370  11.044  10.522 -0.4253 -0.3265 -0.3326
  653MOL0     H90065   8.301  11.194  10.597  3.4092 -0.6017  0.5091
  653MOL0     H90066   8.292  11.164  10.305 -3.3768 -0.5821  1.9884
  653MOL0     H90067   8.303  11.318  10.390  1.0333  1.1494 -2.0491
  653MOL0     H90068   8.525  11.145  10.290  3.0475  0.2998 -0.3642
  653MOL0     H90069   8.514  11.317  10.307 -2.6736 -1.1086 -0.8994
  653MOL0     H90070   8.679  11.274  10.443  0.0335 -0.8722 -1.3593
  653MOL0     H90071   8.545  11.307  10.560 -1.5144 -2.9437  2.6463
  653MOL0     H90072   8.542  11.182  10.783  1.2364  0.4852  3.6095
  653MOL0     H90073   8.600  11.233  11.001 -1.5492 -3.2678 -0.4070
  653MOL0     H90074   8.773  11.256  11.051 -2.1293  3.3837 -0.3458
  653MOL0     H90075   8.701  11.106  11.088  0.1962  3.3430  3.3349
  653MOL0     H90076   9.220  11.209  11.124 -0.2069  0.2897  1.2594
  653MOL0     H90077   9.363  11.120  11.289 -0.7096 -0.2701  1.7170
  653MOL0     H90078   9.436  10.673  11.236 -0.9679 -0.9461  1.5634
  653MOL0     H90079   9.551  10.690  11.361  2.3094  3.3883  1.2598
  653MOL0     H90080   9.382  10.760  11.511 -1.2196  0.6008  0.1009
  653MOL0     H90081   9.262  10.777  11.387 -0.7504  2.7796  5.5872
  653MOL0     H90082   9.396  10.520  11.457  0.5476  0.0628 -0.7502
  653MOL0     H90083   9.264  10.532  11.343  0.4800  1.3353 -0.9023
  653MOL0     H90084   9.110  10.618  11.492  0.8493  1.8194  1.1232
  653MOL0     H90085   9.243  10.619  11.624  3.9166 -0.3799 -0.5597
  653MOL0     H90086   9.181  10.361  11.483 -0.9058  3.6555 -2.1713
  653MOL0     H90087   9.265  10.384  11.633  0.1566 -0.2201 -0.0103
  653MOL0     H90088   8.999  10.311  11.621 -0.1348 -0.2317  1.0698
  653MOL0     H90089   8.976  10.481  11.584 -1.8005  0.2995  0.9953
  653MOL0     H90090   9.102  10.540  11.794 -0.6785  1.4205 -2.7901
  653MOL0     H90091   9.108  10.373  11.839  1.6868 -0.4173 -2.6084
  653MOL0     H90092   8.920  10.435  11.963  1.1800 -0.2188  0.0054
  653MOL0     H90093   8.859  10.345  11.825  1.8007 -1.1284  1.2342
  653MOL0     H90094   9.400  10.763  11.056  3.0476  1.8495 -0.9674
  653MOL0     H90095   9.227  10.846  10.892  0.9412 -0.9139 -1.2551
  653MOL0     H90096   8.999  10.998  10.700  0.0099 -0.6048 -0.1638
  653MOL0     H90097   8.831  11.004  10.527  0.4932 -1.6957 -0.0499
  653MOL0     H90098   7.407  11.378  10.046  1.3880  4.3786 -3.1845
  653MOL0     H90099   7.281  11.537   9.881  0.4768  0.2057  0.5515
  653MOL0     H90100   7.244  11.524   9.389 -0.6604 -0.1912  3.0677
  653MOL0     H90101   7.150  11.532   9.152 -1.0357  1.6336 -0.3258
  653MOL0     H90102   6.981  11.692   9.029  1.0313  0.5211 -0.5171
  653MOL0     H90103   7.039  11.534   8.976  1.0504  1.8637  2.2686
  653MOL0     H90104   6.804  11.505   8.872 -1.9292  1.1049 -3.9272
  653MOL0     H90105   6.906  11.617   8.786 -3.1899 -3.9512 -1.3196
  653MOL0     H90106   6.699  11.713   8.997 -0.9552  2.5745 -0.1811
  653MOL0     H90107   6.797  11.813   8.885  2.0870 -1.4723 -2.4949
  653MOL0     H90108   6.590  11.614   8.805  1.7612  0.3196  0.5665
  653MOL0     H90109   6.689  11.719   8.699  0.1478 -0.3514 -0.7308
  653MOL0     H90110   6.423  12.007   8.833  0.3449 -0.3559 -0.9041
  653MOL0     H90111   6.763  11.484   9.327  0.3975 -3.2058  1.9172
  653MOL0     H90112   6.856  11.354   9.623 -1.1009 -0.1304 -0.7161
  653MOL0     H90113   6.818  11.530   9.650  1.4244  1.1361 -0.5851
  653MOL0     H90114   6.735  11.418   9.528  1.1736 -0.4543 -0.6414
  654MOL0     O90115   0.081   3.905   2.628  0.7741  0.1416 -0.5890
  654MOL0     C90116   0.123   3.972   2.536 -0.2495 -0.3955 -0.2141
  654MOL0     O90117   0.257   3.998   2.505  0.1971  0.3225 -1.0417
  654MOL0     C90118   0.351   3.977   2.602 -0.6183 -0.3076 -0.0176
  654MOL0     C90119   0.383   4.067   2.698  1.2666  0.2973 -0.3939
  654MOL0     C90120   0.496   4.056   2.776  0.3311  0.4186 -0.1931
  654MOL0     C90121   0.572   3.930   2.785 -0.4238  0.4671 -0.2390
  654MOL0     O90122   0.682   3.898   2.867 -0.6281 -0.0584  0.0157
  654MOL0     C90123   0.666   3.916   3.006  0.2222  0.1409  0.4518
  654MOL0     C90124   0.611   3.798   3.085  0.5504  0.9520 -0.3932
  654MOL0     C90125   0.457   3.770   3.071  0.4110  0.1054  0.8076
  654MOL0     C90126   0.375   3.838   3.171  1.0296 -0.3371  0.5366
  654MOL0     C90127   0.219   3.833   3.148 -0.4827 -0.0032 -0.1702
  654MOL0     C90128   0.182   3.887   3.000  0.0950  0.6874 -1.1735
  654MOL0     C90129   0.035   3.914   2.974  0.3931 -0.1595 -0.1354
  654MOL0     C90130  -0.043   3.785   3.000 -0.4583 -0.7015  1.0015
  654MOL0     N90131  -0.172   3.790   2.924 -0.8384 -0.1904  0.2764
  654MOL0     C90132  -0.176   3.774   2.791 -0.9080 -0.7700  0.6248
  654MOL0     C90133  -0.300   3.791   2.755  1.2587  0.4422  0.0755
  654MOL0     C90134  -0.346   3.783   2.621 -0.1427 -0.6489  0.7247
  654MOL0     C90135  -0.403   3.649   2.582 -0.4368 -0.3180 -0.5100
  654MOL0     C90136  -0.532   3.606   2.661 -0.4055 -0.8170  0.4207
  654MOL0     C90137  -0.608   3.481   2.597  0.5065  0.5578  0.0141
  654MOL0     O90138  -0.620   3.510   2.454 -0.2442  0.3488 -0.0857
  654MOL0     C90139  -0.705   3.436   2.379 -1.2530  0.5799  0.3815
  654MOL0     C90140  -0.762   3.495   2.273  0.5323 -0.3423 -0.2589
  654MOL0     C90141  -0.864   3.428   2.196  0.2461  0.2843 -0.6802
  654MOL0     C90142  -0.937   3.501   2.086 -0.1027 -0.3390 -0.2328
  654MOL0     C90143  -0.885   3.290   2.208  0.3299  0.2229 -0.2452
  654MOL0     C90144  -0.972   3.199   2.123 -0.3120  0.9864  0.4322
  654MOL0     O90145  -0.938   3.067   2.136  0.6833 -0.3311 -0.7096
  654MOL0     C90146  -1.028   2.981   2.081  0.5293 -0.5109 -1.2861
  654MOL0     C90147  -1.171   2.980   2.098 -0.5863 -0.3370  1.0770
  654MOL0     C90148  -1.247   2.876   2.050  0.0704 -0.8916 -0.1007
  654MOL0     C90149  -1.184   2.764   1.980  0.3864 -0.1396 -0.8961
  654MOL0     O90150  -1.260   2.667   1.913 -0.1051  0.6207 -0.8454
  654MOL0     C90151  -1.389   2.635   1.978 -0.2096  0.0423  0.1761
  654MOL0     C90152  -1.427   2.505   1.917 -0.1323  0.2443 -0.0614
  654MOL0     C90153  -1.565   2.458   1.962  0.4515 -0.7861  0.1710
  654MOL0     C90154  -1.592   2.308   1.982  0.8052  0.6732  0.4830
  654MOL0     C90155  -1.749   2.283   1.987  0.0220  0.5466 -0.4549
  654MOL0     C90156  -1.821   2.356   2.106  0.0820  0.0770  0.3298
  654MOL0     C90157  -1.953   2.285   2.147  0.6128 -0.7011 -0.1037
  654MOL0     C90158  -2.005   2.346   2.272  0.9716 -0.8359 -0.3814
  654MOL0    Cl90159  -2.173   2.293   2.284 -0.3950 -0.2362 -0.0089
  654MOL0     C90160  -1.047   2.765   1.956 -0.6230 -0.1779 -0.0733
  654MOL0     C90161  -0.975   2.872   2.017  0.5756  0.1394 -0.7434
  654MOL0     O90162  -1.050   3.244   2.048 -0.3498 -0.3511  0.7656
  654MOL0     C90163  -0.813   3.232   2.318  0.5934 -0.6622  1.0324
  654MOL0     C90164  -0.731   3.308   2.399 -0.5701  0.4918 -0.2465
  654MOL0     N90165  -0.370   3.834   2.869 -0.2773 -0.0035  0.6655
  654MOL0     N90166  -0.299   3.829   2.973 -0.2457  0.8222  0.0711
  654MOL0     C90167   0.544   3.844   2.674  0.1184 -0.6510  0.5427
  654MOL0     C90168   0.439   3.866   2.586 -0.2790 -0.7547  0.7220
  654MOL0     C90169   0.020   4.038   2.452  0.7832 -1.1077  0.6636
  654MOL0     C90170  -0.093   4.087   2.518 -0.0363  0.6243  0.1124
  654MOL0     C90171  -0.184   4.164   2.449 -0.1830  0.5092  0.5075
  654MOL0     C90172  -0.187   4.184   2.311 -0.0138  0.1667 -0.6422
  654MOL0     O90173  -0.304   4.250   2.244 -0.8191  0.2805 -0.9008
  654MOL0     C90174  -0.427   4.265   2.311  0.6180 -0.4533  0.5228
  654MOL0     C90175  -0.484   4.121   2.334  0.3611  0.1183 -0.1181
  654MOL0     C90176  -0.518   4.028   2.212  0.5131  0.2034 -0.6433
  654MOL0     C90177  -0.606   3.913   2.251 -0.4574 -0.1931  0.1875
  654MOL0     C90178  -0.746   3.935   2.282 -0.2609 -0.1721  0.3845
  654MOL0     C90179  -0.862   3.966   2.312 -0.1555 -0.1388  0.1076
  654MOL0     C90180  -0.077   4.138   2.241 -0.1874  0.2019  0.8588
  654MOL0     C90181   0.025   4.059   2.308  0.0165 -0.0509  0.0973
  654MOL0     C90182   0.141   3.995   2.223  0.4051 -1.2099  1.3150
  654MOL0     H90183   0.326   4.159   2.705 -2.4737 -1.8941  0.6485
  654MOL0     H90184   0.519   4.140   2.841  0.1035  1.3429 -1.2633
  654MOL0     H90185   0.604   4.004   3.025 -1.1939 -1.0656  1.6845
  654MOL0     H90186   0.769   3.931   3.040  0.9105 -1.6585 -0.6839
  654MOL0     H90187   0.663   3.707   3.053  0.3435  0.1830  1.3503
  654MOL0     H90188   0.654   3.802   3.185  1.3226  1.4085 -0.7354
  654MOL0     H90189   0.432   3.803   2.970  2.3237 -0.5043  0.0884
  654MOL0     H90190   0.439   3.662   3.075 -0.5430  0.2399  4.7307
  654MOL0     H90191   0.391   3.810   3.275  1.9238 -1.8839  0.0211
  654MOL0     H90192   0.397   3.945   3.164 -0.7466  0.1478  1.8482
  654MOL0     H90193   0.161   3.895   3.216 -2.6639 -0.7416 -1.2647
  654MOL0     H90194   0.196   3.727   3.161 -0.0558 -0.1837 -0.8372
  654MOL0     H90195   0.231   3.985   2.996  3.5966 -0.7429  1.5247
  654MOL0     H90196   0.219   3.818   2.923  0.0740  2.4600 -2.8401
  654MOL0     H90197   0.016   3.953   2.874 -0.1796  1.0077  0.4005
  654MOL0     H90198  -0.007   3.994   3.037  0.3317 -0.8724  0.7631
  654MOL0     H90199   0.012   3.701   2.956 -4.2019 -0.9902 -4.0800
  654MOL0     H90200  -0.063   3.774   3.107 -0.9829  1.8435  1.2426
  654MOL0     H90201  -0.087   3.749   2.734 -0.5869  1.0041  0.2932
  654MOL0     H90202  -0.267   3.807   2.549 -1.5112 -1.6493 -1.2165
  654MOL0     H90203  -0.426   3.852   2.592 -0.2893 -0.8976  0.5362
  654MOL0     H90204  -0.427   3.642   2.476  0.7841  0.1269 -0.8321
  654MOL0     H90205  -0.332   3.575   2.620 -1.5597 -0.5865  1.1772
  654MOL0     H90206  -0.503   3.595   2.765  0.5285  2.8518  0.6653
  654MOL0     H90207  -0.603   3.689   2.655  0.8602  0.2246 -0.9765
  654MOL0     H90208  -0.556   3.386   2.611  2.3393  1.5044 -0.1199
  654MOL0     H90209  -0.712   3.477   2.632 -1.7918 -0.4361 -5.7002
  654MOL0     H90210  -0.726   3.595   2.254  2.4745 -0.9788 -0.2152
  654MOL0     H90211  -0.909   3.606   2.083  0.8167 -0.4216  2.5504
  654MOL0     H90212  -1.044   3.504   2.110  0.3388  0.2433  1.8947
  654MOL0     H90213  -0.931   3.451   1.989 -0.2735 -0.6138 -0.1059
  654MOL0     H90214  -1.217   3.065   2.148  1.2361  1.5264 -0.2470
  654MOL0     H90215  -1.354   2.894   2.039  0.4583  0.7550 -1.5919
  654MOL0     H90216  -1.387   2.620   2.086  0.0791 -3.3575 -0.2177
  654MOL0     H90217  -1.464   2.708   1.945  0.7266  0.7062 -0.5674
  654MOL0     H90218  -1.434   2.520   1.809  0.5823  0.0431 -0.1372
  654MOL0     H90219  -1.345   2.443   1.954  0.4545  1.6614  1.1425
  654MOL0     H90220  -1.629   2.495   1.881 -0.2386 -1.3607  0.4439
  654MOL0     H90221  -1.604   2.511   2.049  2.2740 -0.9091  1.1206
  654MOL0     H90222  -1.551   2.269   2.075  0.0059  2.3378  1.5712
  654MOL0     H90223  -1.563   2.249   1.895  2.1046 -0.0377  1.3764
  654MOL0     H90224  -1.790   2.314   1.891  0.2394  1.8743 -0.1320
  654MOL0     H90225  -1.750   2.174   1.995  0.9371  0.6662  2.2805
  654MOL0     H90226  -1.832   2.464   2.095 -3.3754 -0.0573  1.2984
  654MOL0     H90227  -1.759   2.342   2.195 -1.7295 -3.6923  1.1987
  654MOL0     H90228  -1.927   2.179   2.152 -0.3087 -1.1814 -3.0650
  654MOL0     H90229  -2.016   2.284   2.057  0.2128 -0.5672  0.1720
  654MOL0     H90230  -2.004   2.455   2.264  3.3072 -0.8323 -0.9047
  654MOL0     H90231  -1.938   2.325   2.356  0.3069 -0.8794  0.1459
  654MOL0     H90232  -1.006   2.682   1.899 -0.4934 -1.0294  1.2103
  654MOL0     H90233  -0.867   2.869   2.011  0.6519 -1.5011  0.7484
  654MOL0     H90234  -0.824   3.127   2.342 -0.3225 -0.5330  1.2378
  654MOL0     H90235  -0.695   3.249   2.483 -3.5513 -2.6858 -0.9522
  654MOL0     H90236   0.604   3.756   2.652  1.6848 -0.0315  2.1011
  654MOL0     H90237   0.433   3.805   2.496  0.3586  0.8905 -0.4920
  654MOL0     H90238  -0.106   4.088   2.626 -1.5346 -0.4636 -0.0397
  654MOL0     H90239  -0.262   4.219   2.501 -3.7407 -2.5606 -1.1246
  654MOL0     H90240  -0.419   4.328   2.400 -0.3556 -1.3175  1.2467
  654MOL0     H90241  -0.496   4.326   2.251 -2.6336 -1.1781  3.2441
  654MOL0     H90242  -0.582   4.123   2.383 -0.0432 -0.4686 -0.8718
  654MOL0     H90243  -0.424   4.074   2.413  0.4800  0.3551 -0.0677
  654MOL0     H90244  -0.560   4.088   2.131 -2.4860  2.0101  2.0369
  654MOL0     H90245  -0.421   3.991   2.177  1.5206  0.6855  1.4918
  654MOL0     H90246  -0.569   3.862   2.340 -3.5193 -0.3511  1.4704
  654MOL0     H90247  -0.590   3.844   2.167 -0.8576  0.5538 -0.5145
  654MOL0     H90248  -0.964   3.985   2.339  0.2336  0.1371  1.4561
  654MOL0     H90249  -0.074   4.145   2.133 -0.8399  1.0830  0.8836
  654MOL0     H90250   0.237   3.976   2.273  1.7640  1.5872  0.0005
  654MOL0     H90251   0.101   3.901   2.184 -1.5265 -0.6135  1.7425
  654MOL0     H90252   0.156   4.057   2.134 -0.3571 -1.4507  1.0141
  655MOL0     O90253   8.408   5.851   0.395 -0.5028 -0.4143 -0.8739
  655MOL0     C90254   8.529   5.864   0.416  0.0158 -0.1596  0.4658
  655MOL0     O90255   8.634   5.785   0.369 -0.3631 -0.4502 -0.4928
  655MOL0     C90256   8.622   5.655   0.324 -0.2731 -0.5288 -0.1070
  655MOL0     C90257   8.743   5.601   0.281 -0.0835 -0.5581 -0.6028
  655MOL0     C90258   8.755   5.470   0.236  0.4873  0.2069  0.4198
  655MOL0     C90259   8.653   5.376   0.234 -0.3463  0.1289 -0.7001
  655MOL0     O90260   8.684   5.252   0.184 -0.0581 -0.3360 -0.1163
  655MOL0     C90261   8.592   5.149   0.225  0.1564  0.7043 -0.3688
  655MOL0     C90262   8.641   5.008   0.207 -0.1331  0.0432  0.0484
  655MOL0     C90263   8.635   4.968   0.059 -0.7444  0.2286  0.1429
  655MOL0     C90264   8.556   4.839   0.036 -0.7382 -1.4111  0.3809
  655MOL0     C90265   8.410   4.870   0.039  0.2048  0.9201 -0.9734
  655MOL0     C90266   8.329   4.771  -0.047  0.0007 -0.7547 -0.5621
  655MOL0     C90267   8.183   4.795  -0.018  1.0640  0.3829 -0.0422
  655MOL0     C90268   8.087   4.693  -0.073  0.3797 -0.3105  1.0374
  655MOL0     N90269   8.066   4.572   0.010 -0.5227  0.5543  0.4986
  655MOL0     C90270   7.974   4.552   0.110  0.6456  0.1813 -0.2165
  655MOL0     C90271   7.999   4.429   0.147 -0.8472  0.1321 -1.1756
  655MOL0     C90272   7.913   4.348   0.232 -0.5539 -0.1384 -0.2122
  655MOL0     C90273   7.783   4.315   0.154  1.0074 -0.0231  0.6107
  655MOL0     C90274   7.781   4.217   0.029  0.1511 -0.1269  0.0162
  655MOL0     C90275   7.820   4.074   0.077  0.4931 -0.4779  0.1166
  655MOL0     O90276   7.805   3.974  -0.033  0.4099  0.2085  0.8252
  655MOL0     C90277   7.914   3.888  -0.040 -0.2111  1.1519  0.2178
  655MOL0     C90278   8.056   3.921  -0.028  0.4493 -0.1012 -0.0006
  655MOL0     C90279   8.148   3.811  -0.049  1.1687  0.5088  0.0386
  655MOL0     C90280   8.296   3.850  -0.042  0.2174  0.2279  0.0567
  655MOL0     C90281   8.106   3.679  -0.076  0.0751  0.8529 -0.0023
  655MOL0     C90282   8.200   3.563  -0.064  0.8718  0.7048  0.1092
  655MOL0     O90283   8.141   3.437  -0.050 -0.7590 -0.0995 -0.3764
  655MOL0     C90284   8.219   3.323  -0.057  0.4729  0.1591  0.0830
  655MOL0     C90285   8.325   3.304  -0.147  0.9039 -0.1141  0.4312
  655MOL0     C90286   8.377   3.181  -0.168 -0.0945  1.2832 -0.6039
  655MOL0     C90287   8.339   3.069  -0.088  0.6521 -0.2277  0.4100
  655MOL0     O90288   8.386   2.940  -0.096  0.6560  0.0017 -0.3638
  655MOL0     C90289   8.396   2.892  -0.228 -0.4744 -0.4231  0.2733
  655MOL0     C90290   8.422   2.745  -0.217 -0.0219  0.1270  0.4309
  655MOL0     C90291   8.442   2.679  -0.353  0.2936 -0.0408 -0.3679
  655MOL0     C90292   8.498   2.532  -0.353 -0.1029  0.3976 -0.4538
  655MOL0     C90293   8.471   2.430  -0.469 -0.2403 -0.0078 -0.3280
  655MOL0     C90294   8.330   2.387  -0.483  1.2219 -0.1379  0.2243
  655MOL0     C90295   8.316   2.315  -0.624  0.1150 -0.0943 -0.0528
  655MOL0     C90296   8.166   2.287  -0.642 -0.3872  1.1056 -0.5817
  655MOL0    Cl90297   8.116   2.154  -0.520 -0.2463 -0.2818 -0.2054
  655MOL0     C90298   8.261   3.095   0.020 -0.0919 -0.8210 -0.6510
  655MOL0     C90299   8.194   3.215   0.030 -0.1500  0.0724 -0.2480
  655MOL0     O90300   8.317   3.581  -0.074 -0.2526 -0.4916  0.4741
  655MOL0     C90301   7.971   3.650  -0.083  0.5608 -0.0575  0.0403
  655MOL0     C90302   7.884   3.755  -0.065 -0.3526 -0.3298  0.5840
  655MOL0     N90303   8.098   4.368   0.074 -0.2879  0.6756  0.4988
  655MOL0     N90304   8.140   4.463  -0.005 -0.5873 -0.2105  0.5742
  655MOL0     C90305   8.530   5.428   0.288  0.5233  1.5636  0.2953
  655MOL0     C90306   8.517   5.562   0.324  0.1311  0.3764  0.6371
  655MOL0     C90307   8.578   5.978   0.502  0.0756  0.3277 -0.0799
  655MOL0     C90308   8.610   6.101   0.447  0.4594  0.3352 -0.3211
  655MOL0     C90309   8.660   6.214   0.518  0.1497 -0.5067  0.9405
  655MOL0     C90310   8.683   6.196   0.656  0.0695 -0.0957 -0.1385
  655MOL0     O90311   8.709   6.311   0.725 -0.4582 -0.2679  0.5614
  655MOL0     C90312   8.698   6.309   0.871  0.1768  1.3035  0.1673
  655MOL0     C90313   8.778   6.422   0.940 -0.4471  0.4980  0.1646
  655MOL0     C90314   8.759   6.427   1.088 -0.7094 -1.0114  0.1695
  655MOL0     C90315   8.854   6.524   1.142 -0.3090  0.1889 -0.2516
  655MOL0     C90316   8.984   6.461   1.173 -0.1033 -0.5864 -1.0187
  655MOL0     C90317   9.084   6.395   1.211 -0.2165  0.7884 -0.1992
  655MOL0     C90318   8.641   6.076   0.713  0.0862  0.3969  0.4582
  655MOL0     C90319   8.594   5.964   0.638 -0.7544 -0.2575  0.0618
  655MOL0     C90320   8.573   5.839   0.714  0.3491  0.2737  0.3534
  655MOL0     H90321   8.831   5.664   0.272 -1.1476  1.6677  2.7543
  655MOL0     H90322   8.854   5.431   0.215  0.9531  1.9334 -0.8538
  655MOL0     H90323   8.487   5.161   0.198  0.2000  1.7304 -0.1204
  655MOL0     H90324   8.591   5.175   0.331  0.3748  0.8608 -0.4045
  655MOL0     H90325   8.747   5.007   0.233  0.1572  1.0479 -1.0333
  655MOL0     H90326   8.583   4.943   0.274  0.2906 -0.2481  0.1340
  655MOL0     H90327   8.607   5.045  -0.012  0.1572 -0.0874 -0.5724
  655MOL0     H90328   8.737   4.941   0.030 -2.2668 -5.7203 -0.9777
  655MOL0     H90329   8.570   4.799  -0.064 -2.2424  2.4940 -1.5903
  655MOL0     H90330   8.588   4.763   0.109  1.3600 -0.5423  0.4330
  655MOL0     H90331   8.392   4.975   0.017  1.7883  2.6221  4.3065
  655MOL0     H90332   8.377   4.843   0.140  1.2725  0.9610 -0.5982
  655MOL0     H90333   8.362   4.778  -0.151 -0.4181  1.9612 -0.5747
  655MOL0     H90334   8.354   4.669  -0.016 -0.3016 -1.0591 -1.2835
  655MOL0     H90335   8.156   4.893  -0.058  2.8393  0.6927 -0.5677
  655MOL0     H90336   8.178   4.796   0.092  1.5081 -0.6953  0.0084
  655MOL0     H90337   7.990   4.739  -0.092  0.4590 -0.6526 -0.2728
  655MOL0     H90338   8.127   4.656  -0.168  1.2263 -0.4225  1.4335
  655MOL0     H90339   7.893   4.617   0.142  1.9356  1.4507  0.5549
  655MOL0     H90340   7.887   4.391   0.330  2.0230  0.1238  0.4221
  655MOL0     H90341   7.973   4.262   0.264  1.9783  2.5060  2.8261
  655MOL0     H90342   7.711   4.270   0.223 -0.5993 -1.1139 -1.6439
  655MOL0     H90343   7.728   4.406   0.126  1.3540 -0.3737 -1.3856
  655MOL0     H90344   7.676   4.206  -0.001 -0.1342 -1.1062  1.3277
  655MOL0     H90345   7.836   4.259  -0.056  2.3542  0.1189  1.4943
  655MOL0     H90346   7.921   4.076   0.118  1.2588 -2.5942 -1.4502
  655MOL0     H90347   7.754   4.054   0.162  0.9111  0.2524  0.6154
  655MOL0     H90348   8.074   4.020   0.012  1.0315 -1.0310  2.1899
  655MOL0     H90349   8.342   3.848  -0.141  0.8786  0.5849  0.3476
  655MOL0     H90350   8.356   3.785   0.021  0.3655 -1.0354 -1.3349
  655MOL0     H90351   8.301   3.955  -0.010 -5.6961  1.4195 -1.6560
  655MOL0     H90352   8.349   3.386  -0.213 -0.1274  0.6075  0.9151
  655MOL0     H90353   8.457   3.177  -0.242 -0.3642  0.8651 -0.8750
  655MOL0     H90354   8.298   2.910  -0.275 -0.4356  0.5123  0.5192
  655MOL0     H90355   8.478   2.944  -0.278  0.7477 -0.9490  1.6582
  655MOL0     H90356   8.520   2.723  -0.173  0.2997 -1.9366 -1.1859
  655MOL0     H90357   8.342   2.702  -0.155 -1.3561  2.9220  0.8186
  655MOL0     H90358   8.522   2.728  -0.409 -0.3096  2.4582  0.8118
  655MOL0     H90359   8.346   2.688  -0.405 -0.7605 -4.0273  0.5098
  655MOL0     H90360   8.459   2.486  -0.262 -0.5533  2.2295  0.3032
  655MOL0     H90361   8.607   2.537  -0.346 -0.0717 -0.4283 -0.2122
  655MOL0     H90362   8.516   2.472  -0.560  2.0743  0.3952  0.9063
  655MOL0     H90363   8.534   2.343  -0.450 -0.8475 -0.0575  1.6407
  655MOL0     H90364   8.281   2.484  -0.486  4.5974  1.7476  0.6835
  655MOL0     H90365   8.308   2.325  -0.395  0.0283  0.8201  0.6280
  655MOL0     H90366   8.371   2.221  -0.635  0.8384 -0.1480  2.9806
  655MOL0     H90367   8.360   2.379  -0.701  0.8589  0.4755  0.8322
  655MOL0     H90368   8.158   2.247  -0.744  1.3197 -2.8318  0.6382
  655MOL0     H90369   8.101   2.374  -0.623  0.8759  2.3718 -1.8279
  655MOL0     H90370   8.218   3.016   0.081 -1.5140  0.6505  0.3138
  655MOL0     H90371   8.122   3.215   0.111  1.3771 -1.1561  1.1989
  655MOL0     H90372   7.933   3.548  -0.082 -0.7284  0.3193 -2.6341
  655MOL0     H90373   7.780   3.731  -0.049 -0.2483 -0.0087  1.8203
  655MOL0     H90374   8.444   5.362   0.294  2.2134 -1.1279 -2.4076
  655MOL0     H90375   8.418   5.579   0.363  0.5019  0.4030  1.5978
  655MOL0     H90376   8.609   6.121   0.340  0.6941 -1.6703 -0.7230
  655MOL0     H90377   8.686   6.309   0.471  2.9685 -1.8327 -0.4681
  655MOL0     H90378   8.591   6.322   0.889  0.1528  1.3280  0.0149
  655MOL0     H90379   8.719   6.214   0.920 -1.3892  1.1232  0.5395
  655MOL0     H90380   8.742   6.518   0.904  0.1078  0.7227  0.1934
  655MOL0     H90381   8.884   6.410   0.914 -1.1054 -1.0711 -2.1643
  655MOL0     H90382   8.658   6.465   1.109  0.1363  0.7204  1.2409
  655MOL0     H90383   8.776   6.325   1.125  1.2275 -1.3369 -1.4476
  655MOL0     H90384   8.813   6.576   1.230 -1.1766  0.0720 -0.5741
  655MOL0     H90385   8.871   6.605   1.072  1.6996  1.5185  1.6548
  655MOL0     H90386   9.166   6.334   1.246  0.1525  1.5274  0.2335
  655MOL0     H90387   8.651   6.064   0.820 -1.0837  1.0868  0.6672
  655MOL0     H90388   8.541   5.875   0.812  1.6486  0.8393  0.5870
  655MOL0     H90389   8.486   5.792   0.665 -0.2411  3.1606 -1.6456
  655MOL0     H90390   8.663   5.777   0.722  0.7687  0.9384  0.8455
  656MOL0     O90391   5.397   8.364   5.617 -0.3254 -0.3389  0.0260
  656MOL0     C90392   5.474   8.463   5.598  0.8163 -0.2554  1.1014
  656MOL0     O90393   5.442   8.591   5.563 -0.1438 -0.6057 -0.1925
  656MOL0     C90394   5.314   8.618   5.541  0.2822 -0.5163 -0.1145
  656MOL0     C90395   5.246   8.570   5.430  0.5902 -0.6786  0.1741
  656MOL0     C90396   5.111   8.612   5.405 -0.1484 -0.1231 -0.1423
  656MOL0     C90397   5.052   8.683   5.511  0.5206 -0.4447 -0.7261
  656MOL0     O90398   4.912   8.697   5.506  1.3222 -0.3543  0.3079
  656MOL0     C90399   4.849   8.718   5.632 -0.6402 -0.1761 -0.2578
  656MOL0     C90400   4.708   8.660   5.606 -0.4228  0.0073  0.0351
  656MOL0     C90401   4.624   8.676   5.730 -0.7971  0.1870  1.1048
  656MOL0     C90402   4.472   8.668   5.699  0.3614  0.6731  0.4754
  656MOL0     C90403   4.406   8.806   5.689  0.9831 -0.2045  0.1218
  656MOL0     C90404   4.258   8.810   5.646  0.2238 -0.0391 -1.0078
  656MOL0     C90405   4.207   8.962   5.651 -1.3470  0.6946  1.2738
  656MOL0     C90406   4.053   8.971   5.657 -0.4782  0.2006  0.2241
  656MOL0     N90407   3.986   8.943   5.529  0.4688 -0.0137 -0.1547
  656MOL0     C90408   3.924   9.027   5.445 -0.8855  0.7396  0.4822
  656MOL0     C90409   3.855   8.941   5.370 -0.1314  0.8482  0.0247
  656MOL0     C90410   3.761   8.979   5.266  0.1071 -0.5769 -0.2519
  656MOL0     C90411   3.756   9.136   5.228 -0.3679  0.5461  0.0760
  656MOL0     C90412   3.667   9.159   5.100 -0.4982 -0.7509 -0.8040
  656MOL0     C90413   3.695   9.100   4.957  0.8155  0.0086 -0.2258
  656MOL0     O90414   3.675   8.960   4.966 -0.2948  0.5050 -0.1787
  656MOL0     C90415   3.699   8.878   4.854  0.0944 -0.4085 -0.2890
  656MOL0     C90416   3.797   8.908   4.764  0.9774 -0.6943 -0.1225
  656MOL0     C90417   3.840   8.808   4.672 -0.5674  0.8729  0.3494
  656MOL0     C90418   3.960   8.835   4.581 -0.2225  0.0681 -0.7445
  656MOL0     C90419   3.768   8.687   4.658  0.7063  0.6948 -0.7066
  656MOL0     C90420   3.795   8.570   4.569 -0.6429 -0.3537 -0.2122
  656MOL0     O90421   3.706   8.475   4.567  0.3319 -0.5712  0.5248
  656MOL0     C90422   3.723   8.360   4.487  0.4252  0.5514 -0.2593
  656MOL0     C90423   3.782   8.244   4.548 -0.0280  1.0300  0.4087
  656MOL0     C90424   3.803   8.129   4.468 -1.0599 -0.0079  0.7481
  656MOL0     C90425   3.756   8.116   4.338 -0.9535 -1.1463 -1.0231
  656MOL0     O90426   3.774   8.004   4.266 -0.2717  0.5040  0.4652
  656MOL0     C90427   3.900   7.935   4.275 -0.9465  0.3090 -0.3735
  656MOL0     C90428   4.020   8.020   4.234  0.8732 -0.9633 -1.6788
  656MOL0     C90429   4.029   8.067   4.090  0.2001 -0.1886  0.5778
  656MOL0     C90430   4.165   8.130   4.046  0.2528 -0.1312 -0.3690
  656MOL0     C90431   4.155   8.170   3.901  0.9970 -0.3850 -0.2219
  656MOL0     C90432   4.257   8.257   3.839 -0.5021  0.7383 -0.0238
  656MOL0     C90433   4.278   8.393   3.915 -0.1716 -0.0204 -0.2102
  656MOL0     C90434   4.390   8.480   3.866  0.1832  0.6008 -1.5489
  656MOL0    Cl90435   4.561   8.398   3.898  0.1461  0.1766 -0.2771
  656MOL0     C90436   3.673   8.222   4.291  0.0723 -0.8262 -0.9433
  656MOL0     C90437   3.661   8.347   4.369 -0.2188  0.9134  0.4909
  656MOL0     O90438   3.901   8.573   4.505  0.1657  0.1496  0.6006
  656MOL0     C90439   3.659   8.667   4.747 -0.2939  0.0931  0.1595
  656MOL0     C90440   3.630   8.760   4.849 -0.3905  1.0913  0.6499
  656MOL0     N90441   3.883   8.812   5.405  0.4216  0.0122 -0.1800
  656MOL0     N90442   3.949   8.815   5.507 -0.2538  0.9825  0.7409
  656MOL0     C90443   5.134   8.747   5.605  0.6809 -0.8760 -0.9122
  656MOL0     C90444   5.264   8.713   5.626  0.6663 -0.4564  1.0667
  656MOL0     C90445   5.611   8.435   5.630 -0.5875 -0.5355  0.7679
  656MOL0     C90446   5.666   8.311   5.604 -0.3944  0.2488 -0.8002
  656MOL0     C90447   5.800   8.290   5.640  0.7236 -0.4660 -0.0455
  656MOL0     C90448   5.879   8.382   5.707 -0.1999  0.3691 -0.1878
  656MOL0     O90449   6.016   8.355   5.734 -0.5828  0.9017 -0.9228
  656MOL0     C90450   6.114   8.407   5.650  0.0275  0.2714  0.8521
  656MOL0     C90451   6.105   8.318   5.517  0.2452  0.1512  0.4260
  656MOL0     C90452   6.229   8.311   5.421  0.0682 -1.1810  0.1167
  656MOL0     C90453   6.326   8.189   5.440 -0.2116  0.1770  0.0885
  656MOL0     C90454   6.392   8.193   5.574  0.1083  0.0694  0.6460
  656MOL0     C90455   6.454   8.207   5.681 -1.0955  0.5754 -0.7738
  656MOL0     C90456   5.818   8.501   5.736 -0.2554 -0.6624 -0.0352
  656MOL0     C90457   5.686   8.534   5.706  0.0369 -0.1012  0.3279
  656MOL0     C90458   5.631   8.667   5.741 -0.2417 -0.1044 -0.7696
  656MOL0     H90459   5.309   8.507   5.369  1.9634  0.6578  0.1407
  656MOL0     H90460   5.059   8.578   5.316  3.1544 -1.3059 -1.7936
  656MOL0     H90461   4.852   8.825   5.652  4.2079 -0.1149 -0.1896
  656MOL0     H90462   4.889   8.671   5.722 -2.2423 -0.3581  0.3962
  656MOL0     H90463   4.664   8.712   5.521 -0.5251 -1.3728 -0.7949
  656MOL0     H90464   4.724   8.556   5.573 -0.7374  0.2209 -0.8270
  656MOL0     H90465   4.660   8.593   5.792  3.6562 -0.2041 -1.5590
  656MOL0     H90466   4.645   8.768   5.785  1.4902  0.2841  0.1509
  656MOL0     H90467   4.454   8.616   5.604  1.2394  0.0978  0.6127
  656MOL0     H90468   4.424   8.612   5.780 -5.2406  3.5887 -0.3461
  656MOL0     H90469   4.462   8.861   5.614  1.0023 -3.6602 -2.6663
  656MOL0     H90470   4.425   8.859   5.783  4.3281  1.1745 -1.1765
  656MOL0     H90471   4.251   8.776   5.542  3.1164 -0.7251 -1.0443
  656MOL0     H90472   4.188   8.759   5.714 -1.0210  2.1120 -0.5794
  656MOL0     H90473   4.236   9.019   5.562 -2.8375  2.0278  1.5959
  656MOL0     H90474   4.257   9.009   5.736  2.6514 -2.4796  1.0213
  656MOL0     H90475   4.032   8.891   5.729  2.2117 -0.6214  0.2234
  656MOL0     H90476   4.032   9.065   5.708 -0.1439 -1.5739  3.9735
  656MOL0     H90477   3.924   9.135   5.454 -3.0104  0.8115  0.2012
  656MOL0     H90478   3.661   8.944   5.295  0.2174 -2.7638 -2.2453
  656MOL0     H90479   3.800   8.926   5.179  1.6577  3.0550 -1.9922
  656MOL0     H90480   3.715   9.187   5.316 -0.6419 -4.0186  2.9171
  656MOL0     H90481   3.854   9.175   5.200 -1.6121  3.4871 -0.5834
  656MOL0     H90482   3.565   9.132   5.127 -0.0985 -2.0396 -0.5136
  656MOL0     H90483   3.664   9.267   5.085 -2.1723 -0.4074  1.4452
  656MOL0     H90484   3.623   9.137   4.884 -4.3041 -3.1098  2.6099
  656MOL0     H90485   3.799   9.123   4.935  0.3617  1.7212 -0.6880
  656MOL0     H90486   3.859   8.994   4.783 -1.8550  1.4595 -0.0192
  656MOL0     H90487   3.945   8.804   4.478 -1.0685  0.3023 -0.6934
  656MOL0     H90488   4.050   8.782   4.615  0.3744  0.0279 -2.3104
  656MOL0     H90489   3.994   8.938   4.566  2.1851 -0.8859 -2.5354
  656MOL0     H90490   3.817   8.246   4.651  1.3528 -0.6559  0.0199
  656MOL0     H90491   3.871   8.052   4.502  2.8787  2.0110 -1.8252
  656MOL0     H90492   3.895   7.889   4.374 -2.0738 -0.5844 -0.8225
  656MOL0     H90493   3.900   7.853   4.203  0.9553 -0.5748  0.5602
  656MOL0     H90494   4.019   8.109   4.297 -0.9313  0.1480 -3.1737
  656MOL0     H90495   4.111   7.961   4.247 -0.5898 -2.6727  2.6326
  656MOL0     H90496   3.942   8.132   4.072 -0.9919 -1.5851  1.1334
  656MOL0     H90497   4.008   7.974   4.036 -2.7151  0.2377  0.8045
  656MOL0     H90498   4.242   8.052   4.046 -1.8990 -2.4409  1.6399
  656MOL0     H90499   4.186   8.218   4.108  2.0974  1.0776 -2.5554
  656MOL0     H90500   4.151   8.082   3.836 -2.4447 -0.1047 -0.6006
  656MOL0     H90501   4.060   8.222   3.886  1.5911  1.2844  1.5649
  656MOL0     H90502   4.224   8.282   3.738 -1.0064  1.0930  0.2256
  656MOL0     H90503   4.349   8.198   3.836 -2.1092 -2.1714  2.1343
  656MOL0     H90504   4.293   8.377   4.022  1.8258 -0.2355 -0.4715
  656MOL0     H90505   4.184   8.447   3.909  1.4809  2.9414 -2.4482
  656MOL0     H90506   4.384   8.577   3.916 -0.7483 -0.7147  1.1064
  656MOL0     H90507   4.371   8.497   3.760 -1.2697  1.3773 -1.1909
  656MOL0     H90508   3.616   8.231   4.199 -0.3603  0.8382 -0.5404
  656MOL0     H90509   3.590   8.420   4.331  1.5866  1.6529 -1.6239
  656MOL0     H90510   3.594   8.579   4.746 -2.1256  1.3560 -1.8139
  656MOL0     H90511   3.548   8.733   4.915  0.9715  1.6269  2.6560
  656MOL0     H90512   5.087   8.813   5.677  2.8860  1.1811 -1.2006
  656MOL0     H90513   5.337   8.765   5.687  1.0522 -0.7690  0.8751
  656MOL0     H90514   5.607   8.231   5.559 -1.1314 -1.1477  2.3329
  656MOL0     H90515   5.844   8.195   5.611 -1.8723 -1.4775 -1.0566
  656MOL0     H90516   6.121   8.515   5.634  3.7354  0.2509  1.3852
  656MOL0     H90517   6.213   8.392   5.694  0.4522  2.0367  0.5789
  656MOL0     H90518   6.014   8.336   5.459  0.5940  3.1426  0.6368
  656MOL0     H90519   6.087   8.214   5.545  0.5456 -0.3741 -1.1876
  656MOL0     H90520   6.198   8.299   5.317 -1.0793 -1.0712  0.4329
  656MOL0     H90521   6.281   8.408   5.417  0.5142 -1.4584 -1.7050
  656MOL0     H90522   6.410   8.176   5.371  0.3955 -0.4686  0.9284
  656MOL0     H90523   6.267   8.097   5.436  0.5201 -0.2759 -0.6015
  656MOL0     H90524   6.506   8.217   5.774  0.8805 -0.3920 -1.7230
  656MOL0     H90525   5.881   8.567   5.794  2.6367 -0.3479 -3.2561
  656MOL0     H90526   5.696   8.742   5.787 -3.5314  2.8271 -0.5143
  656MOL0     H90527   5.614   8.709   5.641  0.0578  1.6118 -0.1365
  656MOL0     H90528   5.538   8.653   5.797  1.5815 -0.8334  2.2837
  657MOL0     O90529   1.174   9.736   0.542  0.4137  0.5592 -0.4898
  657MOL0     C90530   1.190   9.857   0.580  0.4787  0.7834 -0.4624
  657MOL0     O90531   1.299   9.901   0.645  0.1607 -1.0072  0.2963
  657MOL0     C90532   1.395   9.804   0.670 -0.2052 -0.3068  0.0439
  657MOL0     C90533   1.449   9.729   0.565 -0.0184 -0.2093 -0.5105
  657MOL0     C90534   1.536   9.624   0.588  0.1953 -0.6054 -0.0352
  657MOL0     C90535   1.572   9.585   0.720  0.0358 -0.2917  0.7221
  657MOL0     O90536   1.674   9.506   0.730 -0.3510 -0.0716  0.3010
  657MOL0     C90537   1.685   9.416   0.831 -0.4893 -0.3466 -0.2385
  657MOL0     C90538   1.838   9.386   0.862  0.0620 -0.9562  0.6556
  657MOL0     C90539   1.908   9.340   0.732 -0.0777 -0.2376  0.6689
  657MOL0     C90540   2.022   9.239   0.758  0.4874 -0.4112 -0.7708
  657MOL0     C90541   2.115   9.238   0.635  0.2212 -0.1677 -0.2052
  657MOL0     C90542   2.245   9.157   0.671 -0.4909  0.7762 -0.0607
  657MOL0     C90543   2.308   9.118   0.532 -0.2708 -0.2839  0.9373
  657MOL0     C90544   2.461   9.107   0.553  0.9702 -0.2345  0.0260
  657MOL0     N90545   2.493   8.983   0.610  0.1006  0.7645 -0.3373
  657MOL0     C90546   2.468   8.927   0.727  0.7067 -1.3022 -0.3789
  657MOL0     C90547   2.505   8.794   0.728 -0.5698 -1.1307  0.1612
  657MOL0     C90548   2.507   8.695   0.845  0.7166 -0.0626 -0.3935
  657MOL0     C90549   2.605   8.754   0.945 -0.7808 -0.1387 -0.4039
  657MOL0     C90550   2.747   8.712   0.913 -0.9375  0.7191 -0.8238
  657MOL0     C90551   2.814   8.781   0.795  0.0371  0.1358 -0.5315
  657MOL0     O90552   2.793   8.927   0.802  0.5116  0.0558 -0.8986
  657MOL0     C90553   2.835   8.995   0.692  0.5738 -0.3506 -0.0033
  657MOL0     C90554   2.914   8.946   0.591  1.0382 -0.0059  0.9839
  657MOL0     C90555   2.899   8.999   0.462 -0.1124  0.5297 -0.6926
  657MOL0     C90556   2.952   8.916   0.352  0.2223 -0.3688  0.7972
  657MOL0     C90557   2.819   9.115   0.442  0.7084 -0.5269 -0.4759
  657MOL0     C90558   2.804   9.194   0.314 -0.8092  1.5496 -0.2615
  657MOL0     O90559   2.707   9.284   0.296  0.0840  0.1040  0.7287
  657MOL0     C90560   2.731   9.375   0.204  0.6325 -0.1212 -0.4348
  657MOL0     C90561   2.648   9.378   0.083 -0.8643 -0.6146 -0.3999
  657MOL0     C90562   2.657   9.491  -0.000  0.1933  0.5904 -0.1928
  657MOL0     C90563   2.750   9.600   0.013 -0.1013  0.5842  0.2841
  657MOL0     O90564   2.783   9.690  -0.085  0.2655  0.1209  0.1918
  657MOL0     C90565   2.775   9.653  -0.225  0.5287  0.4428  0.1617
  657MOL0     C90566   2.892   9.560  -0.279  0.1052  0.3061 -0.3781
  657MOL0     C90567   3.034   9.615  -0.254  0.1837 -0.3010 -0.0926
  657MOL0     C90568   3.144   9.560  -0.344  0.8190  0.1335 -0.0909
  657MOL0     C90569   3.295   9.585  -0.288  0.4436 -0.0863 -0.2248
  657MOL0     C90570   3.393   9.516  -0.382 -0.6370  0.2160  0.1135
  657MOL0     C90571   3.540   9.523  -0.335  0.0395 -0.4846 -0.3159
  657MOL0     C90572   3.637   9.474  -0.443  0.5555 -0.8742  0.0355
  657MOL0    Cl90573   3.802   9.496  -0.348 -0.4239 -0.1417 -0.3461
  657MOL0     C90574   2.825   9.599   0.131 -0.1287  0.2975 -0.4413
  657MOL0     C90575   2.820   9.490   0.217 -0.3545 -0.1008  0.2204
  657MOL0     O90576   2.906   9.175   0.243 -0.5440  0.4248 -0.5175
  657MOL0     C90577   2.764   9.183   0.553 -0.5291  0.2752 -0.4092
  657MOL0     C90578   2.779   9.123   0.681  0.5125 -0.1095  0.2512
  657MOL0     N90579   2.543   8.772   0.599 -0.3559 -0.3046 -0.5511
  657MOL0     N90580   2.522   8.878   0.530  0.7104 -0.2340 -0.6390
  657MOL0     C90581   1.526   9.665   0.829  0.1178  0.0436  0.1131
  657MOL0     C90582   1.432   9.766   0.800  0.1209 -0.2575  0.0329
  657MOL0     C90583   1.085   9.953   0.545  0.3726  0.5132 -0.1828
  657MOL0     C90584   0.955   9.918   0.591 -0.4424 -0.1976  0.8215
  657MOL0     C90585   0.850  10.007   0.558 -0.1255 -0.6121 -0.0931
  657MOL0     C90586   0.875  10.132   0.487  0.7067 -0.1087 -0.2316
  657MOL0     O90587   0.787  10.215   0.437  0.0843 -0.3701  0.8551
  657MOL0     C90588   0.641  10.176   0.435 -1.5209 -0.8728 -0.0629
  657MOL0     C90589   0.565  10.252   0.539 -0.5309 -0.0808  0.0491
  657MOL0     C90590   0.551  10.406   0.508 -0.4060 -0.3384 -0.7177
  657MOL0     C90591   0.435  10.469   0.596 -0.1263 -0.4139  0.9986
  657MOL0     C90592   0.483  10.486   0.734 -0.0388 -0.4088  1.3964
  657MOL0     C90593   0.521  10.503   0.854  0.3412  0.7035  0.2997
  657MOL0     C90594   1.007  10.163   0.473  0.7785  0.2322 -0.1663
  657MOL0     C90595   1.112  10.077   0.489 -0.1523  0.8564  0.4291
  657MOL0     C90596   1.251  10.119   0.455  0.0132 -0.6241  0.5157
  657MOL0     H90597   1.420   9.763   0.466 -4.2094  0.9572  0.8910
  657MOL0     H90598   1.579   9.574   0.501  1.6717  2.4714 -1.2422
  657MOL0     H90599   1.640   9.320   0.805  3.5511 -2.2945 -0.9172
  657MOL0     H90600   1.646   9.445   0.929  2.6307 -2.4778  1.8089
  657MOL0     H90601   1.890   9.479   0.889 -0.3929 -0.7837  0.9441
  657MOL0     H90602   1.834   9.315   0.945 -0.9900  0.0240  1.4797
  657MOL0     H90603   1.819   9.294   0.688 -1.1098 -2.4731  4.6078
  657MOL0     H90604   1.939   9.428   0.674 -1.1130 -1.4997 -1.9563
  657MOL0     H90605   2.079   9.276   0.843  0.5738  1.8853 -1.7517
  657MOL0     H90606   1.981   9.143   0.790  2.5057 -0.7130  1.0994
  657MOL0     H90607   2.143   9.336   0.595 -2.4507  2.1614  3.1208
  657MOL0     H90608   2.061   9.187   0.555 -1.3719  3.9450 -2.0289
  657MOL0     H90609   2.315   9.224   0.722 -2.1589  2.7415 -0.2447
  657MOL0     H90610   2.228   9.067   0.732  3.0268 -0.7392 -1.0517
  657MOL0     H90611   2.293   9.199   0.461  1.8443 -1.2637 -0.7520
  657MOL0     H90612   2.252   9.042   0.478  2.1776  0.3635 -2.9114
  657MOL0     H90613   2.502   9.114   0.451  1.9619 -3.1765  0.1181
  657MOL0     H90614   2.495   9.185   0.621  1.3874 -1.6701  1.5274
  657MOL0     H90615   2.433   8.984   0.812  1.7165  1.1792 -1.5357
  657MOL0     H90616   2.530   8.591   0.818  0.4810 -0.9437  2.4726
  657MOL0     H90617   2.407   8.694   0.890  0.5530  0.6951 -0.7191
  657MOL0     H90618   2.597   8.863   0.949 -1.6850 -0.1906 -0.6468
  657MOL0     H90619   2.579   8.704   1.039  0.9406 -1.9393 -0.8164
  657MOL0     H90620   2.815   8.734   0.996 -0.1929 -1.8818 -0.6637
  657MOL0     H90621   2.757   8.604   0.899  0.0681  0.7139 -0.1628
  657MOL0     H90622   2.922   8.762   0.802  0.5643  3.2718  2.5782
  657MOL0     H90623   2.766   8.737   0.708 -1.2108 -1.1600  0.7485
  657MOL0     H90624   2.959   8.848   0.605 -0.0725 -0.6688  0.0740
  657MOL0     H90625   2.947   8.810   0.380 -0.1435  0.1441  2.8495
  657MOL0     H90626   3.056   8.945   0.332 -0.8169  3.9864  0.6094
  657MOL0     H90627   2.890   8.930   0.263  2.1445  1.4775 -0.3620
  657MOL0     H90628   2.562   9.314   0.068 -1.0292 -0.8461  1.2735
  657MOL0     H90629   2.603   9.480  -0.094 -0.6953  2.1489  0.0947
  657MOL0     H90630   2.676   9.613  -0.248  1.5173 -2.6178  0.7416
  657MOL0     H90631   2.793   9.750  -0.274  1.7526  0.6173  0.9041
  657MOL0     H90632   2.889   9.466  -0.223 -0.4544  1.1171  0.9934
  657MOL0     H90633   2.882   9.530  -0.384 -3.0878  1.4288 -0.4716
  657MOL0     H90634   3.062   9.597  -0.150  1.4682 -0.3752 -0.4350
  657MOL0     H90635   3.044   9.724  -0.261  1.6434 -0.3056  1.4233
  657MOL0     H90636   3.130   9.604  -0.444 -2.6762 -1.4035 -0.4012
  657MOL0     H90637   3.134   9.452  -0.357  0.8782  0.3659 -2.5974
  657MOL0     H90638   3.320   9.690  -0.275  0.0488 -0.0525  0.2771
  657MOL0     H90639   3.308   9.523  -0.199  1.3353 -4.6618 -3.1584
  657MOL0     H90640   3.396   9.564  -0.480 -0.7377 -0.8627 -0.4417
  657MOL0     H90641   3.363   9.412  -0.400  2.6399 -1.3718  2.6459
  657MOL0     H90642   3.546   9.462  -0.245 -0.1430  2.3980  1.8001
  657MOL0     H90643   3.566   9.625  -0.306 -1.6931  0.1228 -0.7881
  657MOL0     H90644   3.634   9.546  -0.525 -0.9716  0.9367  1.5755
  657MOL0     H90645   3.618   9.370  -0.470 -1.4921 -0.1908 -1.4143
  657MOL0     H90646   2.910   9.667   0.144  2.6628 -3.1861  1.1608
  657MOL0     H90647   2.892   9.491   0.299  0.9928 -0.8227 -0.9206
  657MOL0     H90648   2.714   9.278   0.534  3.3019  2.1591 -1.9819
  657MOL0     H90649   2.732   9.175   0.765 -2.7045 -0.5209 -1.1478
  657MOL0     H90650   1.548   9.633   0.931 -1.6861 -0.3952  0.3989
  657MOL0     H90651   1.375   9.818   0.876 -0.5448  0.3774 -0.8862
  657MOL0     H90652   0.937   9.819   0.632  1.7943 -0.0597  2.3394
  657MOL0     H90653   0.746   9.981   0.575 -0.9319  3.0847  1.5951
  657MOL0     H90654   0.596  10.203   0.338  1.2499 -0.6907 -1.3796
  657MOL0     H90655   0.612  10.072   0.453 -2.1978 -0.9784 -1.5595
  657MOL0     H90656   0.616  10.226   0.632  0.4475 -0.6931 -0.6361
  657MOL0     H90657   0.464  10.209   0.535 -1.3743  1.8757 -1.4068
  657MOL0     H90658   0.640  10.463   0.535 -2.0654  1.2358  1.8944
  657MOL0     H90659   0.535  10.430   0.403 -1.5162 -1.5796 -0.8630
  657MOL0     H90660   0.346  10.405   0.602  0.1218 -1.5825 -3.7943
  657MOL0     H90661   0.399  10.564   0.555 -3.6170 -1.6517  0.8123
  657MOL0     H90662   0.541  10.507   0.959 -0.9081 -1.1904  0.6522
  657MOL0     H90663   1.038  10.261   0.437 -1.7959  0.8372 -0.9570
  657MOL0     H90664   1.250  10.204   0.386 -1.7457  0.5211  1.8371
  657MOL0     H90665   1.303  10.162   0.542  1.4166 -0.1464 -0.5266
  657MOL0     H90666   1.320  10.037   0.434 -1.7950 -1.8664 -0.9130
  658MOL0     O90667   5.148   9.811   0.001 -0.1963 -0.4633  0.0286
  658MOL0     C90668   5.151   9.806   0.124 -0.5784 -0.4060  0.2563
  658MOL0     O90669   5.080   9.877   0.215 -0.0003  0.2417  0.0007
  658MOL0     C90670   4.999   9.981   0.169  0.7811  0.1824 -1.2086
  658MOL0     C90671   4.868   9.997   0.236 -0.6207 -0.3415  0.3926
  658MOL0     C90672   4.790  10.106   0.204 -0.6242  0.2049  0.5577
  658MOL0     C90673   4.816  10.197   0.105 -1.0900 -1.1012  0.0008
  658MOL0     O90674   4.733  10.294   0.055 -0.1789 -0.4164 -0.2884
  658MOL0     C90675   4.601  10.281   0.104  0.1175  0.1221  0.7963
  658MOL0     C90676   4.514  10.389   0.043  0.0230 -0.3943 -0.2497
  658MOL0     C90677   4.370  10.409   0.096 -0.0190  0.4698 -0.0088
  658MOL0     C90678   4.307  10.514   0.007  0.9195 -0.9991 -0.5173
  658MOL0     C90679   4.153  10.529   0.038  0.1444 -0.5283 -0.1721
  658MOL0     C90680   4.119  10.553   0.190 -0.6695 -0.0562  1.0825
  658MOL0     C90681   3.974  10.605   0.210  0.5440 -0.1062 -0.0250
  658MOL0     C90682   3.961  10.667   0.356  1.0086  0.6041  1.1980
  658MOL0     N90683   3.836  10.756   0.353 -0.6235  0.3765 -0.1891
  658MOL0     C90684   3.708  10.730   0.320  0.4917 -0.2166 -0.3150
  658MOL0     C90685   3.653  10.853   0.304 -0.4409  0.0741  0.6046
  658MOL0     C90686   3.512  10.872   0.272 -0.2953 -0.6065 -0.0981
  658MOL0     C90687   3.504  10.867   0.123 -1.3912  0.0293  0.2694
  658MOL0     C90688   3.559  10.747   0.040  0.7886 -0.1009  0.2307
  658MOL0     C90689   3.516  10.765  -0.106  0.1781 -0.1789 -0.3299
  658MOL0     O90690   3.606  10.863  -0.164 -0.2743 -0.2223  0.9774
  658MOL0     C90691   3.722  10.818  -0.223  0.0090  0.2797 -1.2002
  658MOL0     C90692   3.786  10.906  -0.303  0.5684 -0.1367  0.8005
  658MOL0     C90693   3.902  10.881  -0.378  0.2473  0.1178 -0.0907
  658MOL0     C90694   3.948  10.999  -0.444  0.1702  0.4676 -0.0357
  658MOL0     C90695   3.964  10.757  -0.366 -0.8239  0.3097  1.0887
  658MOL0     C90696   4.093  10.727  -0.431 -0.1277  0.3863 -0.7374
  658MOL0     O90697   4.164  10.609  -0.390 -0.5514  0.1632 -0.6277
  658MOL0     C90698   4.289  10.592  -0.446  0.0267 -0.2051 -0.0385
  658MOL0     C90699   4.309  10.531  -0.565  0.5349  0.6530  0.5082
  658MOL0     C90700   4.436  10.520  -0.617 -0.5370  0.4251  1.0446
  658MOL0     C90701   4.549  10.550  -0.533  0.3091  0.3923  0.4141
  658MOL0     O90702   4.683  10.520  -0.562  0.4623  0.5326 -0.4808
  658MOL0     C90703   4.717  10.427  -0.675  0.8262 -0.1989 -0.2185
  658MOL0     C90704   4.712  10.279  -0.636  0.5587 -0.0656  0.2252
  658MOL0     C90705   4.801  10.256  -0.525  0.9136  1.1466 -0.8582
  658MOL0     C90706   4.816  10.099  -0.521 -0.3129 -0.0773  0.7226
  658MOL0     C90707   4.893  10.032  -0.404  0.0003 -0.3790 -0.0778
  658MOL0     C90708   4.936   9.889  -0.450 -0.8920  1.5974  0.6335
  658MOL0     C90709   4.985   9.809  -0.339  0.7774  0.4378 -0.6426
  658MOL0     C90710   5.039   9.673  -0.390  0.0263 -0.4105  0.9104
  658MOL0    Cl90711   5.126   9.580  -0.253  0.0572  0.1173 -0.4327
  658MOL0     C90712   4.526  10.602  -0.403  0.2600 -0.1815 -0.1871
  658MOL0     C90713   4.398  10.623  -0.362 -0.0159 -0.4079 -2.2888
  658MOL0     O90714   4.138  10.804  -0.512  0.3479  0.1475 -0.0951
  658MOL0     C90715   3.895  10.660  -0.285 -0.4382 -0.8849 -0.4539
  658MOL0     C90716   3.777  10.691  -0.222  0.8082 -0.0152  1.0250
  658MOL0     N90717   3.754  10.943   0.304  1.1917 -0.7373  0.3958
  658MOL0     N90718   3.859  10.889   0.342  0.2168 -0.2376  0.3935
  658MOL0     C90719   4.942  10.176   0.034 -0.8260 -0.5625  0.4616
  658MOL0     C90720   5.032  10.067   0.068  0.2323  0.7804  0.0438
  658MOL0     C90721   5.254   9.712   0.178 -0.2473 -0.3955  0.6833
  658MOL0     C90722   5.248   9.669   0.314 -1.1332 -1.1052  1.0470
  658MOL0     C90723   5.334   9.575   0.363  0.0744  2.0366  0.4437
  658MOL0     C90724   5.442   9.528   0.290  0.2174 -0.4676 -0.7383
  658MOL0     O90725   5.533   9.446   0.352 -0.6796 -0.2652 -0.0775
  658MOL0     C90726   5.635   9.526   0.416 -0.0546 -0.5744  0.2771
  658MOL0     C90727   5.757   9.539   0.315 -0.0486 -0.1057 -0.1386
  658MOL0     C90728   5.891   9.590   0.385  0.1518  0.1365  0.0749
  658MOL0     C90729   5.966   9.494   0.480  0.1157 -0.7358  0.0472
  658MOL0     C90730   6.022   9.392   0.400 -0.9694  0.7011 -0.0944
  658MOL0     C90731   6.065   9.298   0.332 -0.1003 -1.2390  0.6387
  658MOL0     C90732   5.446   9.564   0.159 -1.0578  0.1294  0.2788
  658MOL0     C90733   5.362   9.660   0.102 -0.3809 -0.0379 -0.7374
  658MOL0     C90734   5.398   9.708  -0.032 -0.8630  0.7704 -0.3230
  658MOL0     H90735   4.850   9.932   0.322  2.6165 -1.8150  0.1366
  658MOL0     H90736   4.692  10.116   0.250 -3.0017 -0.2168 -3.8712
  658MOL0     H90737   4.603  10.296   0.212 -0.7827  3.2786  0.4758
  658MOL0     H90738   4.556  10.185   0.076  2.0921 -1.0154  1.2954
  658MOL0     H90739   4.567  10.479   0.075 -2.4899  0.7486  1.0555
  658MOL0     H90740   4.524  10.387  -0.066 -0.0005 -0.3379 -0.2528
  658MOL0     H90741   4.308  10.321   0.077 -0.5263  0.9074 -0.4108
  658MOL0     H90742   4.364  10.432   0.202 -0.5436 -1.7323  0.4786
  658MOL0     H90743   4.350  10.614   0.010  0.2633 -0.7042  2.7394
  658MOL0     H90744   4.315  10.476  -0.095 -2.4936 -1.4386 -0.7339
  658MOL0     H90745   4.097  10.442   0.003 -2.2083  0.8357 -0.0468
  658MOL0     H90746   4.117  10.617  -0.017 -2.5309 -0.9318  0.7697
  658MOL0     H90747   4.134  10.463   0.251  1.4296 -2.2710 -2.3657
  658MOL0     H90748   4.188  10.626   0.233  1.2663 -0.3842 -1.2777
  658MOL0     H90749   3.902  10.528   0.183 -1.8028  1.3537  1.6648
  658MOL0     H90750   3.964  10.683   0.133  0.6111 -1.5891 -1.6064
  658MOL0     H90751   3.941  10.586   0.427  2.7622  0.4175  1.5053
  658MOL0     H90752   4.046  10.726   0.392  0.8648  1.9838 -0.6043
  658MOL0     H90753   3.670  10.628   0.317  0.0264 -0.1017  1.0444
  658MOL0     H90754   3.478  10.970   0.310 -0.8310 -1.1547  0.8848
  658MOL0     H90755   3.449  10.791   0.310 -2.4248  0.2179 -1.6599
  658MOL0     H90756   3.400  10.877   0.091 -1.6379  3.0007  1.6987
  658MOL0     H90757   3.556  10.955   0.083 -0.1844 -0.6326  0.3417
  658MOL0     H90758   3.668  10.737   0.041  0.8790  0.7643  2.1810
  658MOL0     H90759   3.509  10.656   0.073 -1.8935 -0.1930 -3.4249
  658MOL0     H90760   3.519  10.671  -0.162 -1.8064 -2.3715  2.8887
  658MOL0     H90761   3.412  10.796  -0.122  0.6975  0.1248 -4.0100
  658MOL0     H90762   3.740  11.004  -0.295  1.3307  0.4961 -1.8109
  658MOL0     H90763   3.878  11.083  -0.443  0.6623  0.9129  2.0230
  658MOL0     H90764   3.978  10.975  -0.546 -0.1686 -2.0245  0.4003
  658MOL0     H90765   4.033  11.052  -0.398  2.0656 -1.6620 -0.9117
  658MOL0     H90766   4.223  10.500  -0.623  0.6668  0.6020  0.3383
  658MOL0     H90767   4.452  10.473  -0.714 -0.7588  2.7891 -0.2221
  658MOL0     H90768   4.652  10.454  -0.758 -1.4277  1.0226  1.8007
  658MOL0     H90769   4.819  10.454  -0.703  1.0560  0.8445  1.4251
  658MOL0     H90770   4.610  10.244  -0.619 -0.3705  1.0044 -2.5532
  658MOL0     H90771   4.760  10.235  -0.724 -0.2924  2.8619 -1.8542
  658MOL0     H90772   4.763  10.286  -0.426  2.5122 -0.4225  0.2858
  658MOL0     H90773   4.893  10.314  -0.539  0.5149  1.4820 -2.2318
  658MOL0     H90774   4.857  10.066  -0.616  0.9857  3.0749  0.0576
  658MOL0     H90775   4.720  10.047  -0.519 -1.7757  2.2490 -1.7250
  658MOL0     H90776   4.974  10.082  -0.351  0.1336 -1.4884  0.7983
  658MOL0     H90777   4.825  10.022  -0.318  2.1480 -0.7214  1.6624
  658MOL0     H90778   5.019   9.904  -0.520 -0.4436 -0.3282  0.7200
  658MOL0     H90779   4.858   9.832  -0.501  0.1665 -2.9962  3.6561
  658MOL0     H90780   4.907   9.780  -0.268  1.2238 -0.9773 -0.7114
  658MOL0     H90781   5.058   9.866  -0.281  0.1742  1.0998 -0.5151
  658MOL0     H90782   5.111   9.682  -0.472  2.2810 -2.7318  2.4752
  658MOL0     H90783   4.961   9.607  -0.428 -1.1975 -0.2690  3.0138
  658MOL0     H90784   4.604  10.617  -0.330  0.7344  4.6104 -1.3633
  658MOL0     H90785   4.367  10.660  -0.264  2.9594 -0.7019 -1.1480
  658MOL0     H90786   3.947  10.565  -0.278  0.2609 -0.3701  2.9053
  658MOL0     H90787   3.739  10.609  -0.162  1.7458  0.3549  2.1548
  658MOL0     H90788   4.974  10.237  -0.050 -2.2339 -0.3761  0.0370
  658MOL0     H90789   5.125  10.062   0.012  2.5067 -4.5701  3.5312
  658MOL0     H90790   5.181   9.714   0.387 -1.8882 -0.9719  0.2904
  658MOL0     H90791   5.306   9.551   0.465  1.3993  3.3188  1.1532
  658MOL0     H90792   5.598   9.626   0.439  0.5678  0.3240 -2.2675
  658MOL0     H90793   5.668   9.482   0.510  0.1645  0.4006  0.6616
  658MOL0     H90794   5.737   9.604   0.230  1.8275 -1.8693 -2.0468
  658MOL0     H90795   5.787   9.443   0.272  4.4452  1.1441 -0.3134
  658MOL0     H90796   5.962   9.639   0.319  0.4193 -1.0829 -0.5761
  658MOL0     H90797   5.855   9.656   0.465 -1.6931 -1.0523  0.2822
  658MOL0     H90798   5.905   9.444   0.557 -0.5684  1.5192  1.0594
  658MOL0     H90799   6.034   9.549   0.545  1.2481 -4.8669  2.8270
  658MOL0     H90800   6.125   9.230   0.276 -0.9890 -1.4410 -0.0805
  658MOL0     H90801   5.534   9.522   0.111  0.6483  2.0328  1.5708
  658MOL0     H90802   5.397   9.817  -0.036 -1.9204  0.7481 -3.6114
  658MOL0     H90803   5.505   9.682  -0.037 -0.6929  0.8153  1.9095
  658MOL0     H90804   5.338   9.669  -0.115 -0.0294  0.8431 -0.9782
  659MOL0     O90805   9.546   2.322   2.631  0.1595  0.1967 -0.2680
  659MOL0     C90806   9.605   2.227   2.689 -0.9855  0.0231  1.2926
  659MOL0     O90807   9.737   2.209   2.698 -0.2901  0.4030 -0.3432
  659MOL0     C90808   9.813   2.287   2.620 -0.0958  0.3177 -0.1852
  659MOL0     C90809   9.878   2.219   2.518  0.8077 -0.0993  1.2370
  659MOL0     C90810   9.944   2.307   2.418 -0.1383  0.8108  0.1837
  659MOL0     C90811   9.956   2.445   2.433 -1.0015  0.2997 -0.0839
  659MOL0     O90812  10.009   2.519   2.328 -0.3212  0.6647 -0.3707
  659MOL0     C90813  10.075   2.633   2.367 -0.0496  0.2563  0.5663
  659MOL0     C90814   9.985   2.751   2.331  0.1367 -0.0774 -0.1298
  659MOL0     C90815  10.012   2.886   2.407  0.0693  0.2223 -0.3180
  659MOL0     C90816   9.941   2.893   2.540 -0.2981 -0.3905 -0.4888
  659MOL0     C90817   9.954   3.033   2.596 -0.0061 -0.2701  0.5837
  659MOL0     C90818  10.094   3.069   2.648 -0.2031 -0.0422 -0.2180
  659MOL0     C90819  10.092   3.152   2.779 -0.1871 -1.0508 -1.1065
  659MOL0     C90820  10.231   3.168   2.831 -1.4566 -0.4638  0.0317
  659MOL0     N90821  10.224   3.251   2.946  0.1336 -0.6232  0.2425
  659MOL0     C90822  10.245   3.390   2.950  0.0676 -0.5313 -0.0602
  659MOL0     C90823  10.235   3.423   3.084 -0.3853  1.6373 -0.0576
  659MOL0     C90824  10.273   3.547   3.149  0.2376 -0.4723  0.0897
  659MOL0     C90825  10.422   3.543   3.175  0.3493  0.8518 -0.2750
  659MOL0     C90826  10.488   3.681   3.206 -0.6166 -0.2605  0.4181
  659MOL0     C90827  10.406   3.759   3.312 -0.2641  0.8996  0.0165
  659MOL0     O90828  10.294   3.828   3.246 -0.2343  0.6308 -0.3881
  659MOL0     C90829  10.240   3.936   3.307  0.0532 -0.4094 -0.8453
  659MOL0     C90830  10.266   3.992   3.437  0.7057  0.6769  0.0623
  659MOL0     C90831  10.188   4.095   3.493  0.0956  0.9244  0.5218
  659MOL0     C90832  10.250   4.152   3.616 -0.5536  0.1101 -0.7558
  659MOL0     C90833  10.082   4.148   3.413  0.0780  0.1315 -0.1569
  659MOL0     C90834   9.997   4.262   3.471  0.4454 -0.5309  0.8862
  659MOL0     O90835  10.013   4.307   3.606 -0.9148  0.0249  0.5881
  659MOL0     C90836   9.920   4.396   3.656 -0.6911 -0.2050  0.9310
  659MOL0     C90837   9.783   4.388   3.633  0.2155 -0.5671 -0.4446
  659MOL0     C90838   9.691   4.477   3.694 -0.7926 -0.2042  0.6454
  659MOL0     C90839   9.736   4.593   3.760  0.3746 -0.4502 -0.7993
  659MOL0     O90840   9.652   4.692   3.818 -0.9236 -0.1850  0.5758
  659MOL0     C90841   9.516   4.640   3.849  0.9121  0.0795  0.1572
  659MOL0     C90842   9.425   4.665   3.732  0.9283  0.0228  0.5538
  659MOL0     C90843   9.282   4.647   3.762  0.1026 -0.0491 -0.6537
  659MOL0     C90844   9.220   4.726   3.868  0.4994 -0.2590 -0.4658
  659MOL0     C90845   9.089   4.787   3.820  0.2425  0.4101 -0.0204
  659MOL0     C90846   9.030   4.864   3.927  0.5811  0.0314  0.4389
  659MOL0     C90847   8.879   4.884   3.883 -0.2632  0.2700  0.4381
  659MOL0     C90848   8.788   4.949   3.989  0.5563  0.4327  0.2254
  659MOL0    Cl90849   8.742   4.834   4.136 -0.2810  0.0335 -0.3245
  659MOL0     C90850   9.875   4.593   3.796 -0.2284 -0.6526  0.0144
  659MOL0     C90851   9.962   4.497   3.741  0.1287 -0.5750 -0.6099
  659MOL0     O90852   9.908   4.300   3.394  1.0358  0.2549  0.1703
  659MOL0     C90853  10.070   4.089   3.281  1.0074 -1.0273 -1.2438
  659MOL0     C90854  10.135   3.984   3.231  0.6812 -0.2929 -0.7107
  659MOL0     N90855  10.200   3.313   3.159 -1.0481  0.5124  0.5714
  659MOL0     N90856  10.186   3.217   3.073 -0.5322 -0.0030  0.3140
  659MOL0     C90857   9.889   2.512   2.539  0.5690  0.8350 -0.2668
  659MOL0     C90858   9.821   2.428   2.634  0.4675  0.1835 -0.2739
  659MOL0     C90859   9.523   2.133   2.772 -0.6601  0.2354 -0.3199
  659MOL0     C90860   9.585   2.034   2.845  0.0044  0.9053 -0.4335
  659MOL0     C90861   9.514   1.961   2.938  0.2836 -0.1240  0.1884
  659MOL0     C90862   9.376   1.966   2.943  0.8699  0.6822 -0.1316
  659MOL0     O90863   9.320   1.883   3.031 -0.0437 -0.0421 -0.1410
  659MOL0     C90864   9.307   1.947   3.160 -0.6738 -0.2050 -0.3254
  659MOL0     C90865   9.174   2.016   3.176  0.7485 -0.9541 -0.9542
  659MOL0     C90866   9.154   2.057   3.318 -0.5581  0.1808  0.0720
  659MOL0     C90867   9.193   2.203   3.345 -0.5664  0.1693 -0.8234
  659MOL0     C90868   9.346   2.200   3.361  1.0684  0.9894 -1.0080
  659MOL0     C90869   9.464   2.202   3.364  1.0436  0.6247  0.2181
  659MOL0     C90870   9.308   2.038   2.840 -0.8898  0.1277  0.0640
  659MOL0     C90871   9.383   2.121   2.759  0.8689  0.6243  0.4110
  659MOL0     C90872   9.286   2.194   2.666  0.6026 -0.6446  0.3855
  659MOL0     H90873   9.882   2.111   2.514 -1.0578 -0.2002  1.3828
  659MOL0     H90874   9.998   2.256   2.339 -0.7589  0.1537  0.1706
  659MOL0     H90875  10.164   2.640   2.304  2.1810  1.0748  3.5783
  659MOL0     H90876  10.086   2.638   2.476 -2.2135 -0.2852  0.8626
  659MOL0     H90877  10.003   2.756   2.223  1.2891  0.1883  0.0549
  659MOL0     H90878   9.879   2.727   2.342  0.3204 -2.2931 -2.1456
  659MOL0     H90879  10.120   2.902   2.415  0.2461 -0.8519 -0.3787
  659MOL0     H90880   9.965   2.964   2.346 -2.3424  0.2372  1.4107
  659MOL0     H90881   9.833   2.877   2.529 -0.4659 -0.7723  1.3800
  659MOL0     H90882   9.993   2.825   2.608 -1.8130  0.1805  1.3368
  659MOL0     H90883   9.893   3.041   2.686 -1.2485 -1.3284 -0.1210
  659MOL0     H90884   9.905   3.112   2.538 -2.0389 -1.0051  1.2148
  659MOL0     H90885  10.152   2.977   2.649  0.5629  0.4420  1.1089
  659MOL0     H90886  10.141   3.134   2.573  0.4150  3.4497  2.8664
  659MOL0     H90887  10.048   3.091   2.860  0.1312 -1.2577 -1.0884
  659MOL0     H90888  10.044   3.248   2.762  0.7222 -0.0124  1.6661
  659MOL0     H90889  10.284   3.077   2.861  0.0778  0.9550  1.8623
  659MOL0     H90890  10.293   3.219   2.757 -0.7786  0.3528  1.1169
  659MOL0     H90891  10.274   3.458   2.871  3.1083 -2.0045 -0.3825
  659MOL0     H90892  10.210   3.551   3.239  3.1861  3.7352  2.3253
  659MOL0     H90893  10.255   3.637   3.090  2.1231 -0.5025 -0.6025
  659MOL0     H90894  10.437   3.480   3.264  0.5701  2.6825  1.0514
  659MOL0     H90895  10.471   3.491   3.093  1.4422  0.2923  0.6963
  659MOL0     H90896  10.595   3.672   3.228 -0.2624  1.7170 -0.2471
  659MOL0     H90897  10.500   3.741   3.115  2.3398  3.4812  2.9298
  659MOL0     H90898  10.370   3.691   3.390 -1.1021 -0.2621 -1.3458
  659MOL0     H90899  10.469   3.837   3.355  1.5842  1.4288 -3.3117
  659MOL0     H90900  10.346   3.959   3.502 -0.3883 -0.2352  0.9998
  659MOL0     H90901  10.192   4.138   3.708  0.9741  0.2155  0.2565
  659MOL0     H90902  10.261   4.260   3.607 -2.1882  0.2532 -1.4160
  659MOL0     H90903  10.336   4.098   3.657 -1.4883  0.0367  1.2852
  659MOL0     H90904   9.727   4.321   3.569 -1.8407 -1.0217  1.6693
  659MOL0     H90905   9.584   4.466   3.681 -0.8167  0.7128  0.0092
  659MOL0     H90906   9.525   4.535   3.878  2.2191  0.4971  1.3863
  659MOL0     H90907   9.474   4.686   3.939  0.9769  1.2978 -0.4163
  659MOL0     H90908   9.437   4.770   3.705  0.4397 -0.4268 -1.5629
  659MOL0     H90909   9.455   4.606   3.645 -1.6671 -1.1429  0.3487
  659MOL0     H90910   9.267   4.542   3.791 -2.7430  1.5354  5.0691
  659MOL0     H90911   9.234   4.662   3.665  1.1291 -0.1659 -1.1909
  659MOL0     H90912   9.291   4.802   3.903  2.6354 -2.1310 -0.4751
  659MOL0     H90913   9.184   4.664   3.950 -1.9899  1.0695 -0.4777
  659MOL0     H90914   9.115   4.863   3.745 -1.5768  1.0817 -0.0172
  659MOL0     H90915   9.009   4.726   3.776 -2.2727  1.7437  2.4349
  659MOL0     H90916   9.083   4.959   3.917  0.8329 -0.2539 -1.3881
  659MOL0     H90917   9.037   4.832   4.031  2.2302  3.0237  1.3779
  659MOL0     H90918   8.841   4.784   3.860 -0.8609  0.6887 -0.4370
  659MOL0     H90919   8.875   4.940   3.789  1.1228 -2.0701 -1.1144
  659MOL0     H90920   8.699   5.000   3.950  2.4310  3.9608  0.1804
  659MOL0     H90921   8.861   5.024   4.018  0.6777 -0.6531  3.0703
  659MOL0     H90922   9.914   4.665   3.868 -1.7361 -1.4900  1.7498
  659MOL0     H90923  10.067   4.509   3.767 -0.0679  0.3478 -0.1773
  659MOL0     H90924   9.999   4.142   3.219  1.4053  0.8665 -0.1408
  659MOL0     H90925  10.109   3.937   3.137  1.0738 -2.0440  0.0062
  659MOL0     H90926   9.878   2.618   2.560 -0.5906  0.6593  0.0718
  659MOL0     H90927   9.770   2.481   2.713  1.5851 -0.1117  0.6830
  659MOL0     H90928   9.692   2.014   2.851  0.0942  1.6830  0.9814
  659MOL0     H90929   9.567   1.898   3.008  1.4163 -0.5576 -1.0186
  659MOL0     H90930   9.324   1.865   3.230 -1.0257 -2.0487 -2.2990
  659MOL0     H90931   9.396   2.011   3.170  0.3237 -1.5134 -0.5408
  659MOL0     H90932   9.090   1.950   3.153 -0.4546  0.0876  0.2120
  659MOL0     H90933   9.160   2.100   3.108  1.1885  2.2008  2.5067
  659MOL0     H90934   9.047   2.043   3.336 -0.5421 -0.0823 -0.0208
  659MOL0     H90935   9.211   1.986   3.379  1.9134  1.1801 -0.9701
  659MOL0     H90936   9.158   2.238   3.442  2.4669  2.6643 -0.4511
  659MOL0     H90937   9.166   2.272   3.265  2.3566  1.4394 -0.8465
  659MOL0     H90938   9.571   2.194   3.368  1.1077  0.9851 -0.6503
  659MOL0     H90939   9.200   2.041   2.836 -0.8658 -0.1010 -1.2691
  659MOL0     H90940   9.291   2.173   2.559 -5.5603  2.7453 -1.0270
  659MOL0     H90941   9.179   2.199   2.684 -0.9154  3.4970 -6.2135
  659MOL0     H90942   9.311   2.300   2.676 -2.5180  0.2965 -0.7740
  660MOL0     O90943   8.972   7.367   2.582 -0.1529  0.0403  0.1334
  660MOL0     C90944   9.036   7.375   2.685 -0.3989  0.9175  0.2286
  660MOL0     O90945   9.014   7.472   2.778 -0.4410  0.1789 -0.0586
  660MOL0     C90946   8.901   7.551   2.780  0.7406  0.4951 -0.6407
  660MOL0     C90947   8.908   7.688   2.781  0.1130  0.1079  1.2856
  660MOL0     C90948   8.800   7.771   2.773  0.2424  0.7818 -0.4548
  660MOL0     C90949   8.675   7.717   2.788 -0.3790 -0.3541  0.1290
  660MOL0     O90950   8.549   7.788   2.776 -0.2527  0.3192 -0.2363
  660MOL0     C90951   8.551   7.924   2.734  0.1839  0.3977  0.3884
  660MOL0     C90952   8.411   7.972   2.696 -0.6325  0.8159 -0.8746
  660MOL0     C90953   8.364   7.893   2.575  0.8040  0.4716 -0.1748
  660MOL0     C90954   8.235   7.964   2.528 -0.9837 -0.0155  0.5898
  660MOL0     C90955   8.172   7.891   2.408  0.3668 -0.5366 -0.2555
  660MOL0     C90956   8.143   7.746   2.437  0.5427 -0.1591  0.7792
  660MOL0     C90957   8.053   7.685   2.325  0.3111  0.3402 -0.2555
  660MOL0     C90958   8.003   7.545   2.376 -0.4060 -0.3382 -0.8518
  660MOL0     N90959   7.871   7.527   2.311  0.3364 -0.3475  0.6699
  660MOL0     C90960   7.851   7.512   2.173  0.1197 -0.4542  0.9135
  660MOL0     C90961   7.734   7.569   2.154  0.6537  0.6518 -0.1249
  660MOL0     C90962   7.666   7.584   2.025 -0.1186  0.0801  0.0371
  660MOL0     C90963   7.522   7.612   2.026  1.2119 -0.6827 -0.2268
  660MOL0     C90964   7.447   7.491   2.082  0.1115  0.8894  0.0655
  660MOL0     C90965   7.293   7.510   2.079 -0.7725  0.0649  0.2544
  660MOL0     O90966   7.276   7.628   2.162  0.6235  0.8862 -0.0723
  660MOL0     C90967   7.169   7.665   2.239  0.1816  0.9611  0.6155
  660MOL0     C90968   7.188   7.777   2.328  0.6487 -1.0760  0.0105
  660MOL0     C90969   7.078   7.812   2.410  0.2567  0.0901 -0.9197
  660MOL0     C90970   7.107   7.922   2.511  0.6778 -1.0352  1.1757
  660MOL0     C90971   6.959   7.732   2.423  0.2832  0.6572  0.6839
  660MOL0     C90972   6.834   7.764   2.502  0.3724 -0.1047  0.0497
  660MOL0     O90973   6.754   7.657   2.533 -0.4027  0.6294  0.1931
  660MOL0     C90974   6.667   7.667   2.634 -0.6087 -0.6500 -0.2058
  660MOL0     C90975   6.535   7.618   2.614 -0.1469  0.5168  0.0768
  660MOL0     C90976   6.439   7.623   2.721 -0.5624 -0.3554 -0.4432
  660MOL0     C90977   6.464   7.700   2.835  0.1620  0.3357  0.0182
  660MOL0     O90978   6.367   7.715   2.935  0.4681 -0.2409 -0.3724
  660MOL0     C90979   6.316   7.587   2.988  1.1604  0.7656 -0.1423
  660MOL0     C90980   6.237   7.593   3.114 -0.6814 -0.5054 -0.4555
  660MOL0     C90981   6.132   7.708   3.101 -0.1266  1.4194  0.4876
  660MOL0     C90982   6.001   7.668   3.169  0.4426 -0.3233  1.2694
  660MOL0     C90983   5.936   7.554   3.080  0.3510  0.0283  0.7002
  660MOL0     C90984   5.795   7.509   3.125  0.1950 -0.1306  0.5401
  660MOL0     C90985   5.784   7.446   3.266 -0.3546 -0.5646 -0.2852
  660MOL0     C90986   5.645   7.388   3.295  0.8316 -0.1453  0.5450
  660MOL0    Cl90987   5.637   7.327   3.459 -0.0767  0.1186 -0.1627
  660MOL0     C90988   6.586   7.757   2.854 -0.5551  0.4230  0.3401
  660MOL0     C90989   6.692   7.731   2.755  0.1016  0.8975 -0.4885
  660MOL0     O90990   6.812   7.879   2.533 -0.5466 -0.4931  0.3088
  660MOL0     C90991   6.945   7.621   2.335 -0.2948 -0.3866 -0.5292
  660MOL0     C90992   7.053   7.588   2.248 -1.0293 -0.9281  0.2169
  660MOL0     N90993   7.674   7.616   2.274 -0.6093  0.7009  0.1409
  660MOL0     N90994   7.763   7.590   2.368 -0.0945  0.6308  0.1347
  660MOL0     C90995   8.663   7.586   2.812 -0.1299 -0.4499  0.3366
  660MOL0     C90996   8.772   7.494   2.785 -0.0287 -0.1251 -0.2466
  660MOL0     C90997   9.129   7.269   2.731 -0.4516  0.6468 -0.4208
  660MOL0     C90998   9.132   7.249   2.870 -0.0099 -0.0834  0.4781
  660MOL0     C90999   9.226   7.167   2.935  0.6191  0.0412 -0.0839
  660MOL0     C91000   9.309   7.085   2.850 -0.2474 -0.5270 -1.9418
  660MOL0     O91001   9.412   7.012   2.911  0.4349 -0.2638 -0.0341
  660MOL0     C91002   9.434   6.879   2.855  0.7099 -0.1022 -1.2552
  660MOL0     C91003   9.567   6.872   2.802 -0.6873  0.6316  1.2382
  660MOL0     C91004   9.598   6.722   2.760 -0.1395  0.4106  0.2659
  660MOL0     C91005   9.727   6.709   2.684  0.1321 -0.4105 -0.3623
  660MOL0     C91006   9.841   6.728   2.773  0.5530 -0.5953  0.6828
  660MOL0     C91007   9.948   6.730   2.829  0.3434 -1.1932 -0.8152
  660MOL0     C91008   9.293   7.083   2.704  0.5917  0.5430 -0.2386
  660MOL0     C91009   9.203   7.174   2.647  0.2220 -0.1193  0.1791
  660MOL0     C91010   9.204   7.187   2.497  0.2432 -0.1354  0.0562
  660MOL0     H91011   9.001   7.738   2.806 -0.8405  1.4134  2.3699
  660MOL0     H91012   8.811   7.877   2.757 -0.3758  0.6568 -1.8763
  660MOL0     H91013   8.619   7.937   2.649  0.6497 -0.4213  0.6375
  660MOL0     H91014   8.601   7.976   2.816  0.1060  0.1424  0.5953
  660MOL0     H91015   8.356   7.970   2.791 -0.4328 -1.2564 -0.7632
  660MOL0     H91016   8.414   8.078   2.670 -0.4285  0.9607 -0.2623
  660MOL0     H91017   8.438   7.888   2.495  0.7226 -1.5935 -0.1766
  660MOL0     H91018   8.345   7.788   2.598 -1.1711  0.7288 -0.4139
  660MOL0     H91019   8.157   7.959   2.604 -0.5833  0.9050  1.0808
  660MOL0     H91020   8.270   8.066   2.509  3.4955 -1.8942 -3.5190
  660MOL0     H91021   8.244   7.896   2.326 -0.8743 -0.9748 -1.4079
  660MOL0     H91022   8.079   7.942   2.383  0.7847  1.1710  1.4351
  660MOL0     H91023   8.232   7.682   2.438 -0.3034 -1.4013 -0.3568
  660MOL0     H91024   8.094   7.728   2.533  0.4411 -0.9367  0.5916
  660MOL0     H91025   8.111   7.669   2.233 -0.6545 -1.9333 -0.5293
  660MOL0     H91026   7.966   7.747   2.301 -1.1143 -1.3517  0.3361
  660MOL0     H91027   8.084   7.477   2.351  2.6929  2.1270  1.5671
  660MOL0     H91028   7.969   7.551   2.480 -0.4216 -0.1509 -0.8688
  660MOL0     H91029   7.911   7.471   2.093 -5.0526 -1.1875 -3.1149
  660MOL0     H91030   7.680   7.492   1.967  0.4316  0.7993 -0.9943
  660MOL0     H91031   7.713   7.663   1.965 -3.0876  0.7709 -1.5371
  660MOL0     H91032   7.505   7.704   2.082 -1.8058 -1.9597  1.1774
  660MOL0     H91033   7.493   7.627   1.921  1.1459 -0.8122 -0.2276
  660MOL0     H91034   7.467   7.398   2.028 -1.7818 -0.6844  1.8640
  660MOL0     H91035   7.474   7.485   2.188 -0.9588 -0.1930  0.3051
  660MOL0     H91036   7.261   7.523   1.976  0.6815  1.4052 -0.0595
  660MOL0     H91037   7.250   7.415   2.113  3.0687 -2.5168 -1.3332
  660MOL0     H91038   7.277   7.839   2.327 -0.1392  0.3893  3.8588
  660MOL0     H91039   7.064   8.016   2.476  1.1358 -2.4489 -3.8982
  660MOL0     H91040   7.215   7.938   2.498  0.3500  0.1926 -0.3553
  660MOL0     H91041   7.074   7.910   2.615  3.1375  0.1797  2.1728
  660MOL0     H91042   6.499   7.585   2.517 -1.1663  4.7698 -1.2093
  660MOL0     H91043   6.339   7.585   2.707 -0.5307 -0.2717 -0.9015
  660MOL0     H91044   6.251   7.559   2.904  2.9712 -0.4667 -1.1891
  660MOL0     H91045   6.384   7.502   3.000  0.3824 -0.2542 -2.3070
  660MOL0     H91046   6.184   7.499   3.128 -0.0302 -0.6349  1.3693
  660MOL0     H91047   6.296   7.615   3.203 -2.5866 -1.5412  1.1352
  660MOL0     H91048   6.113   7.731   2.995 -0.0384 -2.2583 -0.4733
  660MOL0     H91049   6.171   7.794   3.157  2.7100  0.1535  0.6070
  660MOL0     H91050   5.946   7.763   3.170  4.0132  2.0683 -1.7561
  660MOL0     H91051   6.015   7.631   3.271  0.6148 -1.5381  0.8184
  660MOL0     H91052   5.934   7.579   2.974  1.9403 -5.7193 -1.0719
  660MOL0     H91053   5.991   7.459   3.075  1.7738  0.8599 -2.5359
  660MOL0     H91054   5.780   7.432   3.049  1.9773  1.0747 -1.1176
  660MOL0     H91055   5.716   7.582   3.106 -1.1351 -1.0375  2.2506
  660MOL0     H91056   5.792   7.527   3.340 -2.5277 -1.1359  0.6567
  660MOL0     H91057   5.865   7.374   3.281 -1.4646 -1.9399 -0.7303
  660MOL0     H91058   5.614   7.305   3.230 -1.9397 -0.2255  1.8375
  660MOL0     H91059   5.587   7.480   3.294  1.4742  0.3930 -3.0519
  660MOL0     H91060   6.599   7.816   2.943 -0.7322  0.7490  0.1500
  660MOL0     H91061   6.789   7.778   2.769 -0.2237  1.1889  0.9874
  660MOL0     H91062   6.846   7.578   2.324 -0.5973  0.4906 -1.3167
  660MOL0     H91063   7.041   7.510   2.173 -0.5666 -3.1308  2.2827
  660MOL0     H91064   8.563   7.544   2.822 -1.7587  3.1426  0.6789
  660MOL0     H91065   8.752   7.388   2.771 -2.0543  0.2876 -0.7556
  660MOL0     H91066   9.053   7.290   2.933 -2.4952 -0.7163 -2.0098
  660MOL0     H91067   9.236   7.149   3.042  2.1055 -0.6152 -0.3111
  660MOL0     H91068   9.419   6.810   2.939  1.9308  2.4698  1.2271
  660MOL0     H91069   9.356   6.861   2.781 -1.3038  1.0907  0.4980
  660MOL0     H91070   9.638   6.911   2.875  1.2800 -0.0837 -0.1670
  660MOL0     H91071   9.571   6.937   2.714 -0.4614 -0.4234  0.4476
  660MOL0     H91072   9.601   6.651   2.843 -0.3191 -1.6303 -1.3858
  660MOL0     H91073   9.514   6.697   2.695 -0.8385  0.1615  1.2483
  660MOL0     H91074   9.732   6.789   2.609 -1.4963 -1.7009 -1.9278
  660MOL0     H91075   9.728   6.615   2.628  1.5932  0.2191 -1.4640
  660MOL0     H91076  10.036   6.748   2.888  1.3921  1.2826 -2.9714
  660MOL0     H91077   9.341   7.011   2.639 -0.4178  1.7133 -2.4221
  660MOL0     H91078   9.237   7.099   2.440 -1.3550 -0.2479 -0.7621
  660MOL0     H91079   9.102   7.195   2.458 -0.8932 -0.0549  2.8505
  660MOL0     H91080   9.272   7.259   2.452  1.5211 -2.2364 -1.6038
  661MOL0     O91081   3.522   4.155   8.446  0.2534 -0.6480  0.1831
  661MOL0     C91082   3.477   4.094   8.348 -0.4336  0.1947  0.1809
  661MOL0     O91083   3.343   4.087   8.319 -0.1102 -0.4231  0.2786
  661MOL0     C91084   3.251   4.161   8.389 -0.8822  0.0972 -0.2134
  661MOL0     C91085   3.240   4.170   8.525  0.9419 -0.0794 -0.4296
  661MOL0     C91086   3.157   4.261   8.589 -0.3472  0.2633 -0.4270
  661MOL0     C91087   3.079   4.347   8.517 -0.9038 -1.6063 -0.5513
  661MOL0     O91088   2.991   4.426   8.576  0.8865 -0.5481 -0.5615
  661MOL0     C91089   2.869   4.356   8.620  0.3434 -0.2958  0.6020
  661MOL0     C91090   2.741   4.362   8.532 -0.4645 -0.4292 -0.1063
  661MOL0     C91091   2.773   4.301   8.398 -0.2584  0.7747  0.3853
  661MOL0     C91092   2.641   4.270   8.327  1.3824 -0.3227  0.3533
  661MOL0     C91093   2.670   4.181   8.200 -1.4129 -0.8485  0.3412
  661MOL0     C91094   2.737   4.261   8.090 -0.1443  0.2621 -0.3827
  661MOL0     C91095   2.712   4.188   7.959  0.4928  0.1472  0.3985
  661MOL0     C91096   2.809   4.251   7.857  0.4929 -0.0273  0.3390
  661MOL0     N91097   2.769   4.229   7.718  0.2439  0.5123  0.0052
  661MOL0     C91098   2.848   4.164   7.630  0.4440  0.9647  0.1195
  661MOL0     C91099   2.790   4.169   7.512 -0.1128 -0.7133  0.7387
  661MOL0     C91100   2.833   4.102   7.381 -0.3973  0.1128 -0.8473
  661MOL0     C91101   2.735   3.999   7.332  0.1168  0.1709 -0.6394
  661MOL0     C91102   2.704   3.875   7.413 -0.3953  0.0549 -0.1890
  661MOL0     C91103   2.630   3.913   7.538 -0.4206 -0.2253 -0.4972
  661MOL0     O91104   2.582   3.791   7.603 -0.2190 -0.5320  0.3772
  661MOL0     C91105   2.479   3.807   7.691  0.0787 -0.1048 -0.4361
  661MOL0     C91106   2.441   3.923   7.755  0.2604 -0.0937 -0.8999
  661MOL0     C91107   2.331   3.928   7.837  0.3752 -0.1150  0.0838
  661MOL0     C91108   2.297   4.060   7.903  0.5461  0.6027 -0.0220
  661MOL0     C91109   2.249   3.814   7.866 -0.0730  0.1643  1.6246
  661MOL0     C91110   2.121   3.807   7.944 -0.0929  0.0399  0.6689
  661MOL0     O91111   2.070   3.681   7.957  0.1516 -0.7686  0.2300
  661MOL0     C91112   1.963   3.652   8.040  0.4721  0.0306  0.0672
  661MOL0     C91113   1.827   3.688   8.015  0.8663 -1.3971 -0.1890
  661MOL0     C91114   1.724   3.651   8.104  0.2520  0.4245 -0.4498
  661MOL0     C91115   1.755   3.559   8.215  1.1653 -0.6486  0.5815
  661MOL0     O91116   1.646   3.529   8.293 -0.3433 -0.3339  0.2124
  661MOL0     C91117   1.651   3.414   8.389 -0.4629  0.6607 -0.1139
  661MOL0     C91118   1.527   3.342   8.420  0.0402 -1.1578 -0.1122
  661MOL0     C91119   1.445   3.438   8.497  0.0713  0.1180 -0.4183
  661MOL0     C91120   1.323   3.383   8.555  0.4776  0.0885 -0.0907
  661MOL0     C91121   1.246   3.482   8.649 -1.1420 -0.6872 -0.2355
  661MOL0     C91122   1.131   3.415   8.714 -0.6931  0.5654  0.6196
  661MOL0     C91123   1.039   3.525   8.792  1.0720  0.0548  0.3559
  661MOL0     C91124   0.900   3.493   8.858  0.5390 -0.4239 -0.3777
  661MOL0    Cl91125   0.922   3.430   9.029 -0.2910 -0.0130 -0.4949
  661MOL0     C91126   1.891   3.519   8.226  0.0590  0.5677 -0.1700
  661MOL0     C91127   1.993   3.562   8.144  0.0995  0.1165  0.2855
  661MOL0     O91128   2.072   3.915   7.985 -0.0123  0.7553 -0.3907
  661MOL0     C91129   2.288   3.691   7.805  0.2562 -0.0207 -0.5497
  661MOL0     C91130   2.406   3.689   7.723 -0.4565 -1.1671  0.5912
  661MOL0     N91131   2.670   4.241   7.535 -0.1870 -0.3568  0.4063
  661MOL0     N91132   2.649   4.265   7.657 -0.3706 -0.1576  0.4167
  661MOL0     C91133   3.092   4.340   8.373 -0.0874  0.6109  0.7495
  661MOL0     C91134   3.178   4.245   8.315 -0.8652 -0.2395  1.3187
  661MOL0     C91135   3.574   4.036   8.257 -0.6781 -0.3477 -1.2458
  661MOL0     C91136   3.714   4.054   8.285  0.3532  0.6557  0.0571
  661MOL0     C91137   3.814   4.009   8.194  0.2082 -0.2853  0.3344
  661MOL0     C91138   3.777   3.944   8.076  0.5171 -1.1691  0.3176
  661MOL0     O91139   3.871   3.904   7.985 -0.7821 -0.0935  0.2617
  661MOL0     C91140   3.879   4.013   7.881 -1.1585 -0.6545  0.2317
  661MOL0     C91141   4.024   4.005   7.815 -0.9368 -0.4402 -0.1516
  661MOL0     C91142   4.040   4.078   7.678 -1.0867  1.0337 -0.1834
  661MOL0     C91143   3.990   4.219   7.679  0.2836 -0.8401  0.1943
  661MOL0     C91144   3.841   4.213   7.644 -0.1892 -0.2996  0.6595
  661MOL0     C91145   3.720   4.209   7.621  0.0327  0.4804 -0.6474
  661MOL0     C91146   3.642   3.921   8.045  0.3010 -0.2257  0.1026
  661MOL0     C91147   3.544   3.963   8.139  0.0901 -0.5458 -0.0312
  661MOL0     C91148   3.404   3.915   8.110 -0.3714  0.2218  0.3638
  661MOL0     H91149   3.312   4.111   8.580  1.2990  0.0135 -0.7949
  661MOL0     H91150   3.154   4.252   8.697 -0.0978  0.8595 -0.3691
  661MOL0     H91151   2.839   4.407   8.712 -1.9890 -0.4447 -0.0309
  661MOL0     H91152   2.886   4.255   8.657 -1.2733 -0.4720  0.8972
  661MOL0     H91153   2.662   4.298   8.572  1.8648 -2.0090  2.3143
  661MOL0     H91154   2.703   4.462   8.509 -0.0332 -0.2518 -0.0651
  661MOL0     H91155   2.816   4.378   8.334 -0.5097 -2.5453 -4.2750
  661MOL0     H91156   2.830   4.209   8.415 -0.3991  0.9730  2.1889
  661MOL0     H91157   2.569   4.222   8.393 -1.1599  2.0217 -0.5326
  661MOL0     H91158   2.592   4.364   8.301  2.5376  0.8382  2.1373
  661MOL0     H91159   2.567   4.157   8.174 -1.6444  0.0524  0.3777
  661MOL0     H91160   2.725   4.089   8.220  0.6202  0.4083  0.8254
  661MOL0     H91161   2.691   4.360   8.090  2.6893  1.6905 -0.6880
  661MOL0     H91162   2.843   4.275   8.112  0.1794  0.1745 -1.7512
  661MOL0     H91163   2.609   4.198   7.923  1.2292  1.6374 -1.4551
  661MOL0     H91164   2.749   4.086   7.977 -0.9534 -0.1658  1.8385
  661MOL0     H91165   2.813   4.359   7.875  0.7571  0.4550 -2.2263
  661MOL0     H91166   2.911   4.218   7.877  1.1779  1.4032 -0.5956
  661MOL0     H91167   2.943   4.118   7.655  0.1537 -0.4319 -1.2029
  661MOL0     H91168   2.932   4.055   7.386  0.7008  1.9966 -2.9721
  661MOL0     H91169   2.844   4.181   7.306 -1.7750  1.7461  0.5833
  661MOL0     H91170   2.640   4.049   7.311 -0.4944  0.6530  2.6238
  661MOL0     H91171   2.781   3.960   7.241 -0.4806  0.4775 -1.0826
  661MOL0     H91172   2.649   3.800   7.356  0.6949 -1.3997  0.5982
  661MOL0     H91173   2.803   3.835   7.439  0.7313  1.3876 -2.1611
  661MOL0     H91174   2.692   3.956   7.617 -3.6794  1.2701  1.4487
  661MOL0     H91175   2.541   3.975   7.522 -0.9997  0.4413  3.9270
  661MOL0     H91176   2.499   4.014   7.741 -2.0947  1.1826 -3.2550
  661MOL0     H91177   2.207   4.108   7.863  1.5810  1.8769 -0.9157
  661MOL0     H91178   2.379   4.132   7.891  0.5487  1.4333  3.8063
  661MOL0     H91179   2.280   4.042   8.009 -0.5339 -2.5504 -0.6217
  661MOL0     H91180   1.801   3.753   7.933 -0.0330  1.5834  2.2445
  661MOL0     H91181   1.619   3.675   8.087  0.9274  2.8290 -1.7887
  661MOL0     H91182   1.720   3.337   8.353 -2.9522 -1.5811 -0.3488
  661MOL0     H91183   1.690   3.448   8.485 -1.6440  0.1630  0.5499
  661MOL0     H91184   1.473   3.300   8.334  1.6427  2.0318 -2.9287
  661MOL0     H91185   1.546   3.254   8.482  2.9056 -1.2487 -0.9717
  661MOL0     H91186   1.421   3.531   8.445 -0.6811 -0.2166 -0.6761
  661MOL0     H91187   1.492   3.474   8.589 -1.2357 -2.5817  1.4088
  661MOL0     H91188   1.345   3.288   8.604 -1.1304 -0.4981 -0.4622
  661MOL0     H91189   1.251   3.368   8.474  1.3144 -1.7365 -0.5533
  661MOL0     H91190   1.303   3.524   8.732 -0.7684 -1.7736  0.0653
  661MOL0     H91191   1.214   3.568   8.588  2.3094 -0.0519 -1.3778
  661MOL0     H91192   1.167   3.349   8.793  0.2412 -0.9246 -0.9654
  661MOL0     H91193   1.071   3.357   8.642  3.5309 -3.6016 -0.0531
  661MOL0     H91194   1.010   3.594   8.712 -1.0646 -0.5831  0.5001
  661MOL0     H91195   1.103   3.568   8.869  2.1156 -1.8312  0.6008
  661MOL0     H91196   0.853   3.414   8.799 -0.2125  0.2846 -0.7457
  661MOL0     H91197   0.844   3.587   8.868 -0.7984 -1.3380  1.2438
  661MOL0     H91198   1.921   3.457   8.310  0.8724 -0.6114 -1.2900
  661MOL0     H91199   2.094   3.531   8.167  0.3652  0.9472  0.2580
  661MOL0     H91200   2.230   3.600   7.815  0.3089  0.0838  0.8662
  661MOL0     H91201   2.453   3.602   7.680  2.2937  2.2023 -4.1579
  661MOL0     H91202   3.033   4.402   8.306 -0.7482  0.7423  1.4348
  661MOL0     H91203   3.182   4.240   8.206 -1.9046  3.8083  0.9404
  661MOL0     H91204   3.755   4.113   8.366 -1.0706  3.5359 -1.1897
  661MOL0     H91205   3.917   4.033   8.220 -0.3761  0.2578  2.3600
  661MOL0     H91206   3.803   4.004   7.803 -0.9554 -2.7712  0.2225
  661MOL0     H91207   3.866   4.117   7.913 -0.0556  0.4160 -2.4853
  661MOL0     H91208   4.034   3.900   7.788 -3.3597 -0.1792 -2.5073
  661MOL0     H91209   4.103   4.033   7.885  0.3717 -2.5484 -0.6914
  661MOL0     H91210   4.146   4.082   7.650 -0.5846 -1.0629  1.1943
  661MOL0     H91211   3.998   4.020   7.596 -0.7318  2.1619 -1.1901
  661MOL0     H91212   4.050   4.283   7.613 -1.4623  1.4198  0.6527
  661MOL0     H91213   3.992   4.263   7.779 -0.5673 -0.5723  0.1041
  661MOL0     H91214   3.617   4.215   7.589 -0.0840 -1.5074 -0.7474
  661MOL0     H91215   3.607   3.857   7.965 -3.5302  1.1038  0.5213
  661MOL0     H91216   3.365   3.996   8.048  2.0176  0.8219 -0.4504
  661MOL0     H91217   3.386   3.818   8.061 -4.1412  0.1726  1.5294
  661MOL0     H91218   3.350   3.897   8.203 -2.9709  3.0534 -0.4218
  662MOL0     O91219   9.090   9.070   6.547  0.7818 -0.1708 -0.1163
  662MOL0     C91220   8.987   9.102   6.607 -0.3699  0.0644  0.7413
  662MOL0     O91221   8.900   9.197   6.570  0.7678  0.3390  0.1249
  662MOL0     C91222   8.921   9.285   6.472 -0.4692 -0.1345 -0.4220
  662MOL0     C91223   8.873   9.416   6.494 -0.1326  0.3705  1.0192
  662MOL0     C91224   8.892   9.518   6.394  0.3336 -0.5065  0.9141
  662MOL0     C91225   8.969   9.486   6.280  0.5638 -0.8250  0.7051
  662MOL0     O91226   9.003   9.583   6.189  0.2946 -0.7483 -0.2936
  662MOL0     C91227   9.015   9.549   6.051 -0.7396  0.1413  0.2516
  662MOL0     C91228   9.019   9.678   5.961 -0.8164 -0.0442  0.6628
  662MOL0     C91229   8.969   9.674   5.810  0.3689 -0.6750  0.2287
  662MOL0     C91230   8.828   9.623   5.790 -0.3922  0.6591  0.5079
  662MOL0     C91231   8.774   9.645   5.649  0.2598  0.1372 -0.5901
  662MOL0     C91232   8.796   9.525   5.550  0.7798 -0.3242  0.5579
  662MOL0     C91233   8.740   9.560   5.402  0.5294 -0.8322  0.8242
  662MOL0     C91234   8.708   9.428   5.326 -0.1436  0.5475  0.1711
  662MOL0     N91235   8.719   9.439   5.179 -0.5110  0.0755 -0.4677
  662MOL0     C91236   8.619   9.499   5.117  0.7218 -0.5078  0.5944
  662MOL0     C91237   8.642   9.473   4.987 -0.0959  0.2727 -0.3254
  662MOL0     C91238   8.561   9.509   4.864  0.6802  0.1285  0.3829
  662MOL0     C91239   8.653   9.498   4.740  0.4501 -0.4391  0.2827
  662MOL0     C91240   8.567   9.560   4.627  0.4591  0.3604  0.6127
  662MOL0     C91241   8.652   9.565   4.501 -0.6975  0.1488 -0.0721
  662MOL0     O91242   8.728   9.447   4.470  0.6629  0.5361 -0.3272
  662MOL0     C91243   8.676   9.333   4.417 -0.2735 -0.2045 -0.4417
  662MOL0     C91244   8.761   9.216   4.434 -0.2841 -0.4080 -0.6640
  662MOL0     C91245   8.711   9.090   4.399 -0.3754  0.3676 -0.0552
  662MOL0     C91246   8.811   8.980   4.416 -0.3603  0.7706  0.5187
  662MOL0     C91247   8.580   9.079   4.337 -0.3345  0.4306 -0.1859
  662MOL0     C91248   8.517   8.954   4.297  0.5215 -0.3173  0.0697
  662MOL0     O91249   8.377   8.961   4.292 -0.0682 -0.1013  0.4564
  662MOL0     C91250   8.305   8.857   4.242 -0.2679  0.1480 -0.1108
  662MOL0     C91251   8.225   8.872   4.128 -0.6228  0.2808  0.2722
  662MOL0     C91252   8.159   8.760   4.073  0.1388 -0.4018 -0.1360
  662MOL0     C91253   8.152   8.635   4.128 -0.0563  0.6444 -0.5583
  662MOL0     O91254   8.063   8.527   4.098 -1.0477  0.0890 -0.7559
  662MOL0     C91255   8.008   8.536   3.969  0.3299 -0.6272  0.1176
  662MOL0     C91256   7.942   8.404   3.926  0.6131 -0.2315 -0.7591
  662MOL0     C91257   8.055   8.310   3.915 -0.1431 -0.1665  0.2089
  662MOL0     C91258   8.027   8.169   3.870 -0.6728  0.2557  0.8261
  662MOL0     C91259   8.146   8.072   3.860 -0.0949  0.1004  0.2613
  662MOL0     C91260   8.091   7.936   3.810  0.2608  0.5668 -0.3057
  662MOL0     C91261   8.190   7.875   3.710 -0.1260 -0.1144 -0.2329
  662MOL0     C91262   8.200   7.725   3.706  0.4335  0.5912 -0.9563
  662MOL0    Cl91263   8.319   7.685   3.571 -0.0345 -0.2230 -0.5635
  662MOL0     C91264   8.242   8.623   4.234  1.0138 -0.5006 -0.2092
  662MOL0     C91265   8.318   8.727   4.297 -0.1185 -0.3027 -0.3642
  662MOL0     O91266   8.590   8.865   4.255  0.2035 -0.1172 -0.1277
  662MOL0     C91267   8.500   9.198   4.334 -0.1306 -1.0477  0.1253
  662MOL0     C91268   8.546   9.323   4.367  0.2121  0.9185 -0.0363
  662MOL0     N91269   8.741   9.385   4.981 -0.3032  1.0272 -0.8406
  662MOL0     N91270   8.795   9.365   5.100  1.0314  0.1980  0.2958
  662MOL0     C91271   9.000   9.352   6.252  1.0262  0.4781  0.0775
  662MOL0     C91272   8.973   9.252   6.352 -0.1794  0.1647  0.2276
  662MOL0     C91273   8.938   9.019   6.725  0.4819 -0.6396 -0.2203
  662MOL0     C91274   8.804   9.002   6.736  1.4022  0.0030  0.0435
  662MOL0     C91275   8.753   8.914   6.835  0.0047 -0.0981  0.4920
  662MOL0     C91276   8.836   8.861   6.933 -0.3375  0.7474  0.2020
  662MOL0     O91277   8.790   8.766   7.024 -0.5261 -0.7797 -0.2630
  662MOL0     C91278   8.659   8.723   7.044 -0.3539  0.2715 -0.7530
  662MOL0     C91279   8.583   8.826   7.118  0.2013 -0.6789  0.1519
  662MOL0     C91280   8.447   8.776   7.144 -0.8980  0.0141 -0.3438
  662MOL0     C91281   8.356   8.893   7.173 -0.0909 -0.2764  0.8754
  662MOL0     C91282   8.381   8.950   7.297 -0.0052 -0.3099 -0.6246
  662MOL0     C91283   8.416   9.002   7.399  0.0563  0.2679 -0.5767
  662MOL0     C91284   8.972   8.893   6.930  0.1749  0.4403 -0.9993
  662MOL0     C91285   9.026   8.962   6.821  0.0878 -0.2380 -0.3572
  662MOL0     C91286   9.177   8.975   6.818  0.4390  0.2417  0.1535
  662MOL0     H91287   8.824   9.435   6.589  1.8433 -1.4431  2.5078
  662MOL0     H91288   8.860   9.619   6.417 -0.1772 -0.8433  1.7101
  662MOL0     H91289   8.931   9.493   6.008 -0.8199  0.5110 -0.0870
  662MOL0     H91290   9.109   9.495   6.045 -1.9695 -2.1412  0.4760
  662MOL0     H91291   8.968   9.756   6.019  0.5281 -0.2167  2.1366
  662MOL0     H91292   9.125   9.705   5.961 -0.8318  0.0184  0.8914
  662MOL0     H91293   8.969   9.778   5.775 -1.6272 -0.4409  0.7917
  662MOL0     H91294   9.035   9.616   5.746 -1.5923 -1.8813 -0.8101
  662MOL0     H91295   8.822   9.519   5.824  3.5393  0.8053  2.1415
  662MOL0     H91296   8.768   9.688   5.854 -0.7329  0.3320  0.5307
  662MOL0     H91297   8.804   9.740   5.604 -3.2807  1.2039 -0.9559
  662MOL0     H91298   8.667   9.661   5.662  0.0304 -2.1319  0.9887
  662MOL0     H91299   8.904   9.516   5.538  1.0195  3.2507 -1.4400
  662MOL0     H91300   8.741   9.439   5.589 -1.9745  1.3843  0.7363
  662MOL0     H91301   8.807   9.629   5.350 -0.6686 -1.1199 -1.2043
  662MOL0     H91302   8.645   9.613   5.404  1.4584  1.1731 -2.1233
  662MOL0     H91303   8.770   9.347   5.363  1.6909 -0.3493 -4.1849
  662MOL0     H91304   8.603   9.407   5.350  0.4182 -1.0575  1.3953
  662MOL0     H91305   8.539   9.566   5.149  3.0204  3.4559 -1.1322
  662MOL0     H91306   8.518   9.608   4.881 -1.2404 -1.0786  3.2270
  662MOL0     H91307   8.482   9.437   4.844  1.8109 -0.9478 -0.3080
  662MOL0     H91308   8.742   9.557   4.761 -0.5264  0.5346  1.8698
  662MOL0     H91309   8.686   9.399   4.708 -2.0572 -0.0695 -4.3276
  662MOL0     H91310   8.482   9.495   4.607 -0.6202  1.9971 -0.2856
  662MOL0     H91311   8.529   9.661   4.648 -2.7767 -0.9247  1.4859
  662MOL0     H91312   8.588   9.598   4.418  0.4684 -1.1965 -1.5705
  662MOL0     H91313   8.722   9.647   4.513  4.0616 -3.4806 -0.2533
  662MOL0     H91314   8.856   9.219   4.487  0.3399 -1.6695 -1.6550
  662MOL0     H91315   8.854   8.940   4.324 -3.3379 -3.2645  0.5905
  662MOL0     H91316   8.760   8.894   4.461  1.8506  0.6215  2.9587
  662MOL0     H91317   8.888   9.002   4.491  0.2500 -1.1506  0.4981
  662MOL0     H91318   8.241   8.961   4.069 -0.2459  0.9676  1.3754
  662MOL0     H91319   8.095   8.782   3.988  1.1619  0.3636 -0.7188
  662MOL0     H91320   7.945   8.625   3.972  2.9755  1.3712 -0.0029
  662MOL0     H91321   8.085   8.573   3.900 -0.5936  4.7136  1.4831
  662MOL0     H91322   7.870   8.367   4.000 -0.2286  1.3081 -0.7658
  662MOL0     H91323   7.896   8.410   3.827 -0.4712 -0.0901 -0.2634
  662MOL0     H91324   8.109   8.316   4.010 -2.3265  5.1174  1.4603
  662MOL0     H91325   8.115   8.351   3.834 -1.3934  0.5308 -0.3877
  662MOL0     H91326   7.976   8.171   3.773  0.2024 -0.0791  0.3420
  662MOL0     H91327   7.950   8.117   3.927 -1.5092 -1.6291 -1.8188
  662MOL0     H91328   8.223   8.099   3.787  0.3067 -0.5221  0.4461
  662MOL0     H91329   8.205   8.073   3.952 -2.0654  0.1270  1.5872
  662MOL0     H91330   7.988   7.934   3.772  0.3216  1.0223 -0.5061
  662MOL0     H91331   8.082   7.874   3.899  2.9235  0.8354  0.2398
  662MOL0     H91332   8.287   7.919   3.737 -0.8807  1.9048 -0.6294
  662MOL0     H91333   8.158   7.915   3.614  2.6595 -0.2002 -1.2880
  662MOL0     H91334   8.100   7.683   3.693  0.7250 -0.2887 -0.4388
  662MOL0     H91335   8.240   7.690   3.802  2.0763  2.9172 -0.6983
  662MOL0     H91336   8.260   8.528   4.283 -0.8190 -0.6697  0.2152
  662MOL0     H91337   8.380   8.710   4.385 -1.5400  4.4672  1.8804
  662MOL0     H91338   8.401   9.198   4.291  0.3282 -0.8032 -0.9648
  662MOL0     H91339   8.467   9.397   4.359 -2.2451 -1.6703 -1.3815
  662MOL0     H91340   9.031   9.312   6.156 -0.7017  2.3018 -1.3372
  662MOL0     H91341   8.991   9.149   6.324  2.0572  0.3922  0.7025
  662MOL0     H91342   8.747   9.041   6.652 -0.5706  0.0441  1.3521
  662MOL0     H91343   8.651   8.880   6.821 -0.1318  1.2729 -2.8481
  662MOL0     H91344   8.612   8.703   6.947 -1.2542  0.9062 -0.4694
  662MOL0     H91345   8.651   8.633   7.105  0.1590  1.0776  0.5475
  662MOL0     H91346   8.565   8.921   7.067  0.5807  0.8885  2.7694
  662MOL0     H91347   8.650   8.833   7.204 -0.4081 -3.8399  1.0006
  662MOL0     H91348   8.419   8.737   7.045 -2.5067  0.3507 -0.0351
  662MOL0     H91349   8.441   8.704   7.226  2.1975 -1.1352 -0.9701
  662MOL0     H91350   8.254   8.854   7.177 -0.4458  0.4529 -0.4004
  662MOL0     H91351   8.362   8.960   7.086 -3.2472 -2.2464 -1.0664
  662MOL0     H91352   8.464   9.051   7.481  0.2723 -0.5856 -0.1890
  662MOL0     H91353   9.038   8.861   7.010 -0.8434  3.0521  1.0174
  662MOL0     H91354   9.227   8.942   6.909  1.7894 -2.7296 -1.5026
  662MOL0     H91355   9.227   8.914   6.742  0.1730  0.1045  0.0852
  662MOL0     H91356   9.208   9.076   6.792  0.0509  0.6641  1.2733
  663MOL0     O91357   7.188   2.562   2.212  0.7300  0.0900  0.4533
  663MOL0     C91358   7.192   2.617   2.100 -0.6970 -0.8543 -0.0209
  663MOL0     O91359   7.291   2.711   2.067 -0.1613 -0.3362  0.2169
  663MOL0     C91360   7.387   2.765   2.144 -0.2944 -0.2608 -0.1856
  663MOL0     C91361   7.509   2.810   2.091 -0.5589  0.2639  0.5034
  663MOL0     C91362   7.619   2.851   2.173 -0.3442 -0.3097  0.3168
  663MOL0     C91363   7.605   2.845   2.310 -0.5274 -0.5866 -0.8425
  663MOL0     O91364   7.716   2.880   2.381 -0.5888  0.6823 -0.9301
  663MOL0     C91365   7.751   2.789   2.484  0.2994  0.5331  0.4230
  663MOL0     C91366   7.870   2.841   2.552  0.0140  0.4323 -0.4871
  663MOL0     C91367   7.936   2.726   2.633 -0.2998 -0.7368 -0.9268
  663MOL0     C91368   8.053   2.766   2.729  1.5568 -0.5522 -0.1096
  663MOL0     C91369   8.155   2.651   2.771  0.1700 -0.0315 -0.4471
  663MOL0     C91370   8.076   2.529   2.793 -0.7196  0.2759 -0.1730
  663MOL0     C91371   8.159   2.414   2.851  0.9910 -0.0571 -0.2124
  663MOL0     C91372   8.215   2.450   2.986 -0.3559  0.4754 -0.8922
  663MOL0     N91373   8.284   2.336   3.052  0.2493 -0.0599  0.8325
  663MOL0     C91374   8.332   2.219   2.990 -0.1578  0.3439 -0.8113
  663MOL0     C91375   8.419   2.173   3.085  0.0879  0.9818 -0.7968
  663MOL0     C91376   8.499   2.044   3.066 -0.3923 -1.0907 -0.5266
  663MOL0     C91377   8.645   2.069   3.041  0.0518  0.3480  0.3246
  663MOL0     C91378   8.740   1.949   3.007 -0.1364  0.7671  0.3791
  663MOL0     C91379   8.688   1.877   2.877 -0.1053  0.1837 -0.3547
  663MOL0     O91380   8.695   1.949   2.754  0.5063  0.1577  0.0737
  663MOL0     C91381   8.818   1.948   2.691  0.1042  0.0408  0.1338
  663MOL0     C91382   8.816   2.013   2.567  0.6670 -0.2156 -0.5974
  663MOL0     C91383   8.926   2.025   2.477 -0.7251  0.3437 -0.2229
  663MOL0     C91384   8.914   2.111   2.348  1.0237  1.0290  0.0302
  663MOL0     C91385   9.037   1.936   2.498 -0.4823  0.4746 -0.0716
  663MOL0     C91386   9.151   1.921   2.396 -0.1366  0.1224  0.3940
  663MOL0     O91387   9.279   1.912   2.455  0.2843 -0.0450 -0.0751
  663MOL0     C91388   9.403   1.916   2.403 -0.7725 -0.1970 -0.3594
  663MOL0     C91389   9.438   1.911   2.271  0.3889 -0.3628 -0.6797
  663MOL0     C91390   9.569   1.931   2.231 -0.5914 -0.3006 -0.0474
  663MOL0     C91391   9.677   1.936   2.323 -0.7742  0.3523  0.0944
  663MOL0     O91392   9.808   1.941   2.288 -0.1753 -0.5039  0.6662
  663MOL0     C91393   9.845   1.891   2.162 -0.9139 -0.0211 -0.8564
  663MOL0     C91394   9.995   1.920   2.146 -0.1486 -0.0226 -1.0214
  663MOL0     C91395  10.054   1.810   2.063  0.0161 -0.2476  0.9690
  663MOL0     C91396  10.205   1.819   2.065  0.4726  0.0419  0.3664
  663MOL0     C91397  10.268   1.940   1.998 -0.7050  0.2452 -0.0234
  663MOL0     C91398  10.244   1.946   1.845 -0.8132  0.5371 -0.1966
  663MOL0     C91399  10.296   1.820   1.763  0.5619  0.1135 -0.6522
  663MOL0     C91400  10.457   1.814   1.748 -0.3828  0.1904 -0.4109
  663MOL0    Cl91401  10.524   1.949   1.650 -0.1262  0.3568 -0.0395
  663MOL0     C91402   9.642   1.940   2.458 -0.0482 -0.0452  0.5978
  663MOL0     C91403   9.509   1.913   2.499  0.1052 -0.2724  0.5711
  663MOL0     O91404   9.128   1.926   2.274 -0.1047  0.7239 -1.0537
  663MOL0     C91405   9.044   1.869   2.624 -0.0655 -0.0949 -0.6511
  663MOL0     C91406   8.934   1.874   2.715  0.0875  0.3079  0.4626
  663MOL0     N91407   8.406   2.255   3.203 -0.0836 -0.2921  0.5123
  663MOL0     N91408   8.323   2.349   3.177  0.1669 -0.8822 -0.3591
  663MOL0     C91409   7.484   2.795   2.364 -0.4147  0.3406  0.5150
  663MOL0     C91410   7.372   2.773   2.283 -0.7760  0.3167 -0.1064
  663MOL0     C91411   7.086   2.576   2.008  0.3254 -0.4226 -0.5007
  663MOL0     C91412   6.972   2.491   2.058 -0.5447  0.4245  0.4405
  663MOL0     C91413   6.879   2.448   1.963 -0.2951 -0.2953 -1.0563
  663MOL0     C91414   6.880   2.492   1.827 -0.6005 -0.6190 -0.0083
  663MOL0     O91415   6.764   2.454   1.759 -0.2694 -0.1741  0.0896
  663MOL0     C91416   6.736   2.510   1.629 -0.1214 -0.7718 -0.2899
  663MOL0     C91417   6.825   2.449   1.515 -0.8310 -1.0953 -0.6424
  663MOL0     C91418   6.811   2.296   1.508 -0.0489  0.9335  0.3133
  663MOL0     C91419   6.872   2.234   1.381  0.3731  0.0993  0.2889
  663MOL0     C91420   6.871   2.087   1.382 -0.0654 -0.8439  0.6571
  663MOL0     C91421   6.863   1.969   1.397  0.4070 -0.2093  0.4094
  663MOL0     C91422   6.974   2.583   1.782  0.5204 -0.7863  0.0922
  663MOL0     C91423   7.072   2.627   1.878 -0.7202 -0.4876 -0.0725
  663MOL0     C91424   7.149   2.750   1.828 -0.7356  0.0987 -0.4036
  663MOL0     H91425   7.510   2.810   1.983  3.5050 -3.2622  0.2928
  663MOL0     H91426   7.709   2.884   2.121 -0.8977  3.1604  1.2927
  663MOL0     H91427   7.783   2.694   2.440  0.9805 -0.4040  2.7647
  663MOL0     H91428   7.676   2.757   2.558  0.7625 -1.6930  0.0044
  663MOL0     H91429   7.939   2.880   2.477  0.2522  2.2313  0.6196
  663MOL0     H91430   7.850   2.916   2.629  0.4277  0.5954 -0.5391
  663MOL0     H91431   7.856   2.678   2.689 -0.9719 -2.1401 -2.9541
  663MOL0     H91432   7.970   2.658   2.554  0.2999  0.0820 -1.3919
  663MOL0     H91433   8.116   2.845   2.689  1.9290  0.7201  2.7509
  663MOL0     H91434   8.007   2.808   2.819  2.0966  3.3489 -1.4830
  663MOL0     H91435   8.214   2.691   2.854  1.4668 -1.1108 -0.8026
  663MOL0     H91436   8.229   2.625   2.695  1.9282 -3.3580  2.1404
  663MOL0     H91437   7.995   2.562   2.858  1.3949  1.9966  1.7298
  663MOL0     H91438   8.027   2.490   2.703  1.6252 -1.8461 -0.6549
  663MOL0     H91439   8.246   2.396   2.787  0.3612  3.5854 -2.3678
  663MOL0     H91440   8.096   2.325   2.859  1.8061 -0.5054  2.7217
  663MOL0     H91441   8.293   2.527   2.981  1.1274 -0.4776  3.4318
  663MOL0     H91442   8.142   2.483   3.061 -1.7808 -0.8153 -1.6584
  663MOL0     H91443   8.297   2.173   2.897 -1.8546 -0.4596  0.1679
  663MOL0     H91444   8.459   1.975   2.992  2.7130 -2.0765 -1.4442
  663MOL0     H91445   8.472   1.996   3.160 -4.1659 -0.3064 -1.0351
  663MOL0     H91446   8.649   2.140   2.957 -2.1125 -0.6723 -0.7106
  663MOL0     H91447   8.678   2.132   3.124  0.8171  0.9036 -0.3808
  663MOL0     H91448   8.841   1.990   2.994  0.8807 -1.1873  1.6738
  663MOL0     H91449   8.752   1.880   3.091  1.1758  2.3164  1.5420
  663MOL0     H91450   8.740   1.781   2.868  0.0695  0.1835  0.5752
  663MOL0     H91451   8.585   1.846   2.899  0.5806 -3.3533 -1.5543
  663MOL0     H91452   8.722   2.058   2.537 -0.9817 -2.5069  0.7749
  663MOL0     H91453   8.828   2.179   2.355  1.5033  1.5477  1.2306
  663MOL0     H91454   8.897   2.052   2.259  3.9865  0.7057 -0.4407
  663MOL0     H91455   9.014   2.155   2.338  1.9032  0.4528  4.2117
  663MOL0     H91456   9.354   1.922   2.203 -0.6437  2.5221  0.8678
  663MOL0     H91457   9.578   1.932   2.123 -0.5230  1.3570 -0.0494
  663MOL0     H91458   9.816   1.788   2.139 -2.1993  0.0797  0.1960
  663MOL0     H91459   9.797   1.958   2.090 -1.4248 -0.1390 -0.6293
  663MOL0     H91460  10.001   2.020   2.102 -0.8932 -0.4339 -2.1097
  663MOL0     H91461  10.040   1.910   2.245 -0.9573  0.3495 -0.6115
  663MOL0     H91462  10.012   1.815   1.962  3.1424 -2.0406 -0.5595
  663MOL0     H91463  10.039   1.710   2.105 -0.5293 -0.1074  1.1142
  663MOL0     H91464  10.244   1.725   2.024  3.6144  1.3237  0.1801
  663MOL0     H91465  10.231   1.820   2.171 -2.0303  0.8971  1.0308
  663MOL0     H91466  10.251   2.038   2.043 -0.3443  0.1678  0.2895
  663MOL0     H91467  10.372   1.908   2.012 -1.0602 -1.7069 -1.3921
  663MOL0     H91468  10.289   2.042   1.817  4.9284 -1.5944  0.2572
  663MOL0     H91469  10.140   1.969   1.822 -0.5172  1.4437 -0.6787
  663MOL0     H91470  10.261   1.822   1.659 -0.1693 -3.6855 -0.5988
  663MOL0     H91471  10.263   1.730   1.815 -0.3683  1.4672  1.2190
  663MOL0     H91472  10.479   1.719   1.699 -1.7907 -0.0159 -0.6708
  663MOL0     H91473  10.496   1.801   1.850 -3.0046  1.2208  0.7939
  663MOL0     H91474   9.719   1.939   2.535 -0.2452 -0.3220  0.7960
  663MOL0     H91475   9.490   1.899   2.605 -0.0114  0.2687  0.6255
  663MOL0     H91476   9.137   1.815   2.640  0.5070  1.1319  0.3847
  663MOL0     H91477   8.940   1.810   2.802 -0.4521  2.0043  1.7988
  663MOL0     H91478   7.462   2.787   2.470 -3.3962  0.0419 -0.0454
  663MOL0     H91479   7.286   2.747   2.343 -0.3571  0.6601  0.6661
  663MOL0     H91480   6.962   2.457   2.160 -0.6294 -0.9632 -0.0118
  663MOL0     H91481   6.799   2.383   1.997 -0.4666  0.4424  0.0053
  663MOL0     H91482   6.633   2.480   1.611 -0.5158  1.9259 -3.4770
  663MOL0     H91483   6.740   2.619   1.619  1.2701 -0.8053 -0.4298
  663MOL0     H91484   6.927   2.486   1.520 -0.7281 -1.0585 -2.3537
  663MOL0     H91485   6.785   2.492   1.423 -1.8351  1.0253  0.7257
  663MOL0     H91486   6.856   2.251   1.597 -0.0687  1.2864  0.5063
  663MOL0     H91487   6.706   2.267   1.500  0.3348 -0.4902  0.1182
  663MOL0     H91488   6.977   2.263   1.365  0.7808 -1.7791 -0.7504
  663MOL0     H91489   6.818   2.279   1.297 -1.3209 -0.5417  1.0130
  663MOL0     H91490   6.846   1.864   1.410  0.2816 -0.2133  0.2212
  663MOL0     H91491   6.962   2.621   1.681 -0.1059  2.6570  1.3169
  663MOL0     H91492   7.117   2.775   1.727 -0.6209  0.8568 -0.2547
  663MOL0     H91493   7.127   2.831   1.898 -0.2650 -1.2285  1.3438
  663MOL0     H91494   7.257   2.728   1.823 -1.3042 -3.3077 -0.4202
  664MOL0     O91495   1.712   0.549   8.495  0.0723 -0.5377 -1.4036
  664MOL0     C91496   1.754   0.449   8.530 -0.2189  0.6789 -0.7709
  664MOL0     O91497   1.706   0.364   8.624  0.1934 -0.3280 -0.0026
  664MOL0     C91498   1.648   0.410   8.739 -0.1161  0.4143 -0.4141
  664MOL0     C91499   1.541   0.342   8.792  0.3391  0.8923 -0.1054
  664MOL0     C91500   1.497   0.356   8.927  0.4834 -0.7039 -0.3852
  664MOL0     C91501   1.553   0.464   9.001 -0.1775  0.7943 -0.0916
  664MOL0     O91502   1.505   0.507   9.123  0.3222 -0.5668 -0.0311
  664MOL0     C91503   1.519   0.422   9.241 -0.6446  0.0532 -0.0150
  664MOL0     C91504   1.390   0.343   9.277  0.6000  0.4369 -0.4929
  664MOL0     C91505   1.407   0.278   9.421  0.3810 -0.2079 -0.3317
  664MOL0     C91506   1.315   0.161   9.455 -0.1525  0.4799 -0.0785
  664MOL0     C91507   1.176   0.159   9.386 -0.6344 -0.2615  0.6615
  664MOL0     C91508   1.107   0.024   9.413 -0.6359  0.1476  0.5202
  664MOL0     C91509   0.953   0.020   9.401 -0.1941 -0.2747  0.0302
  664MOL0     C91510   0.900  -0.047   9.268  1.0132  1.1076  0.6008
  664MOL0     N91511   0.951   0.027   9.151 -0.2442 -0.0970 -0.3302
  664MOL0     C91512   0.935   0.160   9.111  0.5824  1.3159 -0.5279
  664MOL0     C91513   1.022   0.168   9.010  0.7226  0.6773  0.9671
  664MOL0     C91514   1.053   0.284   8.926  0.1485 -0.1409  0.0644
  664MOL0     C91515   1.101   0.384   9.023 -0.3236 -0.1212 -0.6635
  664MOL0     C91516   1.125   0.524   8.966  0.3773 -0.4701  1.1873
  664MOL0     C91517   1.005   0.623   8.949 -0.6188  0.7359 -0.2011
  664MOL0     O91518   0.894   0.570   8.876 -0.1438  0.2984 -0.0824
  664MOL0     C91519   0.871   0.590   8.744 -0.3640 -1.0033  0.3112
  664MOL0     C91520   0.746   0.559   8.691  0.8174 -1.0255 -0.3948
  664MOL0     C91521   0.728   0.558   8.550 -0.2745 -0.6848  0.3162
  664MOL0     C91522   0.603   0.512   8.503  0.1958 -0.5190  0.5163
  664MOL0     C91523   0.827   0.623   8.471 -1.7200 -0.8470  0.9993
  664MOL0     C91524   0.811   0.630   8.321 -0.4892 -0.5573  0.4391
  664MOL0     O91525   0.861   0.738   8.259 -0.3790  0.8034  1.0133
  664MOL0     C91526   0.816   0.761   8.131  1.1755  0.3952 -0.9322
  664MOL0     C91527   0.705   0.851   8.108  0.0290  0.4296  0.3827
  664MOL0     C91528   0.648   0.870   7.978  0.0607  0.0923  1.1647
  664MOL0     C91529   0.710   0.804   7.872  0.3821  0.3928  0.5183
  664MOL0     O91530   0.673   0.818   7.742  0.6230  0.5141 -0.1487
  664MOL0     C91531   0.666   0.689   7.670 -0.7147  0.4174 -1.0400
  664MOL0     C91532   0.600   0.730   7.543  1.1158 -0.4732  0.0037
  664MOL0     C91533   0.565   0.607   7.456  0.4488  0.1445  0.3000
  664MOL0     C91534   0.474   0.501   7.517 -0.6326  0.5259 -0.9267
  664MOL0     C91535   0.438   0.391   7.414 -0.2067  0.2579 -0.6371
  664MOL0     C91536   0.558   0.305   7.350 -0.5780 -0.2083 -1.2261
  664MOL0     C91537   0.493   0.209   7.252 -0.4006  0.5756 -0.1641
  664MOL0     C91538   0.406   0.258   7.134 -0.0382 -0.0985  0.0503
  664MOL0    Cl91539   0.469   0.380   7.032 -0.5592 -0.0253 -0.2603
  664MOL0     C91540   0.829   0.736   7.890 -0.4244 -0.3649  0.2224
  664MOL0     C91541   0.882   0.712   8.019  0.4029  0.7191 -0.5682
  664MOL0     O91542   0.760   0.536   8.266  0.1550  0.4859 -0.2807
  664MOL0     C91543   0.948   0.658   8.527  0.9598 -0.6505  0.9432
  664MOL0     C91544   0.970   0.641   8.660  0.6351  0.4955  0.3075
  664MOL0     N91545   1.086   0.050   8.991 -0.4995  0.7819 -0.0238
  664MOL0     N91546   1.033  -0.034   9.073  0.0932  0.0569  1.0439
  664MOL0     C91547   1.665   0.536   8.950  0.7070  0.5552 -0.2418
  664MOL0     C91548   1.712   0.513   8.822  0.0752  1.0468 -0.5273
  664MOL0     C91549   1.885   0.405   8.468  0.2317  0.1892  1.1486
  664MOL0     C91550   1.920   0.270   8.472  0.5467 -0.7842  0.0448
  664MOL0     C91551   2.041   0.229   8.429 -0.7681  0.9435 -0.3301
  664MOL0     C91552   2.132   0.314   8.367  0.4489  0.2115 -1.2238
  664MOL0     O91553   2.256   0.283   8.331 -0.8757 -0.6662  0.1229
  664MOL0     C91554   2.303   0.153   8.355 -0.5129  0.1577 -0.7785
  664MOL0     C91555   2.429   0.125   8.271 -0.0866  0.3660 -0.4642
  664MOL0     C91556   2.496  -0.005   8.314 -0.4027  0.3152  0.5925
  664MOL0     C91557   2.419  -0.130   8.283  0.6803 -1.2742  0.7293
  664MOL0     C91558   2.481  -0.230   8.363  1.0418 -0.3043 -0.4340
  664MOL0     C91559   2.529  -0.315   8.435 -0.3277  0.8054  0.1012
  664MOL0     C91560   2.103   0.450   8.361 -0.4127  0.3317 -0.3078
  664MOL0     C91561   1.980   0.502   8.412  0.1938 -0.0279  0.3935
  664MOL0     C91562   1.951   0.652   8.384 -0.4278 -0.5384 -0.5334
  664MOL0     H91563   1.502   0.267   8.724 -0.8601  2.0134 -0.7027
  664MOL0     H91564   1.422   0.290   8.970  0.4932  0.3087  1.2934
  664MOL0     H91565   1.542   0.486   9.327 -1.8884 -0.3804  0.6800
  664MOL0     H91566   1.596   0.346   9.228  0.2514  1.1001 -0.9993
  664MOL0     H91567   1.299   0.404   9.278  0.3710  0.4977  4.7694
  664MOL0     H91568   1.374   0.258   9.209 -2.6253  0.1431  0.4502
  664MOL0     H91569   1.509   0.245   9.439  0.0649 -0.9120  0.2709
  664MOL0     H91570   1.386   0.355   9.496  0.1552  1.2585 -1.8551
  664MOL0     H91571   1.360   0.064   9.430 -0.7715  0.2076 -0.1553
  664MOL0     H91572   1.305   0.159   9.564 -3.7450 -0.9500 -0.2966
  664MOL0     H91573   1.191   0.157   9.278 -0.7980 -0.2124  0.6380
  664MOL0     H91574   1.115   0.246   9.413  1.3661  0.3738  3.6518
  664MOL0     H91575   1.152  -0.065   9.367  3.0631  2.6442 -1.1804
  664MOL0     H91576   1.134   0.010   9.518  0.2119  1.2752  0.4673
  664MOL0     H91577   0.910   0.120   9.414  2.3460  0.9905 -0.7306
  664MOL0     H91578   0.905  -0.039   9.481 -0.9309  2.0208  1.3667
  664MOL0     H91579   0.930  -0.152   9.263 -0.3947  0.6251  1.7030
  664MOL0     H91580   0.791  -0.037   9.267  0.9545  0.4733  0.2970
  664MOL0     H91581   0.869   0.235   9.154  0.6394  1.2209 -0.2773
  664MOL0     H91582   0.960   0.319   8.881 -0.9217  1.1492  3.0165
  664MOL0     H91583   1.120   0.246   8.848 -0.2859 -1.4926  0.3189
  664MOL0     H91584   1.026   0.402   9.101 -1.1842  0.0010 -1.5101
  664MOL0     H91585   1.194   0.349   9.068 -0.0466  1.3503 -0.0079
  664MOL0     H91586   1.201   0.571   9.029 -0.5638 -0.0600  2.0507
  664MOL0     H91587   1.164   0.509   8.865  0.8358 -0.0092  1.2918
  664MOL0     H91588   0.962   0.643   9.047  1.7168  0.9649  0.8432
  664MOL0     H91589   1.039   0.721   8.914 -2.9682  2.3351  1.6802
  664MOL0     H91590   0.684   0.516   8.770  1.1614  2.2239  1.8326
  664MOL0     H91591   0.621   0.429   8.435  0.9077  2.4584 -3.2376
  664MOL0     H91592   0.560   0.594   8.445  1.5039 -2.2556 -3.1946
  664MOL0     H91593   0.539   0.474   8.583 -3.1055  0.8405 -1.2884
  664MOL0     H91594   0.649   0.898   8.188 -0.2039  3.2337 -1.2672
  664MOL0     H91595   0.571   0.945   7.966 -0.7647 -1.1616 -3.3251
  664MOL0     H91596   0.766   0.649   7.652  0.1017  2.4264 -1.3258
  664MOL0     H91597   0.602   0.618   7.723  2.8533 -2.4870 -0.2006
  664MOL0     H91598   0.511   0.791   7.564 -0.0035 -1.3308 -1.9549
  664MOL0     H91599   0.659   0.800   7.483 -2.0667 -0.5817 -3.6770
  664MOL0     H91600   0.654   0.553   7.424  0.6077  0.6365 -0.1023
  664MOL0     H91601   0.510   0.649   7.372 -0.5072 -1.6223 -0.0095
  664MOL0     H91602   0.387   0.556   7.555  2.2937  2.4169  3.9313
  664MOL0     H91603   0.522   0.456   7.604  0.3599  1.2493 -1.0931
  664MOL0     H91604   0.377   0.316   7.464 -0.0401  1.1079  0.8791
  664MOL0     H91605   0.396   0.446   7.329  0.9948  2.0277 -0.1512
  664MOL0     H91606   0.617   0.255   7.427  0.0035 -0.5916 -1.9212
  664MOL0     H91607   0.613   0.371   7.283  0.1524 -0.5728 -0.9941
  664MOL0     H91608   0.413   0.159   7.309 -0.4527  1.0828  0.2194
  664MOL0     H91609   0.562   0.138   7.206 -0.8420 -0.6020  0.9055
  664MOL0     H91610   0.310   0.298   7.168 -0.9268 -0.6522 -1.6826
  664MOL0     H91611   0.376   0.170   7.077 -3.1105  0.4772  0.6089
  664MOL0     H91612   0.888   0.692   7.810 -0.5674  1.7272 -1.1308
  664MOL0     H91613   0.970   0.653   8.042 -1.2194 -1.1324  1.2056
  664MOL0     H91614   1.019   0.706   8.460 -0.9356  1.3537  0.2582
  664MOL0     H91615   1.068   0.664   8.701  0.1056 -0.8397  2.5233
  664MOL0     H91616   1.702   0.612   9.018  1.6306  0.2599 -0.4059
  664MOL0     H91617   1.802   0.564   8.788  1.6616  0.4147  2.3990
  664MOL0     H91618   1.856   0.191   8.511 -0.4813 -1.4271 -2.6978
  664MOL0     H91619   2.044   0.120   8.426  1.6010  0.7425  3.3116
  664MOL0     H91620   2.326   0.144   8.461  0.1741  1.7527 -0.7623
  664MOL0     H91621   2.228   0.079   8.327 -2.2906  1.4434  0.4162
  664MOL0     H91622   2.504   0.205   8.275  1.5591 -0.9648 -2.6036
  664MOL0     H91623   2.406   0.124   8.164 -0.5654  0.0009 -0.3623
  664MOL0     H91624   2.595   0.007   8.268 -0.4939 -0.4872  0.1809
  664MOL0     H91625   2.515  -0.005   8.422  2.8088  2.0074  0.1624
  664MOL0     H91626   2.416  -0.147   8.175 -0.6696  1.4016  0.2620
  664MOL0     H91627   2.314  -0.130   8.315  0.5454  2.1644  0.6589
  664MOL0     H91628   2.577  -0.384   8.501  2.9676  1.7355 -1.1432
  664MOL0     H91629   2.170   0.517   8.309 -0.1606 -0.4885 -1.0669
  664MOL0     H91630   2.042   0.701   8.348  0.2304 -0.2175  1.4351
  664MOL0     H91631   1.879   0.662   8.303 -0.0376  0.0038 -0.8202
  664MOL0     H91632   1.920   0.705   8.474  0.0740 -1.0300 -0.0656
  665MOL0     O91633   1.902   9.606   7.775  0.0502  0.2889  0.1837
  665MOL0     C91634   1.859   9.511   7.716  0.2342  0.0015 -0.5553
  665MOL0     O91635   1.764   9.525   7.620 -0.5074  0.1692 -0.1078
  665MOL0     C91636   1.734   9.643   7.562 -0.4759  0.4976  0.0086
  665MOL0     C91637   1.763   9.663   7.430 -0.3575  0.7098  0.4958
  665MOL0     C91638   1.724   9.781   7.366 -0.7670 -0.0439 -0.5432
  665MOL0     C91639   1.663   9.883   7.443  0.4476  0.2759  0.2821
  665MOL0     O91640   1.618  10.004   7.386  0.1043  0.9277  0.3444
  665MOL0     C91641   1.677  10.041   7.263  0.4590 -0.2665 -0.1247
  665MOL0     C91642   1.627  10.187   7.246 -0.5930  0.1628 -0.1809
  665MOL0     C91643   1.468  10.200   7.235  0.4697  0.5291 -0.2091
  665MOL0     C91644   1.438  10.319   7.126  0.3323 -0.2190 -0.4651
  665MOL0     C91645   1.288  10.353   7.128 -0.2726  0.2057  0.0849
  665MOL0     C91646   1.238  10.488   7.069 -0.6093 -0.0371 -0.2432
  665MOL0     C91647   1.291  10.504   6.924 -0.8130 -0.8673 -0.1326
  665MOL0     C91648   1.439  10.578   6.909  1.3862  0.2302 -0.2785
  665MOL0     N91649   1.495  10.536   6.777  1.0546 -0.9318  0.0520
  665MOL0     C91650   1.564  10.424   6.755  0.0387  1.0400 -0.9806
  665MOL0     C91651   1.596  10.424   6.629 -1.1907 -0.3077  0.5932
  665MOL0     C91652   1.669  10.316   6.561  1.0922  0.0257  0.9493
  665MOL0     C91653   1.603  10.291   6.425  0.2858  0.3997 -0.3924
  665MOL0     C91654   1.458  10.229   6.438 -1.3371 -0.5261 -1.0894
  665MOL0     C91655   1.406  10.159   6.317 -0.0704 -0.4094 -0.1031
  665MOL0     O91656   1.397  10.252   6.208  0.1625 -0.0759  0.3050
  665MOL0     C91657   1.275  10.303   6.166 -0.1766 -1.2479  0.9011
  665MOL0     C91658   1.260  10.319   6.028  0.3148  0.4968 -0.0760
  665MOL0     C91659   1.145  10.365   5.965 -0.5889 -0.3885  0.6327
  665MOL0     C91660   1.144  10.361   5.816  0.5905 -0.0976  0.0801
  665MOL0     C91661   1.041  10.418   6.044  0.1832 -0.2106 -0.1823
  665MOL0     C91662   0.908  10.484   5.999 -0.9515  0.2703 -1.3104
  665MOL0     O91663   0.825  10.513   6.102  0.7136  0.1424  0.3004
  665MOL0     C91664   0.695  10.547   6.066 -0.0449  0.2363 -0.1284
  665MOL0     C91665   0.636  10.649   6.145 -0.3974  0.7402 -0.1342
  665MOL0     C91666   0.491  10.665   6.129 -0.2585 -0.1265  0.6496
  665MOL0     C91667   0.421  10.591   6.033  0.2159 -0.7485 -0.5441
  665MOL0     O91668   0.287  10.576   6.024 -0.1473 -0.2874 -0.9635
  665MOL0     C91669   0.198  10.688   6.058 -0.7208  1.0814  0.2603
  665MOL0     C91670   0.109  10.635   6.160  1.3507  0.1227 -2.1426
  665MOL0     C91671  -0.028  10.573   6.107 -0.5447 -0.7687  0.7584
  665MOL0     C91672  -0.123  10.584   6.221 -0.0730 -0.1151 -0.0798
  665MOL0     C91673  -0.247  10.509   6.179 -0.0860  0.2530 -0.8523
  665MOL0     C91674  -0.374  10.547   6.261  0.3882  0.8865  0.6281
  665MOL0     C91675  -0.445  10.678   6.224  0.5334 -1.1796  0.1104
  665MOL0     C91676  -0.552  10.717   6.325  0.5615 -0.7838  0.1065
  665MOL0    Cl91677  -0.671  10.600   6.337 -0.3095  0.1233  0.4291
  665MOL0     C91678   0.485  10.514   5.944  0.2170  0.9353 -1.7026
  665MOL0     C91679   0.617  10.477   5.973 -0.0455 -0.3889  0.3834
  665MOL0     O91680   0.881  10.509   5.878 -0.1922  0.1852 -0.0346
  665MOL0     C91681   1.066  10.416   6.185  0.6399 -0.5140 -0.4147
  665MOL0     C91682   1.173  10.349   6.248  0.4532 -0.1307  0.1881
  665MOL0     N91683   1.556  10.538   6.575  0.4451 -0.2480 -0.6017
  665MOL0     N91684   1.499  10.607   6.667 -0.8140 -1.0973  0.0319
  665MOL0     C91685   1.639   9.864   7.576  0.4763 -0.2218 -0.2090
  665MOL0     C91686   1.666   9.746   7.634 -0.9483  0.1038 -0.9312
  665MOL0     C91687   1.916   9.374   7.735  0.1451  0.0543  0.1547
  665MOL0     C91688   1.891   9.265   7.635 -0.0673  0.0825 -0.6312
  665MOL0     C91689   1.963   9.148   7.658 -0.2588  0.0851  0.2321
  665MOL0     C91690   2.041   9.128   7.766 -0.1848 -0.5134 -0.2379
  665MOL0     O91691   2.103   9.007   7.767  0.4859 -1.0246  0.3963
  665MOL0     C91692   2.251   9.007   7.772 -0.0457 -0.0824  0.4480
  665MOL0     C91693   2.291   8.870   7.708  0.9252  0.7177 -0.8923
  665MOL0     C91694   2.264   8.868   7.552  0.6363  0.6248  1.4076
  665MOL0     C91695   2.383   8.866   7.470  0.6168 -0.1253  0.4024
  665MOL0     C91696   2.461   8.997   7.480  0.4732 -0.4471 -0.2127
  665MOL0     C91697   2.509   9.111   7.467 -0.2982  0.0492 -0.5495
  665MOL0     C91698   2.064   9.220   7.857  0.4221  0.3236  0.2996
  665MOL0     C91699   1.997   9.344   7.843  0.7552  0.3962  0.6007
  665MOL0     C91700   2.025   9.432   7.954  0.1724  0.2615  0.1675
  665MOL0     H91701   1.800   9.578   7.373 -1.6523  0.4522 -0.0132
  665MOL0     H91702   1.743   9.803   7.262 -0.4254  0.8458 -0.3050
  665MOL0     H91703   1.656   9.967   7.185  1.2012 -0.5289 -0.0897
  665MOL0     H91704   1.786  10.050   7.267  0.4389 -0.4345  2.2085
  665MOL0     H91705   1.682  10.240   7.325  2.2760 -1.9508 -0.5740
  665MOL0     H91706   1.675  10.233   7.158 -1.4356  1.9116  0.2312
  665MOL0     H91707   1.429  10.104   7.201 -0.2655  0.9706 -0.6257
  665MOL0     H91708   1.415  10.224   7.328 -1.8051 -2.7220 -0.4979
  665MOL0     H91709   1.487  10.411   7.159 -0.0778  1.1237 -3.2559
  665MOL0     H91710   1.470  10.298   7.023 -3.5012 -1.3777 -1.5688
  665MOL0     H91711   1.240  10.353   7.226 -0.2676  2.0209  0.1200
  665MOL0     H91712   1.241  10.278   7.064 -1.1000 -0.0357  0.9461
  665MOL0     H91713   1.129  10.484   7.062 -0.4690 -1.7560 -2.2512
  665MOL0     H91714   1.256  10.578   7.128  2.1675  0.7165 -2.0726
  665MOL0     H91715   1.225  10.566   6.862  1.7780  0.5995 -1.6350
  665MOL0     H91716   1.290  10.403   6.882 -1.6200 -1.6198  1.6357
  665MOL0     H91717   1.424  10.686   6.917 -1.8524 -0.1228 -0.2153
  665MOL0     H91718   1.497  10.551   6.998  0.6025 -0.0647  0.1557
  665MOL0     H91719   1.581  10.346   6.829 -0.7635  0.0947 -1.7624
  665MOL0     H91720   1.663  10.218   6.609 -1.2750  0.1409  1.0275
  665MOL0     H91721   1.774  10.342   6.545  0.7764  1.9884  1.8469
  665MOL0     H91722   1.606  10.379   6.361  2.1293 -0.3023 -1.3224
  665MOL0     H91723   1.654  10.204   6.382 -2.4689 -0.3223 -2.5146
  665MOL0     H91724   1.474  10.148   6.510  0.2865  0.3846 -0.3582
  665MOL0     H91725   1.385  10.297   6.482 -0.7550 -0.9042  0.5389
  665MOL0     H91726   1.478  10.079   6.298 -0.0716 -0.5552  0.4829
  665MOL0     H91727   1.309  10.111   6.334  0.5991 -1.8402 -0.1434
  665MOL0     H91728   1.341  10.298   5.960  0.4963  0.8038  0.0414
  665MOL0     H91729   1.212  10.297   5.760 -0.7409 -0.3870 -1.2682
  665MOL0     H91730   1.155  10.461   5.772  4.6703 -1.3645 -2.3052
  665MOL0     H91731   1.044  10.330   5.785 -0.4031  1.5300  1.4625
  665MOL0     H91732   0.682  10.704   6.226 -2.3765  0.7921  1.0184
  665MOL0     H91733   0.444  10.729   6.204  0.1673 -0.2642  1.0418
  665MOL0     H91734   0.248  10.780   6.090 -0.5076  0.4685  1.7718
  665MOL0     H91735   0.149  10.709   5.962  3.8686 -2.3702 -3.3178
  665MOL0     H91736   0.165  10.581   6.236  0.8953  2.8321  0.3164
  665MOL0     H91737   0.085  10.719   6.226  0.5432 -2.2346  0.7676
  665MOL0     H91738  -0.018  10.468   6.079 -2.4392 -0.5241 -1.0609
  665MOL0     H91739  -0.070  10.645   6.036  1.8498 -1.1505 -1.1995
  665MOL0     H91740  -0.149  10.687   6.244  1.0771  0.2363 -0.2926
  665MOL0     H91741  -0.068  10.536   6.303  1.3257  1.9020  0.2345
  665MOL0     H91742  -0.271  10.538   6.077 -0.3534 -2.6118 -1.6683
  665MOL0     H91743  -0.237  10.400   6.175 -2.0646 -0.3111  3.4617
  665MOL0     H91744  -0.360  10.553   6.370 -3.0094  3.5920  1.0731
  665MOL0     H91745  -0.442  10.464   6.238  0.4472  1.7177 -3.1110
  665MOL0     H91746  -0.505  10.659   6.134 -0.1269 -0.4550  0.3880
  665MOL0     H91747  -0.377  10.762   6.213  0.2723 -1.2512 -2.8260
  665MOL0     H91748  -0.600  10.809   6.291  0.5275 -0.3427  1.2957
  665MOL0     H91749  -0.507  10.731   6.424 -0.7898  1.8550  0.4500
  665MOL0     H91750   0.436  10.453   5.869  2.1679 -1.8890 -0.8322
  665MOL0     H91751   0.666  10.398   5.917 -2.3689 -1.5448 -0.1769
  665MOL0     H91752   0.996  10.464   6.252  1.1268 -0.6941  0.2261
  665MOL0     H91753   1.191  10.361   6.354  0.0714  3.0792  0.0062
  665MOL0     H91754   1.603   9.950   7.630  0.8629 -0.2763  0.1483
  665MOL0     H91755   1.644   9.742   7.740 -1.2135  3.8904 -0.6877
  665MOL0     H91756   1.814   9.288   7.562  0.8474  1.2419 -1.2467
  665MOL0     H91757   1.947   9.064   7.591 -1.4068 -0.2275  0.8792
  665MOL0     H91758   2.290   9.085   7.706 -0.0857 -0.8695 -0.5340
  665MOL0     H91759   2.295   9.015   7.872  0.3340  0.8988  0.2118
  665MOL0     H91760   2.232   8.796   7.763  1.2354 -0.3943 -2.0111
  665MOL0     H91761   2.397   8.858   7.731  0.7861  0.5156 -0.3425
  665MOL0     H91762   2.196   8.787   7.521 -2.7333  3.3143  1.1417
  665MOL0     H91763   2.205   8.954   7.521  1.7502  1.3469  1.2393
  665MOL0     H91764   2.356   8.856   7.364  2.1367 -1.9389  0.1442
  665MOL0     H91765   2.450   8.782   7.484  0.1859 -0.6990 -0.8415
  665MOL0     H91766   2.551   9.204   7.435 -0.3932  1.2921  2.5148
  665MOL0     H91767   2.125   9.188   7.941  0.0610 -1.3565 -0.0518
  665MOL0     H91768   2.061   9.534   7.938  2.2252 -0.1875  1.5087
  665MOL0     H91769   1.944   9.434   8.028 -1.1441 -1.6865 -1.1050
  665MOL0     H91770   2.114   9.389   8.001 -1.4318 -2.2938  1.0648
  666MOL0     O91771   2.425   7.627  11.286  0.6962 -0.4796 -0.6385
  666MOL0     C91772   2.385   7.724  11.229  1.2190  0.2605  0.2284
  666MOL0     O91773   2.445   7.848  11.223  0.1940  0.0672  0.0353
  666MOL0     C91774   2.558   7.866  11.300 -1.0034 -0.2756  0.0546
  666MOL0     C91775   2.578   7.974  11.391  0.3318  1.6312  0.4332
  666MOL0     C91776   2.702   7.984  11.451 -0.0421 -0.6661 -0.3008
  666MOL0     C91777   2.820   7.904  11.420  0.8367  0.3929 -0.1362
  666MOL0     O91778   2.940   7.909  11.480 -0.1283  0.5770  0.3112
  666MOL0     C91779   2.962   7.994  11.591 -0.0061 -0.2520  0.1855
  666MOL0     C91780   3.109   8.021  11.596 -0.8195  1.2273  0.2315
  666MOL0     C91781   3.158   8.095  11.720 -0.5722  0.0118 -0.3328
  666MOL0     C91782   3.295   8.172  11.705  0.1498  0.7332 -0.4934
  666MOL0     C91783   3.322   8.271  11.821 -1.2054  0.6396 -1.0713
  666MOL0     C91784   3.221   8.360  11.876 -0.2058  0.8708  0.0852
  666MOL0     C91785   3.283   8.472  11.961 -0.1036  0.4248  0.1113
  666MOL0     C91786   3.192   8.597  11.962  0.2896 -0.8091 -0.2759
  666MOL0     N91787   3.236   8.709  12.057 -0.4398  0.7908  0.8947
  666MOL0     C91788   3.299   8.822  12.031 -0.1355 -0.7156  0.6744
  666MOL0     C91789   3.338   8.882  12.142  0.3604  0.7823 -0.1417
  666MOL0     C91790   3.403   9.012  12.153  0.1598  0.5400 -0.3541
  666MOL0     C91791   3.546   9.006  12.109 -0.4644 -0.1308 -0.1010
  666MOL0     C91792   3.620   9.135  12.165 -1.0632 -0.9604 -0.2910
  666MOL0     C91793   3.750   9.181  12.090 -0.0272 -0.3178 -0.0143
  666MOL0     O91794   3.748   9.185  11.942  0.6259  0.1905 -0.1825
  666MOL0     C91795   3.869   9.178  11.870 -0.3116 -1.7333 -0.4246
  666MOL0     C91796   3.860   9.107  11.752  0.4060  0.5460  0.6675
  666MOL0     C91797   3.966   9.073  11.678  0.5453  0.1181 -0.2492
  666MOL0     C91798   3.946   8.989  11.556  0.2852  0.4747 -0.0400
  666MOL0     C91799   4.092   9.095  11.737  0.4440  0.4872 -0.0571
  666MOL0     C91800   4.215   9.027  11.683  0.0827 -0.3793 -0.4913
  666MOL0     O91801   4.331   9.054  11.760 -0.2832 -0.8685  0.4117
  666MOL0     C91802   4.443   8.972  11.738  0.2881 -0.3258  0.1783
  666MOL0     C91803   4.430   8.831  11.749 -0.1065  0.1241 -0.6608
  666MOL0     C91804   4.546   8.753  11.740 -0.2171 -0.2918 -0.5138
  666MOL0     C91805   4.668   8.813  11.722 -0.0797  0.1135 -1.2536
  666MOL0     O91806   4.786   8.739  11.729  0.0108  0.3117 -0.6383
  666MOL0     C91807   4.811   8.640  11.832  0.0784 -0.2212 -0.6160
  666MOL0     C91808   4.838   8.700  11.970  0.2099 -0.0036 -0.6000
  666MOL0     C91809   4.876   8.575  12.060 -0.5315 -0.0017  0.4979
  666MOL0     C91810   4.904   8.618  12.203  0.0199 -0.5863 -0.2364
  666MOL0     C91811   4.972   8.503  12.264 -0.1245 -0.2791 -0.1202
  666MOL0     C91812   4.887   8.371  12.270 -0.3442 -1.0864  0.9643
  666MOL0     C91813   4.971   8.271  12.357 -0.2140 -0.2380  0.6552
  666MOL0     C91814   4.902   8.158  12.422 -0.3642  0.8866 -0.9984
  666MOL0    Cl91815   5.025   8.096  12.544 -0.4222  0.7212  0.1767
  666MOL0     C91816   4.681   8.954  11.720 -0.1931 -0.2452  0.2367
  666MOL0     C91817   4.572   9.033  11.731  0.1454  0.9882  0.6253
  666MOL0     O91818   4.206   8.934  11.597 -0.9652  0.0590 -0.0884
  666MOL0     C91819   4.105   9.180  11.851  0.5827 -1.1571  0.1539
  666MOL0     C91820   3.987   9.222  11.915 -0.2912  0.5934 -0.6418
  666MOL0     N91821   3.296   8.803  12.245 -0.2408  0.5461 -1.0625
  666MOL0     N91822   3.241   8.696  12.192  0.0207 -0.2806 -0.2627
  666MOL0     C91823   2.800   7.813  11.317 -0.0272  0.0311  0.1491
  666MOL0     C91824   2.674   7.787  11.269  1.0169 -0.3587  0.5448
  666MOL0     C91825   2.270   7.694  11.125  0.2482  0.6197 -0.3915
  666MOL0     C91826   2.242   7.802  11.042  0.6943  0.1080  0.2552
  666MOL0     C91827   2.154   7.788  10.932  0.2649 -0.9344 -0.5576
  666MOL0     C91828   2.099   7.662  10.909 -0.9928  0.4479 -0.7593
  666MOL0     O91829   2.025   7.622  10.795 -0.4965  0.8043 -0.0788
  666MOL0     C91830   2.006   7.708  10.681  0.1100  0.2220 -0.0960
  666MOL0     C91831   1.868   7.778  10.695 -0.8110  0.5861  0.2809
  666MOL0     C91832   1.809   7.832  10.557  0.0815  0.3415  1.6862
  666MOL0     C91833   1.677   7.920  10.574 -0.1881 -0.2656  0.7258
  666MOL0     C91834   1.653   8.023  10.479 -0.1967  0.4381  0.0517
  666MOL0     C91835   1.625   8.113  10.399 -0.5369  0.1378 -0.0281
  666MOL0     C91836   2.126   7.557  11.000 -0.0047  0.1800 -0.0509
  666MOL0     C91837   2.214   7.569  11.102  0.2815  0.0732 -0.8991
  666MOL0     C91838   2.243   7.457  11.193  0.3702  0.5661 -0.5594
  666MOL0     H91839   2.492   8.031  11.425 -0.5944  0.5280  0.0121
  666MOL0     H91840   2.717   8.057  11.530 -0.8848 -0.9498  0.1362
  666MOL0     H91841   2.920   7.939  11.675  0.1211 -0.7113 -0.0493
  666MOL0     H91842   2.910   8.090  11.598  2.5070  1.6010 -3.2286
  666MOL0     H91843   3.153   7.921  11.596  0.5758  1.8070 -1.0264
  666MOL0     H91844   3.134   8.069  11.501  2.6620 -0.2364  0.2481
  666MOL0     H91845   3.085   8.172  11.745 -1.1900 -0.4904 -0.5760
  666MOL0     H91846   3.175   8.037  11.811 -2.4206 -0.5293 -0.2981
  666MOL0     H91847   3.378   8.102  11.703 -1.4308 -1.4101  2.3749
  666MOL0     H91848   3.283   8.225  11.610  0.2442 -1.3388 -1.7137
  666MOL0     H91849   3.413   8.326  11.793 -0.4954  0.7678  1.2394
  666MOL0     H91850   3.348   8.209  11.908 -2.0572  1.9184  0.1254
  666MOL0     H91851   3.164   8.398  11.790  0.1426 -1.0196 -1.0203
  666MOL0     H91852   3.159   8.301  11.943  1.4050 -0.8712  0.1096
  666MOL0     H91853   3.375   8.500  11.908  0.5171  0.7061  1.3097
  666MOL0     H91854   3.307   8.441  12.063  0.4310  0.3161 -0.0458
  666MOL0     H91855   3.183   8.650  11.867 -1.6103 -0.6931 -0.0612
  666MOL0     H91856   3.090   8.567  11.987  0.3304 -1.7923 -1.2405
  666MOL0     H91857   3.316   8.865  11.933 -0.2263 -0.4535  0.7711
  666MOL0     H91858   3.405   9.050  12.256  1.3504  1.7687 -0.8071
  666MOL0     H91859   3.344   9.084  12.096 -0.0798 -0.5305 -1.5159
  666MOL0     H91860   3.601   8.928  12.162  0.8160  0.4553 -0.5153
  666MOL0     H91861   3.567   8.996  12.002  4.5342 -0.8124  0.6911
  666MOL0     H91862   3.553   9.222  12.159  0.2331  0.1597  0.7489
  666MOL0     H91863   3.651   9.125  12.269  0.7801 -2.0692 -0.9050
  666MOL0     H91864   3.762   9.288  12.109  2.0952 -0.6431  0.8089
  666MOL0     H91865   3.832   9.113  12.118  1.5667  0.4492 -2.4610
  666MOL0     H91866   3.762   9.069  11.727  0.0293  1.4942  0.6622
  666MOL0     H91867   3.954   8.884  11.587 -2.3804  0.3867  0.5699
  666MOL0     H91868   4.015   9.019  11.477 -0.3675  1.2651 -0.3232
  666MOL0     H91869   3.845   8.996  11.516 -0.7296 -1.1949  1.9814
  666MOL0     H91870   4.334   8.783  11.767  0.4078 -1.4103 -1.7558
  666MOL0     H91871   4.549   8.645  11.749 -0.4365 -0.4264 -1.8017
  666MOL0     H91872   4.730   8.567  11.829 -0.6008  0.2995  2.1523
  666MOL0     H91873   4.894   8.579  11.796  1.2129  1.2314 -0.5288
  666MOL0     H91874   4.913   8.780  11.971 -1.3533  1.5900  1.7038
  666MOL0     H91875   4.750   8.752  12.010  0.2364 -0.7411  0.4465
  666MOL0     H91876   4.956   8.523  12.008 -3.6358 -0.2522 -4.7967
  666MOL0     H91877   4.794   8.502  12.052 -2.2617  1.9984 -1.8124
  666MOL0     H91878   4.810   8.633  12.256  0.1803 -1.3763  0.2796
  666MOL0     H91879   4.965   8.708  12.213  0.9339 -0.9507 -2.0770
  666MOL0     H91880   5.066   8.467  12.220 -0.4968 -0.1903 -0.9953
  666MOL0     H91881   4.997   8.532  12.367  3.0446 -1.4743 -0.4239
  666MOL0     H91882   4.865   8.326  12.172  0.6400  1.4695 -0.5275
  666MOL0     H91883   4.800   8.404  12.327  1.3299  3.2074  1.3806
  666MOL0     H91884   5.005   8.337  12.437 -1.7806  1.4026  0.0497
  666MOL0     H91885   5.040   8.230  12.282 -0.9670  1.2464 -0.9386
  666MOL0     H91886   4.870   8.087  12.345 -0.8635  2.3326 -2.1693
  666MOL0     H91887   4.818   8.202  12.477 -1.7861 -1.4018 -1.1820
  666MOL0     H91888   4.778   9.002  11.713 -1.2936  1.9157 -1.0324
  666MOL0     H91889   4.578   9.142  11.726  1.4677  1.2054  4.2033
  666MOL0     H91890   4.201   9.211  11.891  2.5186 -1.9615 -3.4872
  666MOL0     H91891   4.002   9.276  12.009  2.4256 -1.8730  0.5012
  666MOL0     H91892   2.892   7.757  11.300  1.4119  1.4510  2.6987
  666MOL0     H91893   2.652   7.697  11.212  0.0169 -0.2011  0.6763
  666MOL0     H91894   2.288   7.899  11.058  0.5617  0.9081 -3.3191
  666MOL0     H91895   2.140   7.865  10.857 -0.3803 -1.5828 -1.1191
  666MOL0     H91896   2.085   7.782  10.669  1.9833 -1.7249 -0.4814
  666MOL0     H91897   2.011   7.652  10.587 -2.2749  1.0164 -0.7733
  666MOL0     H91898   1.863   7.842  10.783 -1.6413  0.3421  0.4188
  666MOL0     H91899   1.800   7.698  10.727  1.0858 -0.9212  0.7201
  666MOL0     H91900   1.875   7.906  10.512 -0.2883 -1.0040 -1.3372
  666MOL0     H91901   1.801   7.753  10.482  0.5041  2.8320 -1.1694
  666MOL0     H91902   1.672   7.968  10.672  3.1817  2.9337 -0.4400
  666MOL0     H91903   1.589   7.857  10.558  1.0343 -1.4119 -2.0745
  666MOL0     H91904   1.593   8.188  10.330  0.4609  1.4853  0.9165
  666MOL0     H91905   2.093   7.455  10.981  3.0820 -0.6668 -1.4407
  666MOL0     H91906   2.216   7.475  11.298 -0.3396  0.3928 -0.7094
  666MOL0     H91907   2.209   7.358  11.161  2.3412  0.0903 -1.3363
  666MOL0     H91908   2.350   7.437  11.177  0.1954  1.5140 -3.4628
  667MOL0     O91909   0.420   4.640   3.718 -0.0581  0.4313  0.4331
  667MOL0     C91910   0.351   4.698   3.629  0.6688 -0.1685 -0.5932
  667MOL0     O91911   0.291   4.827   3.635  0.5420 -0.3949 -0.0245
  667MOL0     C91912   0.318   4.896   3.753 -0.8913 -0.3429  0.3088
  667MOL0     C91913   0.412   5.002   3.769  0.0442  0.2813 -0.4014
  667MOL0     C91914   0.418   5.072   3.895  0.3618  0.1949  0.6227
  667MOL0     C91915   0.338   5.041   4.003 -0.0813 -0.3705  0.6651
  667MOL0     O91916   0.345   5.109   4.128  0.1055  0.0717  0.0365
  667MOL0     C91917   0.351   5.249   4.135 -0.7142  0.0845  0.5885
  667MOL0     C91918   0.500   5.295   4.170 -0.0893  0.8394  0.4712
  667MOL0     C91919   0.533   5.227   4.307 -0.6017 -0.5089  0.0721
  667MOL0     C91920   0.674   5.210   4.332 -0.2998 -0.7189  1.0855
  667MOL0     C91921   0.745   5.113   4.233 -0.9600  0.0587  0.3885
  667MOL0     C91922   0.897   5.113   4.267  0.2741  0.4053 -0.8342
  667MOL0     C91923   0.986   5.051   4.153 -0.0534 -0.9241  0.2905
  667MOL0     C91924   1.130   5.070   4.193 -0.3644  0.2435  0.3120
  667MOL0     N91925   1.216   4.985   4.107  0.1569 -0.3587  0.3937
  667MOL0     C91926   1.269   4.867   4.151  0.3648 -0.4961 -0.6941
  667MOL0     C91927   1.323   4.810   4.039 -0.3279  0.1532 -0.0226
  667MOL0     C91928   1.401   4.677   4.039  0.9042  0.2251  0.1218
  667MOL0     C91929   1.521   4.680   3.942  0.1717  0.0507 -0.0038
  667MOL0     C91930   1.625   4.791   3.956 -0.0145  0.2411  1.1091
  667MOL0     C91931   1.763   4.741   3.913  0.0968 -0.1817  0.8915
  667MOL0     O91932   1.773   4.762   3.776  0.4309  0.0032  0.1539
  667MOL0     C91933   1.883   4.709   3.716 -0.2177 -0.1370 -0.2543
  667MOL0     C91934   1.894   4.732   3.584  0.0114 -0.3109 -0.2256
  667MOL0     C91935   1.995   4.669   3.502 -0.3239  0.3744 -0.4795
  667MOL0     C91936   1.984   4.674   3.351  0.6288 -0.1507 -0.0165
  667MOL0     C91937   2.106   4.598   3.556  0.1987 -0.2614 -0.0869
  667MOL0     C91938   2.226   4.546   3.491  0.7265  0.0276 -0.2009
  667MOL0     O91939   2.218   4.511   3.359  0.8416 -0.7763  0.5531
  667MOL0     C91940   2.332   4.499   3.286 -0.5047  0.2494  0.3196
  667MOL0     C91941   2.322   4.429   3.159 -0.2864  0.4786  0.0737
  667MOL0     C91942   2.426   4.423   3.069 -0.3656  0.5276 -0.1700
  667MOL0     C91943   2.547   4.494   3.098  0.5563  0.4104  0.0149
  667MOL0     O91944   2.649   4.499   3.006 -0.0661 -0.0593  0.5424
  667MOL0     C91945   2.691   4.375   2.943 -0.5374 -0.0676  0.4350
  667MOL0     C91946   2.643   4.366   2.792 -0.0078 -0.3700  0.0615
  667MOL0     C91947   2.582   4.496   2.730 -0.4524 -0.9936  0.5934
  667MOL0     C91948   2.705   4.584   2.695 -0.3128 -0.6449  0.4941
  667MOL0     C91949   2.672   4.715   2.635  0.8593  1.0529  0.8140
  667MOL0     C91950   2.651   4.824   2.742  0.5497  0.3516 -0.2049
  667MOL0     C91951   2.600   4.961   2.682  0.2435 -0.1488  0.3638
  667MOL0     C91952   2.482   4.958   2.594  0.4249  0.0216  1.1511
  667MOL0    Cl91953   2.431   5.128   2.559  0.2390  0.1341  1.1799
  667MOL0     C91954   2.562   4.558   3.221  1.0988  0.6340 -0.2449
  667MOL0     C91955   2.455   4.564   3.315  0.6942  0.1828 -0.8734
  667MOL0     O91956   2.320   4.512   3.564 -0.4818  0.3241  0.8456
  667MOL0     C91957   2.100   4.591   3.697  0.1247  0.0983 -0.4193
  667MOL0     C91958   1.992   4.640   3.772 -0.2490 -0.7051  0.0902
  667MOL0     N91959   1.307   4.896   3.936 -0.6804 -0.5356  0.3982
  667MOL0     N91960   1.242   4.999   3.976 -0.2171  0.4761  0.6115
  667MOL0     C91961   0.235   4.947   3.972 -0.3548  0.1077 -0.1140
  667MOL0     C91962   0.224   4.881   3.851  0.6318  0.9221  0.8697
  667MOL0     C91963   0.313   4.627   3.509 -0.1963  0.3236  1.0532
  667MOL0     C91964   0.239   4.690   3.412  0.9438 -0.3549  0.5615
  667MOL0     C91965   0.194   4.629   3.296 -0.3410 -0.0581  0.2026
  667MOL0     C91966   0.208   4.494   3.266 -0.5848  0.3891 -0.0970
  667MOL0     O91967   0.148   4.429   3.161  0.4059 -0.0601 -0.5006
  667MOL0     C91968   0.200   4.307   3.107 -0.0911 -0.1900 -0.1001
  667MOL0     C91969   0.108   4.279   2.991  0.1564  0.5003 -0.7186
  667MOL0     C91970   0.114   4.370   2.871  0.0787 -0.8499 -0.0407
  667MOL0     C91971   0.055   4.307   2.747  0.3792  1.2119  0.2341
  667MOL0     C91972  -0.085   4.309   2.761 -0.0221 -0.5710 -1.3645
  667MOL0     C91973  -0.206   4.316   2.782  0.2716  0.9317  0.3822
  667MOL0     C91974   0.268   4.421   3.369 -0.1176  1.2152 -0.1507
  667MOL0     C91975   0.323   4.483   3.484 -0.5922 -0.0878 -0.0064
  667MOL0     C91976   0.403   4.384   3.584  0.1843 -0.2187  0.0800
  667MOL0     H91977   0.487   5.018   3.691  0.0378  2.7021  0.0170
  667MOL0     H91978   0.501   5.141   3.909  1.7625 -1.4436  0.8612
  667MOL0     H91979   0.297   5.276   4.226 -1.9559  2.2678 -0.6926
  667MOL0     H91980   0.310   5.300   4.047  0.6389 -1.0138 -0.7458
  667MOL0     H91981   0.555   5.248   4.088  0.5383  1.0144  0.7838
  667MOL0     H91982   0.514   5.404   4.168  1.5425  0.7330  2.6909
  667MOL0     H91983   0.496   5.289   4.389  2.6504  3.1670 -0.9422
  667MOL0     H91984   0.482   5.130   4.312  0.7868 -1.4711 -2.3277
  667MOL0     H91985   0.720   5.310   4.331  0.0178 -0.8369  2.2055
  667MOL0     H91986   0.683   5.169   4.433 -2.6567  0.5384  1.8943
  667MOL0     H91987   0.743   5.158   4.133  1.0047 -0.4743  0.0766
  667MOL0     H91988   0.700   5.014   4.219 -1.6125  0.5589 -1.2939
  667MOL0     H91989   0.936   5.215   4.279  3.4762 -0.2934 -3.6316
  667MOL0     H91990   0.905   5.052   4.357 -5.3953 -3.1832 -2.2928
  667MOL0     H91991   0.969   5.092   4.053  0.4778 -0.3678  0.4241
  667MOL0     H91992   0.952   4.947   4.162 -0.3299 -0.8410  0.2037
  667MOL0     H91993   1.141   5.178   4.178 -3.7696  1.0944  2.6799
  667MOL0     H91994   1.148   5.046   4.298 -1.1509  2.0260  0.8955
  667MOL0     H91995   1.292   4.827   4.250  0.2843 -1.1653 -0.9416
  667MOL0     H91996   1.329   4.606   3.997  0.7307  0.9272 -0.7937
  667MOL0     H91997   1.421   4.642   4.141 -1.1876 -0.0852  0.4781
  667MOL0     H91998   1.559   4.580   3.964 -0.7778  0.1090  2.1054
  667MOL0     H91999   1.486   4.673   3.839 -1.0805  0.2717  0.3868
  667MOL0     H92000   1.598   4.878   3.896  0.5663 -0.4787 -0.2449
  667MOL0     H92001   1.617   4.816   4.062 -0.3713  0.6925  0.9757
  667MOL0     H92002   1.832   4.805   3.969  0.1946  0.2360  0.3085
  667MOL0     H92003   1.780   4.637   3.941  1.2368 -0.1761  0.2919
  667MOL0     H92004   1.829   4.797   3.527  0.4468 -0.3970 -0.8366
  667MOL0     H92005   2.082   4.705   3.312  2.5826 -4.0205  1.3164
  667MOL0     H92006   1.931   4.761   3.310 -0.2261 -0.6379  0.0390
  667MOL0     H92007   1.952   4.582   3.302  0.9686 -0.8989  1.1345
  667MOL0     H92008   2.226   4.390   3.125  0.6357 -0.4984 -1.5531
  667MOL0     H92009   2.427   4.387   2.967  3.5860 -0.9173  0.2147
  667MOL0     H92010   2.800   4.379   2.944 -0.5529  2.3481 -0.5991
  667MOL0     H92011   2.673   4.287   3.005 -0.5928 -0.4884 -0.1767
  667MOL0     H92012   2.727   4.327   2.732 -1.2260  0.6792 -2.4863
  667MOL0     H92013   2.570   4.287   2.772  0.6070 -1.3211  1.4053
  667MOL0     H92014   2.516   4.551   2.798 -0.2501 -1.4073  1.1344
  667MOL0     H92015   2.527   4.465   2.641 -0.8692 -2.7582  1.4160
  667MOL0     H92016   2.761   4.528   2.620  0.6592 -0.6628  1.2175
  667MOL0     H92017   2.767   4.598   2.784  0.8775  0.8863 -0.4949
  667MOL0     H92018   2.760   4.748   2.578  1.3435  0.5369  1.2607
  667MOL0     H92019   2.591   4.700   2.563  2.5214  3.0881 -1.6994
  667MOL0     H92020   2.748   4.842   2.789  0.3737  2.9300 -0.7095
  667MOL0     H92021   2.568   4.791   2.805 -0.5352  1.3098 -1.0889
  667MOL0     H92022   2.682   5.015   2.634  0.3838  2.6065  3.3817
  667MOL0     H92023   2.555   5.024   2.759 -4.6907 -1.3433 -1.1475
  667MOL0     H92024   2.400   4.900   2.636 -0.8100 -0.6962 -2.0113
  667MOL0     H92025   2.497   4.918   2.494 -0.3343  3.9461 -0.7316
  667MOL0     H92026   2.649   4.600   3.271 -0.0091 -2.4453  5.1112
  667MOL0     H92027   2.468   4.628   3.402 -2.0804  0.1572 -0.3596
  667MOL0     H92028   2.187   4.555   3.751  1.3561  0.0807 -2.3066
  667MOL0     H92029   2.011   4.622   3.878  0.1169 -2.9604 -0.3088
  667MOL0     H92030   0.163   4.914   4.046  2.1719  0.7234  2.8070
  667MOL0     H92031   0.148   4.803   3.849  1.8222 -0.3024 -1.7137
  667MOL0     H92032   0.211   4.794   3.426  1.0949 -0.1686 -0.4356
  667MOL0     H92033   0.122   4.690   3.243 -1.3926  1.7933  3.4910
  667MOL0     H92034   0.304   4.313   3.072 -1.1813 -2.7090 -4.5060
  667MOL0     H92035   0.178   4.224   3.176 -0.6080 -0.5736 -0.7163
  667MOL0     H92036   0.003   4.286   3.022  0.1244  0.4853 -0.8210
  667MOL0     H92037   0.132   4.179   2.954 -3.3214 -0.8694  0.3154
  667MOL0     H92038   0.074   4.469   2.892 -1.1240 -1.0306 -1.3093
  667MOL0     H92039   0.223   4.381   2.871  0.2934 -1.8575  3.2422
  667MOL0     H92040   0.090   4.204   2.730 -0.7215  1.3117 -3.8873
  667MOL0     H92041   0.088   4.359   2.656 -0.4006 -0.3894 -1.0296
  667MOL0     H92042  -0.310   4.337   2.790 -0.2615 -0.4338 -2.0637
  667MOL0     H92043   0.287   4.314   3.369 -1.6442  0.9185  0.2727
  667MOL0     H92044   0.497   4.420   3.628 -1.5798  3.6807  1.0584
  667MOL0     H92045   0.334   4.355   3.664 -2.7124  1.3798 -1.6737
  667MOL0     H92046   0.420   4.285   3.540  0.0106 -0.3127  0.2185
  668MOL0     O92047   4.937   1.353   2.496  0.4595 -0.2922  0.1822
  668MOL0     C92048   4.866   1.273   2.436 -0.8768  0.0686 -0.1560
  668MOL0     O92049   4.799   1.172   2.498  0.7968  0.7027  0.2711
  668MOL0     C92050   4.816   1.122   2.621  0.2708 -0.0830  0.1919
  668MOL0     C92051   4.784   0.986   2.644 -0.5023 -0.6830 -0.2414
  668MOL0     C92052   4.829   0.925   2.761  0.1554 -0.2850 -0.0020
  668MOL0     C92053   4.895   0.996   2.860  0.8187  1.7632  0.3313
  668MOL0     O92054   4.925   0.935   2.977 -0.5812  0.0745 -0.0794
  668MOL0     C92055   4.827   0.956   3.088 -0.4192 -0.1402  0.4033
  668MOL0     C92056   4.837   0.867   3.207 -0.0235 -0.6208 -0.1974
  668MOL0     C92057   4.974   0.879   3.273 -1.0650 -0.4715  0.2783
  668MOL0     C92058   4.985   0.821   3.404 -0.6061 -0.3052 -0.9204
  668MOL0     C92059   5.135   0.815   3.436  0.3754  0.6130 -0.8724
  668MOL0     C92060   5.142   0.784   3.592 -0.4584  0.1829 -0.5979
  668MOL0     C92061   5.284   0.749   3.631  1.3449 -0.3797 -0.7920
  668MOL0     C92062   5.316   0.780   3.784  0.2775  0.3820  0.7323
  668MOL0     N92063   5.233   0.702   3.881 -1.1241 -0.8498  0.1622
  668MOL0     C92064   5.223   0.568   3.881  0.0486 -0.5375 -0.4483
  668MOL0     C92065   5.122   0.543   3.960 -0.7012 -0.1031 -0.5235
  668MOL0     C92066   5.059   0.408   3.977 -0.3040  0.5940 -0.0415
  668MOL0     C92067   4.898   0.420   3.969 -0.7060 -0.1157 -0.2280
  668MOL0     C92068   4.831   0.281   3.974 -0.1755  0.1204  0.5713
  668MOL0     C92069   4.679   0.283   3.954 -0.7100 -0.6754 -0.2531
  668MOL0     O92070   4.616   0.402   4.007  0.3134  0.7181 -0.1702
  668MOL0     C92071   4.578   0.408   4.142 -0.1480  0.1527  0.1098
  668MOL0     C92072   4.578   0.534   4.192 -1.1714  0.3097  0.7818
  668MOL0     C92073   4.544   0.554   4.325 -0.4819  0.4854  0.0715
  668MOL0     C92074   4.573   0.695   4.370  0.4669  0.2762 -0.7893
  668MOL0     C92075   4.504   0.446   4.406 -0.3361  1.0958  0.3771
  668MOL0     C92076   4.466   0.463   4.551 -0.1052 -0.3854  0.1297
  668MOL0     O92077   4.457   0.361   4.641  0.4820  0.0111 -0.2560
  668MOL0     C92078   4.444   0.391   4.768  0.0954 -0.7894  0.8410
  668MOL0     C92079   4.511   0.492   4.841 -0.3301 -0.3070 -0.0993
  668MOL0     C92080   4.487   0.520   4.981 -0.0785  0.4251 -0.1812
  668MOL0     C92081   4.385   0.448   5.047 -0.0381  1.3160 -0.4321
  668MOL0     O92082   4.362   0.476   5.183  0.8217  0.0645  0.3513
  668MOL0     C92083   4.341   0.622   5.208  0.3067 -0.8522 -0.1104
  668MOL0     C92084   4.208   0.657   5.274 -0.2329  0.8792  0.5933
  668MOL0     C92085   4.089   0.581   5.207 -0.3880 -0.8904 -0.5819
  668MOL0     C92086   3.963   0.642   5.263 -0.4507  0.8236  0.0811
  668MOL0     C92087   3.851   0.534   5.262  0.4153 -0.7308  0.0366
  668MOL0     C92088   3.719   0.588   5.326  0.0619  0.9133  0.0522
  668MOL0     C92089   3.669   0.705   5.246  0.5180 -0.5194  0.5350
  668MOL0     C92090   3.515   0.730   5.260  0.3111 -0.4857  0.3512
  668MOL0    Cl92091   3.466   0.783   5.420  0.3393 -0.0767 -0.2314
  668MOL0     C92092   4.325   0.338   4.987  0.5387 -1.1555  0.0354
  668MOL0     C92093   4.358   0.313   4.854 -0.1583  0.2136 -0.3105
  668MOL0     O92094   4.435   0.580   4.580 -0.0688 -0.6713  0.5118
  668MOL0     C92095   4.519   0.309   4.351 -0.5620  0.1472  0.6209
  668MOL0     C92096   4.563   0.295   4.223 -0.5312 -0.7399 -0.4821
  668MOL0     N92097   5.091   0.661   4.027 -0.4342 -0.6199  0.6837
  668MOL0     N92098   5.163   0.757   3.988 -0.0858 -0.1515  0.9954
  668MOL0     C92099   4.924   1.131   2.848  0.2959 -0.1279  0.4595
  668MOL0     C92100   4.881   1.195   2.728 -0.3666 -0.0167 -0.3003
  668MOL0     C92101   4.833   1.295   2.295  0.5217  0.0985 -0.2159
  668MOL0     C92102   4.858   1.420   2.240  0.1051 -0.6482  0.0864
  668MOL0     C92103   4.857   1.444   2.103 -0.7105 -0.1650 -0.3822
  668MOL0     C92104   4.814   1.350   2.013 -1.0034 -0.2708 -0.4600
  668MOL0     O92105   4.797   1.373   1.881  0.1268  0.4860  0.1211
  668MOL0     C92106   4.855   1.278   1.794 -0.3984 -0.4191  0.3348
  668MOL0     C92107   4.847   1.340   1.654  0.5413 -0.4867 -0.5705
  668MOL0     C92108   4.694   1.346   1.611 -0.3997  0.0748 -0.6086
  668MOL0     C92109   4.668   1.457   1.512  0.4612 -0.5846  0.2097
  668MOL0     C92110   4.574   1.425   1.398 -0.2538  0.2424 -0.0074
  668MOL0     C92111   4.515   1.398   1.295  0.0617  0.7257  0.4741
  668MOL0     C92112   4.784   1.218   2.068 -0.2162 -0.2137  0.3416
  668MOL0     C92113   4.790   1.193   2.206  0.7445  0.9708  0.5315
  668MOL0     C92114   4.730   1.049   2.247  0.5924  1.5078 -0.0763
  668MOL0     H92115   4.738   0.923   2.569  0.4857  1.1852 -2.5235
  668MOL0     H92116   4.810   0.820   2.781  3.6528 -1.0813 -0.0658
  668MOL0     H92117   4.727   0.942   3.047 -0.7695 -1.4389  1.5959
  668MOL0     H92118   4.846   1.054   3.132  1.8493 -0.9316  1.3798
  668MOL0     H92119   4.756   0.889   3.279  1.1939  1.2436  0.6688
  668MOL0     H92120   4.814   0.762   3.185 -0.9874 -0.6729  0.8939
  668MOL0     H92121   5.043   0.832   3.203 -1.6655  0.2184 -0.7906
  668MOL0     H92122   5.003   0.984   3.277  3.1638 -1.4378 -0.2851
  668MOL0     H92123   4.925   0.875   3.478 -0.4584 -1.8993  0.4076
  668MOL0     H92124   4.947   0.719   3.395  1.8531 -1.6452  1.9924
  668MOL0     H92125   5.190   0.910   3.432  0.3501  0.7364  0.9069
  668MOL0     H92126   5.181   0.742   3.370 -1.7775 -1.0405 -0.6750
  668MOL0     H92127   5.112   0.871   3.650  1.0072 -0.8293  1.8101
  668MOL0     H92128   5.081   0.697   3.619  2.0212 -1.2127  0.9074
  668MOL0     H92129   5.363   0.791   3.568 -0.9094  0.4475 -3.2304
  668MOL0     H92130   5.279   0.640   3.622 -6.2593 -0.5223 -0.6799
  668MOL0     H92131   5.420   0.748   3.793 -0.0145 -0.9382 -0.1540
  668MOL0     H92132   5.306   0.888   3.797 -1.3340  0.5633 -1.5282
  668MOL0     H92133   5.276   0.495   3.821  0.4615  0.0378 -0.8076
  668MOL0     H92134   5.094   0.363   4.070  1.0674  0.0897 -0.7801
  668MOL0     H92135   5.101   0.352   3.893 -2.4867  0.4270 -1.1213
  668MOL0     H92136   4.848   0.485   4.042 -0.6944  0.0989 -0.4088
  668MOL0     H92137   4.881   0.460   3.869  0.2382 -0.5754 -0.5846
  668MOL0     H92138   4.875   0.204   3.911 -0.1089 -1.0962  2.0472
  668MOL0     H92139   4.849   0.252   4.078  0.7383  1.0971  0.7038
  668MOL0     H92140   4.656   0.280   3.847 -0.2690 -0.5756 -0.3535
  668MOL0     H92141   4.648   0.190   4.002 -1.1318 -0.7112 -0.5929
  668MOL0     H92142   4.614   0.608   4.122 -1.1199 -2.7905 -2.8350
  668MOL0     H92143   4.659   0.704   4.436  0.7923 -0.0528 -1.1677
  668MOL0     H92144   4.484   0.727   4.424  1.5523  0.9081  0.6770
  668MOL0     H92145   4.596   0.759   4.284  1.8875 -2.1463 -2.3312
  668MOL0     H92146   4.587   0.553   4.795 -1.0546  0.4577 -0.3035
  668MOL0     H92147   4.554   0.580   5.042 -0.5794 -0.7274  1.5643
  668MOL0     H92148   4.403   0.660   5.289 -2.4919 -2.2580  2.9578
  668MOL0     H92149   4.357   0.688   5.123  2.1212 -0.2364  0.6622
  668MOL0     H92150   4.210   0.631   5.380  2.6312 -0.6300  0.2521
  668MOL0     H92151   4.191   0.763   5.291  0.1139  0.9086  0.7641
  668MOL0     H92152   4.090   0.472   5.219  0.3392 -0.7824  0.5656
  668MOL0     H92153   4.083   0.600   5.100 -0.4696  1.2664 -0.2508
  668MOL0     H92154   3.942   0.737   5.214  3.7127  2.8690  1.7674
  668MOL0     H92155   3.980   0.663   5.369  0.2800 -0.8218  0.3261
  668MOL0     H92156   3.816   0.487   5.169 -1.7919 -0.6355  0.7632
  668MOL0     H92157   3.887   0.447   5.317  0.9634  0.0574  0.9436
  668MOL0     H92158   3.735   0.622   5.428 -1.4577 -0.1622  0.6783
  668MOL0     H92159   3.654   0.500   5.332 -1.5225  1.7551 -2.7570
  668MOL0     H92160   3.690   0.686   5.140  0.5839 -1.1831  0.6586
  668MOL0     H92161   3.727   0.792   5.278 -1.9129  1.1449  0.6576
  668MOL0     H92162   3.451   0.642   5.249 -1.2964  0.3393  2.4067
  668MOL0     H92163   3.485   0.810   5.193  0.2259 -1.0316 -0.2730
  668MOL0     H92164   4.253   0.275   5.039 -2.3186 -0.1798 -2.3983
  668MOL0     H92165   4.298   0.233   4.812 -2.8228  1.0699  1.6075
  668MOL0     H92166   4.511   0.223   4.418 -0.6048  0.7298  1.3846
  668MOL0     H92167   4.583   0.197   4.181  2.3820  1.5095 -5.1675
  668MOL0     H92168   4.980   1.184   2.924  2.0200  1.7636 -1.9847
  668MOL0     H92169   4.892   1.303   2.726  2.6609 -0.1710  1.5639
  668MOL0     H92170   4.894   1.500   2.304 -1.1143 -1.1453  1.4619
  668MOL0     H92171   4.905   1.529   2.057  2.7402 -1.0394  1.2189
  668MOL0     H92172   4.963   1.268   1.809 -0.7752 -3.1198  1.8095
  668MOL0     H92173   4.810   1.178   1.796 -0.0087 -0.6305 -0.8507
  668MOL0     H92174   4.897   1.276   1.581 -2.2336 -3.5872  0.0549
  668MOL0     H92175   4.881   1.445   1.654  0.6543 -0.4307  2.6583
  668MOL0     H92176   4.667   1.245   1.579 -2.4344 -0.1648  1.5898
  668MOL0     H92177   4.638   1.371   1.702  2.9460 -1.2078  2.0325
  668MOL0     H92178   4.754   1.498   1.459 -0.9291  0.7778 -1.0925
  668MOL0     H92179   4.633   1.550   1.558 -0.2416 -1.6096  1.8530
  668MOL0     H92180   4.441   1.378   1.220 -1.4265  3.5135  1.0811
  668MOL0     H92181   4.740   1.140   2.008  1.0970  0.3256 -1.4176
  668MOL0     H92182   4.680   1.000   2.163  3.0571  0.8475 -1.2607
  668MOL0     H92183   4.817   0.983   2.259 -0.1912  0.4079 -0.3455
  668MOL0     H92184   4.675   1.036   2.340 -0.7006 -0.4601 -1.0558
  669MOL0     O92185   1.610   9.139   7.516 -0.1708  0.1020  0.6702
  669MOL0     C92186   1.534   9.073   7.439 -0.0438 -0.5304  0.4905
  669MOL0     O92187   1.482   8.955   7.462 -0.2393 -0.4470 -0.8570
  669MOL0     C92188   1.513   8.892   7.588 -0.7485 -0.0752  0.2069
  669MOL0     C92189   1.575   8.762   7.587  0.8677  0.2073  0.4876
  669MOL0     C92190   1.609   8.706   7.706  0.5360  0.0757  0.1708
  669MOL0     C92191   1.580   8.773   7.828 -0.2064  0.1525  0.3554
  669MOL0     O92192   1.621   8.711   7.948  0.1067  0.8103  1.2257
  669MOL0     C92193   1.746   8.768   8.004 -0.1516 -0.0734  0.3624
  669MOL0     C92194   1.728   8.901   8.075 -0.4412 -1.1744 -0.0372
  669MOL0     C92195   1.855   8.947   8.154 -0.2684 -0.2507  0.7686
  669MOL0     C92196   1.847   9.095   8.213  0.7723  0.5126  0.1300
  669MOL0     C92197   1.993   9.140   8.280 -0.3487 -0.4548 -0.5592
  669MOL0     C92198   1.993   9.056   8.408 -0.4613 -0.6135  0.1694
  669MOL0     C92199   2.113   9.088   8.489  0.1258 -0.0511  0.7510
  669MOL0     C92200   2.108   9.027   8.631  0.4121  1.1389  0.1364
  669MOL0     N92201   2.206   9.063   8.723 -0.2163 -0.8444  0.8644
  669MOL0     C92202   2.197   9.067   8.854  0.0396 -0.1979 -0.4387
  669MOL0     C92203   2.326   9.097   8.901 -0.2891 -0.5288  0.4063
  669MOL0     C92204   2.368   9.132   9.047 -0.5796  0.1899  0.0702
  669MOL0     C92205   2.402   9.014   9.132 -1.1281 -0.7304 -0.2607
  669MOL0     C92206   2.429   9.054   9.287  0.1918  0.2231  0.1871
  669MOL0     C92207   2.582   9.095   9.304  0.4649 -0.0442  0.3965
  669MOL0     O92208   2.622   9.168   9.428 -0.5886  0.3346 -0.0150
  669MOL0     C92209   2.730   9.253   9.414  0.5794 -0.9141  0.2799
  669MOL0     C92210   2.845   9.234   9.340  0.1402  0.2632  0.2423
  669MOL0     C92211   2.949   9.326   9.335  0.0504 -0.4228  0.3803
  669MOL0     C92212   3.062   9.284   9.242  0.0826  1.1692 -0.6639
  669MOL0     C92213   2.942   9.447   9.419  0.1461  0.1102 -0.1602
  669MOL0     C92214   3.048   9.551   9.435  0.6321  0.7053  0.4520
  669MOL0     O92215   3.030   9.625   9.549 -1.8067  0.0224 -0.3266
  669MOL0     C92216   3.120   9.730   9.567  0.2573 -0.4878 -0.7941
  669MOL0     C92217   3.147   9.748   9.700  0.7168  0.1848 -0.2318
  669MOL0     C92218   3.239   9.849   9.741 -1.2586 -0.4454 -0.1737
  669MOL0     C92219   3.284   9.940   9.637  0.2936 -0.7572  0.0107
  669MOL0     O92220   3.364  10.036   9.681  0.4139 -0.6174  0.4728
  669MOL0     C92221   3.507  10.017   9.656  1.5528 -0.6717 -0.3361
  669MOL0     C92222   3.547  10.075   9.520 -0.3249  0.3570  0.6375
  669MOL0     C92223   3.695  10.120   9.500 -0.8450  0.1612 -0.3944
  669MOL0     C92224   3.780  10.002   9.539  0.7809 -0.4290  0.3132
  669MOL0     C92225   3.929  10.024   9.508 -0.0747  0.4252 -0.1647
  669MOL0     C92226   3.987  10.147   9.581  1.4253  0.6701 -0.2096
  669MOL0     C92227   4.134  10.113   9.627  0.4277 -0.0348  0.6683
  669MOL0     C92228   4.196  10.228   9.696  0.6628 -0.6259  0.2271
  669MOL0    Cl92229   4.114  10.241   9.847 -0.2524 -0.3164 -0.2869
  669MOL0     C92230   3.248   9.923   9.508  0.7646 -0.5556  0.7948
  669MOL0     C92231   3.164   9.822   9.467 -0.4950 -0.2253  0.4022
  669MOL0     O92232   3.141   9.556   9.356 -0.4140  0.6270 -0.4546
  669MOL0     C92233   2.823   9.461   9.496  0.2332  0.9028 -0.2597
  669MOL0     C92234   2.723   9.364   9.495  0.0658  0.2393  0.3887
  669MOL0     N92235   2.408   9.086   8.784  0.0354  0.7822 -0.1340
  669MOL0     N92236   2.335   9.078   8.683  0.3402 -0.1141  0.3446
  669MOL0     C92237   1.496   8.886   7.828  0.8087  0.3277  0.6352
  669MOL0     C92238   1.462   8.944   7.704 -0.6333  0.3401 -0.1274
  669MOL0     C92239   1.508   9.124   7.300 -0.2747 -0.4000 -0.4306
  669MOL0     C92240   1.497   9.034   7.201  0.3437  0.3050  0.2973
  669MOL0     C92241   1.505   9.073   7.068  0.4611  0.1931  0.1302
  669MOL0     C92242   1.508   9.204   7.025 -0.8282  0.6459 -0.4356
  669MOL0     O92243   1.517   9.257   6.897  0.5658 -0.5082  0.1840
  669MOL0     C92244   1.401   9.330   6.853 -0.0340 -0.0821 -0.1764
  669MOL0     C92245   1.425   9.481   6.849  0.1172  1.1372 -0.4251
  669MOL0     C92246   1.299   9.560   6.804 -0.4014 -0.2459 -0.7202
  669MOL0     C92247   1.316   9.714   6.790 -0.9442 -0.2298 -0.4249
  669MOL0     C92248   1.319   9.786   6.916 -0.1074 -0.7158  0.4468
  669MOL0     C92249   1.320   9.835   7.027 -0.2642  0.1040 -0.4006
  669MOL0     C92250   1.511   9.304   7.124  0.3616  0.4379  0.4225
  669MOL0     C92251   1.521   9.264   7.258 -0.4438  0.1961  0.3508
  669MOL0     C92252   1.550   9.377   7.352 -0.8822  0.9438 -0.1351
  669MOL0     H92253   1.586   8.692   7.506 -2.2698 -0.2237  0.3105
  669MOL0     H92254   1.661   8.612   7.721  0.6366  0.4408  2.4241
  669MOL0     H92255   1.813   8.803   7.925 -1.1127 -0.8502 -0.8251
  669MOL0     H92256   1.795   8.699   8.073 -0.0590 -0.3439  0.0283
  669MOL0     H92257   1.710   8.977   7.999  2.3373 -3.4481 -3.3028
  669MOL0     H92258   1.649   8.902   8.151  0.8266  0.9135  1.3690
  669MOL0     H92259   1.888   8.867   8.221  0.3743 -1.3319 -0.7935
  669MOL0     H92260   1.931   8.954   8.076 -1.8919  1.5544 -0.7310
  669MOL0     H92261   1.824   9.169   8.136 -2.8497  0.0458  0.5886
  669MOL0     H92262   1.767   9.081   8.286  0.8309 -3.4049 -0.3428
  669MOL0     H92263   2.000   9.243   8.318 -0.3777 -0.7216  0.1751
  669MOL0     H92264   2.078   9.109   8.219 -1.8080 -1.2777 -2.2669
  669MOL0     H92265   1.902   9.091   8.458 -0.5605 -2.1324  1.1094
  669MOL0     H92266   1.979   8.949   8.388 -0.5585 -0.7287  0.8269
  669MOL0     H92267   2.126   9.195   8.505 -1.9922  0.1536  1.4699
  669MOL0     H92268   2.203   9.043   8.447 -0.1812 -1.5320  1.6079
  669MOL0     H92269   2.005   9.050   8.659  0.4807  0.2183  1.2004
  669MOL0     H92270   2.104   8.918   8.627  0.9955  1.1425 -1.7143
  669MOL0     H92271   2.108   9.077   8.915  0.5902  2.0428  0.0681
  669MOL0     H92272   2.286   9.186   9.095 -1.5063 -0.0817 -1.1732
  669MOL0     H92273   2.464   9.184   9.035  0.5196 -2.1534 -2.2095
  669MOL0     H92274   2.306   8.962   9.131 -0.9787 -1.0333 -2.3667
  669MOL0     H92275   2.479   8.950   9.089 -2.9502 -2.8399 -0.5390
  669MOL0     H92276   2.351   9.116   9.332  1.8040  0.5210  2.7582
  669MOL0     H92277   2.426   8.960   9.344 -1.3149  0.5742  0.7377
  669MOL0     H92278   2.653   9.015   9.283 -1.5245 -0.8709 -4.2724
  669MOL0     H92279   2.589   9.176   9.231 -0.9543  0.9160  1.2632
  669MOL0     H92280   2.838   9.144   9.280  0.1458 -0.9875  2.0385
  669MOL0     H92281   3.021   9.305   9.143 -1.0217  1.3580 -0.1753
  669MOL0     H92282   3.104   9.184   9.250  0.6262  1.4495  0.1690
  669MOL0     H92283   3.149   9.350   9.252 -0.6396  2.3152 -1.6141
  669MOL0     H92284   3.126   9.672   9.774 -2.2289 -1.1577 -2.2528
  669MOL0     H92285   3.274   9.861   9.843  0.4850  3.4762 -1.0288
  669MOL0     H92286   3.565  10.057   9.739 -0.1039  0.7690  0.1767
  669MOL0     H92287   3.530   9.910   9.652  1.6003 -0.6407 -1.0112
  669MOL0     H92288   3.526   9.996   9.447  0.9441  0.8664 -0.3107
  669MOL0     H92289   3.483  10.156   9.484 -1.2732 -1.4999 -2.1275
  669MOL0     H92290   3.715  10.205   9.566 -0.9737 -0.3977  0.3825
  669MOL0     H92291   3.717  10.149   9.397  1.4164 -2.5941 -0.7996
  669MOL0     H92292   3.774   9.921   9.466  2.9163  0.4077 -0.8882
  669MOL0     H92293   3.747   9.962   9.636 -0.7901  4.2247  1.9788
  669MOL0     H92294   3.993   9.945   9.549  3.9605  4.0590  1.2059
  669MOL0     H92295   3.946  10.030   9.400  1.2946 -0.1461  0.0010
  669MOL0     H92296   3.920  10.166   9.665  0.6179 -1.6162 -0.2683
  669MOL0     H92297   3.989  10.227   9.506  1.5749 -0.1474 -1.0919
  669MOL0     H92298   4.196  10.085   9.542  2.4183  1.5816  1.4952
  669MOL0     H92299   4.142  10.036   9.705 -0.2179  1.8927  2.7280
  669MOL0     H92300   4.163  10.321   9.650 -1.9371 -2.1888 -1.3530
  669MOL0     H92301   4.301  10.211   9.723  0.2792  0.2934  2.4878
  669MOL0     H92302   3.295   9.992   9.439 -1.2675  1.9543  1.7491
  669MOL0     H92303   3.153   9.819   9.359 -1.5157  3.7268  0.2427
  669MOL0     H92304   2.805   9.543   9.565 -1.7749  0.5278 -0.2814
  669MOL0     H92305   2.633   9.385   9.552 -0.2273 -1.1574  0.4806
  669MOL0     H92306   1.452   8.934   7.914  1.8485  0.9545  0.8321
  669MOL0     H92307   1.403   9.035   7.707  0.5724  1.1355  0.1319
  669MOL0     H92308   1.492   8.927   7.219 -1.0489  0.3982  0.6247
  669MOL0     H92309   1.518   8.996   6.993  1.2112 -0.7860  1.2288
  669MOL0     H92310   1.376   9.283   6.757  1.3772 -2.2026  0.4494
  669MOL0     H92311   1.318   9.318   6.922  0.0338  1.2748  0.1715
  669MOL0     H92312   1.500   9.512   6.777 -0.9598 -0.2686 -2.2208
  669MOL0     H92313   1.445   9.517   6.951 -1.9483  0.3480  0.3293
  669MOL0     H92314   1.268   9.520   6.707  0.4261  0.4469 -1.2864
  669MOL0     H92315   1.219   9.533   6.873 -0.8572  0.2686 -1.0375
  669MOL0     H92316   1.223   9.736   6.736 -1.7112 -2.8350 -0.2963
  669MOL0     H92317   1.407   9.728   6.731 -1.1424 -1.3454 -1.0324
  669MOL0     H92318   1.319   9.871   7.128 -2.4362 -1.0502  0.0329
  669MOL0     H92319   1.514   9.410   7.101  1.0368  0.1701 -0.8136
  669MOL0     H92320   1.480   9.367   7.435 -0.8559 -0.3380 -0.2455
  669MOL0     H92321   1.649   9.362   7.396 -1.7539  0.2993  1.7105
  669MOL0     H92322   1.542   9.474   7.302  0.3112  0.8533 -0.5336
  670MOL0     O92323   8.848   8.828   0.710  0.1381  0.1818  0.2371
  670MOL0     C92324   8.749   8.861   0.654  0.5201 -1.1614 -0.8775
  670MOL0     O92325   8.630   8.801   0.663  0.2886 -0.1114  0.8507
  670MOL0     C92326   8.616   8.674   0.708  0.3876 -0.8327 -0.6485
  670MOL0     C92327   8.682   8.574   0.652  0.0191  0.4915  0.5218
  670MOL0     C92328   8.667   8.447   0.704 -0.2945  0.5715 -0.5701
  670MOL0     C92329   8.567   8.423   0.795 -0.1888  1.0513 -0.5901
  670MOL0     O92330   8.524   8.299   0.832  0.7036 -0.0139  0.4258
  670MOL0     C92331   8.600   8.182   0.821 -0.2525 -0.0749  0.2879
  670MOL0     C92332   8.525   8.069   0.885 -0.4779 -0.1540 -0.3039
  670MOL0     C92333   8.373   8.059   0.857  0.1521  0.0868  0.3242
  670MOL0     C92334   8.369   8.033   0.706  0.2340 -0.3681  0.5567
  670MOL0     C92335   8.220   8.015   0.663  0.6136  0.3924 -0.1195
  670MOL0     C92336   8.178   8.158   0.626  0.5850  0.4574  1.3223
  670MOL0     C92337   8.031   8.172   0.574 -0.2443  0.3854 -1.8582
  670MOL0     C92338   7.977   8.310   0.590  0.6946 -0.1612  0.6540
  670MOL0     N92339   7.866   8.339   0.494  0.8063  0.5477 -0.8381
  670MOL0     C92340   7.879   8.360   0.360  0.4276  0.6405 -0.0582
  670MOL0     C92341   7.754   8.342   0.310  1.2958  0.5136  0.5386
  670MOL0     C92342   7.697   8.347   0.172 -0.0048  0.2414  1.0286
  670MOL0     C92343   7.764   8.459   0.088  0.5412  0.3826 -0.2445
  670MOL0     C92344   7.694   8.495  -0.052 -0.1907  1.3028  1.0945
  670MOL0     C92345   7.727   8.383  -0.158 -0.5101  0.3663 -0.3374
  670MOL0     O92346   7.695   8.246  -0.125 -0.6587 -0.9693 -0.4867
  670MOL0     C92347   7.701   8.141  -0.220  1.1392  0.2352 -0.5193
  670MOL0     C92348   7.637   8.019  -0.187  0.3836  0.0510 -0.0155
  670MOL0     C92349   7.646   7.909  -0.276  0.1661 -0.5126 -0.7174
  670MOL0     C92350   7.596   7.777  -0.223  0.4836  0.6562  0.3014
  670MOL0     C92351   7.715   7.934  -0.405 -0.5978 -0.8774  0.6815
  670MOL0     C92352   7.713   7.844  -0.526  0.3791  0.2739  0.9050
  670MOL0     O92353   7.736   7.904  -0.647  0.5342 -0.2622 -0.8904
  670MOL0     C92354   7.746   7.812  -0.760  0.4082  0.0800  0.4998
  670MOL0     C92355   7.784   7.682  -0.758 -0.7333 -0.3623  0.7962
  670MOL0     C92356   7.774   7.604  -0.879 -0.4915 -0.1191 -0.5639
  670MOL0     C92357   7.734   7.659  -0.995  0.3025 -1.2522  0.7582
  670MOL0     O92358   7.726   7.582  -1.102  0.2599  0.3942 -0.3406
  670MOL0     C92359   7.630   7.605  -1.203 -0.4332  0.0494  0.7782
  670MOL0     C92360   7.589   7.490  -1.285  0.8843  0.5201  0.0460
  670MOL0     C92361   7.596   7.525  -1.432 -0.3770 -0.2836  0.2060
  670MOL0     C92362   7.579   7.397  -1.506 -0.0190  0.3207  0.6287
  670MOL0     C92363   7.564   7.414  -1.664  0.0653  0.0298  0.6566
  670MOL0     C92364   7.584   7.279  -1.742 -0.7182  0.4563 -1.7449
  670MOL0     C92365   7.565   7.294  -1.895  0.0985  0.6394  0.0107
  670MOL0     C92366   7.576   7.158  -1.958  0.5686  0.6027  0.1292
  670MOL0    Cl92367   7.738   7.085  -1.963 -0.0448  0.3634  0.0434
  670MOL0     C92368   7.713   7.796  -1.002  0.6751 -0.2561  0.2525
  670MOL0     C92369   7.704   7.874  -0.884 -0.4797  0.4455  0.3360
  670MOL0     O92370   7.652   7.738  -0.510 -0.1988  0.5566  0.0086
  670MOL0     C92371   7.774   8.053  -0.430  0.1956 -0.7060 -0.0083
  670MOL0     C92372   7.772   8.153  -0.339  0.2210  1.3683  0.4075
  670MOL0     N92373   7.670   8.321   0.423  0.3382 -0.0291  0.4670
  670MOL0     N92374   7.735   8.328   0.518  0.6113 -0.2311  0.0298
  670MOL0     C92375   8.502   8.523   0.857  0.1888  0.0227  0.6578
  670MOL0     C92376   8.528   8.654   0.813 -0.0237  0.0631 -0.9738
  670MOL0     C92377   8.756   8.968   0.554  1.2312 -0.3674  0.4802
  670MOL0     C92378   8.880   9.017   0.508 -0.7773 -0.2564  0.4204
  670MOL0     C92379   8.895   9.096   0.396  0.4370 -0.1121  0.0599
  670MOL0     C92380   8.787   9.144   0.332  0.0971  0.9551  0.6051
  670MOL0     O92381   8.801   9.217   0.217  0.3726  0.4952  0.0955
  670MOL0     C92382   8.820   9.149   0.097 -0.3120 -0.2033  0.0171
  670MOL0     C92383   8.954   9.093   0.078 -0.7164 -0.5201  0.7515
  670MOL0     C92384   8.988   9.074  -0.075 -0.8634 -0.6821 -0.3189
  670MOL0     C92385   9.023   9.208  -0.142 -1.2613  0.6137 -0.7370
  670MOL0     C92386   8.999   9.203  -0.286 -0.5856 -0.4243 -0.5167
  670MOL0     C92387   8.978   9.203  -0.405  0.0625 -0.0709 -0.0241
  670MOL0     C92388   8.660   9.096   0.371 -0.2199 -0.1831  0.3368
  670MOL0     C92389   8.646   9.009   0.481  0.7347 -0.1855  0.5916
  670MOL0     C92390   8.501   8.994   0.513 -1.4946  0.5062  0.1692
  670MOL0     H92391   8.741   8.602   0.565  2.0609  1.8523  2.2454
  670MOL0     H92392   8.719   8.367   0.652  0.4707 -0.8171  2.1486
  670MOL0     H92393   8.699   8.193   0.868  0.2943  0.5947 -0.9791
  670MOL0     H92394   8.620   8.159   0.716  0.2311 -0.0963  0.3788
  670MOL0     H92395   8.575   7.973   0.869  0.5163 -0.0036  1.5939
  670MOL0     H92396   8.532   8.095   0.991  0.6440  0.9951 -0.6343
  670MOL0     H92397   8.344   7.966   0.906  1.4173 -0.9786 -0.8501
  670MOL0     H92398   8.308   8.137   0.897 -1.3724 -0.1859 -1.4430
  670MOL0     H92399   8.422   8.113   0.653  0.3665 -0.7634  0.0871
  670MOL0     H92400   8.424   7.944   0.675 -0.3046 -1.2783  2.1045
  670MOL0     H92401   8.151   7.969   0.735 -0.3168  1.6126 -0.2022
  670MOL0     H92402   8.207   7.949   0.576  0.8760 -3.1635  2.2981
  670MOL0     H92403   8.193   8.223   0.713  0.8306 -1.9509  3.1947
  670MOL0     H92404   8.237   8.191   0.540 -1.7320 -1.1229 -1.0365
  670MOL0     H92405   7.962   8.097   0.613  0.3368  1.1862  0.8753
  670MOL0     H92406   8.032   8.144   0.468  1.0097  0.4751 -1.8833
  670MOL0     H92407   7.946   8.322   0.694  0.8009  0.9706  0.5717
  670MOL0     H92408   8.061   8.379   0.578 -1.4027  2.7218  1.5077
  670MOL0     H92409   7.977   8.395   0.327  1.7785  1.2084  3.9774
  670MOL0     H92410   7.590   8.367   0.172  0.2601  1.7265  1.4450
  670MOL0     H92411   7.706   8.254   0.115 -1.4220  1.2575 -0.9621
  670MOL0     H92412   7.769   8.550   0.149  1.4664  1.0294 -1.2462
  670MOL0     H92413   7.871   8.439   0.080  0.7196  0.9177  0.6448
  670MOL0     H92414   7.586   8.514  -0.044 -0.9532  0.2593 -3.6884
  670MOL0     H92415   7.736   8.582  -0.103  0.8831 -1.4693 -3.2955
  670MOL0     H92416   7.680   8.428  -0.247 -0.7684  2.8740  0.9789
  670MOL0     H92417   7.836   8.386  -0.167 -0.4201  0.6085  0.7542
  670MOL0     H92418   7.610   8.007  -0.083  0.7913  0.2138  0.1088
  670MOL0     H92419   7.620   7.759  -0.117 -0.6002 -1.8370  0.1845
  670MOL0     H92420   7.634   7.697  -0.286 -1.6019  0.0201 -0.2069
  670MOL0     H92421   7.487   7.780  -0.227  0.4130  0.0172  1.3467
  670MOL0     H92422   7.832   7.638  -0.672 -1.0311 -2.8200 -0.2095
  670MOL0     H92423   7.816   7.504  -0.871  1.8921  0.9699  1.9415
  670MOL0     H92424   7.540   7.640  -1.152 -1.5881 -0.4330 -0.8268
  670MOL0     H92425   7.651   7.695  -1.261 -1.2911 -0.2374 -0.0254
  670MOL0     H92426   7.661   7.409  -1.275  2.0544  1.7180  1.8067
  670MOL0     H92427   7.489   7.466  -1.247  0.9269  0.1965 -0.0465
  670MOL0     H92428   7.696   7.566  -1.452 -0.8234 -0.5311 -3.0561
  670MOL0     H92429   7.523   7.606  -1.443  0.6495  0.9524  1.8822
  670MOL0     H92430   7.492   7.340  -1.472  1.0915 -3.3294 -2.0558
  670MOL0     H92431   7.673   7.344  -1.490 -0.9628 -1.3871  0.7378
  670MOL0     H92432   7.474   7.474  -1.677  1.2801  2.1941  1.4590
  670MOL0     H92433   7.648   7.481  -1.687  1.3608 -1.3627  1.1599
  670MOL0     H92434   7.516   7.205  -1.700  1.2972  0.3202  1.6763
  670MOL0     H92435   7.681   7.233  -1.723 -0.9170 -0.7862 -3.4808
  670MOL0     H92436   7.648   7.360  -1.924  0.7128  0.1759  0.6673
  670MOL0     H92437   7.467   7.336  -1.917 -0.3133 -0.2142  0.1951
  670MOL0     H92438   7.540   7.167  -2.061 -1.6615 -5.3738 -0.0089
  670MOL0     H92439   7.519   7.086  -1.899  1.1867  1.2461  1.5366
  670MOL0     H92440   7.680   7.835  -1.098 -1.3564  0.2694  1.1040
  670MOL0     H92441   7.667   7.976  -0.883 -1.9668 -0.0340  2.4324
  670MOL0     H92442   7.833   8.078  -0.517  2.7046 -1.8246  1.2513
  670MOL0     H92443   7.807   8.252  -0.368 -0.1043  1.0591 -1.1255
  670MOL0     H92444   8.427   8.514   0.934  0.0586  1.9981  0.8290
  670MOL0     H92445   8.485   8.746   0.852  1.8968 -0.5599  3.2302
  670MOL0     H92446   8.965   8.995   0.572 -2.2742 -1.0814  2.2138
  670MOL0     H92447   8.986   9.132   0.348 -0.2166  2.4340  0.5765
  670MOL0     H92448   8.743   9.072   0.084 -1.1360  0.8700 -1.7985
  670MOL0     H92449   8.798   9.223   0.019 -3.3217 -0.9765  0.0179
  670MOL0     H92450   8.953   8.992   0.120  0.9457  0.1849  2.6928
  670MOL0     H92451   9.028   9.154   0.131  1.0518 -3.0145  1.3641
  670MOL0     H92452   9.068   9.003  -0.100  0.5680  0.0605  1.9018
  670MOL0     H92453   8.894   9.047  -0.126 -2.0513 -0.8840  1.8544
  670MOL0     H92454   9.127   9.229  -0.116 -1.3057 -1.8569  1.8328
  670MOL0     H92455   8.965   9.295  -0.110 -1.2018  0.8067 -1.1460
  670MOL0     H92456   8.958   9.213  -0.510  0.7450 -2.4441 -0.4304
  670MOL0     H92457   8.575   9.114   0.306 -0.6410 -3.2353 -0.1110
  670MOL0     H92458   8.457   8.901   0.476 -2.9566  0.4611  1.9168
  670MOL0     H92459   8.473   9.008   0.617  1.3625  2.3241  0.8022
  670MOL0     H92460   8.442   9.077   0.472 -2.4552 -0.9027 -1.4797
  671MOL0     O92461   1.531   3.730   4.240  0.4555  0.2909 -0.2328
  671MOL0     C92462   1.649   3.725   4.218 -0.3877 -0.1017 -0.1471
  671MOL0     O92463   1.714   3.664   4.114  0.2601  1.1173  0.4044
  671MOL0     C92464   1.637   3.598   4.020 -0.5344  1.1540 -1.1531
  671MOL0     C92465   1.598   3.655   3.905  1.2794  0.4860  0.6388
  671MOL0     C92466   1.529   3.587   3.805  0.2733  0.0031  0.1274
  671MOL0     C92467   1.501   3.453   3.815  0.1545 -0.0267 -0.2955
  671MOL0     O92468   1.425   3.384   3.719  0.0918  0.7545 -0.1016
  671MOL0     C92469   1.357   3.462   3.617  0.7622 -0.7688  0.4709
  671MOL0     C92470   1.283   3.380   3.529  0.3017 -0.6349 -0.0666
  671MOL0     C92471   1.352   3.260   3.469 -0.7624  0.6800 -1.3653
  671MOL0     C92472   1.266   3.188   3.373 -0.3626  1.0845 -0.7912
  671MOL0     C92473   1.359   3.117   3.281  0.0767 -0.1242 -1.1849
  671MOL0     C92474   1.419   2.987   3.338  0.3211 -0.1937 -0.7313
  671MOL0     C92475   1.497   2.905   3.232  0.4454 -1.0717  0.2426
  671MOL0     C92476   1.611   2.831   3.298  0.8012 -0.6701 -0.0863
  671MOL0     N92477   1.710   2.784   3.196 -0.7019  0.1093  0.2002
  671MOL0     C92478   1.789   2.864   3.110  0.5316  0.7531 -0.7965
  671MOL0     C92479   1.864   2.776   3.032 -0.0012  0.6267  0.8868
  671MOL0     C92480   1.952   2.821   2.920  0.1219  0.3257  0.2124
  671MOL0     C92481   1.865   2.890   2.818 -0.1882  0.1684 -0.1094
  671MOL0     C92482   1.950   2.949   2.714  0.1090  0.5397  0.5413
  671MOL0     C92483   1.861   3.007   2.602  1.0116  0.6946 -0.4347
  671MOL0     O92484   1.936   3.066   2.504 -0.0201  0.2489  0.1223
  671MOL0     C92485   2.009   3.181   2.527 -0.4779  0.1601 -0.6709
  671MOL0     C92486   2.015   3.259   2.647 -0.0814  0.4713 -1.0042
  671MOL0     C92487   2.110   3.355   2.676  0.1837 -0.1785 -0.2752
  671MOL0     C92488   2.110   3.432   2.804 -0.4708  0.3168  0.6183
  671MOL0     C92489   2.204   3.385   2.576 -0.0437  0.6278  0.7807
  671MOL0     C92490   2.316   3.487   2.586  0.2157  0.1870 -0.0221
  671MOL0     O92491   2.424   3.457   2.516  0.0308 -0.5402  0.1206
  671MOL0     C92492   2.514   3.563   2.501 -0.9096  0.2546  0.0162
  671MOL0     C92493   2.618   3.556   2.596 -0.0760 -0.8288  1.2321
  671MOL0     C92494   2.722   3.654   2.587 -0.1866 -0.1277  0.2173
  671MOL0     C92495   2.723   3.750   2.478 -0.0344  0.9544  0.1762
  671MOL0     O92496   2.831   3.835   2.471 -0.0320  0.2403  0.0833
  671MOL0     C92497   2.916   3.827   2.356 -0.6588 -0.5719 -0.2346
  671MOL0     C92498   3.062   3.816   2.394 -0.3104 -0.4064 -0.8589
  671MOL0     C92499   3.151   3.826   2.266  0.5068 -1.3013  0.3702
  671MOL0     C92500   3.299   3.835   2.326  0.9017 -0.0915  0.7107
  671MOL0     C92501   3.402   3.844   2.219 -0.3983  0.6350  0.4884
  671MOL0     C92502   3.539   3.844   2.288 -0.0832  0.2302  0.0144
  671MOL0     C92503   3.656   3.841   2.189  0.9926 -1.2312  0.6774
  671MOL0     C92504   3.672   3.974   2.112 -0.7108 -0.1100  0.7553
  671MOL0    Cl92505   3.844   3.993   2.084 -0.2013 -0.1416 -0.6043
  671MOL0     C92506   2.618   3.751   2.386 -0.0520  0.4325 -0.5946
  671MOL0     C92507   2.516   3.659   2.397  0.3334  0.1737  0.8101
  671MOL0     O92508   2.310   3.587   2.663  0.9149  0.2450 -0.0393
  671MOL0     C92509   2.196   3.313   2.451 -2.3676 -0.3628  0.2750
  671MOL0     C92510   2.103   3.221   2.426  0.4288  0.8825 -0.7395
  671MOL0     N92511   1.831   2.651   3.084  0.4584 -0.7031 -0.1578
  671MOL0     N92512   1.745   2.652   3.185 -0.0738  0.8380  0.6336
  671MOL0     C92513   1.543   3.383   3.930  0.2345 -0.7643  0.3453
  671MOL0     C92514   1.604   3.459   4.037  0.7021 -0.1590 -0.4359
  671MOL0     C92515   1.730   3.764   4.325 -0.0682 -0.0724  0.0222
  671MOL0     C92516   1.840   3.669   4.358  0.0658 -0.4939  0.4334
  671MOL0     C92517   1.922   3.694   4.476  1.0547  1.1203 -0.1173
  671MOL0     C92518   1.897   3.802   4.563 -1.3771 -0.5280  0.2546
  671MOL0     O92519   1.991   3.823   4.656 -0.1390 -0.3234 -0.1195
  671MOL0     C92520   1.965   3.939   4.743  0.0303  0.4091 -0.1759
  671MOL0     C92521   1.997   4.069   4.684 -1.8922  0.1423  0.1895
  671MOL0     C92522   2.136   4.078   4.617 -1.0334 -0.2125  0.1658
  671MOL0     C92523   2.258   4.079   4.711 -0.5488 -0.6653  0.4950
  671MOL0     C92524   2.261   4.196   4.795 -0.0085  1.0168 -1.0207
  671MOL0     C92525   2.260   4.289   4.874 -0.5276 -0.9558  0.2221
  671MOL0     C92526   1.781   3.881   4.542  0.5807  0.1776  0.3146
  671MOL0     C92527   1.700   3.864   4.420 -0.6215 -0.0342 -0.0043
  671MOL0     C92528   1.589   3.966   4.407  0.8235  0.4167 -0.1182
  671MOL0     H92529   1.613   3.758   3.876 -3.3079  0.6816 -2.0955
  671MOL0     H92530   1.506   3.644   3.716 -0.0833  2.0039  1.4226
  671MOL0     H92531   1.437   3.507   3.556  4.0528 -0.8006  4.3435
  671MOL0     H92532   1.300   3.539   3.671  3.1963 -0.3926  2.7093
  671MOL0     H92533   1.192   3.349   3.581 -1.2361 -1.4442 -3.0301
  671MOL0     H92534   1.260   3.444   3.444  0.5013 -2.4251 -1.5249
  671MOL0     H92535   1.446   3.289   3.421 -1.5818  2.5975 -1.9548
  671MOL0     H92536   1.375   3.194   3.552 -3.3601  0.2835 -0.8789
  671MOL0     H92537   1.219   3.106   3.427  1.2861 -0.7987 -2.0587
  671MOL0     H92538   1.193   3.249   3.319 -2.4742  1.6420  2.4347
  671MOL0     H92539   1.443   3.175   3.239  0.5754  2.1758  2.5203
  671MOL0     H92540   1.290   3.087   3.202 -0.4910  2.7232 -1.8907
  671MOL0     H92541   1.481   2.997   3.428  0.5987  1.5576 -1.0874
  671MOL0     H92542   1.327   2.932   3.357 -0.1404 -0.2011 -2.7657
  671MOL0     H92543   1.542   2.977   3.164  0.5496 -1.0908  0.2916
  671MOL0     H92544   1.426   2.838   3.182 -1.0918  2.2692 -2.4586
  671MOL0     H92545   1.667   2.901   3.362 -3.3179  3.0334 -0.0078
  671MOL0     H92546   1.571   2.748   3.357 -0.8873 -1.7665 -2.6094
  671MOL0     H92547   1.794   2.972   3.102 -0.6339  1.0372  1.5506
  671MOL0     H92548   1.999   2.739   2.864  2.0817  0.3677  1.6930
  671MOL0     H92549   2.028   2.888   2.959  0.4086 -0.2923  0.7384
  671MOL0     H92550   1.798   2.819   2.769 -0.5128  0.5341 -0.2000
  671MOL0     H92551   1.814   2.966   2.877 -0.8446 -0.7836  0.5852
  671MOL0     H92552   2.011   3.028   2.759 -2.6639  1.6281  2.7750
  671MOL0     H92553   2.005   2.865   2.673 -1.3412 -0.5704  0.7869
  671MOL0     H92554   1.797   2.925   2.568  1.0325 -0.0050  1.1460
  671MOL0     H92555   1.799   3.078   2.658  0.6248 -0.0963  0.1588
  671MOL0     H92556   1.950   3.226   2.727 -1.4871  0.7067 -1.9959
  671MOL0     H92557   2.080   3.534   2.778  3.9605  1.4141 -1.2220
  671MOL0     H92558   2.210   3.435   2.849  0.0728  2.1173 -0.5702
  671MOL0     H92559   2.045   3.385   2.878 -0.4812  2.5060  2.0764
  671MOL0     H92560   2.628   3.485   2.678 -0.0864 -1.5945  0.5773
  671MOL0     H92561   2.784   3.659   2.676 -0.4985 -0.8528  0.4875
  671MOL0     H92562   2.891   3.741   2.292  0.2243 -2.2734  1.5762
  671MOL0     H92563   2.898   3.911   2.289 -0.1286 -0.4657 -0.2529
  671MOL0     H92564   3.093   3.892   2.467 -0.5561 -2.5433  1.6089
  671MOL0     H92565   3.077   3.714   2.431 -0.3402  0.7901  2.8075
  671MOL0     H92566   3.126   3.920   2.216 -2.4652 -2.8521 -1.2980
  671MOL0     H92567   3.143   3.746   2.193  2.2865 -0.2008 -1.1342
  671MOL0     H92568   3.308   3.743   2.385  1.7728 -1.8061 -1.9105
  671MOL0     H92569   3.310   3.923   2.390 -1.9579 -1.0292  2.6291
  671MOL0     H92570   3.394   3.767   2.142  1.9458 -0.1336  0.9373
  671MOL0     H92571   3.389   3.936   2.160  3.0113  1.1753  0.3832
  671MOL0     H92572   3.542   3.771   2.370  3.2264  0.5472  0.3171
  671MOL0     H92573   3.557   3.934   2.348  1.0376 -0.2539  0.4386
  671MOL0     H92574   3.638   3.769   2.109  1.4548  1.1532 -1.7323
  671MOL0     H92575   3.749   3.818   2.242  2.5485  0.0121 -1.3553
  671MOL0     H92576   3.613   4.056   2.154 -0.4214  1.1093 -1.0690
  671MOL0     H92577   3.623   3.955   2.016  1.6955  1.2129 -0.8246
  671MOL0     H92578   2.633   3.821   2.305  2.0039  1.2018  0.3793
  671MOL0     H92579   2.420   3.667   2.346 -0.0195  0.8207  1.5476
  671MOL0     H92580   2.267   3.326   2.371 -0.1744  2.6331  2.4708
  671MOL0     H92581   2.113   3.162   2.336 -1.7987  0.8444 -1.0155
  671MOL0     H92582   1.522   3.277   3.940  2.7558 -1.6286 -2.0491
  671MOL0     H92583   1.603   3.391   4.121 -0.6735 -1.3280 -1.3427
  671MOL0     H92584   1.855   3.579   4.301 -3.5504 -1.3225  0.5494
  671MOL0     H92585   1.989   3.609   4.482 -0.4700 -0.0558  2.0102
  671MOL0     H92586   1.865   3.951   4.785  1.5195 -0.3675  4.2404
  671MOL0     H92587   2.025   3.920   4.833 -1.4254  2.4762  1.3309
  671MOL0     H92588   1.998   4.148   4.761  0.1097 -0.7469  1.1797
  671MOL0     H92589   1.927   4.099   4.606 -0.9051 -2.7989 -1.9978
  671MOL0     H92590   2.151   3.992   4.551 -0.9537  0.9466 -1.3815
  671MOL0     H92591   2.156   4.169   4.559 -0.5975 -0.8961 -0.7764
  671MOL0     H92592   2.354   4.066   4.661 -1.4921  1.5605 -2.2125
  671MOL0     H92593   2.254   3.995   4.781  0.0838 -1.4060 -0.3516
  671MOL0     H92594   2.261   4.370   4.944 -0.3489 -0.8169  0.0584
  671MOL0     H92595   1.741   3.945   4.620 -1.2145 -1.3088  0.6947
  671MOL0     H92596   1.605   4.059   4.462  2.7808 -0.9695  1.8869
  671MOL0     H92597   1.588   4.004   4.305  2.8965  3.9988  1.0442
  671MOL0     H92598   1.489   3.929   4.429 -0.2538  0.2384 -4.4398
  672MOL0     O92599   9.846   0.124   6.727  0.8002  0.2110  0.0834
  672MOL0     C92600   9.830   0.049   6.633 -1.0814  0.3852  0.1557
  672MOL0     O92601   9.935   0.003   6.561 -0.1155  0.4508  0.2641
  672MOL0     C92602  10.054  -0.024   6.616  0.1216 -0.7314 -0.6635
  672MOL0     C92603  10.071  -0.120   6.720  0.2931 -0.7643  0.4834
  672MOL0     C92604  10.192  -0.137   6.788  0.2556 -1.5827 -0.4367
  672MOL0     C92605  10.296  -0.052   6.748  0.2841 -0.8615  0.0619
  672MOL0     O92606  10.416  -0.076   6.808  0.3876 -0.3612  0.1325
  672MOL0     C92607  10.510   0.031   6.822 -0.1429  0.1133 -0.2481
  672MOL0     C92608  10.630   0.018   6.737  0.6211  0.8392  0.4814
  672MOL0     C92609  10.740  -0.084   6.791  0.0871  0.0182 -0.2127
  672MOL0     C92610  10.821  -0.130   6.665  0.0529  0.0357 -0.6202
  672MOL0     C92611  10.791  -0.276   6.663 -0.5593 -0.1771  0.4930
  672MOL0     C92612  10.846  -0.343   6.529  0.3549  0.4159 -0.2639
  672MOL0     C92613  10.733  -0.371   6.429 -0.2608  0.1305 -0.1053
  672MOL0     C92614  10.677  -0.251   6.358  0.8414  0.3167  0.6274
  672MOL0     N92615  10.769  -0.170   6.286 -0.2449  0.1928  0.2666
  672MOL0     C92616  10.840  -0.208   6.173 -0.2223 -0.2737  0.2248
  672MOL0     C92617  10.909  -0.095   6.130  0.7216  0.9376 -0.4854
  672MOL0     C92618  10.970  -0.066   5.999 -0.3156  1.0355 -0.0907
  672MOL0     C92619  10.885  -0.025   5.883 -0.3421  0.3912  0.5229
  672MOL0     C92620  10.831   0.120   5.863  0.3503  0.1176 -0.4560
  672MOL0     C92621  10.757   0.163   5.996 -0.2654  0.5793 -0.3767
  672MOL0     O92622  10.649   0.245   5.964 -0.1647 -0.2713  0.4521
  672MOL0     C92623  10.567   0.288   6.064  0.2623 -0.4077  0.3062
  672MOL0     C92624  10.457   0.365   6.023  0.3442  0.0627  0.6767
  672MOL0     C92625  10.363   0.414   6.118 -0.6296 -0.4971 -0.1117
  672MOL0     C92626  10.246   0.486   6.067  0.6614  0.3596 -0.0061
  672MOL0     C92627  10.374   0.371   6.255 -0.1721 -0.5595  0.0661
  672MOL0     C92628  10.278   0.416   6.365  0.7685 -0.3414  0.4675
  672MOL0     O92629  10.164   0.485   6.329 -0.1807  0.4384 -0.0864
  672MOL0     C92630  10.074   0.519   6.423 -0.1425  0.1941  0.0043
  672MOL0     C92631  10.063   0.657   6.432  1.4540 -0.4017 -0.1011
  672MOL0     C92632   9.951   0.704   6.505 -0.2650 -0.6135  0.8390
  672MOL0     C92633   9.867   0.618   6.586  0.4901 -0.7738  0.1296
  672MOL0     O92634   9.767   0.676   6.660 -0.0245  0.4808 -0.8525
  672MOL0     C92635   9.788   0.654   6.800 -0.1719  0.1210  0.0837
  672MOL0     C92636   9.706   0.767   6.875  0.0600  0.2448  0.1706
  672MOL0     C92637   9.554   0.734   6.862 -0.1959  0.5201  0.0328
  672MOL0     C92638   9.469   0.841   6.933  0.0473  0.2729  0.0725
  672MOL0     C92639   9.318   0.803   6.930 -0.3513 -0.9475 -0.2029
  672MOL0     C92640   9.234   0.912   7.006  0.2807 -0.7499 -0.5148
  672MOL0     C92641   9.087   0.885   6.989  0.5847 -0.8399 -0.4476
  672MOL0     C92642   9.008   0.989   7.063  0.6243  0.6933 -0.6328
  672MOL0    Cl92643   9.045   1.154   6.997  0.1726 -0.0815  0.6761
  672MOL0     C92644   9.898   0.483   6.585  0.1632  0.2977  0.3305
  672MOL0     C92645   9.989   0.425   6.495  0.9824 -0.5034  0.6360
  672MOL0     O92646  10.318   0.401   6.486 -0.4621  0.4803  0.3008
  672MOL0     C92647  10.479   0.294   6.292  0.4633 -0.0243 -0.6566
  672MOL0     C92648  10.572   0.249   6.199  0.1420 -0.0289  0.8615
  672MOL0     N92649  10.889   0.005   6.227  0.5120 -0.1208  0.0571
  672MOL0     N92650  10.795  -0.036   6.308  1.3703  0.3058 -0.1129
  672MOL0     C92651  10.282   0.038   6.642  0.0367 -0.2981  0.5403
  672MOL0     C92652  10.163   0.058   6.574 -0.3836  0.6295 -0.0655
  672MOL0     C92653   9.700  -0.009   6.612  0.4795 -0.4183 -0.5314
  672MOL0     C92654   9.687  -0.146   6.591 -0.0259 -0.3216 -0.2740
  672MOL0     C92655   9.570  -0.195   6.551  0.3986  0.8028 -0.2689
  672MOL0     C92656   9.448  -0.126   6.535 -0.5717 -0.7021 -0.1107
  672MOL0     O92657   9.341  -0.202   6.515  0.2706 -0.3714 -0.6903
  672MOL0     C92658   9.206  -0.149   6.527  0.1063 -0.1517 -0.2261
  672MOL0     C92659   9.114  -0.247   6.577  0.5352 -0.4850  0.9997
  672MOL0     C92660   8.985  -0.169   6.640 -0.7053  0.8709  0.3218
  672MOL0     C92661   8.903  -0.110   6.518  0.2996  0.2232  0.5284
  672MOL0     C92662   8.951   0.022   6.487 -0.3028 -0.7798  0.2833
  672MOL0     C92663   8.994   0.135   6.467  1.1799 -1.9492 -0.4757
  672MOL0     C92664   9.459   0.013   6.571 -0.5530 -0.6373  0.9976
  672MOL0     C92665   9.583   0.069   6.609 -0.1727 -0.0684  0.0360
  672MOL0     C92666   9.582   0.218   6.633  0.7673  0.3533 -0.6030
  672MOL0     H92667   9.988  -0.188   6.735  0.0038 -0.1878  1.5648
  672MOL0     H92668  10.199  -0.210   6.867 -0.3516 -3.5903 -2.1582
  672MOL0     H92669  10.533   0.032   6.929 -1.9140  0.7109  0.1638
  672MOL0     H92670  10.455   0.123   6.799 -0.1145 -0.1391 -1.3891
  672MOL0     H92671  10.593  -0.019   6.641 -2.3973  3.4373  0.4635
  672MOL0     H92672  10.684   0.109   6.711  2.5852 -1.2638 -3.7624
  672MOL0     H92673  10.812  -0.033   6.856  2.3739 -2.0891 -0.9309
  672MOL0     H92674  10.707  -0.164   6.857  0.2277  1.6549  1.9453
  672MOL0     H92675  10.794  -0.063   6.583 -2.6243 -0.2241 -0.0406
  672MOL0     H92676  10.928  -0.125   6.685 -0.4124  0.7904  1.9819
  672MOL0     H92677  10.682  -0.284   6.664 -0.7528  1.3858 -1.7850
  672MOL0     H92678  10.842  -0.321   6.749  1.0915 -0.1114 -0.4097
  672MOL0     H92679  10.920  -0.276   6.485  2.0526  1.3289  3.5708
  672MOL0     H92680  10.884  -0.444   6.545  2.4847  0.9898 -1.3912
  672MOL0     H92681  10.663  -0.428   6.490  2.6592 -0.0255  3.4496
  672MOL0     H92682  10.775  -0.441   6.356 -1.7418  0.3484 -1.2181
  672MOL0     H92683  10.617  -0.294   6.277  0.0355  0.5889  1.0644
  672MOL0     H92684  10.610  -0.196   6.425 -0.8786 -2.7915  1.6602
  672MOL0     H92685  10.816  -0.307   6.136  0.5132  0.6215 -2.9178
  672MOL0     H92686  11.019  -0.160   5.973 -0.6139 -0.2292  3.4980
  672MOL0     H92687  11.047   0.010   6.015 -1.8688  3.3305 -2.6184
  672MOL0     H92688  10.954  -0.054   5.803  0.2433  1.4556  0.6264
  672MOL0     H92689  10.805  -0.101   5.883 -0.9550  0.3975  7.4343
  672MOL0     H92690  10.918   0.183   5.841  2.7237 -2.0692  1.8756
  672MOL0     H92691  10.765   0.145   5.779  0.6239  0.3114 -0.6160
  672MOL0     H92692  10.716   0.074   6.045 -0.8228  0.8721 -0.3005
  672MOL0     H92693  10.833   0.209   6.059  0.0226 -0.7766  0.3107
  672MOL0     H92694  10.457   0.398   5.920 -1.3830 -3.3631 -0.6076
  672MOL0     H92695  10.250   0.504   5.959 -0.8924  0.2627 -0.0971
  672MOL0     H92696  10.255   0.591   6.094  3.4344  1.2636 -3.6196
  672MOL0     H92697  10.149   0.437   6.075  2.2548 -2.8429  1.5962
  672MOL0     H92698  10.123   0.732   6.381  1.2502  0.5046  0.9474
  672MOL0     H92699   9.924   0.809   6.508 -0.6458 -0.6943  0.4022
  672MOL0     H92700   9.758   0.558   6.842  1.0592 -0.0894  0.5512
  672MOL0     H92701   9.894   0.679   6.815 -0.0837 -0.0431 -0.2533
  672MOL0     H92702   9.732   0.773   6.981 -1.0392 -1.8334  0.6178
  672MOL0     H92703   9.719   0.871   6.843 -0.6110  1.1922  2.7138
  672MOL0     H92704   9.521   0.634   6.891 -3.4393  0.3171 -3.6003
  672MOL0     H92705   9.538   0.724   6.755  2.3130  1.3221 -0.4978
  672MOL0     H92706   9.482   0.935   6.879 -2.5863  0.0726 -1.0915
  672MOL0     H92707   9.506   0.841   7.036  3.1840 -2.8295 -0.8736
  672MOL0     H92708   9.280   0.795   6.827 -1.4898  1.6486 -0.0487
  672MOL0     H92709   9.322   0.701   6.969  0.4169 -1.1828 -0.8712
  672MOL0     H92710   9.256   1.001   6.945  0.5516 -1.0868 -0.9100
  672MOL0     H92711   9.269   0.936   7.107  0.9478  1.8433 -1.2796
  672MOL0     H92712   9.054   0.792   7.037 -3.1681 -0.6635 -2.3744
  672MOL0     H92713   9.066   0.905   6.884  1.9796  0.0279 -0.5906
  672MOL0     H92714   9.039   0.996   7.168 -3.9803  0.8647  0.9330
  672MOL0     H92715   8.904   0.957   7.064  0.4090  1.3335  1.5037
  672MOL0     H92716   9.822   0.429   6.642  1.1443  0.5901  1.9932
  672MOL0     H92717  10.019   0.322   6.480  2.4299 -0.2536  1.6291
  672MOL0     H92718  10.494   0.257   6.392 -1.1656  1.0416  0.0354
  672MOL0     H92719  10.649   0.191   6.249  0.4768 -0.2555  0.0927
  672MOL0     H92720  10.347   0.115   6.602  0.1215 -0.7426 -0.1906
  672MOL0     H92721  10.155   0.146   6.510 -0.1554  1.3007  0.8161
  672MOL0     H92722   9.767  -0.216   6.610 -1.9539 -2.4465  0.5059
  672MOL0     H92723   9.563  -0.303   6.547  1.6946  0.5248  2.6785
  672MOL0     H92724   9.209  -0.055   6.584  1.4560  0.3490 -1.0923
  672MOL0     H92725   9.175  -0.120   6.426 -1.7826 -0.1077  0.3169
  672MOL0     H92726   9.166  -0.291   6.663  1.1178 -0.2484  0.7754
  672MOL0     H92727   9.109  -0.326   6.502  0.0123 -0.1190  0.6418
  672MOL0     H92728   8.927  -0.242   6.699 -0.3179 -0.1768 -0.5517
  672MOL0     H92729   9.007  -0.093   6.714 -0.0786 -1.0896  2.2689
  672MOL0     H92730   8.796  -0.110   6.540  0.5661 -0.5007  1.9157
  672MOL0     H92731   8.919  -0.165   6.424 -0.2143  0.6840  0.1611
  672MOL0     H92732   9.025   0.237   6.459 -0.4610 -1.0527  2.6704
  672MOL0     H92733   9.374   0.080   6.559  1.9026  2.5231 -0.2642
  672MOL0     H92734   9.532   0.230   6.729 -1.8616  2.3706 -2.0907
  672MOL0     H92735   9.679   0.270   6.630  2.8116 -3.1490 -0.3641
  672MOL0     H92736   9.510   0.268   6.568 -2.3492 -0.6523  1.8248
  673MOL0     O92737   1.126   1.390   6.663  0.6662  0.3200  1.1679
  673MOL0     C92738   1.206   1.416   6.744 -1.0955 -1.3925 -0.3573
  673MOL0     O92739   1.237   1.542   6.782 -0.4251  0.3900 -0.3785
  673MOL0     C92740   1.167   1.644   6.746  0.2547 -0.2451  0.1955
  673MOL0     C92741   1.059   1.677   6.820  0.2371  0.5827 -0.1735
  673MOL0     C92742   0.982   1.792   6.794 -0.5391  0.0277  0.1103
  673MOL0     C92743   1.025   1.900   6.705  0.6882  0.2456 -1.8206
  673MOL0     O92744   0.948   2.011   6.687  0.2091 -0.5465 -0.6694
  673MOL0     C92745   1.020   2.137   6.642 -0.6400  0.2241  0.3205
  673MOL0     C92746   0.957   2.272   6.697  0.3712 -0.0507  0.7932
  673MOL0     C92747   0.816   2.312   6.626  0.1300  0.6623 -0.3390
  673MOL0     C92748   0.684   2.284   6.712 -0.2315  0.4195  0.3016
  673MOL0     C92749   0.572   2.349   6.645  0.4170 -0.3800  0.0318
  673MOL0     C92750   0.444   2.358   6.732  0.2023 -0.3770 -0.4144
  673MOL0     C92751   0.330   2.405   6.649 -0.7077 -0.7547 -0.3500
  673MOL0     C92752   0.340   2.559   6.617 -0.0441  0.0708  0.4735
  673MOL0     N92753   0.214   2.597   6.559 -0.2154 -0.2312 -0.0263
  673MOL0     C92754   0.118   2.664   6.612  0.1681 -0.0578 -0.8411
  673MOL0     C92755   0.055   2.723   6.508  0.3358  0.1849  0.1379
  673MOL0     C92756  -0.048   2.832   6.514 -0.2646  0.4960  0.0032
  673MOL0     C92757   0.033   2.967   6.491 -0.0608  0.3389  0.1350
  673MOL0     C92758  -0.052   3.091   6.465  0.0409  0.0550 -1.2547
  673MOL0     C92759  -0.170   3.108   6.557  0.5604 -0.9341  0.2760
  673MOL0     O92760  -0.120   3.137   6.686 -0.8718  0.2731  0.0996
  673MOL0     C92761  -0.197   3.202   6.782  0.9218 -0.0947 -0.5487
  673MOL0     C92762  -0.332   3.249   6.766 -0.1099  0.9152  0.2908
  673MOL0     C92763  -0.418   3.306   6.868  0.1967  0.4284  0.2049
  673MOL0     C92764  -0.559   3.358   6.835  0.8383 -1.4244  0.3349
  673MOL0     C92765  -0.341   3.333   6.990  0.5123 -0.6793  0.4546
  673MOL0     C92766  -0.394   3.422   7.092  0.3630  0.5374 -1.0261
  673MOL0     O92767  -0.338   3.409   7.216 -0.9498  0.2670  0.8541
  673MOL0     C92768  -0.365   3.509   7.309 -0.7061 -0.2750 -0.5209
  673MOL0     C92769  -0.427   3.481   7.429 -0.3261 -0.1498 -0.2272
  673MOL0     C92770  -0.459   3.584   7.516  0.1015 -0.4513  0.3860
  673MOL0     C92771  -0.453   3.721   7.485 -0.7079  1.1229 -0.1364
  673MOL0     O92772  -0.502   3.811   7.581 -0.2336 -0.0142 -0.6835
  673MOL0     C92773  -0.495   3.947   7.551  0.1601 -0.3730  0.8293
  673MOL0     C92774  -0.530   4.020   7.677 -0.6366  0.3219 -0.2865
  673MOL0     C92775  -0.490   4.169   7.657 -0.0243 -0.2951  0.3936
  673MOL0     C92776  -0.504   4.253   7.784 -0.4710  0.4667  0.9000
  673MOL0     C92777  -0.392   4.221   7.883 -0.0533  0.1111  0.1034
  673MOL0     C92778  -0.425   4.280   8.014 -0.0315 -0.3737  1.1003
  673MOL0     C92779  -0.374   4.213   8.149  0.1948 -0.4154 -0.9569
  673MOL0     C92780  -0.411   4.293   8.273  0.2445  0.0514  0.3650
  673MOL0    Cl92781  -0.277   4.397   8.289 -0.6606 -0.0261  0.0621
  673MOL0     C92782  -0.390   3.745   7.361 -1.0300 -0.3238  0.7851
  673MOL0     C92783  -0.340   3.644   7.274  0.7805  1.1499  0.8810
  673MOL0     O92784  -0.473   3.509   7.058 -0.4514  0.7812  0.6453
  673MOL0     C92785  -0.214   3.288   7.008  0.2704 -0.2966  0.5423
  673MOL0     C92786  -0.140   3.235   6.908 -0.6910  0.4165  0.5809
  673MOL0     N92787   0.107   2.670   6.396 -0.9235 -0.9572  0.5825
  673MOL0     N92788   0.208   2.606   6.422 -0.0878  1.0086 -0.4610
  673MOL0     C92789   1.131   1.860   6.631  0.1226  0.7828 -0.0316
  673MOL0     C92790   1.208   1.739   6.658  0.4435 -0.0616  0.3508
  673MOL0     C92791   1.287   1.304   6.789 -0.3058 -0.3628 -0.8247
  673MOL0     C92792   1.383   1.325   6.891  0.2747 -0.3786  0.6543
  673MOL0     C92793   1.451   1.216   6.948 -0.2195 -0.1859 -0.5149
  673MOL0     C92794   1.419   1.082   6.925  0.1591 -0.2479  0.3974
  673MOL0     O92795   1.494   0.997   6.994 -0.2912  1.1121  0.5329
  673MOL0     C92796   1.456   0.858   7.008  0.0830  0.2668  0.2894
  673MOL0     C92797   1.407   0.842   7.156 -0.1913 -0.6315 -0.4480
  673MOL0     C92798   1.414   0.707   7.211  0.1057  0.1161 -0.6914
  673MOL0     C92799   1.277   0.636   7.205  0.0386 -0.6789 -0.1291
  673MOL0     C92800   1.232   0.619   7.064  0.6691  0.7598 -0.5695
  673MOL0     C92801   1.192   0.610   6.957  0.0511 -0.5358 -0.1163
  673MOL0     C92802   1.338   1.067   6.815  0.5176 -1.3029  0.2160
  673MOL0     C92803   1.267   1.170   6.746 -0.2480  0.1887  0.1119
  673MOL0     C92804   1.156   1.116   6.643 -0.7315  0.6798 -0.2688
  673MOL0     H92805   1.026   1.602   6.891  2.9140 -0.8497 -0.3412
  673MOL0     H92806   0.889   1.812   6.845 -1.1949 -0.5823 -0.8171
  673MOL0     H92807   1.016   2.129   6.533 -1.4971 -0.3085  0.3827
  673MOL0     H92808   1.126   2.132   6.667 -0.4015 -4.8492 -0.6940
  673MOL0     H92809   0.930   2.268   6.803 -2.2857 -2.3456  0.1427
  673MOL0     H92810   1.031   2.350   6.675 -1.5862  1.2732 -1.4879
  673MOL0     H92811   0.814   2.417   6.597 -1.6298  0.1875 -2.1656
  673MOL0     H92812   0.810   2.256   6.532 -1.0671 -0.4032  0.3323
  673MOL0     H92813   0.665   2.177   6.728  1.7464  0.2740  2.0745
  673MOL0     H92814   0.686   2.329   6.811  3.9157 -1.1692  1.1490
  673MOL0     H92815   0.542   2.292   6.557 -3.0018 -2.8893  2.5583
  673MOL0     H92816   0.602   2.451   6.619 -1.1353  0.9364  2.9372
  673MOL0     H92817   0.425   2.255   6.765 -2.1926 -0.9006 -2.9867
  673MOL0     H92818   0.446   2.428   6.816  0.0423 -1.1840  0.2851
  673MOL0     H92819   0.234   2.375   6.693 -1.0121 -0.0374 -0.5098
  673MOL0     H92820   0.320   2.356   6.553 -1.5771 -1.8746  0.2930
  673MOL0     H92821   0.356   2.618   6.708  2.2062 -1.0025  0.8317
  673MOL0     H92822   0.426   2.581   6.554 -0.0289 -0.6366  0.2353
  673MOL0     H92823   0.101   2.694   6.715 -3.1132  0.2610 -1.3739
  673MOL0     H92824  -0.088   2.835   6.615  0.4904 -0.7362  0.3639
  673MOL0     H92825  -0.121   2.810   6.435 -0.6785  0.0120  0.5147
  673MOL0     H92826   0.077   2.975   6.591 -1.9449 -1.8159  1.2177
  673MOL0     H92827   0.108   2.962   6.412 -1.4825  2.4336 -1.4629
  673MOL0     H92828   0.009   3.179   6.482  1.0609 -0.8671  0.0520
  673MOL0     H92829  -0.079   3.094   6.359  1.0392  1.5547 -1.4876
  673MOL0     H92830  -0.228   3.193   6.519  1.1536 -0.5041  0.3216
  673MOL0     H92831  -0.233   3.019   6.551  0.2831 -0.7694  0.6861
  673MOL0     H92832  -0.377   3.225   6.670 -1.1226 -0.3976  1.0571
  673MOL0     H92833  -0.596   3.291   6.757  1.1116  0.1069 -1.1708
  673MOL0     H92834  -0.567   3.456   6.788  1.3050 -1.2997  0.5099
  673MOL0     H92835  -0.618   3.357   6.927  1.3819 -0.9568  0.6922
  673MOL0     H92836  -0.446   3.380   7.463 -0.2658  0.1303  0.6568
  673MOL0     H92837  -0.494   3.553   7.614 -1.4127  0.9943  0.3498
  673MOL0     H92838  -0.396   3.976   7.514 -1.4624  0.8644 -3.0306
  673MOL0     H92839  -0.564   3.982   7.474  0.5425  2.0015  1.4634
  673MOL0     H92840  -0.637   4.006   7.689 -1.2703  3.1079 -1.7343
  673MOL0     H92841  -0.472   3.967   7.754 -0.5863  0.6112 -0.1217
  673MOL0     H92842  -0.559   4.211   7.583  0.9180  1.4583  0.4671
  673MOL0     H92843  -0.388   4.179   7.619 -0.6462 -1.5241 -1.7324
  673MOL0     H92844  -0.600   4.230   7.832 -0.1285 -2.0668  0.5006
  673MOL0     H92845  -0.521   4.359   7.768 -1.3551  0.0713 -0.9951
  673MOL0     H92846  -0.384   4.112   7.896 -0.4211  0.4313  4.5208
  673MOL0     H92847  -0.291   4.256   7.857  0.5061 -1.7243 -0.4070
  673MOL0     H92848  -0.532   4.285   8.037  0.3309 -0.4913  2.9954
  673MOL0     H92849  -0.382   4.380   8.003  1.1925 -0.9437  0.5320
  673MOL0     H92850  -0.265   4.217   8.148  0.2972  2.3365  2.5580
  673MOL0     H92851  -0.400   4.107   8.153  1.5627 -0.7805 -1.0415
  673MOL0     H92852  -0.428   4.222   8.354 -2.7501  0.3829  0.1391
  673MOL0     H92853  -0.497   4.360   8.262  0.1634 -0.3997 -2.3309
  673MOL0     H92854  -0.383   3.852   7.343  1.3371 -0.7722 -1.6046
  673MOL0     H92855  -0.304   3.665   7.174  2.6734 -1.3596  0.9567
  673MOL0     H92856  -0.151   3.321   7.091  1.3405 -0.1328 -0.3089
  673MOL0     H92857  -0.034   3.214   6.905 -0.9703 -1.1303 -1.9153
  673MOL0     H92858   1.160   1.918   6.544 -0.8874 -0.3899 -1.2040
  673MOL0     H92859   1.302   1.721   6.606 -0.1942 -1.6969 -0.3033
  673MOL0     H92860   1.415   1.424   6.923 -0.3619  0.1701 -0.3175
  673MOL0     H92861   1.533   1.244   7.013  1.8062  1.0951 -3.4545
  673MOL0     H92862   1.389   0.825   6.928  0.0147  1.6067 -0.2244
  673MOL0     H92863   1.550   0.802   6.998  1.6128  2.6646  0.5843
  673MOL0     H92864   1.305   0.877   7.173  0.0282 -0.8589  1.6277
  673MOL0     H92865   1.486   0.894   7.211 -0.2911 -2.0345  1.1060
  673MOL0     H92866   1.492   0.651   7.158  0.6600  1.5002 -1.3696
  673MOL0     H92867   1.421   0.716   7.320 -1.3230  1.0514 -0.6554
  673MOL0     H92868   1.217   0.703   7.267 -2.3800 -2.3851 -0.4612
  673MOL0     H92869   1.270   0.534   7.244  1.2614 -0.9677 -0.6154
  673MOL0     H92870   1.146   0.607   6.860  1.5680  2.3616 -1.0787
  673MOL0     H92871   1.317   0.963   6.788  5.6995 -2.2096 -1.4167
  673MOL0     H92872   1.176   1.015   6.606 -0.3193  0.9020 -0.6633
  673MOL0     H92873   1.055   1.120   6.685 -0.3938  0.6612  0.5691
  673MOL0     H92874   1.154   1.162   6.544  3.4521  1.0750 -0.3785
  674MOL0     O92875   0.594   0.832  10.440  0.4458 -0.0371  0.3431
  674MOL0     C92876   0.516   0.912  10.384 -0.1161  0.8060  0.7453
  674MOL0     O92877   0.468   1.030  10.441  0.0134 -0.6100 -0.0145
  674MOL0     C92878   0.519   1.093  10.555 -0.0300  1.0216  0.1802
  674MOL0     C92879   0.439   1.187  10.621  0.2556  0.0742 -0.4848
  674MOL0     C92880   0.482   1.262  10.739  0.3619 -0.0549  0.2088
  674MOL0     C92881   0.609   1.234  10.786 -0.2159  0.4383 -1.1543
  674MOL0     O92882   0.651   1.309  10.891  0.1864 -1.2144  0.4149
  674MOL0     C92883   0.785   1.315  10.938  0.5518  0.6568 -0.2495
  674MOL0     C92884   0.778   1.351  11.090 -0.5583  0.6232  0.7163
  674MOL0     C92885   0.713   1.487  11.095  0.2001 -0.7141  1.3519
  674MOL0     C92886   0.730   1.576  11.221 -0.6376  0.1415 -0.6674
  674MOL0     C92887   0.649   1.713  11.211  0.5669  0.0849  0.7194
  674MOL0     C92888   0.686   1.814  11.329 -0.0505  0.8358  0.2591
  674MOL0     C92889   0.641   1.956  11.320 -0.2043 -0.0809  0.1836
  674MOL0     C92890   0.504   1.990  11.257  0.4513  0.1760  0.5292
  674MOL0     N92891   0.397   1.958  11.345  0.6371 -0.2996 -0.1441
  674MOL0     C92892   0.315   1.847  11.335 -0.2991  0.3769  0.3698
  674MOL0     C92893   0.246   1.849  11.450  0.1927  1.2458  0.2888
  674MOL0     C92894   0.132   1.753  11.496  0.0899  0.8374  0.4592
  674MOL0     C92895   0.167   1.678  11.626  1.0954  0.1748  0.7653
  674MOL0     C92896   0.304   1.624  11.624  0.0357 -0.6442  1.1757
  674MOL0     C92897   0.345   1.548  11.502  0.0886 -0.1317 -0.4005
  674MOL0     O92898   0.295   1.414  11.528 -0.0464  0.6963  0.4275
  674MOL0     C92899   0.345   1.317  11.451 -0.4739  0.0686  0.1269
  674MOL0     C92900   0.300   1.192  11.476 -0.0343  0.0737 -0.1465
  674MOL0     C92901   0.335   1.079  11.402  1.2306 -1.0578  0.7864
  674MOL0     C92902   0.268   0.953  11.456  0.1075 -0.2281 -0.3827
  674MOL0     C92903   0.420   1.088  11.289  1.4005 -0.2035  0.1695
  674MOL0     C92904   0.448   0.985  11.187  0.3380 -0.3692  0.1811
  674MOL0     O92905   0.566   1.006  11.128 -0.3741 -0.0945 -0.8360
  674MOL0     C92906   0.621   0.918  11.045 -0.4350 -0.8169 -1.1368
  674MOL0     C92907   0.589   0.894  10.915 -0.0727  0.0099 -0.1367
  674MOL0     C92908   0.670   0.809  10.840 -0.2098 -0.4435  0.7184
  674MOL0     C92909   0.776   0.743  10.903 -0.8885 -0.7767 -0.2035
  674MOL0     O92910   0.844   0.636  10.854  0.1783  0.1888  0.0971
  674MOL0     C92911   0.759   0.538  10.791  0.3646  0.5894  0.7021
  674MOL0     C92912   0.849   0.414  10.772 -0.4399  0.1022  0.2463
  674MOL0     C92913   0.969   0.432  10.671  0.2560 -0.5398  1.3719
  674MOL0     C92914   1.049   0.298  10.640  0.5776  0.4425 -0.0254
  674MOL0     C92915   1.147   0.337  10.523  0.3798 -0.3395  0.4858
  674MOL0     C92916   1.263   0.239  10.494 -0.8804  0.2554  0.2918
  674MOL0     C92917   1.341   0.261  10.362 -0.0102 -0.6029  0.8573
  674MOL0     C92918   1.258   0.202  10.248  0.1473 -0.4726 -0.6558
  674MOL0    Cl92919   1.338   0.241  10.081  0.2996 -0.2165  0.0904
  674MOL0     C92920   0.822   0.778  11.027 -0.7577 -0.4362  0.3137
  674MOL0     C92921   0.740   0.860  11.103 -0.2447  0.8481  0.5598
  674MOL0     O92922   0.365   0.898  11.157  0.7441  0.4072  0.2537
  674MOL0     C92923   0.461   1.212  11.260  1.0391 -0.1009  0.1177
  674MOL0     C92924   0.420   1.328  11.328  0.1540 -0.5427  1.3849
  674MOL0     N92925   0.302   1.945  11.537  0.3121 -0.9541 -0.4901
  674MOL0     N92926   0.385   2.012  11.472 -0.3053  0.5345  0.1289
  674MOL0     C92927   0.685   1.137  10.724 -1.1862  0.7400  0.5475
  674MOL0     C92928   0.650   1.071  10.605 -0.6135 -0.2095 -0.6621
  674MOL0     C92929   0.469   0.874  10.245 -0.0017 -0.2219 -0.3222
  674MOL0     C92930   0.346   0.941  10.205 -0.9143 -0.0478  0.0889
  674MOL0     C92931   0.292   0.901  10.089 -0.0870 -0.0453 -1.0010
  674MOL0     C92932   0.338   0.801  10.009 -0.5334  0.8191 -0.4115
  674MOL0     O92933   0.290   0.770   9.877 -0.3233  0.3716  0.0276
  674MOL0     C92934   0.162   0.820   9.826 -0.3337  0.5325  0.1761
  674MOL0     C92935   0.100   0.731   9.736  0.4054 -0.3909 -0.3564
  674MOL0     C92936   0.167   0.719   9.604 -0.4663 -0.2093 -1.1896
  674MOL0     C92937   0.092   0.626   9.508  0.7265 -0.8765  0.0835
  674MOL0     C92938  -0.046   0.667   9.473 -0.2146  0.7027 -0.4084
  674MOL0     C92939  -0.150   0.715   9.447 -0.6497 -0.4350  0.1653
  674MOL0     C92940   0.454   0.744  10.047 -0.7748  0.0592 -0.5484
  674MOL0     C92941   0.531   0.778  10.162  0.5252 -0.4578 -0.5504
  674MOL0     C92942   0.659   0.713  10.185  0.8779  0.3674  0.4285
  674MOL0     H92943   0.343   1.213  10.579 -1.7602 -4.0294  0.9970
  674MOL0     H92944   0.433   1.353  10.772  0.7911  0.0796  0.5004
  674MOL0     H92945   0.824   1.395  10.875  0.7640 -0.3674 -1.4458
  674MOL0     H92946   0.830   1.218  10.918 -1.6995 -0.3165 -0.8779
  674MOL0     H92947   0.723   1.271  11.140  2.3170 -2.9001 -1.2627
  674MOL0     H92948   0.875   1.349  11.141 -0.5713 -1.4977  0.7319
  674MOL0     H92949   0.752   1.559  11.022 -0.3767 -0.1848  1.5563
  674MOL0     H92950   0.605   1.473  11.082 -0.4173 -1.2356  5.5378
  674MOL0     H92951   0.701   1.519  11.310  0.1310  3.5288  1.9604
  674MOL0     H92952   0.837   1.590  11.236 -0.9819 -0.1212  2.8865
  674MOL0     H92953   0.540   1.707  11.207  0.6147 -0.3682 -1.8037
  674MOL0     H92954   0.695   1.758  11.123  1.9610 -1.6296  0.5056
  674MOL0     H92955   0.658   1.762  11.422 -4.6706  3.0097  0.3438
  674MOL0     H92956   0.796   1.812  11.335  0.0792  1.2682 -1.4653
  674MOL0     H92957   0.701   2.007  11.245  0.5672  1.5573  1.8333
  674MOL0     H92958   0.648   1.990  11.424 -0.1960 -1.6023  0.6966
  674MOL0     H92959   0.513   2.095  11.228  1.4042  0.1040  0.5323
  674MOL0     H92960   0.489   1.938  11.162 -2.7988 -1.9513  2.0259
  674MOL0     H92961   0.306   1.784  11.247 -0.8888  0.4068  0.4053
  674MOL0     H92962   0.113   1.679  11.417 -1.0225  3.1595 -1.5951
  674MOL0     H92963   0.037   1.805  11.505 -0.0180  0.7315 -0.0224
  674MOL0     H92964   0.178   1.752  11.706 -0.9110  2.7175 -1.1352
  674MOL0     H92965   0.102   1.595  11.656 -0.9577  0.6428 -1.9669
  674MOL0     H92966   0.378   1.704  11.633  0.8293 -1.5399  3.2129
  674MOL0     H92967   0.310   1.569  11.718  0.4867 -3.5794 -0.4817
  674MOL0     H92968   0.301   1.591  11.411 -1.4735  1.1321  0.9087
  674MOL0     H92969   0.453   1.558  11.485 -0.4373  1.7724 -3.4050
  674MOL0     H92970   0.215   1.184  11.544 -0.6317 -0.4706 -0.9225
  674MOL0     H92971   0.327   0.924  11.543  0.2408  3.1561  0.8277
  674MOL0     H92972   0.269   0.873  11.381  2.3423 -0.6128 -0.0003
  674MOL0     H92973   0.166   0.975  11.490 -0.3070 -0.0868 -1.6522
  674MOL0     H92974   0.513   0.963  10.880 -2.0250 -0.6759  2.4638
  674MOL0     H92975   0.638   0.775  10.742 -2.0578 -1.1444  1.5130
  674MOL0     H92976   0.663   0.512  10.837  0.5575 -1.6063 -0.0376
  674MOL0     H92977   0.731   0.578  10.693  3.3572  1.3924  0.0681
  674MOL0     H92978   0.883   0.377  10.869 -0.5463  0.6092  0.4804
  674MOL0     H92979   0.776   0.344  10.730 -3.1731  3.1291 -0.4554
  674MOL0     H92980   1.035   0.517  10.692 -0.4567  1.2105 -2.5540
  674MOL0     H92981   0.934   0.469  10.574  0.4946  2.9326  2.4783
  674MOL0     H92982   0.987   0.216  10.604  1.5107 -0.2646 -0.0628
  674MOL0     H92983   1.096   0.268  10.734  0.7658 -3.2834 -1.1667
  674MOL0     H92984   1.088   0.360  10.434 -2.2584  0.0602  2.2288
  674MOL0     H92985   1.195   0.435  10.537  1.3338 -0.9207  1.3843
  674MOL0     H92986   1.233   0.133  10.501 -0.0040  0.0365  0.8097
  674MOL0     H92987   1.328   0.258  10.580 -3.4841  1.3237  2.1500
  674MOL0     H92988   1.431   0.200  10.378  1.9767  2.5324  2.6668
  674MOL0     H92989   1.373   0.365  10.357  3.8958 -1.4589  3.2654
  674MOL0     H92990   1.162   0.255  10.245  1.0975  1.4030  0.3392
  674MOL0     H92991   1.247   0.094  10.259  1.4660 -0.4201  2.0039
  674MOL0     H92992   0.904   0.713  11.056 -0.6579 -4.1229 -6.2015
  674MOL0     H92993   0.777   0.876  11.203  1.6135  0.1110  0.0328
  674MOL0     H92994   0.516   1.223  11.166 -1.0313 -0.0342 -1.1478
  674MOL0     H92995   0.455   1.424  11.291  0.0359  0.4349  3.6444
  674MOL0     H92996   0.783   1.110  10.762 -0.6502  2.2583  0.3411
  674MOL0     H92997   0.711   0.997  10.554  1.3044  1.7496 -1.3420
  674MOL0     H92998   0.295   1.024  10.252 -2.6982 -1.2804  0.4074
  674MOL0     H92999   0.211   0.953  10.040 -1.7939 -0.1503  1.5472
  674MOL0     H93000   0.084   0.822   9.903  0.4891 -1.0956  1.1206
  674MOL0     H93001   0.194   0.916   9.785  2.1753 -0.7096 -0.9997
  674MOL0     H93002  -0.001   0.767   9.717  0.2819  1.0385  2.4400
  674MOL0     H93003   0.089   0.638   9.792  1.6979 -0.6465 -0.4815
  674MOL0     H93004   0.159   0.820   9.564  0.1193 -0.3241 -1.5993
  674MOL0     H93005   0.274   0.697   9.611 -0.5705 -1.0233 -1.9897
  674MOL0     H93006   0.075   0.530   9.559  0.1186 -0.1954  1.1896
  674MOL0     H93007   0.145   0.612   9.413  2.4362  4.2376 -0.0314
  674MOL0     H93008  -0.243   0.755   9.413  0.5919  0.2666 -2.7117
  674MOL0     H93009   0.485   0.663   9.982  1.7665 -0.7912  1.5392
  674MOL0     H93010   0.733   0.771  10.241 -0.0369  0.5116  1.5444
  674MOL0     H93011   0.637   0.625  10.246 -0.4912  1.8449  2.1846
  674MOL0     H93012   0.703   0.694  10.087 -0.0838 -1.0733  0.2405
  675MOL0     O93013   5.876   3.371   7.241 -0.1719 -0.7214  0.5677
  675MOL0     C93014   5.964   3.422   7.169 -0.2055 -0.1776  0.3560
  675MOL0     O93015   6.056   3.523   7.204  0.4935  0.2044  0.5824
  675MOL0     C93016   6.051   3.559   7.335 -0.4713 -0.2137 -0.9474
  675MOL0     C93017   6.085   3.471   7.438 -0.0753 -0.0615 -0.2866
  675MOL0     C93018   6.091   3.522   7.573 -1.2577  0.5334 -0.4189
  675MOL0     C93019   6.093   3.652   7.598 -1.0225  0.0007  0.7122
  675MOL0     O93020   6.111   3.686   7.729  0.2897 -0.0024  0.5451
  675MOL0     C93021   6.118   3.829   7.763 -0.1115 -0.9667 -0.0928
  675MOL0     C93022   6.164   3.849   7.906  0.3379 -0.9307 -0.6744
  675MOL0     C93023   6.308   3.814   7.932  0.0364  0.5164  0.1146
  675MOL0     C93024   6.350   3.908   8.045  0.8699  0.4297 -0.0891
  675MOL0     C93025   6.488   3.856   8.095  0.3355 -1.1221 -0.9472
  675MOL0     C93026   6.529   3.939   8.219 -2.0683  0.0651  0.3759
  675MOL0     C93027   6.677   3.952   8.246  0.4764  0.7494  0.7045
  675MOL0     C93028   6.714   4.033   8.374 -0.2022 -0.0415  0.5851
  675MOL0     N93029   6.856   4.074   8.381 -0.4355 -0.2943 -0.0956
  675MOL0     C93030   6.961   4.002   8.430  0.1990  0.2567 -0.1753
  675MOL0     C93031   7.067   4.088   8.424 -0.8986  0.4528 -0.7049
  675MOL0     C93032   7.208   4.091   8.485  0.5558  0.4339 -0.4181
  675MOL0     C93033   7.198   4.168   8.621 -0.6799 -0.1357 -0.7037
  675MOL0     C93034   7.342   4.190   8.677  0.7960 -0.2217 -1.1203
  675MOL0     C93035   7.357   4.186   8.832 -0.4119 -0.1259 -0.6223
  675MOL0     O93036   7.494   4.222   8.868 -0.2409  0.6682 -0.0870
  675MOL0     C93037   7.524   4.269   8.995  0.4992 -1.1692 -0.3672
  675MOL0     C93038   7.660   4.301   9.027  0.7630 -0.2874 -0.6751
  675MOL0     C93039   7.691   4.370   9.142  0.6593  0.1758 -0.3842
  675MOL0     C93040   7.831   4.433   9.146 -0.0929 -0.3684  0.3381
  675MOL0     C93041   7.595   4.381   9.248 -0.1355 -0.7420  0.7378
  675MOL0     C93042   7.640   4.431   9.382  0.2965 -0.0679  0.4961
  675MOL0     O93043   7.545   4.479   9.468  0.4789 -0.1034  0.1054
  675MOL0     C93044   7.573   4.503   9.595  0.4093  0.4226  0.8366
  675MOL0     C93045   7.553   4.631   9.642 -0.3963  0.8733  0.2993
  675MOL0     C93046   7.569   4.658   9.786  0.8550  0.9308  0.1787
  675MOL0     C93047   7.610   4.558   9.872 -1.1850  0.8452  0.6198
  675MOL0     O93048   7.651   4.593  10.003  0.4046  0.4325 -0.1008
  675MOL0     C93049   7.704   4.490  10.080  0.2017  0.0305 -0.3712
  675MOL0     C93050   7.706   4.547  10.232 -0.8984  0.4240  0.1313
  675MOL0     C93051   7.572   4.544  10.302  0.1994 -0.9460 -0.4274
  675MOL0     C93052   7.570   4.613  10.438  0.0797  0.8932  0.0423
  675MOL0     C93053   7.455   4.582  10.525  0.0907  0.6902 -0.1313
  675MOL0     C93054   7.431   4.677  10.648  0.6373  0.4370  0.2265
  675MOL0     C93055   7.307   4.780  10.621  0.4823  0.6395  0.4545
  675MOL0     C93056   7.312   4.907  10.693 -0.1381 -0.3937  0.1073
  675MOL0    Cl93057   7.150   4.942  10.726  0.0398  0.6300 -0.6624
  675MOL0     C93058   7.628   4.426   9.821  0.7254 -0.0997  0.2203
  675MOL0     C93059   7.604   4.403   9.684 -0.2413  0.4636 -0.1499
  675MOL0     O93060   7.754   4.402   9.411 -0.3468 -0.2387 -0.1457
  675MOL0     C93061   7.467   4.334   9.223 -0.4188 -0.4055 -0.2960
  675MOL0     C93062   7.430   4.290   9.103  1.4377 -0.4747  0.3674
  675MOL0     N93063   7.021   4.208   8.377 -0.6987 -1.0728  0.8144
  675MOL0     N93064   6.898   4.203   8.345  0.1541 -0.4085 -0.2420
  675MOL0     C93065   6.059   3.737   7.496 -0.2155 -0.4369 -0.2187
  675MOL0     C93066   6.042   3.692   7.365  0.8046  1.3464 -0.9704
  675MOL0     C93067   5.960   3.390   7.020 -0.7587 -0.4568 -0.5638
  675MOL0     C93068   6.005   3.498   6.929  0.6307 -0.2167 -0.8976
  675MOL0     C93069   6.011   3.465   6.790  0.0158  0.2425  0.5429
  675MOL0     C93070   5.970   3.336   6.736  0.3612 -1.2618 -0.9843
  675MOL0     O93071   5.968   3.309   6.599  0.2421  0.2891 -0.5570
  675MOL0     C93072   6.020   3.401   6.498 -0.3788 -0.3997 -0.2082
  675MOL0     C93073   6.011   3.327   6.364 -0.2503 -0.6100  0.8869
  675MOL0     C93074   5.865   3.343   6.311  0.5757  0.6062 -0.1745
  675MOL0     C93075   5.840   3.244   6.201  0.6496 -0.3297 -0.0001
  675MOL0     C93076   5.839   3.110   6.262  0.8156 -0.0830 -0.0084
  675MOL0     C93077   5.856   3.009   6.321  1.1525  0.5430 -0.0462
  675MOL0     C93078   5.908   3.251   6.823 -0.5235  0.7063 -0.2606
  675MOL0     C93079   5.905   3.273   6.959 -0.4838 -0.0075 -0.3660
  675MOL0     C93080   5.842   3.154   7.042  0.0415  0.3560  0.0328
  675MOL0     H93081   6.105   3.367   7.417  1.6665 -0.2907  2.1181
  675MOL0     H93082   6.109   3.451   7.653 -0.6512 -1.8625 -2.5019
  675MOL0     H93083   6.017   3.870   7.766  0.2913  0.4100 -2.8175
  675MOL0     H93084   6.184   3.878   7.692  0.3518 -1.8293 -0.2800
  675MOL0     H93085   6.165   3.958   7.916 -1.1810 -1.0334  1.0392
  675MOL0     H93086   6.101   3.804   7.984 -0.2834  3.3938  1.6644
  675MOL0     H93087   6.317   3.709   7.961  0.4408  0.8752  1.3414
  675MOL0     H93088   6.369   3.823   7.842 -1.3168  0.5551 -0.8245
  675MOL0     H93089   6.351   4.010   8.006  2.7616  0.7527  0.7074
  675MOL0     H93090   6.276   3.902   8.126  2.0116  1.4757  1.0815
  675MOL0     H93091   6.562   3.874   8.016  1.8453  4.4434  1.3016
  675MOL0     H93092   6.494   3.749   8.121  1.7201 -1.4181 -2.3028
  675MOL0     H93093   6.500   4.043   8.204  0.3468  1.6369  4.7841
  675MOL0     H93094   6.476   3.901   8.307 -1.6463  3.1522  2.0696
  675MOL0     H93095   6.726   3.994   8.158 -1.8231  3.5869  0.6416
  675MOL0     H93096   6.718   3.852   8.263 -3.7810 -1.6959 -1.7172
  675MOL0     H93097   6.645   4.118   8.370 -0.0266  0.0705 -2.7476
  675MOL0     H93098   6.690   3.971   8.461 -0.6471  0.4475  0.8164
  675MOL0     H93099   6.936   3.906   8.475 -1.9548  0.0927 -1.5790
  675MOL0     H93100   7.285   4.125   8.415  4.7957 -2.4967  2.3925
  675MOL0     H93101   7.254   3.995   8.505  2.5287  1.0896 -1.5373
  675MOL0     H93102   7.158   4.265   8.591  1.2468  0.9329  0.0784
  675MOL0     H93103   7.139   4.117   8.698 -2.4415  2.8630  0.0721
  675MOL0     H93104   7.399   4.106   8.635  0.7244  0.5306 -2.8036
  675MOL0     H93105   7.369   4.289   8.639  0.0435  1.0497  1.4359
  675MOL0     H93106   7.306   4.273   8.875  3.3681  0.9847  2.0855
  675MOL0     H93107   7.328   4.094   8.883  2.7978 -2.0440 -1.9391
  675MOL0     H93108   7.741   4.279   8.958 -1.3653 -2.8117 -2.5874
  675MOL0     H93109   7.855   4.490   9.056  0.2182 -1.2858 -0.1710
  675MOL0     H93110   7.898   4.347   9.156 -2.6559 -2.6685 -0.9199
  675MOL0     H93111   7.841   4.499   9.232  2.8913 -1.4352  0.9358
  675MOL0     H93112   7.540   4.711   9.570 -1.6327  0.6740  0.2654
  675MOL0     H93113   7.559   4.758   9.827 -1.3942  0.8784 -0.1619
  675MOL0     H93114   7.648   4.396  10.079 -2.0242  1.2913 -0.0057
  675MOL0     H93115   7.808   4.467  10.057 -0.0510  0.2979 -1.8940
  675MOL0     H93116   7.766   4.471  10.282  3.7438  4.0365  0.7746
  675MOL0     H93117   7.760   4.639  10.256 -0.6580 -0.0196  1.3231
  675MOL0     H93118   7.541   4.440  10.318  1.6115 -1.1422  1.3872
  675MOL0     H93119   7.489   4.586  10.245  0.7869  1.1006  0.1548
  675MOL0     H93120   7.564   4.721  10.422 -1.2125  0.7696 -0.4760
  675MOL0     H93121   7.665   4.586  10.485 -0.1595 -3.5132 -1.4710
  675MOL0     H93122   7.366   4.576  10.462 -1.2951  2.8189  1.4932
  675MOL0     H93123   7.474   4.481  10.564  1.4522  0.6791 -0.7432
  675MOL0     H93124   7.529   4.712  10.680  2.0688 -2.0296 -1.1513
  675MOL0     H93125   7.390   4.622  10.734 -1.9993 -0.4552 -1.4546
  675MOL0     H93126   7.220   4.724  10.657 -0.1718  0.3386 -1.4607
  675MOL0     H93127   7.288   4.797  10.515  1.4338  0.8215  0.3013
  675MOL0     H93128   7.352   4.982  10.624 -3.3776  0.2077 -1.2712
  675MOL0     H93129   7.372   4.910  10.785 -2.4628 -0.0241  1.7148
  675MOL0     H93130   7.650   4.345   9.890 -2.4071  0.4045  2.0184
  675MOL0     H93131   7.610   4.301   9.648  5.6424  0.3112  0.3864
  675MOL0     H93132   7.395   4.348   9.303  1.3575 -0.3871  1.3725
  675MOL0     H93133   7.327   4.260   9.087  2.2850 -2.5873 -1.8776
  675MOL0     H93134   6.054   3.840   7.531  0.0638 -1.9307  5.1423
  675MOL0     H93135   6.035   3.757   7.278  1.0367  2.2317 -0.3467
  675MOL0     H93136   6.041   3.596   6.959  1.1890  0.5545 -3.8176
  675MOL0     H93137   6.025   3.542   6.715 -1.7123  0.2276  0.1719
  675MOL0     H93138   5.971   3.499   6.504  0.1955 -0.0527 -0.9678
  675MOL0     H93139   6.129   3.405   6.513 -0.1228 -3.9482 -0.2038
  675MOL0     H93140   6.049   3.225   6.371  1.2733 -0.2326 -0.9634
  675MOL0     H93141   6.072   3.382   6.292 -0.4505 -3.2826 -1.4843
  675MOL0     H93142   5.790   3.350   6.391  2.1415  0.8393  1.3431
  675MOL0     H93143   5.848   3.442   6.266 -0.3821  0.4937 -0.0799
  675MOL0     H93144   5.927   3.233   6.136  1.3770  0.9566  0.7096
  675MOL0     H93145   5.744   3.268   6.155  0.4276 -1.2581 -0.0405
  675MOL0     H93146   5.852   2.905   6.349 -2.1499 -0.1991 -2.5908
  675MOL0     H93147   5.855   3.161   6.792 -3.1426  1.7446  0.9497
  675MOL0     H93148   5.828   3.070   6.974  0.8361  1.3535 -1.4279
  675MOL0     H93149   5.899   3.118   7.127 -0.1733 -0.3286 -0.1093
  675MOL0     H93150   5.744   3.189   7.076 -0.3056  1.7490 -2.1513
  676MOL0     O93151   0.413   4.952  10.439  0.1256 -0.0019  0.4126
  676MOL0     C93152   0.421   4.859  10.515  0.2067  0.3109  0.0350
  676MOL0     O93153   0.352   4.862  10.632 -0.8507 -0.0781  1.1374
  676MOL0     C93154   0.325   4.984  10.691  0.5576  0.2724 -0.3810
  676MOL0     C93155   0.190   5.013  10.715 -0.2520  0.7194  0.0753
  676MOL0     C93156   0.146   5.136  10.775 -0.2936 -0.3203 -0.6069
  676MOL0     C93157   0.243   5.227  10.818 -0.5821  0.0022 -0.0680
  676MOL0     O93158   0.216   5.347  10.878 -0.5138  0.1928  0.1279
  676MOL0     C93159   0.082   5.369  10.915 -0.3680  0.8599 -0.4158
  676MOL0     C93160   0.070   5.465  11.027  0.2812 -0.1155  0.0281
  676MOL0     C93161   0.078   5.615  10.996 -0.3733 -0.5166 -0.8916
  676MOL0     C93162   0.229   5.662  11.016  0.5308 -0.1508 -0.8644
  676MOL0     C93163   0.271   5.755  10.904 -0.4953 -0.6200  0.0757
  676MOL0     C93164   0.176   5.879  10.892 -0.4299 -0.3963  0.1110
  676MOL0     C93165   0.247   5.973  10.780  0.3823  0.4926 -1.3095
  676MOL0     C93166   0.155   6.099  10.756 -0.2048 -0.3297 -0.5380
  676MOL0     N93167   0.126   6.152  10.617 -0.8988 -0.0801  0.5243
  676MOL0     C93168   0.227   6.230  10.553 -0.1345  0.6444 -0.5853
  676MOL0     C93169   0.164   6.284  10.448  0.2141 -0.1218 -0.3686
  676MOL0     C93170   0.213   6.391  10.350 -0.2425  0.1686  0.3613
  676MOL0     C93171   0.162   6.535  10.384  0.8655 -0.5221 -0.1887
  676MOL0     C93172   0.228   6.657  10.318  1.0796  0.5094 -0.3337
  676MOL0     C93173   0.203   6.664  10.159  0.2129  0.3854  0.0463
  676MOL0     O93174   0.268   6.782  10.113  0.0819 -0.4088  0.5230
  676MOL0     C93175   0.256   6.812   9.979  0.1772 -0.9548 -0.5046
  676MOL0     C93176   0.343   6.909   9.933  0.4744 -1.0151 -1.4705
  676MOL0     C93177   0.331   6.956   9.800 -1.0359 -0.7192 -0.0707
  676MOL0     C93178   0.444   7.045   9.764 -0.9931  0.2484 -0.6082
  676MOL0     C93179   0.242   6.905   9.706  0.3520  0.4810 -0.0841
  676MOL0     C93180   0.209   6.962   9.574 -0.8145  0.2205  0.5725
  676MOL0     O93181   0.273   7.069   9.534  0.3903 -0.2552 -0.0800
  676MOL0     C93182   0.326   7.071   9.404 -0.4706 -0.3226 -0.5964
  676MOL0     C93183   0.336   6.967   9.312 -0.5601  0.4730  0.1776
  676MOL0     C93184   0.404   6.987   9.183 -0.6031 -0.2973  0.3775
  676MOL0     C93185   0.445   7.117   9.151  0.6063  0.4838 -0.1175
  676MOL0     O93186   0.501   7.151   9.035 -0.2256  0.4800  0.3809
  676MOL0     C93187   0.541   7.042   8.946  0.2573  0.5361 -0.7805
  676MOL0     C93188   0.607   7.093   8.825  0.7415  0.6261 -1.0987
  676MOL0     C93189   0.509   7.100   8.713  0.6169  0.0476  0.2467
  676MOL0     C93190   0.554   7.187   8.608 -0.8421 -0.1432 -0.1802
  676MOL0     C93191   0.458   7.200   8.501  0.0832 -0.1938 -0.7290
  676MOL0     C93192   0.512   7.277   8.387  0.1741  0.0035 -0.3706
  676MOL0     C93193   0.398   7.302   8.281  0.3193 -0.3473  0.6955
  676MOL0     C93194   0.443   7.388   8.160  0.6194 -0.2384  0.7468
  676MOL0    Cl93195   0.391   7.309   7.997  0.0079 -0.4554 -0.1773
  676MOL0     C93196   0.431   7.218   9.239  0.6159 -0.0335 -0.2696
  676MOL0     C93197   0.375   7.198   9.369 -0.3269  0.5317 -0.0291
  676MOL0     O93198   0.125   6.910   9.513  0.6541 -0.5507 -0.0820
  676MOL0     C93199   0.155   6.800   9.756  0.0776  0.5051  0.1739
  676MOL0     C93200   0.171   6.752   9.883  1.1153  0.0345  0.1053
  676MOL0     N93201   0.029   6.256  10.463 -0.4700 -0.5280  0.3244
  676MOL0     N93202   0.010   6.162  10.551  0.2507 -0.7692  0.9339
  676MOL0     C93203   0.380   5.194  10.802 -0.4181  0.7753  0.3138
  676MOL0     C93204   0.420   5.073  10.741 -1.0449 -0.5846  0.2886
  676MOL0     C93205   0.492   4.739  10.463 -1.3476 -0.0698  0.1875
  676MOL0     C93206   0.457   4.700  10.333  0.9559  0.0713 -0.3285
  676MOL0     C93207   0.512   4.589  10.271  0.2458  0.1412 -0.1824
  676MOL0     C93208   0.605   4.510  10.347  0.5025 -0.7908 -1.0840
  676MOL0     O93209   0.640   4.395  10.283  0.1371  0.8336 -0.8584
  676MOL0     C93210   0.758   4.321  10.304  0.5446 -0.0659  0.8674
  676MOL0     C93211   0.874   4.382  10.230 -0.6153 -0.4732  0.2742
  676MOL0     C93212   0.843   4.445  10.088  0.7336  0.1409  0.3889
  676MOL0     C93213   0.963   4.456   9.997 -0.1142 -0.1861 -0.8203
  676MOL0     C93214   0.906   4.511   9.867 -0.5519 -0.5204  0.7631
  676MOL0     C93215   0.856   4.567   9.772 -0.0121 -0.2552  1.0143
  676MOL0     C93216   0.644   4.546  10.477  1.1761  0.5795  0.6082
  676MOL0     C93217   0.585   4.659  10.538  0.6048 -0.6309 -0.2828
  676MOL0     C93218   0.632   4.698  10.674  0.0845  0.0987  0.0097
  676MOL0     H93219   0.106   4.958  10.672 -3.1747  1.6940  3.9840
  676MOL0     H93220   0.038   5.136  10.791 -0.2652  0.9544 -0.3392
  676MOL0     H93221   0.031   5.278  10.949  0.2429  0.8775  0.6008
  676MOL0     H93222   0.024   5.411  10.832 -1.5488  0.9245  0.4092
  676MOL0     H93223  -0.037   5.458  11.050 -0.4724  0.9704 -2.7927
  676MOL0     H93224   0.132   5.432  11.111 -0.4228 -5.8277 -1.3154
  676MOL0     H93225   0.044   5.619  10.892  0.7522  2.0017 -1.2339
  676MOL0     H93226   0.021   5.686  11.057 -0.4210  2.1388 -3.7857
  676MOL0     H93227   0.246   5.718  11.108  4.4373 -2.3195 -0.0142
  676MOL0     H93228   0.285   5.568  11.014 -0.6650 -0.9642  0.9604
  676MOL0     H93229   0.275   5.700  10.810  1.6926  2.2056 -1.6541
  676MOL0     H93230   0.371   5.794  10.924  0.5117 -2.4605 -1.1269
  676MOL0     H93231   0.074   5.849  10.865 -1.5122  0.4184  3.0229
  676MOL0     H93232   0.149   5.939  10.979  3.1308 -1.7907  2.4036
  676MOL0     H93233   0.267   5.915  10.689 -0.5486 -0.1382 -1.1236
  676MOL0     H93234   0.344   6.003  10.821 -0.4580  0.3105  1.0030
  676MOL0     H93235   0.052   6.069  10.777 -1.5069  1.6870 -3.4197
  676MOL0     H93236   0.185   6.177  10.826 -1.2533 -1.0670  0.7790
  676MOL0     H93237   0.334   6.223  10.565 -0.1354 -1.6874 -1.5421
  676MOL0     H93238   0.194   6.357  10.248  2.5002  2.0373 -0.9014
  676MOL0     H93239   0.323   6.386  10.350 -0.2567 -3.6004 -1.8504
  676MOL0     H93240   0.057   6.530  10.354  1.2096 -1.0570 -1.3876
  676MOL0     H93241   0.180   6.542  10.492 -2.1560 -1.3812  0.4818
  676MOL0     H93242   0.183   6.739  10.375  0.9766 -0.6210  1.2768
  676MOL0     H93243   0.334   6.645  10.344  0.7241 -1.5182  0.3150
  676MOL0     H93244   0.250   6.581  10.107 -0.1435  0.8648 -1.0768
  676MOL0     H93245   0.095   6.653  10.141  0.1712 -1.2356  1.0538
  676MOL0     H93246   0.407   6.956  10.007 -2.8660  4.1975 -1.3971
  676MOL0     H93247   0.488   7.089   9.854 -2.9649 -0.2613  0.6681
  676MOL0     H93248   0.408   7.139   9.722  0.8168  2.5266  2.5115
  676MOL0     H93249   0.514   7.008   9.688 -0.1956  1.2606 -0.3828
  676MOL0     H93250   0.286   6.871   9.324 -3.6337  1.8237 -0.9060
  676MOL0     H93251   0.407   6.899   9.120  0.7910 -0.3315  0.4697
  676MOL0     H93252   0.609   6.981   9.006 -2.5817  0.8077  3.1616
  676MOL0     H93253   0.446   6.989   8.930  0.1334  0.7145 -0.6440
  676MOL0     H93254   0.644   7.193   8.849 -1.7595  1.1231  1.2307
  676MOL0     H93255   0.684   7.021   8.797  0.9372  0.5874 -0.4636
  676MOL0     H93256   0.411   7.138   8.744  1.3219  1.9577  0.2935
  676MOL0     H93257   0.484   7.001   8.674  0.9401 -0.5075  1.4011
  676MOL0     H93258   0.647   7.144   8.570 -0.8551 -2.4202  2.0939
  676MOL0     H93259   0.578   7.285   8.650  0.3296 -0.6468  0.4009
  676MOL0     H93260   0.445   7.101   8.457  2.1215 -1.5713  1.5489
  676MOL0     H93261   0.366   7.234   8.548 -0.7665 -1.9882 -1.0068
  676MOL0     H93262   0.603   7.236   8.343  1.7388  2.5060  0.3533
  676MOL0     H93263   0.535   7.371   8.439 -1.2204  0.0075  0.2765
  676MOL0     H93264   0.308   7.346   8.326  0.7187  0.7958  0.4121
  676MOL0     H93265   0.378   7.201   8.244  3.3158 -0.3600 -1.1797
  676MOL0     H93266   0.551   7.398   8.143  0.1689 -2.2039 -5.5644
  676MOL0     H93267   0.410   7.493   8.163  0.1422 -0.0969 -3.3408
  676MOL0     H93268   0.455   7.318   9.205  0.5831  0.8986  2.2502
  676MOL0     H93269   0.373   7.276   9.444  1.5733 -0.1251  0.7729
  676MOL0     H93270   0.072   6.762   9.698 -1.9444 -0.1702  3.3013
  676MOL0     H93271   0.103   6.671   9.908  0.4047 -0.0462 -1.9698
  676MOL0     H93272   0.445   5.269  10.847  4.2496 -3.3449  1.3062
  676MOL0     H93273   0.523   5.041  10.728  0.3216  1.7579  3.9170
  676MOL0     H93274   0.378   4.763  10.293  1.2552  0.7380  0.1150
  676MOL0     H93275   0.499   4.562  10.167 -0.0601  0.4594 -0.2277
  676MOL0     H93276   0.791   4.327  10.408  5.4228 -0.0222 -0.4278
  676MOL0     H93277   0.736   4.215  10.287 -0.7767 -0.0980  2.5388
  676MOL0     H93278   0.951   4.306  10.211  1.4613  0.6504  3.4078
  676MOL0     H93279   0.923   4.462  10.285  2.9787 -1.4266 -1.2508
  676MOL0     H93280   0.774   4.375  10.040  0.3973 -0.8759  2.2543
  676MOL0     H93281   0.788   4.536  10.113  0.7610  0.0343  0.8374
  676MOL0     H93282   1.015   4.361   9.979  0.4389  0.2888 -1.8693
  676MOL0     H93283   1.036   4.521  10.047  0.1831 -0.9612 -0.2402
  676MOL0     H93284   0.813   4.626   9.693  1.5157 -2.3257 -1.5399
  676MOL0     H93285   0.706   4.473  10.529  0.0697 -0.0370  1.1116
  676MOL0     H93286   0.724   4.647  10.706 -1.7135 -1.8244  2.4624
  676MOL0     H93287   0.661   4.804  10.669  0.8568 -0.1383 -0.9068
  676MOL0     H93288   0.548   4.697  10.743 -2.1552  1.3800 -2.4867
  677MOL0     O93289   3.227   5.532   7.422 -0.6685 -0.0549 -0.4940
  677MOL0     C93290   3.166   5.554   7.526 -0.6556  0.3019  0.3225
  677MOL0     O93291   3.123   5.683   7.564 -0.9984 -0.1557 -0.0309
  677MOL0     C93292   3.195   5.797   7.531 -0.1115  0.4900 -0.3852
  677MOL0     C93293   3.123   5.913   7.504 -0.2332 -0.0347  0.4722
  677MOL0     C93294   3.184   6.037   7.477 -0.3505 -1.1295 -0.5314
  677MOL0     C93295   3.323   6.035   7.465 -0.7250 -0.0257 -0.2305
  677MOL0     O93296   3.380   6.155   7.425  0.4633 -0.2365  0.5651
  677MOL0     C93297   3.492   6.205   7.495  0.3187  0.8577  0.0112
  677MOL0     C93298   3.537   6.330   7.426  0.2305  0.2343  0.5901
  677MOL0     C93299   3.621   6.410   7.529 -0.1602 -1.0747  0.9561
  677MOL0     C93300   3.760   6.350   7.553 -0.2714  0.5893 -0.0729
  677MOL0     C93301   3.844   6.436   7.655  0.3107 -0.5003 -0.6483
  677MOL0     C93302   3.886   6.360   7.778  0.5973  0.2931  0.3950
  677MOL0     C93303   3.987   6.245   7.758 -0.4517 -0.6794  0.9131
  677MOL0     C93304   3.962   6.145   7.877 -0.4059  1.2865  0.1833
  677MOL0     N93305   3.843   6.052   7.856  0.0049 -0.5519 -0.6431
  677MOL0     C93306   3.712   6.083   7.875  0.8774 -0.0439  1.1266
  677MOL0     C93307   3.639   5.984   7.812 -0.3336  0.6607 -0.2675
  677MOL0     C93308   3.487   5.965   7.819  0.1261 -0.3976  0.7187
  677MOL0     C93309   3.444   5.938   7.960 -0.2078 -0.0954 -0.9199
  677MOL0     C93310   3.299   5.961   7.995  0.8901 -0.3122 -0.3718
  677MOL0     C93311   3.212   5.878   7.894 -0.4417 -0.0869  0.2249
  677MOL0     O93312   3.239   5.737   7.902  0.0965  0.6576 -0.3848
  677MOL0     C93313   3.211   5.672   8.018  0.7461 -0.4708 -0.2433
  677MOL0     C93314   3.242   5.538   8.028  0.1728  0.1411  0.7594
  677MOL0     C93315   3.229   5.470   8.149  0.4852 -0.5111  0.5614
  677MOL0     C93316   3.269   5.324   8.140 -0.0001  0.4877 -0.0379
  677MOL0     C93317   3.160   5.528   8.260 -0.1045 -0.9122  0.0826
  677MOL0     C93318   3.144   5.465   8.395 -0.2141 -0.3147 -0.2819
  677MOL0     O93319   3.091   5.542   8.489  0.2095 -0.4845  0.8628
  677MOL0     C93320   3.129   5.536   8.622 -0.5777  0.1319  0.6861
  677MOL0     C93321   3.074   5.446   8.705  0.7617 -0.0257  0.3828
  677MOL0     C93322   3.070   5.462   8.843 -1.6991 -0.2877  1.0604
  677MOL0     C93323   3.138   5.576   8.897  0.1915 -0.8576 -0.8748
  677MOL0     O93324   3.128   5.615   9.026 -0.0782 -0.0419  0.5077
  677MOL0     C93325   3.254   5.624   9.105  0.0204  0.7959  0.9055
  677MOL0     C93326   3.211   5.646   9.248 -0.3474 -0.4635 -0.7394
  677MOL0     C93327   3.123   5.541   9.323  0.0558  0.5160 -0.0454
  677MOL0     C93328   3.144   5.550   9.473 -0.3608 -1.1127  0.2688
  677MOL0     C93329   3.023   5.510   9.544  0.3055  0.0278 -0.4198
  677MOL0     C93330   3.047   5.474   9.695 -0.4371  0.1903  0.8094
  677MOL0     C93331   2.908   5.427   9.757  0.5982 -0.9185 -0.3399
  677MOL0     C93332   2.943   5.357   9.889  0.2657  0.4576  0.0831
  677MOL0    Cl93333   3.078   5.242   9.881  0.3237 -0.7325  0.1480
  677MOL0     C93334   3.213   5.665   8.805 -0.8650  0.6915 -0.1127
  677MOL0     C93335   3.211   5.638   8.670  0.3526  0.4042  0.4544
  677MOL0     O93336   3.189   5.347   8.414  0.3252 -0.6928 -0.1094
  677MOL0     C93337   3.111   5.664   8.244  0.1335 -0.2633 -0.2963
  677MOL0     C93338   3.138   5.734   8.125  0.3937 -0.3450  0.2658
  677MOL0     N93339   3.736   5.904   7.760  0.1985  0.3523 -0.7660
  677MOL0     N93340   3.852   5.943   7.778  0.1880 -0.2466  0.1229
  677MOL0     C93341   3.391   5.911   7.476  0.2352 -0.2545 -0.9247
  677MOL0     C93342   3.331   5.795   7.520  0.4532  0.2727  0.1479
  677MOL0     C93343   3.134   5.443   7.615 -0.1227  0.6030  0.1800
  677MOL0     C93344   3.077   5.472   7.735  0.6883 -0.3622 -0.0772
  677MOL0     C93345   3.034   5.370   7.826 -0.0958  0.0025  0.0082
  677MOL0     C93346   3.060   5.236   7.796 -0.1974 -0.7393  0.1966
  677MOL0     O93347   3.015   5.146   7.884 -0.1933  0.1407 -0.6554
  677MOL0     C93348   3.081   5.021   7.887 -0.5145  0.9582 -0.2454
  677MOL0     C93349   3.059   4.934   8.011  0.5278  0.2149  0.6143
  677MOL0     C93350   3.158   4.953   8.120 -0.3215  0.1274  0.5170
  677MOL0     C93351   3.122   4.870   8.244 -0.6451  0.0236  0.0638
  677MOL0     C93352   3.215   4.901   8.352 -0.2805  0.4362  0.0578
  677MOL0     C93353   3.291   4.921   8.441  0.3467  0.2676 -0.1103
  677MOL0     C93354   3.112   5.200   7.673  0.0376 -0.4410  0.2303
  677MOL0     C93355   3.147   5.303   7.576  0.2244  0.6361 -0.5171
  677MOL0     C93356   3.191   5.254   7.434  0.3119  1.0236 -0.6065
  677MOL0     H93357   3.015   5.917   7.505 -0.3218  2.2128  4.5639
  677MOL0     H93358   3.134   6.133   7.465 -0.7937 -1.6204 -3.2449
  677MOL0     H93359   3.567   6.125   7.487 -2.6316 -2.0842 -0.4690
  677MOL0     H93360   3.459   6.221   7.598  1.3690  1.1740  0.3167
  677MOL0     H93361   3.608   6.317   7.344  0.1890 -2.1406  0.8816
  677MOL0     H93362   3.452   6.394   7.400 -0.8953 -0.9600  1.2285
  677MOL0     H93363   3.625   6.515   7.497 -3.0998 -0.3265  2.6908
  677MOL0     H93364   3.567   6.417   7.624 -0.3942  1.0271  0.7289
  677MOL0     H93365   3.748   6.245   7.582 -0.0784  0.6614  0.2763
  677MOL0     H93366   3.812   6.349   7.457  2.0726  1.8813  1.0872
  677MOL0     H93367   3.785   6.523   7.687  3.9191  1.2354  2.0175
  677MOL0     H93368   3.936   6.472   7.608  1.4369 -0.2333  1.6373
  677MOL0     H93369   3.937   6.425   7.850  0.3396  0.3475  0.5302
  677MOL0     H93370   3.798   6.322   7.832  0.6674 -1.2779 -0.5440
  677MOL0     H93371   4.094   6.270   7.756 -0.7141  0.5634  1.4935
  677MOL0     H93372   3.965   6.192   7.664 -1.0856 -1.5625  1.5422
  677MOL0     H93373   4.052   6.083   7.879 -2.1874 -1.4557  0.3502
  677MOL0     H93374   3.955   6.196   7.973 -0.1792 -0.5874  1.2476
  677MOL0     H93375   3.668   6.173   7.916  3.6954  1.2056  1.6099
  677MOL0     H93376   3.468   5.873   7.763  2.4834 -1.3828  1.3979
  677MOL0     H93377   3.435   6.050   7.774  1.1403  0.9655  2.0167
  677MOL0     H93378   3.468   5.832   7.973  2.2025  0.5568  0.6200
  677MOL0     H93379   3.504   5.981   8.041  0.7668 -0.5571 -1.3801
  677MOL0     H93380   3.282   5.932   8.099  1.2242 -0.8390 -0.4579
  677MOL0     H93381   3.272   6.066   7.982  2.0298 -0.0648 -0.8455
  677MOL0     H93382   3.115   5.905   7.935  0.2928  1.1219  1.2427
  677MOL0     H93383   3.228   5.903   7.789  2.1515 -3.1860 -0.2799
  677MOL0     H93384   3.294   5.486   7.949 -0.0670 -1.5555  1.6672
  677MOL0     H93385   3.322   5.292   8.230  1.1207  0.7646 -0.5797
  677MOL0     H93386   3.321   5.288   8.051 -0.4402 -3.6948  1.1931
  677MOL0     H93387   3.171   5.275   8.138  0.2729 -0.0625 -0.1295
  677MOL0     H93388   3.020   5.364   8.661 -2.2271  2.0103 -0.0526
  677MOL0     H93389   3.026   5.385   8.906  0.7710 -2.6729  0.0989
  677MOL0     H93390   3.290   5.522   9.122  0.7521  1.1380  1.4279
  677MOL0     H93391   3.325   5.699   9.070  0.0769  0.6016  0.6047
  677MOL0     H93392   3.305   5.658   9.304  0.3918 -2.8324 -1.3338
  677MOL0     H93393   3.167   5.745   9.256  2.9529  0.9799  1.8170
  677MOL0     H93394   3.147   5.440   9.289 -1.4929 -1.0043  2.9757
  677MOL0     H93395   3.018   5.542   9.294  0.3936  0.4822 -1.3298
  677MOL0     H93396   3.183   5.645   9.510  1.7740 -2.5432  2.0095
  677MOL0     H93397   3.224   5.479   9.497  0.9800  0.2914  0.0541
  677MOL0     H93398   2.953   5.594   9.545 -2.7518 -2.3479 -0.5563
  677MOL0     H93399   2.973   5.430   9.489 -1.5625  0.1417  1.0162
  677MOL0     H93400   3.073   5.569   9.743  3.4540 -0.7652  0.8636
  677MOL0     H93401   3.123   5.397   9.706 -0.3783  0.2353  0.7157
  677MOL0     H93402   2.870   5.351   9.687 -1.2750 -1.3512  1.0729
  677MOL0     H93403   2.831   5.503   9.772  0.2247 -1.7670  2.7273
  677MOL0     H93404   2.854   5.297   9.910  0.2187  0.3985 -0.2729
  677MOL0     H93405   2.954   5.428   9.972  1.5772  0.2985  0.0669
  677MOL0     H93406   3.260   5.760   8.828 -0.0762 -0.1785  2.1525
  677MOL0     H93407   3.256   5.714   8.607 -2.4239  2.0369  0.3081
  677MOL0     H93408   3.051   5.708   8.324  1.2528  1.6229 -0.4394
  677MOL0     H93409   3.092   5.832   8.122 -0.8058 -0.9121 -0.2419
  677MOL0     H93410   3.497   5.904   7.458  0.2770  0.5554 -1.0371
  677MOL0     H93411   3.386   5.703   7.534 -1.1413 -1.3284 -3.0365
  677MOL0     H93412   3.074   5.574   7.772 -2.3137 -0.8318  1.2549
  677MOL0     H93413   2.982   5.398   7.917 -0.0122  2.0858 -0.5254
  677MOL0     H93414   3.035   4.966   7.804  1.7372 -0.5831 -0.5499
  677MOL0     H93415   3.186   5.044   7.869 -1.2676  2.1292 -3.8400
  677MOL0     H93416   3.062   4.832   7.974  0.0719  1.4932 -3.3815
  677MOL0     H93417   2.959   4.962   8.046  0.4127  1.2937 -0.5022
  677MOL0     H93418   3.255   4.928   8.076 -1.2328  0.6063 -1.9475
  677MOL0     H93419   3.171   5.058   8.146  0.1198  0.2245 -0.0778
  677MOL0     H93420   3.119   4.762   8.224 -1.8828 -0.3259  1.8190
  677MOL0     H93421   3.024   4.912   8.271  0.3600  3.9242 -1.6347
  677MOL0     H93422   3.357   4.931   8.525  0.5404  1.7899 -0.4057
  677MOL0     H93423   3.118   5.096   7.644 -2.4462 -0.4347 -0.5587
  677MOL0     H93424   3.123   5.303   7.363 -0.3607  4.8472  2.3100
  677MOL0     H93425   3.294   5.287   7.418  1.0720 -2.4846 -4.8452
  677MOL0     H93426   3.181   5.147   7.415 -2.7747  1.1122 -0.0952
  678MOL0     O93427   5.767   8.632  10.209 -1.4027  0.7501  0.7500
  678MOL0     C93428   5.690   8.641  10.120  0.0518  0.7342  0.3558
  678MOL0     O93429   5.618   8.541  10.068  0.4370  0.3552 -0.2888
  678MOL0     C93430   5.613   8.423  10.136  0.2800  0.7425 -0.2725
  678MOL0     C93431   5.724   8.337  10.129 -0.5119  0.9903  0.0374
  678MOL0     C93432   5.713   8.218  10.207 -0.5323  0.7848 -0.2319
  678MOL0     C93433   5.602   8.185  10.285  0.7847  0.6073  0.3218
  678MOL0     O93434   5.601   8.065  10.353  0.0862 -0.7288 -0.0919
  678MOL0     C93435   5.503   8.038  10.456  0.0471  0.4872 -1.1161
  678MOL0     C93436   5.574   7.957  10.559  1.3695  1.0336  0.6596
  678MOL0     C93437   5.479   7.859  10.631  0.0626  0.4037  0.1596
  678MOL0     C93438   5.555   7.784  10.747  0.3590  0.6883  0.2376
  678MOL0     C93439   5.464   7.688  10.815 -0.6301  0.3110 -0.2644
  678MOL0     C93440   5.542   7.614  10.932  0.3088 -0.1613 -0.1617
  678MOL0     C93441   5.558   7.716  11.045  0.4644 -1.3607  0.2372
  678MOL0     C93442   5.586   7.641  11.176 -0.2418 -0.4535  0.1250
  678MOL0     N93443   5.712   7.570  11.170 -0.4339  0.2866  0.4316
  678MOL0     C93444   5.839   7.617  11.170 -0.7680  0.0208 -0.2183
  678MOL0     C93445   5.917   7.510  11.198  0.3683 -0.1409 -0.2708
  678MOL0     C93446   6.071   7.502  11.195  0.8741 -0.0529  0.7061
  678MOL0     C93447   6.116   7.496  11.342  0.4046  0.3680  0.3635
  678MOL0     C93448   6.189   7.616  11.399  0.8926  0.4638  0.5683
  678MOL0     C93449   6.098   7.732  11.447 -0.7920  0.1361  0.1245
  678MOL0     O93450   6.028   7.713  11.569  0.1427  0.7845 -0.1097
  678MOL0     C93451   6.083   7.693  11.694 -0.1566  0.7086  0.4962
  678MOL0     C93452   6.015   7.627  11.801 -0.2406  0.3483 -0.1852
  678MOL0     C93453   6.064   7.632  11.931  0.3580  0.5017 -0.0995
  678MOL0     C93454   5.976   7.584  12.050  0.3022  0.4232 -0.1010
  678MOL0     C93455   6.192   7.693  11.953  0.2264  0.1568 -0.2935
  678MOL0     C93456   6.248   7.716  12.097  0.0312  0.2205 -0.0628
  678MOL0     O93457   6.380   7.736  12.102  0.1754  0.4262 -0.1820
  678MOL0     C93458   6.419   7.826  12.197  0.0600 -0.8474  0.2541
  678MOL0     C93459   6.410   7.960  12.157  0.4454 -0.2566 -0.3270
  678MOL0     C93460   6.415   8.059  12.257 -0.0549 -0.9999 -0.7469
  678MOL0     C93461   6.444   8.024  12.389  0.1366 -0.1006  0.2220
  678MOL0     O93462   6.446   8.117  12.493  1.2851 -0.2615 -0.0233
  678MOL0     C93463   6.481   8.253  12.453  0.1460 -1.2054  0.0059
  678MOL0     C93464   6.479   8.358  12.567  0.6369  0.2190  0.5019
  678MOL0     C93465   6.550   8.300  12.690 -0.1059  0.7686  0.0803
  678MOL0     C93466   6.570   8.418  12.793 -1.4715  0.1186 -0.4165
  678MOL0     C93467   6.703   8.423  12.878 -0.3008 -0.3931 -1.1604
  678MOL0     C93468   6.690   8.325  12.999 -0.0676 -0.1891  0.8754
  678MOL0     C93469   6.837   8.288  13.048 -0.3409  0.2318  0.1596
  678MOL0     C93470   6.909   8.408  13.103  0.7639 -0.8402 -0.9189
  678MOL0    Cl93471   7.086   8.358  13.113 -0.2256 -0.1034 -0.2793
  678MOL0     C93472   6.454   7.891  12.425 -0.2590  0.5538 -0.1666
  678MOL0     C93473   6.435   7.793  12.332 -0.6447  0.0665  0.0158
  678MOL0     O93474   6.172   7.732  12.187  0.5251 -1.5851  0.5628
  678MOL0     C93475   6.265   7.734  11.848  0.9587 -0.6423  0.1465
  678MOL0     C93476   6.208   7.742  11.721 -0.8263  0.0005  0.1760
  678MOL0     N93477   5.841   7.399  11.229  0.0501  0.1956  0.0714
  678MOL0     N93478   5.724   7.436  11.195  0.8625 -0.5289  0.4668
  678MOL0     C93479   5.495   8.275  10.281 -0.4905 -0.8577 -0.7969
  678MOL0     C93480   5.500   8.392  10.218 -0.2980  0.0826  0.5680
  678MOL0     C93481   5.662   8.784  10.078  0.0511  0.1149  0.1207
  678MOL0     C93482   5.537   8.812  10.013  0.3501  0.6496 -0.0995
  678MOL0     C93483   5.488   8.942   9.989  0.3557 -0.5138  0.2073
  678MOL0     C93484   5.570   9.052  10.014 -0.1547 -0.0607 -0.7264
  678MOL0     O93485   5.534   9.184  10.006 -0.1455 -0.4327  0.2841
  678MOL0     C93486   5.437   9.227   9.908  0.7233  0.2594 -0.1013
  678MOL0     C93487   5.509   9.268   9.775  0.1260  0.1107  0.3144
  678MOL0     C93488   5.595   9.399   9.805  0.9307  0.2385 -0.7211
  678MOL0     C93489   5.506   9.516   9.857  0.8153  0.4783  0.2383
  678MOL0     C93490   5.571   9.645   9.858 -0.2790  0.1756 -0.1952
  678MOL0     C93491   5.611   9.759   9.837 -0.3551  0.2050  0.4275
  678MOL0     C93492   5.693   9.029  10.082  0.2638 -0.2322  0.1031
  678MOL0     C93493   5.748   8.903  10.102  0.5437  0.6050  0.3409
  678MOL0     C93494   5.891   8.886  10.155  0.7592  0.2482  0.1824
  678MOL0     H93495   5.812   8.363  10.069  0.7620 -1.6618  0.6328
  678MOL0     H93496   5.792   8.143  10.206 -2.3117 -1.2173  0.8534
  678MOL0     H93497   5.428   7.969  10.417  0.7689  0.1145 -1.8623
  678MOL0     H93498   5.467   8.131  10.500 -0.9916 -1.1326  1.7108
  678MOL0     H93499   5.649   7.899  10.505  0.2018 -1.2567  1.3351
  678MOL0     H93500   5.622   8.021  10.633  1.7715  0.2330  1.1051
  678MOL0     H93501   5.395   7.920  10.663 -0.0929 -0.9265  2.5473
  678MOL0     H93502   5.429   7.795  10.559 -0.5931  2.7554 -1.5857
  678MOL0     H93503   5.647   7.733  10.718  0.2641 -1.5989  3.4247
  678MOL0     H93504   5.576   7.866  10.817  1.2431  1.1877 -0.5890
  678MOL0     H93505   5.416   7.614  10.751 -3.0544  0.9611  0.6963
  678MOL0     H93506   5.379   7.740  10.860 -0.4783 -0.2271  0.6651
  678MOL0     H93507   5.482   7.525  10.952  0.8891 -1.2857 -2.9768
  678MOL0     H93508   5.644   7.592  10.900  0.1709 -0.0553 -0.6837
  678MOL0     H93509   5.475   7.783  11.070 -0.2265 -1.3909 -1.7852
  678MOL0     H93510   5.645   7.775  11.017  0.4647 -2.4015 -2.1722
  678MOL0     H93511   5.592   7.714  11.258  1.2402  0.4178 -0.7100
  678MOL0     H93512   5.501   7.577  11.201 -0.6272  0.2428  0.6485
  678MOL0     H93513   5.870   7.720  11.155 -1.3142  0.3017  0.5492
  678MOL0     H93514   6.107   7.588  11.139  0.1717 -0.1677  0.0528
  678MOL0     H93515   6.109   7.416  11.139  0.5748 -0.5323  1.2168
  678MOL0     H93516   6.034   7.466  11.409 -0.2941  3.4119  1.0281
  678MOL0     H93517   6.193   7.419  11.337 -0.0168 -0.1518  1.4041
  678MOL0     H93518   6.254   7.574  11.476  1.2879 -0.7525 -0.3989
  678MOL0     H93519   6.262   7.656  11.328  2.7355  0.3999  2.3241
  678MOL0     H93520   6.158   7.821  11.470  0.5569 -0.6355 -0.2749
  678MOL0     H93521   6.036   7.734  11.357 -0.3779 -2.5614 -0.3240
  678MOL0     H93522   5.914   7.593  11.784  0.1889 -0.7166 -0.7409
  678MOL0     H93523   5.925   7.493  12.017  0.8037 -0.3798  1.2647
  678MOL0     H93524   5.904   7.662  12.078 -0.7942  1.4806 -4.9872
  678MOL0     H93525   6.037   7.547  12.133 -2.0861  1.9322  2.4906
  678MOL0     H93526   6.373   7.989  12.060 -0.7022 -2.8830 -0.7733
  678MOL0     H93527   6.395   8.160  12.223  0.3763  0.3274  2.6270
  678MOL0     H93528   6.581   8.242  12.409 -0.1871  1.7949 -1.8087
  678MOL0     H93529   6.409   8.297  12.384  1.8865 -1.1799 -1.9118
  678MOL0     H93530   6.544   8.438  12.531  2.1757 -1.4748 -0.7013
  678MOL0     H93531   6.377   8.389  12.589 -0.0201 -2.3493  1.3909
  678MOL0     H93532   6.650   8.262  12.671 -2.1341 -4.7731 -1.4351
  678MOL0     H93533   6.495   8.220  12.740  2.9893 -0.1720  2.2079
  678MOL0     H93534   6.478   8.410  12.852  0.2871  2.6023  3.0125
  678MOL0     H93535   6.568   8.515  12.743 -0.4977  0.3826  0.0289
  678MOL0     H93536   6.799   8.431  12.825  1.2316  3.6116  1.6988
  678MOL0     H93537   6.715   8.525  12.917  1.7574 -1.7690  2.2426
  678MOL0     H93538   6.643   8.235  12.960 -0.4820 -0.7365  2.5474
  678MOL0     H93539   6.634   8.366  13.084 -1.3521  1.1162 -0.5378
  678MOL0     H93540   6.898   8.247  12.966  1.6818 -0.9383  2.1466
  678MOL0     H93541   6.844   8.210  13.125  3.4775 -3.6417 -3.4875
  678MOL0     H93542   6.866   8.442  13.198  0.8262  0.4847 -1.3429
  678MOL0     H93543   6.907   8.494  13.035  1.3629  1.9688  2.3278
  678MOL0     H93544   6.474   7.873  12.530  1.7093  0.6014 -0.4855
  678MOL0     H93545   6.438   7.687  12.356  0.9880  0.5107  2.0909
  678MOL0     H93546   6.364   7.775  11.869  1.2394 -0.9520 -0.5356
  678MOL0     H93547   6.269   7.802  11.653 -0.5826  1.8443  1.9455
  678MOL0     H93548   5.408   8.265  10.345 -0.0096  0.9589  0.2025
  678MOL0     H93549   5.412   8.455  10.226 -0.9843 -1.0746  3.5433
  678MOL0     H93550   5.467   8.733   9.986 -1.5174  2.4135 -0.6007
  678MOL0     H93551   5.389   8.949   9.945 -0.0813 -3.0005  0.6746
  678MOL0     H93552   5.359   9.152   9.893  2.1267 -0.9070 -1.7587
  678MOL0     H93553   5.366   9.307   9.935 -0.8063 -0.2568 -2.3704
  678MOL0     H93554   5.435   9.278   9.694 -1.7192 -3.1795  1.4333
  678MOL0     H93555   5.574   9.189   9.738  2.2417  1.7341  0.4075
  678MOL0     H93556   5.673   9.375   9.877 -0.2538  1.5860  1.0826
  678MOL0     H93557   5.651   9.436   9.719  0.8961  0.5040 -0.6287
  678MOL0     H93558   5.503   9.513   9.966 -1.3433  2.9061  0.3454
  678MOL0     H93559   5.405   9.522   9.816  1.2291 -2.1793 -1.4250
  678MOL0     H93560   5.663   9.848   9.808  1.4105 -0.6189  0.9174
  678MOL0     H93561   5.744   9.118  10.119 -1.2523  0.4808  0.5266
  678MOL0     H93562   5.929   8.801  10.097 -1.9274 -1.2593  0.4404
  678MOL0     H93563   5.937   8.984  10.136  0.5272  0.2653 -0.2999
  678MOL0     H93564   5.902   8.865  10.262  2.6246 -0.0849 -0.0427
  679MOL0     O93565   2.736   1.295   0.349 -0.1507 -0.4416 -0.2269
  679MOL0     C93566   2.812   1.201   0.328 -0.5741  0.5484 -1.0692
  679MOL0     O93567   2.942   1.206   0.375 -0.5940  0.7859 -0.4668
  679MOL0     C93568   2.993   1.323   0.426 -0.0184  0.2118  0.7143
  679MOL0     C93569   3.112   1.301   0.483  1.0882  0.4492  0.0065
  679MOL0     C93570   3.193   1.413   0.522  0.4992  0.0567 -0.0981
  679MOL0     C93571   3.150   1.554   0.504  0.6521 -0.3000 -0.6872
  679MOL0     O93572   3.230   1.663   0.527 -0.6814 -0.6153 -0.7976
  679MOL0     C93573   3.239   1.714   0.661  0.1183 -0.0660 -0.9130
  679MOL0     C93574   3.196   1.861   0.667  0.5368  0.0889 -0.7019
  679MOL0     C93575   3.148   1.918   0.797 -0.6960  0.0314 -0.4184
  679MOL0     C93576   3.195   1.851   0.929  0.2863  0.3552 -0.0208
  679MOL0     C93577   3.112   1.892   1.053 -0.9272 -0.8332 -0.4685
  679MOL0     C93578   3.180   1.850   1.189  0.4664  0.1165  0.5365
  679MOL0     C93579   3.121   1.945   1.306 -0.3909 -0.2021  0.2500
  679MOL0     C93580   2.968   1.933   1.319  0.7304 -0.1740  0.2732
  679MOL0     N93581   2.932   1.797   1.356 -0.4660 -0.3989 -0.3491
  679MOL0     C93582   2.987   1.728   1.467  0.6648  0.9338 -0.4170
  679MOL0     C93583   2.935   1.602   1.464 -0.3467 -0.6081  0.0140
  679MOL0     C93584   2.974   1.486   1.559 -0.0731 -0.1399 -0.4410
  679MOL0     C93585   3.056   1.368   1.488  0.3850  0.4470  0.1860
  679MOL0     C93586   3.203   1.371   1.492  0.0639  1.5954 -0.2797
  679MOL0     C93587   3.265   1.501   1.432 -0.6086  0.3289 -0.0505
  679MOL0     O93588   3.289   1.596   1.541  0.3027  0.0153  0.3727
  679MOL0     C93589   3.364   1.711   1.531  0.6129 -0.1547 -0.2619
  679MOL0     C93590   3.335   1.799   1.636 -1.2051 -1.0516 -1.0294
  679MOL0     C93591   3.418   1.930   1.637 -0.2783  0.9324 -0.1397
  679MOL0     C93592   3.401   2.017   1.761 -0.2092  0.6212 -0.6939
  679MOL0     C93593   3.502   1.959   1.522 -1.1124  0.0864  0.1491
  679MOL0     C93594   3.568   2.090   1.506 -0.0371  0.2752 -0.2465
  679MOL0     O93595   3.569   2.128   1.374 -0.1667  0.3557  0.0088
  679MOL0     C93596   3.637   2.243   1.346 -0.4590 -0.3262  0.3944
  679MOL0     C93597   3.727   2.232   1.240 -0.0198 -0.1015 -0.8802
  679MOL0     C93598   3.797   2.344   1.198  1.0989 -0.3545 -0.1409
  679MOL0     C93599   3.766   2.471   1.259 -0.8195 -0.7084 -0.3968
  679MOL0     O93600   3.820   2.587   1.209  0.0186 -1.2336 -0.8148
  679MOL0     C93601   3.966   2.597   1.199  0.1621  0.3011  0.9453
  679MOL0     C93602   4.018   2.737   1.230  0.4267 -0.6939 -0.0935
  679MOL0     C93603   4.168   2.768   1.217  0.6810  0.1066  0.9792
  679MOL0     C93604   4.207   2.894   1.300 -0.3928  0.4660  0.0458
  679MOL0     C93605   4.357   2.936   1.291  0.0153 -0.8438 -0.2295
  679MOL0     C93606   4.408   2.963   1.154  0.3725 -0.2211 -0.3670
  679MOL0     C93607   4.556   2.994   1.155  0.4239 -0.3088 -0.0410
  679MOL0     C93608   4.580   3.132   1.213  0.3440 -0.0991  0.2108
  679MOL0    Cl93609   4.545   3.251   1.078 -0.5821  0.4771 -0.3568
  679MOL0     C93610   3.660   2.481   1.349 -0.1876 -0.7702 -0.3779
  679MOL0     C93611   3.599   2.365   1.399  0.7377  0.1825 -0.3588
  679MOL0     O93612   3.638   2.135   1.600 -0.0456 -0.1172  0.1348
  679MOL0     C93613   3.520   1.857   1.425 -0.8188  0.9840  0.3253
  679MOL0     C93614   3.461   1.738   1.437  0.2116  0.6020 -0.1444
  679MOL0     N93615   2.857   1.593   1.350  0.3658  0.7211  1.1547
  679MOL0     N93616   2.853   1.708   1.284 -0.2510 -0.4833 -0.2994
  679MOL0     C93617   3.026   1.570   0.451  1.2816 -0.4461 -0.4087
  679MOL0     C93618   2.948   1.457   0.411  0.6496  0.0748 -0.5598
  679MOL0     C93619   2.743   1.068   0.307 -0.5586  0.3974  0.5990
  679MOL0     C93620   2.602   1.071   0.298 -0.1432  0.6737 -0.3674
  679MOL0     C93621   2.535   0.958   0.245  0.2771 -0.1241 -0.1019
  679MOL0     C93622   2.608   0.843   0.216  1.0947 -0.1368  0.3398
  679MOL0     O93623   2.570   0.724   0.162  0.2805  0.8643  0.3342
  679MOL0     C93624   2.440   0.665   0.183 -0.0124  0.0076 -0.1581
  679MOL0     C93625   2.448   0.572   0.299  0.0256  0.6193 -0.5690
  679MOL0     C93626   2.333   0.478   0.317  0.0667  0.2256  0.5774
  679MOL0     C93627   2.356   0.402   0.446  0.1411 -0.0822 -0.8450
  679MOL0     C93628   2.285   0.280   0.458 -0.2117 -1.0174  0.0842
  679MOL0     C93629   2.223   0.182   0.483  0.1217 -0.2449 -0.8123
  679MOL0     C93630   2.746   0.840   0.228 -0.1040 -0.0506 -0.3156
  679MOL0     C93631   2.819   0.947   0.262  0.5412 -0.1912 -0.4743
  679MOL0     C93632   2.965   0.940   0.250 -0.8206 -0.4331 -0.6919
  679MOL0     H93633   3.150   1.199   0.482 -4.1095 -1.7748 -0.3838
  679MOL0     H93634   3.295   1.404   0.558  0.7985 -1.0437 -1.1640
  679MOL0     H93635   3.346   1.703   0.679 -0.0026  0.9945  0.6404
  679MOL0     H93636   3.173   1.654   0.724  0.2490  0.4739 -0.2542
  679MOL0     H93637   3.266   1.933   0.625  0.1758 -0.1709 -1.7901
  679MOL0     H93638   3.110   1.848   0.601  0.5461 -1.7297 -0.4183
  679MOL0     H93639   3.160   2.026   0.796 -1.8913  0.2411  1.7422
  679MOL0     H93640   3.039   1.910   0.791 -0.6417 -3.2590  0.7437
  679MOL0     H93641   3.184   1.743   0.929  0.6961  0.3119 -0.4671
  679MOL0     H93642   3.299   1.869   0.955 -0.1087  0.1149  1.9021
  679MOL0     H93643   3.016   1.842   1.037 -0.5747 -0.5725 -4.0607
  679MOL0     H93644   3.105   2.001   1.049  2.7513 -0.5293 -2.9425
  679MOL0     H93645   3.153   1.746   1.209 -2.8160  1.1390  2.1477
  679MOL0     H93646   3.288   1.860   1.176  0.5403  0.2389  1.2175
  679MOL0     H93647   3.137   2.050   1.279  0.6392  0.1004  1.8786
  679MOL0     H93648   3.180   1.930   1.396  2.4049  0.3577 -1.3806
  679MOL0     H93649   2.933   1.998   1.400 -1.2222  2.2868 -2.3199
  679MOL0     H93650   2.903   1.962   1.236 -1.8388 -1.5242  1.6605
  679MOL0     H93651   3.064   1.756   1.538 -0.4660 -0.1395  1.3142
  679MOL0     H93652   2.889   1.437   1.609 -0.1992  2.0303  1.6536
  679MOL0     H93653   3.044   1.521   1.635  0.7217 -2.6689  0.0911
  679MOL0     H93654   3.022   1.269   1.519 -1.9017  1.1788  0.2244
  679MOL0     H93655   3.024   1.359   1.383 -2.4402 -1.0310  1.0818
  679MOL0     H93656   3.235   1.356   1.595 -2.8059 -0.8444  0.3961
  679MOL0     H93657   3.234   1.286   1.431 -4.4681 -0.1513 -0.5445
  679MOL0     H93658   3.361   1.481   1.382 -0.6496 -0.3973  0.1517
  679MOL0     H93659   3.192   1.529   1.356 -0.7831 -0.7509 -0.2912
  679MOL0     H93660   3.261   1.770   1.710  2.3042 -3.9278  1.7564
  679MOL0     H93661   3.499   2.050   1.797 -1.0379  3.3207 -0.7373
  679MOL0     H93662   3.353   1.955   1.838  1.0793  1.4259  0.8279
  679MOL0     H93663   3.352   2.113   1.743  3.0336  1.5898 -7.2238
  679MOL0     H93664   3.743   2.128   1.212 -0.6151  0.2263 -2.5266
  679MOL0     H93665   3.866   2.344   1.115 -0.5699 -2.0698 -1.6048
  679MOL0     H93666   4.024   2.519   1.250  4.1205 -2.3425 -6.1002
  679MOL0     H93667   3.986   2.573   1.094  1.0509  2.6286  0.5291
  679MOL0     H93668   3.976   2.807   1.157  0.7803  1.5027  1.6817
  679MOL0     H93669   3.982   2.754   1.332 -1.5447 -1.2260 -0.6507
  679MOL0     H93670   4.183   2.785   1.110  1.4188  1.3466  1.2594
  679MOL0     H93671   4.224   2.685   1.260 -0.7203 -0.2543  2.1909
  679MOL0     H93672   4.189   2.873   1.406  0.5642 -1.7866 -0.2012
  679MOL0     H93673   4.148   2.983   1.277  1.9659  2.0802 -0.1047
  679MOL0     H93674   4.368   3.027   1.352 -3.8434  0.9194 -1.8389
  679MOL0     H93675   4.418   2.854   1.330  0.5153  0.4353  1.8389
  679MOL0     H93676   4.350   3.043   1.107  2.0284  0.8329 -0.6908
  679MOL0     H93677   4.402   2.874   1.090  4.9718 -1.4435  0.5511
  679MOL0     H93678   4.596   2.975   1.055  2.8872  0.6600  0.6896
  679MOL0     H93679   4.602   2.922   1.223  1.7330  1.6651  1.2715
  679MOL0     H93680   4.686   3.135   1.238  0.4340 -1.8552  0.1229
  679MOL0     H93681   4.523   3.160   1.302  2.4041 -0.6178  1.7636
  679MOL0     H93682   3.633   2.573   1.398  0.8925 -2.3983  3.7161
  679MOL0     H93683   3.528   2.365   1.481 -1.2772  1.9679 -1.9793
  679MOL0     H93684   3.576   1.877   1.335  0.2753  1.5508  1.1104
  679MOL0     H93685   3.463   1.672   1.351 -1.2468  2.5181 -1.7477
  679MOL0     H93686   3.005   1.675   0.438  0.4549 -0.9122 -3.5310
  679MOL0     H93687   2.863   1.485   0.350  2.1134 -1.3905 -3.5071
  679MOL0     H93688   2.541   1.150   0.340 -0.3741  0.9793 -1.2520
  679MOL0     H93689   2.428   0.950   0.233  0.4313 -3.0722 -0.1612
  679MOL0     H93690   2.375   0.750   0.209  0.4454  1.3729 -3.0423
  679MOL0     H93691   2.404   0.625   0.087  0.9852 -2.6936  0.5026
  679MOL0     H93692   2.463   0.631   0.390 -1.4844  2.0773 -1.2268
  679MOL0     H93693   2.537   0.509   0.285 -0.5493  0.1384 -2.3158
  679MOL0     H93694   2.243   0.540   0.329 -0.5910 -0.4485 -0.7174
  679MOL0     H93695   2.317   0.411   0.232 -4.7281 -1.1913  2.2532
  679MOL0     H93696   2.321   0.455   0.535 -0.9598 -1.1418 -0.6235
  679MOL0     H93697   2.464   0.387   0.456  0.1971 -0.8467 -2.2947
  679MOL0     H93698   2.161   0.097   0.505 -0.5546  0.6172  0.7978
  679MOL0     H93699   2.807   0.756   0.197  0.8934  1.6190 -3.3126
  679MOL0     H93700   3.006   0.874   0.326  3.6907  3.2338  0.5650
  679MOL0     H93701   2.981   0.908   0.146 -0.6424 -0.7288 -0.5718
  679MOL0     H93702   3.021   1.034   0.261  0.9012 -1.6310  1.7084
  680MOL0     O93703   3.097   1.625   4.671  0.1949 -0.4908 -0.4576
  680MOL0     C93704   3.037   1.734   4.666 -0.0908  0.5535  0.0157
  680MOL0     O93705   3.026   1.808   4.551  0.4987 -0.3163  0.3765
  680MOL0     C93706   3.089   1.765   4.439  0.7325  0.6814  1.0078
  680MOL0     C93707   3.136   1.630   4.396  0.4695 -0.3284  0.3572
  680MOL0     C93708   3.181   1.609   4.266 -0.9505 -1.6419 -0.1135
  680MOL0     C93709   3.174   1.701   4.163  0.4792  0.0381  0.0015
  680MOL0     O93710   3.204   1.678   4.032  0.5989  0.5492  0.2040
  680MOL0     C93711   3.124   1.744   3.940  0.1850 -0.0483  0.3550
  680MOL0     C93712   3.135   1.651   3.817 -0.7805 -0.8129 -0.0163
  680MOL0     C93713   3.077   1.510   3.853  0.0553 -0.4373  0.0711
  680MOL0     C93714   2.924   1.520   3.875  0.1233 -0.2812 -0.2288
  680MOL0     C93715   2.861   1.388   3.868 -0.0091  0.4825  0.1734
  680MOL0     C93716   2.748   1.368   3.956  0.3649  0.4976 -0.5195
  680MOL0     C93717   2.669   1.243   3.915 -0.2407  0.2260 -0.2258
  680MOL0     C93718   2.558   1.206   4.012  0.0960 -0.7550 -0.2276
  680MOL0     N93719   2.476   1.098   3.953 -0.2753 -0.0865  0.1452
  680MOL0     C93720   2.384   1.125   3.851 -0.5308 -0.2920 -0.5724
  680MOL0     C93721   2.346   1.011   3.798  0.0982  0.2936  0.2829
  680MOL0     C93722   2.254   0.985   3.678 -0.6603  0.0272 -0.5288
  680MOL0     C93723   2.112   0.951   3.703 -0.3975 -0.4271  0.3661
  680MOL0     C93724   2.042   0.933   3.562  0.1848  0.7216 -0.7041
  680MOL0     C93725   1.936   0.819   3.570 -0.5412  0.1112 -0.2111
  680MOL0     O93726   1.984   0.690   3.616 -0.7512  0.2385  0.0658
  680MOL0     C93727   1.895   0.587   3.641  0.4862 -0.1079  0.5245
  680MOL0     C93728   1.782   0.574   3.574 -0.3973 -0.3722  0.7799
  680MOL0     C93729   1.692   0.476   3.608 -0.1295  1.1064  0.6330
  680MOL0     C93730   1.575   0.442   3.522  0.4570  0.1962  1.2446
  680MOL0     C93731   1.720   0.394   3.718  1.4228 -0.3046  0.3464
  680MOL0     C93732   1.625   0.297   3.773 -0.0359 -0.3367 -0.6923
  680MOL0     O93733   1.641   0.297   3.910 -0.1980 -0.2160 -0.0047
  680MOL0     C93734   1.588   0.194   3.989  0.3666 -1.2196  0.1244
  680MOL0     C93735   1.555   0.231   4.117 -0.1029  0.6911  0.1846
  680MOL0     C93736   1.508   0.129   4.207 -0.5360 -0.5158 -0.2435
  680MOL0     C93737   1.491   0.004   4.171 -0.0235  0.3472  0.1879
  680MOL0     O93738   1.444  -0.106   4.247  0.3069  0.0106 -0.5646
  680MOL0     C93739   1.392  -0.067   4.380  0.0436  1.0379 -0.9314
  680MOL0     C93740   1.504  -0.067   4.499  0.2444  0.7845 -0.0278
  680MOL0     C93741   1.447  -0.049   4.635 -0.1504  0.4091  0.1092
  680MOL0     C93742   1.341  -0.150   4.680  0.2389  0.7184 -1.1303
  680MOL0     C93743   1.312  -0.164   4.835  0.0538 -0.0032  0.0851
  680MOL0     C93744   1.227  -0.281   4.880  0.6782 -0.1424  0.0880
  680MOL0     C93745   1.229  -0.304   5.025  0.5620  0.0577 -0.4201
  680MOL0     C93746   1.118  -0.409   5.068 -0.4723 -0.5216  0.0996
  680MOL0    Cl93747   1.217  -0.533   5.153  0.0619  0.3232 -0.1544
  680MOL0     C93748   1.524  -0.035   4.040  0.6586 -1.0548 -0.3148
  680MOL0     C93749   1.563   0.062   3.951  0.2285 -1.1862 -0.0622
  680MOL0     O93750   1.557   0.219   3.706 -0.6241 -0.9443 -0.4629
  680MOL0     C93751   1.844   0.398   3.775 -0.4063  0.7501  0.7761
  680MOL0     C93752   1.932   0.497   3.737 -0.1295 -0.4479  0.3284
  680MOL0     N93753   2.419   0.912   3.872 -0.0341  0.7107 -1.0317
  680MOL0     N93754   2.500   0.961   3.969  0.0119  1.2823 -0.2937
  680MOL0     C93755   3.126   1.829   4.196  0.1377 -0.5004 -0.6176
  680MOL0     C93756   3.091   1.863   4.331 -0.7798 -0.3301  0.4508
  680MOL0     C93757   2.990   1.787   4.791 -0.2560  0.1183 -0.5126
  680MOL0     C93758   2.973   1.928   4.798  0.3520  0.6398  0.4359
  680MOL0     C93759   2.931   1.998   4.911  0.0077 -0.2549 -0.5735
  680MOL0     C93760   2.912   1.929   5.034  0.5806 -0.4963  1.1994
  680MOL0     O93761   2.877   1.967   5.163  0.1081 -0.7661 -0.5607
  680MOL0     C93762   2.840   2.106   5.177 -0.6080 -0.9931 -0.2086
  680MOL0     C93763   2.700   2.139   5.132 -0.7931  0.5427 -0.1351
  680MOL0     C93764   2.599   2.120   5.242  0.2566 -0.1154 -0.0461
  680MOL0     C93765   2.450   2.105   5.186 -0.2011 -0.3741  0.7692
  680MOL0     C93766   2.358   2.058   5.295  1.2681 -0.0870 -0.6043
  680MOL0     C93767   2.289   2.015   5.386 -0.6867  0.6440 -0.2255
  680MOL0     C93768   2.930   1.786   5.032 -0.9685 -0.8324  0.1459
  680MOL0     C93769   2.968   1.715   4.914  0.0193 -0.3980 -0.2629
  680MOL0     C93770   2.971   1.563   4.922  0.1169 -0.4036 -0.6290
  680MOL0     H93771   3.142   1.541   4.459  3.6830 -1.2756 -1.0634
  680MOL0     H93772   3.209   1.508   4.240 -1.6585 -1.4986 -1.5621
  680MOL0     H93773   3.172   1.838   3.911 -0.5556 -0.9118 -4.4754
  680MOL0     H93774   3.022   1.757   3.977 -0.0941 -2.9908  0.8298
  680MOL0     H93775   3.078   1.697   3.735 -0.1894  0.4880  0.2800
  680MOL0     H93776   3.233   1.630   3.772 -0.3675  1.9569 -0.6171
  680MOL0     H93777   3.118   1.428   3.792  1.1308 -0.9015  1.3736
  680MOL0     H93778   3.123   1.484   3.949 -1.6840  0.6758  1.2432
  680MOL0     H93779   2.910   1.558   3.976 -1.0664 -0.0978 -0.4575
  680MOL0     H93780   2.869   1.597   3.821  2.4937  1.1194 -0.7910
  680MOL0     H93781   2.934   1.309   3.889 -0.3100  0.4549  1.1319
  680MOL0     H93782   2.834   1.367   3.764  0.5410 -3.0011  0.6172
  680MOL0     H93783   2.785   1.361   4.058  1.6267  0.6518 -0.9566
  680MOL0     H93784   2.664   1.439   3.950 -2.0386 -2.1032  0.0761
  680MOL0     H93785   2.738   1.159   3.930 -0.0826 -0.1258 -2.6105
  680MOL0     H93786   2.644   1.251   3.809  2.7713  0.8323 -1.0055
  680MOL0     H93787   2.591   1.171   4.110  1.3125 -3.7328 -1.5743
  680MOL0     H93788   2.510   1.301   4.037  1.3504 -0.0553 -0.3677
  680MOL0     H93789   2.343   1.223   3.828 -0.0172  0.5661  1.8021
  680MOL0     H93790   2.281   0.889   3.632 -1.7442  0.3384 -1.8994
  680MOL0     H93791   2.276   1.065   3.607 -1.2678  0.4360 -0.2643
  680MOL0     H93792   2.105   0.865   3.770 -2.0061 -2.4659 -2.2129
  680MOL0     H93793   2.061   1.028   3.761  3.1531  0.9846  1.9212
  680MOL0     H93794   1.993   1.026   3.535 -0.2922  0.0168 -2.3923
  680MOL0     H93795   2.118   0.912   3.485  3.1331  1.7360  1.7090
  680MOL0     H93796   1.862   0.853   3.644  1.7694  1.8631  1.4473
  680MOL0     H93797   1.881   0.810   3.476 -1.8136  0.4248  0.4763
  680MOL0     H93798   1.748   0.647   3.500  2.9149  2.2830  1.6002
  680MOL0     H93799   1.581   0.342   3.480 -1.0700  0.4451  0.3764
  680MOL0     H93800   1.559   0.512   3.440 -0.1814 -0.1357  1.0837
  680MOL0     H93801   1.487   0.449   3.586  0.4427  1.3265  1.1272
  680MOL0     H93802   1.548   0.334   4.150 -4.6074 -0.4843  4.0313
  680MOL0     H93803   1.473   0.153   4.307 -1.1855  0.8945 -0.7773
  680MOL0     H93804   1.344   0.030   4.369  4.6133  3.4467 -2.1828
  680MOL0     H93805   1.310  -0.133   4.410 -1.0502  2.2612 -1.1549
  680MOL0     H93806   1.548  -0.167   4.495 -0.3239  0.5213  0.1171
  680MOL0     H93807   1.580   0.008   4.474  0.9012 -0.8011 -3.3037
  680MOL0     H93808   1.400   0.046   4.661  0.5247  1.3148 -1.7587
  680MOL0     H93809   1.536  -0.037   4.697 -1.0699  2.3030  1.1240
  680MOL0     H93810   1.351  -0.254   4.647 -0.5237  1.4066 -3.7289
  680MOL0     H93811   1.247  -0.119   4.633 -0.5581 -1.2503 -0.9225
  680MOL0     H93812   1.402  -0.163   4.897  0.3862  2.5256 -0.3205
  680MOL0     H93813   1.258  -0.074   4.868  0.6603  1.0574 -1.6453
  680MOL0     H93814   1.261  -0.379   4.844 -1.3972 -1.5632  1.7768
  680MOL0     H93815   1.123  -0.282   4.847 -0.1704  1.9156  2.4267
  680MOL0     H93816   1.212  -0.210   5.078  0.6768  0.6425 -1.4076
  680MOL0     H93817   1.328  -0.335   5.058  0.0659 -2.6414 -1.2015
  680MOL0     H93818   1.060  -0.438   4.981 -0.0357 -1.6558  0.1721
  680MOL0     H93819   1.054  -0.355   5.139  0.2867  0.9737 -0.3080
  680MOL0     H93820   1.524  -0.142   4.017  1.7030 -1.4073  1.1905
  680MOL0     H93821   1.571   0.023   3.849 -3.8327 -2.1972 -0.1940
  680MOL0     H93822   1.884   0.331   3.851  3.5179  2.3704  0.3811
  680MOL0     H93823   2.017   0.514   3.803  0.1828 -2.0713  0.3722
  680MOL0     H93824   3.111   1.911   4.127 -1.8695  0.2817  0.6662
  680MOL0     H93825   3.059   1.964   4.354 -0.3408  0.2761 -1.4278
  680MOL0     H93826   2.989   1.990   4.710 -2.1079  0.4895 -0.1913
  680MOL0     H93827   2.913   2.105   4.902 -1.8016 -0.2567  1.9091
  680MOL0     H93828   2.837   2.137   5.282  0.7513 -1.9069  0.1266
  680MOL0     H93829   2.904   2.182   5.132  0.0733 -0.7879  1.0465
  680MOL0     H93830   2.667   2.060   5.064  0.8268 -0.3374  0.0430
  680MOL0     H93831   2.697   2.236   5.081 -1.5043  0.9905  0.7311
  680MOL0     H93832   2.633   2.035   5.302  0.2998  0.1861  0.3553
  680MOL0     H93833   2.604   2.210   5.303  0.8986 -1.3680  1.8245
  680MOL0     H93834   2.457   2.046   5.095 -0.7242  2.9516 -1.6172
  680MOL0     H93835   2.403   2.201   5.162 -0.7496 -0.9033 -0.3688
  680MOL0     H93836   2.213   1.989   5.456 -0.5173  2.0295  0.4988
  680MOL0     H93837   2.913   1.735   5.126  1.8248 -2.0910  0.0620
  680MOL0     H93838   3.069   1.520   4.901 -1.5678 -5.3802  0.3286
  680MOL0     H93839   2.949   1.534   5.025  0.6526  0.7398 -0.1739
  680MOL0     H93840   2.888   1.528   4.859 -0.7326 -1.6505  1.1118
  681MOL0     O93841   1.111   1.819   2.575 -0.5874 -1.1045 -0.1127
  681MOL0     C93842   1.214   1.759   2.553  0.2856  0.2747 -1.5480
  681MOL0     O93843   1.249   1.642   2.609  0.3004 -1.3382  0.6092
  681MOL0     C93844   1.160   1.582   2.686 -0.0001  0.8777 -0.1811
  681MOL0     C93845   1.042   1.515   2.637 -0.7773  0.3872  0.8977
  681MOL0     C93846   0.955   1.464   2.727  0.6617  0.7065 -0.1969
  681MOL0     C93847   0.992   1.444   2.863  0.1618  0.2525  0.2171
  681MOL0     O93848   0.903   1.399   2.952  0.1713  0.0168 -0.7717
  681MOL0     C93849   0.763   1.422   2.937  0.3628  0.3578  0.5808
  681MOL0     C93850   0.695   1.436   3.069  0.4515 -0.4889 -0.0407
  681MOL0     C93851   0.712   1.304   3.141 -0.2472  0.6985 -0.1240
  681MOL0     C93852   0.619   1.301   3.259 -0.3119 -0.0532  0.7778
  681MOL0     C93853   0.625   1.164   3.325 -0.3825 -0.0589 -0.7746
  681MOL0     C93854   0.510   1.156   3.434 -0.0178  0.4083  0.1280
  681MOL0     C93855   0.506   1.033   3.522  1.1015 -0.1964 -1.0011
  681MOL0     C93856   0.388   1.036   3.621 -0.3346 -0.8503 -1.1988
  681MOL0     N93857   0.262   1.062   3.558  0.4665 -1.2040 -0.3790
  681MOL0     C93858   0.190   0.976   3.487 -0.8452  0.6324 -0.2682
  681MOL0     C93859   0.094   1.054   3.439  0.4717 -0.0024 -1.1247
  681MOL0     C93860  -0.020   1.020   3.343 -0.7460  0.2756  0.3631
  681MOL0     C93861  -0.154   1.101   3.357 -0.4696 -0.2927 -0.7919
  681MOL0     C93862  -0.206   1.084   3.506  0.3427  0.1462 -0.0930
  681MOL0     C93863  -0.205   1.206   3.603  0.4551 -1.0892  0.1588
  681MOL0     O93864  -0.298   1.204   3.712  0.3811  0.8513  0.3537
  681MOL0     C93865  -0.290   1.118   3.813 -0.0512 -0.1556 -0.5164
  681MOL0     C93866  -0.169   1.045   3.831  0.5288 -0.2184 -0.3277
  681MOL0     C93867  -0.157   0.968   3.953 -0.1452 -0.2103 -0.2106
  681MOL0     C93868  -0.019   0.902   3.958  0.2404 -0.1065  0.6628
  681MOL0     C93869  -0.265   0.957   4.046 -0.2025  0.0211 -1.0148
  681MOL0     C93870  -0.268   0.885   4.174 -0.2934  0.7996 -0.1304
  681MOL0     O93871  -0.179   0.784   4.182  0.1226  0.8537 -0.8709
  681MOL0     C93872  -0.153   0.719   4.302  0.8486  0.1896 -0.5316
  681MOL0     C93873  -0.092   0.597   4.285 -0.5086  0.6619  0.7003
  681MOL0     C93874  -0.065   0.521   4.399 -0.7186  0.0881  0.2032
  681MOL0     C93875  -0.093   0.566   4.534  0.2928 -0.1427  0.0475
  681MOL0     O93876  -0.069   0.484   4.642 -0.4070  0.5836 -0.1661
  681MOL0     C93877  -0.176   0.478   4.739 -0.1457  0.3880  0.5314
  681MOL0     C93878  -0.134   0.497   4.880  0.1514 -0.0715 -1.1295
  681MOL0     C93879  -0.004   0.421   4.911  0.0738 -0.4605  0.1501
  681MOL0     C93880   0.006   0.275   4.863  0.5815  0.2424 -0.1047
  681MOL0     C93881   0.128   0.206   4.929  0.0007  0.9869 -0.0565
  681MOL0     C93882   0.171   0.068   4.866  0.2738  0.1561  1.0725
  681MOL0     C93883   0.309   0.026   4.926 -0.6160 -0.1029  0.0343
  681MOL0     C93884   0.336  -0.126   4.922 -0.2064 -1.3597  0.3692
  681MOL0    Cl93885   0.182  -0.221   4.954  0.3039  0.0481  0.1425
  681MOL0     C93886  -0.128   0.699   4.551  0.8589  0.7304  0.9159
  681MOL0     C93887  -0.165   0.775   4.436  0.6808  0.0733  0.0330
  681MOL0     O93888  -0.349   0.916   4.259 -0.0021  0.8827 -0.0127
  681MOL0     C93889  -0.383   1.027   4.018  0.3256  0.9340 -0.5754
  681MOL0     C93890  -0.386   1.114   3.910  0.5916 -0.2672  0.3457
  681MOL0     N93891   0.115   1.191   3.483  0.0932  0.6503 -0.4415
  681MOL0     N93892   0.225   1.191   3.548 -0.6256 -0.3621  0.3471
  681MOL0     C93893   1.107   1.494   2.909  0.0782 -0.7276 -0.9967
  681MOL0     C93894   1.189   1.567   2.828 -0.1401 -0.8727  0.3681
  681MOL0     C93895   1.316   1.831   2.470  0.0357 -0.8400  1.2934
  681MOL0     C93896   1.454   1.808   2.488 -0.3989  0.1803 -0.9350
  681MOL0     C93897   1.551   1.869   2.424 -0.4322 -0.1646 -0.4410
  681MOL0     C93898   1.522   1.981   2.346  0.4545 -0.0498  0.4078
  681MOL0     O93899   1.608   2.049   2.265 -0.4427  0.2929 -0.0918
  681MOL0     C93900   1.735   1.992   2.251 -0.2208  0.7827  0.7311
  681MOL0     C93901   1.846   2.062   2.179  0.0116 -0.1875 -0.1053
  681MOL0     C93902   1.908   2.187   2.253 -0.8771  0.8335 -0.9641
  681MOL0     C93903   2.045   2.226   2.180  0.1286  0.7491 -0.4234
  681MOL0     C93904   2.098   2.357   2.222  0.1876 -0.7118  0.4287
  681MOL0     C93905   2.155   2.462   2.253 -0.6871  0.3193 -0.4267
  681MOL0     C93906   1.393   2.010   2.321  0.2018  0.0323 -0.4636
  681MOL0     C93907   1.282   1.940   2.381 -0.3420 -0.4834  1.2470
  681MOL0     C93908   1.142   1.988   2.343 -0.6703 -0.7636  0.0713
  681MOL0     H93909   1.024   1.504   2.531 -2.2964  1.1271  1.0492
  681MOL0     H93910   0.866   1.424   2.680  0.6827 -1.5577  1.5257
  681MOL0     H93911   0.723   1.336   2.882 -0.0058  2.1515 -2.1616
  681MOL0     H93912   0.752   1.518   2.886 -2.5112 -0.3830 -0.3671
  681MOL0     H93913   0.746   1.514   3.125  1.5503  0.4495 -2.2421
  681MOL0     H93914   0.591   1.468   3.053  0.6574  0.8438  1.1205
  681MOL0     H93915   0.699   1.218   3.074  1.3818  0.3889 -0.0812
  681MOL0     H93916   0.814   1.305   3.179  0.1772  1.2519 -1.2539
  681MOL0     H93917   0.660   1.382   3.320 -2.3702  0.5850  1.4001
  681MOL0     H93918   0.515   1.330   3.243  0.3669  1.5600 -1.1379
  681MOL0     H93919   0.720   1.153   3.378 -1.7275  1.5608  2.2363
  681MOL0     H93920   0.617   1.082   3.252  1.1583 -1.7794  0.8706
  681MOL0     H93921   0.504   1.230   3.515 -2.9561 -1.3412  1.7083
  681MOL0     H93922   0.412   1.160   3.385 -0.8867  0.2596  1.7525
  681MOL0     H93923   0.602   1.022   3.573  0.0644 -0.1231  1.0632
  681MOL0     H93924   0.494   0.941   3.464 -2.9289 -0.2437 -0.3723
  681MOL0     H93925   0.381   0.942   3.676 -0.4569  1.3186  2.8772
  681MOL0     H93926   0.416   1.102   3.704  0.5577  0.9838 -2.8883
  681MOL0     H93927   0.196   0.868   3.486 -0.9488  0.6003  0.9555
  681MOL0     H93928  -0.041   0.915   3.369 -3.9280  0.8564  0.6411
  681MOL0     H93929   0.017   1.031   3.241  1.7766 -0.8022  1.0743
  681MOL0     H93930  -0.126   1.204   3.334  0.4411  0.1045  1.8220
  681MOL0     H93931  -0.227   1.069   3.281 -0.0333  0.0913 -1.3846
  681MOL0     H93932  -0.305   1.037   3.506  0.0889  0.6248  1.7177
  681MOL0     H93933  -0.148   1.009   3.559 -1.6132  0.0352  2.0416
  681MOL0     H93934  -0.103   1.238   3.625  0.2269  0.9470 -1.3847
  681MOL0     H93935  -0.227   1.286   3.531  0.8811 -0.2222  0.9809
  681MOL0     H93936  -0.093   1.055   3.754 -0.3657  0.5492 -1.1334
  681MOL0     H93937   0.064   0.971   3.938  2.2388 -2.6688 -0.4055
  681MOL0     H93938  -0.011   0.817   3.890  0.6125  0.4302  0.0206
  681MOL0     H93939   0.014   0.865   4.055 -2.0151 -0.2633  1.4381
  681MOL0     H93940  -0.069   0.568   4.183  2.5013 -2.2204  1.9940
  681MOL0     H93941  -0.024   0.421   4.393 -1.4768 -0.6392  4.0071
  681MOL0     H93942  -0.251   0.553   4.713 -0.6216 -0.9771 -2.3823
  681MOL0     H93943  -0.235   0.386   4.735  1.0096 -0.3450 -3.5394
  681MOL0     H93944  -0.137   0.603   4.907  0.8429 -0.6854  1.6107
  681MOL0     H93945  -0.215   0.458   4.941  0.7820 -0.3051 -0.4280
  681MOL0     H93946   0.012   0.427   5.019  0.5753 -1.4451  0.1485
  681MOL0     H93947   0.082   0.476   4.871 -1.2598  1.2000 -0.5571
  681MOL0     H93948   0.017   0.274   4.755 -0.0084 -2.0467 -0.1831
  681MOL0     H93949  -0.086   0.221   4.888 -0.2644  1.3988 -0.6142
  681MOL0     H93950   0.215   0.273   4.927  0.5124  0.3729  0.9725
  681MOL0     H93951   0.102   0.202   5.035 -0.9706 -0.4242 -0.3230
  681MOL0     H93952   0.190   0.087   4.760  2.2623 -0.2427  1.3029
  681MOL0     H93953   0.081   0.010   4.887 -1.1326  1.8393  0.0207
  681MOL0     H93954   0.307   0.042   5.035 -0.3762 -5.4091  1.0656
  681MOL0     H93955   0.393   0.075   4.877 -1.7023  1.1698 -0.6043
  681MOL0     H93956   0.415  -0.161   4.989  0.7248  0.8583  0.5052
  681MOL0     H93957   0.377  -0.163   4.828 -3.3132 -2.4359 -0.6962
  681MOL0     H93958  -0.157   0.740   4.647  1.0708 -0.8053  1.6728
  681MOL0     H93959  -0.214   0.871   4.451  1.8121  0.9778 -1.6970
  681MOL0     H93960  -0.465   1.017   4.089 -0.9661 -0.5858 -2.2011
  681MOL0     H93961  -0.472   1.178   3.896  0.4087 -0.3952  0.8759
  681MOL0     H93962   1.135   1.468   3.011  0.9950  0.5388 -0.8979
  681MOL0     H93963   1.272   1.625   2.867 -1.9991  2.4889 -0.3418
  681MOL0     H93964   1.483   1.736   2.564 -1.6654 -0.1235 -0.7255
  681MOL0     H93965   1.657   1.850   2.437  0.0064  0.7227 -2.3215
  681MOL0     H93966   1.790   1.960   2.340  0.3369  1.1598  0.5247
  681MOL0     H93967   1.722   1.903   2.187  0.9188  0.9184  0.2915
  681MOL0     H93968   1.802   2.096   2.085 -2.0519 -1.6500  0.2538
  681MOL0     H93969   1.925   1.990   2.158  0.0819 -0.3784  0.7510
  681MOL0     H93970   1.842   2.273   2.241 -0.7139  0.7637 -2.6305
  681MOL0     H93971   1.930   2.186   2.360 -2.6142  0.9489 -0.5812
  681MOL0     H93972   2.016   2.247   2.077  2.6546  3.3229 -0.7421
  681MOL0     H93973   2.124   2.150   2.179  0.9011  1.5470 -1.4554
  681MOL0     H93974   2.226   2.541   2.267  2.1806 -2.3150  1.4120
  681MOL0     H93975   1.380   2.096   2.256  2.8184 -0.3826 -1.6872
  681MOL0     H93976   1.145   2.048   2.252 -0.8404 -0.6907  0.1146
  681MOL0     H93977   1.075   1.903   2.324  0.0400 -1.0537 -1.3038
  681MOL0     H93978   1.105   2.059   2.417  0.5645  3.9085 -3.3224
  682MOL0     O93979   1.717   9.687   6.990  0.3632 -0.1954 -0.2443
  682MOL0     C93980   1.753   9.648   6.875  0.4923 -0.5216  0.4977
  682MOL0     O93981   1.779   9.729   6.771 -0.5199 -0.0232 -0.5001
  682MOL0     C93982   1.813   9.857   6.795 -0.2727 -0.2145  0.9716
  682MOL0     C93983   1.726   9.944   6.841 -0.1449 -0.7648 -0.5830
  682MOL0     C93984   1.747  10.083   6.857  0.4435  0.3713  0.6791
  682MOL0     C93985   1.865  10.140   6.834  0.4539  0.8251  0.0376
  682MOL0     O93986   1.886  10.270   6.866 -0.1416 -0.4056  0.7779
  682MOL0     C93987   2.020  10.288   6.925 -0.5818  0.0207 -0.7068
  682MOL0     C93988   2.025  10.416   7.027 -0.9140  0.6684 -0.8576
  682MOL0     C93989   1.926  10.407   7.135  1.1961  0.2875 -0.9565
  682MOL0     C93990   1.912  10.538   7.211  0.0441 -0.6483 -0.5792
  682MOL0     C93991   1.891  10.672   7.133 -0.8581 -0.8740  0.0164
  682MOL0     C93992   1.751  10.693   7.065  0.3048 -0.1498 -0.0490
  682MOL0     C93993   1.657  10.791   7.126 -0.1636  0.4880  0.1573
  682MOL0     C93994   1.701  10.938   7.124  0.2338  0.3481  0.5574
  682MOL0     N93995   1.641  11.009   7.004 -0.8364  0.2783 -0.3229
  682MOL0     C93996   1.590  10.949   6.886  0.0057 -0.2755  0.4365
  682MOL0     C93997   1.533  11.052   6.811  0.2346 -0.6937  0.2469
  682MOL0     C93998   1.464  11.055   6.685 -0.1531 -0.1609  1.0283
  682MOL0     C93999   1.549  10.995   6.567 -0.6295  0.6577  0.5969
  682MOL0     C94000   1.684  11.061   6.551  0.0887  0.6167  0.1747
  682MOL0     C94001   1.755  11.023   6.429 -0.5540  0.4666 -0.5659
  682MOL0     O94002   1.787  10.887   6.432 -0.3585 -0.0767 -0.5079
  682MOL0     C94003   1.786  10.826   6.309 -0.8318 -0.1912  0.1165
  682MOL0     C94004   1.691  10.734   6.271  0.4817  0.4277  0.1801
  682MOL0     C94005   1.686  10.690   6.132 -0.1089  0.2392  0.0766
  682MOL0     C94006   1.578  10.587   6.106  0.3688  0.3980  0.3043
  682MOL0     C94007   1.782  10.739   6.039 -1.4613 -0.0196 -0.0016
  682MOL0     C94008   1.799  10.701   5.893  0.7126 -0.3084 -0.3900
  682MOL0     O94009   1.892  10.779   5.827 -0.0571  0.4364 -0.9265
  682MOL0     C94010   1.870  10.779   5.696  0.6166  0.3094  0.5070
  682MOL0     C94011   1.971  10.753   5.603  0.8817  0.4834 -0.3274
  682MOL0     C94012   1.948  10.748   5.470 -0.0230  0.3823  0.2850
  682MOL0     C94013   1.825  10.780   5.417  0.0347  0.6370  0.7896
  682MOL0     O94014   1.817  10.785   5.275  0.8322  0.1753 -0.5598
  682MOL0     C94015   1.796  10.916   5.227 -0.7469  0.1307 -0.1746
  682MOL0     C94016   1.654  10.947   5.182  0.0122 -0.2170  0.2920
  682MOL0     C94017   1.618  10.870   5.056 -0.2259  0.0079  0.7714
  682MOL0     C94018   1.470  10.875   5.039  0.2011 -0.6265  0.6792
  682MOL0     C94019   1.421  10.803   4.910 -0.5565 -0.9661 -0.6121
  682MOL0     C94020   1.259  10.786   4.907 -0.6218  0.5043  0.6329
  682MOL0     C94021   1.217  10.720   4.776  0.8025  0.2210  0.4529
  682MOL0     C94022   1.069  10.724   4.742  0.1001 -1.2585  0.1352
  682MOL0    Cl94023   0.990  10.874   4.797 -0.6275 -0.4166  0.0461
  682MOL0     C94024   1.718  10.817   5.499 -0.0607 -0.6472 -0.9256
  682MOL0     C94025   1.745  10.819   5.638 -0.0673 -0.3163 -0.7786
  682MOL0     O94026   1.735  10.609   5.844 -0.3542  0.0943  0.2093
  682MOL0     C94027   1.868  10.833   6.091 -0.0077  0.3297  0.3694
  682MOL0     C94028   1.885  10.857   6.222  0.1366 -0.2153  0.0744
  682MOL0     N94029   1.540  11.164   6.885  1.0676 -0.0923  0.3046
  682MOL0     N94030   1.603  11.143   6.995 -0.1683 -0.2434  0.3341
  682MOL0     C94031   1.961  10.048   6.787 -0.1456 -0.9110  0.4202
  682MOL0     C94032   1.933   9.911   6.768 -0.0896 -0.5196 -0.1329
  682MOL0     C94033   1.778   9.504   6.857 -0.1563  0.0147  0.6042
  682MOL0     C94034   1.752   9.453   6.729 -1.0542  0.1179  0.3485
  682MOL0     C94035   1.786   9.316   6.713  0.1317 -0.4747 -0.0964
  682MOL0     C94036   1.848   9.235   6.806  0.1357 -0.0290 -0.6699
  682MOL0     O94037   1.872   9.109   6.766  0.3683  0.2480  0.2601
  682MOL0     C94038   1.914   9.021   6.870  0.3586 -0.1233 -0.9101
  682MOL0     C94039   1.929   8.878   6.811 -0.8527 -1.0021 -0.7287
  682MOL0     C94040   1.798   8.794   6.825 -0.2392 -0.8985  0.8271
  682MOL0     C94041   1.820   8.655   6.796 -0.4108 -0.0665 -0.7565
  682MOL0     C94042   1.696   8.585   6.791  0.4781  0.9917  0.3343
  682MOL0     C94043   1.595   8.526   6.772  0.2380 -0.8461 -1.0465
  682MOL0     C94044   1.851   9.290   6.938 -0.4991  0.8835  0.6126
  682MOL0     C94045   1.824   9.417   6.969  0.6116  0.2493 -0.5160
  682MOL0     C94046   1.854   9.467   7.112 -0.9304 -0.9309  0.3222
  682MOL0     H94047   1.631   9.909   6.880 -1.2255  0.5910 -1.8592
  682MOL0     H94048   1.667  10.143   6.900 -0.9685 -0.5351 -0.5707
  682MOL0     H94049   2.087  10.322   6.846  1.8695  1.2736  1.7429
  682MOL0     H94050   2.050  10.193   6.971  0.4575  0.1678 -1.0682
  682MOL0     H94051   2.125  10.414   7.072 -0.5782 -1.1996 -1.5800
  682MOL0     H94052   2.016  10.510   6.972 -0.7438  0.3473 -1.4487
  682MOL0     H94053   1.824  10.382   7.106  0.7101  0.8277  0.1945
  682MOL0     H94054   1.957  10.332   7.209 -2.5553 -0.6279 -0.1150
  682MOL0     H94055   1.825  10.543   7.277  0.6376  3.5845  0.1221
  682MOL0     H94056   1.994  10.545   7.283 -0.5786 -1.3515  0.2299
  682MOL0     H94057   1.969  10.699   7.061  0.2961 -1.3377  1.0567
  682MOL0     H94058   1.899  10.754   7.204 -1.5546  0.8945 -1.8531
  682MOL0     H94059   1.757  10.712   6.957 -1.9450  2.7053  0.2266
  682MOL0     H94060   1.700  10.596   7.072  3.1297 -1.9024 -1.6679
  682MOL0     H94061   1.643  10.771   7.232 -0.6086 -0.6145 -0.0928
  682MOL0     H94062   1.551  10.788   7.100 -0.0452  1.6887 -0.5378
  682MOL0     H94063   1.659  10.982   7.215 -1.3159 -0.9105  0.4919
  682MOL0     H94064   1.809  10.948   7.130  0.1361  0.5736  3.4307
  682MOL0     H94065   1.602  10.845   6.856 -1.4011 -2.0051  5.0372
  682MOL0     H94066   1.440  11.157   6.656 -4.9567 -0.9190  1.5361
  682MOL0     H94067   1.372  10.996   6.681  0.7997 -1.6442  0.2214
  682MOL0     H94068   1.564  10.890   6.592  2.0280  0.3682 -1.6779
  682MOL0     H94069   1.490  10.995   6.475 -1.0294 -0.4990  0.8438
  682MOL0     H94070   1.665  11.168   6.546 -2.4017  0.2153 -0.3122
  682MOL0     H94071   1.746  11.039   6.638 -2.4279  0.2924  2.0004
  682MOL0     H94072   1.697  11.049   6.340 -1.3248 -1.1446 -0.5821
  682MOL0     H94073   1.855  11.068   6.423 -0.7306  0.9159 -0.1730
  682MOL0     H94074   1.619  10.697   6.343  1.9422 -1.1445  0.8869
  682MOL0     H94075   1.611  10.495   6.056  2.0343 -1.0314  3.6966
  682MOL0     H94076   1.496  10.639   6.056  2.1285  0.8494 -2.3535
  682MOL0     H94077   1.557  10.534   6.199 -2.1744 -1.0331 -0.9652
  682MOL0     H94078   2.073  10.722   5.626  0.6416 -0.9104 -0.9991
  682MOL0     H94079   2.018  10.734   5.389  1.0476  3.6787  0.4725
  682MOL0     H94080   1.843  10.987   5.295  2.5636 -0.9821 -1.0724
  682MOL0     H94081   1.859  10.923   5.137  0.1730 -1.2911  0.3282
  682MOL0     H94082   1.576  10.932   5.257 -0.6269  0.3247 -0.2474
  682MOL0     H94083   1.648  11.054   5.160 -1.6941 -0.4300 -0.4834
  682MOL0     H94084   1.645  10.763   5.056 -1.4276 -0.3093  0.2578
  682MOL0     H94085   1.661  10.913   4.965 -1.2158 -1.3473 -0.3695
  682MOL0     H94086   1.429  10.976   5.047 -0.4759 -0.3954 -3.5353
  682MOL0     H94087   1.434  10.822   5.128 -1.3734 -1.4618 -0.4299
  682MOL0     H94088   1.452  10.870   4.829  3.8864  4.2409  4.5580
  682MOL0     H94089   1.464  10.703   4.900 -0.9387 -1.3719  1.3874
  682MOL0     H94090   1.222  10.888   4.920  1.5450  1.2266  1.5786
  682MOL0     H94091   1.236  10.727   4.996 -1.4940  2.5004  1.8043
  682MOL0     H94092   1.263  10.622   4.762 -3.0863 -1.6542 -0.4187
  682MOL0     H94093   1.265  10.772   4.693  1.9198 -0.2302  0.7984
  682MOL0     H94094   1.011  10.639   4.780 -0.7486  0.3402  2.6326
  682MOL0     H94095   1.052  10.729   4.634  0.1119  1.3299  0.2108
  682MOL0     H94096   1.626  10.862   5.463  0.4099  0.3710 -0.9148
  682MOL0     H94097   1.667  10.847   5.707  1.1184  2.5233 -0.4702
  682MOL0     H94098   1.924  10.888   6.015 -1.7486 -2.2491 -3.0352
  682MOL0     H94099   1.955  10.926   6.267 -0.1825  0.6662 -0.7582
  682MOL0     H94100   2.059  10.076   6.749  0.2417 -1.0668  1.2772
  682MOL0     H94101   2.007   9.842   6.728 -3.5442 -2.8087 -3.2161
  682MOL0     H94102   1.721   9.511   6.643  1.6247 -2.0179 -2.2365
  682MOL0     H94103   1.761   9.259   6.623  1.6781 -1.0893 -0.1650
  682MOL0     H94104   2.007   9.051   6.917 -1.7586  1.0528  2.9369
  682MOL0     H94105   1.841   9.017   6.951  0.7104 -1.5886 -0.6228
  682MOL0     H94106   2.016   8.819   6.840 -0.0190  0.2680 -0.5635
  682MOL0     H94107   1.930   8.896   6.704 -1.1018 -1.3780 -0.7987
  682MOL0     H94108   1.759   8.794   6.928 -0.2316  0.2328  0.8485
  682MOL0     H94109   1.717   8.823   6.758 -2.1399 -4.2008  1.4599
  682MOL0     H94110   1.878   8.614   6.879 -0.0306  1.8735  0.0012
  682MOL0     H94111   1.875   8.649   6.701  0.1492  1.8137 -0.5895
  682MOL0     H94112   1.511   8.459   6.769 -2.9797  2.8945 -1.6931
  682MOL0     H94113   1.904   9.228   7.010  1.2264  1.4247 -0.1500
  682MOL0     H94114   1.895   9.387   7.174 -1.6466 -1.4902  0.0931
  682MOL0     H94115   1.922   9.552   7.099  0.2849 -1.5294  2.3795
  682MOL0     H94116   1.756   9.496   7.150 -1.4799 -2.6044  0.2562
  683MOL0     O94117   5.822   9.816   5.449 -0.0848 -0.3248 -0.0210
  683MOL0     C94118   5.889   9.860   5.546  0.0600  0.4082  0.9212
  683MOL0     O94119   5.835   9.915   5.654 -0.4359 -0.5899  0.4199
  683MOL0     C94120   5.699   9.954   5.656  0.6262 -0.0053 -0.5641
  683MOL0     C94121   5.641  10.079   5.693 -0.3036 -0.2089  0.0025
  683MOL0     C94122   5.502  10.095   5.676  0.1318 -0.0285 -0.0808
  683MOL0     C94123   5.419   9.981   5.637 -0.5651 -0.8137 -0.5644
  683MOL0     O94124   5.286   9.996   5.622 -0.4964  0.3557  1.2063
  683MOL0     C94125   5.213   9.976   5.732 -0.7293  0.2726  0.2967
  683MOL0     C94126   5.080   9.923   5.689  0.6385  0.3282 -0.8878
  683MOL0     C94127   4.969   9.920   5.795  1.1669  0.4335  0.1086
  683MOL0     C94128   4.851   9.831   5.739  0.2629 -0.4268 -0.6003
  683MOL0     C94129   4.755   9.810   5.858  0.0422  0.5396  0.1885
  683MOL0     C94130   4.630   9.747   5.800 -0.6258  0.6317  0.1699
  683MOL0     C94131   4.533   9.698   5.907 -0.3423  0.6530  0.0373
  683MOL0     C94132   4.419   9.632   5.832  0.4062  0.1329  0.4990
  683MOL0     N94133   4.340   9.730   5.759 -0.4974  0.8050 -0.7141
  683MOL0     C94134   4.285   9.711   5.635 -0.2175  0.0413 -1.2341
  683MOL0     C94135   4.205   9.819   5.612 -0.2092 -0.6658  0.3694
  683MOL0     C94136   4.124   9.841   5.498 -0.0407 -0.0973  0.8850
  683MOL0     C94137   4.134   9.971   5.414 -0.4734 -0.5304  0.4190
  683MOL0     C94138   4.117  10.100   5.488 -0.6830 -0.8368  0.0232
  683MOL0     C94139   4.184  10.218   5.415  0.7091  0.1354 -0.3752
  683MOL0     O94140   4.088  10.294   5.334 -1.2812  0.2977 -0.9519
  683MOL0     C94141   4.066  10.253   5.209  0.1077 -0.2295  0.4083
  683MOL0     C94142   4.160  10.269   5.109 -0.3462 -0.5974  0.1098
  683MOL0     C94143   4.135  10.254   4.978 -0.0459  0.3050  0.1867
  683MOL0     C94144   4.247  10.266   4.882  0.0472 -0.2881  0.4015
  683MOL0     C94145   3.999  10.218   4.941 -0.3762 -0.2290  0.5610
  683MOL0     C94146   3.964  10.215   4.792 -0.3403  0.8545 -0.6008
  683MOL0     O94147   3.833  10.172   4.778 -0.3807 -0.1458 -0.7227
  683MOL0     C94148   3.765  10.174   4.659 -1.0919  0.0368  0.1620
  683MOL0     C94149   3.816  10.127   4.536 -0.5599  0.3694 -0.0608
  683MOL0     C94150   3.752  10.129   4.411 -0.5497 -0.2830 -0.1018
  683MOL0     C94151   3.620  10.167   4.412  0.8413  0.0618  0.8207
  683MOL0     O94152   3.553  10.162   4.295  0.1533  0.2847  0.0354
  683MOL0     C94153   3.412  10.185   4.296  0.1894 -0.3909 -0.5250
  683MOL0     C94154   3.357  10.120   4.171  0.0696 -0.1514  0.4978
  683MOL0     C94155   3.391  10.211   4.055  0.7984  0.2502  1.0820
  683MOL0     C94156   3.348  10.147   3.916  0.8057 -0.1212 -0.4282
  683MOL0     C94157   3.445  10.029   3.880  0.2846 -0.2476 -0.3294
  683MOL0     C94158   3.428   9.993   3.736 -0.1483  0.3774  0.5588
  683MOL0     C94159   3.483   9.858   3.717 -0.1566  0.2121 -0.6823
  683MOL0     C94160   3.516   9.841   3.567 -0.3346  0.5133 -0.2441
  683MOL0    Cl94161   3.593   9.687   3.539 -0.1097 -0.0012 -0.1942
  683MOL0     C94162   3.562  10.200   4.535 -0.7355 -0.3067  0.4663
  683MOL0     C94163   3.631  10.204   4.659  0.1657 -0.5002 -0.3783
  683MOL0     O94164   4.048  10.214   4.704  0.8228 -0.2598  0.8537
  683MOL0     C94165   3.900  10.220   5.042 -0.5979  0.2769  0.0245
  683MOL0     C94166   3.927  10.240   5.173 -0.1359  1.1557  0.2230
  683MOL0     N94167   4.199   9.898   5.724  0.5997  0.6301 -0.2554
  683MOL0     N94168   4.278   9.841   5.811  0.3743 -0.5091 -0.0195
  683MOL0     C94169   5.471   9.853   5.631  0.2533  0.3078  0.4861
  683MOL0     C94170   5.610   9.842   5.643  0.7012 -0.0071  0.9488
  683MOL0     C94171   6.037   9.831   5.546 -0.0532 -0.1925  0.1414
  683MOL0     C94172   6.077   9.699   5.525  0.0578  0.2262 -0.9062
  683MOL0     C94173   6.210   9.658   5.539 -0.4319  0.7255  0.1618
  683MOL0     C94174   6.308   9.747   5.566  0.3013 -0.9379 -0.3689
  683MOL0     O94175   6.449   9.722   5.580 -0.8630 -0.0759  0.0298
  683MOL0     C94176   6.496   9.585   5.574  0.3135  0.1117  0.0225
  683MOL0     C94177   6.643   9.580   5.564 -0.2798 -0.0782 -0.0674
  683MOL0     C94178   6.697   9.438   5.530  1.1727 -0.5464  0.3506
  683MOL0     C94179   6.848   9.453   5.540  0.5566  0.8562 -0.7994
  683MOL0     C94180   6.915   9.320   5.530 -0.7454 -1.2122  0.4766
  683MOL0     C94181   6.984   9.225   5.541 -0.0339 -0.3425 -0.0768
  683MOL0     C94182   6.269   9.877   5.597 -0.1454 -0.4634  0.2508
  683MOL0     C94183   6.135   9.926   5.574 -0.2800 -1.3356  0.1943
  683MOL0     C94184   6.115  10.077   5.589  0.2130 -0.2614 -0.5617
  683MOL0     H94185   5.692  10.164   5.736 -2.6247  0.2998  1.9926
  683MOL0     H94186   5.457  10.189   5.706 -0.3502  0.0501 -1.0063
  683MOL0     H94187   5.198  10.068   5.789  0.9090 -0.4671  2.0187
  683MOL0     H94188   5.252   9.905   5.806 -1.0040 -1.5337 -1.2159
  683MOL0     H94189   5.052   9.978   5.599  1.9764  2.7993  0.1328
  683MOL0     H94190   5.097   9.817   5.669  0.5265  0.6857 -3.1478
  683MOL0     H94191   5.013   9.859   5.875 -1.1548 -1.8660 -0.2158
  683MOL0     H94192   4.936  10.019   5.827 -0.3765  0.2194 -0.7282
  683MOL0     H94193   4.799   9.876   5.655  4.2091 -0.3531 -3.2474
  683MOL0     H94194   4.894   9.735   5.707  0.3627 -0.8040  0.5896
  683MOL0     H94195   4.738   9.907   5.907  4.7579  0.7612  1.9303
  683MOL0     H94196   4.800   9.743   5.932 -1.1140 -0.8185 -0.3096
  683MOL0     H94197   4.586   9.818   5.730 -1.1968  0.9532  0.8446
  683MOL0     H94198   4.661   9.661   5.740  0.1036 -0.1723  1.6409
  683MOL0     H94199   4.485   9.789   5.944 -2.5182  0.0302 -1.1273
  683MOL0     H94200   4.579   9.633   5.982 -0.7377 -1.0782 -1.1799
  683MOL0     H94201   4.466   9.561   5.764  2.0229  0.6921  0.9850
  683MOL0     H94202   4.353   9.582   5.903 -1.8374 -0.2927 -1.7709
  683MOL0     H94203   4.293   9.618   5.579 -0.2212 -1.8499  1.6913
  683MOL0     H94204   4.017   9.833   5.520 -0.9387  0.0046 -2.8211
  683MOL0     H94205   4.153   9.767   5.424  1.1381  0.6554  0.5653
  683MOL0     H94206   4.240   9.982   5.392  0.0280  1.8024  3.3257
  683MOL0     H94207   4.078   9.975   5.320  0.7626  0.6392 -0.2960
  683MOL0     H94208   4.015  10.127   5.514 -0.1740 -0.0377  1.2444
  683MOL0     H94209   4.176  10.094   5.580  0.8712 -1.5808 -0.9677
  683MOL0     H94210   4.226  10.284   5.492  1.3210 -1.8430  1.0877
  683MOL0     H94211   4.274  10.183   5.362 -0.1038 -2.0322 -0.4309
  683MOL0     H94212   4.260  10.296   5.142 -1.0603  1.3967  0.8034
  683MOL0     H94213   4.275  10.161   4.864 -0.9449 -0.1968 -2.0941
  683MOL0     H94214   4.332  10.307   4.936  0.4115 -1.1595  0.5190
  683MOL0     H94215   4.233  10.335   4.798 -0.9066 -0.3241  0.5194
  683MOL0     H94216   3.914  10.081   4.528  0.2241  1.3127  2.7991
  683MOL0     H94217   3.786  10.093   4.314  3.3501 -0.0966  1.0274
  683MOL0     H94218   3.360  10.141   4.381 -1.8890  0.8107 -1.1085
  683MOL0     H94219   3.392  10.292   4.292 -0.7330 -0.5937 -3.0008
  683MOL0     H94220   3.386  10.015   4.158 -3.2446 -1.2224  0.7577
  683MOL0     H94221   3.248  10.114   4.174  0.1061 -2.1154 -0.2737
  683MOL0     H94222   3.499  10.224   4.047  0.6365  0.3490 -3.8904
  683MOL0     H94223   3.353  10.313   4.064 -4.2060 -0.8481 -2.9499
  683MOL0     H94224   3.361  10.231   3.847 -1.0899 -1.6231 -2.8195
  683MOL0     H94225   3.245  10.110   3.923  0.0681  2.1585  2.5814
  683MOL0     H94226   3.547  10.060   3.903 -0.1197 -0.2949  1.7273
  683MOL0     H94227   3.417   9.953   3.954 -2.5459 -0.2361 -1.2866
  683MOL0     H94228   3.489  10.065   3.681  2.8574  0.5992  3.8894
  683MOL0     H94229   3.324  10.009   3.705  0.1173  2.7389  0.6547
  683MOL0     H94230   3.404   9.785   3.739 -0.9690  1.2492 -0.0842
  683MOL0     H94231   3.571   9.844   3.781  0.4300 -1.1865 -1.7445
  683MOL0     H94232   3.572   9.926   3.528  0.3782 -0.8293 -2.3406
  683MOL0     H94233   3.430   9.846   3.500  1.3246  1.3659 -2.4766
  683MOL0     H94234   3.459  10.232   4.549 -0.1495  1.9294  0.0053
  683MOL0     H94235   3.578  10.225   4.751 -2.3093  0.9878 -2.0282
  683MOL0     H94236   3.798  10.193   5.017 -0.5111 -0.8224  0.7956
  683MOL0     H94237   3.848  10.237   5.247 -0.2268  3.8383  0.3492
  683MOL0     H94238   5.402   9.775   5.603  3.0008 -2.7838  1.6480
  683MOL0     H94239   5.654   9.744   5.627  0.3670 -0.4382  2.5374
  683MOL0     H94240   6.003   9.620   5.513 -2.1901  2.0195  0.3067
  683MOL0     H94241   6.233   9.555   5.514  0.7443  1.3004 -1.3281
  683MOL0     H94242   6.466   9.531   5.665  0.2528  1.0316  0.5610
  683MOL0     H94243   6.448   9.536   5.489  0.5451  0.5842 -0.3806
  683MOL0     H94244   6.693   9.630   5.648 -2.9385  1.4456  0.7379
  683MOL0     H94245   6.654   9.637   5.472 -4.6898  0.2768 -0.5757
  683MOL0     H94246   6.670   9.357   5.597  2.7844  0.5873  2.5054
  683MOL0     H94247   6.669   9.411   5.428 -0.6066  1.8246  0.1106
  683MOL0     H94248   6.872   9.491   5.640 -0.1783 -1.3581  0.3016
  683MOL0     H94249   6.891   9.517   5.463  1.7998 -1.8285 -2.4974
  683MOL0     H94250   7.049   9.143   5.562  0.1338 -0.2655 -0.2988
  683MOL0     H94251   6.345   9.950   5.625 -2.6645  2.6925 -0.4521
  683MOL0     H94252   6.092  10.120   5.491  0.5722 -1.9030 -1.4051
  683MOL0     H94253   6.028  10.090   5.654  0.6100 -0.9069  0.1172
  683MOL0     H94254   6.199  10.134   5.629 -1.2180  0.3151  1.8202
  684MOL0     O94255   3.570   0.015   3.073  0.2646 -0.9095  0.0054
  684MOL0     C94256   3.676  -0.014   3.023 -0.0907  0.6978  1.0166
  684MOL0     O94257   3.758  -0.109   3.073 -1.2294 -0.2243  0.5776
  684MOL0     C94258   3.719  -0.179   3.183 -0.4743  0.1978 -0.8812
  684MOL0     C94259   3.674  -0.316   3.184 -0.1193  0.0551 -0.1483
  684MOL0     C94260   3.642  -0.375   3.308  0.0234 -0.2547  0.3025
  684MOL0     C94261   3.648  -0.301   3.424 -0.0769 -0.2380 -0.1008
  684MOL0     O94262   3.609  -0.365   3.544  0.0359  0.0240  0.2533
  684MOL0     C94263   3.602  -0.303   3.667  0.4243  0.6527 -0.5930
  684MOL0     C94264   3.578  -0.400   3.795 -0.1273 -0.7133 -1.2299
  684MOL0     C94265   3.525  -0.541   3.760  0.0365  0.0866 -0.0405
  684MOL0     C94266   3.374  -0.564   3.728  0.4457 -0.0238  0.6556
  684MOL0     C94267   3.341  -0.708   3.695  0.4101 -0.0878  0.5450
  684MOL0     C94268   3.396  -0.779   3.565  0.1715 -0.2963  0.8969
  684MOL0     C94269   3.315  -0.723   3.440 -0.5463  0.6455  0.6099
  684MOL0     C94270   3.379  -0.756   3.307 -0.3605 -0.3502  0.0666
  684MOL0     N94271   3.305  -0.682   3.200 -0.0547  0.8401  0.0407
  684MOL0     C94272   3.322  -0.549   3.178 -0.9540 -0.3780 -0.4302
  684MOL0     C94273   3.253  -0.526   3.067  0.5054 -0.8253 -0.9432
  684MOL0     C94274   3.237  -0.399   2.991  0.0523  0.0305 -0.1027
  684MOL0     C94275   3.364  -0.304   2.972  0.6393 -0.6636 -0.2859
  684MOL0     C94276   3.379  -0.252   2.833  0.1490 -0.0030  0.3892
  684MOL0     C94277   3.309  -0.115   2.818 -0.7539  0.2008 -0.1853
  684MOL0     O94278   3.169  -0.124   2.849  0.0698  0.5691 -0.6596
  684MOL0     C94279   3.098  -0.009   2.844  1.3360  0.4899  0.8725
  684MOL0     C94280   2.959  -0.021   2.866  0.3578 -0.1652  0.9486
  684MOL0     C94281   2.872   0.099   2.864  1.1510 -0.1585 -0.1264
  684MOL0     C94282   2.728   0.076   2.893 -0.2433  0.0040 -0.7207
  684MOL0     C94283   2.927   0.230   2.836 -0.9452  0.5262 -0.1494
  684MOL0     C94284   2.829   0.359   2.822 -1.0845 -0.1517  0.0802
  684MOL0     O94285   2.695   0.351   2.821 -0.2140 -0.2143 -0.1188
  684MOL0     C94286   2.618   0.459   2.862  0.6990  0.5819  0.5964
  684MOL0     C94287   2.661   0.541   2.960 -0.4533 -0.5178 -0.5909
  684MOL0     C94288   2.576   0.646   3.003  0.4224 -0.0874 -0.1819
  684MOL0     C94289   2.463   0.681   2.932  0.6226 -0.4053 -0.0449
  684MOL0     O94290   2.381   0.786   2.972 -0.2001  0.4064 -0.2804
  684MOL0     C94291   2.296   0.751   3.086  0.7699  0.8951  0.9047
  684MOL0     C94292   2.240   0.873   3.157 -0.1477  0.1371  0.7687
  684MOL0     C94293   2.340   0.953   3.233 -0.2492 -0.6048 -0.2330
  684MOL0     C94294   2.280   1.092   3.275  0.5403  0.6897  0.0755
  684MOL0     C94295   2.382   1.177   3.351 -0.3884 -0.3827 -0.0218
  684MOL0     C94296   2.325   1.309   3.418  1.0503 -0.6378  0.1980
  684MOL0     C94297   2.429   1.384   3.492  0.1062  0.0863 -0.3938
  684MOL0     C94298   2.382   1.506   3.564 -0.0492  0.4824  0.2175
  684MOL0    Cl94299   2.496   1.537   3.702 -0.0875 -0.4680  0.4074
  684MOL0     C94300   2.419   0.587   2.847 -0.1933  0.5016 -0.0428
  684MOL0     C94301   2.488   0.484   2.800 -2.0847 -0.0126  0.8956
  684MOL0     O94302   2.886   0.470   2.812  0.1846  0.4888 -0.4558
  684MOL0     C94303   3.060   0.238   2.824 -0.3184  0.1219  0.7511
  684MOL0     C94304   3.146   0.124   2.820  1.2865 -0.0877 -0.3667
  684MOL0     N94305   3.193  -0.639   3.025 -0.4364 -0.4292 -0.6031
  684MOL0     N94306   3.219  -0.734   3.106  0.1842  0.9390 -0.3121
  684MOL0     C94307   3.681  -0.163   3.417 -0.9621 -0.3782 -0.1910
  684MOL0     C94308   3.717  -0.102   3.296 -0.5975 -0.4062 -0.5675
  684MOL0     C94309   3.709   0.040   2.889  0.1685 -0.3951 -0.3932
  684MOL0     C94310   3.784  -0.046   2.809  0.6893 -0.3946 -0.2247
  684MOL0     C94311   3.832  -0.000   2.687  0.0399 -0.7456 -0.0177
  684MOL0     C94312   3.783   0.118   2.631 -0.3854 -0.6094  0.0926
  684MOL0     O94313   3.811   0.168   2.501 -0.0506  0.2224 -0.6750
  684MOL0     C94314   3.867   0.081   2.400 -0.1161  0.2669  0.5581
  684MOL0     C94315   3.853   0.148   2.268  0.6739  0.8881  0.6377
  684MOL0     C94316   3.968   0.249   2.236 -0.2874 -0.4279 -0.6448
  684MOL0     C94317   3.961   0.302   2.097 -0.2128 -0.3386 -0.6904
  684MOL0     C94318   4.080   0.371   2.040  0.0859  1.2084 -0.5685
  684MOL0     C94319   4.186   0.408   1.995  0.3428 -0.4570 -1.1472
  684MOL0     C94320   3.701   0.193   2.708 -0.0050  0.1692 -0.3085
  684MOL0     C94321   3.667   0.156   2.835 -0.0663  0.0686  0.4043
  684MOL0     C94322   3.575   0.252   2.911 -0.0539 -0.0572  0.6582
  684MOL0     H94323   3.681  -0.370   3.090 -0.0829 -0.4187  0.1210
  684MOL0     H94324   3.618  -0.480   3.320  4.9432 -1.3160  6.1239
  684MOL0     H94325   3.522  -0.231   3.650 -1.1566 -0.9390 -0.2835
  684MOL0     H94326   3.694  -0.247   3.684 -0.2714  1.4636  0.7492
  684MOL0     H94327   3.664  -0.416   3.861 -1.1760 -1.5032 -0.0149
  684MOL0     H94328   3.510  -0.342   3.858 -0.5503 -0.4932 -1.8719
  684MOL0     H94329   3.595  -0.581   3.687 -1.9256 -0.7570 -1.5674
  684MOL0     H94330   3.543  -0.602   3.849 -0.1692  0.7091  0.4353
  684MOL0     H94331   3.303  -0.518   3.797  0.1839  3.9611 -1.9251
  684MOL0     H94332   3.357  -0.518   3.630  4.0841  1.9958  0.7922
  684MOL0     H94333   3.232  -0.714   3.700  0.4027 -0.5221  0.0257
  684MOL0     H94334   3.375  -0.761   3.784  1.4334  1.4837  1.1266
  684MOL0     H94335   3.504  -0.763   3.564  0.5355 -1.6697 -3.1535
  684MOL0     H94336   3.378  -0.886   3.578 -1.9614  0.0106  0.8184
  684MOL0     H94337   3.300  -0.615   3.442 -1.0997  0.6375 -1.4284
  684MOL0     H94338   3.221  -0.779   3.426  1.0836 -1.4616 -3.7214
  684MOL0     H94339   3.477  -0.708   3.304  0.1731 -1.3933  0.4402
  684MOL0     H94340   3.377  -0.862   3.282 -0.0891  0.4587 -4.0112
  684MOL0     H94341   3.393  -0.477   3.217  1.1481 -3.0703  1.0524
  684MOL0     H94342   3.151  -0.346   3.033  0.3009  0.1285  0.2889
  684MOL0     H94343   3.210  -0.441   2.893  3.2718  2.2298 -2.1187
  684MOL0     H94344   3.360  -0.213   3.033  2.2981 -1.1715  0.6543
  684MOL0     H94345   3.453  -0.361   3.001  0.3143 -0.0489  2.1621
  684MOL0     H94346   3.486  -0.241   2.811  0.2552 -0.8224  0.4916
  684MOL0     H94347   3.345  -0.328   2.763  2.7754 -0.3631 -0.6362
  684MOL0     H94348   3.358  -0.050   2.891  0.3885 -2.3115  1.4164
  684MOL0     H94349   3.332  -0.085   2.716  1.4678  3.8146  1.1893
  684MOL0     H94350   2.904  -0.115   2.867  0.7334 -0.4132 -0.0896
  684MOL0     H94351   2.694   0.154   2.962  0.0816 -0.6081  0.1451
  684MOL0     H94352   2.732  -0.012   2.958 -1.8193  0.8689  0.6591
  684MOL0     H94353   2.660   0.054   2.810 -3.5369  1.1578  1.4474
  684MOL0     H94354   2.749   0.525   3.022 -2.3942 -0.6505  2.3228
  684MOL0     H94355   2.602   0.692   3.097  2.9227  2.4442 -1.9386
  684MOL0     H94356   2.214   0.687   3.054 -0.2944  1.4651  2.3896
  684MOL0     H94357   2.343   0.692   3.166  0.7791  0.8040  0.8325
  684MOL0     H94358   2.193   0.937   3.082 -0.6389 -2.6001 -1.4013
  684MOL0     H94359   2.153   0.841   3.216 -1.1794  1.7200  0.1623
  684MOL0     H94360   2.431   0.968   3.175 -0.2946  1.1365  0.0755
  684MOL0     H94361   2.375   0.894   3.318 -0.7588 -0.7380 -0.1135
  684MOL0     H94362   2.195   1.087   3.343 -0.2472  2.1093 -0.7332
  684MOL0     H94363   2.249   1.147   3.185  0.1309 -2.1809 -1.6670
  684MOL0     H94364   2.422   1.124   3.438  2.2744  0.9763 -0.3243
  684MOL0     H94365   2.465   1.198   3.283  0.9795 -2.1429  1.0277
  684MOL0     H94366   2.249   1.287   3.493  0.1335 -0.7933 -0.7485
  684MOL0     H94367   2.274   1.362   3.337  1.5440  1.2932  1.0989
  684MOL0     H94368   2.499   1.421   3.416 -1.0742  0.0681 -1.5388
  684MOL0     H94369   2.469   1.315   3.566 -1.2019 -0.7081 -0.3894
  684MOL0     H94370   2.282   1.486   3.603  0.0620 -0.2561  0.1363
  684MOL0     H94371   2.369   1.588   3.492  0.6865  0.6910  0.3160
  684MOL0     H94372   2.317   0.600   2.810  0.3746 -0.8304 -2.2700
  684MOL0     H94373   2.451   0.425   2.717  1.6481 -0.4710 -0.6610
  684MOL0     H94374   3.098   0.337   2.800  1.6321 -0.5965  0.6936
  684MOL0     H94375   3.251   0.141   2.799  0.9546  0.7004 -1.5328
  684MOL0     H94376   3.695  -0.108   3.509 -0.4551 -5.2410  3.0007
  684MOL0     H94377   3.765  -0.005   3.286 -1.4588 -0.1348 -2.3487
  684MOL0     H94378   3.805  -0.149   2.837  2.1327 -1.2784 -3.9068
  684MOL0     H94379   3.908  -0.057   2.634  2.7456  0.3396  2.4221
  684MOL0     H94380   3.973   0.054   2.413  0.6414  2.2089 -1.0260
  684MOL0     H94381   3.800  -0.005   2.400  1.5157 -1.0841  1.3356
  684MOL0     H94382   3.760   0.205   2.268  0.4834  0.5759  0.5123
  684MOL0     H94383   3.830   0.071   2.195 -4.1420  1.7078  0.9751
  684MOL0     H94384   3.970   0.329   2.311  1.0245  1.3244 -2.4390
  684MOL0     H94385   4.068   0.203   2.242  0.0240 -0.2334 -3.2804
  684MOL0     H94386   3.870   0.360   2.076  1.0514  1.7100 -0.7452
  684MOL0     H94387   3.948   0.211   2.038  2.3821 -2.4404  1.6673
  684MOL0     H94388   4.269   0.469   1.964 -1.5583  1.7795 -2.1935
  684MOL0     H94389   3.657   0.278   2.657  2.4418  1.3367 -0.6132
  684MOL0     H94390   3.570   0.347   2.857 -0.7271 -0.1469  0.5520
  684MOL0     H94391   3.479   0.206   2.934  0.7731 -1.3723  1.6221
  684MOL0     H94392   3.618   0.283   3.006  0.6795 -2.2532  1.1128
  685MOL0     O94393   2.946   7.568   5.551 -0.7992  0.3724 -0.0845
  685MOL0     C94394   2.843   7.616   5.603 -1.2360 -1.2477  0.2815
  685MOL0     O94395   2.723   7.565   5.614  0.3052 -0.3111  0.2823
  685MOL0     C94396   2.702   7.427   5.599 -0.1377  0.1722  0.8218
  685MOL0     C94397   2.749   7.358   5.488 -0.0561 -0.1379  0.3637
  685MOL0     C94398   2.736   7.218   5.462 -0.0879  0.2514  0.5968
  685MOL0     C94399   2.655   7.150   5.558 -0.7079  0.5741 -0.1173
  685MOL0     O94400   2.644   7.013   5.552  0.6391 -0.1295  0.8560
  685MOL0     C94401   2.657   6.931   5.432  0.0077  0.0245 -0.0922
  685MOL0     C94402   2.520   6.915   5.359 -0.2946 -0.2829  0.2243
  685MOL0     C94403   2.408   6.874   5.457  1.1346  0.4198 -0.4412
  685MOL0     C94404   2.436   6.727   5.507 -0.4115  0.4067  0.3390
  685MOL0     C94405   2.311   6.680   5.594 -0.0108  0.0611 -0.0745
  685MOL0     C94406   2.213   6.608   5.498 -0.2668 -0.6846 -1.1054
  685MOL0     C94407   2.072   6.569   5.551  0.6668  0.2526 -0.8469
  685MOL0     C94408   1.987   6.512   5.442  0.1927  0.5421  0.4450
  685MOL0     N94409   1.890   6.603   5.377 -0.4962  1.1038  0.0357
  685MOL0     C94410   1.892   6.738   5.373  0.0966 -1.1150 -0.1817
  685MOL0     C94411   1.774   6.781   5.330  0.3051  1.2191  0.3681
  685MOL0     C94412   1.730   6.923   5.303 -0.2774  0.0913 -0.5955
  685MOL0     C94413   1.779   7.033   5.405 -0.0825 -0.4565  1.1241
  685MOL0     C94414   1.742   7.006   5.548  0.7998  0.0094  0.1281
  685MOL0     C94415   1.595   6.949   5.562 -0.3681  0.8375 -0.9040
  685MOL0     O94416   1.511   7.024   5.479 -0.2203 -0.8381 -0.3178
  685MOL0     C94417   1.380   6.980   5.456  0.2027  1.0292  0.5281
  685MOL0     C94418   1.299   6.914   5.558  0.1296  0.4771 -0.2689
  685MOL0     C94419   1.167   6.883   5.537  0.3332 -0.8386  0.0020
  685MOL0     C94420   1.083   6.851   5.662  0.0377 -0.2378  0.2793
  685MOL0     C94421   1.106   6.910   5.416 -0.1983  0.4315  0.0574
  685MOL0     C94422   0.954   6.902   5.395 -0.5589 -0.3778  0.2361
  685MOL0     O94423   0.930   6.900   5.253  0.9638  0.1079  0.2536
  685MOL0     C94424   0.804   6.877   5.206 -0.0023 -0.9205 -0.4244
  685MOL0     C94425   0.734   6.963   5.143 -0.3884  0.2399 -0.6925
  685MOL0     C94426   0.598   6.936   5.106 -0.0377 -0.1654  0.5250
  685MOL0     C94427   0.543   6.814   5.119  0.1607 -0.1509  0.2846
  685MOL0     O94428   0.428   6.779   5.067  0.2059 -0.0772  0.8503
  685MOL0     C94429   0.409   6.809   4.928  0.2521  0.3506  0.8943
  685MOL0     C94430   0.310   6.705   4.870  0.1935 -0.8584  0.3481
  685MOL0     C94431   0.372   6.576   4.837 -0.9016  0.8404  0.8019
  685MOL0     C94432   0.392   6.502   4.961 -0.0914  0.3894 -0.7043
  685MOL0     C94433   0.432   6.351   4.924 -0.3158  0.3207  0.1638
  685MOL0     C94434   0.463   6.285   5.047  0.2238  0.1486 -0.3452
  685MOL0     C94435   0.549   6.163   5.017  0.4264 -0.6147  0.3891
  685MOL0     C94436   0.687   6.221   4.992  0.4661  1.5724  0.5501
  685MOL0    Cl94437   0.783   6.263   5.137 -0.7707 -0.1751 -0.6272
  685MOL0     C94438   0.619   6.714   5.184 -0.3204 -0.4904  0.1967
  685MOL0     C94439   0.742   6.753   5.233 -0.7263 -0.2499  0.3781
  685MOL0     O94440   0.870   6.882   5.488 -0.5389  0.9500  0.0727
  685MOL0     C94441   1.180   6.977   5.322 -0.2127 -0.7940  0.6679
  685MOL0     C94442   1.311   7.008   5.339  0.2605 -0.2886  0.6332
  685MOL0     N94443   1.691   6.670   5.315  0.6914 -0.5011  0.2087
  685MOL0     N94444   1.757   6.563   5.362  0.3370 -0.7504 -0.0320
  685MOL0     C94445   2.598   7.216   5.670  1.1395  0.1771 -0.4518
  685MOL0     C94446   2.621   7.356   5.686  0.2796  0.0262 -0.9086
  685MOL0     C94447   2.842   7.763   5.628 -0.1081  0.1265  0.0898
  685MOL0     C94448   2.919   7.853   5.539  0.2219  0.4218 -0.3365
  685MOL0     C94449   2.898   7.986   5.550 -0.2686  1.1557  0.5479
  685MOL0     C94450   2.824   8.041   5.652 -0.1264  0.6005  0.7008
  685MOL0     O94451   2.807   8.175   5.663 -0.0647 -0.0375  0.6175
  685MOL0     C94452   2.894   8.275   5.592 -0.0330 -0.9192  1.3222
  685MOL0     C94453   2.879   8.416   5.650 -0.0803 -0.0617  0.5668
  685MOL0     C94454   2.749   8.483   5.634 -0.6113  1.4641  0.7826
  685MOL0     C94455   2.759   8.633   5.616 -0.8674 -0.2649 -0.8316
  685MOL0     C94456   2.623   8.680   5.586 -0.4217  0.5214  0.1261
  685MOL0     C94457   2.524   8.734   5.564 -0.2094 -1.3006 -0.1640
  685MOL0     C94458   2.761   7.957   5.749  0.7257  0.3195  0.5365
  685MOL0     C94459   2.765   7.816   5.725  0.6454  0.2208 -0.7194
  685MOL0     C94460   2.700   7.745   5.829  0.0102  0.1563 -0.1807
  685MOL0     H94461   2.821   7.407   5.423 -1.3869  3.4770  1.3954
  685MOL0     H94462   2.778   7.171   5.374 -1.0413 -0.0240  0.2787
  685MOL0     H94463   2.693   6.833   5.465 -1.3328  0.0727  1.6964
  685MOL0     H94464   2.727   6.977   5.362 -3.2800  0.7262 -3.2272
  685MOL0     H94465   2.504   7.010   5.307 -0.9076 -0.6056 -0.1966
  685MOL0     H94466   2.527   6.836   5.283 -1.6873  0.0233 -0.2535
  685MOL0     H94467   2.395   6.953   5.532 -0.6967  1.0563 -1.3500
  685MOL0     H94468   2.313   6.868   5.404  0.6183 -2.2239  0.6229
  685MOL0     H94469   2.460   6.660   5.424 -1.2335  1.4976 -0.8154
  685MOL0     H94470   2.529   6.726   5.566 -1.6298  3.0300  2.5324
  685MOL0     H94471   2.263   6.762   5.648 -0.9172 -0.3703 -0.2094
  685MOL0     H94472   2.353   6.612   5.670  3.0980  0.3410 -1.3825
  685MOL0     H94473   2.190   6.655   5.402  0.1363 -1.0087 -1.3651
  685MOL0     H94474   2.269   6.520   5.465  2.5198  1.3418 -2.2468
  685MOL0     H94475   2.025   6.656   5.598 -0.5604 -1.8890  2.2191
  685MOL0     H94476   2.074   6.493   5.630 -2.7881 -1.0276 -1.7743
  685MOL0     H94477   2.034   6.464   5.355 -1.3375  0.4070 -0.3343
  685MOL0     H94478   1.942   6.423   5.488 -2.0838  0.2951 -2.0095
  685MOL0     H94479   1.987   6.787   5.389 -0.2464 -0.5262  0.0645
  685MOL0     H94480   1.621   6.921   5.296 -0.2757 -1.5567 -0.5840
  685MOL0     H94481   1.760   6.954   5.202 -1.5337 -2.9211 -2.0192
  685MOL0     H94482   1.887   7.049   5.395 -0.6382  2.9025 -1.1576
  685MOL0     H94483   1.735   7.125   5.366  2.4100 -0.6083 -2.4344
  685MOL0     H94484   1.813   6.933   5.588 -0.8918 -1.7455  0.1059
  685MOL0     H94485   1.751   7.092   5.615  0.3543  1.5789 -1.7471
  685MOL0     H94486   1.591   6.841   5.544 -1.9828  0.8633 -0.7961
  685MOL0     H94487   1.572   6.964   5.667 -2.1319 -1.7728 -0.8158
  685MOL0     H94488   1.346   6.876   5.649 -3.3036 -3.4344  0.1479
  685MOL0     H94489   1.144   6.864   5.752 -1.7074  1.8360  1.2456
  685MOL0     H94490   1.044   6.749   5.662  1.2124 -0.7291  1.9461
  685MOL0     H94491   1.007   6.927   5.678  0.6390  1.1746 -2.7758
  685MOL0     H94492   0.788   7.056   5.127 -0.2627  0.4219  0.6243
  685MOL0     H94493   0.540   7.013   5.056  0.3929 -2.2671 -3.6186
  685MOL0     H94494   0.369   6.911   4.926 -2.0065 -0.4860  0.9267
  685MOL0     H94495   0.503   6.808   4.872  0.6957  0.0099  1.6358
  685MOL0     H94496   0.234   6.698   4.948  0.3127 -0.8875  0.4618
  685MOL0     H94497   0.261   6.742   4.779  0.7121 -0.7185  0.1211
  685MOL0     H94498   0.460   6.576   4.773 -3.5932  0.8352 -3.2081
  685MOL0     H94499   0.294   6.518   4.788 -0.0075 -1.4571  1.9228
  685MOL0     H94500   0.299   6.496   5.019 -0.9614  1.0099 -1.9833
  685MOL0     H94501   0.481   6.545   5.007 -0.1906 -0.4933  0.3611
  685MOL0     H94502   0.350   6.298   4.875  1.5721 -2.4827 -0.1595
  685MOL0     H94503   0.513   6.344   4.851  0.1539  0.5420  0.6540
  685MOL0     H94504   0.366   6.257   5.090  1.1766 -1.9316  0.5962
  685MOL0     H94505   0.516   6.358   5.109  0.2206 -0.2682  0.1565
  685MOL0     H94506   0.495   6.106   4.941 -3.1770  1.0683  1.4930
  685MOL0     H94507   0.556   6.094   5.102  0.6650 -1.3988 -0.2590
  685MOL0     H94508   0.697   6.295   4.913  1.6651 -0.8316 -1.6680
  685MOL0     H94509   0.739   6.134   4.952  1.8100  1.0732  3.1397
  685MOL0     H94510   0.581   6.613   5.200  0.0428 -0.6724 -0.0880
  685MOL0     H94511   0.812   6.692   5.290 -1.6752 -0.2753  1.5543
  685MOL0     H94512   1.129   7.001   5.229 -0.3348 -0.9042  0.7067
  685MOL0     H94513   1.362   7.068   5.264  0.4585  2.2176  2.6370
  685MOL0     H94514   2.539   7.151   5.734  1.1366  0.5657 -0.0566
  685MOL0     H94515   2.583   7.406   5.774  0.5666 -0.0481 -0.7422
  685MOL0     H94516   2.990   7.813   5.467 -1.8155 -0.6175 -1.8534
  685MOL0     H94517   2.942   8.051   5.474 -4.5678  1.8591 -1.6583
  685MOL0     H94518   3.001   8.256   5.579  0.5453  2.8591 -0.8866
  685MOL0     H94519   2.854   8.282   5.490 -0.7539  0.5703  1.6748
  685MOL0     H94520   2.951   8.478   5.597 -2.0856 -0.2410 -2.6068
  685MOL0     H94521   2.894   8.399   5.758 -0.7649 -1.0715  0.5140
  685MOL0     H94522   2.712   8.435   5.542  2.9082 -1.5025  0.6947
  685MOL0     H94523   2.683   8.457   5.717  0.5948 -2.1227  0.7722
  685MOL0     H94524   2.825   8.658   5.533  1.7334 -0.0474  1.1792
  685MOL0     H94525   2.779   8.703   5.698 -3.4652  0.1160 -0.4450
  685MOL0     H94526   2.429   8.774   5.533  0.5564 -0.7793 -1.9958
  685MOL0     H94527   2.704   8.003   5.829  1.0010  1.7832 -0.0848
  685MOL0     H94528   2.759   7.656   5.848 -0.9407 -1.1523 -2.8281
  685MOL0     H94529   2.706   7.799   5.924 -0.8414 -1.7027  0.9844
  685MOL0     H94530   2.596   7.719   5.807  0.0301 -1.7712  1.6993
  686MOL0     O94531  11.572   5.672  10.359 -0.1136  0.9551 -0.1106
  686MOL0     C94532  11.458   5.715  10.382  0.1349  0.5518 -0.3183
  686MOL0     O94533  11.406   5.832  10.325  0.1097  0.2254  0.6491
  686MOL0     C94534  11.481   5.884  10.225 -0.1665  0.4938 -0.8893
  686MOL0     C94535  11.430   5.897  10.096  0.6081  0.7224  0.1891
  686MOL0     C94536  11.509   5.954   9.995 -0.1444 -0.7087  0.7362
  686MOL0     C94537  11.629   6.019  10.020  0.4831 -0.6759 -0.1210
  686MOL0     O94538  11.682   6.083   9.917 -0.9167 -0.3856  0.5814
  686MOL0     C94539  11.820   6.049   9.897 -0.9622  0.2839  0.8782
  686MOL0     C94540  11.901   6.151   9.809 -0.4954 -0.6135 -0.4529
  686MOL0     C94541  11.837   6.290   9.806  1.2245 -0.9865 -0.6757
  686MOL0     C94542  11.744   6.282   9.679 -0.1424  0.7160  0.2010
  686MOL0     C94543  11.676   6.413   9.651 -0.3624 -0.7683  0.5346
  686MOL0     C94544  11.577   6.408   9.527  0.0901  1.1839  0.1600
  686MOL0     C94545  11.576   6.544   9.457  0.5856 -0.4206 -0.6180
  686MOL0     C94546  11.504   6.522   9.313  0.2750 -0.2524 -0.3784
  686MOL0     N94547  11.480   6.650   9.250  0.9173 -0.5333  0.9595
  686MOL0     C94548  11.567   6.752   9.233  0.5405 -0.4120  0.5410
  686MOL0     C94549  11.528   6.822   9.118  0.0849 -0.8138 -0.0397
  686MOL0     C94550  11.587   6.949   9.074  1.1303  0.4495 -0.9525
  686MOL0     C94551  11.584   6.985   8.925  0.2172 -0.6874 -0.7008
  686MOL0     C94552  11.614   7.145   8.899  0.4544 -0.5159 -0.3313
  686MOL0     C94553  11.597   7.174   8.751 -0.8551  0.0060  0.2806
  686MOL0     O94554  11.716   7.124   8.685  0.2903  0.7820  0.2462
  686MOL0     C94555  11.703   7.073   8.552 -1.0947  0.6803 -0.5552
  686MOL0     C94556  11.784   6.966   8.514  1.1577  0.6886  0.6930
  686MOL0     C94557  11.794   6.915   8.384 -1.3981  0.7085  1.1177
  686MOL0     C94558  11.890   6.798   8.367  0.3717  0.3997 -1.1588
  686MOL0     C94559  11.728   6.984   8.285  0.5469 -0.1175  1.1543
  686MOL0     C94560  11.745   6.963   8.138 -0.7364  0.2032 -0.4637
  686MOL0     O94561  11.639   6.977   8.054 -0.3608  0.0313  0.3406
  686MOL0     C94562  11.666   6.977   7.922 -0.1052 -0.2697 -0.6876
  686MOL0     C94563  11.598   6.876   7.852  0.1586 -0.2556  0.3968
  686MOL0     C94564  11.609   6.865   7.714  0.0784 -0.6251 -0.0744
  686MOL0     C94565  11.702   6.945   7.646 -0.0403  0.6314  0.3656
  686MOL0     O94566  11.715   6.919   7.517 -0.2220 -0.0313 -0.3409
  686MOL0     C94567  11.848   6.939   7.462 -0.2544  0.0606  0.3149
  686MOL0     C94568  11.859   6.828   7.355  0.1174  0.4137  0.2922
  686MOL0     C94569  11.908   6.691   7.400  0.1576  0.4312 -0.1254
  686MOL0     C94570  11.959   6.604   7.281 -0.2098  0.3932 -0.8152
  686MOL0     C94571  11.979   6.457   7.317  1.3739 -0.6286 -0.6323
  686MOL0     C94572  12.001   6.382   7.184 -0.6516  0.9323 -0.1711
  686MOL0     C94573  12.043   6.236   7.189 -0.1395  0.5104 -0.1621
  686MOL0     C94574  11.926   6.143   7.221  0.1703 -0.1140 -0.6421
  686MOL0    Cl94575  11.966   5.971   7.249  0.0065  0.0012  0.4404
  686MOL0     C94576  11.776   7.051   7.709  0.1577  0.3469 -0.2927
  686MOL0     C94577  11.754   7.056   7.849  0.2447  0.0632 -1.5443
  686MOL0     O94578  11.860   6.929   8.102  0.2501 -0.2472  0.4722
  686MOL0     C94579  11.636   7.086   8.327 -0.1699 -0.0995  0.4256
  686MOL0     C94580  11.624   7.127   8.459 -0.6552  0.1329 -0.0307
  686MOL0     N94581  11.403   6.762   9.083 -0.4943  0.4394  0.1322
  686MOL0     N94582  11.383   6.663   9.161 -0.1021  0.0565 -0.0082
  686MOL0     C94583  11.674   6.021  10.156  0.6030  0.4696  0.1970
  686MOL0     C94584  11.595   5.960  10.261  0.8788 -0.6619  0.1428
  686MOL0     C94585  11.357   5.632  10.453  0.1378  0.6056 -0.7543
  686MOL0     C94586  11.228   5.686  10.483  1.1568  0.5394  0.6409
  686MOL0     C94587  11.131   5.612  10.547 -0.5165  0.1600  0.1443
  686MOL0     C94588  11.153   5.481  10.585 -0.6956  1.1629  0.9603
  686MOL0     O94589  11.039   5.435  10.638  0.2766 -0.8430 -0.5850
  686MOL0     C94590  11.000   5.297  10.645 -0.5691 -0.0364 -0.4345
  686MOL0     C94591  10.936   5.281  10.789 -0.3459  0.0876  0.2120
  686MOL0     C94592  10.898   5.134  10.816 -0.5575 -0.0371  0.7279
  686MOL0     C94593  10.748   5.104  10.814 -0.4007 -0.6112  0.0511
  686MOL0     C94594  10.698   5.149  10.681 -0.3644  0.3860 -0.5550
  686MOL0     C94595  10.638   5.177  10.575 -0.2264  0.2423 -0.0234
  686MOL0     C94596  11.272   5.417  10.553  0.6246  0.3907  0.3398
  686MOL0     C94597  11.381   5.493  10.498  0.2936 -0.0033  0.3139
  686MOL0     C94598  11.499   5.416  10.463  0.2683 -0.2159 -0.2746
  686MOL0     H94599  11.336   5.847  10.075  1.9401 -1.6334 -0.6664
  686MOL0     H94600  11.456   5.967   9.901  0.7435 -0.0706  0.3027
  686MOL0     H94601  11.830   5.947   9.859  1.1632  1.2269 -1.3707
  686MOL0     H94602  11.872   6.039   9.993  2.9556 -2.1106 -1.2166
  686MOL0     H94603  12.003   6.155   9.849 -0.6397  0.3633 -0.1554
  686MOL0     H94604  11.905   6.110   9.708 -2.3631  0.7294 -1.1325
  686MOL0     H94605  11.772   6.302   9.893 -0.4056 -4.2060 -1.2737
  686MOL0     H94606  11.906   6.373   9.817  2.3469 -2.1123  1.3918
  686MOL0     H94607  11.794   6.264   9.584 -1.6962 -2.3697 -0.1632
  686MOL0     H94608  11.668   6.204   9.694  2.1077 -2.1666 -2.2128
  686MOL0     H94609  11.762   6.478   9.635  2.7610 -3.5343  4.1980
  686MOL0     H94610  11.607   6.448   9.728 -1.0286 -1.7783  0.4236
  686MOL0     H94611  11.611   6.335   9.453  0.3766 -0.7075  2.0588
  686MOL0     H94612  11.479   6.373   9.560  0.5395 -0.1103  0.1849
  686MOL0     H94613  11.677   6.583   9.445  1.3073 -1.8989  0.4471
  686MOL0     H94614  11.521   6.623   9.510 -1.4747 -1.0505 -1.7113
  686MOL0     H94615  11.572   6.472   9.243 -0.6075 -1.3944 -0.4487
  686MOL0     H94616  11.414   6.465   9.338 -0.4692  1.4849  1.0541
  686MOL0     H94617  11.636   6.787   9.309 -0.8566  0.5124  1.4134
  686MOL0     H94618  11.690   6.950   9.110  0.2213 -0.3441  1.9174
  686MOL0     H94619  11.533   7.023   9.133  0.4883 -0.2130 -0.6998
  686MOL0     H94620  11.667   6.931   8.880 -0.5254 -0.9723 -1.7695
  686MOL0     H94621  11.492   6.945   8.883  0.6572 -0.9216 -1.4491
  686MOL0     H94622  11.534   7.189   8.959 -1.0619 -1.4985 -1.5449
  686MOL0     H94623  11.716   7.173   8.930 -0.2698  2.1147 -0.0770
  686MOL0     H94624  11.514   7.105   8.728 -0.7695 -0.8131  2.2081
  686MOL0     H94625  11.588   7.278   8.720  4.0927 -0.2332 -2.9124
  686MOL0     H94626  11.843   6.918   8.592  1.7653 -1.4175 -0.9755
  686MOL0     H94627  11.986   6.846   8.347 -0.5284  2.6550 -0.3057
  686MOL0     H94628  11.852   6.746   8.278 -1.2903  2.4110 -1.6918
  686MOL0     H94629  11.891   6.749   8.465  0.8001  4.0708  0.8097
  686MOL0     H94630  11.525   6.800   7.880 -0.7619  0.2005 -0.6707
  686MOL0     H94631  11.531   6.805   7.668 -0.9675  0.5638  0.0829
  686MOL0     H94632  11.844   7.038   7.417  0.9609 -0.3016 -0.6603
  686MOL0     H94633  11.930   6.938   7.534  0.9135 -0.8114 -0.9686
  686MOL0     H94634  11.771   6.814   7.291 -1.7025 -0.5227  2.8069
  686MOL0     H94635  11.938   6.859   7.285  0.0985 -1.1377 -0.4586
  686MOL0     H94636  11.820   6.633   7.433 -0.0554  0.3438 -0.8402
  686MOL0     H94637  11.976   6.706   7.485 -1.0709  6.6939  0.1889
  686MOL0     H94638  12.056   6.642   7.249  1.3889 -0.8861  2.1482
  686MOL0     H94639  11.879   6.608   7.206 -0.5156  1.2144 -0.4620
  686MOL0     H94640  12.065   6.453   7.383  1.0466  0.9958 -0.0798
  686MOL0     H94641  11.896   6.414   7.375  1.2634  0.9021  0.3780
  686MOL0     H94642  12.088   6.428   7.137 -0.0895  0.1200  0.0547
  686MOL0     H94643  11.918   6.398   7.114  0.7736  0.3434 -2.1062
  686MOL0     H94644  12.123   6.228   7.263  1.7960  0.1547 -2.1718
  686MOL0     H94645  12.096   6.188   7.106 -0.5620 -0.0719 -0.0993
  686MOL0     H94646  11.854   6.143   7.139  0.3377 -1.0531 -0.8019
  686MOL0     H94647  11.867   6.183   7.304  0.4181  2.3079 -1.5730
  686MOL0     H94648  11.842   7.121   7.658 -2.0784  3.9244  1.3808
  686MOL0     H94649  11.790   7.145   7.898 -3.2924  0.4142  0.8273
  686MOL0     H94650  11.580   7.142   8.252  1.5967 -0.3017 -1.1244
  686MOL0     H94651  11.554   7.207   8.480 -3.4191 -0.9231 -4.0542
  686MOL0     H94652  11.770   6.058  10.190  2.3875 -0.8977 -2.9381
  686MOL0     H94653  11.619   5.962  10.367  0.1397 -3.3764  0.4472
  686MOL0     H94654  11.215   5.792  10.465 -0.1356  0.3454  0.3204
  686MOL0     H94655  11.034   5.659  10.552 -1.4619 -0.8175 -4.2692
  686MOL0     H94656  10.917   5.283  10.576 -2.6473  2.0022  1.4833
  686MOL0     H94657  11.092   5.238  10.640 -0.7329 -0.5386  1.6370
  686MOL0     H94658  10.850   5.345  10.807 -0.9430 -1.1448  2.1531
  686MOL0     H94659  11.017   5.307  10.858 -0.7569 -1.0298  1.1543
  686MOL0     H94660  10.947   5.067  10.745 -1.8208 -0.6103  0.3784
  686MOL0     H94661  10.923   5.106  10.919 -0.4174 -3.7223 -0.1806
  686MOL0     H94662  10.704   5.160  10.897 -1.6875  0.3021 -1.1918
  686MOL0     H94663  10.738   4.996  10.822  1.3169 -0.8643 -0.7732
  686MOL0     H94664  10.579   5.204  10.490  0.6151  1.2714 -0.3071
  686MOL0     H94665  11.275   5.312  10.578 -2.8752 -0.2172 -1.2441
  686MOL0     H94666  11.588   5.448  10.517 -1.4936  1.0665  2.0770
  686MOL0     H94667  11.483   5.313  10.497 -2.7520  0.5049  0.8554
  686MOL0     H94668  11.532   5.422  10.360  3.9926  1.8026  0.8661
  687MOL0     O94669   5.707   9.039  10.556 -0.1788  0.0786 -0.1635
  687MOL0     C94670   5.673   9.116  10.470  0.3029 -0.4699 -0.0164
  687MOL0     O94671   5.560   9.102  10.390 -0.1923 -0.4846 -0.0965
  687MOL0     C94672   5.491   8.987  10.386  0.4073 -0.6443  0.0023
  687MOL0     C94673   5.356   9.007  10.413 -0.1868  0.0487 -0.3176
  687MOL0     C94674   5.257   8.904  10.408 -0.4522  0.3447  0.3298
  687MOL0     C94675   5.303   8.769  10.396  0.8627  0.8399  0.1911
  687MOL0     O94676   5.209   8.666  10.382 -0.0359  0.4103 -0.3805
  687MOL0     C94677   5.189   8.569  10.488 -0.0110 -0.6858 -0.4221
  687MOL0     C94678   5.081   8.610  10.581 -0.2194 -0.6702 -0.2038
  687MOL0     C94679   4.948   8.673  10.517  0.2793 -0.0780 -0.0711
  687MOL0     C94680   4.839   8.682  10.622  0.4051 -0.0434 -0.0751
  687MOL0     C94681   4.723   8.771  10.586 -0.1806 -0.1727  0.5813
  687MOL0     C94682   4.658   8.832  10.703 -0.7724  0.5395  0.4605
  687MOL0     C94683   4.547   8.933  10.667 -0.0283  0.5118 -0.0749
  687MOL0     C94684   4.598   9.070  10.616  0.2354 -0.9408 -0.1687
  687MOL0     N94685   4.500   9.178  10.635 -0.1024 -1.0655  0.8442
  687MOL0     C94686   4.404   9.185  10.731 -0.0949 -0.5857  1.2310
  687MOL0     C94687   4.369   9.311  10.729 -0.8242 -0.4502  0.1409
  687MOL0     C94688   4.280   9.392  10.824 -0.1655  0.5792  0.0369
  687MOL0     C94689   4.322   9.537  10.840 -0.3687  0.0975  0.5692
  687MOL0     C94690   4.237   9.598  10.946 -0.1880  0.5569  0.3060
  687MOL0     C94691   4.258   9.747  10.961 -0.6986  0.8607  0.2797
  687MOL0     O94692   4.205   9.793  11.084  0.1426 -0.0188 -0.5155
  687MOL0     C94693   4.072   9.820  11.097 -0.1313 -0.4317  0.1088
  687MOL0     C94694   3.981   9.845  10.995  0.2605  0.1855 -1.0615
  687MOL0     C94695   3.840   9.858  11.019  0.5580  0.4940  0.6766
  687MOL0     C94696   3.758   9.878  10.890  0.2608 -0.0584  0.7212
  687MOL0     C94697   3.793   9.862  11.156 -0.3435 -1.0495  0.3201
  687MOL0     C94698   3.651   9.904  11.186  0.1218  0.3561 -0.7868
  687MOL0     O94699   3.564   9.937  11.089  0.2878 -0.2359  0.1808
  687MOL0     C94700   3.442   9.981  11.108  1.0675  0.6495  1.1568
  687MOL0     C94701   3.335   9.883  11.097 -0.9599  0.3271 -0.3939
  687MOL0     C94702   3.206   9.929  11.132  0.3548  0.4697  0.3778
  687MOL0     C94703   3.170  10.061  11.150  1.0227  0.2509  0.6924
  687MOL0     O94704   3.045  10.106  11.171  0.7326  0.2516  0.2233
  687MOL0     C94705   2.936  10.028  11.139  0.0733 -0.1039  0.3284
  687MOL0     C94706   2.905  10.000  10.989  0.1456 -0.0831 -1.6214
  687MOL0     C94707   2.779   9.900  10.969  1.0425 -0.7171 -0.5815
  687MOL0     C94708   2.816   9.756  10.983  0.3124 -0.1292  1.1172
  687MOL0     C94709   2.699   9.659  10.970 -0.2573  0.4505  0.0808
  687MOL0     C94710   2.606   9.698  10.850  0.0517 -0.2454  0.0281
  687MOL0     C94711   2.505   9.588  10.822 -0.0709  0.1041 -0.0320
  687MOL0     C94712   2.552   9.470  10.733 -0.0691 -0.4061  0.4011
  687MOL0    Cl94713   2.592   9.531  10.564 -0.1231 -0.5966  0.1084
  687MOL0     C94714   3.281  10.159  11.138 -0.0222  0.0413 -0.0642
  687MOL0     C94715   3.411  10.118  11.114 -0.6807  1.2987 -0.0031
  687MOL0     O94716   3.618   9.896  11.310 -0.2129  0.1065  0.6086
  687MOL0     C94717   3.891   9.845  11.257 -0.4110 -0.4050 -0.4179
  687MOL0     C94718   4.024   9.841  11.221  0.0062  0.0088 -0.3206
  687MOL0     N94719   4.420   9.364  10.613 -0.1498 -0.1783  0.4950
  687MOL0     N94720   4.518   9.288  10.560 -0.4474  0.1828 -0.3690
  687MOL0     C94721   5.439   8.748  10.388 -0.5132  0.8122  0.5109
  687MOL0     C94722   5.529   8.855  10.391 -0.4268 -0.9463 -0.3359
  687MOL0     C94723   5.759   9.239  10.444 -0.3993  0.0477 -0.5552
  687MOL0     C94724   5.706   9.342  10.368  0.0463 -0.3205 -0.9073
  687MOL0     C94725   5.778   9.456  10.334 -0.1534 -0.1164  0.2892
  687MOL0     C94726   5.900   9.477  10.383 -0.5252  0.1431 -0.4339
  687MOL0     O94727   5.963   9.596  10.344  0.5114 -0.1183 -1.0229
  687MOL0     C94728   6.100   9.622  10.394 -0.3866 -0.2136  0.1950
  687MOL0     C94729   6.174   9.737  10.315 -0.2409  0.6250  0.4201
  687MOL0     C94730   6.125   9.871  10.363 -0.2401 -0.1475 -0.0374
  687MOL0     C94731   6.136   9.988  10.249  0.1971 -0.8119  0.0857
  687MOL0     C94732   6.028   9.979  10.141 -0.7466 -0.6768  0.1294
  687MOL0     C94733   5.957   9.959  10.048 -0.7867 -0.5300 -0.0983
  687MOL0     C94734   5.956   9.380  10.467 -0.3070  1.6005 -0.2482
  687MOL0     C94735   5.883   9.266  10.509  0.2281 -0.0937  0.3899
  687MOL0     C94736   5.945   9.162  10.606  0.1935  0.0555 -0.3974
  687MOL0     H94737   5.335   9.113  10.405  1.4052  0.4115 -0.0351
  687MOL0     H94738   5.151   8.921  10.421 -0.3135  1.6701 -0.0369
  687MOL0     H94739   5.278   8.549  10.549  0.3581 -1.0262 -1.0607
  687MOL0     H94740   5.160   8.473  10.445  1.1751 -0.9613 -0.6614
  687MOL0     H94741   5.058   8.516  10.632  1.0330 -0.3121  1.0875
  687MOL0     H94742   5.130   8.677  10.652  0.4312 -0.5554 -0.7501
  687MOL0     H94743   4.965   8.768  10.466 -0.2660  0.2853  0.4059
  687MOL0     H94744   4.899   8.607  10.445 -1.5842  1.3686 -0.2048
  687MOL0     H94745   4.819   8.576  10.640 -0.4422  0.3147  1.2564
  687MOL0     H94746   4.877   8.721  10.716 -2.6663  0.6142  1.0367
  687MOL0     H94747   4.655   8.703  10.534 -2.1746 -0.1950  3.0359
  687MOL0     H94748   4.756   8.850  10.518 -0.5546  0.6399  1.3241
  687MOL0     H94749   4.616   8.759  10.773  0.4781 -0.0230  0.6414
  687MOL0     H94750   4.740   8.877  10.760  1.7966 -3.8287  0.6345
  687MOL0     H94751   4.494   8.946  10.762  2.4063  1.8414  1.1939
  687MOL0     H94752   4.469   8.909  10.593 -0.3356  2.0581 -0.2808
  687MOL0     H94753   4.686   9.101  10.673 -1.1177 -1.1834  2.1571
  687MOL0     H94754   4.635   9.069  10.513  2.8930  4.7808  0.3095
  687MOL0     H94755   4.357   9.114  10.799 -3.5231  2.0495  1.9135
  687MOL0     H94756   4.301   9.354  10.925  4.1648  1.8677 -0.2018
  687MOL0     H94757   4.178   9.378  10.788  0.4432 -0.3970 -1.4365
  687MOL0     H94758   4.429   9.558  10.852 -0.5328  3.0662 -2.0063
  687MOL0     H94759   4.304   9.566  10.736 -0.3173 -4.4528 -0.9575
  687MOL0     H94760   4.130   9.575  10.937 -0.7763  3.2590 -0.5064
  687MOL0     H94761   4.287   9.557  11.034  2.2339 -1.1253 -1.7199
  687MOL0     H94762   4.367   9.754  10.955 -0.3604 -2.8307 -0.1541
  687MOL0     H94763   4.215   9.791  10.871 -0.7072  0.4686  0.0934
  687MOL0     H94764   4.011   9.846  10.890  0.5774 -1.5294 -1.0089
  687MOL0     H94765   3.727   9.982  10.888  1.5003  0.3184 -1.5612
  687MOL0     H94766   3.668   9.816  10.882  0.9095 -0.9364  0.0109
  687MOL0     H94767   3.812   9.850  10.799  0.4356  0.7728  0.5621
  687MOL0     H94768   3.372   9.785  11.070 -1.1136  0.0736  0.2821
  687MOL0     H94769   3.123   9.865  11.102  3.6512 -2.3313 -3.9371
  687MOL0     H94770   2.943   9.929  11.185 -0.2758 -2.2097 -3.7115
  687MOL0     H94771   2.853  10.089  11.177  0.9720 -0.0114  2.2690
  687MOL0     H94772   2.875  10.095  10.942 -0.5426 -0.7996 -2.6871
  687MOL0     H94773   2.994   9.949  10.951  0.7185 -0.4119  0.1126
  687MOL0     H94774   2.740   9.918  10.868 -1.1200  2.0461  0.6068
  687MOL0     H94775   2.695   9.926  11.033  0.3788  2.3108 -2.4467
  687MOL0     H94776   2.865   9.742  11.080 -1.4560  1.9926  2.4071
  687MOL0     H94777   2.884   9.731  10.901  3.4542  1.8686  2.8718
  687MOL0     H94778   2.741   9.558  10.963  1.0408  1.0515 -1.1610
  687MOL0     H94779   2.631   9.678  11.054 -2.7031  2.0972 -2.1325
  687MOL0     H94780   2.674   9.718  10.766 -2.0771 -1.2037 -2.0548
  687MOL0     H94781   2.551   9.788  10.875  1.9674  0.3356  2.6080
  687MOL0     H94782   2.415   9.631  10.778 -1.5123  0.3679  2.9475
  687MOL0     H94783   2.468   9.549  10.918  0.4971 -1.3955 -0.3945
  687MOL0     H94784   2.482   9.386  10.734  0.9652 -1.3046  0.3134
  687MOL0     H94785   2.640   9.429  10.784  0.7414 -0.1408 -0.7332
  687MOL0     H94786   3.269  10.266  11.151 -1.1307  0.0119 -0.6959
  687MOL0     H94787   3.495  10.187  11.102 -1.1445  1.4644 -3.3462
  687MOL0     H94788   3.866   9.871  11.359  1.7131  2.3165 -0.4599
  687MOL0     H94789   4.092   9.853  11.305 -1.2177  2.1000  0.4477
  687MOL0     H94790   5.476   8.646  10.382 -1.1743  0.6460 -1.7335
  687MOL0     H94791   5.634   8.843  10.368 -0.0331 -0.9107  1.3145
  687MOL0     H94792   5.607   9.342  10.323 -1.0307  3.0262  1.1028
  687MOL0     H94793   5.726   9.529  10.274 -1.3846 -2.2287 -1.3509
  687MOL0     H94794   6.097   9.634  10.503 -2.0396  2.0191 -0.0223
  687MOL0     H94795   6.161   9.533  10.382  0.0599 -0.1197  1.5745
  687MOL0     H94796   6.148   9.727  10.210 -0.5638 -0.4600  0.5911
  687MOL0     H94797   6.282   9.721  10.327  0.0966  2.8646  0.8693
  687MOL0     H94798   6.021   9.865  10.396 -0.5206  1.9527 -0.3567
  687MOL0     H94799   6.188   9.906  10.445 -0.6827  0.3671  0.0923
  687MOL0     H94800   6.234   9.989  10.200  0.8879  1.9519  1.3241
  687MOL0     H94801   6.112  10.082  10.300 -3.8875 -1.1368 -0.8547
  687MOL0     H94802   5.892   9.941   9.965 -0.3526 -0.4496 -0.4554
  687MOL0     H94803   6.048   9.399  10.522 -0.5350  1.2559  0.2618
  687MOL0     H94804   5.971   9.070  10.552  3.7305  0.4484  0.4000
  687MOL0     H94805   6.045   9.201  10.628  1.1025 -1.7137 -1.1691
  687MOL0     H94806   5.878   9.131  10.687  0.3499 -0.6681 -0.5408
  688MOL0     O94807   2.101   5.169   6.644  0.7474  0.5789 -0.2942
  688MOL0     C94808   2.037   5.107   6.737 -0.1151 -0.2761 -0.0642
  688MOL0     O94809   2.075   5.118   6.867 -0.8388 -0.3378 -0.3864
  688MOL0     C94810   2.196   5.177   6.895 -0.0077  0.0390 -0.6696
  688MOL0     C94811   2.313   5.114   6.848  0.4565 -0.2378 -0.2530
  688MOL0     C94812   2.437   5.165   6.901  0.2288  0.1252 -0.2049
  688MOL0     C94813   2.445   5.285   6.972  0.1299 -0.0627 -1.5531
  688MOL0     O94814   2.563   5.345   7.019  0.3759 -0.0632  0.7658
  688MOL0     C94815   2.689   5.292   6.977  0.4251 -0.8123  0.5152
  688MOL0     C94816   2.774   5.374   7.059 -0.9374  0.2207 -1.1488
  688MOL0     C94817   2.787   5.325   7.205 -1.1205 -1.2958 -0.9688
  688MOL0     C94818   2.825   5.449   7.295 -0.4781 -0.3025  0.9615
  688MOL0     C94819   2.798   5.415   7.438  0.1998 -0.3746 -0.3836
  688MOL0     C94820   2.672   5.476   7.503  0.2994 -0.7975  0.3325
  688MOL0     C94821   2.537   5.405   7.476  0.0198  0.6243  0.1558
  688MOL0     C94822   2.415   5.500   7.518 -0.5953 -0.5726  0.3288
  688MOL0     N94823   2.406   5.613   7.418  0.0791  0.2822 -0.0885
  688MOL0     C94824   2.405   5.606   7.280  0.2674  0.8244 -0.2537
  688MOL0     C94825   2.335   5.718   7.241  0.4268 -0.2566  0.7063
  688MOL0     C94826   2.294   5.752   7.101 -0.9184 -0.1102  0.5351
  688MOL0     C94827   2.151   5.719   7.088  0.9903  0.0049  0.4442
  688MOL0     C94828   2.083   5.781   6.965  0.5999  0.1383 -0.3335
  688MOL0     C94829   1.942   5.749   6.931 -0.2520 -0.3616  0.0316
  688MOL0     O94830   1.924   5.612   6.931 -0.4051 -0.2586  0.2641
  688MOL0     C94831   1.822   5.563   6.852  0.1911  0.3089  0.4284
  688MOL0     C94832   1.715   5.641   6.809  0.7340 -0.2404  0.0126
  688MOL0     C94833   1.606   5.571   6.746  0.8206 -0.3112 -0.6003
  688MOL0     C94834   1.486   5.667   6.693  0.1880 -0.3036 -0.4347
  688MOL0     C94835   1.606   5.437   6.721  0.6365 -0.7417  0.4454
  688MOL0     C94836   1.497   5.360   6.650  0.1201  0.2065  0.5217
  688MOL0     O94837   1.516   5.226   6.636 -1.0271 -0.1799 -0.0306
  688MOL0     C94838   1.419   5.143   6.587 -0.1712 -0.2435 -0.7967
  688MOL0     C94839   1.339   5.168   6.480  0.3512  0.0203  1.1527
  688MOL0     C94840   1.237   5.087   6.448  0.1808  0.4591 -0.0611
  688MOL0     C94841   1.210   4.985   6.535 -0.2038 -1.5401 -0.0711
  688MOL0     O94842   1.088   4.925   6.521 -0.8207  0.0172  0.3053
  688MOL0     C94843   1.107   4.786   6.467  0.2141 -0.2818  0.0679
  688MOL0     C94844   1.058   4.785   6.318 -0.5415 -0.7218  0.3123
  688MOL0     C94845   0.910   4.826   6.305 -0.1604 -0.0646 -0.5782
  688MOL0     C94846   0.862   4.869   6.165 -0.8537  0.1022  0.8615
  688MOL0     C94847   0.705   4.891   6.157  0.2499  0.1161  0.0639
  688MOL0     C94848   0.675   5.014   6.238 -0.8268  0.9477 -0.2444
  688MOL0     C94849   0.520   5.056   6.226  0.1543 -0.3127 -0.6671
  688MOL0     C94850   0.496   5.193   6.289 -0.4280  0.3645  0.4294
  688MOL0    Cl94851   0.359   5.267   6.202  0.1044  0.1692  0.2580
  688MOL0     C94852   1.297   4.943   6.634 -0.8611 -1.0628 -0.2715
  688MOL0     C94853   1.402   5.027   6.670  0.8821 -0.2171 -0.3632
  688MOL0     O94854   1.395   5.426   6.605  0.1716  0.4396 -0.4071
  688MOL0     C94855   1.721   5.368   6.759 -0.2166  0.5362 -0.0292
  688MOL0     C94856   1.830   5.425   6.827  0.1018 -0.4968 -0.0164
  688MOL0     N94857   2.307   5.786   7.364  0.7224  0.5169  0.2656
  688MOL0     N94858   2.341   5.721   7.462  0.1572 -0.6569  0.3273
  688MOL0     C94859   2.322   5.341   7.013  0.1717 -0.1605  0.1861
  688MOL0     C94860   2.198   5.284   6.979  0.3986 -0.0544  0.4432
  688MOL0     C94861   1.918   5.035   6.698 -0.4369  0.0116  0.9156
  688MOL0     C94862   1.880   5.042   6.565  0.5201  0.1415 -0.1566
  688MOL0     C94863   1.772   4.986   6.508 -0.5819  1.4077  0.1850
  688MOL0     C94864   1.687   4.900   6.587  0.3573  0.8059 -0.0517
  688MOL0     O94865   1.588   4.824   6.540  0.1473 -0.2891  0.6438
  688MOL0     C94866   1.575   4.808   6.394  0.3983 -0.3908 -0.5162
  688MOL0     C94867   1.474   4.698   6.374 -0.1789  0.4142 -1.0272
  688MOL0     C94868   1.520   4.561   6.434  0.7230  0.4163 -1.0185
  688MOL0     C94869   1.446   4.532   6.563 -0.0436  0.5486  0.8083
  688MOL0     C94870   1.513   4.430   6.640  1.0383 -0.4685  0.0946
  688MOL0     C94871   1.557   4.338   6.705 -0.8277 -1.1909 -0.2865
  688MOL0     C94872   1.719   4.892   6.717 -0.1090 -0.0301 -0.6754
  688MOL0     C94873   1.830   4.950   6.777 -0.2299 -0.6511 -0.4318
  688MOL0     C94874   1.847   4.926   6.929 -0.5522 -0.6993  0.0187
  688MOL0     H94875   2.318   5.027   6.783 -1.3529  2.0432 -3.7862
  688MOL0     H94876   2.528   5.116   6.868  1.3048  2.8533 -1.6179
  688MOL0     H94877   2.720   5.302   6.873  2.7886  0.0911  1.2411
  688MOL0     H94878   2.681   5.188   7.010 -1.6904 -0.4824  1.1889
  688MOL0     H94879   2.876   5.366   7.021 -0.5018 -0.0650  0.0110
  688MOL0     H94880   2.748   5.480   7.049  1.7444  1.1380  0.3864
  688MOL0     H94881   2.698   5.272   7.241 -1.1187 -0.4767  0.2989
  688MOL0     H94882   2.868   5.251   7.197 -0.0732 -0.4800  1.2426
  688MOL0     H94883   2.932   5.469   7.286 -0.4863 -0.9598 -1.2318
  688MOL0     H94884   2.779   5.544   7.265  0.5794 -0.7800 -2.5476
  688MOL0     H94885   2.881   5.446   7.502  0.4960 -0.5398 -0.6830
  688MOL0     H94886   2.799   5.306   7.441  0.8078 -0.3570  0.8251
  688MOL0     H94887   2.683   5.507   7.608  1.1922 -1.6998  0.5108
  688MOL0     H94888   2.662   5.571   7.450 -1.9839 -2.8806 -3.4037
  688MOL0     H94889   2.539   5.321   7.546 -3.8904 -0.2982 -0.6064
  688MOL0     H94890   2.532   5.368   7.373  5.2622 -1.7835  0.4386
  688MOL0     H94891   2.316   5.452   7.521 -1.3583  0.6481 -2.1812
  688MOL0     H94892   2.441   5.532   7.619  0.4268 -2.6271  0.7829
  688MOL0     H94893   2.458   5.525   7.232  0.1446 -0.3752  1.5446
  688MOL0     H94894   2.360   5.690   7.039 -0.9319  0.8154 -0.4238
  688MOL0     H94895   2.308   5.860   7.095 -2.8419  0.1917  0.8234
  688MOL0     H94896   2.152   5.611   7.073  1.3798  0.2174 -1.2851
  688MOL0     H94897   2.085   5.744   7.172 -0.1020  4.7775 -1.4839
  688MOL0     H94898   2.080   5.890   6.965 -0.4611  0.2749  3.4161
  688MOL0     H94899   2.148   5.753   6.882  2.3732 -1.6111  1.5187
  688MOL0     H94900   1.865   5.794   6.994 -1.0797 -1.3439 -0.2430
  688MOL0     H94901   1.933   5.793   6.831  2.4364  0.9682  0.2855
  688MOL0     H94902   1.721   5.750   6.811  1.1021 -0.2669  0.5233
  688MOL0     H94903   1.466   5.662   6.586 -0.5712 -1.3430 -0.2501
  688MOL0     H94904   1.507   5.772   6.718  1.5361 -0.3894 -1.1086
  688MOL0     H94905   1.395   5.638   6.746  0.7285  1.0048  1.3100
  688MOL0     H94906   1.349   5.267   6.436 -2.6129  0.0045  0.2365
  688MOL0     H94907   1.169   5.115   6.369  0.9089  0.7772 -0.5815
  688MOL0     H94908   1.211   4.754   6.474 -0.3677 -2.4901 -0.6481
  688MOL0     H94909   1.044   4.714   6.521 -0.3504 -1.4299 -2.0288
  688MOL0     H94910   1.117   4.856   6.259 -2.2393  0.6237  0.1389
  688MOL0     H94911   1.080   4.694   6.262  2.1849  0.5068 -0.7914
  688MOL0     H94912   0.888   4.906   6.376  0.8972 -0.7673  0.5909
  688MOL0     H94913   0.859   4.742   6.354  0.5052  0.6060  1.3787
  688MOL0     H94914   0.889   4.790   6.094 -1.1842 -1.8484  2.8085
  688MOL0     H94915   0.914   4.961   6.138 -0.1965 -0.1330  1.3051
  688MOL0     H94916   0.658   4.891   6.057 -0.1185 -0.2467  0.2289
  688MOL0     H94917   0.657   4.810   6.213  0.6490  0.2157  0.5440
  688MOL0     H94918   0.739   5.099   6.213  0.0694 -0.5467 -3.7630
  688MOL0     H94919   0.704   4.984   6.339  1.3545 -1.3775 -1.4352
  688MOL0     H94920   0.447   4.984   6.264 -0.0692 -0.7038 -1.8143
  688MOL0     H94921   0.506   5.067   6.119  0.2403  0.4704 -0.6052
  688MOL0     H94922   0.583   5.257   6.276 -0.1239 -0.1019  0.1523
  688MOL0     H94923   0.470   5.191   6.396  3.6228 -1.6326  1.5832
  688MOL0     H94924   1.268   4.860   6.696 -1.2422  0.1775  1.2758
  688MOL0     H94925   1.470   5.019   6.754  0.6301  1.4440  0.0450
  688MOL0     H94926   1.734   5.262   6.736  0.0978  0.6378 -0.3440
  688MOL0     H94927   1.915   5.365   6.859 -0.4835  0.1720  3.0127
  688MOL0     H94928   2.318   5.435   7.067  3.1172  0.8017 -1.0589
  688MOL0     H94929   2.107   5.340   6.999 -0.3370 -2.0746  3.4547
  688MOL0     H94930   1.943   5.099   6.497  1.8632 -0.5655  0.4512
  688MOL0     H94931   1.770   4.981   6.400 -1.2707  2.1465  0.1463
  688MOL0     H94932   1.537   4.907   6.366  0.5661  0.3158  1.6126
  688MOL0     H94933   1.659   4.781   6.329 -0.2964 -0.9003 -1.2356
  688MOL0     H94934   1.449   4.681   6.269  0.7515 -0.0297 -1.1942
  688MOL0     H94935   1.384   4.714   6.433  2.2781 -0.4889  3.4917
  688MOL0     H94936   1.520   4.483   6.358  1.5817  0.8762 -1.5067
  688MOL0     H94937   1.625   4.573   6.463  0.9524 -0.7692 -1.2950
  688MOL0     H94938   1.339   4.512   6.550 -0.5214  2.9764  0.6010
  688MOL0     H94939   1.447   4.619   6.629 -2.6712  2.0559 -0.9415
  688MOL0     H94940   1.610   4.264   6.761 -0.2246 -0.8260 -0.3743
  688MOL0     H94941   1.664   4.820   6.777 -1.4729 -0.4847 -2.4072
  688MOL0     H94942   1.818   5.017   6.981 -0.1445 -0.9847  0.7599
  688MOL0     H94943   1.780   4.846   6.962 -0.3443 -0.8071  0.1771
  688MOL0     H94944   1.947   4.892   6.959 -1.5626 -1.3225  3.0514
  689MOL0     O94945  10.770   5.020   9.124  0.3499  0.2070 -0.5272
  689MOL0     C94946  10.864   5.019   9.201  0.3146 -0.0230  0.1958
  689MOL0     O94947  10.955   5.117   9.202  0.2988 -0.6492  0.1513
  689MOL0     C94948  10.966   5.196   9.085 -0.1320  0.3259 -0.0210
  689MOL0     C94949  11.048   5.177   8.971 -1.3867 -0.5516 -0.1031
  689MOL0     C94950  11.041   5.277   8.869  0.2966  0.1762  0.9300
  689MOL0     C94951  10.967   5.393   8.892  0.1823  0.7298  0.4829
  689MOL0     O94952  10.965   5.488   8.796 -0.8352 -0.6356  1.5646
  689MOL0     C94953  11.083   5.512   8.716 -0.0116  0.3268 -0.3203
  689MOL0     C94954  11.091   5.659   8.695 -0.2959  0.4305  0.5626
  689MOL0     C94955  11.114   5.744   8.814  0.8145 -0.5490  0.7982
  689MOL0     C94956  11.101   5.888   8.775  0.5321 -0.9332 -0.2103
  689MOL0     C94957  11.073   5.984   8.895 -0.0127 -0.0620  0.2496
  689MOL0     C94958  10.930   6.040   8.886 -0.2729  0.1883  0.8158
  689MOL0     C94959  10.890   6.150   8.983 -0.3892 -0.0454 -0.2969
  689MOL0     C94960  10.745   6.152   9.020 -0.1205  0.1005  0.2592
  689MOL0     N94961  10.667   6.182   8.903  0.1414  0.4415  0.8621
  689MOL0     C94962  10.627   6.095   8.801  0.0868  0.4634 -0.1900
  689MOL0     C94963  10.572   6.172   8.709  0.1519  0.7182  1.2234
  689MOL0     C94964  10.506   6.119   8.584 -0.0518  0.4668 -0.1860
  689MOL0     C94965  10.430   6.232   8.510  0.3536 -0.2088  0.9011
  689MOL0     C94966  10.334   6.202   8.399 -0.3722 -0.1365  0.0383
  689MOL0     C94967  10.394   6.112   8.289 -0.2994 -0.4450 -0.7737
  689MOL0     O94968  10.495   6.197   8.211  0.0661  0.6752 -0.8444
  689MOL0     C94969  10.476   6.239   8.083 -0.5186  0.3253 -0.4911
  689MOL0     C94970  10.349   6.259   8.030  0.2481  0.9272 -0.0709
  689MOL0     C94971  10.334   6.299   7.897  0.7580 -1.0488  0.1478
  689MOL0     C94972  10.200   6.346   7.848 -0.2629  0.5543  0.6724
  689MOL0     C94973  10.449   6.301   7.814  0.6616  0.0637  0.7885
  689MOL0     C94974  10.435   6.331   7.670  0.0736 -0.3528 -0.7748
  689MOL0     O94975  10.312   6.329   7.603 -0.0347 -0.0720 -0.2388
  689MOL0     C94976  10.309   6.396   7.478  0.2180 -0.2920  0.3914
  689MOL0     C94977  10.228   6.509   7.466 -0.6452  1.3074  0.1186
  689MOL0     C94978  10.205   6.574   7.346 -0.5049  0.0844 -0.4031
  689MOL0     C94979  10.262   6.523   7.227 -0.2583  0.1293  1.7135
  689MOL0     O94980  10.239   6.574   7.098  0.4210  0.7710  0.3243
  689MOL0     C94981  10.202   6.475   6.996 -0.3128 -0.4392 -0.3824
  689MOL0     C94982  10.117   6.545   6.884  0.9119  0.1212 -0.8089
  689MOL0     C94983  10.064   6.440   6.794 -0.2406  0.3934  0.2989
  689MOL0     C94984   9.975   6.502   6.692  0.0775 -0.4345  0.5568
  689MOL0     C94985   9.909   6.397   6.612 -0.1225  0.5686 -0.0133
  689MOL0     C94986   9.815   6.453   6.506 -0.6716 -0.6736 -0.0211
  689MOL0     C94987   9.761   6.349   6.421 -0.5501  0.5780  0.5362
  689MOL0     C94988   9.676   6.259   6.504  0.2439 -0.1801 -0.4725
  689MOL0    Cl94989   9.581   6.146   6.401  0.1057 -0.2726  0.4911
  689MOL0     C94990  10.334   6.402   7.241  0.0221 -0.8320  0.0231
  689MOL0     C94991  10.356   6.342   7.360 -0.7372  0.0656  0.0190
  689MOL0     O94992  10.537   6.374   7.622 -0.0287 -0.5522 -0.5391
  689MOL0     C94993  10.581   6.288   7.870  0.6372  0.1334  0.2495
  689MOL0     C94994  10.592   6.254   8.006  0.1772 -0.2059  0.1345
  689MOL0     N94995  10.571   6.303   8.755 -0.0303  0.5420  0.6158
  689MOL0     N94996  10.634   6.308   8.868 -0.5217 -0.5641 -0.8480
  689MOL0     C94997  10.888   5.415   9.003  0.5399  0.4644  0.7030
  689MOL0     C94998  10.889   5.315   9.099  0.3922  1.2006  0.9326
  689MOL0     C94999  10.901   4.903   9.289  0.8412 -0.5719  0.2049
  689MOL0     C95000  10.968   4.928   9.414 -0.3960  0.5437  0.1144
  689MOL0     C95001  10.989   4.822   9.498  0.2648 -0.8257  0.1678
  689MOL0     C95002  10.955   4.691   9.469  0.5715  0.0945  0.4851
  689MOL0     O95003  11.001   4.601   9.563  0.1861 -0.5738 -0.3449
  689MOL0     C95004  10.924   4.583   9.678 -0.3774  0.1335  0.7323
  689MOL0     C95005  10.776   4.549   9.648 -0.3407 -0.4908  0.0268
  689MOL0     C95006  10.740   4.424   9.567 -0.6243  0.3366  0.7353
  689MOL0     C95007  10.780   4.284   9.617  0.6277 -0.2296  0.8042
  689MOL0     C95008  10.928   4.274   9.629  0.4108  0.0078  1.2630
  689MOL0     C95009  11.049   4.255   9.622 -0.5338  0.8959 -1.1909
  689MOL0     C95010  10.894   4.662   9.342  0.3560 -0.2191  0.7993
  689MOL0     C95011  10.874   4.768   9.249  0.5766 -0.9960  0.3491
  689MOL0     C95012  10.805   4.752   9.119  0.1349  0.8947 -0.3556
  689MOL0     H95013  11.117   5.093   8.968 -1.4291 -0.5869 -0.0903
  689MOL0     H95014  11.095   5.255   8.778 -2.6098 -3.9433 -0.0967
  689MOL0     H95015  11.089   5.446   8.629 -2.1064  0.1521 -0.3727
  689MOL0     H95016  11.171   5.478   8.773  1.9031  0.1160 -3.1887
  689MOL0     H95017  11.158   5.685   8.612 -2.5909  1.2706 -1.1150
  689MOL0     H95018  10.997   5.683   8.645  0.1187 -1.9022 -1.5101
  689MOL0     H95019  11.035   5.713   8.883 -0.2060 -2.3192 -1.0571
  689MOL0     H95020  11.212   5.730   8.861  1.0020  1.5033  1.0906
  689MOL0     H95021  11.188   5.929   8.723 -0.8512  2.0690 -0.3364
  689MOL0     H95022  11.018   5.896   8.705  0.5808  1.6578 -0.0808
  689MOL0     H95023  11.146   6.061   8.868 -1.3295  1.0737 -0.2188
  689MOL0     H95024  11.084   5.944   8.996 -2.6198 -1.9506 -0.1180
  689MOL0     H95025  10.912   6.066   8.782  1.8491  0.0264  0.3572
  689MOL0     H95026  10.859   5.957   8.892 -1.8894  1.3422 -1.2979
  689MOL0     H95027  10.910   6.249   8.939 -0.7865 -0.2521 -0.9455
  689MOL0     H95028  10.948   6.146   9.076  0.2466 -2.7030 -0.7332
  689MOL0     H95029  10.721   6.057   9.069  0.1981  1.3440  2.9500
  689MOL0     H95030  10.730   6.232   9.093 -2.6288 -0.9585  1.0203
  689MOL0     H95031  10.646   5.988   8.797  0.3994  0.5159 -0.1324
  689MOL0     H95032  10.438   6.037   8.609  3.0992 -2.7805 -1.3239
  689MOL0     H95033  10.575   6.069   8.515  1.4309 -3.0407  3.4681
  689MOL0     H95034  10.364   6.288   8.577  1.1020  0.9688  0.6757
  689MOL0     H95035  10.501   6.304   8.469 -0.1600  0.0325  0.4375
  689MOL0     H95036  10.249   6.160   8.453  0.1630 -1.5017 -0.1363
  689MOL0     H95037  10.295   6.292   8.351  0.9831 -0.6338 -2.1495
  689MOL0     H95038  10.446   6.025   8.332  1.3748  0.2215 -1.3979
  689MOL0     H95039  10.323   6.072   8.217 -1.4031  3.4109 -2.0587
  689MOL0     H95040  10.263   6.240   8.093 -0.6727  0.7161 -1.3366
  689MOL0     H95041  10.146   6.271   7.789 -0.3589  1.2124 -0.0765
  689MOL0     H95042  10.211   6.441   7.797  1.4586  0.4400  0.7444
  689MOL0     H95043  10.143   6.379   7.935  0.9719  2.5636  0.7741
  689MOL0     H95044  10.181   6.549   7.556 -2.5979 -1.7505  0.6095
  689MOL0     H95045  10.143   6.662   7.359  0.2652  1.0489 -2.8537
  689MOL0     H95046  10.286   6.439   6.936  2.6691  3.2527  1.2257
  689MOL0     H95047  10.144   6.396   7.045 -0.8691  0.2881  0.1571
  689MOL0     H95048  10.044   6.612   6.931  1.5883  2.0563 -2.4030
  689MOL0     H95049  10.184   6.606   6.823 -0.6900  0.3601 -2.4112
  689MOL0     H95050  10.008   6.367   6.854  0.5068  0.2557  0.8463
  689MOL0     H95051  10.147   6.393   6.741 -0.2362  0.3476  0.3456
  689MOL0     H95052  10.051   6.556   6.634  0.6680  2.8441  3.9977
  689MOL0     H95053   9.902   6.575   6.730 -0.5956 -0.5468 -0.4671
  689MOL0     H95054   9.982   6.333   6.560 -0.0513  1.8374 -1.5754
  689MOL0     H95055   9.865   6.326   6.683 -0.9900  1.8817  0.7881
  689MOL0     H95056   9.874   6.529   6.452  0.7021 -0.2436  1.9785
  689MOL0     H95057   9.734   6.507   6.555 -1.6623 -1.9039 -0.2694
  689MOL0     H95058   9.841   6.297   6.367 -0.5479  1.6393 -0.5197
  689MOL0     H95059   9.698   6.394   6.344  0.2686  0.5197 -0.1907
  689MOL0     H95060   9.608   6.321   6.563  1.0517 -0.2981  0.6181
  689MOL0     H95061   9.742   6.211   6.577  1.7736  1.1874 -0.8849
  689MOL0     H95062  10.379   6.361   7.151 -1.0506 -0.9034 -0.4866
  689MOL0     H95063  10.411   6.248   7.368 -0.4647  0.1547 -0.7074
  689MOL0     H95064  10.665   6.297   7.802 -1.4002 -0.0918 -2.4451
  689MOL0     H95065  10.692   6.227   8.038 -0.0832 -1.1658  0.1752
  689MOL0     H95066  10.831   5.507   9.010  1.6715  1.3771 -1.1921
  689MOL0     H95067  10.825   5.326   9.186 -1.2379 -5.2331  1.0614
  689MOL0     H95068  11.019   5.022   9.433  0.7103  0.5422 -2.4453
  689MOL0     H95069  11.026   4.844   9.598 -1.2536  0.3081  0.5218
  689MOL0     H95070  10.969   4.506   9.742  1.2832  0.4645  0.0219
  689MOL0     H95071  10.927   4.675   9.736 -0.5097  0.5839  0.0325
  689MOL0     H95072  10.727   4.632   9.597 -1.7011 -0.4429  1.3370
  689MOL0     H95073  10.723   4.540   9.744 -1.3537  0.6954 -0.3914
  689MOL0     H95074  10.632   4.418   9.550 -0.1368 -1.1087 -2.6658
  689MOL0     H95075  10.784   4.438   9.468  2.7672  1.8937  2.2945
  689MOL0     H95076  10.751   4.212   9.540  1.8117  0.7916 -0.6793
  689MOL0     H95077  10.728   4.257   9.709  0.4366 -0.3884  0.6476
  689MOL0     H95078  11.156   4.242   9.624 -0.6379  0.1107  0.1899
  689MOL0     H95079  10.853   4.564   9.320 -1.7306  0.8960 -0.5577
  689MOL0     H95080  10.804   4.648   9.087 -0.4326  0.7831  0.0055
  689MOL0     H95081  10.700   4.786   9.116  0.0475  0.6308 -0.3107
  689MOL0     H95082  10.863   4.791   9.035 -0.3319 -2.2400 -2.2835
  690MOL0     O95083   3.239   0.124  10.089  0.2015 -0.1110 -0.3815
  690MOL0     C95084   3.266   0.239  10.113 -0.3596 -0.7635  0.8295
  690MOL0     O95085   3.206   0.343  10.059  0.2756 -0.5860 -1.2176
  690MOL0     C95086   3.126   0.330   9.960  0.4856  0.4769  0.2716
  690MOL0     C95087   2.996   0.302   9.999 -0.3362  0.2108 -0.1468
  690MOL0     C95088   2.906   0.267   9.893  0.3998 -0.3740 -0.1388
  690MOL0     C95089   2.938   0.271   9.758 -0.3179  0.9862  0.1891
  690MOL0     O95090   2.853   0.240   9.656  0.2479  0.4509 -0.7263
  690MOL0     C95091   2.792   0.355   9.588 -0.7440 -0.4523  0.4108
  690MOL0     C95092   2.677   0.309   9.501 -0.4313  0.8392  0.5344
  690MOL0     C95093   2.586   0.250   9.607  0.9725  0.2230  0.6740
  690MOL0     C95094   2.487   0.163   9.528  0.0096 -0.2872  0.2069
  690MOL0     C95095   2.369   0.140   9.610 -0.5966  0.1615  0.2555
  690MOL0     C95096   2.265   0.046   9.541 -0.6554 -0.3965 -0.1755
  690MOL0     C95097   2.142   0.008   9.638  0.4037  0.7231  0.5163
  690MOL0     C95098   2.182  -0.089   9.757  0.6862  0.2887  0.3551
  690MOL0     N95099   2.196  -0.008   9.884  0.3810  0.2102  0.1332
  690MOL0     C95100   2.307   0.026   9.956 -0.1370 -0.0691  0.1862
  690MOL0     C95101   2.253   0.085  10.064  0.3140 -0.1980 -0.2932
  690MOL0     C95102   2.334   0.156  10.172 -0.0588 -0.7984  0.1792
  690MOL0     C95103   2.380   0.291  10.112 -0.3921  0.9212 -0.6731
  690MOL0     C95104   2.492   0.364  10.199 -0.2869 -0.1899  0.1214
  690MOL0     C95105   2.518   0.506  10.170 -0.4489 -0.5239 -0.3889
  690MOL0     O95106   2.418   0.593  10.228  0.2454 -0.5250 -0.3819
  690MOL0     C95107   2.433   0.732  10.210  0.3386 -0.8712  0.0426
  690MOL0     C95108   2.318   0.820  10.219 -0.5996  0.9901  0.0325
  690MOL0     C95109   2.326   0.955  10.196  0.1905 -0.0168 -0.7359
  690MOL0     C95110   2.200   1.033  10.203 -0.3009  0.5943  0.5224
  690MOL0     C95111   2.455   1.017  10.187 -0.4570  0.0214  0.0368
  690MOL0     C95112   2.491   1.161  10.177  0.4171 -0.2357  0.9783
  690MOL0     O95113   2.610   1.185  10.129 -0.1425 -0.3691 -0.4536
  690MOL0     C95114   2.661   1.309  10.158  0.4185 -0.6893  0.9829
  690MOL0     C95115   2.610   1.422  10.093 -0.0964 -0.2981  0.5343
  690MOL0     C95116   2.636   1.549  10.128  0.1105  0.2033  0.3156
  690MOL0     C95117   2.727   1.572  10.237  0.2335  0.0733 -0.1360
  690MOL0     O95118   2.722   1.703  10.290  0.2790  0.0651  0.6590
  690MOL0     C95119   2.838   1.778  10.258 -0.1913 -0.5674 -0.6933
  690MOL0     C95120   2.961   1.752  10.343  0.4304  0.2274  0.0231
  690MOL0     C95121   2.954   1.766  10.497  0.4931 -0.2154  0.1841
  690MOL0     C95122   3.082   1.836  10.543 -0.4752 -0.7605  0.0833
  690MOL0     C95123   3.093   1.854  10.695  0.2047  0.3359  0.2323
  690MOL0     C95124   2.975   1.949  10.743 -0.1151  0.4883  0.0310
  690MOL0     C95125   2.962   1.973  10.888  0.1976  0.0667  0.3309
  690MOL0     C95126   3.069   2.064  10.941  0.1738  0.3585  0.0839
  690MOL0    Cl95127   3.099   2.211  10.849 -0.0768 -0.0932 -0.2406
  690MOL0     C95128   2.782   1.456  10.308 -1.0213 -1.0801 -0.7863
  690MOL0     C95129   2.752   1.329  10.264 -0.2416  0.3570 -1.1238
  690MOL0     O95130   2.412   1.242  10.220  0.6260  0.7134 -0.6702
  690MOL0     C95131   2.569   0.933  10.181  0.3085  0.5714  0.2326
  690MOL0     C95132   2.557   0.791  10.187  1.1953  0.5143 -0.1036
  690MOL0     N95133   2.113   0.080  10.060 -0.7926  0.1753  0.1948
  690MOL0     N95134   2.084   0.016   9.958 -0.6037 -0.2545  0.3789
  690MOL0     C95135   3.066   0.317   9.722  0.4256  0.5618  0.4740
  690MOL0     C95136   3.161   0.332   9.826 -0.5436  0.1628 -0.0515
  690MOL0     C95137   3.382   0.264  10.199 -0.3090  0.4242 -0.3599
  690MOL0     C95138   3.438   0.392  10.221 -0.6852 -0.1175  0.0978
  690MOL0     C95139   3.553   0.416  10.294  0.5705 -0.4306 -0.4970
  690MOL0     C95140   3.620   0.307  10.359  0.3259 -0.7853 -0.1371
  690MOL0     O95141   3.741   0.335  10.425  1.3168 -0.3218  0.3083
  690MOL0     C95142   3.762   0.292  10.557  0.2727  1.2379 -0.1566
  690MOL0     C95143   3.740   0.408  10.648 -0.2202  0.5142  0.1908
  690MOL0     C95144   3.595   0.426  10.683  0.5028  0.7887  0.8873
  690MOL0     C95145   3.558   0.352  10.818 -0.1760 -0.7916 -0.0964
  690MOL0     C95146   3.437   0.420  10.874  0.6300 -0.1714 -0.2755
  690MOL0     C95147   3.341   0.491  10.905 -0.7536 -0.6965 -0.2207
  690MOL0     C95148   3.557   0.178  10.359  0.0498  0.1496  1.0109
  690MOL0     C95149   3.442   0.156  10.274  0.7290 -0.7837 -0.0507
  690MOL0     C95150   3.393   0.005  10.274  0.0189  0.1093 -0.9984
  690MOL0     H95151   2.965   0.315  10.103 -1.8431  3.6677 -0.8653
  690MOL0     H95152   2.801   0.245   9.911 -0.4930  2.2668 -1.4914
  690MOL0     H95153   2.870   0.382   9.516 -0.1097 -0.6701  1.0057
  690MOL0     H95154   2.765   0.439   9.652 -1.1995  1.8819 -2.5902
  690MOL0     H95155   2.625   0.395   9.458 -1.7975 -0.4143 -0.4089
  690MOL0     H95156   2.709   0.242   9.420 -2.6417  0.3554 -0.0017
  690MOL0     H95157   2.624   0.168   9.670 -1.6821 -2.5047 -1.0034
  690MOL0     H95158   2.541   0.334   9.662 -2.2544 -2.2302  2.1362
  690MOL0     H95159   2.457   0.220   9.440 -2.2011  2.8850  2.7868
  690MOL0     H95160   2.527   0.070   9.486  0.6484 -0.3654  0.9622
  690MOL0     H95161   2.320   0.233   9.640 -6.0279 -2.6226  1.2752
  690MOL0     H95162   2.415   0.091   9.696 -0.9330 -0.8736 -0.1361
  690MOL0     H95163   2.218   0.111   9.466  0.1239 -0.6866 -0.9283
  690MOL0     H95164   2.313  -0.038   9.492  2.6132  2.4430 -2.3117
  690MOL0     H95165   2.055  -0.024   9.581  1.3930  0.1712 -0.7472
  690MOL0     H95166   2.110   0.109   9.665 -0.6246  2.1710 -4.9190
  690MOL0     H95167   2.119  -0.175   9.781  2.3488 -1.6729 -1.8378
  690MOL0     H95168   2.281  -0.132   9.736  1.3433  2.0207 -0.2931
  690MOL0     H95169   2.411   0.026   9.923 -0.0236  1.2090  0.4867
  690MOL0     H95170   2.417   0.086  10.187  0.0105 -1.5213 -2.8147
  690MOL0     H95171   2.268   0.174  10.257  0.1740 -1.4678  0.5050
  690MOL0     H95172   2.422   0.269  10.014 -0.4741 -1.6260 -0.2092
  690MOL0     H95173   2.298   0.363  10.099 -0.4826  1.2780  1.4319
  690MOL0     H95174   2.492   0.353  10.308 -0.1133 -0.4258  0.0998
  690MOL0     H95175   2.583   0.320  10.158 -0.9838 -0.9010 -0.6936
  690MOL0     H95176   2.618   0.530  10.209 -1.0059 -0.1444  0.8682
  690MOL0     H95177   2.513   0.518  10.062 -0.9226  0.1380 -0.2965
  690MOL0     H95178   2.217   0.781  10.231  0.3861 -1.5739  0.5953
  690MOL0     H95179   2.154   1.026  10.302  1.4612 -1.1152  1.3049
  690MOL0     H95180   2.126   0.986  10.138 -0.5096 -1.3009  2.0454
  690MOL0     H95181   2.217   1.134  10.166  4.0434  0.2007  0.9058
  690MOL0     H95182   2.532   1.410  10.018  1.1459  3.9665 -1.7350
  690MOL0     H95183   2.577   1.618  10.068  2.3301  0.0553 -2.2240
  690MOL0     H95184   2.852   1.752  10.152 -0.0339 -0.3643 -0.7231
  690MOL0     H95185   2.813   1.884  10.257  2.9820  0.2987  0.4453
  690MOL0     H95186   2.996   1.650  10.321 -0.2621  0.0564 -0.3281
  690MOL0     H95187   3.032   1.819  10.295  0.4294  0.1981 -0.0196
  690MOL0     H95188   2.930   1.670  10.545  1.9100 -2.1517 -2.7044
  690MOL0     H95189   2.872   1.837  10.509  1.9824  1.6956 -0.5191
  690MOL0     H95190   3.092   1.932  10.491 -1.1507 -0.9439 -0.4181
  690MOL0     H95191   3.165   1.781  10.499 -0.0651 -2.2475  2.5531
  690MOL0     H95192   3.090   1.751  10.730  2.1964  0.2230  0.1633
  690MOL0     H95193   3.189   1.897  10.723  0.3891 -0.2060  0.4405
  690MOL0     H95194   2.881   1.900  10.716 -0.5499  1.1198  0.3653
  690MOL0     H95195   2.980   2.041  10.684 -0.0811  0.0337 -0.6914
  690MOL0     H95196   2.950   1.881  10.945  0.3771  0.1057  0.4286
  690MOL0     H95197   2.862   2.018  10.899  0.0033 -0.1819 -0.3599
  690MOL0     H95198   3.156   1.999  10.951  0.3682  0.9742  4.1350
  690MOL0     H95199   3.055   2.097  11.044 -0.9047  1.3223 -0.3414
  690MOL0     H95200   2.846   1.473  10.394  0.9102  0.5919 -2.4373
  690MOL0     H95201   2.785   1.238  10.312  2.0482  1.1057 -1.1630
  690MOL0     H95202   2.671   0.969  10.175 -0.1014  1.9633  1.2575
  690MOL0     H95203   2.643   0.725  10.179 -0.7424 -2.0914 -0.7232
  690MOL0     H95204   3.101   0.335   9.620  4.2754 -1.9634  1.1119
  690MOL0     H95205   3.268   0.342   9.808 -0.1576  1.6069  2.6375
  690MOL0     H95206   3.407   0.477  10.161  1.1029  0.4782 -0.0333
  690MOL0     H95207   3.596   0.513  10.315 -1.0210 -0.2335  2.3800
  690MOL0     H95208   3.693   0.211  10.579 -0.0761  1.7615  0.7205
  690MOL0     H95209   3.867   0.262  10.562  0.8419  2.9704 -0.8568
  690MOL0     H95210   3.771   0.496  10.591  1.3557 -1.0500 -1.4945
  690MOL0     H95211   3.800   0.399  10.739  0.4517  0.7051 -0.2223
  690MOL0     H95212   3.587   0.534  10.696  6.8458  1.7162  0.3713
  690MOL0     H95213   3.525   0.392  10.607  2.2970 -0.4451 -0.2970
  690MOL0     H95214   3.635   0.362  10.895 -3.4689  1.5653  3.2359
  690MOL0     H95215   3.544   0.245  10.804  3.1045 -1.6154  1.8832
  690MOL0     H95216   3.258   0.559  10.899 -1.2045 -0.6701  3.8463
  690MOL0     H95217   3.616   0.097  10.400  2.3403 -0.1616 -2.4219
  690MOL0     H95218   3.430  -0.042  10.182  0.8424 -0.8087 -0.2183
  690MOL0     H95219   3.445  -0.041  10.359  2.7746  2.8554 -1.0257
  690MOL0     H95220   3.285  -0.003  10.283  0.1505 -0.3463  0.3827
  691MOL0     O95221   2.981   3.631   0.944 -0.4809 -0.5276 -0.8977
  691MOL0     C95222   3.037   3.523   0.942  0.2419  0.4224 -0.2976
  691MOL0     O95223   3.022   3.436   0.840 -0.5043  0.7046  0.2343
  691MOL0     C95224   2.898   3.432   0.786 -0.0331 -0.3060  0.0675
  691MOL0     C95225   2.800   3.375   0.866 -0.0057  0.2274 -0.2658
  691MOL0     C95226   2.677   3.345   0.805  0.3740 -0.2531 -0.7667
  691MOL0     C95227   2.653   3.363   0.671  0.4442 -1.1258  0.3903
  691MOL0     O95228   2.523   3.333   0.627 -0.4745  0.1773 -0.1811
  691MOL0     C95229   2.474   3.341   0.494  0.8123  0.2235 -0.3876
  691MOL0     C95230   2.316   3.333   0.488  0.2599 -0.3422  0.0422
  691MOL0     C95231   2.255   3.207   0.559 -0.3214 -0.1446 -0.8418
  691MOL0     C95232   2.304   3.073   0.499  0.3296  0.1267 -0.1809
  691MOL0     C95233   2.234   2.950   0.548 -0.2995  0.3051 -0.0014
  691MOL0     C95234   2.214   2.942   0.700  0.1017  0.2129  0.7592
  691MOL0     C95235   2.350   2.911   0.775  0.4394  0.7950  0.3412
  691MOL0     C95236   2.367   2.757   0.813 -0.1301 -0.4160  0.7882
  691MOL0     N95237   2.460   2.739   0.919 -0.1874  0.2874  0.0940
  691MOL0     C95238   2.590   2.708   0.907 -1.4159  0.1204  0.0305
  691MOL0     C95239   2.636   2.695   1.033 -0.5205 -0.0346  0.7966
  691MOL0     C95240   2.782   2.661   1.066  0.7858  0.0210 -0.2290
  691MOL0     C95241   2.801   2.580   1.198  0.2918 -0.0004  1.2163
  691MOL0     C95242   2.788   2.659   1.331  0.3608 -0.5834  0.0905
  691MOL0     C95243   2.767   2.567   1.449  0.1607 -0.2215 -0.7366
  691MOL0     O95244   2.749   2.641   1.574  1.1612 -0.2115  0.7177
  691MOL0     C95245   2.845   2.717   1.625 -0.1500 -0.1421 -0.1754
  691MOL0     C95246   2.799   2.833   1.701 -0.4321  0.3955  0.3470
  691MOL0     C95247   2.895   2.920   1.749  0.8045 -1.5579  0.1918
  691MOL0     C95248   2.841   3.046   1.822 -0.4675 -0.1222 -0.0370
  691MOL0     C95249   3.030   2.890   1.751 -0.2198  0.0535 -0.5035
  691MOL0     C95250   3.131   2.972   1.807  1.4587 -0.4102 -0.1340
  691MOL0     O95251   3.105   3.103   1.807  0.2749 -0.4624 -0.3830
  691MOL0     C95252   3.202   3.198   1.802 -0.6964  0.1625 -0.4250
  691MOL0     C95253   3.198   3.304   1.888  0.0644 -0.2477  0.0650
  691MOL0     C95254   3.278   3.418   1.883 -0.5538 -0.0229  0.7519
  691MOL0     C95255   3.384   3.420   1.777  0.8213  0.6630 -0.6714
  691MOL0     O95256   3.457   3.527   1.746  0.1781 -0.5053  0.0942
  691MOL0     C95257   3.443   3.657   1.803 -1.1270  1.3194 -0.3612
  691MOL0     C95258   3.320   3.743   1.759 -1.5668  0.5720 -0.0938
  691MOL0     C95259   3.340   3.824   1.627 -0.5116  0.1784  0.0429
  691MOL0     C95260   3.237   3.819   1.524  0.4149  1.1527 -0.3210
  691MOL0     C95261   3.102   3.879   1.584 -0.8116 -0.1145 -0.1468
  691MOL0     C95262   2.980   3.850   1.511 -0.0864  0.0409 -0.0303
  691MOL0     C95263   2.851   3.910   1.582  0.3671  0.0302 -0.1839
  691MOL0     C95264   2.729   3.866   1.501  0.4317 -0.3799  0.0378
  691MOL0    Cl95265   2.568   3.946   1.550 -0.1365  0.0852  0.1110
  691MOL0     C95266   3.402   3.297   1.708 -0.4960 -0.0568 -0.1925
  691MOL0     C95267   3.310   3.190   1.717 -0.5478  0.1534 -0.0286
  691MOL0     O95268   3.236   2.923   1.852 -0.2382 -0.6495 -0.6522
  691MOL0     C95269   3.073   2.763   1.700  0.8697 -0.3556 -0.6946
  691MOL0     C95270   2.977   2.675   1.635  0.4405  0.5008  0.0901
  691MOL0     N95271   2.533   2.705   1.116  0.0928 -0.3932 -0.5826
  691MOL0     N95272   2.432   2.728   1.049  0.2864  0.2484 -0.4591
  691MOL0     C95273   2.745   3.435   0.599  0.5811 -0.4423  1.5699
  691MOL0     C95274   2.869   3.469   0.652  0.1065  0.8482  0.1157
  691MOL0     C95275   3.154   3.522   1.038 -0.9882 -0.6719 -0.6383
  691MOL0     C95276   3.288   3.521   0.983  0.5220  1.0295  0.3350
  691MOL0     C95277   3.398   3.523   1.067 -0.3931 -0.0484 -0.2266
  691MOL0     C95278   3.376   3.533   1.205 -0.9567  0.7183 -0.0895
  691MOL0     O95279   3.496   3.520   1.280 -0.1778  0.5335  0.3459
  691MOL0     C95280   3.515   3.522   1.425 -0.3865  0.3630 -0.4132
  691MOL0     C95281   3.661   3.485   1.455  0.4411 -0.2816 -0.1196
  691MOL0     C95282   3.749   3.606   1.424  0.2515 -1.3726 -0.4031
  691MOL0     C95283   3.838   3.579   1.304  0.0862 -0.3826 -0.9379
  691MOL0     C95284   3.926   3.692   1.278 -0.0211 -1.7890 -0.6196
  691MOL0     C95285   4.006   3.785   1.263  0.1681 -1.5882 -0.5330
  691MOL0     C95286   3.247   3.540   1.257 -0.0824  0.5097  0.4171
  691MOL0     C95287   3.139   3.544   1.179 -0.8427 -0.0037  0.0892
  691MOL0     C95288   3.000   3.572   1.242 -0.2578  0.2844  0.5531
  691MOL0     H95289   2.802   3.346   0.971 -4.0849 -0.1050 -0.1313
  691MOL0     H95290   2.596   3.305   0.865  1.6711  0.3914  1.5203
  691MOL0     H95291   2.517   3.263   0.430  0.0838  0.5003 -1.2271
  691MOL0     H95292   2.501   3.438   0.452  0.0478  0.4814 -0.3012
  691MOL0     H95293   2.285   3.424   0.541 -1.4458 -0.8488 -0.0317
  691MOL0     H95294   2.279   3.333   0.385 -2.9730  3.9689  0.9285
  691MOL0     H95295   2.281   3.215   0.665  3.7577  2.8456 -1.7979
  691MOL0     H95296   2.148   3.216   0.541 -0.4053 -0.3752 -0.4695
  691MOL0     H95297   2.288   3.080   0.391  0.6907  0.5565 -0.2097
  691MOL0     H95298   2.410   3.064   0.524  0.1529  0.5541  0.7821
  691MOL0     H95299   2.289   2.865   0.506  1.7346  0.9701  1.1374
  691MOL0     H95300   2.135   2.941   0.504  0.6108  1.1836 -2.3644
  691MOL0     H95301   2.176   3.041   0.724  1.9248  0.9165  0.8910
  691MOL0     H95302   2.135   2.868   0.716 -0.5278  0.2505 -1.7437
  691MOL0     H95303   2.348   2.962   0.872 -1.5494  4.4045 -1.3786
  691MOL0     H95304   2.434   2.945   0.714  1.3192  1.1973  1.7225
  691MOL0     H95305   2.266   2.715   0.824 -1.1825  1.8415  0.4055
  691MOL0     H95306   2.408   2.704   0.726 -1.8991  1.7707 -1.5602
  691MOL0     H95307   2.642   2.702   0.811 -3.7182 -0.9988 -1.2207
  691MOL0     H95308   2.833   2.758   1.071  0.8457 -0.0688  2.0715
  691MOL0     H95309   2.827   2.602   0.986 -0.1193 -2.6435  1.1094
  691MOL0     H95310   2.720   2.506   1.205 -0.2543  0.0754 -2.4119
  691MOL0     H95311   2.896   2.527   1.186  0.0770 -0.1661  0.1426
  691MOL0     H95312   2.879   2.717   1.348  0.5723 -0.3037 -1.7705
  691MOL0     H95313   2.702   2.726   1.337  0.7091 -0.1754  0.6710
  691MOL0     H95314   2.678   2.503   1.443  0.4559 -0.7125 -0.0299
  691MOL0     H95315   2.856   2.504   1.456 -1.1562 -1.9638  1.6460
  691MOL0     H95316   2.695   2.864   1.703 -0.9591 -1.2304 -0.6554
  691MOL0     H95317   2.864   3.047   1.929 -1.2954  0.4693  0.1480
  691MOL0     H95318   2.733   3.058   1.815 -0.6689 -1.4391  0.5586
  691MOL0     H95319   2.878   3.137   1.773  1.3349  0.4290  2.1999
  691MOL0     H95320   3.127   3.310   1.970  0.1032 -0.2649  0.1000
  691MOL0     H95321   3.259   3.497   1.955 -0.9792 -0.4811  1.1518
  691MOL0     H95322   3.446   3.652   1.913 -0.7446  3.1367 -0.2564
  691MOL0     H95323   3.524   3.725   1.774 -0.7324  0.3445 -1.6146
  691MOL0     H95324   3.243   3.665   1.762 -0.0509 -1.0844 -1.7991
  691MOL0     H95325   3.289   3.810   1.839 -1.5055  1.8227 -1.0976
  691MOL0     H95326   3.439   3.803   1.585  1.4637  3.4137  2.6327
  691MOL0     H95327   3.338   3.931   1.651  1.8219  0.1848  0.4628
  691MOL0     H95328   3.219   3.714   1.500 -0.0644  1.0955  0.2574
  691MOL0     H95329   3.269   3.868   1.432 -0.4147  0.1461 -1.1759
  691MOL0     H95330   3.093   3.850   1.689 -2.9571  0.8411 -0.0015
  691MOL0     H95331   3.112   3.988   1.583 -2.5788  0.4862  5.6913
  691MOL0     H95332   2.957   3.744   1.516 -1.0755  0.2507  0.1124
  691MOL0     H95333   2.983   3.880   1.406 -1.3556  0.4334  0.0230
  691MOL0     H95334   2.862   4.018   1.595  0.7440  0.7313 -4.7757
  691MOL0     H95335   2.836   3.867   1.682  0.3882 -1.2084 -0.6961
  691MOL0     H95336   2.712   3.758   1.506  2.3014 -0.7708 -1.1300
  691MOL0     H95337   2.740   3.885   1.394 -5.4625 -0.1989 -0.8577
  691MOL0     H95338   3.480   3.305   1.633  0.0762 -0.8389  0.3040
  691MOL0     H95339   3.316   3.104   1.650  1.6644  1.2294 -1.3136
  691MOL0     H95340   3.180   2.745   1.696  1.0035 -2.4548  4.3640
  691MOL0     H95341   3.003   2.577   1.597 -0.4950  0.6807 -1.0721
  691MOL0     H95342   2.738   3.486   0.503  1.2394 -0.2464  1.6228
  691MOL0     H95343   2.934   3.531   0.591  0.5093  0.1756 -0.1451
  691MOL0     H95344   3.307   3.527   0.876  0.0304 -1.1308  0.0854
  691MOL0     H95345   3.500   3.508   1.032 -0.1267  1.2105 -0.0260
  691MOL0     H95346   3.482   3.618   1.465  0.0315 -0.4073  1.9478
  691MOL0     H95347   3.440   3.453   1.465 -1.6494  0.5892 -2.2308
  691MOL0     H95348   3.695   3.402   1.393 -2.4572 -2.4717  1.0366
  691MOL0     H95349   3.653   3.457   1.560 -1.9217  1.2252  0.1810
  691MOL0     H95350   3.686   3.690   1.396  2.3400 -0.6620 -3.3645
  691MOL0     H95351   3.811   3.627   1.512  1.5985 -3.3468 -0.8246
  691MOL0     H95352   3.781   3.554   1.214  0.4323 -0.0861 -1.2460
  691MOL0     H95353   3.907   3.497   1.324  3.6073  2.6003  0.3992
  691MOL0     H95354   4.064   3.874   1.247  1.5967 -1.9370  2.2093
  691MOL0     H95355   3.232   3.552   1.364 -0.7884 -3.5440  0.9469
  691MOL0     H95356   2.916   3.544   1.179 -0.6536 -0.7997  1.5182
  691MOL0     H95357   2.993   3.504   1.328  1.5452 -1.5944 -0.6936
  691MOL0     H95358   2.978   3.675   1.272 -2.8901  1.0067 -3.1984
  692MOL0     O95359   2.526   9.977   5.390  0.0975  0.2331  0.3692
  692MOL0     C95360   2.472  10.065   5.318 -1.2221  0.6582  0.7757
  692MOL0     O95361   2.466  10.194   5.342 -0.9528 -0.2976  0.0968
  692MOL0     C95362   2.519  10.247   5.462  1.0359 -0.2636 -0.6059
  692MOL0     C95363   2.432  10.311   5.549  0.5578  0.2382  0.3512
  692MOL0     C95364   2.475  10.353   5.675  0.1587 -0.7332 -0.6235
  692MOL0     C95365   2.611  10.348   5.706  0.3465  0.2837  0.1497
  692MOL0     O95366   2.664  10.388   5.822  0.1979  0.3918 -0.4360
  692MOL0     C95367   2.612  10.314   5.934 -1.2024 -0.4253  0.4205
  692MOL0     C95368   2.727  10.338   6.031  0.1831 -0.1178  0.1078
  692MOL0     C95369   2.699  10.258   6.168 -0.3473 -0.0765  0.4031
  692MOL0     C95370   2.567  10.290   6.242  0.5943 -0.0670  0.1340
  692MOL0     C95371   2.554  10.210   6.372  0.4497  0.3701 -0.2176
  692MOL0     C95372   2.624  10.296   6.486 -0.9266 -0.0548 -0.8296
  692MOL0     C95373   2.601  10.269   6.637  0.1846  0.4859  1.3349
  692MOL0     C95374   2.458  10.265   6.669  1.5493 -0.0124 -0.4527
  692MOL0     N95375   2.425  10.237   6.813  0.7860 -0.5761 -0.6291
  692MOL0     C95376   2.465  10.323   6.914  1.1515 -0.6026  0.2588
  692MOL0     C95377   2.417  10.267   7.023  0.1985  0.2527 -0.7133
  692MOL0     C95378   2.462  10.333   7.158 -0.2295  0.4735  0.0392
  692MOL0     C95379   2.364  10.333   7.272  0.1887 -0.0867 -0.8938
  692MOL0     C95380   2.429  10.338   7.408 -0.8224  0.2412 -0.3288
  692MOL0     C95381   2.520  10.458   7.430 -0.7748  0.0743  0.4015
  692MOL0     O95382   2.531  10.495   7.566  0.6238 -0.1614 -0.6105
  692MOL0     C95383   2.425  10.560   7.633 -0.0881  0.6160  0.1824
  692MOL0     C95384   2.306  10.602   7.569 -0.0160 -1.1402 -0.3416
  692MOL0     C95385   2.198  10.676   7.630 -0.8314  0.6506  0.4226
  692MOL0     C95386   2.089  10.713   7.539 -0.1793  0.3764  0.2162
  692MOL0     C95387   2.205  10.699   7.769 -0.7147  0.3978 -0.1050
  692MOL0     C95388   2.105  10.778   7.847  1.2133  0.1701 -0.6399
  692MOL0     O95389   1.992  10.815   7.790 -0.0263  0.1816  0.2624
  692MOL0     C95390   1.903  10.884   7.871  0.2500  0.3826  0.1858
  692MOL0     C95391   1.823  10.826   7.975  0.6730  0.4821  0.1879
  692MOL0     C95392   1.730  10.897   8.043 -0.2438 -0.4475  0.3363
  692MOL0     C95393   1.722  11.036   8.025 -0.8097  0.0080 -0.1421
  692MOL0     O95394   1.631  11.106   8.096 -0.2179 -0.2111 -0.3338
  692MOL0     C95395   1.495  11.074   8.073 -0.6940  0.2511  0.4220
  692MOL0     C95396   1.402  11.177   8.133 -0.3206 -0.3692  0.1061
  692MOL0     C95397   1.434  11.201   8.279 -0.0976  0.2294  0.0809
  692MOL0     C95398   1.359  11.321   8.337  0.8386 -0.3920 -0.3915
  692MOL0     C95399   1.377  11.357   8.491 -0.3877  1.3478 -0.5174
  692MOL0     C95400   1.259  11.450   8.545 -0.4037  0.7351 -0.1413
  692MOL0     C95401   1.288  11.489   8.696  0.9254  0.5399 -0.0656
  692MOL0     C95402   1.221  11.406   8.801  0.6091 -0.2216 -0.9666
  692MOL0    Cl95403   1.299  11.253   8.826 -0.3969  0.0325  0.1029
  692MOL0     C95404   1.812  11.102   7.947 -1.0149  1.1268  0.3931
  692MOL0     C95405   1.903  11.027   7.868 -0.5095  0.4099 -0.6555
  692MOL0     O95406   2.137  10.798   7.966  0.0031 -0.1973 -0.4165
  692MOL0     C95407   2.321  10.658   7.836  0.4677 -0.0610  0.4745
  692MOL0     C95408   2.424  10.586   7.770 -0.3680 -0.4354 -0.7902
  692MOL0     N95409   2.350  10.146   6.990 -0.2393  1.1256  0.1896
  692MOL0     N95410   2.364  10.127   6.867  0.7510 -0.5286  0.2206
  692MOL0     C95411   2.701  10.292   5.617 -0.2642  0.2585  0.1840
  692MOL0     C95412   2.658  10.232   5.500  0.1722  0.2094  0.2146
  692MOL0     C95413   2.404  10.023   5.191 -0.3680 -0.0062 -0.4807
  692MOL0     C95414   2.267  10.047   5.172 -0.3054  0.6222  0.3706
  692MOL0     C95415   2.206  10.005   5.056  0.5933  0.4984 -0.9585
  692MOL0     C95416   2.275   9.929   4.970  0.5199  0.2502  0.2976
  692MOL0     O95417   2.211   9.854   4.869  0.2034 -0.3075  0.2146
  692MOL0     C95418   2.184   9.917   4.747 -0.9284  0.2864 -0.6178
  692MOL0     C95419   2.031   9.953   4.739  0.1574  0.4078 -0.0328
  692MOL0     C95420   1.951   9.833   4.695 -0.2415  0.8924  0.1681
  692MOL0     C95421   1.793   9.850   4.700  0.4240 -0.5452 -0.1996
  692MOL0     C95422   1.753   9.859   4.844 -0.2917 -0.3210 -0.3293
  692MOL0     C95423   1.721   9.844   4.961  0.5200  0.3888  0.4536
  692MOL0     C95424   2.410   9.911   4.984  0.4089  0.2938 -0.8329
  692MOL0     C95425   2.484   9.967   5.093  0.3648  0.0340  0.5348
  692MOL0     C95426   2.636   9.978   5.082 -0.6725  1.0222  0.6146
  692MOL0     H95427   2.325  10.312   5.532  0.6755 -1.0374 -0.6063
  692MOL0     H95428   2.403  10.392   5.746 -0.6228 -2.8414 -0.1696
  692MOL0     H95429   2.612  10.209   5.901 -4.2368  0.5310 -3.3804
  692MOL0     H95430   2.512  10.347   5.962 -0.7510  0.2220  1.2828
  692MOL0     H95431   2.821  10.309   5.984 -0.9318 -0.3520 -2.0905
  692MOL0     H95432   2.729  10.443   6.061 -2.4356  0.5539 -1.6644
  692MOL0     H95433   2.697  10.151   6.149  2.0830 -0.3396  1.2655
  692MOL0     H95434   2.786  10.271   6.233  0.4033 -2.4137 -0.0634
  692MOL0     H95435   2.575  10.397   6.261  1.0865 -0.4105  2.1670
  692MOL0     H95436   2.482  10.277   6.175 -1.0102  3.1575  1.3300
  692MOL0     H95437   2.615  10.120   6.366  2.1445  1.4790 -0.3744
  692MOL0     H95438   2.447  10.204   6.396  0.3883  0.1359 -0.5511
  692MOL0     H95439   2.730  10.310   6.462 -1.3300  1.7786 -1.7897
  692MOL0     H95440   2.593  10.401   6.487 -0.4111  0.0989 -0.6259
  692MOL0     H95441   2.643  10.347   6.702  0.3646 -0.4341  2.3563
  692MOL0     H95442   2.646  10.176   6.671 -0.2169  0.3526  1.5020
  692MOL0     H95443   2.404  10.353   6.634  1.7930  0.0646 -0.6358
  692MOL0     H95444   2.411  10.180   6.618 -2.2058  0.0217  2.4349
  692MOL0     H95445   2.526  10.412   6.907 -0.5824  0.4861 -2.6261
  692MOL0     H95446   2.484  10.439   7.142 -0.9978  0.1951 -3.9827
  692MOL0     H95447   2.558  10.283   7.176  0.9387  2.1501 -1.2241
  692MOL0     H95448   2.301  10.420   7.251 -2.4584 -1.8847 -0.8089
  692MOL0     H95449   2.292  10.251   7.272  0.0251  0.0373  0.2333
  692MOL0     H95450   2.357  10.329   7.490 -1.4686 -1.1643 -1.0157
  692MOL0     H95451   2.482  10.244   7.419 -1.0062  0.0420 -1.0421
  692MOL0     H95452   2.619  10.429   7.394 -0.5396  1.6655 -0.2908
  692MOL0     H95453   2.500  10.549   7.374  1.5820 -0.6182 -1.7106
  692MOL0     H95454   2.295  10.588   7.462  0.7307 -0.2632 -0.5502
  692MOL0     H95455   2.101  10.698   7.432  1.4276  1.1265  0.2605
  692MOL0     H95456   2.070  10.820   7.551 -1.6968  0.1664 -0.1383
  692MOL0     H95457   1.997  10.660   7.567 -0.1974  0.3568  0.1172
  692MOL0     H95458   1.844  10.725   8.007 -2.6934 -0.3341  0.2123
  692MOL0     H95459   1.673  10.854   8.125 -0.3161  0.2387  0.6509
  692MOL0     H95460   1.473  11.077   7.966 -3.6632  3.0345  0.9407
  692MOL0     H95461   1.484  10.977   8.122 -0.8609  2.2782  4.9040
  692MOL0     H95462   1.419  11.264   8.069 -1.6204 -1.4305 -1.7543
  692MOL0     H95463   1.297  11.146   8.125 -0.2985 -0.0648 -1.6625
  692MOL0     H95464   1.542  11.212   8.294  0.2715 -3.0740  0.6869
  692MOL0     H95465   1.400  11.119   8.343 -0.6162 -0.7661 -1.4070
  692MOL0     H95466   1.252  11.306   8.320  0.6364  0.7851 -0.2751
  692MOL0     H95467   1.393  11.407   8.278 -0.9821  1.2531  0.8080
  692MOL0     H95468   1.360  11.266   8.550  1.7266  1.9796  1.2025
  692MOL0     H95469   1.477  11.399   8.505  0.6348 -0.9959 -0.2352
  692MOL0     H95470   1.159  11.404   8.546  0.1881 -0.6093  0.3189
  692MOL0     H95471   1.235  11.535   8.481 -3.3773  0.5468  0.5468
  692MOL0     H95472   1.240  11.585   8.717  1.5726  1.5274 -2.6788
  692MOL0     H95473   1.396  11.488   8.713  0.6998 -0.5150  1.5200
  692MOL0     H95474   1.117  11.386   8.775  1.0316 -2.2579 -1.3047
  692MOL0     H95475   1.220  11.456   8.898  3.1229  4.5557 -3.0896
  692MOL0     H95476   1.810  11.211   7.949  1.5637  1.2307  1.0003
  692MOL0     H95477   1.976  11.082   7.810  0.0299  2.8383  2.0799
  692MOL0     H95478   2.325  10.669   7.944 -0.6590 -0.7697  0.5999
  692MOL0     H95479   2.520  10.562   7.815 -0.8332  0.3046  0.6439
  692MOL0     H95480   2.803  10.273   5.648 -0.5215  1.5358  1.9455
  692MOL0     H95481   2.732  10.186   5.436  2.4494 -0.0630  2.8402
  692MOL0     H95482   2.219  10.102   5.252  1.3653  1.2186  1.0177
  692MOL0     H95483   2.104  10.030   5.030  0.0963  1.2502  1.4847
  692MOL0     H95484   2.257   9.996   4.727  2.0383 -2.5428 -1.7971
  692MOL0     H95485   2.202   9.845   4.667 -1.5140  1.0753 -1.4836
  692MOL0     H95486   2.020  10.035   4.667 -1.1687  1.3196  1.1585
  692MOL0     H95487   1.997   9.985   4.838  1.6978 -1.5913  1.2217
  692MOL0     H95488   1.974   9.814   4.590 -0.6709  0.6493  0.1169
  692MOL0     H95489   1.984   9.755   4.763 -2.3600  0.0627  0.3352
  692MOL0     H95490   1.751   9.756   4.662  1.7793 -0.0867 -3.0942
  692MOL0     H95491   1.760   9.941   4.648  1.2582 -0.1068  0.0317
  692MOL0     H95492   1.702   9.825   5.064  1.7707 -3.1385  0.1506
  692MOL0     H95493   2.462   9.855   4.907  0.7118  2.9885 -2.7344
  692MOL0     H95494   2.687   9.898   5.137  0.3140  1.5990  0.5632
  692MOL0     H95495   2.660   9.973   4.975 -1.2720  1.3204  0.4596
  692MOL0     H95496   2.671  10.077   5.113 -0.3444  1.3541 -0.7421
  693MOL0     O95497   8.001   5.663   9.483  0.9869  0.2075 -0.0521
  693MOL0     C95498   7.912   5.617   9.559  0.1925 -0.5509 -0.1874
  693MOL0     O95499   7.945   5.566   9.678 -0.8206 -0.3078  0.2438
  693MOL0     C95500   8.065   5.499   9.692 -0.0128 -0.1208 -0.0279
  693MOL0     C95501   8.170   5.545   9.775  1.1119  0.7653 -0.4799
  693MOL0     C95502   8.272   5.452   9.809 -0.0287 -0.4338 -0.1837
  693MOL0     C95503   8.286   5.323   9.748 -0.0506 -0.3239  0.4033
  693MOL0     O95504   8.382   5.231   9.780  0.0385 -0.8955  0.3725
  693MOL0     C95505   8.410   5.227   9.926  0.0712  0.7158  0.4303
  693MOL0     C95506   8.544   5.287   9.978  0.3769 -0.5812 -0.0402
  693MOL0     C95507   8.662   5.205   9.941  0.4915  0.2487  0.2309
  693MOL0     C95508   8.781   5.219  10.034 -0.6053  0.3379 -0.2099
  693MOL0     C95509   8.899   5.151   9.991  0.2079  0.9196 -0.8391
  693MOL0     C95510   9.015   5.152  10.091 -0.7724 -0.3051  0.4833
  693MOL0     C95511   9.109   5.038  10.068  0.2963  0.3673 -0.4435
  693MOL0     C95512   9.194   4.988  10.188 -0.1572 -0.4534 -0.3528
  693MOL0     N95513   9.236   4.853  10.187 -0.4416 -0.5367 -0.0357
  693MOL0     C95514   9.276   4.776  10.074 -0.3781  0.6097  0.2342
  693MOL0     C95515   9.276   4.644  10.114  0.6549 -0.4049  0.7906
  693MOL0     C95516   9.295   4.510  10.034  0.0901  0.2188 -0.9518
  693MOL0     C95517   9.422   4.437  10.088  0.4503  0.3066 -0.0179
  693MOL0     C95518   9.438   4.293  10.038 -0.1729  0.5521 -0.4272
  693MOL0     C95519   9.535   4.207  10.128 -0.0381 -0.5728  0.0263
  693MOL0     O95520   9.526   4.065  10.098 -0.0291 -0.3437  0.0533
  693MOL0     C95521   9.411   3.996  10.147 -0.7218 -0.8763 -0.2067
  693MOL0     C95522   9.302   4.042  10.223 -0.6959 -0.1939  0.5466
  693MOL0     C95523   9.196   3.963  10.257 -0.9610  1.0802 -0.4907
  693MOL0     C95524   9.080   4.029  10.330 -0.1600  0.4772  0.3184
  693MOL0     C95525   9.196   3.830  10.216 -0.4752  0.3909 -0.4365
  693MOL0     C95526   9.083   3.731  10.216  0.5904 -0.7376  0.9359
  693MOL0     O95527   9.110   3.603  10.170  0.1512 -0.0645 -0.0406
  693MOL0     C95528   9.009   3.508  10.164 -0.2335  0.3341 -0.5854
  693MOL0     C95529   8.919   3.482  10.273 -0.1438  1.2057  0.2812
  693MOL0     C95530   8.818   3.390  10.258 -0.0202  0.3334 -0.3892
  693MOL0     C95531   8.792   3.321  10.143  0.0644  0.4033  0.0741
  693MOL0     O95532   8.685   3.235  10.138  0.4359 -0.1560  0.2562
  693MOL0     C95533   8.628   3.187  10.014 -0.2837  0.2702  0.6749
  693MOL0     C95534   8.695   3.053   9.975 -0.0902 -0.2414  0.1870
  693MOL0     C95535   8.659   2.944  10.067 -0.5692 -0.3593 -0.7175
  693MOL0     C95536   8.695   2.803  10.006 -0.1195  0.1927  0.3239
  693MOL0     C95537   8.668   2.695  10.111  0.1486  0.2771 -0.4510
  693MOL0     C95538   8.520   2.658  10.146  0.2730 -0.5051  0.8755
  693MOL0     C95539   8.436   2.634  10.011  0.0293  0.1380 -1.0454
  693MOL0     C95540   8.286   2.642  10.057  0.2960 -0.8065  0.1022
  693MOL0    Cl95541   8.170   2.589   9.944 -0.1436 -0.1699 -0.2873
  693MOL0     C95542   8.877   3.349  10.035  0.7765 -0.2474  0.3015
  693MOL0     C95543   8.989   3.434  10.040 -0.6316 -0.0381 -0.0462
  693MOL0     O95544   8.971   3.769  10.251 -0.2837 -0.4015  0.5069
  693MOL0     C95545   9.311   3.782  10.149 -0.4438 -0.2074  0.5832
  693MOL0     C95546   9.418   3.869  10.112 -0.1609  0.6284  0.3507
  693MOL0     N95547   9.244   4.644  10.249  0.9226 -0.0015  0.1244
  693MOL0     N95548   9.234   4.764  10.296  0.3842  0.4952 -0.0403
  693MOL0     C95549   8.189   5.290   9.646 -0.3982  0.0147  0.3502
  693MOL0     C95550   8.080   5.376   9.617  0.6818 -0.0277  0.1041
  693MOL0     C95551   7.775   5.658   9.535 -0.2745  0.7041 -0.1784
  693MOL0     C95552   7.689   5.638   9.647  0.1321 -0.4535  0.6060
  693MOL0     C95553   7.555   5.676   9.638  0.0870  0.4893  0.2988
  693MOL0     C95554   7.502   5.729   9.521  0.3234  0.5753 -0.4639
  693MOL0     O95555   7.383   5.794   9.506 -0.2088  0.5089 -0.9549
  693MOL0     C95556   7.311   5.833   9.626 -0.2039  0.4074  0.6263
  693MOL0     C95557   7.187   5.903   9.581 -0.1546  0.0155 -0.2788
  693MOL0     C95558   7.220   6.049   9.544 -0.6340  0.7302  0.8345
  693MOL0     C95559   7.116   6.091   9.430 -0.9836 -0.2020 -0.3520
  693MOL0     C95560   6.987   6.097   9.504 -0.6122 -0.2202  1.0606
  693MOL0     C95561   6.888   6.084   9.574  0.6858  0.4122  0.1127
  693MOL0     C95562   7.584   5.731   9.401  1.0590  0.6339  0.5873
  693MOL0     C95563   7.719   5.695   9.410  1.3671 -0.7855  0.3080
  693MOL0     C95564   7.801   5.691   9.283 -0.5804 -0.3931  0.1351
  693MOL0     H95565   8.163   5.642   9.824  2.8782  2.2062 -2.8416
  693MOL0     H95566   8.346   5.488   9.879  0.0996 -0.2023 -0.4372
  693MOL0     H95567   8.396   5.124   9.959 -0.6314  1.2842  1.9891
  693MOL0     H95568   8.323   5.263   9.981 -0.3887  3.0845 -1.6437
  693MOL0     H95569   8.557   5.394   9.962  1.0950  0.0493  3.6679
  693MOL0     H95570   8.541   5.283  10.088 -0.0296 -0.6126 -0.0486
  693MOL0     H95571   8.624   5.102   9.943 -2.9919  1.4051 -0.8972
  693MOL0     H95572   8.689   5.242   9.842  2.3319  0.9632  0.9444
  693MOL0     H95573   8.802   5.324  10.059  1.1937  0.1924 -0.9574
  693MOL0     H95574   8.749   5.173  10.127  2.1632 -0.1335  0.6235
  693MOL0     H95575   8.931   5.188   9.893  0.1239  0.0348 -1.2032
  693MOL0     H95576   8.862   5.052   9.965  1.1811 -0.1787  1.6363
  693MOL0     H95577   9.065   5.247  10.070  0.1576 -1.1426 -1.3220
  693MOL0     H95578   8.977   5.148  10.193  0.5289 -1.7270  0.9354
  693MOL0     H95579   9.172   5.056   9.980 -1.6744 -1.1176 -2.2947
  693MOL0     H95580   9.052   4.951  10.033  2.4991 -1.3344 -0.0569
  693MOL0     H95581   9.284   5.049  10.172 -1.1940  1.5829  1.0604
  693MOL0     H95582   9.142   5.024  10.278 -0.9468 -2.7844  0.1975
  693MOL0     H95583   9.312   4.820   9.981 -0.0196 -0.0487  0.0536
  693MOL0     H95584   9.313   4.527   9.927  0.9396 -2.6457 -1.3355
  693MOL0     H95585   9.200   4.456  10.043  0.4041 -1.1116 -4.2636
  693MOL0     H95586   9.500   4.499  10.042 -0.2910  0.8553 -0.5622
  693MOL0     H95587   9.419   4.438  10.198  0.0045  1.0324 -0.0275
  693MOL0     H95588   9.345   4.237  10.051  0.9578 -1.5454 -0.8407
  693MOL0     H95589   9.478   4.284   9.936  1.9651 -1.4072  0.4948
  693MOL0     H95590   9.635   4.248  10.114  0.5613 -0.5886  3.4215
  693MOL0     H95591   9.514   4.220  10.235  0.2652  2.9794 -0.2296
  693MOL0     H95592   9.301   4.147  10.250 -1.9391 -1.0753  4.7842
  693MOL0     H95593   9.013   4.062  10.250  2.0989 -1.7132 -2.7474
  693MOL0     H95594   9.119   4.112  10.390  1.8393 -1.3667  1.7565
  693MOL0     H95595   9.030   3.971  10.408 -0.1306 -0.9602 -0.7023
  693MOL0     H95596   8.909   3.533  10.368  1.1442 -0.5816  1.4518
  693MOL0     H95597   8.754   3.377  10.345 -1.0829  0.3703 -1.1518
  693MOL0     H95598   8.519   3.180  10.021 -0.1864 -0.7235  1.4847
  693MOL0     H95599   8.649   3.268   9.943 -1.7294 -1.3582 -1.7147
  693MOL0     H95600   8.665   3.035   9.872 -3.1007  1.6337  0.6161
  693MOL0     H95601   8.804   3.057   9.985 -0.1456  1.3453  0.4029
  693MOL0     H95602   8.551   2.949  10.084 -0.1030  0.8429  2.6821
  693MOL0     H95603   8.701   2.966  10.166  0.5347 -0.5997 -1.1180
  693MOL0     H95604   8.800   2.792   9.977 -0.3762 -0.6548 -0.3147
  693MOL0     H95605   8.637   2.786   9.915 -1.3351 -1.8954  1.3985
  693MOL0     H95606   8.718   2.604  10.076 -0.7095 -0.2612 -0.3113
  693MOL0     H95607   8.722   2.712  10.205  0.3150  0.9876 -0.6697
  693MOL0     H95608   8.468   2.737  10.201 -1.4485 -1.2399  0.3732
  693MOL0     H95609   8.522   2.572  10.214 -0.9296 -0.0456  1.5316
  693MOL0     H95610   8.462   2.539   9.964  0.6825  0.2883 -1.0059
  693MOL0     H95611   8.457   2.717   9.943  3.3193  1.4921  1.3355
  693MOL0     H95612   8.263   2.746  10.081 -1.2460 -0.5415 -2.1916
  693MOL0     H95613   8.260   2.592  10.151 -0.9800  0.0563  0.2432
  693MOL0     H95614   8.849   3.305   9.940 -6.3271  0.0484  1.6769
  693MOL0     H95615   9.066   3.437   9.964  0.3928 -4.0933  0.6202
  693MOL0     H95616   9.320   3.684  10.102  4.1729  1.2809 -2.2578
  693MOL0     H95617   9.498   3.831  10.050 -1.5817  0.2285 -1.2944
  693MOL0     H95618   8.208   5.191   9.605  3.5826  0.7827 -0.0302
  693MOL0     H95619   8.014   5.330   9.544  0.5486 -1.9583  1.3430
  693MOL0     H95620   7.718   5.594   9.743 -2.2013 -1.8148  0.7785
  693MOL0     H95621   7.493   5.653   9.724  0.6090 -1.2402  0.2466
  693MOL0     H95622   7.269   5.744   9.676  0.2022 -0.4552 -0.5243
  693MOL0     H95623   7.372   5.890   9.696  1.1459 -0.0227 -0.1740
  693MOL0     H95624   7.108   5.896   9.656 -1.6427 -1.4782 -1.8756
  693MOL0     H95625   7.145   5.841   9.501  0.6335 -1.2129  0.2310
  693MOL0     H95626   7.231   6.110   9.635  1.0776  2.7754 -0.6473
  693MOL0     H95627   7.317   6.043   9.493 -0.7885 -3.8096  0.6990
  693MOL0     H95628   7.108   6.020   9.347  0.2982  0.6754 -1.2582
  693MOL0     H95629   7.129   6.193   9.394  1.9992 -0.3427  0.0591
  693MOL0     H95630   6.809   6.059   9.642 -0.7436  2.7667 -0.5517
  693MOL0     H95631   7.545   5.777   9.311  3.9492 -2.3867 -2.4913
  693MOL0     H95632   7.831   5.587   9.265 -1.3069 -0.6822  0.6033
  693MOL0     H95633   7.739   5.719   9.198  0.6962 -1.4248 -1.2036
  693MOL0     H95634   7.883   5.764   9.276 -2.1734  1.2873 -3.1131
  694MOL0     O95635  11.051  10.108   6.811  0.1682  0.6559  0.2300
  694MOL0     C95636  11.081  10.182   6.904  0.1823  0.3867 -1.0080
  694MOL0     O95637  11.075  10.138   7.033 -0.3113 -0.2216 -0.4175
  694MOL0     C95638  11.020  10.018   7.058  0.3428  0.7541  1.7674
  694MOL0     C95639  11.101   9.911   7.050 -0.4840  0.6580  0.5334
  694MOL0     C95640  11.049   9.784   7.083  0.2624  0.0922 -0.6449
  694MOL0     C95641  10.917   9.770   7.129  0.0955  0.3785 -0.4736
  694MOL0     O95642  10.853   9.652   7.154  0.4005 -0.1776  0.4332
  694MOL0     C95643  10.922   9.533   7.188 -0.9557  0.0304  0.5336
  694MOL0     C95644  10.833   9.425   7.232 -0.1457 -0.6211  0.4684
  694MOL0     C95645  10.769   9.354   7.109  1.1340  0.1833  0.4361
  694MOL0     C95646  10.673   9.260   7.180  0.2185 -0.5214  0.9820
  694MOL0     C95647  10.571   9.195   7.089  0.8263 -0.3006 -0.0684
  694MOL0     C95648  10.496   9.090   7.167 -1.2076 -0.9860  0.2689
  694MOL0     C95649  10.390   9.017   7.082 -0.3706 -0.6958 -0.6214
  694MOL0     C95650  10.262   9.105   7.068  0.8453  0.3504  0.5927
  694MOL0     N95651  10.186   9.128   7.192 -0.2656  0.3223 -0.5383
  694MOL0     C95652  10.139   9.256   7.223 -0.0656 -0.7857  0.0341
  694MOL0     C95653  10.055   9.227   7.326 -0.8412  0.4159  0.9350
  694MOL0     C95654   9.972   9.334   7.403 -0.4700  0.5200  0.5999
  694MOL0     C95655   9.962   9.292   7.554  0.5046  0.5656 -0.7660
  694MOL0     C95656   9.939   9.406   7.649 -0.4239 -0.9792 -0.3939
  694MOL0     C95657   9.799   9.471   7.622 -0.6043 -1.1906  0.4973
  694MOL0     O95658   9.691   9.373   7.642 -0.3762  0.1715  0.1238
  694MOL0     C95659   9.568   9.426   7.666 -0.6730 -0.6718 -0.7263
  694MOL0     C95660   9.535   9.560   7.653  0.4081 -0.0070 -1.0339
  694MOL0     C95661   9.405   9.616   7.669 -1.0247 -0.7198 -1.2851
  694MOL0     C95662   9.398   9.767   7.678 -0.1319  0.2414  0.0976
  694MOL0     C95663   9.297   9.527   7.699  0.4985 -0.4391 -0.7543
  694MOL0     C95664   9.153   9.558   7.717  0.8108 -0.0933 -0.3136
  694MOL0     O95665   9.098   9.662   7.657  0.6509  0.6648 -0.2249
  694MOL0     C95666   8.972   9.703   7.685 -0.2469  0.7838 -0.0917
  694MOL0     C95667   8.946   9.741   7.813 -1.2301 -0.2701  0.6248
  694MOL0     C95668   8.826   9.797   7.843 -0.3377  0.2960 -0.8041
  694MOL0     C95669   8.726   9.826   7.754  0.6004 -0.1936 -0.5978
  694MOL0     O95670   8.604   9.881   7.787 -1.0085  0.5119 -0.1099
  694MOL0     C95671   8.606   9.959   7.906  0.9636 -0.2574  0.6625
  694MOL0     C95672   8.477  10.021   7.907  0.4818  0.4996 -0.0626
  694MOL0     C95673   8.458  10.126   7.793 -0.4775 -0.1396 -0.3738
  694MOL0     C95674   8.313  10.174   7.789 -0.8142  0.5034  0.0865
  694MOL0     C95675   8.293  10.311   7.722 -0.0384  0.2804 -0.7793
  694MOL0     C95676   8.151  10.351   7.684  0.1180  0.0982 -0.5547
  694MOL0     C95677   8.110  10.317   7.538  0.1653  0.8402  0.0275
  694MOL0     C95678   7.962  10.345   7.508  0.0094 -0.3022  1.1750
  694MOL0    Cl95679   7.891  10.217   7.395 -0.0892  0.1123  0.2594
  694MOL0     C95680   8.758   9.808   7.615 -0.8189 -0.0199 -0.5333
  694MOL0     C95681   8.881   9.745   7.588 -0.3052 -0.0928 -0.6825
  694MOL0     O95682   9.093   9.483   7.791  0.4469 -0.9506  1.0143
  694MOL0     C95683   9.331   9.390   7.704  0.6909 -0.1074  1.1516
  694MOL0     C95684   9.462   9.339   7.685 -1.2247 -0.2572 -0.6947
  694MOL0     N95685  10.049   9.094   7.350  0.3991  0.0802 -0.2740
  694MOL0     N95686  10.126   9.031   7.261  0.6404 -0.5287 -0.8688
  694MOL0     C95687  10.830   9.882   7.122  1.0237  0.7151 -0.6112
  694MOL0     C95688  10.884  10.000   7.084  0.0845 -0.5359  0.8531
  694MOL0     C95689  11.148  10.301   6.859  0.5208  0.1419  0.5188
  694MOL0     C95690  11.110  10.357   6.730 -1.1244  0.1305  0.9719
  694MOL0     C95691  11.180  10.473   6.679  0.0455  0.6179  1.5448
  694MOL0     C95692  11.273  10.545   6.754 -0.3742 -0.4062 -0.3093
  694MOL0     O95693  11.319  10.671   6.705 -0.3310  0.8892 -0.8545
  694MOL0     C95694  11.437  10.730   6.759 -0.6514 -0.0654  0.3598
  694MOL0     C95695  11.483  10.838   6.658 -0.5712  0.2951 -0.8312
  694MOL0     C95696  11.527  10.794   6.529 -0.5958  1.0124  0.3082
  694MOL0     C95697  11.672  10.728   6.538  0.4836 -0.6104  0.8617
  694MOL0     C95698  11.780  10.832   6.576  0.3642  0.2817  0.6545
  694MOL0     C95699  11.845  10.922   6.608  0.2690 -0.5900  0.7240
  694MOL0     C95700  11.304  10.491   6.877  0.0987  0.2684  0.0541
  694MOL0     C95701  11.247  10.371   6.925  0.4187  0.0369 -0.1598
  694MOL0     C95702  11.282  10.339   7.072  0.0936 -0.0250  0.2127
  694MOL0     H95703  11.201   9.916   7.007 -1.3508  2.8351 -1.4242
  694MOL0     H95704  11.104   9.692   7.065  0.0432 -0.2439  0.3696
  694MOL0     H95705  10.987   9.563   7.271  0.0062 -0.2548 -0.0901
  694MOL0     H95706  10.999   9.496   7.119 -1.0482  0.7281  0.0380
  694MOL0     H95707  10.899   9.358   7.289  0.8921 -0.4744 -0.5256
  694MOL0     H95708  10.758   9.471   7.297  1.2900  2.7794 -0.0816
  694MOL0     H95709  10.705   9.431   7.066  1.8820  0.5587 -0.0302
  694MOL0     H95710  10.842   9.332   7.030  1.5138  1.1277  0.5093
  694MOL0     H95711  10.732   9.189   7.238  1.3900 -0.5228 -0.1631
  694MOL0     H95712  10.627   9.331   7.251  0.6703  1.4581 -0.6093
  694MOL0     H95713  10.608   9.149   6.998 -0.3779  0.5735 -1.0316
  694MOL0     H95714  10.508   9.278   7.054  1.4297  0.0798 -0.2738
  694MOL0     H95715  10.571   9.018   7.201 -2.7434 -2.2058  1.1927
  694MOL0     H95716  10.461   9.134   7.262  0.8620  1.2270  0.1070
  694MOL0     H95717  10.368   8.918   7.123 -1.9988 -0.5198 -0.9990
  694MOL0     H95718  10.432   8.991   6.984  0.6651 -0.0816 -0.3620
  694MOL0     H95719  10.293   9.200   7.023  3.0984  0.1895  1.6551
  694MOL0     H95720  10.195   9.055   6.998 -0.8534  0.5207  2.0160
  694MOL0     H95721  10.180   9.354   7.203 -0.4927 -0.8823 -1.4404
  694MOL0     H95722   9.875   9.350   7.355 -0.8049 -0.2500  1.0079
  694MOL0     H95723  10.040   9.420   7.398  0.2071 -0.0403 -3.5816
  694MOL0     H95724   9.878   9.222   7.552  0.3555  0.7610 -1.4969
  694MOL0     H95725  10.058   9.241   7.567  0.1269 -0.4703 -1.8852
  694MOL0     H95726   9.947   9.384   7.756  0.9055  4.0982  0.8150
  694MOL0     H95727  10.021   9.477   7.639 -0.8136 -0.1209  1.9735
  694MOL0     H95728   9.787   9.561   7.683 -1.7851 -1.2615  0.3840
  694MOL0     H95729   9.780   9.511   7.522 -1.4956 -0.5843  0.8974
  694MOL0     H95730   9.608   9.632   7.618  0.3811  0.5778  0.0683
  694MOL0     H95731   9.433   9.808   7.773 -2.3718  0.4716  0.8884
  694MOL0     H95732   9.295   9.801   7.663 -0.0808 -0.5976 -2.7604
  694MOL0     H95733   9.440   9.815   7.590  1.5194 -0.8446  0.2499
  694MOL0     H95734   9.020   9.738   7.892  1.5306  1.9934 -1.6457
  694MOL0     H95735   8.813   9.829   7.946 -1.8332  0.8361 -1.1286
  694MOL0     H95736   8.604   9.890   7.992 -0.9531 -2.5388 -1.0864
  694MOL0     H95737   8.681  10.038   7.894  2.4857 -1.7520 -0.1699
  694MOL0     H95738   8.390   9.955   7.905 -0.8552  2.2037 -0.4738
  694MOL0     H95739   8.466  10.073   8.003  0.1808  0.1598  0.0887
  694MOL0     H95740   8.497  10.098   7.695 -1.0449  1.8365 -1.2186
  694MOL0     H95741   8.523  10.211   7.817 -2.9401  1.1907  2.2340
  694MOL0     H95742   8.274  10.198   7.889 -2.5964  1.6299 -0.8215
  694MOL0     H95743   8.252  10.094   7.745 -2.6351  1.3393  1.0020
  694MOL0     H95744   8.351  10.387   7.776  0.9363  1.0412 -2.8117
  694MOL0     H95745   8.355  10.317   7.632 -2.6791  1.4482 -2.6519
  694MOL0     H95746   8.141  10.460   7.686 -2.3283 -0.0678  1.1110
  694MOL0     H95747   8.080  10.320   7.761 -1.0278  4.0408  0.2104
  694MOL0     H95748   8.127  10.209   7.534  4.4897  1.2366  1.8043
  694MOL0     H95749   8.186  10.355   7.469  2.5656 -4.2633 -0.6401
  694MOL0     H95750   7.948  10.446   7.468 -1.9439 -0.3069  1.7463
  694MOL0     H95751   7.906  10.339   7.602 -1.2219 -2.4466  0.3690
  694MOL0     H95752   8.691   9.821   7.530  0.1377 -1.9796 -1.6726
  694MOL0     H95753   8.894   9.709   7.486 -2.7578  0.7801 -1.3539
  694MOL0     H95754   9.264   9.310   7.733 -1.5050 -0.3020 -3.5430
  694MOL0     H95755   9.479   9.231   7.685 -3.4725 -0.7262  1.9887
  694MOL0     H95756  10.722   9.874   7.123  0.8178  2.0150 -3.4005
  694MOL0     H95757  10.817  10.083   7.061 -0.9241 -0.7286  2.8691
  694MOL0     H95758  11.028  10.324   6.667 -2.1426  1.4249  1.5887
  694MOL0     H95759  11.166  10.503   6.576  2.2231 -5.6901 -1.1267
  694MOL0     H95760  11.418  10.769   6.859 -1.8072  1.3984 -0.3880
  694MOL0     H95761  11.520  10.659   6.763 -0.0093  0.5713 -0.9520
  694MOL0     H95762  11.565  10.895   6.703 -0.5679  0.5201 -1.1205
  694MOL0     H95763  11.399  10.909   6.649 -0.9300  0.0892  0.6172
  694MOL0     H95764  11.454  10.722   6.490 -1.5434  1.1400  1.7721
  694MOL0     H95765  11.541  10.877   6.460  2.4365 -0.0107 -0.4639
  694MOL0     H95766  11.703  10.690   6.440  0.6301 -0.4744  0.8538
  694MOL0     H95767  11.666  10.645   6.609  3.3323  0.2781  2.3279
  694MOL0     H95768  11.907  11.001   6.645 -0.5973 -0.2822  1.5659
  694MOL0     H95769  11.376  10.545   6.938  0.3816 -1.0139  0.8860
  694MOL0     H95770  11.307  10.233   7.086 -0.2945 -0.0471  0.7541
  694MOL0     H95771  11.364  10.405   7.105  0.3199 -1.1692  2.0714
  694MOL0     H95772  11.201  10.359   7.141 -0.3083  2.2964 -0.8468
  695MOL0     O95773   6.343   5.097   2.239  0.1017  0.3991  0.0432
  695MOL0     C95774   6.316   5.205   2.285 -0.5896  0.4078 -0.4166
  695MOL0     O95775   6.378   5.321   2.250  0.9316  0.8397 -0.5126
  695MOL0     C95776   6.483   5.322   2.167 -0.2043  0.7491 -0.0226
  695MOL0     C95777   6.601   5.264   2.214 -0.1902 -0.6797  0.2118
  695MOL0     C95778   6.718   5.269   2.134  0.3801 -0.3128  0.1722
  695MOL0     C95779   6.716   5.330   2.011 -0.7786  0.3907  0.2333
  695MOL0     O95780   6.823   5.340   1.931 -0.0602  0.4478 -0.3649
  695MOL0     C95781   6.810   5.362   1.794 -0.4051 -0.8153  1.1566
  695MOL0     C95782   6.934   5.297   1.729  0.2789  0.2755  0.7123
  695MOL0     C95783   6.931   5.294   1.569  0.7890 -0.0190  0.8090
  695MOL0     C95784   6.922   5.432   1.504 -0.5558  0.2765  0.4965
  695MOL0     C95785   7.055   5.508   1.526 -0.2933 -0.8426 -0.1488
  695MOL0     C95786   7.047   5.664   1.507 -0.3910  0.5758 -0.2837
  695MOL0     C95787   7.020   5.702   1.353  0.4850 -0.8604  0.4549
  695MOL0     C95788   6.988   5.851   1.335 -0.2389  0.0699 -0.5395
  695MOL0     N95789   6.860   5.896   1.355 -0.8947 -0.0716  0.4250
  695MOL0     C95790   6.793   5.898   1.480 -0.3453  0.4922  0.0032
  695MOL0     C95791   6.663   5.932   1.456  0.3661 -0.1220  0.1118
  695MOL0     C95792   6.566   5.946   1.567 -0.2258  0.3647  0.3293
  695MOL0     C95793   6.457   5.828   1.576 -0.5332  0.0262  0.3704
  695MOL0     C95794   6.508   5.684   1.592  0.7231  0.4979 -0.2109
  695MOL0     C95795   6.395   5.586   1.561 -0.9203  0.4730 -0.2285
  695MOL0     O95796   6.419   5.454   1.600  1.1782 -0.0025 -0.2597
  695MOL0     C95797   6.316   5.377   1.651 -0.1364  0.4458 -0.0444
  695MOL0     C95798   6.354   5.264   1.723  0.2120  0.4358 -0.7149
  695MOL0     C95799   6.263   5.194   1.803  0.3143 -0.5639 -0.1767
  695MOL0     C95800   6.295   5.080   1.892 -0.5593  0.1107  0.1406
  695MOL0     C95801   6.121   5.232   1.782 -0.1223  0.1681 -0.4069
  695MOL0     C95802   6.002   5.141   1.836 -0.0893 -0.4749 -0.0903
  695MOL0     O95803   5.871   5.185   1.803  0.1080 -0.5885  0.3814
  695MOL0     C95804   5.758   5.150   1.884  0.0428  0.4882  0.4160
  695MOL0     C95805   5.740   5.054   1.984 -0.2939  0.2976 -0.6236
  695MOL0     C95806   5.616   5.014   2.033  0.7064 -0.3272 -0.8420
  695MOL0     C95807   5.496   5.081   1.990 -0.4272 -0.2994 -0.1308
  695MOL0     O95808   5.378   5.039   2.045 -0.1595 -0.6221  0.5365
  695MOL0     C95809   5.264   5.126   2.031 -0.0096 -0.8631 -0.0901
  695MOL0     C95810   5.140   5.083   2.128 -0.8527 -0.3007  0.3976
  695MOL0     C95811   5.208   5.057   2.265  0.3923  0.7321 -0.8177
  695MOL0     C95812   5.109   5.047   2.382  0.4985  0.9259 -0.2369
  695MOL0     C95813   4.987   4.943   2.360  0.2902 -0.1099 -1.3292
  695MOL0     C95814   5.018   4.815   2.437  0.8320 -0.0085 -0.2483
  695MOL0     C95815   4.909   4.705   2.411 -0.0484  0.2377  0.0825
  695MOL0     C95816   4.764   4.747   2.435 -0.9319 -0.3146  0.2496
  695MOL0    Cl95817   4.669   4.592   2.428 -0.6694  0.2265 -0.2011
  695MOL0     C95818   5.515   5.169   1.881  0.0893 -0.0036 -0.0124
  695MOL0     C95819   5.639   5.206   1.832  0.0617  0.9158 -0.3321
  695MOL0     O95820   6.027   5.042   1.896  0.5872 -0.3470  0.2190
  695MOL0     C95821   6.090   5.331   1.700 -0.1778 -0.6370  0.3321
  695MOL0     C95822   6.185   5.405   1.637 -0.3509  1.0917  0.2165
  695MOL0     N95823   6.648   5.951   1.319  0.8031 -0.1764  0.0504
  695MOL0     N95824   6.767   5.941   1.271  0.3867 -0.2673 -0.1075
  695MOL0     C95825   6.588   5.381   1.970 -0.2224  0.1383  0.1586
  695MOL0     C95826   6.479   5.384   2.050  0.9315  0.8071 -0.2475
  695MOL0     C95827   6.235   5.211   2.408 -0.4354 -0.0395 -0.0999
  695MOL0     C95828   6.285   5.297   2.511  0.7837  0.1757  0.4066
  695MOL0     C95829   6.232   5.291   2.638 -0.1490 -0.7825 -0.1076
  695MOL0     C95830   6.105   5.229   2.658  0.2515  0.2350 -0.2376
  695MOL0     O95831   6.052   5.232   2.785 -0.0895 -0.5149  0.2087
  695MOL0     C95832   5.941   5.159   2.829 -0.5947  0.7599 -0.0438
  695MOL0     C95833   5.802   5.237   2.818 -0.1907 -0.3984  0.9409
  695MOL0     C95834   5.694   5.190   2.902 -0.5929 -0.4323 -0.3697
  695MOL0     C95835   5.699   5.239   3.054 -0.8890  0.6550 -0.1079
  695MOL0     C95836   5.692   5.383   3.044 -0.1044 -1.1988 -0.1790
  695MOL0     C95837   5.694   5.511   3.041 -0.2819 -0.4579  0.5214
  695MOL0     C95838   6.059   5.148   2.563 -0.4596  0.4216 -0.1109
  695MOL0     C95839   6.125   5.128   2.435 -1.2744 -0.2167  0.6333
  695MOL0     C95840   6.060   5.049   2.324  0.0150  0.6808  0.2948
  695MOL0     H95841   6.595   5.228   2.316  2.2153  5.1229  2.8730
  695MOL0     H95842   6.815   5.240   2.171  0.9241  2.5331  1.1980
  695MOL0     H95843   6.809   5.469   1.771  0.2278 -0.2722  3.3983
  695MOL0     H95844   6.716   5.328   1.750 -1.2909 -0.6263  2.8187
  695MOL0     H95845   7.033   5.338   1.754 -0.0801  0.8876  1.1574
  695MOL0     H95846   6.950   5.192   1.755 -0.5695 -0.5024 -1.6052
  695MOL0     H95847   7.013   5.232   1.531  0.1985  0.0115 -0.5744
  695MOL0     H95848   6.845   5.233   1.538  1.6781 -0.2917 -1.2977
  695MOL0     H95849   6.896   5.423   1.398 -4.2054  1.6915  1.1148
  695MOL0     H95850   6.838   5.490   1.542  0.1329  3.5643 -2.4979
  695MOL0     H95851   7.121   5.475   1.445  0.2012  0.1628 -0.1694
  695MOL0     H95852   7.108   5.490   1.620 -1.6040 -0.1948  0.7567
  695MOL0     H95853   6.973   5.706   1.577 -2.2796  0.0250 -1.8497
  695MOL0     H95854   7.144   5.712   1.518 -0.2374  0.1109  0.3919
  695MOL0     H95855   6.936   5.642   1.317  0.0179  1.5815 -3.0191
  695MOL0     H95856   7.105   5.665   1.295 -0.9027  1.8943 -3.8351
  695MOL0     H95857   7.058   5.904   1.400  2.5536 -2.2689 -1.3842
  695MOL0     H95858   7.014   5.872   1.231 -4.6661 -0.3554 -1.9571
  695MOL0     H95859   6.840   5.885   1.577  0.0069 -0.5262 -0.2958
  695MOL0     H95860   6.505   6.030   1.532  1.2465  0.3041 -2.7463
  695MOL0     H95861   6.621   5.963   1.659  1.0720  1.4268 -0.6190
  695MOL0     H95862   6.384   5.847   1.656  1.9669  0.7357  2.6434
  695MOL0     H95863   6.397   5.828   1.485 -2.4101 -2.5055  1.4909
  695MOL0     H95864   6.586   5.647   1.525  1.4359 -3.4730  2.5185
  695MOL0     H95865   6.545   5.678   1.695  1.2267 -0.4401 -0.4417
  695MOL0     H95866   6.308   5.614   1.621  0.2535  1.0878  1.2532
  695MOL0     H95867   6.354   5.595   1.460 -1.8123  1.7104  0.2203
  695MOL0     H95868   6.457   5.234   1.716  0.0067 -0.2391 -0.8512
  695MOL0     H95869   6.239   5.072   1.986 -2.6299 -1.1932 -1.1311
  695MOL0     H95870   6.400   5.096   1.919  0.2608 -1.4938 -1.8447
  695MOL0     H95871   6.286   4.987   1.836  3.4385  0.1062 -0.7706
  695MOL0     H95872   5.829   5.005   2.022  0.1517 -1.0959 -3.2409
  695MOL0     H95873   5.608   4.927   2.098  1.7018 -1.0665 -1.6809
  695MOL0     H95874   5.298   5.227   2.055 -0.4084 -0.4026 -1.3810
  695MOL0     H95875   5.219   5.129   1.931  0.9398  1.5139 -0.5340
  695MOL0     H95876   5.064   5.162   2.134 -0.1367  0.3311  1.7532
  695MOL0     H95877   5.098   4.990   2.089 -0.6439  0.4371 -1.7153
  695MOL0     H95878   5.276   5.138   2.293  1.2984  0.4666 -2.1531
  695MOL0     H95879   5.263   4.963   2.257 -2.2623 -0.7893 -4.5130
  695MOL0     H95880   5.062   5.145   2.396 -1.8240  0.4606 -3.5989
  695MOL0     H95881   5.163   5.027   2.475 -1.9149 -0.6775  0.9193
  695MOL0     H95882   4.895   4.983   2.404 -0.7302 -3.4626 -0.0383
  695MOL0     H95883   4.966   4.922   2.254 -0.8671  2.3327 -1.6598
  695MOL0     H95884   5.041   4.823   2.544 -0.4648  0.5747  0.0053
  695MOL0     H95885   5.106   4.784   2.380  0.9723 -0.3349  0.1478
  695MOL0     H95886   4.935   4.615   2.468  3.6199  0.8936 -0.2841
  695MOL0     H95887   4.913   4.680   2.305 -2.6191  0.4310 -0.1148
  695MOL0     H95888   4.727   4.819   2.362  0.9322 -0.5426 -1.0073
  695MOL0     H95889   4.753   4.802   2.528  0.2171  1.9811 -0.8942
  695MOL0     H95890   5.427   5.223   1.848 -0.0693 -0.0601  0.3214
  695MOL0     H95891   5.648   5.272   1.745  4.1951 -0.0169 -0.7845
  695MOL0     H95892   5.986   5.353   1.679  0.1318 -0.9060 -1.6929
  695MOL0     H95893   6.148   5.474   1.561 -1.8738 -1.4447 -1.4937
  695MOL0     H95894   6.573   5.453   1.891 -1.7117 -0.5372 -0.2120
  695MOL0     H95895   6.380   5.412   2.015  1.0680 -0.3563 -1.6802
  695MOL0     H95896   6.377   5.346   2.479  1.5343 -2.2028 -1.4481
  695MOL0     H95897   6.265   5.357   2.717 -0.5239  1.8077 -2.0119
  695MOL0     H95898   5.942   5.057   2.789  1.1809  0.9783 -0.6555
  695MOL0     H95899   5.951   5.146   2.937 -1.4792  1.6200  0.1566
  695MOL0     H95900   5.770   5.228   2.714 -0.5845 -0.2054  1.0430
  695MOL0     H95901   5.820   5.344   2.829 -2.1666 -0.0760  1.4290
  695MOL0     H95902   5.605   5.236   2.859 -1.4748  0.3479  2.1181
  695MOL0     H95903   5.693   5.080   2.906  0.2533 -0.4226  2.2055
  695MOL0     H95904   5.788   5.208   3.110 -0.5675 -1.3702 -1.6401
  695MOL0     H95905   5.617   5.192   3.109  0.5460 -3.5735 -1.1954
  695MOL0     H95906   5.686   5.617   3.028 -0.1030 -0.2572  1.9567
  695MOL0     H95907   5.968   5.096   2.590 -2.5651  3.6674 -0.4591
  695MOL0     H95908   5.951   5.058   2.327 -0.0337 -0.0531  1.1864
  695MOL0     H95909   6.087   5.082   2.223  0.8867  1.0851  0.6504
  695MOL0     H95910   6.074   4.942   2.344 -0.1858  0.2220 -1.7630
  696MOL0     O95911  11.452   8.558   3.604  0.0314 -0.4115  0.0972
  696MOL0     C95912  11.475   8.582   3.724  0.3585  1.0213 -0.0087
  696MOL0     O95913  11.523   8.698   3.770  0.1620  0.0226 -0.2429
  696MOL0     C95914  11.588   8.777   3.685 -1.4408  0.3511  0.5202
  696MOL0     C95915  11.505   8.877   3.625 -0.2026  0.1678  0.2054
  696MOL0     C95916  11.563   8.969   3.541 -0.5281 -0.7459  0.2486
  696MOL0     C95917  11.696   8.952   3.500  0.4354 -0.4407 -0.3630
  696MOL0     O95918  11.768   9.024   3.397  0.0148 -0.0239  0.4132
  696MOL0     C95919  11.749   9.168   3.387 -0.8094  1.2054 -0.0280
  696MOL0     C95920  11.687   9.231   3.265 -0.6459 -0.4814 -0.0006
  696MOL0     C95921  11.774   9.201   3.148 -0.0685 -0.3091 -0.1609
  696MOL0     C95922  11.922   9.263   3.162 -0.8868 -0.1067  1.8011
  696MOL0     C95923  11.958   9.273   3.016  1.4986  0.0221  0.3560
  696MOL0     C95924  12.103   9.307   3.018 -0.7666 -0.7544  0.3394
  696MOL0     C95925  12.133   9.393   2.894 -0.1400  0.3235  0.4161
  696MOL0     C95926  12.110   9.314   2.762  0.5251 -0.8284  0.8181
  696MOL0     N95927  12.145   9.389   2.640 -0.0329 -0.1526  0.2304
  696MOL0     C95928  12.069   9.489   2.600  0.8796 -0.1449  0.0992
  696MOL0     C95929  12.123   9.508   2.475  0.7337  0.1464 -0.0330
  696MOL0     C95930  12.083   9.610   2.366  0.7245 -0.4596  0.6780
  696MOL0     C95931  12.203   9.684   2.306 -0.7229  1.1321 -1.0075
  696MOL0     C95932  12.186   9.731   2.157 -0.4625 -0.2435 -0.2853
  696MOL0     C95933  12.075   9.832   2.140  0.3185 -0.1332  0.2132
  696MOL0     O95934  12.102   9.945   2.226 -0.3403  0.1345  0.0696
  696MOL0     C95935  12.005  10.034   2.241  0.5235 -0.6286  0.0973
  696MOL0     C95936  11.942  10.047   2.366  0.0492 -0.1356  0.4276
  696MOL0     C95937  11.836  10.133   2.390 -0.1072  0.7326 -0.0704
  696MOL0     C95938  11.774  10.144   2.531 -1.2285 -0.6848  0.3304
  696MOL0     C95939  11.790  10.216   2.281 -0.3036  0.2919 -0.8416
  696MOL0     C95940  11.691  10.326   2.300  0.4342 -0.9218  0.5988
  696MOL0     O95941  11.700  10.403   2.417 -0.3669  0.4887  0.1124
  696MOL0     C95942  11.639  10.525   2.426  0.2852  1.3307  0.3046
  696MOL0     C95943  11.639  10.592   2.546  0.3884  0.5219 -0.1088
  696MOL0     C95944  11.587  10.723   2.564  0.4735 -0.4023 -0.4962
  696MOL0     C95945  11.530  10.794   2.457 -0.3481 -0.3136 -0.2029
  696MOL0     O95946  11.459  10.915   2.464 -0.4424  0.2655 -0.0985
  696MOL0     C95947  11.510  10.994   2.565  0.2160  0.1480  1.1791
  696MOL0     C95948  11.452  11.137   2.553  0.6319 -0.1251 -0.2222
  696MOL0     C95949  11.296  11.148   2.522  0.1060  0.3795  0.3802
  696MOL0     C95950  11.239  11.291   2.486 -0.4407  0.6484 -0.0011
  696MOL0     C95951  11.242  11.301   2.338  0.4474  0.3208  0.1618
  696MOL0     C95952  11.160  11.427   2.292 -0.9369  0.5633  0.2521
  696MOL0     C95953  11.125  11.423   2.143 -1.3338  0.8459 -0.0716
  696MOL0     C95954  11.198  11.535   2.077 -0.3058 -0.5230 -0.5280
  696MOL0    Cl95955  11.376  11.515   2.063  0.2233  0.5598  0.1369
  696MOL0     C95956  11.527  10.726   2.339  0.1994 -0.2254  0.8601
  696MOL0     C95957  11.576  10.598   2.325 -0.5420 -0.3614  0.3360
  696MOL0     O95958  11.610  10.343   2.211  0.0378 -0.0031  0.6069
  696MOL0     C95959  11.835  10.184   2.156 -0.1518  0.6108  0.3073
  696MOL0     C95960  11.942  10.097   2.134  0.3881 -0.7169 -0.3294
  696MOL0     N95961  12.245   9.445   2.468 -0.0344 -0.1891 -0.3665
  696MOL0     N95962  12.251   9.360   2.567  0.4036 -0.2520 -0.3306
  696MOL0     C95963  11.769   8.840   3.547  0.3813 -0.2025  0.9350
  696MOL0     C95964  11.722   8.750   3.642  0.3118  0.4072 -0.7990
  696MOL0     C95965  11.422   8.479   3.822  0.4520 -0.2820  0.5293
  696MOL0     C95966  11.369   8.359   3.768 -0.3167 -0.1344  0.1123
  696MOL0     C95967  11.307   8.261   3.845 -1.3903 -0.1180  0.5997
  696MOL0     C95968  11.287   8.278   3.980 -0.7158  0.3354  0.5298
  696MOL0     O95969  11.206   8.178   4.033 -0.6863 -0.0185  0.2786
  696MOL0     C95970  11.112   8.223   4.125  1.2786 -0.3024  0.6097
  696MOL0     C95971  11.001   8.276   4.044  1.3069  0.6688 -0.3468
  696MOL0     C95972  10.859   8.251   4.102 -1.2655  0.2012 -0.1229
  696MOL0     C95973  10.765   8.327   4.013  0.5032  0.6299  1.0478
  696MOL0     C95974  10.633   8.271   4.020 -0.3888 -0.5149 -0.5490
  696MOL0     C95975  10.520   8.223   4.016  0.0156 -0.6896 -0.1267
  696MOL0     C95976  11.343   8.393   4.038  0.7481  0.1276 -0.2748
  696MOL0     C95977  11.413   8.481   3.966 -1.4435  0.1642 -0.1398
  696MOL0     C95978  11.493   8.592   4.047  0.5780  0.2935  0.6408
  696MOL0     H95979  11.404   8.903   3.656 -0.0531  2.1305 -0.7615
  696MOL0     H95980  11.506   9.055   3.507 -0.6858  0.5444  3.4485
  696MOL0     H95981  11.845   9.216   3.407  1.0141 -2.6145  1.2902
  696MOL0     H95982  11.690   9.201   3.473  0.0432  1.3977  0.4872
  696MOL0     H95983  11.580   9.210   3.256 -0.8584 -0.9469  2.6241
  696MOL0     H95984  11.691   9.339   3.280  5.2593 -0.5308  1.1180
  696MOL0     H95985  11.782   9.092   3.144  2.6933 -0.2586  1.6954
  696MOL0     H95986  11.726   9.249   3.062 -2.0499 -1.4830  0.2116
  696MOL0     H95987  11.922   9.364   3.201 -0.7359  1.4981 -1.9114
  696MOL0     H95988  11.990   9.195   3.214 -1.4746 -1.5792  0.7332
  696MOL0     H95989  11.907   9.353   2.962  4.1669  0.0700 -2.3144
  696MOL0     H95990  11.929   9.180   2.967  1.0538 -0.8110  2.0962
  696MOL0     H95991  12.157   9.357   3.099  0.1307  2.9486 -2.2903
  696MOL0     H95992  12.158   9.212   3.015 -1.1350 -1.0408  1.6518
  696MOL0     H95993  12.236   9.429   2.895 -0.0278  0.1762 -1.4497
  696MOL0     H95994  12.082   9.489   2.900  0.9792  0.9205  0.4713
  696MOL0     H95995  12.161   9.217   2.773  0.4626 -1.1265 -1.1855
  696MOL0     H95996  12.008   9.283   2.737  0.4751  0.0815 -0.1718
  696MOL0     H95997  11.970   9.511   2.637  0.7468  1.1667 -0.9580
  696MOL0     H95998  12.031   9.693   2.416  0.1129 -0.7498  0.5350
  696MOL0     H95999  12.021   9.565   2.288 -0.1778 -1.4560  1.9247
  696MOL0     H96000  12.225   9.780   2.354 -1.1516  1.3031 -1.1426
  696MOL0     H96001  12.287   9.621   2.335 -1.4278  1.8716  3.4604
  696MOL0     H96002  12.282   9.780   2.136 -1.0887  2.0191  1.6913
  696MOL0     H96003  12.170   9.642   2.095  0.0517 -1.8870  1.7781
  696MOL0     H96004  12.069   9.864   2.036 -4.0564 -0.3069  0.2161
  696MOL0     H96005  11.980   9.791   2.177 -0.1796  1.4396  0.7725
  696MOL0     H96006  11.982   9.975   2.437  1.3407 -1.8299 -1.8806
  696MOL0     H96007  11.840  10.201   2.597 -3.9807  3.3956 -0.1000
  696MOL0     H96008  11.771  10.043   2.573  3.4675 -1.8399 -1.4268
  696MOL0     H96009  11.685  10.207   2.529 -1.1141 -0.5335 -0.4973
  696MOL0     H96010  11.678  10.540   2.633  0.5738 -1.0437 -1.0949
  696MOL0     H96011  11.597  10.753   2.668 -1.4589 -2.3198  0.3219
  696MOL0     H96012  11.521  10.944   2.662  2.8364 -1.2650  0.2475
  696MOL0     H96013  11.612  11.027   2.542 -0.4168  2.0214  0.8994
  696MOL0     H96014  11.476  11.194   2.643 -0.2140  0.6221 -0.4565
  696MOL0     H96015  11.501  11.175   2.463 -1.5568 -0.8953 -1.8452
  696MOL0     H96016  11.246  11.121   2.616  1.6283  2.5338  1.9338
  696MOL0     H96017  11.268  11.065   2.456  4.7060 -1.6025  0.5553
  696MOL0     H96018  11.314  11.367   2.512  0.2924 -0.6938  2.1513
  696MOL0     H96019  11.141  11.302   2.533 -0.3138  0.7973  0.2308
  696MOL0     H96020  11.347  11.303   2.307  0.2283 -4.1971 -1.6602
  696MOL0     H96021  11.216  11.207   2.288  1.3168  0.2425 -0.1694
  696MOL0     H96022  11.223  11.512   2.319 -1.1608  0.0068  2.7497
  696MOL0     H96023  11.061  11.439   2.337 -2.3110 -1.2713 -2.0513
  696MOL0     H96024  11.016  11.432   2.131 -1.7125 -1.8041  0.8165
  696MOL0     H96025  11.154  11.332   2.091 -4.1353  0.3076 -0.8662
  696MOL0     H96026  11.184  11.629   2.130 -1.4076 -0.7331 -0.4237
  696MOL0     H96027  11.160  11.542   1.975  2.8282 -1.7441 -1.8877
  696MOL0     H96028  11.486  10.771   2.249  1.1394 -0.9998  0.0171
  696MOL0     H96029  11.559  10.563   2.223 -1.9725 -0.2476  0.5252
  696MOL0     H96030  11.798  10.238   2.069 -0.2609  0.2457  0.1265
  696MOL0     H96031  11.987  10.091   2.036 -0.5395 -1.5994 -0.7124
  696MOL0     H96032  11.866   8.832   3.497 -0.7482 -0.5468 -1.3418
  696MOL0     H96033  11.777   8.666   3.682 -1.6407  0.3153  1.9512
  696MOL0     H96034  11.365   8.339   3.662  3.8156  1.9742 -0.6536
  696MOL0     H96035  11.261   8.176   3.794  0.2868 -1.3206  0.9876
  696MOL0     H96036  11.093   8.142   4.196  0.9946 -3.2143 -2.5281
  696MOL0     H96037  11.137   8.309   4.187 -0.5286  1.9476 -1.5697
  696MOL0     H96038  11.003   8.223   3.948 -2.0795  0.9513 -0.6670
  696MOL0     H96039  11.027   8.376   4.008  1.4701  0.9638  0.5686
  696MOL0     H96040  10.843   8.143   4.099 -1.3580  0.2077  0.1864
  696MOL0     H96041  10.851   8.286   4.205  0.3374 -1.1374  0.4890
  696MOL0     H96042  10.787   8.314   3.907 -1.5187 -1.6228  0.7965
  696MOL0     H96043  10.755   8.431   4.044  2.8059  0.5321  2.3677
  696MOL0     H96044  10.432   8.170   3.986  0.5170 -1.2524 -0.6278
  696MOL0     H96045  11.332   8.412   4.144 -0.8387 -1.5082 -0.0809
  696MOL0     H96046  11.498   8.562   4.153 -0.0576  4.4996  2.0521
  696MOL0     H96047  11.592   8.608   4.006  0.2091 -3.6678 -2.4376
  696MOL0     H96048  11.442   8.689   4.041 -0.2091 -0.1088  0.6111
  697MOL0     O96049   4.875   8.457   8.121 -0.5086 -0.7645 -0.5668
  697MOL0     C96050   4.754   8.446   8.137 -0.4608 -0.1753  0.0813
  697MOL0     O96051   4.676   8.550   8.170  0.3366 -1.0878 -0.4888
  697MOL0     C96052   4.714   8.681   8.142 -0.2627  0.9517  0.0314
  697MOL0     C96053   4.661   8.743   8.025 -0.4939 -0.4878 -0.4800
  697MOL0     C96054   4.681   8.880   7.999 -1.6130 -1.3997 -0.1769
  697MOL0     C96055   4.771   8.955   8.091  0.9091 -0.7503  0.6020
  697MOL0     O96056   4.797   9.087   8.097  0.0172  0.0623  0.4019
  697MOL0     C96057   4.747   9.167   7.992  0.5170 -0.5502  0.2958
  697MOL0     C96058   4.807   9.305   8.009  0.2418 -1.5015  0.5447
  697MOL0     C96059   4.952   9.304   7.957  0.0767 -0.0281  0.3497
  697MOL0     C96060   5.046   9.213   8.036  0.1916 -0.7219  1.2981
  697MOL0     C96061   5.193   9.282   8.036  0.3084  0.2128  0.1073
  697MOL0     C96062   5.204   9.428   8.078  0.1871 -0.0145 -0.1515
  697MOL0     C96063   5.343   9.464   8.149 -0.0345  0.0687 -1.0320
  697MOL0     C96064   5.326   9.596   8.222 -0.2219  0.3975  1.0476
  697MOL0     N96065   5.459   9.639   8.268 -0.4469 -0.4074 -0.7753
  697MOL0     C96066   5.554   9.716   8.201 -0.0310  0.4153  1.0244
  697MOL0     C96067   5.652   9.752   8.285  0.5888 -0.2802 -0.4854
  697MOL0     C96068   5.764   9.849   8.247 -0.1181  1.0930 -0.7222
  697MOL0     C96069   5.873   9.778   8.145  0.1330 -1.3474 -0.8897
  697MOL0     C96070   5.940   9.650   8.201  0.2991 -0.3114 -0.1859
  697MOL0     C96071   5.990   9.674   8.351  0.0954 -0.4352  0.8326
  697MOL0     O96072   6.076   9.578   8.408  0.1199 -0.4280  0.2758
  697MOL0     C96073   6.038   9.447   8.422  0.4870  0.1165  0.5843
  697MOL0     C96074   5.910   9.417   8.458  0.3624 -0.6024 -0.5421
  697MOL0     C96075   5.865   9.291   8.495  0.8681 -0.3410  1.1259
  697MOL0     C96076   5.725   9.290   8.545 -0.1312 -0.3932 -0.1137
  697MOL0     C96077   5.950   9.183   8.480 -0.1967  0.9184  0.1865
  697MOL0     C96078   5.908   9.040   8.515  1.3849  0.3358  0.4028
  697MOL0     O96079   5.804   8.992   8.444  0.5888 -0.1828  0.0173
  697MOL0     C96080   5.738   8.876   8.478  0.3738  0.1949  1.2493
  697MOL0     C96081   5.712   8.798   8.369  0.6379  0.4150 -0.6394
  697MOL0     C96082   5.632   8.679   8.396  0.1360 -0.8465 -0.3530
  697MOL0     C96083   5.579   8.658   8.525  1.1410  0.3837  0.0538
  697MOL0     O96084   5.500   8.558   8.558 -1.0891  0.1835  0.0042
  697MOL0     C96085   5.580   8.445   8.589  0.5021  0.2969  0.3112
  697MOL0     C96086   5.521   8.327   8.505 -0.2667  0.8109 -0.5911
  697MOL0     C96087   5.608   8.209   8.544 -0.5267 -0.1452 -0.0946
  697MOL0     C96088   5.558   8.097   8.461  0.1352  0.0046  0.0913
  697MOL0     C96089   5.627   7.961   8.471 -0.7665  0.3731  0.3453
  697MOL0     C96090   5.584   7.872   8.585 -0.1133  0.3704  0.6827
  697MOL0     C96091   5.678   7.754   8.590 -0.7904 -0.7923  0.1774
  697MOL0     C96092   5.611   7.638   8.656  0.8642  0.3331  0.6254
  697MOL0    Cl96093   5.497   7.584   8.533 -0.0797  0.3175 -0.0491
  697MOL0     C96094   5.593   8.742   8.628  0.9996 -0.4637  0.4258
  697MOL0     C96095   5.673   8.849   8.606  0.3221 -0.4604  0.5691
  697MOL0     O96096   5.961   8.977   8.607 -0.0756  0.0791 -0.0115
  697MOL0     C96097   6.075   9.211   8.437 -0.0737 -0.5482  0.3758
  697MOL0     C96098   6.126   9.335   8.405 -0.0040 -0.1172  0.2922
  697MOL0     N96099   5.633   9.669   8.395 -0.1760 -0.5165 -0.0331
  697MOL0     N96100   5.513   9.615   8.388 -0.4439  0.6746  0.3791
  697MOL0     C96101   4.834   8.874   8.180  0.3063 -0.0700 -0.3430
  697MOL0     C96102   4.813   8.735   8.212  0.1979 -0.5115  0.2203
  697MOL0     C96103   4.686   8.317   8.131 -0.5985 -0.3406 -0.4848
  697MOL0     C96104   4.769   8.200   8.122 -1.0539  0.8750 -0.3391
  697MOL0     C96105   4.710   8.075   8.149 -0.1844 -0.1092 -0.0196
  697MOL0     C96106   4.578   8.057   8.172  0.5382  0.2089 -0.2089
  697MOL0     O96107   4.532   7.934   8.202  0.4266 -0.5956  0.6371
  697MOL0     C96108   4.392   7.900   8.224 -1.3077 -0.5201  1.0220
  697MOL0     C96109   4.340   7.903   8.362  0.2752 -0.0758 -0.4866
  697MOL0     C96110   4.429   7.812   8.446  0.0008 -0.1395 -0.1817
  697MOL0     C96111   4.363   7.770   8.586  0.0678  0.3977  1.2051
  697MOL0     C96112   4.385   7.878   8.690 -0.7247  0.8541  0.2168
  697MOL0     C96113   4.412   7.966   8.777  0.1327 -0.1884 -0.7872
  697MOL0     C96114   4.499   8.170   8.167 -0.7892  1.1995  0.5521
  697MOL0     C96115   4.543   8.300   8.146 -0.3227  0.0707 -0.1909
  697MOL0     C96116   4.449   8.415   8.131  0.5573  0.6732 -0.5261
  697MOL0     H96117   4.579   8.708   7.962 -3.1726  4.7799 -0.4580
  697MOL0     H96118   4.631   8.936   7.920 -0.4721 -0.2598 -0.1421
  697MOL0     H96119   4.641   9.184   8.012  0.6449  0.2864  0.2903
  697MOL0     H96120   4.758   9.135   7.888 -5.4045  0.1971 -0.9104
  697MOL0     H96121   4.750   9.373   7.944  2.4307  0.3745  0.4680
  697MOL0     H96122   4.795   9.340   8.112 -0.9959 -1.0030  0.2563
  697MOL0     H96123   4.948   9.274   7.852 -0.4023 -1.0680  0.6577
  697MOL0     H96124   4.984   9.408   7.943 -0.3343 -0.0504 -0.8954
  697MOL0     H96125   5.002   9.194   8.133 -1.0744  2.7040  1.5154
  697MOL0     H96126   5.047   9.121   7.977  0.0153  0.5600 -0.8520
  697MOL0     H96127   5.228   9.270   7.933 -0.4153  1.3910 -0.2957
  697MOL0     H96128   5.258   9.212   8.088 -1.1756 -1.8101 -0.6077
  697MOL0     H96129   5.203   9.482   7.983  1.3566 -0.6797 -0.5647
  697MOL0     H96130   5.130   9.452   8.154  1.8773 -2.0752  2.3337
  697MOL0     H96131   5.429   9.467   8.082 -1.2536 -3.4258 -2.9860
  697MOL0     H96132   5.364   9.375   8.209  1.4341 -0.4916 -2.3034
  697MOL0     H96133   5.291   9.673   8.153  0.5316  0.6516  0.9317
  697MOL0     H96134   5.244   9.580   8.292 -2.5812 -1.3444 -1.8984
  697MOL0     H96135   5.558   9.758   8.101  1.6111  0.1771  0.9566
  697MOL0     H96136   5.793   9.870   8.350 -2.9595 -1.0387  0.6712
  697MOL0     H96137   5.739   9.950   8.215 -1.0993  2.2905  3.2396
  697MOL0     H96138   5.836   9.766   8.043 -1.3173 -1.7632 -0.3397
  697MOL0     H96139   5.949   9.856   8.130 -2.6899  2.3728  2.2612
  697MOL0     H96140   5.867   9.568   8.203  0.3244 -0.4359  3.6075
  697MOL0     H96141   6.021   9.630   8.131  0.0454 -0.5491 -0.4138
  697MOL0     H96142   6.047   9.766   8.346 -0.8100  0.1241  0.4737
  697MOL0     H96143   5.910   9.698   8.423  1.2839  1.6715  1.5266
  697MOL0     H96144   5.837   9.498   8.466  0.0131 -0.8623 -1.0635
  697MOL0     H96145   5.670   9.212   8.490  1.0926 -2.4989  1.4848
  697MOL0     H96146   5.668   9.381   8.527  3.0079  1.5483 -0.9587
  697MOL0     H96147   5.711   9.282   8.653 -1.4180  4.1575  0.2718
  697MOL0     H96148   5.753   8.831   8.275  1.8431  3.4513  0.8091
  697MOL0     H96149   5.613   8.623   8.305  1.3090 -1.0472 -0.4940
  697MOL0     H96150   5.685   8.456   8.560  0.5500 -0.3468  0.2264
  697MOL0     H96151   5.582   8.419   8.695  0.0821 -2.1381 -0.2104
  697MOL0     H96152   5.416   8.314   8.532 -0.3204  0.6060 -0.8978
  697MOL0     H96153   5.532   8.356   8.400 -2.1467 -1.3566 -1.4657
  697MOL0     H96154   5.586   8.193   8.650 -1.6571  1.0108 -0.1264
  697MOL0     H96155   5.711   8.235   8.519 -0.5311  2.4396  2.0833
  697MOL0     H96156   5.573   8.126   8.357 -1.5296  1.9720  0.3256
  697MOL0     H96157   5.449   8.091   8.472  0.3483 -2.0095  1.5906
  697MOL0     H96158   5.606   7.917   8.373  2.4734  0.0819 -0.3278
  697MOL0     H96159   5.736   7.973   8.462 -0.7235  0.9619  1.5532
  697MOL0     H96160   5.479   7.854   8.562 -0.0435 -0.0637  0.6981
  697MOL0     H96161   5.591   7.931   8.678  2.3892 -0.7476  1.2675
  697MOL0     H96162   5.765   7.784   8.648 -0.2933 -0.3011 -0.7993
  697MOL0     H96163   5.706   7.725   8.488 -0.8566  1.1922 -0.4436
  697MOL0     H96164   5.556   7.667   8.747 -2.4088 -2.1791 -0.3596
  697MOL0     H96165   5.676   7.553   8.677  0.0069 -0.3294  0.6690
  697MOL0     H96166   5.558   8.722   8.728 -2.5383  0.2212 -0.5387
  697MOL0     H96167   5.682   8.924   8.684  0.6504 -1.1360  1.1909
  697MOL0     H96168   6.152   9.138   8.415  2.0230  1.5689  0.2624
  697MOL0     H96169   6.229   9.354   8.374  0.0527 -0.4678  0.2704
  697MOL0     H96170   4.896   8.938   8.242 -1.1809  1.7229 -0.6325
  697MOL0     H96171   4.863   8.683   8.294  0.3547  0.4973  0.7781
  697MOL0     H96172   4.875   8.201   8.101 -0.8933  1.3461  0.4237
  697MOL0     H96173   4.785   7.998   8.162  2.9354  2.2771 -2.2152
  697MOL0     H96174   4.336   7.967   8.158  3.4413  0.3168 -2.7176
  697MOL0     H96175   4.381   7.801   8.179 -0.3938 -1.2709  2.3665
  697MOL0     H96176   4.246   7.847   8.364  0.4411 -0.3608  1.2860
  697MOL0     H96177   4.323   7.994   8.419  2.5298 -0.9956  1.8416
  697MOL0     H96178   4.447   7.716   8.396 -2.0472 -0.0565 -1.1892
  697MOL0     H96179   4.531   7.850   8.454  0.2735 -0.6921 -0.9528
  697MOL0     H96180   4.414   7.677   8.613 -0.0764 -0.5968 -1.5639
  697MOL0     H96181   4.257   7.743   8.581  0.4666 -1.0960 -0.4115
  697MOL0     H96182   4.450   8.042   8.842  1.4624  0.9547 -2.7798
  697MOL0     H96183   4.392   8.170   8.185 -0.8587  0.5527  0.1602
  697MOL0     H96184   4.482   8.497   8.068 -0.5001  2.4862  1.1696
  697MOL0     H96185   4.353   8.374   8.098 -0.4384  0.7347  2.0264
  697MOL0     H96186   4.434   8.475   8.221 -2.7633  0.1812 -0.6335
  698MOL0     O96187   3.247   4.835   4.018  0.7115  0.3866 -0.1170
  698MOL0     C96188   3.279   4.734   3.951 -0.0163 -0.4282 -0.9500
  698MOL0     O96189   3.334   4.733   3.824 -0.3779 -0.1244  0.2180
  698MOL0     C96190   3.324   4.846   3.747 -0.5439 -0.1984 -0.8238
  698MOL0     C96191   3.373   4.965   3.778 -0.4297  0.3014  0.6868
  698MOL0     C96192   3.364   5.082   3.697  0.4130  0.5537  0.1488
  698MOL0     C96193   3.303   5.069   3.578  0.5613 -0.0667  0.5152
  698MOL0     O96194   3.310   5.172   3.500  0.3667 -0.1203 -0.3996
  698MOL0     C96195   3.223   5.287   3.521  1.2240  0.6989 -0.7116
  698MOL0     C96196   3.321   5.406   3.502  0.2874 -0.8816  0.0827
  698MOL0     C96197   3.231   5.529   3.458 -0.4515  0.0451 -0.3034
  698MOL0     C96198   3.320   5.649   3.426 -1.1370  0.8499  0.9912
  698MOL0     C96199   3.232   5.775   3.405 -0.2477 -1.0668 -0.2739
  698MOL0     C96200   3.319   5.895   3.371 -0.3097 -0.8005  0.3637
  698MOL0     C96201   3.217   6.020   3.344 -0.0545  0.7471 -0.4005
  698MOL0     C96202   3.167   6.046   3.199 -0.0268  0.1689  1.2073
  698MOL0     N96203   3.262   6.112   3.111 -0.2324 -0.4210  0.1195
  698MOL0     C96204   3.269   6.103   2.976 -0.5440 -0.1881  0.3067
  698MOL0     C96205   3.393   6.130   2.934 -0.3452  0.2506 -0.4920
  698MOL0     C96206   3.423   6.157   2.788 -0.7153  0.3929 -0.0070
  698MOL0     C96207   3.573   6.188   2.758  0.3564 -0.3616  0.5437
  698MOL0     C96208   3.591   6.214   2.608 -0.8922 -0.1601 -0.0365
  698MOL0     C96209   3.742   6.208   2.572  0.1213 -0.1588  0.7704
  698MOL0     O96210   3.789   6.071   2.579 -0.0183 -0.0755 -0.0852
  698MOL0     C96211   3.922   6.037   2.564 -0.6129  0.8727 -0.0148
  698MOL0     C96212   4.008   6.126   2.506 -0.1895 -0.7416 -0.1096
  698MOL0     C96213   4.149   6.086   2.484 -0.7238  0.2263 -0.5492
  698MOL0     C96214   4.242   6.183   2.418  0.1844  0.0205  0.2101
  698MOL0     C96215   4.193   5.948   2.522  0.8924 -0.0666  0.4021
  698MOL0     C96216   4.339   5.896   2.507 -0.0369 -0.0638 -1.0499
  698MOL0     O96217   4.379   5.760   2.519  0.2296 -0.2845 -0.1452
  698MOL0     C96218   4.512   5.741   2.533 -0.9940 -0.9654  0.3422
  698MOL0     C96219   4.597   5.693   2.433 -0.5590 -1.0837  0.2766
  698MOL0     C96220   4.741   5.695   2.458  0.3102 -0.2121  0.5243
  698MOL0     C96221   4.790   5.723   2.590  0.4750 -0.7118  0.6914
  698MOL0     O96222   4.922   5.709   2.599  0.5197 -0.7567  0.7295
  698MOL0     C96223   4.992   5.719   2.724 -0.4848  0.5453  0.0536
  698MOL0     C96224   4.972   5.583   2.788  0.3323  0.6239  0.1535
  698MOL0     C96225   5.065   5.579   2.915 -0.6805  0.2546 -0.5470
  698MOL0     C96226   5.055   5.442   2.986 -0.3718 -0.7754  0.3532
  698MOL0     C96227   5.170   5.426   3.084 -0.9769 -0.8966 -0.6671
  698MOL0     C96228   5.182   5.296   3.158 -0.7237  0.3026  0.5854
  698MOL0     C96229   5.300   5.308   3.253 -0.0916 -0.6502 -0.9051
  698MOL0     C96230   5.305   5.214   3.363 -0.1328 -0.2154  0.7058
  698MOL0    Cl96231   5.148   5.184   3.438 -0.4122  0.4176  0.4145
  698MOL0     C96232   4.705   5.770   2.686  0.7364 -1.1996  0.6729
  698MOL0     C96233   4.566   5.781   2.653 -0.7443 -0.2518 -0.5767
  698MOL0     O96234   4.421   5.988   2.506 -0.3522  0.1453  0.3765
  698MOL0     C96235   4.091   5.859   2.569  0.8537 -0.6603 -0.5895
  698MOL0     C96236   3.958   5.904   2.585 -1.1349  0.0408  0.2372
  698MOL0     N96237   3.460   6.175   3.048 -0.1689 -0.1903  0.2525
  698MOL0     N96238   3.393   6.141   3.156  0.7153 -0.9221 -0.5499
  698MOL0     C96239   3.237   4.945   3.541 -0.7853  0.1189  0.5163
  698MOL0     C96240   3.243   4.842   3.632  0.1107  0.1624 -0.8476
  698MOL0     C96241   3.284   4.605   4.014 -0.4883  0.0286  0.1009
  698MOL0     C96242   3.408   4.528   4.008 -0.5359  0.8312 -0.2735
  698MOL0     C96243   3.410   4.401   4.071 -0.9442 -0.3413 -0.0962
  698MOL0     C96244   3.301   4.349   4.137  0.7059  0.0356  0.1728
  698MOL0     O96245   3.292   4.224   4.194  0.4606 -0.4828  0.6453
  698MOL0     C96246   3.408   4.171   4.239  0.1168  0.7205 -0.2356
  698MOL0     C96247   3.381   4.066   4.350  0.1696 -0.7897  0.5059
  698MOL0     C96248   3.305   4.106   4.487  0.3972  0.0532 -0.4903
  698MOL0     C96249   3.368   4.246   4.544  0.7955  0.2571  0.8961
  698MOL0     C96250   3.303   4.288   4.667  1.0362 -0.2157 -0.4870
  698MOL0     C96251   3.263   4.327   4.773  0.1990 -0.0805 -1.2906
  698MOL0     C96252   3.178   4.421   4.116  0.1173  0.5266  0.3172
  698MOL0     C96253   3.168   4.549   4.072  0.0172 -0.4841 -0.3758
  698MOL0     C96254   3.041   4.628   4.089  0.3756  0.2964 -0.2654
  698MOL0     H96255   3.423   4.978   3.874 -0.1470  0.3605  0.5322
  698MOL0     H96256   3.418   5.173   3.720  0.9541  0.5219 -0.9220
  698MOL0     H96257   3.184   5.275   3.623 -0.1622 -0.2802 -1.3277
  698MOL0     H96258   3.141   5.288   3.450 -0.7575  0.0900  1.4429
  698MOL0     H96259   3.383   5.418   3.591  1.5015 -1.8695 -0.6089
  698MOL0     H96260   3.386   5.379   3.418 -1.9771  0.0416 -2.1089
  698MOL0     H96261   3.180   5.501   3.366  0.7611 -1.2106 -0.6297
  698MOL0     H96262   3.159   5.557   3.535 -2.4821  0.5072 -2.2851
  698MOL0     H96263   3.393   5.686   3.499  0.5199  2.1893 -1.2246
  698MOL0     H96264   3.378   5.622   3.338 -1.7330 -0.0409  0.8691
  698MOL0     H96265   3.177   5.797   3.496 -0.8377  2.0937 -1.2548
  698MOL0     H96266   3.157   5.755   3.327 -0.5487 -3.2048  0.4989
  698MOL0     H96267   3.372   5.919   3.464 -0.8944  0.5828  0.3606
  698MOL0     H96268   3.393   5.879   3.292 -0.5862 -3.0422  0.4878
  698MOL0     H96269   3.254   6.113   3.388  1.0775  0.8330 -1.4879
  698MOL0     H96270   3.129   5.998   3.405  0.9875 -0.6831  0.6405
  698MOL0     H96271   3.146   5.950   3.151 -2.5857  1.6004 -0.7984
  698MOL0     H96272   3.074   6.104   3.200  0.6418  1.5095 -2.1523
  698MOL0     H96273   3.189   6.083   2.906 -2.2094  0.1616  2.0313
  698MOL0     H96274   3.358   6.236   2.748 -0.9927 -0.3588 -1.0986
  698MOL0     H96275   3.399   6.067   2.731  1.3563 -0.0955 -0.1918
  698MOL0     H96276   3.596   6.279   2.814 -0.1018  0.6120 -0.7974
  698MOL0     H96277   3.642   6.110   2.789  3.1944  0.9168 -2.0838
  698MOL0     H96278   3.536   6.134   2.557  1.2289 -1.3499 -0.6063
  698MOL0     H96279   3.554   6.316   2.597  0.9331  0.3727 -2.1438
  698MOL0     H96280   3.751   6.255   2.473 -0.7455 -0.9979  0.2775
  698MOL0     H96281   3.800   6.271   2.640  1.3440  1.0405 -1.2834
  698MOL0     H96282   3.977   6.229   2.492 -1.0622 -0.9916 -0.0729
  698MOL0     H96283   4.177   6.245   2.356  1.7955 -0.4072 -2.0046
  698MOL0     H96284   4.306   6.130   2.347  0.5573 -1.9263  1.8979
  698MOL0     H96285   4.295   6.251   2.486  3.9777 -1.8483 -0.6373
  698MOL0     H96286   4.548   5.651   2.346 -1.3313 -3.1119  1.6310
  698MOL0     H96287   4.811   5.651   2.388  0.2564 -1.1752  1.0540
  698MOL0     H96288   5.095   5.745   2.701 -1.1116  1.1785 -2.3014
  698MOL0     H96289   4.951   5.790   2.796 -1.7410  0.4602 -0.5429
  698MOL0     H96290   4.872   5.558   2.824  2.2184 -5.9071  2.2520
  698MOL0     H96291   4.986   5.504   2.713  0.5644  0.0105  0.8363
  698MOL0     H96292   5.055   5.664   2.983  2.1222 -0.0012  0.2994
  698MOL0     H96293   5.166   5.596   2.878  1.0291 -3.4107  1.8656
  698MOL0     H96294   5.060   5.363   2.911  0.7116 -0.1956 -0.2191
  698MOL0     H96295   4.970   5.437   3.055 -2.3611 -3.0720 -2.0721
  698MOL0     H96296   5.260   5.436   3.023 -0.5645 -0.5108 -0.0036
  698MOL0     H96297   5.167   5.511   3.153 -0.9108 -2.0056  0.7336
  698MOL0     H96298   5.188   5.213   3.087  0.0296 -0.3564  1.4091
  698MOL0     H96299   5.088   5.289   3.214 -0.1436 -3.1311  1.3630
  698MOL0     H96300   5.306   5.412   3.289 -2.9013  0.3681 -3.0026
  698MOL0     H96301   5.380   5.296   3.180 -1.0084 -0.2007 -2.0144
  698MOL0     H96302   5.375   5.264   3.431  2.5548 -0.8397 -1.4195
  698MOL0     H96303   5.353   5.118   3.341  2.2376  1.2125 -0.8724
  698MOL0     H96304   4.748   5.798   2.782 -0.2048  0.4734  0.6458
  698MOL0     H96305   4.502   5.813   2.735  2.7426 -1.9642  3.2011
  698MOL0     H96306   4.108   5.752   2.580 -0.8879 -0.9276 -0.2341
  698MOL0     H96307   3.884   5.826   2.597 -1.2637 -0.3858 -2.7289
  698MOL0     H96308   3.202   4.934   3.438 -0.4775  1.4741  0.2451
  698MOL0     H96309   3.188   4.751   3.610 -0.6429  0.3791  0.1204
  698MOL0     H96310   3.488   4.573   3.950  0.2850  0.7624  0.7744
  698MOL0     H96311   3.507   4.353   4.076  0.2102  1.7830 -0.6058
  698MOL0     H96312   3.468   4.121   4.162  0.1870 -1.4786  1.1579
  698MOL0     H96313   3.481   4.242   4.280  2.1911  0.3359 -2.9379
  698MOL0     H96314   3.475   4.014   4.371 -0.9444 -2.4156  1.7558
  698MOL0     H96315   3.307   4.002   4.301 -0.7375  1.3886 -1.0951
  698MOL0     H96316   3.199   4.124   4.470  0.9300  2.8261 -1.4479
  698MOL0     H96317   3.312   4.033   4.568 -3.5091 -0.5637 -0.5523
  698MOL0     H96318   3.338   4.320   4.469 -1.6003  0.5588  2.0724
  698MOL0     H96319   3.477   4.240   4.558  1.0027 -1.0269 -0.9032
  698MOL0     H96320   3.235   4.365   4.869 -0.1611 -0.2002 -1.3453
  698MOL0     H96321   3.088   4.368   4.147 -0.6470  1.3460 -0.4521
  698MOL0     H96322   3.001   4.644   3.989 -0.7772 -1.1248 -0.0783
  698MOL0     H96323   2.972   4.578   4.159  1.0805 -1.8028 -0.9716
  698MOL0     H96324   3.051   4.729   4.129  0.2370  1.3711 -2.7710
  699MOL0     O96325   3.424   7.841   0.695 -0.6385 -0.1354  0.3902
  699MOL0     C96326   3.439   7.955   0.647  0.3865 -0.3186  0.1452
  699MOL0     O96327   3.372   8.005   0.541  0.0414  0.3859 -0.1970
  699MOL0     C96328   3.257   7.935   0.498 -0.4499  0.6003  0.0414
  699MOL0     C96329   3.133   7.999   0.525 -0.5350  0.5111 -0.3794
  699MOL0     C96330   3.013   7.938   0.484 -0.4878  0.0609 -1.1773
  699MOL0     C96331   3.023   7.816   0.413  0.0182 -0.2386  0.6127
  699MOL0     O96332   2.897   7.746   0.384 -0.2600 -0.6933  0.1531
  699MOL0     C96333   2.903   7.610   0.382 -0.0201 -0.0661 -0.2518
  699MOL0     C96334   2.765   7.563   0.413  0.3909  0.0171  0.0095
  699MOL0     C96335   2.779   7.423   0.461 -1.0911 -0.8214  0.2546
  699MOL0     C96336   2.631   7.376   0.477 -0.0290 -0.1667 -0.8976
  699MOL0     C96337   2.626   7.239   0.536 -0.1620  0.0384  0.3481
  699MOL0     C96338   2.480   7.204   0.569  0.0290  0.6934 -1.2219
  699MOL0     C96339   2.476   7.068   0.638  0.5741 -0.3691 -0.2605
  699MOL0     C96340   2.366   7.059   0.758  1.2702  0.0660 -0.0883
  699MOL0     N96341   2.235   7.054   0.701  0.6928 -0.3067 -0.7202
  699MOL0     C96342   2.160   7.161   0.663 -0.4190 -1.1424 -0.0183
  699MOL0     C96343   2.049   7.104   0.605  0.8116 -0.7305 -0.9924
  699MOL0     C96344   1.932   7.181   0.566 -0.2209  0.3390 -0.3505
  699MOL0     C96345   1.803   7.095   0.561 -0.4626  1.0599  0.2989
  699MOL0     C96346   1.666   7.162   0.530  0.9862 -0.9149  0.0170
  699MOL0     C96347   1.661   7.202   0.386 -0.1792 -0.1749  1.6278
  699MOL0     O96348   1.735   7.329   0.366 -0.2767  0.3424 -0.2827
  699MOL0     C96349   1.704   7.404   0.259  0.0845 -0.5742 -0.0584
  699MOL0     C96350   1.613   7.380   0.154 -0.1452  0.1952  0.5925
  699MOL0     C96351   1.590   7.474   0.050  0.0514  0.2650 -0.4312
  699MOL0     C96352   1.475   7.447  -0.050 -0.6065 -0.7642 -0.1368
  699MOL0     C96353   1.659   7.598   0.049 -0.2724  0.0735 -0.5853
  699MOL0     C96354   1.663   7.699  -0.065  0.3118  0.8798  0.1794
  699MOL0     O96355   1.615   7.671  -0.189  0.2767  0.1413  0.7253
  699MOL0     C96356   1.575   7.764  -0.276  0.2836  0.4567 -0.0900
  699MOL0     C96357   1.484   7.713  -0.373 -0.8485 -0.0596 -0.0159
  699MOL0     C96358   1.447   7.794  -0.482 -1.0469 -0.3927  0.3352
  699MOL0     C96359   1.499   7.928  -0.503 -0.5405 -0.4306 -0.5532
  699MOL0     O96360   1.463   8.005  -0.614 -0.1926  0.0535  0.2567
  699MOL0     C96361   1.485   8.149  -0.618  0.0657 -0.1343  0.1776
  699MOL0     C96362   1.431   8.187  -0.753  0.3973 -0.1976 -0.4556
  699MOL0     C96363   1.483   8.333  -0.799 -0.4598  0.3395 -0.7031
  699MOL0     C96364   1.404   8.379  -0.919 -0.1126 -0.1484  0.1507
  699MOL0     C96365   1.479   8.494  -0.989  0.2609 -0.7046 -0.7069
  699MOL0     C96366   1.483   8.634  -0.910  0.2753  0.8787 -0.6348
  699MOL0     C96367   1.506   8.752  -1.005  0.4847  0.4674  0.2544
  699MOL0     C96368   1.557   8.872  -0.928  0.7123  0.4490  0.5081
  699MOL0    Cl96369   1.607   8.989  -1.052  0.1230 -0.0452  0.0674
  699MOL0     C96370   1.582   7.975  -0.397 -0.1274 -1.3254 -0.2863
  699MOL0     C96371   1.628   7.899  -0.285 -0.7897 -0.0425  0.1184
  699MOL0     O96372   1.700   7.812  -0.031  0.3592 -0.4179 -0.4111
  699MOL0     C96373   1.755   7.613   0.151 -0.6893 -0.1002  0.8760
  699MOL0     C96374   1.770   7.525   0.260  0.4628 -0.1950  0.5967
  699MOL0     N96375   2.059   6.968   0.618 -0.3145 -0.3732  0.1530
  699MOL0     N96376   2.162   6.933   0.675 -0.5232 -0.7943 -0.5153
  699MOL0     C96377   3.142   7.755   0.383  0.7640 -0.1693  0.6565
  699MOL0     C96378   3.265   7.815   0.428  0.3219 -0.1166  0.4878
  699MOL0     C96379   3.546   8.029   0.705  0.5762 -1.2071 -0.0217
  699MOL0     C96380   3.641   7.937   0.878  0.2848 -0.6093 -0.3569
  699MOL0     C96381   3.798   8.051   0.978  0.4670  0.1024  0.1950
  699MOL0     C96382   3.848   8.244   0.916 -0.2786  0.3938 -0.0975
  699MOL0     O96383   3.936   8.313   0.992  0.2561  0.1852 -0.3573
  699MOL0     C96384   4.049   8.369   0.923 -0.3785  0.0999  0.5797
  699MOL0     C96385   4.178   8.288   0.948 -0.3297 -0.5393  0.1324
  699MOL0     C96386   4.216   8.299   1.095 -0.0874 -0.6285  0.0201
  699MOL0     C96387   4.356   8.235   1.123 -0.8339  0.1000  0.2323
  699MOL0     C96388   4.459   8.300   1.041  0.3387 -0.6920  0.9827
  699MOL0     C96389   4.537   8.360   0.975  0.5458 -0.0729  1.1523
  699MOL0     C96390   3.749   8.330   0.747  0.1656 -0.5770  0.2252
  699MOL0     C96391   3.605   8.224   0.641  0.5061  0.1302  0.4227
  699MOL0     C96392   3.563   8.275   0.508  0.2020  0.1322 -0.0166
  699MOL0     H96393   3.130   8.084   0.593 -1.2216  1.0871 -1.1150
  699MOL0     H96394   2.912   7.973   0.501 -1.7145 -3.4879 -0.1382
  699MOL0     H96395   2.969   7.575   0.462  2.0766  1.7293 -1.1099
  699MOL0     H96396   2.938   7.569   0.287 -1.9109  1.1782 -1.5631
  699MOL0     H96397   2.738   7.627   0.497  4.1264 -0.3442  1.6857
  699MOL0     H96398   2.695   7.574   0.329 -0.1039  0.5365  0.4816
  699MOL0     H96399   2.839   7.363   0.393  0.0653  1.0562 -0.4807
  699MOL0     H96400   2.825   7.431   0.560 -0.5665 -3.7541  0.3333
  699MOL0     H96401   2.581   7.453   0.537  1.9281 -0.1939  0.9209
  699MOL0     H96402   2.577   7.372   0.382 -2.8684 -4.3752  0.6461
  699MOL0     H96403   2.698   7.227   0.617  3.6218 -3.0478 -2.9991
  699MOL0     H96404   2.667   7.162   0.470 -1.5523 -0.1994 -0.2815
  699MOL0     H96405   2.434   7.279   0.634 -1.7079 -2.4044  1.4068
  699MOL0     H96406   2.426   7.194   0.475  1.7162 -1.1815 -2.0813
  699MOL0     H96407   2.577   7.040   0.669 -0.7573 -1.7213  3.3778
  699MOL0     H96408   2.432   6.993   0.571 -0.6238  1.7731 -2.0220
  699MOL0     H96409   2.393   6.970   0.815  1.1750 -0.5648 -1.0057
  699MOL0     H96410   2.372   7.139   0.832 -0.8457 -0.0512  0.2767
  699MOL0     H96411   2.171   7.266   0.686 -2.8515 -0.5832 -1.0846
  699MOL0     H96412   1.944   7.225   0.467 -4.2184  1.0160 -0.6971
  699MOL0     H96413   1.914   7.265   0.634  5.3699  3.6687 -2.3189
  699MOL0     H96414   1.826   7.009   0.497  4.4561 -0.1418  3.1214
  699MOL0     H96415   1.805   7.055   0.663 -0.7048  0.6733  0.1546
  699MOL0     H96416   1.587   7.089   0.549  0.1845  0.1889  1.1356
  699MOL0     H96417   1.648   7.246   0.599 -1.3741 -2.2609  1.1503
  699MOL0     H96418   1.702   7.132   0.312  2.4294  0.0258  2.7625
  699MOL0     H96419   1.556   7.228   0.370 -0.9348 -1.9224  3.3719
  699MOL0     H96420   1.554   7.290   0.142 -2.4407  1.5062  1.3120
  699MOL0     H96421   1.517   7.460  -0.150 -1.5538 -1.0386 -0.5835
  699MOL0     H96422   1.392   7.516  -0.032 -0.0720  0.6801 -2.7096
  699MOL0     H96423   1.445   7.342  -0.051  1.5665 -1.4186 -0.6151
  699MOL0     H96424   1.437   7.616  -0.363  2.2710 -1.9345 -1.7742
  699MOL0     H96425   1.389   7.741  -0.556  2.6769 -1.0701 -2.3314
  699MOL0     H96426   1.434   8.199  -0.535 -3.7037  2.9030 -3.5079
  699MOL0     H96427   1.593   8.169  -0.620  0.2128 -0.6272 -3.3394
  699MOL0     H96428   1.470   8.114  -0.825  2.9379  0.1312  0.5017
  699MOL0     H96429   1.323   8.175  -0.741  0.8965 -2.1568  3.6156
  699MOL0     H96430   1.591   8.323  -0.812  0.3007  0.7209  3.6272
  699MOL0     H96431   1.462   8.406  -0.720 -0.8919  2.4067 -2.6385
  699MOL0     H96432   1.298   8.395  -0.900 -0.2840  1.3536 -1.7950
  699MOL0     H96433   1.411   8.315  -1.008 -0.0276 -0.8976  0.6878
  699MOL0     H96434   1.578   8.460  -1.021  0.6246 -0.3914  0.0703
  699MOL0     H96435   1.424   8.521  -1.080  2.4290 -0.2366 -1.9331
  699MOL0     H96436   1.570   8.636  -0.844 -1.5985 -1.3988  2.1395
  699MOL0     H96437   1.394   8.651  -0.849  0.4146 -0.1920 -0.1083
  699MOL0     H96438   1.409   8.772  -1.050 -1.3689 -1.8927  2.8683
  699MOL0     H96439   1.587   8.724  -1.074  2.9031  1.5016  2.4992
  699MOL0     H96440   1.649   8.858  -0.871  1.4730 -0.3269 -0.8504
  699MOL0     H96441   1.489   8.917  -0.855 -0.5949  0.9210 -0.9317
  699MOL0     H96442   1.623   8.076  -0.402 -1.2715 -0.8476 -0.3210
  699MOL0     H96443   1.708   7.945  -0.228  4.6407 -3.1307 -4.0605
  699MOL0     H96444   1.818   7.698   0.174 -0.5085  0.3734 -1.2054
  699MOL0     H96445   1.844   7.546   0.336 -0.8097  0.1559  1.7765
  699MOL0     H96446   3.150   7.660   0.331 -1.9232  0.4039 -0.9820
  699MOL0     H96447   3.346   7.744   0.414 -0.3863 -1.0504  0.9733
  699MOL0     H96448   3.617   7.837   0.912 -2.3631  0.0714 -0.0447
  699MOL0     H96449   3.853   8.006   1.061 -1.6035 -1.6916  0.6729
  699MOL0     H96450   4.035   8.374   0.814 -3.0041 -1.4437  0.7502
  699MOL0     H96451   4.052   8.474   0.953 -2.5355  0.3203  0.2398
  699MOL0     H96452   4.243   8.343   0.879  1.1088 -2.0967  0.1816
  699MOL0     H96453   4.165   8.184   0.917  1.8070 -0.4529 -1.2499
  699MOL0     H96454   4.213   8.403   1.128 -0.3918 -0.9828  1.1519
  699MOL0     H96455   4.141   8.244   1.152  0.7692  0.8923  2.8178
  699MOL0     H96456   4.352   8.127   1.107  1.3672 -0.3085  1.9081
  699MOL0     H96457   4.374   8.250   1.230 -4.0199 -3.3662  1.4803
  699MOL0     H96458   4.618   8.404   0.920 -0.7168  0.7113 -0.1707
  699MOL0     H96459   3.770   8.435   0.729 -0.8126 -0.4190 -0.0355
  699MOL0     H96460   3.647   8.301   0.442 -0.8805 -0.8443 -1.8561
  699MOL0     H96461   3.503   8.201   0.455  3.1555 -1.0313 -2.0541
  699MOL0     H96462   3.512   8.371   0.522  0.0852  0.1913 -0.8113
  700MOL0     O96463  10.111   2.774   6.549 -1.1791 -0.0051  0.4252
  700MOL0     C96464  10.139   2.765   6.427  0.0472 -0.0503 -0.1643
  700MOL0     O96465  10.176   2.647   6.365  0.6072 -0.1275 -0.4606
  700MOL0     C96466  10.202   2.533   6.441  0.2207  0.6295  0.1610
  700MOL0     C96467  10.201   2.409   6.365  0.0510 -1.5614  1.2758
  700MOL0     C96468  10.223   2.290   6.420  0.1227  0.2759  0.1747
  700MOL0     C96469  10.235   2.281   6.565  0.3442 -0.0159  0.6618
  700MOL0     O96470  10.255   2.164   6.630 -0.1962  0.5495  0.1491
  700MOL0     C96471  10.138   2.078   6.638  0.8439 -0.3133 -1.0821
  700MOL0     C96472  10.175   1.940   6.591 -0.3865 -0.6015  0.0258
  700MOL0     C96473  10.048   1.859   6.619  1.0849  0.1508 -0.7005
  700MOL0     C96474  10.048   1.809   6.772  0.5639  0.1385  0.4021
  700MOL0     C96475   9.931   1.712   6.789  0.4469 -0.1233 -0.8397
  700MOL0     C96476   9.862   1.733   6.927 -0.6802  0.2456  0.1816
  700MOL0     C96477   9.724   1.664   6.941 -0.1974  0.0740 -0.1995
  700MOL0     C96478   9.640   1.675   7.072  0.0240 -0.3205  0.1518
  700MOL0     N96479   9.722   1.668   7.191 -0.4831 -0.5030 -0.4494
  700MOL0     C96480   9.743   1.547   7.263 -0.4133 -0.5927 -0.4332
  700MOL0     C96481   9.857   1.580   7.342  0.1474 -0.0163  0.9340
  700MOL0     C96482   9.930   1.493   7.445 -0.1096  0.8462  0.1456
  700MOL0     C96483  10.077   1.500   7.434  0.8791  0.0452  0.2653
  700MOL0     C96484  10.164   1.448   7.550 -1.1915  0.6407 -0.1303
  700MOL0     C96485  10.127   1.316   7.610 -0.0969 -0.6757  0.7123
  700MOL0     O96486  10.158   1.209   7.526  0.2003  0.2202  0.6148
  700MOL0     C96487  10.140   1.079   7.574  0.7170 -0.0694 -0.5617
  700MOL0     C96488  10.083   1.039   7.705 -0.1811 -0.8534  0.4056
  700MOL0     C96489  10.048   0.910   7.731  0.1269  0.1606 -0.0278
  700MOL0     C96490   9.976   0.884   7.863  0.4864 -0.2948  0.4555
  700MOL0     C96491  10.080   0.796   7.644  0.0223  0.7325 -0.1832
  700MOL0     C96492  10.055   0.659   7.670 -1.4460  0.1282  0.1917
  700MOL0     O96493  10.044   0.582   7.563 -0.1569  0.0694  0.4185
  700MOL0     C96494  10.003   0.447   7.547 -0.2051  0.4712  0.9248
  700MOL0     C96495  10.005   0.401   7.418  0.6828  0.2628  0.0508
  700MOL0     C96496   9.969   0.262   7.385 -0.1750 -1.0055 -0.8695
  700MOL0     C96497   9.927   0.178   7.492 -0.4355  0.4092  0.2003
  700MOL0     O96498   9.904   0.042   7.460  0.6738  0.2881 -0.1398
  700MOL0     C96499   9.791  -0.033   7.521  0.6998  0.3110  0.1131
  700MOL0     C96500   9.760  -0.159   7.440 -0.1934  0.3694  0.5861
  700MOL0     C96501   9.660  -0.252   7.518  0.2936 -0.6462 -0.3566
  700MOL0     C96502   9.613  -0.375   7.446  0.0269  0.2229  0.4714
  700MOL0     C96503   9.503  -0.451   7.525  0.1152 -0.2237 -0.2133
  700MOL0     C96504   9.486  -0.598   7.484 -0.7468 -1.2982 -0.4934
  700MOL0     C96505   9.440  -0.611   7.342 -0.1407 -0.6811  0.0378
  700MOL0     C96506   9.437  -0.744   7.295 -0.1061  0.5332  0.0473
  700MOL0    Cl96507   9.290  -0.825   7.363 -0.1465  0.1305 -0.0169
  700MOL0     C96508   9.917   0.234   7.623 -0.4114 -1.2941 -0.3942
  700MOL0     C96509   9.960   0.368   7.644  0.1238 -0.1317 -0.6815
  700MOL0     O96510  10.066   0.615   7.781  0.2666 -0.3507 -0.7181
  700MOL0     C96511  10.137   0.838   7.519 -0.8005 -0.0735  0.3143
  700MOL0     C96512  10.163   0.979   7.484 -0.8353 -0.0841  0.6549
  700MOL0     N96513   9.876   1.717   7.332 -1.0097  0.3194  0.7684
  700MOL0     N96514   9.796   1.769   7.251 -0.6239  0.0406 -0.1028
  700MOL0     C96515  10.247   2.400   6.645 -0.4373  0.2292  0.1327
  700MOL0     C96516  10.244   2.520   6.573 -0.2265 -0.2288  0.7641
  700MOL0     C96517  10.123   2.901   6.368  0.2811  0.2778  0.2245
  700MOL0     C96518  10.165   3.011   6.440  0.0171 -0.6063 -0.2339
  700MOL0     C96519  10.152   3.137   6.396 -0.5978  0.3373  0.5705
  700MOL0     C96520  10.091   3.163   6.276 -0.2144 -0.0336  0.8491
  700MOL0     O96521  10.063   3.296   6.240  0.6243  0.1853 -0.2083
  700MOL0     C96522  10.034   3.330   6.107 -0.1665 -0.8278 -0.1265
  700MOL0     C96523  10.117   3.447   6.055 -0.6272  0.6475  0.0612
  700MOL0     C96524  10.082   3.580   6.123  0.0885 -0.4192  0.1885
  700MOL0     C96525  10.175   3.702   6.095 -0.5307  0.2388  0.9575
  700MOL0     C96526  10.193   3.729   5.955 -0.2424 -0.9770  1.1608
  700MOL0     C96527  10.224   3.752   5.841  0.5847 -0.1747  0.0614
  700MOL0     C96528  10.044   3.057   6.200  0.1423 -0.1558 -0.1312
  700MOL0     C96529  10.065   2.924   6.237 -0.3136 -0.1518 -0.6255
  700MOL0     C96530  10.028   2.812   6.146  0.0877  0.2679  0.3362
  700MOL0     H96531  10.191   2.419   6.258  1.2562 -4.4683  0.7955
  700MOL0     H96532  10.223   2.197   6.364  1.0090 -1.0144  2.1853
  700MOL0     H96533  10.050   2.118   6.588  0.5519 -1.0350 -1.1445
  700MOL0     H96534  10.101   2.069   6.741 -0.5194 -1.0397 -1.6258
  700MOL0     H96535  10.185   1.930   6.483 -2.1475 -3.5187  0.0138
  700MOL0     H96536  10.248   1.881   6.647 -0.9467 -3.9323 -2.4343
  700MOL0     H96537   9.959   1.913   6.588 -0.9329 -0.7238  2.9668
  700MOL0     H96538  10.043   1.767   6.560  0.1921 -2.4160  3.0163
  700MOL0     H96539  10.141   1.758   6.799 -0.4249 -1.0088  1.6953
  700MOL0     H96540  10.024   1.899   6.829  0.8148  1.1114 -0.9531
  700MOL0     H96541   9.965   1.608   6.782 -2.7435 -1.2152 -1.7748
  700MOL0     H96542   9.860   1.724   6.707 -2.0579 -0.3285  1.1487
  700MOL0     H96543   9.933   1.707   7.006  2.1385 -0.8225 -2.4945
  700MOL0     H96544   9.853   1.841   6.941  3.5345  0.4760  2.9606
  700MOL0     H96545   9.738   1.557   6.921 -1.1162  0.2710 -2.0890
  700MOL0     H96546   9.674   1.711   6.856 -0.8336 -1.4848 -0.7227
  700MOL0     H96547   9.584   1.769   7.073 -3.2858 -2.0644  3.7298
  700MOL0     H96548   9.571   1.590   7.072  1.1114 -1.2261  0.7121
  700MOL0     H96549   9.688   1.453   7.260 -0.5094 -0.5113 -2.1719
  700MOL0     H96550   9.891   1.391   7.439  0.1522  0.5696  2.2208
  700MOL0     H96551   9.895   1.523   7.545 -0.6867 -1.4480  0.6942
  700MOL0     H96552  10.083   1.440   7.342 -3.4496 -0.2016 -0.0687
  700MOL0     H96553  10.114   1.598   7.403 -0.4788  0.3826 -0.3704
  700MOL0     H96554  10.268   1.437   7.519 -0.7557 -0.9292  1.6941
  700MOL0     H96555  10.166   1.523   7.629 -3.2275 -1.6276  2.2665
  700MOL0     H96556  10.195   1.306   7.695 -1.3562 -0.8917  1.7209
  700MOL0     H96557  10.026   1.324   7.652  1.2369  0.8335  4.0340
  700MOL0     H96558  10.076   1.125   7.770  2.7854  1.0095 -1.4789
  700MOL0     H96559   9.942   0.975   7.913 -1.7803 -0.0294 -1.3747
  700MOL0     H96560  10.043   0.818   7.919  0.8821 -0.3857 -0.1131
  700MOL0     H96561   9.891   0.825   7.828  0.7562 -0.7509  0.5687
  700MOL0     H96562  10.053   0.469   7.349  2.7625  3.0635  3.9065
  700MOL0     H96563   9.970   0.237   7.279 -0.2590 -0.7608 -0.9288
  700MOL0     H96564   9.817  -0.066   7.621  0.8467  0.1995  0.0389
  700MOL0     H96565   9.696   0.021   7.517  0.1110 -0.3979  2.8151
  700MOL0     H96566   9.706  -0.133   7.348  2.9654  4.0038 -0.4950
  700MOL0     H96567   9.857  -0.204   7.416  0.2283  1.0336  1.0187
  700MOL0     H96568   9.575  -0.187   7.541  0.0705 -0.1271 -2.4229
  700MOL0     H96569   9.716  -0.276   7.608  3.0406 -0.3222 -1.8662
  700MOL0     H96570   9.698  -0.444   7.445  0.1646  0.3786  0.9452
  700MOL0     H96571   9.586  -0.358   7.342  3.0664  1.3021 -0.2636
  700MOL0     H96572   9.530  -0.447   7.631 -1.1093  1.3795  0.0820
  700MOL0     H96573   9.407  -0.402   7.505 -0.6582 -1.0608  1.3068
  700MOL0     H96574   9.412  -0.644   7.551  0.0891 -4.4075 -1.5649
  700MOL0     H96575   9.580  -0.641   7.519  0.2008  1.7124  1.0763
  700MOL0     H96576   9.508  -0.561   7.273 -1.0229  0.3998 -0.0760
  700MOL0     H96577   9.342  -0.563   7.335  0.2194  0.1706  0.5999
  700MOL0     H96578   9.532  -0.789   7.325  0.6414  0.0392 -2.7339
  700MOL0     H96579   9.429  -0.748   7.186 -2.7199  0.6384  0.1824
  700MOL0     H96580   9.893   0.181   7.715  3.6050 -1.7835  0.5338
  700MOL0     H96581   9.973   0.398   7.748 -0.6930 -1.7955 -0.0552
  700MOL0     H96582  10.183   0.767   7.451 -2.5263  0.7044 -1.7914
  700MOL0     H96583  10.211   1.016   7.395 -3.1818  1.4549 -0.0464
  700MOL0     H96584  10.257   2.393   6.753  1.2677  0.3200  0.0012
  700MOL0     H96585  10.273   2.605   6.635  1.1096 -1.7239  2.2866
  700MOL0     H96586  10.215   2.998   6.536 -0.8416 -0.1442  0.2908
  700MOL0     H96587  10.182   3.225   6.452  0.7453 -0.0956  0.5817
  700MOL0     H96588  10.046   3.249   6.035 -0.6645  0.1778 -1.3784
  700MOL0     H96589   9.928   3.341   6.083 -0.6945 -0.3702  2.1768
  700MOL0     H96590  10.112   3.443   5.946 -0.6566 -0.0313  0.0821
  700MOL0     H96591  10.223   3.429   6.069 -0.6287  0.2816 -0.3657
  700MOL0     H96592   9.984   3.598   6.078 -0.1583  1.2283  1.3204
  700MOL0     H96593  10.076   3.571   6.232 -0.7386 -1.7491  0.0529
  700MOL0     H96594  10.265   3.670   6.148  0.4336  0.5410 -0.4397
  700MOL0     H96595  10.135   3.796   6.134 -1.1694  1.5769 -2.5306
  700MOL0     H96596  10.249   3.764   5.737  0.0424  2.9395  0.2046
  700MOL0     H96597   9.984   3.076   6.112  0.4398 -1.8914 -0.7426
  700MOL0     H96598   9.978   2.730   6.198  1.8521 -1.0013  0.1326
  700MOL0     H96599   9.953   2.843   6.073 -2.7139 -4.6428  0.7051
  700MOL0     H96600  10.110   2.775   6.084 -1.2498  0.2718 -1.5199
  701MOL0     O96601  11.170   6.140   5.348 -0.3066  0.3636 -0.7565
  701MOL0     C96602  11.102   6.151   5.450  0.6708  1.1774 -0.2025
  701MOL0     O96603  11.157   6.178   5.573 -0.1812  0.0938  0.0782
  701MOL0     C96604  11.297   6.170   5.587  0.1941  0.1973  0.4375
  701MOL0     C96605  11.375   6.289   5.594 -0.4704 -0.9427 -0.0758
  701MOL0     C96606  11.512   6.282   5.594  0.8291  0.8014  0.6977
  701MOL0     C96607  11.574   6.158   5.571 -0.3050  0.1988  0.7954
  701MOL0     O96608  11.718   6.162   5.569  0.4062  0.6150 -0.1845
  701MOL0     C96609  11.782   6.075   5.477  0.7561 -0.1239  0.0005
  701MOL0     C96610  11.927   6.112   5.474 -0.5813 -0.3737  0.2042
  701MOL0     C96611  11.963   6.261   5.449  0.6533  0.3049  0.4092
  701MOL0     C96612  12.111   6.274   5.420 -0.4379  0.1262 -0.2918
  701MOL0     C96613  12.169   6.417   5.390  0.2278 -0.6588  0.2325
  701MOL0     C96614  12.153   6.522   5.504 -0.0973  0.5903 -0.2374
  701MOL0     C96615  12.238   6.467   5.617  0.6496 -0.7640  0.1274
  701MOL0     C96616  12.289   6.572   5.703  0.3701  0.4563 -0.3957
  701MOL0     N96617  12.197   6.673   5.762  0.2612 -0.0685  0.7906
  701MOL0     C96618  12.211   6.812   5.756  0.3533 -0.1719  0.2433
  701MOL0     C96619  12.119   6.852   5.847  0.3969  0.5297 -0.1497
  701MOL0     C96620  12.101   6.999   5.878  0.3046  0.7446 -0.6735
  701MOL0     C96621  12.199   7.066   5.979 -0.4758  0.0677 -0.3621
  701MOL0     C96622  12.343   7.029   5.948  0.3594  0.2150 -0.2025
  701MOL0     C96623  12.437   7.136   6.008  0.7255 -0.9509 -0.8094
  701MOL0     O96624  12.577   7.103   6.006 -0.0728 -0.4774 -0.5811
  701MOL0     C96625  12.669   7.151   5.923 -0.0376 -0.2218 -0.2100
  701MOL0     C96626  12.800   7.121   5.957  0.0869  0.0023 -0.1120
  701MOL0     C96627  12.916   7.147   5.887  0.2741  0.7526  0.6735
  701MOL0     C96628  13.046   7.105   5.960  0.0572  0.1925  0.5654
  701MOL0     C96629  12.902   7.213   5.763  0.8042  0.3045  0.8817
  701MOL0     C96630  13.020   7.278   5.688  0.2430 -0.2741 -0.5386
  701MOL0     O96631  12.987   7.332   5.567  0.5424  0.3981 -0.1987
  701MOL0     C96632  13.075   7.411   5.499 -0.4846 -0.4671  0.5923
  701MOL0     C96633  13.152   7.515   5.550  0.4057  0.1167 -1.1260
  701MOL0     C96634  13.234   7.604   5.482  0.5949 -0.2294 -0.5591
  701MOL0     C96635  13.240   7.595   5.344  0.7913  0.4442 -0.2148
  701MOL0     O96636  13.312   7.681   5.271 -0.3051  0.1126  0.4351
  701MOL0     C96637  13.356   7.645   5.136  1.0087  0.1672 -0.7924
  701MOL0     C96638  13.494   7.692   5.104  0.1235  0.0685  0.1966
  701MOL0     C96639  13.490   7.844   5.080  0.6048  0.7894 -0.7216
  701MOL0     C96640  13.635   7.902   5.039 -0.8016 -0.4452 -0.2669
  701MOL0     C96641  13.621   8.051   5.038  0.5213 -0.2212  0.1308
  701MOL0     C96642  13.751   8.122   4.980 -0.9007 -1.0408 -0.4753
  701MOL0     C96643  13.747   8.279   4.953  0.8388  1.2170  0.2040
  701MOL0     C96644  13.860   8.339   4.877  0.1192 -0.1260  0.2746
  701MOL0    Cl96645  14.014   8.271   4.909 -0.1708  0.1691  0.2070
  701MOL0     C96646  13.163   7.490   5.290 -0.2742 -0.6873 -0.3895
  701MOL0     C96647  13.081   7.410   5.369  0.3752  0.7302  0.0246
  701MOL0     O96648  13.131   7.294   5.738 -0.0708  0.2427 -0.3358
  701MOL0     C96649  12.768   7.236   5.711  0.3634 -0.2689 -1.0746
  701MOL0     C96650  12.654   7.213   5.795 -0.0814 -0.1126 -0.6444
  701MOL0     N96651  12.053   6.749   5.903 -0.1316 -0.9443  0.1268
  701MOL0     N96652  12.096   6.647   5.848  0.5314  0.4996  0.4902
  701MOL0     C96653  11.503   6.045   5.571  0.1224  0.2893  0.8684
  701MOL0     C96654  11.362   6.050   5.565  1.1277  0.8526  0.1371
  701MOL0     C96655  10.953   6.122   5.448 -0.2346 -0.6567  1.1850
  701MOL0     C96656  10.888   6.125   5.575  0.4337 -0.3843  0.2132
  701MOL0     C96657  10.749   6.106   5.589 -0.5360  0.3801 -0.4794
  701MOL0     C96658  10.675   6.057   5.473  1.7482 -0.1524  0.0757
  701MOL0     O96659  10.541   6.029   5.475  0.1543  0.7377 -0.5576
  701MOL0     C96660  10.455   6.038   5.595 -0.0826 -0.0238 -0.3408
  701MOL0     C96661  10.460   5.887   5.642  0.8831 -0.8637  0.4958
  701MOL0     C96662  10.400   5.881   5.781  0.6169  0.9292 -0.8225
  701MOL0     C96663  10.374   5.730   5.809  0.5373  0.0078  1.2338
  701MOL0     C96664  10.294   5.735   5.939 -1.5827  0.0765  0.1136
  701MOL0     C96665  10.238   5.735   6.043 -0.1573 -0.1029 -0.5929
  701MOL0     C96666  10.742   6.030   5.348  0.3381  0.2042 -0.1905
  701MOL0     C96667  10.880   6.060   5.338  0.3369 -0.5947  0.5057
  701MOL0     C96668  10.952   6.022   5.212  0.6162 -0.2134 -0.1560
  701MOL0     H96669  11.315   6.379   5.607 -0.4223 -0.7671 -1.0274
  701MOL0     H96670  11.579   6.368   5.594 -0.1492  1.5908 -0.8346
  701MOL0     H96671  11.728   6.100   5.384 -0.8354  1.0773  1.1783
  701MOL0     H96672  11.777   5.968   5.496  1.7659 -0.4243 -1.2848
  701MOL0     H96673  11.975   6.081   5.568  1.1983 -2.8964 -1.4113
  701MOL0     H96674  11.969   6.038   5.406  1.6282 -0.6001  1.7016
  701MOL0     H96675  11.896   6.300   5.372 -0.6675  0.2665  1.5051
  701MOL0     H96676  11.932   6.322   5.535 -2.4593 -1.4963  0.6886
  701MOL0     H96677  12.174   6.235   5.501  1.3546  3.1979 -0.0669
  701MOL0     H96678  12.136   6.212   5.333  0.7115  1.2092 -0.7592
  701MOL0     H96679  12.109   6.459   5.309  2.6399  3.0359  0.1297
  701MOL0     H96680  12.271   6.409   5.351  0.3526 -0.0407  0.4072
  701MOL0     H96681  12.198   6.613   5.463  0.2098  1.1879  1.3406
  701MOL0     H96682  12.046   6.536   5.523 -0.0235  0.2260  0.4759
  701MOL0     H96683  12.326   6.423   5.569  1.5792  1.6465 -0.5277
  701MOL0     H96684  12.177   6.409   5.686  0.2926  0.8997  1.2783
  701MOL0     H96685  12.338   6.527   5.789  0.6076  2.6778  0.7040
  701MOL0     H96686  12.369   6.625   5.649  0.7970 -0.4494 -0.6721
  701MOL0     H96687  12.281   6.873   5.700 -0.1080  0.3639  0.2496
  701MOL0     H96688  12.004   7.009   5.928  1.7481  0.4435  2.4214
  701MOL0     H96689  12.108   7.064   5.791 -3.3839 -0.2914 -1.9395
  701MOL0     H96690  12.185   7.172   5.953 -1.9577 -0.3295 -1.2860
  701MOL0     H96691  12.183   7.046   6.086  4.0495 -2.5904  0.0629
  701MOL0     H96692  12.373   6.936   5.997 -0.0564 -0.4137 -1.1109
  701MOL0     H96693  12.368   7.018   5.842 -2.4749 -4.9171 -0.6738
  701MOL0     H96694  12.408   7.225   5.950 -1.0458  0.3750  1.8685
  701MOL0     H96695  12.412   7.146   6.114 -0.9737  1.2728 -1.3148
  701MOL0     H96696  12.810   7.079   6.057  1.8382  1.9640  0.6033
  701MOL0     H96697  13.044   7.015   6.023 -3.0276 -1.4229 -1.6308
  701MOL0     H96698  13.073   7.187   6.028 -2.6778 -0.4823  2.6794
  701MOL0     H96699  13.123   7.083   5.886 -2.4497  0.8620 -2.4135
  701MOL0     H96700  13.147   7.535   5.657 -1.7850 -0.2835 -1.1111
  701MOL0     H96701  13.290   7.678   5.538  0.5401  1.5681 -2.7332
  701MOL0     H96702  13.370   7.537   5.127  0.6664 -0.5752  4.4167
  701MOL0     H96703  13.279   7.679   5.066 -1.4368  1.0258  2.0922
  701MOL0     H96704  13.557   7.656   5.185  0.4609  2.1985  0.9544
  701MOL0     H96705  13.533   7.639   5.016  0.3312 -5.4881  3.1982
  701MOL0     H96706  13.454   7.894   5.171  1.6676 -1.9263  1.3376
  701MOL0     H96707  13.414   7.862   5.004 -0.9900  3.8983  1.3835
  701MOL0     H96708  13.674   7.866   4.943  2.2010 -1.1152  1.1007
  701MOL0     H96709  13.719   7.881   5.105 -0.7020 -1.0969 -0.5974
  701MOL0     H96710  13.542   8.075   4.967  2.4479  1.9431 -1.4383
  701MOL0     H96711  13.596   8.091   5.137 -0.8312 -0.4565 -0.0931
  701MOL0     H96712  13.791   8.082   4.887 -0.9836  2.1868 -2.0021
  701MOL0     H96713  13.829   8.095   5.051 -0.4157  0.0460 -0.5795
  701MOL0     H96714  13.729   8.323   5.052 -4.9060 -0.3361  0.1840
  701MOL0     H96715  13.656   8.283   4.892 -0.1132 -2.4113  1.1610
  701MOL0     H96716  13.853   8.446   4.894 -3.3598 -0.5578  2.6708
  701MOL0     H96717  13.843   8.326   4.770  1.6523  0.7281 -0.0955
  701MOL0     H96718  13.164   7.477   5.182  0.5838  1.5422 -0.7078
  701MOL0     H96719  13.012   7.344   5.318  4.2220 -0.7300 -3.9031
  701MOL0     H96720  12.749   7.277   5.612  2.4885 -0.5554 -1.6496
  701MOL0     H96721  12.557   7.246   5.758 -0.4547 -0.0882  0.3224
  701MOL0     H96722  11.554   5.949   5.574 -0.4580 -0.0100  1.6064
  701MOL0     H96723  11.298   5.962   5.556  1.0451  1.0539 -1.9132
  701MOL0     H96724  10.946   6.149   5.663  1.0004 -0.9477  0.0081
  701MOL0     H96725  10.715   6.107   5.692  1.1844 -1.3269  0.1648
  701MOL0     H96726  10.492   6.114   5.664  0.9870  1.0573 -2.0379
  701MOL0     H96727  10.351   6.067   5.577 -0.5095 -0.1215  1.7389
  701MOL0     H96728  10.566   5.862   5.651  2.2156  3.0981 -1.7145
  701MOL0     H96729  10.415   5.828   5.563  1.3701 -0.2160 -0.2832
  701MOL0     H96730  10.470   5.926   5.851 -0.9320  2.6396 -0.3129
  701MOL0     H96731  10.307   5.939   5.775  0.5496  0.6803 -2.9628
  701MOL0     H96732  10.458   5.661   5.815  1.0042  0.4249 -0.0883
  701MOL0     H96733  10.302   5.692   5.736 -0.4900 -1.0801  2.7551
  701MOL0     H96734  10.189   5.750   6.137  0.7818 -1.0179  0.0586
  701MOL0     H96735  10.691   5.994   5.259  1.0908  0.1045 -0.5937
  701MOL0     H96736  10.870   6.007   5.143 -0.1745 -0.3327  0.7827
  701MOL0     H96737  11.010   6.109   5.178 -1.2875  0.5219 -1.6698
  701MOL0     H96738  11.004   5.927   5.225 -1.8648 -1.9174 -1.8791
  702MOL0     O96739   0.892  10.048   7.992  0.2316  0.1096  0.5459
  702MOL0     C96740   0.827   9.944   8.012 -0.7922  0.7146 -0.4998
  702MOL0     O96741   0.723   9.895   7.938  0.7195 -0.8219  1.0888
  702MOL0     C96742   0.671   9.977   7.838 -1.2366 -0.6047 -0.9336
  702MOL0     C96743   0.756  10.020   7.736  1.4026  0.7799 -1.2855
  702MOL0     C96744   0.698  10.078   7.626 -0.9720 -0.4645  0.2338
  702MOL0     C96745   0.563  10.111   7.622 -0.0904 -0.6920 -0.0689
  702MOL0     O96746   0.507  10.180   7.521 -0.0558  0.5101  0.3085
  702MOL0     C96747   0.469  10.088   7.417 -0.0145  0.3153 -0.3451
  702MOL0     C96748   0.416  10.165   7.293 -0.2615  0.3351  0.1147
  702MOL0     C96749   0.542  10.239   7.217  0.3644 -0.4595  0.3197
  702MOL0     C96750   0.519  10.383   7.161 -1.1078 -0.1383  1.1572
  702MOL0     C96751   0.651  10.452   7.133  1.1135  0.5026  0.4459
  702MOL0     C96752   0.629  10.590   7.065 -0.8765 -0.6386 -0.5970
  702MOL0     C96753   0.747  10.638   6.988 -0.3735  0.8580  0.0430
  702MOL0     C96754   0.840  10.721   7.081  0.1371 -0.3801  0.0453
  702MOL0     N96755   0.939  10.785   6.995  0.2500  0.0788  0.0951
  702MOL0     C96756   0.902  10.904   6.937  0.3741 -0.5534  0.4654
  702MOL0     C96757   0.996  10.938   6.847 -0.4630  0.3846  0.2990
  702MOL0     C96758   1.007  11.066   6.775  0.4556  0.3620  0.8255
  702MOL0     C96759   1.033  11.175   6.875 -0.4794  0.0420 -0.7336
  702MOL0     C96760   1.065  11.312   6.809 -0.4835  0.1886 -0.7500
  702MOL0     C96761   1.221  11.320   6.772  0.3296  0.5191 -0.3943
  702MOL0     O96762   1.248  11.402   6.662 -0.8380  0.5665  0.6134
  702MOL0     C96763   1.381  11.436   6.642  0.2550  0.9923  0.4202
  702MOL0     C96764   1.488  11.432   6.737 -0.5068 -0.6995  0.2149
  702MOL0     C96765   1.621  11.449   6.692 -0.2007 -0.5707 -0.3632
  702MOL0     C96766   1.726  11.437   6.792 -0.4791  0.3193  0.4909
  702MOL0     C96767   1.651  11.448   6.550 -0.9974  0.5103  0.5893
  702MOL0     C96768   1.785  11.437   6.495 -0.3036  0.0776 -0.6794
  702MOL0     O96769   1.816  11.529   6.399  0.4195  0.5480 -0.4765
  702MOL0     C96770   1.886  11.492   6.287 -0.9060  0.4354  0.0567
  702MOL0     C96771   1.885  11.361   6.236 -0.7295 -0.0207 -0.4343
  702MOL0     C96772   1.963  11.328   6.124  0.3466 -0.2204  0.2716
  702MOL0     C96773   2.031  11.426   6.048  0.4629 -0.3756  0.6451
  702MOL0     O96774   2.110  11.383   5.950 -0.5288 -0.0525  0.0880
  702MOL0     C96775   2.252  11.409   5.977 -0.6441  0.1554  0.1612
  702MOL0     C96776   2.305  11.293   6.064 -0.6537  0.5492  0.9341
  702MOL0     C96777   2.443  11.311   6.110 -0.6058 -0.7447 -0.6319
  702MOL0     C96778   2.513  11.177   6.150  0.2691 -0.0483  0.5580
  702MOL0     C96779   2.481  11.118   6.283 -0.4602  0.6427 -0.3786
  702MOL0     C96780   2.554  11.203   6.395 -0.2343 -0.8338 -0.6976
  702MOL0     C96781   2.555  11.127   6.523 -0.2459 -0.1414  0.2434
  702MOL0     C96782   2.612  11.194   6.643 -1.6303 -0.0746 -0.0942
  702MOL0    Cl96783   2.798  11.194   6.643  0.1006  0.2828  0.0115
  702MOL0     C96784   2.016  11.561   6.084 -0.8682  0.2353 -0.1167
  702MOL0     C96785   1.958  11.587   6.210 -0.5558  0.5061  0.1945
  702MOL0     O96786   1.862  11.353   6.536 -0.0733 -0.2867  0.3908
  702MOL0     C96787   1.545  11.461   6.461 -0.6512  1.1056  0.2314
  702MOL0     C96788   1.411  11.454   6.504 -0.4464  0.1487 -0.0070
  702MOL0     N96789   1.088  10.839   6.851  0.7443 -0.4088 -0.2772
  702MOL0     N96790   1.059  10.755   6.943 -0.0942 -0.0405 -0.0923
  702MOL0     C96791   0.485  10.078   7.734  0.2669 -0.1175 -0.4850
  702MOL0     C96792   0.537  10.004   7.845  0.2711  0.2433 -0.5808
  702MOL0     C96793   0.876   9.840   8.108 -0.1738 -0.3539 -0.3958
  702MOL0     C96794   0.852   9.706   8.062 -0.9569 -0.7875  1.5607
  702MOL0     C96795   0.930   9.602   8.114 -0.0203 -0.0202  0.2659
  702MOL0     C96796   1.034   9.625   8.206 -0.1007  0.3405 -0.2037
  702MOL0     O96797   1.109   9.512   8.244  0.0103  0.7529  0.7208
  702MOL0     C96798   1.193   9.519   8.354  0.2374  0.9145 -0.7474
  702MOL0     C96799   1.208   9.379   8.408 -0.1104  1.1551  0.2473
  702MOL0     C96800   1.234   9.268   8.309  0.2357 -0.6051  0.9594
  702MOL0     C96801   1.351   9.174   8.340 -0.0480 -0.8657 -0.0363
  702MOL0     C96802   1.479   9.240   8.337 -0.0552  0.1365  0.1262
  702MOL0     C96803   1.585   9.288   8.349 -0.9158 -0.6159  0.7791
  702MOL0     C96804   1.054   9.757   8.258 -0.1900  0.5618  0.4883
  702MOL0     C96805   0.974   9.855   8.208 -0.1000 -0.6209  0.4636
  702MOL0     C96806   1.016   9.992   8.243 -1.1859  0.6213 -0.2258
  702MOL0     H96807   0.861   9.993   7.739  1.2205  0.1486  1.0157
  702MOL0     H96808   0.759  10.111   7.543 -0.7825  1.5604  1.1275
  702MOL0     H96809   0.385  10.027   7.454 -0.9349  1.7023 -0.0728
  702MOL0     H96810   0.553  10.024   7.387 -0.6639  0.3787 -2.4618
  702MOL0     H96811   0.367  10.095   7.224  1.2924  1.5398 -2.3891
  702MOL0     H96812   0.340  10.238   7.322  1.3051  1.0065  2.8678
  702MOL0     H96813   0.620  10.258   7.292 -0.2301 -3.0994  1.7193
  702MOL0     H96814   0.589  10.181   7.137  1.5340  2.9812 -1.6984
  702MOL0     H96815   0.468  10.373   7.065 -0.8619  2.2673  0.7017
  702MOL0     H96816   0.453  10.436   7.230 -2.3678 -0.8000  0.4889
  702MOL0     H96817   0.706  10.389   7.063 -1.1443 -1.0975 -0.0234
  702MOL0     H96818   0.717  10.462   7.220  1.2177  0.2025  0.3992
  702MOL0     H96819   0.554  10.574   6.987  0.3540 -1.0794 -1.7177
  702MOL0     H96820   0.594  10.667   7.135  2.0753 -0.1708  0.4999
  702MOL0     H96821   0.714  10.697   6.902  0.7781 -1.7953 -2.3671
  702MOL0     H96822   0.797  10.553   6.942  0.6976 -0.1551  2.8635
  702MOL0     H96823   0.778  10.797   7.129 -1.2077 -0.0725 -2.0274
  702MOL0     H96824   0.883  10.652   7.153  4.0439  3.1044  1.4390
  702MOL0     H96825   0.820  10.973   6.954 -2.6242 -3.1473 -2.2415
  702MOL0     H96826   0.912  11.075   6.722  1.3862  0.9571 -0.8041
  702MOL0     H96827   1.080  11.062   6.694 -1.0850  2.4234 -0.7486
  702MOL0     H96828   0.940  11.173   6.932 -0.4425 -2.9348 -0.6185
  702MOL0     H96829   1.109  11.154   6.951  1.2510  0.2122 -2.3303
  702MOL0     H96830   0.996  11.338   6.728  0.0687  0.9845 -0.9842
  702MOL0     H96831   1.051  11.396   6.878  0.9051  1.3748 -1.8520
  702MOL0     H96832   1.278  11.365   6.854  1.8138  0.8488 -1.5586
  702MOL0     H96833   1.261  11.221   6.747 -4.3180 -1.6178 -0.5131
  702MOL0     H96834   1.461  11.418   6.841  2.5510  0.2194  1.2692
  702MOL0     H96835   1.769  11.339   6.810  1.0301  1.2463  2.2377
  702MOL0     H96836   1.682  11.468   6.887 -0.3037  1.0090  0.3552
  702MOL0     H96837   1.813  11.499   6.770 -0.7783  0.6554  0.2424
  702MOL0     H96838   1.822  11.292   6.291 -0.0412  1.7469  2.8009
  702MOL0     H96839   1.959  11.223   6.097 -0.9926  0.3284 -1.9061
  702MOL0     H96840   2.307  11.408   5.882 -1.1494 -1.9863 -0.1495
  702MOL0     H96841   2.274  11.504   6.027 -1.8175  1.5901 -1.9079
  702MOL0     H96842   2.236  11.273   6.146  0.5094 -1.9489  1.3808
  702MOL0     H96843   2.308  11.207   5.996  0.2894  1.0575  0.3052
  702MOL0     H96844   2.452  11.381   6.193 -0.4278 -0.7479 -0.6474
  702MOL0     H96845   2.491  11.354   6.022 -1.2409 -1.9533 -1.6105
  702MOL0     H96846   2.619  11.199   6.141 -0.5084  4.4938  0.4217
  702MOL0     H96847   2.472  11.107   6.077 -3.2987  0.5608  1.7681
  702MOL0     H96848   2.375  11.095   6.300 -0.7130  0.6427 -1.8203
  702MOL0     H96849   2.528  11.019   6.279 -3.3244 -0.8107 -0.8578
  702MOL0     H96850   2.511  11.300   6.421  1.4564 -0.2306  0.0182
  702MOL0     H96851   2.654  11.239   6.369 -2.2780  5.5800 -1.3143
  702MOL0     H96852   2.611  11.035   6.505  2.2506  1.3442 -0.0853
  702MOL0     H96853   2.455  11.101   6.558  0.4547 -4.1376 -0.2733
  702MOL0     H96854   2.581  11.141   6.734 -1.0237  1.5307  1.1042
  702MOL0     H96855   2.573  11.296   6.649 -0.3155  0.3859  1.5677
  702MOL0     H96856   2.073  11.634   6.027 -0.1186  0.3453  0.7486
  702MOL0     H96857   1.957  11.685   6.258  0.5478  0.1429  0.9981
  702MOL0     H96858   1.572  11.460   6.356 -2.3403 -0.2693 -0.2364
  702MOL0     H96859   1.332  11.453   6.431 -0.2967  1.9380 -0.2164
  702MOL0     H96860   0.378  10.100   7.740  0.0678 -1.2028  0.2936
  702MOL0     H96861   0.467   9.974   7.923 -0.7808  1.1969 -1.1176
  702MOL0     H96862   0.787   9.685   7.978  0.7043 -1.3702  0.3496
  702MOL0     H96863   0.932   9.501   8.074  0.6628  1.1229 -2.9224
  702MOL0     H96864   1.292   9.562   8.334  0.7148 -0.4219 -1.3616
  702MOL0     H96865   1.153   9.584   8.432  1.9321  3.4796 -1.8840
  702MOL0     H96866   1.112   9.360   8.455 -3.0183  1.0405 -4.9880
  702MOL0     H96867   1.293   9.382   8.477 -0.2509  0.7087  0.4466
  702MOL0     H96868   1.148   9.201   8.296 -0.0836 -0.1623  0.7539
  702MOL0     H96869   1.250   9.305   8.208 -0.5734 -1.7525  0.3864
  702MOL0     H96870   1.334   9.095   8.266 -0.3564 -0.7921 -0.0469
  702MOL0     H96871   1.334   9.122   8.435 -0.9280 -0.3041  0.1260
  702MOL0     H96872   1.676   9.338   8.372 -1.3720 -0.4454  2.2820
  702MOL0     H96873   1.119   9.785   8.340 -1.5812  1.8719  1.1737
  702MOL0     H96874   1.040   9.994   8.350 -0.1625 -1.3199 -0.3688
  702MOL0     H96875   1.087  10.035   8.172 -2.6326 -2.5480 -3.9701
  702MOL0     H96876   0.925  10.050   8.231 -1.5235  0.3946  1.0623
  703MOL0     O96877  10.476   7.689   4.437  0.1068  0.4124  0.2256
  703MOL0     C96878  10.530   7.584   4.477  0.3005  1.3903  0.2015
  703MOL0     O96879  10.636   7.528   4.418  0.0385  0.4084  0.6524
  703MOL0     C96880  10.641   7.538   4.279 -1.2024  0.0797 -0.0286
  703MOL0     C96881  10.602   7.420   4.214 -0.9653 -0.3591  0.2825
  703MOL0     C96882  10.630   7.417   4.078 -1.3922  0.6382  0.3022
  703MOL0     C96883  10.685   7.531   4.009  0.4802 -0.4635 -0.7668
  703MOL0     O96884  10.715   7.551   3.876  0.1791  0.4965 -0.0799
  703MOL0     C96885  10.638   7.470   3.781  0.7784  0.3839  0.2262
  703MOL0     C96886  10.693   7.513   3.636  0.4773  0.1327  0.2238
  703MOL0     C96887  10.846   7.482   3.619  0.2154 -1.0128  0.1294
  703MOL0     C96888  10.870   7.334   3.650 -0.4077 -0.8451  0.8793
  703MOL0     C96889  11.001   7.278   3.591 -0.1133  0.0609  0.7074
  703MOL0     C96890  11.013   7.290   3.437 -0.4723 -0.1540 -0.9060
  703MOL0     C96891  10.972   7.154   3.387 -0.0510  1.1271 -0.5448
  703MOL0     C96892  10.935   7.145   3.242  1.3767 -0.2507 -0.6176
  703MOL0     N96893  11.045   7.174   3.150 -0.6247 -0.4623 -0.0899
  703MOL0     C96894  11.089   7.299   3.097 -0.0744  0.3213 -0.3493
  703MOL0     C96895  11.198   7.266   3.027 -0.7716 -0.1514  0.0810
  703MOL0     C96896  11.281   7.360   2.954 -0.3947 -0.0227  0.3801
  703MOL0     C96897  11.186   7.444   2.868 -0.5122  0.0120  1.0646
  703MOL0     C96898  11.271   7.528   2.769 -0.0940  0.0263 -0.8847
  703MOL0     C96899  11.309   7.441   2.639 -0.0701 -0.1771  0.6232
  703MOL0     O96900  11.186   7.401   2.584  0.3107 -0.1893 -0.0307
  703MOL0     C96901  11.178   7.346   2.456 -0.0326  0.1519  0.2657
  703MOL0     C96902  11.051   7.338   2.395  0.7525 -0.4866 -0.2701
  703MOL0     C96903  11.029   7.290   2.266 -0.4580  1.0665  1.6043
  703MOL0     C96904  10.888   7.314   2.212  0.1040  0.3697 -0.0100
  703MOL0     C96905  11.142   7.226   2.200 -0.1971  1.2611  0.8699
  703MOL0     C96906  11.134   7.156   2.071  1.2066  0.2715 -0.0770
  703MOL0     O96907  11.256   7.142   2.008  0.2329 -0.6671  1.1961
  703MOL0     C96908  11.257   7.143   1.872  0.1194 -1.1782  0.3014
  703MOL0     C96909  11.252   7.021   1.813 -0.2269  0.6833  0.6941
  703MOL0     C96910  11.273   7.007   1.676 -0.3288 -0.3153 -0.3386
  703MOL0     C96911  11.291   7.116   1.593  1.0486  0.2769 -0.7772
  703MOL0     O96912  11.327   7.069   1.472 -0.3599 -0.6386  0.0875
  703MOL0     C96913  11.396   7.159   1.385 -0.2026  0.0900  0.4458
  703MOL0     C96914  11.542   7.176   1.433 -0.4895 -0.6894  0.1016
  703MOL0     C96915  11.609   7.037   1.423 -0.8337  0.2259 -0.6528
  703MOL0     C96916  11.667   7.023   1.276 -0.3307 -0.5023 -0.9045
  703MOL0     C96917  11.752   6.897   1.255  0.1792 -0.3274  0.0686
  703MOL0     C96918  11.745   6.842   1.106 -0.2487 -0.1300  0.0279
  703MOL0     C96919  11.839   6.717   1.101  0.7628 -0.0369  0.6520
  703MOL0     C96920  11.843   6.653   0.962  0.3841  0.0720 -0.0066
  703MOL0    Cl96921  11.918   6.493   0.971  0.0439 -0.4389 -0.1879
  703MOL0     C96922  11.284   7.242   1.653 -0.3465  0.0196 -0.1452
  703MOL0     C96923  11.260   7.264   1.795 -0.5002  0.6842  0.4965
  703MOL0     O96924  11.030   7.114   2.032  0.7124  0.1912  0.0463
  703MOL0     C96925  11.263   7.219   2.270  0.1878  0.2128  0.3968
  703MOL0     C96926  11.289   7.296   2.380 -0.1022 -0.5408 -0.0075
  703MOL0     N96927  11.222   7.132   3.037  0.0478  0.6018 -0.8973
  703MOL0     N96928  11.132   7.081   3.110  0.5818 -0.2086 -0.3489
  703MOL0     C96929  10.715   7.639   4.078  0.1671 -0.3375 -0.2523
  703MOL0     C96930  10.692   7.653   4.215  0.2035 -0.7569  0.4601
  703MOL0     C96931  10.497   7.538   4.613 -0.4186 -0.3234  0.5046
  703MOL0     C96932  10.364   7.560   4.666 -0.5694  0.2201 -0.4476
  703MOL0     C96933  10.337   7.520   4.798  0.2057 -0.2077 -0.1805
  703MOL0     C96934  10.430   7.448   4.880  0.3842 -0.7263  0.1945
  703MOL0     O96935  10.409   7.408   5.011  0.5258 -0.1001  0.7410
  703MOL0     C96936  10.279   7.419   5.064  0.9075 -0.8952 -0.2373
  703MOL0     C96937  10.228   7.282   5.093  0.3634 -0.3916  0.5497
  703MOL0     C96938  10.293   7.212   5.217  0.3161 -0.0426  0.0984
  703MOL0     C96939  10.206   7.105   5.270 -0.3512  0.6765  0.6543
  703MOL0     C96940  10.284   7.010   5.354 -0.1241  0.1716 -0.2566
  703MOL0     C96941  10.356   6.932   5.413 -0.3788 -0.0894 -0.2385
  703MOL0     C96942  10.553   7.427   4.823 -0.8712 -0.3900 -0.0696
  703MOL0     C96943  10.596   7.485   4.702 -0.9032 -0.5575  0.2597
  703MOL0     C96944  10.750   7.481   4.669  0.3945  0.1372 -0.6282
  703MOL0     H96945  10.576   7.327   4.264 -0.2974 -1.5909 -1.5839
  703MOL0     H96946  10.602   7.325   4.028  1.5642  1.3125 -3.0590
  703MOL0     H96947  10.532   7.489   3.801  1.0031  1.3481  0.5769
  703MOL0     H96948  10.665   7.368   3.811 -0.4298  0.4937  1.8362
  703MOL0     H96949  10.639   7.479   3.547  2.3380 -1.0821 -0.5046
  703MOL0     H96950  10.685   7.622   3.632 -0.4009  0.0606 -0.2756
  703MOL0     H96951  10.869   7.500   3.514 -2.3059  1.2312 -0.1403
  703MOL0     H96952  10.900   7.554   3.681 -2.2077  2.3211 -1.3224
  703MOL0     H96953  10.877   7.315   3.758 -2.5261 -2.8405  0.7485
  703MOL0     H96954  10.791   7.273   3.604 -1.1775 -1.3110  2.7021
  703MOL0     H96955  11.017   7.181   3.639  2.7791  1.7099  3.5365
  703MOL0     H96956  11.073   7.346   3.639 -0.1615 -1.3732  2.9718
  703MOL0     H96957  10.951   7.367   3.391  0.7785  0.7777 -1.0953
  703MOL0     H96958  11.113   7.324   3.408 -0.6681  0.9672 -0.3247
  703MOL0     H96959  10.889   7.118   3.449 -0.8634  1.2675 -1.5299
  703MOL0     H96960  11.054   7.085   3.408  1.1946  2.4977 -0.7366
  703MOL0     H96961  10.885   7.051   3.218 -0.5642 -0.2103  2.7448
  703MOL0     H96962  10.849   7.211   3.228  3.0268  1.5909 -2.9894
  703MOL0     H96963  11.049   7.392   3.136 -4.1218 -1.4089  0.1144
  703MOL0     H96964  11.349   7.301   2.891 -2.9148 -1.2810 -1.3103
  703MOL0     H96965  11.337   7.418   3.028  0.9142  0.8082 -1.1881
  703MOL0     H96966  11.115   7.379   2.816 -1.0827  2.0226 -0.8109
  703MOL0     H96967  11.149   7.513   2.944  3.6773  1.3458  2.1406
  703MOL0     H96968  11.212   7.612   2.729  0.3518  0.6768 -0.1927
  703MOL0     H96969  11.366   7.567   2.806 -0.2078 -0.9627  0.5039
  703MOL0     H96970  11.358   7.518   2.578 -2.4394  1.9959  1.3206
  703MOL0     H96971  11.373   7.358   2.671 -2.8412 -2.7871 -0.1346
  703MOL0     H96972  10.973   7.375   2.460  1.2409  2.4410 -1.1997
  703MOL0     H96973  10.821   7.373   2.276  0.5518  2.0467 -1.0091
  703MOL0     H96974  10.838   7.219   2.192 -0.8667  0.9496 -0.4673
  703MOL0     H96975  10.883   7.357   2.111 -0.5292 -0.8341 -0.5102
  703MOL0     H96976  11.247   6.928   1.868 -0.1551 -0.2897 -0.8852
  703MOL0     H96977  11.269   6.904   1.640 -2.6842 -0.6017  0.5195
  703MOL0     H96978  11.404   7.111   1.287  0.5575  0.3303  0.3758
  703MOL0     H96979  11.340   7.252   1.373 -2.1031 -1.3647 -4.5009
  703MOL0     H96980  11.598   7.246   1.370 -1.2132 -2.1032 -2.2252
  703MOL0     H96981  11.544   7.203   1.539  2.2889 -4.4470  1.2469
  703MOL0     H96982  11.548   6.947   1.431  4.5793 -4.2436 -2.7736
  703MOL0     H96983  11.693   7.036   1.493 -0.8436  1.1317 -0.6141
  703MOL0     H96984  11.740   7.103   1.260 -0.6499  0.0495  0.2564
  703MOL0     H96985  11.581   7.033   1.209  0.2012  1.9280 -1.3465
  703MOL0     H96986  11.854   6.924   1.284 -0.7628  1.5220  1.8892
  703MOL0     H96987  11.718   6.818   1.322  0.9796  0.4141  1.3840
  703MOL0     H96988  11.770   6.911   1.025 -1.2329 -0.4482 -0.5630
  703MOL0     H96989  11.638   6.823   1.092 -0.0584 -1.5483  0.3895
  703MOL0     H96990  11.798   6.639   1.165  0.0116 -1.0304 -1.0086
  703MOL0     H96991  11.937   6.732   1.149 -1.2574  0.8313  5.0415
  703MOL0     H96992  11.905   6.709   0.891 -2.2649  2.7692 -0.3967
  703MOL0     H96993  11.747   6.632   0.913  1.9480 -1.9671 -2.4055
  703MOL0     H96994  11.305   7.328   1.590  2.3148  0.8937  1.7537
  703MOL0     H96995  11.259   7.357   1.851 -1.9910  0.8354  0.2657
  703MOL0     H96996  11.350   7.176   2.221  0.0549  0.5518 -0.1515
  703MOL0     H96997  11.385   7.297   2.432 -0.3648  4.7448  1.0043
  703MOL0     H96998  10.770   7.710   4.016 -1.9124 -0.5650 -2.4999
  703MOL0     H96999  10.724   7.735   4.278 -0.1655 -0.7407  0.6332
  703MOL0     H97000  10.281   7.605   4.613 -1.0259  0.5203  0.5075
  703MOL0     H97001  10.237   7.552   4.825  0.6627  1.2672 -0.1574
  703MOL0     H97002  10.271   7.476   5.157  3.0230 -1.3957  0.2973
  703MOL0     H97003  10.211   7.464   4.991  0.6896  1.0369  1.0773
  703MOL0     H97004  10.261   7.219   5.009 -1.3560  3.6778 -3.5930
  703MOL0     H97005  10.122   7.297   5.111  0.7940 -0.1674  3.2272
  703MOL0     H97006  10.388   7.161   5.196  0.4714 -1.4772  3.5508
  703MOL0     H97007  10.304   7.288   5.294  2.3407  1.3084 -1.4080
  703MOL0     H97008  10.165   7.046   5.187 -2.5111  0.9337  1.4754
  703MOL0     H97009  10.110   7.138   5.310 -1.4996 -0.2321 -1.2460
  703MOL0     H97010  10.416   6.868   5.475 -0.4409 -1.9156 -1.9632
  703MOL0     H97011  10.622   7.373   4.886 -1.9128  0.0465  1.5006
  703MOL0     H97012  10.770   7.577   4.621  0.3456  1.1626  1.3112
  703MOL0     H97013  10.825   7.463   4.746  5.2698  2.8782 -4.1389
  703MOL0     H97014  10.759   7.399   4.597  0.2862  0.8526 -1.4665
  704MOL0     O97015  10.120   4.019   9.286 -0.8972 -0.6529 -0.1151
  704MOL0     C97016  10.087   4.032   9.168 -1.3330  1.3976 -0.0903
  704MOL0     O97017  10.144   3.966   9.063  0.4301 -1.0361  0.6170
  704MOL0     C97018  10.230   3.864   9.089 -0.0816  0.2731 -0.5707
  704MOL0     C97019  10.367   3.890   9.118 -0.6974 -0.1430 -0.4973
  704MOL0     C97020  10.470   3.799   9.158 -0.4042 -0.8282  0.9097
  704MOL0     C97021  10.420   3.668   9.169 -0.5945  1.2614  0.6088
  704MOL0     O97022  10.486   3.547   9.201 -0.0048  0.1116 -0.2380
  704MOL0     C97023  10.625   3.566   9.180 -0.1896 -0.3257 -0.2512
  704MOL0     C97024  10.693   3.431   9.185 -0.3404  0.0272 -0.2786
  704MOL0     C97025  10.635   3.330   9.075  0.0636  1.1196 -0.6708
  704MOL0     C97026  10.660   3.375   8.932  0.3221 -0.6322  0.6324
  704MOL0     C97027  10.803   3.386   8.896  0.7998  0.1842  0.8926
  704MOL0     C97028  10.821   3.385   8.746 -0.7769  0.4305 -0.0421
  704MOL0     C97029  10.745   3.490   8.668  0.1067  0.1484  0.7888
  704MOL0     C97030  10.774   3.633   8.725 -0.1776 -0.0153  0.3591
  704MOL0     N97031  10.664   3.727   8.696  0.0071 -0.0214  0.1519
  704MOL0     C97032  10.551   3.757   8.777 -0.1397  0.0537 -0.1469
  704MOL0     C97033  10.500   3.864   8.715  0.3875  0.9872  0.1349
  704MOL0     C97034  10.371   3.920   8.748  0.2249 -0.4582  0.3827
  704MOL0     C97035  10.369   4.060   8.807 -0.9667 -0.1643  0.9313
  704MOL0     C97036  10.435   4.173   8.731  0.3229  0.0552 -0.3527
  704MOL0     C97037  10.414   4.298   8.825 -0.1229 -0.3025  0.1211
  704MOL0     O97038  10.475   4.271   8.958  0.0970  0.5670  0.6849
  704MOL0     C97039  10.477   4.371   9.046 -0.3771  0.8043 -1.0804
  704MOL0     C97040  10.444   4.501   9.031 -0.0299  0.9004 -0.4964
  704MOL0     C97041  10.449   4.591   9.139 -0.8605  0.1559 -0.2173
  704MOL0     C97042  10.400   4.730   9.092 -0.1178  0.1356  0.2386
  704MOL0     C97043  10.453   4.558   9.278  0.6736  1.1230  0.7639
  704MOL0     C97044  10.434   4.639   9.399 -0.6504 -0.0760 -0.5318
  704MOL0     O97045  10.457   4.569   9.511  0.4547  1.1093 -0.4604
  704MOL0     C97046  10.451   4.610   9.641 -0.5545  0.9790  1.3038
  704MOL0     C97047  10.409   4.526   9.739 -1.1357 -0.5249 -0.3785
  704MOL0     C97048  10.418   4.561   9.878 -0.6778  0.2348  0.0138
  704MOL0     C97049  10.463   4.685   9.914  0.2558 -0.6007 -0.5404
  704MOL0     O97050  10.488   4.692  10.048 -0.7097  0.0352 -0.1225
  704MOL0     C97051  10.550   4.818  10.093 -0.2288 -0.1549  0.0351
  704MOL0     C97052  10.549   4.820  10.248 -0.1725  0.3128 -0.3749
  704MOL0     C97053  10.585   4.958  10.317 -0.2354  0.0285 -0.1696
  704MOL0     C97054  10.726   5.004  10.269 -0.1793  1.5690  0.0417
  704MOL0     C97055  10.822   4.914  10.342  0.1669 -0.7922  0.4500
  704MOL0     C97056  10.951   4.982  10.376 -0.0542 -0.0389  0.2814
  704MOL0     C97057  11.056   4.880  10.429 -0.4807  0.0964  0.5195
  704MOL0     C97058  11.189   4.881  10.353  0.7729 -0.0644  0.0640
  704MOL0    Cl97059  11.258   5.046  10.352  0.4882 -0.1619 -0.7909
  704MOL0     C97060  10.494   4.773   9.812 -0.5336  0.6672  0.0645
  704MOL0     C97061  10.496   4.736   9.677 -0.4018 -0.0144 -0.1596
  704MOL0     O97062  10.399   4.754   9.398 -0.2992 -0.1246 -0.0481
  704MOL0     C97063  10.484   4.417   9.291 -0.4672 -0.7326 -0.1906
  704MOL0     C97064  10.497   4.329   9.179  0.1488  0.4750 -0.4923
  704MOL0     N97065  10.585   3.907   8.613  0.9981  0.4690  0.7292
  704MOL0     N97066  10.686   3.825   8.608  0.8263 -0.1824 -0.5751
  704MOL0     C97067  10.283   3.638   9.133  0.3522 -0.9464  0.6115
  704MOL0     C97068  10.188   3.728   9.087 -0.3827 -0.5112  0.8273
  704MOL0     C97069   9.968   4.112   9.136 -0.8919 -0.4404 -0.5439
  704MOL0     C97070   9.856   4.093   9.214  0.2645 -0.0442 -0.9201
  704MOL0     C97071   9.740   4.166   9.205  0.4822 -0.0528 -0.7812
  704MOL0     C97072   9.732   4.253   9.095  1.2924 -1.1214  0.4036
  704MOL0     O97073   9.603   4.300   9.073  0.0168  0.2023 -0.6832
  704MOL0     C97074   9.519   4.213   8.994 -0.4200 -0.6421  0.5332
  704MOL0     C97075   9.380   4.215   9.051  0.6966 -0.2366  0.1972
  704MOL0     C97076   9.366   4.125   9.174 -0.0408 -0.4391  0.3083
  704MOL0     C97077   9.380   3.981   9.150 -0.4513  0.9905  0.0166
  704MOL0     C97078   9.374   3.896   9.266  0.3734 -0.2314 -0.2631
  704MOL0     C97079   9.383   3.839   9.373  0.2435 -0.0417  0.6352
  704MOL0     C97080   9.842   4.264   8.997  0.1979  0.4055 -0.5711
  704MOL0     C97081   9.961   4.210   9.041  0.1637  0.1566  0.2537
  704MOL0     C97082  10.086   4.253   8.964  0.2064  0.8044  0.6487
  704MOL0     H97083  10.391   3.996   9.126 -1.9408 -0.0182  4.2494
  704MOL0     H97084  10.566   3.833   9.195 -1.4785  0.8914  2.2333
  704MOL0     H97085  10.671   3.633   9.253  0.7853  3.0370 -3.6368
  704MOL0     H97086  10.650   3.606   9.082  3.5509  0.3570  0.8088
  704MOL0     H97087  10.801   3.429   9.168 -0.0523 -4.0934  0.8808
  704MOL0     H97088  10.696   3.380   9.282  3.9064  1.6550  0.6647
  704MOL0     H97089  10.680   3.232   9.089 -2.3291  0.1359  0.6260
  704MOL0     H97090  10.529   3.318   9.095  0.4567 -0.0761  0.9132
  704MOL0     H97091  10.615   3.304   8.863 -1.8042  0.7285  0.5022
  704MOL0     H97092  10.617   3.476   8.927  0.1181 -0.6724  1.4154
  704MOL0     H97093  10.845   3.293   8.935 -1.6018 -3.8275 -4.6872
  704MOL0     H97094  10.849   3.466   8.954 -0.3583  0.1241  1.9470
  704MOL0     H97095  10.929   3.396   8.730 -0.3733 -0.4955  1.7602
  704MOL0     H97096  10.780   3.288   8.714 -1.1700 -0.6359  3.3688
  704MOL0     H97097  10.641   3.465   8.692  0.4725  0.1991  2.5635
  704MOL0     H97098  10.763   3.487   8.560  1.2296 -1.7970  0.9842
  704MOL0     H97099  10.783   3.638   8.833  2.5620  0.3538  0.1816
  704MOL0     H97100  10.869   3.672   8.690  0.5026  1.6509  3.6896
  704MOL0     H97101  10.511   3.695   8.857 -0.3614  1.5077  0.9157
  704MOL0     H97102  10.312   3.861   8.818 -0.8177 -0.0837 -0.1588
  704MOL0     H97103  10.315   3.925   8.654  1.2146 -1.5069 -0.2923
  704MOL0     H97104  10.264   4.087   8.820 -0.8178  2.1741 -1.7331
  704MOL0     H97105  10.418   4.057   8.905  0.5315 -2.5200  0.1993
  704MOL0     H97106  10.540   4.148   8.713 -0.5967 -2.4066 -3.0412
  704MOL0     H97107  10.395   4.190   8.631  3.1918  0.5757 -1.5214
  704MOL0     H97108  10.473   4.374   8.774  1.2524 -0.1073  1.8984
  704MOL0     H97109  10.314   4.340   8.814 -0.1542 -0.4584 -0.1952
  704MOL0     H97110  10.411   4.541   8.936 -2.8876  2.0135  0.8430
  704MOL0     H97111  10.478   4.778   9.033 -0.9616  2.1728  0.7052
  704MOL0     H97112  10.373   4.800   9.171  1.4875 -1.7532  2.6064
  704MOL0     H97113  10.311   4.705   9.033 -0.7518 -1.2152  1.6821
  704MOL0     H97114  10.395   4.424   9.704  1.3364 -0.9090 -0.4736
  704MOL0     H97115  10.394   4.486   9.952 -2.6282  0.1643 -0.6281
  704MOL0     H97116  10.652   4.832  10.056 -0.1204 -1.0598 -0.0187
  704MOL0     H97117  10.492   4.905  10.059  1.5786  0.8558 -0.6706
  704MOL0     H97118  10.453   4.778  10.281 -0.1690  1.1758  0.8030
  704MOL0     H97119  10.610   4.739  10.289 -2.1546 -1.6526 -1.0756
  704MOL0     H97120  10.576   4.935  10.424 -3.1191  0.3048 -0.2580
  704MOL0     H97121  10.500   5.024  10.295 -1.9638 -2.7736 -2.7936
  704MOL0     H97122  10.740   5.111  10.283  0.1189  1.5699 -0.2353
  704MOL0     H97123  10.737   4.997  10.160 -3.1482  0.4840 -0.2756
  704MOL0     H97124  10.775   4.870  10.431 -0.7199 -1.4395 -0.3142
  704MOL0     H97125  10.848   4.835  10.272  1.7808  0.8546 -0.9041
  704MOL0     H97126  10.938   5.053  10.459  0.2099  0.1541  0.1606
  704MOL0     H97127  10.981   5.040  10.288 -1.2031  1.0322  0.5662
  704MOL0     H97128  11.019   4.780  10.406  4.0575 -1.6596 -0.1847
  704MOL0     H97129  11.057   4.887  10.538 -0.9322  1.6853  0.4555
  704MOL0     H97130  11.172   4.849  10.250 -0.0800  2.1612 -0.5445
  704MOL0     H97131  11.264   4.812  10.392 -1.2893 -3.8070 -2.0841
  704MOL0     H97132  10.528   4.871   9.845  0.7597  0.2045  0.1313
  704MOL0     H97133  10.528   4.801   9.596  3.0160 -0.5665  0.5665
  704MOL0     H97134  10.486   4.367   9.387 -2.1373  0.8333  0.7219
  704MOL0     H97135  10.515   4.225   9.201 -0.4031  0.5582  0.3743
  704MOL0     H97136  10.250   3.534   9.135 -0.1089 -0.8257 -0.1290
  704MOL0     H97137  10.098   3.677   9.055  2.0148 -4.7276  0.0392
  704MOL0     H97138   9.870   4.028   9.300  1.9944  2.5397  0.9059
  704MOL0     H97139   9.658   4.168   9.276 -0.8038  1.7506 -2.1998
  704MOL0     H97140   9.520   4.251   8.891 -0.5665  0.1744  0.8277
  704MOL0     H97141   9.577   4.120   9.000  3.0559  1.4049  1.3526
  704MOL0     H97142   9.298   4.194   8.982  0.1345 -1.0975  1.0989
  704MOL0     H97143   9.353   4.312   9.095  1.9609 -0.3382  1.2623
  704MOL0     H97144   9.441   4.148   9.250  1.3921 -1.5816 -0.6801
  704MOL0     H97145   9.266   4.140   9.215 -0.6894  0.7642 -1.5662
  704MOL0     H97146   9.478   3.956   9.110 -0.3462  1.1535  0.1733
  704MOL0     H97147   9.323   3.939   9.066  1.3588 -3.5933  0.7704
  704MOL0     H97148   9.378   3.803   9.474 -0.9444  0.5354  0.8059
  704MOL0     H97149   9.832   4.313   8.901  0.3713 -1.4474 -1.5847
  704MOL0     H97150  10.104   4.188   8.878  1.9288 -0.9470  2.2586
  704MOL0     H97151  10.073   4.360   8.941  2.1932  1.1930  1.1855
  704MOL0     H97152  10.176   4.240   9.024 -0.6704 -3.9753  1.3335
  705MOL0     O97153  10.514  11.093   0.684  0.2237 -0.2263  0.0088
  705MOL0     C97154  10.425  11.012   0.690 -0.0318 -0.6204 -0.7043
  705MOL0     O97155  10.298  11.036   0.652  0.3084  0.0540 -0.2197
  705MOL0     C97156  10.265  11.170   0.636 -1.0850 -0.5823  0.4033
  705MOL0     C97157  10.259  11.252   0.752 -1.1797  0.4461 -0.6365
  705MOL0     C97158  10.221  11.390   0.740  0.1620 -0.0565  0.5982
  705MOL0     C97159  10.196  11.440   0.610  0.2401 -0.2530  0.1187
  705MOL0     O97160  10.157  11.565   0.574 -1.2482  0.4769 -0.2775
  705MOL0     C97161  10.215  11.675   0.644 -0.2409  0.5404  0.8676
  705MOL0     C97162  10.141  11.804   0.597  0.0942  0.6421 -0.6778
  705MOL0     C97163  10.141  11.822   0.441  1.0104  0.6840 -0.6228
  705MOL0     C97164  10.055  11.940   0.416  0.2543 -0.3239  0.3738
  705MOL0     C97165  10.102  12.067   0.491 -0.4625  0.5473  0.0320
  705MOL0     C97166  10.060  12.199   0.415  0.6024  0.4970  0.6854
  705MOL0     C97167  10.134  12.325   0.454  0.5651 -0.5311  0.1998
  705MOL0     C97168  10.105  12.358   0.602  0.6780  0.2442 -0.6161
  705MOL0     N97169  10.226  12.360   0.683 -0.1168  0.1195  0.0327
  705MOL0     C97170  10.300  12.468   0.715 -0.6315  0.2507  0.1459
  705MOL0     C97171  10.396  12.422   0.796 -0.4031 -0.3861 -0.2667
  705MOL0     C97172  10.513  12.502   0.861 -0.2422  0.6553  0.1324
  705MOL0     C97173  10.497  12.540   1.008 -0.3023  0.1452  0.5806
  705MOL0     C97174  10.632  12.590   1.069  0.0378  0.4554  0.7513
  705MOL0     C97175  10.709  12.482   1.143  0.9401 -0.1608  0.6981
  705MOL0     O97176  10.840  12.533   1.171  0.0452  0.6706  0.2745
  705MOL0     C97177  10.913  12.460   1.262  0.1578 -0.0659  0.0865
  705MOL0     C97178  11.033  12.392   1.219 -0.0284 -0.0059 -0.2341
  705MOL0     C97179  11.111  12.324   1.314  0.6028  0.3815  0.1266
  705MOL0     C97180  11.230  12.255   1.249 -0.2565 -0.3982 -0.3798
  705MOL0     C97181  11.076  12.315   1.453  0.0338 -0.9837 -0.1207
  705MOL0     C97182  11.148  12.237   1.557  0.4061 -0.0945 -0.4407
  705MOL0     O97183  11.257  12.162   1.525  0.0363  0.4267 -0.5759
  705MOL0     C97184  11.345  12.126   1.631  0.3343  0.6464  0.5842
  705MOL0     C97185  11.384  12.223   1.726 -0.6226  0.0827 -0.0278
  705MOL0     C97186  11.482  12.194   1.824  0.1075  1.4899 -0.8757
  705MOL0     C97187  11.547  12.067   1.835  0.0638 -1.2794 -0.3852
  705MOL0     O97188  11.622  12.034   1.944  0.3670 -0.3702 -0.1940
  705MOL0     C97189  11.654  12.122   2.054 -0.2434  0.7064 -0.5075
  705MOL0     C97190  11.727  12.046   2.163  0.4048 -0.6717  0.0129
  705MOL0     C97191  11.864  11.989   2.111 -0.1491 -0.0218 -0.4002
  705MOL0     C97192  11.921  11.890   2.219 -0.7728 -0.7707  0.8500
  705MOL0     C97193  12.071  11.859   2.191  0.5761 -0.4551 -0.3093
  705MOL0     C97194  12.089  11.789   2.058  0.6274 -0.0196 -0.0296
  705MOL0     C97195  12.225  11.715   2.058 -0.6186  0.1723  0.0920
  705MOL0     C97196  12.259  11.676   1.914 -0.4625  0.3639  0.5830
  705MOL0    Cl97197  12.417  11.609   1.922  0.1759  0.2511 -0.7447
  705MOL0     C97198  11.494  11.968   1.757 -0.1236 -0.3884  0.6566
  705MOL0     C97199  11.402  11.999   1.656 -0.5597  0.3145  0.4512
  705MOL0     O97200  11.095  12.253   1.668  0.1521 -0.2429 -0.7151
  705MOL0     C97201  10.958  12.379   1.485 -0.8728  0.7413 -0.2553
  705MOL0     C97202  10.877  12.454   1.400  0.1614  0.2510 -0.7182
  705MOL0     N97203  10.370  12.288   0.824  0.5022 -0.2660  0.3255
  705MOL0     N97204  10.262  12.253   0.749 -0.5351  0.5534  0.1208
  705MOL0     C97205  10.211  11.365   0.500  0.2656  0.6292 -0.2132
  705MOL0     C97206  10.254  11.230   0.514 -0.1699 -0.8240 -0.0259
  705MOL0     C97207  10.450  10.865   0.728  0.7499  0.4463  0.4139
  705MOL0     C97208  10.346  10.768   0.709  0.4588 -1.1813  0.3009
  705MOL0     C97209  10.364  10.639   0.754 -0.6200 -0.2466  0.5488
  705MOL0     C97210  10.502  10.594   0.778  0.3876 -0.0299  0.0386
  705MOL0     O97211  10.511  10.463   0.802 -0.1879  0.1985  0.9229
  705MOL0     C97212  10.625  10.400   0.855  0.2973 -0.1562 -0.4448
  705MOL0     C97213  10.577  10.277   0.937 -0.2356  0.5752 -0.1287
  705MOL0     C97214  10.486  10.166   0.865  0.3085  0.2554 -0.5889
  705MOL0     C97215  10.525  10.136   0.713 -0.9676  0.2573  0.3235
  705MOL0     C97216  10.650  10.071   0.722 -1.3386  0.4871  0.2448
  705MOL0     C97217  10.763  10.024   0.733 -0.3035 -0.1449 -0.2399
  705MOL0     C97218  10.603  10.684   0.784  1.2382  0.6252 -0.2205
  705MOL0     C97219  10.579  10.821   0.764 -0.0357  0.1643  0.8086
  705MOL0     C97220  10.711  10.904   0.794  0.4116  0.3408  0.0626
  705MOL0     H97221  10.285  11.220   0.852 -0.9050 -1.7066 -1.3427
  705MOL0     H97222  10.231  11.447   0.832  0.6089  0.3724  0.2939
  705MOL0     H97223  10.321  11.674   0.617 -0.0823 -1.6743  1.3501
  705MOL0     H97224  10.202  11.661   0.752 -0.8178  1.2148  0.8901
  705MOL0     H97225  10.036  11.795   0.627 -0.1030  0.1231 -1.4895
  705MOL0     H97226  10.189  11.886   0.650  3.7287 -1.7044 -0.0124
  705MOL0     H97227  10.248  11.832   0.419  1.0389 -0.4544 -1.0508
  705MOL0     H97228  10.100  11.742   0.380  1.0781  0.8580 -0.9028
  705MOL0     H97229  10.061  11.957   0.308  0.2477 -1.8325  0.1271
  705MOL0     H97230   9.954  11.910   0.442 -0.0107  0.1839 -0.0313
  705MOL0     H97231  10.210  12.052   0.490 -0.8732 -3.7110 -0.3910
  705MOL0     H97232  10.071  12.075   0.596  3.5556  0.2766  1.4102
  705MOL0     H97233  10.099  12.189   0.313  1.9720 -1.4388  1.3389
  705MOL0     H97234   9.951  12.207   0.416  0.5013 -0.4210 -0.6704
  705MOL0     H97235  10.090  12.406   0.396 -0.0033 -0.2553  1.0056
  705MOL0     H97236  10.243  12.321   0.437  0.4070 -0.8319 -0.8277
  705MOL0     H97237  10.062  12.458   0.613 -0.4343  0.0540 -2.7619
  705MOL0     H97238  10.030  12.299   0.656  0.6501  1.8574  1.1921
  705MOL0     H97239  10.288  12.568   0.673 -1.7177  0.1870  0.2828
  705MOL0     H97240  10.533  12.592   0.802  0.0308  0.6486  0.2126
  705MOL0     H97241  10.599  12.437   0.840 -1.3412 -0.6172 -0.6073
  705MOL0     H97242  10.416  12.613   0.999 -1.0594 -0.2156  3.5239
  705MOL0     H97243  10.466  12.451   1.063  0.9623 -1.7240 -1.5428
  705MOL0     H97244  10.698  12.624   0.988  1.5093 -2.0838  0.7864
  705MOL0     H97245  10.616  12.675   1.135 -1.5111  1.1578 -0.4626
  705MOL0     H97246  10.657  12.457   1.235  2.0510 -4.1382  0.4441
  705MOL0     H97247  10.713  12.395   1.077  0.3154  1.4389 -1.5825
  705MOL0     H97248  11.046  12.406   1.112  0.8750  0.7998 -0.0340
  705MOL0     H97249  11.280  12.316   1.174 -2.4319  1.9610 -0.0577
  705MOL0     H97250  11.192  12.160   1.211 -0.1356 -0.7053  0.2413
  705MOL0     H97251  11.310  12.230   1.320  0.0832 -1.0095 -0.9586
  705MOL0     H97252  11.327  12.316   1.727  1.7127  1.7512 -3.1351
  705MOL0     H97253  11.502  12.265   1.903  2.1619 -0.6979  0.7010
  705MOL0     H97254  11.715  12.210   2.031  0.8736 -0.2229 -1.2234
  705MOL0     H97255  11.559  12.149   2.100 -0.6852  0.0077 -0.9996
  705MOL0     H97256  11.748  12.124   2.236  1.7558 -0.2014 -0.8534
  705MOL0     H97257  11.659  11.970   2.204 -0.6073  1.3426  2.2835
  705MOL0     H97258  11.934  12.073   2.104  0.0027  0.1433  2.1548
  705MOL0     H97259  11.861  11.947   2.010  2.1886  0.3186 -0.6505
  705MOL0     H97260  11.872  11.792   2.220  1.0425 -1.8029 -1.5788
  705MOL0     H97261  11.903  11.930   2.319 -1.2016  1.2091  0.0390
  705MOL0     H97262  12.128  11.951   2.207  2.6831 -1.7268 -0.1497
  705MOL0     H97263  12.097  11.787   2.268 -0.8780 -0.4678  0.1987
  705MOL0     H97264  12.091  11.870   1.985  0.6331 -0.2176 -0.2519
  705MOL0     H97265  12.007  11.720   2.037  0.8295 -0.1963 -0.2500
  705MOL0     H97266  12.217  11.629   2.124 -0.6542 -0.3973 -0.6415
  705MOL0     H97267  12.301  11.780   2.102 -1.9235  0.8871  1.3732
  705MOL0     H97268  12.254  11.770   1.857  1.2714  1.2970  1.8847
  705MOL0     H97269  12.180  11.608   1.882 -3.3015  3.0774  1.3039
  705MOL0     H97270  11.537  11.870   1.775  0.8487  0.4632  3.6440
  705MOL0     H97271  11.363  11.926   1.586  2.6741 -0.2504 -0.9633
  705MOL0     H97272  10.917  12.386   1.585 -0.5627  0.4890 -0.1074
  705MOL0     H97273  10.786  12.497   1.442 -0.7208 -3.1466  1.2611
  705MOL0     H97274  10.201  11.403   0.398 -0.5387 -0.5796 -0.6094
  705MOL0     H97275  10.263  11.164   0.428  1.0848 -0.5579 -0.1192
  705MOL0     H97276  10.245  10.793   0.680 -0.7664 -2.7424  2.8510
  705MOL0     H97277  10.276  10.576   0.746 -0.8096  0.0573  0.2351
  705MOL0     H97278  10.683  10.345   0.780  1.2722 -1.3841  1.1291
  705MOL0     H97279  10.694  10.471   0.901  0.9474 -0.9215 -0.2010
  705MOL0     H97280  10.518  10.308   1.023 -2.1519  2.2632 -1.9350
  705MOL0     H97281  10.663  10.224   0.977 -1.5742  0.8901  3.5073
  705MOL0     H97282  10.486  10.074   0.923  0.0880  1.3594  1.2481
  705MOL0     H97283  10.388  10.214   0.866 -0.1846 -0.5840  2.6985
  705MOL0     H97284  10.540  10.225   0.650 -0.4926 -0.5389 -0.7133
  705MOL0     H97285  10.453  10.065   0.672  0.3609 -1.5813  1.0173
  705MOL0     H97286  10.862   9.982   0.736  0.9310  2.6229  1.8445
  705MOL0     H97287  10.700  10.641   0.809 -1.1049 -3.1161  3.9390
  705MOL0     H97288  10.703  10.986   0.866  2.3020  0.3374  0.3457
  705MOL0     H97289  10.784  10.837   0.841 -0.8990 -1.6521 -0.6025
  705MOL0     H97290  10.751  10.948   0.702 -1.8289  1.4570 -0.4411
  706MOL0     O97291   3.701   9.925   5.124  0.9874 -0.8154  0.5208
  706MOL0     C97292   3.594   9.907   5.190 -0.3821 -0.6526  1.0887
  706MOL0     O97293   3.479   9.865   5.129 -0.1753  0.5118 -0.0496
  706MOL0     C97294   3.477   9.837   4.994 -0.3859 -0.0293  0.2293
  706MOL0     C97295   3.448   9.703   4.953  0.5300  0.6854 -0.2581
  706MOL0     C97296   3.432   9.673   4.819 -0.0072  0.3626  0.4905
  706MOL0     C97297   3.443   9.769   4.717 -0.0344  0.4203 -0.2794
  706MOL0     O97298   3.429   9.739   4.584 -0.2633 -0.1666 -0.0359
  706MOL0     C97299   3.516   9.802   4.499 -0.2778 -0.9405  0.2534
  706MOL0     C97300   3.503   9.728   4.369  0.9194  0.2038 -0.6537
  706MOL0     C97301   3.562   9.800   4.259 -0.4108 -0.5694 -0.6133
  706MOL0     C97302   3.707   9.743   4.250  0.7240 -0.0944  0.2394
  706MOL0     C97303   3.778   9.772   4.123 -0.9083 -0.3029 -0.6990
  706MOL0     C97304   3.750   9.683   4.002  0.3868 -0.2674 -0.2948
  706MOL0     C97305   3.808   9.746   3.866  0.9728  0.9841 -0.0789
  706MOL0     C97306   3.970   9.724   3.859  0.1724 -0.5309  0.5908
  706MOL0     N97307   4.022   9.751   3.725  0.4405  0.2555  0.3351
  706MOL0     C97308   3.945   9.745   3.609  0.3722  0.3321  0.2413
  706MOL0     C97309   4.037   9.747   3.507 -0.5064  0.1858  0.4079
  706MOL0     C97310   4.016   9.729   3.359 -0.0373 -0.0295 -0.0645
  706MOL0     C97311   4.141   9.728   3.266  0.3201  0.3047  1.1839
  706MOL0     C97312   4.182   9.876   3.255 -0.4219  0.7830  0.3086
  706MOL0     C97313   4.280   9.908   3.146 -0.3995  0.7216  0.3071
  706MOL0     O97314   4.193   9.943   3.033 -0.8677 -0.6616  0.3373
  706MOL0     C97315   4.250   9.966   2.905  0.2110 -0.3900 -0.1059
  706MOL0     C97316   4.380   9.928   2.865  0.8240 -0.3064  0.2575
  706MOL0     C97317   4.427   9.954   2.736 -0.6482  0.1416 -0.7388
  706MOL0     C97318   4.570   9.917   2.709  0.2995  0.1640  0.0136
  706MOL0     C97319   4.336  10.001   2.643  0.0996 -0.1029  0.3111
  706MOL0     C97320   4.368  10.019   2.503  1.1804 -0.7475 -0.9599
  706MOL0     O97321   4.290  10.103   2.426 -0.9158 -0.7949 -0.1737
  706MOL0     C97322   4.348  10.184   2.330  0.6179  0.2202  0.7390
  706MOL0     C97323   4.488  10.204   2.320  0.7342 -0.6660  0.4222
  706MOL0     C97324   4.548  10.295   2.223  0.7331  0.1621  0.2355
  706MOL0     C97325   4.457  10.355   2.134 -0.1681 -0.4497  1.2705
  706MOL0     O97326   4.506  10.443   2.048  0.3159 -0.0110  0.2410
  706MOL0     C97327   4.450  10.472   1.925 -0.1888  0.8096 -0.3562
  706MOL0     C97328   4.548  10.538   1.836  0.2548  0.0847 -0.6276
  706MOL0     C97329   4.655  10.625   1.918  0.2089  0.2454 -0.7802
  706MOL0     C97330   4.751  10.701   1.820  0.4644  0.6718  0.1514
  706MOL0     C97331   4.832  10.801   1.891 -0.5024  0.7848 -0.4332
  706MOL0     C97332   4.952  10.859   1.817  0.1418  0.5590  0.3602
  706MOL0     C97333   5.055  10.748   1.809 -0.0596 -0.1501 -0.3848
  706MOL0     C97334   5.190  10.810   1.811 -0.1802  0.0100  0.5479
  706MOL0    Cl97335   5.228  10.867   1.973  0.2925 -0.0617  0.0857
  706MOL0     C97336   4.317  10.322   2.137  0.0864  0.2396  0.1048
  706MOL0     C97337   4.265  10.248   2.241  0.7952  0.0971 -0.3872
  706MOL0     O97338   4.471   9.950   2.460 -0.3980 -0.6270  0.6650
  706MOL0     C97339   4.205  10.042   2.683 -0.5575 -0.0637 -1.0261
  706MOL0     C97340   4.164  10.025   2.811  0.0891  0.1134 -0.0927
  706MOL0     N97341   4.161   9.774   3.559  0.0008 -0.2285  0.7195
  706MOL0     N97342   4.149   9.767   3.689 -0.6595 -0.3693  0.6060
  706MOL0     C97343   3.472   9.899   4.762 -0.3873 -0.6210  0.5837
  706MOL0     C97344   3.480   9.933   4.894  0.4122  0.3336 -0.0664
  706MOL0     C97345   3.579   9.964   5.333 -0.4320  0.5438  0.1577
  706MOL0     C97346   3.695  10.004   5.399  0.4816 -0.0761 -0.2933
  706MOL0     C97347   3.694  10.037   5.537  0.2269 -0.9012  0.0979
  706MOL0     C97348   3.579  10.026   5.611  0.4368 -0.0638 -0.1187
  706MOL0     O97349   3.592  10.051   5.741  0.3273  0.1780  0.7559
  706MOL0     C97350   3.614   9.928   5.820  0.5253 -0.5236 -0.0135
  706MOL0     C97351   3.480   9.870   5.864 -1.2813  0.1678 -0.3136
  706MOL0     C97352   3.390   9.967   5.944  0.6361  0.8913  0.8093
  706MOL0     C97353   3.400   9.989   6.093  0.4460 -0.3869 -0.2901
  706MOL0     C97354   3.407   9.869   6.184 -0.7089 -0.7824  0.5015
  706MOL0     C97355   3.406   9.772   6.263 -0.8634 -0.8910 -0.3480
  706MOL0     C97356   3.465   9.993   5.542 -0.1436 -0.0396 -0.8791
  706MOL0     C97357   3.457   9.961   5.404  0.0517  0.8548 -0.1962
  706MOL0     C97358   3.323   9.898   5.365  0.3265 -0.4561 -0.2817
  706MOL0     H97359   3.446   9.628   5.031 -0.1537 -1.9505 -2.6307
  706MOL0     H97360   3.419   9.570   4.790  1.2460  0.4536 -0.5121
  706MOL0     H97361   3.619   9.793   4.534 -0.3132 -2.0968  0.0982
  706MOL0     H97362   3.478   9.904   4.488 -1.4739 -1.4668 -0.7835
  706MOL0     H97363   3.549   9.629   4.373 -0.6378 -0.5939 -1.4039
  706MOL0     H97364   3.396   9.714   4.348  0.7361 -0.6405  0.7140
  706MOL0     H97365   3.512   9.768   4.167 -0.7327  1.2224 -1.0846
  706MOL0     H97366   3.570   9.908   4.271  1.3936 -0.6367 -0.8532
  706MOL0     H97367   3.766   9.789   4.330 -1.2274  1.1184  1.0707
  706MOL0     H97368   3.702   9.637   4.276 -3.3503  0.4657  2.5653
  706MOL0     H97369   3.884   9.765   4.149 -1.4157 -1.0440  1.3929
  706MOL0     H97370   3.763   9.873   4.083 -0.2692 -1.0766 -3.0281
  706MOL0     H97371   3.798   9.586   4.018  0.8912  0.2838  1.9053
  706MOL0     H97372   3.641   9.682   3.999  0.3856 -1.3732 -0.2105
  706MOL0     H97373   3.778   9.850   3.852  2.1520  1.3884  0.2814
  706MOL0     H97374   3.765   9.670   3.800  3.1954 -2.2897  1.9285
  706MOL0     H97375   4.027   9.797   3.916  4.7909 -1.3386 -2.4251
  706MOL0     H97376   3.985   9.620   3.890 -1.9296 -0.5284  1.8253
  706MOL0     H97377   3.837   9.735   3.607  0.1175  1.6284  2.8421
  706MOL0     H97378   3.930   9.791   3.330 -0.7091  0.0991  2.0481
  706MOL0     H97379   3.988   9.624   3.345  1.2022 -0.6108  1.5578
  706MOL0     H97380   4.223   9.661   3.295  1.0566  0.6536 -0.0163
  706MOL0     H97381   4.110   9.678   3.174 -3.6607  1.1807  1.8767
  706MOL0     H97382   4.104   9.952   3.258 -0.2948  0.8919  0.9580
  706MOL0     H97383   4.231   9.901   3.349 -1.8995 -2.2597  2.0640
  706MOL0     H97384   4.340   9.992   3.181  0.6892  0.2703 -0.4232
  706MOL0     H97385   4.360   9.833   3.138 -0.0200  1.2850 -1.9161
  706MOL0     H97386   4.435   9.870   2.938 -0.8419 -1.4176  0.6845
  706MOL0     H97387   4.622   9.979   2.635  2.3018 -0.9194  0.4387
  706MOL0     H97388   4.562   9.818   2.663 -1.3535  0.0805  0.4188
  706MOL0     H97389   4.618   9.916   2.808 -0.1464  0.1373  0.2358
  706MOL0     H97390   4.556  10.151   2.386  0.9402  0.8990  1.5103
  706MOL0     H97391   4.652  10.325   2.219  0.4060  1.2658 -0.7724
  706MOL0     H97392   4.410  10.386   1.872 -4.0925  2.0554  0.2964
  706MOL0     H97393   4.373  10.549   1.934  1.3238  2.1680  2.4574
  706MOL0     H97394   4.606  10.463   1.781 -1.5912 -1.2291 -0.9002
  706MOL0     H97395   4.505  10.599   1.756  1.0157  0.8447 -0.4692
  706MOL0     H97396   4.716  10.554   1.975 -2.5086 -2.0850 -0.5924
  706MOL0     H97397   4.606  10.694   1.988  1.2474 -0.3750  0.6102
  706MOL0     H97398   4.683  10.759   1.758 -1.2751 -0.1421  1.2210
  706MOL0     H97399   4.815  10.630   1.766 -0.6422 -0.3011  0.0891
  706MOL0     H97400   4.782  10.890   1.932  1.2121  1.5350  0.1171
  706MOL0     H97401   4.877  10.758   1.982 -0.4427 -1.7596 -1.5879
  706MOL0     H97402   5.002  10.948   1.855  1.7806  0.5001 -1.5072
  706MOL0     H97403   4.926  10.884   1.714  0.8586  3.3852  0.7887
  706MOL0     H97404   5.048  10.676   1.727  3.4554 -1.7188  0.5015
  706MOL0     H97405   5.063  10.690   1.901 -0.2837 -3.7949 -2.4675
  706MOL0     H97406   5.201  10.895   1.743  0.8622 -1.9988 -1.9368
  706MOL0     H97407   5.264  10.737   1.779 -0.1211  1.0076 -1.7613
  706MOL0     H97408   4.247  10.362   2.064 -0.6420 -2.0160 -0.5112
  706MOL0     H97409   4.160  10.218   2.234  1.4902 -2.5730 -0.4614
  706MOL0     H97410   4.125  10.084   2.622 -2.9649 -2.5881  0.1928
  706MOL0     H97411   4.061  10.043   2.842 -0.5915 -4.6454  1.3450
  706MOL0     H97412   3.499   9.974   4.689  3.2447 -1.3048  1.0217
  706MOL0     H97413   3.496  10.040   4.909  0.8329  0.6707 -2.5435
  706MOL0     H97414   3.799   9.997   5.368  0.2969 -0.8377 -0.7838
  706MOL0     H97415   3.790  10.075   5.569 -0.1829 -0.0926  0.4205
  706MOL0     H97416   3.675   9.853   5.769  0.6901 -1.0581  0.9354
  706MOL0     H97417   3.679   9.957   5.903  0.9701  1.9929 -1.1528
  706MOL0     H97418   3.508   9.792   5.936 -2.0036  1.4371  1.4353
  706MOL0     H97419   3.434   9.821   5.778 -1.7250 -1.0628  0.5853
  706MOL0     H97420   3.396  10.062   5.892 -1.2563 -0.1304 -1.4586
  706MOL0     H97421   3.295   9.914   5.931  0.9205  0.2128  1.3814
  706MOL0     H97422   3.308  10.038   6.124  2.0622  1.6167  1.7486
  706MOL0     H97423   3.483  10.058   6.112 -0.6011  1.4035 -1.8915
  706MOL0     H97424   3.434   9.695   6.332  4.5593 -0.0913 -1.1810
  706MOL0     H97425   3.378   9.977   5.606 -0.1174  1.3871 -0.4393
  706MOL0     H97426   3.348   9.805   5.312 -0.4061 -0.3898 -0.7585
  706MOL0     H97427   3.275   9.861   5.456  2.9510  0.6615  1.6596
  706MOL0     H97428   3.264   9.973   5.312  1.0365  0.4111  0.1439
  707MOL0     O97429  10.500   1.435   6.023  0.3532 -0.3639  0.3274
  707MOL0     C97430  10.603   1.365   5.992 -0.5462 -0.4835  0.4878
  707MOL0     O97431  10.653   1.345   5.865 -0.1096  0.3776  0.3985
  707MOL0     C97432  10.607   1.427   5.769 -0.4064 -0.4809  0.2372
  707MOL0     C97433  10.475   1.426   5.717  0.5353  1.1336 -0.1966
  707MOL0     C97434  10.440   1.512   5.611 -0.5777 -0.3140  0.6430
  707MOL0     C97435  10.538   1.592   5.554 -0.5995 -0.0169 -0.9578
  707MOL0     O97436  10.501   1.672   5.451 -0.1438 -0.6538  0.5908
  707MOL0     C97437  10.591   1.669   5.336  0.0061 -0.3628 -0.1229
  707MOL0     C97438  10.493   1.716   5.219 -0.0336 -0.5184 -0.2479
  707MOL0     C97439  10.565   1.748   5.089  0.2910 -0.5817  0.5041
  707MOL0     C97440  10.622   1.891   5.117 -0.2966  1.1576 -0.3533
  707MOL0     C97441  10.509   1.999   5.117 -0.5326 -0.4332  0.6376
  707MOL0     C97442  10.474   2.054   4.975  0.3737  0.1440  0.3072
  707MOL0     C97443  10.414   2.193   4.993  0.0413  0.6059 -0.5955
  707MOL0     C97444  10.410   2.255   4.855 -0.0524  0.2610  0.8068
  707MOL0     N97445  10.341   2.385   4.860  0.1351  0.1370 -0.5543
  707MOL0     C97446  10.203   2.408   4.876  0.2536  0.4256 -0.7730
  707MOL0     C97447  10.189   2.537   4.903 -0.9774  0.4577  0.4177
  707MOL0     C97448  10.053   2.594   4.934 -0.9070  0.3858 -0.3939
  707MOL0     C97449  10.016   2.580   5.081 -0.9834  0.2228 -0.4869
  707MOL0     C97450   9.982   2.445   5.133  0.3607  0.5743 -0.5283
  707MOL0     C97451   9.949   2.437   5.280  0.3556 -0.0729  1.2401
  707MOL0     O97452  10.063   2.474   5.364  0.1676 -0.4522 -0.1238
  707MOL0     C97453  10.034   2.576   5.463 -0.1416  0.0644 -0.9092
  707MOL0     C97454   9.931   2.563   5.548  0.4916 -0.5355  0.1762
  707MOL0     C97455   9.902   2.665   5.644 -0.1246  0.8110 -0.3169
  707MOL0     C97456   9.797   2.639   5.750 -0.5539 -0.4062  0.2861
  707MOL0     C97457   9.992   2.772   5.657  0.6224 -0.5520  0.5439
  707MOL0     C97458   9.970   2.875   5.757 -0.3746  0.4401  0.6967
  707MOL0     O97459   9.850   2.945   5.760  0.5549 -0.4493 -0.7705
  707MOL0     C97460   9.857   3.085   5.773 -0.1521  0.1136 -0.0081
  707MOL0     C97461   9.967   3.170   5.747  0.7005  0.0612 -0.0013
  707MOL0     C97462   9.958   3.305   5.766  0.4543  0.3693 -0.4878
  707MOL0     C97463   9.857   3.371   5.828  0.5427 -0.5767  0.8457
  707MOL0     O97464   9.871   3.506   5.835 -0.1607 -0.0214  0.0657
  707MOL0     C97465   9.769   3.585   5.890  0.0628  0.6769 -0.0608
  707MOL0     C97466   9.809   3.731   5.901 -0.3088  0.3761  0.9647
  707MOL0     C97467   9.691   3.829   5.887  0.0348 -1.0268  0.5664
  707MOL0     C97468   9.739   3.976   5.908 -1.0009 -1.0067 -0.8851
  707MOL0     C97469   9.620   4.075   5.906 -0.3626 -0.9926 -0.1970
  707MOL0     C97470   9.631   4.206   5.986  0.0588  0.9315 -0.1050
  707MOL0     C97471   9.627   4.179   6.139 -0.3501 -0.0037 -0.3635
  707MOL0     C97472   9.512   4.104   6.200 -0.0892  0.3415 -0.5000
  707MOL0    Cl97473   9.345   4.132   6.141  0.4427 -0.3641  0.2035
  707MOL0     C97474   9.753   3.290   5.873  1.2513 -0.5100  0.9036
  707MOL0     C97475   9.752   3.148   5.845  0.3823  0.4615  1.1447
  707MOL0     O97476  10.064   2.891   5.835  0.2904  0.0699  0.5972
  707MOL0     C97477  10.109   2.777   5.578 -0.4388 -0.8604  0.0334
  707MOL0     C97478  10.133   2.674   5.481 -0.0445 -0.6299  0.3756
  707MOL0     N97479  10.317   2.590   4.896 -0.4791 -0.4082  0.8925
  707MOL0     N97480  10.404   2.506   4.884 -0.1405  0.7392  0.3517
  707MOL0     C97481  10.667   1.595   5.606 -1.1087  0.4145 -0.7466
  707MOL0     C97482  10.706   1.513   5.710 -0.4942  0.5506 -0.2075
  707MOL0     C97483  10.674   1.311   6.105  0.1554  0.9584  0.3785
  707MOL0     C97484  10.594   1.271   6.211  0.4391 -0.5311  0.1108
  707MOL0     C97485  10.651   1.239   6.333  0.2582 -0.1646 -0.7329
  707MOL0     C97486  10.790   1.224   6.344  0.6318  0.6836 -0.1954
  707MOL0     O97487  10.855   1.202   6.466 -0.2377 -0.1216 -0.3069
  707MOL0     C97488  10.777   1.228   6.590 -0.5510 -0.3059  0.2607
  707MOL0     C97489  10.827   1.153   6.713 -0.2668  0.4002 -0.2541
  707MOL0     C97490  10.949   1.220   6.765 -0.1009  0.0558  0.6967
  707MOL0     C97491  11.018   1.128   6.863  0.6062 -0.3248  1.3862
  707MOL0     C97492  10.972   1.132   7.002  0.8913 -0.1308 -0.1432
  707MOL0     C97493  10.942   1.119   7.115 -0.3453 -0.1553 -0.4976
  707MOL0     C97494  10.859   1.234   6.229 -0.0356 -1.3297 -0.3971
  707MOL0     C97495  10.806   1.281   6.109  0.2368 -0.0600  0.2879
  707MOL0     C97496  10.907   1.284   5.991  0.6495  0.6035 -1.4460
  707MOL0     H97497  10.406   1.358   5.766 -2.3742  2.7944 -1.7112
  707MOL0     H97498  10.342   1.515   5.566 -0.0398 -1.2673 -0.6609
  707MOL0     H97499  10.612   1.565   5.310  0.8557 -0.6351  1.4923
  707MOL0     H97500  10.683   1.724   5.356  0.6680 -0.2724 -3.0625
  707MOL0     H97501  10.419   1.640   5.192 -0.3258 -1.0834  1.9800
  707MOL0     H97502  10.431   1.799   5.252  2.2879  2.0397 -1.9293
  707MOL0     H97503  10.640   1.671   5.068 -0.0613 -1.9660  3.8101
  707MOL0     H97504  10.491   1.753   5.009 -0.0655 -2.4972  0.6677
  707MOL0     H97505  10.654   1.894   5.221  0.9751 -1.7732 -0.5622
  707MOL0     H97506  10.708   1.905   5.050 -0.5097 -1.9260 -1.4529
  707MOL0     H97507  10.561   2.080   5.170 -0.3605 -0.2307  0.1641
  707MOL0     H97508  10.419   1.964   5.170 -3.2698  0.8556 -2.7952
  707MOL0     H97509  10.570   2.061   4.923  0.3088 -1.7310 -0.1272
  707MOL0     H97510  10.408   1.995   4.910 -3.6694  1.6249  2.7239
  707MOL0     H97511  10.466   2.244   5.075 -0.1759 -3.9726  2.7581
  707MOL0     H97512  10.310   2.187   5.026 -1.1087  2.3760 -3.5280
  707MOL0     H97513  10.515   2.266   4.827 -0.4380 -2.9533 -2.6941
  707MOL0     H97514  10.344   2.201   4.787  2.4819  0.6598 -2.1598
  707MOL0     H97515  10.117   2.342   4.875  1.8767 -1.8760  0.1353
  707MOL0     H97516   9.982   2.538   4.872  1.8588 -4.0695  0.0161
  707MOL0     H97517  10.061   2.697   4.900 -1.4017  0.2540 -0.9301
  707MOL0     H97518  10.099   2.614   5.144 -2.3939 -2.3827  3.1190
  707MOL0     H97519   9.926   2.638   5.104  0.1152  2.2346 -0.9884
  707MOL0     H97520   9.903   2.396   5.077  0.7609 -0.2282 -0.4011
  707MOL0     H97521  10.072   2.383   5.127  0.3931  0.7215 -1.6619
  707MOL0     H97522   9.866   2.503   5.304 -1.8590 -2.1885 -0.0906
  707MOL0     H97523   9.916   2.335   5.304  1.6413 -0.5701  0.9945
  707MOL0     H97524   9.878   2.469   5.544 -0.2545 -0.3767  3.6288
  707MOL0     H97525   9.729   2.725   5.757  0.2025  0.1446  1.0064
  707MOL0     H97526   9.843   2.633   5.849 -1.8491 -1.1793  0.8700
  707MOL0     H97527   9.748   2.546   5.720 -1.5692  0.1643  0.1364
  707MOL0     H97528  10.058   3.132   5.702  1.8808 -1.0932  3.1030
  707MOL0     H97529  10.051   3.350   5.733  2.9384 -1.2652  3.4029
  707MOL0     H97530   9.678   3.575   5.831  1.9485 -0.3099 -3.0806
  707MOL0     H97531   9.745   3.544   5.988  2.1797 -0.7648 -0.0760
  707MOL0     H97532   9.857   3.750   5.997  1.9894  1.4307 -0.3298
  707MOL0     H97533   9.878   3.758   5.821  0.6949 -0.2019  1.6158
  707MOL0     H97534   9.625   3.817   5.972  0.2915  2.5596  1.4345
  707MOL0     H97535   9.637   3.845   5.793  1.7132 -2.0036 -0.6347
  707MOL0     H97536   9.818   4.012   5.841  0.9624 -1.1415  1.2438
  707MOL0     H97537   9.767   3.973   6.014 -4.9184  1.2441  0.4057
  707MOL0     H97538   9.587   4.092   5.803 -0.5595 -3.6572 -0.6304
  707MOL0     H97539   9.539   4.012   5.944 -1.4385 -1.7189 -3.3443
  707MOL0     H97540   9.550   4.269   5.948 -0.5807  1.7378  2.4315
  707MOL0     H97541   9.726   4.253   5.958  0.2314  0.5214 -0.2052
  707MOL0     H97542   9.637   4.271   6.196  1.2160  1.4154 -2.7574
  707MOL0     H97543   9.711   4.123   6.180  1.1520  2.5057  0.1489
  707MOL0     H97544   9.509   4.127   6.307 -0.7342  0.8908 -0.6368
  707MOL0     H97545   9.532   3.996   6.194 -1.5064  0.0399 -0.1193
  707MOL0     H97546   9.675   3.331   5.935  0.8316 -1.2158  0.8626
  707MOL0     H97547   9.679   3.090   5.900  0.1789 -1.5140 -1.0745
  707MOL0     H97548  10.184   2.856   5.579  0.7191 -1.8936 -1.3296
  707MOL0     H97549  10.224   2.676   5.422 -0.5444 -2.6257 -0.5425
  707MOL0     H97550  10.729   1.680   5.580 -2.8178  1.2955 -2.1797
  707MOL0     H97551  10.803   1.527   5.755  0.7626  0.2312 -2.6846
  707MOL0     H97552  10.486   1.272   6.199  0.2866  0.9827  1.4270
  707MOL0     H97553  10.581   1.218   6.414 -2.5306 -1.8746 -3.3960
  707MOL0     H97554  10.762   1.331   6.622  1.9439 -0.0076  0.6517
  707MOL0     H97555  10.686   1.172   6.566 -2.0062  2.8937 -2.3806
  707MOL0     H97556  10.845   1.050   6.680 -2.7981  0.4603 -2.1826
  707MOL0     H97557  10.749   1.154   6.791 -0.9868  1.3892 -0.9665
  707MOL0     H97558  11.016   1.250   6.684 -1.1812  0.8355  0.0548
  707MOL0     H97559  10.930   1.316   6.814  0.6451  1.9325 -2.3752
  707MOL0     H97560  11.122   1.160   6.850 -0.3709  2.3583 -1.0592
  707MOL0     H97561  11.012   1.025   6.827  3.2140 -0.0873  0.0139
  707MOL0     H97562  10.906   1.111   7.215 -1.0208 -2.4337 -0.8624
  707MOL0     H97563  10.963   1.210   6.249 -0.1104 -0.5372  1.1345
  707MOL0     H97564  10.908   1.185   5.946 -3.4246 -1.3810  2.0903
  707MOL0     H97565  10.886   1.364   5.919 -1.0651  1.2167 -0.3311
  707MOL0     H97566  11.002   1.312   6.036  1.3351 -1.2532 -1.6615
  708MOL0     O97567   9.905   1.606   0.155 -0.1431  0.2888 -0.1709
  708MOL0     C97568   9.913   1.660   0.045  0.2094 -0.2196 -0.1151
  708MOL0     O97569   9.884   1.606  -0.078 -0.1649  0.7169 -0.4880
  708MOL0     C97570   9.872   1.470  -0.108 -0.2628  0.0749  0.3948
  708MOL0     C97571   9.864   1.360  -0.015 -0.9061  0.3473  0.7097
  708MOL0     C97572   9.825   1.232  -0.057 -0.8329 -0.2817 -0.1504
  708MOL0     C97573   9.816   1.207  -0.195 -0.0118  0.9767  0.1587
  708MOL0     O97574   9.799   1.083  -0.256 -0.0398  0.4141 -0.7405
  708MOL0     C97575   9.775   0.960  -0.175 -0.3108  0.6377 -0.9922
  708MOL0     C97576   9.723   0.836  -0.264  1.1385 -0.2076  0.7014
  708MOL0     C97577   9.831   0.783  -0.360 -0.6626 -0.9925 -0.0776
  708MOL0     C97578   9.797   0.643  -0.410  0.2902 -0.2133  0.2976
  708MOL0     C97579   9.901   0.596  -0.514 -0.5454 -0.1672 -0.6608
  708MOL0     C97580   9.885   0.440  -0.545  0.9703  0.0191  0.6057
  708MOL0     C97581   9.799   0.426  -0.678 -0.0053 -1.4433 -0.1338
  708MOL0     C97582   9.879   0.404  -0.805  0.8466 -0.2175  0.5399
  708MOL0     N97583   9.960   0.527  -0.842 -0.9601 -0.5785 -0.5130
  708MOL0     C97584   9.933   0.643  -0.916 -0.8798 -1.0151  0.1187
  708MOL0     C97585  10.045   0.717  -0.922 -0.8280 -0.9341  0.1465
  708MOL0     C97586  10.068   0.848  -0.982  0.3628  0.1569 -0.7355
  708MOL0     C97587  10.107   0.840  -1.134  0.3459 -0.1752 -0.0454
  708MOL0     C97588  10.239   0.775  -1.146  0.3444  0.7520  0.5742
  708MOL0     C97589  10.299   0.785  -1.281  0.6938 -0.8725  0.1687
  708MOL0     O97590  10.347   0.918  -1.309 -0.5785 -0.1761 -0.4714
  708MOL0     C97591  10.394   0.960  -1.429  1.4763 -0.0965 -0.1041
  708MOL0     C97592  10.438   0.876  -1.530 -0.0657  0.3828  0.0087
  708MOL0     C97593  10.469   0.919  -1.657  0.6581 -0.2843  0.9227
  708MOL0     C97594  10.522   0.807  -1.745 -0.9287 -0.1288  0.2685
  708MOL0     C97595  10.440   1.054  -1.694 -0.1340  0.4806 -0.6619
  708MOL0     C97596  10.462   1.114  -1.831 -0.5981  0.7327 -0.6548
  708MOL0     O97597  10.440   1.242  -1.845 -0.0444 -0.4341  0.0209
  708MOL0     C97598  10.425   1.304  -1.962 -0.1035 -0.2297 -0.1609
  708MOL0     C97599  10.329   1.261  -2.058  0.2116  1.0917  0.1181
  708MOL0     C97600  10.306   1.340  -2.170  0.8462 -0.1017  0.0735
  708MOL0     C97601  10.398   1.448  -2.203  0.7776  0.5025 -0.2645
  708MOL0     O97602  10.373   1.517  -2.322 -0.3972 -0.0984 -0.7888
  708MOL0     C97603  10.491   1.589  -2.367  1.0033 -0.1495  0.6323
  708MOL0     C97604  10.460   1.643  -2.505 -0.6051 -0.6622 -0.1808
  708MOL0     C97605  10.576   1.726  -2.576  0.4315  0.4548 -0.3940
  708MOL0     C97606  10.592   1.875  -2.535  0.6237  0.0212 -0.0710
  708MOL0     C97607  10.669   1.955  -2.643  0.6197  0.2559 -0.0553
  708MOL0     C97608  10.698   2.099  -2.606 -0.4407 -0.4004  0.1435
  708MOL0     C97609  10.750   2.179  -2.725  0.7184  0.5107 -0.1362
  708MOL0     C97610  10.892   2.154  -2.776 -0.2119 -0.0006  0.0248
  708MOL0    Cl97611  11.000   2.213  -2.654  0.2386 -0.1084 -0.1266
  708MOL0     C97612  10.495   1.479  -2.111  0.2241 -0.4128 -0.1719
  708MOL0     C97613  10.505   1.408  -1.990  0.0790  0.3745  0.2562
  708MOL0     O97614  10.482   1.031  -1.922  0.8425  0.1962  0.2447
  708MOL0     C97615  10.388   1.137  -1.590 -0.6716 -0.3211 -0.5934
  708MOL0     C97616  10.373   1.098  -1.459  0.7339 -0.7283  0.0051
  708MOL0     N97617  10.138   0.651  -0.843  0.5283 -0.0407 -0.1201
  708MOL0     N97618  10.089   0.536  -0.803  0.7378  0.2176 -0.4278
  708MOL0     C97619   9.825   1.309  -0.290  0.3768 -0.1911 -0.0611
  708MOL0     C97620   9.866   1.441  -0.247  0.4619  0.0838 -0.2417
  708MOL0     C97621   9.927   1.808   0.036  0.5930 -1.4921 -0.7105
  708MOL0     C97622   9.860   1.879  -0.068 -0.0121 -0.1058 -0.2836
  708MOL0     C97623   9.864   2.019  -0.069 -0.6951  0.2532 -0.2739
  708MOL0     C97624   9.943   2.096   0.016 -0.5665  0.6604 -0.1821
  708MOL0     O97625   9.979   2.223  -0.016 -0.3679  0.2852  0.0693
  708MOL0     C97626   9.949   2.300  -0.136 -0.4547  0.7887  0.2077
  708MOL0     C97627   9.980   2.455  -0.118 -0.4099  0.9917  0.1083
  708MOL0     C97628  10.131   2.487  -0.108 -0.1633  0.3638  0.0393
  708MOL0     C97629  10.152   2.638  -0.117  0.1566 -0.2484  0.1838
  708MOL0     C97630  10.291   2.684  -0.124  0.5146 -0.0755 -0.0445
  708MOL0     C97631  10.402   2.730  -0.109  0.3125  0.2467 -0.1837
  708MOL0     C97632  10.017   2.028   0.118 -0.0794  0.2100  0.3896
  708MOL0     C97633  10.006   1.888   0.138  0.2675 -0.0296  0.0457
  708MOL0     C97634  10.094   1.830   0.243 -0.8417  0.2538  0.4665
  708MOL0     H97635   9.853   1.387   0.089  0.2083 -4.4052  2.2860
  708MOL0     H97636   9.805   1.156   0.018  1.1830  1.1263  1.9602
  708MOL0     H97637   9.700   0.970  -0.095 -0.2586  1.2273 -1.0100
  708MOL0     H97638   9.868   0.931  -0.127 -0.9475 -2.0445 -1.2417
  708MOL0     H97639   9.683   0.768  -0.189 -1.5138  0.4306 -0.0471
  708MOL0     H97640   9.631   0.856  -0.319  0.8294 -2.1846  0.4047
  708MOL0     H97641   9.837   0.867  -0.430  1.2939  2.5555  3.8451
  708MOL0     H97642   9.931   0.784  -0.317 -0.3902  0.2366 -0.6729
  708MOL0     H97643   9.794   0.577  -0.322 -5.4887  0.4623  1.0088
  708MOL0     H97644   9.695   0.649  -0.449  0.0359  1.7932  1.1345
  708MOL0     H97645   9.999   0.586  -0.468 -0.4424 -0.9867 -1.0295
  708MOL0     H97646   9.917   0.649  -0.608  0.0664 -1.6627 -1.4283
  708MOL0     H97647   9.975   0.378  -0.557  1.9254  1.2140  1.2882
  708MOL0     H97648   9.834   0.395  -0.460 -2.2850  1.3895 -0.4809
  708MOL0     H97649   9.725   0.507  -0.680 -0.3407 -1.7427  0.0659
  708MOL0     H97650   9.749   0.330  -0.662  0.7096 -1.6447  1.0214
  708MOL0     H97651   9.956   0.332  -0.776 -0.1556 -1.8830 -0.7724
  708MOL0     H97652   9.812   0.366  -0.883 -1.0199 -1.0562  2.4525
  708MOL0     H97653   9.838   0.677  -0.957 -0.7956 -1.1426 -0.1900
  708MOL0     H97654  10.152   0.890  -0.925  0.0984 -1.5021  0.9895
  708MOL0     H97655   9.980   0.908  -0.958 -0.2589 -0.8721 -0.3553
  708MOL0     H97656  10.030   0.783  -1.185  1.0047 -0.9101 -0.2378
  708MOL0     H97657  10.106   0.943  -1.173  1.8736 -1.3104 -3.4645
  708MOL0     H97658  10.299   0.833  -1.076 -1.7066  4.5045 -0.4844
  708MOL0     H97659  10.242   0.668  -1.120  0.2080  0.7981  0.7793
  708MOL0     H97660  10.385   0.718  -1.295  1.0472 -0.2744 -0.5934
  708MOL0     H97661  10.232   0.743  -1.356  0.7784  1.5292 -1.3670
  708MOL0     H97662  10.456   0.776  -1.494 -3.4169 -1.0314 -1.7818
  708MOL0     H97663  10.574   0.732  -1.685  1.9784  2.3722  1.1608
  708MOL0     H97664  10.605   0.839  -1.809 -2.1888 -1.2309 -2.0515
  708MOL0     H97665  10.453   0.759  -1.815 -1.8900 -1.3767  2.0296
  708MOL0     H97666  10.293   1.158  -2.053 -1.2313  1.5602 -0.1631
  708MOL0     H97667  10.236   1.306  -2.246 -0.4218  0.1543  1.0811
  708MOL0     H97668  10.505   1.669  -2.294 -0.4388 -0.4147  1.2296
  708MOL0     H97669  10.579   1.524  -2.364 -0.4655 -2.2205  1.1329
  708MOL0     H97670  10.433   1.554  -2.562 -1.6991 -0.7344  0.4047
  708MOL0     H97671  10.362   1.693  -2.506 -0.4438 -0.2083  1.9291
  708MOL0     H97672  10.551   1.728  -2.683 -1.3256  2.8103 -0.0200
  708MOL0     H97673  10.668   1.669  -2.559 -1.0392 -1.5815  1.2644
  708MOL0     H97674  10.653   1.873  -2.444 -0.7207 -0.0574  0.8696
  708MOL0     H97675  10.497   1.924  -2.510  0.0458 -0.4656 -1.2787
  708MOL0     H97676  10.766   1.909  -2.661  0.9677 -0.3756  2.8932
  708MOL0     H97677  10.601   1.961  -2.729 -0.7282 -3.8147  0.5097
  708MOL0     H97678  10.761   2.123  -2.520  0.6125  1.3998 -1.0639
  708MOL0     H97679  10.604   2.150  -2.582  0.2210  0.6488  0.5904
  708MOL0     H97680  10.741   2.288  -2.714 -1.3293  0.9453 -4.1213
  708MOL0     H97681  10.682   2.154  -2.807 -2.5551  3.1991  1.4942
  708MOL0     H97682  10.898   2.210  -2.870 -0.0074 -1.2729 -0.7485
  708MOL0     H97683  10.913   2.048  -2.796 -0.0816 -0.1300  0.8226
  708MOL0     H97684  10.570   1.557  -2.120  0.2158  0.2329  3.6728
  708MOL0     H97685  10.564   1.444  -1.906 -2.2083  1.4993  1.4754
  708MOL0     H97686  10.375   1.241  -1.618  0.1930 -0.2670 -0.8266
  708MOL0     H97687  10.337   1.171  -1.387  2.0200 -1.8342  1.8445
  708MOL0     H97688   9.810   1.284  -0.395 -0.4064  0.9156 -0.2274
  708MOL0     H97689   9.869   1.524  -0.317 -0.2027 -0.2466 -0.6740
  708MOL0     H97690   9.812   1.833  -0.153 -1.6809 -1.0018  1.0791
  708MOL0     H97691   9.816   2.071  -0.151 -0.6499 -0.2782 -0.6395
  708MOL0     H97692  10.005   2.261  -0.222 -0.6810  1.2129 -0.1351
  708MOL0     H97693   9.844   2.296  -0.166 -0.6205  2.5040  0.4838
  708MOL0     H97694   9.940   2.487  -0.021  1.5474  2.0118  0.6242
  708MOL0     H97695   9.937   2.517  -0.197  2.0092  1.4988 -0.8986
  708MOL0     H97696  10.172   2.454  -0.012 -2.0586  4.0059  2.3340
  708MOL0     H97697  10.194   2.443  -0.186  0.4910 -1.2177  1.4117
  708MOL0     H97698  10.106   2.676  -0.025  0.6886 -0.8586  0.7118
  708MOL0     H97699  10.103   2.690  -0.200 -0.7662  1.4026  1.6980
  708MOL0     H97700  10.508   2.747  -0.103  0.4717  0.7510 -3.1642
  708MOL0     H97701  10.095   2.081   0.171 -2.0595  0.1329  3.6464
  708MOL0     H97702  10.154   1.748   0.204  2.3393  2.3637  0.5866
  708MOL0     H97703  10.161   1.901   0.291  1.5923 -1.9141  0.4496
  708MOL0     H97704  10.031   1.798   0.327 -1.2053 -1.6759 -0.4920
  709MOL0     O97705   7.043   6.848   7.192 -0.3318 -0.0717  0.4158
  709MOL0     C97706   6.981   6.846   7.087  0.0649 -0.6862 -0.5731
  709MOL0     O97707   7.017   6.790   6.974  0.9942  0.4035  0.1695
  709MOL0     C97708   7.153   6.788   6.945 -0.1249 -0.2826  0.5040
  709MOL0     C97709   7.218   6.668   6.918  0.0660 -0.2756 -0.6052
  709MOL0     C97710   7.354   6.657   6.902 -0.7423  0.7777  0.1111
  709MOL0     C97711   7.431   6.772   6.910  0.6402 -1.3141  0.2250
  709MOL0     O97712   7.572   6.782   6.905  0.0770  0.9072 -0.4889
  709MOL0     C97713   7.654   6.725   6.795  0.5867  0.8632 -0.2141
  709MOL0     C97714   7.801   6.720   6.815 -0.1877  0.4476 -0.7447
  709MOL0     C97715   7.877   6.696   6.681  0.3349 -0.3726 -0.1809
  709MOL0     C97716   8.033   6.699   6.686 -0.1632  0.1794 -1.5881
  709MOL0     C97717   8.092   6.764   6.569  1.0332  1.0861 -0.0907
  709MOL0     C97718   8.032   6.730   6.431 -0.3303  0.7229  0.3189
  709MOL0     C97719   8.143   6.755   6.330  0.3010 -1.0019 -0.5976
  709MOL0     C97720   8.214   6.895   6.335  0.3508 -1.0372 -0.0585
  709MOL0     N97721   8.328   6.900   6.243  0.9365  0.6449 -0.1455
  709MOL0     C97722   8.334   6.987   6.137 -0.2109  0.4077 -0.9256
  709MOL0     C97723   8.448   6.953   6.074 -0.0349  0.2907  0.1073
  709MOL0     C97724   8.499   7.025   5.943  0.1519  0.8241  0.0345
  709MOL0     C97725   8.537   6.922   5.841  0.4554 -0.0090  0.1759
  709MOL0     C97726   8.546   6.968   5.700  0.6224  0.7818  0.2714
  709MOL0     C97727   8.560   6.854   5.599  1.2939 -0.4817 -0.6901
  709MOL0     O97728   8.443   6.780   5.598  0.0492  0.0311  0.0131
  709MOL0     C97729   8.445   6.657   5.532 -0.5408 -0.2576 -0.0128
  709MOL0     C97730   8.539   6.606   5.438 -0.0831  0.2691  0.0120
  709MOL0     C97731   8.515   6.478   5.374 -0.8730  0.3223  0.8100
  709MOL0     C97732   8.619   6.404   5.285 -0.7366  0.5519  0.0183
  709MOL0     C97733   8.404   6.401   5.414 -0.2380 -0.5680 -0.5464
  709MOL0     C97734   8.350   6.268   5.353 -1.0041 -1.2942 -0.2741
  709MOL0     O97735   8.331   6.168   5.447 -0.1668 -0.1884  0.7012
  709MOL0     C97736   8.311   6.039   5.408 -0.5899 -0.1797 -0.1775
  709MOL0     C97737   8.192   5.967   5.428 -0.1091  0.1809 -0.6849
  709MOL0     C97738   8.186   5.835   5.393 -0.6692  1.2224  0.4677
  709MOL0     C97739   8.289   5.772   5.319 -0.9514 -0.5294  0.2460
  709MOL0     O97740   8.272   5.655   5.246  0.0715 -0.2781 -0.1206
  709MOL0     C97741   8.386   5.568   5.223  0.2574  0.7954 -0.4541
  709MOL0     C97742   8.402   5.544   5.068 -1.0169 -0.3121 -0.3014
  709MOL0     C97743   8.284   5.481   4.985 -0.8676  0.6855 -0.4025
  709MOL0     C97744   8.325   5.464   4.839 -0.5947  0.3388 -0.4483
  709MOL0     C97745   8.198   5.433   4.759  0.2076 -0.0346 -0.1841
  709MOL0     C97746   8.222   5.390   4.613  0.6169 -0.6956  0.8903
  709MOL0     C97747   8.083   5.360   4.556  0.1160  0.2011  0.9290
  709MOL0     C97748   8.083   5.313   4.406 -1.2036 -0.1450 -0.8533
  709MOL0    Cl97749   8.130   5.136   4.383  0.2460  0.2906 -0.2424
  709MOL0     C97750   8.406   5.852   5.294  0.4756 -0.2758  1.1448
  709MOL0     C97751   8.414   5.984   5.340 -0.1642  0.4843  0.5390
  709MOL0     O97752   8.325   6.256   5.229 -0.6843  0.0701  0.3410
  709MOL0     C97753   8.307   6.464   5.493  0.0049  0.3785  0.7511
  709MOL0     C97754   8.329   6.584   5.550  0.4949  0.2824 -0.0691
  709MOL0     N97755   8.488   6.837   6.140  0.9909  0.6569 -0.0505
  709MOL0     N97756   8.425   6.811   6.249 -0.2670 -0.1153 -0.0085
  709MOL0     C97757   7.371   6.894   6.937 -0.0971 -0.3801 -0.5961
  709MOL0     C97758   7.236   6.906   6.953  0.5052  0.7015  0.0455
  709MOL0     C97759   6.841   6.872   7.097 -0.1580 -0.3980 -0.1820
  709MOL0     C97760   6.777   6.916   6.985  0.2952 -0.2037 -0.4203
  709MOL0     C97761   6.634   6.928   6.986 -0.2173 -0.5179 -0.3208
  709MOL0     C97762   6.560   6.927   7.109  0.7964 -0.5807  0.3000
  709MOL0     O97763   6.426   6.932   7.102  0.3941  0.4273 -0.0096
  709MOL0     C97764   6.336   6.904   7.211  0.1041 -0.2177 -0.5323
  709MOL0     C97765   6.269   6.769   7.188 -0.0440 -0.6481 -0.2295
  709MOL0     C97766   6.365   6.647   7.219 -0.2081  0.6098  0.4527
  709MOL0     C97767   6.314   6.514   7.166  0.0556 -0.0798  0.2445
  709MOL0     C97768   6.223   6.444   7.256 -0.4074 -0.6135  0.0763
  709MOL0     C97769   6.166   6.379   7.339  0.4897  0.4037 -0.5394
  709MOL0     C97770   6.634   6.884   7.224 -0.5432  0.4837  0.0890
  709MOL0     C97771   6.767   6.856   7.219  0.6610 -0.7209  0.2067
  709MOL0     C97772   6.817   6.790   7.341 -0.9407 -0.0201  0.0475
  709MOL0     H97773   7.145   6.588   6.921  0.2017 -0.5692 -2.9397
  709MOL0     H97774   7.395   6.557   6.895 -0.7126  0.8229 -0.4096
  709MOL0     H97775   7.631   6.790   6.710 -1.1913  2.1657  1.1880
  709MOL0     H97776   7.624   6.621   6.780  2.8864  0.2293 -0.7446
  709MOL0     H97777   7.835   6.815   6.856 -0.7336  0.3014  0.0709
  709MOL0     H97778   7.830   6.633   6.874  0.6769  2.3368  1.7788
  709MOL0     H97779   7.829   6.614   6.627  1.3556 -1.7060  0.8874
  709MOL0     H97780   7.854   6.783   6.618 -2.9612  0.2568  1.6673
  709MOL0     H97781   8.060   6.755   6.776  0.6170 -3.0550  0.3385
  709MOL0     H97782   8.064   6.594   6.689 -1.4088 -0.2304  2.2133
  709MOL0     H97783   8.200   6.749   6.565  0.8526  0.0447 -1.7178
  709MOL0     H97784   8.078   6.871   6.588 -1.3101  0.9052 -0.5041
  709MOL0     H97785   8.011   6.623   6.437  1.3962  0.0914 -2.8101
  709MOL0     H97786   7.938   6.781   6.411 -1.6396 -0.3881  3.0817
  709MOL0     H97787   8.109   6.751   6.226  0.4350 -0.1216 -0.6825
  709MOL0     H97788   8.225   6.685   6.343  1.4503  0.6426  1.7578
  709MOL0     H97789   8.144   6.973   6.303 -1.0580 -1.4035  1.9106
  709MOL0     H97790   8.239   6.932   6.435 -4.1278  0.4424  0.7417
  709MOL0     H97791   8.256   7.053   6.102  0.1573  0.0426 -2.5353
  709MOL0     H97792   8.581   7.089   5.978  0.4593 -1.2210  3.6188
  709MOL0     H97793   8.410   7.078   5.909 -0.6243 -0.2772  0.2839
  709MOL0     H97794   8.638   6.882   5.852  0.4044 -1.1622 -2.7655
  709MOL0     H97795   8.464   6.841   5.851 -0.1860  0.6245  0.7330
  709MOL0     H97796   8.455   7.019   5.669  1.4502  0.2691 -3.6471
  709MOL0     H97797   8.631   7.037   5.686  0.8254  0.6613  0.8753
  709MOL0     H97798   8.572   6.888   5.496 -0.3692 -1.3341 -1.1975
  709MOL0     H97799   8.646   6.790   5.624  1.2762 -1.1275 -2.1459
  709MOL0     H97800   8.618   6.669   5.399 -0.7706  0.0984 -1.7840
  709MOL0     H97801   8.707   6.405   5.350 -0.2371  1.4558 -0.6457
  709MOL0     H97802   8.644   6.460   5.195 -0.4811  2.3754  1.1724
  709MOL0     H97803   8.590   6.304   5.251  1.7455 -1.3914  3.0510
  709MOL0     H97804   8.102   5.999   5.479 -0.6955 -3.5948  1.0179
  709MOL0     H97805   8.111   5.759   5.411  0.6198  0.2434  1.9607
  709MOL0     H97806   8.483   5.599   5.262  0.0537  2.6616 -1.3330
  709MOL0     H97807   8.380   5.471   5.273 -1.4852  0.8468 -0.5132
  709MOL0     H97808   8.421   5.644   5.027 -1.8247  0.4500  1.1105
  709MOL0     H97809   8.491   5.485   5.042 -1.9446 -0.7855 -2.6958
  709MOL0     H97810   8.195   5.545   4.985  0.3840  2.5054  0.8995
  709MOL0     H97811   8.258   5.383   5.026 -1.1073  0.8599 -0.1365
  709MOL0     H97812   8.406   5.391   4.830 -2.1706 -1.3845 -1.2874
  709MOL0     H97813   8.358   5.562   4.804 -1.2530  0.8950  0.4314
  709MOL0     H97814   8.152   5.343   4.802  1.3081 -0.2554  0.5609
  709MOL0     H97815   8.136   5.522   4.766 -2.4192 -1.5674 -1.9082
  709MOL0     H97816   8.280   5.297   4.608 -1.4695 -1.9784 -1.8842
  709MOL0     H97817   8.268   5.466   4.549  1.3221 -1.5548  0.3561
  709MOL0     H97818   8.035   5.459   4.561  1.5623  1.0233 -0.3729
  709MOL0     H97819   8.020   5.294   4.615  0.0690 -2.6188 -2.0187
  709MOL0     H97820   8.150   5.379   4.350  0.0494 -0.3533  0.3352
  709MOL0     H97821   7.983   5.318   4.363 -0.3063 -1.2294 -3.2208
  709MOL0     H97822   8.485   5.813   5.231  0.9556 -1.4331  2.3993
  709MOL0     H97823   8.504   6.040   5.317 -0.4232  1.8215  2.4769
  709MOL0     H97824   8.204   6.429   5.498  0.4770 -1.1669  0.3026
  709MOL0     H97825   8.253   6.625   5.615  0.9959  0.3448  0.4915
  709MOL0     H97826   7.428   6.985   6.951 -0.1184 -0.5381  0.6129
  709MOL0     H97827   7.191   6.999   6.986  0.0788  0.9769 -1.2652
  709MOL0     H97828   6.827   6.931   6.890  2.3311  2.0751  0.9039
  709MOL0     H97829   6.590   6.947   6.888 -0.0168  1.5991 -0.0366
  709MOL0     H97830   6.385   6.909   7.308 -0.4578  0.8206 -0.2907
  709MOL0     H97831   6.264   6.987   7.203  2.1083  1.8702  1.5786
  709MOL0     H97832   6.249   6.763   7.081  0.7150 -0.0976 -0.4118
  709MOL0     H97833   6.182   6.760   7.254  3.0493  0.3403  4.5801
  709MOL0     H97834   6.459   6.662   7.164 -1.2026  0.8723 -1.2469
  709MOL0     H97835   6.388   6.653   7.326 -1.0964  3.0236  0.5711
  709MOL0     H97836   6.395   6.442   7.152  2.3910  2.5273 -0.4572
  709MOL0     H97837   6.277   6.535   7.066 -0.0671  1.5890  0.6210
  709MOL0     H97838   6.112   6.312   7.404  1.5258 -0.4294 -0.5099
  709MOL0     H97839   6.577   6.855   7.311 -1.2618  0.3385 -0.4182
  709MOL0     H97840   6.900   6.720   7.329  0.8716  1.8756  0.9236
  709MOL0     H97841   6.846   6.873   7.406 -1.9802 -0.9598  1.7810
  709MOL0     H97842   6.738   6.734   7.391 -1.2683 -2.0196 -2.5018
  710MOL0     O97843   7.797   3.243   1.997  0.0616 -0.0936  0.3404
  710MOL0     C97844   7.756   3.252   2.113  0.0848  0.7757 -0.4818
  710MOL0     O97845   7.643   3.306   2.140  0.0533  0.3948 -1.0981
  710MOL0     C97846   7.540   3.286   2.052 -0.2703  0.5872 -0.0943
  710MOL0     C97847   7.459   3.169   2.078 -0.5316  0.4654 -0.5566
  710MOL0     C97848   7.338   3.161   2.000 -1.2129 -0.6282  0.3398
  710MOL0     C97849   7.318   3.242   1.894  0.0053 -0.4123  0.6783
  710MOL0     O97850   7.209   3.221   1.810 -0.1865  0.3771  0.5980
  710MOL0     C97851   7.125   3.332   1.775  0.1990  0.0178  0.2652
  710MOL0     C97852   6.977   3.291   1.771 -0.7182  0.1717  0.7457
  710MOL0     C97853   6.894   3.411   1.743 -0.0688 -0.3857  0.2619
  710MOL0     C97854   6.760   3.368   1.690  0.3542  0.0010  0.9952
  710MOL0     C97855   6.661   3.480   1.687 -0.2951 -1.1944 -0.2710
  710MOL0     C97856   6.541   3.423   1.615  0.1293 -0.5384 -0.1106
  710MOL0     C97857   6.465   3.549   1.562  0.7184 -0.7591  1.1979
  710MOL0     C97858   6.316   3.513   1.553  1.2814 -0.5477 -0.3130
  710MOL0     N97859   6.230   3.607   1.628 -0.5552  0.6166  0.0329
  710MOL0     C97860   6.205   3.745   1.612  0.8470 -0.2200  0.1388
  710MOL0     C97861   6.156   3.784   1.730  0.2934 -0.3862 -0.5325
  710MOL0     C97862   6.118   3.918   1.781  0.3606  0.7099  0.8827
  710MOL0     C97863   5.973   3.938   1.728 -0.0861  0.1682 -0.1783
  710MOL0     C97864   5.915   4.075   1.736  0.1571 -0.6620  0.9308
  710MOL0     C97865   5.917   4.131   1.881  0.1581 -0.4583  0.0370
  710MOL0     O97866   5.839   4.048   1.980 -0.0662 -0.0338  0.0076
  710MOL0     C97867   5.753   4.122   2.049  0.1643 -0.3129  0.1229
  710MOL0     C97868   5.619   4.092   2.037  0.8983 -0.4753 -0.3490
  710MOL0     C97869   5.521   4.154   2.119  1.7353  0.4010 -0.5730
  710MOL0     C97870   5.380   4.136   2.077  0.4585 -0.8097  0.7745
  710MOL0     C97871   5.566   4.241   2.224  0.2685 -0.2262  0.0389
  710MOL0     C97872   5.479   4.287   2.342  0.5072 -0.1018  0.1723
  710MOL0     O97873   5.358   4.233   2.350 -0.3826  0.2677  0.2895
  710MOL0     C97874   5.279   4.266   2.463 -1.5313 -0.3296 -0.2126
  710MOL0     C97875   5.260   4.162   2.550  0.2891  0.3465  0.1154
  710MOL0     C97876   5.185   4.178   2.668 -0.0174 -0.5865 -0.0997
  710MOL0     C97877   5.110   4.295   2.684 -0.6470  0.0828 -0.1638
  710MOL0     O97878   5.047   4.331   2.792  0.8657 -0.3903  0.5756
  710MOL0     C97879   4.986   4.219   2.861  0.1064  0.5045  0.5536
  710MOL0     C97880   4.847   4.239   2.922  0.4921 -0.6161 -0.8917
  710MOL0     C97881   4.750   4.310   2.824  1.2114 -0.0231 -0.5530
  710MOL0     C97882   4.618   4.363   2.877 -0.2613 -0.0707 -0.6470
  710MOL0     C97883   4.646   4.478   2.983 -1.4199  0.0248  0.6440
  710MOL0     C97884   4.711   4.604   2.925 -0.1004  0.3856  0.5082
  710MOL0     C97885   4.633   4.673   2.820  0.0886  0.0906 -0.0604
  710MOL0     C97886   4.662   4.822   2.824 -0.4056 -0.0182 -0.4771
  710MOL0    Cl97887   4.558   4.904   2.686 -0.1047 -0.1771 -0.1837
  710MOL0     C97888   5.133   4.401   2.598 -0.5498  0.4563 -0.5536
  710MOL0     C97889   5.211   4.387   2.482  0.2835 -0.0409  0.0002
  710MOL0     O97890   5.527   4.372   2.422 -0.1647  0.3413  0.2288
  710MOL0     C97891   5.710   4.274   2.226  0.5385 -0.6807  0.1943
  710MOL0     C97892   5.801   4.214   2.144 -0.9543  0.9050  0.1971
  710MOL0     N97893   6.150   3.675   1.813  0.1857 -0.5976 -0.3498
  710MOL0     N97894   6.201   3.567   1.757 -1.1767 -0.2760  0.8690
  710MOL0     C97895   7.409   3.349   1.866 -0.1154  0.5698  0.4352
  710MOL0     C97896   7.519   3.363   1.945  0.4005  0.5535 -0.4499
  710MOL0     C97897   7.851   3.212   2.225  0.3257 -0.1194  1.0319
  710MOL0     C97898   7.976   3.152   2.185  0.2726  0.1943  0.6336
  710MOL0     C97899   8.066   3.114   2.278 -0.1093  0.2004  0.0541
  710MOL0     C97900   8.046   3.130   2.415 -0.1082 -0.4981 -0.0650
  710MOL0     O97901   8.127   3.100   2.519  1.0224 -0.8138 -0.2394
  710MOL0     C97902   8.261   3.146   2.506  0.1657 -0.2816 -0.4114
  710MOL0     C97903   8.261   3.298   2.499 -0.9225 -0.5134 -0.8375
  710MOL0     C97904   8.404   3.346   2.464  0.0534  0.4123  0.4034
  710MOL0     C97905   8.423   3.497   2.476  0.6166  0.5615  0.7303
  710MOL0     C97906   8.562   3.531   2.465 -1.0441  0.5940 -0.6788
  710MOL0     C97907   8.677   3.571   2.455 -0.5217 -0.4601  0.5980
  710MOL0     C97908   7.921   3.166   2.453  0.3052  0.2409  0.6981
  710MOL0     C97909   7.823   3.207   2.360 -0.2639  0.1617 -0.2179
  710MOL0     C97910   7.684   3.252   2.414 -0.0875  0.4426 -0.2006
  710MOL0     H97911   7.461   3.105   2.165 -2.2795 -0.7211 -1.3243
  710MOL0     H97912   7.264   3.083   2.020 -0.5637 -1.5259 -0.6791
  710MOL0     H97913   7.163   3.368   1.679 -0.6341 -0.3442 -0.2097
  710MOL0     H97914   7.135   3.410   1.851  2.2050 -0.5370  0.6433
  710MOL0     H97915   6.962   3.217   1.691 -2.6418  0.6868  0.5843
  710MOL0     H97916   6.950   3.232   1.859 -1.3121  0.8598  1.0319
  710MOL0     H97917   6.875   3.480   1.826  1.5319  3.1729 -2.0919
  710MOL0     H97918   6.934   3.490   1.679 -0.8659 -0.8548 -0.8380
  710MOL0     H97919   6.786   3.340   1.588  3.8476  3.7470  0.5925
  710MOL0     H97920   6.710   3.283   1.738 -0.5787 -1.9716 -3.0180
  710MOL0     H97921   6.699   3.567   1.632 -6.2188 -0.1959 -3.7070
  710MOL0     H97922   6.619   3.523   1.778 -0.7945  2.0970 -1.8765
  710MOL0     H97923   6.569   3.370   1.523  2.5180 -2.4899  1.6140
  710MOL0     H97924   6.484   3.354   1.677  1.6829 -0.8885  1.0000
  710MOL0     H97925   6.498   3.570   1.460  2.1636 -2.6585  1.2371
  710MOL0     H97926   6.465   3.630   1.635 -1.3998 -1.7862  2.4419
  710MOL0     H97927   6.289   3.518   1.447  0.4985  0.0442 -0.0872
  710MOL0     H97928   6.294   3.411   1.585 -0.5242  0.2235  1.0317
  710MOL0     H97929   6.210   3.804   1.521 -1.8516  1.1722  0.7928
  710MOL0     H97930   6.180   3.985   1.722  1.2400 -2.1242 -1.6122
  710MOL0     H97931   6.127   3.939   1.888  1.4301  2.1227  0.5497
  710MOL0     H97932   5.974   3.917   1.621 -1.9103 -0.2023 -0.1409
  710MOL0     H97933   5.904   3.868   1.776 -0.1949  0.2122 -0.2700
  710MOL0     H97934   5.956   4.134   1.653  0.3826 -3.3055 -0.9688
  710MOL0     H97935   5.809   4.066   1.707  1.0103 -2.7140 -2.0373
  710MOL0     H97936   6.018   4.152   1.918 -0.6383  1.0521  1.4780
  710MOL0     H97937   5.868   4.229   1.875  0.1946 -0.4164  0.4520
  710MOL0     H97938   5.588   4.037   1.949  1.8184  2.6728 -2.8470
  710MOL0     H97939   5.337   4.066   2.149 -1.5863  0.2077  0.6323
  710MOL0     H97940   5.374   4.098   1.974  0.4603  0.0186  0.4599
  710MOL0     H97941   5.317   4.225   2.085  1.0210 -0.2456 -0.6628
  710MOL0     H97942   5.316   4.071   2.531 -1.6541 -0.9014  0.1014
  710MOL0     H97943   5.192   4.091   2.732  3.6488 -1.8847 -1.9692
  710MOL0     H97944   4.980   4.131   2.796 -1.3107  1.0928 -0.1671
  710MOL0     H97945   5.060   4.196   2.937 -0.1430 -0.2745  0.5762
  710MOL0     H97946   4.805   4.148   2.965  2.6152 -0.8157  0.9413
  710MOL0     H97947   4.871   4.309   3.002 -0.2106  0.5596 -1.6749
  710MOL0     H97948   4.737   4.237   2.743  0.8041  0.4516 -0.9197
  710MOL0     H97949   4.796   4.399   2.780 -0.8579  0.8427 -1.1268
  710MOL0     H97950   4.564   4.279   2.923  3.1484 -2.1653 -0.1245
  710MOL0     H97951   4.564   4.410   2.794 -3.3518 -2.6291 -0.3074
  710MOL0     H97952   4.549   4.511   3.020 -2.3844 -0.1486 -1.5370
  710MOL0     H97953   4.701   4.437   3.068  3.1485  0.2121 -1.9272
  710MOL0     H97954   4.813   4.582   2.894 -0.7426 -0.1049 -1.3827
  710MOL0     H97955   4.723   4.675   3.007  2.1627  2.2726 -1.3291
  710MOL0     H97956   4.526   4.652   2.814  0.5806 -2.4438 -1.0768
  710MOL0     H97957   4.677   4.647   2.724  1.9048 -0.2293  0.8138
  710MOL0     H97958   4.769   4.839   2.811 -0.0447  2.2454  3.7063
  710MOL0     H97959   4.644   4.869   2.921 -1.1187 -1.8815  0.3452
  710MOL0     H97960   5.074   4.490   2.620  0.3890  1.2735 -1.2337
  710MOL0     H97961   5.223   4.476   2.420 -5.2558 -0.1066 -1.6763
  710MOL0     H97962   5.743   4.355   2.291 -1.0698  0.1325  0.0646
  710MOL0     H97963   5.906   4.240   2.140 -0.9860  0.9613 -0.3027
  710MOL0     H97964   7.396   3.419   1.785  4.3908 -3.6554 -4.6955
  710MOL0     H97965   7.597   3.439   1.933  1.3458 -0.5957 -1.8997
  710MOL0     H97966   7.995   3.129   2.081 -0.9526 -0.0380  0.4421
  710MOL0     H97967   8.165   3.083   2.245  0.0146 -0.5778  1.1129
  710MOL0     H97968   8.315   3.114   2.595  1.8504 -3.4100 -2.3655
  710MOL0     H97969   8.312   3.101   2.420  4.0402 -3.3380  3.1026
  710MOL0     H97970   8.220   3.340   2.591 -2.4745  0.0104 -1.7346
  710MOL0     H97971   8.190   3.336   2.425 -1.2174 -0.2746 -0.4377
  710MOL0     H97972   8.480   3.292   2.521  1.3884  2.8815  1.1086
  710MOL0     H97973   8.404   3.320   2.358  0.6465  1.6264  0.0834
  710MOL0     H97974   8.397   3.528   2.578 -0.7349  0.6102  0.3848
  710MOL0     H97975   8.368   3.553   2.399  0.4078 -0.9939 -0.2902
  710MOL0     H97976   8.765   3.632   2.456  1.1882 -2.7735  2.4387
  710MOL0     H97977   7.889   3.171   2.556 -3.8310  0.0537 -0.4070
  710MOL0     H97978   7.681   3.354   2.376  3.6936  0.8606  0.2418
  710MOL0     H97979   7.617   3.186   2.359 -0.1600  0.4206 -0.0870
  710MOL0     H97980   7.669   3.254   2.523 -1.0428  4.1182 -0.2984
  711MOL0     O97981   9.569  10.050   4.256  0.0217 -0.2516  0.7314
  711MOL0     C97982   9.657  10.066   4.172 -1.7581 -0.6875 -0.2342
  711MOL0     O97983   9.690   9.977   4.077 -0.2119 -0.4848  0.7615
  711MOL0     C97984   9.631   9.862   4.054 -0.3322  0.2608 -0.7215
  711MOL0     C97985   9.494   9.834   4.076  0.0063 -0.5675  0.9584
  711MOL0     C97986   9.441   9.713   4.049  0.9356  0.0243 -0.7682
  711MOL0     C97987   9.516   9.613   3.998 -0.3392 -0.2079  0.2089
  711MOL0     O97988   9.476   9.490   3.968 -0.0304  0.2968 -0.0214
  711MOL0     C97989   9.334   9.479   3.933 -0.1854  0.4723  0.6973
  711MOL0     C97990   9.299   9.341   3.888 -0.4288  0.5131 -0.8275
  711MOL0     C97991   9.401   9.280   3.788  0.3554  0.0025  0.0380
  711MOL0     C97992   9.433   9.360   3.659 -0.0740 -0.8435  0.2693
  711MOL0     C97993   9.308   9.385   3.571  0.8367  0.2774  0.3418
  711MOL0     C97994   9.261   9.252   3.495  0.4191  0.6728 -0.1376
  711MOL0     C97995   9.157   9.282   3.387 -0.6282  0.3665 -0.0790
  711MOL0     C97996   9.098   9.152   3.326 -0.0697 -0.5943 -0.3128
  711MOL0     N97997   8.975   9.179   3.246 -0.0841  0.1891 -1.2880
  711MOL0     C97998   8.854   9.179   3.311 -1.1681  0.0059  0.5099
  711MOL0     C97999   8.773   9.137   3.210 -0.0881  0.3662 -0.9364
  711MOL0     C98000   8.631   9.092   3.231 -0.3503 -0.4659 -0.5545
  711MOL0     C98001   8.514   9.175   3.173 -0.0679  0.1332 -0.0447
  711MOL0     C98002   8.550   9.221   3.030  0.3925  0.8324 -0.6489
  711MOL0     C98003   8.426   9.271   2.959 -0.1191  0.0571 -0.7168
  711MOL0     O98004   8.400   9.391   3.023  0.3511  0.7873  0.3499
  711MOL0     C98005   8.266   9.424   3.023  0.2991  0.7553  1.1669
  711MOL0     C98006   8.219   9.517   2.933 -0.7995 -0.1947 -0.3782
  711MOL0     C98007   8.084   9.558   2.934 -0.3564 -0.9875 -0.4455
  711MOL0     C98008   8.036   9.654   2.824  0.3542 -0.2279  0.2113
  711MOL0     C98009   7.995   9.496   3.024  1.3896  1.0685  0.5502
  711MOL0     C98010   7.851   9.512   3.025 -0.6172 -0.9471  0.0075
  711MOL0     O98011   7.806   9.640   3.013  0.3038  0.3077 -0.1343
  711MOL0     C98012   7.695   9.683   2.946 -0.3419 -0.4031 -0.7131
  711MOL0     C98013   7.647   9.807   2.988  0.0490 -1.0595 -0.4753
  711MOL0     C98014   7.537   9.867   2.925 -0.8615 -0.0981  0.7756
  711MOL0     C98015   7.494   9.812   2.796  1.4291  0.3267  0.4397
  711MOL0     O98016   7.394   9.875   2.724 -0.2394 -0.2146 -0.2182
  711MOL0     C98017   7.432   9.988   2.646 -0.2045 -1.1247  0.6293
  711MOL0     C98018   7.545   9.963   2.550 -0.1958 -0.0074 -0.9648
  711MOL0     C98019   7.542  10.048   2.428 -0.0303 -1.0497  0.2541
  711MOL0     C98020   7.438  10.014   2.316 -0.3250  0.4131 -0.9650
  711MOL0     C98021   7.404  10.142   2.231  0.4806 -0.5489 -0.4066
  711MOL0     C98022   7.322  10.101   2.114  1.1046  0.5697  0.2562
  711MOL0     C98023   7.241  10.210   2.036 -0.1512 -0.1110 -0.3286
  711MOL0     C98024   7.342  10.262   1.933  0.2070  0.5544 -0.0116
  711MOL0    Cl98025   7.273  10.407   1.857  0.3085  0.0903 -0.4664
  711MOL0     C98026   7.554   9.692   2.751  0.0815 -0.2321  0.0412
  711MOL0     C98027   7.649   9.628   2.827 -0.4825 -0.2043 -0.0727
  711MOL0     O98028   7.786   9.416   3.006 -0.6176 -0.3563  0.5511
  711MOL0     C98029   8.050   9.395   3.111  0.0593  0.2384  0.2046
  711MOL0     C98030   8.182   9.365   3.111 -0.2468  0.3965 -0.2544
  711MOL0     N98031   8.832   9.131   3.089  0.0873  0.5410  0.2065
  711MOL0     N98032   8.953   9.164   3.108 -1.2471 -0.1292 -0.3983
  711MOL0     C98033   9.656   9.629   3.975 -0.8294 -0.8482 -0.0361
  711MOL0     C98034   9.708   9.759   4.010 -0.1193 -0.0993 -0.2774
  711MOL0     C98035   9.747  10.179   4.196 -0.7500 -0.7463 -0.0193
  711MOL0     C98036   9.857  10.196   4.114  0.2246  0.1781  0.8916
  711MOL0     C98037   9.942  10.302   4.124 -0.8502  0.5292 -0.2819
  711MOL0     C98038   9.913  10.403   4.208  0.0303 -0.0189 -0.0870
  711MOL0     O98039  10.000  10.514   4.204 -0.5481  0.3605 -0.5564
  711MOL0     C98040   9.938  10.640   4.202 -0.0742  0.0954 -1.2391
  711MOL0     C98041   9.839  10.660   4.086 -0.1768  0.3472  0.2315
  711MOL0     C98042   9.819  10.822   4.073 -0.5299  0.5955 -0.3550
  711MOL0     C98043   9.752  10.841   3.933  0.2457  0.7573 -0.0898
  711MOL0     C98044   9.834  10.816   3.816 -0.4458 -0.1212  0.6839
  711MOL0     C98045   9.891  10.791   3.711 -0.4184 -0.3680  0.1980
  711MOL0     C98046   9.804  10.395   4.296 -0.8399 -0.1859  0.2963
  711MOL0     C98047   9.722  10.290   4.290 -1.5988 -0.6033  0.2884
  711MOL0     C98048   9.604  10.305   4.384 -0.3585  0.1373 -0.0166
  711MOL0     H98049   9.432   9.916   4.112  0.5205  1.5008 -2.4105
  711MOL0     H98050   9.334   9.696   4.060  1.1295 -0.0004  1.5023
  711MOL0     H98051   9.306   9.548   3.853  0.0016 -0.9683 -0.6539
  711MOL0     H98052   9.277   9.490   4.026 -0.3629 -1.0205  0.7958
  711MOL0     H98053   9.295   9.273   3.974  0.7447  0.5371 -0.7304
  711MOL0     H98054   9.198   9.343   3.848 -0.0391  0.1435 -1.8531
  711MOL0     H98055   9.501   9.271   3.832  0.1043 -0.3277  0.5670
  711MOL0     H98056   9.370   9.181   3.753 -2.5303  1.3336 -1.4783
  711MOL0     H98057   9.472   9.458   3.688  2.3665 -1.9029  0.8014
  711MOL0     H98058   9.516   9.317   3.603  0.3008  0.1467  0.0435
  711MOL0     H98059   9.312   9.465   3.496  0.3140  0.4105  0.4507
  711MOL0     H98060   9.218   9.415   3.626  1.1205  0.8215  0.5188
  711MOL0     H98061   9.347   9.212   3.439  0.6703  1.3541 -0.2502
  711MOL0     H98062   9.223   9.177   3.565  3.9158 -2.4316 -1.2435
  711MOL0     H98063   9.206   9.340   3.309 -0.2973 -0.1402 -0.2565
  711MOL0     H98064   9.073   9.338   3.429 -2.0094 -1.3434 -0.4454
  711MOL0     H98065   9.180   9.112   3.267  1.5119  1.5564  0.3158
  711MOL0     H98066   9.077   9.092   3.415 -2.7959  1.3853  0.5284
  711MOL0     H98067   8.830   9.171   3.416 -2.1287 -1.6707  0.2128
  711MOL0     H98068   8.616   9.079   3.339 -0.7341  0.3038 -0.5037
  711MOL0     H98069   8.621   8.989   3.196 -0.1334 -1.2895  1.6216
  711MOL0     H98070   8.427   9.108   3.170 -0.1458  0.0607  2.2943
  711MOL0     H98071   8.489   9.264   3.231 -0.1566 -0.8657  1.5111
  711MOL0     H98072   8.617   9.307   3.042  1.8863 -0.0537 -2.1576
  711MOL0     H98073   8.588   9.137   2.971 -2.7213 -2.0264  1.0753
  711MOL0     H98074   8.457   9.274   2.854  0.2703  0.0919 -0.6004
  711MOL0     H98075   8.340   9.207   2.976 -1.8595  2.5650  0.6525
  711MOL0     H98076   8.292   9.576   2.878  1.4114 -1.1436  1.3924
  711MOL0     H98077   7.942   9.618   2.780  1.3391 -0.7216 -1.5969
  711MOL0     H98078   8.111   9.662   2.745 -0.2173  1.2302 -0.2210
  711MOL0     H98079   8.014   9.752   2.866 -3.2684 -1.3542  1.2958
  711MOL0     H98080   7.686   9.881   3.058 -1.3226  1.1341 -1.8997
  711MOL0     H98081   7.500   9.958   2.970  0.0266  2.5722 -3.3543
  711MOL0     H98082   7.346  10.028   2.591  0.3120 -0.5201  0.2474
  711MOL0     H98083   7.459  10.070   2.713 -2.4634  0.5949 -0.4055
  711MOL0     H98084   7.633   9.984   2.611  2.5419 -1.3828 -4.1170
  711MOL0     H98085   7.540   9.856   2.527 -2.5616 -0.2254  0.2071
  711MOL0     H98086   7.643  10.048   2.384  0.1851 -1.8092  0.7236
  711MOL0     H98087   7.530  10.149   2.467  2.3312 -1.1775  1.4833
  711MOL0     H98088   7.343   9.988   2.365  1.1817  0.1464  2.0709
  711MOL0     H98089   7.476   9.928   2.260  1.0395 -0.0717  0.6046
  711MOL0     H98090   7.344  10.211   2.292 -1.5452 -2.3785 -0.2404
  711MOL0     H98091   7.499  10.192   2.209  1.3765 -1.8263  0.4213
  711MOL0     H98092   7.253  10.025   2.152  3.1183 -0.8298  1.3130
  711MOL0     H98093   7.385  10.047   2.043 -1.6771 -1.9359 -0.4905
  711MOL0     H98094   7.204  10.291   2.099  0.4513 -0.0771 -0.0126
  711MOL0     H98095   7.152  10.174   1.983 -1.1088  3.2125 -1.2434
  711MOL0     H98096   7.358  10.180   1.861  0.2029  0.2292  0.3537
  711MOL0     H98097   7.440  10.283   1.976  0.4608  3.4206 -1.7393
  711MOL0     H98098   7.507   9.657   2.660 -2.0634  2.2822  0.0607
  711MOL0     H98099   7.693   9.537   2.788 -0.2468  0.1548 -0.6555
  711MOL0     H98100   7.997   9.337   3.186 -1.0151  3.1625  1.8701
  711MOL0     H98101   8.219   9.306   3.194 -1.7489 -0.1260  0.0690
  711MOL0     H98102   9.723   9.561   3.924 -0.4430 -0.7612  0.3415
  711MOL0     H98103   9.813   9.779   3.991  0.5407 -0.5467  2.5425
  711MOL0     H98104   9.881  10.124   4.036 -1.4623 -1.0325  1.4111
  711MOL0     H98105  10.024  10.327   4.057 -0.9859  4.9316  0.8949
  711MOL0     H98106   9.891  10.672   4.295  1.1286  0.5571 -0.7759
  711MOL0     H98107  10.015  10.715   4.182  0.0532  0.4651  0.4599
  711MOL0     H98108   9.747  10.604   4.104 -0.5980  0.9242 -0.0673
  711MOL0     H98109   9.887  10.615   3.999  0.4906  0.3426  0.5999
  711MOL0     H98110   9.756  10.865   4.152 -1.3065  1.2060 -1.2792
  711MOL0     H98111   9.914  10.876   4.068 -0.1350  0.0971  1.2059
  711MOL0     H98112   9.711  10.942   3.927  1.0220  0.9970 -2.1935
  711MOL0     H98113   9.672  10.766   3.938  0.5046  0.5528  3.1217
  711MOL0     H98114   9.959  10.774   3.630 -0.3881 -2.4290  0.6005
  711MOL0     H98115   9.772  10.480   4.356  2.1218  3.1074 -2.3965
  711MOL0     H98116   9.505  10.295   4.339 -0.2979 -2.8664  0.3436
  711MOL0     H98117   9.615  10.232   4.465 -1.6461 -2.1800 -1.8167
  711MOL0     H98118   9.614  10.402   4.433 -1.0104  0.6220 -0.8198
  712MOL0     O98119   4.758   3.548   0.878 -0.3171  0.3132  1.0240
  712MOL0     C98120   4.740   3.651   0.822 -0.0355 -0.1555  0.9062
  712MOL0     O98121   4.824   3.761   0.823  0.3987  0.1304  0.2181
  712MOL0     C98122   4.954   3.749   0.875  0.1742  0.7188  0.2934
  712MOL0     C98123   5.072   3.771   0.800 -0.4327 -1.0584 -0.8375
  712MOL0     C98124   5.196   3.761   0.855  0.0665  0.1557  0.0934
  712MOL0     C98125   5.214   3.734   0.990  0.0051  0.1316 -0.2081
  712MOL0     O98126   5.342   3.721   1.039  0.7474 -0.3492 -0.3588
  712MOL0     C98127   5.376   3.693   1.174  0.6377  0.2061 -0.2182
  712MOL0     C98128   5.521   3.707   1.208 -0.0683 -0.4254  0.7371
  712MOL0     C98129   5.561   3.854   1.195 -0.2763  0.3175 -0.3583
  712MOL0     C98130   5.717   3.882   1.203  0.3164  0.0339  0.1469
  712MOL0     C98131   5.760   4.022   1.175 -0.7239 -0.2980 -0.4216
  712MOL0     C98132   5.738   4.100   1.310  0.3651 -1.1573  0.2358
  712MOL0     C98133   5.750   4.250   1.284  0.7891  0.4260 -0.6071
  712MOL0     C98134   5.705   4.334   1.403  0.5241  0.2555 -0.9147
  712MOL0     N98135   5.579   4.289   1.464  0.4428  0.4916  0.4982
  712MOL0     C98136   5.462   4.295   1.400  0.7962 -0.2338  0.7785
  712MOL0     C98137   5.366   4.288   1.490 -0.2960  0.0083 -0.3091
  712MOL0     C98138   5.213   4.276   1.455  0.3019 -0.5461 -0.4236
  712MOL0     C98139   5.176   4.131   1.428 -0.2858 -0.4311 -0.8614
  712MOL0     C98140   5.027   4.119   1.421  0.3722 -1.0337 -0.1194
  712MOL0     C98141   4.999   3.972   1.384  0.2707  0.7596 -0.7695
  712MOL0     O98142   4.857   3.960   1.401  0.1303 -0.3788  0.4738
  712MOL0     C98143   4.809   3.830   1.433 -0.3341  1.2530  0.8334
  712MOL0     C98144   4.845   3.708   1.365  0.8546 -0.4514  0.9750
  712MOL0     C98145   4.795   3.586   1.391  0.2034 -0.0175  0.3754
  712MOL0     C98146   4.820   3.468   1.299 -0.0965 -0.2964 -0.9898
  712MOL0     C98147   4.706   3.583   1.499 -0.1026 -0.2037 -0.8813
  712MOL0     C98148   4.638   3.454   1.535 -0.2279 -0.1831 -0.3245
  712MOL0     O98149   4.706   3.336   1.570  0.1036 -0.7368  0.2141
  712MOL0     C98150   4.659   3.207   1.605 -0.7613 -0.3338 -0.2582
  712MOL0     C98151   4.748   3.096   1.595  0.1480 -0.9903  0.5892
  712MOL0     C98152   4.701   2.969   1.625  0.1333  0.5759 -0.7403
  712MOL0     C98153   4.563   2.938   1.651 -0.5291 -0.1930 -0.6125
  712MOL0     O98154   4.524   2.813   1.691  0.4361  0.4793  0.0177
  712MOL0     C98155   4.403   2.749   1.631  0.9149 -0.6582 -0.6930
  712MOL0     C98156   4.404   2.600   1.665  0.6243 -0.8087 -0.2293
  712MOL0     C98157   4.508   2.523   1.592 -0.4127  0.3497  0.2597
  712MOL0     C98158   4.503   2.528   1.448  0.2008  0.1144 -0.7333
  712MOL0     C98159   4.599   2.422   1.382 -1.4838  0.4652  0.2602
  712MOL0     C98160   4.553   2.276   1.377  0.1296 -0.2746 -0.5192
  712MOL0     C98161   4.409   2.259   1.299 -0.5700  0.7402 -0.1165
  712MOL0     C98162   4.413   2.131   1.211  0.3337 -0.2626  0.8247
  712MOL0    Cl98163   4.518   2.159   1.066 -0.2268  0.1521 -0.3251
  712MOL0     C98164   4.484   3.051   1.663  0.4879  0.2577 -0.2744
  712MOL0     C98165   4.527   3.175   1.648 -0.3018 -0.7562 -0.3582
  712MOL0     O98166   4.521   3.471   1.538 -0.3338  0.3115 -0.3475
  712MOL0     C98167   4.666   3.700   1.569  0.5454  0.1522  0.4376
  712MOL0     C98168   4.724   3.822   1.543  0.0795  0.0029 -0.5621
  712MOL0     N98169   5.419   4.268   1.616 -0.8137 -0.0170  0.3366
  712MOL0     N98170   5.550   4.265   1.595 -0.0749 -0.3711 -1.2960
  712MOL0     C98171   5.094   3.710   1.075  0.4328  0.3321 -0.3390
  712MOL0     C98172   4.968   3.718   1.013 -0.2071 -0.1896  0.3261
  712MOL0     C98173   4.612   3.656   0.749 -0.5348  0.5648 -0.5191
  712MOL0     C98174   4.511   3.574   0.798  0.6729 -1.3804  0.2677
  712MOL0     C98175   4.380   3.575   0.748 -0.3949  0.1490 -0.5286
  712MOL0     C98176   4.347   3.663   0.649 -0.6057  0.3922  0.3140
  712MOL0     O98177   4.224   3.691   0.602 -0.4476  0.2984 -0.2610
  712MOL0     C98178   4.110   3.679   0.687  0.2974  0.3968 -0.0884
  712MOL0     C98179   3.979   3.713   0.615  0.7374  0.1596 -0.3965
  712MOL0     C98180   3.978   3.664   0.470 -0.3227  0.9976 -0.1804
  712MOL0     C98181   3.844   3.689   0.398 -0.7641 -0.3257 -0.7196
  712MOL0     C98182   3.833   3.832   0.355  0.3401 -0.6798  0.1442
  712MOL0     C98183   3.818   3.949   0.324  0.5409  0.0308  0.3375
  712MOL0     C98184   4.449   3.739   0.593  0.6808  0.9457  0.3950
  712MOL0     C98185   4.583   3.731   0.638  0.2163 -1.0588  0.0524
  712MOL0     C98186   4.674   3.825   0.563  0.1697 -1.0269 -0.4817
  712MOL0     H98187   5.071   3.816   0.701  2.3832 -2.4696 -1.6221
  712MOL0     H98188   5.287   3.786   0.801 -0.0987 -0.1914 -0.3558
  712MOL0     H98189   5.341   3.592   1.200 -3.6502  1.6375  0.3597
  712MOL0     H98190   5.321   3.764   1.237  0.2743 -1.8144  1.8949
  712MOL0     H98191   5.536   3.669   1.310  2.8080 -3.0718 -0.5066
  712MOL0     H98192   5.581   3.656   1.132  0.0673  0.7729  0.0158
  712MOL0     H98193   5.517   3.903   1.108  1.1050  1.6583 -0.3540
  712MOL0     H98194   5.515   3.902   1.282 -4.8682 -3.1297 -0.5441
  712MOL0     H98195   5.761   3.845   1.296 -1.3161 -0.8958  0.5970
  712MOL0     H98196   5.761   3.815   1.129  1.8803 -0.2827  1.3117
  712MOL0     H98197   5.696   4.060   1.095 -0.3599 -1.3559 -1.2242
  712MOL0     H98198   5.864   4.031   1.145 -0.3690  0.5286  0.9649
  712MOL0     H98199   5.638   4.082   1.351 -0.1346  1.7104  0.5213
  712MOL0     H98200   5.814   4.075   1.385  0.5084  0.0575  0.5266
  712MOL0     H98201   5.683   4.274   1.201  1.8168  0.6088 -1.4087
  712MOL0     H98202   5.855   4.277   1.267  1.1919 -0.5063  0.3019
  712MOL0     H98203   5.781   4.344   1.481 -1.2998 -0.7545  1.0993
  712MOL0     H98204   5.695   4.439   1.375 -1.6285  0.6644  1.0031
  712MOL0     H98205   5.442   4.309   1.294  3.6813 -1.8585 -0.0790
  712MOL0     H98206   5.186   4.340   1.370 -0.5474 -1.1647 -0.6337
  712MOL0     H98207   5.149   4.323   1.531 -0.9573 -0.0896 -1.6981
  712MOL0     H98208   5.221   4.099   1.333  0.8631 -1.3645 -0.0255
  712MOL0     H98209   5.210   4.074   1.515 -2.2852 -0.3700  0.0270
  712MOL0     H98210   4.983   4.143   1.518 -2.7418  4.0354 -2.3304
  712MOL0     H98211   4.975   4.192   1.358 -1.0989 -1.1537  0.9010
  712MOL0     H98212   5.027   3.938   1.284  2.3955  1.3671 -0.4289
  712MOL0     H98213   5.058   3.916   1.457  1.6859  0.3906 -2.1461
  712MOL0     H98214   4.917   3.731   1.288  0.6629 -2.0336  0.2829
  712MOL0     H98215   4.823   3.492   1.192 -1.1333 -0.2813 -1.0247
  712MOL0     H98216   4.738   3.395   1.306 -2.4241  2.2852  0.7059
  712MOL0     H98217   4.916   3.436   1.339  0.4821  3.6320  1.2820
  712MOL0     H98218   4.850   3.112   1.562 -0.0019 -1.0850  0.0743
  712MOL0     H98219   4.769   2.886   1.644 -0.5659  0.3285  0.8662
  712MOL0     H98220   4.316   2.802   1.670 -1.0890 -0.5954 -4.7069
  712MOL0     H98221   4.393   2.765   1.523 -2.1863  0.3872 -0.3544
  712MOL0     H98222   4.418   2.594   1.773 -0.2751  1.8982  0.1083
  712MOL0     H98223   4.301   2.582   1.633  0.6878  0.7970 -1.4290
  712MOL0     H98224   4.485   2.420   1.621 -1.2557  1.7089  5.4485
  712MOL0     H98225   4.606   2.559   1.623  0.1053 -0.6562 -0.2033
  712MOL0     H98226   4.500   2.624   1.397  0.4430  1.1008  1.0462
  712MOL0     H98227   4.400   2.505   1.418 -0.4278  3.5019 -1.5655
  712MOL0     H98228   4.610   2.466   1.282 -3.2629  1.7607  0.5987
  712MOL0     H98229   4.697   2.432   1.430 -0.8337 -1.1629 -0.6450
  712MOL0     H98230   4.546   2.229   1.475  3.0653 -3.2867 -1.5511
  712MOL0     H98231   4.636   2.234   1.319  0.7627  1.1356 -0.6762
  712MOL0     H98232   4.374   2.342   1.237 -1.1746  1.7625  1.5078
  712MOL0     H98233   4.334   2.241   1.377  2.2573 -2.6313  2.1623
  712MOL0     H98234   4.310   2.113   1.180 -0.0989  1.6238  1.0225
  712MOL0     H98235   4.442   2.046   1.273  2.1680 -1.0565 -0.9971
  712MOL0     H98236   4.381   3.037   1.695  0.8396 -1.8425  0.0656
  712MOL0     H98237   4.463   3.260   1.670  0.0402 -0.7212  0.5390
  712MOL0     H98238   4.589   3.704   1.644 -1.3895  0.4215 -1.4591
  712MOL0     H98239   4.703   3.904   1.610 -0.3593  1.3797 -2.3209
  712MOL0     H98240   5.107   3.683   1.179 -0.0964  1.8747  0.1549
  712MOL0     H98241   4.875   3.709   1.069  1.4864 -2.7473  3.0540
  712MOL0     H98242   4.540   3.499   0.871  1.6984 -0.1648  1.1436
  712MOL0     H98243   4.318   3.500   0.796  2.0012 -0.0959  2.4942
  712MOL0     H98244   4.102   3.582   0.736  3.7655  0.2520  0.4608
  712MOL0     H98245   4.125   3.743   0.775 -0.1556  0.9328 -0.3920
  712MOL0     H98246   3.975   3.823   0.618 -1.3670  0.1068  0.5847
  712MOL0     H98247   3.895   3.668   0.669  0.0351 -0.7048 -2.1363
  712MOL0     H98248   4.065   3.695   0.411 -0.0669  2.2220  0.7898
  712MOL0     H98249   3.978   3.555   0.477 -1.5389  0.9673 -0.4233
  712MOL0     H98250   3.757   3.678   0.463  0.1691  2.4118  1.1959
  712MOL0     H98251   3.842   3.612   0.320 -0.7227 -0.8896 -0.1635
  712MOL0     H98252   3.791   4.045   0.284 -1.9491 -0.4566  0.6926
  712MOL0     H98253   4.425   3.809   0.513  0.2257 -0.6288 -0.8837
  712MOL0     H98254   4.741   3.767   0.499  0.0540 -0.7299 -0.8764
  712MOL0     H98255   4.608   3.876   0.492  1.7662 -2.4350 -3.1196
  712MOL0     H98256   4.728   3.897   0.626  3.1082 -1.1310 -2.6355
  713MOL0     O98257   3.020   5.171  10.782  0.4075  0.4385  0.0881
  713MOL0     C98258   3.007   5.150  10.900 -0.7097  0.9266 -0.8929
  713MOL0     O98259   2.891   5.145  10.963 -0.3799 -0.5263  0.4877
  713MOL0     C98260   2.777   5.203  10.899  0.1242 -0.0215  0.7518
  713MOL0     C98261   2.722   5.168  10.775  0.5663  0.5687  0.5878
  713MOL0     C98262   2.622   5.243  10.723 -0.1555  0.1625 -0.1383
  713MOL0     C98263   2.570   5.350  10.800 -0.4051 -0.2604 -0.2146
  713MOL0     O98264   2.452   5.409  10.764  0.1864 -0.3448  0.3913
  713MOL0     C98265   2.413   5.434  10.628 -0.4146 -0.5590  0.3965
  713MOL0     C98266   2.365   5.578  10.632  0.6907  0.1046 -1.0229
  713MOL0     C98267   2.482   5.673  10.599 -0.6036  0.1709  0.1648
  713MOL0     C98268   2.449   5.819  10.621  0.4668  0.1395  0.3621
  713MOL0     C98269   2.572   5.901  10.592  0.2900 -0.6553 -0.0657
  713MOL0     C98270   2.537   6.051  10.578 -0.0501  0.0461 -0.1648
  713MOL0     C98271   2.634   6.120  10.472 -0.3074 -0.6754  0.1591
  713MOL0     C98272   2.628   6.279  10.503 -0.1250  0.8018  0.1893
  713MOL0     N98273   2.728   6.352  10.426  0.1010 -0.3783  0.0893
  713MOL0     C98274   2.717   6.374  10.293  0.4691  0.1704  0.4590
  713MOL0     C98275   2.799   6.480  10.262  0.3080  0.1157 -0.2108
  713MOL0     C98276   2.833   6.539  10.122  0.6390  0.5645  0.5649
  713MOL0     C98277   2.994   6.557  10.105 -0.8055  0.1044 -0.2105
  713MOL0     C98278   3.014   6.710  10.094  0.0047  0.0498 -0.1337
  713MOL0     C98279   3.169   6.733  10.108  0.4515  0.7219  0.2105
  713MOL0     O98280   3.192   6.870  10.152  0.6698  0.8385 -0.3438
  713MOL0     C98281   3.189   6.977  10.064  0.4968  0.2586  0.1572
  713MOL0     C98282   3.171   6.961   9.926  0.2900 -0.1581 -0.5912
  713MOL0     C98283   3.178   7.062   9.833 -0.5162  0.0479  0.8786
  713MOL0     C98284   3.150   7.031   9.687 -0.4632  0.6381 -0.1746
  713MOL0     C98285   3.205   7.193   9.878  0.2235  0.4374  0.3048
  713MOL0     C98286   3.204   7.318   9.793  0.1289  0.5593 -0.6363
  713MOL0     O98287   3.192   7.435   9.860  0.4907 -0.2503 -0.3571
  713MOL0     C98288   3.224   7.548   9.796 -0.3113 -0.1388  0.1469
  713MOL0     C98289   3.332   7.622   9.845  0.3296  0.0793  0.1761
  713MOL0     C98290   3.384   7.731   9.779  0.0877 -0.7003 -0.5838
  713MOL0     C98291   3.325   7.778   9.664 -0.2931 -0.1636 -0.3609
  713MOL0     O98292   3.365   7.907   9.628 -0.3341 -0.6914 -0.3016
  713MOL0     C98293   3.274   7.996   9.565  0.1277 -0.9713 -0.0087
  713MOL0     C98294   3.157   8.039   9.658 -0.0326  0.6061 -0.0972
  713MOL0     C98295   3.218   8.133   9.765  0.9051  1.3222  0.8049
  713MOL0     C98296   3.115   8.159   9.871  0.4981  0.6432 -0.1267
  713MOL0     C98297   3.184   8.254   9.972  0.0873  0.0556  0.4154
  713MOL0     C98298   3.087   8.332  10.057 -0.5815 -0.1822  0.5167
  713MOL0     C98299   2.996   8.240  10.142  0.0528  0.0559  0.8193
  713MOL0     C98300   3.077   8.159  10.234 -0.0450 -0.3469  0.2129
  713MOL0    Cl98301   3.104   8.220  10.398 -0.6974 -0.6019  0.7043
  713MOL0     C98302   3.204   7.714   9.614  0.4041  0.1470  0.0492
  713MOL0     C98303   3.162   7.594   9.681  0.6010 -0.3565  0.4917
  713MOL0     O98304   3.232   7.307   9.671 -0.4937 -1.0016 -1.0454
  713MOL0     C98305   3.229   7.202  10.014  0.6070  0.7785 -0.1294
  713MOL0     C98306   3.227   7.099  10.107  0.1684 -0.1489 -0.4892
  713MOL0     N98307   2.844   6.535  10.375 -0.0473 -0.5639 -0.2419
  713MOL0     N98308   2.810   6.452  10.477  0.4294 -0.9503  0.4948
  713MOL0     C98309   2.613   5.377  10.937  0.4261  0.2690  0.0145
  713MOL0     C98310   2.725   5.310  10.979  0.6603  0.0986  0.5699
  713MOL0     C98311   3.121   5.114  10.995 -0.4320  0.5773 -0.8444
  713MOL0     C98312   3.105   5.019  11.095  0.2777 -0.4336  0.8079
  713MOL0     C98313   3.206   5.001  11.196  0.0964  0.1296 -0.1749
  713MOL0     C98314   3.324   5.067  11.191  0.6561 -0.0252 -1.3094
  713MOL0     O98315   3.421   5.044  11.292  0.0298 -0.7244  0.1114
  713MOL0     C98316   3.551   5.108  11.272 -0.1712  1.4654 -0.3982
  713MOL0     C98317   3.648   5.047  11.166 -0.3640  0.1999  0.2456
  713MOL0     C98318   3.774   5.139  11.155  0.6422  0.6918  0.8038
  713MOL0     C98319   3.761   5.223  11.029  0.1954 -0.5485  0.2484
  713MOL0     C98320   3.670   5.350  11.051 -0.5215  0.3969 -0.3948
  713MOL0     C98321   3.600   5.451  11.053  0.2127  0.3213  1.2593
  713MOL0     C98322   3.338   5.162  11.095 -1.1251 -0.1370  0.2345
  713MOL0     C98323   3.246   5.188  10.998  0.3989 -0.5406  0.8662
  713MOL0     C98324   3.274   5.298  10.899  0.4061 -0.2707 -0.5140
  713MOL0     H98325   2.771   5.086  10.722  0.3159  0.4463  0.5451
  713MOL0     H98326   2.574   5.224  10.628 -0.5458  0.6543 -0.0406
  713MOL0     H98327   2.332   5.368  10.598 -0.9565  0.4143 -0.3319
  713MOL0     H98328   2.494   5.413  10.557  0.5757 -1.1425  1.6705
  713MOL0     H98329   2.293   5.590  10.550 -1.1674  0.9638  0.6734
  713MOL0     H98330   2.305   5.607  10.718 -3.2045 -1.3460 -3.0162
  713MOL0     H98331   2.565   5.639  10.661 -0.0548 -0.3549 -0.8222
  713MOL0     H98332   2.532   5.659  10.503 -0.0487  0.3970  0.4142
  713MOL0     H98333   2.376   5.860  10.551  0.9438  2.9442  1.4084
  713MOL0     H98334   2.415   5.825  10.725  2.3302 -2.3411  1.2369
  713MOL0     H98335   2.621   5.873  10.498  1.7824 -0.8173  0.7210
  713MOL0     H98336   2.648   5.886  10.670 -0.0386 -1.0888  0.1767
  713MOL0     H98337   2.433   6.061  10.545 -1.0963 -2.3159  2.1361
  713MOL0     H98338   2.524   6.098  10.676 -4.7135  0.5143 -0.7501
  713MOL0     H98339   2.615   6.108  10.365 -1.2825 -0.3374  0.2857
  713MOL0     H98340   2.737   6.093  10.496 -0.5787 -1.1050  0.8741
  713MOL0     H98341   2.533   6.327  10.478 -1.5892 -1.5231  0.9813
  713MOL0     H98342   2.644   6.292  10.610  1.5766 -0.7261  0.1821
  713MOL0     H98343   2.660   6.330  10.212 -0.7942  1.0782  0.8251
  713MOL0     H98344   2.777   6.633  10.119  1.4545  1.1273  1.8851
  713MOL0     H98345   2.802   6.473  10.040  3.2745 -1.2111  0.8658
  713MOL0     H98346   3.049   6.518  10.191  1.3625 -0.9343 -1.9491
  713MOL0     H98347   3.035   6.506  10.017  1.5190 -2.5184  2.1755
  713MOL0     H98348   2.972   6.751  10.002 -0.8160 -0.0375  0.1934
  713MOL0     H98349   2.967   6.760  10.179  0.9625  1.8442 -0.6017
  713MOL0     H98350   3.216   6.675  10.188  2.1674 -1.3635 -2.1510
  713MOL0     H98351   3.221   6.702  10.017  3.0400 -0.0439  1.8503
  713MOL0     H98352   3.125   6.863   9.910  1.7125 -1.1666  1.1153
  713MOL0     H98353   3.237   7.026   9.621  1.0892  0.9122  1.7648
  713MOL0     H98354   3.079   7.100   9.640 -3.5464 -3.0269 -1.4634
  713MOL0     H98355   3.106   6.931   9.679 -1.2490  1.0989 -2.4683
  713MOL0     H98356   3.368   7.572   9.934  2.6100 -1.5854 -1.5570
  713MOL0     H98357   3.461   7.786   9.832 -1.0576  0.8316 -0.4543
  713MOL0     H98358   3.311   8.094   9.534 -1.9058 -0.6311 -1.5374
  713MOL0     H98359   3.243   7.947   9.472 -0.1618 -1.8727  0.5536
  713MOL0     H98360   3.086   8.108   9.612  1.6300  0.4774 -3.0585
  713MOL0     H98361   3.110   7.957   9.713  0.7572  1.7947  2.5290
  713MOL0     H98362   3.263   8.217   9.712  2.1550 -0.1013 -0.4924
  713MOL0     H98363   3.298   8.088   9.823  0.3906 -3.1160 -1.4469
  713MOL0     H98364   3.090   8.066   9.922 -0.7032  1.4349  0.7805
  713MOL0     H98365   3.022   8.202   9.831  1.7535  2.6150 -1.1027
  713MOL0     H98366   3.254   8.197  10.033  0.8803  0.9189  0.3345
  713MOL0     H98367   3.225   8.337   9.914 -0.3396  0.1493  0.2476
  713MOL0     H98368   3.021   8.382   9.986 -0.1340  0.3206  0.4492
  713MOL0     H98369   3.131   8.418  10.109  0.8743 -0.2722 -0.4829
  713MOL0     H98370   2.945   8.172  10.074  1.7228 -0.2715 -0.1686
  713MOL0     H98371   2.921   8.307  10.186  0.1002  1.4719 -1.1082
  713MOL0     H98372   3.169   8.115  10.194 -0.7654  0.0079 -1.9964
  713MOL0     H98373   3.013   8.073  10.253 -0.6951  0.3174  1.0869
  713MOL0     H98374   3.148   7.748   9.527 -0.3162 -4.5157 -1.6317
  713MOL0     H98375   3.066   7.548   9.660 -0.8692  2.3572  0.7370
  713MOL0     H98376   3.258   7.297  10.058  2.2347  0.2538 -0.0253
  713MOL0     H98377   3.255   7.118  10.210 -1.4760  1.1101 -0.2256
  713MOL0     H98378   2.560   5.450  10.997 -0.9605 -1.7954  1.4672
  713MOL0     H98379   2.766   5.341  11.075  2.4335 -1.1126  0.2495
  713MOL0     H98380   3.013   4.961  11.094 -1.4709  2.0716 -1.8361
  713MOL0     H98381   3.196   4.927  11.274 -1.8964 -0.4444 -0.9106
  713MOL0     H98382   3.534   5.216  11.266  0.1965  1.4643 -1.6573
  713MOL0     H98383   3.599   5.083  11.368 -3.3381 -4.2113  0.1455
  713MOL0     H98384   3.600   5.040  11.068 -0.8512 -2.1641  0.6101
  713MOL0     H98385   3.682   4.945  11.187 -1.8312 -0.2563  0.5273
  713MOL0     H98386   3.802   5.202  11.239 -1.3641 -0.2547  2.2888
  713MOL0     H98387   3.864   5.080  11.134 -1.2533 -2.4792  0.9172
  713MOL0     H98388   3.740   5.160  10.942  3.5997  1.3586 -2.2007
  713MOL0     H98389   3.864   5.257  11.013 -0.6003  2.4388  0.8506
  713MOL0     H98390   3.543   5.541  11.053  2.6002  1.9398  1.1330
  713MOL0     H98391   3.431   5.217  11.079 -0.9953 -0.3295  0.3289
  713MOL0     H98392   3.208   5.384  10.914 -0.2119 -0.7154 -0.6368
  713MOL0     H98393   3.378   5.332  10.909 -0.4985  5.7098 -5.1628
  713MOL0     H98394   3.261   5.273  10.793  2.9641 -0.0063 -0.9489
  714MOL0     O98395   2.885   9.029   9.045  0.0726 -0.0928 -0.8288
  714MOL0     C98396   2.930   8.922   9.024 -0.1285  0.1860  0.4137
  714MOL0     O98397   2.960   8.819   9.116 -0.0635 -0.0569  0.5480
  714MOL0     C98398   2.981   8.857   9.246  0.7382  0.3029  0.2841
  714MOL0     C98399   2.854   8.864   9.313  0.1192  0.4595  0.6349
  714MOL0     C98400   2.848   8.898   9.443  0.5615 -0.2460 -0.3014
  714MOL0     C98401   2.961   8.938   9.515  0.5781  0.2589  0.0036
  714MOL0     O98402   2.958   8.980   9.652  0.2937 -0.0169 -0.1550
  714MOL0     C98403   2.854   9.069   9.686  0.6508  0.4412 -1.0883
  714MOL0     C98404   2.909   9.202   9.717 -0.1462 -0.0099 -0.6745
  714MOL0     C98405   3.025   9.210   9.823  0.7212 -0.3943  0.2428
  714MOL0     C98406   3.100   9.338   9.841 -0.3924  0.1813 -0.0294
  714MOL0     C98407   3.215   9.336   9.958 -1.3528 -0.5658  0.6887
  714MOL0     C98408   3.185   9.301  10.106  0.5823  0.3763 -0.5976
  714MOL0     C98409   3.144   9.420  10.184 -0.2870 -0.3909  0.1987
  714MOL0     C98410   3.098   9.401  10.328  0.4071  0.3603 -0.9030
  714MOL0     N98411   3.211   9.365  10.409  0.5572  0.2371 -0.4404
  714MOL0     C98412   3.254   9.242  10.446  0.5143 -0.1236  0.3148
  714MOL0     C98413   3.376   9.268  10.511 -0.3584  0.4894 -0.0445
  714MOL0     C98414   3.462   9.164  10.562 -0.5661 -0.1698  0.0201
  714MOL0     C98415   3.450   9.148  10.717  0.9491 -0.1047 -0.7619
  714MOL0     C98416   3.548   9.212  10.803  0.1663 -0.8212  0.6946
  714MOL0     C98417   3.680   9.140  10.790 -0.8934  0.0504  0.0615
  714MOL0     O98418   3.768   9.197  10.897 -0.2394 -0.5465  0.1545
  714MOL0     C98419   3.885   9.143  10.914  0.0221 -0.2924  0.0786
  714MOL0     C98420   3.943   9.183  11.032  0.6573 -0.2035  0.0755
  714MOL0     C98421   4.071   9.154  11.069 -0.3782  0.0787  0.8690
  714MOL0     C98422   4.121   9.192  11.210  0.6307  0.0656  0.5852
  714MOL0     C98423   4.143   9.052  10.989 -0.0966 -0.0406  0.1983
  714MOL0     C98424   4.277   9.009  11.017 -0.1440  0.7723 -1.4760
  714MOL0     O98425   4.366   9.079  11.087  0.0660  0.2235 -0.7046
  714MOL0     C98426   4.490   9.024  11.128 -0.3233 -0.6653  0.0537
  714MOL0     C98427   4.508   9.008  11.267 -0.6455  0.3784  0.3802
  714MOL0     C98428   4.626   8.951  11.318  0.8831 -0.5182  0.3574
  714MOL0     C98429   4.733   8.919  11.238 -0.9428  1.4822 -0.2490
  714MOL0     O98430   4.849   8.850  11.296 -0.4504 -0.7680 -0.2376
  714MOL0     C98431   4.956   8.798  11.207 -0.3996  0.3303  0.2366
  714MOL0     C98432   5.047   8.697  11.271  0.1744  0.3855 -0.1942
  714MOL0     C98433   5.053   8.720  11.429  0.1117 -0.4488 -0.1823
  714MOL0     C98434   5.167   8.630  11.499  0.7859  0.0537 -0.1402
  714MOL0     C98435   5.211   8.715  11.619  1.0970  0.5519 -0.3691
  714MOL0     C98436   5.348   8.685  11.687 -0.3125  1.3323  0.2871
  714MOL0     C98437   5.351   8.545  11.767  0.0407 -0.3683  0.9367
  714MOL0     C98438   5.359   8.582  11.918  0.8201 -0.6007 -0.7318
  714MOL0    Cl98439   5.340   8.438  12.025  0.1087 -0.7703  0.0357
  714MOL0     C98440   4.720   8.946  11.102 -0.1612 -0.5832  0.6348
  714MOL0     C98441   4.609   9.011  11.048  0.1906  0.3288 -0.1326
  714MOL0     O98442   4.304   8.898  10.969  0.2450  0.3130 -0.0770
  714MOL0     C98443   4.084   9.014  10.867  1.2926 -0.2410 -0.2440
  714MOL0     C98444   3.959   9.068  10.827 -0.1674  1.2145 -0.2714
  714MOL0     N98445   3.399   9.402  10.528 -0.6144  0.1251 -0.5952
  714MOL0     N98446   3.298   9.453  10.465  0.2212  0.3293  0.0675
  714MOL0     C98447   3.086   8.938   9.449  0.4649 -0.6818  0.0013
  714MOL0     C98448   3.098   8.893   9.313  0.6540  0.3797  0.0901
  714MOL0     C98449   2.939   8.894   8.872 -0.0222  0.3835 -0.7411
  714MOL0     C98450   3.047   8.814   8.822 -0.5151  0.6183  0.2134
  714MOL0     C98451   3.061   8.778   8.681  0.8399  0.9692 -0.8294
  714MOL0     C98452   2.971   8.830   8.595  0.6510 -0.1819 -0.2734
  714MOL0     O98453   2.988   8.826   8.459 -0.4011  0.6423  0.5343
  714MOL0     C98454   2.902   8.721   8.402 -0.3160 -0.1139  1.1888
  714MOL0     C98455   2.912   8.594   8.479  0.8209  0.7743  0.4816
  714MOL0     C98456   2.870   8.464   8.409 -0.3871  0.6766  0.4030
  714MOL0     C98457   2.845   8.344   8.513  0.1241 -0.7093  0.1092
  714MOL0     C98458   2.735   8.362   8.610  0.3436  0.1517  0.3033
  714MOL0     C98459   2.660   8.410   8.692 -0.7261  0.0263 -0.7333
  714MOL0     C98460   2.872   8.918   8.639 -0.3042 -0.4705  0.0318
  714MOL0     C98461   2.865   8.957   8.770  0.7760 -0.6489  0.4197
  714MOL0     C98462   2.757   9.065   8.788  0.0371 -0.9401 -0.0735
  714MOL0     H98463   2.774   8.834   9.246  2.0764 -0.3096 -1.4819
  714MOL0     H98464   2.749   8.919   9.480  1.5668  2.2936  1.2187
  714MOL0     H98465   2.798   9.022   9.767  1.0925 -2.1769 -2.2120
  714MOL0     H98466   2.796   9.086   9.595  0.2207  0.9872 -0.7164
  714MOL0     H98467   2.942   9.254   9.626  1.3122  2.9970  1.3707
  714MOL0     H98468   2.833   9.256   9.774  0.6507  0.5037 -0.0830
  714MOL0     H98469   2.994   9.179   9.923 -1.4721  2.7429  0.7074
  714MOL0     H98470   3.109   9.145   9.798  1.6339  0.9168 -0.2448
  714MOL0     H98471   3.141   9.377   9.747  0.9131 -3.8287 -1.3252
  714MOL0     H98472   3.019   9.404   9.875 -3.6520 -3.5166  0.1297
  714MOL0     H98473   3.263   9.434   9.958  1.1852 -1.6072 -2.4064
  714MOL0     H98474   3.288   9.265   9.916  0.1826  2.5227 -2.3307
  714MOL0     H98475   3.099   9.234  10.110 -0.9432  2.3063  0.4039
  714MOL0     H98476   3.274   9.248  10.142 -0.6208 -1.7894 -0.6652
  714MOL0     H98477   3.063   9.464  10.126  0.4914  0.1381 -0.5061
  714MOL0     H98478   3.218   9.500  10.176 -1.2960  0.4592 -1.0405
  714MOL0     H98479   3.069   9.500  10.365  2.1926  0.7192 -0.3653
  714MOL0     H98480   3.017   9.328  10.320  0.0837  0.2087  2.4856
  714MOL0     H98481   3.202   9.150  10.423 -0.5055 -0.0982  2.3045
  714MOL0     H98482   3.563   9.198  10.538 -0.6636 -0.0670 -0.2487
  714MOL0     H98483   3.426   9.083  10.498 -0.3585  0.7958 -1.3712
  714MOL0     H98484   3.353   9.190  10.745  2.7058  2.1419  2.6209
  714MOL0     H98485   3.453   9.042  10.744 -0.3050  0.3066  1.1889
  714MOL0     H98486   3.557   9.318  10.777 -1.8729 -0.1988  2.2323
  714MOL0     H98487   3.504   9.223  10.902 -1.9722  0.4161 -0.3275
  714MOL0     H98488   3.670   9.032  10.805  1.7631 -0.1187  1.2305
  714MOL0     H98489   3.737   9.154  10.697  1.9307 -0.6046  1.5596
  714MOL0     H98490   3.878   9.245  11.093  1.4073 -1.2156  1.9612
  714MOL0     H98491   4.218   9.237  11.190 -0.8848  2.3001 -2.8032
  714MOL0     H98492   4.138   9.099  11.265  2.0097 -0.8479 -1.2539
  714MOL0     H98493   4.051   9.259  11.260  0.5637 -0.0460  0.6401
  714MOL0     H98494   4.427   9.021  11.338 -0.2716  2.0656  0.5518
  714MOL0     H98495   4.642   8.937  11.425 -0.7381  0.2732  0.7356
  714MOL0     H98496   4.914   8.740  11.124 -0.6744  1.7512 -0.6500
  714MOL0     H98497   5.013   8.875  11.155 -0.0580  2.0772  3.0244
  714MOL0     H98498   5.008   8.597  11.253  1.8356 -0.3949  0.3651
  714MOL0     H98499   5.141   8.714  11.219 -0.5727  0.7409 -1.4879
  714MOL0     H98500   4.958   8.698  11.477 -0.1377  3.3746  1.4295
  714MOL0     H98501   5.071   8.825  11.457 -2.8808 -0.2709  1.4367
  714MOL0     H98502   5.241   8.614  11.420  1.2362  0.3937  0.2080
  714MOL0     H98503   5.132   8.531  11.532 -2.1419  1.4167  1.2739
  714MOL0     H98504   5.227   8.819  11.589  2.5668 -0.6433 -4.3954
  714MOL0     H98505   5.125   8.706  11.685 -0.8235  2.5692 -2.4435
  714MOL0     H98506   5.369   8.764  11.759  0.0882 -0.2988  2.0394
  714MOL0     H98507   5.425   8.686  11.609  0.4380 -2.5157  0.7518
  714MOL0     H98508   5.446   8.495  11.745  0.7123  1.0908  0.3536
  714MOL0     H98509   5.265   8.483  11.741  1.2634 -1.5738 -0.4057
  714MOL0     H98510   5.288   8.660  11.945 -0.2285 -2.3277  2.0081
  714MOL0     H98511   5.456   8.629  11.935  0.1406  0.6351 -0.1363
  714MOL0     H98512   4.801   8.917  11.036 -1.1489 -0.3501 -0.7075
  714MOL0     H98513   4.616   9.036  10.942  2.5169 -4.0239 -1.2682
  714MOL0     H98514   4.154   8.965  10.799  0.1145 -2.3896 -0.0014
  714MOL0     H98515   3.925   9.035  10.730 -0.0499 -0.6203  0.2819
  714MOL0     H98516   3.183   8.970   9.485 -0.4784  0.2861  1.8325
  714MOL0     H98517   3.189   8.887   9.254  1.0153 -4.9708  0.6762
  714MOL0     H98518   3.121   8.767   8.885  1.0664  0.3830 -1.6958
  714MOL0     H98519   3.140   8.717   8.639 -0.4211  0.4952 -2.6699
  714MOL0     H98520   2.799   8.756   8.390  0.4093  2.2888  1.3340
  714MOL0     H98521   2.942   8.702   8.302 -0.9065  2.8671  0.2726
  714MOL0     H98522   2.842   8.606   8.563 -0.2515 -2.9187  0.2891
  714MOL0     H98523   3.009   8.572   8.524  2.5621  2.3133 -2.2276
  714MOL0     H98524   2.778   8.472   8.351 -0.7399  0.8788  0.9917
  714MOL0     H98525   2.946   8.438   8.334  0.5707 -0.5344  1.7346
  714MOL0     H98526   2.940   8.325   8.564 -1.1371 -4.7000  1.3493
  714MOL0     H98527   2.829   8.259   8.446  2.3246  1.3566 -3.3470
  714MOL0     H98528   2.586   8.448   8.759 -3.0451  0.9374 -3.6453
  714MOL0     H98529   2.810   8.969   8.567 -2.2064  2.7505  3.5613
  714MOL0     H98530   2.688   9.061   8.704  2.1204 -2.6113 -1.8346
  714MOL0     H98531   2.691   9.045   8.872 -1.0064 -0.5655 -0.7880
  714MOL0     H98532   2.811   9.160   8.792  0.1586 -1.0422  1.7906
  715MOL0     O98533   7.762   2.967   5.080 -1.0759 -0.1738 -0.5315
  715MOL0     C98534   7.737   2.851   5.114 -0.3365  0.6627 -0.1060
  715MOL0     O98535   7.613   2.793   5.125  0.5921 -0.5576 -0.0697
  715MOL0     C98536   7.490   2.864   5.110 -0.6249 -0.2338  0.1751
  715MOL0     C98537   7.388   2.777   5.071  0.1772 -1.1081  0.2650
  715MOL0     C98538   7.257   2.827   5.072  0.4204 -0.2263  0.2564
  715MOL0     C98539   7.218   2.955   5.097 -0.2280 -0.1298 -0.2994
  715MOL0     O98540   7.087   2.984   5.090  0.2866 -0.4759 -0.1065
  715MOL0     C98541   7.049   3.114   5.053  0.5132  0.5771 -0.1142
  715MOL0     C98542   7.060   3.142   4.902 -0.1540 -0.2042  0.5855
  715MOL0     C98543   7.197   3.116   4.831 -0.1986 -0.1722  0.0562
  715MOL0     C98544   7.209   3.171   4.691 -0.2482  0.1704  0.0711
  715MOL0     C98545   7.098   3.102   4.592 -0.5018  1.1297  0.3861
  715MOL0     C98546   7.085   3.182   4.461  0.2633  0.2325 -0.4726
  715MOL0     C98547   7.008   3.118   4.348  0.7012 -0.8570  0.2018
  715MOL0     C98548   7.073   2.996   4.288  0.1951  0.2656 -0.4550
  715MOL0     N98549   7.206   3.014   4.225 -0.6178  0.1690  1.1205
  715MOL0     C98550   7.319   2.934   4.239 -0.0339 -0.6087  0.6298
  715MOL0     C98551   7.383   2.929   4.122  0.2267  0.0883 -0.3508
  715MOL0     C98552   7.526   2.870   4.095 -1.1795  0.0470 -0.5445
  715MOL0     C98553   7.636   2.907   4.191 -0.4066 -0.4649 -0.2514
  715MOL0     C98554   7.651   3.050   4.243  0.3511  0.2364 -0.3732
  715MOL0     C98555   7.790   3.085   4.291 -0.6002 -0.3451 -0.1203
  715MOL0     O98556   7.860   2.963   4.344  0.8723 -0.4512 -0.3548
  715MOL0     C98557   8.002   2.983   4.353 -0.7183 -0.5390  0.3241
  715MOL0     C98558   8.095   2.875   4.341  0.7345 -0.3594  0.2563
  715MOL0     C98559   8.228   2.890   4.341 -0.8431  0.0585 -0.0068
  715MOL0     C98560   8.321   2.768   4.346 -1.0607 -1.4447 -0.3528
  715MOL0     C98561   8.280   3.020   4.372  0.4598 -0.0366 -0.3477
  715MOL0     C98562   8.424   3.035   4.406  0.1774  0.1759 -0.2079
  715MOL0     O98563   8.452   3.110   4.508 -0.1682  0.4018 -1.2654
  715MOL0     C98564   8.590   3.115   4.538  0.5816 -0.5952  0.8392
  715MOL0     C98565   8.667   3.218   4.478  0.0317 -1.1486  0.1467
  715MOL0     C98566   8.793   3.243   4.528 -0.8182  0.0144 -0.3964
  715MOL0     C98567   8.855   3.158   4.621  0.9971  0.6867 -0.3900
  715MOL0     O98568   8.979   3.182   4.662 -0.2274  0.1897 -0.2477
  715MOL0     C98569   8.986   3.192   4.807 -0.1333 -0.1969  0.6569
  715MOL0     C98570   9.124   3.144   4.856  0.6673  0.5412 -0.7081
  715MOL0     C98571   9.133   2.996   4.841 -0.6758  0.8656 -0.0284
  715MOL0     C98572   9.279   2.955   4.850  0.2772  0.3922  0.7449
  715MOL0     C98573   9.306   2.801   4.837 -0.1342 -0.1123  1.7713
  715MOL0     C98574   9.455   2.766   4.843 -0.7168 -0.3165 -0.4562
  715MOL0     C98575   9.505   2.764   4.992  1.1344 -0.1894  1.2268
  715MOL0     C98576   9.628   2.680   4.991 -1.0246 -0.7554 -0.5127
  715MOL0    Cl98577   9.752   2.744   4.870  0.0549  0.1790  0.4979
  715MOL0     C98578   8.771   3.058   4.676 -0.8428 -0.2010 -0.3599
  715MOL0     C98579   8.644   3.035   4.634 -0.2071 -0.6471  1.4206
  715MOL0     O98580   8.506   2.988   4.334 -1.3923  0.2204  0.3890
  715MOL0     C98581   8.196   3.132   4.386  0.7095 -0.6138  0.9561
  715MOL0     C98582   8.055   3.111   4.375  0.0639  0.1928  0.7131
  715MOL0     N98583   7.308   3.000   4.027  0.3685  0.4609  0.0870
  715MOL0     N98584   7.200   3.044   4.088  0.8069 -0.6134  0.3992
  715MOL0     C98585   7.325   3.039   5.143  0.3857  0.6302  0.4247
  715MOL0     C98586   7.462   2.996   5.144  0.4634  0.0296 -0.0317
  715MOL0     C98587   7.850   2.767   5.151  0.6695 -0.1691  0.6400
  715MOL0     C98588   7.980   2.783   5.086 -0.0191 -0.5956  0.4349
  715MOL0     C98589   8.074   2.687   5.101 -0.0658 -1.4645 -0.2591
  715MOL0     C98590   8.053   2.585   5.197 -1.2100 -0.0880 -0.7006
  715MOL0     O98591   8.138   2.473   5.217 -0.1185 -0.9849 -0.2561
  715MOL0     C98592   8.279   2.482   5.187 -0.3219 -0.5186 -0.4477
  715MOL0     C98593   8.308   2.424   5.045 -0.4538  0.0559 -0.5178
  715MOL0     C98594   8.310   2.269   5.042  0.0533 -0.2322  0.7760
  715MOL0     C98595   8.336   2.211   4.893  0.1176 -0.4566 -0.5224
  715MOL0     C98596   8.378   2.073   4.905 -0.2105 -0.6286  0.3216
  715MOL0     C98597   8.401   1.957   4.896 -0.4145  0.2143 -0.3300
  715MOL0     C98598   7.939   2.576   5.277 -0.8152 -0.3489  0.4598
  715MOL0     C98599   7.832   2.671   5.258  1.1661 -0.7650 -0.2604
  715MOL0     C98600   7.713   2.668   5.355 -0.2572 -0.6293  0.5735
  715MOL0     H98601   7.429   2.686   5.027  3.8768  0.6123 -0.2619
  715MOL0     H98602   7.172   2.764   5.048  0.7277  0.0293 -1.6119
  715MOL0     H98603   7.103   3.195   5.103 -0.4606  1.6074 -0.6698
  715MOL0     H98604   6.945   3.139   5.079 -0.4308  1.0079 -3.7703
  715MOL0     H98605   6.986   3.073   4.860 -0.4090 -2.8205  4.6801
  715MOL0     H98606   7.022   3.242   4.879  1.4443 -0.1890 -2.5259
  715MOL0     H98607   7.274   3.165   4.891 -0.3757 -0.2442  0.3422
  715MOL0     H98608   7.209   3.008   4.819 -0.3371 -0.2958  0.9764
  715MOL0     H98609   7.193   3.279   4.699 -1.5116  0.0456 -0.4936
  715MOL0     H98610   7.302   3.145   4.639  0.0273 -1.2058  1.1884
  715MOL0     H98611   7.003   3.091   4.646 -0.2245 -1.3607  0.4915
  715MOL0     H98612   7.132   3.000   4.571 -0.0205  1.2087  0.7634
  715MOL0     H98613   7.025   3.267   4.496 -1.8901 -1.4429  0.1445
  715MOL0     H98614   7.175   3.227   4.419 -0.4165  0.3647 -1.8425
  715MOL0     H98615   6.985   3.189   4.269 -3.1493 -1.2106  0.7678
  715MOL0     H98616   6.913   3.089   4.396  0.7810 -0.0370  0.8714
  715MOL0     H98617   7.080   2.919   4.366  0.6880  1.1857  0.4278
  715MOL0     H98618   7.003   2.957   4.213 -1.1217  0.2164  0.7541
  715MOL0     H98619   7.341   2.886   4.334  1.2925  1.1661  1.2655
  715MOL0     H98620   7.558   2.880   3.991  0.0888 -1.4825 -0.3295
  715MOL0     H98621   7.509   2.762   4.103  0.3732 -0.0669  2.6825
  715MOL0     H98622   7.623   2.841   4.278 -1.3579  1.1833  0.9017
  715MOL0     H98623   7.730   2.885   4.139 -0.9791 -2.9420 -0.3875
  715MOL0     H98624   7.620   3.114   4.159 -0.4528 -1.9243 -1.8397
  715MOL0     H98625   7.571   3.061   4.317  0.6514  2.9362 -0.3654
  715MOL0     H98626   7.843   3.132   4.208 -2.9472 -0.7839 -1.9638
  715MOL0     H98627   7.792   3.151   4.378 -1.3097 -0.4998  0.0202
  715MOL0     H98628   8.056   2.774   4.329 -2.3795  0.5785  1.4626
  715MOL0     H98629   8.353   2.748   4.448  1.4983  2.4865 -0.1766
  715MOL0     H98630   8.412   2.786   4.288 -2.5091  1.0534 -2.0561
  715MOL0     H98631   8.278   2.672   4.314  0.0436 -0.7354 -4.6715
  715MOL0     H98632   8.624   3.289   4.408 -0.1387 -1.2928  0.1024
  715MOL0     H98633   8.841   3.335   4.494  1.1653 -1.3352 -1.4257
  715MOL0     H98634   8.968   3.294   4.844  2.5499  0.1593  1.1689
  715MOL0     H98635   8.916   3.122   4.853  1.5877 -3.0274 -0.7284
  715MOL0     H98636   9.199   3.196   4.795  0.3518  2.1356  0.1956
  715MOL0     H98637   9.149   3.185   4.955 -0.5100  4.5174 -1.8423
  715MOL0     H98638   9.101   2.953   4.746  1.9402 -4.1975  1.0546
  715MOL0     H98639   9.071   2.944   4.915 -0.2840 -0.4324 -0.5814
  715MOL0     H98640   9.313   2.983   4.950  1.5436  0.1609  0.4035
  715MOL0     H98641   9.328   3.015   4.772 -1.5336  0.3639 -0.4853
  715MOL0     H98642   9.253   2.732   4.904  1.4778 -3.4640 -0.1321
  715MOL0     H98643   9.273   2.787   4.734  0.3186  0.7686  1.4981
  715MOL0     H98644   9.516   2.846   4.798 -2.6624  4.1399  3.9425
  715MOL0     H98645   9.472   2.668   4.797  0.5904 -1.3508  2.0432
  715MOL0     H98646   9.437   2.697   5.046 -0.7495 -1.2456 -2.2029
  715MOL0     H98647   9.517   2.863   5.036 -1.1355  0.6931 -0.0476
  715MOL0     H98648   9.608   2.573   4.983 -1.1350 -1.0071  2.1948
  715MOL0     H98649   9.666   2.698   5.091 -1.6352 -1.3108 -0.1724
  715MOL0     H98650   8.818   2.983   4.739 -1.3349 -1.5705 -1.5595
  715MOL0     H98651   8.582   2.956   4.676  0.2608 -1.4016  0.7195
  715MOL0     H98652   8.233   3.235   4.384  5.0065 -1.9599  0.9437
  715MOL0     H98653   7.991   3.198   4.387 -0.7717 -0.1528 -1.0160
  715MOL0     H98654   7.306   3.143   5.169 -2.4717  0.6235 -1.2537
  715MOL0     H98655   7.532   3.063   5.194 -0.7665  1.7621 -0.5428
  715MOL0     H98656   7.987   2.856   5.006 -0.2529 -0.3755  0.6152
  715MOL0     H98657   8.159   2.690   5.035 -0.4858  2.4307 -0.8534
  715MOL0     H98658   8.312   2.586   5.185  0.3290 -0.6901  0.6590
  715MOL0     H98659   8.345   2.429   5.256  0.2961 -1.1073 -1.4519
  715MOL0     H98660   8.413   2.440   5.019 -0.4609 -1.4841 -1.6616
  715MOL0     H98661   8.247   2.457   4.961 -1.2585  0.3420  0.1713
  715MOL0     H98662   8.388   2.231   5.109 -0.2774 -3.0404 -0.2874
  715MOL0     H98663   8.212   2.230   5.072 -0.2031  1.2321  1.9969
  715MOL0     H98664   8.413   2.268   4.841 -3.0199  2.6140 -2.2567
  715MOL0     H98665   8.252   2.219   4.824  0.7450  1.0529 -1.1393
  715MOL0     H98666   8.431   1.854   4.893  1.1173  0.5940  0.8799
  715MOL0     H98667   7.935   2.491   5.344  1.7171 -2.0667 -1.4093
  715MOL0     H98668   7.750   2.626   5.448  1.3043 -2.7678 -0.9131
  715MOL0     H98669   7.674   2.767   5.381 -0.1915 -0.8712  1.6018
  715MOL0     H98670   7.634   2.607   5.309 -0.7826  0.4179  0.0240
  716MOL0     O98671   8.929  10.817   9.567 -0.2426  0.1632 -0.0835
  716MOL0     C98672   9.041  10.842   9.524  0.2479  1.0345 -0.5588
  716MOL0     O98673   9.141  10.757   9.539  0.1000  0.6936  0.7181
  716MOL0     C98674   9.110  10.634   9.594 -0.2443 -0.1769  0.7072
  716MOL0     C98675   9.031  10.540   9.516  0.8507 -0.0562 -0.6526
  716MOL0     C98676   8.993  10.410   9.570  0.5098  0.1050 -0.0399
  716MOL0     C98677   9.019  10.391   9.706 -0.3030 -0.4068 -0.1920
  716MOL0     O98678   8.971  10.285   9.783 -0.3234 -0.3979  0.2742
  716MOL0     C98679   8.999  10.154   9.751  0.0245  0.3339  0.8261
  716MOL0     C98680   8.883  10.074   9.695 -0.9355 -0.4444 -0.6377
  716MOL0     C98681   8.769  10.071   9.797  0.5527 -0.3481  0.7410
  716MOL0     C98682   8.782   9.986   9.924 -0.3110  0.2737 -1.3464
  716MOL0     C98683   8.665  10.007  10.020  1.0709  0.7029 -0.3488
  716MOL0     C98684   8.699   9.940  10.155 -0.4727  0.9262 -0.0644
  716MOL0     C98685   8.595   9.958  10.268 -0.1701  0.3081  0.0888
  716MOL0     C98686   8.622   9.860  10.388  0.5223  0.4096 -0.4379
  716MOL0     N98687   8.752   9.877  10.455 -0.4953 -0.2719  0.0498
  716MOL0     C98688   8.868   9.823  10.408 -0.9492  0.8186  0.1384
  716MOL0     C98689   8.954   9.841  10.516 -0.0991 -0.8652 -0.5208
  716MOL0     C98690   9.097   9.808  10.510 -0.9349  0.1586 -0.2768
  716MOL0     C98691   9.190   9.912  10.576  1.0331 -0.4934  0.5158
  716MOL0     C98692   9.336   9.877  10.550  0.2997 -0.2891 -0.2383
  716MOL0     C98693   9.426   9.941  10.446  0.5820 -0.0481 -0.7754
  716MOL0     O98694   9.470  10.075  10.488  0.6388 -0.4018 -0.0196
  716MOL0     C98695   9.572  10.124  10.419  0.1856  0.0013 -0.4172
  716MOL0     C98696   9.700  10.113  10.481 -0.1407 -0.2440  0.1088
  716MOL0     C98697   9.817  10.155  10.408  0.3943 -0.5530 -0.3246
  716MOL0     C98698   9.935  10.153  10.490 -1.0020  1.0908 -0.3520
  716MOL0     C98699   9.806  10.199  10.275  0.3247  0.7723 -0.3550
  716MOL0     C98700   9.923  10.222  10.185  0.3893 -0.0695  0.4127
  716MOL0     O98701   9.900  10.286  10.065 -0.2667 -0.2403  0.8314
  716MOL0     C98702   9.995  10.303   9.964  0.3242  0.4551 -0.2559
  716MOL0     C98703   9.946  10.294   9.835 -0.5519 -0.0508 -0.1142
  716MOL0     C98704  10.040  10.305   9.733 -0.5379 -0.8835  0.1344
  716MOL0     C98705  10.182  10.321   9.752 -0.2460 -0.1451 -0.0232
  716MOL0     O98706  10.277  10.346   9.660  0.8985 -0.2184 -0.0175
  716MOL0     C98707  10.245  10.435   9.552  0.4044  0.7551  0.1449
  716MOL0     C98708  10.379  10.488   9.499  0.2014  0.4424 -0.3189
  716MOL0     C98709  10.444  10.379   9.402  0.1131 -0.1839 -0.7859
  716MOL0     C98710  10.404  10.385   9.249 -0.3048 -1.4015 -0.0873
  716MOL0     C98711  10.529  10.359   9.160  0.5246 -0.0499 -0.0838
  716MOL0     C98712  10.539  10.209   9.112  0.6511 -0.1458  0.2286
  716MOL0     C98713  10.666  10.178   9.033  0.8156  0.2207  0.8282
  716MOL0     C98714  10.714  10.028   9.034 -0.2272  0.0635  0.7628
  716MOL0    Cl98715  10.617   9.917   8.934 -0.1380  0.2438  0.3419
  716MOL0     C98716  10.225  10.333   9.886  0.1550  0.3590 -0.4153
  716MOL0     C98717  10.130  10.326   9.989  0.4031  0.3922 -0.2443
  716MOL0     O98718  10.032  10.182  10.213  0.3315  1.0849 -0.0613
  716MOL0     C98719   9.679  10.199  10.216 -0.2142  0.1122  0.0321
  716MOL0     C98720   9.569  10.172  10.292  0.8517 -0.4702  0.4990
  716MOL0     N98721   8.882   9.886  10.623 -0.1584 -0.2190 -0.7011
  716MOL0     N98722   8.758   9.899  10.589  1.0229 -0.5211  0.7976
  716MOL0     C98723   9.110  10.480   9.775  0.5527  0.4013  0.1912
  716MOL0     C98724   9.152  10.602   9.727 -0.1737 -0.1180  0.2095
  716MOL0     C98725   9.075  10.973   9.468 -0.2517  0.1414  1.1527
  716MOL0     C98726   9.210  11.025   9.465  1.1173  0.3813 -0.7952
  716MOL0     C98727   9.244  11.147   9.419 -0.1595 -0.6400  0.1738
  716MOL0     C98728   9.152  11.236   9.361  0.6794 -0.0169 -0.0296
  716MOL0     O98729   9.188  11.349   9.294  0.3961  0.4176 -0.4958
  716MOL0     C98730   9.094  11.442   9.240  0.5084  0.7198 -0.5683
  716MOL0     C98731   9.163  11.563   9.178 -0.8334 -0.1652 -0.7452
  716MOL0     C98732   9.176  11.689   9.266  0.5204 -0.4750 -0.2440
  716MOL0     C98733   9.097  11.796   9.200 -1.1425  1.2716  0.4126
  716MOL0     C98734   9.110  11.925   9.262 -0.3610  0.3843 -0.0229
  716MOL0     C98735   9.131  12.041   9.306 -0.0833 -0.1918  0.0445
  716MOL0     C98736   9.016  11.194   9.367 -1.1303 -0.5989  0.2809
  716MOL0     C98737   8.977  11.065   9.418  0.2260  0.2629 -0.4490
  716MOL0     C98738   8.825  11.039   9.407 -0.5065  0.1040 -0.0066
  716MOL0     H98739   8.994  10.564   9.417 -2.9942 -3.5429 -0.3677
  716MOL0     H98740   8.950  10.337   9.502  0.3282  1.7356 -1.7690
  716MOL0     H98741   9.031  10.103   9.842  1.6359  1.9381  1.2139
  716MOL0     H98742   9.093  10.145   9.697  0.5179 -0.0698  1.7377
  716MOL0     H98743   8.860  10.127   9.602 -1.9106 -0.4426 -0.4086
  716MOL0     H98744   8.915   9.973   9.665 -0.7522 -0.1522 -1.4345
  716MOL0     H98745   8.769  10.175   9.833  0.7146 -0.3782  0.8305
  716MOL0     H98746   8.673  10.042   9.752  0.6217  1.3238 -0.5688
  716MOL0     H98747   8.786   9.878   9.905 -0.5151 -0.1886  0.9140
  716MOL0     H98748   8.869  10.013   9.984 -2.4112 -0.6793  2.4730
  716MOL0     H98749   8.587   9.951   9.967  3.6007 -2.7631 -0.7686
  716MOL0     H98750   8.644  10.114  10.030 -0.3001  0.5403 -1.1617
  716MOL0     H98751   8.703   9.831  10.143 -0.3207  0.7281  1.6138
  716MOL0     H98752   8.799   9.964  10.192  0.4000 -0.3834 -1.4310
  716MOL0     H98753   8.490   9.935  10.244  0.2532 -3.7125  1.2551
  716MOL0     H98754   8.597  10.064  10.294 -2.3047  0.5729 -0.6226
  716MOL0     H98755   8.551   9.892  10.464  0.2852  0.7157 -0.7828
  716MOL0     H98756   8.589   9.759  10.361  0.0423 -0.2340  2.2648
  716MOL0     H98757   8.892   9.781  10.311  2.1222 -2.5621  2.0887
  716MOL0     H98758   9.114   9.791  10.403 -3.6301 -0.4615 -0.6677
  716MOL0     H98759   9.097   9.713  10.564 -2.9084  0.5517  0.4610
  716MOL0     H98760   9.167  10.014  10.542  2.0279 -0.0820  1.0213
  716MOL0     H98761   9.171   9.913  10.684 -1.1908  1.3120  0.1859
  716MOL0     H98762   9.401   9.883  10.638  0.2271  1.1971 -0.2585
  716MOL0     H98763   9.338   9.772  10.518 -0.5516 -0.2064 -0.5980
  716MOL0     H98764   9.511   9.879  10.415  1.5419  0.8852 -0.0904
  716MOL0     H98765   9.363   9.959  10.358  0.3576  2.3829 -0.1883
  716MOL0     H98766   9.691  10.082  10.585 -4.2756  0.0879  0.0330
  716MOL0     H98767   9.964  10.258  10.503  0.2776  1.0148 -2.1908
  716MOL0     H98768  10.024  10.109  10.443 -1.3615 -0.7520  0.5990
  716MOL0     H98769   9.921  10.095  10.582 -3.6423  0.4821 -1.0586
  716MOL0     H98770   9.839  10.289   9.814 -0.7858  1.4946  0.5630
  716MOL0     H98771  10.020  10.297   9.627  0.0862  0.2440 -0.0903
  716MOL0     H98772  10.200  10.366   9.480  1.4267 -0.4789  0.6387
  716MOL0     H98773  10.165  10.506   9.572  5.1043  6.0917  2.8601
  716MOL0     H98774  10.367  10.579   9.439 -0.6812 -1.2329 -2.8603
  716MOL0     H98775  10.445  10.501   9.585  1.4872 -3.5867 -0.4720
  716MOL0     H98776  10.418  10.282   9.447 -0.6294  0.1928 -0.3821
  716MOL0     H98777  10.553  10.379   9.417  0.1864 -3.5740 -0.6060
  716MOL0     H98778  10.375  10.489   9.232 -0.5541 -1.2135  1.4061
  716MOL0     H98779  10.325  10.315   9.221  0.9964 -2.5447 -1.0999
  716MOL0     H98780  10.518  10.416   9.067  3.0493 -1.9219 -1.6854
  716MOL0     H98781  10.622  10.394   9.206  1.4927 -1.0456 -1.2086
  716MOL0     H98782  10.452  10.185   9.049  0.2427 -3.9979  1.9698
  716MOL0     H98783  10.532  10.134   9.191 -0.0008 -0.2679  0.0617
  716MOL0     H98784  10.746  10.228   9.088  1.1193  2.4827 -1.4849
  716MOL0     H98785  10.666  10.199   8.925  0.8786 -0.6352  0.6519
  716MOL0     H98786  10.722  10.002   9.140  0.9334  0.0428  0.6887
  716MOL0     H98787  10.820  10.019   9.008  0.0413  3.2455  0.3003
  716MOL0     H98788  10.326  10.362   9.911  0.4167 -0.7672 -0.1096
  716MOL0     H98789  10.169  10.325  10.090  0.1444 -0.3133 -0.1436
  716MOL0     H98790   9.661  10.222  10.111  1.2479  1.7867  0.1102
  716MOL0     H98791   9.469  10.175  10.251  0.2795  0.5550  1.8778
  716MOL0     H98792   9.122  10.454   9.880 -0.9784 -0.8266  0.1104
  716MOL0     H98793   9.200  10.668   9.798 -1.3451  1.5653 -0.5021
  716MOL0     H98794   9.292  10.968   9.508  1.7502  1.7694 -0.1099
  716MOL0     H98795   9.345  11.185   9.424 -0.4446 -0.0945  2.5149
  716MOL0     H98796   9.046  11.384   9.161 -0.1926 -0.3118  0.5759
  716MOL0     H98797   9.021  11.475   9.315  0.2390  2.3891 -1.5166
  716MOL0     H98798   9.103  11.595   9.093  2.3522  2.7215 -2.1316
  716MOL0     H98799   9.268  11.548   9.150 -0.5841  0.3665 -0.1305
  716MOL0     H98800   9.135  11.674   9.367 -0.9607 -1.1216 -0.8968
  716MOL0     H98801   9.277  11.730   9.272  0.2074  0.1820  1.0044
  716MOL0     H98802   8.994  11.760   9.201 -0.2699 -1.7244 -2.2576
  716MOL0     H98803   9.122  11.809   9.094  1.8695 -0.6833  0.7597
  716MOL0     H98804   9.139  12.147   9.320 -2.5087  0.8792 -4.6645
  716MOL0     H98805   8.939  11.260   9.327 -0.7950  1.3520  2.6194
  716MOL0     H98806   8.790  11.092   9.318 -1.1990  1.5359  1.0758
  716MOL0     H98807   8.813  10.931   9.401 -1.0369  0.1474  0.2137
  716MOL0     H98808   8.768  11.077   9.492 -0.8208  0.4812 -0.3786
  717MOL0     O98809   8.849   5.158   8.914 -0.4671 -0.0835  0.6097
  717MOL0     C98810   8.943   5.095   8.853 -0.5131 -0.3760 -1.1832
  717MOL0     O98811   9.073   5.102   8.887  0.0502 -0.1293 -0.8001
  717MOL0     C98812   9.119   5.185   8.990 -0.2708 -0.0966 -0.1999
  717MOL0     C98813   9.076   5.316   9.014  0.2482  0.9082 -1.1532
  717MOL0     C98814   9.135   5.396   9.112  0.1924  1.2076  0.9015
  717MOL0     C98815   9.230   5.352   9.193 -0.7933 -0.1101 -0.5168
  717MOL0     O98816   9.293   5.433   9.286 -0.2702  0.0653  0.4342
  717MOL0     C98817   9.233   5.563   9.295  0.1793 -0.3696 -0.7959
  717MOL0     C98818   9.305   5.631   9.410  0.2157  0.5374 -0.2597
  717MOL0     C98819   9.216   5.735   9.481 -0.7364 -0.6834  0.2093
  717MOL0     C98820   9.196   5.854   9.393  0.6681 -0.2135  0.1605
  717MOL0     C98821   9.120   5.966   9.476  0.4935 -0.3934  0.3230
  717MOL0     C98822   9.040   6.060   9.379  0.3534 -0.0670  0.5856
  717MOL0     C98823   8.993   6.184   9.447  0.4969  0.1957 -0.2227
  717MOL0     C98824   8.957   6.301   9.349  0.4772 -0.1728  0.0693
  717MOL0     N98825   8.851   6.265   9.253 -0.2485 -0.7772 -0.0716
  717MOL0     C98826   8.726   6.235   9.286  1.1479  1.1938 -1.4356
  717MOL0     C98827   8.661   6.187   9.173 -0.6057  0.4570 -0.1023
  717MOL0     C98828   8.525   6.148   9.176  0.0250 -1.0136  1.4354
  717MOL0     C98829   8.520   5.996   9.168  0.9577  0.5343  0.6332
  717MOL0     C98830   8.380   5.955   9.150  0.1703 -0.7221 -0.7415
  717MOL0     C98831   8.366   5.803   9.189 -0.7191 -0.3233  0.0348
  717MOL0     O98832   8.398   5.724   9.070  0.8833  0.9693  0.4821
  717MOL0     C98833   8.393   5.588   9.079  0.2590  0.4121 -0.0678
  717MOL0     C98834   8.322   5.520   9.172  0.8343 -0.1430 -0.4199
  717MOL0     C98835   8.330   5.385   9.171 -1.0520 -0.4343  1.0217
  717MOL0     C98836   8.253   5.312   9.275 -0.5135  0.2131 -0.7546
  717MOL0     C98837   8.405   5.311   9.074  0.3082  0.4528 -0.3652
  717MOL0     C98838   8.400   5.157   9.069 -0.8961  0.0768  0.1314
  717MOL0     O98839   8.439   5.074   9.174 -0.1988 -0.0531  0.1796
  717MOL0     C98840   8.552   5.121   9.243  0.1232  0.6375 -0.0825
  717MOL0     C98841   8.562   5.125   9.380  0.2179 -0.0161 -0.8392
  717MOL0     C98842   8.679   5.177   9.440  0.0976 -0.1680 -0.1147
  717MOL0     C98843   8.791   5.227   9.369  0.4962  0.4673 -0.3255
  717MOL0     O98844   8.913   5.279   9.421  1.2694 -0.2133  0.7781
  717MOL0     C98845   8.924   5.292   9.564  0.6475 -0.2488  0.2842
  717MOL0     C98846   9.056   5.368   9.591  0.3291 -0.3945 -0.0026
  717MOL0     C98847   9.103   5.374   9.730  0.0832 -0.7549  0.5619
  717MOL0     C98848   9.225   5.477   9.739  0.8659  0.7247 -0.4405
  717MOL0     C98849   9.282   5.460   9.889 -0.4943 -0.3177 -0.4928
  717MOL0     C98850   9.372   5.336   9.904  0.1482  0.3370  0.5009
  717MOL0     C98851   9.423   5.313  10.049 -0.0278  1.1327 -0.6954
  717MOL0     C98852   9.548   5.387  10.090  0.0462  0.4247 -0.5783
  717MOL0    Cl98853   9.492   5.536  10.123 -0.0886 -0.3610  0.8009
  717MOL0     C98854   8.777   5.214   9.230 -0.1562 -0.3070  0.8471
  717MOL0     C98855   8.669   5.159   9.164  0.1295  0.6473  0.2898
  717MOL0     O98856   8.376   5.109   8.957  0.1670  0.7646  0.0524
  717MOL0     C98857   8.455   5.389   8.965 -0.4861  0.4965 -0.5939
  717MOL0     C98858   8.443   5.528   8.958  0.7159 -0.0998  0.3525
  717MOL0     N98859   8.746   6.220   9.064  0.5183  0.3368  0.5311
  717MOL0     N98860   8.866   6.259   9.115  0.5484  0.1481 -0.3092
  717MOL0     C98861   9.263   5.216   9.180  0.5614  0.0544  0.4000
  717MOL0     C98862   9.212   5.134   9.078 -0.1445  0.3048 -0.4175
  717MOL0     C98863   8.921   5.003   8.736  0.4611  0.4536 -0.2971
  717MOL0     C98864   9.028   4.930   8.686 -0.3511  0.6065  0.5114
  717MOL0     C98865   9.021   4.871   8.555  0.4929 -0.6297  0.5122
  717MOL0     C98866   8.898   4.874   8.490  0.5403  0.0263  0.3742
  717MOL0     O98867   8.878   4.808   8.373  0.3095  0.0015 -0.1086
  717MOL0     C98868   8.971   4.829   8.266  0.2793 -0.0081  0.3035
  717MOL0     C98869   8.888   4.811   8.142  0.3485  0.2372 -1.3436
  717MOL0     C98870   8.801   4.679   8.135  0.0103  0.6918 -0.7682
  717MOL0     C98871   8.882   4.560   8.103 -0.5331 -0.0034  0.4318
  717MOL0     C98872   8.795   4.446   8.092  0.1364 -0.4298  0.3822
  717MOL0     C98873   8.724   4.351   8.097  0.0328  0.7869 -0.0167
  717MOL0     C98874   8.788   4.919   8.554 -0.2091  0.3827 -0.1894
  717MOL0     C98875   8.794   4.984   8.677 -0.1153 -0.0585  0.0623
  717MOL0     C98876   8.657   5.031   8.718 -0.3568  0.2227  0.2364
  717MOL0     H98877   8.997   5.361   8.955 -1.5006 -2.9548 -2.1264
  717MOL0     H98878   9.081   5.488   9.129 -0.0958  1.6203 -1.8441
  717MOL0     H98879   9.129   5.560   9.329  1.3274  1.6853  3.6767
  717MOL0     H98880   9.246   5.618   9.202  1.2727  0.8217  0.0311
  717MOL0     H98881   9.335   5.560   9.488 -0.1329  1.0266  0.3229
  717MOL0     H98882   9.391   5.683   9.367  0.3858 -0.3876 -1.0647
  717MOL0     H98883   9.118   5.696   9.511  0.1156 -2.4545  0.8929
  717MOL0     H98884   9.267   5.771   9.571 -2.5470 -1.6789  1.7190
  717MOL0     H98885   9.293   5.889   9.358  0.3200  1.0056  0.3478
  717MOL0     H98886   9.120   5.828   9.318 -0.7470 -4.1199  2.6167
  717MOL0     H98887   9.195   6.015   9.538  0.7834  0.1434 -0.4341
  717MOL0     H98888   9.049   5.913   9.540 -2.6376  0.9679 -1.7449
  717MOL0     H98889   9.099   6.089   9.292  1.8750 -4.5591 -0.1644
  717MOL0     H98890   8.960   5.997   9.339  2.6707 -1.4477 -2.2526
  717MOL0     H98891   9.077   6.222   9.505  4.2356 -1.5457 -3.9783
  717MOL0     H98892   8.909   6.149   9.508 -1.6606  0.0614 -3.0290
  717MOL0     H98893   8.926   6.376   9.423 -1.8251 -0.0084 -0.9755
  717MOL0     H98894   9.035   6.350   9.289 -0.9506  0.1107 -1.6324
  717MOL0     H98895   8.677   6.228   9.383 -2.0339 -0.3627 -2.9983
  717MOL0     H98896   8.474   6.189   9.089 -0.0147 -2.3769  0.7928
  717MOL0     H98897   8.482   6.193   9.266  0.4295  2.8901 -0.0984
  717MOL0     H98898   8.580   5.953   9.088  1.3848  0.6578  0.8862
  717MOL0     H98899   8.550   5.954   9.264 -2.1048  0.8537  1.8353
  717MOL0     H98900   8.312   6.006   9.219  2.3600  2.5311 -0.7713
  717MOL0     H98901   8.336   5.981   9.054 -0.8758  0.4061  0.0113
  717MOL0     H98902   8.428   5.768   9.272  1.2746 -1.5181 -1.8450
  717MOL0     H98903   8.260   5.783   9.208 -0.3016  0.0525  3.2574
  717MOL0     H98904   8.265   5.566   9.252  0.4497 -0.3763 -0.5581
  717MOL0     H98905   8.227   5.371   9.364 -2.7339 -4.2838  1.9231
  717MOL0     H98906   8.299   5.221   9.312 -0.9442  0.2525 -0.1060
  717MOL0     H98907   8.151   5.281   9.248 -1.3006  0.5018  1.6226
  717MOL0     H98908   8.475   5.103   9.442 -0.2034 -0.4730 -1.5871
  717MOL0     H98909   8.687   5.193   9.547  2.5087  0.8690 -0.4006
  717MOL0     H98910   8.841   5.348   9.610 -0.3707  0.5518 -2.3273
  717MOL0     H98911   8.936   5.195   9.611 -2.2081 -0.3172  1.0552
  717MOL0     H98912   9.131   5.317   9.529  0.1769  0.1518 -0.6433
  717MOL0     H98913   9.056   5.471   9.556 -1.1179 -0.4911 -0.3513
  717MOL0     H98914   9.136   5.278   9.770 -1.9568 -0.7055  2.5933
  717MOL0     H98915   9.019   5.411   9.790 -1.3851 -4.0989  0.7893
  717MOL0     H98916   9.188   5.579   9.722 -0.2277  0.8684  2.3695
  717MOL0     H98917   9.301   5.441   9.670  1.2269  1.7134 -0.5759
  717MOL0     H98918   9.332   5.553   9.916 -5.3127  2.0100  1.6157
  717MOL0     H98919   9.197   5.467   9.957 -0.3210 -4.2646  0.4002
  717MOL0     H98920   9.442   5.337   9.820 -1.2836  0.7267 -0.7099
  717MOL0     H98921   9.303   5.252   9.895  2.6679 -2.1011  2.0688
  717MOL0     H98922   9.442   5.206  10.061  0.8188  1.4097  0.6209
  717MOL0     H98923   9.344   5.333  10.121  0.1387 -1.2837  0.2292
  717MOL0     H98924   9.631   5.395  10.019 -0.1481 -0.3661 -0.9034
  717MOL0     H98925   9.584   5.346  10.184  0.5377 -4.0716 -2.4752
  717MOL0     H98926   8.861   5.244   9.168 -0.8368  2.0469  0.9723
  717MOL0     H98927   8.663   5.156   9.055 -2.9693 -3.9422  0.2793
  717MOL0     H98928   8.493   5.344   8.873  0.7109 -0.3474  0.2801
  717MOL0     H98929   8.488   5.588   8.880 -0.8475  4.3678  2.5519
  717MOL0     H98930   9.347   5.190   9.244  0.0744  0.6892  1.3035
  717MOL0     H98931   9.257   5.039   9.055  3.1345  1.6490 -0.0465
  717MOL0     H98932   9.116   4.919   8.749 -1.0751  1.7493  1.7763
  717MOL0     H98933   9.103   4.826   8.499 -1.1154 -1.0084 -1.7046
  717MOL0     H98934   9.007   4.932   8.259 -0.5762  0.1637 -2.3259
  717MOL0     H98935   9.056   4.763   8.286  2.2313  1.4187 -2.5848
  717MOL0     H98936   8.955   4.831   8.058 -0.5229  2.6049 -1.5335
  717MOL0     H98937   8.810   4.887   8.145 -2.4149 -2.4328  0.9849
  717MOL0     H98938   8.747   4.661   8.229  1.2980 -1.0339 -0.3178
  717MOL0     H98939   8.726   4.695   8.057  0.7296 -0.7028 -1.7816
  717MOL0     H98940   8.954   4.542   8.183 -0.5592  2.2843  1.0458
  717MOL0     H98941   8.935   4.574   8.008 -0.4185  0.1720  0.5205
  717MOL0     H98942   8.648   4.277   8.106  1.7186 -0.9819  0.1669
  717MOL0     H98943   8.695   4.883   8.509  0.7918 -1.8134 -0.6366
  717MOL0     H98944   8.642   5.116   8.651 -0.1820  0.2385  0.2164
  717MOL0     H98945   8.582   4.953   8.700  0.5536  0.1210 -4.6989
  717MOL0     H98946   8.667   5.059   8.823  0.0328  0.2786  0.1838
  718MOL0     O98947   1.124   2.815   4.790  0.3139 -0.1103 -0.6527
  718MOL0     C98948   1.160   2.704   4.774  0.3905  0.6100  0.7813
  718MOL0     O98949   1.111   2.614   4.674 -0.5636 -0.3804  0.0082
  718MOL0     C98950   1.045   2.683   4.576  0.9799 -0.3782  0.7479
  718MOL0     C98951   1.099   2.679   4.444  0.0931  0.2208  0.4787
  718MOL0     C98952   1.026   2.747   4.346  0.4753  0.8423  0.0519
  718MOL0     C98953   0.897   2.799   4.368 -0.1632 -0.8349 -0.7434
  718MOL0     O98954   0.835   2.872   4.264 -0.5629 -0.7851 -0.3410
  718MOL0     C98955   0.727   2.966   4.284  0.4346 -0.1850 -0.4510
  718MOL0     C98956   0.606   2.884   4.271  0.0156  0.5826 -0.0754
  718MOL0     C98957   0.551   2.864   4.120  0.3260 -0.6507  0.2320
  718MOL0     C98958   0.399   2.832   4.115 -0.1800  0.2436 -0.3239
  718MOL0     C98959   0.377   2.668   4.123  0.9699 -0.0775  0.1420
  718MOL0     C98960   0.237   2.636   4.062 -0.5346 -0.1355 -0.0995
  718MOL0     C98961   0.206   2.488   4.054 -0.2364  0.0912 -0.6412
  718MOL0     C98962   0.146   2.430   4.180 -0.1020  0.8026  0.2976
  718MOL0     N98963   0.052   2.515   4.256 -0.4330 -0.2278  0.4183
  718MOL0     C98964   0.072   2.564   4.383 -0.0231 -0.3443 -0.0256
  718MOL0     C98965  -0.052   2.623   4.417  0.0316  0.4294 -1.3199
  718MOL0     C98966  -0.077   2.701   4.544  0.9507 -0.4448  0.2254
  718MOL0     C98967  -0.225   2.728   4.581 -0.0580  0.4172  0.5995
  718MOL0     C98968  -0.296   2.590   4.607 -0.4131  0.8080 -1.2420
  718MOL0     C98969  -0.433   2.577   4.677 -0.2421 -0.1295 -0.3053
  718MOL0     O98970  -0.529   2.665   4.620  1.1154  0.1950  0.0755
  718MOL0     C98971  -0.569   2.659   4.486  0.2035 -0.9872 -0.0371
  718MOL0     C98972  -0.540   2.541   4.409  0.5195 -0.6431  0.0848
  718MOL0     C98973  -0.575   2.527   4.264 -0.0570 -0.1049 -0.0273
  718MOL0     C98974  -0.530   2.396   4.203 -0.0651 -0.0688  0.0034
  718MOL0     C98975  -0.641   2.639   4.191  0.5057 -0.5221  0.7871
  718MOL0     C98976  -0.668   2.639   4.046 -0.2352 -0.2945 -0.4184
  718MOL0     O98977  -0.724   2.751   3.989  0.2774 -0.7525 -0.3311
  718MOL0     C98978  -0.783   2.746   3.861  0.0006  0.0920 -0.6248
  718MOL0     C98979  -0.849   2.865   3.830  1.3423  0.9229  0.0983
  718MOL0     C98980  -0.928   2.882   3.716 -1.0818  0.0493 -0.0250
  718MOL0     C98981  -0.916   2.788   3.610 -1.0833  0.1101  0.0961
  718MOL0     O98982  -0.986   2.816   3.496 -0.3175  0.8872 -0.0770
  718MOL0     C98983  -0.938   2.768   3.368 -1.0035  0.9017 -0.1608
  718MOL0     C98984  -0.950   2.889   3.280 -0.2456  0.3457  0.2287
  718MOL0     C98985  -0.946   2.841   3.137 -0.7441 -0.5107  0.3572
  718MOL0     C98986  -0.999   2.932   3.027  0.4528  0.0029 -0.5991
  718MOL0     C98987  -0.927   3.068   3.034  0.9688  0.5581  0.4587
  718MOL0     C98988  -0.997   3.159   2.927  0.0662  0.4504 -1.1268
  718MOL0     C98989  -0.915   3.289   2.911  0.6909  0.5588 -0.6593
  718MOL0     C98990  -0.944   3.364   2.794 -0.7871 -0.7937 -0.0725
  718MOL0    Cl98991  -0.905   3.269   2.644 -0.4479 -0.2671  0.2517
  718MOL0     C98992  -0.832   2.678   3.629 -1.5572 -0.1036  0.0542
  718MOL0     C98993  -0.767   2.662   3.751 -0.3910  0.1882 -0.7248
  718MOL0     O98994  -0.645   2.532   3.990  0.0064  0.0147 -0.4025
  718MOL0     C98995  -0.673   2.754   4.276  0.1001 -0.3839 -0.5779
  718MOL0     C98996  -0.638   2.764   4.418  0.0214  0.3292  0.4710
  718MOL0     N98997  -0.141   2.581   4.319  0.1373 -0.2326  0.4107
  718MOL0     N98998  -0.077   2.524   4.227 -0.2522  0.1683  0.1473
  718MOL0     C98999   0.836   2.803   4.502 -0.8183  0.0920 -0.3913
  718MOL0     C99000   0.911   2.726   4.598 -0.2259 -0.6553 -0.7599
  718MOL0     C99001   1.276   2.665   4.854  1.1743  1.0715  0.2172
  718MOL0     C99002   1.288   2.525   4.890 -0.2738 -0.0904 -0.0176
  718MOL0     C99003   1.379   2.475   4.987 -0.9793  0.5552 -0.2523
  718MOL0     C99004   1.472   2.559   5.037  0.3273  0.8924 -0.9826
  718MOL0     O99005   1.549   2.513   5.140 -0.7108 -0.7385 -0.5389
  718MOL0     C99006   1.687   2.560   5.152 -0.3456 -0.4280 -0.2378
  718MOL0     C99007   1.687   2.657   5.279 -0.4715 -0.0106  0.0045
  718MOL0     C99008   1.745   2.584   5.393 -0.0188  0.7835  0.3333
  718MOL0     C99009   1.740   2.655   5.529 -0.7980 -0.2205 -0.3030
  718MOL0     C99010   1.861   2.628   5.609 -0.0733  0.2977 -0.4969
  718MOL0     C99011   1.976   2.602   5.654  0.7312 -0.4339  0.2573
  718MOL0     C99012   1.471   2.698   5.000 -0.5620  0.2424  1.5740
  718MOL0     C99013   1.378   2.746   4.912  0.0325 -0.3699 -0.1854
  718MOL0     C99014   1.375   2.891   4.887 -0.0612 -0.4019  0.1421
  718MOL0     H99015   1.199   2.648   4.418  1.4015  2.0154  2.9277
  718MOL0     H99016   1.075   2.758   4.250 -3.2661 -0.7991 -2.3049
  718MOL0     H99017   0.741   3.046   4.210 -0.7908  1.6474  1.1879
  718MOL0     H99018   0.740   3.016   4.380  3.2232 -0.2394 -0.7233
  718MOL0     H99019   0.628   2.781   4.299 -3.3518 -0.6013 -1.3213
  718MOL0     H99020   0.534   2.919   4.345  1.4063  2.2496  0.5518
  718MOL0     H99021   0.558   2.957   4.062 -1.6401 -0.2825  0.5026
  718MOL0     H99022   0.617   2.804   4.057  2.9717  3.4106 -1.3371
  718MOL0     H99023   0.340   2.875   4.197 -0.6819 -1.6918  0.3938
  718MOL0     H99024   0.358   2.868   4.021 -0.8367 -0.0103 -0.1446
  718MOL0     H99025   0.367   2.633   4.226  2.6806  0.1959  0.4188
  718MOL0     H99026   0.460   2.620   4.071  1.7505  2.6894 -1.4083
  718MOL0     H99027   0.153   2.692   4.105  0.3508 -1.5052  3.8222
  718MOL0     H99028   0.255   2.676   3.962  0.4844 -1.7084 -0.5764
  718MOL0     H99029   0.296   2.428   4.035 -1.6131 -2.8423  1.2986
  718MOL0     H99030   0.133   2.465   3.976 -1.9411 -1.1687  1.2467
  718MOL0     H99031   0.091   2.345   4.138  3.1556 -0.3224 -2.1185
  718MOL0     H99032   0.222   2.392   4.248 -1.2958  0.5237  1.5267
  718MOL0     H99033   0.170   2.564   4.429  0.3171  0.1160 -0.7302
  718MOL0     H99034  -0.037   2.799   4.517  0.1838 -0.6356 -1.7264
  718MOL0     H99035  -0.027   2.641   4.621 -1.4360 -0.1887  2.0951
  718MOL0     H99036  -0.222   2.783   4.675  2.2370  1.0733  0.2043
  718MOL0     H99037  -0.276   2.786   4.504  0.6521  2.2226  1.4213
  718MOL0     H99038  -0.311   2.548   4.507 -1.4175  1.0713 -1.2100
  718MOL0     H99039  -0.232   2.518   4.659 -1.4529 -2.1556 -3.7389
  718MOL0     H99040  -0.457   2.470   4.671  3.9004 -1.5077  2.8305
  718MOL0     H99041  -0.422   2.600   4.783 -1.9777 -0.6899  0.0215
  718MOL0     H99042  -0.486   2.453   4.444  0.3211 -0.0416  2.0401
  718MOL0     H99043  -0.607   2.349   4.141  2.4481 -4.1323 -0.3748
  718MOL0     H99044  -0.487   2.328   4.277  1.8127  2.4870  1.4137
  718MOL0     H99045  -0.446   2.418   4.137  0.5678 -0.6826  0.5878
  718MOL0     H99046  -0.849   2.941   3.908  3.9768  1.9024 -0.7376
  718MOL0     H99047  -0.978   2.977   3.699 -1.0731 -0.0046 -0.3639
  718MOL0     H99048  -0.832   2.747   3.354 -0.5015  2.0235  1.6058
  718MOL0     H99049  -1.001   2.684   3.337  0.2302 -0.1025 -0.0267
  718MOL0     H99050  -1.048   2.937   3.293 -0.4261  2.1859 -5.1891
  718MOL0     H99051  -0.878   2.971   3.285 -0.6649  0.8582 -1.3249
  718MOL0     H99052  -0.978   2.738   3.118  2.0078 -1.4004  0.1287
  718MOL0     H99053  -0.840   2.834   3.112 -1.0059  0.2917 -1.0922
  718MOL0     H99054  -1.108   2.936   3.037  0.4469  1.5642 -0.9504
  718MOL0     H99055  -0.977   2.879   2.934  0.0595 -0.7758 -0.2593
  718MOL0     H99056  -0.942   3.104   3.136 -1.6910  1.1762 -0.0583
  718MOL0     H99057  -0.824   3.048   3.005  0.4509 -1.8533  0.0397
  718MOL0     H99058  -1.101   3.181   2.953 -0.1153  2.0085 -2.9507
  718MOL0     H99059  -1.004   3.101   2.834  1.6056 -0.4201 -0.7376
  718MOL0     H99060  -0.806   3.280   2.923  0.5554  1.2313  1.6839
  718MOL0     H99061  -0.924   3.355   2.998  4.4306 -0.6417  0.8341
  718MOL0     H99062  -0.880   3.453   2.798  1.5933 -2.3757 -0.7190
  718MOL0     H99063  -1.046   3.404   2.796  0.0845  1.7158 -0.9246
  718MOL0     H99064  -0.819   2.607   3.548  0.0786  1.1059 -0.7864
  718MOL0     H99065  -0.703   2.576   3.768  1.8731  1.7099 -1.0519
  718MOL0     H99066  -0.725   2.836   4.228  1.6898 -0.0516 -1.8380
  718MOL0     H99067  -0.687   2.848   4.467 -1.5347  0.3658 -1.0464
  718MOL0     H99068   0.736   2.840   4.524 -1.1329 -1.4912  1.0334
  718MOL0     H99069   0.864   2.713   4.695 -0.4251 -0.4596 -0.8298
  718MOL0     H99070   1.218   2.455   4.845  0.9238 -2.1005  1.1051
  718MOL0     H99071   1.370   2.375   5.027  2.4086 -0.0523 -0.6426
  718MOL0     H99072   1.761   2.482   5.170 -2.0780 -1.6273  2.3301
  718MOL0     H99073   1.711   2.606   5.056  0.9440 -0.3717  0.0903
  718MOL0     H99074   1.588   2.699   5.301  0.6285  2.0064  1.4915
  718MOL0     H99075   1.747   2.747   5.261  1.1330 -1.4774 -2.5883
  718MOL0     H99076   1.701   2.484   5.401  0.2708  0.5042 -1.2601
  718MOL0     H99077   1.849   2.564   5.369  0.2688  2.4771  0.0130
  718MOL0     H99078   1.649   2.620   5.579  0.4130 -1.6264  1.0344
  718MOL0     H99079   1.739   2.763   5.512 -1.3818 -0.4244 -1.6597
  718MOL0     H99080   2.069   2.582   5.704  0.5707  1.2179  1.2921
  718MOL0     H99081   1.545   2.760   5.049 -1.3776 -0.9763  4.5797
  718MOL0     H99082   1.477   2.930   4.897  0.2289 -1.4612  1.5660
  718MOL0     H99083   1.334   2.919   4.789 -2.9308 -2.5346  0.6236
  718MOL0     H99084   1.314   2.941   4.962 -0.8143  0.8434 -1.2608
  719MOL0     O99085   8.969   0.424   7.341 -0.1494  0.5666  0.3498
  719MOL0     C99086   8.938   0.518   7.401  0.3869  0.1270 -0.1117
  719MOL0     O99087   8.836   0.516   7.493 -0.5102 -0.5086  0.4356
  719MOL0     C99088   8.773   0.400   7.528  0.5193  0.4073 -0.0181
  719MOL0     C99089   8.826   0.280   7.587 -0.9652  0.0689  0.3331
  719MOL0     C99090   8.745   0.163   7.603  0.3680  1.1197 -1.1962
  719MOL0     C99091   8.619   0.155   7.552 -0.1668  0.3554 -0.5176
  719MOL0     O99092   8.557   0.031   7.556 -0.6394  0.5996 -0.1098
  719MOL0     C99093   8.444   0.003   7.469 -0.4743 -0.2903  0.2137
  719MOL0     C99094   8.375  -0.131   7.510  0.2295  0.6599 -0.0757
  719MOL0     C99095   8.481  -0.252   7.491  0.1514  0.4595  0.7724
  719MOL0     C99096   8.402  -0.388   7.477  0.3965  0.4385  0.0402
  719MOL0     C99097   8.332  -0.399   7.338 -0.3769 -0.4283 -0.9094
  719MOL0     C99098   8.326  -0.552   7.305  1.1535  0.0083 -0.4018
  719MOL0     C99099   8.237  -0.574   7.178 -0.5331 -0.4116  0.1800
  719MOL0     C99100   8.309  -0.520   7.048 -0.7334  0.6984  0.3667
  719MOL0     N99101   8.235  -0.532   6.919  0.4906 -0.1991  0.4104
  719MOL0     C99102   8.295  -0.577   6.805  0.0361  0.5510  0.6324
  719MOL0     C99103   8.204  -0.549   6.704  0.0650 -0.0687 -0.6070
  719MOL0     C99104   8.223  -0.588   6.561 -0.4829  0.1449 -0.5675
  719MOL0     C99105   8.224  -0.467   6.464  0.2346  1.0540  0.1613
  719MOL0     C99106   8.256  -0.510   6.318 -0.0792  1.1434 -0.2936
  719MOL0     C99107   8.243  -0.408   6.206  0.7753  0.0298  0.3338
  719MOL0     O99108   8.358  -0.316   6.215 -0.1210  0.7065  0.0661
  719MOL0     C99109   8.313  -0.189   6.204  0.5656 -0.6569  0.4281
  719MOL0     C99110   8.342  -0.111   6.314  0.8165 -0.0137  0.0541
  719MOL0     C99111   8.295   0.023   6.321  0.3690 -0.2101  0.7967
  719MOL0     C99112   8.340   0.098   6.445 -0.4185  0.4747 -0.0243
  719MOL0     C99113   8.214   0.080   6.218  0.6584  0.6749  0.8599
  719MOL0     C99114   8.166   0.219   6.213  0.0965 -0.0508 -0.2917
  719MOL0     O99115   8.130   0.269   6.097  0.0249 -0.3185 -0.1687
  719MOL0     C99116   8.088   0.399   6.077 -0.9469 -0.3354 -0.8859
  719MOL0     C99117   8.122   0.511   6.163  0.2598 -0.1471  0.0557
  719MOL0     C99118   8.086   0.637   6.110 -0.1290  0.2087  0.2141
  719MOL0     C99119   7.993   0.656   5.997 -0.8165  1.8476 -0.2699
  719MOL0     O99120   7.940   0.780   5.956 -0.5090 -0.8141 -0.4557
  719MOL0     C99121   7.952   0.883   6.059  0.0723 -0.3854 -0.0513
  719MOL0     C99122   7.846   0.989   6.040 -0.6384  1.0419  0.5023
  719MOL0     C99123   7.877   1.099   6.145  0.2313  0.2123 -0.6075
  719MOL0     C99124   7.751   1.163   6.216  0.3723  0.6463  0.3956
  719MOL0     C99125   7.714   1.062   6.327 -0.2678 -0.0652 -0.1476
  719MOL0     C99126   7.581   1.112   6.382 -0.5882 -0.4001  0.1809
  719MOL0     C99127   7.590   1.197   6.502  0.4339 -0.6192 -0.0175
  719MOL0     C99128   7.455   1.219   6.568  0.5332  0.1710  0.7228
  719MOL0    Cl99129   7.485   1.357   6.685  0.5877 -0.0138 -0.6701
  719MOL0     C99130   7.961   0.538   5.931  0.4193 -0.5489 -0.0343
  719MOL0     C99131   8.014   0.421   5.966  0.6956  0.1817 -0.1851
  719MOL0     O99132   8.148   0.269   6.328 -0.1203  0.2677  0.1282
  719MOL0     C99133   8.187  -0.008   6.109  0.7695 -0.6571  0.3470
  719MOL0     C99134   8.224  -0.140   6.106 -0.0484  0.5964  0.0133
  719MOL0     N99135   8.088  -0.490   6.762  0.2004 -0.0678  0.1136
  719MOL0     N99136   8.117  -0.475   6.889  0.6795 -0.9921  0.5731
  719MOL0     C99137   8.563   0.274   7.504  0.0006  0.0825  1.5312
  719MOL0     C99138   8.635   0.387   7.491 -0.6474 -0.2275  0.1828
  719MOL0     C99139   9.027   0.643   7.391  1.1651  0.5963  0.0371
  719MOL0     C99140   8.986   0.756   7.452 -0.1158  0.2154  0.3793
  719MOL0     C99141   9.058   0.871   7.459 -0.3619 -0.8151 -0.5859
  719MOL0     C99142   9.174   0.884   7.382  0.1233  0.0253  0.2617
  719MOL0     O99143   9.249   0.995   7.375 -0.0719 -0.8595 -0.0061
  719MOL0     C99144   9.178   1.117   7.390 -0.1783  0.5334  0.1616
  719MOL0     C99145   9.248   1.217   7.311  0.6766  0.0620 -0.1287
  719MOL0     C99146   9.396   1.245   7.359  0.3062 -0.0358 -0.5483
  719MOL0     C99147   9.400   1.382   7.426  0.7265  1.3223  0.9788
  719MOL0     C99148   9.395   1.393   7.571 -0.1437  0.1028  0.4552
  719MOL0     C99149   9.409   1.401   7.694 -0.6172  0.3284 -1.3247
  719MOL0     C99150   9.224   0.762   7.334 -0.0644 -0.6892 -0.2014
  719MOL0     C99151   9.155   0.648   7.330 -0.2788 -0.2918  0.4695
  719MOL0     C99152   9.226   0.528   7.272 -0.0400 -0.6235  0.6029
  719MOL0     H99153   8.931   0.283   7.614 -1.8647  1.2978  4.4034
  719MOL0     H99154   8.779   0.068   7.642  2.1573  2.1083 -0.1897
  719MOL0     H99155   8.457   0.020   7.362 -1.2752  1.8515  0.4056
  719MOL0     H99156   8.377   0.085   7.493  1.6576  1.9893 -1.1295
  719MOL0     H99157   8.361  -0.125   7.619  2.2910 -2.8682  0.5608
  719MOL0     H99158   8.281  -0.156   7.460 -0.2841 -1.0625  1.6301
  719MOL0     H99159   8.538  -0.250   7.398  1.3011 -2.6973  1.2794
  719MOL0     H99160   8.559  -0.270   7.565  0.6818 -0.0703  0.1037
  719MOL0     H99161   8.469  -0.474   7.488  0.3416  0.3997  0.0706
  719MOL0     H99162   8.322  -0.397   7.551 -0.7800 -1.0699 -1.3275
  719MOL0     H99163   8.400  -0.351   7.267  0.8855  0.4681  0.8179
  719MOL0     H99164   8.233  -0.355   7.354  1.0838  1.7797  4.2021
  719MOL0     H99165   8.427  -0.593   7.294  1.7562  0.5839  2.2225
  719MOL0     H99166   8.281  -0.601   7.392  1.3567  1.6614  0.6885
  719MOL0     H99167   8.143  -0.519   7.190 -0.9684 -1.2567  0.6711
  719MOL0     H99168   8.201  -0.671   7.145 -2.6028 -0.0189  1.1590
  719MOL0     H99169   8.312  -0.412   7.070  0.3360  0.5990  0.7855
  719MOL0     H99170   8.410  -0.562   7.053 -1.5074 -1.1426  1.4398
  719MOL0     H99171   8.392  -0.626   6.794  0.6807  1.1194  3.1891
  719MOL0     H99172   8.151  -0.663   6.526  0.4062 -0.8650 -0.2951
  719MOL0     H99173   8.317  -0.644   6.558 -1.9643 -2.4855 -1.2532
  719MOL0     H99174   8.122  -0.428   6.467  0.2386  2.0082 -4.4044
  719MOL0     H99175   8.287  -0.385   6.497 -0.3306  1.6214 -0.1512
  719MOL0     H99176   8.361  -0.540   6.313 -0.4844 -0.7999  1.5018
  719MOL0     H99177   8.191  -0.596   6.296  0.8230 -0.0744  1.5403
  719MOL0     H99178   8.234  -0.449   6.105 -0.7755  0.8555  0.1098
  719MOL0     H99179   8.150  -0.357   6.231  1.7556  1.1975  1.8216
  719MOL0     H99180   8.411  -0.151   6.388 -0.9349  2.6103  3.3391
  719MOL0     H99181   8.403   0.036   6.509  0.8357 -0.3717 -1.9788
  719MOL0     H99182   8.254   0.127   6.506 -1.1269 -0.3028 -0.6374
  719MOL0     H99183   8.419   0.170   6.423  2.8325 -1.6341  3.4664
  719MOL0     H99184   8.175   0.491   6.256  2.5408 -0.9991 -1.3386
  719MOL0     H99185   8.127   0.728   6.153 -0.0175 -0.1850  0.9440
  719MOL0     H99186   7.922   0.837   6.154 -0.1631 -1.1833 -0.5036
  719MOL0     H99187   8.048   0.937   6.061  0.6678 -1.2373 -2.6838
  719MOL0     H99188   7.844   1.021   5.935 -2.0756 -2.8203 -0.8097
  719MOL0     H99189   7.747   0.950   6.066  0.2799 -0.8794  1.3058
  719MOL0     H99190   7.937   1.171   6.089 -0.1484 -0.3784 -1.8208
  719MOL0     H99191   7.938   1.061   6.227  0.1748 -0.5052 -0.8866
  719MOL0     H99192   7.675   1.197   6.145  0.5210  3.2137  1.3416
  719MOL0     H99193   7.783   1.256   6.265 -0.8463  1.8810 -1.0504
  719MOL0     H99194   7.692   0.967   6.278 -1.5716  0.2486 -0.2180
  719MOL0     H99195   7.787   1.054   6.408  0.9838  0.9794 -1.1363
  719MOL0     H99196   7.522   1.020   6.389  0.5041 -1.2494 -1.1184
  719MOL0     H99197   7.530   1.168   6.304  3.3547 -1.3004 -3.4212
  719MOL0     H99198   7.625   1.293   6.463  2.8705 -1.8164 -0.9658
  719MOL0     H99199   7.674   1.168   6.566  2.2358  0.9637 -1.5424
  719MOL0     H99200   7.404   1.140   6.625 -0.2979 -2.0385 -2.8121
  719MOL0     H99201   7.376   1.251   6.501 -1.1110 -1.1406  1.9295
  719MOL0     H99202   7.885   0.534   5.854  0.1965 -0.5035  0.1793
  719MOL0     H99203   7.987   0.333   5.908 -3.1915 -0.4080  2.1940
  719MOL0     H99204   8.130   0.040   6.031 -1.0321 -0.6000  1.6299
  719MOL0     H99205   8.199  -0.207   6.025  0.3171  1.4164 -0.8061
  719MOL0     H99206   8.464   0.283   7.460  0.8721  3.5441 -0.0381
  719MOL0     H99207   8.587   0.477   7.454 -1.4887 -0.4454  0.6891
  719MOL0     H99208   8.906   0.767   7.525 -0.6017  1.0327 -0.2586
  719MOL0     H99209   9.025   0.958   7.515 -2.4758  0.8286 -4.0121
  719MOL0     H99210   9.076   1.099   7.355  0.1151 -0.7231 -0.0960
  719MOL0     H99211   9.174   1.147   7.495  0.6106 -1.4330  0.8066
  719MOL0     H99212   9.174   1.297   7.299 -1.9587 -2.3987 -1.9006
  719MOL0     H99213   9.264   1.177   7.210  2.0939  0.5004 -0.0928
  719MOL0     H99214   9.431   1.165   7.425  0.1815  2.0313  2.2054
  719MOL0     H99215   9.460   1.246   7.270  1.4849 -0.3268  0.2634
  719MOL0     H99216   9.318   1.447   7.395 -1.1333 -0.2111  2.3890
  719MOL0     H99217   9.494   1.433   7.406  0.2648  2.2346  1.0987
  719MOL0     H99218   9.397   1.408   7.800  0.1132 -0.7493 -1.1665
  719MOL0     H99219   9.330   0.766   7.312 -0.0814 -0.7524 -0.2940
  719MOL0     H99220   9.185   0.511   7.172  1.6657  0.8150 -0.4137
  719MOL0     H99221   9.333   0.547   7.258  0.3134 -1.8112  1.5274
  719MOL0     H99222   9.213   0.439   7.333  0.5972 -0.5176  0.9035
  720MOL0     O99223   5.378   9.487   3.794  0.0057  0.5469  0.5077
  720MOL0     C99224   5.484   9.518   3.742  0.4762 -0.3810  0.1021
  720MOL0     O99225   5.607   9.468   3.775 -0.2130  0.3441  0.7713
  720MOL0     C99226   5.622   9.365   3.863 -0.2617  0.3219 -0.0401
  720MOL0     C99227   5.561   9.233   3.851 -0.3261  0.2545  0.2413
  720MOL0     C99228   5.574   9.140   3.954  0.4967  0.3379  0.2340
  720MOL0     C99229   5.655   9.158   4.056 -0.6153  0.0879 -0.1720
  720MOL0     O99230   5.693   9.056   4.142 -1.3537 -0.3337 -0.5506
  720MOL0     C99231   5.597   9.025   4.241  0.3193  0.0498 -0.0412
  720MOL0     C99232   5.661   8.934   4.348  0.6698  0.0404  0.2463
  720MOL0     C99233   5.546   8.873   4.433 -0.4771 -0.2261  0.3603
  720MOL0     C99234   5.605   8.798   4.549  0.5072  0.6780  0.0059
  720MOL0     C99235   5.486   8.728   4.618 -0.2378  0.0349 -0.0408
  720MOL0     C99236   5.546   8.640   4.735  0.7810  0.1690  0.1240
  720MOL0     C99237   5.441   8.539   4.788 -0.3407  0.2645  0.0537
  720MOL0     C99238   5.375   8.623   4.904  0.3946 -0.1621  0.2745
  720MOL0     N99239   5.281   8.549   4.978  0.3931  0.2931  0.4777
  720MOL0     C99240   5.145   8.550   4.955 -0.0579 -0.3250  0.3641
  720MOL0     C99241   5.097   8.444   5.016 -0.9748 -0.0702  0.7619
  720MOL0     C99242   4.955   8.390   5.013  0.6059 -0.1965  0.1626
  720MOL0     C99243   4.866   8.463   5.115  0.0692  0.0445 -0.0440
  720MOL0     C99244   4.722   8.424   5.125  0.8700  0.6226  1.3088
  720MOL0     C99245   4.643   8.521   5.223  0.6179 -0.0596 -0.4937
  720MOL0     O99246   4.507   8.465   5.239 -0.1121 -0.2809 -0.8403
  720MOL0     C99247   4.451   8.409   5.349 -0.1183  0.7909  0.6256
  720MOL0     C99248   4.519   8.362   5.466  1.1722  0.4250 -0.6609
  720MOL0     C99249   4.452   8.300   5.565 -0.4971 -0.4323 -1.0385
  720MOL0     C99250   4.536   8.275   5.689 -0.1459 -0.6039 -0.4253
  720MOL0     C99251   4.308   8.280   5.549  0.5126 -0.2766  0.4968
  720MOL0     C99252   4.236   8.187   5.630 -0.1846  0.2669 -0.5816
  720MOL0     O99253   4.102   8.192   5.629  0.0633  0.1668 -1.1779
  720MOL0     C99254   4.033   8.124   5.731  0.4918 -0.6497  0.1940
  720MOL0     C99255   3.919   8.044   5.701 -0.2154 -0.6057 -0.7859
  720MOL0     C99256   3.839   8.002   5.811  0.4630 -0.2430  0.1841
  720MOL0     C99257   3.876   8.022   5.948 -0.1774  0.8116 -0.8863
  720MOL0     O99258   3.799   7.978   6.057  0.3408  0.0533  0.3152
  720MOL0     C99259   3.803   7.834   6.068  0.5669 -0.3066  0.1870
  720MOL0     C99260   3.687   7.788   6.159 -0.9212 -0.5094 -0.7966
  720MOL0     C99261   3.576   7.728   6.072  0.5971  0.5038 -0.7409
  720MOL0     C99262   3.441   7.726   6.153 -0.9377  0.3977  0.6873
  720MOL0     C99263   3.331   7.667   6.060  0.7271 -0.6706 -0.1251
  720MOL0     C99264   3.192   7.673   6.134  0.5641  0.4020  0.9692
  720MOL0     C99265   3.080   7.634   6.038  0.0552  0.0658  1.0835
  720MOL0     C99266   3.038   7.736   5.938  0.0042  0.6642  0.2428
  720MOL0    Cl99267   2.989   7.897   6.006 -0.3632 -0.1332  0.2835
  720MOL0     C99268   3.992   8.096   5.969 -0.5857  0.2702  0.0287
  720MOL0     C99269   4.074   8.134   5.870  0.3655  0.4518  1.2316
  720MOL0     O99270   4.302   8.109   5.690 -0.2656 -0.0848  0.0984
  720MOL0     C99271   4.237   8.347   5.438 -1.0486  1.5432 -0.2866
  720MOL0     C99272   4.313   8.403   5.340  0.0251  0.5912 -0.0843
  720MOL0     N99273   5.203   8.397   5.092 -0.2554 -0.2691 -0.5021
  720MOL0     N99274   5.312   8.456   5.063  0.0747  0.1166 -0.3676
  720MOL0     C99275   5.717   9.288   4.072  0.0682  1.2248  1.2667
  720MOL0     C99276   5.702   9.383   3.971 -0.8972  0.7854 -0.2467
  720MOL0     C99277   5.473   9.639   3.657 -0.0666  0.7830 -0.0286
  720MOL0     C99278   5.395   9.752   3.691  0.0971 -0.0758 -0.6527
  720MOL0     C99279   5.377   9.860   3.602  0.4993  0.2502 -0.1302
  720MOL0     C99280   5.442   9.870   3.483  0.2613  0.1895  1.0165
  720MOL0     O99281   5.434   9.987   3.406 -0.1589 -0.3294  0.6879
  720MOL0     C99282   5.540  10.014   3.310  0.8630  0.3522  0.2507
  720MOL0     C99283   5.521  10.156   3.270  0.9971  0.0888 -0.0663
  720MOL0     C99284   5.558  10.258   3.372  0.3325 -1.0514 -0.1567
  720MOL0     C99285   5.453  10.374   3.361  0.5232 -0.3818 -0.0692
  720MOL0     C99286   5.499  10.490   3.435  0.2962  0.0163 -0.2039
  720MOL0     C99287   5.536  10.580   3.506  0.3486  0.4677 -0.1593
  720MOL0     C99288   5.516   9.756   3.442 -0.1763  0.3611 -0.9668
  720MOL0     C99289   5.529   9.644   3.523  0.2092  0.5118  0.5735
  720MOL0     C99290   5.599   9.525   3.473 -0.4717  0.2657  0.2982
  720MOL0     H99291   5.494   9.207   3.769  1.9720 -0.4624 -1.5015
  720MOL0     H99292   5.523   9.046   3.933  0.8076 -0.4631  2.7378
  720MOL0     H99293   5.515   8.966   4.197 -1.1539  2.8998 -1.3614
  720MOL0     H99294   5.558   9.119   4.278  0.2953  0.3989 -0.9168
  720MOL0     H99295   5.725   8.854   4.310  0.1622 -0.0476 -0.4495
  720MOL0     H99296   5.715   9.007   4.409 -0.7312  2.4746 -1.2499
  720MOL0     H99297   5.481   8.953   4.470  2.3441  3.5398 -2.1515
  720MOL0     H99298   5.503   8.802   4.361  1.7550 -1.9437  0.6246
  720MOL0     H99299   5.681   8.727   4.515  0.9455  1.4013 -0.5533
  720MOL0     H99300   5.654   8.855   4.629 -0.0123 -1.0839  1.6510
  720MOL0     H99301   5.442   8.659   4.546 -0.6429  1.1346 -0.8795
  720MOL0     H99302   5.412   8.798   4.658  0.1201 -0.9920  2.5909
  720MOL0     H99303   5.641   8.589   4.718  2.0290  0.2078  5.3521
  720MOL0     H99304   5.579   8.712   4.810  1.0843  2.7471 -2.3206
  720MOL0     H99305   5.490   8.458   4.842 -1.3220  0.6715  1.6257
  720MOL0     H99306   5.368   8.504   4.715  1.1884  0.2958 -1.5558
  720MOL0     H99307   5.455   8.661   4.969 -1.2305  0.2282  2.1048
  720MOL0     H99308   5.320   8.711   4.870  3.1517  2.2281  1.5118
  720MOL0     H99309   5.068   8.588   4.890  1.0341 -2.0060 -2.0576
  720MOL0     H99310   4.960   8.285   5.043  1.0249 -0.2865 -0.2062
  720MOL0     H99311   4.919   8.404   4.911  2.1852 -0.8889 -0.5338
  720MOL0     H99312   4.914   8.449   5.212 -1.0590 -1.9808  0.2803
  720MOL0     H99313   4.858   8.564   5.074 -3.5566 -1.1271 -2.7885
  720MOL0     H99314   4.673   8.417   5.028  0.4490 -0.5793  1.5898
  720MOL0     H99315   4.708   8.330   5.180 -2.5219  0.4559  0.4130
  720MOL0     H99316   4.691   8.526   5.321  0.3712  1.1238 -0.4191
  720MOL0     H99317   4.641   8.623   5.182  0.2512 -0.9245 -2.7763
  720MOL0     H99318   4.626   8.381   5.466  1.6440 -2.0016 -0.7857
  720MOL0     H99319   4.590   8.368   5.710  4.1468 -2.2955 -2.7341
  720MOL0     H99320   4.599   8.190   5.662 -1.3461 -1.4311 -0.6759
  720MOL0     H99321   4.473   8.246   5.773 -0.6934  0.1878 -0.5458
  720MOL0     H99322   3.885   8.025   5.599 -0.9561  0.7477 -0.8043
  720MOL0     H99323   3.754   7.936   5.796 -0.9456  1.7745 -1.4333
  720MOL0     H99324   3.793   7.779   5.974  0.9974  1.8615 -1.2121
  720MOL0     H99325   3.894   7.794   6.114  1.6618 -0.0123 -1.6246
  720MOL0     H99326   3.710   7.704   6.225  1.5080  0.0823 -0.8029
  720MOL0     H99327   3.652   7.876   6.215 -2.3845 -1.6149  0.1045
  720MOL0     H99328   3.599   7.625   6.045 -0.4150  1.1920 -4.8443
  720MOL0     H99329   3.558   7.783   5.979 -1.4548 -2.2356 -2.1198
  720MOL0     H99330   3.425   7.833   6.173  3.0828  1.2541  0.0648
  720MOL0     H99331   3.444   7.679   6.252 -1.5783 -1.3605 -0.0908
  720MOL0     H99332   3.330   7.720   5.965 -0.1288 -0.5021 -0.0355
  720MOL0     H99333   3.354   7.561   6.043 -2.6507 -1.3383 -1.3751
  720MOL0     H99334   3.179   7.776   6.171  2.9643  0.7514  1.0037
  720MOL0     H99335   3.204   7.606   6.220 -0.8517 -0.3568  0.5959
  720MOL0     H99336   3.001   7.612   6.111  0.6839 -3.2000  0.9243
  720MOL0     H99337   3.107   7.547   5.977  5.0540  3.6474 -2.6234
  720MOL0     H99338   2.958   7.689   5.879 -0.7679  2.2204 -0.0132
  720MOL0     H99339   3.119   7.765   5.870  1.7749  0.7656  2.2779
  720MOL0     H99340   4.022   8.132   6.067  3.0913 -1.0849 -0.4601
  720MOL0     H99341   4.162   8.193   5.892  0.5581  2.0484 -2.9679
  720MOL0     H99342   4.129   8.333   5.431 -1.1978  0.9297  2.2104
  720MOL0     H99343   4.253   8.445   5.260 -0.0427 -0.3367 -0.5291
  720MOL0     H99344   5.764   9.307   4.168 -1.2006  0.4727  2.0602
  720MOL0     H99345   5.744   9.483   3.981  0.4728  0.1115  1.3484
  720MOL0     H99346   5.359   9.743   3.793  1.5357 -2.6593 -0.2794
  720MOL0     H99347   5.325   9.945   3.644  0.1849 -0.4333  0.9200
  720MOL0     H99348   5.636   9.991   3.357  2.5827  1.5625 -2.4250
  720MOL0     H99349   5.532   9.961   3.215  2.5110  0.3886  0.0570
  720MOL0     H99350   5.417  10.175   3.245  0.2894 -1.8590  1.1470
  720MOL0     H99351   5.581  10.174   3.181  0.4815  0.8642 -0.2645
  720MOL0     H99352   5.563  10.220   3.475  0.7763 -1.8143 -0.4522
  720MOL0     H99353   5.658  10.291   3.343  0.7499 -1.5034  0.7174
  720MOL0     H99354   5.355  10.336   3.389  0.5438 -2.9999 -3.0611
  720MOL0     H99355   5.441  10.407   3.258  0.1919 -0.3500 -0.0221
  720MOL0     H99356   5.565  10.667   3.562 -1.6294  0.4513  0.9920
  720MOL0     H99357   5.570   9.768   3.349 -0.3390 -4.5238 -1.9532
  720MOL0     H99358   5.521   9.474   3.416  1.7754 -2.3017 -0.6850
  720MOL0     H99359   5.682   9.554   3.406  1.2288 -1.8884  1.3513
  720MOL0     H99360   5.644   9.460   3.548 -0.0721 -1.3463 -1.2553
  721MOL0     O99361   9.746   6.210   6.936 -0.1443  0.5560 -0.0118
  721MOL0     C99362   9.656   6.163   7.002  0.7949 -0.5562  0.2338
  721MOL0     O99363   9.601   6.044   6.970 -0.4153  0.4669  0.7902
  721MOL0     C99364   9.679   5.951   6.904 -0.6138 -0.0430 -1.7018
  721MOL0     C99365   9.767   5.882   6.988  1.4359  1.0390 -0.0659
  721MOL0     C99366   9.844   5.772   6.935 -0.4026 -0.3089 -0.6986
  721MOL0     C99367   9.837   5.737   6.803 -0.3684 -0.9288 -0.4727
  721MOL0     O99368   9.927   5.649   6.747  0.7454  1.1209 -0.1481
  721MOL0     C99369  10.041   5.710   6.684  0.0323 -1.0490  0.4128
  721MOL0     C99370  10.159   5.606   6.693 -0.4696  0.4430 -1.5120
  721MOL0     C99371  10.296   5.663   6.648 -0.3388  0.3987  0.4639
  721MOL0     C99372  10.375   5.550   6.586 -0.6120 -0.3348  0.5581
  721MOL0     C99373  10.482   5.491   6.683 -0.6297 -0.6242  0.3194
  721MOL0     C99374  10.544   5.374   6.602  0.1479  0.2340 -1.2419
  721MOL0     C99375  10.669   5.318   6.664  0.8910 -1.2217 -0.2098
  721MOL0     C99376  10.795   5.387   6.607  0.0487  0.1682  0.1316
  721MOL0     N99377  10.902   5.287   6.624  0.0629 -1.2497 -0.4518
  721MOL0     C99378  10.921   5.204   6.734  0.7583  0.0118 -0.7008
  721MOL0     C99379  11.039   5.141   6.713 -0.2789  0.1830  0.4447
  721MOL0     C99380  11.106   5.028   6.791  0.7212  0.4954  0.0777
  721MOL0     C99381  10.995   4.920   6.784  0.6578  0.7723  0.0906
  721MOL0     C99382  11.044   4.805   6.873 -0.1878  0.8183 -0.1353
  721MOL0     C99383  10.968   4.681   6.869 -0.8462  0.0982  0.4892
  721MOL0     O99384  11.006   4.607   6.742 -0.2805 -0.4437 -0.8969
  721MOL0     C99385  10.953   4.480   6.722  0.7517  0.9763 -0.9833
  721MOL0     C99386  10.888   4.411   6.821 -0.2472  0.4606 -0.2725
  721MOL0     C99387  10.837   4.282   6.806  0.0962  0.2565  0.4882
  721MOL0     C99388  10.784   4.214   6.924  0.1730  0.1103  0.2939
  721MOL0     C99389  10.832   4.233   6.676 -1.2798  0.1057 -0.5208
  721MOL0     C99390  10.764   4.109   6.637 -0.3604  0.2703  0.1721
  721MOL0     O99391  10.766   4.074   6.502  0.3749 -0.5212  0.3345
  721MOL0     C99392  10.696   3.965   6.451  0.1240  0.1515 -0.5798
  721MOL0     C99393  10.557   3.958   6.455 -0.2416 -0.1934  0.4414
  721MOL0     C99394  10.500   3.844   6.406  0.6826 -1.0643 -0.2318
  721MOL0     C99395  10.571   3.755   6.322  0.4431 -1.2762  0.0795
  721MOL0     O99396  10.501   3.656   6.254  0.4107  0.4113 -0.3014
  721MOL0     C99397  10.500   3.525   6.322  0.4419  0.2183  0.2534
  721MOL0     C99398  10.524   3.419   6.213  0.2999 -0.0093  0.2911
  721MOL0     C99399  10.667   3.423   6.145  0.1430 -0.2830  0.2965
  721MOL0     C99400  10.783   3.374   6.241 -0.7651 -0.3147 -0.2098
  721MOL0     C99401  10.910   3.335   6.179  0.6542  0.4365 -0.2809
  721MOL0     C99402  11.022   3.315   6.281  0.0070  0.6179 -0.5030
  721MOL0     C99403  11.162   3.306   6.220 -0.1551 -0.5853 -0.3258
  721MOL0     C99404  11.196   3.168   6.162  0.6620  0.4337  0.2535
  721MOL0    Cl99405  11.216   3.047   6.294  0.2571  0.3880  0.2410
  721MOL0     C99406  10.705   3.763   6.314  0.5873 -0.0504 -0.6551
  721MOL0     C99407  10.769   3.871   6.380  0.6125 -0.1568 -0.2536
  721MOL0     O99408  10.716   4.031   6.725 -0.3708 -0.0807 -0.7220
  721MOL0     C99409  10.902   4.297   6.571 -0.1435 -0.0693 -0.6248
  721MOL0     C99410  10.967   4.421   6.588  0.7865 -0.3544  0.7044
  721MOL0     N99411  11.096   5.211   6.603  0.4355  0.3720  0.6826
  721MOL0     N99412  11.011   5.290   6.554 -0.8398  0.4518 -0.2026
  721MOL0     C99413   9.749   5.814   6.723  0.4401  0.6345 -0.1866
  721MOL0     C99414   9.669   5.921   6.771 -0.1713 -0.1222  1.1593
  721MOL0     C99415   9.603   6.239   7.111  0.5919 -0.2669 -0.0499
  721MOL0     C99416   9.469   6.221   7.145 -1.3322 -0.1180  0.4528
  721MOL0     C99417   9.401   6.304   7.222 -0.3514  0.1659 -0.8310
  721MOL0     C99418   9.460   6.398   7.306 -0.3490 -0.5258 -0.8883
  721MOL0     O99419   9.392   6.465   7.404  0.4218  0.0271 -0.3987
  721MOL0     C99420   9.252   6.451   7.426  0.0222  0.0291  0.5648
  721MOL0     C99421   9.209   6.557   7.530  0.0719 -0.7726 -0.1328
  721MOL0     C99422   9.254   6.541   7.679 -0.5426 -0.4339  0.5016
  721MOL0     C99423   9.342   6.663   7.726  0.6367  0.5156 -0.8006
  721MOL0     C99424   9.252   6.775   7.734 -0.4523  0.7259  0.1509
  721MOL0     C99425   9.214   6.882   7.752  0.8094  0.4752 -0.3402
  721MOL0     C99426   9.598   6.413   7.282  0.5469  0.2666 -0.3898
  721MOL0     C99427   9.671   6.335   7.188  0.1199 -0.2260  0.3625
  721MOL0     C99428   9.825   6.375   7.180  0.6236 -0.2090 -0.2761
  721MOL0     H99429   9.765   5.892   7.096  0.0740 -1.8375  0.2764
  721MOL0     H99430   9.911   5.716   7.000  0.6096  1.3808 -0.2194
  721MOL0     H99431  10.067   5.792   6.752  1.0390 -3.3214  2.9682
  721MOL0     H99432  10.027   5.734   6.578  1.1878 -2.5583 -0.1222
  721MOL0     H99433  10.160   5.565   6.794 -1.1210 -3.5320 -2.9136
  721MOL0     H99434  10.128   5.528   6.623  0.8371 -2.1407  0.6075
  721MOL0     H99435  10.288   5.743   6.573 -0.0768  0.9344  0.9957
  721MOL0     H99436  10.352   5.720   6.722 -0.7762  0.6343  0.6164
  721MOL0     H99437  10.311   5.469   6.553 -1.5155  1.6815 -3.1383
  721MOL0     H99438  10.426   5.584   6.496  0.8784 -2.9233  0.3146
  721MOL0     H99439  10.444   5.470   6.784 -2.6575  4.3341  0.8454
  721MOL0     H99440  10.560   5.565   6.700 -2.0952  1.1070 -0.1274
  721MOL0     H99441  10.472   5.291   6.603  0.5099 -0.2138  2.7476
  721MOL0     H99442  10.561   5.404   6.498  0.4319 -0.9114 -1.5490
  721MOL0     H99443  10.667   5.220   6.615  2.4177 -2.1112  1.3902
  721MOL0     H99444  10.665   5.302   6.772 -1.2102  1.2345  0.1694
  721MOL0     H99445  10.803   5.422   6.503  0.4849 -1.6523 -0.4843
  721MOL0     H99446  10.810   5.479   6.664  0.0541 -1.0410  2.1660
  721MOL0     H99447  10.843   5.195   6.809 -2.8675 -2.0077 -4.3019
  721MOL0     H99448  11.132   5.051   6.895 -0.8919 -1.0376  0.8621
  721MOL0     H99449  11.187   4.991   6.727  0.1448 -3.4498  1.3713
  721MOL0     H99450  10.898   4.960   6.813 -0.5999 -0.8522 -1.6073
  721MOL0     H99451  10.973   4.870   6.690 -1.0273 -1.6836  1.6536
  721MOL0     H99452  11.143   4.777   6.837 -1.3434 -2.9722 -0.7941
  721MOL0     H99453  11.051   4.837   6.978 -0.2223  1.1820 -0.2417
  721MOL0     H99454  10.992   4.616   6.953 -1.0921  1.0591  1.3260
  721MOL0     H99455  10.860   4.694   6.858 -0.9052 -1.1210 -0.7295
  721MOL0     H99456  10.894   4.447   6.924 -1.4972 -0.9325  0.3232
  721MOL0     H99457  10.675   4.209   6.915  0.1756  0.2166  0.1971
  721MOL0     H99458  10.796   4.270   7.017  0.2366  0.0291  0.3349
  721MOL0     H99459  10.834   4.117   6.934  2.4585  0.3126 -5.2441
  721MOL0     H99460  10.490   4.023   6.511 -0.3791 -1.7534  2.1932
  721MOL0     H99461  10.398   3.841   6.441  1.2462  0.3175  1.6463
  721MOL0     H99462  10.579   3.510   6.396 -2.5848 -0.2602  3.6799
  721MOL0     H99463  10.403   3.508   6.369 -0.0329  2.0974  0.0339
  721MOL0     H99464  10.497   3.323   6.259  0.4623 -0.5815 -0.7810
  721MOL0     H99465  10.443   3.439   6.143  0.9631  1.0307 -0.2062
  721MOL0     H99466  10.685   3.518   6.092 -1.2910 -0.7045 -1.0182
  721MOL0     H99467  10.665   3.349   6.064 -0.0839 -0.9867  0.9395
  721MOL0     H99468  10.733   3.295   6.298 -2.7307 -0.2778 -1.7760
  721MOL0     H99469  10.810   3.459   6.305  2.9812 -0.4394 -1.4170
  721MOL0     H99470  10.894   3.254   6.107 -1.4441 -0.9000  1.5627
  721MOL0     H99471  10.940   3.424   6.123  2.3738 -0.5488 -1.0022
  721MOL0     H99472  10.986   3.232   6.343 -4.7465  2.9540  0.3664
  721MOL0     H99473  11.019   3.403   6.345 -0.8531 -0.8207  1.5547
  721MOL0     H99474  11.224   3.329   6.306  0.4145 -2.6780 -0.1274
  721MOL0     H99475  11.175   3.388   6.148  0.2258 -0.3229  0.0437
  721MOL0     H99476  11.293   3.176   6.111  1.2779  0.2730  1.3519
  721MOL0     H99477  11.119   3.134   6.093 -0.1374 -0.5724  1.6027
  721MOL0     H99478  10.753   3.695   6.244 -1.8429 -0.1131 -2.4261
  721MOL0     H99479  10.875   3.890   6.372  0.7513  1.3109  3.2081
  721MOL0     H99480  10.910   4.246   6.476 -0.6644 -1.6293  0.1431
  721MOL0     H99481  10.996   4.487   6.507 -0.7548  0.7481  1.0022
  721MOL0     H99482   9.747   5.789   6.618  0.2231  1.2753 -0.3399
  721MOL0     H99483   9.599   5.975   6.708  1.7020  0.6158 -0.4011
  721MOL0     H99484   9.413   6.141   7.098 -0.6088 -0.9590  0.9725
  721MOL0     H99485   9.295   6.280   7.218 -0.2374 -0.3114 -1.0735
  721MOL0     H99486   9.206   6.472   7.329  2.9394  2.2957 -0.4857
  721MOL0     H99487   9.223   6.349   7.454 -0.1122  0.1275  0.7802
  721MOL0     H99488   9.100   6.558   7.536  0.0112 -4.4528  2.5619
  721MOL0     H99489   9.241   6.647   7.476  0.7352 -1.3239 -0.6791
  721MOL0     H99490   9.172   6.516   7.746 -0.7526 -2.2320 -0.3667
  721MOL0     H99491   9.321   6.454   7.682 -0.2003 -0.4019 -2.5623
  721MOL0     H99492   9.433   6.686   7.671  0.7364  3.4772  0.3780
  721MOL0     H99493   9.389   6.640   7.822  4.1919  1.6036 -2.1146
  721MOL0     H99494   9.168   6.976   7.777  3.3562  2.1208 -1.3858
  721MOL0     H99495   9.663   6.483   7.333 -0.6561 -0.0821  1.7089
  721MOL0     H99496   9.882   6.301   7.122  3.3173  1.1992  0.4247
  721MOL0     H99497   9.851   6.470   7.133 -0.0994 -0.7993 -1.9659
  721MOL0     H99498   9.880   6.363   7.274  0.9614  1.0065 -0.3083
  722MOL0     O99499   2.883   8.442   0.173 -0.8879  0.6820 -0.7004
  722MOL0     C99500   2.763   8.436   0.183 -0.2505 -0.0761 -0.7745
  722MOL0     O99501   2.683   8.539   0.174 -0.3274  0.6365 -0.3867
  722MOL0     C99502   2.730   8.646   0.096 -0.0018  0.0213 -1.6287
  722MOL0     C99503   2.690   8.778   0.117 -0.4931  0.3817 -0.8258
  722MOL0     C99504   2.743   8.879   0.035 -0.4792 -0.4869  0.1699
  722MOL0     C99505   2.819   8.856  -0.085  1.3019 -0.0797 -0.6102
  722MOL0     O99506   2.858   8.952  -0.168 -0.6500  0.2119 -0.1699
  722MOL0     C99507   2.914   9.078  -0.119 -0.2006 -0.2808 -0.9558
  722MOL0     C99508   3.013   9.156  -0.205 -0.4712  0.2251 -1.1634
  722MOL0     C99509   3.139   9.077  -0.253 -0.5433  0.3979  0.0032
  722MOL0     C99510   3.245   9.171  -0.335  0.1172  0.0974 -0.0177
  722MOL0     C99511   3.379   9.100  -0.380 -0.0165 -0.2413  0.3949
  722MOL0     C99512   3.366   9.013  -0.502 -0.5448 -0.1774  0.6459
  722MOL0     C99513   3.491   8.944  -0.539 -0.6356  1.2541  0.5053
  722MOL0     C99514   3.508   8.803  -0.470 -1.9075  0.1434  0.7644
  722MOL0     N99515   3.653   8.767  -0.471 -0.7121 -0.7223  0.6036
  722MOL0     C99516   3.757   8.823  -0.391 -1.1812 -0.7989 -0.8574
  722MOL0     C99517   3.864   8.765  -0.440  0.2028 -0.2800  0.0049
  722MOL0     C99518   4.003   8.808  -0.422 -1.0440  1.2814 -0.7114
  722MOL0     C99519   4.071   8.717  -0.323 -0.0334 -0.7935 -0.1342
  722MOL0     C99520   4.213   8.783  -0.282  0.1672 -0.5291 -0.1341
  722MOL0     C99521   4.293   8.703  -0.176 -0.3180 -0.6728  0.8723
  722MOL0     O99522   4.325   8.567  -0.223 -0.7775  0.0021 -0.7550
  722MOL0     C99523   4.433   8.516  -0.147 -0.8491  0.4440  1.1653
  722MOL0     C99524   4.409   8.405  -0.070 -0.1883 -1.1156 -0.0165
  722MOL0     C99525   4.501   8.347   0.014  0.7213 -0.0776 -0.4316
  722MOL0     C99526   4.462   8.247   0.121 -0.2097 -0.0804  0.5579
  722MOL0     C99527   4.633   8.401   0.008 -0.4120 -0.0767  0.0506
  722MOL0     C99528   4.743   8.340   0.089  0.1954 -0.1447 -0.4699
  722MOL0     O99529   4.726   8.313   0.221 -0.0803 -0.7270  0.1018
  722MOL0     C99530   4.833   8.253   0.291 -0.4951  0.1340 -0.4011
  722MOL0     C99531   4.791   8.160   0.388  0.7338  0.1875 -0.9395
  722MOL0     C99532   4.893   8.077   0.454  1.0300  0.8919 -0.2119
  722MOL0     C99533   5.029   8.087   0.430  1.0838  0.1578  0.5931
  722MOL0     O99534   5.104   7.992   0.487  0.0101 -0.0083 -0.5524
  722MOL0     C99535   5.244   7.996   0.462  0.1416 -0.0235  0.0572
  722MOL0     C99536   5.306   8.084   0.570 -0.0270  0.3911 -0.3915
  722MOL0     C99537   5.300   8.022   0.704  0.3864 -0.1862  0.2304
  722MOL0     C99538   5.371   8.116   0.817  0.5146 -0.3209 -0.8187
  722MOL0     C99539   5.407   8.044   0.951 -0.4845 -0.1069  0.5294
  722MOL0     C99540   5.458   8.145   1.049 -0.3493  0.3303  0.0702
  722MOL0     C99541   5.509   8.078   1.173  0.4555 -0.0188  0.4642
  722MOL0     C99542   5.549   8.181   1.275  0.3393  0.0028  0.3488
  722MOL0    Cl99543   5.664   8.304   1.208 -0.0091 -0.4144  0.3935
  722MOL0     C99544   5.066   8.190   0.355 -0.4279 -0.0374  0.4152
  722MOL0     C99545   4.976   8.265   0.283  1.5909 -0.4208 -0.2906
  722MOL0     O99546   4.848   8.329   0.036  0.5256 -0.6451 -0.1129
  722MOL0     C99547   4.657   8.520  -0.071 -0.2234 -0.3727  0.4658
  722MOL0     C99548   4.561   8.569  -0.155  0.0812 -0.7096 -0.0893
  722MOL0     N99549   3.837   8.681  -0.535 -0.3547 -0.1516  1.3408
  722MOL0     N99550   3.706   8.674  -0.552 -0.4246 -0.8265  0.5524
  722MOL0     C99551   2.857   8.728  -0.104 -0.7971  0.0275  0.9693
  722MOL0     C99552   2.818   8.627  -0.017 -0.7730 -0.3477  0.3415
  722MOL0     C99553   2.703   8.299   0.196  0.5979 -0.7119  0.8548
  722MOL0     C99554   2.780   8.197   0.247  0.7136 -0.1966  0.1507
  722MOL0     C99555   2.724   8.071   0.255  0.8245  1.1003  0.1142
  722MOL0     C99556   2.593   8.041   0.226 -0.6427 -0.4991  0.1925
  722MOL0     O99557   2.558   7.908   0.246 -0.9941  0.1471 -0.1699
  722MOL0     C99558   2.420   7.875   0.234  0.1213 -0.3005 -0.2239
  722MOL0     C99559   2.425   7.735   0.298  0.9732 -0.1821 -0.1987
  722MOL0     C99560   2.283   7.674   0.311  0.0382 -0.1051  0.5207
  722MOL0     C99561   2.275   7.539   0.377  0.3087 -0.4156 -0.2796
  722MOL0     C99562   2.252   7.551   0.521 -0.1692  0.2339  0.2628
  722MOL0     C99563   2.241   7.560   0.639  0.2307 -0.6433 -0.1123
  722MOL0     C99564   2.510   8.148   0.168  0.6986  0.1898  0.5663
  722MOL0     C99565   2.570   8.275   0.147  0.5280 -0.1825 -0.6725
  722MOL0     C99566   2.519   8.354   0.037  0.5326  0.5732  0.4286
  722MOL0     H99567   2.622   8.809   0.196 -0.2807  0.2215 -0.5785
  722MOL0     H99568   2.722   8.979   0.072  1.2465 -0.2789  0.6461
  722MOL0     H99569   2.952   9.067  -0.017  1.3880 -0.3568 -1.5293
  722MOL0     H99570   2.823   9.136  -0.102  0.4440  0.1986  1.1163
  722MOL0     H99571   2.950   9.190  -0.288  0.1739  0.3078 -1.6188
  722MOL0     H99572   3.053   9.245  -0.155  1.2836 -1.8745  1.4425
  722MOL0     H99573   3.183   9.043  -0.159 -1.7162  2.0603  1.2218
  722MOL0     H99574   3.109   8.991  -0.313  0.8396 -1.6713  2.0811
  722MOL0     H99575   3.189   9.203  -0.424  1.9105  0.4178 -1.0763
  722MOL0     H99576   3.264   9.262  -0.276 -1.6092 -0.5406  1.6173
  722MOL0     H99577   3.429   9.035  -0.308 -1.0018 -2.1733 -0.5577
  722MOL0     H99578   3.445   9.178  -0.417 -0.4327 -1.1253 -2.4882
  722MOL0     H99579   3.277   8.951  -0.493  0.9157 -2.2778  1.2309
  722MOL0     H99580   3.345   9.066  -0.595 -0.8695  0.4324  1.0593
  722MOL0     H99581   3.584   9.000  -0.525 -0.0357  0.5165 -0.3793
  722MOL0     H99582   3.492   8.915  -0.645 -2.9393  0.0791  0.7419
  722MOL0     H99583   3.475   8.799  -0.366  1.0718  0.0697  1.8084
  722MOL0     H99584   3.448   8.724  -0.514 -0.4645 -1.9452  2.3522
  722MOL0     H99585   3.765   8.908  -0.324  2.6819 -1.8405  0.2701
  722MOL0     H99586   4.008   8.915  -0.396 -1.3681  0.4084  3.8128
  722MOL0     H99587   4.053   8.802  -0.519  2.6775  1.7305  0.9727
  722MOL0     H99588   4.006   8.702  -0.236 -1.2196  2.8518 -0.1912
  722MOL0     H99589   4.089   8.623  -0.375 -2.2300 -2.6748  2.2404
  722MOL0     H99590   4.287   8.766  -0.361  0.6610 -1.7894  0.5725
  722MOL0     H99591   4.206   8.888  -0.252 -0.7820 -0.6728  0.2089
  722MOL0     H99592   4.383   8.757  -0.145  0.0887 -0.3345 -0.7837
  722MOL0     H99593   4.235   8.675  -0.088 -0.8142 -1.0559  0.4287
  722MOL0     H99594   4.310   8.360  -0.064 -0.7282  0.0836  0.4790
  722MOL0     H99595   4.515   8.154   0.096  4.4260  2.8685 -1.9979
  722MOL0     H99596   4.355   8.231   0.140  0.0272  0.8432  3.0336
  722MOL0     H99597   4.507   8.277   0.216  1.4248 -1.1843  0.1650
  722MOL0     H99598   4.684   8.153   0.401  0.8337  1.0564  0.5861
  722MOL0     H99599   4.855   7.988   0.503 -1.7135 -0.6865 -4.6078
  722MOL0     H99600   5.274   7.891   0.475 -1.9950 -0.4255  2.9178
  722MOL0     H99601   5.267   8.024   0.359 -1.3073 -2.4061 -1.0203
  722MOL0     H99602   5.412   8.096   0.550 -0.0455  1.9303  0.3008
  722MOL0     H99603   5.262   8.184   0.575  1.1667  1.0085 -1.7854
  722MOL0     H99604   5.349   7.924   0.704 -0.9448 -0.8668  0.6791
  722MOL0     H99605   5.194   8.000   0.718  0.1293  1.7888  1.7973
  722MOL0     H99606   5.301   8.199   0.832 -0.8205 -1.6347  0.7008
  722MOL0     H99607   5.457   8.152   0.761  0.2870 -1.3785 -1.9049
  722MOL0     H99608   5.318   7.986   0.976 -0.9476 -0.6761 -2.0930
  722MOL0     H99609   5.486   7.970   0.943 -0.6415 -0.2471  0.2633
  722MOL0     H99610   5.385   8.221   1.079  0.3682 -0.1428  3.4684
  722MOL0     H99611   5.538   8.197   0.997 -0.7936 -0.3891 -1.3946
  722MOL0     H99612   5.604   8.035   1.138  0.3062 -0.9607  1.1894
  722MOL0     H99613   5.439   8.011   1.222 -1.2020  1.0575 -0.3353
  722MOL0     H99614   5.592   8.119   1.354  0.1656 -0.2949  0.2141
  722MOL0     H99615   5.464   8.234   1.319 -0.1127  0.4323 -0.9949
  722MOL0     H99616   5.171   8.213   0.338  0.6373 -3.5549  1.3775
  722MOL0     H99617   5.033   8.333   0.222 -0.7140  2.3556  0.4426
  722MOL0     H99618   4.756   8.564  -0.069 -1.5422  3.0484 -0.9560
  722MOL0     H99619   4.584   8.653  -0.220  3.5783  0.1195  1.9722
  722MOL0     H99620   2.916   8.691  -0.187 -3.1580 -0.3929 -0.6421
  722MOL0     H99621   2.861   8.534  -0.050 -0.8509 -0.3098  0.1312
  722MOL0     H99622   2.877   8.202   0.294 -1.0994  2.4249  4.1647
  722MOL0     H99623   2.771   7.978   0.285 -3.5624 -3.0122 -3.9671
  722MOL0     H99624   2.373   7.939   0.309  1.8195  0.9813 -0.1974
  722MOL0     H99625   2.382   7.899   0.134  2.8255 -1.2987 -1.6213
  722MOL0     H99626   2.466   7.753   0.398  2.2164 -4.4136  0.2442
  722MOL0     H99627   2.495   7.663   0.254  0.9645 -0.3030 -0.0177
  722MOL0     H99628   2.227   7.754   0.360  2.5011  3.2339 -1.6323
  722MOL0     H99629   2.241   7.663   0.210 -0.1182  0.5447  0.5067
  722MOL0     H99630   2.356   7.468   0.356  0.8711 -0.2320  1.1771
  722MOL0     H99631   2.185   7.486   0.343 -0.7481  1.5605 -0.7173
  722MOL0     H99632   2.228   7.560   0.745 -1.9129  0.8610 -0.2958
  722MOL0     H99633   2.404   8.126   0.159  0.9142 -0.2240 -1.6094
  722MOL0     H99634   2.427   8.308   0.000  0.7227 -0.1211  0.7911
  722MOL0     H99635   2.505   8.455   0.077 -0.2177 -0.1341  2.0708
  722MOL0     H99636   2.586   8.366  -0.049 -2.4867  2.5313 -1.8442
  723MOL0     O99637  10.338   4.646   7.058 -0.1721  0.6045  0.1797
  723MOL0     C99638  10.412   4.550   7.046  0.5083  0.9008 -0.3806
  723MOL0     O99639  10.547   4.553   7.024  0.8823  0.7273  0.2285
  723MOL0     C99640  10.611   4.674   7.027 -0.9443  1.1418 -0.1409
  723MOL0     C99641  10.599   4.758   6.919  0.6212 -0.1092 -1.1058
  723MOL0     C99642  10.631   4.893   6.938  0.1181  1.0595  0.9450
  723MOL0     C99643  10.694   4.945   7.047  0.8373 -0.4516 -0.5280
  723MOL0     O99644  10.715   5.085   7.052  0.0601  0.3222  0.7325
  723MOL0     C99645  10.597   5.169   7.058  0.5344 -0.5020  0.1166
  723MOL0     C99646  10.557   5.237   7.194 -0.3259 -0.4981 -0.2492
  723MOL0     C99647  10.519   5.138   7.312  0.5057  0.3172  0.0164
  723MOL0     C99648  10.478   5.212   7.437 -1.3557  0.5311  0.2377
  723MOL0     C99649  10.432   5.128   7.550 -0.0481  0.1637  0.3428
  723MOL0     C99650  10.377   5.199   7.673 -0.5245 -0.2197 -0.9973
  723MOL0     C99651  10.344   5.107   7.794 -0.3122 -0.3064  0.4516
  723MOL0     C99652  10.456   5.014   7.834  0.1961 -0.2178 -0.6813
  723MOL0     N99653  10.417   4.945   7.960  0.4181  0.3054  0.3373
  723MOL0     C99654  10.287   4.900   7.992 -0.0025 -0.0091  0.3431
  723MOL0     C99655  10.300   4.851   8.110  0.8031  0.6877  0.3346
  723MOL0     C99656  10.181   4.796   8.176  0.4457  0.2624 -0.3014
  723MOL0     C99657  10.204   4.671   8.257  1.3934 -0.2129 -0.0399
  723MOL0     C99658  10.251   4.534   8.188  0.6254 -0.0858 -0.0995
  723MOL0     C99659  10.213   4.410   8.288 -0.0522 -0.5745 -0.2742
  723MOL0     O99660  10.312   4.301   8.308  0.9260  0.3132 -0.6061
  723MOL0     C99661  10.293   4.190   8.224 -1.5487 -0.3965  0.3789
  723MOL0     C99662  10.323   4.068   8.282 -0.2277 -0.6885  0.4854
  723MOL0     C99663  10.319   3.945   8.212 -0.4867  0.1320 -0.0740
  723MOL0     C99664  10.385   3.832   8.282 -0.6457  0.0126 -1.0107
  723MOL0     C99665  10.303   3.946   8.065 -0.3661 -0.1558 -0.0505
  723MOL0     C99666  10.320   3.845   7.962  0.7005  0.2951 -0.4537
  723MOL0     O99667  10.356   3.875   7.838 -0.2341 -0.9648 -0.2180
  723MOL0     C99668  10.420   3.781   7.759  0.7877  0.1997 -0.4187
  723MOL0     C99669  10.374   3.759   7.621  0.3618  0.7948 -0.1295
  723MOL0     C99670  10.442   3.673   7.534 -0.3383  0.2746  0.8570
  723MOL0     C99671  10.566   3.609   7.580  0.4763 -0.5897 -1.6834
  723MOL0     O99672  10.618   3.527   7.479 -0.3533  0.0657  0.0209
  723MOL0     C99673  10.735   3.448   7.506 -0.6400  0.1320 -0.5411
  723MOL0     C99674  10.778   3.348   7.389  0.3387 -0.5076 -0.3350
  723MOL0     C99675  10.773   3.391   7.250  0.9754  0.5189 -0.3081
  723MOL0     C99676  10.642   3.375   7.183 -0.0814  0.1492 -0.3882
  723MOL0     C99677  10.646   3.366   7.025 -0.1086  0.3570 -0.1278
  723MOL0     C99678  10.523   3.308   6.956  0.2988 -0.0014  0.7669
  723MOL0     C99679  10.561   3.299   6.802  0.6843 -0.2033 -0.1081
  723MOL0     C99680  10.441   3.251   6.712 -0.3886  0.5386  0.6244
  723MOL0    Cl99681  10.453   3.236   6.533 -0.3254 -0.2632 -0.1344
  723MOL0     C99682  10.605   3.636   7.710  0.5294 -0.1114  0.6584
  723MOL0     C99683  10.540   3.723   7.796  0.0952 -0.1130  0.3411
  723MOL0     O99684  10.304   3.732   8.009  0.4021  0.1211 -0.4244
  723MOL0     C99685  10.272   4.075   8.008  0.4363  0.4527  0.3451
  723MOL0     C99686  10.253   4.193   8.089  0.6709 -0.3890  1.0178
  723MOL0     N99687  10.430   4.857   8.155  0.6556 -0.4418  0.2530
  723MOL0     N99688  10.498   4.908   8.053 -0.4499  0.1413 -0.0394
  723MOL0     C99689  10.707   4.854   7.154  0.1145  0.0676  0.2273
  723MOL0     C99690  10.665   4.722   7.144 -0.2031 -1.1132 -0.8073
  723MOL0     C99691  10.358   4.416   7.067  0.8991  0.1881  0.6440
  723MOL0     C99692  10.440   4.320   7.119 -0.2460 -0.0275 -0.0364
  723MOL0     C99693  10.397   4.193   7.156  0.0845 -0.5726 -0.5969
  723MOL0     C99694  10.272   4.151   7.129 -0.0698 -0.8213 -0.4873
  723MOL0     O99695  10.244   4.025   7.162  0.8262  0.9607  0.1624
  723MOL0     C99696  10.146   3.932   7.090 -0.1502  0.5550  0.9714
  723MOL0     C99697  10.175   3.790   7.141 -0.3107 -0.2927  0.7751
  723MOL0     C99698  10.155   3.786   7.292 -1.0631 -0.3559 -0.4417
  723MOL0     C99699  10.119   3.646   7.331  0.3072 -0.4611 -0.4213
  723MOL0     C99700  10.080   3.657   7.476  0.0460 -0.9963 -0.6169
  723MOL0     C99701  10.066   3.645   7.600  0.2277 -0.4230  0.4500
  723MOL0     C99702  10.181   4.238   7.069 -0.9407 -0.0688  0.1128
  723MOL0     C99703  10.224   4.374   7.039 -0.3490  0.3792 -0.0258
  723MOL0     C99704  10.136   4.465   6.961  0.1996  0.2318 -0.0506
  723MOL0     H99705  10.558   4.726   6.824 -3.5874 -3.6594  1.5090
  723MOL0     H99706  10.615   4.958   6.853  1.0428 -2.0114 -1.7926
  723MOL0     H99707  10.511   5.111   7.025  1.0812 -2.7732  2.3606
  723MOL0     H99708  10.605   5.248   6.983  1.1794 -1.7587 -1.1766
  723MOL0     H99709  10.640   5.302   7.222 -0.4118  0.3263 -1.8060
  723MOL0     H99710  10.466   5.294   7.175 -1.6661 -2.1801  0.8067
  723MOL0     H99711  10.433   5.076   7.283 -1.9800  2.6065  2.0490
  723MOL0     H99712  10.601   5.067   7.328  1.5326  0.9978 -1.8877
  723MOL0     H99713  10.536   5.299   7.468 -1.7654  0.3529  1.5409
  723MOL0     H99714  10.382   5.257   7.409 -0.3717  2.6753  0.0573
  723MOL0     H99715  10.516   5.064   7.578  0.0369  0.8433  1.7517
  723MOL0     H99716  10.372   5.055   7.496  0.4119  0.1890 -0.2207
  723MOL0     H99717  10.449   5.277   7.698  0.5801 -0.6367 -2.7194
  723MOL0     H99718  10.285   5.251   7.644 -2.3294 -1.0944  2.5561
  723MOL0     H99719  10.250   5.053   7.782  1.2713 -3.5949  1.4111
  723MOL0     H99720  10.316   5.172   7.877  2.3899  1.5467  0.0441
  723MOL0     H99721  10.487   4.949   7.752  3.1521  0.0514  0.1070
  723MOL0     H99722  10.545   5.068   7.867  0.7546 -1.0374 -0.8387
  723MOL0     H99723  10.194   4.913   7.937 -0.6321 -0.5755  1.2517
  723MOL0     H99724  10.100   4.775   8.106  2.1324 -1.7645 -1.7507
  723MOL0     H99725  10.136   4.878   8.234  2.7446  3.4816 -2.6697
  723MOL0     H99726  10.279   4.693   8.333 -0.8032 -0.2976  2.3054
  723MOL0     H99727  10.104   4.657   8.299  2.8569  1.0571  4.3883
  723MOL0     H99728  10.206   4.526   8.089 -1.7946 -0.6150  0.9690
  723MOL0     H99729  10.358   4.555   8.182  0.4056  0.6825 -2.1634
  723MOL0     H99730  10.198   4.454   8.386  1.3964 -1.2884  0.3021
  723MOL0     H99731  10.116   4.370   8.257 -0.5722 -1.2220  2.0080
  723MOL0     H99732  10.344   4.066   8.389 -2.0225 -0.6180  0.8701
  723MOL0     H99733  10.310   3.753   8.271 -2.3015  1.5514 -1.1858
  723MOL0     H99734  10.396   3.844   8.391  0.2876 -3.2707 -0.6305
  723MOL0     H99735  10.480   3.813   8.232  0.4499 -1.7265  1.4842
  723MOL0     H99736  10.285   3.801   7.576  1.0919 -2.1513 -5.0544
  723MOL0     H99737  10.401   3.658   7.434  2.1988  1.2703 -0.4525
  723MOL0     H99738  10.819   3.516   7.525 -1.0331  0.0003  2.0372
  723MOL0     H99739  10.725   3.382   7.592 -1.7016  1.1602  0.1536
  723MOL0     H99740  10.882   3.315   7.403  0.0360 -1.0510  0.7534
  723MOL0     H99741  10.713   3.260   7.396 -0.8669  0.0721 -3.0275
  723MOL0     H99742  10.844   3.329   7.196 -2.7711 -2.0632 -2.7498
  723MOL0     H99743  10.797   3.498   7.243  0.2420  0.8577  1.6333
  723MOL0     H99744  10.565   3.436   7.230  1.3895  1.6298  0.2051
  723MOL0     H99745  10.615   3.273   7.212 -0.1504  0.3100  0.1244
  723MOL0     H99746  10.674   3.465   6.989  1.7217  1.2691  3.2857
  723MOL0     H99747  10.728   3.298   7.002 -3.6115 -4.1502 -0.7154
  723MOL0     H99748  10.448   3.386   6.974  0.1576  0.0520 -0.0206
  723MOL0     H99749  10.480   3.212   6.986  0.1597  0.5979  2.6106
  723MOL0     H99750  10.657   3.248   6.786  1.3002 -0.4125  3.5240
  723MOL0     H99751  10.581   3.404   6.780 -1.8559  1.1080  3.0681
  723MOL0     H99752  10.353   3.310   6.735 -1.6747 -0.1084 -2.2409
  723MOL0     H99753  10.415   3.150   6.745 -1.7239  0.5926 -0.1829
  723MOL0     H99754  10.703   3.598   7.735  1.3652  0.0749 -2.0041
  723MOL0     H99755  10.593   3.750   7.886  0.6225  1.8016 -0.4930
  723MOL0     H99756  10.275   4.089   7.901 -1.7394 -2.6460 -0.2529
  723MOL0     H99757  10.243   4.291   8.045  1.9084 -0.2911  0.9300
  723MOL0     H99758  10.745   4.892   7.248 -2.7411 -0.5446  1.7228
  723MOL0     H99759  10.694   4.659   7.227 -0.7345  1.7945  1.7945
  723MOL0     H99760  10.546   4.344   7.132 -0.8459  1.8268  2.0597
  723MOL0     H99761  10.459   4.121   7.209 -1.3791 -2.5286 -1.4302
  723MOL0     H99762  10.042   3.958   7.110 -0.7068 -1.5890  1.0891
  723MOL0     H99763  10.151   3.933   6.980  0.1333 -2.3962  0.8730
  723MOL0     H99764  10.280   3.763   7.122 -0.3251  0.0401  0.2027
  723MOL0     H99765  10.101   3.722   7.099 -0.0617 -0.9814  1.4244
  723MOL0     H99766  10.243   3.828   7.343  0.6460 -2.1225 -1.7644
  723MOL0     H99767  10.063   3.838   7.321 -0.3389 -0.2387  1.9159
  723MOL0     H99768  10.200   3.577   7.309  2.2915  1.5144  0.2407
  723MOL0     H99769  10.025   3.625   7.279  0.0010  1.9808 -0.9949
  723MOL0     H99770  10.047   3.643   7.705  0.7663  2.9741  0.6997
  723MOL0     H99771  10.080   4.207   7.047 -0.1174 -2.3060 -0.7630
  723MOL0     H99772  10.195   4.500   6.876 -0.1839  0.0899 -0.3774
  723MOL0     H99773  10.058   4.409   6.910 -0.5161  0.7680  0.4446
  723MOL0     H99774  10.102   4.551   7.019 -1.6598  0.1262 -0.9379
  724MOL0     O99775  10.277   9.530   1.723 -0.4594 -0.6621  0.1142
  724MOL0     C99776  10.241   9.460   1.635  0.8952  0.3847  0.6733
  724MOL0     O99777  10.107   9.420   1.626 -0.5378 -0.0808 -0.0723
  724MOL0     C99778  10.018   9.452   1.731  0.2061  1.5113 -0.0108
  724MOL0     C99779  10.044   9.433   1.870 -0.4174 -0.0096  0.3457
  724MOL0     C99780   9.941   9.436   1.965 -0.0801 -0.9380  0.4522
  724MOL0     C99781   9.813   9.469   1.919  0.1898  0.8356 -0.9145
  724MOL0     O99782   9.714   9.481   2.011 -0.8070 -0.0763  0.7839
  724MOL0     C99783   9.617   9.580   2.004 -0.9065 -0.2625  0.4073
  724MOL0     C99784   9.686   9.720   2.042  0.3473 -0.0278  0.4552
  724MOL0     C99785   9.732   9.726   2.186 -0.1694 -0.0536  0.8216
  724MOL0     C99786   9.674   9.845   2.259 -0.0471  0.6192 -0.2299
  724MOL0     C99787   9.708   9.850   2.409  0.8554 -0.3877  0.3568
  724MOL0     C99788   9.638   9.745   2.506 -0.2045  0.4499 -0.2443
  724MOL0     C99789   9.707   9.729   2.639 -0.5496 -0.1195 -0.7665
  724MOL0     C99790   9.605   9.697   2.753  0.6860 -0.1634  0.2166
  724MOL0     N99791   9.524   9.569   2.730  0.8380  0.7217  0.6199
  724MOL0     C99792   9.558   9.453   2.670 -0.6016 -0.1357 -1.4224
  724MOL0     C99793   9.456   9.373   2.690  0.2750 -0.2872  1.1297
  724MOL0     C99794   9.425   9.239   2.642 -0.2925  0.2307 -0.0337
  724MOL0     C99795   9.522   9.134   2.689  0.2226 -0.5327 -0.2413
  724MOL0     C99796   9.487   8.997   2.641 -0.3369  0.3710 -0.2434
  724MOL0     C99797   9.577   8.892   2.703 -0.3959  0.0636  0.8643
  724MOL0     O99798   9.532   8.767   2.643  0.6591  0.3896 -0.4699
  724MOL0     C99799   9.613   8.718   2.545  0.2536  0.4165 -0.3673
  724MOL0     C99800   9.636   8.586   2.543 -0.3913 -0.5644 -0.2725
  724MOL0     C99801   9.704   8.518   2.440  0.4162  0.1987  0.6862
  724MOL0     C99802   9.692   8.369   2.440 -0.3786 -0.7569 -0.3910
  724MOL0     C99803   9.735   8.592   2.315  0.0133 -0.6451 -0.8039
  724MOL0     C99804   9.808   8.541   2.195  0.4114  0.1410  0.0443
  724MOL0     O99805   9.837   8.632   2.103  0.1668 -0.7404 -0.1077
  724MOL0     C99806   9.900   8.602   1.997 -0.4536  0.0658 -0.1795
  724MOL0     C99807  10.038   8.609   1.995 -0.3157 -1.2771 -0.0298
  724MOL0     C99808  10.105   8.562   1.884 -0.6802  0.0683  0.0392
  724MOL0     C99809  10.037   8.521   1.761  0.8899  0.7182 -0.6951
  724MOL0     O99810  10.095   8.470   1.647 -0.0077  0.1054  0.2639
  724MOL0     C99811  10.237   8.476   1.625 -0.8323  0.1438 -0.1485
  724MOL0     C99812  10.283   8.470   1.480 -0.9144 -0.3364 -0.1481
  724MOL0     C99813  10.372   8.342   1.451  0.4829 -0.3519  0.1777
  724MOL0     C99814  10.418   8.336   1.303  1.1262 -1.2222  0.4453
  724MOL0     C99815  10.504   8.216   1.269 -0.1882  0.5219  0.0441
  724MOL0     C99816  10.520   8.200   1.112  0.7254  0.4176 -0.2410
  724MOL0     C99817  10.583   8.071   1.081 -0.4281  0.0119 -0.4913
  724MOL0     C99818  10.733   8.088   1.052 -0.0712  0.3953 -0.6780
  724MOL0    Cl99819  10.812   7.928   1.047 -0.2522 -0.3817 -0.0531
  724MOL0     C99820   9.900   8.534   1.763 -0.8292 -0.5616 -0.3628
  724MOL0     C99821   9.833   8.571   1.876 -0.4619 -1.4185  0.4053
  724MOL0     O99822   9.852   8.427   2.196 -0.2332  0.5602  0.3983
  724MOL0     C99823   9.716   8.733   2.316 -0.0006  0.4046 -0.5900
  724MOL0     C99824   9.652   8.789   2.436  0.5138  0.3477  0.6100
  724MOL0     N99825   9.359   9.437   2.771 -0.6950  0.1191  0.2556
  724MOL0     N99826   9.396   9.557   2.783 -0.3706  0.9220 -0.4650
  724MOL0     C99827   9.789   9.479   1.781  0.6985 -0.0716 -0.0138
  724MOL0     C99828   9.889   9.473   1.686  0.2482 -0.0924 -0.0374
  724MOL0     C99829  10.331   9.449   1.511 -0.1568 -0.2892 -1.0461
  724MOL0     C99830  10.281   9.425   1.389  0.4438  1.2264  0.2049
  724MOL0     C99831  10.353   9.402   1.272 -0.3404  0.6204  0.4989
  724MOL0     C99832  10.493   9.424   1.276  0.3987  0.1423 -0.2962
  724MOL0     O99833  10.569   9.414   1.160 -0.2711  0.0571 -0.0868
  724MOL0     C99834  10.712   9.449   1.150 -0.4459 -0.4112  0.7067
  724MOL0     C99835  10.808   9.351   1.217 -1.1496  0.0350  0.2678
  724MOL0     C99836  10.818   9.223   1.134  0.4169 -0.5707  1.2503
  724MOL0     C99837  10.906   9.107   1.184  0.1371  0.0106 -0.3143
  724MOL0     C99838  10.847   9.061   1.305 -0.2694 -0.5476  0.5135
  724MOL0     C99839  10.793   9.018   1.401 -0.3787  0.2078 -0.2838
  724MOL0     C99840  10.548   9.450   1.401 -0.4838  0.1814  0.8947
  724MOL0     C99841  10.473   9.467   1.516  0.0264 -0.2882  0.5369
  724MOL0     C99842  10.551   9.504   1.637 -0.7858 -0.1564 -1.1622
  724MOL0     H99843  10.142   9.397   1.901  1.6052  1.5084 -3.6023
  724MOL0     H99844   9.957   9.406   2.068 -2.4650  1.2374  1.5593
  724MOL0     H99845   9.531   9.551   2.064  1.5134 -2.8643  2.8931
  724MOL0     H99846   9.581   9.608   1.904  2.3561 -0.7461 -1.0163
  724MOL0     H99847   9.773   9.728   1.976  1.1129  0.0934  1.4500
  724MOL0     H99848   9.630   9.807   2.006  0.3131 -0.6810 -1.1663
  724MOL0     H99849   9.704   9.634   2.240 -2.1728 -0.9148 -1.4661
  724MOL0     H99850   9.840   9.740   2.176 -0.5433  1.5237 -1.9495
  724MOL0     H99851   9.704   9.937   2.208  0.5225  0.2378 -0.6095
  724MOL0     H99852   9.566   9.834   2.248  0.1240 -0.4719 -1.0907
  724MOL0     H99853   9.678   9.946   2.452  0.9864  0.8299 -2.1258
  724MOL0     H99854   9.814   9.839   2.433  0.7501 -0.4666  0.8114
  724MOL0     H99855   9.538   9.787   2.519  1.2234  3.9372  0.4991
  724MOL0     H99856   9.625   9.648   2.457 -0.9038  0.4794 -0.1293
  724MOL0     H99857   9.772   9.813   2.666  0.8438 -0.8336 -1.7640
  724MOL0     H99858   9.779   9.647   2.628  2.4134  2.4232 -1.8586
  724MOL0     H99859   9.661   9.667   2.842  2.2451  0.3543 -0.5542
  724MOL0     H99860   9.535   9.775   2.781  1.8589  1.8404 -2.0605
  724MOL0     H99861   9.647   9.433   2.612 -0.0034  0.8467 -0.8694
  724MOL0     H99862   9.441   9.239   2.533 -0.5352 -3.0602 -0.1801
  724MOL0     H99863   9.324   9.201   2.661  0.7568 -2.6968  0.2341
  724MOL0     H99864   9.614   9.164   2.638  0.0586  2.7304  1.1160
  724MOL0     H99865   9.536   9.131   2.797  0.3094  0.1912 -0.2263
  724MOL0     H99866   9.383   8.973   2.663 -0.2053 -0.0949 -0.1135
  724MOL0     H99867   9.493   8.999   2.532 -2.5172  1.7344 -0.3984
  724MOL0     H99868   9.680   8.913   2.673 -0.7155  0.1601 -0.2118
  724MOL0     H99869   9.561   8.892   2.811  1.3362  1.5663  1.1750
  724MOL0     H99870   9.602   8.519   2.622  1.2005 -2.8777 -1.4317
  724MOL0     H99871   9.653   8.327   2.534  3.2453  0.6446  1.9532
  724MOL0     H99872   9.789   8.322   2.420  0.4556 -0.7205  2.9597
  724MOL0     H99873   9.618   8.343   2.364 -1.3129 -1.9899  0.8752
  724MOL0     H99874  10.092   8.636   2.084 -1.3761  1.7236 -0.1844
  724MOL0     H99875  10.214   8.568   1.884 -0.5789 -1.3203 -0.9123
  724MOL0     H99876  10.266   8.575   1.659 -0.9449  1.0234 -2.4278
  724MOL0     H99877  10.296   8.399   1.676  1.9835  1.0447 -1.8181
  724MOL0     H99878  10.194   8.490   1.419  0.0996  1.3971 -1.1729
  724MOL0     H99879  10.336   8.560   1.447 -0.5883 -0.8715 -1.1269
  724MOL0     H99880  10.325   8.245   1.473  3.6611 -2.2970 -0.8967
  724MOL0     H99881  10.455   8.360   1.519 -1.4474 -0.4102  2.6909
  724MOL0     H99882  10.477   8.425   1.278 -2.2364  0.5734 -1.8008
  724MOL0     H99883  10.327   8.339   1.244  2.1015 -0.2446 -1.0752
  724MOL0     H99884  10.596   8.226   1.328 -0.6951 -2.1813  1.4457
  724MOL0     H99885  10.454   8.129   1.310  1.4679  0.0408  1.1420
  724MOL0     H99886  10.578   8.285   1.074 -1.1266  1.4952 -0.8154
  724MOL0     H99887  10.423   8.202   1.061  0.4187  2.9939  0.2859
  724MOL0     H99888  10.548   8.027   0.987  1.2829  0.8935 -1.5846
  724MOL0     H99889  10.565   7.995   1.158 -0.2612 -0.5957 -1.0443
  724MOL0     H99890  10.784   8.148   1.128 -0.7181  4.4277 -3.1026
  724MOL0     H99891  10.749   8.121   0.949 -2.9207  1.3886 -0.9111
  724MOL0     H99892   9.844   8.540   1.671 -2.4838  2.3552  0.6810
  724MOL0     H99893   9.725   8.582   1.880 -0.1630  2.6082  2.1878
  724MOL0     H99894   9.741   8.798   2.233  0.1494  1.2313  0.0957
  724MOL0     H99895   9.636   8.893   2.409 -3.1818 -0.6334 -1.7589
  724MOL0     H99896   9.685   9.498   1.756  1.0337  1.4433 -0.3280
  724MOL0     H99897   9.865   9.502   1.584  0.6621  0.9131  0.1444
  724MOL0     H99898  10.172   9.419   1.394  0.3421  2.7856  0.3286
  724MOL0     H99899  10.295   9.385   1.181 -0.0270  0.8804  0.2479
  724MOL0     H99900  10.735   9.437   1.044  0.4536 -2.0812  1.0548
  724MOL0     H99901  10.729   9.544   1.201 -0.2283 -0.0671 -0.0085
  724MOL0     H99902  10.771   9.338   1.319 -0.7895  0.6477  0.4805
  724MOL0     H99903  10.911   9.388   1.223 -0.2472 -2.1598 -0.7404
  724MOL0     H99904  10.716   9.184   1.126 -0.3367  1.2935  1.1475
  724MOL0     H99905  10.860   9.247   1.035  0.3818 -0.0430  1.3595
  724MOL0     H99906  11.010   9.135   1.204  1.2442 -4.1552  0.7294
  724MOL0     H99907  10.910   9.033   1.104 -0.7912  2.9002 -3.2298
  724MOL0     H99908  10.756   8.972   1.491 -1.9106  1.4403 -0.2316
  724MOL0     H99909  10.653   9.470   1.415  0.0169 -2.2969  1.0990
  724MOL0     H99910  10.500   9.509   1.734  1.1684  2.1931 -0.1393
  724MOL0     H99911  10.641   9.443   1.647  0.1721  1.3699 -0.0779
  724MOL0     H99912  10.568   9.610   1.614 -1.7891  0.2040 -0.3281
  725MOL0     O99913   9.138   6.196   8.248  0.7370  0.1005  0.4190
  725MOL0     C99914   9.018   6.203   8.232  0.9115  1.4510  0.3407
  725MOL0     O99915   8.951   6.305   8.177 -0.1191  0.3453 -0.1232
  725MOL0     C99916   9.007   6.431   8.188 -0.4017  0.0314 -0.8678
  725MOL0     C99917   9.025   6.511   8.075  0.6573 -0.1568 -1.1643
  725MOL0     C99918   9.093   6.635   8.073 -0.2150 -0.6976  0.0843
  725MOL0     C99919   9.145   6.683   8.194  0.6548  0.0269  0.1991
  725MOL0     O99920   9.227   6.789   8.206 -0.6587  0.5198  0.0846
  725MOL0     C99921   9.359   6.786   8.151  0.5318  0.8569 -0.2517
  725MOL0     C99922   9.457   6.693   8.214 -0.2629  0.0655 -0.7651
  725MOL0     C99923   9.501   6.726   8.357  0.9824 -0.1515  0.0666
  725MOL0     C99924   9.617   6.631   8.404 -0.2633  0.9938 -0.1394
  725MOL0     C99925   9.640   6.599   8.554 -0.4795  0.0712 -0.3398
  725MOL0     C99926   9.665   6.736   8.632 -0.4579 -0.1027  0.0229
  725MOL0     C99927   9.670   6.728   8.783 -0.1618 -0.3231 -0.4348
  725MOL0     C99928   9.531   6.682   8.845 -0.0537  0.3511  0.4956
  725MOL0     N99929   9.529   6.636   8.981 -0.5139  0.3464 -0.5437
  725MOL0     C99930   9.478   6.704   9.086  0.1319 -0.4682  0.8323
  725MOL0     C99931   9.513   6.635   9.198 -0.0677  0.2839  0.2368
  725MOL0     C99932   9.483   6.660   9.342  0.4520  0.1114 -0.5942
  725MOL0     C99933   9.597   6.707   9.423 -0.3764 -0.8532  0.0529
  725MOL0     C99934   9.665   6.833   9.357 -0.4808 -0.0958 -0.4338
  725MOL0     C99935   9.748   6.904   9.453  0.0327  1.4801  0.6357
  725MOL0     O99936   9.667   6.971   9.550 -0.8594  0.2279  0.4434
  725MOL0     C99937   9.576   7.063   9.524 -0.7111 -0.0655  0.0332
  725MOL0     C99938   9.476   7.086   9.612  0.4759  0.1692  0.4209
  725MOL0     C99939   9.379   7.182   9.589 -0.0518 -0.9849  0.0390
  725MOL0     C99940   9.260   7.180   9.681 -0.6939  0.1145 -0.7792
  725MOL0     C99941   9.373   7.259   9.464  0.8400  0.2419 -0.2602
  725MOL0     C99942   9.260   7.357   9.431 -0.2057 -0.6211  0.0082
  725MOL0     O99943   9.284   7.424   9.318  0.3313 -0.2237 -0.1508
  725MOL0     C99944   9.186   7.511   9.284 -0.2753 -0.1197  0.6783
  725MOL0     C99945   9.050   7.471   9.249 -0.2759  0.9881 -0.1156
  725MOL0     C99946   8.944   7.567   9.237 -0.5514  0.0729 -0.1878
  725MOL0     C99947   8.969   7.703   9.256  1.0439  0.8926  0.0884
  725MOL0     O99948   8.859   7.787   9.245  0.6604 -0.9884 -0.7758
  725MOL0     C99949   8.724   7.733   9.264 -0.2310  0.5287  0.5940
  725MOL0     C99950   8.615   7.841   9.273 -0.2387 -1.1434  0.0705
  725MOL0     C99951   8.633   7.941   9.389  0.1779  0.2756  0.1966
  725MOL0     C99952   8.514   8.042   9.385  0.6806 -0.0888  0.4089
  725MOL0     C99953   8.514   8.125   9.517 -0.0824 -0.1402 -0.0644
  725MOL0     C99954   8.484   8.049   9.648  0.1216 -0.9063  0.2630
  725MOL0     C99955   8.343   7.993   9.655  0.3978  0.4957 -0.4689
  725MOL0     C99956   8.272   7.973   9.790 -1.6075 -0.7335 -0.2158
  725MOL0    Cl99957   8.259   8.127   9.878 -0.0797 -0.0072  0.3520
  725MOL0     C99958   9.097   7.741   9.287 -0.4334 -0.5527 -0.8311
  725MOL0     C99959   9.201   7.648   9.311 -0.8409 -0.9816  0.2621
  725MOL0     O99960   9.171   7.376   9.510  0.3249 -0.4326 -0.2205
  725MOL0     C99961   9.482   7.227   9.381 -0.0191 -0.2183 -0.1647
  725MOL0     C99962   9.584   7.140   9.407 -0.1003  0.8466  0.2924
  725MOL0     N99963   9.589   6.522   9.160 -0.5656  0.9212 -0.4203
  725MOL0     N99964   9.606   6.531   9.033 -0.3325 -0.3301  0.3421
  725MOL0     C99965   9.119   6.602   8.312  0.2267 -0.4160  0.4151
  725MOL0     C99966   9.044   6.485   8.311 -0.4362  0.2099  0.0238
  725MOL0     C99967   8.951   6.078   8.240 -0.0453  0.8330  0.0506
  725MOL0     C99968   9.016   5.954   8.192 -0.5635  0.6025 -0.1627
  725MOL0     C99969   8.953   5.833   8.207 -0.8202  0.7201  0.0788
  725MOL0     C99970   8.839   5.825   8.280  0.3918 -0.4632  0.2333
  725MOL0     O99971   8.799   5.695   8.310 -0.5333  0.5379  0.6334
  725MOL0     C99972   8.690   5.655   8.397 -0.3180 -0.5945  1.5657
  725MOL0     C99973   8.701   5.697   8.536  0.4569 -0.3308  0.6836
  725MOL0     C99974   8.788   5.615   8.633 -0.3943  0.3424  0.3616
  725MOL0     C99975   8.923   5.587   8.575 -0.2118 -0.2925  0.2693
  725MOL0     C99976   9.020   5.542   8.682  0.6282 -0.3520 -0.1940
  725MOL0     C99977   9.100   5.539   8.775  1.3887 -0.6666  0.1630
  725MOL0     C99978   8.762   5.942   8.313 -0.6965 -0.2138 -1.1518
  725MOL0     C99979   8.817   6.070   8.290 -0.2627  0.6872 -0.4273
  725MOL0     C99980   8.714   6.185   8.328  0.0602  0.9437 -0.4114
  725MOL0     H99981   8.974   6.473   7.986 -3.9522 -1.3205  1.6432
  725MOL0     H99982   9.109   6.679   7.975 -2.6283 -0.8036 -0.4195
  725MOL0     H99983   9.401   6.886   8.140  5.1732 -0.6739  0.9381
  725MOL0     H99984   9.348   6.754   8.047  1.2080 -2.4516  0.5739
  725MOL0     H99985   9.399   6.600   8.224  0.7068 -0.5430 -0.7085
  725MOL0     H99986   9.544   6.692   8.148 -0.1743  2.8409 -0.7737
  725MOL0     H99987   9.539   6.828   8.358 -0.7707  0.5294  0.4785
  725MOL0     H99988   9.412   6.706   8.418  0.4414  0.9498 -0.3423
  725MOL0     H99989   9.598   6.535   8.355  0.2114  0.8591 -0.0622
  725MOL0     H99990   9.712   6.665   8.361  0.7437 -1.3208  0.1215
  725MOL0     H99991   9.723   6.531   8.573 -1.2814 -1.1406 -1.0323
  725MOL0     H99992   9.565   6.537   8.603  1.7212 -0.6674  2.3693
  725MOL0     H99993   9.749   6.792   8.590 -0.7525 -0.5457 -1.1954
  725MOL0     H99994   9.581   6.800   8.606 -0.2950  0.3423  0.5609
  725MOL0     H99995   9.687   6.826   8.828 -1.4655  0.0152 -0.6302
  725MOL0     H99996   9.759   6.672   8.814  1.7130  2.3973 -0.6014
  725MOL0     H99997   9.466   6.769   8.835 -3.4352 -2.0652 -0.7492
  725MOL0     H99998   9.490   6.608   8.775  1.9171  0.0231 -0.3848
  725MOL0     H99999   9.416   6.792   9.099 -0.5709 -1.0137  1.2804
  725MOL0     H    0   9.463   6.562   9.386  0.9993  1.2919  2.5183
  725MOL0     H    1   9.402   6.732   9.356 -1.2268 -1.5141 -1.4563
  725MOL0     H    2   9.547   6.735   9.516  0.4713  0.9389  0.0178
  725MOL0     H    3   9.666   6.624   9.437 -1.6839 -1.7190  1.7005
  725MOL0     H    4   9.726   6.783   9.282  2.6887 -0.8373  2.3846
  725MOL0     H    5   9.595   6.900   9.306  0.3982  0.5809 -0.7700
  725MOL0     H    6   9.825   6.841   9.497  2.1601  2.0033 -2.0407
  725MOL0     H    7   9.807   6.982   9.403 -0.8477  2.5013  1.1382
  725MOL0     H    8   9.482   7.026   9.702 -4.4271 -3.7312 -1.3994
  725MOL0     H    9   9.260   7.094   9.749 -3.0082  0.2994 -0.4977
  725MOL0     H   10   9.161   7.178   9.636  0.2802 -0.9814 -3.0359
  725MOL0     H   11   9.254   7.259   9.757  2.9983 -0.1619  0.0393
  725MOL0     H   12   9.029   7.365   9.237 -0.1727  1.1334 -1.8615
  725MOL0     H   13   8.848   7.525   9.207  1.0024 -3.4706 -0.6997
  725MOL0     H   14   8.708   7.660   9.184  1.2366  0.3134  0.4698
  725MOL0     H   15   8.738   7.676   9.356 -0.5112  3.6458  2.7139
  725MOL0     H   16   8.616   7.900   9.181 -0.6964  0.9326  1.3181
  725MOL0     H   17   8.519   7.790   9.271 -1.6017  1.2628 -0.6172
  725MOL0     H   18   8.731   7.990   9.390 -0.0289  0.7026  0.0729
  725MOL0     H   19   8.623   7.891   9.486 -0.9482  3.0186  1.6259
  725MOL0     H   20   8.427   7.976   9.386  0.6964 -0.1040  0.8571
  725MOL0     H   21   8.513   8.115   9.305  3.4597 -1.0003 -0.5975
  725MOL0     H   22   8.611   8.176   9.522 -0.3461  0.2491  2.6472
  725MOL0     H   23   8.451   8.213   9.503  1.3045  1.3827  2.4593
  725MOL0     H   24   8.498   8.117   9.733 -2.1954 -3.6395  3.0754
  725MOL0     H   25   8.559   7.974   9.674 -0.9753 -2.3717 -0.6234
  725MOL0     H   26   8.321   7.900   9.601  0.9442  0.8190 -1.2591
  725MOL0     H   27   8.287   8.067   9.597 -2.1616  0.5424  1.8669
  725MOL0     H   28   8.312   7.898   9.859 -1.3168  0.1546  0.5871
  725MOL0     H   29   8.168   7.944   9.769 -1.4830 -2.3323  1.1774
  725MOL0     H   30   9.109   7.845   9.316 -0.2814 -1.5016  3.1027
  725MOL0     H   31   9.302   7.670   9.344 -1.6133  1.8113  1.1392
  725MOL0     H   32   9.510   7.282   9.292  1.0587 -2.2099 -1.1127
  725MOL0     H   33   9.656   7.123   9.328 -2.1525 -1.8087 -1.1627
  725MOL0     H   34   9.183   6.633   8.395  1.1499  1.8719 -1.0740
  725MOL0     H   35   9.031   6.423   8.399  0.8044  2.4705  1.9009
  725MOL0     H   36   9.116   5.951   8.151 -1.0489 -0.1452 -1.3678
  725MOL0     H   37   8.997   5.736   8.182 -0.0142  0.6974  1.5326
  725MOL0     H   38   8.609   5.711   8.348  0.3788 -2.3290 -1.8819
  725MOL0     H   39   8.671   5.547   8.390 -1.0187 -0.3861 -0.8886
  725MOL0     H   40   8.597   5.709   8.570  0.8575 -1.4912  2.4482
  725MOL0     H   41   8.732   5.802   8.541  2.8057 -0.9719  0.4375
  725MOL0     H   42   8.796   5.671   8.727 -0.2828 -3.5736  2.8949
  725MOL0     H   43   8.742   5.519   8.658 -2.1383  0.6871 -1.2945
  725MOL0     H   44   8.959   5.673   8.519  1.1003 -2.2865 -2.1890
  725MOL0     H   45   8.913   5.508   8.500 -0.8532  1.4510 -1.5656
  725MOL0     H   46   9.184   5.529   8.840  1.0660 -1.7992  0.4293
  725MOL0     H   47   8.660   5.925   8.348  0.5805 -1.7479  2.2877
  725MOL0     H   48   8.757   6.286   8.319 -0.2148  0.9764 -1.5326
  725MOL0     H   49   8.628   6.175   8.261 -2.3967  2.9533  2.2205
  725MOL0     H   50   8.681   6.184   8.432 -1.8904 -0.5586 -0.9958
  726MOL0     O   51   9.333  10.812   9.993 -0.5192 -0.0356  0.7836
  726MOL0     C   52   9.439  10.748  10.018  0.3261 -0.1026 -0.2550
  726MOL0     O   53   9.480  10.727  10.150 -1.3020 -0.2996 -0.3294
  726MOL0     C   54   9.379  10.729  10.239 -0.1913 -1.5966  0.2395
  726MOL0     C   55   9.385  10.823  10.339 -1.4574 -1.1450 -0.4121
  726MOL0     C   56   9.278  10.848  10.428 -1.0859 -0.2164 -0.9916
  726MOL0     C   57   9.162  10.766  10.428  0.8991  0.7544  0.4973
  726MOL0     O   58   9.065  10.798  10.517 -0.1139 -0.5839 -0.0426
  726MOL0     C   59   8.949  10.709  10.539 -0.0342 -0.3644  0.6748
  726MOL0     C   60   8.975  10.587  10.623 -1.1051  0.3927 -0.0684
  726MOL0     C   61   9.016  10.639  10.763  0.3032 -0.4680  0.6961
  726MOL0     C   62   9.032  10.524  10.855 -0.8756  0.8982 -0.5116
  726MOL0     C   63   9.068  10.568  11.000  0.6324 -0.7038 -0.1207
  726MOL0     C   64   8.956  10.652  11.067  0.8378 -0.4607  1.4127
  726MOL0     C   65   8.996  10.696  11.206  0.4108  0.2298  0.0993
  726MOL0     C   66   8.900  10.796  11.269  0.6152  0.1578 -0.5209
  726MOL0     N   67   8.788  10.721  11.311  0.3417  0.9814  0.1958
  726MOL0     C   68   8.759  10.692  11.441  0.6206  1.0604  0.1233
  726MOL0     C   69   8.630  10.636  11.431  0.5304  0.0850  0.5352
  726MOL0     C   70   8.555  10.591  11.553 -0.4034 -0.1522 -0.0466
  726MOL0     C   71   8.513  10.728  11.626 -0.2205 -0.2319  0.6009
  726MOL0     C   72   8.430  10.822  11.530  0.5429 -0.6332 -0.8070
  726MOL0     C   73   8.359  10.937  11.607 -1.4639  0.4081  0.7823
  726MOL0     O   74   8.463  11.006  11.670 -0.1890 -0.3414 -0.0815
  726MOL0     C   75   8.438  11.122  11.741  0.2666 -0.1224  0.1599
  726MOL0     C   76   8.539  11.185  11.795  0.2850  0.2167  0.2170
  726MOL0     C   77   8.526  11.311  11.859  0.2376 -0.4249 -0.6434
  726MOL0     C   78   8.656  11.398  11.887 -0.4728  0.3130 -0.2254
  726MOL0     C   79   8.393  11.358  11.894 -1.0316 -0.7249  0.3475
  726MOL0     C   80   8.359  11.477  11.976  0.4473 -0.2951 -0.2143
  726MOL0     O   81   8.225  11.485  12.014 -0.3764 -0.5364  0.0873
  726MOL0     C   82   8.191  11.600  12.079  0.3842 -0.4280  0.2123
  726MOL0     C   83   8.225  11.733  12.047 -0.3724 -0.1321  1.4297
  726MOL0     C   84   8.173  11.846  12.107 -0.5441 -0.7504 -0.5172
  726MOL0     C   85   8.087  11.826  12.217 -1.0045  0.5751 -0.1749
  726MOL0     O   86   8.049  11.944  12.281  0.3857  0.1710 -0.0280
  726MOL0     C   87   7.950  11.961  12.386 -0.7860 -0.1820 -2.1203
  726MOL0     C   88   7.924  12.110  12.415  0.0486  0.9393  0.7194
  726MOL0     C   89   8.050  12.203  12.415 -0.8382  0.7873  0.6131
  726MOL0     C   90   8.036  12.338  12.483 -0.5424 -0.1567  0.7974
  726MOL0     C   91   8.175  12.415  12.468 -0.1513 -0.2930 -0.0237
  726MOL0     C   92   8.165  12.569  12.510 -1.3432  0.5067  0.4929
  726MOL0     C   93   8.177  12.586  12.668 -0.3896 -0.2107 -0.9845
  726MOL0     C   94   8.141  12.729  12.707 -0.0737 -0.2666 -0.2329
  726MOL0    Cl   95   8.219  12.852  12.593  0.5106 -0.3428 -0.3197
  726MOL0     C   96   8.054  11.692  12.257  0.0512 -1.1246  0.3778
  726MOL0     C   97   8.101  11.582  12.179  1.2357 -0.5106  0.6673
  726MOL0     O   98   8.452  11.553  12.011  0.2784  0.2961  0.5712
  726MOL0     C   99   8.286  11.286  11.839 -0.9227  0.1223  1.5280
  726MOL0     C  100   8.305  11.174  11.765 -0.4274 -0.7420  0.0563
  726MOL0     N  101   8.587  10.627  11.294 -0.9697  0.1591  0.5787
  726MOL0     N  102   8.680  10.690  11.228 -0.2777  0.7839 -0.6867
  726MOL0     C  103   9.165  10.659  10.334 -0.6849 -0.4240  0.6526
  726MOL0     C  104   9.265  10.653  10.232  0.1213  0.2586 -0.4895
  726MOL0     C  105   9.529  10.724   9.900  0.7721  0.8311 -1.5235
  726MOL0     C  106   9.560  10.832   9.817 -0.2306 -0.5310  0.8526
  726MOL0     C  107   9.646  10.817   9.710  0.4777  0.1513 -0.3377
  726MOL0     C  108   9.699  10.696   9.672  0.1909 -0.0869  0.3050
  726MOL0     O  109   9.775  10.697   9.557 -0.1530 -0.0054  0.7144
  726MOL0     C  110   9.818  10.573   9.513  0.6180 -0.6377  0.4609
  726MOL0     C  111   9.905  10.595   9.398 -0.3642 -0.3192 -0.2546
  726MOL0     C  112   9.933  10.466   9.329  0.8273 -0.0421  0.6618
  726MOL0     C  113  10.050  10.484   9.228  0.2179  0.6291  0.1606
  726MOL0     C  114   9.993  10.561   9.116  0.1257 -0.5295 -0.4118
  726MOL0     C  115   9.961  10.617   9.018  1.3082  0.6536  0.1251
  726MOL0     C  116   9.688  10.592   9.767  0.3811  0.3456  0.1697
  726MOL0     C  117   9.594  10.605   9.877  0.0988 -0.1217  0.2092
  726MOL0     C  118   9.586  10.491   9.983 -0.8533  0.0002 -0.8681
  726MOL0     H  119   9.474  10.884  10.332 -0.5925 -2.1175  1.6274
  726MOL0     H  120   9.280  10.937  10.491  2.5947  1.6911 -3.4209
  726MOL0     H  121   8.899  10.704  10.442  1.6437  6.7458 -1.1557
  726MOL0     H  122   8.868  10.760  10.592  1.3603  0.4316  2.1517
  726MOL0     H  123   8.878  10.541  10.646 -0.7984  0.8062  2.1874
  726MOL0     H  124   9.052  10.518  10.588  1.5396  1.8014  2.6158
  726MOL0     H  125   9.118  10.679  10.763  0.7133 -1.3479  2.9432
  726MOL0     H  126   8.945  10.715  10.798 -0.2198  0.1901 -1.6213
  726MOL0     H  127   8.943  10.461  10.862  0.4331 -0.9607  0.1759
  726MOL0     H  128   9.115  10.460  10.825 -1.0267 -0.9735  2.6366
  726MOL0     H  129   9.154  10.635  11.002 -0.4848  0.7747 -0.4439
  726MOL0     H  130   9.094  10.478  11.056  3.5969  1.5335  2.4084
  726MOL0     H  131   8.938  10.743  11.010 -2.5159  0.4930  3.6778
  726MOL0     H  132   8.858  10.604  11.062  0.0302  1.2092  0.3345
  726MOL0     H  133   9.091  10.750  11.198 -0.6972  2.1254 -1.1630
  726MOL0     H  134   9.004  10.605  11.266 -0.3196  0.0371 -0.0744
  726MOL0     H  135   8.943  10.845  11.357 -1.5469 -1.6831  1.7022
  726MOL0     H  136   8.874  10.861  11.185 -1.9424 -1.8165 -1.3699
  726MOL0     H  137   8.805  10.713  11.538  0.6215  0.5006  0.2469
  726MOL0     H  138   8.619  10.535  11.622 -0.3458 -0.5540 -0.4193
  726MOL0     H  139   8.475  10.525  11.519  0.9747 -2.1514  0.4414
  726MOL0     H  140   8.455  10.710  11.717  1.3801 -2.1457  1.3379
  726MOL0     H  141   8.600  10.788  11.654  0.6682 -1.5241  0.7134
  726MOL0     H  142   8.486  10.862  11.446  0.4289 -2.3701 -1.7689
  726MOL0     H  143   8.347  10.766  11.485  0.5580  1.3914 -3.6191
  726MOL0     H  144   8.306  11.001  11.535 -0.5652 -0.9905 -1.2098
  726MOL0     H  145   8.305  10.885  11.687 -1.4995 -1.3493 -0.3237
  726MOL0     H  146   8.641  11.150  11.781 -0.4392 -1.3342 -1.5286
  726MOL0     H  147   8.660  11.468  11.803  0.6023  0.6475  0.0877
  726MOL0     H  148   8.744  11.333  11.877  3.7683  5.1343  1.5276
  726MOL0     H  149   8.685  11.449  11.979  2.4647 -1.4407 -0.0382
  726MOL0     H  150   8.304  11.759  11.977 -0.0320  2.1339  2.5475
  726MOL0     H  151   8.196  11.944  12.065  0.0438 -1.3917 -1.7155
  726MOL0     H  152   7.859  11.901  12.378 -1.0605  0.0810 -1.1813
  726MOL0     H  153   7.995  11.923  12.479  1.2158  3.0505 -1.6238
  726MOL0     H  154   7.857  12.148  12.337 -0.0233  0.4592  0.5426
  726MOL0     H  155   7.865  12.134  12.505  0.3421 -0.6542  1.3611
  726MOL0     H  156   8.066  12.202  12.307 -4.0542 -1.9480 -0.0349
  726MOL0     H  157   8.126  12.146  12.468 -2.0828 -0.2135  1.3794
  726MOL0     H  158   8.030  12.315  12.589  1.1772  0.7233  1.1152
  726MOL0     H  159   7.951  12.401  12.453 -0.6841 -0.6937  0.0170
  726MOL0     H  160   8.255  12.373  12.529 -0.7399  0.6926  1.4890
  726MOL0     H  161   8.196  12.406  12.361 -0.1512 -0.7959  0.0138
  726MOL0     H  162   8.074  12.615  12.471 -2.5743  1.2664  3.9394
  726MOL0     H  163   8.255  12.617  12.472 -0.3530  0.2468  2.3670
  726MOL0     H  164   8.279  12.573  12.705 -0.3509  1.0095 -0.6170
  726MOL0     H  165   8.111  12.518  12.722 -0.3427 -0.5713 -1.3804
  726MOL0     H  166   8.169  12.762  12.808  4.3695  0.2450 -1.4384
  726MOL0     H  167   8.033  12.748  12.708 -0.2181 -0.1539 -3.8793
  726MOL0     H  168   7.993  11.685  12.346 -0.5776  2.5365  0.3786
  726MOL0     H  169   8.070  11.479  12.193  0.0215 -0.5689 -1.8340
  726MOL0     H  170   8.184  11.321  11.844 -0.9160  0.5555 -0.3988
  726MOL0     H  171   8.216  11.121  11.732 -2.4944  0.6664  2.9275
  726MOL0     H  172   9.095  10.576  10.333 -1.2030 -0.0235 -1.5412
  726MOL0     H  173   9.255  10.575  10.157  1.0238  0.5960 -0.9738
  726MOL0     H  174   9.514  10.929   9.833  1.2407  0.4349 -0.4263
  726MOL0     H  175   9.650  10.902   9.643  0.5637  0.4614  0.0565
  726MOL0     H  176   9.873  10.518   9.590 -1.6687 -2.2115  1.0494
  726MOL0     H  177   9.730  10.517   9.483 -0.8940  1.5918  0.5194
  726MOL0     H  178   9.997  10.643   9.433  2.0231 -3.6976 -1.3108
  726MOL0     H  179   9.849  10.665   9.336  0.8841  1.0565  0.1106
  726MOL0     H  180   9.959  10.385   9.398 -0.8346 -1.6303 -0.4823
  726MOL0     H  181   9.845  10.426   9.278  2.2041 -1.2842 -0.8309
  726MOL0     H  182  10.086  10.392   9.183  0.8489 -0.4316  2.6602
  726MOL0     H  183  10.138  10.543   9.257  1.2848  0.1670 -1.9406
  726MOL0     H  184   9.931  10.674   8.931 -2.0542 -0.2351  0.5343
  726MOL0     H  185   9.717  10.492   9.736  1.5525  0.5908  0.4165
  726MOL0     H  186   9.493  10.494  10.041 -0.4444 -0.8020 -0.1654
  726MOL0     H  187   9.597  10.394   9.934 -0.0832 -0.7060  0.6379
  726MOL0     H  188   9.669  10.489  10.054 -1.7359 -0.4472  0.1812
  727MOL0     O  189  10.569   3.357  10.397  0.1462 -0.0420 -0.1589
  727MOL0     C  190  10.517   3.243  10.384  1.1163 -0.5157  0.2605
  727MOL0     O  191  10.587   3.129  10.382  0.1879  0.2365 -0.2236
  727MOL0     C  192  10.718   3.111  10.434 -0.0737 -0.4370 -0.8879
  727MOL0     C  193  10.808   3.015  10.372 -0.0121  0.3417 -0.5803
  727MOL0     C  194  10.942   3.017  10.426 -0.0752  0.1332 -0.4802
  727MOL0     C  195  10.981   3.098  10.530 -0.2058  0.6733 -0.2148
  727MOL0     O  196  11.111   3.093  10.579  0.2197 -0.0256  1.0392
  727MOL0     C  197  11.212   3.113  10.483 -0.9007  1.0009  0.1874
  727MOL0     C  198  11.345   3.153  10.545  1.1560 -0.4721  0.0030
  727MOL0     C  199  11.334   3.271  10.646  1.2071  0.2508 -0.0057
  727MOL0     C  200  11.348   3.405  10.574  0.8063 -0.7560  0.3088
  727MOL0     C  201  11.348   3.513  10.683  0.7288  0.4841  0.1045
  727MOL0     C  202  11.405   3.644  10.626  0.5646 -0.3037 -0.0857
  727MOL0     C  203  11.431   3.741  10.749  0.1368  0.3135 -0.0528
  727MOL0     C  204  11.515   3.868  10.722 -0.1303 -0.5971 -0.3324
  727MOL0     N  205  11.648   3.848  10.658  0.0029 -0.3031 -0.4974
  727MOL0     C  206  11.741   3.750  10.693  1.6455  0.2659  0.6203
  727MOL0     C  207  11.823   3.766  10.586  0.2398 -0.1499 -0.4175
  727MOL0     C  208  11.933   3.670  10.544 -0.5774 -0.5984  0.0633
  727MOL0     C  209  11.892   3.546  10.459 -0.2668 -0.9966  0.3225
  727MOL0     C  210  11.781   3.469  10.529 -0.0489  0.4384 -0.3418
  727MOL0     C  211  11.780   3.331  10.459  0.8312 -0.1306  0.2079
  727MOL0     O  212  11.878   3.230  10.496 -0.4267  0.2550  0.0281
  727MOL0     C  213  11.872   3.178  10.624  0.1302 -0.1161 -1.1320
  727MOL0     C  214  11.990   3.126  10.673  1.0248  0.5557  0.7300
  727MOL0     C  215  11.998   3.075  10.799 -0.4488  0.3597  0.0573
  727MOL0     C  216  12.141   3.018  10.821  0.0380  1.1929 -0.2716
  727MOL0     C  217  11.886   3.063  10.882  0.6676  0.0800 -0.4478
  727MOL0     C  218  11.898   3.008  11.021  0.3341  1.6663  0.2793
  727MOL0     O  219  11.967   2.893  11.030  0.1593 -0.1323 -0.3426
  727MOL0     C  220  11.989   2.826  11.154  0.4589 -0.0453  0.4858
  727MOL0     C  221  12.102   2.740  11.154 -0.1803 -0.2229 -0.0466
  727MOL0     C  222  12.154   2.676  11.270  0.2488  0.5004  0.3815
  727MOL0     C  223  12.073   2.691  11.381  0.1782 -0.3260 -0.2175
  727MOL0     O  224  12.116   2.647  11.508 -0.0693 -0.4517  0.2580
  727MOL0     C  225  12.247   2.680  11.555  0.5886 -0.3803 -0.4967
  727MOL0     C  226  12.278   2.681  11.708  0.4412  0.2937  1.2101
  727MOL0     C  227  12.190   2.571  11.780  0.2741 -0.7496  0.3460
  727MOL0     C  228  12.238   2.414  11.751 -0.1110 -0.6811  0.4446
  727MOL0     C  229  12.132   2.316  11.799  0.5571 -0.4755  0.6491
  727MOL0     C  230  12.173   2.180  11.772 -0.5850 -0.1394  0.3809
  727MOL0     C  231  12.054   2.098  11.823  0.1293  1.0469 -0.2473
  727MOL0     C  232  12.075   1.945  11.801  0.0999  0.3379  0.6313
  727MOL0    Cl  233  12.221   1.885  11.895 -0.2926  0.2959  0.0067
  727MOL0     C  234  11.949   2.760  11.376  0.5650  0.3872  0.4601
  727MOL0     C  235  11.912   2.829  11.266  0.4668 -0.0123 -0.0068
  727MOL0     O  236  11.842   3.062  11.114 -0.0209  0.4812  0.2047
  727MOL0     C  237  11.757   3.112  10.825 -0.1698 -0.3728 -0.6888
  727MOL0     C  238  11.758   3.171  10.705 -0.6634 -0.0872  0.0386
  727MOL0     N  239  11.789   3.870  10.511  0.1797 -0.4290 -0.1603
  727MOL0     N  240  11.682   3.919  10.549  0.5075  0.1743 -0.4120
  727MOL0     C  241  10.887   3.178  10.594  0.2193  0.5552  0.2123
  727MOL0     C  242  10.758   3.182  10.549  1.1308  0.1214 -0.2970
  727MOL0     C  243  10.362   3.239  10.392 -0.3544 -0.3380  0.2345
  727MOL0     C  244  10.311   3.111  10.386  0.3048 -0.4507  0.1996
  727MOL0     C  245  10.173   3.084  10.395  0.0844  0.1529  0.5874
  727MOL0     C  246  10.088   3.192  10.431  0.4528 -0.6157 -0.7418
  727MOL0     O  247   9.956   3.145  10.458 -0.0952  0.2463  0.4913
  727MOL0     C  248   9.851   3.241  10.481 -0.2485  0.5543  0.8909
  727MOL0     C  249   9.786   3.289  10.354  0.5707  0.0247 -0.4486
  727MOL0     C  250   9.700   3.406  10.416  0.3395  0.9204  0.3593
  727MOL0     C  251   9.598   3.452  10.308  0.3193  1.2668  0.6003
  727MOL0     C  252   9.543   3.579  10.354 -0.2138  0.0955 -0.2595
  727MOL0     C  253   9.480   3.678  10.389 -0.0440 -0.7889  0.7584
  727MOL0     C  254  10.139   3.324  10.448  0.8037  0.2454  0.6208
  727MOL0     C  255  10.274   3.349  10.427  0.0661  0.4498 -0.5649
  727MOL0     C  256  10.335   3.486  10.457  0.3509  0.4536 -0.6161
  727MOL0     H  257  10.783   2.936  10.302  4.0905  0.3701 -2.3596
  727MOL0     H  258  11.026   2.968  10.377  0.2270 -1.3403  1.4050
  727MOL0     H  259  11.170   3.183  10.410 -3.0935 -1.8483 -1.5290
  727MOL0     H  260  11.214   3.017  10.430  0.2344 -0.3933  2.5773
  727MOL0     H  261  11.388   3.066  10.594  1.5259 -0.5187 -0.4002
  727MOL0     H  262  11.407   3.181  10.459 -0.4945 -4.0431 -2.5851
  727MOL0     H  263  11.248   3.268  10.714  1.6402 -0.9671  0.5212
  727MOL0     H  264  11.415   3.273  10.720  0.9214  3.5379  0.3692
  727MOL0     H  265  11.439   3.408  10.514  0.2311 -1.0878 -0.6043
  727MOL0     H  266  11.264   3.401  10.504  0.9418 -0.1566  0.1080
  727MOL0     H  267  11.408   3.495  10.773  2.6010 -0.5574 -1.2934
  727MOL0     H  268  11.245   3.522  10.716 -0.4776 -2.9809 -2.2001
  727MOL0     H  269  11.497   3.623  10.570  1.1490 -1.4610  1.2363
  727MOL0     H  270  11.321   3.683  10.568 -0.5337 -3.2024 -0.6244
  727MOL0     H  271  11.462   3.689  10.840 -1.8188 -1.5092 -0.3366
  727MOL0     H  272  11.327   3.767  10.774  0.5399  0.3409  1.7239
  727MOL0     H  273  11.453   3.927  10.653 -0.2567 -0.5028 -0.1375
  727MOL0     H  274  11.515   3.928  10.813 -0.7775  0.8672 -1.2483
  727MOL0     H  275  11.741   3.673  10.769 -0.8754 -1.7732 -1.2956
  727MOL0     H  276  11.981   3.634  10.635  0.6672  2.1455  0.5949
  727MOL0     H  277  12.023   3.710  10.496 -1.1531 -1.4321 -1.7950
  727MOL0     H  278  11.875   3.578  10.356  0.7527  4.0161  1.4277
  727MOL0     H  279  11.971   3.473  10.441 -0.2610 -0.1513 -4.1816
  727MOL0     H  280  11.797   3.447  10.635  2.5655 -1.3277 -0.9962
  727MOL0     H  281  11.685   3.512  10.499 -0.5067  0.7720  1.4785
  727MOL0     H  282  11.683   3.286  10.479  0.5082  0.8611  0.9767
  727MOL0     H  283  11.783   3.347  10.350  2.5274  0.1758  0.2654
  727MOL0     H  284  12.072   3.138  10.603 -0.1579  2.0992 -0.4836
  727MOL0     H  285  12.164   3.012  10.928 -0.7557 -1.2298 -0.1933
  727MOL0     H  286  12.209   3.082  10.763 -0.6338  0.3403 -2.0644
  727MOL0     H  287  12.149   2.914  10.789 -1.8782  0.6379  0.8898
  727MOL0     H  288  12.156   2.738  11.060  3.3010 -0.7212  1.8042
  727MOL0     H  289  12.242   2.612  11.262 -2.2749 -3.4700  1.2923
  727MOL0     H  290  12.311   2.608  11.504 -2.2746 -1.1238 -3.3781
  727MOL0     H  291  12.274   2.779  11.516  1.8798 -0.3721  0.3683
  727MOL0     H  292  12.383   2.658  11.728  0.5760 -0.4206 -0.2239
  727MOL0     H  293  12.256   2.772  11.765 -0.1712 -0.9850  3.1106
  727MOL0     H  294  12.091   2.580  11.735  0.3446 -0.4820  0.2434
  727MOL0     H  295  12.167   2.590  11.885 -0.5262  1.0518 -0.1131
  727MOL0     H  296  12.335   2.397  11.798  0.0945 -1.0485 -0.1115
  727MOL0     H  297  12.249   2.397  11.644  1.8381  0.8840  0.3218
  727MOL0     H  298  12.109   2.333  11.904 -3.0194 -0.4425  0.0097
  727MOL0     H  299  12.043   2.325  11.735  0.9766 -4.1452 -0.6489
  727MOL0     H  300  12.261   2.156  11.832  0.2399 -3.0321 -1.7661
  727MOL0     H  301  12.181   2.164  11.664 -0.1845  0.3558  0.3282
  727MOL0     H  302  11.964   2.132  11.771  0.1104 -1.1532 -1.7693
  727MOL0     H  303  12.045   2.117  11.930 -1.1048 -4.5139  0.9338
  727MOL0     H  304  12.100   1.937  11.695 -0.6450  3.3965  0.1402
  727MOL0     H  305  11.981   1.902  11.836 -0.1052 -0.4446 -0.8053
  727MOL0     H  306  11.893   2.762  11.469  0.2770  2.8684  0.2800
  727MOL0     H  307  11.821   2.888  11.268  2.8059  3.9802 -0.2878
  727MOL0     H  308  11.669   3.096  10.886  1.1216  1.8230  1.9192
  727MOL0     H  309  11.663   3.209  10.669  0.7778  2.2488 -1.6056
  727MOL0     H  310  10.899   3.235  10.686 -0.3784  0.3935  0.3984
  727MOL0     H  311  10.681   3.221  10.616 -0.6621 -0.9325 -1.6463
  727MOL0     H  312  10.378   3.031  10.356  1.8893  0.6811  0.5932
  727MOL0     H  313  10.137   2.982  10.384  0.1545  0.1550  0.3353
  727MOL0     H  314   9.764   3.202  10.534 -3.7076  3.2198 -2.2935
  727MOL0     H  315   9.895   3.322  10.540  0.4224  0.3274  0.7180
  727MOL0     H  316   9.722   3.207  10.321  0.0682  0.7062 -1.2334
  727MOL0     H  317   9.850   3.327  10.273 -0.0519 -1.6387 -1.7651
  727MOL0     H  318   9.632   3.361  10.488 -2.0830 -1.5284 -3.1262
  727MOL0     H  319   9.766   3.487  10.447  1.3252  1.6442 -3.1562
  727MOL0     H  320   9.512   3.387  10.289 -1.0781  2.4289  2.5396
  727MOL0     H  321   9.641   3.448  10.208 -0.7505  0.1999  0.1580
  727MOL0     H  322   9.423   3.767  10.407  1.2979  0.3467 -0.3117
  727MOL0     H  323  10.076   3.398  10.497 -0.4904 -0.4385  0.0621
  727MOL0     H  324  10.407   3.514  10.380 -4.0523  2.0584 -4.7029
  727MOL0     H  325  10.255   3.561  10.456  1.7410  1.9785 -0.3588
  727MOL0     H  326  10.380   3.489  10.557  0.6859  0.5356 -0.7704
  728MOL0     O  327   7.867   2.624   7.141  0.4165 -0.1062  0.8019
  728MOL0     C  328   7.923   2.654   7.034  0.2837  0.5184  0.2581
  728MOL0     O  329   8.029   2.734   7.016 -0.0687  0.0323  0.2954
  728MOL0     C  330   8.067   2.810   7.124 -0.5476  0.3178  0.5381
  728MOL0     C  331   8.159   2.773   7.218  0.2739  0.1879  0.2494
  728MOL0     C  332   8.192   2.865   7.318 -0.5025  0.3365  0.0175
  728MOL0     C  333   8.148   2.998   7.315 -0.5755 -0.2231  0.6401
  728MOL0     O  334   8.185   3.088   7.414 -0.0662 -0.0206  0.6288
  728MOL0     C  335   8.318   3.133   7.406  0.0968  0.3090 -0.1200
  728MOL0     C  336   8.350   3.241   7.508  0.5699 -0.1014  0.1626
  728MOL0     C  337   8.282   3.380   7.463  0.0982  0.0846  0.2487
  728MOL0     C  338   8.354   3.483   7.557  0.1868  1.1937 -0.1154
  728MOL0     C  339   8.306   3.628   7.528 -0.5179  0.1295 -0.3229
  728MOL0     C  340   8.360   3.695   7.398 -0.0883  0.8745 -0.1253
  728MOL0     C  341   8.512   3.700   7.387 -1.7262 -1.2737  0.9188
  728MOL0     C  342   8.567   3.833   7.441 -0.3612 -0.2137  0.4610
  728MOL0     N  343   8.711   3.808   7.473 -0.5895 -0.1556  0.7834
  728MOL0     C  344   8.734   3.732   7.586 -0.9104  1.2379 -0.3009
  728MOL0     C  345   8.865   3.697   7.590 -0.1487  0.5478  0.3128
  728MOL0     C  346   8.933   3.611   7.690  0.2424 -0.1827  0.0605
  728MOL0     C  347   8.956   3.468   7.648  0.4682  0.0371 -0.0769
  728MOL0     C  348   8.834   3.380   7.633 -1.5801 -0.3219  0.3824
  728MOL0     C  349   8.861   3.232   7.608  0.0594  0.2463 -0.6822
  728MOL0     O  350   8.738   3.170   7.567 -0.3321  0.7844 -0.0553
  728MOL0     C  351   8.652   3.103   7.652 -0.1188 -0.6786 -0.2743
  728MOL0     C  352   8.625   3.139   7.782 -0.8332  0.6008 -0.3212
  728MOL0     C  353   8.542   3.055   7.868 -0.4420 -0.0294  0.1404
  728MOL0     C  354   8.524   3.107   8.010  0.4597 -0.1668  0.5015
  728MOL0     C  355   8.492   2.920   7.818  0.5569  0.6286  1.3013
  728MOL0     C  356   8.408   2.833   7.895  0.7286 -0.1693  0.5884
  728MOL0     O  357   8.322   2.899   7.978  1.6018 -0.4628  0.0442
  728MOL0     C  358   8.254   2.832   8.084 -0.1844 -0.2499  0.3715
  728MOL0     C  359   8.256   2.894   8.209  0.1995 -0.4790  0.2090
  728MOL0     C  360   8.183   2.837   8.318  0.8928  0.8549 -0.1066
  728MOL0     C  361   8.117   2.716   8.308  0.5885 -0.0730 -0.5725
  728MOL0     O  362   8.052   2.671   8.429 -0.0282 -0.3851 -0.6262
  728MOL0     C  363   7.981   2.545   8.422  0.1776  0.1242 -0.7952
  728MOL0     C  364   7.931   2.501   8.556  0.1714  0.4907 -0.5014
  728MOL0     C  365   8.036   2.460   8.651 -0.1714  0.9131 -0.4751
  728MOL0     C  366   7.985   2.360   8.756 -0.5829  0.2180  0.3281
  728MOL0     C  367   8.090   2.286   8.845 -0.0978 -0.5874  0.6550
  728MOL0     C  368   8.008   2.206   8.946  0.6554 -0.4305 -0.0220
  728MOL0     C  369   8.105   2.099   9.011  0.8322 -0.3663  0.7198
  728MOL0     C  370   8.043   1.962   8.986  0.4461  0.6814  0.8524
  728MOL0    Cl  371   8.152   1.834   9.064 -0.3041 -0.1105 -0.3988
  728MOL0     C  372   8.133   2.641   8.188 -0.0282  0.9322 -1.2563
  728MOL0     C  373   8.207   2.698   8.086  0.7717  0.3888  0.6863
  728MOL0     O  374   8.408   2.715   7.868 -0.4192  0.4608 -0.1674
  728MOL0     C  375   8.530   2.888   7.684  0.3281 -1.4749  0.0592
  728MOL0     C  376   8.605   2.977   7.611  1.5141  0.0114  0.0918
  728MOL0     N  377   8.916   3.748   7.473  0.2555  1.4780  0.8726
  728MOL0     N  378   8.824   3.822   7.410  0.0226 -0.2229 -0.4252
  728MOL0     C  379   8.057   3.033   7.217  0.6939 -0.8188 -0.4991
  728MOL0     C  380   8.014   2.938   7.128 -0.0852 -0.9387  0.3275
  728MOL0     C  381   7.872   2.585   6.904 -0.0152  0.5082 -0.0179
  728MOL0     C  382   7.931   2.627   6.780  0.6650 -0.4105  0.0673
  728MOL0     C  383   7.899   2.568   6.657 -0.2098 -0.3638 -0.6171
  728MOL0     C  384   7.814   2.452   6.654 -0.5528  0.0541  0.7218
  728MOL0     O  385   7.770   2.394   6.542 -1.2873  0.0962  0.0874
  728MOL0     C  386   7.699   2.477   6.449  0.5822  0.7164 -1.0431
  728MOL0     C  387   7.702   2.424   6.312  0.1710 -0.6418  0.2371
  728MOL0     C  388   7.611   2.303   6.297  0.6388  0.2539 -0.6459
  728MOL0     C  389   7.632   2.192   6.190  0.7271 -0.4848  0.0430
  728MOL0     C  390   7.604   2.244   6.053 -0.1510 -0.3608  0.2970
  728MOL0     C  391   7.580   2.301   5.947  0.1757 -0.2492 -0.0887
  728MOL0     C  392   7.772   2.404   6.770  0.3709  0.1798 -0.5554
  728MOL0     C  393   7.797   2.464   6.894  0.2937 -1.0014 -0.3025
  728MOL0     C  394   7.717   2.420   7.010  0.6452  0.2479  0.0094
  728MOL0     H  395   8.196   2.671   7.221 -2.4185 -0.8677  1.2129
  728MOL0     H  396   8.246   2.815   7.397 -2.3744 -0.7929  0.6592
  728MOL0     H  397   8.334   3.172   7.305  3.1943  0.1019  0.1920
  728MOL0     H  398   8.393   3.056   7.427  0.2795  0.9953  2.1018
  728MOL0     H  399   8.307   3.209   7.603 -1.0717 -1.6038 -1.0113
  728MOL0     H  400   8.458   3.249   7.520  0.6293  0.7869 -0.8177
  728MOL0     H  401   8.302   3.399   7.357 -0.3664 -0.4318  0.0656
  728MOL0     H  402   8.174   3.371   7.474  0.1393 -0.5049  0.1572
  728MOL0     H  403   8.341   3.460   7.664 -1.6694 -0.8063 -0.6873
  728MOL0     H  404   8.462   3.477   7.541  0.3381 -0.5352  1.2130
  728MOL0     H  405   8.335   3.683   7.618 -0.9631  0.9209 -0.6569
  728MOL0     H  406   8.197   3.629   7.522 -0.5064  0.1297 -0.5202
  728MOL0     H  407   8.324   3.633   7.316 -2.0517  0.3368  1.0575
  728MOL0     H  408   8.313   3.794   7.398  0.6703  1.2725  1.1848
  728MOL0     H  409   8.544   3.693   7.282 -1.0718  4.2589  0.4198
  728MOL0     H  410   8.555   3.618   7.445  0.5977  1.0998  2.8676
  728MOL0     H  411   8.569   3.913   7.367 -1.5204  0.8937  1.5853
  728MOL0     H  412   8.514   3.860   7.533  0.0884  2.4810  0.0237
  728MOL0     H  413   8.661   3.712   7.663 -1.7700  0.8123 -1.1988
  728MOL0     H  414   8.888   3.630   7.788  1.2655  0.0371  0.4979
  728MOL0     H  415   9.031   3.651   7.715 -0.5670  1.7776  0.3018
  728MOL0     H  416   8.999   3.473   7.548 -0.7185  1.2656 -0.5417
  728MOL0     H  417   9.027   3.425   7.721 -2.5600  0.5763  3.4814
  728MOL0     H  418   8.778   3.382   7.728 -1.2663  2.3048  0.6014
  728MOL0     H  419   8.754   3.407   7.563 -0.8933 -0.6905 -0.5629
  728MOL0     H  420   8.939   3.232   7.531  0.5976  0.1325 -0.1379
  728MOL0     H  421   8.910   3.173   7.685 -2.6070  0.6989  1.5202
  728MOL0     H  422   8.689   3.210   7.834 -0.4669  0.8414 -1.0921
  728MOL0     H  423   8.425   3.151   8.026 -0.4368 -2.0316  0.3559
  728MOL0     H  424   8.596   3.186   8.033 -1.8681  2.4954 -0.7585
  728MOL0     H  425   8.523   3.022   8.078  0.8433 -0.9863 -0.4999
  728MOL0     H  426   8.295   2.994   8.220 -1.3507  0.0117  1.7774
  728MOL0     H  427   8.168   2.886   8.413 -0.6271 -0.5824  0.4532
  728MOL0     H  428   7.891   2.556   8.361  0.8237  1.4800 -1.5309
  728MOL0     H  429   8.044   2.470   8.374  1.2140  0.1954  0.3918
  728MOL0     H  430   7.876   2.584   8.603  0.7994 -0.0827  1.3309
  728MOL0     H  431   7.862   2.417   8.541 -1.5011  1.6049  0.5680
  728MOL0     H  432   8.095   2.544   8.689  0.2236  0.0853  0.7847
  728MOL0     H  433   8.106   2.399   8.594 -0.5484  1.4730 -1.5790
  728MOL0     H  434   7.917   2.287   8.712 -1.1110  1.8694 -1.7560
  728MOL0     H  435   7.922   2.421   8.820 -2.1568  2.1789 -2.8461
  728MOL0     H  436   8.160   2.220   8.793  0.4690 -1.5310  2.4903
  728MOL0     H  437   8.153   2.353   8.903  0.1207 -0.7910  0.6533
  728MOL0     H  438   7.921   2.152   8.907 -0.9542  1.2980  1.0165
  728MOL0     H  439   7.973   2.279   9.019  0.3371 -0.3699 -0.2367
  728MOL0     H  440   8.133   2.111   9.116  1.9778  2.2906  0.1892
  728MOL0     H  441   8.195   2.111   8.951  0.1706  2.5851  0.1562
  728MOL0     H  442   8.024   1.950   8.879 -0.0407  3.8924  0.4959
  728MOL0     H  443   7.945   1.972   9.033  1.1781  3.4691  1.9790
  728MOL0     H  444   8.096   2.539   8.185 -0.1155  0.8447  0.9530
  728MOL0     H  445   8.215   2.643   7.993  1.6204 -0.5924  1.3273
  728MOL0     H  446   8.506   2.793   7.636 -1.1029 -0.9613 -0.2882
  728MOL0     H  447   8.632   2.963   7.507 -1.6652  1.1535 -1.0117
  728MOL0     H  448   8.010   3.131   7.207 -0.2044 -1.0664  1.0220
  728MOL0     H  449   7.937   2.983   7.066  0.2159  1.3992  1.5742
  728MOL0     H  450   7.996   2.713   6.785 -0.6189  0.5709  0.4189
  728MOL0     H  451   7.937   2.589   6.557  1.0774 -1.1348 -0.3208
  728MOL0     H  452   7.594   2.473   6.478  0.6075  1.3166 -0.8522
  728MOL0     H  453   7.722   2.584   6.442  1.4761  0.9468  3.0806
  728MOL0     H  454   7.800   2.379   6.298  1.7967  1.5831  3.3274
  728MOL0     H  455   7.672   2.501   6.240  2.9389 -1.2583 -1.7448
  728MOL0     H  456   7.625   2.249   6.391 -0.3948  0.3836 -0.3965
  728MOL0     H  457   7.509   2.343   6.292  0.1587 -1.0224 -1.3126
  728MOL0     H  458   7.561   2.111   6.208 -1.2736  1.5016  1.6522
  728MOL0     H  459   7.734   2.157   6.179  0.4496 -0.7192 -2.7364
  728MOL0     H  460   7.558   2.339   5.850 -1.1163  0.7839  0.5879
  728MOL0     H  461   7.699   2.324   6.766 -1.3450  1.7098 -0.8815
  728MOL0     H  462   7.633   2.361   6.973  2.5328 -1.8598 -1.2502
  728MOL0     H  463   7.784   2.364   7.077  1.4211 -0.1843 -1.0803
  728MOL0     H  464   7.675   2.503   7.066 -2.7615 -3.9331  4.5498
  729MOL0     O  465   2.614   8.347   3.192  0.2124 -0.0012 -0.1418
  729MOL0     C  466   2.639   8.252   3.113 -0.3825  0.7224  0.7339
  729MOL0     O  467   2.551   8.191   3.038 -0.4318 -0.3293 -0.0988
  729MOL0     C  468   2.437   8.266   3.008 -2.1184  0.2848  0.3243
  729MOL0     C  469   2.435   8.374   2.916 -1.2798 -0.2464 -0.7545
  729MOL0     C  470   2.320   8.437   2.885  0.6186 -0.7303  0.4282
  729MOL0     C  471   2.195   8.390   2.934 -0.5710 -1.3195  0.1379
  729MOL0     O  472   2.078   8.448   2.881  0.3845 -0.8017  0.0518
  729MOL0     C  473   2.086   8.524   2.752  0.3816 -0.1275 -0.2121
  729MOL0     C  474   1.949   8.584   2.738  1.5441  0.2282 -0.0101
  729MOL0     C  475   1.921   8.650   2.609 -0.7407 -0.2895 -0.4801
  729MOL0     C  476   1.770   8.691   2.589  0.0688 -0.5235  0.4214
  729MOL0     C  477   1.744   8.755   2.459  0.6753 -1.1140 -1.2368
  729MOL0     C  478   1.644   8.875   2.466 -0.3393  0.1562  0.1755
  729MOL0     C  479   1.668   8.959   2.346 -0.2582 -0.8284  0.6745
  729MOL0     C  480   1.532   9.037   2.325 -0.4934  0.7050  0.1880
  729MOL0     N  481   1.444   8.958   2.231 -0.3373 -0.9524 -0.3596
  729MOL0     C  482   1.483   8.878   2.122 -0.1114  0.0467  0.1370
  729MOL0     C  483   1.384   8.781   2.111 -0.4207 -0.8392 -0.0786
  729MOL0     C  484   1.411   8.664   2.026 -0.1398 -0.0361  0.4986
  729MOL0     C  485   1.535   8.591   2.065  0.2105  0.0370  0.1439
  729MOL0     C  486   1.513   8.445   2.114  0.7730  0.0088  0.0613
  729MOL0     C  487   1.628   8.371   2.177  0.4965 -0.4732 -0.6898
  729MOL0     O  488   1.742   8.407   2.103  0.0054  1.2264 -0.6196
  729MOL0     C  489   1.860   8.392   2.167  0.8200  0.4370 -0.0656
  729MOL0     C  490   1.967   8.431   2.087  1.2535  0.2494  0.9334
  729MOL0     C  491   2.093   8.394   2.130 -0.2913 -0.2982  0.8922
  729MOL0     C  492   2.212   8.415   2.028  0.0276  0.0383 -0.3814
  729MOL0     C  493   2.117   8.356   2.262 -0.1394 -0.0701 -0.2864
  729MOL0     C  494   2.250   8.341   2.329  0.1817 -0.1042  0.7957
  729MOL0     O  495   2.278   8.392   2.451  0.0594 -1.0838  0.2922
  729MOL0     C  496   2.407   8.383   2.498 -0.1764  1.3064 -0.0104
  729MOL0     C  497   2.496   8.493   2.481 -0.8077  0.3253  0.5193
  729MOL0     C  498   2.619   8.501   2.544  0.3339  0.4124  0.2659
  729MOL0     C  499   2.669   8.401   2.630  0.1332  0.3394 -0.2823
  729MOL0     O  500   2.790   8.418   2.683  0.1141  0.0480  0.1149
  729MOL0     C  501   2.833   8.330   2.788 -0.0715 -0.6574 -0.6932
  729MOL0     C  502   2.958   8.400   2.854  0.5587 -0.7908  0.5735
  729MOL0     C  503   2.903   8.520   2.944 -1.2976 -0.2440  0.4458
  729MOL0     C  504   3.010   8.609   3.021 -0.1384 -0.5376 -0.3170
  729MOL0     C  505   3.130   8.535   3.100  0.6529 -0.4171  0.5220
  729MOL0     C  506   3.263   8.619   3.111  0.5949 -0.2734 -0.8143
  729MOL0     C  507   3.252   8.762   3.170 -0.1221  0.3795  0.0694
  729MOL0     C  508   3.184   8.757   3.319  0.0133 -0.1477  0.4084
  729MOL0    Cl  509   3.228   8.904   3.409 -0.0348  0.4292 -0.0839
  729MOL0     C  510   2.583   8.291   2.645  0.5043  0.6535 -0.0527
  729MOL0     C  511   2.452   8.284   2.587 -0.0528 -0.2398 -0.6016
  729MOL0     O  512   2.331   8.282   2.259  0.5450  0.8885  0.0094
  729MOL0     C  513   2.007   8.315   2.339 -0.5704 -0.6157 -0.3158
  729MOL0     C  514   1.885   8.318   2.283  0.5195 -0.7972  0.4107
  729MOL0     N  515   1.293   8.801   2.201 -0.1448 -0.2209  0.5172
  729MOL0     N  516   1.331   8.903   2.279  0.5823  0.4445 -0.2459
  729MOL0     C  517   2.193   8.280   3.025 -0.3158 -0.3731  0.4046
  729MOL0     C  518   2.320   8.223   3.055 -0.2096 -0.1396  0.3970
  729MOL0     C  519   2.773   8.183   3.109  0.1928  0.5799 -0.8286
  729MOL0     C  520   2.790   8.069   3.028 -0.9264  0.5954 -0.6941
  729MOL0     C  521   2.917   7.998   3.022 -0.1519  0.8890 -0.2678
  729MOL0     C  522   3.024   8.037   3.096  0.1626 -1.0905 -0.1349
  729MOL0     O  523   3.153   7.985   3.100 -0.1670  0.1420  0.6970
  729MOL0     C  524   3.183   7.888   2.993  0.6225  0.4819 -0.1000
  729MOL0     C  525   3.335   7.858   3.005 -0.2827  0.6880 -0.4516
  729MOL0     C  526   3.398   7.803   2.874  0.2348 -0.0202  0.7426
  729MOL0     C  527   3.533   7.741   2.880  0.0936  0.4029 -0.0487
  729MOL0     C  528   3.530   7.605   2.930 -1.4560  1.2757 -1.0179
  729MOL0     C  529   3.542   7.492   2.980 -0.0549 -0.5810 -0.5460
  729MOL0     C  530   3.002   8.152   3.178  0.5501  0.2605  0.2280
  729MOL0     C  531   2.883   8.222   3.188  0.6371  0.6653  0.5768
  729MOL0     C  532   2.883   8.330   3.292 -0.2080 -0.2331  0.4860
  729MOL0     H  533   2.535   8.398   2.882 -1.2673  2.8754  1.0870
  729MOL0     H  534   2.336   8.518   2.815  2.1879  0.0081  1.5934
  729MOL0     H  535   2.104   8.456   2.669  0.1614  0.6696 -0.9350
  729MOL0     H  536   2.149   8.614   2.747 -1.6348  1.3134 -3.5972
  729MOL0     H  537   1.867   8.512   2.748  1.1634  0.4068 -1.6050
  729MOL0     H  538   1.949   8.652   2.823  3.3934 -0.0980  0.2821
  729MOL0     H  539   1.983   8.740   2.594  1.3273 -1.7720 -1.4143
  729MOL0     H  540   1.959   8.588   2.527  1.0122  3.1562 -2.5430
  729MOL0     H  541   1.716   8.598   2.609  0.2833 -0.2746  2.3863
  729MOL0     H  542   1.741   8.760   2.669 -2.6877 -0.4552 -0.5446
  729MOL0     H  543   1.709   8.681   2.387  0.4439 -1.3460 -0.8863
  729MOL0     H  544   1.836   8.794   2.415 -1.0173  2.0960 -2.2287
  729MOL0     H  545   1.540   8.842   2.468 -0.0995 -1.0729 -2.6953
  729MOL0     H  546   1.677   8.928   2.556  0.0644 -1.6186  1.1050
  729MOL0     H  547   1.680   8.898   2.256 -2.2380  0.0382 -0.2355
  729MOL0     H  548   1.748   9.031   2.365  0.3252 -1.1511 -0.4438
  729MOL0     H  549   1.492   9.071   2.421 -0.9946 -0.9675  0.6047
  729MOL0     H  550   1.565   9.120   2.262 -1.9650  0.4189 -1.0064
  729MOL0     H  551   1.571   8.884   2.059  0.8210 -2.1313  1.1204
  729MOL0     H  552   1.422   8.696   1.922 -0.9400  2.0059  1.0064
  729MOL0     H  553   1.328   8.593   2.028  1.3841 -1.9171  0.6622
  729MOL0     H  554   1.601   8.574   1.979 -1.0175 -1.4300 -0.5425
  729MOL0     H  555   1.594   8.640   2.143  0.0124  2.7140 -1.2566
  729MOL0     H  556   1.422   8.434   2.173  2.0600  0.6808  2.2820
  729MOL0     H  557   1.477   8.391   2.026 -1.6232  1.7673 -0.1602
  729MOL0     H  558   1.636   8.394   2.284 -1.5891 -4.1273  0.4524
  729MOL0     H  559   1.620   8.262   2.181  2.7162 -0.7840  4.7596
  729MOL0     H  560   1.956   8.470   1.987  2.0936  1.1840  1.1962
  729MOL0     H  561   2.253   8.321   1.991  0.0009  0.2206 -0.8813
  729MOL0     H  562   2.301   8.466   2.066  0.3287 -0.5281 -0.3040
  729MOL0     H  563   2.183   8.456   1.931 -1.4035  1.2809  0.5283
  729MOL0     H  564   2.456   8.580   2.431  0.8008  2.2630  2.4067
  729MOL0     H  565   2.687   8.584   2.526  0.4341  0.3773  0.4768
  729MOL0     H  566   2.754   8.328   2.864 -1.1494 -1.8572 -1.7866
  729MOL0     H  567   2.866   8.232   2.752  2.9911  0.9559 -2.7324
  729MOL0     H  568   3.004   8.328   2.923 -0.4677 -1.5528  0.4885
  729MOL0     H  569   3.035   8.437   2.787  1.0634 -0.8700  1.1022
  729MOL0     H  570   2.834   8.469   3.011 -1.6330 -2.0319 -1.1792
  729MOL0     H  571   2.844   8.595   2.889 -1.6884  1.7450  3.3697
  729MOL0     H  572   2.957   8.669   3.096  1.1214 -0.6212  0.6630
  729MOL0     H  573   3.054   8.684   2.954  0.3483 -0.8747 -0.3799
  729MOL0     H  574   3.082   8.508   3.194 -2.3128 -2.0796 -1.3028
  729MOL0     H  575   3.165   8.442   3.056 -1.0976 -0.1957 -1.4834
  729MOL0     H  576   3.311   8.619   3.013  2.0191  6.7526 -0.6333
  729MOL0     H  577   3.333   8.563   3.173  0.3757 -2.0933 -2.1629
  729MOL0     H  578   3.199   8.833   3.106 -1.5705 -0.4059  0.3739
  729MOL0     H  579   3.354   8.801   3.176 -0.1251  0.9772 -2.6680
  729MOL0     H  580   3.198   8.675   3.391 -1.1960  1.6103  2.7607
  729MOL0     H  581   3.077   8.752   3.298 -0.0862  0.2824  0.7972
  729MOL0     H  582   2.620   8.203   2.696  0.0348 -1.2705 -2.8397
  729MOL0     H  583   2.387   8.200   2.605  1.8779 -1.3393  1.7762
  729MOL0     H  584   2.028   8.265   2.433 -2.3984  3.0690  2.3293
  729MOL0     H  585   1.793   8.283   2.329 -0.3619 -0.9552 -1.3659
  729MOL0     H  586   2.092   8.250   3.051 -2.1491  0.6255 -4.6132
  729MOL0     H  587   2.332   8.137   3.121  1.7811 -0.5541 -0.4330
  729MOL0     H  588   2.711   8.048   2.957 -1.9758  0.6354  0.4407
  729MOL0     H  589   2.928   7.910   2.959  3.0203  0.3132  0.8978
  729MOL0     H  590   3.124   7.796   2.999  1.5857 -0.1906 -0.6629
  729MOL0     H  591   3.162   7.940   2.899 -1.1380 -0.6954 -0.4016
  729MOL0     H  592   3.345   7.780   3.081 -0.3724  1.5922  0.5164
  729MOL0     H  593   3.395   7.938   3.050  0.5973  0.0475 -0.4497
  729MOL0     H  594   3.326   7.733   2.830  2.0954 -0.0322 -2.5599
  729MOL0     H  595   3.408   7.878   2.795 -0.4125  1.4341  1.9860
  729MOL0     H  596   3.586   7.801   2.954  2.7528  0.0861 -1.5851
  729MOL0     H  597   3.596   7.754   2.791  1.3072  1.8730  0.9876
  729MOL0     H  598   3.562   7.405   3.040  0.7642  1.0530  1.7017
  729MOL0     H  599   3.078   8.172   3.253  0.5094 -4.7028  1.9400
  729MOL0     H  600   2.980   8.333   3.343 -0.9931  2.1491  2.0045
  729MOL0     H  601   2.878   8.421   3.232 -0.2798 -1.4130 -1.3683
  729MOL0     H  602   2.809   8.337   3.373  2.0356  1.3730  2.5318
  730MOL0     O  603   8.382   1.993   7.991  0.4170  0.0146 -0.0470
  730MOL0     C  604   8.484   1.934   7.990 -0.5347  0.5473 -0.6810
  730MOL0     O  605   8.599   1.978   8.045  0.2304 -0.2654 -0.6205
  730MOL0     C  606   8.578   2.090   8.130  0.0889 -0.7795  0.5638
  730MOL0     C  607   8.539   2.068   8.261  0.1215  0.2616  0.6235
  730MOL0     C  608   8.502   2.172   8.353 -0.0885  0.6099 -0.1229
  730MOL0     C  609   8.518   2.298   8.303 -0.6362 -1.2734 -0.5870
  730MOL0     O  610   8.514   2.404   8.392 -0.2182 -0.5120  0.0369
  730MOL0     C  611   8.434   2.404   8.505 -0.6799  0.0311 -0.2094
  730MOL0     C  612   8.516   2.419   8.634 -0.3719  0.0314  0.2908
  730MOL0     C  613   8.541   2.566   8.687 -0.3841  0.3559  0.5442
  730MOL0     C  614   8.422   2.626   8.755  0.5925 -1.1093  0.0541
  730MOL0     C  615   8.425   2.778   8.751 -0.6051  0.6917 -0.4408
  730MOL0     C  616   8.296   2.853   8.797  0.1022  0.5763  0.2830
  730MOL0     C  617   8.269   2.839   8.948  0.2936  0.7383 -0.2511
  730MOL0     C  618   8.316   2.949   9.043 -0.4010 -1.1903 -0.7829
  730MOL0     N  619   8.265   3.078   9.002  0.2010  0.3483 -0.3274
  730MOL0     C  620   8.138   3.111   8.984  0.6095  0.6530 -0.2695
  730MOL0     C  621   8.125   3.220   8.912 -0.2928  0.7440 -0.1066
  730MOL0     C  622   8.000   3.282   8.883 -0.4593 -0.6920  0.0565
  730MOL0     C  623   7.946   3.246   8.748  0.0564  0.2283  0.0110
  730MOL0     C  624   7.888   3.103   8.734  0.3770  0.6585 -0.5586
  730MOL0     C  625   7.799   3.089   8.602 -0.6110  0.4856  0.0555
  730MOL0     O  626   7.884   3.036   8.495  0.5248  0.2451 -0.0058
  730MOL0     C  627   7.952   3.128   8.418 -0.4101  0.0477 -0.5964
  730MOL0     C  628   7.864   3.222   8.351 -0.9457  0.4133 -0.3573
  730MOL0     C  629   7.917   3.332   8.273 -0.4707 -0.1607  0.1287
  730MOL0     C  630   7.821   3.412   8.184 -0.0207 -0.8609  0.5510
  730MOL0     C  631   8.056   3.356   8.283  0.1194  0.0731 -0.9630
  730MOL0     C  632   8.123   3.470   8.210 -0.7040  0.6420  1.0098
  730MOL0     O  633   8.249   3.448   8.156  1.0862 -0.5146  0.2953
  730MOL0     C  634   8.325   3.546   8.098  0.0375  0.0686  0.1396
  730MOL0     C  635   8.360   3.673   8.145 -0.6466 -1.1299 -0.1479
  730MOL0     C  636   8.439   3.763   8.080  0.4966  0.7375  0.1682
  730MOL0     C  637   8.496   3.735   7.953 -0.7949  1.1315 -0.6369
  730MOL0     O  638   8.585   3.817   7.886  0.0524  0.0261 -0.3183
  730MOL0     C  639   8.660   3.909   7.972 -0.2953 -0.6811  0.1933
  730MOL0     C  640   8.741   4.019   7.892  0.5093 -0.1876 -0.5133
  730MOL0     C  641   8.644   4.107   7.811 -0.6071 -0.9841  0.5476
  730MOL0     C  642   8.725   4.209   7.730  0.0411  0.0572  0.4097
  730MOL0     C  643   8.635   4.291   7.636  0.1378  0.9794 -0.6099
  730MOL0     C  644   8.579   4.418   7.716 -0.1830 -0.5741 -0.7215
  730MOL0     C  645   8.686   4.511   7.775 -0.1027  0.0909  0.1270
  730MOL0     C  646   8.779   4.568   7.676 -0.6711 -0.4705 -0.0544
  730MOL0    Cl  647   8.896   4.699   7.736 -0.1118  0.2522 -0.1350
  730MOL0     C  648   8.464   3.600   7.903 -0.2478 -0.6009  0.1930
  730MOL0     C  649   8.387   3.510   7.981 -0.7757 -0.4560  1.5352
  730MOL0     O  650   8.062   3.576   8.213  0.4098  0.2011  0.3304
  730MOL0     C  651   8.135   3.272   8.357 -0.2775  0.4861  0.0250
  730MOL0     C  652   8.088   3.153   8.426 -0.2736 -0.6658 -0.5872
  730MOL0     N  653   8.260   3.255   8.881 -0.3677 -0.1904  0.0789
  730MOL0     N  654   8.342   3.167   8.935  0.0824  0.3436 -0.5432
  730MOL0     C  655   8.560   2.322   8.170  0.2344 -0.9989 -0.1724
  730MOL0     C  656   8.590   2.217   8.085  0.5030 -0.2585 -0.2938
  730MOL0     C  657   8.498   1.804   7.904  0.4910 -0.6488 -0.7952
  730MOL0     C  658   8.614   1.727   7.906  0.0928 -1.0471  0.5162
  730MOL0     C  659   8.618   1.599   7.843 -0.8276 -0.0067  0.7528
  730MOL0     C  660   8.510   1.549   7.774  0.4269  0.2181  0.5436
  730MOL0     O  661   8.524   1.424   7.722 -0.1342  0.1682 -0.0748
  730MOL0     C  662   8.472   1.398   7.585  0.6041  0.8796  0.8650
  730MOL0     C  663   8.517   1.507   7.476 -0.1099  0.7296 -0.2048
  730MOL0     C  664   8.409   1.530   7.365 -1.6091  0.5121  0.4577
  730MOL0     C  665   8.433   1.424   7.260  0.3138  0.7125  0.4108
  730MOL0     C  666   8.360   1.300   7.288 -1.0555 -0.1526  0.1425
  730MOL0     C  667   8.300   1.195   7.310  0.3201  0.4700  1.8743
  730MOL0     C  668   8.392   1.620   7.768 -0.5321 -0.5311 -0.1887
  730MOL0     C  669   8.391   1.749   7.841  0.1257  0.8965  0.9496
  730MOL0     C  670   8.254   1.818   7.829 -0.1067 -1.3101 -0.2207
  730MOL0     H  671   8.541   1.963   8.290  3.5669 -0.0421 -0.2808
  730MOL0     H  672   8.471   2.145   8.453  1.4670  2.5702  0.9622
  730MOL0     H  673   8.379   2.310   8.510 -2.8258  1.2848  1.7376
  730MOL0     H  674   8.360   2.484   8.494 -0.2014  0.2976 -1.7359
  730MOL0     H  675   8.459   2.372   8.715  0.9816  0.3320  1.4620
  730MOL0     H  676   8.604   2.356   8.619 -1.9530 -2.2695  0.0853
  730MOL0     H  677   8.626   2.567   8.756  1.1468 -0.2561 -1.2406
  730MOL0     H  678   8.571   2.615   8.593 -0.5089  1.2102  0.9397
  730MOL0     H  679   8.334   2.610   8.692  0.7289  0.6722 -0.6431
  730MOL0     H  680   8.408   2.583   8.854  2.5916  1.4962  1.6008
  730MOL0     H  681   8.451   2.819   8.653  0.4687  0.8815 -0.0820
  730MOL0     H  682   8.501   2.812   8.822  1.2188 -0.7197 -1.6314
  730MOL0     H  683   8.297   2.961   8.774 -0.4786  0.0271 -2.8138
  730MOL0     H  684   8.209   2.813   8.743 -1.4043  2.2341  1.3573
  730MOL0     H  685   8.307   2.744   8.985 -0.2455  1.0024  1.0309
  730MOL0     H  686   8.161   2.836   8.964 -0.2080  0.2190 -3.2035
  730MOL0     H  687   8.268   2.928   9.139  2.8209  3.7222  2.3321
  730MOL0     H  688   8.423   2.964   9.057 -0.3243 -2.7084  0.5449
  730MOL0     H  689   8.055   3.054   9.026  0.5158 -0.4946 -1.9247
  730MOL0     H  690   8.011   3.391   8.884  5.5172 -0.9360  1.8890
  730MOL0     H  691   7.926   3.254   8.958 -2.5481  3.9190  0.0544
  730MOL0     H  692   7.867   3.320   8.734 -1.0524 -1.2545 -2.1034
  730MOL0     H  693   8.030   3.261   8.679 -0.0151  1.2906  0.1240
  730MOL0     H  694   7.977   3.039   8.727 -1.6117 -2.1629 -2.6601
  730MOL0     H  695   7.835   3.070   8.824  1.7442 -0.6068 -0.1617
  730MOL0     H  696   7.713   3.023   8.621  0.5009 -1.1530 -0.3529
  730MOL0     H  697   7.768   3.191   8.578 -0.6892  0.7618  1.2850
  730MOL0     H  698   7.759   3.192   8.354 -1.0400  0.2876 -2.7064
  730MOL0     H  699   7.847   3.392   8.080  0.0876 -2.4505  0.8457
  730MOL0     H  700   7.818   3.519   8.207 -2.0083  0.1962 -3.6315
  730MOL0     H  701   7.719   3.373   8.197 -0.6732 -1.2852 -4.1997
  730MOL0     H  702   8.317   3.685   8.244 -0.7098 -1.8900 -0.0721
  730MOL0     H  703   8.443   3.865   8.117  3.2234  0.7011  0.2157
  730MOL0     H  704   8.589   3.967   8.032 -0.9123 -3.4963  2.3927
  730MOL0     H  705   8.731   3.854   8.035 -0.0599 -1.5047 -0.7581
  730MOL0     H  706   8.799   4.080   7.962  1.5625 -2.7818  1.0335
  730MOL0     H  707   8.814   3.977   7.823 -0.3142 -2.4180 -0.1416
  730MOL0     H  708   8.579   4.157   7.884  0.1250  1.4813 -0.3860
  730MOL0     H  709   8.589   4.037   7.747  2.1690 -3.3854  0.5854
  730MOL0     H  710   8.804   4.156   7.675  0.2484  1.4726 -0.6929
  730MOL0     H  711   8.769   4.272   7.807  3.2563  2.0423 -2.7578
  730MOL0     H  712   8.698   4.327   7.554  1.5580 -3.2310 -1.6233
  730MOL0     H  713   8.558   4.225   7.596 -1.6345  0.4218  3.2364
  730MOL0     H  714   8.518   4.386   7.801  1.9363  0.7171  1.4197
  730MOL0     H  715   8.520   4.481   7.648  0.2214  2.0871  1.2610
  730MOL0     H  716   8.743   4.461   7.854  0.1861  1.0262  0.5181
  730MOL0     H  717   8.647   4.592   7.837  0.2896  1.1129 -0.9226
  730MOL0     H  718   8.739   4.602   7.581 -1.1541  0.1113  0.3505
  730MOL0     H  719   8.841   4.487   7.636  2.6840  2.4753 -1.2465
  730MOL0     H  720   8.512   3.570   7.811  0.0450  0.7688 -0.1345
  730MOL0     H  721   8.351   3.415   7.941 -1.3721  0.1175  0.6921
  730MOL0     H  722   8.240   3.297   8.365  0.7357 -2.5230 -1.9840
  730MOL0     H  723   8.155   3.091   8.485  1.7765  2.1842  0.2468
  730MOL0     H  724   8.584   2.418   8.124 -2.1918 -1.2453 -2.1516
  730MOL0     H  725   8.630   2.225   7.984  1.2133 -1.3160 -0.1055
  730MOL0     H  726   8.704   1.765   7.953  0.3908 -2.0931  0.8326
  730MOL0     H  727   8.712   1.547   7.833 -1.8588 -1.5758 -1.6298
  730MOL0     H  728   8.489   1.299   7.543  0.0829  1.6444 -1.2759
  730MOL0     H  729   8.364   1.399   7.596  0.3797 -0.7171 -0.8540
  730MOL0     H  730   8.614   1.494   7.429  1.5761  4.3343  1.8095
  730MOL0     H  731   8.525   1.603   7.528 -0.7074  1.2991 -1.1276
  730MOL0     H  732   8.306   1.528   7.403 -1.4998  1.2462  0.8120
  730MOL0     H  733   8.433   1.625   7.317 -1.8938  0.0288 -0.6719
  730MOL0     H  734   8.540   1.410   7.242  1.0035  4.4674  0.8231
  730MOL0     H  735   8.382   1.456   7.168 -0.1142 -3.6630 -1.1599
  730MOL0     H  736   8.251   1.101   7.324 -0.7120  0.7123  0.1867
  730MOL0     H  737   8.311   1.591   7.702  1.9769 -0.7451 -3.3904
  730MOL0     H  738   8.270   1.919   7.791  0.2402 -0.3361  2.2831
  730MOL0     H  739   8.184   1.777   7.757  2.2439 -3.3088 -1.5174
  730MOL0     H  740   8.200   1.831   7.924  0.9186  0.6083  0.1662
  731MOL0     O  741   3.431   5.186   7.825  0.6547 -1.0759 -0.1570
  731MOL0     C  742   3.496   5.144   7.728  0.5564  0.3878 -0.4092
  731MOL0     O  743   3.472   5.026   7.664 -0.3821  0.0232 -1.0974
  731MOL0     C  744   3.405   4.927   7.718 -0.2735 -0.4456 -0.4781
  731MOL0     C  745   3.428   4.872   7.846  0.4701  0.1024  0.2514
  731MOL0     C  746   3.363   4.759   7.903 -0.0767 -0.0738 -0.0315
  731MOL0     C  747   3.262   4.695   7.830  0.8545  0.1870  0.1062
  731MOL0     O  748   3.198   4.592   7.897 -0.1975 -0.3012  0.1101
  731MOL0     C  749   3.159   4.480   7.809 -0.9456 -0.2037  0.1603
  731MOL0     C  750   3.204   4.339   7.868 -0.6307 -0.3811 -0.4887
  731MOL0     C  751   3.357   4.342   7.885  0.2177  0.2465  0.0494
  731MOL0     C  752   3.399   4.391   8.023 -0.5220  0.0707  0.8701
  731MOL0     C  753   3.557   4.384   8.055  0.5288  0.0283  0.2548
  731MOL0     C  754   3.654   4.492   8.001 -0.3390  0.7991  0.5181
  731MOL0     C  755   3.800   4.475   8.058  0.0066  0.9985  1.5084
  731MOL0     C  756   3.893   4.562   7.974  0.6373 -0.2954 -0.1297
  731MOL0     N  757   4.031   4.553   8.021 -0.6597  0.4737 -0.2410
  731MOL0     C  758   4.078   4.632   8.126 -0.0839  0.4571  0.0164
  731MOL0     C  759   4.210   4.617   8.112  0.2748  0.2075  0.6840
  731MOL0     C  760   4.318   4.662   8.204  0.4241 -0.3287  0.7316
  731MOL0     C  761   4.295   4.605   8.340  0.3182  0.7538 -0.4273
  731MOL0     C  762   4.396   4.651   8.441  0.4598 -1.0868  0.2019
  731MOL0     C  763   4.387   4.797   8.473 -1.2404 -0.3977  0.3070
  731MOL0     O  764   4.247   4.817   8.500  0.4758 -0.1669  1.0060
  731MOL0     C  765   4.220   4.842   8.630  0.0140  0.3737 -0.0501
  731MOL0     C  766   4.261   4.956   8.698  0.2591  0.0055  0.2635
  731MOL0     C  767   4.207   5.006   8.820  0.1070  1.1936 -0.6232
  731MOL0     C  768   4.267   5.129   8.880 -0.1894 -0.9952  0.2711
  731MOL0     C  769   4.090   4.932   8.873  0.3167 -0.6299 -0.0127
  731MOL0     C  770   4.010   4.974   8.989 -1.0572  0.2155  0.2791
  731MOL0     O  771   3.916   4.880   9.023  0.2801  0.4575  0.3844
  731MOL0     C  772   3.850   4.894   9.139 -0.0585  0.5188 -1.4226
  731MOL0     C  773   3.750   4.991   9.163 -0.5507  1.0633  0.2241
  731MOL0     C  774   3.661   4.980   9.264 -0.7248  0.3759  0.6153
  731MOL0     C  775   3.661   4.858   9.341  0.4391  0.0747  1.0880
  731MOL0     O  776   3.559   4.831   9.416  0.3923 -0.2950  0.2674
  731MOL0     C  777   3.525   4.705   9.474 -0.1181 -0.6752 -0.4949
  731MOL0     C  778   3.377   4.690   9.509  0.5375  0.3382 -0.4032
  731MOL0     C  779   3.314   4.793   9.601  0.1033 -0.0161 -0.2498
  731MOL0     C  780   3.398   4.845   9.717 -0.1685 -1.0780  0.2687
  731MOL0     C  781   3.424   4.743   9.826 -0.3654  0.4213  1.2309
  731MOL0     C  782   3.483   4.800   9.955  0.8049 -1.0564 -0.0496
  731MOL0     C  783   3.618   4.870   9.947  0.1589 -0.4001  0.4335
  731MOL0     C  784   3.686   4.894  10.076 -0.3861 -0.6536 -0.6442
  731MOL0    Cl  785   3.727   4.741  10.159 -0.0062  0.0429  0.0737
  731MOL0     C  786   3.759   4.765   9.330  0.7410  0.1946 -0.2755
  731MOL0     C  787   3.857   4.782   9.226  0.6792 -0.1930 -1.0096
  731MOL0     O  788   4.026   5.084   9.039  0.3243  0.2461 -0.0206
  731MOL0     C  789   4.052   4.814   8.808 -0.0534 -0.6137 -0.3933
  731MOL0     C  790   4.119   4.774   8.687 -0.1271  1.2570 -0.8261
  731MOL0     N  791   4.250   4.528   8.005  0.8703 -0.3366  0.2513
  731MOL0     N  792   4.136   4.486   7.955 -0.4860 -0.1109 -0.4410
  731MOL0     C  793   3.225   4.754   7.707  0.8667 -0.7476 -0.3047
  731MOL0     C  794   3.297   4.866   7.651  0.7960  0.2704 -0.4228
  731MOL0     C  795   3.584   5.235   7.660  0.7409 -1.3202 -0.9047
  731MOL0     C  796   3.602   5.432   7.745  0.1445  0.2487 -0.8349
  731MOL0     C  797   3.718   5.580   7.647  0.4769  0.2808  0.0716
  731MOL0     C  798   3.812   5.531   7.465 -0.4718  0.0789 -0.8390
  731MOL0     O  799   3.881   5.623   7.396  0.0042 -0.3762  0.2040
  731MOL0     C  800   3.889   5.752   7.466 -0.0557  0.5627  0.6102
  731MOL0     C  801   3.937   5.863   7.375 -0.3886 -0.4060 -0.3864
  731MOL0     C  802   3.983   5.973   7.462 -0.5544 -0.1543 -0.3501
  731MOL0     C  803   4.011   6.102   7.374  0.1531  0.3806  0.2789
  731MOL0     C  804   4.129   6.092   7.292  0.6808  0.4230  0.0526
  731MOL0     C  805   4.227   6.084   7.228 -0.2744  0.3923 -0.1105
  731MOL0     C  806   3.793   5.338   7.384 -0.0849 -0.4798 -0.5707
  731MOL0     C  807   3.675   5.190   7.482 -0.1246 -0.6851  0.3927
  731MOL0     C  808   3.651   5.070   7.402  0.0560  0.1851 -0.0523
  731MOL0     H  809   3.514   4.909   7.900  1.0360  2.3648 -1.9994
  731MOL0     H  810   3.389   4.708   7.996 -0.1883 -1.9326 -0.9784
  731MOL0     H  811   3.219   4.493   7.719  1.1069 -2.4520  1.0833
  731MOL0     H  812   3.052   4.462   7.799 -0.8814 -0.7396  0.4086
  731MOL0     H  813   3.153   4.322   7.963  1.0075 -0.4355  0.4089
  731MOL0     H  814   3.167   4.263   7.798 -2.1745 -0.6546  0.5715
  731MOL0     H  815   3.384   4.236   7.890 -0.1625  0.1563  0.2793
  731MOL0     H  816   3.406   4.400   7.806 -1.2416  0.0487 -1.0440
  731MOL0     H  817   3.363   4.493   8.036 -0.6600  0.0004  1.0417
  731MOL0     H  818   3.359   4.325   8.101 -1.1428 -0.3434  0.2085
  731MOL0     H  819   3.596   4.283   8.035 -1.1742 -0.5480 -0.3259
  731MOL0     H  820   3.562   4.412   8.160  1.6398  1.4765 -0.1547
  731MOL0     H  821   3.653   4.488   7.891 -0.1653 -0.3537  0.5368
  731MOL0     H  822   3.611   4.587   8.031 -2.5824 -0.5977  2.0558
  731MOL0     H  823   3.831   4.370   8.052  0.0402  1.0830 -1.4597
  731MOL0     H  824   3.801   4.499   8.164 -0.8435 -1.1095  2.0400
  731MOL0     H  825   3.898   4.528   7.870 -2.0174 -1.9976  0.2023
  731MOL0     H  826   3.864   4.667   7.989 -0.9865 -0.8912  1.2991
  731MOL0     H  827   4.025   4.690   8.201  4.2732  2.0755  2.1861
  731MOL0     H  828   4.315   4.771   8.200  1.8787 -0.2908 -0.4463
  731MOL0     H  829   4.421   4.634   8.176  1.4005  0.9937  2.7834
  731MOL0     H  830   4.188   4.615   8.362 -0.3177 -2.1946 -1.6331
  731MOL0     H  831   4.296   4.496   8.337  0.3263  0.6848  1.3457
  731MOL0     H  832   4.367   4.592   8.528 -2.3184 -0.1000  0.0716
  731MOL0     H  833   4.500   4.631   8.413  0.4877 -2.5334  1.2286
  731MOL0     H  834   4.453   4.819   8.557 -1.2250  0.2422  0.1297
  731MOL0     H  835   4.425   4.854   8.388 -1.1351 -2.9485 -1.4797
  731MOL0     H  836   4.330   5.018   8.642  0.8285  1.3219  2.3338
  731MOL0     H  837   4.370   5.139   8.843  0.5722 -0.3342  2.4155
  731MOL0     H  838   4.281   5.115   8.987  0.8955  0.6880  0.3893
  731MOL0     H  839   4.210   5.221   8.866  1.1418  0.1374  1.9102
  731MOL0     H  840   3.750   5.073   9.093  1.9967  0.6133 -0.3888
  731MOL0     H  841   3.583   5.051   9.287  0.0821  0.5123  3.2893
  731MOL0     H  842   3.546   4.630   9.398 -2.3903 -1.9765  0.0613
  731MOL0     H  843   3.581   4.685   9.566  0.7033  2.0240 -0.3056
  731MOL0     H  844   3.318   4.669   9.419 -1.6235 -2.6458  1.4851
  731MOL0     H  845   3.373   4.596   9.565 -0.6282  1.1518  0.9572
  731MOL0     H  846   3.224   4.759   9.652  0.6276  1.8032  2.0845
  731MOL0     H  847   3.289   4.871   9.527  0.7387  0.4415  0.0110
  731MOL0     H  848   3.341   4.925   9.765 -1.4239 -0.5352 -2.0126
  731MOL0     H  849   3.492   4.889   9.681 -1.5638  1.9415  0.0731
  731MOL0     H  850   3.327   4.695   9.843 -0.9732  1.0874 -0.1770
  731MOL0     H  851   3.488   4.664   9.784 -1.7286  0.7050 -1.5913
  731MOL0     H  852   3.482   4.719  10.029 -0.0434  0.5776  1.8128
  731MOL0     H  853   3.408   4.871   9.989 -0.0479 -1.8391 -0.2419
  731MOL0     H  854   3.599   4.960   9.887 -0.5622 -0.5145  0.4773
  731MOL0     H  855   3.687   4.820   9.879 -2.5511 -2.5258 -0.9498
  731MOL0     H  856   3.623   4.960  10.137  1.1148  1.0169 -0.8386
  731MOL0     H  857   3.779   4.951  10.066 -1.2587  1.0888  0.5574
  731MOL0     H  858   3.770   4.667   9.376 -0.7953 -1.5989 -3.3994
  731MOL0     H  859   3.931   4.705   9.205 -0.2289 -2.1106  2.0201
  731MOL0     H  860   3.964   4.759   8.837 -0.8090  1.3125  1.1674
  731MOL0     H  861   4.087   4.680   8.645  1.0904  1.3988 -2.1479
  731MOL0     H  862   3.148   4.710   7.645  1.3703 -1.5360 -0.3879
  731MOL0     H  863   3.274   4.905   7.552  0.1915  0.0421 -0.3761
  731MOL0     H  864   3.560   5.449   7.843  2.1941  0.6298  0.0242
  731MOL0     H  865   3.730   5.672   7.704  0.5150  0.8197 -0.7911
  731MOL0     H  866   3.788   5.783   7.493  0.0845  0.5702  1.1360
  731MOL0     H  867   3.958   5.744   7.551 -0.8886  2.6947  1.5474
  731MOL0     H  868   3.857   5.899   7.310  0.9120 -0.0191 -1.8257
  731MOL0     H  869   4.023   5.819   7.325  0.1725 -1.4099  1.3698
  731MOL0     H  870   3.908   5.997   7.537  2.8945  2.7083  2.5449
  731MOL0     H  871   4.079   5.949   7.509  1.2224  3.5290 -1.7296
  731MOL0     H  872   4.031   6.185   7.442 -2.0653 -0.1637  1.7086
  731MOL0     H  873   3.927   6.122   7.307  0.2221 -1.2320 -0.3397
  731MOL0     H  874   4.319   6.078   7.173 -0.4162 -1.4343 -0.2382
  731MOL0     H  875   3.840   5.312   7.290  0.0824  1.2250 -0.9806
  731MOL0     H  876   3.732   5.044   7.332  0.9294 -1.5155  1.4981
  731MOL0     H  877   3.641   4.986   7.471  0.3786  0.3663  0.2235
  731MOL0     H  878   3.554   5.066   7.353 -1.8856  1.5428  3.3657
  732MOL0     O  879   1.998   1.617   9.476  0.1624 -0.3765  0.0588
  732MOL0     C  880   2.101   1.551   9.482  0.4824  0.0348 -0.0923
  732MOL0     O  881   2.232   1.594   9.511 -0.1121 -0.7019  0.1601
  732MOL0     C  882   2.238   1.721   9.571  0.3628 -0.1461  0.2565
  732MOL0     C  883   2.251   1.839   9.495 -0.6869  0.3394 -0.5571
  732MOL0     C  884   2.291   1.961   9.557 -0.0240  0.6908  0.1250
  732MOL0     C  885   2.296   1.967   9.695 -1.2661  0.0878  0.3261
  732MOL0     O  886   2.337   2.073   9.772  0.6539  0.0551 -0.2413
  732MOL0     C  887   2.353   2.201   9.712  0.3046  0.7507  0.8494
  732MOL0     C  888   2.319   2.278   9.839 -0.5627 -0.6771 -0.2075
  732MOL0     C  889   2.381   2.416   9.837  0.2339 -0.3458 -0.0294
  732MOL0     C  890   2.346   2.507   9.954 -0.7364 -1.0256 -0.1205
  732MOL0     C  891   2.207   2.560   9.956 -0.3342  0.0218 -0.1931
  732MOL0     C  892   2.174   2.655   9.841 -0.5859 -0.3543 -0.1929
  732MOL0     C  893   2.020   2.671   9.825 -0.6933  0.8668  0.4297
  732MOL0     C  894   1.985   2.720   9.685 -0.1621  0.2255 -0.0184
  732MOL0     N  895   2.027   2.858   9.648  0.8089  0.9870  0.4600
  732MOL0     C  896   2.117   2.896   9.546  0.9583 -0.3878 -0.5155
  732MOL0     C  897   2.107   3.033   9.541  0.3083  0.4137 -0.0630
  732MOL0     C  898   2.188   3.129   9.458 -0.2202  0.0438  0.4366
  732MOL0     C  899   2.091   3.226   9.388 -0.2331  0.0576 -0.1409
  732MOL0     C  900   2.163   3.337   9.327 -0.4643 -0.3525 -0.3488
  732MOL0     C  901   2.277   3.297   9.240 -0.5760 -0.7904  1.0153
  732MOL0     O  902   2.228   3.217   9.127  0.5809 -0.7281 -0.3921
  732MOL0     C  903   2.310   3.180   9.030 -0.7186  0.9485 -0.2542
  732MOL0     C  904   2.444   3.204   9.037 -0.4729  0.8994  0.0918
  732MOL0     C  905   2.541   3.168   8.939  0.6007  0.3995 -0.5892
  732MOL0     C  906   2.685   3.199   8.965 -0.4524 -0.3777  0.4455
  732MOL0     C  907   2.482   3.106   8.820  0.0656  0.2390 -0.2588
  732MOL0     C  908   2.567   3.066   8.709  0.5976 -0.5642  1.0283
  732MOL0     O  909   2.485   3.040   8.592  1.0948  0.0031  0.2465
  732MOL0     C  910   2.538   2.997   8.474 -0.5228  0.7709  1.0975
  732MOL0     C  911   2.564   3.084   8.369  0.7318  0.0693 -0.7198
  732MOL0     C  912   2.605   3.044   8.246 -0.1275  0.7209 -0.2206
  732MOL0     C  913   2.633   2.909   8.222  0.2193 -0.8464 -0.3218
  732MOL0     O  914   2.671   2.881   8.092  0.5005  0.1797 -0.2700
  732MOL0     C  915   2.698   2.744   8.069 -0.7041  0.1574  0.3262
  732MOL0     C  916   2.720   2.720   7.918  0.1766  0.8671 -0.0453
  732MOL0     C  917   2.843   2.798   7.859  1.1269  0.3893  0.3646
  732MOL0     C  918   2.843   2.779   7.701  0.0537  0.0736  0.2290
  732MOL0     C  919   2.986   2.778   7.649 -0.7436 -1.4061  0.0138
  732MOL0     C  920   3.002   2.734   7.501 -0.2999  0.4357 -1.0277
  732MOL0     C  921   2.954   2.588   7.463  0.0095  1.3425  0.2027
  732MOL0     C  922   3.001   2.470   7.549  0.0769 -0.4674  0.3863
  732MOL0    Cl  923   3.163   2.450   7.489  0.3352  0.0441  0.0748
  732MOL0     C  924   2.623   2.821   8.331 -0.1983  0.6967  0.8372
  732MOL0     C  925   2.583   2.865   8.457 -0.6411 -0.1264 -0.3821
  732MOL0     O  926   2.687   3.068   8.712  0.0472  0.3399 -0.2618
  732MOL0     C  927   2.342   3.088   8.810  0.6753  0.2165 -0.4467
  732MOL0     C  928   2.257   3.114   8.917 -0.4492 -0.1896  0.2368
  732MOL0     N  929   2.022   3.068   9.643  0.4021  0.5806  0.4081
  732MOL0     N  930   1.974   2.969   9.712  0.3803  0.0237 -0.6618
  732MOL0     C  931   2.276   1.855   9.774 -0.1462  0.8636  0.4384
  732MOL0     C  932   2.254   1.731   9.715  0.2864  0.6151  0.7603
  732MOL0     C  933   2.089   1.399   9.463  0.8123  0.0861 -0.1128
  732MOL0     C  934   1.973   1.358   9.382 -0.1530 -0.0080  0.2446
  732MOL0     C  935   1.955   1.227   9.355 -0.8131 -0.0314  0.1534
  732MOL0     C  936   2.037   1.132   9.402  0.5590  0.0040 -0.2490
  732MOL0     O  937   2.005   1.005   9.361 -0.2556  0.4257 -0.0462
  732MOL0     C  938   1.983   0.908   9.459 -0.7280  0.3923  0.3365
  732MOL0     C  939   2.089   0.796   9.432 -0.3510  0.8737  0.3632
  732MOL0     C  940   2.056   0.698   9.317  0.0874  0.5661  1.4919
  732MOL0     C  941   1.929   0.615   9.332  1.1201  1.4304 -0.9352
  732MOL0     C  942   1.941   0.524   9.451 -0.5898 -0.6504  0.5504
  732MOL0     C  943   1.924   0.435   9.528 -0.2948 -0.2838  0.2686
  732MOL0     C  944   2.147   1.165   9.478  0.2688  0.9223 -0.6866
  732MOL0     C  945   2.177   1.299   9.517  0.1453  0.2531 -0.1171
  732MOL0     C  946   2.302   1.319   9.600  0.7143  0.1741 -0.0705
  732MOL0     H  947   2.261   1.816   9.389  0.3779 -2.0393 -0.0135
  732MOL0     H  948   2.318   2.044   9.492 -0.1223 -0.5861 -1.6312
  732MOL0     H  949   2.284   2.222   9.629  1.6184  2.1036  0.0505
  732MOL0     H  950   2.456   2.210   9.676 -1.1433 -0.1553 -4.4302
  732MOL0     H  951   2.212   2.284   9.865 -0.4727 -1.3273  0.3370
  732MOL0     H  952   2.373   2.224   9.917 -0.2298 -2.3876 -1.5718
  732MOL0     H  953   2.489   2.403   9.837  0.5620  1.9745  0.9487
  732MOL0     H  954   2.359   2.460   9.739 -1.4748 -1.8116 -0.3621
  732MOL0     H  955   2.357   2.450  10.047 -3.7015 -1.5942 -0.0051
  732MOL0     H  956   2.414   2.592   9.966 -1.4556 -0.4446 -0.0428
  732MOL0     H  957   2.213   2.618  10.048  3.2415  0.6887 -0.7100
  732MOL0     H  958   2.143   2.472   9.972  1.5938 -1.1188  1.8745
  732MOL0     H  959   2.210   2.757   9.860 -3.1409  0.4789  0.5441
  732MOL0     H  960   2.226   2.608   9.756  2.0638 -1.3413  1.8300
  732MOL0     H  961   1.973   2.731   9.904 -2.5761 -0.8152  0.6450
  732MOL0     H  962   1.979   2.573   9.848 -1.2313  0.8857 -0.4339
  732MOL0     H  963   2.021   2.654   9.606 -2.1239 -0.2139 -0.5855
  732MOL0     H  964   1.876   2.714   9.680 -0.1008 -0.1677 -1.0108
  732MOL0     H  965   2.190   2.841   9.488 -0.4211  0.3181 -3.1310
  732MOL0     H  966   2.235   3.071   9.378 -1.1955  0.3689 -0.4005
  732MOL0     H  967   2.266   3.180   9.515  1.0224  0.0914 -1.2381
  732MOL0     H  968   2.041   3.167   9.310 -0.6006 -1.6416  1.3325
  732MOL0     H  969   2.012   3.261   9.456 -1.8253  1.5953 -2.6098
  732MOL0     H  970   2.086   3.390   9.270 -0.6264 -0.5001 -0.2714
  732MOL0     H  971   2.198   3.407   9.402 -0.4802 -0.1384 -0.5399
  732MOL0     H  972   2.320   3.387   9.197  0.8499 -0.4282  3.0907
  732MOL0     H  973   2.355   3.244   9.295 -0.3927 -0.1541  1.3773
  732MOL0     H  974   2.482   3.253   9.127 -2.4421  4.6942 -0.9319
  732MOL0     H  975   2.685   3.276   9.042  1.9030  0.4692 -0.3126
  732MOL0     H  976   2.725   3.248   8.876  0.4671  1.9385  2.0344
  732MOL0     H  977   2.751   3.119   8.999  0.7112  0.2484 -0.2762
  732MOL0     H  978   2.556   3.187   8.403  0.7108 -0.3533  0.6097
  732MOL0     H  979   2.637   3.126   8.183 -0.7033  3.3201  2.6435
  732MOL0     H  980   2.787   2.715   8.124 -0.5550  0.3943  0.2104
  732MOL0     H  981   2.635   2.667   8.115  0.8485  0.5471  3.3776
  732MOL0     H  982   2.729   2.611   7.910  2.5932  0.9654  0.6474
  732MOL0     H  983   2.631   2.757   7.867 -2.2887 -1.2908  2.3302
  732MOL0     H  984   2.930   2.760   7.914  0.0790  0.6369  2.2888
  732MOL0     H  985   2.822   2.901   7.890  0.4112  0.2200  0.4599
  732MOL0     H  986   2.787   2.864   7.661  4.0904  3.2615  0.6747
  732MOL0     H  987   2.791   2.689   7.666 -1.7956  1.5858 -1.1594
  732MOL0     H  988   3.029   2.879   7.656  0.6260 -1.8287 -1.5431
  732MOL0     H  989   3.058   2.720   7.708 -0.1894 -0.2846  0.4864
  732MOL0     H  990   3.109   2.742   7.483 -0.1248  0.4756 -0.0020
  732MOL0     H  991   2.938   2.806   7.449 -2.0530  0.1557  0.6291
  732MOL0     H  992   2.990   2.561   7.363 -2.4585 -1.1987 -0.1356
  732MOL0     H  993   2.846   2.575   7.454  0.3431 -1.6613 -0.5423
  732MOL0     H  994   2.945   2.378   7.531  0.6944 -0.9800  1.0574
  732MOL0     H  995   3.022   2.485   7.655  1.7567 -3.6163  0.6211
  732MOL0     H  996   2.651   2.717   8.322  0.0593  0.6697  1.8581
  732MOL0     H  997   2.577   2.796   8.540  3.0011  2.6267  2.5228
  732MOL0     H  998   2.301   3.021   8.734  2.4173  0.6419 -1.8279
  732MOL0     H  999   2.151   3.094   8.912 -1.0006  2.3442  0.5574
  732MOL0     H 1000   2.267   1.856   9.882 -1.0248 -1.1281  0.4129
  732MOL0     H 1001   2.243   1.641   9.774  3.6994 -1.4068 -1.4091
  732MOL0     H 1002   1.905   1.426   9.333  0.2914 -0.5208 -1.1126
  732MOL0     H 1003   1.869   1.199   9.295 -1.0525  3.4148 -1.3868
  732MOL0     H 1004   2.006   0.951   9.557 -0.0435  0.1764  0.2754
  732MOL0     H 1005   1.878   0.878   9.458 -1.1205  1.3549  3.0777
  732MOL0     H 1006   2.118   0.752   9.528  2.0978 -0.0327 -0.6948
  732MOL0     H 1007   2.183   0.846   9.406 -0.1015 -0.1035 -0.7448
  732MOL0     H 1008   2.041   0.747   9.221 -0.3451 -2.4785 -0.1001
  732MOL0     H 1009   2.141   0.633   9.291 -0.1914  0.6699  0.2635
  732MOL0     H 1010   1.925   0.557   9.239  1.7990  0.2484 -0.2540
  732MOL0     H 1011   1.843   0.682   9.338  1.6926  2.0586  2.7315
  732MOL0     H 1012   1.927   0.361   9.605  2.2226 -1.7355 -1.0836
  732MOL0     H 1013   2.210   1.078   9.496 -0.5455 -0.4060 -3.6543
  732MOL0     H 1014   2.294   1.385   9.687  0.7424  0.0771  0.0051
  732MOL0     H 1015   2.344   1.222   9.627 -1.3833 -1.2370 -1.5305
  732MOL0     H 1016   2.375   1.367   9.534  0.1073  3.1014  1.1931
  733MOL0     O 1017   8.065   3.767   4.090  0.2187  0.7860  0.3564
  733MOL0     C 1018   8.075   3.778   3.973 -0.9848 -0.4441 -0.6559
  733MOL0     O 1019   8.181   3.836   3.911 -0.2200  0.6645 -0.6882
  733MOL0     C 1020   8.259   3.910   3.999 -0.8043 -0.5288 -0.3724
  733MOL0     C 1021   8.369   3.853   4.063 -0.0889  0.7674 -0.1217
  733MOL0     C 1022   8.453   3.922   4.153 -0.7110  0.1063 -0.7624
  733MOL0     C 1023   8.425   4.056   4.177 -0.3462  0.3659 -0.9795
  733MOL0     O 1024   8.501   4.146   4.255  0.6275  0.2555 -0.6191
  733MOL0     C 1025   8.579   4.075   4.360 -0.1391 -0.5585  0.8518
  733MOL0     C 1026   8.618   4.177   4.465  0.2733 -0.0658 -0.2022
  733MOL0     C 1027   8.686   4.107   4.588 -0.1942  0.5354 -0.3811
  733MOL0     C 1028   8.759   4.214   4.669 -0.0131 -0.2548 -0.1482
  733MOL0     C 1029   8.846   4.148   4.781  0.0997  0.0577  0.2842
  733MOL0     C 1030   8.909   4.254   4.872  0.4541  0.5603 -0.0884
  733MOL0     C 1031   9.033   4.321   4.813 -1.5788 -0.9397 -0.6723
  733MOL0     C 1032   9.156   4.221   4.821  0.5443 -0.3411 -0.8684
  733MOL0     N 1033   9.277   4.269   4.885  0.9087  0.0713 -0.6317
  733MOL0     C 1034   9.296   4.337   5.000  0.2820  0.0147 -0.7823
  733MOL0     C 1035   9.427   4.343   5.021  0.7053  0.7907  0.6861
  733MOL0     C 1036   9.498   4.427   5.129  0.2623 -0.7216 -1.1516
  733MOL0     C 1037   9.485   4.574   5.093  1.0729 -0.7620  0.1938
  733MOL0     C 1038   9.575   4.651   5.193  1.0568 -0.3242 -0.2741
  733MOL0     C 1039   9.540   4.800   5.190  0.0990 -0.4211  0.5914
  733MOL0     O 1040   9.604   4.864   5.088  0.4170  0.4883 -0.1712
  733MOL0     C 1041   9.531   4.899   4.976  0.4728  0.5759 -0.2691
  733MOL0     C 1042   9.589   4.914   4.851 -0.1740  0.3058 -0.9554
  733MOL0     C 1043   9.520   4.970   4.741  0.4739  0.3542  0.6314
  733MOL0     C 1044   9.591   4.976   4.605 -0.0517 -0.3028 -0.2262
  733MOL0     C 1045   9.393   5.018   4.750  0.8984 -0.1142  0.5728
  733MOL0     C 1046   9.317   5.097   4.648  0.1234  0.1418  0.0875
  733MOL0     O 1047   9.230   5.188   4.696  0.3250  1.5366  0.5195
  733MOL0     C 1048   9.163   5.280   4.615 -0.0121 -0.6218 -0.3968
  733MOL0     C 1049   9.087   5.244   4.507  0.3464 -0.1583 -0.1718
  733MOL0     C 1050   9.012   5.336   4.436  0.7363  0.0461  0.1747
  733MOL0     C 1051   9.026   5.469   4.459 -0.2386  0.2750  0.4939
  733MOL0     O 1052   8.952   5.558   4.379  0.6540  0.6762 -0.5232
  733MOL0     C 1053   8.922   5.685   4.423 -0.4912 -0.5507 -0.2494
  733MOL0     C 1054   8.829   5.741   4.323  0.1910 -1.1186 -0.1236
  733MOL0     C 1055   8.673   5.695   4.334 -0.4169 -1.1104 -0.3350
  733MOL0     C 1056   8.625   5.727   4.475  0.5181  0.1190  0.2669
  733MOL0     C 1057   8.476   5.752   4.481  0.0617 -0.6350  0.6195
  733MOL0     C 1058   8.431   5.799   4.614  0.3281 -0.7353  0.0485
  733MOL0     C 1059   8.279   5.818   4.594 -0.7957 -0.5627 -0.0601
  733MOL0     C 1060   8.202   5.839   4.726 -0.2513  0.3084  1.1872
  733MOL0    Cl 1061   8.029   5.838   4.699  0.0625  0.5099  0.4744
  733MOL0     C 1062   9.106   5.512   4.567 -0.1409  0.0284 -0.2099
  733MOL0     C 1063   9.180   5.413   4.641  0.4008  0.2990  0.1461
  733MOL0     O 1064   9.343   5.079   4.529 -0.1027 -0.7174  0.1942
  733MOL0     C 1065   9.329   4.996   4.876  0.6253  0.3225 -0.2226
  733MOL0     C 1066   9.389   4.936   4.980  0.2212  1.0982  0.3423
  733MOL0     N 1067   9.494   4.288   4.911  0.2855  0.5130  0.2162
  733MOL0     N 1068   9.397   4.252   4.829 -0.4942 -0.3032  0.4508
  733MOL0     C 1069   8.312   4.114   4.118  0.2480  0.1874 -0.7072
  733MOL0     C 1070   8.225   4.048   4.030 -0.7474 -0.7667 -0.0051
  733MOL0     C 1071   7.973   3.712   3.880  0.2290 -0.4403 -0.2513
  733MOL0     C 1072   8.008   3.662   3.747  0.2596  0.1383 -0.6666
  733MOL0     C 1073   7.918   3.611   3.661 -0.2368  0.2596  0.2619
  733MOL0     C 1074   7.789   3.601   3.698  0.3655 -1.0538 -0.5026
  733MOL0     O 1075   7.700   3.547   3.611  0.2727  0.4147  0.1570
  733MOL0     C 1076   7.563   3.530   3.638  0.8463 -0.8088  0.4166
  733MOL0     C 1077   7.512   3.403   3.727 -0.6720 -0.2747  0.4811
  733MOL0     C 1078   7.611   3.280   3.700  0.4055 -0.8895  0.9628
  733MOL0     C 1079   7.580   3.160   3.796  0.4184  0.0154 -0.1864
  733MOL0     C 1080   7.676   3.054   3.796 -0.3369  0.2905 -0.6377
  733MOL0     C 1081   7.753   2.964   3.790  0.2103 -0.6721 -0.9813
  733MOL0     C 1082   7.750   3.634   3.824 -0.3072  0.2042 -0.1631
  733MOL0     C 1083   7.842   3.695   3.911 -0.1247 -0.8343 -0.2026
  733MOL0     C 1084   7.782   3.729   4.054 -1.2235 -1.0623 -0.3231
  733MOL0     H 1085   8.377   3.747   4.043 -0.4415  0.3813  1.5935
  733MOL0     H 1086   8.541   3.868   4.188 -1.7477 -1.3313 -0.2792
  733MOL0     H 1087   8.674   4.032   4.327  0.8405 -0.4388  3.2579
  733MOL0     H 1088   8.518   4.000   4.411  0.4685 -0.0563  2.4023
  733MOL0     H 1089   8.687   4.252   4.425  0.2502 -1.0626 -2.2125
  733MOL0     H 1090   8.531   4.235   4.498  0.0106 -0.0075 -0.9895
  733MOL0     H 1091   8.607   4.058   4.645  0.4569  1.3758  1.3079
  733MOL0     H 1092   8.763   4.032   4.567  0.2283  1.1401 -1.0362
  733MOL0     H 1093   8.822   4.268   4.597 -1.8520  0.0522 -1.6159
  733MOL0     H 1094   8.682   4.282   4.706 -1.9392 -0.0557 -3.9903
  733MOL0     H 1095   8.928   4.092   4.736  1.7400  0.4153  2.6705
  733MOL0     H 1096   8.796   4.071   4.841  1.5942 -0.2453  1.1722
  733MOL0     H 1097   8.837   4.333   4.894 -2.3120 -1.7544 -0.2177
  733MOL0     H 1098   8.927   4.203   4.967 -1.2703 -1.9220 -0.9885
  733MOL0     H 1099   9.053   4.413   4.868 -1.8272 -1.5037  0.3955
  733MOL0     H 1100   9.023   4.346   4.707 -0.3550 -0.9610 -0.8040
  733MOL0     H 1101   9.124   4.126   4.863 -0.6371 -0.0303 -1.0519
  733MOL0     H 1102   9.182   4.195   4.718  1.3529  0.1563 -0.8013
  733MOL0     H 1103   9.224   4.378   5.071  0.2786 -0.3731 -0.5593
  733MOL0     H 1104   9.602   4.392   5.125  1.4660  2.4368 -0.9573
  733MOL0     H 1105   9.469   4.408   5.232  0.4939 -0.9577 -1.1316
  733MOL0     H 1106   9.508   4.604   4.990  1.2615 -0.9196  0.1884
  733MOL0     H 1107   9.383   4.603   5.120  0.9396 -0.7161 -0.3553
  733MOL0     H 1108   9.559   4.611   5.293  0.1183 -1.0186 -0.6835
  733MOL0     H 1109   9.682   4.651   5.168  1.6690  0.3082  2.1248
  733MOL0     H 1110   9.433   4.822   5.193  0.4821  2.4077 -1.9010
  733MOL0     H 1111   9.574   4.858   5.275 -0.9971 -2.0474  2.2318
  733MOL0     H 1112   9.691   4.878   4.848 -0.9041 -3.2780  4.0241
  733MOL0     H 1113   9.540   4.917   4.528  0.6728  1.0235 -1.7744
  733MOL0     H 1114   9.692   4.933   4.610  0.0357  0.0211  1.9579
  733MOL0     H 1115   9.595   5.080   4.573 -3.1278  0.7299  2.2783
  733MOL0     H 1116   9.098   5.142   4.470  3.9081 -0.3630  1.0725
  733MOL0     H 1117   8.948   5.290   4.362  1.8631 -2.2105  0.5087
  733MOL0     H 1118   8.885   5.683   4.526 -1.2239 -0.4779 -0.5055
  733MOL0     H 1119   9.017   5.739   4.424 -2.2184  2.7174  0.2313
  733MOL0     H 1120   8.831   5.849   4.339 -3.9715 -0.9438  0.2871
  733MOL0     H 1121   8.866   5.722   4.222 -1.1843  2.3491 -1.4494
  733MOL0     H 1122   8.667   5.586   4.327 -0.2638 -1.2711  1.6422
  733MOL0     H 1123   8.609   5.735   4.254 -0.9322 -3.0749 -0.9766
  733MOL0     H 1124   8.678   5.816   4.510  1.4638 -0.7552  1.1282
  733MOL0     H 1125   8.649   5.647   4.546  1.2788 -1.3135 -1.5330
  733MOL0     H 1126   8.448   5.828   4.408 -0.5273 -0.7326  0.7427
  733MOL0     H 1127   8.430   5.655   4.463 -0.6760  0.0431 -1.3730
  733MOL0     H 1128   8.462   5.896   4.654 -0.5554 -1.5440  2.9162
  733MOL0     H 1129   8.452   5.717   4.684  4.8174 -1.6512 -2.0057
  733MOL0     H 1130   8.229   5.740   4.535 -3.5995  2.1047 -1.5517
  733MOL0     H 1131   8.272   5.906   4.529  1.1220 -0.0665  0.3588
  733MOL0     H 1132   8.229   5.919   4.795  0.8865 -0.0311  1.1640
  733MOL0     H 1133   8.220   5.747   4.784 -0.5330 -0.7562 -0.3615
  733MOL0     H 1134   9.113   5.617   4.592 -0.4012  0.1729 -0.7394
  733MOL0     H 1135   9.242   5.437   4.726  3.6349 -0.9905 -1.6574
  733MOL0     H 1136   9.226   5.026   4.890  1.2295  2.0289  0.9699
  733MOL0     H 1137   9.336   4.925   5.073  0.9788  0.5731  0.7255
  733MOL0     H 1138   8.295   4.221   4.126  0.0346  0.0623  0.9890
  733MOL0     H 1139   8.144   4.104   3.985  1.1847  1.4697 -0.9296
  733MOL0     H 1140   8.112   3.668   3.717  2.3045  0.4589  5.1688
  733MOL0     H 1141   7.946   3.567   3.566 -2.0449 -2.8244  1.0199
  733MOL0     H 1142   7.511   3.615   3.684  0.3928 -1.6036  1.4280
  733MOL0     H 1143   7.520   3.514   3.539  1.6668 -3.7540  0.4475
  733MOL0     H 1144   7.412   3.378   3.692 -0.6800 -0.2045  0.4536
  733MOL0     H 1145   7.526   3.428   3.832 -1.6436  1.0595  0.3094
  733MOL0     H 1146   7.602   3.246   3.597  5.7835  1.9709 -0.8453
  733MOL0     H 1147   7.713   3.318   3.712  0.9722 -2.1594  0.2586
  733MOL0     H 1148   7.481   3.121   3.768  0.7932 -0.2120 -1.2706
  733MOL0     H 1149   7.566   3.196   3.898  2.8538  1.3038 -0.2324
  733MOL0     H 1150   7.824   2.886   3.805  1.3947  0.9715  3.6384
  733MOL0     H 1151   7.649   3.621   3.863  0.1328 -1.2896  0.5998
  733MOL0     H 1152   7.828   3.813   4.107 -0.4066 -1.2875 -0.6676
  733MOL0     H 1153   7.682   3.769   4.035  0.3376  4.3647  1.1215
  733MOL0     H 1154   7.781   3.634   4.106 -1.7616 -1.4573 -1.0302
  734MOL0     O 1155   7.816   6.573   9.158 -0.0589  1.0183  0.5841
  734MOL0     C 1156   7.924   6.575   9.221 -0.2411 -0.7161 -0.0718
  734MOL0     O 1157   8.033   6.505   9.195 -0.4684  0.4979 -0.2404
  734MOL0     C 1158   8.075   6.468   9.070  0.9074 -0.0660 -0.4936
  734MOL0     C 1159   8.073   6.563   8.965  0.0347 -0.0835  0.2307
  734MOL0     C 1160   8.144   6.544   8.852 -0.0482 -0.1725 -0.2465
  734MOL0     C 1161   8.219   6.424   8.839 -0.0017  0.1022 -0.5761
  734MOL0     O 1162   8.286   6.412   8.720 -0.2599  0.3109 -0.4102
  734MOL0     C 1163   8.382   6.309   8.696  0.3202 -0.4767 -0.0803
  734MOL0     C 1164   8.516   6.371   8.730  0.6730  0.9199 -0.1236
  734MOL0     C 1165   8.570   6.482   8.636  0.4273  0.2915 -1.0157
  734MOL0     C 1166   8.714   6.518   8.684 -0.6563  0.0477  0.3376
  734MOL0     C 1167   8.731   6.541   8.836  0.0743 -0.4847  0.0414
  734MOL0     C 1168   8.647   6.645   8.902 -0.4677 -0.7783 -1.1848
  734MOL0     C 1169   8.637   6.639   9.049  0.6482  0.6422 -0.0043
  734MOL0     C 1170   8.524   6.560   9.108  1.1196  0.0448 -1.1508
  734MOL0     N 1171   8.501   6.592   9.249  0.4233  0.4468  0.1314
  734MOL0     C 1172   8.384   6.650   9.299  0.5995 -0.3149 -0.3827
  734MOL0     C 1173   8.400   6.666   9.429  0.8641 -0.8389 -0.4232
  734MOL0     C 1174   8.293   6.717   9.519  0.5343 -0.3161  0.3236
  734MOL0     C 1175   8.275   6.869   9.506 -0.6468  1.5402 -0.3417
  734MOL0     C 1176   8.391   6.947   9.575  0.1043 -0.3012 -0.4706
  734MOL0     C 1177   8.366   7.099   9.609  0.2880 -0.8458 -0.6739
  734MOL0     O 1178   8.229   7.107   9.647  0.5508 -0.2656  0.4615
  734MOL0     C 1179   8.171   7.235   9.644  0.7370  0.4832 -0.1329
  734MOL0     C 1180   8.243   7.355   9.646 -0.2777  0.0923  0.2932
  734MOL0     C 1181   8.183   7.478   9.645  0.3270  0.6849  0.8334
  734MOL0     C 1182   8.273   7.599   9.652  0.5023 -0.5131 -0.0489
  734MOL0     C 1183   8.040   7.481   9.623  0.3828  0.5073  0.1290
  734MOL0     C 1184   7.962   7.601   9.576 -0.0510 -0.1595  0.2461
  734MOL0     O 1185   7.842   7.578   9.515 -0.5499  0.4890  0.1546
  734MOL0     C 1186   7.813   7.645   9.404 -1.1869 -0.2783 -0.2507
  734MOL0     C 1187   7.686   7.688   9.391  1.0162 -0.2822 -0.3349
  734MOL0     C 1188   7.656   7.767   9.276  0.1608  0.0517 -0.5236
  734MOL0     C 1189   7.751   7.783   9.171  0.7128 -0.0958 -0.1873
  734MOL0     O 1190   7.711   7.866   9.073  0.3780  0.2546  0.6685
  734MOL0     C 1191   7.807   7.927   8.997  0.0817  0.2968 -0.4151
  734MOL0     C 1192   7.752   8.020   8.897 -0.5110  0.1330 -0.1251
  734MOL0     C 1193   7.667   8.123   8.966  0.3003  0.0244 -0.1948
  734MOL0     C 1194   7.749   8.228   9.059  1.1754  0.0501 -0.6379
  734MOL0     C 1195   7.711   8.375   9.056 -0.4097  1.1203 -0.0780
  734MOL0     C 1196   7.682   8.429   8.918 -0.0142  0.6932 -0.6440
  734MOL0     C 1197   7.677   8.588   8.920 -0.1238  0.2480 -0.6520
  734MOL0     C 1198   7.674   8.653   8.782 -0.1421 -0.3684 -0.9316
  734MOL0    Cl 1199   7.530   8.598   8.683  0.0725 -0.1271  0.1512
  734MOL0     C 1200   7.877   7.729   9.183 -0.2226  0.4613 -0.5141
  734MOL0     C 1201   7.913   7.662   9.304  0.1153 -0.7590  0.3365
  734MOL0     O 1202   8.016   7.712   9.588  0.3565 -0.0861 -0.0294
  734MOL0     C 1203   7.968   7.361   9.622  0.2267  0.1866 -0.0589
  734MOL0     C 1204   8.037   7.237   9.634 -0.6224 -0.0609  0.1713
  734MOL0     N 1205   8.526   6.628   9.454  0.1644  0.4653 -0.1856
  734MOL0     N 1206   8.589   6.581   9.352 -0.5627  0.7621  0.1198
  734MOL0     C 1207   8.219   6.331   8.945 -0.0793 -0.3765 -0.1717
  734MOL0     C 1208   8.156   6.359   9.068 -0.0802 -0.4698  0.0805
  734MOL0     C 1209   7.915   6.614   9.363  0.1473 -0.2187 -0.2888
  734MOL0     C 1210   7.907   6.513   9.457  1.0014  1.4584  0.0649
  734MOL0     C 1211   7.888   6.532   9.591  0.4836 -0.7960 -0.5694
  734MOL0     C 1212   7.874   6.658   9.643  0.8043 -0.3617  1.1619
  734MOL0     O 1213   7.838   6.669   9.771 -0.1879 -0.3621  0.7759
  734MOL0     C 1214   7.783   6.782   9.830 -0.2028 -0.2838  0.3851
  734MOL0     C 1215   7.737   6.767   9.976 -0.3932  0.2360 -0.7707
  734MOL0     C 1216   7.648   6.642   9.989  0.8774  1.2551 -0.1497
  734MOL0     C 1217   7.665   6.582  10.128 -1.0071 -1.0724 -0.9245
  734MOL0     C 1218   7.599   6.673  10.217 -0.4161  0.6919 -0.6159
  734MOL0     C 1219   7.543   6.756  10.295  0.1655 -0.3256 -0.1836
  734MOL0     C 1220   7.892   6.764   9.551 -0.6792 -0.4969 -0.3251
  734MOL0     C 1221   7.915   6.742   9.411  0.2265 -1.0115  0.0626
  734MOL0     C 1222   7.948   6.850   9.308 -0.2455  0.8585 -1.0872
  734MOL0     H 1223   8.034   6.662   8.984  0.8073 -0.4176  4.5000
  734MOL0     H 1224   8.139   6.613   8.769  2.5572  0.0187 -0.3441
  734MOL0     H 1225   8.384   6.287   8.588  0.8410 -0.5927 -0.0474
  734MOL0     H 1226   8.364   6.216   8.750 -0.6864 -1.3187 -1.7685
  734MOL0     H 1227   8.515   6.405   8.834 -0.7496  3.1064 -0.7722
  734MOL0     H 1228   8.594   6.294   8.727  2.7153  2.8652  0.3018
  734MOL0     H 1229   8.576   6.457   8.529 -2.6161 -1.3621 -0.9071
  734MOL0     H 1230   8.506   6.570   8.649 -1.0055 -1.2319  4.6249
  734MOL0     H 1231   8.767   6.424   8.664 -0.0705  0.4867 -0.2327
  734MOL0     H 1232   8.772   6.585   8.619 -0.6435  1.5677  1.8310
  734MOL0     H 1233   8.830   6.582   8.856 -2.3595  5.3132  2.7342
  734MOL0     H 1234   8.725   6.446   8.890  3.0739 -1.1401 -0.5931
  734MOL0     H 1235   8.673   6.748   8.876  0.2141 -0.6400 -0.0025
  734MOL0     H 1236   8.543   6.634   8.868 -0.9986  2.1738 -0.8583
  734MOL0     H 1237   8.627   6.745   9.076 -0.2632  0.6364 -0.2811
  734MOL0     H 1238   8.724   6.592   9.095  1.3525 -1.5703 -3.2647
  734MOL0     H 1239   8.431   6.581   9.054  0.0953 -0.2588  0.4099
  734MOL0     H 1240   8.543   6.452   9.106  3.0289  0.3347 -0.2644
  734MOL0     H 1241   8.301   6.674   9.235  2.7363  0.6187 -2.9806
  734MOL0     H 1242   8.321   6.687   9.621  3.7019  2.7980  0.5540
  734MOL0     H 1243   8.198   6.669   9.495  0.8747 -1.2207  0.7457
  734MOL0     H 1244   8.276   6.894   9.400  0.3788 -0.1446 -0.7725
  734MOL0     H 1245   8.180   6.900   9.552 -0.6331  0.9205  0.1231
  734MOL0     H 1246   8.399   6.899   9.673  0.5545  0.4358 -0.1378
  734MOL0     H 1247   8.481   6.936   9.514  2.2970  1.6395  2.1406
  734MOL0     H 1248   8.421   7.134   9.697 -1.6393 -3.3445  1.6908
  734MOL0     H 1249   8.401   7.158   9.524 -2.8399  1.0771 -0.7962
  734MOL0     H 1250   8.349   7.339   9.660 -0.0644 -1.2215 -2.3871
  734MOL0     H 1251   8.253   7.667   9.735  2.0689 -0.3027  0.1885
  734MOL0     H 1252   8.262   7.661   9.563 -2.7890 -0.0001  0.5918
  734MOL0     H 1253   8.375   7.566   9.675  0.5334 -1.5520 -1.5557
  734MOL0     H 1254   7.613   7.664   9.468  2.5318  1.6866  1.8307
  734MOL0     H 1255   7.552   7.787   9.255  0.3555  1.2772 -0.3742
  734MOL0     H 1256   7.867   7.986   9.067 -1.4721 -0.7103  1.8750
  734MOL0     H 1257   7.870   7.856   8.942  2.2904  2.5258 -1.0079
  734MOL0     H 1258   7.839   8.063   8.847  0.7349  0.6242  2.3150
  734MOL0     H 1259   7.695   7.962   8.824 -0.8966 -0.5752  0.7224
  734MOL0     H 1260   7.589   8.084   9.030 -0.4075  0.2066 -0.9278
  734MOL0     H 1261   7.618   8.179   8.886  1.0596 -0.5401 -1.0935
  734MOL0     H 1262   7.856   8.223   9.040  1.3702 -0.4229  0.4802
  734MOL0     H 1263   7.751   8.191   9.163 -1.9926 -0.5626 -0.6722
  734MOL0     H 1264   7.619   8.380   9.115 -2.6862 -1.4857 -3.0569
  734MOL0     H 1265   7.783   8.445   9.099 -0.2568 -0.4510  2.4874
  734MOL0     H 1266   7.589   8.391   8.874 -0.0053  1.2261 -1.1411
  734MOL0     H 1267   7.764   8.393   8.855  0.2325 -1.2262  0.6821
  734MOL0     H 1268   7.769   8.619   8.971  0.8177 -1.1133 -1.4735
  734MOL0     H 1269   7.595   8.617   8.985  0.1816 -3.0317  1.4353
  734MOL0     H 1270   7.765   8.639   8.723  2.2961 -2.9873  2.9749
  734MOL0     H 1271   7.668   8.761   8.793 -1.8058 -0.6344  1.5048
  734MOL0     H 1272   7.960   7.740   9.114  2.1877 -0.0483  2.1049
  734MOL0     H 1273   8.018   7.637   9.314  0.6874  1.5728  0.6952
  734MOL0     H 1274   7.861   7.356   9.606  0.3256  1.8459 -1.6073
  734MOL0     H 1275   7.994   7.137   9.632  4.1462 -2.5162  2.7143
  734MOL0     H 1276   8.259   6.230   8.948 -2.1057 -1.2233  2.2022
  734MOL0     H 1277   8.167   6.287   9.149 -1.4360  1.5733  2.1959
  734MOL0     H 1278   7.916   6.412   9.420 -2.5547  1.3118 -0.7903
  734MOL0     H 1279   7.884   6.457   9.669 -2.3099  0.4125  0.5680
  734MOL0     H 1280   7.853   6.866   9.820 -1.0156  0.3756  0.1268
  734MOL0     H 1281   7.698   6.807   9.766 -0.3024  0.7539  0.8921
  734MOL0     H 1282   7.680   6.850  10.016  0.1643  0.5115 -0.5390
  734MOL0     H 1283   7.828   6.762  10.037 -0.2383 -0.7919 -1.0602
  734MOL0     H 1284   7.548   6.682   9.974 -0.1884  1.4247  5.2296
  734MOL0     H 1285   7.664   6.570   9.909 -2.1608 -1.8214  1.7197
  734MOL0     H 1286   7.768   6.575  10.165 -1.7740 -1.4363  1.2774
  734MOL0     H 1287   7.621   6.482  10.131 -5.3543  0.6392  1.8973
  734MOL0     H 1288   7.489   6.826  10.355  0.2550  0.4512 -0.9990
  734MOL0     H 1289   7.907   6.868   9.580  0.2232 -0.3346 -1.3147
  734MOL0     H 1290   8.011   6.813   9.226  0.0194  1.7556 -1.3028
  734MOL0     H 1291   7.854   6.887   9.267 -1.0218  0.3850  0.1972
  734MOL0     H 1292   7.998   6.937   9.352 -0.1636 -0.0480  0.7029
  735MOL0     O 1293  10.899  10.451   7.264  0.3183 -0.0320  0.4318
  735MOL0     C 1294  10.910  10.536   7.178 -0.0786  0.4540 -0.3915
  735MOL0     O 1295  10.851  10.533   7.056  0.1395 -0.5483 -0.6251
  735MOL0     C 1296  10.778  10.423   7.019 -0.3151  0.1111  0.0741
  735MOL0     C 1297  10.799  10.374   6.895  0.3137 -0.2483  0.1684
  735MOL0     C 1298  10.712  10.281   6.850  0.2110  0.1457 -0.0852
  735MOL0     C 1299  10.614  10.218   6.921 -0.4604 -0.4408  0.1479
  735MOL0     O 1300  10.525  10.139   6.849 -0.2293  0.8017 -0.2093
  735MOL0     C 1301  10.535  10.009   6.904  0.6172  0.5472  0.8915
  735MOL0     C 1302  10.401   9.940   6.896  0.5216  0.7847 -0.1834
  735MOL0     C 1303  10.342   9.937   6.754  0.1944 -0.6316  0.6868
  735MOL0     C 1304  10.231   9.824   6.740 -0.6224  0.1299 -0.7961
  735MOL0     C 1305  10.175   9.812   6.606  0.0784  0.2925  0.4112
  735MOL0     C 1306  10.277   9.742   6.518 -0.3179  0.3956  0.1694
  735MOL0     C 1307  10.217   9.710   6.386  1.2040 -0.2486  0.1677
  735MOL0     C 1308  10.320   9.683   6.280  0.4523 -0.5584  0.6239
  735MOL0     N 1309  10.365   9.800   6.214 -0.6940 -0.1509 -0.8156
  735MOL0     C 1310  10.299   9.887   6.131  0.4974 -0.1694 -0.0136
  735MOL0     C 1311  10.384   9.985   6.108 -1.1040  0.1841 -0.9225
  735MOL0     C 1312  10.356  10.108   6.016 -0.1545 -0.0184 -0.0326
  735MOL0     C 1313  10.226  10.182   6.041 -1.1877 -0.2019 -0.3264
  735MOL0     C 1314  10.217  10.256   6.176 -0.4892  0.1970 -0.2772
  735MOL0     C 1315  10.100  10.347   6.206  0.8810  1.1464 -0.5007
  735MOL0     O 1316   9.972  10.285   6.184  0.2001  0.3707  0.1348
  735MOL0     C 1317   9.860  10.326   6.253 -1.1417 -0.2724 -0.2966
  735MOL0     C 1318   9.851  10.434   6.343 -0.1222  0.6365 -0.3223
  735MOL0     C 1319   9.729  10.458   6.415 -0.3494 -0.1735 -0.6989
  735MOL0     C 1320   9.733  10.572   6.518 -0.4045  0.3145 -0.3209
  735MOL0     C 1321   9.608  10.383   6.374 -0.3149 -0.2168 -0.0157
  735MOL0     C 1322   9.475  10.399   6.438  0.1395 -0.3833 -0.1235
  735MOL0     O 1323   9.390  10.288   6.445  0.4395  0.8318  0.7940
  735MOL0     C 1324   9.264  10.298   6.492  0.3594  0.0527  0.4784
  735MOL0     C 1325   9.182  10.407   6.451 -0.0229 -0.5227  0.2116
  735MOL0     C 1326   9.046  10.403   6.484  0.3730 -0.6847  0.2674
  735MOL0     C 1327   8.986  10.298   6.564 -1.5203  0.2163  0.6665
  735MOL0     O 1328   8.849  10.300   6.590 -0.0701  0.0273 -0.3971
  735MOL0     C 1329   8.793  10.186   6.661 -0.1626  0.5602  0.2193
  735MOL0     C 1330   8.834  10.193   6.810  0.8815  0.6128 -0.1546
  735MOL0     C 1331   8.759  10.330   6.862 -0.6641  0.2133  0.1515
  735MOL0     C 1332   8.750  10.349   7.010 -0.7859 -0.7796  0.0650
  735MOL0     C 1333   8.681  10.488   7.060  0.0207  0.0114  0.9163
  735MOL0     C 1334   8.787  10.580   7.119  1.4533  0.0581 -0.1844
  735MOL0     C 1335   8.728  10.716   7.175  0.4338 -1.1800  0.2237
  735MOL0     C 1336   8.697  10.827   7.065  0.0060  0.5745  0.5072
  735MOL0    Cl 1337   8.668  10.971   7.158  0.2260 -0.0288  0.1278
  735MOL0     C 1338   9.074  10.197   6.607  0.1530 -0.3940  0.7440
  735MOL0     C 1339   9.214  10.192   6.573  0.5534  0.6897  0.0894
  735MOL0     O 1340   9.452  10.499   6.506 -0.7062 -0.5778 -0.3535
  735MOL0     C 1341   9.623  10.282   6.284  0.3537 -1.1911 -0.2512
  735MOL0     C 1342   9.745  10.256   6.222 -0.0067  0.5420  0.2233
  735MOL0     N 1343  10.506   9.954   6.159  0.2311  0.2255  0.3571
  735MOL0     N 1344  10.492   9.847   6.224  0.1660  0.8287  0.0385
  735MOL0     C 1345  10.607  10.251   7.055 -0.1362 -0.0864  0.2439
  735MOL0     C 1346  10.688  10.352   7.107 -0.2334  0.3908 -0.3969
  735MOL0     C 1347  11.018  10.633   7.205 -0.2136  0.1624 -0.6177
  735MOL0     C 1348  11.092  10.672   7.097  0.2501  0.0342  0.9312
  735MOL0     C 1349  11.201  10.760   7.105 -0.0178  0.6634 -0.4080
  735MOL0     C 1350  11.235  10.807   7.231  0.8735  0.2038 -1.0745
  735MOL0     O 1351  11.347  10.877   7.237 -0.1707  0.2194 -0.0793
  735MOL0     C 1352  11.327  11.011   7.262 -0.3520 -0.4984 -0.7975
  735MOL0     C 1353  11.463  11.085   7.229  0.7380 -1.3346 -0.3538
  735MOL0     C 1354  11.517  11.066   7.081 -0.7288  0.2738  0.3958
  735MOL0     C 1355  11.603  11.180   7.034  0.2652  0.3575  0.9114
  735MOL0     C 1356  11.616  11.161   6.885 -0.7415  0.0085 -0.0154
  735MOL0     C 1357  11.626  11.156   6.767 -0.2509 -0.7075  0.1087
  735MOL0     C 1358  11.155  10.773   7.347 -0.7749 -0.5464  0.4810
  735MOL0     C 1359  11.040  10.692   7.337 -0.2379  1.2444  0.0477
  735MOL0     C 1360  10.946  10.678   7.450 -0.4309  0.0410  0.6273
  735MOL0     H 1361  10.877  10.420   6.836 -1.1716 -0.8133 -2.3640
  735MOL0     H 1362  10.717  10.258   6.744 -1.3705 -2.8715  0.3854
  735MOL0     H 1363  10.583  10.005   7.002  2.9764 -0.5260 -0.2281
  735MOL0     H 1364  10.609   9.948   6.852  0.2163 -1.6964  2.7978
  735MOL0     H 1365  10.414   9.834   6.920 -2.1248  0.9282  2.4641
  735MOL0     H 1366  10.329   9.977   6.969  2.4287 -0.0380  2.2524
  735MOL0     H 1367  10.307  10.038   6.734  2.4626  0.4649  1.8336
  735MOL0     H 1368  10.419   9.922   6.677  0.2393 -1.8972  0.9586
  735MOL0     H 1369  10.277   9.734   6.782  0.4006  1.1938  0.4684
  735MOL0     H 1370  10.160   9.849   6.820  0.4716 -3.7896  1.6927
  735MOL0     H 1371  10.145   9.903   6.553 -1.4953 -1.4135 -1.8063
  735MOL0     H 1372  10.081   9.756   6.608 -0.2578  0.7726 -0.8984
  735MOL0     H 1373  10.362   9.808   6.499  0.4609  0.4981  3.4599
  735MOL0     H 1374  10.310   9.647   6.562 -2.1894 -0.0032  0.8117
  735MOL0     H 1375  10.146   9.792   6.366  2.1504  1.5014  3.2986
  735MOL0     H 1376  10.148   9.626   6.391  0.2237  0.4940 -0.4800
  735MOL0     H 1377  10.404   9.626   6.322  1.8718 -0.7454 -2.2613
  735MOL0     H 1378  10.286   9.606   6.211 -2.5926  1.3165 -0.1650
  735MOL0     H 1379  10.195   9.882   6.099  0.2131 -3.3222  1.0765
  735MOL0     H 1380  10.363  10.062   5.917  2.9411 -0.2428  0.2028
  735MOL0     H 1381  10.440  10.178   6.022  0.9843 -1.3078 -0.5194
  735MOL0     H 1382  10.205  10.254   5.962 -0.5509  0.5223  0.1499
  735MOL0     H 1383  10.150  10.103   6.040  0.5740 -2.0079  0.6849
  735MOL0     H 1384  10.222  10.187   6.262 -0.6832 -0.4515 -0.7744
  735MOL0     H 1385  10.301  10.326   6.177 -0.3002 -0.0208 -0.8823
  735MOL0     H 1386  10.105  10.377   6.311  0.2521 -4.3307  1.3784
  735MOL0     H 1387  10.090  10.443   6.154 -2.9598  1.4129  0.3929
  735MOL0     H 1388   9.942  10.480   6.379  0.6971 -0.9155 -0.3110
  735MOL0     H 1389   9.818  10.640   6.504  0.2172 -0.0605  1.4066
  735MOL0     H 1390   9.736  10.537   6.622 -4.9992  3.1344  1.0616
  735MOL0     H 1391   9.649  10.639   6.498 -0.5742 -0.5865 -3.0406
  735MOL0     H 1392   9.223  10.491   6.396  1.0809 -0.7808  0.6146
  735MOL0     H 1393   8.979  10.482   6.450  1.2028 -0.7703 -1.7086
  735MOL0     H 1394   8.684  10.191   6.650 -0.0312  1.5452 -0.8204
  735MOL0     H 1395   8.814  10.086   6.621  2.6339 -0.2062  3.1507
  735MOL0     H 1396   8.786  10.110   6.864 -0.0096  2.3216  1.8070
  735MOL0     H 1397   8.941  10.209   6.823  0.4768  2.9107  0.6835
  735MOL0     H 1398   8.659  10.339   6.817 -0.8856 -1.3733  0.2848
  735MOL0     H 1399   8.820  10.414   6.826  0.6386  0.0347  1.8319
  735MOL0     H 1400   8.847  10.340   7.059 -1.0258  0.4532  0.8108
  735MOL0     H 1401   8.682  10.274   7.051 -2.1459  1.0683  1.4141
  735MOL0     H 1402   8.628  10.536   6.977  0.0292  0.3611  1.1138
  735MOL0     H 1403   8.599  10.468   7.129 -1.4999  1.3865 -0.4119
  735MOL0     H 1404   8.859  10.590   7.036  0.1438 -1.5462 -1.6044
  735MOL0     H 1405   8.824  10.517   7.200 -1.7672  1.2722  2.4271
  735MOL0     H 1406   8.791  10.754   7.256 -1.0414 -1.7361  1.6878
  735MOL0     H 1407   8.630  10.687   7.214  0.8625 -2.7426  0.1851
  735MOL0     H 1408   8.617  10.792   7.000 -0.1852  0.3303  0.8701
  735MOL0     H 1409   8.779  10.850   6.996 -0.6096 -0.3911 -0.5771
  735MOL0     H 1410   9.042  10.108   6.662 -0.3203  0.3185  1.6452
  735MOL0     H 1411   9.271  10.101   6.589  2.2037  1.6970  0.1810
  735MOL0     H 1412   9.536  10.223   6.253 -0.9542  1.3178 -1.7384
  735MOL0     H 1413   9.758  10.180   6.147  0.1257 -0.6636  1.4349
  735MOL0     H 1414  10.521  10.212   7.110 -0.7141 -0.6422 -1.0104
  735MOL0     H 1415  10.669  10.401   7.203 -0.5718  0.3745 -0.4526
  735MOL0     H 1416  11.073  10.641   6.995 -2.5800 -3.0667  2.2216
  735MOL0     H 1417  11.261  10.795   7.022  1.3530 -0.5560  0.0300
  735MOL0     H 1418  11.252  11.049   7.192 -1.1026  0.1470  0.3116
  735MOL0     H 1419  11.296  11.030   7.366  1.2262 -3.1177  0.2622
  735MOL0     H 1420  11.537  11.061   7.306  1.5088 -1.2580 -1.0557
  735MOL0     H 1421  11.431  11.189   7.244  2.2011 -1.2082  2.8437
  735MOL0     H 1422  11.570  10.974   7.060  0.1248  1.2906 -2.3170
  735MOL0     H 1423  11.435  11.075   7.009  1.4309 -1.3373 -2.4739
  735MOL0     H 1424  11.695  11.178   7.093  1.7307 -0.9565 -1.2837
  735MOL0     H 1425  11.554  11.272   7.066  0.0602  0.0049  1.6345
  735MOL0     H 1426  11.643  11.140   6.662  1.6105  0.9470  0.1047
  735MOL0     H 1427  11.178  10.811   7.446 -0.1123  3.5135 -1.0158
  735MOL0     H 1428  10.986  10.600   7.515  2.3088 -0.0884 -1.0680
  735MOL0     H 1429  10.948  10.769   7.510  0.1928  1.2007 -1.0648
  735MOL0     H 1430  10.845  10.659   7.412 -0.0952 -1.3420  0.3676
  736MOL0     O 1431   1.873  10.584   4.223 -0.2871 -0.3934 -0.2576
  736MOL0     C 1432   1.922  10.696   4.236 -0.6689  0.5754  0.8671
  736MOL0     O 1433   1.892  10.804   4.167 -0.5553 -0.5468 -0.0361
  736MOL0     C 1434   1.798  10.811   4.063 -1.2299  0.4857  0.6020
  736MOL0     C 1435   1.810  10.909   3.968  0.2650 -0.1342 -0.3010
  736MOL0     C 1436   1.722  10.929   3.863  0.0975 -0.2746 -0.1916
  736MOL0     C 1437   1.612  10.839   3.850 -0.2443 -0.5064 -0.4624
  736MOL0     O 1438   1.514  10.861   3.761 -1.2707 -0.0791 -0.3189
  736MOL0     C 1439   1.469  10.992   3.727 -0.0550  0.4072  0.9051
  736MOL0     C 1440   1.318  10.971   3.693  0.6538  0.1153 -0.0823
  736MOL0     C 1441   1.257  11.096   3.631  0.6947  0.5070 -0.3408
  736MOL0     C 1442   1.333  11.122   3.500 -0.0989 -1.2084 -0.8061
  736MOL0     C 1443   1.256  11.224   3.420 -0.3216  0.2440 -0.2575
  736MOL0     C 1444   1.280  11.375   3.470  0.7265  0.7333  0.0049
  736MOL0     C 1445   1.196  11.477   3.385 -1.3300  0.3016 -0.9877
  736MOL0     C 1446   1.046  11.451   3.381 -0.6923 -0.6423 -0.4143
  736MOL0     N 1447   0.989  11.451   3.514 -0.2714 -0.3383 -0.0784
  736MOL0     C 1448   1.010  11.548   3.615  0.7081  0.2706 -0.1043
  736MOL0     C 1449   0.920  11.524   3.710  0.3437  1.0483  0.7059
  736MOL0     C 1450   0.880  11.617   3.824  0.1395 -0.7481  1.1061
  736MOL0     C 1451   0.982  11.628   3.936  0.0705 -0.3050 -0.7521
  736MOL0     C 1452   1.015  11.493   3.996 -0.1957  1.1156  0.8423
  736MOL0     C 1453   1.128  11.485   4.099  0.9581 -0.1310 -0.5017
  736MOL0     O 1454   1.095  11.578   4.205 -0.8401  0.4841 -0.7214
  736MOL0     C 1455   1.031  11.548   4.321 -0.9923  0.2948 -0.3709
  736MOL0     C 1456   1.002  11.650   4.405  0.4739  0.4099  0.1441
  736MOL0     C 1457   0.946  11.628   4.536 -0.3151 -0.7942  0.2321
  736MOL0     C 1458   0.922  11.754   4.624 -0.6005  0.2159 -0.4924
  736MOL0     C 1459   0.910  11.500   4.580 -0.4218  0.2334  0.5296
  736MOL0     C 1460   0.836  11.458   4.695 -0.7110 -0.7899  0.6763
  736MOL0     O 1461   0.869  11.334   4.743 -0.3842  0.6128  0.3768
  736MOL0     C 1462   0.797  11.277   4.851 -0.9655  0.1107  0.4018
  736MOL0     C 1463   0.779  11.345   4.966 -0.2356 -0.7981 -1.5900
  736MOL0     C 1464   0.683  11.294   5.052  0.4401 -0.1509 -0.3440
  736MOL0     C 1465   0.619  11.169   5.034 -0.9049  0.5512  0.6094
  736MOL0     O 1466   0.513  11.128   5.113  0.1073 -0.1170  0.2268
  736MOL0     C 1467   0.465  11.209   5.222 -0.0451  0.4454  0.2009
  736MOL0     C 1468   0.348  11.126   5.285  0.0004  0.0940 -0.0952
  736MOL0     C 1469   0.221  11.122   5.200  0.6476  0.1042  0.7825
  736MOL0     C 1470   0.144  11.007   5.246 -0.8094 -0.3175  0.3409
  736MOL0     C 1471   0.002  11.003   5.197  0.1767 -0.0982 -0.1272
  736MOL0     C 1472  -0.071  10.889   5.273 -0.2253  0.3757  0.6561
  736MOL0     C 1473  -0.180  10.838   5.173 -0.2941  0.4970 -0.0356
  736MOL0     C 1474  -0.294  10.930   5.159  0.5206  0.5173  0.5389
  736MOL0    Cl 1475  -0.409  10.825   5.113  0.6347 -0.3536  0.7798
  736MOL0     C 1476   0.650  11.100   4.916  0.1805 -0.0419  0.0436
  736MOL0     C 1477   0.746  11.151   4.828 -0.0548  0.3178  0.5240
  736MOL0     O 1478   0.748  11.532   4.731  0.5822 -0.3156 -0.4648
  736MOL0     C 1479   0.933  11.396   4.482  0.1229  1.0811 -0.3266
  736MOL0     C 1480   0.993  11.418   4.356  0.2533 -0.3101  0.6117
  736MOL0     N 1481   0.856  11.406   3.674 -0.8856  0.0249  0.1730
  736MOL0     N 1482   0.897  11.357   3.560 -0.9743 -0.4883  0.9559
  736MOL0     C 1483   1.596  10.740   3.951 -0.3555 -1.0301 -0.6438
  736MOL0     C 1484   1.691  10.725   4.054 -0.3561  0.0701  0.3410
  736MOL0     C 1485   2.044  10.706   4.325  0.0091  0.6232  0.0244
  736MOL0     C 1486   2.079  10.820   4.389  0.0575 -0.5536  1.1292
  736MOL0     C 1487   2.178  10.837   4.491 -0.3327 -0.0789  0.7902
  736MOL0     C 1488   2.266  10.730   4.513  0.4360 -0.7412 -0.1782
  736MOL0     O 1489   2.357  10.718   4.609 -0.0389 -0.0941  0.0751
  736MOL0     C 1490   2.368  10.825   4.711 -0.7700 -0.6789  0.9753
  736MOL0     C 1491   2.508  10.802   4.772  1.0628 -0.2780 -0.3018
  736MOL0     C 1492   2.632  10.780   4.687 -0.0614  0.1843 -0.1837
  736MOL0     C 1493   2.683  10.897   4.603  0.3902 -0.0141  0.3086
  736MOL0     C 1494   2.724  11.009   4.680 -0.7097  0.2623 -0.4986
  736MOL0     C 1495   2.752  11.105   4.747  0.4601 -0.0846 -1.1737
  736MOL0     C 1496   2.240  10.617   4.444 -0.9875  0.1328  0.0131
  736MOL0     C 1497   2.130  10.595   4.348 -0.0990 -0.8141 -0.3756
  736MOL0     C 1498   2.115  10.461   4.275 -0.4347 -0.3055 -0.6827
  736MOL0     H 1499   1.894  10.977   3.978  0.5103 -0.0994 -2.2296
  736MOL0     H 1500   1.747  11.003   3.788 -1.3674  0.9302  0.4711
  736MOL0     H 1501   1.528  11.031   3.644 -0.5384 -1.8216 -0.5839
  736MOL0     H 1502   1.475  11.051   3.819 -2.1737  0.5365  1.0288
  736MOL0     H 1503   1.301  10.886   3.627 -2.2007  1.7668 -1.7047
  736MOL0     H 1504   1.268  10.949   3.787  0.5998 -1.6761 -0.4971
  736MOL0     H 1505   1.150  11.084   3.610  1.0402 -0.5429 -1.6622
  736MOL0     H 1506   1.279  11.175   3.703  0.1610  0.5038 -0.1715
  736MOL0     H 1507   1.433  11.163   3.518 -0.2338 -1.8566  1.9599
  736MOL0     H 1508   1.333  11.024   3.451 -1.9129 -1.0747 -1.1382
  736MOL0     H 1509   1.148  11.210   3.427 -0.3551  0.7391  0.2525
  736MOL0     H 1510   1.280  11.213   3.314  0.3506  1.7398 -0.2847
  736MOL0     H 1511   1.251  11.398   3.573  3.1383 -0.7490  1.1068
  736MOL0     H 1512   1.385  11.401   3.455 -0.4080  5.5621 -1.7550
  736MOL0     H 1513   1.236  11.487   3.284  3.8715 -1.4372  0.5555
  736MOL0     H 1514   1.229  11.569   3.434 -0.7302 -0.6388  0.4481
  736MOL0     H 1515   0.995  11.532   3.328  0.0190  0.2451  0.2316
  736MOL0     H 1516   1.004  11.365   3.327 -3.1780 -1.6469  2.7871
  736MOL0     H 1517   1.067  11.638   3.597  0.2386 -0.1271 -4.7285
  736MOL0     H 1518   0.787  11.584   3.871  0.9671 -2.9208  1.3082
  736MOL0     H 1519   0.859  11.717   3.784  1.5679 -1.1698 -0.8185
  736MOL0     H 1520   1.077  11.664   3.896 -0.1202  1.6139  0.4031
  736MOL0     H 1521   0.936  11.697   4.007 -1.6482  2.0346 -3.8676
  736MOL0     H 1522   0.927  11.469   4.055 -1.9805 -1.1112 -2.3966
  736MOL0     H 1523   1.025  11.410   3.925 -3.5363  0.0878  1.4084
  736MOL0     H 1524   1.147  11.382   4.132  2.0455 -0.3831 -1.8273
  736MOL0     H 1525   1.224  11.508   4.051  0.6333  0.4444 -0.8768
  736MOL0     H 1526   1.015  11.748   4.361  0.2806  0.1707 -0.4544
  736MOL0     H 1527   1.014  11.812   4.617  0.5687 -1.6634 -1.7635
  736MOL0     H 1528   0.907  11.724   4.728 -0.4033  3.7342  0.6714
  736MOL0     H 1529   0.842  11.820   4.589 -0.5428  0.6460  0.1699
  736MOL0     H 1530   0.830  11.438   4.988 -3.1554  0.5061  0.3131
  736MOL0     H 1531   0.646  11.339   5.144 -3.5388 -2.0718 -0.7803
  736MOL0     H 1532   0.535  11.220   5.305  0.8969 -1.9118 -0.2124
  736MOL0     H 1533   0.437  11.308   5.184  0.9704  0.3968 -0.7379
  736MOL0     H 1534   0.389  11.025   5.289 -0.6924 -0.1647  1.6781
  736MOL0     H 1535   0.329  11.163   5.387  0.4424 -1.6587  0.6567
  736MOL0     H 1536   0.243  11.100   5.095  0.7526  1.1876  0.5651
  736MOL0     H 1537   0.167  11.217   5.211 -1.5611 -1.0443  0.3508
  736MOL0     H 1538   0.148  11.018   5.354 -0.1393 -2.2676  0.5606
  736MOL0     H 1539   0.187  10.910   5.218 -2.6159 -0.5417 -1.9818
  736MOL0     H 1540  -0.049  11.097   5.220  1.4045  0.6559 -0.3748
  736MOL0     H 1541   0.004  10.997   5.088  0.4128 -0.0069 -0.1296
  736MOL0     H 1542  -0.130  10.914   5.362 -1.3142 -0.0430  0.0760
  736MOL0     H 1543  -0.008  10.805   5.303  2.3111  0.3321 -3.8728
  736MOL0     H 1544  -0.213  10.743   5.216 -0.1925 -1.6816 -4.2458
  736MOL0     H 1545  -0.136  10.804   5.078  0.4248 -0.3049  0.5680
  736MOL0     H 1546  -0.282  11.010   5.086  0.4762 -2.2563 -2.7581
  736MOL0     H 1547  -0.327  10.973   5.254 -1.2716  1.2013 -0.3594
  736MOL0     H 1548   0.603  11.005   4.895  0.3458  0.0964 -0.9911
  736MOL0     H 1549   0.768  11.088   4.743 -1.9223  1.9039 -1.2419
  736MOL0     H 1550   0.911  11.293   4.508  1.0813  1.1331  0.7378
  736MOL0     H 1551   1.011  11.336   4.287 -0.6911  0.3583 -0.4785
  736MOL0     H 1552   1.515  10.668   3.948 -2.6707  1.4641 -2.0173
  736MOL0     H 1553   1.673  10.642   4.121  1.1869  0.8202  1.7422
  736MOL0     H 1554   2.030  10.911   4.356  0.4495 -0.5756  0.4586
  736MOL0     H 1555   2.178  10.931   4.545  0.5670  1.6510 -2.0215
  736MOL0     H 1556   2.364  10.924   4.666 -1.4845 -1.0066  0.2915
  736MOL0     H 1557   2.287  10.817   4.784 -0.6576  0.0753  1.1939
  736MOL0     H 1558   2.507  10.711   4.833  4.2398 -2.7914 -3.5712
  736MOL0     H 1559   2.529  10.881   4.845  0.7059  1.1554 -1.7019
  736MOL0     H 1560   2.709  10.761   4.763  0.2572  0.6272 -0.3918
  736MOL0     H 1561   2.619  10.694   4.622 -1.8192  0.0241  0.3342
  736MOL0     H 1562   2.597  10.913   4.538 -0.4299 -1.1559  1.0682
  736MOL0     H 1563   2.773  10.871   4.546 -0.0529  0.0406 -0.4266
  736MOL0     H 1564   2.791  11.183   4.810  0.2711 -1.2884  0.5001
  736MOL0     H 1565   2.292  10.522   4.454 -1.7563 -0.4068 -1.0190
  736MOL0     H 1566   2.016  10.428   4.308  0.1091 -0.4583  0.8909
  736MOL0     H 1567   2.133  10.479   4.169 -1.7499 -2.0889 -1.2753
  736MOL0     H 1568   2.186  10.388   4.317  1.9267  2.9686  1.4956
  737MOL0     O 1569   7.680   9.223   1.285 -0.8625  0.3365 -0.4157
  737MOL0     C 1570   7.564   9.188   1.274  0.4949 -0.2496 -1.0241
  737MOL0     O 1571   7.459   9.255   1.222 -0.2011 -1.1017  0.2287
  737MOL0     C 1572   7.482   9.383   1.166 -0.8160 -0.3513  0.6092
  737MOL0     C 1573   7.589   9.415   1.082  0.1914 -1.0646  0.4956
  737MOL0     C 1574   7.618   9.543   1.035  0.5563 -0.1831  1.4350
  737MOL0     C 1575   7.532   9.642   1.074  1.3033  0.2865 -0.4830
  737MOL0     O 1576   7.558   9.770   1.025 -0.1546  0.1001 -0.6408
  737MOL0     C 1577   7.449   9.859   1.018  0.3724 -0.2207 -0.7024
  737MOL0     C 1578   7.494   9.988   0.971  0.3355  0.1126  0.4466
  737MOL0     C 1579   7.509   9.996   0.827  0.8777  0.3347 -0.5047
  737MOL0     C 1580   7.545  10.143   0.771  0.0377 -0.0156  0.1651
  737MOL0     C 1581   7.409  10.226   0.770 -0.6266  0.8206  0.6947
  737MOL0     C 1582   7.447  10.365   0.705 -0.4604 -0.8893  0.5389
  737MOL0     C 1583   7.331  10.471   0.697  0.6292 -0.0830  0.6387
  737MOL0     C 1584   7.263  10.498   0.829 -0.4073  0.5058  0.4864
  737MOL0     N 1585   7.179  10.609   0.805 -0.5078 -0.6276 -0.5362
  737MOL0     C 1586   7.226  10.740   0.787  0.0123 -0.2768  0.1258
  737MOL0     C 1587   7.120  10.822   0.761  0.3939  0.3620  0.3664
  737MOL0     C 1588   7.126  10.970   0.737 -0.0683 -0.6789 -0.5485
  737MOL0     C 1589   7.212  11.054   0.834  0.3995  0.3531  0.5214
  737MOL0     C 1590   7.187  11.205   0.837  0.7179 -0.0210 -0.2506
  737MOL0     C 1591   7.195  11.277   0.703  0.4556 -1.0933  0.2941
  737MOL0     O 1592   7.238  11.410   0.729 -0.9173 -0.0868 -0.1707
  737MOL0     C 1593   7.292  11.487   0.625  0.0523  1.0496  0.4884
  737MOL0     C 1594   7.255  11.487   0.486 -0.9328 -0.8891 -0.5188
  737MOL0     C 1595   7.306  11.579   0.397  0.6196  0.2010  0.0644
  737MOL0     C 1596   7.230  11.586   0.263  0.1365  1.0959 -0.3076
  737MOL0     C 1597   7.412  11.671   0.436  1.0838  0.1524 -0.4145
  737MOL0     C 1598   7.467  11.780   0.357 -0.0271 -0.2610 -0.5543
  737MOL0     O 1599   7.547  11.880   0.414 -0.0243  0.5911  0.6633
  737MOL0     C 1600   7.631  11.958   0.337 -0.1182 -0.4790 -0.7457
  737MOL0     C 1601   7.758  11.987   0.384  0.2817 -0.3559 -0.2750
  737MOL0     C 1602   7.846  12.057   0.305 -0.7325  1.8355 -0.1459
  737MOL0     C 1603   7.811  12.100   0.181 -0.2685 -0.0869 -0.6699
  737MOL0     O 1604   7.888  12.183   0.104 -0.3261  0.1122 -0.3121
  737MOL0     C 1605   7.999  12.253   0.157  1.4796  0.2959  0.4361
  737MOL0     C 1606   8.057  12.321   0.029 -1.5041  0.4991 -0.6503
  737MOL0     C 1607   7.955  12.409  -0.040 -0.6026  0.1835 -0.2713
  737MOL0     C 1608   8.036  12.473  -0.157  0.6486  0.1881  0.0113
  737MOL0     C 1609   7.953  12.558  -0.249  0.0534  0.5411 -0.2296
  737MOL0     C 1610   7.826  12.491  -0.286  0.2925  0.8608 -0.2916
  737MOL0     C 1611   7.759  12.551  -0.411 -0.1090 -0.2233 -1.1902
  737MOL0     C 1612   7.719  12.439  -0.514  0.2245 -0.2694  0.0741
  737MOL0    Cl 1613   7.873  12.347  -0.569  0.2613 -0.1031 -0.2436
  737MOL0     C 1614   7.684  12.083   0.137  0.3590  0.3068 -0.4396
  737MOL0     C 1615   7.598  12.010   0.212  0.4571 -0.5147  0.4765
  737MOL0     O 1616   7.444  11.779   0.236 -1.2879 -0.0648  0.5821
  737MOL0     C 1617   7.454  11.667   0.572  0.6485 -0.1236 -0.3022
  737MOL0     C 1618   7.385  11.576   0.660  0.3250 -0.6045 -0.0370
  737MOL0     N 1619   7.015  10.735   0.747 -0.6369 -0.6239 -0.6486
  737MOL0     N 1620   7.047  10.613   0.771  0.4580 -0.6140  0.1370
  737MOL0     C 1621   7.416   9.602   1.160  0.6968 -0.7233  0.4976
  737MOL0     C 1622   7.388   9.477   1.208 -0.0678  0.1955  0.2334
  737MOL0     C 1623   7.533   9.042   1.322  0.8208  0.6430 -0.3002
  737MOL0     C 1624   7.418   8.990   1.255  0.3697  0.0244 -0.7032
  737MOL0     C 1625   7.364   8.864   1.287  0.3233  0.6818  0.5719
  737MOL0     C 1626   7.427   8.788   1.373 -0.3540  0.0713 -1.4028
  737MOL0     O 1627   7.379   8.661   1.397 -0.2434  0.0070 -0.2263
  737MOL0     C 1628   7.433   8.602   1.512 -0.2597  0.7448  0.1630
  737MOL0     C 1629   7.397   8.662   1.654  0.1626 -0.9105  0.1776
  737MOL0     C 1630   7.248   8.649   1.681 -0.3921  0.1345 -0.7658
  737MOL0     C 1631   7.212   8.697   1.822 -0.6080  0.6145  0.8217
  737MOL0     C 1632   7.242   8.602   1.931  0.1251 -1.1287  0.0564
  737MOL0     C 1633   7.244   8.532   2.022  0.6038  0.4533 -1.3752
  737MOL0     C 1634   7.540   8.842   1.438 -0.0472  0.3256  0.0646
  737MOL0     C 1635   7.597   8.965   1.417  0.1431  0.4029  1.5386
  737MOL0     C 1636   7.722   9.002   1.485 -0.1760  0.1562 -0.5255
  737MOL0     H 1637   7.648   9.328   1.056 -1.3955 -2.1651  0.4839
  737MOL0     H 1638   7.709   9.545   0.975 -0.4970 -1.4397 -0.3048
  737MOL0     H 1639   7.410   9.880   1.118  1.3433  0.6924 -0.4941
  737MOL0     H 1640   7.366   9.822   0.957 -0.5712  1.3327 -0.4367
  737MOL0     H 1641   7.425  10.062   1.014 -0.6337 -0.3579 -0.2477
  737MOL0     H 1642   7.592  10.007   1.014  1.1108 -2.1476 -0.1794
  737MOL0     H 1643   7.589   9.927   0.797  1.3973  1.6427 -2.3305
  737MOL0     H 1644   7.414   9.964   0.784 -0.3745  3.1805 -0.0728
  737MOL0     H 1645   7.623  10.187   0.835  0.2653  0.3502 -0.3606
  737MOL0     H 1646   7.586  10.132   0.670 -0.2307  2.1955 -0.2218
  737MOL0     H 1647   7.371  10.242   0.872  3.1884  0.8871  2.2596
  737MOL0     H 1648   7.326  10.175   0.720 -2.2714  3.5995  0.3633
  737MOL0     H 1649   7.525  10.414   0.765  0.5343  0.4918 -1.7371
  737MOL0     H 1650   7.500  10.348   0.611 -0.8428  3.9543 -0.8476
  737MOL0     H 1651   7.260  10.435   0.622  1.4295  0.1026 -0.2179
  737MOL0     H 1652   7.349  10.565   0.645 -0.3859 -0.2362 -0.0248
  737MOL0     H 1653   7.204  10.412   0.862 -1.0480 -0.6212 -3.1408
  737MOL0     H 1654   7.330  10.532   0.909  1.0212  0.1491 -0.5144
  737MOL0     H 1655   7.329  10.773   0.795  0.4212 -1.2428 -0.9997
  737MOL0     H 1656   7.020  10.993   0.749 -0.0254 -0.5310 -0.4465
  737MOL0     H 1657   7.162  10.983   0.634  3.5759 -2.9473  0.2825
  737MOL0     H 1658   7.200  11.006   0.932 -0.4605 -3.3590 -1.2208
  737MOL0     H 1659   7.316  11.034   0.807 -0.0429 -1.5938  0.0988
  737MOL0     H 1660   7.089  11.230   0.879  1.4423  0.3363  1.3036
  737MOL0     H 1661   7.255  11.243   0.913 -0.6784 -0.1491  1.1234
  737MOL0     H 1662   7.272  11.224   0.646 -0.2496 -2.0523  0.2171
  737MOL0     H 1663   7.105  11.278   0.640 -0.0201  5.1519  0.4402
  737MOL0     H 1664   7.176  11.417   0.458 -3.0058  0.4528  1.5581
  737MOL0     H 1665   7.206  11.692   0.254 -0.5032  0.9226 -0.6968
  737MOL0     H 1666   7.138  11.528   0.251 -1.8854  4.4740 -2.8414
  737MOL0     H 1667   7.287  11.552   0.176  0.2837  0.4916  0.0187
  737MOL0     H 1668   7.792  11.948   0.479  0.1090 -0.2737 -0.1788
  737MOL0     H 1669   7.948  12.067   0.340 -0.4768  1.2616 -0.7316
  737MOL0     H 1670   7.973  12.333   0.227  1.6307 -0.0888  0.9381
  737MOL0     H 1671   8.071  12.183   0.198 -1.5230 -3.2405  0.1882
  737MOL0     H 1672   8.146  12.374   0.064 -0.6156  0.5415 -2.7964
  737MOL0     H 1673   8.087  12.244  -0.043 -2.6082 -1.2257  0.6680
  737MOL0     H 1674   7.924  12.488   0.030 -1.2421  1.0900 -1.5298
  737MOL0     H 1675   7.867  12.352  -0.072 -1.0575  0.7248 -0.0089
  737MOL0     H 1676   8.076  12.395  -0.222  0.3750 -1.4871  1.7702
  737MOL0     H 1677   8.120  12.528  -0.115  2.1296 -0.8048 -1.5380
  737MOL0     H 1678   7.936  12.644  -0.183  0.2057 -0.9919  1.9359
  737MOL0     H 1679   8.007  12.594  -0.337  2.3803 -2.1936 -0.0632
  737MOL0     H 1680   7.757  12.483  -0.201  0.2707 -1.2674 -0.4490
  737MOL0     H 1681   7.851  12.387  -0.312 -0.9643  0.4938 -0.1208
  737MOL0     H 1682   7.829  12.609  -0.472  1.2687 -1.8343 -1.1995
  737MOL0     H 1683   7.674  12.615  -0.387  0.9156  1.5796 -2.1804
  737MOL0     H 1684   7.679  12.487  -0.604  1.1645  1.5730  0.5855
  737MOL0     H 1685   7.654  12.364  -0.467 -0.4931 -0.3069 -0.9520
  737MOL0     H 1686   7.666  12.114   0.035 -0.7814  1.3250  0.0472
  737MOL0     H 1687   7.504  11.989   0.163 -0.8256  0.5801  2.3595
  737MOL0     H 1688   7.542  11.723   0.601  0.6675  0.0320 -0.6655
  737MOL0     H 1689   7.420  11.589   0.762 -2.5281  2.7077  0.7159
  737MOL0     H 1690   7.349   9.679   1.194  1.6736  0.6543 -0.5798
  737MOL0     H 1691   7.308   9.447   1.275  1.6291 -2.5050  1.1613
  737MOL0     H 1692   7.371   9.041   1.172 -2.5604 -1.6750 -0.2654
  737MOL0     H 1693   7.270   8.837   1.241  1.2352 -1.4611 -0.1695
  737MOL0     H 1694   7.400   8.498   1.498  4.5813 -0.7832 -2.2041
  737MOL0     H 1695   7.542   8.594   1.509 -0.3693 -1.0214 -0.7029
  737MOL0     H 1696   7.418   8.769   1.653 -2.5439 -0.3032  0.5613
  737MOL0     H 1697   7.449   8.620   1.741  0.9646  0.1550  0.2326
  737MOL0     H 1698   7.189   8.695   1.601 -1.9147 -1.5342 -0.6653
  737MOL0     H 1699   7.229   8.543   1.698  0.4683  0.0788 -0.0575
  737MOL0     H 1700   7.105   8.717   1.835 -0.3886  0.9482  2.4062
  737MOL0     H 1701   7.257   8.794   1.843 -0.8600  0.2583  3.3401
  737MOL0     H 1702   7.256   8.472   2.110 -1.7741  1.3106 -0.4054
  737MOL0     H 1703   7.608   8.784   1.500  0.7004 -0.1179 -1.1348
  737MOL0     H 1704   7.724   8.944   1.578 -3.6451 -0.0599 -0.4570
  737MOL0     H 1705   7.810   8.980   1.424 -0.1228 -1.4005  0.0749
  737MOL0     H 1706   7.734   9.104   1.522 -2.8515 -0.6142  3.0658
  738MOL0     O 1707   9.376  11.398   1.448 -1.0934 -0.1697  0.6365
  738MOL0     C 1708   9.289  11.447   1.377 -0.0566  0.3878  0.0999
  738MOL0     O 1709   9.191  11.525   1.427 -0.5548  0.1642 -0.4335
  738MOL0     C 1710   9.179  11.559   1.560  0.1940  0.3009  0.7768
  738MOL0     C 1711   9.284  11.627   1.627  0.3215  0.3636 -0.3836
  738MOL0     C 1712   9.265  11.684   1.755 -1.2269 -0.3077 -0.2265
  738MOL0     C 1713   9.141  11.679   1.812 -0.1614 -0.6461  0.4487
  738MOL0     O 1714   9.125  11.734   1.933 -0.2705  1.0971  0.0460
  738MOL0     C 1715   9.003  11.745   1.998 -0.0579 -0.1111 -0.4844
  738MOL0     C 1716   8.995  11.634   2.098 -0.4813 -0.6158 -0.6722
  738MOL0     C 1717   8.863  11.629   2.170 -0.1611  0.4430 -1.0072
  738MOL0     C 1718   8.832  11.765   2.235 -0.2303 -0.3875  0.9143
  738MOL0     C 1719   8.700  11.757   2.321  0.0296 -1.0624 -0.3810
  738MOL0     C 1720   8.680  11.900   2.379  0.2357  0.3076  0.7005
  738MOL0     C 1721   8.741  11.909   2.514 -0.8853  0.4510 -1.5890
  738MOL0     C 1722   8.758  12.049   2.577  0.2117  0.0172 -0.1616
  738MOL0     N 1723   8.845  12.128   2.487 -0.4920 -0.5982  0.4915
  738MOL0     C 1724   8.966  12.089   2.423  0.7451 -0.0276  0.3011
  738MOL0     C 1725   8.983  12.184   2.324  0.1881  0.2122  0.3706
  738MOL0     C 1726   9.092  12.223   2.234 -0.3373 -0.1734 -0.9065
  738MOL0     C 1727   9.118  12.119   2.118 -0.2802 -0.1320 -0.4610
  738MOL0     C 1728   9.089  12.157   1.978 -0.0169  0.5414 -1.0936
  738MOL0     C 1729   8.940  12.159   1.959 -0.1574  0.3362 -0.0199
  738MOL0     O 1730   8.904  12.214   1.825 -0.2209  0.5261 -0.1466
  738MOL0     C 1731   8.777  12.270   1.812 -0.7759 -0.0178 -0.8562
  738MOL0     C 1732   8.760  12.410   1.818  0.8315  0.0241  0.1217
  738MOL0     C 1733   8.642  12.473   1.799  0.3187 -0.6661  0.0224
  738MOL0     C 1734   8.632  12.620   1.797  0.3878  0.1581 -0.0985
  738MOL0     C 1735   8.525  12.400   1.779  0.0143 -0.3792  0.0643
  738MOL0     C 1736   8.393  12.461   1.766 -0.1216  0.0696 -0.2597
  738MOL0     O 1737   8.378  12.523   1.645  0.4210 -0.5909  0.9632
  738MOL0     C 1738   8.264  12.592   1.629  0.2885 -0.6380  0.3978
  738MOL0     C 1739   8.224  12.691   1.719 -0.4454  0.3445  0.8753
  738MOL0     C 1740   8.112  12.770   1.706 -0.1458  0.1507  0.6774
  738MOL0     C 1741   8.021  12.728   1.601 -0.9168 -0.9426  0.3033
  738MOL0     O 1742   7.920  12.799   1.576 -0.3144 -0.3266  0.8237
  738MOL0     C 1743   7.812  12.789   1.677  0.9669  0.5537 -0.0403
  738MOL0     C 1744   7.690  12.855   1.603  0.4081 -1.4096 -0.2069
  738MOL0     C 1745   7.584  12.901   1.702 -0.4442  0.0002  0.5597
  738MOL0     C 1746   7.473  12.987   1.639 -0.6803 -0.1495 -0.1653
  738MOL0     C 1747   7.359  13.015   1.732  0.7168  1.0000  0.1978
  738MOL0     C 1748   7.241  13.096   1.665 -0.1575  0.3171  1.0886
  738MOL0     C 1749   7.295  13.234   1.619  0.6353 -0.1088  0.3963
  738MOL0     C 1750   7.193  13.341   1.587  0.3570 -0.5838  0.6129
  738MOL0    Cl 1751   7.111  13.423   1.730 -0.1764 -0.1175  0.4032
  738MOL0     C 1752   8.058  12.624   1.516 -1.2393 -0.5541  0.8361
  738MOL0     C 1753   8.175  12.555   1.528  0.4228 -0.1633 -0.3275
  738MOL0     O 1754   8.299  12.442   1.849  0.0521  0.6667 -0.0983
  738MOL0     C 1755   8.541  12.259   1.776 -0.8294  0.3765  0.5205
  738MOL0     C 1756   8.659  12.192   1.782 -0.5562  0.3584 -0.8376
  738MOL0     N 1757   8.880  12.274   2.339  0.3721 -0.0768  0.5810
  738MOL0     N 1758   8.802  12.245   2.440 -0.0764 -0.1214 -0.0111
  738MOL0     C 1759   9.038  11.597   1.753 -0.4151 -0.0459  0.5593
  738MOL0     C 1760   9.050  11.540   1.619  0.0606 -0.0489 -0.0333
  738MOL0     C 1761   9.291  11.433   1.230 -0.4120  0.5970  0.1254
  738MOL0     C 1762   9.335  11.307   1.182  0.2761  1.1126 -0.7857
  738MOL0     C 1763   9.361  11.284   1.049  0.4929  0.1782 -0.8896
  738MOL0     C 1764   9.331  11.382   0.956  0.6109 -0.2402  0.1470
  738MOL0     O 1765   9.338  11.373   0.815 -0.5354  0.6404  0.4696
  738MOL0     C 1766   9.465  11.328   0.776  0.0972  0.5308  0.5378
  738MOL0     C 1767   9.567  11.434   0.781 -0.3949 -0.2789 -0.7439
  738MOL0     C 1768   9.673  11.405   0.672 -0.1063  0.1471  0.2336
  738MOL0     C 1769   9.782  11.503   0.649 -0.2828 -0.5919  0.6528
  738MOL0     C 1770   9.847  11.548   0.773 -0.0084  0.4283  0.0179
  738MOL0     C 1771   9.906  11.582   0.871 -0.3942  0.2544  0.3391
  738MOL0     C 1772   9.292  11.507   0.997  0.9162 -1.0117 -0.6408
  738MOL0     C 1773   9.272  11.537   1.137  0.4321 -0.5469  0.7838
  738MOL0     C 1774   9.213  11.672   1.174  0.9687  1.8413 -0.4562
  738MOL0     H 1775   9.376  11.640   1.570 -0.3020 -1.0500 -1.7893
  738MOL0     H 1776   9.348  11.730   1.808 -0.1942 -3.2521  0.9192
  738MOL0     H 1777   8.907  11.743   1.945 -0.5611 -2.8229  0.3390
  738MOL0     H 1778   9.000  11.836   2.058 -3.6828  0.2898 -1.0259
  738MOL0     H 1779   9.009  11.536   2.051 -1.7312 -2.1807  2.0331
  738MOL0     H 1780   9.081  11.644   2.165 -0.4735  0.1181 -0.7771
  738MOL0     H 1781   8.785  11.588   2.106  0.0154 -0.6334 -0.5517
  738MOL0     H 1782   8.883  11.552   2.245 -1.6152  2.0559  1.1708
  738MOL0     H 1783   8.918  11.789   2.297 -0.5271  1.3201  0.7200
  738MOL0     H 1784   8.815  11.836   2.153 -0.5661  0.0765  1.3773
  738MOL0     H 1785   8.704  11.687   2.405  3.1086  0.0714  0.5379
  738MOL0     H 1786   8.619  11.725   2.255 -2.3185  2.2507  0.6569
  738MOL0     H 1787   8.728  11.975   2.315 -1.3743  1.0764  0.3392
  738MOL0     H 1788   8.575  11.931   2.384 -0.9876 -3.2471 -0.3580
  738MOL0     H 1789   8.843  11.870   2.504 -0.1220  1.9225 -0.0743
  738MOL0     H 1790   8.683  11.851   2.586  0.5030  0.3165 -0.5473
  738MOL0     H 1791   8.660  12.094   2.594 -0.7387 -1.0767 -2.3961
  738MOL0     H 1792   8.816  12.038   2.669  2.4964  2.6707 -1.1125
  738MOL0     H 1793   9.023  11.999   2.445  0.5630 -0.1789  0.1581
  738MOL0     H 1794   9.177  12.233   2.302 -2.9501 -1.6158  2.9286
  738MOL0     H 1795   9.066  12.321   2.193  0.1326  0.2909 -0.1045
  738MOL0     H 1796   9.225  12.097   2.114 -0.0820  0.7061 -0.0088
  738MOL0     H 1797   9.078  12.021   2.142  0.2588  0.2949  2.6039
  738MOL0     H 1798   9.106  12.263   1.957 -2.0057  1.2234  0.3738
  738MOL0     H 1799   9.139  12.089   1.910 -2.2476 -1.8866 -0.4816
  738MOL0     H 1800   8.894  12.060   1.968  1.0946 -0.5796 -2.7200
  738MOL0     H 1801   8.899  12.220   2.040  4.1265  2.2670  0.9780
  738MOL0     H 1802   8.848  12.471   1.839  0.7598  0.0533  0.3402
  738MOL0     H 1803   8.548  12.651   1.860  0.0351 -2.3366  0.7895
  738MOL0     H 1804   8.607  12.648   1.694  1.4911 -0.7014 -0.6147
  738MOL0     H 1805   8.723  12.672   1.828 -0.5456  0.8384  1.6602
  738MOL0     H 1806   8.296  12.702   1.800  3.1233 -1.7659 -1.7502
  738MOL0     H 1807   8.084  12.854   1.769 -0.3202 -0.2867  1.1944
  738MOL0     H 1808   7.775  12.690   1.703 -0.8936  1.3215  0.3555
  738MOL0     H 1809   7.848  12.834   1.770 -1.2810 -2.3131  2.4326
  738MOL0     H 1810   7.729  12.937   1.541 -3.6433  3.2766  2.6384
  738MOL0     H 1811   7.644  12.784   1.534  3.1490 -5.0117  1.3430
  738MOL0     H 1812   7.636  12.959   1.779  2.4060 -0.9083 -0.5727
  738MOL0     H 1813   7.548  12.812   1.755 -2.3228 -0.0227 -0.6788
  738MOL0     H 1814   7.436  12.937   1.549 -0.7185 -1.2781  0.4437
  738MOL0     H 1815   7.515  13.087   1.631 -0.3939 -0.0922  1.5327
  738MOL0     H 1816   7.326  12.918   1.770  1.4825  0.6378 -0.0322
  738MOL0     H 1817   7.396  13.068   1.821 -0.6116  2.2701  0.0340
  738MOL0     H 1818   7.155  13.098   1.732  1.5273  0.5071  3.3797
  738MOL0     H 1819   7.206  13.044   1.576 -1.3096 -0.1246  1.7686
  738MOL0     H 1820   7.348  13.210   1.526  2.0312  1.3080  0.7804
  738MOL0     H 1821   7.374  13.274   1.683 -0.1692  4.6561 -1.1687
  738MOL0     H 1822   7.111  13.297   1.529 -0.1979  1.7860 -0.4774
  738MOL0     H 1823   7.249  13.413   1.527  1.0895 -0.2138  1.7104
  738MOL0     H 1824   7.979  12.611   1.442 -0.4827  2.4753 -0.6665
  738MOL0     H 1825   8.194  12.483   1.450  2.5937  1.8359 -1.7840
  738MOL0     H 1826   8.451  12.200   1.785 -1.1093  0.5889 -0.6766
  738MOL0     H 1827   8.656  12.084   1.788 -3.0429  0.2396 -2.8679
  738MOL0     H 1828   8.947  11.576   1.808 -0.2324 -0.1975  0.8056
  738MOL0     H 1829   8.977  11.483   1.562  1.1919  0.7918 -2.4487
  738MOL0     H 1830   9.366  11.229   1.251 -1.9696  0.7324 -0.1133
  738MOL0     H 1831   9.405  11.187   1.026  5.8827  2.3743 -1.3974
  738MOL0     H 1832   9.500  11.245   0.838  2.4876  3.1729  3.0212
  738MOL0     H 1833   9.467  11.301   0.670  4.6101  1.5768  0.1583
  738MOL0     H 1834   9.621  11.432   0.876 -0.7147  1.9784 -0.4500
  738MOL0     H 1835   9.529  11.535   0.762  0.0050  0.3561  1.5055
  738MOL0     H 1836   9.730  11.316   0.700  0.6471  0.8553  1.0133
  738MOL0     H 1837   9.621  11.383   0.578  1.6670 -1.4613 -0.4279
  738MOL0     H 1838   9.758  11.596   0.596 -0.4292  0.1255  1.9449
  738MOL0     H 1839   9.860  11.466   0.582  1.3691 -0.0729  2.2229
  738MOL0     H 1840   9.966  11.604   0.957  1.5367  3.4037 -1.6154
  738MOL0     H 1841   9.278  11.585   0.923  0.3716 -1.8600 -1.4615
  738MOL0     H 1842   9.113  11.666   1.218  1.8893 -0.2253  1.5515
  738MOL0     H 1843   9.274  11.719   1.252  3.2638 -0.8698 -0.4629
  738MOL0     H 1844   9.205  11.737   1.086  4.0361  1.5549 -1.0574
  739MOL0     O 1845   8.758   4.978   2.782 -0.0345 -0.0876  0.1373
  739MOL0     C 1846   8.755   5.062   2.689  0.9088  0.3275 -0.1967
  739MOL0     O 1847   8.640   5.083   2.615 -0.1487 -0.0972  0.3214
  739MOL0     C 1848   8.522   5.013   2.645 -0.3090 -0.0513 -0.3126
  739MOL0     C 1849   8.509   4.879   2.636  0.2675  1.6575 -0.2306
  739MOL0     C 1850   8.386   4.822   2.686 -0.4406 -1.1356 -0.0345
  739MOL0     C 1851   8.294   4.902   2.758 -0.3255  0.3758 -0.0923
  739MOL0     O 1852   8.200   4.841   2.835  0.1304 -0.3760 -0.0383
  739MOL0     C 1853   8.124   4.733   2.769  1.0298  0.3267 -0.1410
  739MOL0     C 1854   8.049   4.658   2.889 -0.1730 -0.0656 -0.4202
  739MOL0     C 1855   8.144   4.550   2.928  0.5812 -0.9966  0.8169
  739MOL0     C 1856   8.276   4.604   3.003  0.8063  0.7258 -0.4245
  739MOL0     C 1857   8.379   4.501   3.046 -0.1771 -0.0626 -0.0405
  739MOL0     C 1858   8.434   4.400   2.937 -0.0670  0.7059  0.1106
  739MOL0     C 1859   8.471   4.271   3.003  0.8991 -0.7922 -0.4938
  739MOL0     C 1860   8.350   4.177   2.991 -0.4405 -0.1497 -0.6020
  739MOL0     N 1861   8.338   4.110   2.863 -0.5511  0.0324  0.3379
  739MOL0     C 1862   8.406   3.999   2.819 -0.0145  0.7056  0.6004
  739MOL0     C 1863   8.367   3.979   2.692  0.5781  0.0522  0.1744
  739MOL0     C 1864   8.425   3.885   2.585  0.6143 -0.5907  0.0571
  739MOL0     C 1865   8.535   3.960   2.501 -0.3565  0.1759 -0.5783
  739MOL0     C 1866   8.672   3.969   2.576 -0.4220 -0.0427 -0.7890
  739MOL0     C 1867   8.799   4.020   2.499 -0.1567  0.2467  0.0885
  739MOL0     O 1868   8.841   3.919   2.410 -1.1164 -0.4852  0.2392
  739MOL0     C 1869   8.959   3.961   2.355  0.1996 -0.8584 -0.2055
  739MOL0     C 1870   8.953   4.041   2.239  0.5768 -0.3006 -0.3883
  739MOL0     C 1871   9.061   4.104   2.181 -0.6465  0.7819 -0.2446
  739MOL0     C 1872   9.040   4.208   2.076  0.1612 -0.2063 -0.5994
  739MOL0     C 1873   9.192   4.064   2.235 -0.2537 -0.0144  0.7918
  739MOL0     C 1874   9.314   4.131   2.195 -0.4953 -0.6348 -0.5478
  739MOL0     O 1875   9.310   4.267   2.181  0.1047 -0.7321  0.1521
  739MOL0     C 1876   9.413   4.326   2.117 -0.0047  0.7050  0.5467
  739MOL0     C 1877   9.538   4.345   2.185 -0.1889  0.5076  0.3017
  739MOL0     C 1878   9.643   4.399   2.104 -0.3782 -0.3151 -0.8771
  739MOL0     C 1879   9.630   4.408   1.965 -0.3658 -0.8576  0.9209
  739MOL0     O 1880   9.746   4.432   1.888  0.5626  0.3334  0.5648
  739MOL0     C 1881   9.741   4.523   1.771 -0.6463  0.2419 -0.2425
  739MOL0     C 1882   9.890   4.538   1.746  0.6484  0.4250 -0.4208
  739MOL0     C 1883   9.953   4.414   1.680 -0.2443 -0.6686  0.4754
  739MOL0     C 1884  10.102   4.427   1.653 -0.0691 -0.8587  0.6396
  739MOL0     C 1885  10.147   4.329   1.553  0.1726 -0.3713 -0.2589
  739MOL0     C 1886  10.295   4.288   1.566  0.9835  0.0957  0.0412
  739MOL0     C 1887  10.392   4.394   1.510  0.9358 -0.6369 -0.0964
  739MOL0     C 1888  10.381   4.430   1.360  0.2277  0.7889  1.0319
  739MOL0    Cl 1889  10.475   4.577   1.331 -0.1023 -0.3391  0.1963
  739MOL0     C 1890   9.502   4.398   1.909 -0.7338 -0.2218  1.2030
  739MOL0     C 1891   9.398   4.364   1.990  0.7545 -1.1312 -0.2008
  739MOL0     O 1892   9.409   4.063   2.151  0.7438 -0.0817  0.0861
  739MOL0     C 1893   9.202   3.976   2.336 -0.8015  0.6091  0.3956
  739MOL0     C 1894   9.087   3.917   2.395 -0.6310  0.3425 -0.3481
  739MOL0     N 1895   8.275   4.077   2.652 -0.2021  0.2885 -0.7480
  739MOL0     N 1896   8.264   4.161   2.755 -0.4650 -0.1520 -0.9523
  739MOL0     C 1897   8.315   5.042   2.755 -0.1584  0.4528  0.4114
  739MOL0     C 1898   8.426   5.092   2.694 -0.4731 -0.1455 -0.2748
  739MOL0     C 1899   8.877   5.143   2.664  0.0289 -0.0967  0.8770
  739MOL0     C 1900   8.990   5.134   2.755 -0.7015 -1.2339  0.1371
  739MOL0     C 1901   9.114   5.198   2.738 -0.1108 -0.0208 -0.3697
  739MOL0     C 1902   9.119   5.289   2.631  0.0603 -0.0154  0.4612
  739MOL0     O 1903   9.224   5.380   2.616 -0.2738 -0.8157 -0.3013
  739MOL0     C 1904   9.302   5.407   2.736 -0.3317  0.4965  0.2248
  739MOL0     C 1905   9.383   5.534   2.726  0.0150  0.3057 -0.1786
  739MOL0     C 1906   9.515   5.523   2.642  1.2974 -0.3086 -0.5848
  739MOL0     C 1907   9.570   5.667   2.665 -0.3212  0.3898  0.2046
  739MOL0     C 1908   9.691   5.662   2.588  0.2025 -0.7303  0.2591
  739MOL0     C 1909   9.798   5.658   2.534  0.6052 -0.3934  0.2979
  739MOL0     C 1910   9.010   5.298   2.538 -0.4049 -0.6317 -1.0533
  739MOL0     C 1911   8.887   5.228   2.545 -1.0623  0.9761  0.1481
  739MOL0     C 1912   8.782   5.255   2.440 -0.3218 -0.8640 -0.7914
  739MOL0     H 1913   8.600   4.829   2.603 -2.1848 -3.6436  0.1417
  739MOL0     H 1914   8.371   4.714   2.691 -0.6448 -1.1391  5.8975
  739MOL0     H 1915   8.184   4.667   2.706 -2.9381 -1.4653 -2.4491
  739MOL0     H 1916   8.051   4.786   2.706 -1.5888 -0.0440  2.3661
  739MOL0     H 1917   8.028   4.719   2.977  0.7735 -2.5595  1.6608
  739MOL0     H 1918   7.957   4.616   2.846 -0.5007  0.6287 -0.4056
  739MOL0     H 1919   8.100   4.466   2.982  1.3700 -1.9863 -0.0506
  739MOL0     H 1920   8.168   4.508   2.830  1.2893  1.3119 -0.0599
  739MOL0     H 1921   8.321   4.664   2.924  0.8768  1.2504  0.0084
  739MOL0     H 1922   8.235   4.665   3.084  2.0781  0.0941  0.7291
  739MOL0     H 1923   8.323   4.447   3.122 -1.2173 -0.2743 -0.9328
  739MOL0     H 1924   8.462   4.557   3.089 -2.6592 -0.0416  5.5757
  739MOL0     H 1925   8.373   4.382   2.848 -2.1830 -1.3424  1.8527
  739MOL0     H 1926   8.530   4.444   2.909  0.8620 -0.6667  1.0134
  739MOL0     H 1927   8.494   4.288   3.108  3.0182  2.4413 -1.3525
  739MOL0     H 1928   8.558   4.226   2.954  3.3620 -0.1026  2.9189
  739MOL0     H 1929   8.356   4.102   3.070 -3.2627  1.2349  1.0927
  739MOL0     H 1930   8.262   4.239   3.009 -0.0295 -0.0539  1.2068
  739MOL0     H 1931   8.470   3.930   2.874  1.1081  0.6491 -0.7166
  739MOL0     H 1932   8.348   3.846   2.517  0.1372  1.5258 -0.6803
  739MOL0     H 1933   8.456   3.802   2.649  0.7027  0.0925  0.9230
  739MOL0     H 1934   8.549   3.901   2.410  1.8913  0.7828 -0.6992
  739MOL0     H 1935   8.500   4.060   2.476 -0.1002  0.4027 -0.0588
  739MOL0     H 1936   8.660   4.041   2.657 -2.1774  1.4612 -2.3020
  739MOL0     H 1937   8.686   3.868   2.615 -3.2567 -0.5109 -0.8139
  739MOL0     H 1938   8.763   4.109   2.445 -4.0350 -1.2715 -0.1803
  739MOL0     H 1939   8.880   4.058   2.561  0.1460  1.9289 -1.2423
  739MOL0     H 1940   8.856   4.081   2.212 -0.5705 -2.3673  0.4228
  739MOL0     H 1941   9.104   4.170   1.996  2.6461  1.5730  0.4305
  739MOL0     H 1942   9.073   4.298   2.129 -0.4611 -0.1127 -0.3614
  739MOL0     H 1943   8.939   4.219   2.035  0.3184  1.8185 -0.5578
  739MOL0     H 1944   9.531   4.318   2.290 -2.5700 -0.5677 -0.0740
  739MOL0     H 1945   9.736   4.414   2.159 -1.6447 -0.3225  1.4137
  739MOL0     H 1946   9.703   4.477   1.679 -1.4716  0.0230  0.1993
  739MOL0     H 1947   9.693   4.617   1.799 -1.5956 -0.7240  1.5701
  739MOL0     H 1948   9.921   4.620   1.679  1.1155 -1.1502 -2.2107
  739MOL0     H 1949   9.934   4.549   1.845  1.7784 -4.6888 -0.0984
  739MOL0     H 1950   9.904   4.398   1.583  0.5301  1.1626 -0.2607
  739MOL0     H 1951   9.938   4.320   1.734 -1.0180 -0.4579  0.6346
  739MOL0     H 1952  10.154   4.411   1.747 -0.9125  0.0744  1.2773
  739MOL0     H 1953  10.129   4.523   1.608 -1.2571 -0.4719  0.6979
  739MOL0     H 1954  10.090   4.235   1.559  2.5110 -1.8295  0.3086
  739MOL0     H 1955  10.127   4.363   1.451  2.5366  1.2483 -0.2587
  739MOL0     H 1956  10.327   4.199   1.512  1.9758  1.7137 -2.1787
  739MOL0     H 1957  10.316   4.270   1.672 -0.7396 -1.2145  0.2115
  739MOL0     H 1958  10.494   4.363   1.532  0.1980 -1.6959  2.1105
  739MOL0     H 1959  10.375   4.487   1.566 -2.2200 -1.0507 -0.1766
  739MOL0     H 1960  10.276   4.446   1.333 -0.4065 -1.7039  1.7214
  739MOL0     H 1961  10.421   4.350   1.297 -1.5254  0.3855  0.3659
  739MOL0     H 1962   9.488   4.417   1.803 -0.5243  0.4967  1.2982
  739MOL0     H 1963   9.297   4.371   1.952  0.7785 -1.1110 -0.2604
  739MOL0     H 1964   9.293   3.952   2.390 -0.7729 -1.6723 -0.5543
  739MOL0     H 1965   9.101   3.849   2.479  0.6370 -0.5040 -1.2035
  739MOL0     H 1966   8.240   5.108   2.800  0.9221  1.2510  1.0982
  739MOL0     H 1967   8.439   5.199   2.681  0.9455 -0.5245 -2.4187
  739MOL0     H 1968   8.992   5.058   2.833  2.9041 -2.6140 -1.1009
  739MOL0     H 1969   9.198   5.183   2.805  0.4157  1.2929 -0.6971
  739MOL0     H 1970   9.222   5.415   2.811 -1.9426  0.6296 -1.4366
  739MOL0     H 1971   9.364   5.323   2.767 -1.6703 -0.2233  1.0619
  739MOL0     H 1972   9.436   5.553   2.819  1.2478 -2.7918 -0.1393
  739MOL0     H 1973   9.319   5.617   2.694 -0.9647 -0.6200 -0.6781
  739MOL0     H 1974   9.578   5.438   2.669  2.4880  0.9468  0.7249
  739MOL0     H 1975   9.478   5.492   2.544  0.9767 -3.8506  0.4899
  739MOL0     H 1976   9.596   5.694   2.767 -0.5735  3.6885 -0.5017
  739MOL0     H 1977   9.492   5.730   2.621 -0.4949 -0.7213 -1.1779
  739MOL0     H 1978   9.887   5.687   2.482 -1.0761  3.7636 -0.7105
  739MOL0     H 1979   9.024   5.360   2.450 -0.6224 -0.4474 -0.9612
  739MOL0     H 1980   8.818   5.303   2.349  2.9061 -1.6184 -0.0331
  739MOL0     H 1981   8.754   5.155   2.404  1.5679 -2.9160  2.9197
  739MOL0     H 1982   8.699   5.306   2.490  0.0814 -0.8805 -0.1065
  740MOL0     O 1983   7.421   6.503   7.478 -0.3754 -0.1113 -0.2314
  740MOL0     C 1984   7.384   6.415   7.398 -0.2090  0.8607 -0.8394
  740MOL0     O 1985   7.454   6.331   7.321  0.1027 -0.6111 -0.5727
  740MOL0     C 1986   7.580   6.365   7.307  0.2913 -0.6725  0.4117
  740MOL0     C 1987   7.614   6.494   7.244  0.2758  1.1617  0.0534
  740MOL0     C 1988   7.746   6.518   7.200  0.0740 -0.3106  1.0892
  740MOL0     C 1989   7.849   6.427   7.208 -0.0583 -0.4596 -0.3573
  740MOL0     O 1990   7.978   6.434   7.167 -0.1864 -0.4093  0.3027
  740MOL0     C 1991   8.031   6.563   7.131  0.1122  0.7047 -0.0398
  740MOL0     C 1992   8.181   6.527   7.131  0.9283  0.5468  0.9616
  740MOL0     C 1993   8.214   6.441   7.007  0.3359  0.5207  0.3187
  740MOL0     C 1994   8.358   6.446   6.952 -0.9869 -0.8896  0.1115
  740MOL0     C 1995   8.369   6.346   6.839 -0.4057  0.4220 -0.3287
  740MOL0     C 1996   8.512   6.346   6.766 -0.6520  0.5600 -0.5159
  740MOL0     C 1997   8.559   6.483   6.716 -0.2780  0.3045  0.2239
  740MOL0     C 1998   8.456   6.548   6.623 -0.5901  0.4409 -0.2182
  740MOL0     N 1999   8.424   6.459   6.507 -0.3077  0.3667  0.1697
  740MOL0     C 2000   8.484   6.481   6.381  0.1741  0.0481 -0.0299
  740MOL0     C 2001   8.422   6.396   6.294 -0.1221  0.5209  0.0972
  740MOL0     C 2002   8.450   6.393   6.144 -0.6567  0.2786 -0.0282
  740MOL0     C 2003   8.410   6.527   6.072  0.1941 -0.4747 -0.7185
  740MOL0     C 2004   8.393   6.509   5.926  0.4906 -0.9820  0.0649
  740MOL0     C 2005   8.522   6.490   5.849  0.4506 -0.7294  0.0046
  740MOL0     O 2006   8.601   6.616   5.848 -0.0056  0.3607 -0.5249
  740MOL0     C 2007   8.722   6.609   5.793 -0.1007  0.0961  0.1471
  740MOL0     C 2008   8.818   6.702   5.854 -0.0340  0.1673  0.8396
  740MOL0     C 2009   8.950   6.694   5.820  0.0830 -0.3482  0.3961
  740MOL0     C 2010   9.048   6.793   5.880  0.2583 -0.7403 -0.2843
  740MOL0     C 2011   8.998   6.600   5.731  0.0311 -0.1031 -0.4054
  740MOL0     C 2012   9.140   6.584   5.685  0.5974 -0.3900  0.9349
  740MOL0     O 2013   9.228   6.688   5.686 -0.3034  0.3449 -0.3673
  740MOL0     C 2014   9.367   6.662   5.653  0.3871 -1.1076 -0.4092
  740MOL0     C 2015   9.475   6.700   5.736  0.3917  0.2419 -0.4279
  740MOL0     C 2016   9.607   6.685   5.704 -0.6136 -0.3531  0.9998
  740MOL0     C 2017   9.652   6.650   5.576  0.7498  0.0440 -0.5751
  740MOL0     O 2018   9.781   6.625   5.532 -0.3605 -0.5666 -0.2906
  740MOL0     C 2019   9.887   6.702   5.583 -0.5745 -0.0287 -0.8874
  740MOL0     C 2020   9.999   6.606   5.584  1.0662  0.4111  0.2144
  740MOL0     C 2021  10.128   6.681   5.615  0.5256 -0.0455 -0.4885
  740MOL0     C 2022  10.246   6.588   5.625  0.9186 -0.4049 -0.5890
  740MOL0     C 2023  10.326   6.606   5.753 -0.1883  0.0479  0.1165
  740MOL0     C 2024  10.442   6.507   5.760  0.5699 -0.9738 -0.9116
  740MOL0     C 2025  10.478   6.491   5.909 -0.3456  0.3369  0.0519
  740MOL0     C 2026  10.608   6.419   5.924 -0.2974  0.0239  0.7974
  740MOL0    Cl 2027  10.584   6.243   5.867 -0.4624 -0.4570  0.1163
  740MOL0     C 2028   9.549   6.614   5.484  0.2113 -0.6789  0.0337
  740MOL0     C 2029   9.414   6.619   5.521  0.6484 -0.7782 -0.0375
  740MOL0     O 2030   9.172   6.469   5.664 -0.7929 -0.0732  0.5395
  740MOL0     C 2031   8.911   6.496   5.676 -0.2168  0.4886 -0.8859
  740MOL0     C 2032   8.776   6.511   5.702 -0.1187  0.6898 -0.7877
  740MOL0     N 2033   8.336   6.318   6.360 -0.3477 -1.0126  0.6004
  740MOL0     N 2034   8.324   6.367   6.478 -0.3050  0.0667 -0.6242
  740MOL0     C 2035   7.814   6.307   7.277  0.0916 -0.0083 -0.3900
  740MOL0     C 2036   7.687   6.275   7.329 -0.1587  0.0474  0.5443
  740MOL0     C 2037   7.245   6.408   7.363  0.0464 -0.2409 -0.3167
  740MOL0     C 2038   7.206   6.476   7.250  0.1633 -0.6870  0.0269
  740MOL0     C 2039   7.082   6.453   7.188  0.4930  0.3964 -0.7141
  740MOL0     C 2040   6.986   6.376   7.246  0.1852 -1.1771  0.6675
  740MOL0     O 2041   6.859   6.367   7.184  0.6125 -0.6803 -0.5719
  740MOL0     C 2042   6.829   6.429   7.059 -0.8060  0.1043  1.3821
  740MOL0     C 2043   6.685   6.400   7.010  0.5800 -0.7504  0.7446
  740MOL0     C 2044   6.617   6.501   6.913  0.4084 -0.6726 -0.7426
  740MOL0     C 2045   6.729   6.565   6.815  0.5355 -0.5397  1.1562
  740MOL0     C 2046   6.672   6.621   6.692 -0.3428 -0.0622 -0.5375
  740MOL0     C 2047   6.620   6.668   6.594  0.4158  0.7647 -0.0466
  740MOL0     C 2048   7.020   6.316   7.370  0.3010  0.3976 -0.5893
  740MOL0     C 2049   7.142   6.336   7.429 -0.0276  0.4612 -0.6689
  740MOL0     C 2050   7.184   6.250   7.543 -0.4983  0.3203 -1.0990
  740MOL0     H 2051   7.532   6.563   7.229  1.0846  1.9058 -1.1180
  740MOL0     H 2052   7.753   6.615   7.151 -1.4248 -2.6908 -4.6092
  740MOL0     H 2053   8.011   6.649   7.195  3.6863  2.0316 -0.4864
  740MOL0     H 2054   7.998   6.605   7.035 -0.6927  3.4264  1.3368
  740MOL0     H 2055   8.230   6.624   7.123 -0.0757  1.0668  0.8687
  740MOL0     H 2056   8.205   6.476   7.225 -0.8340 -0.3657  0.9672
  740MOL0     H 2057   8.188   6.335   7.015  0.1661  0.4228 -1.2377
  740MOL0     H 2058   8.145   6.467   6.927  0.8547 -2.1786 -1.1063
  740MOL0     H 2059   8.374   6.545   6.910  0.2452 -1.3368 -0.5204
  740MOL0     H 2060   8.438   6.432   7.025  1.1884 -2.6324 -2.4508
  740MOL0     H 2061   8.293   6.357   6.762 -1.9986  0.1302  1.1225
  740MOL0     H 2062   8.356   6.244   6.877  0.3426  0.5047  0.1829
  740MOL0     H 2063   8.570   6.311   6.852 -2.4906 -1.5383 -0.0312
  740MOL0     H 2064   8.522   6.261   6.697  0.5194 -2.8485  3.4484
  740MOL0     H 2065   8.648   6.464   6.656 -0.0180 -3.1928  1.5266
  740MOL0     H 2066   8.600   6.549   6.794 -0.2558  0.1968  0.3033
  740MOL0     H 2067   8.360   6.568   6.673 -0.3326 -1.5680  1.2206
  740MOL0     H 2068   8.506   6.627   6.568  0.8503 -2.1337 -2.8986
  740MOL0     H 2069   8.561   6.554   6.362 -0.0422  0.8271  1.8114
  740MOL0     H 2070   8.384   6.314   6.106 -2.0738  1.1409  0.5559
  740MOL0     H 2071   8.556   6.376   6.122 -0.7657  0.5491 -0.7947
  740MOL0     H 2072   8.319   6.565   6.120  1.1465  0.1084  0.6769
  740MOL0     H 2073   8.496   6.590   6.094 -1.2088  1.0434  0.7709
  740MOL0     H 2074   8.317   6.433   5.902 -1.1598  0.1863  1.2919
  740MOL0     H 2075   8.355   6.607   5.896 -0.0652 -1.3956 -0.6041
  740MOL0     H 2076   8.591   6.427   5.907  0.2205  1.5516  3.0361
  740MOL0     H 2077   8.499   6.465   5.745 -0.9922 -1.8838  0.5656
  740MOL0     H 2078   8.798   6.782   5.925  2.0767  1.1360  0.4332
  740MOL0     H 2079   9.087   6.868   5.811 -3.4589  3.6473  1.8786
  740MOL0     H 2080   9.128   6.734   5.928  0.5509  0.5918  0.9378
  740MOL0     H 2081   8.996   6.852   5.956  0.0038 -0.6452 -0.5364
  740MOL0     H 2082   9.452   6.746   5.832  0.7130  1.6330 -0.9811
  740MOL0     H 2083   9.682   6.714   5.777 -0.5128 -2.4594  1.7930
  740MOL0     H 2084   9.915   6.792   5.527  2.2563  1.5754  2.7411
  740MOL0     H 2085   9.869   6.729   5.687  1.8164 -1.0411 -0.1535
  740MOL0     H 2086   9.984   6.531   5.662  0.5764 -0.8625 -1.0611
  740MOL0     H 2087  10.003   6.554   5.487 -3.4217 -0.6780  0.3957
  740MOL0     H 2088  10.110   6.736   5.707  0.7200  0.6317 -0.8486
  740MOL0     H 2089  10.142   6.745   5.527  1.9424 -2.3242 -2.0268
  740MOL0     H 2090  10.307   6.602   5.535 -0.0405  1.4257 -1.0071
  740MOL0     H 2091  10.209   6.486   5.615 -0.1529  0.0989 -2.1800
  740MOL0     H 2092  10.365   6.707   5.750  3.1511 -1.1523 -0.8564
  740MOL0     H 2093  10.251   6.591   5.832 -0.9941 -0.9234 -0.7784
  740MOL0     H 2094  10.528   6.545   5.705  0.4639  1.2226  0.3236
  740MOL0     H 2095  10.412   6.409   5.721  2.1416 -1.9505  0.2248
  740MOL0     H 2096  10.404   6.422   5.950 -2.0153  0.5684 -2.3759
  740MOL0     H 2097  10.469   6.588   5.960 -2.1466 -0.5113  1.4389
  740MOL0     H 2098  10.640   6.425   6.028  1.0959 -0.0082  0.3936
  740MOL0     H 2099  10.685   6.461   5.858  0.0940 -1.1844  0.4559
  740MOL0     H 2100   9.573   6.582   5.383  0.3314 -2.7375  0.6817
  740MOL0     H 2101   9.343   6.598   5.441 -0.1656 -0.4800  0.5971
  740MOL0     H 2102   8.948   6.417   5.612  2.7411 -1.1762  2.5243
  740MOL0     H 2103   8.700   6.455   5.649 -2.1758  0.7438  1.9118
  740MOL0     H 2104   7.899   6.243   7.295  0.5127  0.6317 -0.0536
  740MOL0     H 2105   7.670   6.184   7.386 -0.2014 -0.6821 -0.6112
  740MOL0     H 2106   7.277   6.546   7.207 -1.9578  1.7083  0.1407
  740MOL0     H 2107   7.058   6.503   7.094  1.1794  1.0943 -0.5266
  740MOL0     H 2108   6.852   6.535   7.059 -1.3689  0.2326  2.3027
  740MOL0     H 2109   6.904   6.388   6.991 -1.4171  0.4267  0.4917
  740MOL0     H 2110   6.615   6.392   7.094  1.7679 -3.2913  1.5781
  740MOL0     H 2111   6.677   6.302   6.963 -1.4053  0.8967 -2.6824
  740MOL0     H 2112   6.532   6.461   6.858  1.0178  0.1344 -2.3456
  740MOL0     H 2113   6.586   6.587   6.973  3.0121 -0.8934  1.0742
  740MOL0     H 2114   6.816   6.501   6.798  2.9238  2.1293  2.5142
  740MOL0     H 2115   6.771   6.657   6.857 -1.8064  2.3013 -2.2016
  740MOL0     H 2116   6.583   6.708   6.502 -1.8511  1.0417  0.9364
  740MOL0     H 2117   6.949   6.249   7.416  1.7161  0.7413  2.3306
  740MOL0     H 2118   7.255   6.174   7.508  0.8564  0.3223  1.4306
  740MOL0     H 2119   7.223   6.315   7.622  1.6328  0.0006 -1.8143
  740MOL0     H 2120   7.108   6.200   7.603  2.4424 -1.8443  1.1570
  741MOL0     O 2121   9.182   7.105   6.164 -0.4654 -0.3650 -0.1471
  741MOL0     C 2122   9.097   7.181   6.213  0.1250 -0.3609  0.5228
  741MOL0     O 2123   8.985   7.143   6.292  0.0571  0.0176  0.8986
  741MOL0     C 2124   8.973   7.010   6.305 -0.3662 -0.4549 -1.3443
  741MOL0     C 2125   8.858   6.945   6.248  0.5985  0.9683  0.1529
  741MOL0     C 2126   8.825   6.815   6.279  0.1839 -0.5831  0.3850
  741MOL0     C 2127   8.913   6.747   6.374  0.1429  0.6230 -0.1206
  741MOL0     O 2128   8.905   6.615   6.405  0.2097  1.0460  0.2046
  741MOL0     C 2129   8.969   6.526   6.311 -0.6282 -1.7827 -1.4232
  741MOL0     C 2130   8.891   6.414   6.289  0.0458  0.5493 -0.2799
  741MOL0     C 2131   8.859   6.334   6.419 -0.8697 -0.0611 -0.6678
  741MOL0     C 2132   8.781   6.200   6.384 -0.4571 -0.0090 -0.2320
  741MOL0     C 2133   8.664   6.160   6.484 -0.6866  0.0770 -0.1557
  741MOL0     C 2134   8.575   6.059   6.422 -0.1922 -0.6247 -0.1753
  741MOL0     C 2135   8.482   5.980   6.509  0.0335  0.1182 -0.1738
  741MOL0     C 2136   8.400   5.881   6.424 -0.3576  0.0168  0.2433
  741MOL0     N 2137   8.476   5.786   6.340  0.4149 -0.2218 -0.7296
  741MOL0     C 2138   8.587   5.711   6.371  0.8296  0.0255 -0.0424
  741MOL0     C 2139   8.633   5.651   6.253  0.4021  0.4595 -0.1230
  741MOL0     C 2140   8.746   5.545   6.225 -0.0515 -1.1487 -0.2604
  741MOL0     C 2141   8.737   5.422   6.323 -0.2659 -0.2432  0.3332
  741MOL0     C 2142   8.621   5.327   6.290  0.3886 -0.1823 -0.1309
  741MOL0     C 2143   8.480   5.374   6.339 -0.4129 -0.4914 -0.7861
  741MOL0     O 2144   8.474   5.390   6.489  0.3434  0.3853 -0.0196
  741MOL0     C 2145   8.358   5.449   6.532 -0.4031 -0.0901  0.7577
  741MOL0     C 2146   8.370   5.558   6.616 -0.3473 -0.3864 -0.6810
  741MOL0     C 2147   8.257   5.625   6.674 -0.2494  0.7256 -0.4095
  741MOL0     C 2148   8.283   5.758   6.738  0.0801 -0.5161 -0.6586
  741MOL0     C 2149   8.124   5.572   6.652  0.7030  1.2558  0.3999
  741MOL0     C 2150   7.996   5.622   6.715  0.0349  0.6682 -0.1811
  741MOL0     O 2151   7.881   5.558   6.688  0.3674 -0.6770  1.1472
  741MOL0     C 2152   7.762   5.621   6.721 -1.6119 -0.0280  1.0284
  741MOL0     C 2153   7.665   5.529   6.760  1.1217 -0.8603  0.2236
  741MOL0     C 2154   7.529   5.570   6.784  0.4648 -0.3021  0.5463
  741MOL0     C 2155   7.498   5.710   6.767 -0.0454 -0.0719 -0.0247
  741MOL0     O 2156   7.370   5.770   6.766 -0.0528 -0.5917 -0.4257
  741MOL0     C 2157   7.294   5.715   6.872 -0.5062  0.4884  0.7056
  741MOL0     C 2158   7.149   5.760   6.870 -0.2971  0.3872 -0.8270
  741MOL0     C 2159   7.079   5.708   6.742 -0.1668  0.6223  0.2991
  741MOL0     C 2160   6.967   5.811   6.692  0.1798  0.1758 -0.4613
  741MOL0     C 2161   6.878   5.754   6.577  1.1480  0.0318  0.8313
  741MOL0     C 2162   6.774   5.637   6.606  0.0315 -0.4609  0.2406
  741MOL0     C 2163   6.696   5.641   6.738 -1.0815 -0.0904 -1.0036
  741MOL0     C 2164   6.637   5.510   6.782  0.0911  0.4907  1.2124
  741MOL0    Cl 2165   6.746   5.370   6.759 -0.2397  0.4838  0.1315
  741MOL0     C 2166   7.604   5.800   6.732  1.1900  0.0863 -0.7425
  741MOL0     C 2167   7.730   5.752   6.712 -0.7123 -0.8940  0.0117
  741MOL0     O 2168   8.003   5.722   6.788 -0.2828  0.0260  0.2740
  741MOL0     C 2169   8.114   5.456   6.562 -0.1991 -0.2365 -0.1813
  741MOL0     C 2170   8.226   5.403   6.493 -0.0672 -0.0883 -0.2750
  741MOL0     N 2171   8.566   5.711   6.155 -0.0740  0.2964  0.0988
  741MOL0     N 2172   8.482   5.796   6.203  0.3325  0.1286 -0.0178
  741MOL0     C 2173   9.020   6.810   6.436 -0.5838 -0.1008 -0.0824
  741MOL0     C 2174   9.057   6.937   6.389 -0.5387 -0.5652 -0.6142
  741MOL0     C 2175   9.111   7.327   6.208 -0.8001  1.3265  0.9666
  741MOL0     C 2176   9.053   7.400   6.305  0.2154  1.1659  0.0837
  741MOL0     C 2177   9.059   7.539   6.307  0.7756 -0.1510  0.0113
  741MOL0     C 2178   9.139   7.601   6.211  0.5648 -0.8769  1.0297
  741MOL0     O 2179   9.138   7.738   6.197 -0.0529  0.1042  0.0480
  741MOL0     C 2180   9.193   7.803   6.075  0.2338  0.4748 -0.7380
  741MOL0     C 2181   9.092   7.812   5.961  0.5474 -0.1495  0.7248
  741MOL0     C 2182   8.982   7.909   5.999  1.0569  0.5184  1.2477
  741MOL0     C 2183   8.862   7.829   6.066 -0.1994  0.0975  0.5184
  741MOL0     C 2184   8.739   7.897   6.101 -1.2210  0.9884  0.6063
  741MOL0     C 2185   8.633   7.939   6.136 -0.4860  0.6314  0.3978
  741MOL0     C 2186   9.194   7.525   6.108 -0.2398  0.2878  0.4077
  741MOL0     C 2187   9.182   7.392   6.102  0.2730  0.0435 -0.8915
  741MOL0     C 2188   9.238   7.313   5.986 -0.0551  0.1875 -0.1380
  741MOL0     H 2189   8.798   6.999   6.175 -1.1422 -0.5173  0.4275
  741MOL0     H 2190   8.742   6.782   6.217 -0.6928  0.9466  0.6956
  741MOL0     H 2191   9.064   6.488   6.349 -1.5480 -1.3180  1.6363
  741MOL0     H 2192   8.995   6.581   6.220 -1.5433 -1.7986 -1.7054
  741MOL0     H 2193   8.804   6.443   6.229 -0.7723 -0.3455  0.4463
  741MOL0     H 2194   8.953   6.349   6.228  2.4997  2.4968 -0.0255
  741MOL0     H 2195   8.957   6.310   6.461 -1.8683 -1.0914  1.1945
  741MOL0     H 2196   8.816   6.391   6.502 -0.1872  0.8248 -0.9144
  741MOL0     H 2197   8.733   6.217   6.287  1.6324  2.0309 -1.0110
  741MOL0     H 2198   8.848   6.115   6.370  0.5423  0.9542 -1.5487
  741MOL0     H 2199   8.610   6.254   6.500 -0.4761  0.8127 -3.2413
  741MOL0     H 2200   8.705   6.129   6.580 -2.2852  1.4340  1.0422
  741MOL0     H 2201   8.505   6.113   6.357  1.5874  0.9664 -0.8748
  741MOL0     H 2202   8.629   5.997   6.350 -1.5084  1.3579 -3.0706
  741MOL0     H 2203   8.417   6.046   6.567  0.6775  0.5359  0.0946
  741MOL0     H 2204   8.535   5.916   6.580 -0.5399 -1.1149 -0.8349
  741MOL0     H 2205   8.348   5.819   6.498  1.9589 -1.2931  0.8831
  741MOL0     H 2206   8.335   5.931   6.352 -1.3345  2.0293  2.3919
  741MOL0     H 2207   8.623   5.689   6.471 -1.2266  0.8901  0.9498
  741MOL0     H 2208   8.836   5.603   6.246 -0.2064 -0.4182 -1.4673
  741MOL0     H 2209   8.758   5.514   6.121 -1.2061  2.4336 -1.6261
  741MOL0     H 2210   8.832   5.367   6.314  1.8536  2.9269  1.5343
  741MOL0     H 2211   8.727   5.452   6.428 -0.1931  2.3736 -0.3437
  741MOL0     H 2212   8.626   5.318   6.181  0.3504 -0.4372 -0.1104
  741MOL0     H 2213   8.639   5.228   6.332 -0.6922  0.2810  1.5714
  741MOL0     H 2214   8.453   5.466   6.286  1.0874  0.4775  0.0667
  741MOL0     H 2215   8.408   5.298   6.305  0.1835 -0.5345 -2.0033
  741MOL0     H 2216   8.467   5.598   6.642  1.1292 -4.4359  0.9579
  741MOL0     H 2217   8.382   5.789   6.702  1.0863 -4.1187 -1.3992
  741MOL0     H 2218   8.298   5.746   6.846  2.7612 -5.3648 -1.2715
  741MOL0     H 2219   8.205   5.830   6.710  0.8072  0.3600 -0.4642
  741MOL0     H 2220   7.702   5.428   6.773  0.1630 -1.4216 -1.1734
  741MOL0     H 2221   7.452   5.494   6.780 -0.2882  0.4778 -0.3721
  741MOL0     H 2222   7.299   5.607   6.859  0.8857  0.9360 -4.6147
  741MOL0     H 2223   7.328   5.745   6.972 -2.8738  1.4273  1.3239
  741MOL0     H 2224   7.098   5.724   6.960 -0.0411  0.6148 -0.5883
  741MOL0     H 2225   7.154   5.868   6.887  1.0083  0.0179  1.5134
  741MOL0     H 2226   7.023   5.616   6.760  1.0689  0.2978  2.9085
  741MOL0     H 2227   7.162   5.684   6.675  1.2360  1.0696  1.8163
  741MOL0     H 2228   7.027   5.896   6.657  0.2250  0.4009  0.1551
  741MOL0     H 2229   6.906   5.855   6.771  1.8923  1.9994 -0.0807
  741MOL0     H 2230   6.831   5.843   6.533  2.0500  0.7120  1.2107
  741MOL0     H 2231   6.945   5.709   6.503  2.1405  1.6363  0.7115
  741MOL0     H 2232   6.834   5.545   6.612  0.1216 -0.6251 -2.1428
  741MOL0     H 2233   6.703   5.625   6.524 -0.2205  1.7775  0.0859
  741MOL0     H 2234   6.616   5.716   6.742 -0.8258  0.1763  2.7379
  741MOL0     H 2235   6.763   5.674   6.819 -1.7751 -1.7948  0.3191
  741MOL0     H 2236   6.548   5.501   6.718  3.0684 -1.8866 -3.0953
  741MOL0     H 2237   6.607   5.507   6.887 -2.2447 -3.1083  0.6511
  741MOL0     H 2238   7.579   5.906   6.725  1.2567  0.0291 -2.0905
  741MOL0     H 2239   7.809   5.817   6.674 -0.3295 -2.7625 -2.6361
  741MOL0     H 2240   8.014   5.416   6.548 -1.1762  2.1523 -0.5371
  741MOL0     H 2241   8.203   5.318   6.430 -1.0808 -1.0710  1.3693
  741MOL0     H 2242   9.069   6.761   6.520  0.1691  3.9118  2.0903
  741MOL0     H 2243   9.142   6.991   6.430 -0.1139 -1.2042 -0.6296
  741MOL0     H 2244   8.993   7.360   6.386  0.0236  1.1355 -0.0724
  741MOL0     H 2245   8.999   7.593   6.380 -1.5270 -1.1298 -1.0830
  741MOL0     H 2246   9.213   7.906   6.106 -0.2492  0.7292 -1.2402
  741MOL0     H 2247   9.284   7.756   6.037 -0.6976  1.1285 -4.1607
  741MOL0     H 2248   9.051   7.713   5.940  0.5819  0.1778 -1.0012
  741MOL0     H 2249   9.140   7.852   5.872 -1.8307  2.7710  0.6051
  741MOL0     H 2250   9.022   7.994   6.055 -1.5073  1.8760  1.2036
  741MOL0     H 2251   8.943   7.957   5.908  0.5285  0.6150  1.5207
  741MOL0     H 2252   8.906   7.776   6.151  1.9412  1.2957  0.2387
  741MOL0     H 2253   8.830   7.748   6.000 -1.7095 -0.5867  2.0393
  741MOL0     H 2254   8.535   7.974   6.160 -1.3855 -0.7494 -0.9968
  741MOL0     H 2255   9.247   7.554   6.018 -1.0301  0.2335 -0.0830
  741MOL0     H 2256   9.179   7.224   5.965  1.5454 -0.7875 -0.6905
  741MOL0     H 2257   9.249   7.370   5.893  0.2782  0.0636 -0.1760
  741MOL0     H 2258   9.334   7.271   6.018 -0.1727 -0.8678 -1.1179
  742MOL0     O 2259   3.142   9.417  10.929  0.0943 -0.0437  0.4707
  742MOL0     C 2260   3.068   9.420  10.834 -0.6039  0.5682 -0.4023
  742MOL0     O 2261   2.970   9.327  10.804 -0.9781 -0.4687 -0.5684
  742MOL0     C 2262   2.972   9.202  10.863 -0.2557  0.1303 -0.4745
  742MOL0     C 2263   3.050   9.107  10.808 -0.0568 -0.1853  0.7109
  742MOL0     C 2264   3.081   8.990  10.878 -0.1168  0.1612  0.2422
  742MOL0     C 2265   3.017   8.962  11.003 -0.5026 -0.0314  0.7452
  742MOL0     O 2266   3.024   8.851  11.069 -0.7494  1.0123 -0.1133
  742MOL0     C 2267   3.092   8.746  10.997 -0.2256  0.1522 -0.1511
  742MOL0     C 2268   3.019   8.686  10.880 -0.5847 -0.9832 -0.4434
  742MOL0     C 2269   2.891   8.614  10.935 -0.3663 -0.1970 -0.2256
  742MOL0     C 2270   2.896   8.462  10.905  0.2977 -0.2311 -0.4697
  742MOL0     C 2271   2.995   8.388  10.994 -0.0379  0.9891 -0.0935
  742MOL0     C 2272   3.017   8.251  10.945  0.0333 -0.9844 -0.3327
  742MOL0     C 2273   2.896   8.160  10.947 -0.3299  0.3451 -0.5239
  742MOL0     C 2274   2.849   8.114  11.088  0.2029 -0.4708 -1.0283
  742MOL0     N 2275   2.782   8.221  11.161 -0.4544 -0.4880 -0.2664
  742MOL0     C 2276   2.673   8.290  11.124 -0.5816 -0.9317  0.8935
  742MOL0     C 2277   2.634   8.379  11.221 -0.1044 -0.0210 -0.1875
  742MOL0     C 2278   2.517   8.469  11.206  0.5838 -0.4186  0.8944
  742MOL0     C 2279   2.560   8.580  11.109  0.6920  0.0461  0.5018
  742MOL0     C 2280   2.621   8.699  11.183 -0.2140  0.2342 -0.1883
  742MOL0     C 2281   2.517   8.771  11.275  0.1591  0.3072 -0.6023
  742MOL0     O 2282   2.384   8.758  11.224  0.6276  0.8313  0.0154
  742MOL0     C 2283   2.327   8.851  11.140  0.2389 -0.6151 -0.7410
  742MOL0     C 2284   2.407   8.929  11.049 -0.0566 -0.0657  0.1038
  742MOL0     C 2285   2.355   9.049  10.996  0.6658 -0.1311  0.3282
  742MOL0     C 2286   2.442   9.131  10.895 -0.0494 -0.2149  0.4779
  742MOL0     C 2287   2.227   9.086  11.036  0.0188 -1.3783  0.8174
  742MOL0     C 2288   2.171   9.230  11.013  0.3308  0.2621 -0.0835
  742MOL0     O 2289   2.042   9.252  11.055 -0.6227 -0.1190 -0.5802
  742MOL0     C 2290   1.986   9.367  11.014  0.0431  0.1742  0.0800
  742MOL0     C 2291   1.951   9.398  10.877  0.3157  0.9620 -0.0277
  742MOL0     C 2292   1.900   9.523  10.860  0.3549 -1.4065 -0.2016
  742MOL0     C 2293   1.875   9.610  10.968  0.6789 -0.0251 -0.6420
  742MOL0     O 2294   1.842   9.739  10.935  0.2260  0.7927 -0.3725
  742MOL0     C 2295   1.775   9.825  11.031  0.0166  0.0012 -1.1035
  742MOL0     C 2296   1.724   9.949  10.946  0.4703 -0.6516 -0.2278
  742MOL0     C 2297   1.586   9.938  10.868 -0.2586  0.2072 -0.4261
  742MOL0     C 2298   1.593   9.854  10.735 -0.5137  0.9719  0.0123
  742MOL0     C 2299   1.475   9.864  10.641  0.3771 -0.1318  0.3396
  742MOL0     C 2300   1.504   9.790  10.512  0.2155  0.5009 -0.1879
  742MOL0     C 2301   1.374   9.786  10.438  0.8908 -0.2475  0.4621
  742MOL0     C 2302   1.369   9.703  10.317  0.2224  0.1222  0.3249
  742MOL0    Cl 2303   1.203   9.633  10.285  0.3836 -0.3338  0.0285
  742MOL0     C 2304   1.912   9.571  11.093  0.1779 -0.0819 -0.1197
  742MOL0     C 2305   1.965   9.453  11.124  0.2883  0.7276  0.3799
  742MOL0     O 2306   2.237   9.313  10.947 -0.0205 -0.1652 -0.4585
  742MOL0     C 2307   2.146   9.004  11.109  0.0420 -0.2581  0.7705
  742MOL0     C 2308   2.197   8.889  11.170  0.2167  0.2164  0.3190
  742MOL0     N 2309   2.721   8.363  11.322 -0.0942 -0.7264 -0.0110
  742MOL0     N 2310   2.800   8.268  11.292  0.3795 -0.0319  0.4537
  742MOL0     C 2311   2.926   9.048  11.058  0.3299 -0.4213  0.7222
  742MOL0     C 2312   2.905   9.171  10.988  0.2755  0.4058 -0.5882
  742MOL0     C 2313   3.058   9.532  10.749 -0.0069 -0.3833 -0.2432
  742MOL0     C 2314   2.952   9.555  10.663  0.2622  0.1381  0.1903
  742MOL0     C 2315   2.944   9.666  10.579  0.6208  0.0521  0.1648
  742MOL0     C 2316   3.045   9.767  10.580 -0.0990  1.1359 -0.8037
  742MOL0     O 2317   3.042   9.876  10.505  0.3874 -0.5774  0.8612
  742MOL0     C 2318   2.924   9.956  10.538  0.1376 -0.9993  0.3948
  742MOL0     C 2319   2.962  10.101  10.510 -0.3939  1.1878 -0.2785
  742MOL0     C 2320   3.043  10.171  10.618  1.0713  0.1836  0.1114
  742MOL0     C 2321   3.041  10.323  10.601 -0.6983  0.7500  0.1161
  742MOL0     C 2322   3.098  10.395  10.722 -0.2425  0.0415 -0.6262
  742MOL0     C 2323   3.148  10.442  10.821 -0.2500 -0.0046 -0.0650
  742MOL0     C 2324   3.159   9.742  10.662  0.4660 -0.4594  0.2751
  742MOL0     C 2325   3.170   9.623  10.748  0.6320 -0.5428  0.2893
  742MOL0     C 2326   3.313   9.612  10.802  0.4804 -0.6552  0.2250
  742MOL0     H 2327   3.095   9.137  10.714 -1.9252  1.2686  0.2164
  742MOL0     H 2328   3.157   8.930  10.830  0.1320 -0.0902  0.9410
  742MOL0     H 2329   3.110   8.655  11.056  1.5681 -1.1791 -2.5712
  742MOL0     H 2330   3.195   8.775  10.975 -0.4611 -0.0461 -1.6438
  742MOL0     H 2331   2.982   8.767  10.817 -0.4763  0.7254  1.5685
  742MOL0     H 2332   3.082   8.619  10.822  0.0170  1.0007 -2.1992
  742MOL0     H 2333   2.872   8.637  11.040  1.2204 -0.7069  0.2085
  742MOL0     H 2334   2.811   8.667  10.883 -1.7875  0.2157  2.2387
  742MOL0     H 2335   2.793   8.440  10.936 -0.3627  1.3341 -1.4214
  742MOL0     H 2336   2.905   8.445  10.798  2.3459 -0.4585 -0.3046
  742MOL0     H 2337   2.970   8.388  11.100  0.0338 -1.0865 -0.0212
  742MOL0     H 2338   3.089   8.444  10.992 -0.2667  1.4877  1.6118
  742MOL0     H 2339   3.052   8.256  10.842 -1.7918 -1.8307 -1.0343
  742MOL0     H 2340   3.095   8.198  11.000  2.4198  0.8323 -1.7677
  742MOL0     H 2341   2.919   8.078  10.878 -0.6252  1.6930 -2.3117
  742MOL0     H 2342   2.806   8.206  10.906 -0.3568  0.3745 -0.4310
  742MOL0     H 2343   2.783   8.028  11.077  0.9781 -1.2252  0.0779
  742MOL0     H 2344   2.936   8.074  11.141 -1.2749 -0.9234  1.2014
  742MOL0     H 2345   2.637   8.268  11.024 -0.9825  0.7336  0.6539
  742MOL0     H 2346   2.490   8.494  11.309  2.5412  0.5437  1.2187
  742MOL0     H 2347   2.429   8.428  11.155  2.4433  0.2876 -3.3255
  742MOL0     H 2348   2.635   8.537  11.042 -2.8557 -1.7285 -2.7523
  742MOL0     H 2349   2.483   8.616  11.040  1.9003  3.1158  0.6095
  742MOL0     H 2350   2.705   8.666  11.245  0.9226  1.1315 -1.2022
  742MOL0     H 2351   2.676   8.763  11.113 -0.1427 -1.5752 -1.8807
  742MOL0     H 2352   2.511   8.730  11.376 -1.6178  1.9416  0.0363
  742MOL0     H 2353   2.541   8.878  11.280  0.4243  0.3640 -2.4768
  742MOL0     H 2354   2.511   8.909  11.027 -0.9050 -2.4995 -2.2200
  742MOL0     H 2355   2.385   9.170  10.810  1.5690 -1.0636 -1.0729
  742MOL0     H 2356   2.523   9.069  10.855 -0.2252  0.2429 -0.6256
  742MOL0     H 2357   2.490   9.216  10.945  2.6540 -1.4983  0.2337
  742MOL0     H 2358   1.949   9.335  10.789  1.0598 -0.5446  0.9908
  742MOL0     H 2359   1.875   9.563  10.762  1.3537 -0.2411  0.0032
  742MOL0     H 2360   1.697   9.777  11.091  1.0352 -1.6751 -1.0444
  742MOL0     H 2361   1.850   9.865  11.099 -0.0770  1.4933 -1.8563
  742MOL0     H 2362   1.710  10.026  11.022 -1.2286  0.1749 -1.3172
  742MOL0     H 2363   1.798   9.991  10.877  0.6143 -1.0958 -0.3492
  742MOL0     H 2364   1.542  10.035  10.842 -3.9911 -1.1274  0.3077
  742MOL0     H 2365   1.518   9.903  10.946 -0.5220  0.3971 -0.5673
  742MOL0     H 2366   1.631   9.754  10.759 -1.4254  1.0871  2.1522
  742MOL0     H 2367   1.678   9.900  10.685 -0.6649  0.5575 -0.6277
  742MOL0     H 2368   1.399   9.808  10.696  1.2821  0.4811  2.2874
  742MOL0     H 2369   1.443   9.968  10.628  2.1513  0.5859  1.3445
  742MOL0     H 2370   1.536   9.687  10.530  3.5357  1.1539 -1.4403
  742MOL0     H 2371   1.581   9.839  10.451 -1.1961  2.0154 -0.8014
  742MOL0     H 2372   1.338   9.885  10.411  1.8715 -0.4818 -2.0051
  742MOL0     H 2373   1.297   9.752  10.508  1.5600  1.8542  2.3724
  742MOL0     H 2374   1.436   9.621  10.341  0.1343  0.5890  2.3049
  742MOL0     H 2375   1.392   9.760  10.226  1.9398 -0.6505  0.2340
  742MOL0     H 2376   1.893   9.644  11.171 -0.8875  2.2076 -2.3643
  742MOL0     H 2377   1.989   9.443  11.229 -1.3990 -0.3725  0.6984
  742MOL0     H 2378   2.052   9.037  11.151 -1.5073 -0.7625 -2.0329
  742MOL0     H 2379   2.153   8.835  11.253  2.1961 -3.0690 -0.5437
  742MOL0     H 2380   2.874   9.029  11.151  0.3408 -1.2894  0.5631
  742MOL0     H 2381   2.846   9.233  11.054  1.5942  2.0440 -0.8798
  742MOL0     H 2382   2.865   9.491  10.667 -0.0533  0.5574  0.0844
  742MOL0     H 2383   2.847   9.676  10.531 -0.7482  3.0105  3.1735
  742MOL0     H 2384   2.846   9.929  10.466 -1.0109  1.2626  0.7185
  742MOL0     H 2385   2.889   9.944  10.640 -0.1101  0.3476  0.4859
  742MOL0     H 2386   2.872  10.158  10.487 -1.3348 -0.0107  0.2890
  742MOL0     H 2387   3.020  10.104  10.417  2.2058 -2.8650  0.9339
  742MOL0     H 2388   3.004  10.153  10.719 -0.3320 -1.3532 -0.6484
  742MOL0     H 2389   3.143  10.130  10.630  2.7549  4.1440  1.1580
  742MOL0     H 2390   2.940  10.353  10.572 -1.3813 -1.8193 -0.4124
  742MOL0     H 2391   3.116  10.336  10.522  2.1401 -0.7818  2.3613
  742MOL0     H 2392   3.188  10.496  10.905  1.0725 -1.3807  0.2394
  742MOL0     H 2393   3.243   9.809  10.644 -0.3922  0.4697 -0.3385
  742MOL0     H 2394   3.339   9.509  10.826 -2.1447 -1.0849  1.6640
  742MOL0     H 2395   3.381   9.646  10.723 -1.1300  0.3403 -0.7812
  742MOL0     H 2396   3.319   9.678  10.889  1.5592  0.3374 -0.5683
  743MOL0     O 2397   0.037   5.755   5.402 -0.7531  0.5155 -0.2065
  743MOL0     C 2398   0.078   5.651   5.352 -0.1761  0.5830  0.0225
  743MOL0     O 2399   0.022   5.523   5.371  0.2184 -0.0822  0.4749
  743MOL0     C 2400  -0.068   5.505   5.473 -1.6827 -0.0962 -0.5799
  743MOL0     C 2401  -0.032   5.544   5.605 -0.5854 -0.3516  0.9838
  743MOL0     C 2402  -0.108   5.512   5.719 -0.4668  0.3503  0.6278
  743MOL0     C 2403  -0.236   5.454   5.695 -0.8776  0.3028 -0.0017
  743MOL0     O 2404  -0.314   5.426   5.805  0.3648 -0.0188 -0.0814
  743MOL0     C 2405  -0.430   5.519   5.804 -0.2884  0.3956 -0.0928
  743MOL0     C 2406  -0.471   5.514   5.946 -0.5431 -0.8571 -0.7413
  743MOL0     C 2407  -0.380   5.590   6.044  0.7823  1.0791  0.1818
  743MOL0     C 2408  -0.432   5.572   6.189 -0.3781 -0.9656  0.0994
  743MOL0     C 2409  -0.339   5.647   6.281  0.5655  0.3466 -0.7606
  743MOL0     C 2410  -0.357   5.629   6.433  0.1514 -0.0193 -0.1334
  743MOL0     C 2411  -0.266   5.513   6.488  0.0836  0.3576 -0.2725
  743MOL0     C 2412  -0.227   5.532   6.646 -0.1198  0.2039  1.0729
  743MOL0     N 2413  -0.342   5.546   6.735  0.5177 -0.2737 -0.4509
  743MOL0     C 2414  -0.390   5.439   6.812  0.1450 -0.3518 -0.1533
  743MOL0     C 2415  -0.462   5.499   6.911  0.1257 -0.9484  0.1876
  743MOL0     C 2416  -0.536   5.426   7.016 -1.0057  0.1813 -0.4354
  743MOL0     C 2417  -0.590   5.524   7.114 -0.2182  0.5174 -0.1850
  743MOL0     C 2418  -0.672   5.466   7.227  0.0690 -0.0788  0.7147
  743MOL0     C 2419  -0.593   5.362   7.307 -0.4247  0.2887 -0.4447
  743MOL0     O 2420  -0.454   5.388   7.328 -0.3090  0.0680  0.0281
  743MOL0     C 2421  -0.415   5.447   7.439  0.0913 -0.2427 -0.2929
  743MOL0     C 2422  -0.497   5.489   7.544 -0.3910 -0.6629 -0.4289
  743MOL0     C 2423  -0.435   5.537   7.661  0.0028  0.1120  0.9153
  743MOL0     C 2424  -0.522   5.569   7.779  0.2436  0.2343  0.4277
  743MOL0     C 2425  -0.292   5.552   7.670 -0.7703  0.2149 -0.1806
  743MOL0     C 2426  -0.219   5.610   7.787  0.7421 -0.2745  0.4152
  743MOL0     O 2427  -0.086   5.605   7.768  0.1989 -0.1861 -0.3431
  743MOL0     C 2428  -0.000   5.654   7.864 -0.6928 -0.2969 -0.4528
  743MOL0     C 2429  -0.005   5.779   7.916 -0.4558  0.1393  0.8470
  743MOL0     C 2430   0.102   5.835   7.987  0.6360  0.4043 -0.4886
  743MOL0     C 2431   0.200   5.754   8.045 -0.5576  0.9016 -0.9209
  743MOL0     O 2432   0.292   5.811   8.131 -0.1663 -0.0852 -0.1389
  743MOL0     C 2433   0.409   5.742   8.183 -0.9388  0.3405  0.3160
  743MOL0     C 2434   0.452   5.816   8.305 -0.2460 -0.3837  0.8306
  743MOL0     C 2435   0.502   5.960   8.260 -0.1695  0.4761  1.4254
  743MOL0     C 2436   0.582   6.055   8.353 -0.2181  0.0408  1.1595
  743MOL0     C 2437   0.613   6.188   8.285 -0.0814 -0.0048 -0.7344
  743MOL0     C 2438   0.682   6.296   8.373  0.4019 -0.6237  0.2095
  743MOL0     C 2439   0.804   6.253   8.460  0.3378 -0.2318 -0.1629
  743MOL0     C 2440   0.758   6.236   8.599  0.1146  0.7177 -0.4115
  743MOL0    Cl 2441   0.668   6.384   8.660 -0.0112 -0.3222 -0.5990
  743MOL0     C 2442   0.208   5.620   7.997 -0.5318  0.0982 -0.0031
  743MOL0     C 2443   0.112   5.577   7.902  0.2343  0.2109  0.1234
  743MOL0     O 2444  -0.273   5.651   7.889  0.6498 -0.5467 -0.7216
  743MOL0     C 2445  -0.218   5.511   7.559  0.3627 -0.6718  0.2864
  743MOL0     C 2446  -0.278   5.465   7.442  0.1964  0.5803  0.1374
  743MOL0     N 2447  -0.449   5.634   6.897 -0.4523  0.1409  0.1118
  743MOL0     N 2448  -0.384   5.666   6.782  0.2697  0.3968 -0.5103
  743MOL0     C 2449  -0.273   5.412   5.566 -0.2027 -0.5638 -0.0584
  743MOL0     C 2450  -0.184   5.439   5.459  0.3397 -0.3122  0.4891
  743MOL0     C 2451   0.193   5.668   5.263 -0.5898  0.5625  0.3653
  743MOL0     C 2452   0.201   5.796   5.207 -0.8660 -0.6387 -0.4261
  743MOL0     C 2453   0.312   5.845   5.140 -0.9931  1.0815  0.3314
  743MOL0     C 2454   0.422   5.761   5.117  1.2215  0.1412  0.7818
  743MOL0     O 2455   0.521   5.816   5.040  0.4933 -0.4936 -0.0234
  743MOL0     C 2456   0.624   5.728   5.004 -0.7292  0.6956  0.3658
  743MOL0     C 2457   0.724   5.816   4.915  0.0817  0.2740  1.0523
  743MOL0     C 2458   0.827   5.746   4.834 -0.8569 -0.5303 -0.1014
  743MOL0     C 2459   0.930   5.858   4.777 -0.7515  0.3947  0.1146
  743MOL0     C 2460   0.995   5.953   4.869 -0.4025 -0.1620  0.4030
  743MOL0     C 2461   1.055   6.035   4.928  0.6729 -0.3036  0.2706
  743MOL0     C 2462   0.411   5.627   5.160  0.7872  0.3876  0.0218
  743MOL0     C 2463   0.292   5.578   5.215 -0.4836 -0.1842  0.7754
  743MOL0     C 2464   0.284   5.436   5.244 -0.1622  0.0921 -0.4045
  743MOL0     H 2465   0.066   5.583   5.629  0.8900 -2.9162 -0.4743
  743MOL0     H 2466  -0.081   5.527   5.823 -0.5612 -1.0208  0.8746
  743MOL0     H 2467  -0.524   5.479   5.767  0.6996 -1.1444 -1.0348
  743MOL0     H 2468  -0.417   5.616   5.755  1.2194 -0.3383 -1.2276
  743MOL0     H 2469  -0.569   5.558   5.970 -0.0184 -0.3333  0.5724
  743MOL0     H 2470  -0.482   5.411   5.981  1.8855 -1.9734 -2.9244
  743MOL0     H 2471  -0.283   5.541   6.051  0.7771  0.7482 -1.7572
  743MOL0     H 2472  -0.370   5.697   6.025 -0.5452  1.2196  0.1448
  743MOL0     H 2473  -0.532   5.616   6.196  0.6201  1.4836 -0.0088
  743MOL0     H 2474  -0.423   5.465   6.207 -0.0100 -1.0959 -0.7831
  743MOL0     H 2475  -0.357   5.754   6.268  0.4735  0.6019  1.2137
  743MOL0     H 2476  -0.232   5.634   6.260  0.9250  2.6473 -0.6602
  743MOL0     H 2477  -0.323   5.723   6.478  2.5980  0.1609 -2.1309
  743MOL0     H 2478  -0.460   5.597   6.450  0.2319 -0.6882 -0.8596
  743MOL0     H 2479  -0.174   5.518   6.429  0.7195 -3.3957  0.1969
  743MOL0     H 2480  -0.308   5.416   6.462 -3.0355  1.4840  0.1329
  743MOL0     H 2481  -0.156   5.450   6.665 -0.9346 -1.3011 -1.8576
  743MOL0     H 2482  -0.171   5.625   6.656 -0.6364  0.5994  0.3510
  743MOL0     H 2483  -0.363   5.336   6.789 -0.5706 -0.5813  0.0302
  743MOL0     H 2484  -0.474   5.350   7.066 -0.4996 -0.5628 -2.1143
  743MOL0     H 2485  -0.615   5.367   6.968  0.8824 -1.2113 -1.9980
  743MOL0     H 2486  -0.511   5.585   7.159  0.6254 -0.9114  0.3354
  743MOL0     H 2487  -0.656   5.594   7.061 -2.1787  0.1390  1.6044
  743MOL0     H 2488  -0.700   5.547   7.294 -1.1457  0.1312 -0.0261
  743MOL0     H 2489  -0.769   5.429   7.193 -0.6756  0.9224  1.7142
  743MOL0     H 2490  -0.643   5.334   7.400  2.4681 -2.7405  0.4059
  743MOL0     H 2491  -0.593   5.267   7.253 -1.3262  0.8192 -1.4068
  743MOL0     H 2492  -0.600   5.456   7.553 -0.1355 -1.0220  1.4846
  743MOL0     H 2493  -0.617   5.517   7.762  0.3186 -0.4642  1.9834
  743MOL0     H 2494  -0.545   5.676   7.781 -0.0082  0.2223 -0.9585
  743MOL0     H 2495  -0.476   5.540   7.874  2.5636 -1.0540 -0.9869
  743MOL0     H 2496  -0.093   5.836   7.886 -0.3688  0.3514  0.9941
  743MOL0     H 2497   0.110   5.941   8.009 -1.5390  0.4735  0.2580
  743MOL0     H 2498   0.393   5.636   8.204  0.1052  0.1974  0.4226
  743MOL0     H 2499   0.497   5.748   8.119 -1.9200 -1.0705 -1.2616
  743MOL0     H 2500   0.368   5.819   8.375 -0.5047  0.4900  0.4999
  743MOL0     H 2501   0.532   5.761   8.355 -2.3416 -3.9083  0.6292
  743MOL0     H 2502   0.413   6.017   8.234 -0.4674  0.0460  1.4866
  743MOL0     H 2503   0.551   5.943   8.163 -3.0587  1.1580 -0.2649
  743MOL0     H 2504   0.682   6.022   8.384  2.9765  5.0780 -2.3635
  743MOL0     H 2505   0.517   6.073   8.439 -0.7421  0.5766  0.6556
  743MOL0     H 2506   0.669   6.177   8.192  0.6221  1.5143 -0.5281
  743MOL0     H 2507   0.514   6.233   8.275 -0.0048 -0.0476 -1.7286
  743MOL0     H 2508   0.603   6.352   8.422 -0.5875 -0.7161 -1.2145
  743MOL0     H 2509   0.718   6.361   8.293 -0.4579 -1.3494 -0.8063
  743MOL0     H 2510   0.876   6.336   8.454  3.2469 -2.6529 -1.8165
  743MOL0     H 2511   0.848   6.166   8.410 -3.3304 -1.3107 -1.8355
  743MOL0     H 2512   0.848   6.227   8.659 -0.7473  1.7246  1.1201
  743MOL0     H 2513   0.691   6.152   8.615 -1.0884  1.7613  0.2711
  743MOL0     H 2514   0.284   5.546   8.020 -1.6307 -1.4233 -1.0009
  743MOL0     H 2515   0.122   5.482   7.850  3.1468 -1.1934  2.8967
  743MOL0     H 2516  -0.110   5.523   7.554  0.2649 -0.1857 -2.3122
  743MOL0     H 2517  -0.213   5.434   7.360  0.5219  4.1383 -1.1607
  743MOL0     H 2518  -0.362   5.351   5.553 -0.2712 -0.1771 -1.5835
  743MOL0     H 2519  -0.214   5.408   5.359 -1.6595 -0.2858  1.0316
  743MOL0     H 2520   0.123   5.870   5.220 -1.0184 -0.9376  0.4198
  743MOL0     H 2521   0.308   5.945   5.098  2.8230  0.6277 -1.6094
  743MOL0     H 2522   0.679   5.702   5.094 -0.2360 -1.2954 -0.4670
  743MOL0     H 2523   0.590   5.642   4.946 -0.9685  1.6472 -0.9504
  743MOL0     H 2524   0.773   5.886   4.983  1.6020  1.1027 -0.8187
  743MOL0     H 2525   0.669   5.887   4.854  0.6838 -0.7199 -0.7352
  743MOL0     H 2526   0.886   5.675   4.894 -0.0324 -0.9123 -1.3213
  743MOL0     H 2527   0.779   5.695   4.750  0.5901  2.2100 -2.7780
  743MOL0     H 2528   0.888   5.911   4.691 -3.5034  1.3970  1.9126
  743MOL0     H 2529   1.020   5.810   4.739  0.5984  2.2911  0.7603
  743MOL0     H 2530   1.112   6.107   4.984 -1.7263  0.8083  1.4390
  743MOL0     H 2531   0.497   5.564   5.142  1.4549  2.2027 -4.4283
  743MOL0     H 2532   0.284   5.419   5.352 -5.9364 -1.4165 -0.3318
  743MOL0     H 2533   0.186   5.400   5.214 -1.0739  0.8469  1.5197
  743MOL0     H 2534   0.364   5.373   5.203  2.1202  2.2203  0.5293
  744MOL0     O 2535   3.164   5.700   1.540 -0.1228 -0.4299  0.0103
  744MOL0     C 2536   3.174   5.599   1.472  0.2510 -0.7478  0.1169
  744MOL0     O 2537   3.255   5.495   1.507 -0.0856  0.1169 -0.1755
  744MOL0     C 2538   3.338   5.513   1.615  0.2126 -1.3601 -0.5669
  744MOL0     C 2539   3.349   5.405   1.699  0.3951  1.0529  0.2335
  744MOL0     C 2540   3.433   5.408   1.808  0.3311 -0.0087  0.1505
  744MOL0     C 2541   3.508   5.520   1.840  0.9857  0.5766 -1.0095
  744MOL0     O 2542   3.585   5.518   1.951 -0.3195  0.3209 -0.1892
  744MOL0     C 2543   3.690   5.415   1.952  0.6875 -0.0116 -0.3116
  744MOL0     C 2544   3.780   5.427   2.072  0.3588  0.3895 -1.5215
  744MOL0     C 2545   3.822   5.571   2.100 -0.2799  0.8303 -0.3214
  744MOL0     C 2546   3.910   5.581   2.226 -0.4182 -0.1079 -0.0342
  744MOL0     C 2547   3.912   5.720   2.295 -0.5782  0.1504 -0.9473
  744MOL0     C 2548   3.968   5.833   2.220  0.4505 -0.5108 -0.4605
  744MOL0     C 2549   4.110   5.811   2.175  0.7788 -0.3790 -0.0512
  744MOL0     C 2550   4.143   5.942   2.102  0.2975  0.5992  0.4939
  744MOL0     N 2551   4.288   5.956   2.080  0.2644  0.4353  0.5850
  744MOL0     C 2552   4.401   5.951   2.171 -1.2449 -0.1469  1.3827
  744MOL0     C 2553   4.505   5.963   2.078  0.0566 -0.7632 -0.1011
  744MOL0     C 2554   4.655   5.974   2.125 -0.4294  0.8820  0.2939
  744MOL0     C 2555   4.676   6.062   2.252 -0.0722 -0.1735 -0.4441
  744MOL0     C 2556   4.828   6.097   2.264 -0.0305 -0.2985 -0.0148
  744MOL0     C 2557   4.905   5.994   2.335  0.5888 -0.7865  0.2711
  744MOL0     O 2558   5.042   6.007   2.328  0.0954 -0.8933  0.1915
  744MOL0     C 2559   5.110   5.913   2.249 -0.5531  0.3144  0.0138
  744MOL0     C 2560   5.146   5.790   2.311  0.0180 -0.1428 -0.0365
  744MOL0     C 2561   5.213   5.682   2.243  0.2819  0.2322  0.1359
  744MOL0     C 2562   5.283   5.571   2.331  0.8722 -0.4604 -0.1942
  744MOL0     C 2563   5.244   5.702   2.106 -0.3379 -1.0429  0.2547
  744MOL0     C 2564   5.319   5.604   2.020  0.2390  0.6542  1.0536
  744MOL0     O 2565   5.384   5.672   1.912  0.0650  0.0956  0.0103
  744MOL0     C 2566   5.400   5.598   1.801 -0.0541 -0.2628 -0.2761
  744MOL0     C 2567   5.298   5.582   1.705  0.0865 -0.8490  1.0027
  744MOL0     C 2568   5.332   5.506   1.584 -0.4080  0.6177 -0.3405
  744MOL0     C 2569   5.461   5.458   1.560 -0.0224 -0.4617 -0.5558
  744MOL0     O 2570   5.488   5.390   1.450  0.3046 -0.3087  0.8763
  744MOL0     C 2571   5.552   5.470   1.354 -0.1162 -0.2544 -0.2464
  744MOL0     C 2572   5.456   5.576   1.285 -0.3009  0.1461  0.2090
  744MOL0     C 2573   5.535   5.658   1.187 -0.6517  0.1888 -0.2379
  744MOL0     C 2574   5.455   5.702   1.067 -0.1071 -0.2881  0.5317
  744MOL0     C 2575   5.562   5.748   0.956  0.0757  0.0528 -0.5153
  744MOL0     C 2576   5.668   5.858   0.992 -0.8172 -0.0807 -0.6557
  744MOL0     C 2577   5.739   5.893   0.862  0.1774  0.0476  0.8326
  744MOL0     C 2578   5.844   6.003   0.890 -0.4975  0.6442 -0.7908
  744MOL0    Cl 2579   5.945   6.053   0.744  0.3573  0.0033  0.1852
  744MOL0     C 2580   5.570   5.487   1.642 -0.7407 -1.3184 -0.5653
  744MOL0     C 2581   5.533   5.560   1.761  1.0618 -0.3095 -0.4470
  744MOL0     O 2582   5.324   5.484   2.042  0.0625  0.4071  0.2413
  744MOL0     C 2583   5.214   5.832   2.044  0.5960 -0.0097  0.4004
  744MOL0     C 2584   5.155   5.935   2.120  0.9002  0.0362 -1.3076
  744MOL0     N 2585   4.466   5.983   1.952 -0.0723  0.4220 -0.3123
  744MOL0     N 2586   4.334   5.980   1.953 -0.0208  0.5472  0.6269
  744MOL0     C 2587   3.520   5.623   1.752 -0.3591 -0.4559  0.2750
  744MOL0     C 2588   3.431   5.620   1.634  0.0207 -0.0084  1.4343
  744MOL0     C 2589   3.087   5.581   1.351 -0.8157  0.5275 -0.1087
  744MOL0     C 2590   3.152   5.574   1.223 -0.0662 -0.4122 -0.2583
  744MOL0     C 2591   3.078   5.591   1.111  0.9408 -0.7039  0.3531
  744MOL0     C 2592   2.941   5.597   1.116  1.4689  0.6165  0.2636
  744MOL0     O 2593   2.849   5.617   1.005  0.1728  0.8147  0.2388
  744MOL0     C 2594   2.770   5.499   0.971 -0.7574  0.8290  0.7916
  744MOL0     C 2595   2.734   5.523   0.829 -0.6937 -0.1238  0.0600
  744MOL0     C 2596   2.669   5.397   0.775  0.1748  0.4503  0.7661
  744MOL0     C 2597   2.649   5.400   0.621 -0.1873 -0.0438 -0.3506
  744MOL0     C 2598   2.678   5.276   0.556 -0.1615  0.4632 -0.4533
  744MOL0     C 2599   2.685   5.164   0.509 -0.1779 -0.2853  0.1993
  744MOL0     C 2600   2.881   5.591   1.242 -0.2872 -0.4542 -0.0306
  744MOL0     C 2601   2.954   5.586   1.361 -0.0444 -0.6382 -0.5784
  744MOL0     C 2602   2.883   5.591   1.492  0.4082  0.2758  0.6836
  744MOL0     H 2603   3.282   5.321   1.682  0.5178  1.2480 -1.4064
  744MOL0     H 2604   3.424   5.323   1.875  2.8118  1.2568  2.2746
  744MOL0     H 2605   3.742   5.422   1.856  1.4397  0.0851  0.0915
  744MOL0     H 2606   3.653   5.312   1.945  2.4467 -0.6379 -0.9010
  744MOL0     H 2607   3.714   5.403   2.155  1.9966  0.8905 -0.0299
  744MOL0     H 2608   3.864   5.357   2.069  0.6230  0.2309  2.9758
  744MOL0     H 2609   3.884   5.608   2.018 -0.2716 -1.8201 -1.6054
  744MOL0     H 2610   3.734   5.636   2.109 -1.2301 -0.6836  2.5647
  744MOL0     H 2611   3.852   5.515   2.291 -0.9836  0.5781  0.1753
  744MOL0     H 2612   4.012   5.545   2.208 -1.1594 -2.0138 -0.6448
  744MOL0     H 2613   3.973   5.701   2.384 -0.8954  0.4994 -0.6509
  744MOL0     H 2614   3.814   5.759   2.325  0.0395  0.0151  1.4312
  744MOL0     H 2615   3.895   5.863   2.143 -0.6976 -0.9456  0.4354
  744MOL0     H 2616   3.964   5.925   2.279 -0.7449 -1.0519  0.3360
  744MOL0     H 2617   4.126   5.731   2.103 -3.0889 -0.5856 -0.8890
  744MOL0     H 2618   4.176   5.790   2.259  0.1594  0.9960  0.8314
  744MOL0     H 2619   4.088   5.933   2.008 -1.6057  0.3899  1.5905
  744MOL0     H 2620   4.104   6.028   2.156 -2.4753 -0.6005  0.5505
  744MOL0     H 2621   4.402   5.913   2.273 -0.7520 -0.7673  1.1544
  744MOL0     H 2622   4.708   6.010   2.036 -1.7729 -0.1016 -0.9671
  744MOL0     H 2623   4.708   5.879   2.137  1.1048  1.5758 -0.6333
  744MOL0     H 2624   4.629   6.158   2.229  1.2479  0.4287 -0.7311
  744MOL0     H 2625   4.638   6.016   2.344  1.4307 -1.7978 -0.5815
  744MOL0     H 2626   4.874   6.110   2.165 -1.1779 -0.2415 -0.5671
  744MOL0     H 2627   4.831   6.193   2.316  2.5770  1.8640 -3.6263
  744MOL0     H 2628   4.874   5.986   2.440  0.6650  0.2830  0.3957
  744MOL0     H 2629   4.860   5.902   2.298 -4.5736  0.6477  2.0461
  744MOL0     H 2630   5.123   5.787   2.417 -0.0582 -0.0417 -0.0496
  744MOL0     H 2631   5.280   5.597   2.437  1.5755 -0.0386 -0.2707
  744MOL0     H 2632   5.391   5.571   2.317  0.8089  0.2270 -0.7122
  744MOL0     H 2633   5.246   5.471   2.306 -1.7459  0.2160  0.6439
  744MOL0     H 2634   5.198   5.622   1.717 -0.0193 -0.0442 -1.9174
  744MOL0     H 2635   5.259   5.482   1.507 -0.5683 -1.7467  0.4425
  744MOL0     H 2636   5.640   5.513   1.403 -0.5823 -0.2098  0.5606
  744MOL0     H 2637   5.596   5.411   1.273  2.5073 -0.7770  1.4148
  744MOL0     H 2638   5.380   5.520   1.230 -0.1714  0.9796 -0.8531
  744MOL0     H 2639   5.404   5.646   1.351 -0.4523  1.4700 -1.2490
  744MOL0     H 2640   5.638   5.629   1.166  0.4460  2.5230  1.3543
  744MOL0     H 2641   5.542   5.750   1.246 -0.8721  0.8036 -1.1573
  744MOL0     H 2642   5.392   5.788   1.095 -1.9865 -0.7931 -1.8457
  744MOL0     H 2643   5.390   5.625   1.025  2.4011 -1.2366 -1.8798
  744MOL0     H 2644   5.612   5.654   0.931  0.8884  0.1743  0.6079
  744MOL0     H 2645   5.502   5.780   0.870  2.2902  1.4187 -1.6429
  744MOL0     H 2646   5.751   5.816   1.050 -1.3971 -0.6207 -0.2098
  744MOL0     H 2647   5.628   5.940   1.052  0.8605  0.7915 -0.6546
  744MOL0     H 2648   5.675   5.932   0.783  0.6393 -2.0720 -0.6839
  744MOL0     H 2649   5.782   5.804   0.815 -0.4852  0.3049 -0.2946
  744MOL0     H 2650   5.920   5.962   0.958  0.0160  1.9224 -0.5413
  744MOL0     H 2651   5.805   6.088   0.948 -1.1436 -0.4177  0.3728
  744MOL0     H 2652   5.673   5.461   1.622  0.0282  0.3911  0.8354
  744MOL0     H 2653   5.617   5.568   1.829 -0.1392 -1.8670  1.3740
  744MOL0     H 2654   5.226   5.854   1.939 -2.5110 -1.5107 -0.3978
  744MOL0     H 2655   5.141   6.027   2.064 -0.5107  1.2348  0.8752
  744MOL0     H 2656   3.600   5.696   1.747 -1.4689  0.8424  0.7212
  744MOL0     H 2657   3.421   5.692   1.553  1.4705 -1.0463  0.2717
  744MOL0     H 2658   3.260   5.586   1.224  0.0352  0.0890  4.8361
  744MOL0     H 2659   3.120   5.601   1.011 -0.0713  0.7498  0.0499
  744MOL0     H 2660   2.829   5.407   0.977  0.5266  1.2363 -2.9853
  744MOL0     H 2661   2.680   5.494   1.033 -2.4611 -0.3472 -1.5961
  744MOL0     H 2662   2.829   5.549   0.781  0.3027 -0.2237  1.9081
  744MOL0     H 2663   2.664   5.606   0.814 -0.4264 -0.1595 -1.6745
  744MOL0     H 2664   2.724   5.308   0.807  0.5436 -0.1660 -1.3880
  744MOL0     H 2665   2.569   5.397   0.819 -0.5095 -1.7537 -0.6078
  744MOL0     H 2666   2.732   5.466   0.591 -0.8990  0.1390 -2.0354
  744MOL0     H 2667   2.551   5.438   0.592 -0.5313 -1.3009 -0.9031
  744MOL0     H 2668   2.706   5.072   0.457 -0.1420 -2.0389  3.0543
  744MOL0     H 2669   2.773   5.578   1.240 -0.1634 -1.4625 -0.9698
  744MOL0     H 2670   2.924   5.515   1.559  0.4395 -0.7462 -0.4575
  744MOL0     H 2671   2.882   5.695   1.526 -2.7359 -0.0889  2.0417
  744MOL0     H 2672   2.777   5.566   1.489 -0.1330  1.3943  4.5839
  745MOL0     O 2673   3.810   9.930   1.567  0.0303  0.0233 -0.8022
  745MOL0     C 2674   3.852   9.833   1.627  0.3848  0.6726 -1.2362
  745MOL0     O 2675   3.977   9.767   1.610  0.3700 -0.9839 -0.1588
  745MOL0     C 2676   4.055   9.814   1.513 -0.7001  0.4978  0.1764
  745MOL0     C 2677   4.168   9.883   1.555  0.3659  1.1590  0.1195
  745MOL0     C 2678   4.258   9.937   1.458 -0.0030  0.3855  0.3031
  745MOL0     C 2679   4.231   9.926   1.324  0.1646  0.2178  0.1686
  745MOL0     O 2680   4.304   9.991   1.231  0.2371  0.2087 -0.5398
  745MOL0     C 2681   4.288  10.129   1.225  0.6259 -0.2560 -0.0465
  745MOL0     C 2682   4.408  10.194   1.166 -0.6879 -0.3159  0.8872
  745MOL0     C 2683   4.417  10.346   1.203  0.5930  0.3293  0.1981
  745MOL0     C 2684   4.408  10.439   1.072  0.2593 -0.4986 -0.8144
  745MOL0     C 2685   4.365  10.584   1.098 -0.3273 -0.1425 -1.3297
  745MOL0     C 2686   4.486  10.671   1.144  0.2952  0.7438  0.2930
  745MOL0     C 2687   4.438  10.816   1.156 -0.2684  0.1335  0.8665
  745MOL0     C 2688   4.546  10.909   1.224 -0.3953  1.4024  0.2006
  745MOL0     N 2689   4.661  10.922   1.135  0.3446 -0.7257  0.4165
  745MOL0     C 2690   4.779  10.858   1.142  0.7533 -1.0716  0.0861
  745MOL0     C 2691   4.852  10.891   1.033  0.3023  0.2827  0.3938
  745MOL0     C 2692   4.994  10.861   1.014  0.1280  0.0399 -0.1945
  745MOL0     C 2693   5.041  10.720   1.047 -0.9273 -0.1157  1.2082
  745MOL0     C 2694   4.975  10.617   0.955  0.0667  0.4897 -0.3744
  745MOL0     C 2695   4.984  10.469   1.010 -0.2302  1.1218 -0.0150
  745MOL0     O 2696   4.923  10.441   1.135  0.0033 -0.1060  0.3144
  745MOL0     C 2697   4.906  10.309   1.174  0.0848 -0.4694  0.6685
  745MOL0     C 2698   4.985  10.201   1.133 -1.0681 -0.2435  0.1655
  745MOL0     C 2699   4.951  10.067   1.157 -1.1962 -0.6318  0.3872
  745MOL0     C 2700   5.051   9.963   1.110 -0.0738 -0.5091 -1.4032
  745MOL0     C 2701   4.836  10.050   1.242  0.1561 -0.0553  0.2601
  745MOL0     C 2702   4.797   9.911   1.279 -0.3901  0.4596 -0.1484
  745MOL0     O 2703   4.730   9.904   1.396  0.6133  0.5229 -0.6424
  745MOL0     C 2704   4.679   9.789   1.458  0.6512 -0.4882  0.4854
  745MOL0     C 2705   4.757   9.731   1.561  0.4305  1.0081 -0.8434
  745MOL0     C 2706   4.711   9.616   1.626 -0.4381  0.4013 -0.7564
  745MOL0     C 2707   4.587   9.557   1.598  0.2635  0.8311  0.3372
  745MOL0     O 2708   4.537   9.437   1.652  0.4254 -0.6517  0.1888
  745MOL0     C 2709   4.610   9.377   1.766 -0.2014  0.8113 -0.1020
  745MOL0     C 2710   4.514   9.263   1.816  0.4026  0.1246  0.0552
  745MOL0     C 2711   4.358   9.277   1.809 -0.0977 -0.4913  0.3138
  745MOL0     C 2712   4.310   9.397   1.877  0.4831 -0.4783 -0.1346
  745MOL0     C 2713   4.158   9.406   1.912 -1.4691  0.0077  1.3871
  745MOL0     C 2714   4.120   9.291   2.008  0.9711 -0.6323 -0.1805
  745MOL0     C 2715   3.979   9.321   2.054 -0.6641 -0.3686  0.3246
  745MOL0     C 2716   3.931   9.262   2.180  0.1895  0.0810 -0.2244
  745MOL0    Cl 2717   3.769   9.324   2.193  0.2645 -0.2314  0.4072
  745MOL0     C 2718   4.515   9.613   1.488  0.3049  0.5785  0.2265
  745MOL0     C 2719   4.561   9.722   1.420  0.5223  0.0052  1.2478
  745MOL0     O 2720   4.834   9.818   1.208  0.0829  0.7250  0.8785
  745MOL0     C 2721   4.751  10.150   1.273  0.1138 -0.7713  0.2778
  745MOL0     C 2722   4.785  10.280   1.232 -0.8799  0.4310 -1.1347
  745MOL0     N 2723   4.788  10.996   0.962 -0.1602  0.8305 -1.2446
  745MOL0     N 2724   4.668  11.005   1.025 -0.1750  0.2220  0.1604
  745MOL0     C 2725   4.119   9.848   1.281 -0.5166  0.3661 -0.9347
  745MOL0     C 2726   4.023   9.805   1.380  0.8083 -0.6042  0.0739
  745MOL0     C 2727   3.763   9.746   1.703  0.5855 -0.0956 -1.0112
  745MOL0     C 2728   3.785   9.603   1.712  0.9979 -0.2185  0.4468
  745MOL0     C 2729   3.684   9.520   1.761 -0.4471  0.1779 -0.1882
  745MOL0     C 2730   3.560   9.575   1.793 -0.1662  0.7288  1.0007
  745MOL0     O 2731   3.450   9.498   1.799 -0.0996 -0.1710  0.0423
  745MOL0     C 2732   3.420   9.442   1.929  0.0092  0.4711 -0.5579
  745MOL0     C 2733   3.325   9.323   1.912  0.1355  0.5521  0.3818
  745MOL0     C 2734   3.366   9.189   1.848  0.1016 -0.3336 -0.3734
  745MOL0     C 2735   3.511   9.169   1.825 -0.0631  0.5887 -0.4108
  745MOL0     C 2736   3.534   9.035   1.781  0.5250 -0.1632 -0.5357
  745MOL0     C 2737   3.544   8.921   1.748 -0.0790  0.0876 -0.6636
  745MOL0     C 2738   3.541   9.714   1.788  0.6369  0.3542 -0.5346
  745MOL0     C 2739   3.644   9.805   1.760 -0.2160  0.7726  0.5739
  745MOL0     C 2740   3.639   9.955   1.789  0.9961 -0.6915 -1.0108
  745MOL0     H 2741   4.188   9.892   1.661  2.9034 -1.9693  0.0728
  745MOL0     H 2742   4.357   9.965   1.493  0.5235 -2.4689  1.3414
  745MOL0     H 2743   4.269  10.174   1.323  0.8484  0.0731 -0.1543
  745MOL0     H 2744   4.200  10.148   1.163  1.2193  1.2160 -0.4737
  745MOL0     H 2745   4.495  10.149   1.215  0.2036 -1.9159 -1.9369
  745MOL0     H 2746   4.412  10.183   1.058  2.3336  4.0613  0.2805
  745MOL0     H 2747   4.333  10.370   1.269  1.3207  3.6914  0.0897
  745MOL0     H 2748   4.509  10.362   1.260 -0.0691 -2.8100  2.3885
  745MOL0     H 2749   4.500  10.429   1.013  0.9285  0.6558 -0.0010
  745MOL0     H 2750   4.321  10.399   1.018 -0.4973 -2.1641  1.4779
  745MOL0     H 2751   4.292  10.583   1.180  1.6364 -1.2494  0.5068
  745MOL0     H 2752   4.322  10.630   1.009 -0.5643  0.8515 -0.7270
  745MOL0     H 2753   4.518  10.634   1.242 -1.7824 -3.1692 -0.3304
  745MOL0     H 2754   4.566  10.663   1.070  1.7508  0.6363  1.8296
  745MOL0     H 2755   4.358  10.822   1.230  0.1658  1.1306  1.2706
  745MOL0     H 2756   4.418  10.852   1.054  2.8435  0.3358  0.2086
  745MOL0     H 2757   4.501  11.008   1.238 -0.8853  1.0272  1.3554
  745MOL0     H 2758   4.585  10.869   1.318 -1.1101  0.4025  0.0884
  745MOL0     H 2759   4.807  10.789   1.221  0.5165 -1.2450  0.0196
  745MOL0     H 2760   5.043  10.946   1.062  0.5699  0.6826 -1.6961
  745MOL0     H 2761   5.019  10.883   0.909  0.7845  0.2786  0.0114
  745MOL0     H 2762   5.147  10.707   1.021 -0.6057  2.5432  0.9319
  745MOL0     H 2763   5.023  10.710   1.154 -0.2779  1.6429  1.5226
  745MOL0     H 2764   4.867  10.635   0.958 -0.0386 -0.1796  0.1066
  745MOL0     H 2765   5.018  10.633   0.856 -0.1846 -0.6822 -0.6942
  745MOL0     H 2766   4.952  10.396   0.935  4.4689  0.4393 -1.6996
  745MOL0     H 2767   5.089  10.437   1.015 -0.8107 -1.0605 -0.7281
  745MOL0     H 2768   5.079  10.232   1.087  0.7850 -1.8574  2.5661
  745MOL0     H 2769   5.150   9.999   1.079 -0.2771 -0.8952 -2.5270
  745MOL0     H 2770   5.016   9.898   1.030 -2.7811  1.3413 -1.8417
  745MOL0     H 2771   5.079   9.899   1.194  2.5728  2.2723  0.0850
  745MOL0     H 2772   4.854   9.770   1.590  2.0207 -2.6366 -0.7619
  745MOL0     H 2773   4.772   9.565   1.700 -0.7626 -0.1942 -0.8968
  745MOL0     H 2774   4.696   9.315   1.739 -1.6452 -3.3621  3.5810
  745MOL0     H 2775   4.629   9.456   1.838  0.0470  0.9456 -0.3142
  745MOL0     H 2776   4.532   9.171   1.759  1.0267 -0.8279  1.7053
  745MOL0     H 2777   4.540   9.232   1.918 -0.4847 -5.6373 -1.1278
  745MOL0     H 2778   4.315   9.190   1.859  0.4820 -0.3978  0.9859
  745MOL0     H 2779   4.323   9.271   1.706 -0.2110  1.5038  0.1991
  745MOL0     H 2780   4.332   9.475   1.804  1.0570 -3.2131 -3.0809
  745MOL0     H 2781   4.360   9.421   1.971 -0.4657 -1.9910  0.8021
  745MOL0     H 2782   4.142   9.503   1.958  2.0428  2.0145 -1.0719
  745MOL0     H 2783   4.102   9.395   1.818  1.6458  3.1494 -1.0771
  745MOL0     H 2784   4.190   9.293   2.091  1.8835  0.3814 -0.9435
  745MOL0     H 2785   4.106   9.191   1.965 -2.4223  0.2534 -1.4912
  745MOL0     H 2786   3.924   9.279   1.969 -0.5690 -1.5467  0.8360
  745MOL0     H 2787   3.964   9.429   2.062  0.3221 -0.1804 -0.2681
  745MOL0     H 2788   3.997   9.284   2.264 -1.1542  3.0157  0.1948
  745MOL0     H 2789   3.919   9.154   2.170  0.9499  0.1093 -1.8399
  745MOL0     H 2790   4.424   9.558   1.463  0.5833 -2.2001  4.2704
  745MOL0     H 2791   4.507   9.760   1.334  1.6514 -1.7507 -0.3198
  745MOL0     H 2792   4.670  10.125   1.341  2.8052 -1.5365  3.5038
  745MOL0     H 2793   4.708  10.347   1.268 -1.5671  0.2241 -2.2027
  745MOL0     H 2794   4.103   9.836   1.174 -0.7197 -0.5350 -0.8105
  745MOL0     H 2795   3.929   9.764   1.343 -1.0428  1.3961  2.2194
  745MOL0     H 2796   3.879   9.560   1.679  0.4865 -0.7736 -0.3314
  745MOL0     H 2797   3.695   9.412   1.755 -0.2149  0.0779  1.5632
  745MOL0     H 2798   3.508   9.417   1.989  0.7169  2.8681 -0.5077
  745MOL0     H 2799   3.370   9.516   1.991  1.7724 -1.5185  3.6335
  745MOL0     H 2800   3.234   9.354   1.860 -1.1938 -2.7835  0.4804
  745MOL0     H 2801   3.286   9.296   2.010 -0.6056  1.0600  0.2305
  745MOL0     H 2802   3.333   9.114   1.922  1.3212 -0.7216 -0.2023
  745MOL0     H 2803   3.307   9.168   1.759 -2.0433 -2.1338  1.3403
  745MOL0     H 2804   3.576   9.196   1.909  0.8229  0.7347 -1.1231
  745MOL0     H 2805   3.526   9.244   1.747 -1.7781  1.2065 -0.1901
  745MOL0     H 2806   3.530   8.822   1.708 -1.1619  0.5268 -1.4209
  745MOL0     H 2807   3.447   9.752   1.826  1.1790 -0.0741  1.3461
  745MOL0     H 2808   3.547   9.955   1.847  0.2104 -4.1290 -2.0274
  745MOL0     H 2809   3.730   9.982   1.842 -0.2092 -2.4376  2.2009
  745MOL0     H 2810   3.622  10.017   1.700  0.6116 -1.3322 -1.3987
  746MOL0     O 2811  11.379   6.627   7.585  0.0012 -0.5619 -0.0064
  746MOL0     C 2812  11.282   6.681   7.641 -0.5147 -1.4133  0.2641
  746MOL0     O 2813  11.203   6.779   7.594  0.4819 -0.2856  0.5499
  746MOL0     C 2814  11.192   6.797   7.454  0.5566  0.0108 -0.4944
  746MOL0     C 2815  11.299   6.825   7.377  0.5626  1.1640  0.1140
  746MOL0     C 2816  11.280   6.867   7.247  0.0948 -0.1544  0.0082
  746MOL0     C 2817  11.144   6.882   7.199  0.5563 -0.0281  0.7116
  746MOL0     O 2818  11.102   6.903   7.070  0.2984  0.0555  0.0583
  746MOL0     C 2819  11.206   6.943   6.978 -0.3418  0.2869 -0.0460
  746MOL0     C 2820  11.137   7.013   6.864  0.4648  0.1712  0.2735
  746MOL0     C 2821  11.065   6.893   6.785  0.5622  0.7941  0.2430
  746MOL0     C 2822  10.995   6.947   6.654  0.3242  0.8787  0.7177
  746MOL0     C 2823  10.861   6.876   6.608  0.4563 -0.4492  0.6293
  746MOL0     C 2824  10.760   6.812   6.701 -0.5286  0.5951  0.4396
  746MOL0     C 2825  10.680   6.913   6.789 -0.7338 -0.2879  0.4826
  746MOL0     C 2826  10.604   6.845   6.898 -0.1481  0.3843  0.3236
  746MOL0     N 2827  10.457   6.848   6.877  0.3949 -0.6668 -0.1752
  746MOL0     C 2828  10.366   6.871   6.988  1.1787 -0.3003  0.2788
  746MOL0     C 2829  10.244   6.889   6.922 -0.1360  0.2839 -0.3879
  746MOL0     C 2830  10.116   6.907   6.997 -0.4453 -0.2487 -0.0195
  746MOL0     C 2831  10.114   7.022   7.095  0.5534 -0.1822 -0.0592
  746MOL0     C 2832  10.154   7.158   7.024  0.0768  0.0222 -0.7641
  746MOL0     C 2833  10.207   7.259   7.122 -0.9205 -1.2049 -0.3563
  746MOL0     O 2834  10.098   7.306   7.204  0.7908 -0.6507  0.8636
  746MOL0     C 2835  10.019   7.414   7.158  0.6160  0.8212 -0.4960
  746MOL0     C 2836  10.062   7.494   7.059 -0.1321 -0.1798 -0.1457
  746MOL0     C 2837   9.990   7.595   7.013 -0.0367 -0.4830  0.2474
  746MOL0     C 2838  10.041   7.663   6.881  0.1949 -0.1501  1.5126
  746MOL0     C 2839   9.862   7.628   7.074 -0.0489  0.1706 -0.1713
  746MOL0     C 2840   9.771   7.726   7.023  0.3537 -0.0700  0.5437
  746MOL0     O 2841   9.698   7.804   7.118 -0.5217  0.4568  0.8913
  746MOL0     C 2842   9.606   7.897   7.064  0.2208 -0.1989  0.4616
  746MOL0     C 2843   9.472   7.865   7.048 -0.4152  0.8280  0.5441
  746MOL0     C 2844   9.389   7.958   6.993  0.6237  0.2117  0.1428
  746MOL0     C 2845   9.435   8.079   6.937 -0.7335  0.7397  0.8384
  746MOL0     O 2846   9.336   8.153   6.870 -0.4255  0.3214 -0.3538
  746MOL0     C 2847   9.375   8.274   6.794 -1.0334  0.4271 -0.2502
  746MOL0     C 2848   9.352   8.247   6.650 -0.8323 -0.2234  0.1080
  746MOL0     C 2849   9.208   8.262   6.611 -0.3258 -0.4879 -0.1523
  746MOL0     C 2850   9.177   8.178   6.482 -0.2305  0.1262 -0.3719
  746MOL0     C 2851   9.033   8.185   6.453 -0.3761  0.1669  0.4612
  746MOL0     C 2852   8.990   8.056   6.380  0.0721  0.0472 -0.9498
  746MOL0     C 2853   8.973   7.934   6.473  0.5600 -0.0978  0.2272
  746MOL0     C 2854   8.839   7.859   6.457 -0.1733  0.0432  0.6396
  746MOL0    Cl 2855   8.718   7.988   6.494  0.2516  0.6212 -0.1020
  746MOL0     C 2856   9.575   8.117   6.947  0.0824 -0.3194 -1.4196
  746MOL0     C 2857   9.657   8.022   7.013  0.0479 -0.7121 -0.9815
  746MOL0     O 2858   9.770   7.752   6.902  0.4103 -0.3340 -1.1008
  746MOL0     C 2859   9.818   7.554   7.179 -0.3497  0.0696 -0.6505
  746MOL0     C 2860   9.895   7.437   7.220  0.7810  0.5271  0.5375
  746MOL0     N 2861  10.261   6.868   6.784 -0.4208  1.0495 -0.9040
  746MOL0     N 2862  10.389   6.845   6.758 -0.2937  0.1479 -0.0273
  746MOL0     C 2863  11.040   6.854   7.286 -0.1792 -0.6501 -0.0272
  746MOL0     C 2864  11.064   6.816   7.418 -0.6135 -1.2185 -0.0587
  746MOL0     C 2865  11.276   6.656   7.784  0.5883  0.3065 -0.2231
  746MOL0     C 2866  11.382   6.583   7.845 -0.0089 -0.4036 -0.5845
  746MOL0     C 2867  11.368   6.532   7.975  0.0854  0.1235 -0.5457
  746MOL0     C 2868  11.254   6.541   8.050 -0.1422  0.5029  0.9868
  746MOL0     O 2869  11.217   6.483   8.174 -0.3332  0.3469  0.6396
  746MOL0     C 2870  11.317   6.385   8.221  0.6145 -0.3764 -0.3455
  746MOL0     C 2871  11.256   6.296   8.329 -0.4681  0.0579 -0.8472
  746MOL0     C 2872  11.209   6.382   8.455 -0.9597 -0.2337 -0.6729
  746MOL0     C 2873  11.310   6.379   8.571 -0.0863  0.6529 -0.0932
  746MOL0     C 2874  11.341   6.243   8.618 -0.1562 -0.3814  0.3679
  746MOL0     C 2875  11.368   6.148   8.681 -0.5290  0.0971  0.1532
  746MOL0     C 2876  11.160   6.628   7.999 -0.1017  0.2124 -0.4795
  746MOL0     C 2877  11.162   6.678   7.868 -0.9028  0.3010  0.0872
  746MOL0     C 2878  11.051   6.762   7.823  0.5883  0.6036  0.1717
  746MOL0     H 2879  11.400   6.828   7.416  0.5113  1.1773  0.2490
  746MOL0     H 2880  11.367   6.884   7.185 -0.2059  3.1794  0.3315
  746MOL0     H 2881  11.267   6.860   6.942  1.9195  1.2285  1.3529
  746MOL0     H 2882  11.281   7.006   7.027 -0.3300  1.4211 -1.4620
  746MOL0     H 2883  11.059   7.087   6.887 -0.4657  1.1591 -4.9616
  746MOL0     H 2884  11.214   7.054   6.799 -0.3183 -0.0888 -0.8449
  746MOL0     H 2885  11.144   6.819   6.769 -0.1394  0.1704 -0.4196
  746MOL0     H 2886  10.994   6.840   6.850  0.5410  0.8662  0.2787
  746MOL0     H 2887  10.987   7.056   6.665  1.2957  1.0258  0.0472
  746MOL0     H 2888  11.066   6.929   6.573  1.0125 -1.3039  1.7421
  746MOL0     H 2889  10.894   6.805   6.532  1.1531 -0.4502  0.9230
  746MOL0     H 2890  10.796   6.948   6.558  0.5806 -1.4007 -0.9761
  746MOL0     H 2891  10.689   6.763   6.634  2.6809 -1.8854 -1.4273
  746MOL0     H 2892  10.805   6.736   6.765  1.0359 -0.4572 -1.8014
  746MOL0     H 2893  10.616   6.976   6.726  1.4137  1.9340  0.3554
  746MOL0     H 2894  10.743   6.982   6.845 -2.0584  1.7145 -0.3768
  746MOL0     H 2895  10.636   6.745   6.928  0.6234  0.3508 -0.5569
  746MOL0     H 2896  10.612   6.904   6.990  0.1310 -1.0124  1.2177
  746MOL0     H 2897  10.378   6.860   7.095 -2.6154  0.1397  0.9083
  746MOL0     H 2898  10.093   6.816   7.054 -1.5345  0.9740  1.6106
  746MOL0     H 2899  10.039   6.933   6.924 -0.3241 -2.2643 -0.9291
  746MOL0     H 2900  10.028   7.040   7.160 -0.1158  2.3932 -1.5263
  746MOL0     H 2901  10.203   7.000   7.155  0.8071 -0.1271 -0.4177
  746MOL0     H 2902  10.230   7.140   6.947 -0.5284  0.5907 -1.5024
  746MOL0     H 2903  10.066   7.204   6.978  0.7931  4.0699  1.4717
  746MOL0     H 2904  10.264   7.207   7.199  0.1056  1.1601  0.5690
  746MOL0     H 2905  10.272   7.338   7.084 -0.7190 -1.1731  0.0508
  746MOL0     H 2906  10.161   7.478   7.015  2.0456  1.8235  3.5114
  746MOL0     H 2907  10.068   7.769   6.886  2.1109 -0.5918  1.3170
  746MOL0     H 2908   9.978   7.661   6.792  4.1727  4.0751 -1.9076
  746MOL0     H 2909  10.141   7.625   6.857 -1.2934 -3.9753  0.6810
  746MOL0     H 2910   9.448   7.764   7.080  4.6059  0.1940  3.2357
  746MOL0     H 2911   9.289   7.926   6.966  1.6813 -2.0672 -1.4246
  746MOL0     H 2912   9.310   8.358   6.822  0.1914  0.8675  1.4077
  746MOL0     H 2913   9.478   8.308   6.808 -0.8026 -0.3990  0.0805
  746MOL0     H 2914   9.408   8.310   6.580 -0.7460 -1.0107 -0.5495
  746MOL0     H 2915   9.386   8.146   6.627  1.1873  0.6411 -0.9836
  746MOL0     H 2916   9.170   8.364   6.594 -2.7785 -1.2302  0.5009
  746MOL0     H 2917   9.148   8.214   6.689 -1.6839 -3.4166 -2.8105
  746MOL0     H 2918   9.214   8.079   6.508  1.2203  0.9549  0.9545
  746MOL0     H 2919   9.235   8.216   6.397 -0.8217  1.5348 -0.1748
  746MOL0     H 2920   8.985   8.198   6.550  0.0866  4.0103  0.3316
  746MOL0     H 2921   8.999   8.273   6.398  1.3238 -0.2603 -1.3807
  746MOL0     H 2922   9.066   8.026   6.307  1.1070 -1.9464  0.8347
  746MOL0     H 2923   8.898   8.082   6.327 -1.0746  3.1076  2.1790
  746MOL0     H 2924   8.976   7.965   6.578  0.6703  2.0941 -0.3807
  746MOL0     H 2925   9.043   7.851   6.459 -0.5561 -1.1735  0.8618
  746MOL0     H 2926   8.845   7.782   6.535  1.2878  3.0613  3.7204
  746MOL0     H 2927   8.816   7.800   6.367 -0.3996 -1.8289  1.8550
  746MOL0     H 2928   9.631   8.202   6.909 -2.2903  1.3510 -1.3747
  746MOL0     H 2929   9.765   8.019   7.025  0.2546  0.0766 -2.4239
  746MOL0     H 2930   9.727   7.577   7.234 -1.2842 -2.6422 -0.8861
  746MOL0     H 2931   9.852   7.360   7.284  2.1366  0.7721  1.7980
  746MOL0     H 2932  10.938   6.854   7.251 -0.4802 -0.7434  0.8153
  746MOL0     H 2933  10.992   6.794   7.496  3.1106 -1.6269  3.5737
  746MOL0     H 2934  11.468   6.554   7.786 -0.8405 -1.5539 -1.2918
  746MOL0     H 2935  11.458   6.479   8.006 -0.7908 -1.5320 -0.7063
  746MOL0     H 2936  11.346   6.318   8.139  0.0815 -0.8160 -0.1821
  746MOL0     H 2937  11.407   6.439   8.252  1.2710 -1.3670 -0.4491
  746MOL0     H 2938  11.335   6.225   8.355 -0.2613  0.6913  0.3080
  746MOL0     H 2939  11.178   6.225   8.300  1.1610 -2.7990  1.2277
  746MOL0     H 2940  11.193   6.488   8.437  0.5622  0.4745  1.6204
  746MOL0     H 2941  11.116   6.341   8.494 -0.2828  1.1274  2.7050
  746MOL0     H 2942  11.273   6.439   8.655 -3.1310  1.4703 -1.8790
  746MOL0     H 2943  11.399   6.428   8.533 -1.0157  2.4530 -0.0571
  746MOL0     H 2944  11.393   6.048   8.711 -0.5361 -1.1442 -3.4536
  746MOL0     H 2945  11.068   6.630   8.055  1.5523 -3.5496  2.8958
  746MOL0     H 2946  11.006   6.727   7.730  1.5918 -0.0852 -0.0776
  746MOL0     H 2947  10.965   6.765   7.890 -0.7619  0.2584 -1.4692
  746MOL0     H 2948  11.076   6.866   7.801  0.3156  0.4354 -0.9833
  747MOL0     O 2949   9.587   1.218   0.646 -0.5050 -0.4931 -0.1377
  747MOL0     C 2950   9.670   1.285   0.703 -0.5629  1.1270  1.0193
  747MOL0     O 2951   9.768   1.233   0.780  0.4541  0.1072  0.1505
  747MOL0     C 2952   9.741   1.115   0.848  0.1339  0.2756 -0.9836
  747MOL0     C 2953   9.849   1.042   0.895  1.3488  0.4969 -0.1929
  747MOL0     C 2954   9.836   0.926   0.969 -0.6702  0.4478 -0.4175
  747MOL0     C 2955   9.718   0.870   0.989  0.6631  0.1280 -0.2403
  747MOL0     O 2956   9.706   0.762   1.066  0.1433 -0.2925  0.4186
  747MOL0     C 2957   9.668   0.783   1.199  0.2879  0.3501 -0.5430
  747MOL0     C 2958   9.654   0.647   1.276 -0.2717 -0.6132 -0.6001
  747MOL0     C 2959   9.531   0.650   1.361 -0.0481  0.7313 -0.2010
  747MOL0     C 2960   9.411   0.615   1.285  0.2292 -0.1028  0.2774
  747MOL0     C 2961   9.285   0.642   1.364  0.0169 -0.4344 -0.1350
  747MOL0     C 2962   9.270   0.544   1.487 -0.1593  0.4555  0.1306
  747MOL0     C 2963   9.122   0.510   1.498 -0.1744  0.1438 -0.0752
  747MOL0     C 2964   9.083   0.410   1.602  0.2795 -0.2476  0.2305
  747MOL0     N 2965   8.943   0.378   1.604 -0.0853 -0.4373 -0.8363
  747MOL0     C 2966   8.870   0.332   1.496 -0.1086  0.2499 -0.2223
  747MOL0     C 2967   8.749   0.285   1.543 -0.0161  0.4951  0.8268
  747MOL0     C 2968   8.633   0.237   1.474 -0.2638  0.3766 -0.9501
  747MOL0     C 2969   8.637   0.095   1.438  1.3658  0.8249  0.8743
  747MOL0     C 2970   8.491   0.048   1.409  0.3829 -1.0451 -0.1677
  747MOL0     C 2971   8.480  -0.077   1.332  0.5819 -0.1523  0.5542
  747MOL0     O 2972   8.536  -0.079   1.202 -0.8643  0.8464 -0.3161
  747MOL0     C 2973   8.491  -0.183   1.117  0.1619  0.0897  0.2132
  747MOL0     C 2974   8.502  -0.153   0.979 -0.9166  1.6015  0.3812
  747MOL0     C 2975   8.471  -0.248   0.885  0.2652  0.0986 -0.2370
  747MOL0     C 2976   8.492  -0.208   0.736 -0.1831 -1.3295  0.5515
  747MOL0     C 2977   8.420  -0.373   0.918 -0.6149  0.5989  0.2833
  747MOL0     C 2978   8.374  -0.479   0.825  0.1416  0.0501 -0.0766
  747MOL0     O 2979   8.301  -0.435   0.724  0.3816 -0.3200 -0.8892
  747MOL0     C 2980   8.270  -0.510   0.614  0.5730  0.7883  0.5472
  747MOL0     C 2981   8.362  -0.592   0.547  0.0035 -0.2908 -0.2170
  747MOL0     C 2982   8.309  -0.659   0.429 -0.9876 -0.6803  0.0820
  747MOL0     C 2983   8.174  -0.647   0.388  0.0453 -0.5253  0.5411
  747MOL0     O 2984   8.130  -0.716   0.270 -0.7311 -0.1719 -0.4195
  747MOL0     C 2985   8.102  -0.852   0.290  0.4051 -0.4187 -0.2703
  747MOL0     C 2986   8.095  -0.922   0.154 -0.1133 -0.0310 -0.8024
  747MOL0     C 2987   8.072  -1.076   0.160  0.4418  0.2062  0.9919
  747MOL0     C 2988   8.080  -1.127   0.014  0.3629  0.4400 -0.1877
  747MOL0     C 2989   8.046  -1.281   0.024  0.1094  0.0404 -0.7469
  747MOL0     C 2990   8.042  -1.351  -0.111  0.8165 -0.5377 -0.0420
  747MOL0     C 2991   8.166  -1.354  -0.204 -0.6034 -0.6373  1.0420
  747MOL0     C 2992   8.140  -1.415  -0.335 -0.1882 -0.3496  0.5753
  747MOL0    Cl 2993   8.119  -1.589  -0.321  0.0152  0.1517 -0.1419
  747MOL0     C 2994   8.086  -0.568   0.469 -1.1798  0.9990  0.8122
  747MOL0     C 2995   8.130  -0.499   0.574 -0.0678 -0.5278  0.1780
  747MOL0     O 2996   8.415  -0.592   0.842 -0.4290 -0.4117 -0.4341
  747MOL0     C 2997   8.404  -0.406   1.057 -0.3475  0.2951 -0.8716
  747MOL0     C 2998   8.440  -0.311   1.153 -0.3114  0.5546  0.5247
  747MOL0     N 2999   8.748   0.306   1.680 -0.6888  0.1463  0.5786
  747MOL0     N 3000   8.868   0.362   1.714  0.3324  0.0358  0.2217
  747MOL0     C 3001   9.606   0.939   0.942 -0.4317  0.3952 -0.4857
  747MOL0     C 3002   9.612   1.061   0.875  0.5759  0.5958  0.6847
  747MOL0     C 3003   9.680   1.427   0.667 -1.2309 -0.0925  0.2664
  747MOL0     C 3004   9.783   1.465   0.573 -0.2665  1.4238 -0.6112
  747MOL0     C 3005   9.776   1.583   0.511  1.1049 -0.5353  0.2581
  747MOL0     C 3006   9.678   1.674   0.546 -0.7755 -0.1460 -0.2430
  747MOL0     O 3007   9.649   1.800   0.503 -0.8121 -0.1687  0.1094
  747MOL0     C 3008   9.747   1.848   0.408  0.2277 -1.2019  0.6139
  747MOL0     C 3009   9.722   1.991   0.393 -1.1355 -0.2730 -0.5096
  747MOL0     C 3010   9.582   2.046   0.362 -1.1336  0.1736  0.2302
  747MOL0     C 3011   9.569   2.194   0.403 -0.1057 -0.0800  0.4100
  747MOL0     C 3012   9.654   2.280   0.316  0.4946  0.6074  0.9241
  747MOL0     C 3013   9.724   2.352   0.248  0.0450  0.2899  0.6759
  747MOL0     C 3014   9.591   1.643   0.651  0.3235 -0.0948 -0.5056
  747MOL0     C 3015   9.597   1.521   0.719  0.2663 -0.0832 -0.3703
  747MOL0     C 3016   9.497   1.482   0.817  0.0010  0.1590 -0.7574
  747MOL0     H 3017   9.948   1.077   0.868  2.0085 -0.2132  1.1690
  747MOL0     H 3018   9.920   0.866   1.005  0.3249  1.3003 -1.2607
  747MOL0     H 3019   9.578   0.845   1.199  1.1009  1.5707 -0.4640
  747MOL0     H 3020   9.750   0.841   1.243 -1.8468  1.5614  2.0756
  747MOL0     H 3021   9.645   0.570   1.198 -2.0263 -0.3010 -0.7356
  747MOL0     H 3022   9.746   0.640   1.336  0.2546  4.1318 -0.4678
  747MOL0     H 3023   9.552   0.588   1.449  3.5842  1.7410 -0.1966
  747MOL0     H 3024   9.531   0.752   1.402  3.2591  0.1341  1.6440
  747MOL0     H 3025   9.404   0.685   1.201 -0.7004  1.0805  1.3037
  747MOL0     H 3026   9.421   0.522   1.229 -0.4612  0.8771 -1.5559
  747MOL0     H 3027   9.203   0.634   1.292 -1.1806 -1.8672  1.3233
  747MOL0     H 3028   9.306   0.742   1.405  4.5968 -1.6190  1.0001
  747MOL0     H 3029   9.330   0.453   1.480  2.7133  2.3204 -3.0907
  747MOL0     H 3030   9.312   0.591   1.577  0.6513 -1.5724  0.8598
  747MOL0     H 3031   9.087   0.470   1.402  2.0372 -1.0286 -0.4695
  747MOL0     H 3032   9.062   0.597   1.523 -0.7962 -1.1479  3.5988
  747MOL0     H 3033   9.139   0.320   1.573  1.3514  0.3904  0.2634
  747MOL0     H 3034   9.118   0.450   1.698  0.6674 -0.9593  0.3940
  747MOL0     H 3035   8.900   0.316   1.393  0.5362  3.2823 -0.6193
  747MOL0     H 3036   8.632   0.300   1.384 -0.6706  0.4184 -0.9140
  747MOL0     H 3037   8.540   0.259   1.528  0.0525  0.7830 -0.5533
  747MOL0     H 3038   8.696   0.085   1.346  0.0186  3.5687 -0.3894
  747MOL0     H 3039   8.677   0.029   1.516  1.5708 -0.0134  0.0837
  747MOL0     H 3040   8.438   0.031   1.503 -0.6555  1.3012 -0.2467
  747MOL0     H 3041   8.430   0.127   1.364 -1.6274 -1.2584  1.9806
  747MOL0     H 3042   8.493  -0.167   1.392 -3.6262 -0.3341  1.5560
  747MOL0     H 3043   8.373  -0.081   1.309  0.9210  0.1191 -1.2076
  747MOL0     H 3044   8.551  -0.064   0.941 -0.5913  0.6014 -1.7238
  747MOL0     H 3045   8.594  -0.169   0.732 -1.1462  1.4534  0.5914
  747MOL0     H 3046   8.435  -0.118   0.711 -1.0561 -1.5081  1.7893
  747MOL0     H 3047   8.483  -0.290   0.664 -1.1752  0.5712 -1.6291
  747MOL0     H 3048   8.466  -0.582   0.574  0.9739 -3.5404 -2.2408
  747MOL0     H 3049   8.382  -0.699   0.359 -0.7191  1.5089 -0.9711
  747MOL0     H 3050   8.188  -0.900   0.336  2.3204  0.9074 -2.2698
  747MOL0     H 3051   8.006  -0.878   0.334 -0.5301 -0.7776 -2.3754
  747MOL0     H 3052   8.022  -0.878   0.085  0.1306 -0.6319 -1.4562
  747MOL0     H 3053   8.193  -0.906   0.108  0.6442 -1.0399  0.4102
  747MOL0     H 3054   7.973  -1.094   0.201 -0.5818 -1.1235 -1.7974
  747MOL0     H 3055   8.139  -1.120   0.235 -0.6096  2.5081  3.4455
  747MOL0     H 3056   8.179  -1.105  -0.028 -0.7230  2.2174 -1.9247
  747MOL0     H 3057   8.022  -1.069  -0.058  2.8308  0.2115 -2.5128
  747MOL0     H 3058   8.118  -1.335   0.087 -0.1564  2.7410  2.1350
  747MOL0     H 3059   7.944  -1.289   0.062  0.1961  1.3789 -0.1838
  747MOL0     H 3060   7.964  -1.297  -0.165  1.1074 -0.3099 -0.2338
  747MOL0     H 3061   8.015  -1.454  -0.084 -0.0422  0.9808  6.6001
  747MOL0     H 3062   8.251  -1.401  -0.153  2.3687  2.0851 -1.0308
  747MOL0     H 3063   8.184  -1.248  -0.222 -1.3872 -0.0735  3.1932
  747MOL0     H 3064   8.228  -1.390  -0.396  0.9590 -2.0305  1.4608
  747MOL0     H 3065   8.050  -1.379  -0.386  0.2566 -2.0076 -1.5465
  747MOL0     H 3066   7.984  -0.565   0.431 -0.3181  0.2719 -1.8234
  747MOL0     H 3067   8.077  -0.421   0.628  3.0591  1.0841  1.1424
  747MOL0     H 3068   8.380  -0.507   1.088 -1.2254 -0.2590 -3.1677
  747MOL0     H 3069   8.425  -0.337   1.258  0.2623 -2.8215 -0.1187
  747MOL0     H 3070   9.510   0.889   0.955 -0.5545  0.9827  1.0863
  747MOL0     H 3071   9.520   1.099   0.832  2.0534  2.8900 -0.6653
  747MOL0     H 3072   9.851   1.386   0.544 -0.5177  1.2845 -0.8299
  747MOL0     H 3073   9.833   1.599   0.420  0.0491  1.5607 -0.1125
  747MOL0     H 3074   9.848   1.831   0.445  0.5934  3.0324  2.1575
  747MOL0     H 3075   9.742   1.799   0.310  1.8072  0.3293 -0.2995
  747MOL0     H 3076   9.795   2.034   0.323 -0.2413 -1.1384 -0.1271
  747MOL0     H 3077   9.758   2.036   0.486  3.8550 -0.3942 -2.0629
  747MOL0     H 3078   9.557   2.024   0.257 -2.4082 -2.6135  1.0256
  747MOL0     H 3079   9.509   1.985   0.417  0.4793 -1.5145  0.5938
  747MOL0     H 3080   9.596   2.204   0.508  1.5507  1.6658 -0.1249
  747MOL0     H 3081   9.462   2.212   0.391 -0.8507 -3.0014  1.8503
  747MOL0     H 3082   9.776   2.417   0.180 -2.0828  0.9534 -0.3896
  747MOL0     H 3083   9.507   1.705   0.680 -1.2031 -3.1858  2.2558
  747MOL0     H 3084   9.418   1.428   0.765 -0.9752 -0.1091  0.9409
  747MOL0     H 3085   9.543   1.418   0.893 -0.8986 -1.1797 -1.3195
  747MOL0     H 3086   9.459   1.565   0.878 -2.0321 -1.6876  0.6316
  748MOL0     O 3087  10.422   5.888   8.000  0.4754 -0.3924 -0.2562
  748MOL0     C 3088  10.529   5.877   7.959 -1.6395  0.0223  0.0140
  748MOL0     O 3089  10.635   5.818   8.028  0.4491  0.3908  0.7984
  748MOL0     C 3090  10.618   5.781   8.156  0.6519 -0.3881  0.0592
  748MOL0     C 3091  10.667   5.861   8.261  0.5926  0.9035  0.0988
  748MOL0     C 3092  10.662   5.807   8.394 -1.0367 -1.1834  0.5395
  748MOL0     C 3093  10.601   5.690   8.416  0.3987  0.2978 -0.2393
  748MOL0     O 3094  10.607   5.641   8.538  0.7528 -0.4487 -0.2026
  748MOL0     C 3095  10.710   5.543   8.559  0.7251  0.6709 -0.3228
  748MOL0     C 3096  10.663   5.406   8.631  0.3464  0.4973 -0.3009
  748MOL0     C 3097  10.543   5.414   8.739 -0.0661 -0.2223  0.3714
  748MOL0     C 3098  10.538   5.292   8.831 -0.4178 -0.4292 -0.8166
  748MOL0     C 3099  10.407   5.254   8.901  0.0008 -0.1015 -0.2730
  748MOL0     C 3100  10.407   5.304   9.048  0.0253 -0.1197 -0.8437
  748MOL0     C 3101  10.261   5.295   9.116 -0.2529 -1.1926 -0.2539
  748MOL0     C 3102  10.200   5.152   9.142 -0.0563  0.4996  0.1701
  748MOL0     N 3103  10.074   5.161   9.228 -0.2252 -1.2215 -0.2480
  748MOL0     C 3104   9.973   5.257   9.207  0.2426 -0.0689 -0.6343
  748MOL0     C 3105   9.865   5.211   9.266 -0.6864 -0.1957  0.1591
  748MOL0     C 3106   9.739   5.280   9.256 -0.5224  0.5409  0.3461
  748MOL0     C 3107   9.643   5.237   9.365 -0.0044 -0.4123  1.6844
  748MOL0     C 3108   9.665   5.276   9.502  0.7163  0.4703 -0.1168
  748MOL0     C 3109   9.654   5.434   9.505  0.1365  0.8913 -0.3427
  748MOL0     O 3110   9.649   5.478   9.638 -0.0219 -0.8878  0.9249
  748MOL0     C 3111   9.636   5.616   9.658 -0.5122 -0.8279 -0.1175
  748MOL0     C 3112   9.611   5.664   9.791 -1.3843 -0.2495  0.0096
  748MOL0     C 3113   9.564   5.795   9.808  0.2306 -0.8356  0.2060
  748MOL0     C 3114   9.527   5.847   9.949 -0.2931  0.5423 -0.4406
  748MOL0     C 3115   9.539   5.871   9.695  0.0658  0.7256  1.0752
  748MOL0     C 3116   9.469   5.999   9.692  0.2587 -0.1791 -0.1277
  748MOL0     O 3117   9.535   6.098   9.624  0.8833  0.6163 -0.3077
  748MOL0     C 3118   9.466   6.217   9.609 -0.3926 -0.1603 -0.5348
  748MOL0     C 3119   9.434   6.302   9.712 -0.1913  0.1179  0.0184
  748MOL0     C 3120   9.361   6.426   9.695  0.3844  0.3916  1.4724
  748MOL0     C 3121   9.316   6.456   9.565  0.3299  0.5871  0.6282
  748MOL0     O 3122   9.223   6.562   9.530 -0.4079 -0.1626 -0.2190
  748MOL0     C 3123   9.143   6.612   9.634  0.0420 -0.3300 -0.2530
  748MOL0     C 3124   9.201   6.747   9.689  0.0509  0.0919  1.4371
  748MOL0     C 3125   9.097   6.818   9.782 -0.6830 -0.0256 -0.0179
  748MOL0     C 3126   9.151   6.864   9.910 -0.5708  0.6215  0.4714
  748MOL0     C 3127   9.046   6.898  10.019  0.9195 -0.1945  0.0040
  748MOL0     C 3128   9.104   6.980  10.131  0.2926 -0.5418 -0.0826
  748MOL0     C 3129   9.002   7.022  10.231  0.7372  0.7110 -0.3563
  748MOL0     C 3130   9.067   7.097  10.343  0.2884  0.1580 -0.1292
  748MOL0    Cl 3131   9.148   6.990  10.461 -0.0079 -0.1764  0.0161
  748MOL0     C 3132   9.339   6.355   9.465  0.5519 -0.5369  0.6073
  748MOL0     C 3133   9.406   6.237   9.492  0.1855 -0.0348  0.5651
  748MOL0     O 3134   9.351   6.011   9.736 -0.6672 -0.1032 -0.2557
  748MOL0     C 3135   9.578   5.829   9.567  0.1979 -0.7595  0.1743
  748MOL0     C 3136   9.628   5.707   9.548  0.2323  0.7376 -0.0832
  748MOL0     N 3137   9.896   5.085   9.314  0.4851  0.6825 -0.3245
  748MOL0     N 3138  10.023   5.053   9.304  0.3647 -0.9393  0.3834
  748MOL0     C 3139  10.558   5.609   8.313 -0.2065 -0.3974  0.8420
  748MOL0     C 3140  10.568   5.655   8.180  0.7592  0.1699 -0.6060
  748MOL0     C 3141  10.573   5.940   7.821  0.7043 -0.6054  0.4601
  748MOL0     C 3142  10.708   5.990   7.801  0.2464 -0.0598 -0.2164
  748MOL0     C 3143  10.743   6.056   7.686 -0.1599 -0.0963  0.2296
  748MOL0     C 3144  10.657   6.071   7.585  1.2339 -1.2682  0.6158
  748MOL0     O 3145  10.697   6.124   7.467  0.1157 -0.8737  0.4341
  748MOL0     C 3146  10.798   6.044   7.395 -0.1383 -0.0118 -0.4797
  748MOL0     C 3147  10.778   6.049   7.244 -0.2355  0.4137 -0.1449
  748MOL0     C 3148  10.639   5.993   7.202 -0.9123 -0.5585 -0.3120
  748MOL0     C 3149  10.601   6.023   7.051 -0.7665  1.2965 -0.5770
  748MOL0     C 3150  10.674   5.935   6.957 -0.7411 -0.7799 -0.5914
  748MOL0     C 3151  10.728   5.858   6.881  0.3256 -0.5762  0.2020
  748MOL0     C 3152  10.520   6.023   7.593 -0.9530  0.0078 -0.5262
  748MOL0     C 3153  10.484   5.961   7.716 -0.4149  0.2383 -0.3647
  748MOL0     C 3154  10.342   5.913   7.720 -0.3879 -1.0953  0.3517
  748MOL0     H 3155  10.716   5.956   8.240 -0.1187  1.7549  2.0782
  748MOL0     H 3156  10.724   5.856   8.468  2.5481  1.0442 -3.4725
  748MOL0     H 3157  10.779   5.589   8.630  3.9794 -1.9602 -1.4763
  748MOL0     H 3158  10.768   5.524   8.468  3.3426  3.2830  0.6245
  748MOL0     H 3159  10.636   5.339   8.549  1.6380 -0.3974 -0.0203
  748MOL0     H 3160  10.754   5.358   8.669 -1.2395 -3.0683 -0.6093
  748MOL0     H 3161  10.542   5.505   8.800 -2.4819  0.3499 -0.3918
  748MOL0     H 3162  10.461   5.427   8.668  1.5519  1.4861 -1.3144
  748MOL0     H 3163  10.563   5.205   8.768 -2.0855 -2.5941  1.3285
  748MOL0     H 3164  10.625   5.309   8.895  0.3244 -1.0690 -1.6235
  748MOL0     H 3165  10.387   5.147   8.912 -1.4523  0.0327 -1.3695
  748MOL0     H 3166  10.324   5.297   8.844  1.8653 -0.8098 -3.7934
  748MOL0     H 3167  10.482   5.250   9.106  0.8670  0.5294 -1.2948
  748MOL0     H 3168  10.442   5.408   9.044  1.2032 -0.3098  2.2421
  748MOL0     H 3169  10.194   5.352   9.051  1.0582  1.3626  0.4724
  748MOL0     H 3170  10.278   5.344   9.212  0.3293  0.0162 -0.9322
  748MOL0     H 3171  10.183   5.116   9.040  1.4589  4.0317 -1.5176
  748MOL0     H 3172  10.269   5.084   9.193 -0.2564  1.2833  1.5286
  748MOL0     H 3173   9.964   5.351   9.152  0.1795 -0.4260 -1.2505
  748MOL0     H 3174   9.699   5.254   9.157 -0.7241  2.5168 -0.1294
  748MOL0     H 3175   9.761   5.386   9.260 -0.9155  0.7527 -1.7403
  748MOL0     H 3176   9.542   5.269   9.338 -0.2418  0.2734  3.2690
  748MOL0     H 3177   9.626   5.129   9.360 -1.8557 -0.1550 -4.0669
  748MOL0     H 3178   9.582   5.239   9.563 -0.1167  1.3239 -0.7039
  748MOL0     H 3179   9.759   5.244   9.549  1.6224 -0.0205 -2.1519
  748MOL0     H 3180   9.745   5.476   9.461  0.0275  2.0652  0.5063
  748MOL0     H 3181   9.565   5.479   9.461  1.9659  1.6933 -3.6234
  748MOL0     H 3182   9.616   5.598   9.877 -1.5954  1.8710  1.7298
  748MOL0     H 3183   9.589   5.800  10.026 -1.4287 -0.7189 -0.2608
  748MOL0     H 3184   9.425   5.826   9.981 -0.5143  0.5690 -1.1055
  748MOL0     H 3185   9.532   5.955   9.966  0.8638  0.1461  2.2953
  748MOL0     H 3186   9.483   6.285   9.807 -0.3658  0.2186  0.1272
  748MOL0     H 3187   9.341   6.498   9.773 -2.0700 -0.0301  1.3010
  748MOL0     H 3188   9.047   6.641   9.591  0.5900  2.3380  0.1489
  748MOL0     H 3189   9.128   6.546   9.719  1.7275  1.1561  1.2947
  748MOL0     H 3190   9.297   6.734   9.739  0.1579 -0.8765  0.9948
  748MOL0     H 3191   9.221   6.813   9.605 -1.1638  0.8954  1.7466
  748MOL0     H 3192   9.008   6.761   9.810 -0.8655  0.3287  0.1247
  748MOL0     H 3193   9.052   6.902   9.729  0.5284  0.5955 -0.1130
  748MOL0     H 3194   9.217   6.947   9.885 -0.5003  0.0348 -1.4499
  748MOL0     H 3195   9.215   6.784   9.950 -1.6963 -0.0043  1.0685
  748MOL0     H 3196   8.976   6.971   9.978  3.3133  1.2244 -1.8035
  748MOL0     H 3197   8.986   6.813  10.055  1.7251 -0.6982  0.1840
  748MOL0     H 3198   9.144   7.074  10.090 -1.2730 -1.0641 -3.1085
  748MOL0     H 3199   9.189   6.934  10.181 -1.9259 -2.1172  2.5234
  748MOL0     H 3200   8.944   6.936  10.267  2.4166  0.2591  1.4517
  748MOL0     H 3201   8.935   7.090  10.178  2.5229  1.8146 -1.3018
  748MOL0     H 3202   8.997   7.160  10.399  0.7983  1.2315 -0.6643
  748MOL0     H 3203   9.147   7.164  10.310  1.5891  0.2201  2.7737
  748MOL0     H 3204   9.298   6.389   9.370  0.5528  1.2821  1.2375
  748MOL0     H 3205   9.405   6.154   9.423 -1.5237 -1.5666  2.3456
  748MOL0     H 3206   9.583   5.903   9.489 -1.0544 -0.0191  0.7568
  748MOL0     H 3207   9.661   5.683   9.448  1.5302  2.7563 -0.2056
  748MOL0     H 3208  10.529   5.509   8.346 -0.8603  0.1704  2.0864
  748MOL0     H 3209  10.530   5.584   8.106 -3.1342 -0.7108  1.9289
  748MOL0     H 3210  10.773   5.977   7.887 -1.3160 -0.7481  0.9142
  748MOL0     H 3211  10.848   6.083   7.681  0.6219 -2.6952  1.2418
  748MOL0     H 3212  10.897   6.086   7.415 -0.0505 -0.7005  0.6586
  748MOL0     H 3213  10.810   5.947   7.445 -1.9631 -0.4411 -0.8247
  748MOL0     H 3214  10.859   5.991   7.198  0.9690  1.1118  1.0183
  748MOL0     H 3215  10.786   6.152   7.208  0.7025  1.7093  3.3478
  748MOL0     H 3216  10.635   5.887   7.232 -0.1915 -0.1811  1.2160
  748MOL0     H 3217  10.558   6.027   7.268 -0.3773  0.8078 -0.3336
  748MOL0     H 3218  10.617   6.127   7.020  2.4212  1.3572  0.8534
  748MOL0     H 3219  10.496   5.992   7.044  0.2909 -3.4294  0.7209
  748MOL0     H 3220  10.769   5.786   6.813 -3.3301 -3.7598  1.0249
  748MOL0     H 3221  10.447   6.045   7.516 -0.8061  2.8489  0.0552
  748MOL0     H 3222  10.328   5.892   7.614  0.7795 -2.0526  0.3768
  748MOL0     H 3223  10.327   5.826   7.784 -0.7383 -2.4939 -1.5446
  748MOL0     H 3224  10.269   5.990   7.747  1.1595  0.9659 -1.0119
  749MOL0     O 3225   1.489   1.918   3.592  0.5764  0.2904 -0.0184
  749MOL0     C 3226   1.496   2.042   3.590  0.5714 -0.5050  0.7032
  749MOL0     O 3227   1.401   2.125   3.637  0.5174 -0.0208 -0.3930
  749MOL0     C 3228   1.276   2.081   3.665  1.1302 -0.6684  0.2675
  749MOL0     C 3229   1.189   2.079   3.553 -0.9301  0.4693  0.3444
  749MOL0     C 3230   1.058   2.046   3.570 -0.2102 -1.0371  0.3272
  749MOL0     C 3231   1.002   2.022   3.690 -0.1661 -0.6324  0.2309
  749MOL0     O 3232   0.864   2.022   3.694 -0.4974 -0.6470 -0.6208
  749MOL0     C 3233   0.803   1.927   3.785 -0.1034 -0.6149 -0.6458
  749MOL0     C 3234   0.666   1.905   3.727 -0.3769 -0.0818 -0.4735
  749MOL0     C 3235   0.642   1.872   3.575  0.6827  0.3079 -0.3364
  749MOL0     C 3236   0.492   1.840   3.564 -0.1422  1.5007 -0.0679
  749MOL0     C 3237   0.394   1.948   3.583  0.2841 -0.5960 -0.3337
  749MOL0     C 3238   0.422   2.078   3.500  0.8601 -0.5908  0.3831
  749MOL0     C 3239   0.298   2.184   3.490 -0.4969  0.0603  0.0360
  749MOL0     C 3240   0.211   2.165   3.368  0.9409  0.6789 -0.6864
  749MOL0     N 3241   0.176   2.020   3.343 -0.9614  0.0852 -0.5921
  749MOL0     C 3242   0.250   1.924   3.266 -0.8441 -1.6751  0.2057
  749MOL0     C 3243   0.174   1.818   3.270 -0.1657 -0.0427 -0.1339
  749MOL0     C 3244   0.202   1.682   3.225 -0.5671 -0.1837 -0.0867
  749MOL0     C 3245   0.194   1.684   3.073 -1.2207 -0.0736 -0.0785
  749MOL0     C 3246   0.064   1.706   3.005 -0.9830  0.5190  1.0476
  749MOL0     C 3247  -0.036   1.604   3.017  0.4418  0.6534 -0.0995
  749MOL0     O 3248  -0.070   1.596   3.158  0.4112 -0.3498 -0.2550
  749MOL0     C 3249  -0.158   1.497   3.195  0.2236 -0.1751 -0.6327
  749MOL0     C 3250  -0.220   1.396   3.114  0.3860 -0.2510  0.1567
  749MOL0     C 3251  -0.336   1.328   3.167 -0.4741  0.0140 -0.0058
  749MOL0     C 3252  -0.393   1.237   3.062  0.4674 -1.2846  0.1364
  749MOL0     C 3253  -0.385   1.343   3.300  0.2175  0.4907 -0.3440
  749MOL0     C 3254  -0.489   1.269   3.373  0.6718  0.0441 -0.0897
  749MOL0     O 3255  -0.492   1.292   3.508 -0.5076  0.1302  0.4068
  749MOL0     C 3256  -0.599   1.233   3.564  0.5416  1.2899 -0.8868
  749MOL0     C 3257  -0.715   1.304   3.592 -1.0342 -0.5152 -0.7596
  749MOL0     C 3258  -0.837   1.236   3.632 -0.6530 -0.4338 -0.5326
  749MOL0     C 3259  -0.837   1.100   3.662 -0.1417 -0.6417  0.7415
  749MOL0     O 3260  -0.955   1.039   3.696 -0.5466 -0.1162 -0.9401
  749MOL0     C 3261  -0.955   0.994   3.829  0.3867  0.2319 -0.7429
  749MOL0     C 3262  -1.084   0.933   3.886 -0.0586 -0.8959  0.2186
  749MOL0     C 3263  -1.194   1.038   3.908 -0.5508 -1.2111 -0.0544
  749MOL0     C 3264  -1.210   1.081   4.050 -0.3005 -0.2680 -0.4591
  749MOL0     C 3265  -1.335   1.174   4.065 -0.2090 -0.7480  0.1356
  749MOL0     C 3266  -1.393   1.185   4.210  0.4049  0.1182 -0.5702
  749MOL0     C 3267  -1.290   1.246   4.308  0.3584 -0.1835  0.9361
  749MOL0     C 3268  -1.339   1.267   4.452 -0.3032 -0.3714 -0.8270
  749MOL0    Cl 3269  -1.404   1.108   4.508 -0.0211 -0.0963  0.6722
  749MOL0     C 3270  -0.709   1.032   3.644  0.0884 -0.8163 -0.3923
  749MOL0     C 3271  -0.598   1.097   3.591 -0.8395 -0.3100  0.2572
  749MOL0     O 3272  -0.551   1.178   3.314  0.3905 -0.1472 -0.2725
  749MOL0     C 3273  -0.317   1.444   3.372  0.2893 -0.0579 -0.4840
  749MOL0     C 3274  -0.203   1.506   3.325  0.7985 -0.3301  0.7498
  749MOL0     N 3275   0.053   1.845   3.335 -0.0771 -0.6468 -0.0252
  749MOL0     N 3276   0.058   1.962   3.384  0.0379  0.5721  1.0238
  749MOL0     C 3277   1.079   2.013   3.807  0.1385 -0.1686  0.3385
  749MOL0     C 3278   1.226   2.040   3.788  0.3085 -0.5324 -0.7172
  749MOL0     C 3279   1.614   2.115   3.540  0.4811  0.0681  0.6647
  749MOL0     C 3280   1.603   2.245   3.483  0.6845 -0.4827  0.8102
  749MOL0     C 3281   1.721   2.317   3.460  0.6271  0.8648 -0.0341
  749MOL0     C 3282   1.844   2.262   3.469 -1.1286 -0.5282  0.6035
  749MOL0     O 3283   1.962   2.329   3.436  0.3542  0.0138 -0.5272
  749MOL0     C 3284   1.960   2.473   3.410 -0.1498 -0.3349  1.0107
  749MOL0     C 3285   2.101   2.545   3.392  0.1230  0.0918 -0.0043
  749MOL0     C 3286   2.055   2.693   3.386  0.8274  0.0486 -0.5690
  749MOL0     C 3287   2.179   2.786   3.366  0.2286  0.2119  0.3605
  749MOL0     C 3288   2.260   2.821   3.487 -0.5829  0.3831  0.6950
  749MOL0     C 3289   2.319   2.860   3.579  0.3721  0.3522  0.0648
  749MOL0     C 3290   1.853   2.133   3.511 -0.4719 -0.3776 -0.8053
  749MOL0     C 3291   1.741   2.061   3.561  0.8249  0.0886  0.6753
  749MOL0     C 3292   1.772   1.922   3.600 -0.2824  0.2013  0.1638
  749MOL0     H 3293   1.233   2.101   3.456 -1.0445 -1.2783 -0.1261
  749MOL0     H 3294   0.996   2.049   3.480  3.8529 -1.1255 -2.7582
  749MOL0     H 3295   0.797   1.975   3.883  2.0238 -0.8475 -0.3529
  749MOL0     H 3296   0.861   1.835   3.797  0.6123 -0.2971 -1.5972
  749MOL0     H 3297   0.614   1.819   3.771  0.8380 -1.5595 -1.8137
  749MOL0     H 3298   0.620   1.997   3.765 -0.9391  0.4679 -2.3654
  749MOL0     H 3299   0.666   1.954   3.507 -0.8914 -1.3756 -3.1070
  749MOL0     H 3300   0.709   1.790   3.551  0.0894 -1.2006  2.6625
  749MOL0     H 3301   0.464   1.794   3.468  3.6211  0.3324 -0.7812
  749MOL0     H 3302   0.469   1.754   3.628  0.2621  0.5695 -1.1216
  749MOL0     H 3303   0.393   1.985   3.686  2.4391  0.0465 -0.5012
  749MOL0     H 3304   0.293   1.906   3.572  0.6477 -1.6585  0.3469
  749MOL0     H 3305   0.508   2.121   3.553 -0.7415  0.2641  2.4496
  749MOL0     H 3306   0.458   2.060   3.398 -1.7095  1.3933 -0.9897
  749MOL0     H 3307   0.338   2.285   3.498  0.9090 -0.0761 -3.4028
  749MOL0     H 3308   0.240   2.176   3.582 -0.3782  3.9489  0.6177
  749MOL0     H 3309   0.120   2.222   3.390  0.4957 -1.2809  3.8361
  749MOL0     H 3310   0.253   2.227   3.288  0.6146  4.0819  1.5650
  749MOL0     H 3311   0.346   1.931   3.215  0.1694 -1.7225  1.9967
  749MOL0     H 3312   0.143   1.605   3.277 -1.1433 -1.5988 -2.6288
  749MOL0     H 3313   0.304   1.654   3.250 -0.1998  0.8399 -0.4172
  749MOL0     H 3314   0.268   1.759   3.045 -0.5594  0.1022  2.0084
  749MOL0     H 3315   0.236   1.590   3.036  1.2490  0.7945  0.3281
  749MOL0     H 3316   0.008   1.798   3.028 -5.3855 -1.3520 -0.9310
  749MOL0     H 3317   0.077   1.697   2.897 -3.8355 -0.8277  0.7187
  749MOL0     H 3318  -0.121   1.644   2.961 -0.9891  0.4471  1.8329
  749MOL0     H 3319  -0.005   1.510   2.970 -0.3219  0.6482 -0.6071
  749MOL0     H 3320  -0.179   1.391   3.014  1.0453 -0.0591  0.4124
  749MOL0     H 3321  -0.320   1.206   2.987 -0.0426 -2.6265  0.1585
  749MOL0     H 3322  -0.483   1.281   3.018  0.7838  0.1076  0.8459
  749MOL0     H 3323  -0.431   1.143   3.103 -2.9020 -1.4123 -2.7597
  749MOL0     H 3324  -0.706   1.407   3.558  0.7051 -0.6671 -0.8741
  749MOL0     H 3325  -0.927   1.297   3.635  1.4790  2.9434  0.8491
  749MOL0     H 3326  -0.886   0.910   3.835 -1.0316 -0.9069  0.5585
  749MOL0     H 3327  -0.922   1.064   3.906  1.1256 -0.7411 -0.1507
  749MOL0     H 3328  -1.105   0.863   3.805  3.2277 -0.3099 -1.2930
  749MOL0     H 3329  -1.059   0.877   3.977  1.7950 -0.8769 -0.2329
  749MOL0     H 3330  -1.285   0.990   3.870  1.2395 -2.9792 -2.5108
  749MOL0     H 3331  -1.190   1.128   3.846 -0.6488  0.0261  1.6913
  749MOL0     H 3332  -1.119   1.134   4.082  0.3191 -1.9550  0.7090
  749MOL0     H 3333  -1.227   0.990   4.108 -3.4853  0.4535 -0.0658
  749MOL0     H 3334  -1.302   1.272   4.029  1.5656 -1.1551  0.5474
  749MOL0     H 3335  -1.417   1.144   4.000 -0.1895  0.5591 -0.5175
  749MOL0     H 3336  -1.416   1.083   4.242 -1.0132  1.4761  3.2774
  749MOL0     H 3337  -1.478   1.254   4.212  0.9772  0.8212  0.2572
  749MOL0     H 3338  -1.255   1.343   4.274 -0.1007  0.3733  1.9967
  749MOL0     H 3339  -1.204   1.179   4.315  0.0551 -0.4598  2.6029
  749MOL0     H 3340  -1.425   1.335   4.456  0.0479  0.1099 -1.3757
  749MOL0     H 3341  -1.259   1.307   4.515 -1.8284  2.0438 -0.2879
  749MOL0     H 3342  -0.703   0.924   3.658  0.5148 -0.8691 -0.9533
  749MOL0     H 3343  -0.506   1.045   3.566 -0.4291  0.0866  0.8889
  749MOL0     H 3344  -0.354   1.464   3.472  2.6941  1.0191  0.2784
  749MOL0     H 3345  -0.170   1.587   3.390 -1.4009  2.3145 -1.2084
  749MOL0     H 3346   1.055   1.998   3.911  3.5898  1.3092  1.5327
  749MOL0     H 3347   1.301   2.031   3.866  0.6617  1.2874 -0.8103
  749MOL0     H 3348   1.507   2.292   3.460  1.3973  0.8875  0.5484
  749MOL0     H 3349   1.713   2.423   3.439  3.7701  0.8470 -2.1009
  749MOL0     H 3350   1.894   2.485   3.324 -0.9582  3.5672  1.9692
  749MOL0     H 3351   1.911   2.520   3.496 -0.1252  0.9903  0.3274
  749MOL0     H 3352   2.151   2.512   3.301 -1.9013 -0.2331 -1.0594
  749MOL0     H 3353   2.165   2.537   3.481 -0.5461  1.0057  0.5800
  749MOL0     H 3354   2.000   2.697   3.291  2.2462  0.4470 -1.3952
  749MOL0     H 3355   1.990   2.725   3.468 -2.0386 -1.4464 -2.0968
  749MOL0     H 3356   2.149   2.884   3.328  3.3424  0.7122 -1.0494
  749MOL0     H 3357   2.243   2.749   3.286 -0.0298  1.2234 -0.3283
  749MOL0     H 3358   2.364   2.891   3.672 -1.8721 -1.9957  2.0964
  749MOL0     H 3359   1.956   2.105   3.532 -1.3298 -1.5567  2.4924
  749MOL0     H 3360   1.737   1.898   3.701  1.1730 -1.5074  0.3156
  749MOL0     H 3361   1.736   1.843   3.535  4.0098 -1.7645 -0.1982
  749MOL0     H 3362   1.881   1.913   3.604 -0.3246  0.0156  1.2654
  750MOL0     O 3363   6.243   3.441   2.732  0.2027  0.4722  0.4034
  750MOL0     C 3364   6.160   3.348   2.707 -0.4312  0.9721 -1.0568
  750MOL0     O 3365   6.053   3.357   2.622  0.0318 -0.0449  0.2110
  750MOL0     C 3366   6.049   3.461   2.541  0.6963 -0.0231 -0.0212
  750MOL0     C 3367   6.015   3.591   2.591  0.0740  0.1286  0.5884
  750MOL0     C 3368   6.026   3.698   2.502  1.1948 -0.6993  0.1449
  750MOL0     C 3369   6.057   3.689   2.370  0.1018 -0.1066  1.9232
  750MOL0     O 3370   6.049   3.804   2.296 -0.7664 -0.6087  0.4665
  750MOL0     C 3371   6.153   3.850   2.205  0.0458  0.4104 -0.1220
  750MOL0     C 3372   6.284   3.872   2.279 -0.5104  0.4243 -0.2505
  750MOL0     C 3373   6.391   3.925   2.190 -1.2599  0.7775 -0.2497
  750MOL0     C 3374   6.356   4.053   2.117 -0.2283  0.9828 -0.4933
  750MOL0     C 3375   6.452   4.077   2.000 -0.6073  0.6212  0.2571
  750MOL0     C 3376   6.420   4.220   1.947 -0.2063 -0.0322  0.5756
  750MOL0     C 3377   6.316   4.226   1.835 -0.8609 -0.0456  0.6748
  750MOL0     C 3378   6.394   4.184   1.702 -0.5247 -0.3749  0.3454
  750MOL0     N 3379   6.330   4.209   1.568  0.5542 -0.0687  0.0049
  750MOL0     C 3380   6.272   4.325   1.532 -0.0377  1.1396  0.3530
  750MOL0     C 3381   6.201   4.296   1.427  0.6156  0.7515  0.1978
  750MOL0     C 3382   6.134   4.398   1.346  0.3026  0.0556 -0.0007
  750MOL0     C 3383   6.101   4.371   1.199 -0.2446 -1.0310  0.2440
  750MOL0     C 3384   6.017   4.496   1.146  0.2849  0.5825 -0.0789
  750MOL0     C 3385   6.037   4.546   1.006 -0.4027 -0.0204 -0.7425
  750MOL0     O 3386   6.100   4.456   0.913 -0.9399 -0.3693 -0.7871
  750MOL0     C 3387   6.025   4.351   0.867 -0.0577 -0.0113  1.0503
  750MOL0     C 3388   6.097   4.238   0.812  0.0526  0.3573 -0.4065
  750MOL0     C 3389   6.035   4.121   0.774 -0.3829  0.2323 -0.1906
  750MOL0     C 3390   6.110   3.999   0.757 -0.2571 -0.0925  0.5678
  750MOL0     C 3391   5.892   4.109   0.773  0.8829  0.4849 -0.0570
  750MOL0     C 3392   5.826   3.984   0.723  0.6225 -1.3891  0.2207
  750MOL0     O 3393   5.708   3.953   0.773 -0.5056  0.6997 -0.8492
  750MOL0     C 3394   5.635   3.846   0.730  0.1199  0.3078  0.8744
  750MOL0     C 3395   5.608   3.745   0.822  0.6384  1.0251  0.0415
  750MOL0     C 3396   5.546   3.635   0.786  1.0344  0.1786 -0.1900
  750MOL0     C 3397   5.495   3.624   0.656 -0.1380  0.3213  0.5073
  750MOL0     O 3398   5.421   3.521   0.613 -0.1127  0.1553  0.2403
  750MOL0     C 3399   5.418   3.401   0.693  0.0025  0.9232 -0.3129
  750MOL0     C 3400   5.315   3.303   0.626  0.5851  0.6081 -0.0656
  750MOL0     C 3401   5.299   3.175   0.699  0.0407 -0.5294  0.2365
  750MOL0     C 3402   5.213   3.076   0.606  0.7692  0.5157 -0.2199
  750MOL0     C 3403   5.195   2.948   0.684 -0.7087 -0.5727 -0.0716
  750MOL0     C 3404   5.114   2.859   0.598 -0.4377 -0.1567  0.4084
  750MOL0     C 3405   5.090   2.722   0.659  0.7733  1.5968  0.1000
  750MOL0     C 3406   5.023   2.619   0.564 -0.0682  0.0631  0.1514
  750MOL0    Cl 3407   4.858   2.665   0.533 -0.0864 -0.0379  0.5046
  750MOL0     C 3408   5.515   3.728   0.571 -0.3275 -0.1565  0.3378
  750MOL0     C 3409   5.591   3.839   0.603 -0.6237  0.1526  0.0253
  750MOL0     O 3410   5.869   3.940   0.620 -0.6864  0.0388  0.9006
  750MOL0     C 3411   5.826   4.223   0.826  0.5639  1.3126 -0.3757
  750MOL0     C 3412   5.888   4.335   0.878 -0.4704  0.2839 -0.0678
  750MOL0     N 3413   6.206   4.147   1.404  0.6900 -0.5982  0.4871
  750MOL0     N 3414   6.291   4.110   1.486  0.3181 -0.5585  0.1008
  750MOL0     C 3415   6.070   3.554   2.316 -1.0023  0.4856  0.3682
  750MOL0     C 3416   6.069   3.442   2.401  0.0684 -0.0445 -0.2493
  750MOL0     C 3417   6.186   3.219   2.778  0.3767 -0.2791  0.1768
  750MOL0     C 3418   6.085   3.154   2.848  0.6914 -0.1512 -0.2476
  750MOL0     C 3419   6.112   3.028   2.909  0.7840  0.1511  0.3537
  750MOL0     C 3420   6.238   2.964   2.903  0.3104  0.7245 -0.7270
  750MOL0     O 3421   6.265   2.837   2.956 -0.8977 -0.1130 -0.8992
  750MOL0     C 3422   6.202   2.811   3.085  0.0223  0.5386 -0.2221
  750MOL0     C 3423   6.234   2.656   3.112 -0.2585 -0.2750  1.0094
  750MOL0     C 3424   6.201   2.622   3.260 -0.4654  0.4236  0.3361
  750MOL0     C 3425   6.163   2.474   3.279  0.1799  0.2221 -0.7709
  750MOL0     C 3426   6.264   2.387   3.234 -0.8452 -0.7311 -0.4284
  750MOL0     C 3427   6.352   2.313   3.191  0.1570 -0.5066 -0.7935
  750MOL0     C 3428   6.337   3.043   2.853  0.0075  0.7026 -0.0820
  750MOL0     C 3429   6.316   3.166   2.784  0.4224  0.4176 -0.4413
  750MOL0     C 3430   6.438   3.222   2.715 -1.0006  0.0696 -0.0837
  750MOL0     H 3431   5.988   3.602   2.696 -1.3853 -3.1933  0.6556
  750MOL0     H 3432   6.005   3.802   2.527  1.1957 -0.5444 -0.4900
  750MOL0     H 3433   6.128   3.946   2.160  0.0897  2.0391  3.0630
  750MOL0     H 3434   6.162   3.785   2.118  1.4461 -1.7736  1.5472
  750MOL0     H 3435   6.280   3.947   2.359  2.1123  0.8728 -0.4372
  750MOL0     H 3436   6.316   3.779   2.325 -2.8635  0.5080  1.7195
  750MOL0     H 3437   6.477   3.946   2.254 -0.7209 -0.6495 -0.4729
  750MOL0     H 3438   6.419   3.841   2.126  0.9028 -0.4608  2.1407
  750MOL0     H 3439   6.263   4.055   2.061 -2.8712  4.1030  3.4359
  750MOL0     H 3440   6.358   4.133   2.192 -0.3226 -2.4184  3.4833
  750MOL0     H 3441   6.430   4.002   1.923  0.4334  1.6574 -1.1007
  750MOL0     H 3442   6.553   4.062   2.038 -0.3988 -2.1460 -1.1399
  750MOL0     H 3443   6.381   4.281   2.029  1.6438  0.7821  0.9066
  750MOL0     H 3444   6.515   4.262   1.912  0.0265 -0.1635  1.0351
  750MOL0     H 3445   6.284   4.330   1.818  1.6870  0.6975 -0.1163
  750MOL0     H 3446   6.219   4.176   1.844 -1.4460  1.3694  3.0536
  750MOL0     H 3447   6.492   4.232   1.696 -0.2799 -0.8593  0.3932
  750MOL0     H 3448   6.417   4.077   1.709 -1.8014 -0.6323  0.9509
  750MOL0     H 3449   6.299   4.422   1.574  1.7340 -0.8028  4.1245
  750MOL0     H 3450   6.182   4.496   1.337 -4.1650  2.4705 -0.2553
  750MOL0     H 3451   6.039   4.420   1.396  0.9017  0.1668  1.1070
  750MOL0     H 3452   6.189   4.389   1.138 -0.3296 -0.5218  0.2704
  750MOL0     H 3453   6.065   4.268   1.191  4.1313 -3.0316  2.6723
  750MOL0     H 3454   5.912   4.467   1.155  0.7643 -2.9959 -3.6026
  750MOL0     H 3455   6.035   4.585   1.207  0.6424  0.3952  0.0943
  750MOL0     H 3456   5.938   4.585   0.981 -0.5122 -0.0912 -0.4252
  750MOL0     H 3457   6.098   4.636   1.017 -1.7324  0.9679 -1.2527
  750MOL0     H 3458   6.205   4.245   0.818 -0.0586  1.6686  0.6931
  750MOL0     H 3459   6.077   3.937   0.840 -1.4072  0.6614  0.6949
  750MOL0     H 3460   6.220   4.000   0.757 -0.2167 -0.2502  2.7293
  750MOL0     H 3461   6.084   3.939   0.669 -1.4634 -0.7032  1.3226
  750MOL0     H 3462   5.629   3.760   0.928 -0.2082  2.7191  0.0028
  750MOL0     H 3463   5.514   3.557   0.856  0.8680  1.5231  1.2905
  750MOL0     H 3464   5.515   3.351   0.699  0.2572  0.9926 -2.8080
  750MOL0     H 3465   5.379   3.420   0.793 -3.7736 -0.2987 -1.4100
  750MOL0     H 3466   5.218   3.352   0.641  0.2018 -0.5940  1.6845
  750MOL0     H 3467   5.340   3.305   0.519  2.0631  3.3873  0.2219
  750MOL0     H 3468   5.262   3.196   0.800  2.1210  3.8082  0.3394
  750MOL0     H 3469   5.393   3.121   0.714 -0.1995 -1.0280 -0.0057
  750MOL0     H 3470   5.248   3.056   0.504  0.2211  1.1851 -0.5484
  750MOL0     H 3471   5.116   3.123   0.588  1.2521  2.3475  1.5954
  750MOL0     H 3472   5.290   2.901   0.711 -1.0573 -0.3728  1.5700
  750MOL0     H 3473   5.133   2.979   0.768 -4.1543 -0.8380 -2.3254
  750MOL0     H 3474   5.158   2.842   0.500 -2.4965 -1.3556 -0.3884
  750MOL0     H 3475   5.022   2.910   0.567 -2.2764 -2.9374  0.8428
  750MOL0     H 3476   5.025   2.735   0.745  2.0910  0.2483  1.3658
  750MOL0     H 3477   5.175   2.661   0.694 -0.9896 -2.3675 -1.8412
  750MOL0     H 3478   5.016   2.521   0.614  1.3612  0.4955  1.2867
  750MOL0     H 3479   5.070   2.611   0.466  0.9736  0.3454  0.6197
  750MOL0     H 3480   5.457   3.736   0.479  0.8319 -1.0859 -0.5187
  750MOL0     H 3481   5.588   3.926   0.539 -2.8790 -1.2977 -2.0193
  750MOL0     H 3482   5.718   4.216   0.831  0.4821  2.4839 -0.2175
  750MOL0     H 3483   5.821   4.412   0.915 -3.6649 -1.1165 -2.4721
  750MOL0     H 3484   6.046   3.528   2.214 -0.4914 -0.6221  0.5164
  750MOL0     H 3485   6.082   3.344   2.356  1.3640 -0.7933  1.6371
  750MOL0     H 3486   5.982   3.185   2.850  0.1758 -1.6723  2.4620
  750MOL0     H 3487   6.030   2.990   2.969  1.4677  2.3954  2.9332
  750MOL0     H 3488   6.246   2.872   3.164 -2.7865  0.9338  1.1489
  750MOL0     H 3489   6.095   2.822   3.104 -0.1303  0.3363 -0.9143
  750MOL0     H 3490   6.338   2.632   3.087 -1.0564 -1.0523 -1.9300
  750MOL0     H 3491   6.175   2.604   3.036 -1.9389  1.8799  0.7606
  750MOL0     H 3492   6.290   2.639   3.321  0.2153  1.0604 -0.7833
  750MOL0     H 3493   6.126   2.691   3.300  0.0104  0.7762  0.6266
  750MOL0     H 3494   6.067   2.445   3.234 -1.1045  1.5831  0.9405
  750MOL0     H 3495   6.142   2.461   3.386  0.3962 -2.0890 -0.9661
  750MOL0     H 3496   6.421   2.241   3.152  1.5408 -0.1073  0.8162
  750MOL0     H 3497   6.431   2.988   2.853 -0.6048 -0.4850  2.7823
  750MOL0     H 3498   6.468   3.308   2.776 -1.2065  3.3117 -4.0881
  750MOL0     H 3499   6.522   3.153   2.716 -1.6448 -0.7568  2.3741
  750MOL0     H 3500   6.417   3.266   2.616 -0.4549  3.3477  1.1258
  751MOL0     O 3501   0.672   0.350   0.049  0.2690 -0.0325 -0.6560
  751MOL0     C 3502   0.549   0.330   0.042  0.1230 -0.0715  1.1017
  751MOL0     O 3503   0.454   0.420  -0.013 -0.0311  0.2670 -0.2233
  751MOL0     C 3504   0.501   0.547  -0.016  0.0215 -0.8841 -0.7868
  751MOL0     C 3505   0.587   0.601  -0.111  0.5730 -0.8604 -0.2299
  751MOL0     C 3506   0.644   0.725  -0.097 -0.5603  0.5522 -0.2639
  751MOL0     C 3507   0.610   0.810   0.007  0.2482  0.0683  0.8885
  751MOL0     O 3508   0.682   0.928   0.012  0.5616 -0.1225  0.4214
  751MOL0     C 3509   0.617   1.026   0.096 -0.5781  0.4435  0.0660
  751MOL0     C 3510   0.698   1.153   0.072 -0.1953 -0.5396 -0.5395
  751MOL0     C 3511   0.644   1.272   0.161  1.2035 -0.0730 -0.7637
  751MOL0     C 3512   0.691   1.411   0.119  0.5066  0.0216 -0.3248
  751MOL0     C 3513   0.844   1.400   0.143 -0.5537 -0.7726  0.2424
  751MOL0     C 3514   0.914   1.533   0.091  1.0369  0.3966 -0.1359
  751MOL0     C 3515   0.868   1.651   0.174 -0.4269  0.3606 -0.0862
  751MOL0     C 3516   0.901   1.652   0.325  0.0593  0.1057  0.5157
  751MOL0     N 3517   1.040   1.615   0.360 -0.7403 -0.1453  0.5175
  751MOL0     C 3518   1.151   1.688   0.316 -0.6714  0.5329 -0.9901
  751MOL0     C 3519   1.256   1.625   0.374  0.0237  0.4450 -0.2714
  751MOL0     C 3520   1.404   1.647   0.385  0.5705  0.4835 -0.6820
  751MOL0     C 3521   1.481   1.655   0.256  0.4171  0.4992  0.2893
  751MOL0     C 3522   1.473   1.795   0.186 -0.4533  0.2603  0.4449
  751MOL0     C 3523   1.466   1.791   0.041  0.8913  0.9812  0.0684
  751MOL0     O 3524   1.347   1.727  -0.006  0.8637  0.3017 -0.2983
  751MOL0     C 3525   1.343   1.663  -0.121  0.8706 -0.6986 -0.0248
  751MOL0     C 3526   1.235   1.583  -0.154 -0.1493  1.1439 -0.5067
  751MOL0     C 3527   1.221   1.522  -0.279  0.0072 -0.6265 -0.9556
  751MOL0     C 3528   1.089   1.462  -0.296 -0.2754  0.2632  0.4277
  751MOL0     C 3529   1.316   1.556  -0.380  0.3333  0.9554 -0.1891
  751MOL0     C 3530   1.301   1.502  -0.516  0.4288  0.2561  0.5485
  751MOL0     O 3531   1.213   1.401  -0.537  0.5265  0.4121  0.0488
  751MOL0     C 3532   1.193   1.344  -0.663  1.1069  1.4727  0.4289
  751MOL0     C 3533   1.128   1.223  -0.671  0.9148  1.0361 -1.1719
  751MOL0     C 3534   1.088   1.153  -0.791 -0.1873  0.2514  0.1314
  751MOL0     C 3535   1.138   1.202  -0.908  0.4148  0.4282 -0.0245
  751MOL0     O 3536   1.102   1.129  -1.009 -0.1716 -0.5059 -0.0793
  751MOL0     C 3537   1.112   1.186  -1.144 -0.2192 -0.3513  0.5834
  751MOL0     C 3538   1.033   1.100  -1.247 -0.0584 -0.2358 -0.7558
  751MOL0     C 3539   0.887   1.094  -1.218  0.0654 -0.2117 -0.7021
  751MOL0     C 3540   0.793   1.117  -1.338  0.1546  0.5953 -0.7044
  751MOL0     C 3541   0.746   1.259  -1.373 -0.5833 -0.0145 -0.3583
  751MOL0     C 3542   0.658   1.259  -1.509 -0.0752 -0.0757 -0.6408
  751MOL0     C 3543   0.631   1.404  -1.549  1.2450  0.7252 -0.2974
  751MOL0     C 3544   0.537   1.430  -1.670  0.6886 -0.1856 -0.7548
  751MOL0    Cl 3545   0.481   1.600  -1.686  0.2256 -0.2267 -0.1003
  751MOL0     C 3546   1.217   1.313  -0.912  0.2669  0.5519 -0.0364
  751MOL0     C 3547   1.245   1.375  -0.789 -0.2455 -0.2681  0.5663
  751MOL0     O 3548   1.373   1.558  -0.601  0.3528  0.8095 -0.2085
  751MOL0     C 3549   1.430   1.633  -0.342 -0.1781 -0.0958 -0.6779
  751MOL0     C 3550   1.431   1.691  -0.219 -0.0490  0.5483 -0.5358
  751MOL0     N 3551   1.206   1.538   0.470  1.1469 -0.3488  0.1110
  751MOL0     N 3552   1.077   1.520   0.447  0.2839  0.7976 -0.0480
  751MOL0     C 3553   0.500   0.771   0.093  0.7037  0.8547  1.3344
  751MOL0     C 3554   0.457   0.638   0.087  0.3519  0.0439 -0.4884
  751MOL0     C 3555   0.496   0.205   0.086  0.9103  0.7577 -0.5654
  751MOL0     C 3556   0.454   0.104  -0.008 -0.3360 -1.0826  0.2533
  751MOL0     C 3557   0.407  -0.019   0.035  0.0547 -0.0913 -1.6479
  751MOL0     C 3558   0.392  -0.043   0.174  0.2817 -0.8909  0.6718
  751MOL0     O 3559   0.340  -0.169   0.196 -0.4480 -1.8206 -0.5916
  751MOL0     C 3560   0.302  -0.205   0.328  0.3262  0.8852 -0.1293
  751MOL0     C 3561   0.333  -0.357   0.346  0.2431  0.7509 -0.4038
  751MOL0     C 3562   0.247  -0.449   0.249  1.1049 -0.3684 -0.2946
  751MOL0     C 3563   0.275  -0.599   0.267 -1.0691  0.5666  0.0101
  751MOL0     C 3564   0.173  -0.674   0.193  0.2957  0.4752 -0.5376
  751MOL0     C 3565   0.084  -0.718   0.119 -0.1023  0.0719 -0.5390
  751MOL0     C 3566   0.412   0.065   0.261 -0.1396 -0.3317 -0.3315
  751MOL0     C 3567   0.457   0.189   0.221  1.0634 -0.1937 -0.1649
  751MOL0     C 3568   0.461   0.299   0.317  0.0145 -0.8031 -1.0821
  751MOL0     H 3569   0.622   0.531  -0.186  1.1183 -1.1315  0.2680
  751MOL0     H 3570   0.715   0.748  -0.176  1.0495  0.4602  1.1145
  751MOL0     H 3571   0.630   1.001   0.201 -0.2041 -0.8760 -0.2707
  751MOL0     H 3572   0.514   1.044   0.065 -1.6808 -2.8243  1.3898
  751MOL0     H 3573   0.801   1.144   0.108 -0.4592  2.3280  1.2467
  751MOL0     H 3574   0.706   1.193  -0.030  0.4620  1.0481  0.1026
  751MOL0     H 3575   0.538   1.279   0.133  1.3209  0.7469 -1.0459
  751MOL0     H 3576   0.655   1.251   0.268 -1.0488 -2.0565 -0.8506
  751MOL0     H 3577   0.664   1.445   0.019  1.1027  0.1722 -0.4379
  751MOL0     H 3578   0.638   1.477   0.189 -0.6183 -0.2577 -0.8888
  751MOL0     H 3579   0.893   1.334   0.072 -1.2559  1.1050 -2.0980
  751MOL0     H 3580   0.871   1.378   0.247  2.0287 -0.0812 -0.2051
  751MOL0     H 3581   1.022   1.520   0.101  0.9667  0.8557  1.4980
  751MOL0     H 3582   0.902   1.555  -0.015 -0.1108 -0.3468 -0.1692
  751MOL0     H 3583   0.764   1.680   0.157 -1.2800 -2.7169 -0.7242
  751MOL0     H 3584   0.925   1.733   0.131 -0.1343 -0.7593 -1.9510
  751MOL0     H 3585   0.878   1.749   0.371  1.6970  1.4392 -1.2642
  751MOL0     H 3586   0.844   1.569   0.367 -1.3521  0.4379 -0.6697
  751MOL0     H 3587   1.156   1.775   0.252 -0.0106  1.9624  0.8853
  751MOL0     H 3588   1.451   1.566   0.442 -1.2571 -0.7526 -0.8314
  751MOL0     H 3589   1.430   1.721   0.462  2.8503  0.7662 -1.6373
  751MOL0     H 3590   1.587   1.635   0.270  0.6574  0.0689 -1.7471
  751MOL0     H 3591   1.453   1.569   0.193  3.1320 -0.8336  0.7786
  751MOL0     H 3592   1.391   1.856   0.223 -2.6406 -0.8715 -2.1993
  751MOL0     H 3593   1.558   1.861   0.208  0.5573 -0.7853 -0.1855
  751MOL0     H 3594   1.453   1.894   0.007 -0.7648  0.5566 -0.6980
  751MOL0     H 3595   1.563   1.758   0.004  0.9635  0.5763  0.6050
  751MOL0     H 3596   1.153   1.577  -0.083  0.9549 -0.6822  0.7004
  751MOL0     H 3597   1.016   1.470  -0.214 -2.0121 -1.1747 -0.8890
  751MOL0     H 3598   1.100   1.354  -0.310 -1.9572 -0.0858  1.4131
  751MOL0     H 3599   1.035   1.500  -0.383 -0.5874 -2.0388 -0.4583
  751MOL0     H 3600   1.106   1.173  -0.577 -1.2494  1.1074 -1.5982
  751MOL0     H 3601   1.009   1.078  -0.793  0.8372 -0.8638  0.0663
  751MOL0     H 3602   1.068   1.285  -1.155 -1.2172 -0.9787 -1.5314
  751MOL0     H 3603   1.217   1.203  -1.171 -1.2538  0.8096 -3.2902
  751MOL0     H 3604   1.042   1.145  -1.346 -4.1236  0.7499 -0.8795
  751MOL0     H 3605   1.064   0.995  -1.248  0.3537 -0.3467  3.5174
  751MOL0     H 3606   0.868   1.175  -1.147  0.0754 -1.9705  1.4009
  751MOL0     H 3607   0.860   0.993  -1.187 -1.3923 -0.1234 -1.5818
  751MOL0     H 3608   0.702   1.060  -1.318  2.1955 -2.9764 -0.7494
  751MOL0     H 3609   0.826   1.063  -1.427 -2.1348 -0.6485 -0.8789
  751MOL0     H 3610   0.691   1.304  -1.290 -3.3695  0.4807 -2.3324
  751MOL0     H 3611   0.845   1.305  -1.385  1.8721 -5.0289 -2.5733
  751MOL0     H 3612   0.565   1.207  -1.485  0.5144 -1.9050 -2.0770
  751MOL0     H 3613   0.696   1.201  -1.594 -1.1308 -0.6854 -0.7049
  751MOL0     H 3614   0.731   1.447  -1.561  0.9994  1.3406 -0.1308
  751MOL0     H 3615   0.579   1.463  -1.473  0.1411  0.2193 -0.6375
  751MOL0     H 3616   0.455   1.358  -1.670 -0.2547  0.8200  0.9325
  751MOL0     H 3617   0.592   1.400  -1.760  1.8622 -0.3796 -0.0004
  751MOL0     H 3618   1.257   1.353  -1.005  0.8131  4.7260  1.7880
  751MOL0     H 3619   1.312   1.459  -0.803  0.7397 -0.7185  2.3171
  751MOL0     H 3620   1.510   1.640  -0.416 -0.2200 -3.1122 -1.1227
  751MOL0     H 3621   1.514   1.760  -0.210 -1.0099  2.6279 -4.9449
  751MOL0     H 3622   0.458   0.834   0.171  0.3207  2.0571  0.1966
  751MOL0     H 3623   0.394   0.595   0.165 -0.3157 -0.5327 -1.3243
  751MOL0     H 3624   0.481   0.115  -0.113  2.1118 -0.0750  0.9076
  751MOL0     H 3625   0.391  -0.100  -0.035  0.5593 -1.1921 -0.5321
  751MOL0     H 3626   0.379  -0.169   0.397  0.0683 -0.1265  0.7106
  751MOL0     H 3627   0.198  -0.182   0.354 -0.2910 -1.8669  0.1215
  751MOL0     H 3628   0.315  -0.377   0.452  0.0389 -2.7247 -0.9886
  751MOL0     H 3629   0.439  -0.378   0.330  0.4394 -0.8637  2.3572
  751MOL0     H 3630   0.145  -0.429   0.282  0.5999 -0.2613 -1.8537
  751MOL0     H 3631   0.249  -0.422   0.143  4.0529  1.8078  0.1613
  751MOL0     H 3632   0.260  -0.628   0.372 -0.3101 -1.3134 -0.3650
  751MOL0     H 3633   0.378  -0.629   0.244 -1.1973 -1.2496  1.5601
  751MOL0     H 3634   0.009  -0.768   0.062  1.7382 -5.1255  0.9890
  751MOL0     H 3635   0.381   0.049   0.364  0.3288 -1.4558 -0.3411
  751MOL0     H 3636   0.479   0.400   0.278  1.6767 -0.4846  0.3958
  751MOL0     H 3637   0.372   0.285   0.379  0.1994 -4.2786 -1.4049
  751MOL0     H 3638   0.550   0.310   0.380 -1.9053  2.3373  1.4145
  752MOL0     O 3639  11.158   8.750   8.596  1.0732 -0.1726 -1.1248
  752MOL0     C 3640  11.175   8.662   8.678 -0.0824 -0.8526 -0.1754
  752MOL0     O 3641  11.237   8.678   8.796  0.0690 -0.3099 -0.1850
  752MOL0     C 3642  11.275   8.797   8.842  0.8541 -0.6692 -0.8057
  752MOL0     C 3643  11.274   8.824   8.979 -1.1519 -0.0966 -1.4131
  752MOL0     C 3644  11.314   8.952   9.022 -0.1992  0.0248 -0.6472
  752MOL0     C 3645  11.368   9.044   8.938 -0.1106  0.5336  0.3881
  752MOL0     O 3646  11.419   9.163   8.981  0.3114  0.2433 -0.4378
  752MOL0     C 3647  11.321   9.267   8.995  0.3198  1.0065 -0.0979
  752MOL0     C 3648  11.349   9.344   9.122 -0.2720  0.8800 -0.5921
  752MOL0     C 3649  11.242   9.455   9.134  0.9593 -0.0004 -0.0132
  752MOL0     C 3650  11.243   9.551   9.257  0.7782  0.2841  0.0100
  752MOL0     C 3651  11.110   9.605   9.296  0.0250  0.3410 -0.7903
  752MOL0     C 3652  11.037   9.673   9.175 -0.2300  0.3715 -0.8415
  752MOL0     C 3653  10.923   9.765   9.233 -0.9334 -0.1581 -0.2816
  752MOL0     C 3654  10.795   9.691   9.246  0.4343  0.2023 -0.1082
  752MOL0     N 3655  10.678   9.767   9.302  0.0313  0.7313  0.3833
  752MOL0     C 3656  10.672   9.835   9.415 -0.1004  0.5023 -0.1126
  752MOL0     C 3657  10.544   9.877   9.431 -0.2435 -0.9488  0.1974
  752MOL0     C 3658  10.511   9.966   9.542  0.0025 -0.9067  0.4716
  752MOL0     C 3659  10.388   9.913   9.599 -0.1079 -0.7014 -0.1287
  752MOL0     C 3660  10.341  10.010   9.712  0.4906  0.5516  0.2876
  752MOL0     C 3661  10.191   9.974   9.753  0.7782 -0.3791  0.6289
  752MOL0     O 3662  10.180   9.840   9.809 -0.5684  0.0194  0.3252
  752MOL0     C 3663  10.085   9.810   9.901 -0.7445  0.0697 -0.6524
  752MOL0     C 3664  10.095   9.690   9.975  0.1700 -0.0016 -0.7981
  752MOL0     C 3665  10.004   9.659  10.075  0.0693  0.5160  0.1300
  752MOL0     C 3666  10.043   9.518  10.155 -0.0158  0.2570  0.6186
  752MOL0     C 3667   9.885   9.734  10.094 -0.3562 -0.6535  0.4405
  752MOL0     C 3668   9.776   9.689  10.185  0.4957  0.1380  1.2358
  752MOL0     O 3669   9.745   9.560  10.188 -0.2883  1.0085 -0.3176
  752MOL0     C 3670   9.636   9.514  10.263  0.8462  0.3440 -0.0421
  752MOL0     C 3671   9.659   9.416  10.361 -0.0598  0.0952  0.2776
  752MOL0     C 3672   9.555   9.358  10.431 -0.3858  0.4734 -0.1913
  752MOL0     C 3673   9.420   9.397  10.408 -0.6576 -0.3995  0.1015
  752MOL0     O 3674   9.318   9.342  10.483  0.2117  0.7442 -0.0841
  752MOL0     C 3675   9.194   9.317  10.412  0.0364  0.3303  0.6638
  752MOL0     C 3676   9.082   9.405  10.473  0.3700 -0.2056  0.9100
  752MOL0     C 3677   9.041   9.351  10.612 -0.1896 -0.1416  0.2030
  752MOL0     C 3678   8.964   9.452  10.696 -0.6675 -1.0801  0.0720
  752MOL0     C 3679   8.919   9.396  10.835 -0.3583  0.5012 -0.2838
  752MOL0     C 3680   8.816   9.486  10.902 -0.0753  0.1238  0.1872
  752MOL0     C 3681   8.678   9.502  10.830 -1.4097  0.2482 -0.3927
  752MOL0     C 3682   8.647   9.637  10.783 -0.6506  0.1896  0.3537
  752MOL0    Cl 3683   8.489   9.623  10.683 -0.0402  0.4202  0.1732
  752MOL0     C 3684   9.397   9.507  10.317 -0.7566 -0.6546 -0.2654
  752MOL0     C 3685   9.501   9.557  10.242  0.0982  0.3088 -0.3059
  752MOL0     O 3686   9.713   9.781  10.241 -0.3444 -0.6052  0.4989
  752MOL0     C 3687   9.874   9.863  10.024  0.4222  0.8597 -0.2086
  752MOL0     C 3688   9.970   9.892   9.927 -0.7302  0.7570 -0.2138
  752MOL0     N 3689  10.482   9.853   9.312 -0.0040  0.0798  0.0715
  752MOL0     N 3690  10.561   9.790   9.237  0.7184 -0.0367  0.0996
  752MOL0     C 3691  11.371   9.018   8.801 -0.9911  0.0839  0.5242
  752MOL0     C 3692  11.324   8.894   8.756  0.3035 -0.5163  0.2478
  752MOL0     C 3693  11.133   8.528   8.641 -0.1496 -0.0508 -0.6447
  752MOL0     C 3694  11.193   8.423   8.714  0.0180  0.2741  0.3767
  752MOL0     C 3695  11.148   8.284   8.711 -0.7188  1.0692 -0.5118
  752MOL0     C 3696  11.045   8.248   8.622  0.5573  0.4016 -0.1184
  752MOL0     O 3697  10.992   8.125   8.607 -0.3320 -0.2968 -0.3958
  752MOL0     C 3698  11.003   8.039   8.726  0.2466  0.5269 -0.4825
  752MOL0     C 3699  10.899   7.928   8.729 -0.4906  0.1718  0.1135
  752MOL0     C 3700  10.921   7.814   8.833  0.3288 -0.0384 -0.5772
  752MOL0     C 3701  10.899   7.677   8.774  0.6508  0.3857  1.3649
  752MOL0     C 3702  10.757   7.655   8.756  0.6702 -0.3360  0.6394
  752MOL0     C 3703  10.636   7.657   8.758  0.0907 -0.0028  0.9045
  752MOL0     C 3704  10.988   8.347   8.550  0.1539 -0.3028  0.8361
  752MOL0     C 3705  11.025   8.483   8.559 -0.2877  0.1847 -0.8256
  752MOL0     C 3706  10.934   8.589   8.491 -0.1922 -0.1090 -1.8478
  752MOL0     H 3707  11.226   8.762   9.055 -0.7527  2.6552  1.3096
  752MOL0     H 3708  11.327   8.972   9.128  1.9419 -1.9901 -0.4380
  752MOL0     H 3709  11.225   9.217   9.015  0.6687 -0.6694 -2.3228
  752MOL0     H 3710  11.315   9.329   8.906 -0.8491 -0.6790 -1.2515
  752MOL0     H 3711  11.343   9.286   9.214  0.1070  1.0341 -0.4689
  752MOL0     H 3712  11.452   9.380   9.129  0.8846 -2.2637  0.2164
  752MOL0     H 3713  11.257   9.506   9.039 -1.3213  0.5168 -0.1572
  752MOL0     H 3714  11.143   9.409   9.133  0.5828  0.7378  1.2755
  752MOL0     H 3715  11.301   9.497   9.332  2.4719  0.3558 -1.1760
  752MOL0     H 3716  11.300   9.641   9.232 -1.3986  1.8388  0.3534
  752MOL0     H 3717  11.125   9.675   9.378  5.5039 -1.2293 -0.0440
  752MOL0     H 3718  11.052   9.524   9.341 -0.1652  2.0825  2.3602
  752MOL0     H 3719  11.110   9.742   9.130  2.4168 -2.1120 -0.6115
  752MOL0     H 3720  11.005   9.606   9.095  0.4661 -2.4885  1.1405
  752MOL0     H 3721  10.911   9.842   9.156 -0.4924 -0.3039 -0.4990
  752MOL0     H 3722  10.959   9.810   9.326 -1.8717  0.4877 -0.2098
  752MOL0     H 3723  10.767   9.648   9.149  2.3775 -2.6885  0.4775
  752MOL0     H 3724  10.805   9.606   9.314 -1.4422  0.9115  1.1193
  752MOL0     H 3725  10.753   9.842   9.488 -0.8554  0.2348  0.7708
  752MOL0     H 3726  10.516  10.071   9.512  1.6626 -0.7629  1.1129
  752MOL0     H 3727  10.589   9.946   9.617  3.0981  3.6780 -1.0794
  752MOL0     H 3728  10.328   9.934   9.510  1.0913 -1.1756 -1.0732
  752MOL0     H 3729  10.389   9.807   9.626  1.8759 -0.2314  1.9581
  752MOL0     H 3730  10.396   9.999   9.806 -0.7759  1.3324  1.1492
  752MOL0     H 3731  10.354  10.116   9.692 -1.9018  0.8128 -0.0905
  752MOL0     H 3732  10.161  10.051   9.824  2.3714  0.6963  0.1828
  752MOL0     H 3733  10.125   9.981   9.666  0.2225 -0.9853  0.9927
  752MOL0     H 3734  10.177   9.620   9.960  2.4279  2.4538 -0.7751
  752MOL0     H 3735   9.975   9.441  10.118 -2.6256  0.6629  3.9940
  752MOL0     H 3736  10.030   9.537  10.262 -0.2457 -0.8139  0.7911
  752MOL0     H 3737  10.147   9.487  10.145  0.5201  1.9657  0.5754
  752MOL0     H 3738   9.760   9.376  10.361 -0.3033 -0.6579 -1.7000
  752MOL0     H 3739   9.587   9.278  10.498 -1.5594  0.4026  0.3049
  752MOL0     H 3740   9.197   9.330  10.304  3.7085 -0.4982  0.5469
  752MOL0     H 3741   9.177   9.210  10.423  0.1577  0.1041 -1.1618
  752MOL0     H 3742   9.110   9.511  10.476 -3.1500  0.9496 -0.6523
  752MOL0     H 3743   8.991   9.406  10.412  1.9426 -2.4205 -1.7282
  752MOL0     H 3744   9.130   9.317  10.666 -0.1847  2.1687  1.8104
  752MOL0     H 3745   8.973   9.265  10.604 -0.8767  0.1784  2.0588
  752MOL0     H 3746   8.871   9.473  10.641 -0.7740 -1.2066  0.2019
  752MOL0     H 3747   9.008   9.548  10.727 -0.6704 -0.4568 -1.6960
  752MOL0     H 3748   8.878   9.295  10.822 -0.4541  0.7424 -2.0928
  752MOL0     H 3749   9.003   9.377  10.903 -0.8818  1.8776  0.7916
  752MOL0     H 3750   8.861   9.581  10.933  2.5601 -1.2855  0.9366
  752MOL0     H 3751   8.799   9.431  10.995  0.9535 -0.4898  0.0250
  752MOL0     H 3752   8.601   9.480  10.905 -1.4483  1.5865 -0.0197
  752MOL0     H 3753   8.680   9.428  10.750  0.0129 -0.9039  0.6615
  752MOL0     H 3754   8.726   9.677  10.718  0.5604 -3.7689 -0.9466
  752MOL0     H 3755   8.629   9.700  10.870 -1.8444 -1.3126  1.2484
  752MOL0     H 3756   9.301   9.550  10.289 -1.9720 -0.9236  2.9907
  752MOL0     H 3757   9.478   9.635  10.170 -0.4385  2.2801  1.8463
  752MOL0     H 3758   9.790   9.930  10.037  1.6166  1.7925  4.1113
  752MOL0     H 3759   9.957   9.980   9.864  2.9696  0.5304 -1.5468
  752MOL0     H 3760  11.417   9.088   8.733 -3.9357 -0.0646 -1.8008
  752MOL0     H 3761  11.347   8.876   8.651  1.2245 -1.8144  0.6514
  752MOL0     H 3762  11.278   8.435   8.781  0.6105  1.2300 -0.5307
  752MOL0     H 3763  11.205   8.215   8.773  0.6201 -0.0598 -2.8749
  752MOL0     H 3764  11.099   7.988   8.716 -0.6668 -0.8401 -3.4216
  752MOL0     H 3765  10.995   8.089   8.823  2.5751  0.5167 -0.2416
  752MOL0     H 3766  10.887   7.884   8.630  2.3921  0.9238 -0.6525
  752MOL0     H 3767  10.801   7.975   8.744 -1.3355 -1.7815  1.1805
  752MOL0     H 3768  11.021   7.823   8.877  0.9051 -2.5176 -1.1945
  752MOL0     H 3769  10.857   7.826   8.920 -3.0146  1.2688 -2.9913
  752MOL0     H 3770  10.945   7.588   8.819  2.9272  0.5340 -0.4543
  752MOL0     H 3771  10.946   7.671   8.675  0.0863 -4.5706  1.1568
  752MOL0     H 3772  10.529   7.664   8.759 -0.4217 -3.8632 -2.6885
  752MOL0     H 3773  10.911   8.319   8.479  1.5536  0.3278 -1.0109
  752MOL0     H 3774  10.986   8.615   8.398 -0.4006 -0.8505 -2.1773
  752MOL0     H 3775  10.836   8.550   8.462 -2.0249  1.6777  1.3905
  752MOL0     H 3776  10.928   8.674   8.559  0.6959 -2.0023  0.7625
  753MOL0     O 3777   9.144   6.203   3.700  0.2352 -0.3405 -1.2601
  753MOL0     C 3778   9.186   6.299   3.766  0.5761  0.4527  0.2925
  753MOL0     O 3779   9.162   6.313   3.896 -1.0330  0.5040  0.0004
  753MOL0     C 3780   9.065   6.235   3.949 -0.5656  0.1375  0.1092
  753MOL0     C 3781   8.933   6.249   3.906 -0.0748  0.2238  0.6372
  753MOL0     C 3782   8.828   6.182   3.970  0.2005 -0.3816  0.3921
  753MOL0     C 3783   8.850   6.093   4.077 -0.5984  0.3264 -0.1494
  753MOL0     O 3784   8.766   6.007   4.132  0.4878  0.2591  0.2696
  753MOL0     C 3785   8.633   6.056   4.146  0.5685  1.1637  0.1676
  753MOL0     C 3786   8.624   6.177   4.243  0.0458 -0.7333  0.2234
  753MOL0     C 3787   8.647   6.145   4.390 -0.3829 -0.2139 -0.7516
  753MOL0     C 3788   8.663   6.280   4.462  0.7706  0.4297 -0.0254
  753MOL0     C 3789   8.806   6.337   4.472 -0.8242  0.8113  0.9175
  753MOL0     C 3790   8.851   6.394   4.606  0.2969 -0.3121  0.4643
  753MOL0     C 3791   8.763   6.509   4.626 -0.5512 -0.5007 -0.3438
  753MOL0     C 3792   8.792   6.634   4.534  0.3739  0.2092 -0.6886
  753MOL0     N 3793   8.762   6.773   4.586  1.1228  0.3287 -0.5818
  753MOL0     C 3794   8.768   6.880   4.505 -1.5665  0.5538  0.0149
  753MOL0     C 3795   8.782   6.985   4.594  0.5185 -0.6401  0.2194
  753MOL0     C 3796   8.817   7.122   4.553 -0.1398 -0.5121  0.0679
  753MOL0     C 3797   8.942   7.178   4.630  0.1112  0.9133 -0.1912
  753MOL0     C 3798   8.958   7.326   4.607 -0.1424  0.2131  0.5068
  753MOL0     C 3799   9.005   7.392   4.726 -0.4741 -0.9103 -0.1776
  753MOL0     O 3800   9.127   7.325   4.765  0.2769  1.1777 -0.5866
  753MOL0     C 3801   9.206   7.405   4.838  0.1136 -0.2967  0.5927
  753MOL0     C 3802   9.180   7.442   4.971 -0.0755 -0.0113  0.5188
  753MOL0     C 3803   9.269   7.516   5.038 -0.6747 -0.5904  0.0021
  753MOL0     C 3804   9.212   7.567   5.166 -0.5566  0.6638 -0.0761
  753MOL0     C 3805   9.395   7.557   4.987  0.4213 -0.0292  0.5915
  753MOL0     C 3806   9.502   7.626   5.059  0.2433 -0.6681 -0.9014
  753MOL0     O 3807   9.489   7.623   5.199 -0.8732  0.1709  0.3389
  753MOL0     C 3808   9.607   7.639   5.270  0.9469  1.0140  0.5876
  753MOL0     C 3809   9.672   7.755   5.279 -0.1548  0.0736  0.2908
  753MOL0     C 3810   9.806   7.755   5.341  1.0000 -0.8154  0.9775
  753MOL0     C 3811   9.859   7.640   5.397 -0.0415 -0.5492  1.0796
  753MOL0     O 3812   9.979   7.644   5.463 -0.0065 -0.1576  1.0791
  753MOL0     C 3813  10.072   7.533   5.435 -0.3648  0.2914 -0.1683
  753MOL0     C 3814  10.165   7.513   5.563 -0.8177  0.0830  0.0174
  753MOL0     C 3815  10.278   7.613   5.579 -0.7007 -0.5273 -0.2151
  753MOL0     C 3816  10.373   7.581   5.704 -0.0841  0.4734  0.6215
  753MOL0     C 3817  10.318   7.634   5.840 -0.2270 -0.8457  0.0726
  753MOL0     C 3818  10.401   7.595   5.973 -0.2849  0.0277  0.8893
  753MOL0     C 3819  10.512   7.702   5.987  0.1467 -0.8000 -0.1805
  753MOL0     C 3820  10.569   7.703   6.127  0.5591 -0.0113 -0.1764
  753MOL0    Cl 3821  10.661   7.849   6.142  0.5368  0.2824 -0.5184
  753MOL0     C 3822   9.774   7.527   5.407 -0.4295 -0.8409  0.1026
  753MOL0     C 3823   9.655   7.526   5.332  0.6351 -0.0143  0.1918
  753MOL0     O 3824   9.590   7.683   4.997  1.1650  0.0371  0.1074
  753MOL0     C 3825   9.429   7.522   4.853 -0.0714  0.5930 -1.2187
  753MOL0     C 3826   9.323   7.444   4.781  1.4095 -0.6633 -0.5305
  753MOL0     N 3827   8.759   6.934   4.722 -0.3354 -0.5789 -1.1290
  753MOL0     N 3828   8.745   6.808   4.717 -0.1717  0.5219  0.0441
  753MOL0     C 3829   8.980   6.091   4.114  0.3592  0.7431 -1.0464
  753MOL0     C 3830   9.073   6.163   4.066  0.0325 -0.5550  0.7921
  753MOL0     C 3831   9.271   6.398   3.693  0.2379  0.1761 -0.4129
  753MOL0     C 3832   9.290   6.375   3.557 -0.3029 -0.7928  0.5956
  753MOL0     C 3833   9.408   6.437   3.502 -0.5122 -0.1317 -0.1777
  753MOL0     C 3834   9.494   6.529   3.563 -0.1620  0.6396 -0.2747
  753MOL0     O 3835   9.589   6.602   3.508 -0.3114  0.7289 -0.1521
  753MOL0     C 3836   9.548   6.726   3.446  0.4575  0.4216  0.5925
  753MOL0     C 3837   9.615   6.761   3.316 -1.0618  0.3987 -0.1661
  753MOL0     C 3838   9.532   6.851   3.223 -0.1186  0.0704  0.0383
  753MOL0     C 3839   9.553   7.005   3.261 -0.1678 -0.9665 -0.1626
  753MOL0     C 3840   9.448   7.056   3.354 -0.2329  1.5780 -0.4884
  753MOL0     C 3841   9.373   7.122   3.425 -0.1354  0.3199 -0.5755
  753MOL0     C 3842   9.456   6.565   3.686 -0.5305  0.4595 -0.3750
  753MOL0     C 3843   9.360   6.492   3.759  0.9383  0.6111  0.3681
  753MOL0     C 3844   9.341   6.535   3.906  0.0612  0.4151  0.1095
  753MOL0     H 3845   8.902   6.297   3.814 -1.6758 -1.0647  0.4556
  753MOL0     H 3846   8.731   6.195   3.922  0.6255 -1.1966 -0.7249
  753MOL0     H 3847   8.562   5.979   4.179  2.3865  0.7065  3.3685
  753MOL0     H 3848   8.593   6.090   4.049  0.9850 -1.5354 -1.0538
  753MOL0     H 3849   8.702   6.250   4.217 -2.3840  3.4689  3.5258
  753MOL0     H 3850   8.532   6.235   4.236  1.0033  0.7672 -0.7916
  753MOL0     H 3851   8.555   6.097   4.425 -0.1499  0.7776  1.3494
  753MOL0     H 3852   8.738   6.087   4.410 -0.7991 -1.5979 -2.5828
  753MOL0     H 3853   8.602   6.362   4.424 -3.0671 -1.8398  0.7276
  753MOL0     H 3854   8.624   6.261   4.563 -0.3120 -1.6101 -0.7575
  753MOL0     H 3855   8.814   6.407   4.388 -1.9479 -1.7060 -1.4506
  753MOL0     H 3856   8.881   6.260   4.452  0.2170  2.2379 -1.0928
  753MOL0     H 3857   8.839   6.321   4.687 -1.0919  0.3757  0.9140
  753MOL0     H 3858   8.957   6.415   4.593 -0.6051  3.8356 -1.7978
  753MOL0     H 3859   8.772   6.545   4.729  4.3270 -1.3685 -0.2031
  753MOL0     H 3860   8.662   6.477   4.602 -0.7956  1.1317 -1.6822
  753MOL0     H 3861   8.897   6.644   4.505  1.4744 -2.3886  1.9230
  753MOL0     H 3862   8.739   6.622   4.439  1.0588  2.6664 -1.4574
  753MOL0     H 3863   8.767   6.882   4.397 -1.6185  2.3848  0.0174
  753MOL0     H 3864   8.735   7.192   4.575  1.3821  1.0430  1.0106
  753MOL0     H 3865   8.833   7.131   4.445  0.2762  1.5908  0.2532
  753MOL0     H 3866   8.914   7.175   4.736  1.8096 -1.1359  0.2818
  753MOL0     H 3867   9.034   7.120   4.618 -1.6700 -2.2019  0.1042
  753MOL0     H 3868   9.036   7.343   4.532 -0.2111  0.9927  0.6048
  753MOL0     H 3869   8.864   7.372   4.578  0.1408  1.6275  1.7064
  753MOL0     H 3870   9.027   7.499   4.717 -0.3214 -0.8336  0.9302
  753MOL0     H 3871   8.932   7.397   4.807  0.1029 -1.7959  0.4203
  753MOL0     H 3872   9.083   7.414   5.012 -0.3468  1.3451  0.8567
  753MOL0     H 3873   9.271   7.523   5.247  0.6219  2.0454 -0.1398
  753MOL0     H 3874   9.112   7.533   5.195 -0.0922 -1.4992 -0.8158
  753MOL0     H 3875   9.230   7.675   5.164 -0.7368  0.7244  1.0220
  753MOL0     H 3876   9.624   7.848   5.252  1.0550  0.5870 -0.1779
  753MOL0     H 3877   9.857   7.851   5.347 -3.1646  1.6023  1.6872
  753MOL0     H 3878  10.017   7.440   5.416 -0.3040  0.1639  0.2564
  753MOL0     H 3879  10.128   7.557   5.345 -2.1601  0.5685 -1.2445
  753MOL0     H 3880  10.092   7.527   5.643 -2.5053  2.1232 -1.7681
  753MOL0     H 3881  10.198   7.409   5.566 -0.8962  0.0565 -0.0383
  753MOL0     H 3882  10.250   7.717   5.596  0.7604 -0.6128  3.8635
  753MOL0     H 3883  10.336   7.618   5.486 -0.9391  0.0048 -0.3399
  753MOL0     H 3884  10.471   7.621   5.675 -0.2201  0.4035  0.0520
  753MOL0     H 3885  10.384   7.474   5.717  0.4161  0.4923  0.3763
  753MOL0     H 3886  10.285   7.738   5.837 -1.5315 -1.2551 -0.5848
  753MOL0     H 3887  10.223   7.585   5.864 -0.3191 -0.5880  0.2428
  753MOL0     H 3888  10.447   7.496   5.969  3.6846  1.7141 -0.0214
  753MOL0     H 3889  10.333   7.596   6.059 -2.3985  2.0342 -0.6785
  753MOL0     H 3890  10.470   7.801   5.967  2.0277  0.0358 -0.1984
  753MOL0     H 3891  10.593   7.695   5.914 -1.7240 -0.2155 -2.4238
  753MOL0     H 3892  10.637   7.618   6.139 -2.0634 -2.0738  1.0570
  753MOL0     H 3893  10.483   7.696   6.195 -1.0728  1.4256 -1.9552
  753MOL0     H 3894   9.798   7.446   5.475 -0.1340  1.1496  2.4846
  753MOL0     H 3895   9.601   7.432   5.343 -1.6324  1.4995  4.0133
  753MOL0     H 3896   9.527   7.540   4.810  0.4472 -1.0625 -0.7959
  753MOL0     H 3897   9.339   7.416   4.678  1.7218  1.3368 -1.0675
  753MOL0     H 3898   9.010   6.040   4.205  0.1605  0.1001 -1.3302
  753MOL0     H 3899   9.169   6.176   4.117 -0.0192 -0.5817  0.8980
  753MOL0     H 3900   9.234   6.305   3.497  1.5383  0.6268 -3.1132
  753MOL0     H 3901   9.446   6.420   3.402  1.4379  0.4163  0.4270
  753MOL0     H 3902   9.439   6.732   3.447  0.2537 -1.9766  2.7023
  753MOL0     H 3903   9.571   6.804   3.519 -0.4810 -0.1797  1.5646
  753MOL0     H 3904   9.633   6.667   3.262 -0.2764  0.8500 -0.7134
  753MOL0     H 3905   9.713   6.805   3.338 -0.8166  1.0322 -2.3339
  753MOL0     H 3906   9.574   6.841   3.122 -3.0746 -0.1364 -1.2726
  753MOL0     H 3907   9.426   6.828   3.234  0.4417 -2.9906 -0.2586
  753MOL0     H 3908   9.562   7.066   3.171 -0.7217 -0.4680  0.1192
  753MOL0     H 3909   9.651   7.006   3.310 -0.1144 -0.2561 -0.2739
  753MOL0     H 3910   9.294   7.174   3.476 -0.5020 -2.4820  1.9615
  753MOL0     H 3911   9.515   6.645   3.729  2.9976  0.0683 -3.9355
  753MOL0     H 3912   9.338   6.456   3.981 -0.7119  2.0651  1.8822
  753MOL0     H 3913   9.426   6.597   3.934 -1.1626  2.5520 -0.7191
  753MOL0     H 3914   9.246   6.590   3.904 -1.0972 -1.4837 -0.7159
  754MOL0     O 3915   5.439   5.653   9.916 -0.0019 -0.6155  0.1976
  754MOL0     C 3916   5.440   5.570  10.009  0.2025 -1.0436 -0.4072
  754MOL0     O 3917   5.390   5.592  10.137 -0.2004  0.6188  0.4576
  754MOL0     C 3918   5.363   5.723  10.165  0.4262  0.1318  0.9527
  754MOL0     C 3919   5.442   5.796  10.243  0.3994  0.5817  0.8904
  754MOL0     C 3920   5.432   5.929  10.273  0.4131 -1.4596 -0.6335
  754MOL0     C 3921   5.305   5.985  10.231 -0.0307  0.4090 -0.0754
  754MOL0     O 3922   5.260   6.109  10.279  0.3299  0.2420 -0.2468
  754MOL0     C 3923   5.364   6.201  10.334  0.3821  0.9093 -0.0575
  754MOL0     C 3924   5.302   6.341  10.376 -0.4621  0.8404  1.5010
  754MOL0     C 3925   5.202   6.334  10.485  0.2713 -0.5674 -0.6130
  754MOL0     C 3926   5.070   6.404  10.438 -0.2310 -0.2915 -0.4022
  754MOL0     C 3927   4.953   6.402  10.537 -0.4844  0.8809  0.4701
  754MOL0     C 3928   4.975   6.398  10.690 -0.1399 -0.3325  0.8198
  754MOL0     C 3929   4.838   6.387  10.759 -0.2783  0.8016 -0.6362
  754MOL0     C 3930   4.851   6.391  10.910 -0.2761 -0.1962 -0.7803
  754MOL0     N 3931   4.752   6.307  10.970 -0.7599 -0.1733  0.1277
  754MOL0     C 3932   4.637   6.367  11.016  0.5596  1.6766  0.9751
  754MOL0     C 3933   4.584   6.264  11.088  0.0444  0.8316  0.9708
  754MOL0     C 3934   4.445   6.266  11.164  0.4031  0.4934 -0.1177
  754MOL0     C 3935   4.327   6.198  11.088  0.4543 -0.1384 -0.0112
  754MOL0     C 3936   4.188   6.272  11.126 -0.3343  0.9899 -0.1427
  754MOL0     C 3937   4.057   6.201  11.097 -0.4591  0.2874  0.3029
  754MOL0     O 3938   4.020   6.097  11.187  0.4097  0.2804  0.6235
  754MOL0     C 3939   3.906   6.128  11.256 -0.5529 -0.2134  0.5612
  754MOL0     C 3940   3.814   6.031  11.282  0.3198  0.1370 -0.3342
  754MOL0     C 3941   3.690   6.048  11.352 -0.1593  0.4917  0.2010
  754MOL0     C 3942   3.596   5.921  11.370  0.0144 -0.2457 -0.8380
  754MOL0     C 3943   3.666   6.179  11.398  0.3526  0.2095 -0.5023
  754MOL0     C 3944   3.540   6.216  11.465  0.5474  0.3111  0.4967
  754MOL0     O 3945   3.546   6.307  11.567 -0.3057  0.3206  0.8397
  754MOL0     C 3946   3.430   6.352  11.622 -0.0011 -0.2334  0.8875
  754MOL0     C 3947   3.409   6.491  11.619 -0.4531 -0.5239  0.1788
  754MOL0     C 3948   3.283   6.552  11.670  0.3946  0.8157 -0.0081
  754MOL0     C 3949   3.182   6.462  11.709  0.0978  0.4851 -0.2075
  754MOL0     O 3950   3.061   6.507  11.763 -0.0316 -0.3879  1.2031
  754MOL0     C 3951   3.072   6.479  11.901 -0.5365 -0.0602 -0.5467
  754MOL0     C 3952   2.986   6.590  11.973 -0.4156 -0.2765 -0.5954
  754MOL0     C 3953   3.026   6.594  12.118 -0.5966  0.2785 -0.0390
  754MOL0     C 3954   2.964   6.716  12.200  0.9647  0.4138 -0.4366
  754MOL0     C 3955   3.021   6.852  12.176  0.1037  0.1389  0.8822
  754MOL0     C 3956   2.943   6.956  12.250  0.0336 -0.3543  1.1211
  754MOL0     C 3957   2.964   6.953  12.407  0.1187  0.2791  0.4844
  754MOL0     C 3958   2.916   7.077  12.485 -0.7304  0.2397  0.8556
  754MOL0    Cl 3959   2.736   7.075  12.512 -0.5286 -0.2408  0.3921
  754MOL0     C 3960   3.206   6.321  11.706 -0.0580  0.5187  1.0857
  754MOL0     C 3961   3.338   6.274  11.670  0.5656 -0.5445 -0.0665
  754MOL0     O 3962   3.439   6.172  11.415 -0.7235 -1.0505  0.3629
  754MOL0     C 3963   3.768   6.277  11.387  0.1001  0.8433  0.3613
  754MOL0     C 3964   3.889   6.255  11.315 -0.7658  0.4798  0.1099
  754MOL0     N 3965   4.672   6.148  11.078 -0.5371  0.0541 -0.2960
  754MOL0     N 3966   4.773   6.173  11.001  0.2258  0.1333  0.5563
  754MOL0     C 3967   5.215   5.911  10.146 -0.3001 -0.3190  0.6773
  754MOL0     C 3968   5.255   5.789  10.102  0.0867  1.2299 -0.0182
  754MOL0     C 3969   5.508   5.436   9.981  0.9797  0.1852  0.5380
  754MOL0     C 3970   5.562   5.422   9.847 -0.0089 -0.0893 -0.6650
  754MOL0     C 3971   5.630   5.302   9.809  0.7923 -0.0700 -0.0981
  754MOL0     C 3972   5.644   5.197   9.900 -0.4378 -1.6509 -0.8083
  754MOL0     O 3973   5.690   5.070   9.878 -0.0446 -0.6440  0.6954
  754MOL0     C 3974   5.667   5.017   9.743  0.6185 -0.4847  0.0876
  754MOL0     C 3975   5.634   4.860   9.760 -0.5021  0.8782 -0.0857
  754MOL0     C 3976   5.569   4.806   9.642  0.4118 -0.1372  0.7323
  754MOL0     C 3977   5.660   4.826   9.519  0.6857 -0.1674  0.0380
  754MOL0     C 3978   5.778   4.740   9.525  0.3835  0.4697  0.5837
  754MOL0     C 3979   5.877   4.676   9.517 -0.0753  0.1617 -0.4489
  754MOL0     C 3980   5.594   5.209  10.030 -0.0592  0.2567  0.6626
  754MOL0     C 3981   5.536   5.329  10.074 -0.4778 -0.2131 -0.3308
  754MOL0     C 3982   5.501   5.326  10.217  0.0085  0.2707 -0.3094
  754MOL0     H 3983   5.518   5.734  10.290 -2.1969 -3.5938  0.0697
  754MOL0     H 3984   5.492   5.979  10.348 -2.6014 -0.5403  1.3513
  754MOL0     H 3985   5.450   6.214  10.267  0.0745  1.1675 -0.4062
  754MOL0     H 3986   5.403   6.149  10.422  3.1894 -2.2563 -2.8735
  754MOL0     H 3987   5.383   6.410  10.401  0.3158 -0.1482  1.7800
  754MOL0     H 3988   5.256   6.371  10.282  0.5929 -1.1046  0.3126
  754MOL0     H 3989   5.169   6.234  10.515 -2.1531  1.0166  2.6189
  754MOL0     H 3990   5.243   6.377  10.577 -1.3963 -0.7152  0.2283
  754MOL0     H 3991   5.100   6.508  10.421 -3.5253  1.0170  0.9655
  754MOL0     H 3992   5.038   6.358  10.344 -1.2868  1.1439 -0.7974
  754MOL0     H 3993   4.908   6.307  10.508  1.1348 -0.1653  1.2981
  754MOL0     H 3994   4.871   6.474  10.523 -1.8090 -0.5086  0.8024
  754MOL0     H 3995   5.023   6.302  10.708 -2.0390 -1.4480  0.1916
  754MOL0     H 3996   5.040   6.480  10.724  2.3031 -1.3937 -0.9774
  754MOL0     H 3997   4.782   6.295  10.738 -1.6961  0.9161  2.1583
  754MOL0     H 3998   4.781   6.476  10.731  0.4337  1.9608  1.4466
  754MOL0     H 3999   4.947   6.353  10.945 -0.3279 -0.0154 -0.4410
  754MOL0     H 4000   4.835   6.493  10.946 -1.4775 -0.0399 -1.6662
  754MOL0     H 4001   4.600   6.467  10.996 -1.8173  0.5775 -0.5040
  754MOL0     H 4002   4.417   6.368  11.189 -0.2193 -0.3848  3.3285
  754MOL0     H 4003   4.444   6.210  11.258  2.3796  0.5781 -0.0066
  754MOL0     H 4004   4.347   6.206  10.981  1.1444 -1.7303 -0.0266
  754MOL0     H 4005   4.314   6.090  11.099 -1.8818 -0.2726 -2.8519
  754MOL0     H 4006   4.194   6.300  11.232  2.6050  0.0373  0.0358
  754MOL0     H 4007   4.188   6.359  11.060 -1.1223 -0.9519 -2.8302
  754MOL0     H 4008   3.977   6.271  11.074 -0.7064 -1.3268 -5.2256
  754MOL0     H 4009   4.060   6.134  11.010 -1.6729 -2.2339  2.1004
  754MOL0     H 4010   3.842   5.926  11.276  0.8550 -0.0036  2.8212
  754MOL0     H 4011   3.508   5.925  11.306  0.8092 -2.4757 -2.1961
  754MOL0     H 4012   3.558   5.920  11.473 -1.0929  2.4036 -1.1520
  754MOL0     H 4013   3.650   5.829  11.345  1.0741 -0.6109  2.2994
  754MOL0     H 4014   3.490   6.556  11.585 -0.7897 -1.0693 -1.7802
  754MOL0     H 4015   3.278   6.659  11.682 -0.6905  0.8816 -0.8774
  754MOL0     H 4016   3.043   6.377  11.926  2.0228 -0.4317  1.2855
  754MOL0     H 4017   3.177   6.478  11.931 -0.0178 -2.0358 -2.2091
  754MOL0     H 4018   3.013   6.688  11.934 -1.1462 -0.3272 -1.2392
  754MOL0     H 4019   2.878   6.593  11.959 -0.4160  4.3976 -1.1933
  754MOL0     H 4020   3.134   6.604  12.131 -0.9428  3.6152  1.2999
  754MOL0     H 4021   2.994   6.504  12.171 -0.5720 -0.0447 -0.5676
  754MOL0     H 4022   2.980   6.695  12.305  0.0513  0.2291 -0.3248
  754MOL0     H 4023   2.861   6.721  12.163  0.5991  0.3896  0.5597
  754MOL0     H 4024   3.128   6.862  12.197  0.4260 -1.8230  0.2942
  754MOL0     H 4025   3.002   6.875  12.071 -2.5666 -0.7460  1.0990
  754MOL0     H 4026   2.841   6.934  12.219  1.0882 -2.8964 -0.9494
  754MOL0     H 4027   2.971   7.055  12.214 -2.4404 -0.5598 -1.7128
  754MOL0     H 4028   3.073   6.958  12.419  0.5572 -0.4154 -2.4879
  754MOL0     H 4029   2.933   6.858  12.451 -1.2427  0.5534  0.1584
  754MOL0     H 4030   2.932   7.166  12.424 -0.4059 -0.2034  0.2799
  754MOL0     H 4031   2.965   7.095  12.581  0.6318 -2.6235  0.8151
  754MOL0     H 4032   3.128   6.248  11.724  0.5791 -0.7072 -0.8507
  754MOL0     H 4033   3.338   6.165  11.665 -3.3542 -0.9537  3.0787
  754MOL0     H 4034   3.756   6.375  11.432  0.7690 -0.4486  3.6986
  754MOL0     H 4035   3.969   6.327  11.331  1.6908 -2.4326  1.9206
  754MOL0     H 4036   5.141   5.966  10.089  2.4462  3.6819  0.5353
  754MOL0     H 4037   5.185   5.736  10.038 -0.7257  0.3772  1.5352
  754MOL0     H 4038   5.547   5.498   9.771 -0.8885 -0.7938 -1.2337
  754MOL0     H 4039   5.641   5.307   9.701 -1.7709  1.4948 -0.3624
  754MOL0     H 4040   5.581   5.064   9.693  0.9925 -0.2325 -0.3224
  754MOL0     H 4041   5.752   5.038   9.678 -1.1331  2.2013 -1.5746
  754MOL0     H 4042   5.565   4.839   9.842 -1.4415 -2.8081 -1.6112
  754MOL0     H 4043   5.730   4.811   9.773 -0.8648 -0.1991 -1.2429
  754MOL0     H 4044   5.548   4.700   9.656  1.4290 -0.3184  0.9767
  754MOL0     H 4045   5.475   4.861   9.647  0.4436 -0.1446  1.4509
  754MOL0     H 4046   5.691   4.931   9.514 -1.2671  0.3862 -2.3073
  754MOL0     H 4047   5.604   4.804   9.428  1.4649 -1.5529 -0.1454
  754MOL0     H 4048   5.967   4.617   9.508 -0.5415 -0.5651 -0.4128
  754MOL0     H 4049   5.597   5.122  10.095 -0.7554 -1.3293 -1.2956
  754MOL0     H 4050   5.454   5.413  10.264  0.4052  1.5433 -2.1496
  754MOL0     H 4051   5.426   5.247  10.231  0.0073  0.3553  0.1750
  754MOL0     H 4052   5.589   5.302  10.277  0.2182  0.3024 -0.6008
  755MOL0     O 4053  11.091   6.737  10.474  0.4468  0.2598 -0.6012
  755MOL0     C 4054  10.979   6.685  10.459  0.0039  0.6829  0.0719
  755MOL0     O 4055  10.902   6.708  10.352  0.2054  0.3630  0.3327
  755MOL0     C 4056  10.936   6.793  10.253 -0.4768 -0.7886 -0.0915
  755MOL0     C 4057  11.031   6.764  10.155 -0.6735 -0.1999 -0.2190
  755MOL0     C 4058  11.086   6.865  10.071  0.3600  0.3921 -0.5214
  755MOL0     C 4059  11.033   6.987  10.068  0.8176 -0.2629  1.0954
  755MOL0     O 4060  11.097   7.080   9.984 -0.6268  0.1383 -0.1058
  755MOL0     C 4061  11.028   7.189   9.943 -0.1379  0.5167 -0.1524
  755MOL0     C 4062  11.109   7.288   9.852  0.3368 -0.1573 -0.4683
  755MOL0     C 4063  11.016   7.402   9.799  0.8977  1.0028 -0.8533
  755MOL0     C 4064  11.083   7.515   9.727  0.3838 -0.7114 -0.2532
  755MOL0     C 4065  10.987   7.596   9.622  0.0030 -0.7929  0.1815
  755MOL0     C 4066  11.066   7.722   9.555  0.4699 -0.1052  0.0052
  755MOL0     C 4067  10.966   7.757   9.444  1.7776 -0.2826  0.2054
  755MOL0     C 4068  11.012   7.892   9.384 -0.5940 -0.1723  0.5759
  755MOL0     N 4069  10.900   7.982   9.334  0.2070 -0.0281 -0.5763
  755MOL0     C 4070  10.859   8.086   9.400  1.1980  0.6858  0.1350
  755MOL0     C 4071  10.792   8.168   9.314  0.1353 -0.4541  0.9171
  755MOL0     C 4072  10.728   8.301   9.347 -0.5782 -0.1246 -0.5943
  755MOL0     C 4073  10.577   8.288   9.328 -0.1014  0.0620  0.0216
  755MOL0     C 4074  10.511   8.422   9.310 -0.1728 -0.8055 -0.8838
  755MOL0     C 4075  10.362   8.390   9.301  0.0946 -0.0531 -0.1596
  755MOL0     O 4076  10.286   8.507   9.349  0.7720  0.5153  0.5743
  755MOL0     C 4077  10.164   8.531   9.305 -0.3469  0.1001 -0.1740
  755MOL0     C 4078  10.126   8.654   9.330  1.0220  0.8320  0.7304
  755MOL0     C 4079  10.007   8.711   9.278 -0.3523  0.5151 -0.6835
  755MOL0     C 4080   9.964   8.851   9.312  0.6717 -0.2278 -0.6202
  755MOL0     C 4081   9.911   8.623   9.217  0.0557 -0.4650  0.0418
  755MOL0     C 4082   9.767   8.641   9.189 -0.2954  0.4363  0.6265
  755MOL0     O 4083   9.703   8.533   9.130 -0.0979 -0.0627 -0.3395
  755MOL0     C 4084   9.571   8.545   9.091  0.7049 -0.5261  0.6061
  755MOL0     C 4085   9.460   8.572   9.176  0.1491  0.7010  0.0450
  755MOL0     C 4086   9.330   8.579   9.125  0.3081  0.2713 -0.9533
  755MOL0     C 4087   9.313   8.581   8.983 -0.8476 -0.5881 -0.3299
  755MOL0     O 4088   9.183   8.585   8.952 -0.1417 -0.4918 -0.6847
  755MOL0     C 4089   9.152   8.643   8.822 -0.3364 -0.0735 -0.4351
  755MOL0     C 4090   9.005   8.680   8.820 -0.1220 -0.0564 -0.5900
  755MOL0     C 4091   8.955   8.724   8.684 -0.1131  0.3960 -0.2947
  755MOL0     C 4092   8.926   8.875   8.683 -0.2968 -0.1607 -0.1494
  755MOL0     C 4093   8.860   8.932   8.556 -0.1037  1.1838 -0.1636
  755MOL0     C 4094   8.929   8.920   8.424 -0.2707 -0.2142  1.0870
  755MOL0     C 4095   8.850   8.967   8.303 -0.0509  0.3163  0.1678
  755MOL0     C 4096   8.920   8.923   8.169 -0.4724  0.7751 -0.3397
  755MOL0    Cl 4097   8.817   9.000   8.043  0.6202 -0.4099 -0.1440
  755MOL0     C 4098   9.421   8.558   8.899  0.2495 -0.0835 -0.5606
  755MOL0     C 4099   9.546   8.526   8.954 -0.0687  0.4706  0.1982
  755MOL0     O 4100   9.718   8.750   9.219  0.1052  0.0700  0.2547
  755MOL0     C 4101   9.968   8.495   9.185  0.3155 -0.1786 -0.2145
  755MOL0     C 4102  10.092   8.444   9.222 -0.6389  0.3011 -0.1023
  755MOL0     N 4103  10.793   8.100   9.191  0.3215  0.1526 -0.0350
  755MOL0     N 4104  10.856   7.990   9.205 -0.1575 -0.0147 -0.3527
  755MOL0     C 4105  10.915   7.011  10.141  0.4470 -0.5485 -0.2908
  755MOL0     C 4106  10.872   6.916  10.239  0.3280 -0.5082 -1.1277
  755MOL0     C 4107  10.933   6.607  10.578 -0.3646  0.2660  0.1583
  755MOL0     C 4108  10.980   6.648  10.703 -0.4229 -0.1601  0.1734
  755MOL0     C 4109  10.934   6.579  10.825 -0.0455 -0.0699  0.2946
  755MOL0     C 4110  10.832   6.476  10.814 -0.9340  0.5492  0.0355
  755MOL0     O 4111  10.794   6.419  10.929  0.4479 -0.4705 -0.5492
  755MOL0     C 4112  10.724   6.298  10.929  0.4791 -0.1260 -0.1430
  755MOL0     C 4113  10.658   6.274  11.068  0.0260  1.1477 -0.8331
  755MOL0     C 4114  10.548   6.377  11.101  1.4536 -0.3742 -0.8947
  755MOL0     C 4115  10.534   6.406  11.254 -0.2161  0.8205 -0.0060
  755MOL0     C 4116  10.423   6.499  11.283  0.4642  0.9224 -0.3792
  755MOL0     C 4117  10.319   6.559  11.287  0.2200  0.3792 -0.5990
  755MOL0     C 4118  10.793   6.438  10.686 -0.1090  0.9633  1.0596
  755MOL0     C 4119  10.840   6.499  10.571 -0.5358 -0.1681  0.2202
  755MOL0     C 4120  10.806   6.437  10.435  1.3437 -0.1180  0.2727
  755MOL0     H 4121  11.073   6.665  10.142 -1.3532 -0.4197 -0.8449
  755MOL0     H 4122  11.175   6.831  10.019  0.5099 -0.4550  0.2557
  755MOL0     H 4123  10.985   7.234  10.033  1.1819  0.6601  0.4326
  755MOL0     H 4124  10.940   7.157   9.886  0.4518 -3.1371  0.7595
  755MOL0     H 4125  11.185   7.337   9.913 -2.0743  0.1311  2.5262
  755MOL0     H 4126  11.150   7.233   9.767 -0.3678 -0.1913 -0.8008
  755MOL0     H 4127  10.940   7.353   9.737 -0.3933 -0.0665  1.4447
  755MOL0     H 4128  10.954   7.447   9.876  0.4094  1.0677 -1.2799
  755MOL0     H 4129  11.110   7.593   9.800 -1.7236 -0.5067  0.3717
  755MOL0     H 4130  11.171   7.483   9.671  1.4288 -0.5846  1.2550
  755MOL0     H 4131  10.909   7.637   9.687  1.4173  0.7401  0.9832
  755MOL0     H 4132  10.938   7.525   9.555 -0.2351  0.1991 -0.7347
  755MOL0     H 4133  11.073   7.809   9.620  1.4399 -1.8489  2.3835
  755MOL0     H 4134  11.168   7.702   9.521  0.2510  1.0058 -1.3974
  755MOL0     H 4135  10.863   7.758   9.482  1.2384  3.1955 -0.9442
  755MOL0     H 4136  10.962   7.682   9.364 -2.3121  1.4376 -1.5150
  755MOL0     H 4137  11.061   7.953   9.459 -0.4830  0.3207  0.1092
  755MOL0     H 4138  11.089   7.879   9.307  0.0364 -0.2382  1.2061
  755MOL0     H 4139  10.878   8.109   9.505 -0.4586 -0.6452  0.7634
  755MOL0     H 4140  10.765   8.367   9.268  3.1243  1.2101  1.9699
  755MOL0     H 4141  10.751   8.332   9.449  0.3119 -0.2828 -0.7369
  755MOL0     H 4142  10.563   8.216   9.246 -0.6463  0.6795 -0.4395
  755MOL0     H 4143  10.532   8.234   9.413  2.0694 -4.5789 -1.4360
  755MOL0     H 4144  10.541   8.490   9.390 -1.8344  0.1743 -1.0362
  755MOL0     H 4145  10.535   8.473   9.216 -1.5931 -0.8871 -1.3166
  755MOL0     H 4146  10.349   8.369   9.195  0.5221  1.7401 -0.5926
  755MOL0     H 4147  10.331   8.297   9.350  0.2018 -0.2222 -0.4075
  755MOL0     H 4148  10.191   8.725   9.382 -2.1964  1.6264  4.0678
  755MOL0     H 4149   9.905   8.834   9.402  5.4725  0.1030  2.9866
  755MOL0     H 4150   9.914   8.893   9.224 -1.0371 -3.3187 -1.2598
  755MOL0     H 4151  10.039   8.929   9.324 -0.6035  0.9945 -0.3368
  755MOL0     H 4152   9.467   8.598   9.281  0.4882 -1.1186  0.5120
  755MOL0     H 4153   9.255   8.590   9.202 -0.4393 -3.8692 -0.8383
  755MOL0     H 4154   9.201   8.736   8.792 -2.6937  0.7784 -1.9155
  755MOL0     H 4155   9.173   8.573   8.740 -1.8065 -1.0242 -0.0405
  755MOL0     H 4156   8.948   8.592   8.851 -0.9384  1.1455  1.5417
  755MOL0     H 4157   9.007   8.765   8.890  4.1386 -0.6112  0.2631
  755MOL0     H 4158   8.862   8.672   8.659 -1.0502  0.9694  1.7982
  755MOL0     H 4159   9.028   8.702   8.606 -2.8547  2.0058 -3.5892
  755MOL0     H 4160   9.022   8.922   8.707 -1.3392 -0.2911  5.9101
  755MOL0     H 4161   8.857   8.908   8.762  1.8311  1.1958  1.2664
  755MOL0     H 4162   8.761   8.891   8.534 -0.7026  1.0252  2.4793
  755MOL0     H 4163   8.843   9.037   8.582  0.7427  1.1222  0.7109
  755MOL0     H 4164   8.942   8.814   8.400  0.7087  0.0908  0.1655
  755MOL0     H 4165   9.024   8.975   8.422 -2.7771  4.6368  0.0988
  755MOL0     H 4166   8.823   9.073   8.309 -3.2404 -0.4548  2.1625
  755MOL0     H 4167   8.749   8.925   8.313 -0.6991  1.8574  0.3452
  755MOL0     H 4168   8.913   8.815   8.152  3.5183  0.3832 -0.3929
  755MOL0     H 4169   9.024   8.955   8.165 -0.5886  1.0224 -3.1183
  755MOL0     H 4170   9.415   8.556   8.791  0.5791 -2.1233 -0.5716
  755MOL0     H 4171   9.635   8.527   8.892  1.0952 -3.0166  1.5177
  755MOL0     H 4172   9.908   8.424   9.129  0.9765 -0.8151 -0.1344
  755MOL0     H 4173  10.118   8.346   9.184  4.3597  1.1224  0.4813
  755MOL0     H 4174  10.868   7.109  10.140 -1.6749 -1.4481  1.7611
  755MOL0     H 4175  10.785   6.926  10.303  2.9998 -0.3001  2.7569
  755MOL0     H 4176  11.045   6.733  10.716  0.6069 -0.3712 -2.9137
  755MOL0     H 4177  10.957   6.609  10.927 -1.7853  5.1464 -0.5619
  755MOL0     H 4178  10.641   6.322  10.862  2.4032  2.0032 -1.8930
  755MOL0     H 4179  10.786   6.210  10.910 -0.7294 -1.6451  2.3046
  755MOL0     H 4180  10.741   6.281  11.139 -2.2203  2.8853  1.8020
  755MOL0     H 4181  10.616   6.174  11.074 -1.2882  1.5294 -2.7315
  755MOL0     H 4182  10.576   6.471  11.052 -1.3673  0.3006 -1.4072
  755MOL0     H 4183  10.451   6.349  11.059  0.0516  1.1699  1.1452
  755MOL0     H 4184  10.629   6.457  11.272 -0.6157  2.2886 -1.6889
  755MOL0     H 4185  10.525   6.310  11.304 -0.1669 -0.1611 -1.8141
  755MOL0     H 4186  10.239   6.631  11.285  1.3198  1.7807  1.1901
  755MOL0     H 4187  10.725   6.356  10.667  1.4192 -0.0745 -0.1343
  755MOL0     H 4188  10.718   6.483  10.388  2.3296  1.5839  0.0197
  755MOL0     H 4189  10.896   6.443  10.374  0.3975  1.2678 -1.0526
  755MOL0     H 4190  10.793   6.329  10.452  0.8892 -0.6098 -2.6145
  756MOL0     O 4191   7.921   9.743   1.279  0.3059 -0.3464  0.5397
  756MOL0     C 4192   7.830   9.820   1.270 -0.3902 -0.2306  0.1873
  756MOL0     O 4193   7.830   9.929   1.185  0.2089 -0.6885 -0.1733
  756MOL0     C 4194   7.935   9.991   1.125  0.2230  0.8733  0.5040
  756MOL0     C 4195   7.925  10.116   1.066  0.9192 -0.4674  0.1529
  756MOL0     C 4196   8.033  10.187   1.006 -0.1161  1.0718  0.2804
  756MOL0     C 4197   8.160  10.125   1.003 -0.3074  0.2521  0.7989
  756MOL0     O 4198   8.263  10.205   0.941 -0.0091  0.5061 -0.1463
  756MOL0     C 4199   8.398  10.166   0.940 -0.1746 -0.4784 -0.3735
  756MOL0     C 4200   8.496  10.255   0.872  1.2038 -0.0422  0.0797
  756MOL0     C 4201   8.473  10.264   0.727  0.7223  0.2145 -0.1297
  756MOL0     C 4202   8.596  10.317   0.653  0.1815  0.6860 -0.0536
  756MOL0     C 4203   8.646  10.463   0.695 -0.1609  0.5044 -0.5978
  756MOL0     C 4204   8.756  10.507   0.604 -0.4958 -0.2130 -0.0187
  756MOL0     C 4205   8.817  10.637   0.641  1.1805  0.2195  0.3593
  756MOL0     C 4206   8.942  10.684   0.570 -0.2089 -0.0550  0.7593
  756MOL0     N 4207   9.069  10.633   0.623 -0.5547 -0.3943 -0.7191
  756MOL0     C 4208   9.090  10.572   0.748  0.8471 -0.6651 -0.0283
  756MOL0     C 4209   9.218  10.545   0.755 -0.8387  0.0919  0.0906
  756MOL0     C 4210   9.289  10.465   0.858 -0.3421  0.2434  0.3867
  756MOL0     C 4211   9.357  10.556   0.952  0.2876 -0.0855  0.7191
  756MOL0     C 4212   9.428  10.474   1.054 -0.6153 -0.1467  0.0237
  756MOL0     C 4213   9.546  10.551   1.107  0.0764 -0.6874  0.2839
  756MOL0     O 4214   9.652  10.585   1.014 -0.0862 -0.2126 -0.2413
  756MOL0     C 4215   9.761  10.651   1.059 -0.1346  0.3912 -0.3041
  756MOL0     C 4216   9.782  10.689   1.192  0.2251 -0.1122  0.8791
  756MOL0     C 4217   9.909  10.728   1.232 -0.4144 -1.2334  0.4073
  756MOL0     C 4218   9.925  10.747   1.377  0.0545  0.1345  0.1094
  756MOL0     C 4219  10.015  10.744   1.137  0.5377  0.0503 -0.3151
  756MOL0     C 4220  10.145  10.797   1.171 -0.4896  0.3083  1.5314
  756MOL0     O 4221  10.226  10.847   1.065  0.4021 -0.0507 -1.2113
  756MOL0     C 4222  10.355  10.855   1.093 -0.3211  0.3104 -0.3858
  756MOL0     C 4223  10.425  10.976   1.113 -0.6974  0.1600  0.7692
  756MOL0     C 4224  10.566  10.973   1.152  1.4705  0.1842  0.2366
  756MOL0     C 4225  10.633  10.849   1.156 -0.3695 -0.1068  0.6525
  756MOL0     O 4226  10.763  10.848   1.196 -0.5862 -0.2199  0.2077
  756MOL0     C 4227  10.830  10.722   1.218 -0.0710  0.3096  0.1226
  756MOL0     C 4228  10.960  10.754   1.286  0.0767 -0.6534 -0.2254
  756MOL0     C 4229  11.029  10.620   1.329  0.3705 -0.1545  0.1297
  756MOL0     C 4230  11.141  10.649   1.412 -0.5732 -0.5663 -0.5423
  756MOL0     C 4231  11.235  10.526   1.451 -0.4574 -0.7572  0.1018
  756MOL0     C 4232  11.381  10.543   1.395  0.5780 -0.8656 -0.5359
  756MOL0     C 4233  11.453  10.662   1.449 -0.1221 -0.6103  0.4044
  756MOL0     C 4234  11.466  10.787   1.350 -0.9643 -0.5988 -0.5738
  756MOL0    Cl 4235  11.631  10.843   1.332  0.6218  0.3194 -0.3847
  756MOL0     C 4236  10.569  10.730   1.120  0.4196  0.0903 -1.0582
  756MOL0     C 4237  10.424  10.733   1.090 -0.6689 -0.0223 -0.2023
  756MOL0     O 4238  10.192  10.780   1.278  0.2817  0.0967  0.2189
  756MOL0     C 4239   9.981  10.717   1.006  0.0105  0.7943 -0.2244
  756MOL0     C 4240   9.858  10.675   0.965 -0.6995  0.2910 -1.2029
  756MOL0     N 4241   9.286  10.608   0.648 -0.1006 -0.1726  0.7483
  756MOL0     N 4242   9.194  10.648   0.565 -0.3215 -0.6251  0.0769
  756MOL0     C 4243   8.169   9.993   1.054  0.5446  0.0806 -0.2360
  756MOL0     C 4244   8.066   9.928   1.113 -0.4332 -0.3248 -0.5795
  756MOL0     C 4245   7.702   9.795   1.351 -0.0618 -1.2782 -0.3767
  756MOL0     C 4246   7.596   9.885   1.342  0.9881 -0.8615 -0.2773
  756MOL0     C 4247   7.470   9.860   1.414 -0.4713  0.1956  0.3023
  756MOL0     C 4248   7.452   9.745   1.487  0.0594  0.4146 -0.3981
  756MOL0     O 4249   7.325   9.728   1.537  0.3768  0.2024  0.1413
  756MOL0     C 4250   7.296   9.627   1.639  0.4156  0.3271  0.6142
  756MOL0     C 4251   7.310   9.679   1.786  0.1561 -0.6601  0.0805
  756MOL0     C 4252   7.279   9.569   1.880 -0.4585  0.0994  0.5773
  756MOL0     C 4253   7.287   9.609   2.029  0.5239 -0.1230  0.2882
  756MOL0     C 4254   7.258   9.491   2.118 -0.4984 -0.3979 -0.5698
  756MOL0     C 4255   7.237   9.392   2.186  0.3358 -0.0020  1.0919
  756MOL0     C 4256   7.561   9.658   1.498 -0.5193 -0.3012 -1.0277
  756MOL0     C 4257   7.681   9.686   1.432 -0.2814  0.6905 -0.2528
  756MOL0     C 4258   7.791   9.586   1.459  0.6146 -0.5580 -0.7879
  756MOL0     H 4259   7.830  10.168   1.070  1.2208  0.0917  3.6679
  756MOL0     H 4260   8.013  10.290   0.979 -0.5690  1.3312  1.5103
  756MOL0     H 4261   8.394  10.075   0.879  0.1890  0.9557 -2.6584
  756MOL0     H 4262   8.427  10.153   1.045  1.7816  0.9167 -0.6923
  756MOL0     H 4263   8.485  10.354   0.918  1.2161  0.2766 -0.5861
  756MOL0     H 4264   8.593  10.213   0.902  0.3855 -0.7661  1.8226
  756MOL0     H 4265   8.435  10.167   0.694  0.1911  0.1630  0.5919
  756MOL0     H 4266   8.382  10.325   0.728  0.7601  0.2770 -0.6816
  756MOL0     H 4267   8.673  10.240   0.667  0.9137  1.0709 -1.7177
  756MOL0     H 4268   8.563  10.310   0.549 -2.5723 -4.7071  0.7992
  756MOL0     H 4269   8.677  10.460   0.800 -1.3236 -4.5649 -0.1165
  756MOL0     H 4270   8.558  10.526   0.684 -1.0097 -0.6730 -0.7419
  756MOL0     H 4271   8.834  10.430   0.599 -1.6247 -1.3114 -2.0943
  756MOL0     H 4272   8.715  10.520   0.503  2.2374 -3.0800 -1.6979
  756MOL0     H 4273   8.821  10.638   0.750  0.5222 -0.6952  0.3939
  756MOL0     H 4274   8.740  10.710   0.613  0.6953  0.5821  2.4508
  756MOL0     H 4275   8.940  10.669   0.461  1.1901  0.9688  0.5626
  756MOL0     H 4276   8.943  10.792   0.586  1.2572  0.0673  0.0137
  756MOL0     H 4277   9.018  10.550   0.826 -1.0090 -1.4767 -1.8562
  756MOL0     H 4278   9.360  10.396   0.809 -1.2168 -0.2589 -0.2043
  756MOL0     H 4279   9.213  10.407   0.911  0.0434 -0.5696  0.0768
  756MOL0     H 4280   9.421  10.623   0.895  0.8879 -1.1647  0.0945
  756MOL0     H 4281   9.282  10.620   0.999  0.7359  1.3731 -0.4793
  756MOL0     H 4282   9.363  10.431   1.131  0.7480  1.4178  2.1537
  756MOL0     H 4283   9.469  10.387   1.002  0.8999  0.0123  0.9112
  756MOL0     H 4284   9.503  10.642   1.150 -0.2132 -0.3029 -0.7913
  756MOL0     H 4285   9.593  10.501   1.192  4.9941  0.1309 -1.6029
  756MOL0     H 4286   9.701  10.665   1.259  0.2221 -1.1643  0.5299
  756MOL0     H 4287   9.967  10.848   1.388  0.7546 -0.2745  1.3835
  756MOL0     H 4288   9.988  10.680   1.435 -1.3149 -1.4595 -0.1806
  756MOL0     H 4289   9.828  10.730   1.425 -0.3517 -1.5401 -1.2259
  756MOL0     H 4290  10.362  11.064   1.105 -0.1205  0.5188  0.0709
  756MOL0     H 4291  10.610  11.069   1.178  2.0563  1.1649 -3.7637
  756MOL0     H 4292  10.770  10.664   1.290  1.0559 -0.9719  0.0627
  756MOL0     H 4293  10.839  10.656   1.132 -2.7328 -1.0950  0.8012
  756MOL0     H 4294  11.019  10.821   1.223  0.2406 -0.3565  0.2280
  756MOL0     H 4295  10.951  10.809   1.381 -3.4911 -3.2358  1.1101
  756MOL0     H 4296  11.075  10.566   1.247  1.7848 -1.1869  1.5379
  756MOL0     H 4297  10.962  10.555   1.386 -2.7070  2.2480 -0.4350
  756MOL0     H 4298  11.115  10.700   1.506  0.8212 -2.8797  1.2179
  756MOL0     H 4299  11.208  10.713   1.353 -0.1935 -2.4844 -2.2933
  756MOL0     H 4300  11.243  10.506   1.558 -1.0658 -2.0743 -0.0697
  756MOL0     H 4301  11.212  10.431   1.402 -1.0632 -2.4560  3.3845
  756MOL0     H 4302  11.379  10.565   1.288 -0.0459 -0.1104 -0.3791
  756MOL0     H 4303  11.442  10.458   1.428 -1.1187 -1.6088  0.8538
  756MOL0     H 4304  11.558  10.632   1.458  0.4613  0.7920 -1.1489
  756MOL0     H 4305  11.433  10.683   1.555 -1.0818  1.7731 -0.1894
  756MOL0     H 4306  11.397  10.864   1.385  1.7109  1.5443  0.3823
  756MOL0     H 4307  11.431  10.763   1.249 -0.7358 -1.4503 -0.4591
  756MOL0     H 4308  10.611  10.631   1.130 -0.7034 -0.1892  2.2011
  756MOL0     H 4309  10.386  10.633   1.070 -0.5978 -0.8329  3.1550
  756MOL0     H 4310  10.046  10.728   0.919  0.9287 -0.1976  0.3086
  756MOL0     H 4311   9.854  10.668   0.857  4.0527  0.5090 -1.6072
  756MOL0     H 4312   8.266   9.945   1.044 -1.3390 -3.7123 -2.2909
  756MOL0     H 4313   8.085   9.833   1.163 -0.3528  0.9380  1.9958
  756MOL0     H 4314   7.615   9.978   1.289  1.0283 -0.0885  1.0423
  756MOL0     H 4315   7.390   9.931   1.402  0.0334  0.8542  0.7774
  756MOL0     H 4316   7.192   9.593   1.631 -1.0504  3.9223  2.2236
  756MOL0     H 4317   7.358   9.537   1.641 -1.2279 -0.8506  0.9712
  756MOL0     H 4318   7.230   9.753   1.792  0.1854  0.0643 -4.7747
  756MOL0     H 4319   7.398   9.742   1.802 -1.6036  2.1860 -0.8018
  756MOL0     H 4320   7.178   9.534   1.856 -0.4573 -2.2759  3.4502
  756MOL0     H 4321   7.339   9.479   1.864 -2.0257 -1.1623  1.4641
  756MOL0     H 4322   7.217   9.690   2.050 -1.5721 -1.5899 -0.7614
  756MOL0     H 4323   7.390   9.642   2.049  0.9031 -2.5532  3.3536
  756MOL0     H 4324   7.198   9.314   2.248  0.7094 -2.7769 -1.8857
  756MOL0     H 4325   7.540   9.572   1.560 -1.2040  1.0381  0.6798
  756MOL0     H 4326   7.868   9.648   1.506  3.1454 -3.8368 -0.2954
  756MOL0     H 4327   7.763   9.519   1.540 -2.5477  0.8827 -0.5554
  756MOL0     H 4328   7.807   9.530   1.366  2.2874 -0.8672 -0.3423
  757MOL0     O 4329   7.425   0.522  11.203  0.6562 -0.1456  0.9370
  757MOL0     C 4330   7.516   0.525  11.116 -0.5683 -0.3209  0.5304
  757MOL0     O 4331   7.647   0.533  11.143 -0.2933 -0.0327 -0.4097
  757MOL0     C 4332   7.712   0.460  11.240 -0.6168 -0.0740  0.0964
  757MOL0     C 4333   7.659   0.356  11.308 -0.1197  1.0885  0.4275
  757MOL0     C 4334   7.742   0.279  11.394 -0.3105  0.5989 -0.2241
  757MOL0     C 4335   7.878   0.293  11.407 -0.1366 -0.2139 -0.4323
  757MOL0     O 4336   7.964   0.204  11.467 -0.2665 -0.7204 -0.0078
  757MOL0     C 4337   7.904   0.128  11.574 -0.4014  0.4662  0.0652
  757MOL0     C 4338   8.001   0.079  11.681 -0.2643 -0.4231 -0.4305
  757MOL0     C 4339   7.930  -0.031  11.760  1.2928 -1.0220 -0.3765
  757MOL0     C 4340   7.789   0.021  11.818  0.1887  0.4931 -0.2286
  757MOL0     C 4341   7.723  -0.093  11.895  0.3087  0.0770  0.3779
  757MOL0     C 4342   7.795  -0.141  12.018 -1.0109  0.1260 -0.5616
  757MOL0     C 4343   7.716  -0.229  12.114 -1.2156  0.2955 -0.2822
  757MOL0     C 4344   7.702  -0.367  12.054  0.0196 -0.1796 -0.4438
  757MOL0     N 4345   7.559  -0.407  12.041  0.5522  1.1703  0.3182
  757MOL0     C 4346   7.466  -0.372  11.943 -0.8004 -0.5614 -0.3834
  757MOL0     C 4347   7.358  -0.445  11.969 -0.2762  0.1088  0.0772
  757MOL0     C 4348   7.248  -0.439  11.866  0.0116 -0.6280 -0.0129
  757MOL0     C 4349   7.112  -0.465  11.927  0.2251 -0.1813  0.5483
  757MOL0     C 4350   6.997  -0.483  11.822  0.0585  0.2776 -0.2129
  757MOL0     C 4351   6.909  -0.612  11.852  0.5792  0.3592 -0.8416
  757MOL0     O 4352   6.983  -0.719  11.907 -0.1983  0.6153  0.4974
  757MOL0     C 4353   7.073  -0.790  11.828  0.4269 -0.5972 -0.6189
  757MOL0     C 4354   7.148  -0.893  11.894 -0.2014  0.0432 -1.2653
  757MOL0     C 4355   7.242  -0.973  11.829  0.0187 -0.5549  0.1814
  757MOL0     C 4356   7.285  -1.098  11.911  0.5058 -0.5786 -1.0002
  757MOL0     C 4357   7.265  -0.959  11.694 -0.2750  0.0621 -0.1423
  757MOL0     C 4358   7.351  -1.044  11.609 -0.2329 -1.3273 -0.4392
  757MOL0     O 4359   7.418  -0.974  11.510 -0.2394  0.5611  0.0818
  757MOL0     C 4360   7.474  -1.056  11.418 -0.7176  0.7077 -1.6932
  757MOL0     C 4361   7.597  -1.128  11.449  0.4401 -0.3708  0.1732
  757MOL0     C 4362   7.669  -1.203  11.361 -0.3641 -0.1267  0.6292
  757MOL0     C 4363   7.628  -1.207  11.229  0.4850 -0.7267  0.1705
  757MOL0     O 4364   7.710  -1.271  11.139  0.8065  0.1563  0.6555
  757MOL0     C 4365   7.647  -1.308  11.019 -0.3223 -0.3716 -0.1969
  757MOL0     C 4366   7.721  -1.434  10.977  0.2996 -0.4168  0.2744
  757MOL0     C 4367   7.861  -1.404  10.934  0.1112  0.3700 -1.1632
  757MOL0     C 4368   7.926  -1.534  10.927 -0.6585  0.3860  0.5491
  757MOL0     C 4369   8.057  -1.538  10.848 -0.5744 -0.1815  1.5281
  757MOL0     C 4370   8.097  -1.679  10.836 -0.2953 -0.3039  1.1876
  757MOL0     C 4371   8.148  -1.738  10.964 -0.0408 -0.1542  0.9888
  757MOL0     C 4372   8.205  -1.878  10.941 -0.3434 -0.5415  0.6242
  757MOL0    Cl 4373   8.070  -1.982  10.871  0.1264 -0.1535  0.2211
  757MOL0     C 4374   7.514  -1.131  11.194 -0.5083  0.1763 -0.0632
  757MOL0     C 4375   7.440  -1.059  11.285  1.0018 -0.0233 -0.4696
  757MOL0     O 4376   7.345  -1.164  11.625  0.4708  0.2083 -0.0284
  757MOL0     C 4377   7.198  -0.850  11.628 -1.5204  0.7748  0.0923
  757MOL0     C 4378   7.106  -0.767  11.691 -1.0984 -0.5409  0.2605
  757MOL0     N 4379   7.384  -0.536  12.078 -0.8562 -0.4809 -0.7731
  757MOL0     N 4380   7.504  -0.506  12.122  0.0823 -0.2932 -0.4633
  757MOL0     C 4381   7.925   0.415  11.368 -1.3328  0.1011  0.1428
  757MOL0     C 4382   7.847   0.498  11.274  0.0744 -0.9015 -0.6488
  757MOL0     C 4383   7.491   0.510  10.967  0.6362  0.1229 -0.8104
  757MOL0     C 4384   7.583   0.529  10.867  0.0310  0.6639 -1.1524
  757MOL0     C 4385   7.544   0.530  10.735 -0.0147 -0.6231  0.0021
  757MOL0     C 4386   7.413   0.501  10.691 -0.5489 -0.5372 -0.3161
  757MOL0     O 4387   7.396   0.496  10.549  0.4485 -0.3136 -0.5140
  757MOL0     C 4388   7.266   0.499  10.492 -0.4033 -0.0030  0.5481
  757MOL0     C 4389   7.221   0.638  10.441 -0.3011  0.6452  0.3020
  757MOL0     C 4390   7.215   0.755  10.539 -0.5204  0.0717  0.4815
  757MOL0     C 4391   7.344   0.824  10.573  0.0331 -0.5927 -0.1557
  757MOL0     C 4392   7.325   0.970  10.600  0.4481  0.0822 -0.4297
  757MOL0     C 4393   7.311   1.090  10.609 -0.0621  0.1173  1.0462
  757MOL0     C 4394   7.312   0.496  10.788  0.3479 -0.1015 -0.3133
  757MOL0     C 4395   7.354   0.483  10.925  0.1069  0.3270  0.7305
  757MOL0     C 4396   7.236   0.436  11.009 -0.0547  0.4027  0.7484
  757MOL0     H 4397   7.557   0.327  11.287 -0.4292  1.4823  1.3409
  757MOL0     H 4398   7.696   0.191  11.438 -0.2711  0.4143 -0.5502
  757MOL0     H 4399   7.856   0.040  11.528 -0.4719 -0.3832  1.7016
  757MOL0     H 4400   7.824   0.185  11.622 -0.2326  1.5578 -0.9089
  757MOL0     H 4401   8.075   0.029  11.618 -0.4372 -0.6513 -0.4530
  757MOL0     H 4402   8.048   0.154  11.745  2.7120 -1.5047 -1.1892
  757MOL0     H 4403   7.903  -0.111  11.689  0.7741 -0.1290 -1.2083
  757MOL0     H 4404   7.991  -0.062  11.845 -5.0934  1.2058  6.0451
  757MOL0     H 4405   7.810   0.111  11.876  1.2557  1.4674 -2.0016
  757MOL0     H 4406   7.726   0.057  11.736 -0.2135  1.1774  0.3666
  757MOL0     H 4407   7.685  -0.177  11.835 -4.2068  2.6187 -0.7896
  757MOL0     H 4408   7.632  -0.046  11.932 -0.4935 -0.6291 -0.6293
  757MOL0     H 4409   7.893  -0.183  11.994  0.1604  3.6088 -2.7160
  757MOL0     H 4410   7.808  -0.047  12.073  0.6279  1.0906 -2.4715
  757MOL0     H 4411   7.617  -0.194  12.143 -1.9463 -2.6167  1.0743
  757MOL0     H 4412   7.770  -0.254  12.206  1.4381  0.4267 -1.7169
  757MOL0     H 4413   7.747  -0.377  11.954  1.4699 -1.7937  0.3214
  757MOL0     H 4414   7.743  -0.441  12.122 -2.8946 -2.6674 -1.1672
  757MOL0     H 4415   7.483  -0.303  11.861  2.3379 -0.0799  0.5081
  757MOL0     H 4416   7.277  -0.518  11.796  0.2786 -1.3225  0.8641
  757MOL0     H 4417   7.241  -0.336  11.830 -1.7611 -0.2298  1.3741
  757MOL0     H 4418   7.119  -0.548  11.999 -1.8481  0.1798  1.2175
  757MOL0     H 4419   7.083  -0.381  11.990  0.7146 -0.3031  0.9485
  757MOL0     H 4420   6.926  -0.401  11.815 -1.7070 -1.1362  0.2199
  757MOL0     H 4421   7.034  -0.501  11.721 -1.9226 -2.4463 -0.5792
  757MOL0     H 4422   6.838  -0.587  11.931 -1.2094 -1.9871 -1.5891
  757MOL0     H 4423   6.851  -0.634  11.762 -1.4083  1.3658  0.1272
  757MOL0     H 4424   7.116  -0.914  11.996  0.5788  0.3938 -0.9427
  757MOL0     H 4425   7.197  -1.153  11.948 -2.0210  2.8368 -1.5058
  757MOL0     H 4426   7.344  -1.060  11.995 -0.1396 -1.5484 -0.0707
  757MOL0     H 4427   7.335  -1.176  11.852  0.5044  2.0331 -4.7924
  757MOL0     H 4428   7.621  -1.131  11.555 -0.6830 -0.6917  0.4391
  757MOL0     H 4429   7.762  -1.251  11.389  1.1967  1.9800 -0.5992
  757MOL0     H 4430   7.539  -1.326  11.022 -0.7039  1.4907  3.5027
  757MOL0     H 4431   7.659  -1.227  10.947 -3.0102  0.2341 -0.0646
  757MOL0     H 4432   7.730  -1.500  11.064 -2.9869 -1.5316 -0.1167
  757MOL0     H 4433   7.663  -1.481  10.897  0.3122  2.3806 -1.5163
  757MOL0     H 4434   7.916  -1.338  11.001  0.5723  0.0027 -1.1766
  757MOL0     H 4435   7.855  -1.357  10.835  3.5553 -0.0755 -1.6985
  757MOL0     H 4436   7.853  -1.595  10.875 -0.6393 -0.4910  1.5140
  757MOL0     H 4437   7.942  -1.575  11.028  2.4768 -1.2848 -0.4997
  757MOL0     H 4438   8.029  -1.496  10.751  0.7575  2.2596  2.0970
  757MOL0     H 4439   8.144  -1.485  10.890 -0.3340 -2.0118  3.5517
  757MOL0     H 4440   8.173  -1.662  10.759  0.9227  1.7039  2.7139
  757MOL0     H 4441   8.009  -1.724  10.789 -0.7903  1.8592 -0.1118
  757MOL0     H 4442   8.073  -1.753  11.042 -0.1765 -2.2599  0.5083
  757MOL0     H 4443   8.221  -1.669  11.007  0.2654  0.5846 -0.6333
  757MOL0     H 4444   8.265  -1.925  11.019 -0.3271 -3.9463 -1.2358
  757MOL0     H 4445   8.275  -1.863  10.859 -2.2813 -2.7005 -1.5833
  757MOL0     H 4446   7.479  -1.114  11.093  3.0451  2.0583 -1.1363
  757MOL0     H 4447   7.364  -0.986  11.259  1.1512  1.3798  2.5933
  757MOL0     H 4448   7.199  -0.830  11.521  2.3958  2.4479  0.2714
  757MOL0     H 4449   7.054  -0.694  11.629  1.7804  1.0916 -0.3808
  757MOL0     H 4450   8.031   0.435  11.382 -1.1321 -2.4889  3.4042
  757MOL0     H 4451   7.884   0.592  11.234 -0.6173  0.1378  1.0472
  757MOL0     H 4452   7.686   0.552  10.891 -0.2159 -0.3769  1.1090
  757MOL0     H 4453   7.623   0.541  10.661  0.1011  2.0466  0.4109
  757MOL0     H 4454   7.265   0.436  10.402  1.6966  1.8559 -0.9056
  757MOL0     H 4455   7.187   0.466  10.560  0.6667 -1.1794  1.2522
  757MOL0     H 4456   7.131   0.638  10.379  0.3803 -1.2298 -0.7615
  757MOL0     H 4457   7.302   0.672  10.377  0.0326  1.8822  1.3379
  757MOL0     H 4458   7.157   0.829  10.484 -0.6132 -0.1074  0.3361
  757MOL0     H 4459   7.162   0.735  10.632 -1.8771 -0.9102 -0.4613
  757MOL0     H 4460   7.414   0.813  10.490 -0.3637  0.5718 -0.6790
  757MOL0     H 4461   7.377   0.770  10.661  3.2915  0.4035 -0.6563
  757MOL0     H 4462   7.284   1.193  10.616  0.4234  0.4638 -1.3999
  757MOL0     H 4463   7.206   0.484  10.770  0.0205  0.6338  0.9510
  757MOL0     H 4464   7.170   0.366  10.957  0.1786  0.2831  0.6119
  757MOL0     H 4465   7.280   0.373  11.087 -0.0972  1.7212  1.8694
  757MOL0     H 4466   7.185   0.512  11.068  0.3386  1.1566  0.1522
  758MOL0     O 4467  10.034  11.188   3.937 -0.8525 -0.0799  0.0509
  758MOL0     C 4468  10.038  11.111   3.838 -0.0620 -0.2458 -0.3140
  758MOL0     O 4469  10.108  10.995   3.830 -0.8189  0.6852  0.6554
  758MOL0     C 4470  10.183  10.949   3.942  0.1990  0.6633  0.5468
  758MOL0     C 4471  10.267  11.022   4.031  0.2437  0.0679 -0.3283
  758MOL0     C 4472  10.351  10.953   4.124 -0.1144 -0.6841 -0.2858
  758MOL0     C 4473  10.335  10.816   4.136  1.1068  0.3645  0.3037
  758MOL0     O 4474  10.390  10.750   4.245 -0.0306 -0.3120  0.5056
  758MOL0     C 4475  10.309  10.669   4.339 -0.2168 -0.6642  0.0982
  758MOL0     C 4476  10.344  10.523   4.324  0.3957  0.1882 -0.3306
  758MOL0     C 4477  10.264  10.428   4.424  0.5447  0.6072  0.7980
  758MOL0     C 4478  10.249  10.285   4.352  0.0228 -0.0920 -0.2850
  758MOL0     C 4479  10.147  10.212   4.440 -0.5426 -0.5052  0.8143
  758MOL0     C 4480  10.117  10.073   4.378  0.4277 -0.5862  0.7555
  758MOL0     C 4481  10.038   9.988   4.472  0.7736 -0.5910  0.1399
  758MOL0     C 4482  10.110   9.864   4.522  0.9663  0.0109  0.2903
  758MOL0     N 4483  10.026   9.783   4.608 -0.2036 -0.0249 -0.6575
  758MOL0     C 4484  10.047   9.777   4.740 -0.3578  0.6480  0.1570
  758MOL0     C 4485   9.975   9.670   4.785  0.2263  0.1731 -0.1341
  758MOL0     C 4486   9.986   9.624   4.929 -1.0468  0.2246  0.1702
  758MOL0     C 4487   9.854   9.643   5.021 -1.0697 -0.4383 -0.0146
  758MOL0     C 4488   9.827   9.795   5.057 -0.3004  0.1269  0.6935
  758MOL0     C 4489   9.721   9.800   5.174 -0.5522  0.9404  0.1491
  758MOL0     O 4490   9.604   9.863   5.129  0.1425 -0.7720 -0.4909
  758MOL0     C 4491   9.590   9.995   5.143  0.6746 -0.8086 -0.5148
  758MOL0     C 4492   9.697  10.075   5.176 -0.1972 -1.1886 -0.7233
  758MOL0     C 4493   9.692  10.216   5.186 -0.5611 -0.0236  0.3098
  758MOL0     C 4494   9.825  10.270   5.233  0.7807 -0.6427  0.0440
  758MOL0     C 4495   9.578  10.288   5.144 -0.8657 -0.5489 -0.4797
  758MOL0     C 4496   9.581  10.438   5.141 -0.1722  0.1140  0.2194
  758MOL0     O 4497   9.685  10.490   5.063  0.5106  0.1423  0.7756
  758MOL0     C 4498   9.745  10.613   5.063  0.0267 -0.3423  0.6620
  758MOL0     C 4499   9.867  10.623   5.005  0.5047  0.3177  1.5181
  758MOL0     C 4500   9.942  10.742   5.004  0.1979 -0.0021 -0.5965
  758MOL0     C 4501   9.897  10.851   5.072  0.3922  0.1179 -0.9434
  758MOL0     O 4502   9.975  10.960   5.055  0.4061 -0.8646 -0.5554
  758MOL0     C 4503   9.948  11.078   5.136 -0.5850 -0.3507  0.2666
  758MOL0     C 4504  10.085  11.138   5.153  0.0293  0.1040 -0.7089
  758MOL0     C 4505  10.151  11.083   5.286  0.6140 -0.4466 -0.0234
  758MOL0     C 4506  10.277  11.154   5.334 -0.5968 -0.1265  0.6144
  758MOL0     C 4507  10.262  11.309   5.339 -1.2164  0.0909  0.2918
  758MOL0     C 4508  10.372  11.382   5.436  0.4445  0.7828 -0.1261
  758MOL0     C 4509  10.510  11.353   5.371 -0.0076 -0.0437 -0.1379
  758MOL0     C 4510  10.615  11.425   5.466  0.9101  0.8485 -0.7698
  758MOL0    Cl 4511  10.777  11.448   5.406  0.4950  0.3968  0.7078
  758MOL0     C 4512   9.776  10.845   5.147 -0.7905  0.0552  0.2409
  758MOL0     C 4513   9.707  10.723   5.144 -0.3689  0.2207  0.0796
  758MOL0     O 4514   9.488  10.496   5.194 -0.5249  0.3919  0.3545
  758MOL0     C 4515   9.468  10.215   5.121  0.2307  0.1271  0.2009
  758MOL0     C 4516   9.466  10.072   5.123  0.1489 -0.2247  0.1502
  758MOL0     N 4517   9.911   9.610   4.679  0.5583 -0.4946 -0.5385
  758MOL0     N 4518   9.936   9.675   4.573  0.0035  0.1473  0.0988
  758MOL0     C 4519  10.253  10.742   4.051 -0.6520  0.0424  0.6344
  758MOL0     C 4520  10.174  10.809   3.956  0.1505  0.3092  0.5228
  758MOL0     C 4521   9.933  11.130   3.733  0.8284  0.5205  0.2627
  758MOL0     C 4522   9.965  11.076   3.603 -0.2998 -0.4360  0.2179
  758MOL0     C 4523   9.872  11.073   3.506  0.1716 -0.1056 -0.1838
  758MOL0     C 4524   9.743  11.119   3.527  1.0154 -1.0329 -0.6384
  758MOL0     O 4525   9.639  11.128   3.438  0.4148  0.3255 -0.1488
  758MOL0     C 4526   9.638  11.049   3.313  0.1168 -0.3923  0.3644
  758MOL0     C 4527   9.579  10.910   3.327 -0.3552  0.1723 -1.3572
  758MOL0     C 4528   9.619  10.813   3.448 -0.2359  0.7876 -0.1961
  758MOL0     C 4529   9.561  10.669   3.448 -0.2695 -0.2884  0.7351
  758MOL0     C 4530   9.426  10.672   3.504 -0.2481  0.1371  0.2282
  758MOL0     C 4531   9.321  10.689   3.569 -1.3837  0.1148  0.2918
  758MOL0     C 4532   9.715  11.189   3.650 -1.6059  0.5210  0.8417
  758MOL0     C 4533   9.803  11.180   3.754  0.4621 -0.4831 -1.3237
  758MOL0     C 4534   9.757  11.238   3.890 -0.4517  0.0597  0.8993
  758MOL0     H 4535  10.281  11.128   4.017 -1.6894  0.2441 -1.2265
  758MOL0     H 4536  10.403  11.018   4.193 -0.8288  0.8762 -1.1424
  758MOL0     H 4537  10.200  10.683   4.332 -0.1046  3.1609  2.7174
  758MOL0     H 4538  10.336  10.696   4.442  0.6720  0.4197 -0.4064
  758MOL0     H 4539  10.324  10.501   4.219  1.8200 -2.6118 -0.1232
  758MOL0     H 4540  10.449  10.506   4.349  0.3867  0.3820 -0.1662
  758MOL0     H 4541  10.318  10.412   4.518 -0.3406 -0.3082  1.1587
  758MOL0     H 4542  10.163  10.464   4.447 -0.5290 -1.9487  0.4164
  758MOL0     H 4543  10.217  10.317   4.253 -0.3454 -1.1076 -0.5118
  758MOL0     H 4544  10.343  10.229   4.353  0.0051 -0.1253  0.2422
  758MOL0     H 4545  10.053  10.267   4.457 -1.9770 -2.6559  0.2804
  758MOL0     H 4546  10.198  10.192   4.534  0.0867 -2.9066  0.0319
  758MOL0     H 4547  10.056  10.082   4.287  1.8643  1.3666 -0.0740
  758MOL0     H 4548  10.208  10.022   4.345  0.3819  0.9504 -2.0404
  758MOL0     H 4549   9.939   9.960   4.435 -0.8599  0.2345  3.4962
  758MOL0     H 4550  10.020  10.043   4.565 -2.6518  1.0435 -1.2873
  758MOL0     H 4551  10.125   9.813   4.426 -0.8716  0.8867 -0.5124
  758MOL0     H 4552  10.208   9.884   4.568  2.2424 -3.5209 -0.5536
  758MOL0     H 4553  10.119   9.832   4.799 -0.1050  1.2439 -0.6752
  758MOL0     H 4554  10.077   9.667   4.971 -0.6073 -1.7511  1.3910
  758MOL0     H 4555  10.008   9.517   4.926 -0.6346  0.2996  0.4630
  758MOL0     H 4556   9.773   9.593   4.968 -1.3117  0.6320 -0.6763
  758MOL0     H 4557   9.872   9.595   5.118 -0.3442 -0.5545 -0.1986
  758MOL0     H 4558   9.924   9.836   5.086  0.1075  0.7507 -1.3394
  758MOL0     H 4559   9.794   9.847   4.966  0.3397 -0.9484 -0.1818
  758MOL0     H 4560   9.675   9.706   5.205 -3.4346  1.0755 -3.0268
  758MOL0     H 4561   9.767   9.850   5.259  0.8592  1.4967 -0.8955
  758MOL0     H 4562   9.797  10.035   5.185 -0.0287 -1.0562 -1.7924
  758MOL0     H 4563   9.855  10.208   5.318 -0.1984  1.3865  1.9839
  758MOL0     H 4564   9.805  10.368   5.278  1.7156 -1.6681  2.8791
  758MOL0     H 4565   9.899  10.277   5.153 -0.5147  0.5466 -1.1124
  758MOL0     H 4566   9.912  10.537   4.955  1.5330  0.5592  1.9931
  758MOL0     H 4567  10.033  10.729   4.947 -0.0653 -2.3316 -0.5736
  758MOL0     H 4568   9.896  11.151   5.073  2.1891  0.9827 -0.6317
  758MOL0     H 4569   9.900  11.064   5.233  2.3564  1.9002  2.2129
  758MOL0     H 4570  10.152  11.111   5.071  2.4008  2.1354  0.4342
  758MOL0     H 4571  10.087  11.247   5.146  4.8615  0.2547 -0.7409
  758MOL0     H 4572  10.182  10.978   5.288 -2.7916 -1.5824 -0.9451
  758MOL0     H 4573  10.069  11.085   5.358 -0.6931 -1.9468 -1.4143
  758MOL0     H 4574  10.354  11.140   5.258 -0.7841  3.8727 -0.5668
  758MOL0     H 4575  10.314  11.109   5.426  4.6125 -0.5909 -1.3993
  758MOL0     H 4576  10.255  11.348   5.237 -3.0354 -1.3082 -0.1667
  758MOL0     H 4577  10.164  11.333   5.382 -0.3916 -0.3023  2.5214
  758MOL0     H 4578  10.365  11.327   5.531  1.4081  0.9551  0.0559
  758MOL0     H 4579  10.352  11.489   5.455 -2.2075  0.1730  1.0557
  758MOL0     H 4580  10.523  11.385   5.267 -0.0706 -0.0046 -0.1336
  758MOL0     H 4581  10.539  11.248   5.369  1.0551  0.1482  1.9561
  758MOL0     H 4582  10.621  11.358   5.553  0.8986  2.5563  0.6034
  758MOL0     H 4583  10.579  11.524   5.494 -0.9722  0.8332 -2.8532
  758MOL0     H 4584   9.731  10.922   5.208 -2.1252 -1.9522  1.9426
  758MOL0     H 4585   9.618  10.715   5.205  0.8729 -2.9578  1.7242
  758MOL0     H 4586   9.371  10.256   5.094  0.2746 -0.8791 -1.7022
  758MOL0     H 4587   9.371  10.025   5.101  1.4268 -1.7503 -2.6711
  758MOL0     H 4588  10.237  10.635   4.065  1.3154 -0.6300 -1.7280
  758MOL0     H 4589  10.106  10.748   3.897  1.3807 -3.0496  2.3057
  758MOL0     H 4590  10.064  11.036   3.582  0.0492 -0.6703  2.0998
  758MOL0     H 4591   9.885  11.026   3.409 -4.4916  0.1585 -1.1623
  758MOL0     H 4592   9.575  11.109   3.247 -1.8482 -1.5784  1.1060
  758MOL0     H 4593   9.735  11.047   3.261 -0.3634  1.5605 -0.6757
  758MOL0     H 4594   9.596  10.853   3.235  0.8840 -0.2752 -0.8614
  758MOL0     H 4595   9.472  10.932   3.338  0.1180  3.6890 -2.5101
  758MOL0     H 4596   9.728  10.801   3.454 -0.4273 -2.3014 -0.9602
  758MOL0     H 4597   9.589  10.862   3.541  2.2231  1.9153  0.0943
  758MOL0     H 4598   9.638  10.608   3.495 -1.4229 -1.1035  1.6146
  758MOL0     H 4599   9.553  10.644   3.342  1.8886  0.6534  0.2962
  758MOL0     H 4600   9.229  10.709   3.620 -1.0570  0.0834  0.9053
  758MOL0     H 4601   9.620  11.237   3.672 -1.8401  0.6556 -0.3818
  758MOL0     H 4602   9.792  11.342   3.892 -0.8092  0.1870  0.7351
  758MOL0     H 4603   9.648  11.240   3.904 -0.3292 -1.4865  2.2952
  758MOL0     H 4604   9.808  11.198   3.977 -1.3073  1.9908  2.3531
  759MOL0     O 4605   7.063   6.661   6.025 -0.0270  0.2051 -0.4302
  759MOL0     C 4606   6.972   6.643   6.114 -0.0203 -0.8619 -0.1520
  759MOL0     O 4607   6.960   6.540   6.202  0.0597  0.3694 -0.3225
  759MOL0     C 4608   7.051   6.436   6.203  0.5656  0.9212 -0.1603
  759MOL0     C 4609   7.052   6.347   6.098  0.4250  0.2191  0.4641
  759MOL0     C 4610   7.134   6.228   6.093 -1.4659 -0.1686 -0.2133
  759MOL0     C 4611   7.219   6.203   6.208  0.6102  0.5840  0.0082
  759MOL0     O 4612   7.303   6.096   6.221 -0.0088 -0.2351  0.4006
  759MOL0     C 4613   7.446   6.130   6.229 -0.0927 -0.3071  1.1663
  759MOL0     C 4614   7.523   6.024   6.311  0.0672  0.5388  0.2715
  759MOL0     C 4615   7.447   5.892   6.300 -0.8461 -0.4362  0.5575
  759MOL0     C 4616   7.512   5.781   6.382 -0.6070 -0.6102 -0.5067
  759MOL0     C 4617   7.484   5.643   6.332 -0.4385 -0.1837  0.3706
  759MOL0     C 4618   7.557   5.527   6.418 -0.2692  0.1143 -0.4128
  759MOL0     C 4619   7.697   5.502   6.367 -0.4158  0.6022  0.2032
  759MOL0     C 4620   7.700   5.398   6.244 -0.1869 -0.4769  0.1499
  759MOL0     N 4621   7.843   5.382   6.207  0.1334 -0.7420 -0.5802
  759MOL0     C 4622   7.919   5.489   6.161 -0.6971  0.1859  1.2427
  759MOL0     C 4623   8.042   5.435   6.154 -0.8006  0.5387 -0.4898
  759MOL0     C 4624   8.165   5.518   6.131  0.4819 -1.4117  1.1627
  759MOL0     C 4625   8.168   5.592   5.994 -0.9308  0.0473 -0.0017
  759MOL0     C 4626   8.135   5.513   5.868  0.3422  0.0943 -0.5837
  759MOL0     C 4627   8.218   5.380   5.837  0.2291 -0.0631 -0.5699
  759MOL0     O 4628   8.354   5.385   5.875  0.1917 -0.5001 -0.7203
  759MOL0     C 4629   8.449   5.426   5.786 -0.1434  0.6286  0.4271
  759MOL0     C 4630   8.526   5.542   5.823  0.7846  0.0207 -0.8900
  759MOL0     C 4631   8.611   5.611   5.737  0.2171  0.1193 -0.4309
  759MOL0     C 4632   8.670   5.740   5.791  0.5205  0.6870  0.3255
  759MOL0     C 4633   8.620   5.562   5.606  0.6261 -0.3396  0.6400
  759MOL0     C 4634   8.714   5.606   5.509 -0.2459  0.2032  0.7267
  759MOL0     O 4635   8.830   5.661   5.557  0.2506 -0.3312  0.8822
  759MOL0     C 4636   8.918   5.707   5.457  0.4633  0.1759  0.6158
  759MOL0     C 4637   8.916   5.839   5.411 -0.3243  0.4158  0.2640
  759MOL0     C 4638   9.011   5.878   5.315  0.0124  0.0189 -0.6905
  759MOL0     C 4639   9.105   5.787   5.256  0.2540  0.3676  0.0697
  759MOL0     O 4640   9.192   5.816   5.155 -0.6879 -0.4779  0.1635
  759MOL0     C 4641   9.160   5.927   5.064  0.8906  0.2669 -0.1322
  759MOL0     C 4642   9.216   5.873   4.929  0.0436  0.3685 -0.1318
  759MOL0     C 4643   9.218   5.972   4.810  0.6082  0.0022  0.7066
  759MOL0     C 4644   9.090   5.975   4.734 -0.7929 -0.4749 -0.1621
  759MOL0     C 4645   9.072   6.095   4.638 -0.5797  1.1292 -0.5394
  759MOL0     C 4646   9.172   6.048   4.522  0.1347 -0.5390 -0.5939
  759MOL0     C 4647   9.175   6.160   4.421 -0.1326 -0.6027 -0.8779
  759MOL0     C 4648   9.246   6.287   4.472 -0.0889  0.4514 -0.1514
  759MOL0    Cl 4649   9.254   6.405   4.339 -0.1149  0.1173  0.5853
  759MOL0     C 4650   9.111   5.659   5.310  0.5185  0.0817  0.2715
  759MOL0     C 4651   9.013   5.626   5.413 -0.4148  1.4940 -0.7526
  759MOL0     O 4652   8.682   5.598   5.388  0.0787  0.1442  0.1403
  759MOL0     C 4653   8.544   5.446   5.569  1.0090 -0.4635  0.5628
  759MOL0     C 4654   8.464   5.379   5.656 -0.6114 -0.3113 -0.3872
  759MOL0     N 4655   8.041   5.303   6.188  0.4220 -0.0925  0.0364
  759MOL0     N 4656   7.924   5.267   6.224  0.5992 -0.0107  0.1003
  759MOL0     C 4657   7.201   6.293   6.312 -0.1704 -0.4992 -0.1183
  759MOL0     C 4658   7.118   6.398   6.312  0.6620 -1.2449  0.3393
  759MOL0     C 4659   6.859   6.733   6.087  0.2987  0.5176  0.0674
  759MOL0     C 4660   6.825   6.816   6.193 -0.4605 -0.4705  0.4247
  759MOL0     C 4661   6.749   6.928   6.173 -0.2258 -0.7446 -0.5783
  759MOL0     C 4662   6.687   6.955   6.044  0.6548  0.1188  0.7895
  759MOL0     O 4663   6.597   7.055   6.018  0.1166 -0.1154 -0.3282
  759MOL0     C 4664   6.636   7.165   5.932 -0.9121  0.0267 -0.8460
  759MOL0     C 4665   6.762   7.232   5.985 -0.7656  0.3311 -0.2321
  759MOL0     C 4666   6.823   7.365   5.914  0.3277  0.6561 -1.0261
  759MOL0     C 4667   6.739   7.473   5.991  0.6618  0.4826  0.4666
  759MOL0     C 4668   6.792   7.606   5.927 -0.1947  0.1097  0.3664
  759MOL0     C 4669   6.831   7.720   5.896  1.2754  0.4180  0.0351
  759MOL0     C 4670   6.722   6.874   5.937 -0.5096 -1.1173  0.2982
  759MOL0     C 4671   6.809   6.767   5.957  0.6857 -0.7011  0.0282
  759MOL0     C 4672   6.833   6.678   5.842  0.1984 -0.3134 -1.1992
  759MOL0     H 4673   6.992   6.351   6.008  1.0194  0.1731  0.0571
  759MOL0     H 4674   7.135   6.171   6.000 -2.4637  0.3254 -0.5446
  759MOL0     H 4675   7.475   6.218   6.287  0.3370 -0.0960  0.6394
  759MOL0     H 4676   7.483   6.120   6.126  4.0357  0.4980  2.3850
  759MOL0     H 4677   7.623   6.014   6.268  0.5071  2.1714  0.8147
  759MOL0     H 4678   7.528   6.052   6.417  0.9212  2.6513 -0.2592
  759MOL0     H 4679   7.340   5.899   6.324 -0.3430  2.9580  2.3094
  759MOL0     H 4680   7.439   5.871   6.193  0.3223  0.3895  0.2907
  759MOL0     H 4681   7.621   5.782   6.391 -0.4199 -1.3464 -2.2697
  759MOL0     H 4682   7.476   5.801   6.483  0.0366 -1.0559 -0.1850
  759MOL0     H 4683   7.514   5.636   6.227 -3.9220 -0.2599 -0.7437
  759MOL0     H 4684   7.376   5.626   6.333 -0.6283  0.7532 -1.2635
  759MOL0     H 4685   7.552   5.571   6.517  1.4834 -0.7841  0.1062
  759MOL0     H 4686   7.511   5.430   6.440  3.6117 -2.0035 -0.7104
  759MOL0     H 4687   7.764   5.461   6.443  1.8639 -2.1846 -3.0021
  759MOL0     H 4688   7.740   5.596   6.334 -1.8731  1.3395  0.3462
  759MOL0     H 4689   7.652   5.304   6.271  0.1829 -0.1301  2.1448
  759MOL0     H 4690   7.637   5.448   6.170  0.1775  2.0465  1.4466
  759MOL0     H 4691   7.889   5.593   6.154  3.1209  1.7535  4.1526
  759MOL0     H 4692   8.256   5.457   6.136  1.3232 -0.4828 -1.3567
  759MOL0     H 4693   8.169   5.582   6.219 -3.1844 -0.1094  0.5616
  759MOL0     H 4694   8.099   5.675   6.011 -0.2905  0.2481  1.9115
  759MOL0     H 4695   8.265   5.639   5.979  0.1246 -1.3599  1.9436
  759MOL0     H 4696   8.029   5.487   5.869  0.5594 -0.8027 -0.2049
  759MOL0     H 4697   8.140   5.579   5.781  0.6352 -0.0757 -0.6961
  759MOL0     H 4698   8.155   5.316   5.899  2.2317 -2.2673 -0.6977
  759MOL0     H 4699   8.207   5.359   5.730 -0.0009 -2.6373 -0.0973
  759MOL0     H 4700   8.502   5.583   5.920 -2.0062 -2.4769 -0.3910
  759MOL0     H 4701   8.705   5.811   5.715  1.4379 -1.5675 -1.4599
  759MOL0     H 4702   8.755   5.715   5.855  0.7735 -0.8609 -0.5529
  759MOL0     H 4703   8.601   5.785   5.862  1.6894 -1.8215  3.2465
  759MOL0     H 4704   8.842   5.903   5.459  0.1765 -0.0039  1.6449
  759MOL0     H 4705   9.001   5.979   5.276  1.0852 -0.4077 -2.1739
  759MOL0     H 4706   9.053   5.945   5.078  1.3186  2.1069  1.2468
  759MOL0     H 4707   9.217   6.013   5.100  1.8896 -0.2312 -0.4991
  759MOL0     H 4708   9.321   5.846   4.943  0.2603 -2.0990 -4.6842
  759MOL0     H 4709   9.160   5.784   4.900  0.2804 -0.2688  1.2747
  759MOL0     H 4710   9.302   5.932   4.752  1.6362 -0.8351  2.6610
  759MOL0     H 4711   9.232   6.068   4.860 -0.9161  0.6261 -0.0078
  759MOL0     H 4712   9.017   5.978   4.816 -1.3352  0.2488 -0.6681
  759MOL0     H 4713   9.071   5.878   4.687  0.2625 -0.6836 -0.1806
  759MOL0     H 4714   8.971   6.126   4.612 -0.3714  2.0823 -0.2579
  759MOL0     H 4715   9.106   6.181   4.699  0.6688 -0.6558  1.4501
  759MOL0     H 4716   9.150   5.948   4.484 -0.1617 -1.2226  1.3074
  759MOL0     H 4717   9.272   6.051   4.566  0.8182 -0.9736 -2.0447
  759MOL0     H 4718   9.071   6.176   4.395 -0.5949 -1.8910  0.0519
  759MOL0     H 4719   9.225   6.141   4.325  3.4387  1.8178  0.2820
  759MOL0     H 4720   9.349   6.259   4.498 -0.7119 -2.3962 -0.4371
  759MOL0     H 4721   9.188   6.333   4.553  2.4764  1.4385  1.2451
  759MOL0     H 4722   9.190   5.591   5.282  2.2215  1.7784  0.7314
  759MOL0     H 4723   9.018   5.530   5.463 -0.5329  2.0900  0.4559
  759MOL0     H 4724   8.563   5.405   5.470  2.0045  0.1725  0.4735
  759MOL0     H 4725   8.416   5.289   5.621 -1.2751 -0.5086  0.9965
  759MOL0     H 4726   7.255   6.267   6.402  2.7332 -1.9093 -2.0895
  759MOL0     H 4727   7.095   6.466   6.394 -2.4721  0.7624 -1.9583
  759MOL0     H 4728   6.866   6.794   6.291 -1.0428  1.5855  1.1900
  759MOL0     H 4729   6.706   6.997   6.246 -3.2175 -0.4121 -2.5017
  759MOL0     H 4730   6.652   7.127   5.831  0.3631  2.5708 -1.7030
  759MOL0     H 4731   6.548   7.228   5.919 -2.0482 -1.6112 -1.4368
  759MOL0     H 4732   6.847   7.162   5.984  0.0903  1.2473 -2.9995
  759MOL0     H 4733   6.739   7.252   6.090  0.6605  0.6481  0.0461
  759MOL0     H 4734   6.930   7.363   5.937  0.2914 -2.1886 -0.7711
  759MOL0     H 4735   6.814   7.364   5.805  1.4338 -1.9989 -1.1549
  759MOL0     H 4736   6.758   7.470   6.099 -2.1292 -1.4161  1.0118
  759MOL0     H 4737   6.631   7.470   5.975  0.5457  1.4165  0.9829
  759MOL0     H 4738   6.851   7.821   5.865  0.1552  0.5125 -0.4592
  759MOL0     H 4739   6.692   6.887   5.834  2.6347 -0.4364 -0.6314
  759MOL0     H 4740   6.930   6.699   5.795  2.1378 -0.4240  2.3979
  759MOL0     H 4741   6.838   6.571   5.863  2.7797 -0.3618 -1.6602
  759MOL0     H 4742   6.758   6.698   5.766 -2.7349 -1.4310  1.1984
  760MOL0     O 4743  11.542   5.992   4.142 -0.3056  0.3740  0.5299
  760MOL0     C 4744  11.635   5.904   4.131  0.8369 -0.6999  0.5292
  760MOL0     O 4745  11.696   5.868   4.020 -0.0195  1.3628 -0.3022
  760MOL0     C 4746  11.684   5.923   3.897 -0.0396 -0.6983  0.6419
  760MOL0     C 4747  11.678   5.846   3.783  0.7337 -0.9368  0.0971
  760MOL0     C 4748  11.662   5.899   3.654  0.5071  0.6252 -0.8123
  760MOL0     C 4749  11.679   6.041   3.635  0.3295  0.3833  1.1084
  760MOL0     O 4750  11.659   6.099   3.508  0.1885  0.6024  0.3540
  760MOL0     C 4751  11.784   6.157   3.456 -0.5307 -0.1268  0.5579
  760MOL0     C 4752  11.768   6.241   3.328  0.9753 -0.0086  0.4138
  760MOL0     C 4753  11.886   6.226   3.225  0.1236  0.6179  0.1226
  760MOL0     C 4754  11.842   6.289   3.087 -0.8341 -0.2316  0.4664
  760MOL0     C 4755  11.952   6.273   2.984 -0.6262 -0.7069  0.4627
  760MOL0     C 4756  12.055   6.378   3.018 -0.0683 -0.3858 -0.2177
  760MOL0     C 4757  12.197   6.330   2.987 -0.4775  0.4280 -0.8171
  760MOL0     C 4758  12.246   6.214   3.089 -0.1997  0.3194  0.6137
  760MOL0     N 4759  12.385   6.202   3.090 -0.6314  0.0398 -0.3249
  760MOL0     C 4760  12.471   6.307   3.122 -0.9717  0.8391  0.1733
  760MOL0     C 4761  12.594   6.268   3.088 -0.4680  0.2410  0.0957
  760MOL0     C 4762  12.720   6.364   3.097 -0.1061  0.6454 -0.0325
  760MOL0     C 4763  12.753   6.435   2.963 -0.0017 -0.5559 -0.3551
  760MOL0     C 4764  12.843   6.547   2.985 -0.7798 -0.9809  0.8782
  760MOL0     C 4765  12.888   6.627   2.857  0.1604  1.3402 -0.1484
  760MOL0     O 4766  12.993   6.721   2.884 -0.3594 -0.4375  0.2901
  760MOL0     C 4767  13.120   6.654   2.898 -0.5463 -0.2305 -0.9444
  760MOL0     C 4768  13.192   6.674   3.022  0.5381 -0.7503  0.4919
  760MOL0     C 4769  13.327   6.624   3.028 -0.1939 -0.4661  0.0849
  760MOL0     C 4770  13.418   6.672   3.140 -0.4044  0.1606  0.1106
  760MOL0     C 4771  13.377   6.551   2.923  0.7115  1.4111  0.3907
  760MOL0     C 4772  13.515   6.509   2.907 -0.0036 -0.0416  0.4880
  760MOL0     O 4773  13.581   6.591   2.829 -0.3130 -0.1552 -0.7888
  760MOL0     C 4774  13.720   6.571   2.807 -0.5885 -0.2913  0.0793
  760MOL0     C 4775  13.755   6.610   2.675 -0.0473 -0.4985 -0.0680
  760MOL0     C 4776  13.882   6.579   2.629  0.5688 -0.1581 -0.4761
  760MOL0     C 4777  13.978   6.514   2.707 -0.3928  0.1090 -0.2651
  760MOL0     O 4778  14.104   6.470   2.673  0.2197 -0.2417 -0.5349
  760MOL0     C 4779  14.102   6.416   2.540 -0.7953 -0.6450 -0.1957
  760MOL0     C 4780  14.257   6.408   2.520 -0.4657 -0.1966 -0.9755
  760MOL0     C 4781  14.307   6.434   2.371  0.0974 -0.3927  1.3265
  760MOL0     C 4782  14.456   6.423   2.364  0.1256 -0.2805 -0.1915
  760MOL0     C 4783  14.520   6.391   2.227 -0.0470 -0.2181 -0.3397
  760MOL0     C 4784  14.674   6.388   2.216 -0.6076  0.6297  0.0282
  760MOL0     C 4785  14.747   6.501   2.301  0.2442  0.1281  0.1155
  760MOL0     C 4786  14.899   6.497   2.281 -0.4776 -0.3259 -0.3800
  760MOL0    Cl 4787  14.986   6.610   2.390 -0.1088 -0.1003 -0.8057
  760MOL0     C 4788  13.954   6.496   2.838  0.3876 -0.0722 -0.8551
  760MOL0     C 4789  13.821   6.528   2.889 -0.3632  0.1141  0.3806
  760MOL0     O 4790  13.553   6.399   2.952 -0.1570 -0.2447 -0.4493
  760MOL0     C 4791  13.302   6.532   2.812 -0.1983  0.1516  0.4325
  760MOL0     C 4792  13.180   6.596   2.798 -0.2045 -0.8960  0.1074
  760MOL0     N 4793  12.593   6.136   3.037 -0.1977 -0.1015  0.2216
  760MOL0     N 4794  12.467   6.105   3.039 -0.1066 -0.7018  0.0232
  760MOL0     C 4795  11.694   6.111   3.746  1.2335 -0.0564 -0.6677
  760MOL0     C 4796  11.705   6.054   3.878 -0.3493  0.0514 -0.3540
  760MOL0     C 4797  11.684   5.864   4.260 -0.4838  0.2470 -0.5313
  760MOL0     C 4798  11.675   5.949   4.369  0.2245  0.6840 -0.1235
  760MOL0     C 4799  11.735   5.908   4.492 -0.4484  0.3885 -0.4167
  760MOL0     C 4800  11.809   5.803   4.509 -0.2163  0.3569  0.2029
  760MOL0     O 4801  11.852   5.786   4.637 -0.1421 -0.2446 -0.2325
  760MOL0     C 4802  11.959   5.694   4.660 -0.2227  0.1784  0.8500
  760MOL0     C 4803  11.889   5.591   4.756 -0.6248 -0.0777  0.2832
  760MOL0     C 4804  11.958   5.453   4.785 -0.5689  0.9763 -0.1930
  760MOL0     C 4805  11.958   5.362   4.671 -0.5196  0.5947  0.1308
  760MOL0     C 4806  11.955   5.221   4.711 -0.1695 -0.2299 -0.1584
  760MOL0     C 4807  11.955   5.097   4.733  1.1456 -0.0702  0.0129
  760MOL0     C 4808  11.830   5.716   4.404 -0.8020  0.9180  0.9161
  760MOL0     C 4809  11.764   5.739   4.280  1.0521  0.5191 -1.0009
  760MOL0     C 4810  11.775   5.628   4.176 -0.2601  0.1981  0.5917
  760MOL0     H 4811  11.674   5.740   3.808  0.9753 -0.3477  2.9718
  760MOL0     H 4812  11.635   5.836   3.569 -0.2801 -1.4588  0.8975
  760MOL0     H 4813  11.856   6.078   3.433  1.2441  2.4229 -4.0405
  760MOL0     H 4814  11.826   6.220   3.534 -1.6837 -1.9711  2.8004
  760MOL0     H 4815  11.680   6.201   3.277  1.3376  0.6750 -0.7969
  760MOL0     H 4816  11.753   6.341   3.370  4.1847 -0.2251  2.4431
  760MOL0     H 4817  11.972   6.278   3.269 -0.7398  0.5355  2.0301
  760MOL0     H 4818  11.919   6.122   3.219 -1.7674 -0.1538  1.8685
  760MOL0     H 4819  11.755   6.232   3.055 -2.0188  2.2674 -1.0828
  760MOL0     H 4820  11.804   6.391   3.102  0.5090 -0.0133  2.9413
  760MOL0     H 4821  11.915   6.298   2.884 -0.2558  0.9307  0.6993
  760MOL0     H 4822  11.991   6.171   2.978 -0.0974 -0.4350 -1.8840
  760MOL0     H 4823  12.021   6.468   2.965 -1.9049 -1.7962 -1.5309
  760MOL0     H 4824  12.051   6.415   3.121 -0.5597  1.5608 -0.8823
  760MOL0     H 4825  12.263   6.416   2.998  0.2780  0.0741 -2.3621
  760MOL0     H 4826  12.214   6.308   2.882 -0.0618 -0.7078 -0.5329
  760MOL0     H 4827  12.223   6.232   3.195  0.1061  2.3872  0.3624
  760MOL0     H 4828  12.199   6.121   3.054 -3.3423  1.0570  2.4283
  760MOL0     H 4829  12.442   6.408   3.146 -1.4802  0.5974  0.5912
  760MOL0     H 4830  12.812   6.313   3.128  1.6426  3.3489 -0.4395
  760MOL0     H 4831  12.701   6.437   3.177 -0.6522 -1.3882  1.8074
  760MOL0     H 4832  12.813   6.370   2.899 -0.2756 -1.4710  0.3073
  760MOL0     H 4833  12.660   6.466   2.914  0.2565  0.0845 -0.4473
  760MOL0     H 4834  12.803   6.624   3.053 -1.1009 -1.5549  1.3538
  760MOL0     H 4835  12.930   6.515   3.042 -0.3770 -1.6107 -0.0651
  760MOL0     H 4836  12.895   6.568   2.765  2.6783  1.9681 -0.4442
  760MOL0     H 4837  12.799   6.687   2.835 -1.0558  0.9794  3.2326
  760MOL0     H 4838  13.147   6.733   3.102  0.5148  0.9819 -0.7387
  760MOL0     H 4839  13.516   6.705   3.104 -0.3853  2.7327  2.1802
  760MOL0     H 4840  13.446   6.590   3.206 -0.2383 -1.3505 -1.7496
  760MOL0     H 4841  13.360   6.748   3.193  0.0982  2.4565 -2.4048
  760MOL0     H 4842  13.690   6.654   2.599  1.7888  1.0699 -0.8151
  760MOL0     H 4843  13.912   6.634   2.541 -3.7591  2.6246 -0.5511
  760MOL0     H 4844  14.061   6.315   2.530  1.3197 -1.5085 -0.6249
  760MOL0     H 4845  14.049   6.469   2.461 -1.7963 -2.0936 -0.5370
  760MOL0     H 4846  14.309   6.478   2.586 -1.3066 -0.3920 -0.0853
  760MOL0     H 4847  14.287   6.309   2.556  0.8377  1.0436  1.6453
  760MOL0     H 4848  14.280   6.530   2.326 -0.1322 -1.4305 -0.8702
  760MOL0     H 4849  14.266   6.358   2.303  2.2218 -2.3345  2.0898
  760MOL0     H 4850  14.488   6.344   2.433  0.2488 -0.2641 -0.2302
  760MOL0     H 4851  14.492   6.521   2.398 -0.7979 -0.6108  1.9007
  760MOL0     H 4852  14.489   6.290   2.200 -0.6609  0.2857 -1.6343
  760MOL0     H 4853  14.492   6.473   2.160  3.8218 -0.6846 -2.8809
  760MOL0     H 4854  14.683   6.394   2.108  0.5530  1.2718  0.1513
  760MOL0     H 4855  14.710   6.291   2.251 -1.7403  0.2888  0.2869
  760MOL0     H 4856  14.722   6.498   2.407  0.3991 -0.4944  0.1356
  760MOL0     H 4857  14.700   6.599   2.285 -0.5240  0.6978  4.4920
  760MOL0     H 4858  14.924   6.524   2.178  0.8804  0.4295  0.1331
  760MOL0     H 4859  14.938   6.399   2.312  2.7161  0.9131 -0.1013
  760MOL0     H 4860  14.025   6.444   2.901 -1.2931 -0.3901  0.8754
  760MOL0     H 4861  13.795   6.491   2.987  3.5851 -3.7028  0.2877
  760MOL0     H 4862  13.357   6.480   2.735  1.0949  2.7416 -0.5280
  760MOL0     H 4863  13.131   6.584   2.703 -1.0823 -0.9899  0.5656
  760MOL0     H 4864  11.700   6.219   3.738  2.2774 -0.1641 -1.7083
  760MOL0     H 4865  11.722   6.111   3.969  0.8961  0.0833 -0.5905
  760MOL0     H 4866  11.630   6.046   4.351 -0.7954  0.3103  0.3454
  760MOL0     H 4867  11.707   5.967   4.579  0.3705 -3.1836  2.5015
  760MOL0     H 4868  11.995   5.641   4.571 -2.4698  1.7524 -1.1291
  760MOL0     H 4869  12.034   5.759   4.705 -0.8033 -0.3033  2.5705
  760MOL0     H 4870  11.786   5.583   4.720  0.1593 -0.8684 -2.0012
  760MOL0     H 4871  11.890   5.638   4.855  1.4176 -3.0895  1.8753
  760MOL0     H 4872  12.061   5.475   4.817 -1.0671  1.7267  0.9693
  760MOL0     H 4873  11.926   5.404   4.877  1.7045 -1.0320 -0.3508
  760MOL0     H 4874  12.053   5.375   4.619  0.4011  2.8300  2.1746
  760MOL0     H 4875  11.872   5.378   4.605 -0.3428 -1.4682 -0.6574
  760MOL0     H 4876  11.955   4.992   4.756  1.9552 -0.2127 -0.5570
  760MOL0     H 4877  11.878   5.619   4.410 -1.5440  0.4974  0.2538
  760MOL0     H 4878  11.764   5.532   4.227 -2.1859  1.0498  1.9310
  760MOL0     H 4879  11.700   5.648   4.099  0.0454  1.9492  0.7179
  760MOL0     H 4880  11.877   5.626   4.138  0.9007 -1.7840  3.4667
  761MOL0     O 4881   2.595   4.716   7.779 -0.1560  0.7154 -0.0542
  761MOL0     C 4882   2.691   4.673   7.835  0.5802  0.5297 -0.9277
  761MOL0     O 4883   2.790   4.605   7.775 -0.0096 -0.4869  0.0083
  761MOL0     C 4884   2.834   4.650   7.653  0.2110 -0.7991  0.5436
  761MOL0     C 4885   2.843   4.780   7.611  0.8394 -0.2603  0.2424
  761MOL0     C 4886   2.903   4.818   7.491  0.4455  0.2072 -0.8512
  761MOL0     C 4887   2.975   4.718   7.418  0.4921 -0.4967  0.5996
  761MOL0     O 4888   3.031   4.744   7.300  0.0006  0.0481  0.4096
  761MOL0     C 4889   2.978   4.836   7.199  0.2381  0.7901  0.3483
  761MOL0     C 4890   3.076   4.912   7.125 -0.1125 -0.5180  0.1813
  761MOL0     C 4891   3.131   4.821   7.015 -0.7415  0.0911 -0.7001
  761MOL0     C 4892   3.255   4.882   6.941 -0.0710  0.7248 -0.1410
  761MOL0     C 4893   3.314   4.808   6.822  0.2056  0.0539  0.5116
  761MOL0     C 4894   3.239   4.834   6.694 -0.8076 -0.6142 -0.9398
  761MOL0     C 4895   3.324   4.778   6.586  0.3110 -0.5515  0.1054
  761MOL0     C 4896   3.300   4.858   6.456 -1.0357 -0.3533 -0.5088
  761MOL0     N 4897   3.390   4.792   6.353  0.5592  0.8335 -0.4105
  761MOL0     C 4898   3.449   4.868   6.257 -0.1186 -0.3981 -0.9241
  761MOL0     C 4899   3.491   4.779   6.155  1.0063 -0.7195  0.2111
  761MOL0     C 4900   3.569   4.831   6.037  0.0998 -0.0907 -0.0016
  761MOL0     C 4901   3.687   4.919   6.074  0.1874 -0.7553  0.1749
  761MOL0     C 4902   3.788   4.843   6.167 -0.1664 -0.7671  0.1477
  761MOL0     C 4903   3.921   4.914   6.172 -0.4723  0.0199 -0.1406
  761MOL0     O 4904   4.012   4.842   6.263  0.1079  0.8461 -0.3194
  761MOL0     C 4905   4.130   4.914   6.307  0.2776 -0.0474  0.0316
  761MOL0     C 4906   4.168   4.905   6.436 -0.3578 -0.4767 -0.1575
  761MOL0     C 4907   4.277   4.980   6.484 -0.7030  0.1143  0.8482
  761MOL0     C 4908   4.312   4.959   6.628 -0.7000 -0.2992 -0.5389
  761MOL0     C 4909   4.355   5.059   6.396 -0.6379 -0.7428 -0.0845
  761MOL0     C 4910   4.474   5.139   6.431 -0.5078 -0.4341 -0.3489
  761MOL0     O 4911   4.511   5.238   6.336  0.7272  0.1938 -0.0833
  761MOL0     C 4912   4.630   5.304   6.344  0.2894  0.1129  0.2209
  761MOL0     C 4913   4.714   5.300   6.233 -0.8226  0.4495 -0.3269
  761MOL0     C 4914   4.836   5.368   6.225 -0.3582 -0.2157  0.1678
  761MOL0     C 4915   4.881   5.443   6.338 -0.4282  0.2298  0.6223
  761MOL0     O 4916   5.000   5.515   6.327 -0.2762 -0.1578 -0.5854
  761MOL0     C 4917   5.027   5.607   6.434 -0.2748 -0.4381 -0.3174
  761MOL0     C 4918   5.167   5.675   6.418 -0.0622  0.1546  0.6835
  761MOL0     C 4919   5.143   5.793   6.315  0.1680  0.8269  0.5946
  761MOL0     C 4920   5.265   5.856   6.264 -0.8129 -0.4105  0.6974
  761MOL0     C 4921   5.227   5.973   6.169  0.6875 -0.4735 -0.5174
  761MOL0     C 4922   5.352   6.024   6.102 -0.2095  0.2680 -0.8943
  761MOL0     C 4923   5.313   6.161   6.033  0.4885  0.1899  0.0257
  761MOL0     C 4924   5.443   6.231   5.974  0.3956  0.2887 -0.1643
  761MOL0    Cl 4925   5.590   6.243   6.076 -0.1981 -0.1085  0.0529
  761MOL0     C 4926   4.795   5.447   6.452  1.0446 -0.0450 -0.3898
  761MOL0     C 4927   4.668   5.373   6.461  0.3805  0.2894  0.1997
  761MOL0     O 4928   4.542   5.112   6.531 -0.1136 -0.0567  0.3688
  761MOL0     C 4929   4.313   5.072   6.264  0.6305 -0.0706  0.4809
  761MOL0     C 4930   4.200   4.999   6.214  0.0156 -0.6869  0.3746
  761MOL0     N 4931   3.438   4.662   6.179  0.3077  0.5042 -0.4712
  761MOL0     N 4932   3.376   4.660   6.305  0.4170  0.2632  0.8048
  761MOL0     C 4933   2.964   4.590   7.463 -0.6679 -0.1013  0.5506
  761MOL0     C 4934   2.899   4.552   7.581 -1.0667  0.1561 -0.0000
  761MOL0     C 4935   2.694   4.667   7.984  0.1358  0.2388 -0.3128
  761MOL0     C 4936   2.811   4.620   8.046  0.0324  0.1435  0.2678
  761MOL0     C 4937   2.834   4.617   8.182 -0.1715 -0.5547  0.1332
  761MOL0     C 4938   2.734   4.673   8.264  0.9060  0.2942 -0.2732
  761MOL0     O 4939   2.763   4.677   8.400  0.6143 -0.6017  0.0113
  761MOL0     C 4940   2.709   4.774   8.490  0.2259 -0.4139  0.5091
  761MOL0     C 4941   2.781   4.774   8.617 -0.3193  0.4469 -0.2874
  761MOL0     C 4942   2.916   4.849   8.618 -0.2207 -0.2075  0.4569
  761MOL0     C 4943   3.010   4.773   8.708 -0.4777  0.9878  0.2790
  761MOL0     C 4944   3.150   4.837   8.748 -0.3523  0.1130 -0.2727
  761MOL0     C 4945   3.259   4.869   8.795  0.4551  0.3685  0.0179
  761MOL0     C 4946   2.609   4.724   8.211 -0.2468 -0.2241  0.7304
  761MOL0     C 4947   2.587   4.711   8.074 -0.5266  0.1042  0.0235
  761MOL0     C 4948   2.457   4.767   8.026 -0.4546  0.3458 -0.0294
  761MOL0     H 4949   2.776   4.848   7.662 -2.9116 -3.5226  0.0839
  761MOL0     H 4950   2.891   4.920   7.457  1.5119  1.1707  1.4057
  761MOL0     H 4951   2.915   4.912   7.245 -1.4063  0.2586 -0.9352
  761MOL0     H 4952   2.916   4.784   7.126  0.1461  2.8409 -1.1290
  761MOL0     H 4953   3.043   5.007   7.081  2.8027  0.0917 -0.9352
  761MOL0     H 4954   3.161   4.943   7.187  0.1683 -1.3112  0.2003
  761MOL0     H 4955   3.150   4.720   7.053 -2.2111  0.1136  0.1356
  761MOL0     H 4956   3.055   4.799   6.939  0.0742 -2.7794 -0.7866
  761MOL0     H 4957   3.238   4.987   6.916 -0.1236  1.5281  2.8745
  761MOL0     H 4958   3.339   4.884   7.012 -0.4789 -0.5171  0.3999
  761MOL0     H 4959   3.327   4.700   6.839  0.1515  0.1608  1.2401
  761MOL0     H 4960   3.404   4.867   6.806 -0.4559  0.4325 -2.5200
  761MOL0     H 4961   3.139   4.792   6.710 -1.2242  0.4331 -0.7152
  761MOL0     H 4962   3.231   4.943   6.695  0.0144 -0.4363  2.8585
  761MOL0     H 4963   3.278   4.679   6.584 -1.1120  0.0714  0.6781
  761MOL0     H 4964   3.433   4.782   6.595  0.1999  0.0394  1.4230
  761MOL0     H 4965   3.194   4.848   6.427 -1.2487  1.1232 -0.3238
  761MOL0     H 4966   3.320   4.965   6.444  1.0833 -0.7913 -1.3299
  761MOL0     H 4967   3.482   4.971   6.262  0.3481 -0.5584 -0.6142
  761MOL0     H 4968   3.501   4.888   5.974 -0.4391 -0.2882  0.4006
  761MOL0     H 4969   3.610   4.747   5.979  0.2738 -0.6863  0.9692
  761MOL0     H 4970   3.726   4.948   5.976 -0.7888  0.1258  0.0211
  761MOL0     H 4971   3.646   5.012   6.114 -0.4200 -1.3773  1.0166
  761MOL0     H 4972   3.766   4.830   6.273 -0.0183 -2.1525  0.0391
  761MOL0     H 4973   3.798   4.745   6.117 -0.5163  1.2752 -4.4288
  761MOL0     H 4974   3.958   4.926   6.070  1.4788  0.8839  0.6309
  761MOL0     H 4975   3.900   5.013   6.215 -0.2865 -0.6265  1.5495
  761MOL0     H 4976   4.104   4.843   6.498  1.1846 -0.9404  1.0443
  761MOL0     H 4977   4.255   4.883   6.681  0.2654 -1.1975 -0.7490
  761MOL0     H 4978   4.300   5.055   6.679  2.0458 -0.8885  1.4321
  761MOL0     H 4979   4.414   4.920   6.624 -1.2760 -1.7995 -1.5947
  761MOL0     H 4980   4.682   5.238   6.150 -1.8996  2.1192 -1.2178
  761MOL0     H 4981   4.911   5.356   6.147  0.5627 -1.7287  1.2306
  761MOL0     H 4982   4.955   5.688   6.424  0.3535  0.0785 -0.7449
  761MOL0     H 4983   5.014   5.548   6.526 -2.6123 -0.3284 -0.5101
  761MOL0     H 4984   5.196   5.730   6.508  4.0705  0.9036 -0.8814
  761MOL0     H 4985   5.240   5.599   6.390 -1.3479 -2.0204  2.8516
  761MOL0     H 4986   5.068   5.862   6.355 -0.6460 -1.0918  2.5311
  761MOL0     H 4987   5.100   5.755   6.222  1.2191 -0.8043  0.7280
  761MOL0     H 4988   5.326   5.784   6.210 -0.8429  0.0609  0.0247
  761MOL0     H 4989   5.329   5.890   6.346  0.3073  2.2699 -1.1450
  761MOL0     H 4990   5.157   5.947   6.089  1.4859 -0.3488 -1.2690
  761MOL0     H 4991   5.184   6.042   6.242 -0.8992 -3.4410  1.5594
  761MOL0     H 4992   5.391   5.946   6.035  1.0136  0.2079 -0.1440
  761MOL0     H 4993   5.411   6.051   6.190 -4.5578  2.4715  1.7102
  761MOL0     H 4994   5.267   6.224   6.109  3.1069  2.6278 -0.2304
  761MOL0     H 4995   5.243   6.136   5.953 -0.3492 -1.3045  1.1664
  761MOL0     H 4996   5.408   6.324   5.928  0.8223  0.2271 -0.6051
  761MOL0     H 4997   5.482   6.177   5.888  2.1757  0.6146  0.4146
  761MOL0     H 4998   4.823   5.500   6.542  0.6563 -1.8898  0.8696
  761MOL0     H 4999   4.597   5.378   6.544  2.5755 -2.2139  2.4203
  761MOL0     H 5000   4.370   5.127   6.189  1.6609 -1.6845  0.0430
  761MOL0     H 5001   4.187   5.002   6.106  2.1663  0.4335  0.0964
  761MOL0     H 5002   3.010   4.515   7.400 -2.4115 -0.9480  0.2225
  761MOL0     H 5003   2.901   4.452   7.624 -1.6749  1.4781  3.3890
  761MOL0     H 5004   2.895   4.590   7.985  0.5741  1.2517  0.4509
  761MOL0     H 5005   2.924   4.582   8.233  1.5846  2.2520 -0.8248
  761MOL0     H 5006   2.716   4.875   8.448  0.3815  0.3811  2.3841
  761MOL0     H 5007   2.601   4.759   8.493 -0.0186 -0.2553 -3.0663
  761MOL0     H 5008   2.784   4.672   8.656 -1.2506  0.3390 -0.4589
  761MOL0     H 5009   2.723   4.836   8.687  0.2201 -0.7745  1.3024
  761MOL0     H 5010   2.965   4.846   8.520 -0.9637  2.6688 -0.0985
  761MOL0     H 5011   2.913   4.955   8.643  3.0027  0.0268  0.1815
  761MOL0     H 5012   3.005   4.669   8.674 -2.1937  1.0298  0.3144
  761MOL0     H 5013   2.957   4.762   8.803 -3.3794  0.7113 -1.2455
  761MOL0     H 5014   3.348   4.896   8.847  2.2465  0.7176 -3.0080
  761MOL0     H 5015   2.530   4.761   8.275 -0.5935  1.5737 -0.6591
  761MOL0     H 5016   2.405   4.696   7.960 -2.8646  2.8619 -1.0311
  761MOL0     H 5017   2.396   4.784   8.115  1.5602 -5.4310  2.9533
  761MOL0     H 5018   2.473   4.864   7.978 -1.5212  2.0015  2.6904
  762MOL0     O 5019   2.732   0.933   4.549 -0.1940 -0.2183  0.7795
  762MOL0     C 5020   2.643   0.848   4.534  0.2084  0.2112 -0.1643
  762MOL0     O 5021   2.649   0.728   4.588 -0.0389  0.3556  0.6558
  762MOL0     C 5022   2.744   0.712   4.683  0.1943  0.3587  0.8044
  762MOL0     C 5023   2.867   0.677   4.638 -0.4505  0.6083 -0.7594
  762MOL0     C 5024   2.977   0.647   4.718 -0.1672  0.6069  0.0347
  762MOL0     C 5025   2.953   0.661   4.863  0.4815  0.2270 -0.3220
  762MOL0     O 5026   3.061   0.627   4.938 -0.1488 -0.3635 -0.2403
  762MOL0     C 5027   3.105   0.484   4.946  0.7033  0.2788  0.6204
  762MOL0     C 5028   3.260   0.482   4.966  0.2010  0.8544  1.1110
  762MOL0     C 5029   3.316   0.358   5.027 -0.1052 -0.7492  0.3817
  762MOL0     C 5030   3.251   0.309   5.149 -0.3613  0.2277 -0.1725
  762MOL0     C 5031   3.291   0.172   5.211 -0.1156  0.2964  0.3219
  762MOL0     C 5032   3.210   0.119   5.339 -0.2907  0.0124 -0.7125
  762MOL0     C 5033   3.277  -0.002   5.398  1.0117 -0.3581  0.0305
  762MOL0     C 5034   3.395   0.053   5.487  0.3730 -0.4878  0.3686
  762MOL0     N 5035   3.502  -0.040   5.496 -0.2043 -0.4229  0.6567
  762MOL0     C 5036   3.578  -0.100   5.391  0.9942 -0.5704 -0.2231
  762MOL0     C 5037   3.680  -0.170   5.452 -0.0442 -0.3989 -0.9362
  762MOL0     C 5038   3.795  -0.234   5.396  0.5897  0.4965  0.3183
  762MOL0     C 5039   3.931  -0.176   5.434  0.1867  0.1796  0.0838
  762MOL0     C 5040   4.054  -0.254   5.401 -0.3249 -0.7169 -0.0598
  762MOL0     C 5041   4.080  -0.379   5.492 -0.7351 -0.2713  0.6809
  762MOL0     O 5042   3.979  -0.468   5.452 -0.9802  0.5629 -0.6696
  762MOL0     C 5043   3.986  -0.581   5.526 -0.3745 -0.1888  0.7560
  762MOL0     C 5044   4.013  -0.705   5.461 -0.2263 -0.0398 -0.3728
  762MOL0     C 5045   4.008  -0.822   5.529 -0.1976 -0.1655  0.2706
  762MOL0     C 5046   4.048  -0.944   5.451 -0.2112 -0.0518 -0.0298
  762MOL0     C 5047   3.974  -0.819   5.668  0.0651  0.2031 -0.6055
  762MOL0     C 5048   3.947  -0.948   5.742 -0.1563 -0.0012 -0.2242
  762MOL0     O 5049   3.954  -1.066   5.679 -0.0010 -1.0930  0.3450
  762MOL0     C 5050   3.944  -1.173   5.768  0.3558  0.9760  0.6570
  762MOL0     C 5051   3.810  -1.206   5.809  0.4900  0.7578  0.5249
  762MOL0     C 5052   3.796  -1.312   5.899 -0.0597 -0.3147  0.9443
  762MOL0     C 5053   3.910  -1.376   5.950 -0.8468 -0.3957  0.1925
  762MOL0     O 5054   3.894  -1.480   6.039 -0.1725 -0.6864 -0.2769
  762MOL0     C 5055   3.997  -1.571   6.069  0.1758  0.2737 -0.7430
  762MOL0     C 5056   3.958  -1.669   6.179 -0.0497 -0.2206  0.4489
  762MOL0     C 5057   3.887  -1.625   6.318  0.1356  0.5539 -1.3739
  762MOL0     C 5058   3.730  -1.611   6.316 -0.6515 -1.1076  0.3216
  762MOL0     C 5059   3.674  -1.549   6.442 -0.3516 -0.2317 -0.0563
  762MOL0     C 5060   3.655  -1.656   6.558  0.0292  0.1586  0.4811
  762MOL0     C 5061   3.596  -1.582   6.673  0.2596 -0.5148 -0.9116
  762MOL0     C 5062   3.630  -1.657   6.806 -0.3465 -0.1228 -0.4689
  762MOL0    Cl 5063   3.551  -1.818   6.801  0.4488  0.7052  0.0799
  762MOL0     C 5064   4.040  -1.331   5.910 -0.2994  0.7965  0.0983
  762MOL0     C 5065   4.056  -1.240   5.819  0.1711 -0.5710  0.7653
  762MOL0     O 5066   3.901  -0.927   5.855 -0.6077 -0.0425 -0.7030
  762MOL0     C 5067   3.952  -0.697   5.735 -0.2717  0.2361 -0.0358
  762MOL0     C 5068   3.952  -0.577   5.656  0.0050 -0.1533  0.1246
  762MOL0     N 5069   3.647  -0.164   5.592 -0.3450  0.3730  0.8556
  762MOL0     N 5070   3.548  -0.096   5.617 -0.6025 -0.1555 -0.2921
  762MOL0     C 5071   2.827   0.685   4.915  0.4853 -0.4467  0.8688
  762MOL0     C 5072   2.724   0.701   4.820  0.4849 -1.0494 -0.1360
  762MOL0     C 5073   2.518   0.884   4.448 -0.1844  0.4980 -0.0398
  762MOL0     C 5074   2.531   1.006   4.373  0.8575  0.4174 -1.4894
  762MOL0     C 5075   2.424   1.068   4.310 -0.4858  0.4230  1.6026
  762MOL0     C 5076   2.297   1.004   4.308  0.1127 -0.8493  1.0155
  762MOL0     O 5077   2.185   1.078   4.258 -0.4503  0.4459 -0.9126
  762MOL0     C 5078   2.072   1.001   4.223  0.2946 -0.5034  0.1892
  762MOL0     C 5079   2.106   0.911   4.104  0.1329 -0.3787  0.5663
  762MOL0     C 5080   1.995   0.818   4.045 -0.9325  0.1337 -0.2663
  762MOL0     C 5081   1.924   0.701   4.131  0.2395  0.1339  0.4531
  762MOL0     C 5082   1.787   0.664   4.074 -0.2161  0.0879 -0.8828
  762MOL0     C 5083   1.677   0.637   4.038 -0.6465  0.4091  0.2087
  762MOL0     C 5084   2.284   0.880   4.367 -1.8208 -0.3891 -0.5178
  762MOL0     C 5085   2.393   0.824   4.447  0.5056 -0.2871 -0.0331
  762MOL0     C 5086   2.358   0.697   4.516  1.2150  0.6677 -0.9428
  762MOL0     H 5087   2.876   0.685   4.530  0.7211  0.7259 -0.6618
  762MOL0     H 5088   3.068   0.609   4.673 -0.2787 -1.2362  1.2126
  762MOL0     H 5089   3.092   0.427   4.854  1.4626 -2.7415  2.2572
  762MOL0     H 5090   3.045   0.436   5.024  0.1994 -4.6132 -2.4013
  762MOL0     H 5091   3.308   0.493   4.869  1.3443 -1.0162  1.4029
  762MOL0     H 5092   3.295   0.569   5.022  1.1932  0.5876  0.9307
  762MOL0     H 5093   3.307   0.286   4.945 -0.6930 -1.5013  1.0975
  762MOL0     H 5094   3.421   0.383   5.045  0.1033 -1.2470 -0.1167
  762MOL0     H 5095   3.270   0.380   5.230 -0.8795  1.9760 -1.4997
  762MOL0     H 5096   3.143   0.295   5.135 -0.9589  2.3026  1.7258
  762MOL0     H 5097   3.395   0.171   5.245 -0.5962 -2.0795  1.9058
  762MOL0     H 5098   3.275   0.093   5.138  1.1265  0.5824 -0.2785
  762MOL0     H 5099   3.175   0.181   5.421 -1.6899 -1.7946  0.1268
  762MOL0     H 5100   3.124   0.071   5.292 -0.9986 -0.3591  0.9190
  762MOL0     H 5101   3.319  -0.059   5.315  1.9923 -0.8297  0.8236
  762MOL0     H 5102   3.205  -0.066   5.449  1.2819 -1.8810 -1.4101
  762MOL0     H 5103   3.428   0.149   5.447 -1.1035 -0.6448 -1.3489
  762MOL0     H 5104   3.343   0.075   5.581 -0.4510 -0.4489 -0.0903
  762MOL0     H 5105   3.570  -0.078   5.285 -2.3912 -0.0711  0.0055
  762MOL0     H 5106   3.797  -0.237   5.287 -1.8494  1.7698  0.1697
  762MOL0     H 5107   3.784  -0.333   5.441  0.2634  0.9392  1.2514
  762MOL0     H 5108   3.939  -0.082   5.378 -0.0350  0.2444  0.1631
  762MOL0     H 5109   3.937  -0.150   5.540  4.8675  3.8103 -0.7334
  762MOL0     H 5110   4.037  -0.284   5.297  1.0096  0.3916 -0.6422
  762MOL0     H 5111   4.148  -0.200   5.418 -0.2811 -1.7381  3.7803
  762MOL0     H 5112   4.177  -0.422   5.464 -1.1499 -0.5969 -0.3068
  762MOL0     H 5113   4.070  -0.350   5.597 -2.4385  0.3539  0.3831
  762MOL0     H 5114   4.034  -0.700   5.355  0.3778 -0.4092 -0.2755
  762MOL0     H 5115   4.109  -0.908   5.368 -0.2289 -1.4288 -0.6711
  762MOL0     H 5116   3.963  -0.990   5.399 -0.4523 -3.4487  2.9665
  762MOL0     H 5117   4.109  -1.016   5.506  3.3034  2.3441 -0.5375
  762MOL0     H 5118   3.720  -1.166   5.763  0.4577 -1.6127 -1.7539
  762MOL0     H 5119   3.696  -1.338   5.931 -0.9116  2.1795  0.5677
  762MOL0     H 5120   4.008  -1.618   5.971 -1.5533 -0.5168 -0.5784
  762MOL0     H 5121   4.090  -1.526   6.107 -0.1066 -0.2662  0.6452
  762MOL0     H 5122   3.890  -1.736   6.126 -2.1953  2.8707 -0.9395
  762MOL0     H 5123   4.051  -1.720   6.207  0.6544  1.1738  0.6982
  762MOL0     H 5124   3.935  -1.534   6.354 -0.4223 -0.5530  2.6913
  762MOL0     H 5125   3.907  -1.703   6.393  1.1252  1.4185 -0.7069
  762MOL0     H 5126   3.679  -1.706   6.300 -0.1345 -1.3372  0.0024
  762MOL0     H 5127   3.717  -1.549   6.227 -1.2251 -3.5929 -1.4238
  762MOL0     H 5128   3.738  -1.471   6.484  2.5937 -1.4833 -1.8894
  762MOL0     H 5129   3.574  -1.525   6.404 -1.1060 -2.2062  0.5293
  762MOL0     H 5130   3.747  -1.707   6.586  1.0616  0.9131 -1.4026
  762MOL0     H 5131   3.588  -1.729   6.512 -0.1714  0.8511 -0.3620
  762MOL0     H 5132   3.488  -1.572   6.655  0.0866  0.6883  0.6529
  762MOL0     H 5133   3.637  -1.483   6.694 -1.7430 -0.2263  2.1989
  762MOL0     H 5134   3.595  -1.599   6.891  1.5356 -0.7192  0.7653
  762MOL0     H 5135   3.739  -1.658   6.807 -0.2006  1.9547 -2.7615
  762MOL0     H 5136   4.121  -1.385   5.958  0.4450 -0.2466 -2.1436
  762MOL0     H 5137   4.156  -1.199   5.804  1.1376 -1.7922  3.3278
  762MOL0     H 5138   3.920  -0.673   5.835  0.1280  0.0459  0.1377
  762MOL0     H 5139   3.924  -0.481   5.699 -0.4888  0.0096 -0.5432
  762MOL0     H 5140   2.804   0.689   5.021 -1.9141 -0.9142  0.4349
  762MOL0     H 5141   2.620   0.702   4.852  0.0661 -1.7829 -1.4089
  762MOL0     H 5142   2.631   1.045   4.354  3.0488 -3.2318  1.1257
  762MOL0     H 5143   2.430   1.167   4.267 -1.4642  0.5045  1.6333
  762MOL0     H 5144   2.029   0.946   4.307 -0.0802 -1.0609 -0.3564
  762MOL0     H 5145   1.982   1.059   4.200 -0.3958 -2.5160 -2.8165
  762MOL0     H 5146   2.193   0.851   4.134 -0.4954 -1.9568 -0.6252
  762MOL0     H 5147   2.130   0.988   4.030  0.4454 -1.8841 -0.9688
  762MOL0     H 5148   1.916   0.885   4.010  0.8692  2.8543  0.5809
  762MOL0     H 5149   2.039   0.772   3.956 -2.2374 -2.6763  0.4211
  762MOL0     H 5150   1.905   0.729   4.235 -3.1244  1.5871 -0.4212
  762MOL0     H 5151   1.998   0.621   4.126  2.2559  1.8658  1.3149
  762MOL0     H 5152   1.578   0.624   4.001 -0.5996  1.2353 -0.2361
  762MOL0     H 5153   2.190   0.827   4.368 -2.7948  1.2478  0.9411
  762MOL0     H 5154   2.407   0.605   4.482 -0.3942 -1.4390  2.0562
  762MOL0     H 5155   2.389   0.710   4.620  0.0794 -0.5346 -0.4272
  762MOL0     H 5156   2.252   0.670   4.518  1.2389 -0.1806 -4.3408
  763MOL0     O 5157   0.311   4.834   7.547 -0.0486 -0.3009  1.0001
  763MOL0     C 5158   0.209   4.867   7.487 -0.0877 -0.3808 -0.5153
  763MOL0     O 5159   0.185   4.876   7.357  0.0080  0.3025 -0.7797
  763MOL0     C 5160   0.276   4.807   7.280  0.6797  0.6429 -0.0134
  763MOL0     C 5161   0.311   4.854   7.157  0.4791  0.7705  0.0691
  763MOL0     C 5162   0.382   4.774   7.063  0.4427 -0.2790  0.9327
  763MOL0     C 5163   0.419   4.647   7.089  0.2580  0.6590  0.5793
  763MOL0     O 5164   0.486   4.600   6.974  1.2569 -0.2351  0.2837
  763MOL0     C 5165   0.497   4.460   6.956 -0.4985 -0.4083  1.3762
  763MOL0     C 5166   0.636   4.414   6.911 -0.6642  0.0898  0.9508
  763MOL0     C 5167   0.653   4.453   6.766  0.1979  0.7731  0.1316
  763MOL0     C 5168   0.745   4.361   6.695  0.8009  0.4720  0.0860
  763MOL0     C 5169   0.666   4.234   6.654 -0.2031  0.3712  0.2086
  763MOL0     C 5170   0.742   4.117   6.593 -0.6731  0.6412  0.0360
  763MOL0     C 5171   0.684   3.985   6.618 -0.0616  0.0241 -0.9886
  763MOL0     C 5172   0.778   3.870   6.566  0.6114  0.2323  0.1693
  763MOL0     N 5173   0.735   3.736   6.611 -0.2539  0.8641 -0.1464
  763MOL0     C 5174   0.796   3.641   6.697  0.1314 -0.4711 -0.0760
  763MOL0     C 5175   0.722   3.527   6.677  0.0935  0.1869  0.5417
  763MOL0     C 5176   0.737   3.403   6.758 -1.2026 -0.4504 -1.2051
  763MOL0     C 5177   0.599   3.369   6.825 -0.2784 -0.3133  0.1931
  763MOL0     C 5178   0.572   3.428   6.968 -0.2955 -0.1676 -0.5529
  763MOL0     C 5179   0.514   3.557   6.955 -0.1951  0.5043  0.0078
  763MOL0     O 5180   0.508   3.619   7.090 -0.4564 -0.4964  0.0136
  763MOL0     C 5181   0.452   3.743   7.086  0.1849 -0.8775 -0.8812
  763MOL0     C 5182   0.401   3.811   6.974  0.1115 -0.1048  0.4767
  763MOL0     C 5183   0.345   3.942   6.979  0.7145  0.2063  0.7775
  763MOL0     C 5184   0.311   4.008   6.847 -0.7737 -0.0029 -0.2973
  763MOL0     C 5185   0.342   4.011   7.107 -1.1003 -0.9535 -0.0924
  763MOL0     C 5186   0.273   4.149   7.127 -0.6434 -0.4903 -0.4765
  763MOL0     O 5187   0.249   4.187   7.255 -0.0310 -0.6881 -0.6024
  763MOL0     C 5188   0.160   4.287   7.282 -0.6799  0.3494  0.1922
  763MOL0     C 5189   0.034   4.288   7.224 -0.0538 -0.3413 -0.4282
  763MOL0     C 5190  -0.066   4.378   7.272  0.4340  1.0493  0.2599
  763MOL0     C 5191  -0.043   4.449   7.390  0.0157 -0.0186 -0.4140
  763MOL0     O 5192  -0.125   4.559   7.439 -0.2152 -0.1442  0.8308
  763MOL0     C 5193  -0.255   4.516   7.472  0.5957  0.3346 -0.7559
  763MOL0     C 5194  -0.334   4.625   7.553 -0.2928  0.5266 -0.0986
  763MOL0     C 5195  -0.262   4.681   7.684  0.0159  0.0482 -0.8470
  763MOL0     C 5196  -0.350   4.688   7.806  0.7597  0.6884 -0.9223
  763MOL0     C 5197  -0.273   4.719   7.933  0.3032  0.4472  0.0782
  763MOL0     C 5198  -0.376   4.743   8.041 -0.3549  0.5838 -0.0622
  763MOL0     C 5199  -0.322   4.806   8.169  0.6087  1.1200  0.1129
  763MOL0     C 5200  -0.425   4.866   8.261  0.8753 -0.3618  0.3112
  763MOL0    Cl 5201  -0.554   4.738   8.296  0.2404 -0.4011 -0.1983
  763MOL0     C 5202   0.091   4.457   7.446 -0.5615 -0.1150  0.3005
  763MOL0     C 5203   0.191   4.374   7.392  1.1077  0.1430  0.6847
  763MOL0     O 5204   0.242   4.222   7.034  0.0471  0.4644 -0.3436
  763MOL0     C 5205   0.400   3.945   7.219 -0.2352  0.6113  0.1661
  763MOL0     C 5206   0.455   3.820   7.209 -0.4572  0.1873  0.4774
  763MOL0     N 5207   0.634   3.548   6.580  0.9031  0.4463 -0.5558
  763MOL0     N 5208   0.644   3.671   6.537  0.3265 -1.0687  1.0201
  763MOL0     C 5209   0.392   4.597   7.213  0.3815 -0.5502  0.1745
  763MOL0     C 5210   0.328   4.675   7.315 -0.3550 -0.1296  0.1481
  763MOL0     C 5211   0.099   4.920   7.568  0.3699 -0.5605 -0.2134
  763MOL0     C 5212   0.020   5.023   7.515  0.1050 -1.1026 -0.0484
  763MOL0     C 5213  -0.074   5.088   7.597 -0.1231  0.3353  0.2534
  763MOL0     C 5214  -0.103   5.046   7.725 -0.7069  0.3897 -0.1270
  763MOL0     O 5215  -0.211   5.096   7.791 -0.2378  0.7894  0.1565
  763MOL0     C 5216  -0.234   5.240   7.795 -0.4125  0.8878 -0.2425
  763MOL0     C 5217  -0.291   5.270   7.941 -0.3045 -0.3001  0.5864
  763MOL0     C 5218  -0.384   5.165   8.003  0.5295  0.2830 -0.1333
  763MOL0     C 5219  -0.495   5.133   7.902 -0.2460 -0.1052  0.1400
  763MOL0     C 5220  -0.582   5.034   7.967  0.8964 -0.0123  0.0332
  763MOL0     C 5221  -0.665   4.961   8.025  0.1147  1.4757  0.0767
  763MOL0     C 5222  -0.024   4.942   7.771 -0.4941  0.6846 -0.0473
  763MOL0     C 5223   0.071   4.874   7.705 -0.0079  0.0410  1.0833
  763MOL0     C 5224   0.147   4.752   7.766  0.2852 -0.0939 -0.3056
  763MOL0     H 5225   0.290   4.958   7.134 -1.8222  0.1111 -1.0922
  763MOL0     H 5226   0.422   4.818   6.972 -2.1300 -2.8305 -1.6421
  763MOL0     H 5227   0.419   4.421   6.890 -2.1295 -1.4521  3.7601
  763MOL0     H 5228   0.472   4.400   7.045 -0.4968 -0.5850  1.2592
  763MOL0     H 5229   0.704   4.454   6.987 -2.3814  1.6081  1.7702
  763MOL0     H 5230   0.632   4.305   6.922 -2.1031  0.2143  2.0320
  763MOL0     H 5231   0.556   4.471   6.719  0.3953 -2.1111 -1.6496
  763MOL0     H 5232   0.689   4.556   6.776  0.6439  0.6105  0.2463
  763MOL0     H 5233   0.782   4.408   6.603  3.2804 -1.1406  0.1827
  763MOL0     H 5234   0.839   4.343   6.748  2.4182  2.2412 -1.9802
  763MOL0     H 5235   0.597   4.255   6.571 -1.5423  0.4189  1.2891
  763MOL0     H 5236   0.610   4.189   6.737 -0.1403 -0.4196 -0.1764
  763MOL0     H 5237   0.747   4.127   6.484 -0.9053  1.4498  0.0882
  763MOL0     H 5238   0.843   4.118   6.634 -0.2236 -0.3839 -1.0190
  763MOL0     H 5239   0.589   3.975   6.566 -0.5937 -0.7414  0.1089
  763MOL0     H 5240   0.660   3.967   6.724 -0.7277 -3.3379 -1.6115
  763MOL0     H 5241   0.782   3.871   6.456 -0.5664 -0.8964  0.0873
  763MOL0     H 5242   0.881   3.886   6.600  1.0350 -1.8943  0.0784
  763MOL0     H 5243   0.893   3.645   6.745  2.2411  0.6011 -3.9956
  763MOL0     H 5244   0.813   3.421   6.835 -0.0452 -0.9955 -2.2009
  763MOL0     H 5245   0.785   3.323   6.701 -0.0176 -0.5125 -0.1655
  763MOL0     H 5246   0.520   3.393   6.753 -0.0431 -2.8107 -1.0085
  763MOL0     H 5247   0.593   3.260   6.837 -3.9582 -0.0356  2.8608
  763MOL0     H 5248   0.507   3.372   7.036  0.5364  0.0249  0.4301
  763MOL0     H 5249   0.671   3.450   7.007 -0.7321  2.2074 -0.6058
  763MOL0     H 5250   0.563   3.619   6.880 -0.2084 -1.0652 -1.3565
  763MOL0     H 5251   0.413   3.539   6.916  0.3859  0.1627 -1.4118
  763MOL0     H 5252   0.404   3.773   6.872 -2.1703  1.1417 -0.1103
  763MOL0     H 5253   0.337   3.942   6.763  0.4356  0.4927 -0.3277
  763MOL0     H 5254   0.377   4.095   6.838  0.7457 -0.5770  3.4539
  763MOL0     H 5255   0.203   4.024   6.843 -0.9632 -1.3318 -1.1468
  763MOL0     H 5256   0.025   4.230   7.132 -1.1031  0.7136 -1.0186
  763MOL0     H 5257  -0.165   4.398   7.232 -0.9030 -2.7101  1.2841
  763MOL0     H 5258  -0.311   4.493   7.381  3.2033  1.9909 -2.9198
  763MOL0     H 5259  -0.246   4.422   7.527  0.9309 -0.3014 -1.8629
  763MOL0     H 5260  -0.366   4.702   7.483 -4.0263 -1.9455 -1.4528
  763MOL0     H 5261  -0.425   4.572   7.583 -2.5428  3.8676 -0.5821
  763MOL0     H 5262  -0.240   4.781   7.645 -2.2187  1.7772  1.9315
  763MOL0     H 5263  -0.167   4.627   7.694  1.0567  1.4542 -2.5048
  763MOL0     H 5264  -0.396   4.589   7.816  0.5511  0.6626 -2.0067
  763MOL0     H 5265  -0.428   4.763   7.796 -0.0438  0.1610  0.9575
  763MOL0     H 5266  -0.205   4.635   7.951  0.6519  1.2273  2.8963
  763MOL0     H 5267  -0.214   4.811   7.928  0.3035  0.6649  2.7313
  763MOL0     H 5268  -0.420   4.644   8.057  0.3315  0.2601 -0.1312
  763MOL0     H 5269  -0.460   4.803   8.005  0.8447  0.7671 -2.8255
  763MOL0     H 5270  -0.250   4.879   8.132 -0.9810  3.5068  1.4618
  763MOL0     H 5271  -0.269   4.722   8.214  1.8157  2.2011  0.7617
  763MOL0     H 5272  -0.478   4.951   8.218  3.1518  1.1303  0.3246
  763MOL0     H 5273  -0.376   4.896   8.354 -0.7622 -0.2355  1.1618
  763MOL0     H 5274   0.120   4.511   7.536 -0.8121 -0.7416  0.7672
  763MOL0     H 5275   0.287   4.360   7.442  0.7656  0.2813  1.3908
  763MOL0     H 5276   0.416   4.009   7.306 -0.0300  1.7216 -0.6740
  763MOL0     H 5277   0.505   3.781   7.297 -1.9123 -0.0837  1.2312
  763MOL0     H 5278   0.435   4.498   7.222  1.4348 -0.2427 -1.1989
  763MOL0     H 5279   0.315   4.637   7.416 -0.0817 -0.3001  0.1190
  763MOL0     H 5280   0.036   5.057   7.414 -0.0501 -0.0844  0.2579
  763MOL0     H 5281  -0.148   5.149   7.547  1.2390  0.9506 -1.1224
  763MOL0     H 5282  -0.139   5.291   7.777  1.3004 -1.5987  1.0588
  763MOL0     H 5283  -0.309   5.270   7.721  2.7156  0.6777 -3.8009
  763MOL0     H 5284  -0.347   5.363   7.932  1.8302  0.9421 -0.5978
  763MOL0     H 5285  -0.208   5.283   8.011 -0.2374 -1.9276  0.8504
  763MOL0     H 5286  -0.322   5.081   8.038  0.9016  1.8108  3.2494
  763MOL0     H 5287  -0.433   5.189   8.098  0.2738 -0.9326  0.0700
  763MOL0     H 5288  -0.460   5.089   7.808 -1.5215  0.6232 -0.7025
  763MOL0     H 5289  -0.549   5.226   7.883  0.5059  0.2228 -0.4255
  763MOL0     H 5290  -0.747   4.903   8.061 -1.0971  1.2014 -2.9115
  763MOL0     H 5291  -0.041   4.904   7.871 -3.8332 -0.9743 -1.0942
  763MOL0     H 5292   0.076   4.693   7.824  1.4168 -1.1298  0.0595
  763MOL0     H 5293   0.182   4.684   7.688  0.5891  1.1698 -1.3014
  763MOL0     H 5294   0.230   4.771   7.834  0.5902 -1.9817 -0.0963
  764MOL0     O 5295  11.507   4.733   9.160  0.5257 -0.6456 -0.5506
  764MOL0     C 5296  11.478   4.647   9.244 -0.1458  0.4993 -0.1686
  764MOL0     O 5297  11.572   4.600   9.328 -0.2052  0.1337  0.4670
  764MOL0     C 5298  11.682   4.673   9.346 -0.8046 -0.6089  0.3916
  764MOL0     C 5299  11.671   4.817   9.381 -0.4004  0.7315  0.6433
  764MOL0     C 5300  11.788   4.894   9.384  0.6385 -0.0843  0.2116
  764MOL0     C 5301  11.916   4.840   9.368 -0.6388  0.3087  0.0026
  764MOL0     O 5302  12.033   4.917   9.362 -0.3208  0.1653 -0.1273
  764MOL0     C 5303  12.064   4.996   9.476  0.4455  0.1951 -0.0591
  764MOL0     C 5304  12.167   4.928   9.569  0.7236  0.5656 -0.1049
  764MOL0     C 5305  12.205   5.001   9.695  0.3873 -0.0812  0.8043
  764MOL0     C 5306  12.286   4.899   9.784  0.5470  0.0375 -0.8932
  764MOL0     C 5307  12.329   4.952   9.919 -1.0822  0.7625 -0.3219
  764MOL0     C 5308  12.332   4.846  10.033  0.2156  0.7735 -0.2722
  764MOL0     C 5309  12.384   4.899  10.164  0.4755  0.5788 -1.0842
  764MOL0     C 5310  12.387   4.792  10.279 -0.8199 -0.6858  0.6285
  764MOL0     N 5311  12.438   4.833  10.415  0.6960 -0.2290  0.2067
  764MOL0     C 5312  12.409   4.945  10.490 -0.3974 -0.2352  0.0100
  764MOL0     C 5313  12.489   4.929  10.594 -0.3364 -0.8910 -0.0065
  764MOL0     C 5314  12.533   5.022  10.699 -0.7303  0.1574 -0.0726
  764MOL0     C 5315  12.416   5.100  10.761  0.1396  1.7448  0.0598
  764MOL0     C 5316  12.454   5.182  10.886 -0.3684  0.1448 -0.0108
  764MOL0     C 5317  12.348   5.283  10.909 -0.8837  0.8151 -0.1600
  764MOL0     O 5318  12.380   5.333  11.038 -0.2332 -0.4057 -0.1313
  764MOL0     C 5319  12.339   5.456  11.076  1.0705 -0.4418 -0.5565
  764MOL0     C 5320  12.387   5.518  11.192 -0.1828  0.6549  0.7980
  764MOL0     C 5321  12.355   5.643  11.229  0.0054 -1.1739 -0.1702
  764MOL0     C 5322  12.426   5.708  11.342  0.1643  0.9435 -0.0550
  764MOL0     C 5323  12.267   5.719  11.147  0.0506  1.0588  0.9304
  764MOL0     C 5324  12.228   5.865  11.160  0.3889 -0.0119  0.7147
  764MOL0     O 5325  12.230   5.919  11.285  0.3223 -0.3804  0.0585
  764MOL0     C 5326  12.189   6.047  11.293  0.5404 -1.1362 -0.1355
  764MOL0     C 5327  12.067   6.067  11.347  0.7994 -0.0290 -0.9246
  764MOL0     C 5328  12.019   6.192  11.387 -1.1657  0.4185  0.0036
  764MOL0     C 5329  12.107   6.301  11.357  0.7964  0.3936  0.0726
  764MOL0     O 5330  12.060   6.420  11.391  0.6852 -1.0526  0.1224
  764MOL0     C 5331  12.064   6.522  11.281  0.7951  0.0630 -0.3806
  764MOL0     C 5332  12.160   6.631  11.306 -0.9636  0.3058  0.1528
  764MOL0     C 5333  12.119   6.724  11.424 -0.4066 -0.1380 -0.2360
  764MOL0     C 5334  11.987   6.800  11.424  0.8638 -0.0655  0.5128
  764MOL0     C 5335  11.944   6.822  11.572 -0.1400 -0.3205  0.3664
  764MOL0     C 5336  12.049   6.921  11.642 -0.2731 -0.1377  0.5636
  764MOL0     C 5337  11.985   6.990  11.761 -0.2985 -0.1477 -0.7300
  764MOL0     C 5338  12.083   7.030  11.867  0.6345 -0.1450 -0.9582
  764MOL0    Cl 5339  12.140   6.886  11.951  0.5312 -0.2849  0.0387
  764MOL0     C 5340  12.231   6.285  11.298 -0.7199 -0.4936 -0.1406
  764MOL0     C 5341  12.271   6.156  11.273  0.1095  1.2316 -0.6362
  764MOL0     O 5342  12.210   5.926  11.050  0.2866  0.2001  0.2402
  764MOL0     C 5343  12.199   5.653  11.032 -0.3119  0.6940 -0.0164
  764MOL0     C 5344  12.241   5.519  10.997 -0.2114  0.2922 -0.9261
  764MOL0     N 5345  12.551   4.807  10.593  0.4226  0.1868 -0.1339
  764MOL0     N 5346  12.528   4.758  10.473 -0.1485 -0.6445 -0.1277
  764MOL0     C 5347  11.919   4.702   9.342 -0.2692  0.0191  0.4321
  764MOL0     C 5348  11.808   4.620   9.324 -0.3173 -0.1920  0.5324
  764MOL0     C 5349  11.347   4.573   9.240 -0.2911  0.8805 -0.6958
  764MOL0     C 5350  11.328   4.463   9.335  0.6538  0.5808 -0.6440
  764MOL0     C 5351  11.220   4.378   9.334  0.0463  0.2707 -0.0302
  764MOL0     C 5352  11.120   4.404   9.235 -1.5473  1.0572 -0.8872
  764MOL0     O 5353  11.008   4.319   9.242 -0.3050 -0.6010  0.8073
  764MOL0     C 5354  10.925   4.320   9.119  0.4688 -0.0976  0.6606
  764MOL0     C 5355  10.885   4.176   9.118  0.2155 -0.1900  0.2842
  764MOL0     C 5356  10.808   4.148   8.986 -1.4463  1.0747 -0.7949
  764MOL0     C 5357  10.750   4.006   8.992  0.3854 -0.2319  0.3130
  764MOL0     C 5358  10.841   3.890   9.009 -0.6537 -0.3890 -0.0738
  764MOL0     C 5359  10.914   3.786   9.034 -0.0129  0.0047  0.4269
  764MOL0     C 5360  11.125   4.518   9.157 -0.4983  0.0980  0.0465
  764MOL0     C 5361  11.235   4.605   9.159  0.9191  0.0853  0.0245
  764MOL0     C 5362  11.225   4.738   9.076 -1.1244  0.5251 -0.1576
  764MOL0     H 5363  11.572   4.861   9.378 -1.1006 -0.8112 -2.4140
  764MOL0     H 5364  11.781   5.003   9.390 -0.7322 -0.2461  2.3343
  764MOL0     H 5365  11.972   5.026   9.528 -0.3819 -3.4997  0.8651
  764MOL0     H 5366  12.114   5.087   9.439 -0.4827  0.9392  0.4726
  764MOL0     H 5367  12.127   4.829   9.591 -0.1034  1.2489  1.6412
  764MOL0     H 5368  12.258   4.920   9.508  1.0712  0.2463  0.4420
  764MOL0     H 5369  12.272   5.084   9.670 -0.1929  0.1114 -0.1791
  764MOL0     H 5370  12.114   5.024   9.750 -1.3054 -3.2051 -0.4207
  764MOL0     H 5371  12.213   4.821   9.808 -0.1978  1.2853  1.1947
  764MOL0     H 5372  12.368   4.850   9.731 -1.4895 -2.9093 -1.5563
  764MOL0     H 5373  12.268   5.037   9.952 -1.4228  1.2331 -2.0664
  764MOL0     H 5374  12.429   4.996   9.916 -1.5801  2.0145  0.4046
  764MOL0     H 5375  12.231   4.809  10.054  0.8196 -0.2245  0.9968
  764MOL0     H 5376  12.389   4.761   9.993 -0.0509 -0.1714  1.2862
  764MOL0     H 5377  12.314   4.974  10.202  1.0252  0.0239  1.1725
  764MOL0     H 5378  12.481   4.948  10.151 -0.1376  1.9005 -0.8241
  764MOL0     H 5379  12.287   4.750  10.293 -0.8012 -1.0491 -0.2797
  764MOL0     H 5380  12.453   4.712  10.244  2.7685  0.9192  3.1166
  764MOL0     H 5381  12.361   5.039  10.466  0.1914 -0.2643 -1.3931
  764MOL0     H 5382  12.607   5.094  10.661 -1.0964  0.7487  0.3245
  764MOL0     H 5383  12.576   4.954  10.773 -3.0933 -0.6101  0.6683
  764MOL0     H 5384  12.373   5.170  10.689  1.1488  3.1952  0.8160
  764MOL0     H 5385  12.346   5.024  10.798 -1.3340  3.0572  0.0403
  764MOL0     H 5386  12.463   5.115  10.972  2.8835  0.0242 -0.2990
  764MOL0     H 5387  12.551   5.234  10.877 -0.1273  0.3997  3.0102
  764MOL0     H 5388  12.357   5.367  10.840  0.0495  1.0811  0.2657
  764MOL0     H 5389  12.251   5.233  10.905 -1.9508  2.8757 -1.7188
  764MOL0     H 5390  12.467   5.478  11.253 -0.3395 -0.0310  0.5602
  764MOL0     H 5391  12.526   5.667  11.357 -0.9772 -0.8320  4.3713
  764MOL0     H 5392  12.368   5.688  11.432 -1.0115  2.9681 -0.2997
  764MOL0     H 5393  12.440   5.814  11.317  0.9916  0.3402 -2.4085
  764MOL0     H 5394  12.002   5.981  11.353 -2.5979  2.4203  0.2311
  764MOL0     H 5395  11.926   6.224  11.433 -1.6668  0.0785 -0.7415
  764MOL0     H 5396  12.074   6.466  11.188 -2.3459  0.7173 -1.2325
  764MOL0     H 5397  11.964   6.568  11.285  1.8765  2.4752  1.1515
  764MOL0     H 5398  12.263   6.597  11.324 -0.3375  0.4817 -2.5389
  764MOL0     H 5399  12.175   6.686  11.212  0.8545 -1.3204 -0.5789
  764MOL0     H 5400  12.198   6.800  11.423  1.0720 -1.6159 -0.5829
  764MOL0     H 5401  12.120   6.671  11.520  0.9871  1.2166  0.5624
  764MOL0     H 5402  11.911   6.746  11.367  0.4936  1.5828 -0.6041
  764MOL0     H 5403  12.006   6.896  11.376 -0.6362 -0.0420 -0.0941
  764MOL0     H 5404  11.846   6.870  11.580 -0.0150  0.0316 -0.1562
  764MOL0     H 5405  11.930   6.732  11.632  2.2379 -0.8076  0.2745
  764MOL0     H 5406  12.084   6.986  11.561 -3.3227 -0.7758 -1.4355
  764MOL0     H 5407  12.144   6.883  11.680  1.6827  2.6404 -1.2012
  764MOL0     H 5408  11.911   6.928  11.811 -1.0174  0.4002 -1.1029
  764MOL0     H 5409  11.920   7.071  11.728 -1.3106 -1.5332 -2.3658
  764MOL0     H 5410  12.037   7.097  11.940  0.7286 -0.9613 -0.1270
  764MOL0     H 5411  12.166   7.083  11.819  2.3984  0.4408  2.4807
  764MOL0     H 5412  12.307   6.362  11.297  3.5335 -4.2324 -0.3232
  764MOL0     H 5413  12.375   6.151  11.241  0.2433 -1.9157  0.0091
  764MOL0     H 5414  12.123   5.705  10.975  1.7871  4.5708  0.3708
  764MOL0     H 5415  12.194   5.476  10.908  2.6503 -3.4759 -0.8601
  764MOL0     H 5416  12.017   4.662   9.316  0.3657 -2.6884  5.5100
  764MOL0     H 5417  11.821   4.517   9.291 -2.1906 -0.1856 -0.3767
  764MOL0     H 5418  11.407   4.449   9.408 -0.7747  1.4191  1.1449
  764MOL0     H 5419  11.203   4.292   9.398 -1.5316 -0.7085 -1.6569
  764MOL0     H 5420  10.843   4.392   9.114 -0.3315 -0.9541  1.2133
  764MOL0     H 5421  10.991   4.334   9.032  1.1708 -0.2577  1.1526
  764MOL0     H 5422  10.822   4.147   9.202  1.9856 -0.7723  1.4650
  764MOL0     H 5423  10.970   4.107   9.121  2.8007  2.7939  0.7666
  764MOL0     H 5424  10.730   4.224   8.983 -2.4454  0.0397 -1.7359
  764MOL0     H 5425  10.873   4.157   8.898  2.1332 -1.8743  1.2461
  764MOL0     H 5426  10.680   3.985   8.911 -0.8496 -0.4099  1.4003
  764MOL0     H 5427  10.672   3.997   9.068  0.8721  0.4237  0.9078
  764MOL0     H 5428  10.983   3.707   9.054  1.3379  0.6745 -1.2886
  764MOL0     H 5429  11.043   4.555   9.096 -1.8265  0.9443  2.2318
  764MOL0     H 5430  11.253   4.821   9.142  0.9554 -0.5098  0.3536
  764MOL0     H 5431  11.298   4.721   8.997  0.4358 -0.6093  1.4509
  764MOL0     H 5432  11.124   4.756   9.038 -1.1947  1.6269  0.4914
  765MOL0     O 5433   5.035   2.983   4.850 -0.3299  1.0646 -0.4881
  765MOL0     C 5434   5.039   3.095   4.801 -0.7688  0.4123 -0.5813
  765MOL0     O 5435   4.979   3.133   4.673  0.2300 -0.5305 -0.2939
  765MOL0     C 5436   4.877   3.066   4.620  0.0177  1.0298 -0.6691
  765MOL0     C 5437   4.787   2.984   4.690  0.8758 -0.4350 -0.8843
  765MOL0     C 5438   4.676   2.921   4.633 -0.7249  0.1819  0.3120
  765MOL0     C 5439   4.654   2.961   4.496 -0.4536 -0.0250  0.7659
  765MOL0     O 5440   4.566   2.912   4.407  0.8043  0.2180  0.3585
  765MOL0     C 5441   4.432   2.902   4.454 -0.1355  0.5926  0.2723
  765MOL0     C 5442   4.348   2.864   4.338 -1.0707 -0.0510  0.5035
  765MOL0     C 5443   4.201   2.854   4.392  0.1604 -0.2469  0.1501
  765MOL0     C 5444   4.098   2.861   4.283  0.7319  0.0881  0.0632
  765MOL0     C 5445   4.074   3.009   4.236 -0.6825  0.4040  0.0151
  765MOL0     C 5446   3.928   3.027   4.221  1.0972 -0.2209 -0.2276
  765MOL0     C 5447   3.867   2.942   4.101 -0.3955  0.0441  1.0580
  765MOL0     C 5448   3.912   2.997   3.970 -0.0166  0.2716  0.5955
  765MOL0     N 5449   3.825   2.943   3.856 -0.4735 -0.2236  0.2962
  765MOL0     C 5450   3.778   3.024   3.752  0.1279 -0.1915 -0.6990
  765MOL0     C 5451   3.716   2.929   3.669 -0.7827 -0.9601 -1.0449
  765MOL0     C 5452   3.644   2.966   3.546 -0.1063 -0.6386  1.4100
  765MOL0     C 5453   3.739   3.035   3.444 -0.0011  0.1254 -0.2924
  765MOL0     C 5454   3.845   2.952   3.374  0.7059  0.6810  0.5572
  765MOL0     C 5455   3.792   2.827   3.317  0.2148 -0.0883  0.1372
  765MOL0     O 5456   3.681   2.850   3.226 -0.1000  0.3024  0.5193
  765MOL0     C 5457   3.595   2.749   3.180  0.2708 -0.3469  0.0701
  765MOL0     C 5458   3.502   2.779   3.081  0.2517  0.0352  0.1306
  765MOL0     C 5459   3.399   2.691   3.034 -0.8179 -0.6183 -0.6970
  765MOL0     C 5460   3.314   2.753   2.930 -0.6044  0.2955 -0.4598
  765MOL0     C 5461   3.393   2.561   3.094  0.6979  0.9651 -0.0583
  765MOL0     C 5462   3.287   2.467   3.057  0.0606  0.2516  0.2571
  765MOL0     O 5463   3.313   2.335   3.073 -0.1974 -0.4669  0.5484
  765MOL0     C 5464   3.228   2.231   3.036 -0.4438 -0.1713 -0.4636
  765MOL0     C 5465   3.158   2.156   3.139 -1.3738 -0.6445  0.4709
  765MOL0     C 5466   3.062   2.060   3.101  0.3611  0.7257 -0.0667
  765MOL0     C 5467   3.028   2.032   2.969  0.4730 -0.1131 -0.6060
  765MOL0     O 5468   2.917   1.960   2.945 -0.5701  0.7683  0.1338
  765MOL0     C 5469   2.910   1.913   2.812 -0.2987  0.7868  0.4492
  765MOL0     C 5470   2.803   1.809   2.809  1.0215 -0.0640  0.1769
  765MOL0     C 5471   2.663   1.848   2.821  0.5199  0.1960  0.0091
  765MOL0     C 5472   2.577   1.723   2.791  0.7399 -0.4649 -0.8841
  765MOL0     C 5473   2.445   1.778   2.720 -0.5608  0.2540 -0.8593
  765MOL0     C 5474   2.355   1.664   2.681  0.6006  0.0015 -0.2134
  765MOL0     C 5475   2.281   1.585   2.804 -0.0967  0.1580  0.2743
  765MOL0     C 5476   2.263   1.441   2.767 -0.7017  0.1900 -0.7645
  765MOL0    Cl 5477   2.129   1.379   2.867  0.2414  0.0330  0.3561
  765MOL0     C 5478   3.102   2.103   2.867 -0.2528 -0.5254 -0.0546
  765MOL0     C 5479   3.202   2.197   2.907  0.2007 -0.6262 -1.5008
  765MOL0     O 5480   3.180   2.515   3.023  0.8160  1.0450 -0.6886
  765MOL0     C 5481   3.486   2.525   3.192  0.6488 -0.2090  0.1409
  765MOL0     C 5482   3.593   2.610   3.225  0.1553 -0.2391  0.4537
  765MOL0     N 5483   3.749   2.804   3.721 -0.3501 -0.5586  0.3212
  765MOL0     N 5484   3.829   2.809   3.818  0.1252 -0.3355  0.7542
  765MOL0     C 5485   4.737   3.040   4.427 -1.0560 -1.2770  0.4865
  765MOL0     C 5486   4.851   3.096   4.488  0.2942 -0.5622  0.6957
  765MOL0     C 5487   5.113   3.201   4.869 -0.4756  0.8670  0.2730
  765MOL0     C 5488   5.085   3.336   4.830  0.5662 -0.3969 -0.0186
  765MOL0     C 5489   5.150   3.441   4.891  0.9005 -0.4793 -0.4291
  765MOL0     C 5490   5.242   3.426   5.000  0.5290  0.9218  0.5526
  765MOL0     O 5491   5.319   3.518   5.073  0.2345  0.0842  0.1541
  765MOL0     C 5492   5.302   3.662   5.060 -0.3849  1.1090  0.4936
  765MOL0     C 5493   5.408   3.715   4.968 -0.5939 -0.8554 -0.1069
  765MOL0     C 5494   5.385   3.708   4.821  0.0063 -0.4644 -0.0945
  765MOL0     C 5495   5.469   3.813   4.738  0.1798 -0.3870  0.3991
  765MOL0     C 5496   5.430   3.811   4.598  0.1673  0.2477  0.7632
  765MOL0     C 5497   5.378   3.806   4.484 -0.1589  0.3933 -0.4402
  765MOL0     C 5498   5.267   3.290   5.028 -0.0888 -0.2041  0.6455
  765MOL0     C 5499   5.207   3.174   4.974 -1.5163  0.3084 -0.4552
  765MOL0     C 5500   5.265   3.049   5.015 -0.3680  1.1158 -0.1737
  765MOL0     H 5501   4.815   2.959   4.792  0.4098 -2.1079 -1.1366
  765MOL0     H 5502   4.605   2.851   4.675 -0.0027  0.2642  1.7104
  765MOL0     H 5503   4.395   2.992   4.503 -4.2763 -0.7181 -0.0677
  765MOL0     H 5504   4.430   2.816   4.522  0.6944 -1.4657 -2.1463
  765MOL0     H 5505   4.365   2.941   4.263  0.7196 -0.1669  0.7427
  765MOL0     H 5506   4.387   2.769   4.298 -1.1945  0.3675 -0.6380
  765MOL0     H 5507   4.190   2.758   4.443 -3.4357  0.2631  0.5992
  765MOL0     H 5508   4.189   2.939   4.460  3.0698 -0.5241  1.1473
  765MOL0     H 5509   4.139   2.801   4.201 -1.3620 -0.9447 -0.2762
  765MOL0     H 5510   4.000   2.824   4.314  1.0177 -0.0760  0.7948
  765MOL0     H 5511   4.129   3.024   4.143 -0.9964  3.2191  0.2170
  765MOL0     H 5512   4.113   3.084   4.305 -2.0357  0.2282  1.0111
  765MOL0     H 5513   3.889   2.992   4.317  0.9730  0.7709  0.0863
  765MOL0     H 5514   3.902   3.132   4.209 -0.6642  0.0609  4.1515
  765MOL0     H 5515   3.758   2.929   4.106 -0.2972 -1.0785  0.5227
  765MOL0     H 5516   3.890   2.835   4.103 -2.6082 -0.4841  1.5216
  765MOL0     H 5517   3.915   3.107   3.967  0.5213  0.3029 -3.4444
  765MOL0     H 5518   4.012   2.962   3.944 -0.3817 -0.2532 -0.1280
  765MOL0     H 5519   3.768   3.132   3.744 -1.9220 -0.2447  0.5151
  765MOL0     H 5520   3.560   3.030   3.576  1.2679 -0.1274  4.5235
  765MOL0     H 5521   3.607   2.869   3.510  2.2109 -1.4253  0.9968
  765MOL0     H 5522   3.685   3.085   3.363 -0.7696  0.0654  0.1718
  765MOL0     H 5523   3.792   3.111   3.502  1.4790 -2.0471  1.3948
  765MOL0     H 5524   3.880   3.013   3.291  4.1753  1.2637  2.2717
  765MOL0     H 5525   3.926   2.920   3.440  0.2697 -3.5607 -0.6283
  765MOL0     H 5526   3.871   2.769   3.268 -1.6892 -1.8473 -1.0286
  765MOL0     H 5527   3.763   2.762   3.401  2.0071 -0.3765  0.5822
  765MOL0     H 5528   3.498   2.883   3.051 -2.3033 -0.7560 -2.7314
  765MOL0     H 5529   3.355   2.838   2.874  0.7079 -1.8590 -3.0407
  765MOL0     H 5530   3.214   2.773   2.968 -0.3345 -0.3092  0.6271
  765MOL0     H 5531   3.295   2.671   2.860 -2.8524 -1.8889  2.4331
  765MOL0     H 5532   3.194   2.166   3.240  1.4146  0.0713 -0.5114
  765MOL0     H 5533   3.026   1.992   3.177  2.8780 -0.1491  0.4553
  765MOL0     H 5534   2.870   1.993   2.749  1.7622  2.4543  1.1358
  765MOL0     H 5535   3.008   1.881   2.777 -0.8108 -0.7437  0.3248
  765MOL0     H 5536   2.828   1.742   2.726  0.7893 -1.0942  0.9073
  765MOL0     H 5537   2.817   1.746   2.898  2.5938  0.4412  0.3170
  765MOL0     H 5538   2.655   1.937   2.756 -2.3914  2.3930  3.0357
  765MOL0     H 5539   2.635   1.878   2.922  0.3993 -0.9980  0.3404
  765MOL0     H 5540   2.537   1.678   2.883 -2.9676  2.6985 -0.6475
  765MOL0     H 5541   2.634   1.655   2.728 -0.6541 -0.1349 -2.5971
  765MOL0     H 5542   2.397   1.852   2.784  3.0898  1.2619  0.9733
  765MOL0     H 5543   2.475   1.838   2.634  4.3411 -1.6013 -0.7864
  765MOL0     H 5544   2.423   1.595   2.631  0.6233 -0.2459  0.1564
  765MOL0     H 5545   2.285   1.706   2.608  0.0069 -1.7537 -0.7009
  765MOL0     H 5546   2.185   1.629   2.831 -1.3163 -1.2515 -1.5273
  765MOL0     H 5547   2.341   1.592   2.895 -0.3434 -2.1597  0.6539
  765MOL0     H 5548   2.357   1.392   2.790 -1.1919  0.2816  1.6642
  765MOL0     H 5549   2.231   1.425   2.663 -2.7068 -3.5966  0.2650
  765MOL0     H 5550   3.089   2.082   2.761  0.2796 -0.5547 -0.1182
  765MOL0     H 5551   3.266   2.248   2.835  1.0796  0.7886  0.1905
  765MOL0     H 5552   3.468   2.424   3.227 -0.6895  0.5892  1.8621
  765MOL0     H 5553   3.669   2.569   3.291  0.5840  0.4453  0.3844
  765MOL0     H 5554   4.723   3.073   4.324 -0.6229  5.0825  2.0328
  765MOL0     H 5555   4.916   3.170   4.441  1.4093  0.2584  3.3557
  765MOL0     H 5556   5.023   3.359   4.744 -0.3482 -0.5662  0.5815
  765MOL0     H 5557   5.146   3.544   4.856  1.9877 -0.5742 -0.8889
  765MOL0     H 5558   5.200   3.683   5.027 -0.9211 -2.6303 -0.7400
  765MOL0     H 5559   5.322   3.712   5.155  3.0985 -0.5366  0.8041
  765MOL0     H 5560   5.501   3.668   5.003 -1.0296  0.1141  2.6114
  765MOL0     H 5561   5.420   3.823   4.979 -2.6710 -0.4416 -1.4434
  765MOL0     H 5562   5.423   3.613   4.784  1.0450  0.3334 -1.1582
  765MOL0     H 5563   5.276   3.714   4.814 -0.5446 -4.9550  1.2619
  765MOL0     H 5564   5.576   3.795   4.753 -0.1040 -1.0882  1.7756
  765MOL0     H 5565   5.447   3.911   4.782  3.9929  0.6217  0.3722
  765MOL0     H 5566   5.348   3.781   4.384  0.7963 -1.7809 -0.2363
  765MOL0     H 5567   5.349   3.276   5.098  0.5508  0.3322  0.0100
  765MOL0     H 5568   5.348   3.059   5.086 -1.2264  0.9560  0.8885
  765MOL0     H 5569   5.177   2.997   5.056 -1.8008  2.0660 -1.8984
  765MOL0     H 5570   5.294   2.994   4.925 -1.3797  4.4061 -2.7034
  766MOL0     O 5571   5.157   2.136   8.556 -0.4038  0.1410  0.4544
  766MOL0     C 5572   5.048   2.183   8.581 -0.9015  1.0276 -0.1270
  766MOL0     O 5573   4.988   2.273   8.497 -0.1710  0.1747  0.4484
  766MOL0     C 5574   5.077   2.353   8.425  0.1675 -0.3762  0.7968
  766MOL0     C 5575   5.103   2.336   8.289  0.6457  0.4320 -0.1479
  766MOL0     C 5576   5.195   2.412   8.219  1.3949  0.0618  0.5344
  766MOL0     C 5577   5.269   2.509   8.284  0.5132 -0.1823  1.0835
  766MOL0     O 5578   5.366   2.575   8.212  0.4061  0.3709 -0.6111
  766MOL0     C 5579   5.454   2.501   8.127  0.1144 -0.1698  0.2225
  766MOL0     C 5580   5.587   2.559   8.134 -0.4938  0.6182  1.1545
  766MOL0     C 5581   5.668   2.486   8.038 -0.1497  0.5279 -0.4846
  766MOL0     C 5582   5.799   2.555   8.011 -0.1880 -0.0579 -0.2986
  766MOL0     C 5583   5.877   2.488   7.905 -0.1150 -1.7344  0.3130
  766MOL0     C 5584   5.998   2.579   7.851 -0.2536  0.1114  0.0731
  766MOL0     C 5585   6.103   2.615   7.958  0.2272 -0.1405  0.7483
  766MOL0     C 5586   6.236   2.672   7.886 -0.5493 -0.3478 -0.6182
  766MOL0     N 5587   6.331   2.570   7.842 -0.0267  0.4729 -0.1256
  766MOL0     C 5588   6.400   2.575   7.727  0.0156  0.0214  0.2641
  766MOL0     C 5589   6.465   2.455   7.722 -0.0599 -0.2238  0.1701
  766MOL0     C 5590   6.561   2.418   7.611 -0.3279 -0.1122  0.5825
  766MOL0     C 5591   6.491   2.385   7.477  0.2601  0.1844 -0.1957
  766MOL0     C 5592   6.406   2.261   7.489 -0.4998  0.5444  0.6712
  766MOL0     C 5593   6.323   2.241   7.364 -0.4739  0.1574 -0.3482
  766MOL0     O 5594   6.213   2.331   7.348  0.8651 -0.2090  0.4229
  766MOL0     C 5595   6.096   2.319   7.428  0.3790 -0.3564  0.6017
  766MOL0     C 5596   5.991   2.409   7.395 -0.0882  0.6713  0.5424
  766MOL0     C 5597   5.867   2.397   7.465 -0.7462 -0.2122 -0.6647
  766MOL0     C 5598   5.769   2.515   7.431  0.4418  0.0050 -0.5809
  766MOL0     C 5599   5.840   2.295   7.563 -0.1735  0.1989  0.4540
  766MOL0     C 5600   5.714   2.275   7.642  0.3891 -0.1304  0.7342
  766MOL0     O 5601   5.694   2.161   7.717 -0.1052 -0.2735 -0.1874
  766MOL0     C 5602   5.579   2.152   7.797  0.1277 -0.1268  0.1854
  766MOL0     C 5603   5.603   2.104   7.923 -0.2074 -0.3121  0.0666
  766MOL0     C 5604   5.497   2.082   8.007 -0.2796  1.0618 -0.5101
  766MOL0     C 5605   5.364   2.094   7.980 -0.8023 -1.2768 -0.1942
  766MOL0     O 5606   5.269   2.065   8.078 -1.1358  0.8512 -0.6760
  766MOL0     C 5607   5.138   2.007   8.047 -0.0845  0.3847  0.1699
  766MOL0     C 5608   5.155   1.886   7.955  0.0438 -0.0496  0.1715
  766MOL0     C 5609   5.017   1.876   7.882 -0.5516 -0.1503  0.0765
  766MOL0     C 5610   4.912   1.830   7.980  0.0937 -1.0101  0.2028
  766MOL0     C 5611   4.773   1.829   7.921 -0.1122 -0.0565 -0.4014
  766MOL0     C 5612   4.680   1.746   8.012 -0.3687 -1.0025  0.5511
  766MOL0     C 5613   4.542   1.809   8.006 -0.0891  0.8850  0.8452
  766MOL0     C 5614   4.443   1.742   8.100  0.5501  1.3402 -0.0166
  766MOL0    Cl 5615   4.466   1.741   8.278 -0.2225  0.0820  0.0429
  766MOL0     C 5616   5.330   2.138   7.852 -0.3926 -0.8413  0.4221
  766MOL0     C 5617   5.439   2.175   7.764 -0.4891  0.7796 -0.1031
  766MOL0     O 5618   5.628   2.364   7.636 -0.2722 -0.1508 -0.8738
  766MOL0     C 5619   5.947   2.203   7.586 -0.5201 -0.3329  0.1473
  766MOL0     C 5620   6.074   2.204   7.516  0.3961 -0.2411 -0.5500
  766MOL0     N 5621   6.423   2.368   7.823  1.0438  0.3960  0.6521
  766MOL0     N 5622   6.352   2.443   7.901 -1.5574  0.0622 -0.3568
  766MOL0     C 5623   5.251   2.531   8.423  0.7161 -0.1262 -0.4957
  766MOL0     C 5624   5.155   2.448   8.492 -0.7559  0.4745  0.3105
  766MOL0     C 5625   4.977   2.130   8.697 -0.3967 -1.0894  0.6479
  766MOL0     C 5626   4.848   2.175   8.722  0.0500  0.2740  0.7513
  766MOL0     C 5627   4.774   2.119   8.832 -0.3263  0.7575  0.5367
  766MOL0     C 5628   4.832   2.033   8.926 -0.3387  0.0887 -0.3106
  766MOL0     O 5629   4.756   2.005   9.033  0.6661 -0.1446 -0.1198
  766MOL0     C 5630   4.660   1.904   9.009 -0.0986  0.0090 -0.6991
  766MOL0     C 5631   4.520   1.920   9.080  0.7054 -0.1969 -0.1603
  766MOL0     C 5632   4.520   1.888   9.231  0.1472 -0.0925  0.1661
  766MOL0     C 5633   4.382   1.909   9.284  0.0640 -0.1978  0.2316
  766MOL0     C 5634   4.277   1.830   9.221  0.4056  0.3900 -0.2086
  766MOL0     C 5635   4.186   1.771   9.165  0.2242  0.0957 -0.3553
  766MOL0     C 5636   4.960   1.998   8.903 -0.0991 -0.8144 -0.2769
  766MOL0     C 5637   5.031   2.041   8.787  0.3627 -0.6899  0.2280
  766MOL0     C 5638   5.179   1.994   8.783  0.2078 -0.1356  0.0597
  766MOL0     H 5639   5.057   2.249   8.242  2.2585 -0.4063 -0.2578
  766MOL0     H 5640   5.200   2.392   8.112  1.2091  2.5425 -0.0186
  766MOL0     H 5641   5.414   2.498   8.025 -1.4213  2.2685  0.6850
  766MOL0     H 5642   5.457   2.397   8.162 -1.9969  0.3282  2.1200
  766MOL0     H 5643   5.574   2.667   8.122 -0.6632  0.6064  1.2320
  766MOL0     H 5644   5.626   2.557   8.237  3.5714 -1.4166 -0.2004
  766MOL0     H 5645   5.680   2.383   8.072  3.4680  1.1164  0.4805
  766MOL0     H 5646   5.611   2.479   7.945 -1.7725  2.8635  0.2355
  766MOL0     H 5647   5.768   2.655   7.980 -0.4757 -0.4276 -1.2312
  766MOL0     H 5648   5.868   2.563   8.096  0.4392  2.2198 -0.9653
  766MOL0     H 5649   5.811   2.460   7.822 -0.0399 -2.2865  0.4381
  766MOL0     H 5650   5.907   2.387   7.933 -0.6139 -1.2310  2.8406
  766MOL0     H 5651   6.046   2.518   7.773 -0.2853  0.2187 -0.0310
  766MOL0     H 5652   5.950   2.669   7.813 -2.6039 -0.0646  2.3136
  766MOL0     H 5653   6.123   2.531   8.026 -1.5002 -0.6503  0.6724
  766MOL0     H 5654   6.065   2.687   8.030 -2.4924 -1.8182  1.1189
  766MOL0     H 5655   6.237   2.745   7.805  2.9060 -2.1453 -2.4537
  766MOL0     H 5656   6.294   2.722   7.964 -1.3780  5.8760 -3.4239
  766MOL0     H 5657   6.420   2.650   7.651 -0.1279  2.3277  2.3897
  766MOL0     H 5658   6.630   2.337   7.635  1.7290 -0.0360 -4.0822
  766MOL0     H 5659   6.611   2.513   7.593 -0.1060  0.4176  3.4953
  766MOL0     H 5660   6.432   2.472   7.448  1.2214  2.1813  3.2984
  766MOL0     H 5661   6.575   2.374   7.408  0.3985  2.6894 -0.5127
  766MOL0     H 5662   6.460   2.167   7.500 -1.4103  0.0706  1.2128
  766MOL0     H 5663   6.331   2.258   7.569  0.4706 -1.5681  1.5784
  766MOL0     H 5664   6.402   2.261   7.292  2.3224  0.1190  2.4906
  766MOL0     H 5665   6.288   2.138   7.359  0.3513 -0.1576  0.1672
  766MOL0     H 5666   6.005   2.488   7.323 -0.6784  0.8919  0.6601
  766MOL0     H 5667   5.786   2.554   7.330  3.3614 -2.2749 -1.0969
  766MOL0     H 5668   5.795   2.596   7.500 -0.0708 -0.7827  0.5822
  766MOL0     H 5669   5.663   2.490   7.445 -0.1894  1.4722 -2.3106
  766MOL0     H 5670   5.707   2.093   7.950  0.4268 -0.3410 -2.2169
  766MOL0     H 5671   5.520   2.049   8.107  1.8736  1.9318 -0.6517
  766MOL0     H 5672   5.108   1.968   8.145  3.0097 -0.4505  0.8909
  766MOL0     H 5673   5.068   2.082   8.009 -0.2233 -0.3046 -0.9628
  766MOL0     H 5674   5.230   1.910   7.879 -0.5627 -0.8168 -0.6890
  766MOL0     H 5675   5.193   1.794   7.999 -0.9745 -0.1399  0.8859
  766MOL0     H 5676   5.007   1.809   7.796 -2.9685  2.3786 -1.8141
  766MOL0     H 5677   4.990   1.973   7.839 -0.6382  0.2519  1.0242
  766MOL0     H 5678   4.910   1.892   8.070 -1.9334 -2.9121  1.5878
  766MOL0     H 5679   4.944   1.735   8.024 -0.7490 -0.1261  2.9186
  766MOL0     H 5680   4.736   1.932   7.914  1.0339  0.4575  0.7929
  766MOL0     H 5681   4.778   1.784   7.821 -2.4870  1.6298 -1.3767
  766MOL0     H 5682   4.712   1.754   8.117 -2.8220  3.1924  1.1985
  766MOL0     H 5683   4.680   1.643   7.973 -1.3672 -1.8029  2.5150
  766MOL0     H 5684   4.513   1.782   7.904  0.2548  1.6427  0.5409
  766MOL0     H 5685   4.541   1.918   8.013  2.4306  1.2172 -1.8569
  766MOL0     H 5686   4.454   1.638   8.065 -1.6929  1.5447 -1.4956
  766MOL0     H 5687   4.338   1.759   8.078 -0.5209 -1.0614  2.5828
  766MOL0     H 5688   5.232   2.149   7.806 -0.2582 -0.3564  0.2385
  766MOL0     H 5689   5.413   2.211   7.665 -3.0177  1.8931  0.8692
  766MOL0     H 5690   5.927   2.126   7.660 -0.2911 -1.3252 -0.8004
  766MOL0     H 5691   6.153   2.133   7.541 -0.4479 -0.1400  2.8237
  766MOL0     H 5692   5.312   2.605   8.474  1.7012 -0.5212 -1.0766
  766MOL0     H 5693   5.146   2.465   8.599  0.0178  1.3799  0.2438
  766MOL0     H 5694   4.805   2.238   8.645 -1.1175  0.8039  1.7971
  766MOL0     H 5695   4.676   2.161   8.852  0.1877  3.3721 -1.8167
  766MOL0     H 5696   4.642   1.890   8.902 -0.4343  1.0021 -0.7785
  766MOL0     H 5697   4.714   1.816   9.044  0.0373  0.3085 -0.1441
  766MOL0     H 5698   4.457   1.847   9.029  3.8103 -0.9988 -3.2487
  766MOL0     H 5699   4.477   2.019   9.061 -2.0571 -0.4184  3.7738
  766MOL0     H 5700   4.564   1.788   9.239  3.0321  1.1802  2.0679
  766MOL0     H 5701   4.592   1.962   9.269 -1.2690  1.3790  0.0842
  766MOL0     H 5702   4.354   2.013   9.270 -0.2607 -0.0768  1.6635
  766MOL0     H 5703   4.384   1.887   9.391 -0.1960 -1.2173  0.0451
  766MOL0     H 5704   4.111   1.717   9.111  1.1760  2.6674 -4.7872
  766MOL0     H 5705   4.999   1.936   8.983  0.5897  2.7863  2.3989
  766MOL0     H 5706   5.239   2.085   8.779 -1.2027  0.9176  1.6984
  766MOL0     H 5707   5.207   1.934   8.870 -2.7923  0.9079  1.9112
  766MOL0     H 5708   5.191   1.933   8.693 -0.7221 -1.1789  0.6221
  767MOL0     O 5709   5.391   3.350   9.201  0.2555  0.0400  0.3471
  767MOL0     C 5710   5.491   3.324   9.269  0.1897 -0.2865 -0.5172
  767MOL0     O 5711   5.485   3.286   9.398 -0.2648 -0.3578 -0.0365
  767MOL0     C 5712   5.364   3.241   9.442  0.3897  0.8537 -0.6702
  767MOL0     C 5713   5.341   3.096   9.440 -0.1255 -0.8885  0.6627
  767MOL0     C 5714   5.228   3.038   9.497  0.3797 -0.4978 -0.9209
  767MOL0     C 5715   5.133   3.118   9.565 -0.1187 -0.0725 -0.0591
  767MOL0     O 5716   5.040   3.065   9.657  0.4528  0.1568  0.4983
  767MOL0     C 5717   4.948   3.148   9.721  0.4283 -0.4928  0.5965
  767MOL0     C 5718   4.840   3.076   9.799  1.0705 -0.5423  0.1154
  767MOL0     C 5719   4.743   2.999   9.720  0.8110 -0.0624 -0.3844
  767MOL0     C 5720   4.616   2.950   9.795 -0.2452 -0.6111  0.3249
  767MOL0     C 5721   4.612   2.796   9.773  0.4532 -0.2358 -0.3283
  767MOL0     C 5722   4.589   2.721   9.634 -0.9764 -0.8140 -0.0790
  767MOL0     C 5723   4.484   2.774   9.540 -0.1997 -0.3270  0.6009
  767MOL0     C 5724   4.406   2.676   9.446 -0.0214 -0.5494  0.7103
  767MOL0     N 5725   4.501   2.599   9.363  0.2372  0.1412  0.1128
  767MOL0     C 5726   4.561   2.637   9.244 -0.3101 -0.4941 -0.3225
  767MOL0     C 5727   4.616   2.520   9.194  0.1521  1.1298 -0.7588
  767MOL0     C 5728   4.684   2.500   9.066 -0.1805  1.0384  0.2004
  767MOL0     C 5729   4.834   2.539   9.085  0.1107 -0.0270  1.2515
  767MOL0     C 5730   4.925   2.504   8.968 -0.0676 -0.1726 -0.1044
  767MOL0     C 5731   5.068   2.515   9.002 -0.1215  1.2157 -0.6264
  767MOL0     O 5732   5.141   2.448   8.899 -0.0345 -0.7047 -0.0718
  767MOL0     C 5733   5.281   2.471   8.890  0.1128  0.3363 -0.3692
  767MOL0     C 5734   5.354   2.411   8.791 -0.5456  0.1333 -0.4022
  767MOL0     C 5735   5.497   2.423   8.774 -0.4321 -0.7768 -0.4009
  767MOL0     C 5736   5.559   2.349   8.667 -0.9796 -0.7642  0.2066
  767MOL0     C 5737   5.569   2.502   8.870  0.4904 -0.5200 -0.7120
  767MOL0     C 5738   5.714   2.513   8.871  0.1342  0.2591  0.7796
  767MOL0     O 5739   5.778   2.558   8.982 -0.0904 -0.3999  0.2872
  767MOL0     C 5740   5.904   2.616   8.970  0.1623 -0.0052  0.1422
  767MOL0     C 5741   5.992   2.591   9.075 -0.1796 -0.1351  0.2449
  767MOL0     C 5742   6.120   2.643   9.079 -1.0059 -0.4253  0.9376
  767MOL0     C 5743   6.165   2.729   8.980  0.2499 -0.4229 -0.2901
  767MOL0     O 5744   6.283   2.796   8.979  0.4216  1.1552 -0.0344
  767MOL0     C 5745   6.332   2.837   9.102  0.7637  0.1103  0.7495
  767MOL0     C 5746   6.419   2.955   9.089 -0.7029 -0.7928 -0.0355
  767MOL0     C 5747   6.423   3.032   9.224 -0.9104 -0.1132  0.3092
  767MOL0     C 5748   6.532   3.138   9.214  0.0630  0.8501 -0.7843
  767MOL0     C 5749   6.546   3.234   9.330  0.7534 -0.4899 -0.6581
  767MOL0     C 5750   6.430   3.336   9.335  0.1045  1.4422 -1.5697
  767MOL0     C 5751   6.458   3.443   9.440  0.1275  0.2917 -0.0283
  767MOL0     C 5752   6.344   3.546   9.432  0.0095 -0.1334 -0.4314
  767MOL0    Cl 5753   6.361   3.678   9.300 -0.2938 -0.3336 -0.1768
  767MOL0     C 5754   6.075   2.762   8.875 -0.5066 -0.1202 -0.3660
  767MOL0     C 5755   5.952   2.701   8.869 -0.2744 -0.7321 -0.3348
  767MOL0     O 5756   5.765   2.499   8.760 -0.9001 -0.0800  0.2353
  767MOL0     C 5757   5.492   2.565   8.967 -0.3265 -0.8578 -0.0973
  767MOL0     C 5758   5.358   2.562   8.971  0.4054 -0.7516  0.6151
  767MOL0     N 5759   4.589   2.420   9.289  0.9963 -0.1792  0.1817
  767MOL0     N 5760   4.529   2.469   9.391  0.4756  0.2349 -0.5413
  767MOL0     C 5761   5.149   3.260   9.560 -0.3172 -0.7347  0.4070
  767MOL0     C 5762   5.258   3.322   9.489  1.3856  0.9114 -0.4866
  767MOL0     C 5763   5.626   3.333   9.201  0.8087 -0.0272  1.0659
  767MOL0     C 5764   5.722   3.226   9.223  0.1497  0.4962 -0.3787
  767MOL0     C 5765   5.847   3.236   9.168 -0.3228 -0.4349 -1.6650
  767MOL0     C 5766   5.876   3.351   9.089  0.3125 -0.2601 -0.3224
  767MOL0     O 5767   5.995   3.366   9.028  0.3040  0.0700 -0.2698
  767MOL0     C 5768   6.103   3.287   9.062 -0.3063 -0.1277  0.3322
  767MOL0     C 5769   6.232   3.356   9.008  0.4720  0.1550  0.6628
  767MOL0     C 5770   6.239   3.361   8.852  0.1243  0.6713 -0.8584
  767MOL0     C 5771   6.367   3.423   8.804 -1.3856 -0.2757 -0.3260
  767MOL0     C 5772   6.477   3.328   8.827 -0.6995  0.0911  0.6779
  767MOL0     C 5773   6.571   3.259   8.856  1.0675  0.0990  0.2525
  767MOL0     C 5774   5.780   3.452   9.073 -0.1919  0.1595 -0.9577
  767MOL0     C 5775   5.653   3.445   9.114  0.3833 -0.1284  0.1527
  767MOL0     C 5776   5.557   3.562   9.092 -0.3928 -0.3182 -0.4696
  767MOL0     H 5777   5.425   3.036   9.405  0.2206 -1.6281  2.6310
  767MOL0     H 5778   5.214   2.930   9.501 -0.8101 -0.3435 -0.3225
  767MOL0     H 5779   4.896   3.200   9.640  0.6771 -1.4432 -0.2049
  767MOL0     H 5780   4.987   3.223   9.789 -2.0540  2.8759 -1.3519
  767MOL0     H 5781   4.881   3.021   9.885 -2.6373 -0.5211  2.1048
  767MOL0     H 5782   4.782   3.151   9.853 -0.8922 -2.3769  0.7235
  767MOL0     H 5783   4.708   3.061   9.637  0.4434  1.4192  0.8497
  767MOL0     H 5784   4.801   2.915   9.679  0.7314 -1.0961  1.4964
  767MOL0     H 5785   4.594   2.978   9.899 -3.1171  1.6574 -0.7460
  767MOL0     H 5786   4.529   2.994   9.746  0.8676 -0.3832 -1.5577
  767MOL0     H 5787   4.534   2.765   9.843 -3.7457  2.9821 -3.0655
  767MOL0     H 5788   4.709   2.764   9.814 -0.3580  0.7749  2.5953
  767MOL0     H 5789   4.689   2.728   9.588 -0.9992 -0.3370 -0.0608
  767MOL0     H 5790   4.569   2.620   9.669 -1.3094  0.3532  3.4538
  767MOL0     H 5791   4.503   2.862   9.477 -0.6138 -0.9789 -0.4635
  767MOL0     H 5792   4.411   2.810   9.613  1.9945 -3.6697  4.8296
  767MOL0     H 5793   4.348   2.599   9.496  0.2161 -1.2111 -0.0003
  767MOL0     H 5794   4.337   2.729   9.379  1.1354  2.3113  1.6274
  767MOL0     H 5795   4.556   2.732   9.193  1.8477 -1.3413 -2.3023
  767MOL0     H 5796   4.646   2.553   8.978  2.9339  0.1115 -1.8657
  767MOL0     H 5797   4.687   2.394   9.041  3.4304  0.4485  2.3963
  767MOL0     H 5798   4.838   2.648   9.094 -3.3631  0.1589  2.3083
  767MOL0     H 5799   4.882   2.492   9.171  0.2296 -0.7889  0.7679
  767MOL0     H 5800   4.900   2.403   8.936 -1.0320  0.6023 -1.9520
  767MOL0     H 5801   4.905   2.572   8.884  1.3485 -0.5506 -0.7821
  767MOL0     H 5802   5.088   2.623   9.006 -1.9774  1.5509  1.3920
  767MOL0     H 5803   5.087   2.473   9.102 -3.6106  1.0083  0.0643
  767MOL0     H 5804   5.295   2.342   8.731 -1.7727 -1.0785  2.0630
  767MOL0     H 5805   5.488   2.295   8.603  2.0959 -0.7152 -3.6487
  767MOL0     H 5806   5.634   2.289   8.718 -1.1483 -1.7015 -0.6279
  767MOL0     H 5807   5.615   2.411   8.596  0.4434 -1.0556  1.0322
  767MOL0     H 5808   5.949   2.545   9.164 -0.7106 -0.7047 -0.2982
  767MOL0     H 5809   6.175   2.622   9.170 -0.1736  0.9080  0.7739
  767MOL0     H 5810   6.255   2.875   9.170  0.4603  2.0745 -0.6064
  767MOL0     H 5811   6.377   2.752   9.154  0.8199  0.6722  1.6221
  767MOL0     H 5812   6.517   2.927   9.049 -0.6429 -1.0506  0.2940
  767MOL0     H 5813   6.382   3.035   9.024  1.3155  1.1656  1.0810
  767MOL0     H 5814   6.456   2.962   9.301  3.5665  1.3858  0.0581
  767MOL0     H 5815   6.326   3.079   9.242 -0.7654 -0.6563  2.9303
  767MOL0     H 5816   6.503   3.198   9.127 -0.7410 -1.2291 -2.0003
  767MOL0     H 5817   6.627   3.088   9.191  0.8526  1.1974  1.4954
  767MOL0     H 5818   6.548   3.174   9.422 -2.2948 -1.7418 -1.2928
  767MOL0     H 5819   6.639   3.291   9.332 -0.1638  1.1145 -1.2000
  767MOL0     H 5820   6.331   3.295   9.359 -0.5921  3.0521 -1.5605
  767MOL0     H 5821   6.424   3.392   9.241 -0.6175  4.9184  0.3508
  767MOL0     H 5822   6.551   3.500   9.432 -1.1614  2.7280  0.8749
  767MOL0     H 5823   6.454   3.407   9.543  0.8092 -1.5933 -0.6287
  767MOL0     H 5824   6.353   3.592   9.531  0.3228 -1.6735  0.2804
  767MOL0     H 5825   6.245   3.500   9.436 -0.7080  1.4112  0.4778
  767MOL0     H 5826   6.097   2.851   8.817  0.6358  0.0192  0.2721
  767MOL0     H 5827   5.875   2.712   8.793 -0.5343 -2.4065 -0.3568
  767MOL0     H 5828   5.557   2.629   9.028 -0.8044  2.2880 -2.6264
  767MOL0     H 5829   5.306   2.618   9.048 -0.8081  0.4303 -0.9745
  767MOL0     H 5830   5.084   3.330   9.611 -0.1477  2.1813 -2.9651
  767MOL0     H 5831   5.268   3.429   9.507 -0.7537  1.5651 -2.7663
  767MOL0     H 5832   5.710   3.140   9.288 -1.6685  1.3178  0.4461
  767MOL0     H 5833   5.907   3.149   9.194 -1.0030  0.3722  3.7463
  767MOL0     H 5834   6.114   3.267   9.169 -0.6102 -1.4302  0.1446
  767MOL0     H 5835   6.103   3.183   9.026 -1.6596 -0.1473  0.3679
  767MOL0     H 5836   6.329   3.314   9.035  1.6917  1.0321 -1.9907
  767MOL0     H 5837   6.245   3.461   9.038  1.5690 -0.3733  2.1403
  767MOL0     H 5838   6.213   3.267   8.802  0.7342 -0.3192  0.6086
  767MOL0     H 5839   6.170   3.439   8.818  0.4502  2.2010  1.7339
  767MOL0     H 5840   6.382   3.523   8.843 -0.3218 -0.2428 -0.7987
  767MOL0     H 5841   6.359   3.431   8.695 -2.3502 -3.2043 -0.5605
  767MOL0     H 5842   6.645   3.183   8.873  0.7659  0.5091  4.2401
  767MOL0     H 5843   5.811   3.542   9.022  1.1651  1.2901  1.6786
  767MOL0     H 5844   5.600   3.636   9.024 -3.7358  1.6138 -0.7103
  767MOL0     H 5845   5.463   3.526   9.051 -0.7250  1.6782 -1.5815
  767MOL0     H 5846   5.530   3.612   9.186 -0.6281 -2.7047  0.8316
  768MOL0     O 5847   4.721   6.715   0.269 -0.4712 -0.1564  0.4305
  768MOL0     C 5848   4.635   6.794   0.268 -0.1792 -0.8759 -0.2113
  768MOL0     O 5849   4.547   6.817   0.379 -0.2710  0.2043  0.1669
  768MOL0     C 5850   4.577   6.744   0.496 -0.7912 -0.9021  0.0433
  768MOL0     C 5851   4.534   6.617   0.509 -0.5319  0.8233 -0.1518
  768MOL0     C 5852   4.563   6.537   0.621  0.0137 -0.8978  0.3227
  768MOL0     C 5853   4.642   6.582   0.724  0.0262  0.5555  0.2110
  768MOL0     O 5854   4.653   6.498   0.833 -0.3634  0.2084 -0.2570
  768MOL0     C 5855   4.757   6.511   0.928 -0.5057 -0.3513 -0.0950
  768MOL0     C 5856   4.705   6.441   1.059  0.0434 -0.1301  0.2503
  768MOL0     C 5857   4.674   6.293   1.036  0.4029 -0.1127 -0.5234
  768MOL0     C 5858   4.587   6.242   1.158  0.6378 -0.2014  0.4071
  768MOL0     C 5859   4.604   6.099   1.200  0.9209 -0.6966 -0.5179
  768MOL0     C 5860   4.496   6.053   1.301  0.2936 -0.4683 -0.4793
  768MOL0     C 5861   4.429   5.922   1.273  0.5092  0.1373  0.7346
  768MOL0     C 5862   4.345   5.874   1.391  0.6020 -0.3310  0.0074
  768MOL0     N 5863   4.435   5.791   1.480 -0.3896  0.1936 -0.5738
  768MOL0     C 5864   4.481   5.836   1.599  0.1366  0.2074 -0.3739
  768MOL0     C 5865   4.558   5.738   1.652  0.8076  0.4314  0.4693
  768MOL0     C 5866   4.640   5.733   1.784  0.3232  0.1377 -0.0895
  768MOL0     C 5867   4.787   5.766   1.737 -0.0120  0.5279  0.7143
  768MOL0     C 5868   4.875   5.738   1.865  0.3400 -0.3456 -0.7640
  768MOL0     C 5869   4.955   5.618   1.844  0.7451  0.1132  0.3128
  768MOL0     O 5870   4.882   5.494   1.875  0.8982 -0.1067  0.1737
  768MOL0     C 5871   4.883   5.441   2.005  0.1347  1.6827  0.0995
  768MOL0     C 5872   4.802   5.323   2.015 -0.3681  0.3411 -0.1027
  768MOL0     C 5873   4.775   5.259   2.135  0.0513  0.7584  0.1386
  768MOL0     C 5874   4.702   5.127   2.121  0.3949  0.7224  0.8693
  768MOL0     C 5875   4.827   5.322   2.254  1.4476 -0.0314 -0.9209
  768MOL0     C 5876   4.809   5.269   2.399  0.7677 -0.5849 -0.1216
  768MOL0     O 5877   4.861   5.332   2.511 -0.2117  0.1410  0.1338
  768MOL0     C 5878   4.835   5.284   2.639 -0.7646  0.3617  0.0426
  768MOL0     C 5879   4.896   5.169   2.696  0.0429  0.3481 -0.5039
  768MOL0     C 5880   4.870   5.123   2.823 -0.0872  0.0473 -0.6002
  768MOL0     C 5881   4.769   5.200   2.889 -0.3134  0.0721 -0.8954
  768MOL0     O 5882   4.734   5.186   3.021  0.0925  0.3746  0.3366
  768MOL0     C 5883   4.805   5.085   3.088 -0.2818 -0.5537 -0.0484
  768MOL0     C 5884   4.767   5.054   3.232  1.0655 -0.4694  0.3930
  768MOL0     C 5885   4.653   4.954   3.239  0.2224  0.2432  0.2473
  768MOL0     C 5886   4.516   5.015   3.188  0.7038 -0.7848 -0.9088
  768MOL0     C 5887   4.402   4.928   3.225  0.4004  0.1571 -0.4306
  768MOL0     C 5888   4.271   4.972   3.150  0.3775  0.1509  0.3934
  768MOL0     C 5889   4.140   4.906   3.205  0.7850  0.3345 -0.8529
  768MOL0     C 5890   4.025   4.989   3.163 -0.4239  0.3906  0.0982
  768MOL0    Cl 5891   3.980   4.918   3.002 -0.0697  0.0322 -0.3971
  768MOL0     C 5892   4.696   5.299   2.833 -0.2218 -0.4209  0.4317
  768MOL0     C 5893   4.732   5.353   2.705 -0.0571 -0.4389 -0.5564
  768MOL0     O 5894   4.724   5.176   2.412  0.0596 -0.7570  0.0457
  768MOL0     C 5895   4.916   5.434   2.247  0.4484  0.5007  0.3767
  768MOL0     C 5896   4.932   5.494   2.121 -0.3184 -0.5172  0.2919
  768MOL0     N 5897   4.555   5.629   1.565  0.4628  1.1938  0.2110
  768MOL0     N 5898   4.472   5.661   1.457  0.4652  0.0261 -0.2022
  768MOL0     C 5899   4.685   6.716   0.718 -1.0014  0.2510 -0.4401
  768MOL0     C 5900   4.666   6.800   0.600 -0.4058 -0.1066  0.6838
  768MOL0     C 5901   4.616   6.879   0.150  0.6301 -0.9671 -1.0333
  768MOL0     C 5902   4.486   6.913   0.123  0.2103  0.4961  1.8398
  768MOL0     C 5903   4.447   6.979  -0.002  0.6243 -0.5068 -0.5707
  768MOL0     C 5904   4.551   7.022  -0.091  0.1525  0.5684 -0.0296
  768MOL0     O 5905   4.537   7.080  -0.213  0.1881 -1.1516  0.3130
  768MOL0     C 5906   4.414   7.084  -0.288  0.2507  0.2351 -0.1597
  768MOL0     C 5907   4.449   7.123  -0.432  0.1355 -0.0997  0.2646
  768MOL0     C 5908   4.467   7.276  -0.445 -0.6816  0.0213 -0.8707
  768MOL0     C 5909   4.559   7.301  -0.568 -0.1228  0.4018  0.1793
  768MOL0     C 5910   4.490   7.268  -0.690 -1.0576 -1.4634  0.0010
  768MOL0     C 5911   4.428   7.236  -0.780 -0.2042  0.0892  0.8502
  768MOL0     C 5912   4.682   6.987  -0.053  0.0331 -0.4499  1.1940
  768MOL0     C 5913   4.715   6.920   0.066 -0.7918 -0.5543  1.0772
  768MOL0     C 5914   4.855   6.874   0.063  0.4724 -0.2744 -0.4671
  768MOL0     H 5915   4.470   6.575   0.433 -1.4416  0.2759  0.8870
  768MOL0     H 5916   4.511   6.442   0.631 -2.0572 -0.4413 -3.6329
  768MOL0     H 5917   4.779   6.616   0.949  1.1696  0.2046 -3.9249
  768MOL0     H 5918   4.854   6.469   0.899  0.5832  2.2931 -0.5482
  768MOL0     H 5919   4.791   6.449   1.125  0.1403  1.6343 -0.0548
  768MOL0     H 5920   4.619   6.484   1.111  0.5771 -0.0099  1.0511
  768MOL0     H 5921   4.615   6.274   0.946 -1.3041 -0.3824  0.5994
  768MOL0     H 5922   4.765   6.233   1.035 -0.0140 -0.7471 -0.5348
  768MOL0     H 5923   4.593   6.315   1.239  1.8955  1.3676 -1.0137
  768MOL0     H 5924   4.483   6.245   1.123  1.2429 -2.2212 -1.8599
  768MOL0     H 5925   4.697   6.091   1.257 -0.6203  1.9789  2.7051
  768MOL0     H 5926   4.619   6.030   1.117  2.5187 -0.7216 -0.2406
  768MOL0     H 5927   4.550   6.048   1.397 -0.2326  0.4514 -0.1156
  768MOL0     H 5928   4.431   6.137   1.328  2.0909  0.7874  0.1463
  768MOL0     H 5929   4.507   5.850   1.249  0.7181  0.4424  0.4834
  768MOL0     H 5930   4.367   5.925   1.183  0.5039 -1.1882  0.6821
  768MOL0     H 5931   4.304   5.958   1.446 -0.3669 -0.3780 -0.6157
  768MOL0     H 5932   4.264   5.809   1.357 -0.3479 -0.5455  2.5072
  768MOL0     H 5933   4.456   5.933   1.640 -0.6447  0.1189 -0.6288
  768MOL0     H 5934   4.639   5.633   1.826  3.0420  0.0214 -0.0988
  768MOL0     H 5935   4.608   5.800   1.863  1.3839 -0.8442  1.2135
  768MOL0     H 5936   4.816   5.699   1.656  0.3188 -1.0987  2.1266
  768MOL0     H 5937   4.804   5.870   1.708  1.7584 -0.0499 -0.5135
  768MOL0     H 5938   4.943   5.819   1.891  0.6744 -0.8965  0.0928
  768MOL0     H 5939   4.818   5.723   1.958  0.9443 -0.9649 -0.4861
  768MOL0     H 5940   4.992   5.616   1.741 -1.9795  1.1104 -0.7941
  768MOL0     H 5941   5.037   5.623   1.916 -0.6438 -2.2164  2.2076
  768MOL0     H 5942   4.737   5.290   1.936  0.7917 -1.7263 -0.2696
  768MOL0     H 5943   4.597   5.129   2.154 -0.0320 -0.7511 -0.3004
  768MOL0     H 5944   4.753   5.048   2.177  0.5646 -0.3372 -0.7113
  768MOL0     H 5945   4.691   5.090   2.019  1.3251 -1.4353  1.4987
  768MOL0     H 5946   4.969   5.112   2.640  0.0949  1.6322 -1.7708
  768MOL0     H 5947   4.921   5.042   2.874  2.4010  0.8814 -1.6167
  768MOL0     H 5948   4.791   4.989   3.037 -1.4242 -1.0922  1.2286
  768MOL0     H 5949   4.910   5.114   3.081 -0.7558  1.5446  0.6702
  768MOL0     H 5950   4.850   5.019   3.295  0.7373  0.1899  1.2036
  768MOL0     H 5951   4.725   5.145   3.275  1.7005  1.0122 -1.9402
  768MOL0     H 5952   4.645   4.936   3.347 -0.8953  0.9379  0.3038
  768MOL0     H 5953   4.666   4.858   3.188 -2.3050 -0.6646  1.1255
  768MOL0     H 5954   4.519   5.017   3.078  1.9293  3.4279 -0.9906
  768MOL0     H 5955   4.502   5.118   3.222 -1.9663 -0.0928 -3.6502
  768MOL0     H 5956   4.412   4.826   3.188  0.0633  0.1755 -0.5833
  768MOL0     H 5957   4.378   4.912   3.330 -0.7079 -1.9092 -0.9334
  768MOL0     H 5958   4.289   4.930   3.051 -3.1800 -1.4195  0.2817
  768MOL0     H 5959   4.270   5.082   3.146  0.5884  0.1381 -0.2182
  768MOL0     H 5960   4.157   4.909   3.313  2.2072 -0.4442 -1.0299
  768MOL0     H 5961   4.136   4.800   3.176  2.0047  0.5409 -1.8784
  768MOL0     H 5962   4.059   5.091   3.144  0.9898 -0.0481  0.1724
  768MOL0     H 5963   3.946   4.994   3.238  1.4257 -0.7410  2.2503
  768MOL0     H 5964   4.628   5.353   2.899  1.8376  0.7055  1.7541
  768MOL0     H 5965   4.674   5.423   2.646 -1.0258 -0.2211  0.6135
  768MOL0     H 5966   4.958   5.491   2.329 -0.8848  2.2707 -0.1044
  768MOL0     H 5967   4.965   5.597   2.128 -1.4308  0.0103 -1.5965
  768MOL0     H 5968   4.736   6.755   0.805 -2.3889 -2.2239  1.6093
  768MOL0     H 5969   4.700   6.903   0.601  2.7838 -1.0279 -0.9557
  768MOL0     H 5970   4.411   6.881   0.194 -1.5464  0.9125  0.2293
  768MOL0     H 5971   4.345   7.006  -0.027  1.2869  2.0092 -0.8778
  768MOL0     H 5972   4.372   6.982  -0.285 -1.1327  0.7926  1.4089
  768MOL0     H 5973   4.337   7.149  -0.245  2.2428  1.7902  1.2286
  768MOL0     H 5974   4.363   7.101  -0.497  1.6954  0.3484 -2.0832
  768MOL0     H 5975   4.530   7.056  -0.460 -0.9424 -1.8219  1.0651
  768MOL0     H 5976   4.372   7.330  -0.438 -0.9338 -0.1475 -2.4907
  768MOL0     H 5977   4.514   7.316  -0.355 -3.6445  1.6147  0.1155
  768MOL0     H 5978   4.661   7.263  -0.555  0.1800  1.0383 -0.3160
  768MOL0     H 5979   4.576   7.409  -0.570  1.5175  0.2204  1.7331
  768MOL0     H 5980   4.375   7.218  -0.872  3.8242 -0.4516 -1.6210
  768MOL0     H 5981   4.753   7.019  -0.129  0.4442 -0.8019  1.4269
  768MOL0     H 5982   4.866   6.766   0.058 -0.8503 -0.4120 -0.8774
  768MOL0     H 5983   4.896   6.920  -0.028 -1.8086  1.4373 -0.7376
  768MOL0     H 5984   4.917   6.909   0.146 -2.1458  0.5237  1.2808
  769MOL0     O 5985   1.557   2.197   8.163  0.3288 -0.6000 -0.0735
  769MOL0     C 5986   1.455   2.125   8.165  0.1762 -0.7969  0.0551
  769MOL0     O 5987   1.379   2.096   8.272 -0.4856  0.1395 -0.5908
  769MOL0     C 5988   1.435   2.103   8.396  0.5027  0.3083 -0.3286
  769MOL0     C 5989   1.411   2.214   8.467  0.1689  0.3297  0.0356
  769MOL0     C 5990   1.475   2.227   8.596 -0.0974  0.5096 -0.0762
  769MOL0     C 5991   1.566   2.131   8.644 -0.3570 -0.2665  0.2161
  769MOL0     O 5992   1.644   2.150   8.753 -0.4453  0.2149  0.0882
  769MOL0     C 5993   1.591   2.208   8.875  0.1583  0.1379 -0.0292
  769MOL0     C 5994   1.607   2.362   8.880 -0.3965 -0.6651 -1.0382
  769MOL0     C 5995   1.571   2.449   9.006 -0.0359 -0.3937  0.1630
  769MOL0     C 5996   1.447   2.384   9.076 -0.1976 -0.1294  0.4530
  769MOL0     C 5997   1.372   2.468   9.176 -0.1620 -0.2040  0.3243
  769MOL0     C 5998   1.308   2.585   9.106 -0.2300 -0.1815 -0.2322
  769MOL0     C 5999   1.249   2.680   9.207  0.3768 -0.3956 -0.8948
  769MOL0     C 6000   1.115   2.627   9.273  0.0651 -0.2929 -0.6202
  769MOL0     N 6001   1.003   2.615   9.183 -0.1277  0.5084 -0.0571
  769MOL0     C 6002   0.941   2.719   9.115  0.5159 -0.5632  0.6561
  769MOL0     C 6003   0.837   2.663   9.046  0.2054  0.0530 -0.5523
  769MOL0     C 6004   0.733   2.732   8.963 -1.1259 -1.3178  0.4387
  769MOL0     C 6005   0.599   2.671   9.009  0.2682 -0.3602 -0.3591
  769MOL0     C 6006   0.482   2.753   8.952  1.1092  0.1651  0.2283
  769MOL0     C 6007   0.444   2.706   8.806 -0.2196  0.1221  0.0450
  769MOL0     O 6008   0.535   2.749   8.703 -0.9208  0.7825 -0.2042
  769MOL0     C 6009   0.532   2.653   8.604 -0.1888 -0.0381 -0.1567
  769MOL0     C 6010   0.499   2.688   8.473 -0.5921  0.1545 -0.0093
  769MOL0     C 6011   0.484   2.605   8.368  0.2875 -0.4615 -0.3245
  769MOL0     C 6012   0.424   2.655   8.238 -0.2516  0.0894  0.7734
  769MOL0     C 6013   0.516   2.470   8.394  0.0693  0.3611  0.1747
  769MOL0     C 6014   0.515   2.371   8.287  0.2884 -0.5140  0.4996
  769MOL0     O 6015   0.456   2.246   8.312 -0.0283 -0.0674  0.5424
  769MOL0     C 6016   0.440   2.154   8.204  0.4606 -0.2866  0.7568
  769MOL0     C 6017   0.313   2.108   8.173  0.0685 -0.5707 -0.0218
  769MOL0     C 6018   0.300   2.005   8.089  0.1453  0.7574  0.1763
  769MOL0     C 6019   0.410   1.948   8.027 -0.2790  0.7313  0.5822
  769MOL0     O 6020   0.374   1.856   7.939  0.5303  0.4182  0.3697
  769MOL0     C 6021   0.442   1.838   7.812 -0.1773 -0.8111  0.4225
  769MOL0     C 6022   0.496   1.698   7.799 -0.2240  0.0994 -0.0601
  769MOL0     C 6023   0.556   1.679   7.663 -0.2617 -0.7185  0.5091
  769MOL0     C 6024   0.454   1.691   7.556 -0.1636  0.1783 -1.5417
  769MOL0     C 6025   0.498   1.628   7.433 -0.5475  0.6172  0.0013
  769MOL0     C 6026   0.390   1.605   7.334  0.5586  0.2804 -0.8696
  769MOL0     C 6027   0.458   1.589   7.198 -0.4296  0.0320  1.4163
  769MOL0     C 6028   0.351   1.552   7.090 -0.5513  0.7486 -1.1406
  769MOL0    Cl 6029   0.321   1.382   7.102  0.0875  0.6534 -0.0044
  769MOL0     C 6030   0.535   2.003   8.047  0.0561  0.3428  0.1779
  769MOL0     C 6031   0.556   2.107   8.135  0.7302 -0.1342  0.6828
  769MOL0     O 6032   0.571   2.411   8.187 -1.2294 -0.1215  1.2031
  769MOL0     C 6033   0.556   2.425   8.523  0.0193  0.4675 -0.3381
  769MOL0     C 6034   0.565   2.520   8.622 -0.4248 -0.2450  0.3054
  769MOL0     N 6035   0.842   2.533   9.083 -0.4086 -0.3716 -0.5302
  769MOL0     N 6036   0.938   2.500   9.159 -0.0923 -0.1688 -0.8199
  769MOL0     C 6037   1.585   2.018   8.569 -0.3602 -0.3483 -0.3674
  769MOL0     C 6038   1.511   2.003   8.455 -0.1051  0.0749  1.0790
  769MOL0     C 6039   1.414   2.068   8.030 -0.2328  0.4083  0.6059
  769MOL0     C 6040   1.297   1.992   8.029 -0.8598 -0.6198  0.2224
  769MOL0     C 6041   1.245   1.935   7.908  0.2447 -0.0352  0.2943
  769MOL0     C 6042   1.310   1.955   7.789 -0.7333  0.8048 -1.3650
  769MOL0     O 6043   1.257   1.887   7.679 -1.6739  0.3103  0.4856
  769MOL0     C 6044   1.350   1.831   7.582  0.8302 -0.1907  0.8138
  769MOL0     C 6045   1.277   1.713   7.513 -0.0239 -0.2605  0.5668
  769MOL0     C 6046   1.183   1.777   7.409  0.1328  0.3836  0.5551
  769MOL0     C 6047   1.121   1.667   7.329 -0.2403  0.2063  0.5014
  769MOL0     C 6048   1.048   1.728   7.229 -0.3085  0.3719  0.9006
  769MOL0     C 6049   0.966   1.772   7.158 -0.7181 -0.9278 -0.0097
  769MOL0     C 6050   1.427   2.020   7.787 -0.1267  0.1002  0.2617
  769MOL0     C 6051   1.481   2.083   7.900  1.1731 -1.2962 -0.0119
  769MOL0     C 6052   1.611   2.153   7.879  0.1268 -0.5336 -0.9878
  769MOL0     H 6053   1.337   2.276   8.418 -3.5282 -3.2513  0.5173
  769MOL0     H 6054   1.457   2.315   8.657  1.0454  0.2968  0.5958
  769MOL0     H 6055   1.653   2.166   8.955 -3.1931  0.0004  2.7393
  769MOL0     H 6056   1.494   2.167   8.904  1.4607 -3.7547 -0.6179
  769MOL0     H 6057   1.710   2.394   8.859 -1.2416  2.4645 -0.8980
  769MOL0     H 6058   1.541   2.401   8.802 -1.1759 -3.1574 -1.7355
  769MOL0     H 6059   1.655   2.474   9.072 -1.7621  2.4588  1.4901
  769MOL0     H 6060   1.546   2.544   8.959 -1.4440 -1.0761 -0.5251
  769MOL0     H 6061   1.367   2.359   9.006 -0.8355  0.9831  0.7684
  769MOL0     H 6062   1.470   2.287   9.121  1.1679 -0.7444 -1.4238
  769MOL0     H 6063   1.428   2.513   9.259  1.0685  1.5324 -1.3766
  769MOL0     H 6064   1.303   2.397   9.224  0.3135 -1.4281 -0.7490
  769MOL0     H 6065   1.378   2.641   9.044  0.3547  0.3600  0.8888
  769MOL0     H 6066   1.231   2.543   9.040 -1.3482  0.8005  0.4050
  769MOL0     H 6067   1.224   2.778   9.167  1.4544  0.9013  1.4223
  769MOL0     H 6068   1.316   2.719   9.285  0.6355  0.9497 -1.7658
  769MOL0     H 6069   1.133   2.531   9.323  2.8844  0.9715  1.0825
  769MOL0     H 6070   1.092   2.703   9.348 -0.1707  2.0607 -2.9215
  769MOL0     H 6071   0.952   2.826   9.129 -1.6687  0.0272 -1.6223
  769MOL0     H 6072   0.735   2.715   8.855  3.6179  0.5813 -0.0000
  769MOL0     H 6073   0.734   2.840   8.976  2.0082 -0.6519 -3.5121
  769MOL0     H 6074   0.585   2.567   8.978 -0.8553  0.0505 -1.2894
  769MOL0     H 6075   0.615   2.661   9.117  1.2151 -4.0298 -0.7219
  769MOL0     H 6076   0.400   2.716   9.015  1.0186  1.1616  0.7099
  769MOL0     H 6077   0.492   2.861   8.963  1.2612  0.4589 -2.2412
  769MOL0     H 6078   0.413   2.602   8.807 -3.5830  1.0027  1.7064
  769MOL0     H 6079   0.354   2.763   8.781  1.1515  1.9249 -1.0398
  769MOL0     H 6080   0.467   2.790   8.452 -3.5499 -0.1721  2.2197
  769MOL0     H 6081   0.337   2.603   8.198  1.5547  0.1411 -3.8632
  769MOL0     H 6082   0.498   2.644   8.159 -1.1834 -0.0249 -0.1049
  769MOL0     H 6083   0.400   2.762   8.242  4.1410  1.3823 -0.9382
  769MOL0     H 6084   0.219   2.153   8.207  0.7146  0.4495  0.4665
  769MOL0     H 6085   0.202   1.961   8.071  0.9384 -0.8529 -0.4754
  769MOL0     H 6086   0.369   1.861   7.734  0.6721  1.3513  0.1707
  769MOL0     H 6087   0.519   1.916   7.807 -2.1032  1.1022 -2.6766
  769MOL0     H 6088   0.570   1.698   7.880  1.9643  1.0720 -1.9512
  769MOL0     H 6089   0.419   1.622   7.815  1.3058 -1.1860  1.7034
  769MOL0     H 6090   0.597   1.578   7.662 -0.0280 -0.6421  1.4538
  769MOL0     H 6091   0.638   1.748   7.640  2.2947 -3.8776 -0.4509
  769MOL0     H 6092   0.424   1.791   7.521 -2.4598  0.4551  0.8904
  769MOL0     H 6093   0.370   1.633   7.596  2.5968 -1.7857  1.9139
  769MOL0     H 6094   0.568   1.697   7.385 -2.8693  2.4358 -0.9173
  769MOL0     H 6095   0.554   1.535   7.449  1.5913  2.0142  1.1781
  769MOL0     H 6096   0.311   1.681   7.330 -1.7354 -1.7955  1.7567
  769MOL0     H 6097   0.346   1.505   7.338 -2.5191  1.3216 -3.6004
  769MOL0     H 6098   0.535   1.511   7.194 -0.5426 -0.0450 -0.9677
  769MOL0     H 6099   0.494   1.686   7.163 -0.3807 -0.3387  0.4058
  769MOL0     H 6100   0.398   1.559   6.992  1.8410 -1.3123 -0.2836
  769MOL0     H 6101   0.251   1.595   7.097  0.1305  2.1516  1.2395
  769MOL0     H 6102   0.620   1.945   8.014  0.2070  0.1419  0.9237
  769MOL0     H 6103   0.652   2.139   8.174  1.1971 -1.6631  0.8643
  769MOL0     H 6104   0.582   2.322   8.543 -0.3726  0.6040  0.9922
  769MOL0     H 6105   0.602   2.489   8.720 -1.5650 -1.6487  0.3310
  769MOL0     H 6106   1.659   1.942   8.596  0.3186  0.1243 -0.8812
  769MOL0     H 6107   1.536   1.914   8.398 -1.6706  1.0205 -1.2067
  769MOL0     H 6108   1.245   1.963   8.120  1.6065 -2.8066  1.0653
  769MOL0     H 6109   1.153   1.876   7.908 -2.3852  3.5584 -3.1231
  769MOL0     H 6110   1.381   1.906   7.509  2.7390 -2.8444 -1.2998
  769MOL0     H 6111   1.429   1.781   7.638 -1.4086 -1.2494  3.2509
  769MOL0     H 6112   1.223   1.649   7.583 -0.8836 -0.6360 -0.4228
  769MOL0     H 6113   1.354   1.644   7.478  2.1953  0.6486  3.2425
  769MOL0     H 6114   1.112   1.832   7.472 -0.2338 -0.2991  0.7461
  769MOL0     H 6115   1.234   1.851   7.347  1.9879 -0.9455  0.4084
  769MOL0     H 6116   1.059   1.616   7.404  1.8749 -2.1706  0.7575
  769MOL0     H 6117   1.192   1.590   7.298  1.1341  2.0694 -1.2594
  769MOL0     H 6118   0.892   1.835   7.111  0.4704  2.0209  1.7725
  769MOL0     H 6119   1.484   2.026   7.696  0.8977 -2.4371  0.6379
  769MOL0     H 6120   1.594   2.258   7.904 -3.0390 -1.4887  1.5261
  769MOL0     H 6121   1.673   2.112   7.959 -0.3089  3.5496  1.7515
  769MOL0     H 6122   1.660   2.130   7.783 -0.6024 -0.8486 -1.2914
  770MOL0     O 6123  11.350  10.739   5.536  1.2782 -0.2337 -0.6128
  770MOL0     C 6124  11.319  10.692   5.649 -0.0504  0.0997  0.1583
  770MOL0     O 6125  11.203  10.715   5.720  0.4827 -0.0450 -0.0915
  770MOL0     C 6126  11.100  10.787   5.680 -0.0086  0.2428  0.7136
  770MOL0     C 6127  11.116  10.912   5.608 -0.3393  0.2908 -0.3959
  770MOL0     C 6128  11.011  10.962   5.528  0.5855 -0.6408  0.0726
  770MOL0     C 6129  10.877  10.906   5.535  0.0206 -0.7568 -0.3977
  770MOL0     O 6130  10.773  10.959   5.454 -0.2912  0.6970 -0.3115
  770MOL0     C 6131  10.632  10.948   5.495  0.4621 -0.7350 -0.2833
  770MOL0     C 6132  10.551  10.838   5.432  0.6084 -0.4160  0.4996
  770MOL0     C 6133  10.572  10.854   5.275 -0.1527 -0.1159 -0.3997
  770MOL0     C 6134  10.459  10.782   5.196  0.2879 -0.3069  0.5652
  770MOL0     C 6135  10.464  10.819   5.042 -0.1608 -0.1736 -0.6515
  770MOL0     C 6136  10.408  10.959   4.996 -0.1260 -0.9912 -0.1614
  770MOL0     C 6137  10.408  10.984   4.841 -1.0755 -0.1331 -0.1263
  770MOL0     C 6138  10.328  11.109   4.811 -0.0855 -0.5156  0.0829
  770MOL0     N 6139  10.379  11.241   4.836 -0.7299 -0.8111 -0.0024
  770MOL0     C 6140  10.508  11.283   4.812  0.9321  0.1554 -0.8431
  770MOL0     C 6141  10.504  11.417   4.839 -1.0273 -0.1715  1.2332
  770MOL0     C 6142  10.628  11.502   4.829 -0.2212  0.4125 -0.6379
  770MOL0     C 6143  10.710  11.471   4.707 -0.5243  0.4051 -0.5700
  770MOL0     C 6144  10.641  11.485   4.575  0.1573 -0.3673 -0.2236
  770MOL0     C 6145  10.736  11.511   4.458 -0.8026 -0.3882  0.6041
  770MOL0     O 6146  10.847  11.599   4.497  0.0414  0.2306  0.2026
  770MOL0     C 6147  10.925  11.643   4.391 -0.0535  0.2833  0.0763
  770MOL0     C 6148  10.972  11.773   4.387  0.5165 -0.2773 -0.0152
  770MOL0     C 6149  11.049  11.828   4.281 -0.2253 -0.1343 -0.1478
  770MOL0     C 6150  11.085  11.975   4.295 -0.4245 -1.3417 -1.0083
  770MOL0     C 6151  11.102  11.742   4.182  0.7735  0.5498 -0.0235
  770MOL0     C 6152  11.172  11.781   4.061 -0.1927  0.6545  0.3653
  770MOL0     O 6153  11.180  11.672   3.971 -1.2279 -0.0592 -0.3915
  770MOL0     C 6154  11.270  11.692   3.869  0.7557  0.4359 -0.2273
  770MOL0     C 6155  11.246  11.779   3.757 -0.3165  0.2825  0.2853
  770MOL0     C 6156  11.348  11.804   3.660  0.3565  0.6974 -0.1497
  770MOL0     C 6157  11.477  11.744   3.677 -0.2131  0.2654  0.5735
  770MOL0     O 6158  11.563  11.776   3.577  0.2660  0.4460 -0.2154
  770MOL0     C 6159  11.698  11.729   3.583  0.5730  0.4566 -0.2443
  770MOL0     C 6160  11.745  11.745   3.439  1.2905  0.3322  0.6567
  770MOL0     C 6161  11.764  11.884   3.399 -0.3474 -1.2008 -0.5938
  770MOL0     C 6162  11.889  11.947   3.464  0.2483  0.3080  0.3897
  770MOL0     C 6163  11.931  12.078   3.409  0.0970 -0.0070 -0.4507
  770MOL0     C 6164  12.082  12.107   3.453 -0.0351  0.3307  0.1377
  770MOL0     C 6165  12.143  12.224   3.382  0.2293  0.1017  0.4654
  770MOL0     C 6166  12.283  12.266   3.431  0.4502 -0.4170  0.8364
  770MOL0    Cl 6167  12.391  12.158   3.349 -0.0971  0.2622 -0.1701
  770MOL0     C 6168  11.492  11.648   3.782 -0.0992  0.5845  0.2806
  770MOL0     C 6169  11.393  11.639   3.880  0.5988  0.3391  0.3667
  770MOL0     O 6170  11.213  11.892   4.039 -0.1724 -0.4903  0.4704
  770MOL0     C 6171  11.053  11.602   4.190 -0.2479 -0.3598  0.3757
  770MOL0     C 6172  10.963  11.563   4.292  0.7134  0.3920  0.5786
  770MOL0     N 6173  10.376  11.452   4.882  0.3526 -0.1496 -0.0311
  770MOL0     N 6174  10.307  11.344   4.882 -0.8730  0.4389 -0.5355
  770MOL0     C 6175  10.862  10.796   5.615 -0.3261  1.3362  0.0225
  770MOL0     C 6176  10.971  10.732   5.679  0.7756  0.1541  0.3820
  770MOL0     C 6177  11.410  10.575   5.694  0.0853 -0.8554 -0.2329
  770MOL0     C 6178  11.345  10.454   5.736  0.2509 -0.6827  0.3975
  770MOL0     C 6179  11.423  10.365   5.796  0.0050 -0.1854  0.1122
  770MOL0     C 6180  11.566  10.369   5.806  0.1130  0.1767  0.3571
  770MOL0     O 6181  11.621  10.260   5.852 -0.3989  0.0642 -0.5629
  770MOL0     C 6182  11.766  10.277   5.891  0.4431  1.1182 -0.6288
  770MOL0     C 6183  11.798  10.148   5.976  0.6366  0.1807  0.3301
  770MOL0     C 6184  11.738  10.160   6.122 -0.3658 -0.6089 -1.2520
  770MOL0     C 6185  11.611  10.066   6.141 -0.5651 -0.4895  0.2513
  770MOL0     C 6186  11.555  10.093   6.267  0.0322 -0.3381  0.5164
  770MOL0     C 6187  11.484  10.120   6.357  0.1419  0.4506 -0.4373
  770MOL0     C 6188  11.631  10.469   5.735  0.0308  0.0084 -0.4097
  770MOL0     C 6189  11.554  10.578   5.683 -0.9789 -0.5341  0.0101
  770MOL0     C 6190  11.642  10.687   5.626  0.4708  0.1289 -0.2549
  770MOL0     H 6191  11.213  10.960   5.616 -0.6941  1.1826 -1.2202
  770MOL0     H 6192  11.025  11.050   5.465  1.6816  0.9757  2.3994
  770MOL0     H 6193  10.569  11.034   5.471 -0.9840 -1.4804  0.7250
  770MOL0     H 6194  10.626  10.947   5.604  2.8006  0.3324 -0.0850
  770MOL0     H 6195  10.565  10.733   5.459 -0.6241 -0.5264  0.7861
  770MOL0     H 6196  10.442  10.845   5.441  0.1891 -2.0157 -2.0503
  770MOL0     H 6197  10.562  10.959   5.245  0.6207 -0.0506 -0.4667
  770MOL0     H 6198  10.675  10.828   5.246  1.3424  0.8876  3.3221
  770MOL0     H 6199  10.470  10.674   5.209  2.0516 -0.3217 -0.7121
  770MOL0     H 6200  10.366  10.823   5.237  0.9382  1.6900  0.1488
  770MOL0     H 6201  10.410  10.746   4.982  0.7699 -1.3679 -0.0771
  770MOL0     H 6202  10.569  10.801   5.015 -0.0503 -1.4402  0.5432
  770MOL0     H 6203  10.305  10.950   5.032  0.3750 -1.5607  1.1841
  770MOL0     H 6204  10.462  11.043   5.040  2.9447 -2.1295 -1.5169
  770MOL0     H 6205  10.377  10.896   4.784 -0.1510 -1.2403  1.0328
  770MOL0     H 6206  10.511  10.995   4.805 -1.3414 -2.6008 -1.9636
  770MOL0     H 6207  10.302  11.104   4.705 -1.6691 -1.1774  0.4680
  770MOL0     H 6208  10.234  11.105   4.866  0.8042  0.6891  1.7728
  770MOL0     H 6209  10.585  11.225   4.763 -1.9172 -3.4818 -1.4222
  770MOL0     H 6210  10.686  11.480   4.920 -0.0927 -0.7940 -1.0009
  770MOL0     H 6211  10.605  11.609   4.817 -0.4705  0.2885 -1.2499
  770MOL0     H 6212  10.802  11.531   4.714 -0.3246 -0.0752  2.2337
  770MOL0     H 6213  10.737  11.365   4.706 -1.2216  0.1028  2.4707
  770MOL0     H 6214  10.570  11.407   4.544  1.1268 -0.8531 -1.2591
  770MOL0     H 6215  10.573  11.568   4.596 -0.3501 -0.7011 -0.5124
  770MOL0     H 6216  10.788  11.421   4.424  1.4664  0.9561  0.3550
  770MOL0     H 6217  10.684  11.559   4.375  2.1794  2.5535  0.2338
  770MOL0     H 6218  10.930  11.846   4.455 -0.7722  0.1985 -1.2501
  770MOL0     H 6219  11.045  12.025   4.383  0.6731  0.6793 -1.6049
  770MOL0     H 6220  11.050  12.015   4.200  3.0823  0.9731 -1.5028
  770MOL0     H 6221  11.190  12.008   4.293 -1.2638  2.5827  3.5194
  770MOL0     H 6222  11.148  11.823   3.742 -0.6936 -0.5938  0.0877
  770MOL0     H 6223  11.337  11.869   3.574  0.6188 -0.5196 -1.1264
  770MOL0     H 6224  11.750  11.787   3.659  1.8992 -1.0463  0.0439
  770MOL0     H 6225  11.700  11.623   3.609  1.2915  0.2473 -1.1274
  770MOL0     H 6226  11.838  11.689   3.429  0.7472 -0.3600 -0.9726
  770MOL0     H 6227  11.678  11.702   3.364  0.1728  4.7857 -1.2246
  770MOL0     H 6228  11.680  11.950   3.425 -0.0281 -1.6184  1.6530
  770MOL0     H 6229  11.778  11.902   3.292  0.2306  0.3917 -0.2705
  770MOL0     H 6230  11.975  11.883   3.442  1.9479  2.4610  0.5238
  770MOL0     H 6231  11.884  11.949   3.573  3.2858  4.2767  0.6695
  770MOL0     H 6232  11.919  12.088   3.301  0.0011 -0.5898 -0.4974
  770MOL0     H 6233  11.877  12.159   3.458  0.0564  0.5972 -1.4718
  770MOL0     H 6234  12.139  12.015   3.440 -0.8543  0.1401 -2.7633
  770MOL0     H 6235  12.076  12.126   3.561  0.0126 -0.8442  0.3640
  770MOL0     H 6236  12.086  12.315   3.399 -0.3589 -0.5387  2.1038
  770MOL0     H 6237  12.144  12.196   3.276  1.6025  2.1737 -0.1473
  770MOL0     H 6238  12.279  12.250   3.539 -1.4824 -1.7610  0.6273
  770MOL0     H 6239  12.318  12.365   3.399 -3.1242  0.2272 -1.7684
  770MOL0     H 6240  11.581  11.588   3.795  0.1475  1.3285  2.3410
  770MOL0     H 6241  11.420  11.578   3.966 -0.6281  0.9700  1.2176
  770MOL0     H 6242  11.101  11.525   4.132  1.9396  0.6545  0.7153
  770MOL0     H 6243  10.937  11.458   4.283  3.5619 -0.2030 -3.8568
  770MOL0     H 6244  10.765  10.747   5.616  0.1107  0.2751 -2.2352
  770MOL0     H 6245  10.957  10.636   5.729  1.2830 -0.6210 -0.9158
  770MOL0     H 6246  11.237  10.453   5.746  0.3394 -1.0100  1.3811
  770MOL0     H 6247  11.380  10.275   5.839  0.5881 -0.2283  0.6410
  770MOL0     H 6248  11.829  10.275   5.801  1.5479 -0.0409  0.1351
  770MOL0     H 6249  11.789  10.359   5.960  3.0052 -0.8155  0.9967
  770MOL0     H 6250  11.906  10.132   5.967  0.2006 -2.5282 -0.8958
  770MOL0     H 6251  11.759  10.058   5.929  1.3468 -0.4904  0.9932
  770MOL0     H 6252  11.811  10.131   6.198  2.0045 -2.0106 -3.8343
  770MOL0     H 6253  11.701  10.262   6.130 -1.5919 -1.0864 -0.6145
  770MOL0     H 6254  11.621   9.958   6.121 -1.3103 -0.4564 -0.3319
  770MOL0     H 6255  11.542  10.101   6.065  1.6396  1.6250 -0.9299
  770MOL0     H 6256  11.411  10.149   6.430 -0.1625 -0.5553 -0.3286
  770MOL0     H 6257  11.734  10.439   5.717 -0.5659 -2.7175  0.2165
  770MOL0     H 6258  11.608  10.683   5.522 -0.7548 -3.0430  0.1291
  770MOL0     H 6259  11.600  10.778   5.668 -0.9015 -0.3749 -0.4788
  770MOL0     H 6260  11.750  10.679   5.645  0.1043  0.3372  2.1503
  771MOL0     O 6261   7.091   8.389  10.437  0.5880 -0.9078 -0.4466
  771MOL0     C 6262   7.044   8.285  10.418  0.4773 -0.2610 -0.1613
  771MOL0     O 6263   6.916   8.273  10.370 -0.5746  0.4205  0.5732
  771MOL0     C 6264   6.866   8.368  10.279 -0.1295  0.0427  0.0780
  771MOL0     C 6265   6.821   8.497  10.313 -1.4633  0.4097 -0.2497
  771MOL0     C 6266   6.809   8.590  10.207 -0.2990 -0.1651 -1.1958
  771MOL0     C 6267   6.822   8.553  10.076  0.5967 -0.3581  0.7006
  771MOL0     O 6268   6.794   8.636   9.971  0.1049 -0.4072  0.5813
  771MOL0     C 6269   6.728   8.767   9.993  0.6576 -0.0384  0.2740
  771MOL0     C 6270   6.701   8.856   9.874  0.6492 -1.0563  0.4404
  771MOL0     C 6271   6.827   8.918   9.815  0.2491  0.0826 -0.7695
  771MOL0     C 6272   6.789   8.987   9.689  0.4412 -1.0430 -0.2842
  771MOL0     C 6273   6.906   9.018   9.596  0.3010 -0.2355 -0.2155
  771MOL0     C 6274   6.882   9.113   9.474 -0.2121 -0.0808 -0.4898
  771MOL0     C 6275   6.763   9.070   9.376 -0.1219 -0.4438 -0.3696
  771MOL0     C 6276   6.794   8.927   9.326  0.3753  0.1595 -0.2588
  771MOL0     N 6277   6.699   8.886   9.217  0.5864  1.8617 -0.2257
  771MOL0     C 6278   6.580   8.821   9.233 -0.7506  1.4025  0.8136
  771MOL0     C 6279   6.529   8.807   9.110  0.3617  1.5461  0.3410
  771MOL0     C 6280   6.384   8.753   9.076 -0.7001  0.2611 -0.1256
  771MOL0     C 6281   6.341   8.635   9.167  0.2355  0.0685 -0.0972
  771MOL0     C 6282   6.222   8.554   9.096  0.8846 -0.4421  0.2247
  771MOL0     C 6283   6.210   8.407   9.145  0.1403  0.1116  0.1679
  771MOL0     O 6284   6.166   8.403   9.278  1.0662  0.5146  0.7584
  771MOL0     C 6285   6.129   8.285   9.335 -0.5250  0.2279  1.0319
  771MOL0     C 6286   6.029   8.294   9.431  0.3642  0.5989  0.2972
  771MOL0     C 6287   5.962   8.185   9.480  0.0189  0.0677 -0.0934
  771MOL0     C 6288   5.849   8.200   9.572 -0.0759  0.3261  0.5888
  771MOL0     C 6289   5.996   8.060   9.427 -0.4987  0.7085  0.5427
  771MOL0     C 6290   5.929   7.933   9.460 -0.4862 -0.4253  0.1249
  771MOL0     O 6291   5.796   7.940   9.494 -0.4519 -0.1309 -0.8061
  771MOL0     C 6292   5.736   7.822   9.532 -0.8258  0.5981 -0.7335
  771MOL0     C 6293   5.760   7.691   9.480 -0.0846  0.4834  0.3036
  771MOL0     C 6294   5.692   7.581   9.523 -0.2155 -0.2304 -0.3279
  771MOL0     C 6295   5.608   7.586   9.635 -1.1437 -0.5028  1.0099
  771MOL0     O 6296   5.551   7.471   9.671  0.4162  0.1908  0.4403
  771MOL0     C 6297   5.412   7.484   9.706 -0.2515 -0.6665 -0.6143
  771MOL0     C 6298   5.369   7.352   9.756  0.6964  0.4913 -0.5103
  771MOL0     C 6299   5.246   7.308   9.683  0.6113 -0.0460 -0.2080
  771MOL0     C 6300   5.178   7.209   9.770  0.1144 -0.4175  0.7449
  771MOL0     C 6301   5.062   7.150   9.694 -0.7123 -0.9205  0.4664
  771MOL0     C 6302   5.018   7.029   9.758  0.3588  0.7736 -0.5504
  771MOL0     C 6303   4.903   6.958   9.687 -0.4803 -1.2832 -0.3550
  771MOL0     C 6304   4.774   7.038   9.705  0.3380  0.3318  1.3357
  771MOL0    Cl 6305   4.692   7.005   9.866  0.5668 -0.5643  0.7940
  771MOL0     C 6306   5.580   7.711   9.693 -0.6566 -0.1582  0.1375
  771MOL0     C 6307   5.643   7.829   9.641 -0.6037  0.1722 -0.1096
  771MOL0     O 6308   5.985   7.824   9.445  0.2342 -0.9136  0.2694
  771MOL0     C 6309   6.100   8.048   9.338  0.0791  0.3186 -0.2384
  771MOL0     C 6310   6.175   8.159   9.292 -0.3674  0.0500 -0.0633
  771MOL0     N 6311   6.628   8.856   9.017  0.1957  0.6493  0.6194
  771MOL0     N 6312   6.727   8.897   9.079  0.2795  0.9623  0.0534
  771MOL0     C 6313   6.850   8.417  10.049  0.3291  1.1902 -0.6810
  771MOL0     C 6314   6.872   8.327  10.152  0.4590  0.8092 -0.0409
  771MOL0     C 6315   7.096   8.165  10.479  0.1685  1.2069 -0.1065
  771MOL0     C 6316   7.021   8.050  10.484  0.4002 -0.1382 -0.5548
  771MOL0     C 6317   7.062   7.925  10.525 -0.7195  0.0460 -0.3537
  771MOL0     C 6318   7.197   7.922  10.562  0.2470 -0.7652 -0.1776
  771MOL0     O 6319   7.240   7.798  10.609 -0.5243  0.1128  0.9137
  771MOL0     C 6320   7.368   7.785  10.672  0.0827  0.7919 -1.0499
  771MOL0     C 6321   7.394   7.635  10.692  0.2193 -0.0686  0.2995
  771MOL0     C 6322   7.295   7.545  10.778  0.3305  0.3554  0.5340
  771MOL0     C 6323   7.250   7.612  10.896 -0.1191 -0.4760  0.5895
  771MOL0     C 6324   7.154   7.527  10.971  0.3998  0.4806 -1.1645
  771MOL0     C 6325   7.088   7.457  11.050  0.0808 -0.4421 -0.0238
  771MOL0     C 6326   7.285   8.030  10.552  0.3966 -0.6448 -0.8050
  771MOL0     C 6327   7.238   8.160  10.522  0.6769  0.4896  0.4234
  771MOL0     C 6328   7.337   8.279  10.513 -0.5073  0.5860  1.2530
  771MOL0     H 6329   6.830   8.526  10.417  2.8954 -0.7889 -0.0887
  771MOL0     H 6330   6.774   8.689  10.235 -4.0715 -0.9570 -2.5829
  771MOL0     H 6331   6.787   8.831  10.059 -0.4350  2.3564 -0.9595
  771MOL0     H 6332   6.634   8.759  10.047 -0.2998  2.8715 -0.7813
  771MOL0     H 6333   6.645   8.806   9.795  1.7826  0.4940 -1.4192
  771MOL0     H 6334   6.626   8.931   9.902  0.1856 -0.9069 -1.1492
  771MOL0     H 6335   6.871   8.983   9.890 -0.6092  0.2584 -0.4099
  771MOL0     H 6336   6.910   8.851   9.791  1.0631  0.6489  0.3891
  771MOL0     H 6337   6.709   8.935   9.635 -1.1275 -1.2110  2.0318
  771MOL0     H 6338   6.739   9.080   9.718  4.9142  0.6317  3.2377
  771MOL0     H 6339   6.939   8.916   9.576  1.7120 -0.1386  1.4005
  771MOL0     H 6340   6.987   9.074   9.643 -0.8733 -0.2529  1.9226
  771MOL0     H 6341   6.866   9.211   9.521 -0.5511  0.6355 -2.0239
  771MOL0     H 6342   6.976   9.122   9.419  0.0809 -2.2693 -0.4322
  771MOL0     H 6343   6.755   9.145   9.297  3.4423 -0.5384 -0.9983
  771MOL0     H 6344   6.668   9.066   9.431 -0.8443  0.4018 -1.4985
  771MOL0     H 6345   6.895   8.918   9.285  0.6006  1.0838  0.0482
  771MOL0     H 6346   6.773   8.862   9.412 -0.4597  2.3258  1.2787
  771MOL0     H 6347   6.533   8.797   9.328 -1.0271 -0.0811  0.3361
  771MOL0     H 6348   6.386   8.716   8.973  1.2507 -3.4738  1.1000
  771MOL0     H 6349   6.311   8.833   9.090 -1.6263  0.0949 -3.2751
  771MOL0     H 6350   6.420   8.565   9.195 -0.2682  0.2017  1.7913
  771MOL0     H 6351   6.323   8.668   9.270 -1.5600  0.2150 -0.4123
  771MOL0     H 6352   6.131   8.601   9.134  1.0952  1.2589 -1.2413
  771MOL0     H 6353   6.223   8.558   8.987 -2.9332 -0.4750  0.0629
  771MOL0     H 6354   6.141   8.351   9.082  1.3485 -0.3763 -0.7534
  771MOL0     H 6355   6.314   8.373   9.149  0.3361  0.4835 -1.3418
  771MOL0     H 6356   5.997   8.389   9.472 -1.4736 -1.0101  3.0107
  771MOL0     H 6357   5.753   8.195   9.520 -0.9686  5.4821  1.1707
  771MOL0     H 6358   5.858   8.289   9.636 -0.3899  1.5623 -1.0261
  771MOL0     H 6359   5.860   8.115   9.640  3.1746  0.5232  0.4737
  771MOL0     H 6360   5.823   7.664   9.396 -2.7950 -1.1350 -1.3704
  771MOL0     H 6361   5.692   7.485   9.472  2.3070 -0.6553  0.3530
  771MOL0     H 6362   5.391   7.557   9.785 -0.1584  2.2617 -3.1187
  771MOL0     H 6363   5.351   7.523   9.624  0.1509  0.6594 -0.3132
  771MOL0     H 6364   5.441   7.270   9.742 -0.8980 -0.7389 -1.9751
  771MOL0     H 6365   5.352   7.364   9.863  0.5824 -1.8203 -0.2105
  771MOL0     H 6366   5.275   7.268   9.585 -1.7677 -0.1993 -0.9153
  771MOL0     H 6367   5.182   7.392   9.654  0.9122 -0.9497 -3.9632
  771MOL0     H 6368   5.156   7.265   9.862  1.2764  2.0904 -0.4096
  771MOL0     H 6369   5.252   7.131   9.786  0.1329  0.1844  4.7838
  771MOL0     H 6370   4.986   7.229   9.691  1.0585  0.8388  0.0227
  771MOL0     H 6371   5.092   7.123   9.592 -1.2970  1.0397 -0.2802
  771MOL0     H 6372   4.992   7.045   9.863 -1.8346  0.6653 -1.0416
  771MOL0     H 6373   5.107   6.965   9.754 -0.6614 -0.7968  0.6259
  771MOL0     H 6374   4.887   6.858   9.729  2.9526 -1.2962  1.3103
  771MOL0     H 6375   4.926   6.954   9.580 -1.6157  0.6079 -0.7061
  771MOL0     H 6376   4.705   7.009   9.625  0.0684  0.3728  1.5491
  771MOL0     H 6377   4.800   7.144   9.698  0.9067  0.0794 -2.4800
  771MOL0     H 6378   5.514   7.741   9.773  0.5488 -0.3706  1.2470
  771MOL0     H 6379   5.609   7.922   9.687 -3.4997 -0.8705  0.0372
  771MOL0     H 6380   6.127   7.945   9.317 -1.4814 -0.3387  0.7587
  771MOL0     H 6381   6.256   8.147   9.220 -0.8570 -0.5678 -0.5189
  771MOL0     H 6382   6.856   8.388   9.944 -0.0548  0.6005 -0.5451
  771MOL0     H 6383   6.886   8.221  10.134  0.4457  0.8754 -0.4666
  771MOL0     H 6384   6.917   8.051  10.452  0.0026  0.8079  0.6861
  771MOL0     H 6385   6.993   7.842  10.522 -0.4897 -0.3081  1.8528
  771MOL0     H 6386   7.449   7.829  10.614  2.5700  0.1346  1.7036
  771MOL0     H 6387   7.362   7.842  10.765 -1.1975  0.5931 -0.9848
  771MOL0     H 6388   7.495   7.621  10.730  0.3562 -0.8356 -0.3173
  771MOL0     H 6389   7.384   7.607  10.587 -2.0990 -2.2883  1.0178
  771MOL0     H 6390   7.208   7.520  10.716 -1.3531 -3.0882  3.8992
  771MOL0     H 6391   7.357   7.456  10.792 -0.1508  0.0304  0.6475
  771MOL0     H 6392   7.193   7.701  10.866  0.8871  0.1041  0.3607
  771MOL0     H 6393   7.331   7.650  10.959  0.9298 -2.1241  0.2988
  771MOL0     H 6394   7.024   7.418  11.126  0.5523  3.4574  2.6646
  771MOL0     H 6395   7.391   8.013  10.567  1.2383  2.9327 -1.7058
  771MOL0     H 6396   7.439   8.240  10.517  0.3660  2.6980  0.5932
  771MOL0     H 6397   7.335   8.329  10.416  0.6489  1.8428  1.8513
  771MOL0     H 6398   7.324   8.359  10.586  1.4664  0.7283  1.5030
  772MOL0     O 6399   9.242   3.670   5.812 -0.1308  0.5713 -0.0986
  772MOL0     C 6400   9.319   3.728   5.743 -0.3316 -0.0563  0.3540
  772MOL0     O 6401   9.329   3.868   5.729  0.0079 -0.6340  0.5805
  772MOL0     C 6402   9.225   3.953   5.763 -0.2793 -0.2246  0.0659
  772MOL0     C 6403   9.086   3.917   5.763  0.2926  0.0748  0.2116
  772MOL0     C 6404   8.991   4.015   5.775  0.0858  0.1497  0.5986
  772MOL0     C 6405   9.020   4.149   5.803 -0.2879 -0.7195  1.3215
  772MOL0     O 6406   8.927   4.253   5.833  0.5421  0.0510  1.2152
  772MOL0     C 6407   8.791   4.226   5.798 -0.8353  0.1108  0.5860
  772MOL0     C 6408   8.710   4.129   5.894 -0.0242 -0.1891  0.0018
  772MOL0     C 6409   8.603   4.052   5.812 -0.2469 -0.6102 -0.1659
  772MOL0     C 6410   8.492   3.990   5.903  0.4369  0.1175 -0.8913
  772MOL0     C 6411   8.372   3.934   5.829  0.1316  0.2636  0.4646
  772MOL0     C 6412   8.396   3.798   5.778 -0.5861  0.8044 -0.5704
  772MOL0     C 6413   8.376   3.692   5.884 -0.2491  0.2701  1.0737
  772MOL0     C 6414   8.372   3.551   5.824  0.5711 -0.6946  0.2647
  772MOL0     N 6415   8.234   3.511   5.828 -0.5378  0.9983 -0.4866
  772MOL0     C 6416   8.158   3.529   5.715  0.8609  1.3565  0.6912
  772MOL0     C 6417   8.043   3.460   5.742 -0.8737 -0.5041  0.8373
  772MOL0     C 6418   7.929   3.446   5.648  0.2549 -0.0638  0.1670
  772MOL0     C 6419   7.784   3.454   5.700  0.3037 -0.1137 -0.0910
  772MOL0     C 6420   7.676   3.440   5.583  0.0136  0.5396 -0.5855
  772MOL0     C 6421   7.530   3.418   5.626  0.3926  0.1424 -0.2926
  772MOL0     O 6422   7.487   3.538   5.680  0.2490 -0.7493 -0.3994
  772MOL0     C 6423   7.461   3.554   5.806  0.4461  0.0837  0.3344
  772MOL0     C 6424   7.442   3.453   5.905 -0.8538 -0.0066  0.4719
  772MOL0     C 6425   7.403   3.475   6.040  0.6025  0.7489 -0.3271
  772MOL0     C 6426   7.370   3.358   6.142 -0.2892 -0.3516 -0.0676
  772MOL0     C 6427   7.392   3.610   6.083 -0.0251 -0.0502 -0.4914
  772MOL0     C 6428   7.325   3.664   6.209  0.3722  0.2498 -0.4293
  772MOL0     O 6429   7.380   3.760   6.281 -0.1190 -0.1587 -0.0269
  772MOL0     C 6430   7.320   3.781   6.410  0.0916 -0.0090 -0.1666
  772MOL0     C 6431   7.341   3.690   6.513  0.1619  0.9064  0.5567
  772MOL0     C 6432   7.288   3.703   6.637 -0.6530  0.0817  0.1531
  772MOL0     C 6433   7.241   3.831   6.676 -0.5143 -0.4113 -0.4807
  772MOL0     O 6434   7.206   3.854   6.809  0.4314  0.1623 -0.8135
  772MOL0     C 6435   7.293   3.783   6.906 -0.0722  0.0602 -0.6677
  772MOL0     C 6436   7.288   3.864   7.036  0.3324 -0.2025  0.1608
  772MOL0     C 6437   7.378   3.798   7.146 -0.0426 -0.5053 -0.3015
  772MOL0     C 6438   7.402   3.905   7.260 -0.3846 -0.2094 -0.0962
  772MOL0     C 6439   7.526   3.996   7.240  0.3163  0.2260 -0.1720
  772MOL0     C 6440   7.564   4.098   7.352  0.3058  0.2187 -0.0585
  772MOL0     C 6441   7.696   4.173   7.316  0.4337  0.4620  0.0729
  772MOL0     C 6442   7.712   4.288   7.416 -0.3457  0.4086 -0.6998
  772MOL0    Cl 6443   7.861   4.367   7.364  0.3187  0.2013  0.1343
  772MOL0     C 6444   7.234   3.941   6.579 -0.2454 -0.3420  0.0076
  772MOL0     C 6445   7.264   3.913   6.443  0.7270  0.6074  0.1974
  772MOL0     O 6446   7.213   3.615   6.225  0.1608 -0.3697 -0.1806
  772MOL0     C 6447   7.405   3.708   5.982 -0.0073 -0.1446  0.4309
  772MOL0     C 6448   7.445   3.685   5.847 -0.0649  0.1029 -0.4063
  772MOL0     N 6449   8.048   3.417   5.868  0.0736 -0.4389 -0.1995
  772MOL0     N 6450   8.161   3.454   5.925  0.0995  0.1775 -0.1230
  772MOL0     C 6451   9.153   4.182   5.800  0.8323 -1.7428 -0.6514
  772MOL0     C 6452   9.253   4.089   5.778 -0.3537 -0.8668  0.0521
  772MOL0     C 6453   9.413   3.649   5.666 -0.2366  0.4738  0.9189
  772MOL0     C 6454   9.477   3.712   5.554  0.1427 -0.9606  0.4443
  772MOL0     C 6455   9.562   3.646   5.473  0.3763  0.0685  0.0063
  772MOL0     C 6456   9.590   3.511   5.484 -0.7544  0.2634  0.0996
  772MOL0     O 6457   9.675   3.436   5.402  0.2898 -0.1337 -0.4963
  772MOL0     C 6458   9.741   3.486   5.282  0.6336 -0.1343  0.0172
  772MOL0     C 6459   9.863   3.557   5.335  0.1306  0.6364  0.3721
  772MOL0     C 6460   9.920   3.673   5.249 -0.3384  0.5842 -0.1281
  772MOL0     C 6461  10.027   3.757   5.313  0.2948 -0.2737  0.1746
  772MOL0     C 6462   9.974   3.819   5.439 -0.0432 -0.5578  0.5720
  772MOL0     C 6463   9.962   3.853   5.556 -0.2045  0.3816  0.0275
  772MOL0     C 6464   9.530   3.444   5.597  0.1845  0.2303 -0.5139
  772MOL0     C 6465   9.438   3.507   5.683  0.2994 -1.0447 -0.3153
  772MOL0     C 6466   9.396   3.418   5.807  0.2166 -0.3660  0.8897
  772MOL0     H 6467   9.061   3.814   5.741 -3.9764  1.1692 -0.8128
  772MOL0     H 6468   8.891   3.975   5.762 -1.4147  4.1789 -2.1601
  772MOL0     H 6469   8.786   4.181   5.698  2.8072 -4.0313  1.9184
  772MOL0     H 6470   8.740   4.321   5.785 -2.6144 -0.8794  0.0251
  772MOL0     H 6471   8.782   4.056   5.933  0.4495 -0.7620 -1.7961
  772MOL0     H 6472   8.668   4.188   5.975 -2.4790  2.0554 -2.6601
  772MOL0     H 6473   8.567   4.112   5.728  1.1866 -1.7853 -1.6528
  772MOL0     H 6474   8.660   3.973   5.765  2.5908  0.1499  1.7221
  772MOL0     H 6475   8.517   3.908   5.971 -2.8590 -0.6774 -0.4718
  772MOL0     H 6476   8.455   4.075   5.961  2.1975  2.8237 -3.4091
  772MOL0     H 6477   8.353   4.006   5.748 -2.7234  1.2609  1.8978
  772MOL0     H 6478   8.282   3.944   5.890  1.0366 -0.1611  1.9102
  772MOL0     H 6479   8.336   3.776   5.689 -1.8460 -2.6810  0.9646
  772MOL0     H 6480   8.496   3.783   5.736 -0.8047 -0.8385 -0.5679
  772MOL0     H 6481   8.288   3.719   5.944 -1.5420 -3.1153  0.8985
  772MOL0     H 6482   8.456   3.702   5.958  2.8970 -3.6562 -1.3968
  772MOL0     H 6483   8.422   3.542   5.727  3.5410 -1.3646  1.7563
  772MOL0     H 6484   8.420   3.487   5.898  3.1347 -0.4078 -1.0520
  772MOL0     H 6485   8.189   3.589   5.630  0.8725 -0.7291 -0.8629
  772MOL0     H 6486   7.934   3.347   5.602 -0.9093 -0.1079  0.1102
  772MOL0     H 6487   7.948   3.509   5.561 -0.8671 -2.5284 -2.0089
  772MOL0     H 6488   7.765   3.370   5.768  2.2159 -0.2934  0.3027
  772MOL0     H 6489   7.763   3.553   5.742 -1.1985  0.7456 -2.6804
  772MOL0     H 6490   7.685   3.535   5.528  1.2047  2.3959  2.5651
  772MOL0     H 6491   7.692   3.349   5.524  2.7257  0.4209  0.2095
  772MOL0     H 6492   7.472   3.396   5.535 -2.4468  0.6831  1.2603
  772MOL0     H 6493   7.526   3.330   5.692  2.9061 -1.4460 -2.0895
  772MOL0     H 6494   7.452   3.346   5.887 -0.9603 -0.4051  2.5178
  772MOL0     H 6495   7.405   3.386   6.242 -4.2819  3.4437  0.5828
  772MOL0     H 6496   7.411   3.265   6.104 -0.3136 -0.1445 -0.6083
  772MOL0     H 6497   7.262   3.340   6.152 -0.1552 -1.5272 -0.5981
  772MOL0     H 6498   7.395   3.603   6.478 -2.7042 -0.3077 -1.1792
  772MOL0     H 6499   7.284   3.615   6.701 -4.3402  1.6489  2.3865
  772MOL0     H 6500   7.247   3.684   6.912 -2.1501  1.0031 -0.1476
  772MOL0     H 6501   7.397   3.779   6.871 -0.7290 -4.0363 -2.7912
  772MOL0     H 6502   7.325   3.963   7.008 -0.1453 -0.5897 -2.0103
  772MOL0     H 6503   7.186   3.873   7.075 -0.0862 -1.0701 -0.6970
  772MOL0     H 6504   7.472   3.758   7.107  0.2295 -0.4009  0.2498
  772MOL0     H 6505   7.320   3.709   7.173 -2.2348 -0.2420 -3.4744
  772MOL0     H 6506   7.412   3.854   7.356  0.4355 -1.5990 -0.8807
  772MOL0     H 6507   7.322   3.980   7.256  0.8117  1.1172  0.4043
  772MOL0     H 6508   7.610   3.927   7.227 -1.7527 -2.0752 -2.5396
  772MOL0     H 6509   7.536   4.043   7.141  2.2716 -3.2397 -1.8306
  772MOL0     H 6510   7.581   4.032   7.438 -1.1956 -2.1032 -1.4189
  772MOL0     H 6511   7.481   4.168   7.364 -0.3086 -0.6593  1.1376
  772MOL0     H 6512   7.702   4.220   7.217  1.5513  0.9752  0.3633
  772MOL0     H 6513   7.783   4.108   7.331 -0.3774 -1.1873 -2.0191
  772MOL0     H 6514   7.727   4.246   7.516  0.0726  1.1418 -0.4513
  772MOL0     H 6515   7.613   4.334   7.422 -1.0040 -1.0700  1.0964
  772MOL0     H 6516   7.236   4.039   6.625  0.7810  0.3490 -1.4404
  772MOL0     H 6517   7.258   3.975   6.354 -2.9631 -2.1052 -1.7366
  772MOL0     H 6518   7.379   3.811   6.005 -1.0390 -0.4477  0.6801
  772MOL0     H 6519   7.449   3.760   5.769 -1.3026 -2.4748 -3.1772
  772MOL0     H 6520   9.189   4.283   5.820 -0.8258 -0.8251 -2.0523
  772MOL0     H 6521   9.356   4.122   5.773 -0.7735  0.9143  1.9774
  772MOL0     H 6522   9.444   3.809   5.518 -0.2559 -0.6833  1.5129
  772MOL0     H 6523   9.602   3.698   5.386 -0.7989 -2.2653 -2.0624
  772MOL0     H 6524   9.753   3.409   5.205 -0.9912  0.0170 -0.4248
  772MOL0     H 6525   9.668   3.549   5.229  0.0371 -2.4918 -2.1763
  772MOL0     H 6526   9.935   3.480   5.365  1.6763  0.2189 -3.8005
  772MOL0     H 6527   9.827   3.592   5.433 -0.8431 -0.7402  0.5467
  772MOL0     H 6528   9.958   3.629   5.156 -3.4752  0.9434 -1.7278
  772MOL0     H 6529   9.841   3.744   5.223  0.9518  1.6108 -1.4290
  772MOL0     H 6530  10.053   3.834   5.240  0.8425 -1.8172 -1.3316
  772MOL0     H 6531  10.119   3.702   5.334  0.6058  0.8008  1.8068
  772MOL0     H 6532   9.958   3.880   5.660  0.7855  0.8058 -0.0350
  772MOL0     H 6533   9.541   3.336   5.599 -1.6752  0.0026  2.1051
  772MOL0     H 6534   9.479   3.360   5.849 -0.6973 -0.8019  2.1584
  772MOL0     H 6535   9.361   3.493   5.878  0.2791  2.1515 -1.5863
  772MOL0     H 6536   9.322   3.345   5.772  0.4216  0.4392 -1.3666
  773MOL0     O 6537   2.697   1.705   7.507  0.1164  0.4257  0.3973
  773MOL0     C 6538   2.651   1.778   7.590  0.3329 -0.2691  0.2319
  773MOL0     O 6539   2.640   1.747   7.723 -0.0293 -0.1944  0.2004
  773MOL0     C 6540   2.686   1.632   7.767  0.0981 -0.8202  0.7242
  773MOL0     C 6541   2.783   1.633   7.870  0.6223  0.1420 -0.2287
  773MOL0     C 6542   2.824   1.513   7.926 -0.0232 -0.3662  0.1815
  773MOL0     C 6543   2.760   1.394   7.887  0.2830 -1.3081  0.1425
  773MOL0     O 6544   2.814   1.293   7.950 -0.3978 -0.2899 -0.6761
  773MOL0     C 6545   2.753   1.240   8.068  0.8348 -0.9744 -0.1212
  773MOL0     C 6546   2.762   1.087   8.053  0.4620  0.1139  0.3497
  773MOL0     C 6547   2.682   1.032   7.931  0.3829 -0.0286 -0.3320
  773MOL0     C 6548   2.532   1.064   7.923  0.0097  0.6055 -0.8523
  773MOL0     C 6549   2.463   0.977   8.032 -0.0841 -0.4052 -0.4881
  773MOL0     C 6550   2.312   0.956   8.033 -0.4519 -0.3513  0.6829
  773MOL0     C 6551   2.282   0.871   8.162  0.5710 -0.4790 -0.0492
  773MOL0     C 6552   2.273   0.971   8.282 -1.6451 -0.2494 -0.5212
  773MOL0     N 6553   2.246   0.904   8.417 -0.0182 -0.1033  0.0442
  773MOL0     C 6554   2.321   0.824   8.501 -1.0541  0.3082  0.0738
  773MOL0     C 6555   2.247   0.806   8.611  0.3707 -0.1961 -0.0642
  773MOL0     C 6556   2.256   0.720   8.736  0.5174 -0.3161  0.1040
  773MOL0     C 6557   2.242   0.570   8.705  1.1585  0.7931 -0.9191
  773MOL0     C 6558   2.228   0.478   8.832  0.6611 -0.2704  0.3988
  773MOL0     C 6559   2.108   0.521   8.920 -0.6327  0.2827 -0.4429
  773MOL0     O 6560   2.101   0.422   9.028 -0.0408 -0.4992 -0.3311
  773MOL0     C 6561   2.006   0.324   9.020  0.5032 -0.4075  0.6235
  773MOL0     C 6562   1.980   0.257   9.143 -0.8103  0.2760  0.5066
  773MOL0     C 6563   1.877   0.173   9.153  0.4745 -0.6005  0.4455
  773MOL0     C 6564   1.872   0.104   9.279 -0.0620 -0.2565 -0.3386
  773MOL0     C 6565   1.792   0.143   9.042 -0.8081 -0.0944  0.9206
  773MOL0     C 6566   1.670   0.053   9.047 -0.1064 -0.3976 -0.7206
  773MOL0     O 6567   1.620   0.022   9.168  0.5334 -1.3762  0.3973
  773MOL0     C 6568   1.545  -0.087   9.182 -0.5210 -0.4212  0.7633
  773MOL0     C 6569   1.407  -0.097   9.150 -0.1976  0.5036 -0.2523
  773MOL0     C 6570   1.330  -0.206   9.200  0.2450 -0.6451  0.6937
  773MOL0     C 6571   1.381  -0.315   9.252  0.0331 -0.7643 -0.0196
  773MOL0     O 6572   1.305  -0.425   9.297  0.3345 -0.1766  0.2013
  773MOL0     C 6573   1.162  -0.412   9.291 -0.5991 -0.9799 -0.7294
  773MOL0     C 6574   1.073  -0.531   9.342  0.6191  0.4103 -0.1864
  773MOL0     C 6575   0.934  -0.485   9.379  0.2925  0.3787 -0.2638
  773MOL0     C 6576   0.913  -0.414   9.521  0.1403  0.5060  0.0138
  773MOL0     C 6577   0.769  -0.361   9.539 -0.4953 -1.2587 -0.5661
  773MOL0     C 6578   0.751  -0.283   9.663 -0.1476  0.9807 -0.2098
  773MOL0     C 6579   0.600  -0.261   9.696 -0.1247  0.0557 -0.0089
  773MOL0     C 6580   0.576  -0.185   9.828  0.1804  0.6424  0.0490
  773MOL0    Cl 6581   0.623  -0.020   9.804 -0.1543  0.2120  0.0545
  773MOL0     C 6582   1.517  -0.317   9.275  0.2399 -0.4253  0.4311
  773MOL0     C 6583   1.600  -0.203   9.235 -0.2685 -0.0593  0.3434
  773MOL0     O 6584   1.632   0.019   8.939 -0.8354  0.6795  0.0505
  773MOL0     C 6585   1.837   0.195   8.915  0.2822 -1.0570  0.4273
  773MOL0     C 6586   1.943   0.290   8.902  0.5573  0.5083 -0.2845
  773MOL0     N 6587   2.128   0.873   8.593 -0.3230 -0.1473 -0.2418
  773MOL0     N 6588   2.133   0.934   8.480  0.5206  0.0484 -0.5948
  773MOL0     C 6589   2.661   1.390   7.783  0.0314  0.6921  0.1469
  773MOL0     C 6590   2.619   1.511   7.730 -0.6953 -0.6928  0.1896
  773MOL0     C 6591   2.619   1.918   7.552 -0.6631  0.2982 -0.8162
  773MOL0     C 6592   2.643   2.020   7.655  0.2279  0.1188 -0.2610
  773MOL0     C 6593   2.625   2.152   7.634  0.5474  0.8540  0.7938
  773MOL0     C 6594   2.561   2.198   7.520 -0.9965  0.7228 -0.9300
  773MOL0     O 6595   2.550   2.337   7.513 -0.0959  0.6292 -0.0807
  773MOL0     C 6596   2.538   2.398   7.390  0.7474 -0.7642  0.2074
  773MOL0     C 6597   2.537   2.540   7.433  0.0996  0.1581 -0.4013
  773MOL0     C 6598   2.395   2.581   7.474  0.6701 -1.5760 -0.0575
  773MOL0     C 6599   2.408   2.734   7.505  0.0201 -0.0223 -0.9399
  773MOL0     C 6600   2.408   2.822   7.384 -0.5580  0.5989  0.5062
  773MOL0     C 6601   2.409   2.892   7.288  0.2127 -0.7046  0.4334
  773MOL0     C 6602   2.527   2.102   7.422 -0.9769 -0.4316 -0.8303
  773MOL0     C 6603   2.552   1.963   7.440  0.2486 -0.0630  0.2424
  773MOL0     C 6604   2.519   1.868   7.335  0.5699  0.4524  0.4857
  773MOL0     H 6605   2.845   1.722   7.884 -1.7712  1.9041 -0.1914
  773MOL0     H 6606   2.916   1.510   7.984 -0.0357 -2.2464  0.1722
  773MOL0     H 6607   2.648   1.269   8.061  0.5902 -1.9151 -0.5657
  773MOL0     H 6608   2.794   1.276   8.163  3.3321  0.4408 -1.6367
  773MOL0     H 6609   2.865   1.053   8.041  0.6536  0.3166  1.3097
  773MOL0     H 6610   2.726   1.048   8.149  2.3246 -0.6597  0.7746
  773MOL0     H 6611   2.721   1.064   7.834 -0.4165  0.8615 -0.3730
  773MOL0     H 6612   2.681   0.923   7.928 -1.1423 -0.3303  4.0702
  773MOL0     H 6613   2.506   1.168   7.946 -0.8125 -0.1316  1.8857
  773MOL0     H 6614   2.490   1.043   7.824  3.9280  1.3037 -2.8495
  773MOL0     H 6615   2.481   1.031   8.126  0.5635  0.1451 -0.9191
  773MOL0     H 6616   2.512   0.879   8.036  0.6182 -0.0242  1.2018
  773MOL0     H 6617   2.272   1.058   8.030 -2.5125 -1.1175  0.4170
  773MOL0     H 6618   2.278   0.904   7.944 -0.3712 -2.5186  1.8511
  773MOL0     H 6619   2.358   0.792   8.159 -1.6746 -2.7359 -1.7072
  773MOL0     H 6620   2.186   0.819   8.151 -1.2535  1.6374  3.8194
  773MOL0     H 6621   2.366   1.030   8.284 -0.9277 -1.0709 -3.8589
  773MOL0     H 6622   2.199   1.050   8.267 -2.5711 -0.7206  1.3221
  773MOL0     H 6623   2.420   0.779   8.493 -0.9373  0.7498 -1.0650
  773MOL0     H 6624   2.164   0.747   8.789  0.3433  0.6532 -0.6680
  773MOL0     H 6625   2.350   0.733   8.792 -0.6075  0.2024  1.9508
  773MOL0     H 6626   2.150   0.553   8.649  1.1391 -2.1681 -0.1522
  773MOL0     H 6627   2.321   0.522   8.645 -0.7681 -4.6278  0.2847
  773MOL0     H 6628   2.224   0.380   8.783 -2.2438 -0.4175  0.7607
  773MOL0     H 6629   2.321   0.485   8.888  1.3460 -3.7115 -0.0995
  773MOL0     H 6630   2.124   0.615   8.973 -0.7129 -0.3141  0.6786
  773MOL0     H 6631   2.013   0.526   8.865 -0.1729 -4.4838 -2.1858
  773MOL0     H 6632   2.049   0.287   9.221 -0.4706  3.3203 -0.8450
  773MOL0     H 6633   1.771   0.108   9.322  0.1109  0.5847  0.0138
  773MOL0     H 6634   1.933   0.153   9.355 -2.0366  2.1452 -0.1513
  773MOL0     H 6635   1.912   0.007   9.249 -0.0447 -0.3551  0.0037
  773MOL0     H 6636   1.369  -0.011   9.097  1.9093  0.1530 -2.4917
  773MOL0     H 6637   1.225  -0.199   9.173 -0.2894 -2.5595  2.0671
  773MOL0     H 6638   1.141  -0.339   9.370  0.9107 -2.2112  0.9150
  773MOL0     H 6639   1.127  -0.368   9.198 -0.8242  0.6763  0.0912
  773MOL0     H 6640   1.068  -0.611   9.267  2.6572 -0.7358  0.8003
  773MOL0     H 6641   1.121  -0.583   9.426 -0.5904 -1.4721 -0.6024
  773MOL0     H 6642   0.871  -0.575   9.371  0.0734  0.2746  1.9626
  773MOL0     H 6643   0.895  -0.411   9.308  0.4248  0.1665 -0.5609
  773MOL0     H 6644   0.984  -0.331   9.520  0.5850  0.1213 -0.6963
  773MOL0     H 6645   0.940  -0.475   9.608 -2.6184 -1.3782 -0.3150
  773MOL0     H 6646   0.727  -0.305   9.454 -1.1166 -0.6546  0.1236
  773MOL0     H 6647   0.705  -0.450   9.535 -1.3714 -0.6549 -0.3969
  773MOL0     H 6648   0.804  -0.188   9.648  0.4390  0.3005 -3.0144
  773MOL0     H 6649   0.799  -0.333   9.748  2.3876  1.5361 -1.2200
  773MOL0     H 6650   0.542  -0.354   9.697  2.3044 -1.5376 -0.6790
  773MOL0     H 6651   0.557  -0.192   9.622 -1.3003  3.6235  3.6067
  773MOL0     H 6652   0.649  -0.205   9.908  0.6001  2.6329  0.2125
  773MOL0     H 6653   0.476  -0.189   9.872  0.0784  0.4856 -0.1966
  773MOL0     H 6654   1.573  -0.390   9.333 -2.1520 -1.1439  1.9533
  773MOL0     H 6655   1.705  -0.208   9.263 -0.2487  0.8522  0.4677
  773MOL0     H 6656   1.771   0.172   8.832 -5.0662  0.5949  3.7116
  773MOL0     H 6657   1.959   0.333   8.804 -2.4524  0.0633 -1.0649
  773MOL0     H 6658   2.624   1.295   7.748  2.7638 -0.3634 -0.1713
  773MOL0     H 6659   2.541   1.509   7.655  0.9607 -0.7476 -1.6020
  773MOL0     H 6660   2.689   1.993   7.750  0.4232 -1.6213 -0.8163
  773MOL0     H 6661   2.658   2.232   7.700  3.4477  2.2078 -2.0326
  773MOL0     H 6662   2.618   2.376   7.319  2.1513 -0.2785  1.5838
  773MOL0     H 6663   2.440   2.371   7.348 -0.6855  0.1740  2.7334
  773MOL0     H 6664   2.577   2.593   7.346 -4.6980  0.9584 -2.4486
  773MOL0     H 6665   2.604   2.550   7.519  1.1059  1.8364 -1.3195
  773MOL0     H 6666   2.321   2.570   7.394  1.7289 -0.6092 -1.2203
  773MOL0     H 6667   2.358   2.523   7.559 -0.9369 -0.4759  0.0542
  773MOL0     H 6668   2.503   2.750   7.556 -0.2471  0.7233 -0.6534
  773MOL0     H 6669   2.339   2.769   7.582 -0.6054  0.8804 -1.8853
  773MOL0     H 6670   2.401   2.954   7.201  1.3928  0.6334  1.2243
  773MOL0     H 6671   2.459   2.139   7.346 -3.9752  1.5767  2.4597
  773MOL0     H 6672   2.603   1.827   7.278 -0.9698  2.4145 -3.6087
  773MOL0     H 6673   2.481   1.776   7.380 -1.5013 -1.0130 -3.7241
  773MOL0     H 6674   2.436   1.898   7.270 -0.7909 -1.1461  1.4187
  774MOL0     O 6675   6.314   3.169   2.387  0.0954  0.3995 -0.9813
  774MOL0     C 6676   6.320   3.055   2.430 -0.5440 -0.7160 -0.1452
  774MOL0     O 6677   6.205   2.975   2.447 -0.2722 -0.3588 -0.4351
  774MOL0     C 6678   6.082   3.017   2.414  0.3809  0.4773  1.0706
  774MOL0     C 6679   5.989   3.046   2.519 -0.6990 -0.1117  0.1561
  774MOL0     C 6680   5.866   3.102   2.489  0.3484 -0.0269  0.9159
  774MOL0     C 6681   5.820   3.115   2.352 -0.3726 -0.3103  0.5102
  774MOL0     O 6682   5.698   3.161   2.306 -0.0051  0.0899 -0.1696
  774MOL0     C 6683   5.589   3.211   2.407 -0.0096  1.0200  0.5848
  774MOL0     C 6684   5.525   3.093   2.480  0.0927 -0.0756  0.1339
  774MOL0     C 6685   5.394   3.126   2.553  1.7914  1.1708  0.1630
  774MOL0     C 6686   5.272   3.150   2.446  0.7161  0.4070 -1.0073
  774MOL0     C 6687   5.150   3.206   2.526  0.7164  0.2054  0.6213
  774MOL0     C 6688   5.037   3.212   2.417 -0.0247 -0.3857 -0.8027
  774MOL0     C 6689   4.910   3.275   2.468  0.8689 -0.2839 -0.6436
  774MOL0     C 6690   4.913   3.432   2.460 -0.7896 -0.3041 -0.1857
  774MOL0     N 6691   4.788   3.497   2.492 -0.0795 -0.4287  0.4764
  774MOL0     C 6692   4.730   3.579   2.399  0.2184  0.0072  0.9229
  774MOL0     C 6693   4.589   3.576   2.422  0.2439  0.6116  0.5031
  774MOL0     C 6694   4.483   3.634   2.330  0.7756 -0.1823 -0.2028
  774MOL0     C 6695   4.437   3.772   2.380  0.3610 -0.1880 -0.6610
  774MOL0     C 6696   4.339   3.851   2.297 -0.2048 -0.7023 -0.3174
  774MOL0     C 6697   4.211   3.792   2.241  0.4851  1.1996  0.4649
  774MOL0     O 6698   4.221   3.658   2.197 -0.1102  0.5795  0.5150
  774MOL0     C 6699   4.108   3.581   2.189 -0.7503 -0.2095  0.2089
  774MOL0     C 6700   4.126   3.440   2.177  0.6801 -0.4376 -0.4504
  774MOL0     C 6701   4.016   3.356   2.156  0.2512  0.3373 -0.0596
  774MOL0     C 6702   4.038   3.219   2.099  0.1471  0.3330  0.5606
  774MOL0     C 6703   3.878   3.409   2.158  1.0108 -1.1868 -1.1518
  774MOL0     C 6704   3.751   3.330   2.128  0.7010  0.1143  0.1944
  774MOL0     O 6705   3.636   3.409   2.085 -0.0326 -0.3810 -0.0612
  774MOL0     C 6706   3.515   3.356   2.119 -0.6539  0.1062 -0.2457
  774MOL0     C 6707   3.463   3.231   2.085 -0.9023 -0.0128 -0.0637
  774MOL0     C 6708   3.336   3.186   2.122 -0.5820 -0.8953 -0.3565
  774MOL0     C 6709   3.252   3.274   2.203 -0.1442  0.1818 -0.2698
  774MOL0     O 6710   3.131   3.237   2.247  0.5985 -0.1533 -0.4990
  774MOL0     C 6711   3.139   3.116   2.329 -0.5009 -0.4043 -0.0031
  774MOL0     C 6712   3.212   3.143   2.455  0.1303 -0.2016 -1.0192
  774MOL0     C 6713   3.249   3.019   2.543 -0.3950  0.4460 -1.2776
  774MOL0     C 6714   3.128   2.944   2.604 -0.3025  0.0319 -0.7593
  774MOL0     C 6715   3.105   3.018   2.736 -0.1860 -0.1969 -0.1992
  774MOL0     C 6716   2.963   2.986   2.776  0.0879  0.2326  0.7446
  774MOL0     C 6717   2.926   3.062   2.898  0.0543 -0.7605 -0.2273
  774MOL0     C 6718   3.011   3.031   3.028  0.0833  0.2183 -0.5520
  774MOL0    Cl 6719   2.996   2.877   3.103 -0.3712  0.2201  0.2022
  774MOL0     C 6720   3.293   3.405   2.238  0.2261  0.3920  0.2767
  774MOL0     C 6721   3.424   3.442   2.190  0.1026 -0.3046 -0.7169
  774MOL0     O 6722   3.747   3.210   2.144 -0.2226  0.0122 -0.2255
  774MOL0     C 6723   3.866   3.547   2.173  0.4967 -0.2557 -0.3124
  774MOL0     C 6724   3.973   3.636   2.188 -0.0605 -0.6564 -0.1812
  774MOL0     N 6725   4.576   3.490   2.523  0.3958 -0.1513 -0.7930
  774MOL0     N 6726   4.688   3.435   2.555  0.2364 -0.5931 -1.2723
  774MOL0     C 6727   5.914   3.081   2.251 -0.2586  0.2644 -1.0685
  774MOL0     C 6728   6.041   3.026   2.274 -0.7045 -0.6740 -0.7665
  774MOL0     C 6729   6.445   2.998   2.483 -0.5798  0.3701  0.8825
  774MOL0     C 6730   6.429   2.891   2.582 -0.1642  0.6422  0.7931
  774MOL0     C 6731   6.545   2.840   2.647 -0.4718 -0.4159  0.1158
  774MOL0     C 6732   6.673   2.883   2.625  0.2077 -0.3998  0.2713
  774MOL0     O 6733   6.772   2.847   2.712 -0.5468  0.3598  0.2426
  774MOL0     C 6734   6.841   2.943   2.804  0.2827  0.1285  0.4088
  774MOL0     C 6735   6.747   2.998   2.922  0.1476 -0.9745  0.2055
  774MOL0     C 6736   6.774   2.942   3.066  0.1032 -0.4614 -0.0916
  774MOL0     C 6737   6.686   3.000   3.168  0.1352 -0.3900  0.5906
  774MOL0     C 6738   6.745   3.008   3.305  0.0393  0.1258 -0.2182
  774MOL0     C 6739   6.796   3.018   3.414 -0.5256  0.9614 -0.3369
  774MOL0     C 6740   6.690   2.979   2.533  0.0481  0.4882 -0.3947
  774MOL0     C 6741   6.585   3.027   2.455  0.2983 -0.4971  0.8095
  774MOL0     C 6742   6.636   3.127   2.350  0.3884  0.3070 -0.0789
  774MOL0     H 6743   6.019   3.010   2.617  0.8980 -2.7170 -1.1664
  774MOL0     H 6744   5.799   3.136   2.567  0.9141  0.3461  1.2469
  774MOL0     H 6745   5.517   3.276   2.355  0.5250 -0.0484 -1.6488
  774MOL0     H 6746   5.645   3.272   2.478  1.0051  1.1275 -0.2770
  774MOL0     H 6747   5.496   3.023   2.401  0.8163 -0.2119 -0.0135
  774MOL0     H 6748   5.605   3.046   2.538 -0.7322 -1.5727  0.1110
  774MOL0     H 6749   5.377   3.045   2.624 -2.5365  0.1514 -1.6902
  774MOL0     H 6750   5.387   3.214   2.617  2.1565  0.4004  1.2733
  774MOL0     H 6751   5.308   3.209   2.361  5.7791 -3.4885 -2.0868
  774MOL0     H 6752   5.235   3.053   2.409  1.2996 -0.3787  0.4144
  774MOL0     H 6753   5.173   3.309   2.556 -0.7435  1.9035 -3.3418
  774MOL0     H 6754   5.133   3.144   2.614  2.3362 -1.1132  0.0717
  774MOL0     H 6755   5.079   3.276   2.338  3.5701 -2.2280 -0.5922
  774MOL0     H 6756   5.027   3.117   2.364 -0.0575  1.1966 -3.8203
  774MOL0     H 6757   4.885   3.248   2.571  0.4004 -1.0586 -0.9562
  774MOL0     H 6758   4.830   3.228   2.411  2.2427 -3.3661 -0.2083
  774MOL0     H 6759   4.990   3.469   2.529 -0.7738 -2.5720  1.0709
  774MOL0     H 6760   4.944   3.466   2.360 -0.7398  1.4752  0.3992
  774MOL0     H 6761   4.785   3.625   2.317 -2.0396  3.5416  1.1673
  774MOL0     H 6762   4.404   3.559   2.338  3.3556 -2.8994  2.9406
  774MOL0     H 6763   4.520   3.643   2.228 -2.1842  0.1502 -1.3113
  774MOL0     H 6764   4.376   3.764   2.470 -2.2796  0.1607 -2.3152
  774MOL0     H 6765   4.521   3.829   2.420 -2.6760  1.5346  4.1012
  774MOL0     H 6766   4.309   3.940   2.353 -1.0562 -1.6819  0.8367
  774MOL0     H 6767   4.396   3.885   2.210  1.8406  2.8368  2.1258
  774MOL0     H 6768   4.136   3.795   2.320  0.0027 -3.0947  0.3944
  774MOL0     H 6769   4.172   3.853   2.159  2.0702  1.0441 -0.4578
  774MOL0     H 6770   4.221   3.391   2.193  2.0769  2.5116  1.2213
  774MOL0     H 6771   3.998   3.232   1.998  0.2603 -1.3096  0.2845
  774MOL0     H 6772   3.988   3.144   2.160 -2.0328  0.8456 -0.5145
  774MOL0     H 6773   4.145   3.198   2.092  0.8799  3.9067 -1.9739
  774MOL0     H 6774   3.522   3.159   2.028 -0.7054  0.6533 -0.7226
  774MOL0     H 6775   3.316   3.083   2.095  0.7293 -0.4104 -3.5755
  774MOL0     H 6776   3.043   3.073   2.358  1.4482 -1.3083  6.7973
  774MOL0     H 6777   3.191   3.036   2.276 -1.0781 -1.7452  1.3908
  774MOL0     H 6778   3.306   3.194   2.430 -1.3642  1.2821 -4.1124
  774MOL0     H 6779   3.148   3.221   2.498 -0.6406 -0.5357 -1.5414
  774MOL0     H 6780   3.321   3.040   2.623 -0.0459  3.4287 -2.2534
  774MOL0     H 6781   3.297   2.941   2.484  2.4404  1.2287 -0.1550
  774MOL0     H 6782   3.158   2.843   2.636  3.7939  1.4770  0.6580
  774MOL0     H 6783   3.044   2.938   2.535 -2.3854  2.2085  1.4155
  774MOL0     H 6784   3.171   2.981   2.815 -0.4504 -1.3284 -0.4961
  774MOL0     H 6785   3.109   3.127   2.727 -2.4019 -0.0226  0.3746
  774MOL0     H 6786   2.947   2.879   2.790 -0.8286  0.6272  3.3554
  774MOL0     H 6787   2.894   3.011   2.695 -1.2843  1.0478  2.1000
  774MOL0     H 6788   2.822   3.036   2.917  0.3364 -2.8710 -1.2918
  774MOL0     H 6789   2.943   3.169   2.883 -0.0065  0.0171  3.9129
  774MOL0     H 6790   2.990   3.087   3.120  0.8466 -0.9832  0.3794
  774MOL0     H 6791   3.117   3.044   3.005  0.5185  1.4778  1.7657
  774MOL0     H 6792   3.234   3.486   2.280 -0.9581  1.2415 -2.7826
  774MOL0     H 6793   3.459   3.543   2.211 -0.9585 -0.0346 -0.1783
  774MOL0     H 6794   3.764   3.581   2.191  0.9245  1.5279 -1.0703
  774MOL0     H 6795   3.939   3.736   2.210  0.4947 -0.6880  0.8881
  774MOL0     H 6796   5.877   3.081   2.149 -4.1866 -1.9776  0.1559
  774MOL0     H 6797   6.113   2.996   2.198 -1.4711  0.8812 -2.1747
  774MOL0     H 6798   6.334   2.850   2.615  1.9404 -4.8773  1.0303
  774MOL0     H 6799   6.527   2.773   2.730  1.0160 -2.7908 -1.3767
  774MOL0     H 6800   6.935   2.909   2.849  2.2874  2.1678 -1.8982
  774MOL0     H 6801   6.877   3.025   2.741 -0.8941  1.6164  1.6031
  774MOL0     H 6802   6.640   2.990   2.901  0.5653 -0.0662 -2.5445
  774MOL0     H 6803   6.755   3.107   2.927  0.7808 -1.0494  3.1096
  774MOL0     H 6804   6.744   2.837   3.068  1.9414 -1.0277 -0.3021
  774MOL0     H 6805   6.877   2.964   3.097 -0.4938  3.1121 -0.2095
  774MOL0     H 6806   6.585   2.960   3.180 -0.6013  1.4731  0.9447
  774MOL0     H 6807   6.668   3.105   3.142  0.3311  0.1000  2.3643
  774MOL0     H 6808   6.857   3.031   3.502  0.3122 -0.7767 -0.6320
  774MOL0     H 6809   6.791   3.012   2.510  1.7394 -3.7763 -0.0791
  774MOL0     H 6810   6.594   3.099   2.253 -3.7538  1.9154  1.0400
  774MOL0     H 6811   6.603   3.230   2.367 -1.5840  0.1298 -2.3757
  774MOL0     H 6812   6.745   3.123   2.345  0.7332  3.4357  1.9880
  775MOL0     O 6813   3.096   8.933   7.528  0.1704 -0.4277  0.7874
  775MOL0     C 6814   3.001   9.009   7.535  0.5355  0.7523 -0.3370
  775MOL0     O 6815   2.895   8.982   7.619 -0.2291 -0.3252  1.0467
  775MOL0     C 6816   2.870   8.846   7.655  0.5349 -0.3244  0.5274
  775MOL0     C 6817   2.955   8.782   7.747 -0.4163 -0.7680  0.2465
  775MOL0     C 6818   2.924   8.651   7.786 -0.3708 -1.0511 -0.2531
  775MOL0     C 6819   2.811   8.587   7.737 -0.0580 -0.6863 -0.9212
  775MOL0     O 6820   2.789   8.453   7.776  0.2348 -0.0729  0.4826
  775MOL0     C 6821   2.869   8.386   7.879  0.0553 -0.0387  0.1276
  775MOL0     C 6822   2.792   8.271   7.939 -0.8459  0.1569  0.2342
  775MOL0     C 6823   2.772   8.143   7.856 -0.2531  0.5431 -0.2897
  775MOL0     C 6824   2.676   8.033   7.912 -0.3334 -0.9301 -0.2578
  775MOL0     C 6825   2.650   7.892   7.842 -0.0255 -1.2844 -0.2620
  775MOL0     C 6826   2.633   7.923   7.692  0.3555 -0.2604  0.3025
  775MOL0     C 6827   2.530   8.042   7.649  0.8313  0.6090  0.3196
  775MOL0     C 6828   2.449   7.996   7.527  0.0058  0.1107  0.2675
  775MOL0     N 6829   2.538   7.963   7.416 -0.2903  0.5373 -0.7101
  775MOL0     C 6830   2.559   7.831   7.366  0.8576 -0.6596  0.4032
  775MOL0     C 6831   2.648   7.850   7.263 -0.2578  0.0227 -0.7196
  775MOL0     C 6832   2.690   7.730   7.177  0.7138 -0.2385  0.0254
  775MOL0     C 6833   2.782   7.643   7.256 -0.9902 -0.1619 -0.4747
  775MOL0     C 6834   2.865   7.560   7.163  0.2660 -0.3915 -0.3112
  775MOL0     C 6835   2.970   7.478   7.227  0.0265  0.1393  0.4877
  775MOL0     O 6836   3.078   7.446   7.146  0.2346  0.2274  0.1737
  775MOL0     C 6837   3.163   7.344   7.179 -1.0827  1.2428  0.3596
  775MOL0     C 6838   3.141   7.250   7.288  0.5105 -0.2920 -0.5397
  775MOL0     C 6839   3.230   7.150   7.321  0.5823 -1.1808  0.8135
  775MOL0     C 6840   3.200   7.052   7.424 -0.0874  0.4183 -0.1056
  775MOL0     C 6841   3.352   7.150   7.255  0.4686  1.1154 -0.0933
  775MOL0     C 6842   3.455   7.049   7.283 -0.1609  0.8075 -0.3201
  775MOL0     O 6843   3.476   6.943   7.193  0.3482  0.2579 -0.1673
  775MOL0     C 6844   3.582   6.858   7.206  0.1387 -0.6154 -0.1831
  775MOL0     C 6845   3.556   6.716   7.195  0.4981  0.0761  0.3154
  775MOL0     C 6846   3.665   6.622   7.197  1.2343 -0.1833 -0.9014
  775MOL0     C 6847   3.794   6.668   7.213  0.3101  0.7172 -0.5494
  775MOL0     O 6848   3.898   6.594   7.260  0.1012  0.0439  0.0975
  775MOL0     C 6849   3.942   6.511   7.157 -0.1915  0.1816  0.3925
  775MOL0     C 6850   4.075   6.442   7.195  1.5323 -0.5937  0.4394
  775MOL0     C 6851   4.178   6.531   7.279  0.4029  0.0454 -0.9255
  775MOL0     C 6852   4.300   6.447   7.345 -0.1185  1.2157 -0.6207
  775MOL0     C 6853   4.415   6.532   7.392  0.1674  0.1476  0.5714
  775MOL0     C 6854   4.385   6.618   7.519  0.2090 -0.3595  0.3573
  775MOL0     C 6855   4.318   6.548   7.639  0.0302 -0.2444 -0.9267
  775MOL0     C 6856   4.346   6.615   7.772 -0.3324  0.7433 -0.1365
  775MOL0    Cl 6857   4.267   6.526   7.914 -0.5519  0.2940 -0.3538
  775MOL0     C 6858   3.817   6.805   7.231  0.2961 -0.6103  0.3520
  775MOL0     C 6859   3.714   6.903   7.233 -0.7231  0.1814  1.5782
  775MOL0     O 6860   3.523   7.054   7.387 -0.2716 -0.6901  0.8737
  775MOL0     C 6861   3.377   7.239   7.151 -0.3883 -0.4129 -0.1213
  775MOL0     C 6862   3.285   7.336   7.108 -0.2166  0.2161 -0.7779
  775MOL0     N 6863   2.669   7.981   7.237 -0.4652 -0.1845 -0.3099
  775MOL0     N 6864   2.626   8.045   7.348  0.7184  0.2309  0.3273
  775MOL0     C 6865   2.736   8.645   7.639  0.3221 -0.2444  0.6416
  775MOL0     C 6866   2.758   8.782   7.612 -0.2505  0.6751  0.8348
  775MOL0     C 6867   3.009   9.131   7.442  0.2901  0.9892 -0.0963
  775MOL0     C 6868   2.900   9.225   7.447  0.1395  0.1904  0.3584
  775MOL0     C 6869   2.891   9.335   7.371 -0.2311 -0.7677  0.2550
  775MOL0     C 6870   2.999   9.363   7.287  1.6270  0.9285 -0.6058
  775MOL0     O 6871   2.991   9.476   7.209 -1.0099 -0.0281 -0.2595
  775MOL0     C 6872   3.094   9.579   7.224  0.8973 -0.1227  0.8876
  775MOL0     C 6873   3.031   9.698   7.305  0.0919  0.3857 -0.1766
  775MOL0     C 6874   2.948   9.804   7.227  0.0876  0.2580 -0.0886
  775MOL0     C 6875   3.029   9.928   7.183  0.6344 -1.2608  0.7043
  775MOL0     C 6876   3.133   9.884   7.094 -0.1731  0.4157 -0.2186
  775MOL0     C 6877   3.231   9.828   7.048  0.6907  0.1700 -0.1889
  775MOL0     C 6878   3.104   9.280   7.283 -0.6377 -0.2038 -0.4118
  775MOL0     C 6879   3.117   9.165   7.360 -0.1035  0.8611 -0.6205
  775MOL0     C 6880   3.249   9.092   7.334  1.2409  0.5671 -0.3196
  775MOL0     H 6881   3.045   8.835   7.777  0.7408 -0.5297 -3.2035
  775MOL0     H 6882   2.993   8.595   7.849 -0.7475  0.1519  1.3010
  775MOL0     H 6883   2.894   8.454   7.961  2.7309 -0.4654 -0.2393
  775MOL0     H 6884   2.963   8.341   7.843  0.0242  0.2345 -0.3103
  775MOL0     H 6885   2.837   8.244   8.035 -1.1222  2.0169  0.9194
  775MOL0     H 6886   2.690   8.310   7.943 -1.2867 -1.0471  1.4935
  775MOL0     H 6887   2.737   8.179   7.759 -0.7416  1.7960  0.3381
  775MOL0     H 6888   2.869   8.095   7.843 -0.2167 -0.0307  1.7238
  775MOL0     H 6889   2.717   8.017   8.012  3.1377  0.7021 -1.2579
  775MOL0     H 6890   2.582   8.089   7.922  1.1313  1.3850  1.8497
  775MOL0     H 6891   2.558   7.847   7.881  0.6046 -2.5225 -0.1420
  775MOL0     H 6892   2.741   7.834   7.861  0.8572  0.2816  0.5250
  775MOL0     H 6893   2.734   7.948   7.658  1.5565  3.1853  5.2974
  775MOL0     H 6894   2.603   7.834   7.635  1.7676  0.2568 -1.3341
  775MOL0     H 6895   2.582   8.135   7.624 -0.7116  0.9311 -1.9140
  775MOL0     H 6896   2.464   8.062   7.734  0.1420 -1.9588  0.4552
  775MOL0     H 6897   2.397   7.903   7.551  2.9772 -1.5712  0.7203
  775MOL0     H 6898   2.378   8.070   7.491 -1.2926 -1.5586 -0.7780
  775MOL0     H 6899   2.503   7.741   7.392 -3.1403  0.9984 -1.5744
  775MOL0     H 6900   2.740   7.773   7.089 -0.0448 -0.6275 -0.6068
  775MOL0     H 6901   2.596   7.681   7.153 -0.0292  1.0454  0.2439
  775MOL0     H 6902   2.843   7.705   7.321  0.2695  0.6640 -2.3393
  775MOL0     H 6903   2.723   7.583   7.325 -0.9451 -0.0119 -0.3055
  775MOL0     H 6904   2.798   7.513   7.090 -2.5569  1.6937  0.7467
  775MOL0     H 6905   2.920   7.634   7.104 -1.8517  2.2722  0.8255
  775MOL0     H 6906   2.999   7.520   7.324 -0.6937  1.1390  0.2867
  775MOL0     H 6907   2.922   7.381   7.244 -1.8134  0.7635 -0.9056
  775MOL0     H 6908   3.053   7.251   7.351  1.0644  3.2986  0.3937
  775MOL0     H 6909   3.252   6.960   7.396  0.4655  0.9331 -0.7906
  775MOL0     H 6910   3.097   7.013   7.424  0.4591 -1.2297  2.0446
  775MOL0     H 6911   3.225   7.094   7.522 -1.3921 -0.9022  0.8443
  775MOL0     H 6912   3.454   6.678   7.187 -0.1323  1.8682 -0.7027
  775MOL0     H 6913   3.644   6.515   7.190  0.4441 -0.1786  0.8152
  775MOL0     H 6914   3.860   6.443   7.130  0.2550  0.3560 -1.5457
  775MOL0     H 6915   3.961   6.574   7.070  2.2626  0.8107  1.3050
  775MOL0     H 6916   4.049   6.367   7.271 -4.1947 -0.9150 -1.4014
  775MOL0     H 6917   4.119   6.390   7.110 -0.4944 -3.8036  1.1674
  775MOL0     H 6918   4.130   6.593   7.355  0.2492 -1.3951  0.1894
  775MOL0     H 6919   4.225   6.597   7.206  3.0618  0.2920  0.8805
  775MOL0     H 6920   4.351   6.384   7.271  0.1833  0.2539  0.3794
  775MOL0     H 6921   4.250   6.391   7.424 -0.8013  1.8711 -0.5710
  775MOL0     H 6922   4.498   6.461   7.393 -1.0416 -1.5204 -2.4482
  775MOL0     H 6923   4.442   6.609   7.319  0.3670 -0.7798 -0.3634
  775MOL0     H 6924   4.315   6.698   7.494  0.4385  0.1769  1.3591
  775MOL0     H 6925   4.468   6.680   7.555  0.1505 -1.8668  3.3722
  775MOL0     H 6926   4.348   6.443   7.632  1.0640  0.1362 -4.5377
  775MOL0     H 6927   4.211   6.560   7.619 -0.2222  1.2689  1.0333
  775MOL0     H 6928   4.308   6.717   7.758  0.7520  1.0394 -1.1297
  775MOL0     H 6929   4.452   6.628   7.795 -0.4346  0.5578  0.4568
  775MOL0     H 6930   3.911   6.846   7.265 -0.3034  0.4498  0.7814
  775MOL0     H 6931   3.730   7.011   7.236 -1.2290  0.2821  0.9712
  775MOL0     H 6932   3.472   7.239   7.098  0.7270  1.0832  1.7484
  775MOL0     H 6933   3.308   7.413   7.035 -1.0567  0.0956 -1.1788
  775MOL0     H 6934   2.647   8.591   7.609 -2.1279  1.9938  3.2586
  775MOL0     H 6935   2.706   8.853   7.548  1.0484  1.6457  0.8052
  775MOL0     H 6936   2.817   9.206   7.515 -1.3582  2.5727 -0.6880
  775MOL0     H 6937   2.804   9.399   7.383 -0.7814 -1.6070  0.7774
  775MOL0     H 6938   3.181   9.534   7.272  1.7835 -2.7564 -2.7574
  775MOL0     H 6939   3.120   9.604   7.121  1.7656 -3.0487  0.3146
  775MOL0     H 6940   3.120   9.743   7.350 -1.0521  2.0857  0.4820
  775MOL0     H 6941   2.976   9.657   7.391  1.6051 -0.6788  0.3234
  775MOL0     H 6942   2.892   9.769   7.139  0.2538 -0.7634  0.2049
  775MOL0     H 6943   2.874   9.832   7.302  0.8829  0.7926  0.5102
  775MOL0     H 6944   3.068   9.988   7.267  1.8019  0.8526 -1.2360
  775MOL0     H 6945   2.977  10.009   7.131 -1.2050 -1.3725  2.2756
  775MOL0     H 6946   3.324   9.780   7.026  0.6016 -2.4440  4.0511
  775MOL0     H 6947   3.191   9.314   7.226 -0.0285 -1.6173 -0.3712
  775MOL0     H 6948   3.331   9.157   7.303  5.1970 -2.6953  2.1439
  775MOL0     H 6949   3.279   9.043   7.428 -3.2033 -0.8002  0.6236
  775MOL0     H 6950   3.244   9.016   7.255 -0.9756  0.0915  0.1942
  776MOL0     O 6951   8.129  10.946   5.530 -0.3051  0.2445  0.4277
  776MOL0     C 6952   8.188  11.012   5.622  1.0200  0.3329  1.4030
  776MOL0     O 6953   8.192  11.150   5.620  0.4878  0.3780 -0.5479
  776MOL0     C 6954   8.149  11.213   5.504 -0.6002 -0.2968  0.4310
  776MOL0     C 6955   8.197  11.199   5.373  0.2157 -0.2646  0.8291
  776MOL0     C 6956   8.136  11.265   5.261  0.9644 -0.6328 -0.3263
  776MOL0     C 6957   8.023  11.346   5.284 -0.2351  0.6236  0.0372
  776MOL0     O 6958   7.969  11.410   5.180 -0.0884  0.2822 -0.1833
  776MOL0     C 6959   8.003  11.545   5.161 -0.7007 -0.3309 -0.2015
  776MOL0     C 6960   7.875  11.618   5.147 -0.2908  0.1395  0.3462
  776MOL0     C 6961   7.922  11.769   5.154  1.0700  0.4920 -0.3320
  776MOL0     C 6962   7.796  11.858   5.122 -0.4389  0.0371 -0.4139
  776MOL0     C 6963   7.822  12.005   5.094 -0.0942  0.4364 -0.1291
  776MOL0     C 6964   7.702  12.092   5.072 -0.2696 -0.4341 -0.6904
  776MOL0     C 6965   7.659  12.076   4.927  0.6190  0.2379  0.2178
  776MOL0     C 6966   7.726  12.179   4.839 -0.6491  0.4871  1.4439
  776MOL0     N 6967   7.719  12.148   4.690 -0.8870 -0.1250  0.6496
  776MOL0     C 6968   7.623  12.199   4.601 -0.0496  0.4295 -0.1598
  776MOL0     C 6969   7.633  12.116   4.494  0.3580 -0.7025  0.4818
  776MOL0     C 6970   7.546  12.136   4.377  0.1336 -0.3242  0.4533
  776MOL0     C 6971   7.616  12.137   4.242 -0.3515  0.6412  0.0829
  776MOL0     C 6972   7.548  12.243   4.139 -0.6209  0.2224 -0.1604
  776MOL0     C 6973   7.619  12.234   3.996  0.1980  0.2841 -0.2064
  776MOL0     O 6974   7.743  12.289   3.991 -1.2077 -0.4120  0.6711
  776MOL0     C 6975   7.810  12.299   3.867  1.0551  0.4591 -0.6873
  776MOL0     C 6976   7.929  12.226   3.860  1.1566  1.1935 -1.0931
  776MOL0     C 6977   8.000  12.224   3.745  0.0204 -0.1221  1.1327
  776MOL0     C 6978   8.142  12.163   3.740  0.1903  0.1478  0.4960
  776MOL0     C 6979   7.944  12.286   3.627 -0.2787 -0.4702  0.5050
  776MOL0     C 6980   7.996  12.278   3.488  0.9847 -0.7831  0.8631
  776MOL0     O 6981   7.927  12.364   3.394  0.3622 -0.2878  0.1458
  776MOL0     C 6982   7.963  12.372   3.262  0.9871 -0.2376  0.4439
  776MOL0     C 6983   7.865  12.364   3.159  0.2170 -0.8688  0.0940
  776MOL0     C 6984   7.900  12.357   3.029 -0.2426  0.0421 -0.4175
  776MOL0     C 6985   8.036  12.371   2.984 -0.6120  0.1327 -0.0019
  776MOL0     O 6986   8.062  12.361   2.844  0.0699 -0.2011 -0.5094
  776MOL0     C 6987   8.198  12.359   2.809  0.6174 -0.0809 -0.0462
  776MOL0     C 6988   8.174  12.346   2.657 -0.2043  0.4338  1.5136
  776MOL0     C 6989   8.313  12.369   2.596 -0.2615  0.1032  0.1137
  776MOL0     C 6990   8.310  12.399   2.442 -1.5297  0.2337  0.0857
  776MOL0     C 6991   8.440  12.421   2.380 -0.2020  0.9309 -1.1571
  776MOL0     C 6992   8.440  12.415   2.231  0.3487 -0.1261  0.2824
  776MOL0     C 6993   8.578  12.419   2.165  0.9492 -0.5989 -0.4416
  776MOL0     C 6994   8.683  12.526   2.190  0.5738 -0.1955 -0.0338
  776MOL0    Cl 6995   8.638  12.691   2.149  0.3984  0.6602  0.2079
  776MOL0     C 6996   8.136  12.406   3.082  0.2738 -0.3851  0.1425
  776MOL0     C 6997   8.095  12.402   3.222  0.6364 -0.0970  0.0102
  776MOL0     O 6998   8.083  12.203   3.450  0.6863 -1.3824  0.1246
  776MOL0     C 6999   7.837  12.378   3.642  0.6221  0.8970 -0.4484
  776MOL0     C 7000   7.768  12.382   3.762  0.6349 -0.0182  1.0298
  776MOL0     N 7001   7.742  12.029   4.514  0.8784  0.2688  1.2823
  776MOL0     N 7002   7.796  12.051   4.626  0.1701  0.0995  1.0347
  776MOL0     C 7003   7.978  11.368   5.409 -0.8856 -0.0628 -0.0614
  776MOL0     C 7004   8.053  11.311   5.519  0.6254  0.3687 -0.0828
  776MOL0     C 7005   8.248  10.938   5.735 -0.8348  0.2449 -0.9684
  776MOL0     C 7006   8.218  10.797   5.747  0.0985  0.3628 -0.0771
  776MOL0     C 7007   8.288  10.726   5.833  1.2833  0.5351 -0.1864
  776MOL0     C 7008   8.378  10.773   5.930  0.1138 -0.2852 -0.1177
  776MOL0     O 7009   8.456  10.700   6.015  0.5398 -0.7703 -0.0310
  776MOL0     C 7010   8.435  10.555   6.028  0.1706  0.0564  0.3792
  776MOL0     C 7011   8.537  10.488   6.121  0.5932  0.3078  0.8260
  776MOL0     C 7012   8.662  10.440   6.046 -1.2640  0.0842 -0.2468
  776MOL0     C 7013   8.782  10.387   6.144 -0.1524 -0.0445 -0.6702
  776MOL0     C 7014   8.842  10.271   6.081 -0.6662 -0.5988  0.0945
  776MOL0     C 7015   8.906  10.178   6.031 -0.1865 -0.3349  0.4820
  776MOL0     C 7016   8.403  10.913   5.928 -0.1444 -0.1664  0.6888
  776MOL0     C 7017   8.344  10.991   5.834  0.2967  0.8585 -0.6742
  776MOL0     C 7018   8.390  11.131   5.852 -1.4850 -0.5642  0.7911
  776MOL0     H 7019   8.283  11.134   5.359 -1.5306 -2.1427 -2.5541
  776MOL0     H 7020   8.163  11.266   5.156  0.5803  0.5332 -0.4311
  776MOL0     H 7021   8.061  11.567   5.071 -0.1002 -1.8593 -0.2293
  776MOL0     H 7022   8.064  11.572   5.248 -0.9905  0.6831 -0.2999
  776MOL0     H 7023   7.809  11.581   5.067 -1.2566 -0.2832  1.3136
  776MOL0     H 7024   7.818  11.599   5.238 -0.2460 -1.3525  0.0893
  776MOL0     H 7025   7.967  11.798   5.250 -0.7553 -0.7986  0.9922
  776MOL0     H 7026   7.989  11.775   5.068 -2.3345 -3.3680 -3.6471
  776MOL0     H 7027   7.738  11.826   5.035  0.5518  1.0986 -1.5024
  776MOL0     H 7028   7.729  11.839   5.207 -1.2662 -0.3795 -1.1421
  776MOL0     H 7029   7.891  12.015   5.011  0.9899 -1.4123  0.4877
  776MOL0     H 7030   7.878  12.033   5.184 -1.0276 -2.5922  1.5502
  776MOL0     H 7031   7.619  12.058   5.136  2.5483 -4.2083  1.3796
  776MOL0     H 7032   7.724  12.199   5.080  0.0304 -0.3006 -2.6688
  776MOL0     H 7033   7.552  12.096   4.920 -0.0732 -2.7430  1.1511
  776MOL0     H 7034   7.680  11.976   4.889  3.3672  1.2681 -1.2447
  776MOL0     H 7035   7.677  12.277   4.843  2.2537  2.0508  1.0476
  776MOL0     H 7036   7.833  12.195   4.857 -0.0161 -2.0836  0.4050
  776MOL0     H 7037   7.548  12.275   4.622 -0.7850 -0.5452  0.9008
  776MOL0     H 7038   7.497  12.233   4.389  1.8384  0.6701 -0.1947
  776MOL0     H 7039   7.473  12.055   4.378 -0.6616  0.2623 -2.2241
  776MOL0     H 7040   7.718  12.175   4.258 -0.2659  1.4791 -2.1263
  776MOL0     H 7041   7.613  12.034   4.207  3.5410 -0.3111  1.9626
  776MOL0     H 7042   7.446  12.208   4.126 -1.2045  1.8561 -0.2518
  776MOL0     H 7043   7.544  12.346   4.177 -1.2021 -0.2516  1.1305
  776MOL0     H 7044   7.617  12.131   3.958 -1.3369  0.1843  0.0655
  776MOL0     H 7045   7.551  12.303   3.944 -0.6447  2.6087  3.6214
  776MOL0     H 7046   7.964  12.175   3.949  2.4567  4.3869  0.3484
  776MOL0     H 7047   8.153  12.079   3.671 -1.9906  0.4955 -0.3481
  776MOL0     H 7048   8.185  12.143   3.839  0.4653  0.2789  0.4033
  776MOL0     H 7049   8.208  12.236   3.692  2.8257 -3.0670 -1.1990
  776MOL0     H 7050   7.761  12.350   3.188  0.1511 -0.8429 -0.1277
  776MOL0     H 7051   7.817  12.344   2.961 -3.6579  2.0120  2.9725
  776MOL0     H 7052   8.246  12.450   2.845 -1.4237  1.6212 -1.3103
  776MOL0     H 7053   8.253  12.273   2.848  0.1729 -0.8557 -1.0649
  776MOL0     H 7054   8.141  12.244   2.640 -1.3397  0.5482  2.7965
  776MOL0     H 7055   8.098  12.415   2.619  1.0727  0.3541 -1.3975
  776MOL0     H 7056   8.380  12.285   2.618 -1.8222 -0.6142  2.5430
  776MOL0     H 7057   8.345  12.468   2.631  3.3529  0.3623 -3.2985
  776MOL0     H 7058   8.259  12.492   2.414  0.5952  0.6109 -3.0798
  776MOL0     H 7059   8.251  12.329   2.382  1.4122 -0.4027 -2.2808
  776MOL0     H 7060   8.480  12.517   2.415  1.3079 -0.6564  1.8091
  776MOL0     H 7061   8.514  12.347   2.412  1.5942  2.8387 -0.6676
  776MOL0     H 7062   8.376  12.493   2.190  0.9269 -0.1937 -0.8103
  776MOL0     H 7063   8.395  12.319   2.203 -1.9290  1.1973 -0.8743
  776MOL0     H 7064   8.561  12.410   2.058  2.0683  0.7654 -0.7656
  776MOL0     H 7065   8.637  12.334   2.202 -1.8054 -1.5081  2.2807
  776MOL0     H 7066   8.772  12.502   2.133  1.4602  1.3803  0.6270
  776MOL0     H 7067   8.693  12.526   2.299  0.5032 -1.1010 -0.0197
  776MOL0     H 7068   8.239  12.436   3.064  0.2632  1.5635  2.7914
  776MOL0     H 7069   8.166  12.417   3.302  1.7691 -1.3593 -0.7304
  776MOL0     H 7070   7.793  12.443   3.567 -0.1947  3.9578  2.4026
  776MOL0     H 7071   7.680  12.446   3.768  0.0153 -0.9011  1.6326
  776MOL0     H 7072   7.891  11.432   5.426 -1.9477 -0.9449 -1.8807
  776MOL0     H 7073   8.016  11.334   5.619  2.4166  0.9263  0.4783
  776MOL0     H 7074   8.143  10.754   5.682  0.6237  0.0021 -0.4577
  776MOL0     H 7075   8.260  10.621   5.826 -0.1308  0.9106 -0.4612
  776MOL0     H 7076   8.337  10.541   6.074  0.3179  1.0306  1.0145
  776MOL0     H 7077   8.440  10.506   5.930  2.8870 -3.5356  2.0735
  776MOL0     H 7078   8.493  10.392   6.152  0.0566 -0.5690 -2.3483
  776MOL0     H 7079   8.557  10.562   6.200 -1.7180  2.2552 -0.2579
  776MOL0     H 7080   8.635  10.354   5.984  0.1050 -0.3233 -0.3226
  776MOL0     H 7081   8.700  10.526   5.990 -0.9607  1.0445  1.3769
  776MOL0     H 7082   8.737  10.335   6.229 -1.3637  0.2928 -1.0860
  776MOL0     H 7083   8.844  10.472   6.176 -1.0684  0.0457  0.9430
  776MOL0     H 7084   8.976  10.102   6.002  1.7522  1.0648  1.2979
  776MOL0     H 7085   8.478  10.953   5.996 -1.3260 -1.5846  2.9708
  776MOL0     H 7086   8.306  11.199   5.835  0.7749  2.4831  0.7965
  776MOL0     H 7087   8.439  11.165   5.944  3.0016 -3.0845 -0.3685
  776MOL0     H 7088   8.461  11.159   5.773 -0.1978 -0.2344  2.0272
  777MOL0     O 7089   6.084   7.892  11.115 -0.8674  0.6961 -0.6909
  777MOL0     C 7090   6.103   8.002  11.079  0.5837  0.9776  0.3022
  777MOL0     O 7091   6.022   8.111  11.101 -0.2937  0.2413 -0.5051
  777MOL0     C 7092   5.912   8.106  11.182 -0.0028 -0.2256 -0.3677
  777MOL0     C 7093   5.843   8.224  11.176  0.1700 -0.0672 -0.2636
  777MOL0     C 7094   5.724   8.239  11.254 -0.0307  0.2057 -0.1230
  777MOL0     C 7095   5.680   8.143  11.344  0.3115  0.2225  0.4517
  777MOL0     O 7096   5.576   8.165  11.431  0.6253 -0.8352  0.1601
  777MOL0     C 7097   5.471   8.066  11.420 -0.9379  0.3589  0.0675
  777MOL0     C 7098   5.342   8.113  11.490  0.4075 -0.1987 -0.3459
  777MOL0     C 7099   5.286   8.255  11.473 -0.0268 -0.6596 -0.7171
  777MOL0     C 7100   5.238   8.282  11.333 -0.4388 -0.3373  0.8763
  777MOL0     C 7101   5.099   8.224  11.295 -0.2419  0.0001 -1.0082
  777MOL0     C 7102   5.057   8.258  11.153 -0.1952  0.4524 -0.5846
  777MOL0     C 7103   4.951   8.153  11.107  0.2354  0.1919 -0.9199
  777MOL0     C 7104   4.880   8.195  10.982 -0.8684  0.0506  0.9788
  777MOL0     N 7105   4.818   8.326  10.992 -0.2929  0.4243 -0.7203
  777MOL0     C 7106   4.710   8.372  11.064  0.1364  0.3158 -0.7041
  777MOL0     C 7107   4.699   8.500  11.034  0.1498 -0.3383  0.4640
  777MOL0     C 7108   4.589   8.593  11.072  0.0749 -0.1491 -0.1431
  777MOL0     C 7109   4.482   8.613  10.972 -0.1934  0.5807  0.2421
  777MOL0     C 7110   4.355   8.534  10.998  0.7824 -0.3705 -0.3577
  777MOL0     C 7111   4.278   8.513  10.862  0.0737 -0.1301  0.8352
  777MOL0     O 7112   4.277   8.634  10.776 -0.3754 -0.9879 -0.5932
  777MOL0     C 7113   4.151   8.660  10.710 -0.3955 -0.0324  0.0104
  777MOL0     C 7114   4.160   8.694  10.579  0.0311 -0.7652 -0.0435
  777MOL0     C 7115   4.047   8.737  10.512 -0.1328 -0.6003 -0.3707
  777MOL0     C 7116   4.058   8.777  10.366 -0.6763  0.5854  0.5965
  777MOL0     C 7117   3.918   8.733  10.576 -0.3118  0.4217  0.0270
  777MOL0     C 7118   3.801   8.789  10.506 -0.4655 -0.2355  0.0040
  777MOL0     O 7119   3.780   8.741  10.379  0.2989 -0.2683  0.1938
  777MOL0     C 7120   3.668   8.786  10.312 -0.0233 -0.1720  0.3995
  777MOL0     C 7121   3.561   8.699  10.270 -0.0210 -0.1042 -0.4430
  777MOL0     C 7122   3.453   8.754  10.197 -0.2899 -0.5129  0.6011
  777MOL0     C 7123   3.446   8.894  10.167 -0.4532  1.1858  0.3333
  777MOL0     O 7124   3.341   8.949  10.096  0.2387 -0.2438  0.5316
  777MOL0     C 7125   3.211   8.911  10.147 -0.8964  0.2568 -0.1446
  777MOL0     C 7126   3.124   8.881  10.026  0.3360  0.2953  0.3515
  777MOL0     C 7127   3.164   8.740   9.969 -0.4699 -1.1248 -0.1587
  777MOL0     C 7128   3.094   8.722   9.833 -0.6736 -0.2338 -0.9494
  777MOL0     C 7129   3.157   8.620   9.741 -0.8939  0.2179 -0.5347
  777MOL0     C 7130   3.047   8.589   9.638 -0.0744  0.4331  0.5284
  777MOL0     C 7131   3.111   8.500   9.526 -0.3426 -0.1575  0.2030
  777MOL0     C 7132   3.003   8.436   9.438 -0.3645  0.1279  0.4470
  777MOL0    Cl 7133   2.934   8.288   9.524  0.3676 -0.0905 -0.1850
  777MOL0     C 7134   3.557   8.972  10.198 -0.1172  0.5222  0.1168
  777MOL0     C 7135   3.667   8.920  10.272  0.8508 -0.7268  0.4195
  777MOL0     O 7136   3.720   8.863  10.572 -0.3572  0.8124  0.6266
  777MOL0     C 7137   3.910   8.685  10.706 -0.0778  0.4422  0.5649
  777MOL0     C 7138   4.023   8.661  10.775  0.4410  1.0856  0.2995
  777MOL0     N 7139   4.804   8.534  10.946 -0.2269 -0.2406 -0.8411
  777MOL0     N 7140   4.876   8.428  10.930 -0.5140 -0.2163  0.5008
  777MOL0     C 7141   5.747   8.022  11.346  0.8156 -0.6169 -0.0982
  777MOL0     C 7142   5.869   8.004  11.277  0.6761 -1.4798  0.6210
  777MOL0     C 7143   6.223   8.032  10.987 -0.0079 -0.4633 -0.0623
  777MOL0     C 7144   6.239   8.166  10.935  0.2604 -0.4733  0.4693
  777MOL0     C 7145   6.340   8.194  10.837 -0.9888 -0.9676 -0.1980
  777MOL0     C 7146   6.424   8.096  10.786  0.4678  0.4019 -0.6970
  777MOL0     O 7147   6.521   8.112  10.684  0.3473 -0.1585 -0.2516
  777MOL0     C 7148   6.540   8.248  10.621  0.6575  0.4417  0.6607
  777MOL0     C 7149   6.626   8.326  10.714 -0.0984 -0.3889  0.4427
  777MOL0     C 7150   6.643   8.464  10.665  0.0849  0.0179 -0.7684
  777MOL0     C 7151   6.778   8.543  10.704  0.6478  0.1713  0.5579
  777MOL0     C 7152   6.771   8.677  10.643  0.0039 -0.2759  0.0149
  777MOL0     C 7153   6.767   8.781  10.580  0.1986 -0.7222 -0.0699
  777MOL0     C 7154   6.411   7.969  10.845  0.9733 -0.7333 -0.5448
  777MOL0     C 7155   6.323   7.940  10.941 -0.6941 -0.3300 -0.2258
  777MOL0     C 7156   6.329   7.794  10.987 -0.1545 -0.3393  0.1233
  777MOL0     H 7157   5.880   8.307  11.117 -1.4664  0.0281 -1.2295
  777MOL0     H 7158   5.660   8.327  11.254 -1.0888 -0.5390  0.3309
  777MOL0     H 7159   5.513   7.968  11.444  1.2360  0.4749 -2.7535
  777MOL0     H 7160   5.431   8.056  11.318  0.5351  0.1530 -0.5120
  777MOL0     H 7161   5.267   8.036  11.469 -0.8549  1.0351 -0.4127
  777MOL0     H 7162   5.375   8.097  11.593 -0.1491 -2.8660 -0.5097
  777MOL0     H 7163   5.205   8.271  11.545  0.3176 -3.7672  0.5129
  777MOL0     H 7164   5.368   8.321  11.499  0.1384 -1.2352  0.2635
  777MOL0     H 7165   5.227   8.388  11.309 -0.7699 -1.0704 -2.9854
  777MOL0     H 7166   5.313   8.250  11.260  0.6245  1.8378  0.9461
  777MOL0     H 7167   5.022   8.248  11.369  0.1489 -0.4670 -0.4425
  777MOL0     H 7168   5.103   8.116  11.306 -1.0510 -0.2128 -2.5435
  777MOL0     H 7169   5.033   8.364  11.161  2.8356  1.1131  1.4665
  777MOL0     H 7170   5.136   8.260  11.077  1.7892 -1.5017  1.3064
  777MOL0     H 7171   4.887   8.141  11.194  0.4042 -2.8034 -1.0940
  777MOL0     H 7172   4.998   8.058  11.082 -5.4671 -2.8872 -1.6954
  777MOL0     H 7173   4.949   8.191  10.897  0.3293  4.6638  1.4566
  777MOL0     H 7174   4.807   8.117  10.961  0.2895 -0.5074 -1.2967
  777MOL0     H 7175   4.641   8.320  11.129  0.0930 -1.2410 -1.9407
  777MOL0     H 7176   4.621   8.695  11.098 -1.0595  0.0184  0.6864
  777MOL0     H 7177   4.548   8.551  11.164  1.4037 -1.2944 -0.0523
  777MOL0     H 7178   4.461   8.720  10.980  1.6904  0.8894  1.8691
  777MOL0     H 7179   4.512   8.598  10.868 -0.5109  0.8656  0.1066
  777MOL0     H 7180   4.369   8.441  11.053  2.8420  0.1697  0.1041
  777MOL0     H 7181   4.289   8.600  11.055  0.0065 -1.0008 -0.4965
  777MOL0     H 7182   4.329   8.435  10.805  0.2459  0.2328  0.4922
  777MOL0     H 7183   4.174   8.479  10.876 -1.0027  2.8140  0.6934
  777MOL0     H 7184   4.262   8.713  10.546  0.4005  0.1978  1.5212
  777MOL0     H 7185   4.163   8.790  10.339 -0.6028  0.3736  0.7846
  777MOL0     H 7186   4.009   8.868  10.330  2.5315  1.0153 -3.3784
  777MOL0     H 7187   4.010   8.695  10.311 -1.7933  1.6842 -0.1206
  777MOL0     H 7188   3.570   8.593  10.290 -2.9403 -0.2958  0.3268
  777MOL0     H 7189   3.368   8.693  10.171 -0.6528  0.6839 -1.1626
  777MOL0     H 7190   3.221   8.827  10.217 -0.1138  2.3530  2.4243
  777MOL0     H 7191   3.166   8.995  10.200 -2.6076 -0.3452 -0.5910
  777MOL0     H 7192   3.020   8.880  10.061  0.9283 -2.5313  2.3631
  777MOL0     H 7193   3.142   8.963   9.955 -0.1642 -0.7062 -0.9736
  777MOL0     H 7194   3.128   8.668  10.043 -2.4275  1.1739  1.2686
  777MOL0     H 7195   3.273   8.734   9.966 -0.3839  0.3013 -0.1069
  777MOL0     H 7196   3.102   8.815   9.775  0.7388 -1.0217 -2.1081
  777MOL0     H 7197   2.988   8.699   9.848 -0.7623  0.9533  0.4605
  777MOL0     H 7198   3.241   8.672   9.695 -1.2122  3.3274  2.0481
  777MOL0     H 7199   3.186   8.531   9.798 -1.9542 -0.0407 -0.3772
  777MOL0     H 7200   3.009   8.677   9.586  1.8756 -0.8198 -3.4249
  777MOL0     H 7201   2.973   8.533   9.696  0.5589 -1.2219 -0.2086
  777MOL0     H 7202   3.172   8.421   9.571  1.8625  0.6993 -1.1224
  777MOL0     H 7203   3.177   8.549   9.454 -1.5768  0.0948 -0.7930
  777MOL0     H 7204   3.050   8.404   9.345 -1.7737 -0.1763 -0.1799
  777MOL0     H 7205   2.923   8.509   9.420 -0.6959 -0.5897 -1.0989
  777MOL0     H 7206   3.552   9.076  10.169  1.0192 -0.2532 -3.3464
  777MOL0     H 7207   3.747   8.990  10.293  1.7904 -1.6188 -0.1012
  777MOL0     H 7208   3.817   8.668  10.760 -0.3224  2.2663  0.8074
  777MOL0     H 7209   4.022   8.623  10.877 -0.9834 -3.0291 -1.0202
  777MOL0     H 7210   5.706   7.954  11.420 -0.6451 -2.3336 -2.3444
  777MOL0     H 7211   5.928   7.913  11.283  3.5984  0.2189 -0.3243
  777MOL0     H 7212   6.168   8.243  10.962  0.2562  0.2405 -1.4149
  777MOL0     H 7213   6.358   8.296  10.805 -1.1508  0.0123  2.5288
  777MOL0     H 7214   6.587   8.246  10.522 -1.4997  2.8102 -0.5384
  777MOL0     H 7215   6.444   8.300  10.614 -1.0448 -2.1526  2.7527
  777MOL0     H 7216   6.723   8.276  10.713 -0.5857 -1.4174 -1.9893
  777MOL0     H 7217   6.600   8.319  10.820 -0.6058 -3.0272  0.2109
  777MOL0     H 7218   6.616   8.477  10.560  2.4095  1.0346 -1.2898
  777MOL0     H 7219   6.575   8.525  10.725  1.2552 -1.5266  2.3937
  777MOL0     H 7220   6.869   8.495  10.667  1.9933  0.0980  3.6698
  777MOL0     H 7221   6.787   8.553  10.812  1.0574  3.1474  0.3276
  777MOL0     H 7222   6.740   8.870  10.527 -1.8662 -2.8802 -3.0006
  777MOL0     H 7223   6.481   7.901  10.797 -0.0297 -0.1448 -3.0177
  777MOL0     H 7224   6.227   7.759  11.002  0.3416 -1.4001  1.1974
  777MOL0     H 7225   6.383   7.723  10.922 -0.5788 -3.0762  2.5359
  777MOL0     H 7226   6.395   7.799  11.074  2.0368  0.1312 -1.4632
  778MOL0     O 7227   3.578   7.694   8.645  0.6176  0.4209 -0.4990
  778MOL0     C 7228   3.481   7.705   8.723 -0.4250  1.4952  0.4283
  778MOL0     O 7229   3.421   7.597   8.783  0.5449 -0.7252  0.6112
  778MOL0     C 7230   3.470   7.464   8.782 -1.1553 -1.1410  0.6865
  778MOL0     C 7231   3.377   7.356   8.780  0.7918 -0.0722 -0.8933
  778MOL0     C 7232   3.404   7.221   8.776  0.8421 -0.7071  0.4711
  778MOL0     C 7233   3.542   7.186   8.784 -0.9921  0.3713  0.0694
  778MOL0     O 7234   3.587   7.062   8.776 -0.1204  0.8116  0.1532
  778MOL0     C 7235   3.506   6.943   8.752  0.8274  0.6171  1.2253
  778MOL0     C 7236   3.456   6.935   8.608  0.4352 -0.2132  0.9020
  778MOL0     C 7237   3.379   6.807   8.569  0.4395  0.0173 -0.0210
  778MOL0     C 7238   3.350   6.802   8.419 -0.1949  0.3128  0.8112
  778MOL0     C 7239   3.455   6.702   8.354 -0.1489 -0.2746 -0.2154
  778MOL0     C 7240   3.454   6.711   8.207 -0.3065 -0.0560  0.7942
  778MOL0     C 7241   3.561   6.612   8.148 -0.5399 -0.5199 -0.6712
  778MOL0     C 7242   3.538   6.565   7.997  1.1447  0.2238 -0.4586
  778MOL0     N 7243   3.436   6.465   7.967  0.5501  0.5212  0.3673
  778MOL0     C 7244   3.305   6.466   8.007 -0.7063  0.4422  0.4244
  778MOL0     C 7245   3.231   6.390   7.924  0.2215 -0.0906 -0.0066
  778MOL0     C 7246   3.082   6.379   7.915 -0.6473  0.4533 -0.5981
  778MOL0     C 7247   3.016   6.267   7.993  0.6605  0.3172 -0.4754
  778MOL0     C 7248   2.857   6.284   7.996  0.1792 -0.5265  0.5398
  778MOL0     C 7249   2.787   6.148   8.014  0.2124 -0.3325  0.0961
  778MOL0     O 7250   2.833   6.073   8.128  1.0566  0.0745 -0.0356
  778MOL0     C 7251   2.791   6.103   8.257  0.2199 -0.6250  0.1396
  778MOL0     C 7252   2.849   6.025   8.357 -0.3617 -0.1827 -0.5599
  778MOL0     C 7253   2.816   6.042   8.493  0.4506  0.4353 -0.4703
  778MOL0     C 7254   2.899   5.966   8.597  0.4057 -1.0904  0.7289
  778MOL0     C 7255   2.738   6.153   8.529 -0.4432 -0.3181  1.2335
  778MOL0     C 7256   2.711   6.200   8.669 -0.1178 -1.1773 -0.6213
  778MOL0     O 7257   2.702   6.100   8.768  0.8142  0.8789  0.9629
  778MOL0     C 7258   2.680   6.129   8.900  0.3422  0.0501 -0.1263
  778MOL0     C 7259   2.562   6.201   8.934 -0.1809  0.3600 -0.7966
  778MOL0     C 7260   2.530   6.228   9.070  0.0430 -0.2780  0.0904
  778MOL0     C 7261   2.608   6.168   9.172  0.3936  0.2816 -0.7285
  778MOL0     O 7262   2.571   6.186   9.302 -0.4275 -0.0871 -0.4487
  778MOL0     C 7263   2.554   6.081   9.395  0.1385 -0.1461 -0.1620
  778MOL0     C 7264   2.450   6.121   9.499 -0.9926 -0.1375 -0.3728
  778MOL0     C 7265   2.493   6.231   9.597  0.0610  0.1743 -0.4324
  778MOL0     C 7266   2.365   6.267   9.675 -0.8367  0.8282  0.7572
  778MOL0     C 7267   2.385   6.389   9.769 -0.0200  0.0234 -0.9938
  778MOL0     C 7268   2.272   6.400   9.867 -0.8011  0.4216  0.3102
  778MOL0     C 7269   2.143   6.437   9.798  0.0279 -0.8462  0.3990
  778MOL0     C 7270   2.032   6.464   9.890  1.0023  0.0284 -0.0206
  778MOL0    Cl 7271   2.061   6.599  10.006  0.5937  0.2247 -0.2922
  778MOL0     C 7272   2.728   6.108   9.133 -0.6270 -0.6534  0.2269
  778MOL0     C 7273   2.765   6.089   8.999 -0.1204  0.0620 -0.4915
  778MOL0     O 7274   2.710   6.322   8.693 -0.1389  0.6626 -0.2110
  778MOL0     C 7275   2.665   6.212   8.428  0.7490 -0.1178 -0.0424
  778MOL0     C 7276   2.688   6.192   8.293  0.9929 -0.3799  0.9237
  778MOL0     N 7277   3.317   6.346   7.827 -0.3074  0.2071  1.1458
  778MOL0     N 7278   3.434   6.387   7.855 -0.8300 -0.1299 -0.0645
  778MOL0     C 7279   3.645   7.285   8.787 -0.3100 -0.0667  0.0183
  778MOL0     C 7280   3.606   7.429   8.794  0.2665  0.1522 -0.0181
  778MOL0     C 7281   3.417   7.833   8.737 -0.2154 -0.0545  0.0512
  778MOL0     C 7282   3.495   7.953   8.707  0.8932  0.4426  0.5212
  778MOL0     C 7283   3.438   8.080   8.704  0.4060 -0.2830 -0.3856
  778MOL0     C 7284   3.312   8.110   8.748 -0.0270 -0.3242 -0.9394
  778MOL0     O 7285   3.266   8.242   8.742  0.1753  0.0966 -0.4370
  778MOL0     C 7286   3.169   8.275   8.840 -0.5965  0.1515  0.1462
  778MOL0     C 7287   3.126   8.421   8.824  0.3134  0.0523 -0.0462
  778MOL0     C 7288   3.000   8.471   8.900 -0.1985  0.2125  0.2010
  778MOL0     C 7289   3.005   8.459   9.054  0.4173  0.3418 -0.3756
  778MOL0     C 7290   2.977   8.319   9.106  0.1152  0.8982  0.5843
  778MOL0     C 7291   2.939   8.210   9.145  1.1933  0.2679  1.1475
  778MOL0     C 7292   3.237   7.996   8.781 -0.1577  0.7918  0.1453
  778MOL0     C 7293   3.284   7.862   8.773  0.1082  0.2888  0.9919
  778MOL0     C 7294   3.186   7.751   8.820  0.3037  0.4830 -0.4798
  778MOL0     H 7295   3.278   7.400   8.785  0.4227 -0.7746 -1.8422
  778MOL0     H 7296   3.321   7.152   8.779  1.1236 -1.0348  0.8065
  778MOL0     H 7297   3.418   6.927   8.816  1.2849 -2.6917  1.2041
  778MOL0     H 7298   3.570   6.858   8.778  2.1481  0.9282 -0.7652
  778MOL0     H 7299   3.396   7.024   8.585  0.0752 -0.9183 -1.0166
  778MOL0     H 7300   3.533   6.936   8.531 -3.2898 -1.7568 -3.2396
  778MOL0     H 7301   3.428   6.713   8.597 -1.4126 -0.8836  0.3960
  778MOL0     H 7302   3.281   6.833   8.611  0.1958 -1.1521  0.1751
  778MOL0     H 7303   3.255   6.752   8.400 -0.2012  1.2157 -2.0931
  778MOL0     H 7304   3.349   6.902   8.372  1.1443  0.2215  0.5502
  778MOL0     H 7305   3.439   6.601   8.394 -6.3425 -0.1064 -1.3223
  778MOL0     H 7306   3.550   6.741   8.391  0.9667 -1.3970 -1.7701
  778MOL0     H 7307   3.353   6.682   8.175 -0.6149  2.6477 -0.9695
  778MOL0     H 7308   3.473   6.812   8.171 -2.5726  0.1659  0.0442
  778MOL0     H 7309   3.582   6.523   8.208  1.3954  0.2343 -0.1513
  778MOL0     H 7310   3.656   6.666   8.152 -0.1049 -1.3735  1.7100
  778MOL0     H 7311   3.505   6.657   7.948 -2.2191  0.1933  1.4196
  778MOL0     H 7312   3.635   6.540   7.954 -0.2627 -1.9651 -2.6427
  778MOL0     H 7313   3.275   6.528   8.090 -3.2650 -2.0736  1.5243
  778MOL0     H 7314   3.051   6.359   7.812  0.2638  5.1691 -1.9933
  778MOL0     H 7315   3.040   6.476   7.944  1.5453  1.0641  0.7127
  778MOL0     H 7316   3.032   6.173   7.940  0.6740 -0.8086  1.4305
  778MOL0     H 7317   3.067   6.268   8.090  0.7425  0.7385 -0.5182
  778MOL0     H 7318   2.833   6.352   8.078  1.9714  1.0770 -0.1674
  778MOL0     H 7319   2.823   6.333   7.903  1.9376 -2.5050 -1.2508
  778MOL0     H 7320   2.684   6.184   8.018  0.0238 -0.1916 -3.1566
  778MOL0     H 7321   2.803   6.078   7.931 -0.2382 -0.7340  0.3447
  778MOL0     H 7322   2.934   5.956   8.361 -1.0298 -1.0577  4.1556
  778MOL0     H 7323   2.980   5.909   8.551  1.5382  2.1163 -1.6444
  778MOL0     H 7324   2.837   5.898   8.656  0.5188 -0.9741  0.9876
  778MOL0     H 7325   2.951   6.035   8.665 -0.2292  2.2955 -1.9716
  778MOL0     H 7326   2.497   6.243   8.858 -1.8947 -3.9661 -2.0181
  778MOL0     H 7327   2.441   6.286   9.094  0.3457  0.4080 -0.3910
  778MOL0     H 7328   2.520   5.987   9.349 -4.9034  0.2445  2.0409
  778MOL0     H 7329   2.651   6.063   9.442 -1.3600 -2.4533  2.3941
  778MOL0     H 7330   2.370   6.159   9.435  0.4834 -1.2689 -3.0676
  778MOL0     H 7331   2.417   6.034   9.555 -0.2357  0.0757  0.4176
  778MOL0     H 7332   2.533   6.320   9.546  0.1642  2.0347  2.6524
  778MOL0     H 7333   2.575   6.193   9.659 -0.5253 -0.2180  0.1090
  778MOL0     H 7334   2.339   6.182   9.739  2.5230 -2.3293 -1.6787
  778MOL0     H 7335   2.278   6.296   9.616 -0.6797 -1.4312 -0.6729
  778MOL0     H 7336   2.476   6.393   9.829 -2.4890  1.9242  3.0643
  778MOL0     H 7337   2.376   6.478   9.706  0.3555  1.2612  0.6272
  778MOL0     H 7338   2.294   6.476   9.943  0.5661 -0.4331  0.8045
  778MOL0     H 7339   2.267   6.305   9.921 -1.1486  0.8184  0.9844
  778MOL0     H 7340   2.122   6.364   9.720 -0.5200  2.2414 -2.5419
  778MOL0     H 7341   2.151   6.527   9.737 -1.0783 -1.8442 -1.2995
  778MOL0     H 7342   2.014   6.372   9.946 -1.1884  1.5779  1.9852
  778MOL0     H 7343   1.948   6.490   9.825  0.6672  0.8067  0.7077
  778MOL0     H 7344   2.805   6.076   9.202 -0.6464  2.1040  1.6560
  778MOL0     H 7345   2.850   6.031   8.964 -0.3240 -0.7234  0.2822
  778MOL0     H 7346   2.606   6.302   8.446  2.1768  0.8433 -0.0321
  778MOL0     H 7347   2.632   6.249   8.220  1.1036 -1.5397 -0.1038
  778MOL0     H 7348   3.751   7.261   8.789  0.4819  2.4738 -3.0950
  778MOL0     H 7349   3.679   7.503   8.824 -0.2628 -1.0684  5.1041
  778MOL0     H 7350   3.597   7.936   8.674  0.3506  0.3665 -1.2478
  778MOL0     H 7351   3.501   8.162   8.671 -3.6508  2.7384 -1.4989
  778MOL0     H 7352   3.080   8.212   8.841 -1.5048  1.3881 -0.2536
  778MOL0     H 7353   3.223   8.270   8.935  2.9843  0.4393 -1.7353
  778MOL0     H 7354   3.096   8.447   8.722  0.4419  2.6508  0.5130
  778MOL0     H 7355   3.212   8.482   8.854  1.8125 -2.7637  1.8135
  778MOL0     H 7356   2.983   8.578   8.883 -2.8007 -0.2570 -0.4782
  778MOL0     H 7357   2.905   8.421   8.881  0.1410 -2.3372  4.1324
  778MOL0     H 7358   2.916   8.506   9.095 -0.0638  0.4799 -1.5363
  778MOL0     H 7359   3.095   8.504   9.097  1.3152 -0.3241 -1.4878
  778MOL0     H 7360   2.891   8.121   9.179 -0.4085  0.2342 -1.0227
  778MOL0     H 7361   3.135   8.014   8.815  0.0099  1.3364  0.3728
  778MOL0     H 7362   3.176   7.659   8.761 -1.9145  0.3089  0.0636
  778MOL0     H 7363   3.237   7.732   8.915  2.0809  2.6355 -0.9193
  778MOL0     H 7364   3.085   7.791   8.832  0.8849  1.7713  0.2717
  779MOL0     O 7365   2.963   9.852   3.753 -0.2339 -0.3756 -0.3032
  779MOL0     C 7366   3.062   9.806   3.695 -0.2210  0.0577 -0.1716
  779MOL0     O 7367   3.134   9.692   3.726  0.4429  0.7566 -0.3022
  779MOL0     C 7368   3.117   9.660   3.861  0.5669  0.4773 -1.2002
  779MOL0     C 7369   3.155   9.753   3.960  0.1488  0.0469 -0.1997
  779MOL0     C 7370   3.131   9.728   4.094 -1.0073 -0.4744 -0.5986
  779MOL0     C 7371   3.096   9.600   4.134  0.3174  0.5168 -0.4409
  779MOL0     O 7372   3.095   9.571   4.263 -0.3695 -0.5875  0.1964
  779MOL0     C 7373   3.211   9.498   4.308 -0.1242  0.6358  0.0031
  779MOL0     C 7374   3.195   9.345   4.299 -0.3071 -0.2583 -0.4265
  779MOL0     C 7375   3.091   9.294   4.402 -0.8766 -0.4840  0.0887
  779MOL0     C 7376   3.090   9.144   4.415  0.5759 -0.0293 -0.3454
  779MOL0     C 7377   2.959   9.114   4.493 -0.4462  0.0328 -0.3167
  779MOL0     C 7378   2.975   8.975   4.555  0.6833 -1.1543 -0.4978
  779MOL0     C 7379   2.851   8.947   4.635  0.3708 -0.8994 -0.2021
  779MOL0     C 7380   2.803   9.025   4.760  0.3537  1.2059 -0.3231
  779MOL0     N 7381   2.855   8.987   4.891 -0.4301 -0.5961  0.1094
  779MOL0     C 7382   2.978   9.025   4.943 -0.2262 -0.1230 -0.5353
  779MOL0     C 7383   2.994   8.959   5.060  0.5798 -0.3932 -0.7413
  779MOL0     C 7384   3.112   8.936   5.150 -0.9062 -0.1242 -0.4317
  779MOL0     C 7385   3.245   8.941   5.077 -0.0561  0.7754  0.1520
  779MOL0     C 7386   3.250   8.840   4.974  0.2433 -1.1615 -0.2781
  779MOL0     C 7387   3.241   8.699   5.037 -0.2255  0.2640 -0.4141
  779MOL0     O 7388   3.261   8.598   4.937  0.8530 -0.0011 -0.1876
  779MOL0     C 7389   3.156   8.578   4.855  0.2828 -0.7071  0.3060
  779MOL0     C 7390   3.180   8.523   4.730 -0.9399  1.0609  0.0506
  779MOL0     C 7391   3.090   8.522   4.621 -0.5612  0.2770  0.3284
  779MOL0     C 7392   3.130   8.468   4.482 -0.2119 -0.5557  0.3366
  779MOL0     C 7393   2.959   8.570   4.645 -0.5627 -0.1885 -0.7506
  779MOL0     C 7394   2.854   8.581   4.544  0.1573 -0.3323 -0.0273
  779MOL0     O 7395   2.728   8.601   4.585  0.0711  0.1762 -0.7318
  779MOL0     C 7396   2.623   8.637   4.505  0.7447 -0.4876  0.8648
  779MOL0     C 7397   2.543   8.738   4.564  0.1040 -0.3030  0.4433
  779MOL0     C 7398   2.444   8.798   4.475  0.7511  0.0495 -0.0431
  779MOL0     C 7399   2.411   8.745   4.349  0.3324  0.0085  0.4134
  779MOL0     O 7400   2.313   8.787   4.259 -0.8167 -0.1736  0.2471
  779MOL0     C 7401   2.288   8.928   4.249  0.5064 -0.3680  0.1106
  779MOL0     C 7402   2.181   8.986   4.347  1.0040  0.6907 -0.8135
  779MOL0     C 7403   2.044   8.924   4.345 -0.4006  0.6286 -0.9407
  779MOL0     C 7404   1.940   8.994   4.434 -0.2962 -0.1415 -0.6181
  779MOL0     C 7405   1.823   8.907   4.419 -0.4082  1.1191  0.0576
  779MOL0     C 7406   1.697   8.998   4.430 -0.4987 -0.2114 -0.2709
  779MOL0     C 7407   1.566   8.918   4.416  0.3612  0.3212  0.0120
  779MOL0     C 7408   1.442   8.976   4.496 -0.2803  0.8521  0.4777
  779MOL0    Cl 7409   1.399   9.144   4.424 -0.5567  0.6391 -0.4176
  779MOL0     C 7410   2.496   8.643   4.299  0.0214  0.0714 -0.7027
  779MOL0     C 7411   2.603   8.588   4.375  0.0572  0.8607 -0.4996
  779MOL0     O 7412   2.888   8.575   4.425 -0.0270 -0.0065  0.3251
  779MOL0     C 7413   2.931   8.623   4.766  0.0855 -0.0760 -0.1074
  779MOL0     C 7414   3.025   8.610   4.871  0.2060 -0.0893  0.3814
  779MOL0     N 7415   2.870   8.897   5.085  0.1321 -1.1911  0.5355
  779MOL0     N 7416   2.793   8.917   4.987 -0.3090 -0.6475 -0.2451
  779MOL0     C 7417   3.059   9.501   4.037 -0.7123 -0.4169 -0.5644
  779MOL0     C 7418   3.074   9.532   3.902  0.6297  0.5468 -0.8753
  779MOL0     C 7419   3.095   9.878   3.575  0.0853 -0.8560  0.4384
  779MOL0     C 7420   3.156   9.811   3.472 -0.5317 -0.5729  0.3136
  779MOL0     C 7421   3.196   9.874   3.355 -0.4361  1.2365  1.0433
  779MOL0     C 7422   3.191  10.009   3.328  0.9812  0.0260 -0.3054
  779MOL0     O 7423   3.232  10.065   3.207  0.0682 -0.7926 -0.0407
  779MOL0     C 7424   3.308   9.991   3.109 -0.4719  0.4581  0.0530
  779MOL0     C 7425   3.440   9.972   3.171 -0.0936  0.6548  0.0564
  779MOL0     C 7426   3.551   9.930   3.072 -0.2798  0.0459  0.3370
  779MOL0     C 7427   3.661   9.851   3.136 -1.1453  0.6198  0.1544
  779MOL0     C 7428   3.785   9.843   3.053  0.9965 -1.4411  0.0465
  779MOL0     C 7429   3.891   9.841   2.997  0.2267 -0.1683  0.9796
  779MOL0     C 7430   3.134  10.080   3.428 -0.2357 -0.3441  0.1521
  779MOL0     C 7431   3.084  10.020   3.553  0.2865 -0.1259 -0.2494
  779MOL0     C 7432   3.023  10.111   3.670  0.9174 -0.7813  0.5758
  779MOL0     H 7433   3.196   9.844   3.917 -0.1624 -0.8578 -2.5496
  779MOL0     H 7434   3.139   9.798   4.177 -1.1897 -1.2709  0.1027
  779MOL0     H 7435   3.211   9.530   4.412 -5.0958 -1.0085  0.7871
  779MOL0     H 7436   3.297   9.540   4.254 -1.9167  1.0736 -2.7068
  779MOL0     H 7437   3.184   9.319   4.193  0.7531  1.5472 -1.0159
  779MOL0     H 7438   3.290   9.301   4.331 -2.7279 -3.5082  3.2322
  779MOL0     H 7439   3.126   9.331   4.498  0.0322  4.0453 -1.7359
  779MOL0     H 7440   2.992   9.341   4.390 -1.6384 -2.3089 -1.1926
  779MOL0     H 7441   3.093   9.092   4.319 -1.1671 -1.6999  0.4270
  779MOL0     H 7442   3.174   9.115   4.477  1.2056  0.7834 -0.7913
  779MOL0     H 7443   2.879   9.123   4.418  0.2879  1.6850 -0.9406
  779MOL0     H 7444   2.938   9.195   4.563 -1.8506  1.8194 -2.6295
  779MOL0     H 7445   2.995   8.893   4.485 -3.9311 -2.0152 -1.1072
  779MOL0     H 7446   3.052   8.989   4.632 -0.9111 -2.3442  1.3856
  779MOL0     H 7447   2.865   8.840   4.652 -0.2339 -0.8802  0.4517
  779MOL0     H 7448   2.765   8.956   4.567  0.6524  0.7051 -0.3647
  779MOL0     H 7449   2.834   9.129   4.745 -0.6741  1.3253 -1.7785
  779MOL0     H 7450   2.694   9.012   4.764  0.4772  0.1888  3.0946
  779MOL0     H 7451   3.056   9.091   4.905 -1.5063  3.4158  2.3693
  779MOL0     H 7452   3.106   8.840   5.201 -0.1092  0.6827  1.3083
  779MOL0     H 7453   3.109   9.014   5.228 -1.0842  0.9229 -1.4551
  779MOL0     H 7454   3.248   9.036   5.025 -0.5521  0.4052 -0.5588
  779MOL0     H 7455   3.330   8.921   5.144 -0.9940 -2.3039  0.5861
  779MOL0     H 7456   3.184   8.861   4.889  0.9918 -4.8767 -2.0163
  779MOL0     H 7457   3.347   8.860   4.929  0.4431 -0.5806  0.3982
  779MOL0     H 7458   3.322   8.690   5.110 -0.3540  0.9893 -0.1778
  779MOL0     H 7459   3.145   8.691   5.088 -0.1172  5.3107  1.1021
  779MOL0     H 7460   3.278   8.485   4.700 -1.8929 -0.3638 -1.4944
  779MOL0     H 7461   3.047   8.408   4.444 -0.1359 -0.6605  0.3382
  779MOL0     H 7462   3.224   8.412   4.475  1.6217  2.3730 -0.4816
  779MOL0     H 7463   3.150   8.562   4.429 -3.4473  1.2763  2.0660
  779MOL0     H 7464   2.556   8.776   4.665  1.6275  2.0627 -0.5694
  779MOL0     H 7465   2.373   8.860   4.527 -1.1866 -2.6961  0.7957
  779MOL0     H 7466   2.380   8.987   4.248  0.2380  0.1393 -2.8793
  779MOL0     H 7467   2.246   8.947   4.150  2.2397 -5.1097 -1.8002
  779MOL0     H 7468   2.218   8.982   4.450  0.1523  2.2154 -0.4107
  779MOL0     H 7469   2.170   9.091   4.316  0.4129 -0.1127 -3.6400
  779MOL0     H 7470   2.053   8.818   4.373  4.0387  1.2928  1.0940
  779MOL0     H 7471   1.997   8.926   4.247 -0.9172  2.9506 -0.6978
  779MOL0     H 7472   1.925   9.095   4.395  3.1332  0.4399 -0.7604
  779MOL0     H 7473   1.974   9.015   4.535 -1.5575  3.0182 -0.7553
  779MOL0     H 7474   1.819   8.845   4.329 -2.0168  2.1732 -0.6451
  779MOL0     H 7475   1.829   8.833   4.500  1.5459  2.2188  0.9971
  779MOL0     H 7476   1.696   9.075   4.352  1.6804  0.0794 -0.0856
  779MOL0     H 7477   1.701   9.062   4.519  1.5349 -1.1967  0.3996
  779MOL0     H 7478   1.580   8.819   4.460 -2.0240 -0.2603 -0.3764
  779MOL0     H 7479   1.538   8.905   4.312  1.7142  2.4548 -0.6844
  779MOL0     H 7480   1.460   8.981   4.604  2.6194  1.1990  0.0770
  779MOL0     H 7481   1.351   8.919   4.481  0.5006 -0.0594 -1.0486
  779MOL0     H 7482   2.476   8.620   4.195  2.0108 -1.6495 -0.7678
  779MOL0     H 7483   2.681   8.520   4.342  0.4146  0.6797  0.6848
  779MOL0     H 7484   2.836   8.670   4.787  0.0782 -0.8201  1.6787
  779MOL0     H 7485   2.989   8.643   4.968 -0.3150 -2.2625  0.9830
  779MOL0     H 7486   3.015   9.404   4.061 -0.4340  0.1895  2.8223
  779MOL0     H 7487   3.059   9.447   3.836 -1.2581  1.1471 -1.2887
  779MOL0     H 7488   3.185   9.708   3.484  3.7606  0.6070  1.6228
  779MOL0     H 7489   3.228   9.808   3.276 -1.1740 -1.5545  2.9320
  779MOL0     H 7490   3.266   9.893   3.085 -0.0049  0.7653 -2.3498
  779MOL0     H 7491   3.320  10.050   3.018  1.3592  2.7712  1.6784
  779MOL0     H 7492   3.440   9.904   3.257 -1.4897  1.3314  0.6363
  779MOL0     H 7493   3.478  10.061   3.221  0.1307 -0.4071  1.8764
  779MOL0     H 7494   3.514   9.860   2.996  2.0726 -1.9948  0.9250
  779MOL0     H 7495   3.579  10.025   3.028 -1.6673  0.0610 -0.5595
  779MOL0     H 7496   3.629   9.748   3.155  0.8856 -0.3459 -1.3578
  779MOL0     H 7497   3.698   9.897   3.228 -1.7744  0.0957  0.6789
  779MOL0     H 7498   3.985   9.831   2.947 -1.1159  1.7359 -2.1841
  779MOL0     H 7499   3.130  10.186   3.407  4.9711 -0.0934 -0.8315
  779MOL0     H 7500   2.915  10.115   3.691  0.6810 -1.3953 -0.4500
  779MOL0     H 7501   3.073  10.075   3.760 -1.8842 -2.4204  1.6387
  779MOL0     H 7502   3.045  10.215   3.647 -0.3589 -1.1623 -2.9826
  780MOL0     O 7503   4.271   1.748   6.419 -0.3297 -0.0982  0.4809
  780MOL0     C 7504   4.225   1.744   6.312  0.6890  0.4321  0.5093
  780MOL0     O 7505   4.108   1.819   6.270 -0.6253  0.4232 -0.5008
  780MOL0     C 7506   4.062   1.914   6.350  0.4110 -1.0018 -0.4114
  780MOL0     C 7507   3.986   1.887   6.465 -0.3045  0.0473 -0.5097
  780MOL0     C 7508   3.956   1.991   6.562  0.8335  0.2751  1.0205
  780MOL0     C 7509   4.009   2.110   6.551 -0.3544 -0.2804  0.1044
  780MOL0     O 7510   3.971   2.221   6.632 -0.5610 -0.5199  0.0967
  780MOL0     C 7511   3.851   2.213   6.712  0.3091 -0.5700  0.8125
  780MOL0     C 7512   3.783   2.336   6.778 -0.5717  0.2573 -0.5511
  780MOL0     C 7513   3.853   2.377   6.910  0.8466  0.4418 -0.0118
  780MOL0     C 7514   3.988   2.445   6.888  1.2566  0.3506  0.0730
  780MOL0     C 7515   4.048   2.472   7.010 -0.6367 -0.0161  0.3306
  780MOL0     C 7516   4.171   2.555   7.000 -0.8387  0.0313  0.3039
  780MOL0     C 7517   4.248   2.546   7.130 -0.9291  0.4918  0.4643
  780MOL0     C 7518   4.360   2.648   7.124  0.5858 -0.2927  0.4973
  780MOL0     N 7519   4.446   2.666   7.246  0.0939  0.5896 -0.0646
  780MOL0     C 7520   4.416   2.609   7.365 -0.0617 -0.1318 -0.2633
  780MOL0     C 7521   4.514   2.663   7.454 -0.2662  1.0036 -0.2431
  780MOL0     C 7522   4.484   2.661   7.606 -0.5248 -0.4284  0.0191
  780MOL0     C 7523   4.584   2.575   7.660  0.2970 -0.2513  0.0951
  780MOL0     C 7524   4.556   2.573   7.810  0.5758 -0.4744 -0.1692
  780MOL0     C 7525   4.646   2.478   7.878  0.0856 -0.3971 -0.1373
  780MOL0     O 7526   4.643   2.487   8.018  0.4467 -0.6297 -0.2427
  780MOL0     C 7527   4.678   2.382   8.104 -0.5284  0.2043 -0.0209
  780MOL0     C 7528   4.613   2.373   8.228  0.3446 -0.2306 -0.1766
  780MOL0     C 7529   4.631   2.270   8.321  0.5925  0.4032  0.4453
  780MOL0     C 7530   4.548   2.265   8.444  0.0992  0.2579 -0.0878
  780MOL0     C 7531   4.730   2.176   8.281  1.0262 -0.6667 -0.4981
  780MOL0     C 7532   4.754   2.050   8.358  0.4887 -0.5117 -0.5323
  780MOL0     O 7533   4.674   2.030   8.473  0.3968 -0.5954  0.1504
  780MOL0     C 7534   4.685   1.913   8.542  0.5333  0.0807  0.6909
  780MOL0     C 7535   4.814   1.866   8.591  0.3125  0.0894  0.2627
  780MOL0     C 7536   4.826   1.747   8.656 -0.1014 -0.1618 -0.0025
  780MOL0     C 7537   4.706   1.675   8.688  0.1936  0.5821 -0.0926
  780MOL0     O 7538   4.705   1.556   8.761  0.6401  0.3344 -0.1249
  780MOL0     C 7539   4.830   1.502   8.797  0.1361 -0.0796  0.1380
  780MOL0     C 7540   4.795   1.412   8.919  0.1853  0.6400 -0.5210
  780MOL0     C 7541   4.906   1.301   8.945  0.5282  0.3388  0.0973
  780MOL0     C 7542   4.881   1.214   9.064  0.3774  0.2650 -0.8594
  780MOL0     C 7543   4.981   1.098   9.064 -0.2284  0.6624  0.3216
  780MOL0     C 7544   4.979   1.021   9.196 -0.0578  0.4905  0.3369
  780MOL0     C 7545   4.853   0.945   9.230 -0.5921  0.3607 -0.5889
  780MOL0     C 7546   4.838   0.814   9.152 -0.3635  0.3734  0.9117
  780MOL0    Cl 7547   4.677   0.745   9.184  0.0526 -0.4400  0.3637
  780MOL0     C 7548   4.583   1.716   8.638  0.1053  0.2859 -0.0438
  780MOL0     C 7549   4.569   1.836   8.568 -0.3570 -0.1038  0.4007
  780MOL0     O 7550   4.835   1.961   8.313 -0.1062  0.0371 -0.1894
  780MOL0     C 7551   4.800   2.182   8.158 -0.0471  0.4106  0.0264
  780MOL0     C 7552   4.773   2.284   8.080  0.0775  0.0900 -0.2691
  780MOL0     N 7553   4.606   2.733   7.381  1.0715  0.3930  0.0277
  780MOL0     N 7554   4.571   2.725   7.254 -0.5884  0.4072 -1.1111
  780MOL0     C 7555   4.093   2.141   6.436  0.4005  0.8380  0.1142
  780MOL0     C 7556   4.121   2.041   6.332  0.5289  0.2961 -0.3382
  780MOL0     C 7557   4.293   1.655   6.215  0.7733  0.3363  0.8257
  780MOL0     C 7558   4.403   1.585   6.258 -0.0833 -0.0459 -0.1714
  780MOL0     C 7559   4.486   1.513   6.169 -0.2004 -0.2226 -0.0745
  780MOL0     C 7560   4.463   1.523   6.037  0.1468 -1.1236  1.3275
  780MOL0     O 7561   4.526   1.455   5.938 -0.1624 -0.4831 -0.5577
  780MOL0     C 7562   4.631   1.360   5.968  0.2562 -0.4335 -0.4517
  780MOL0     C 7563   4.615   1.240   5.883 -0.3051 -0.2328 -0.3972
  780MOL0     C 7564   4.619   1.265   5.737  0.2741  0.7063  0.3788
  780MOL0     C 7565   4.678   1.163   5.640  0.4952  0.9021  0.9009
  780MOL0     C 7566   4.603   1.040   5.636 -0.0298  0.2304 -0.3192
  780MOL0     C 7567   4.543   0.938   5.620 -0.1008  0.8940 -0.1911
  780MOL0     C 7568   4.345   1.587   5.990 -0.8145 -0.4937  0.7084
  780MOL0     C 7569   4.262   1.650   6.075 -0.8157  0.1433 -0.7127
  780MOL0     C 7570   4.161   1.729   6.000  1.0648  0.1207 -0.4291
  780MOL0     H 7571   3.952   1.789   6.495 -5.5907  2.2831  2.0444
  780MOL0     H 7572   3.888   1.956   6.640 -2.2184  2.4555 -0.4356
  780MOL0     H 7573   3.885   2.148   6.793 -1.8150 -1.5268  0.9811
  780MOL0     H 7574   3.783   2.166   6.640 -0.8016  2.0136  0.0691
  780MOL0     H 7575   3.775   2.420   6.709 -2.2951  1.9323  1.5305
  780MOL0     H 7576   3.675   2.322   6.779 -1.4066  4.5763 -2.8216
  780MOL0     H 7577   3.792   2.435   6.979  0.9436  2.5575 -1.6012
  780MOL0     H 7578   3.869   2.278   6.955  0.2402  0.0914 -0.5400
  780MOL0     H 7579   4.056   2.376   6.838  2.8164  2.7616 -1.3103
  780MOL0     H 7580   3.968   2.534   6.827  4.0027  2.1722  1.6406
  780MOL0     H 7581   4.060   2.382   7.071  2.4981 -0.6369 -1.0071
  780MOL0     H 7582   3.971   2.530   7.060 -0.1576  1.9485 -1.0818
  780MOL0     H 7583   4.248   2.524   6.929 -2.6061 -0.5156 -1.4601
  780MOL0     H 7584   4.146   2.661   6.987  0.3275  0.6858  2.7474
  780MOL0     H 7585   4.276   2.441   7.143  0.9419  0.6331 -1.7536
  780MOL0     H 7586   4.179   2.565   7.212  1.4189  0.2526  2.6002
  780MOL0     H 7587   4.422   2.632   7.035 -0.0860 -1.3261  0.2077
  780MOL0     H 7588   4.312   2.746   7.118 -0.0572 -0.6269  0.1265
  780MOL0     H 7589   4.331   2.545   7.389  1.3215 -2.4139 -1.0385
  780MOL0     H 7590   4.382   2.629   7.627 -0.4685 -1.6613 -1.3874
  780MOL0     H 7591   4.499   2.760   7.649 -3.4766  0.7369 -1.3428
  780MOL0     H 7592   4.562   2.480   7.610 -4.6911  2.2950 -3.4653
  780MOL0     H 7593   4.674   2.632   7.640  0.3806  0.8253  2.9724
  780MOL0     H 7594   4.579   2.670   7.855 -2.8355  0.1730  0.4998
  780MOL0     H 7595   4.454   2.546   7.839  0.8934  2.2218  4.3248
  780MOL0     H 7596   4.624   2.375   7.851  1.1763 -1.2408  1.9633
  780MOL0     H 7597   4.748   2.499   7.847 -0.0298  0.1615 -0.1574
  780MOL0     H 7598   4.534   2.446   8.244 -1.2342 -1.8225 -0.4500
  780MOL0     H 7599   4.466   2.194   8.458 -0.1459  0.7349  1.0112
  780MOL0     H 7600   4.507   2.366   8.453  0.5717  0.3141  1.9586
  780MOL0     H 7601   4.616   2.237   8.525  2.4373 -1.6722 -2.5966
  780MOL0     H 7602   4.900   1.930   8.577  1.0323 -0.5015  1.7267
  780MOL0     H 7603   4.924   1.712   8.686 -1.7738 -2.6309  3.2416
  780MOL0     H 7604   4.866   1.440   8.715 -3.2495 -2.1412  0.0077
  780MOL0     H 7605   4.902   1.575   8.836  0.6375 -0.4475 -0.0978
  780MOL0     H 7606   4.784   1.472   9.010 -0.2430 -0.3308  0.0890
  780MOL0     H 7607   4.701   1.357   8.909 -0.5452 -0.3290  6.5442
  780MOL0     H 7608   4.999   1.357   8.961  0.0729  0.6199  1.9470
  780MOL0     H 7609   4.919   1.232   8.861 -0.2677 -1.7962  1.6321
  780MOL0     H 7610   4.781   1.170   9.060 -1.5234  4.2313 -1.6657
  780MOL0     H 7611   4.885   1.283   9.149 -6.0754 -0.3129  0.4661
  780MOL0     H 7612   4.946   1.037   8.981  0.1201 -1.3879  1.6148
  780MOL0     H 7613   5.082   1.138   9.051  0.2807 -0.5705  0.4322
  780MOL0     H 7614   4.995   1.089   9.281  0.3905 -0.0574  0.6992
  780MOL0     H 7615   5.061   0.950   9.189  1.4965  2.2674 -0.1913
  780MOL0     H 7616   4.772   1.016   9.214  1.3227  2.8566  0.0586
  780MOL0     H 7617   4.862   0.915   9.335  1.1956  0.9670 -0.5159
  780MOL0     H 7618   4.922   0.754   9.188  0.6043  1.0526 -0.1464
  780MOL0     H 7619   4.831   0.830   9.044  1.1651 -0.3162  0.6817
  780MOL0     H 7620   4.501   1.657   8.679  1.6594 -0.6912  1.7858
  780MOL0     H 7621   4.469   1.878   8.563  0.4017  1.6297 -1.7299
  780MOL0     H 7622   4.884   2.115   8.142  0.0704  1.0954 -2.7748
  780MOL0     H 7623   4.841   2.291   7.995  0.6650 -1.6787  0.0240
  780MOL0     H 7624   4.145   2.236   6.425 -0.2180  1.0608 -1.0231
  780MOL0     H 7625   4.175   2.062   6.240 -1.2788  0.9281 -1.3005
  780MOL0     H 7626   4.424   1.575   6.364  0.2390 -0.8072 -0.2988
  780MOL0     H 7627   4.569   1.459   6.214 -1.2815 -2.5037 -0.6738
  780MOL0     H 7628   4.725   1.409   5.940 -0.4711  2.2301  1.3205
  780MOL0     H 7629   4.636   1.322   6.071  1.2640 -0.4719 -0.5045
  780MOL0     H 7630   4.520   1.189   5.902 -0.5830 -2.4187 -5.9190
  780MOL0     H 7631   4.688   1.169   5.926 -0.4723 -0.3557 -0.3106
  780MOL0     H 7632   4.521   1.299   5.704  0.1341  1.5470  1.5952
  780MOL0     H 7633   4.692   1.346   5.727  2.3589 -1.0935  0.1547
  780MOL0     H 7634   4.776   1.138   5.682 -0.6094 -2.8439  1.5767
  780MOL0     H 7635   4.680   1.206   5.539  1.4760  0.9848  0.9507
  780MOL0     H 7636   4.494   0.844   5.604 -0.1400  0.8609  0.1129
  780MOL0     H 7637   4.336   1.587   5.882 -0.6632  0.0492  0.6967
  780MOL0     H 7638   4.170   1.836   6.019 -2.5661  0.4533  0.0442
  780MOL0     H 7639   4.151   1.715   5.893 -3.0304  1.7853 -0.4307
  780MOL0     H 7640   4.059   1.713   6.035  0.9781  0.2113 -0.6413
  781MOL0     O 7641   9.551   3.558   8.910  0.1606 -0.5768 -0.1903
  781MOL0     C 7642   9.611   3.660   8.881 -0.3381  0.8357 -0.6351
  781MOL0     O 7643   9.704   3.724   8.962  0.1677  0.6192  1.1957
  781MOL0     C 7644   9.737   3.711   9.091 -0.0563  0.1911 -0.3400
  781MOL0     C 7645   9.856   3.757   9.135 -0.3342  0.6357 -0.4620
  781MOL0     C 7646   9.894   3.748   9.266 -0.3753  0.4165  0.6072
  781MOL0     C 7647   9.803   3.699   9.363 -0.4096  0.1408 -0.3328
  781MOL0     O 7648   9.834   3.683   9.498  0.1606  0.2012  0.3725
  781MOL0     C 7649   9.962   3.644   9.547  0.3836 -1.3653  0.6984
  781MOL0     C 7650   9.993   3.507   9.515  0.6472  0.0716  0.5583
  781MOL0     C 7651  10.046   3.422   9.634 -0.7094 -0.3453 -0.7834
  781MOL0     C 7652   9.933   3.415   9.735  0.3848  0.0396  0.4541
  781MOL0     C 7653   9.949   3.310   9.842 -0.0667  0.1632  0.8270
  781MOL0     C 7654   9.853   3.315   9.956  0.1175  0.2895  0.5358
  781MOL0     C 7655   9.707   3.303   9.921  0.5505  1.0025  0.4795
  781MOL0     C 7656   9.664   3.170   9.849 -1.2214  0.4745 -0.0917
  781MOL0     N 7657   9.689   3.046   9.934 -0.0086 -0.6761 -0.1405
  781MOL0     C 7658   9.676   3.037  10.072 -0.9785  0.4532  0.0298
  781MOL0     C 7659   9.708   2.908  10.097  0.8424 -0.3469 -0.4225
  781MOL0     C 7660   9.729   2.850  10.241 -0.9985  0.5629  0.3570
  781MOL0     C 7661   9.873   2.833  10.279 -0.6237 -0.3874  0.6506
  781MOL0     C 7662   9.950   2.716  10.203 -0.4736  0.1541  0.8695
  781MOL0     C 7663  10.057   2.654  10.308 -0.2720  1.2818  0.3717
  781MOL0     O 7664  10.178   2.732  10.307  0.3464 -0.6825 -0.6978
  781MOL0     C 7665  10.283   2.702  10.387  0.1023  0.1962 -0.9403
  781MOL0     C 7666  10.271   2.631  10.506 -0.8171  0.4398 -0.4099
  781MOL0     C 7667  10.384   2.583  10.575  0.4972 -0.1474 -0.0063
  781MOL0     C 7668  10.359   2.488  10.695  0.6859  0.2379  0.4804
  781MOL0     C 7669  10.510   2.642  10.544  1.2163  0.1510 -0.3037
  781MOL0     C 7670  10.630   2.607  10.609 -0.5343 -0.2902  0.3555
  781MOL0     O 7671  10.693   2.711  10.643  0.0258  0.9501 -0.2593
  781MOL0     C 7672  10.792   2.726  10.735  0.5532 -0.0561 -0.6437
  781MOL0     C 7673  10.844   2.621  10.820 -0.9095 -0.3825 -0.4096
  781MOL0     C 7674  10.942   2.655  10.924  0.7676 -0.0378  0.9067
  781MOL0     C 7675  10.982   2.785  10.939 -0.4156 -0.1728 -0.1380
  781MOL0     O 7676  11.059   2.814  11.048 -0.7091 -0.1816  0.4077
  781MOL0     C 7677  11.025   2.939  11.106 -0.1718  0.2001 -0.0400
  781MOL0     C 7678  11.132   3.044  11.071  0.7208 -0.0334  1.1002
  781MOL0     C 7679  11.271   2.983  11.115 -0.2741  0.3201 -0.3684
  781MOL0     C 7680  11.393   3.064  11.068  0.1074 -0.0864 -0.6941
  781MOL0     C 7681  11.451   3.160  11.178 -0.7673  0.0728 -0.6786
  781MOL0     C 7682  11.535   3.087  11.289 -0.6695  0.2087 -0.5778
  781MOL0     C 7683  11.584   3.172  11.411 -0.7619  0.1834  0.1171
  781MOL0     C 7684  11.671   3.290  11.368 -0.4505  0.3624  0.9080
  781MOL0    Cl 7685  11.758   3.358  11.514  0.2056  0.5851  0.5964
  781MOL0     C 7686  10.932   2.880  10.849  0.4577  0.7069  0.1350
  781MOL0     C 7687  10.833   2.859  10.749  0.0207  0.0487  0.1359
  781MOL0     O 7688  10.651   2.491  10.638  0.0880  0.2668 -0.0996
  781MOL0     C 7689  10.521   2.713  10.422 -0.7511 -0.4993 -0.7315
  781MOL0     C 7690  10.408   2.739  10.347  0.3085  0.2940 -0.1041
  781MOL0     N 7691   9.752   2.851   9.982 -0.0451 -0.3553 -0.5286
  781MOL0     N 7692   9.730   2.930   9.882 -0.1383 -0.0597  0.0254
  781MOL0     C 7693   9.679   3.661   9.322 -0.1256 -0.6202 -0.6105
  781MOL0     C 7694   9.640   3.668   9.189 -0.2091 -0.3753  0.2265
  781MOL0     C 7695   9.597   3.725   8.741  0.4701 -0.6545  0.3025
  781MOL0     C 7696   9.640   3.864   8.729  0.1801 -0.1374  1.4608
  781MOL0     C 7697   9.631   3.921   8.606  1.1118  0.1183  0.4342
  781MOL0     C 7698   9.559   3.871   8.503 -0.8107  0.1935 -0.0138
  781MOL0     O 7699   9.551   3.938   8.381 -0.1215  0.3817 -0.0533
  781MOL0     C 7700   9.563   4.088   8.371 -0.1512  0.4207 -0.2741
  781MOL0     C 7701   9.513   4.134   8.242 -0.8935 -0.7251  0.0442
  781MOL0     C 7702   9.600   4.071   8.119 -0.4443 -0.2036  0.8440
  781MOL0     C 7703   9.544   4.114   7.986  0.0410 -0.8530  0.5773
  781MOL0     C 7704   9.545   4.263   7.974 -0.0053  0.4842 -0.0916
  781MOL0     C 7705   9.536   4.383   7.956 -1.4437  1.1299  0.2723
  781MOL0     C 7706   9.500   3.742   8.517 -0.1265  0.1830 -0.5315
  781MOL0     C 7707   9.527   3.665   8.628  0.3124 -0.7944  0.4476
  781MOL0     C 7708   9.473   3.525   8.636  0.0293 -0.8096 -0.3590
  781MOL0     H 7709   9.924   3.799   9.062 -1.8428  2.8730 -0.6999
  781MOL0     H 7710   9.988   3.788   9.304 -0.1420 -0.9120  1.4986
  781MOL0     H 7711   9.976   3.678   9.650  1.3035  2.6226 -0.5475
  781MOL0     H 7712  10.043   3.703   9.503  0.0270  1.2680  3.2752
  781MOL0     H 7713   9.904   3.467   9.466  0.5580  1.7063 -0.7199
  781MOL0     H 7714  10.070   3.515   9.437  0.1098  1.3418  0.1234
  781MOL0     H 7715  10.089   3.324   9.609  1.7844 -0.6878  3.6968
  781MOL0     H 7716  10.131   3.464   9.688 -1.0964  0.0344 -0.4640
  781MOL0     H 7717   9.925   3.508   9.793 -2.0417 -1.2203  2.3779
  781MOL0     H 7718   9.834   3.401   9.690  1.4132 -1.0288 -1.5780
  781MOL0     H 7719  10.049   3.325   9.884  1.4348  4.7396 -3.3977
  781MOL0     H 7720   9.952   3.212   9.793  0.4297  1.5234 -2.0713
  781MOL0     H 7721   9.883   3.233  10.022 -0.4284  0.1163  0.5732
  781MOL0     H 7722   9.879   3.407  10.011  0.4070  0.6556 -0.2004
  781MOL0     H 7723   9.678   3.384   9.853 -1.1017 -0.7259 -0.9760
  781MOL0     H 7724   9.656   3.315  10.016 -2.0200  0.4663 -0.7427
  781MOL0     H 7725   9.560   3.191   9.822 -0.8807  3.7411  0.7130
  781MOL0     H 7726   9.727   3.153   9.762 -0.3824  0.5456  0.4940
  781MOL0     H 7727   9.653   3.115  10.143 -0.6692  1.0804 -0.5439
  781MOL0     H 7728   9.671   2.759  10.259 -0.6345  0.2600  0.0142
  781MOL0     H 7729   9.691   2.924  10.312 -0.1765  1.1059  0.2440
  781MOL0     H 7730   9.932   2.923  10.258 -2.8982  1.2455  0.8929
  781MOL0     H 7731   9.874   2.822  10.387  0.2237 -0.7971  0.6112
  781MOL0     H 7732   9.884   2.643  10.154  1.9805 -0.1859 -2.2477
  781MOL0     H 7733  10.006   2.763  10.122  0.1985 -1.8550  0.1032
  781MOL0     H 7734  10.019   2.629  10.408  3.6896 -2.9507  1.1877
  781MOL0     H 7735  10.099   2.564  10.263  0.3076  1.9985 -0.5374
  781MOL0     H 7736  10.175   2.591  10.537 -2.2884  4.1119  0.3063
  781MOL0     H 7737  10.383   2.383  10.671 -0.5189  0.0056  0.2487
  781MOL0     H 7738  10.252   2.481  10.716  0.9690 -1.8824  1.4528
  781MOL0     H 7739  10.406   2.533  10.783 -0.2101  2.1075  0.0425
  781MOL0     H 7740  10.817   2.516  10.816 -2.0624 -0.0956 -0.6152
  781MOL0     H 7741  10.980   2.580  10.992 -0.5611  1.0270  2.9135
  781MOL0     H 7742  10.925   2.962  11.068 -0.7183 -0.9319  0.6782
  781MOL0     H 7743  11.010   2.910  11.210  1.4428 -1.4530 -0.2189
  781MOL0     H 7744  11.130   3.076  10.966  1.8815 -3.6068 -0.1397
  781MOL0     H 7745  11.119   3.136  11.130 -3.2624  0.1560  0.2171
  781MOL0     H 7746  11.280   2.886  11.064 -1.2969  0.0727 -0.0956
  781MOL0     H 7747  11.272   2.966  11.223 -3.5602 -0.3174 -0.3383
  781MOL0     H 7748  11.372   3.118  10.975  1.5511 -0.8207 -1.4936
  781MOL0     H 7749  11.475   2.997  11.039 -1.1835 -1.6975 -0.7770
  781MOL0     H 7750  11.513   3.232  11.124 -0.3930  1.2594  1.2332
  781MOL0     H 7751  11.366   3.215  11.220 -1.0840 -1.0248  0.1507
  781MOL0     H 7752  11.624   3.044  11.242 -1.1601  0.2752 -1.5924
  781MOL0     H 7753  11.467   3.016  11.335 -1.1015  3.3442  4.3813
  781MOL0     H 7754  11.639   3.094  11.465 -2.7027 -2.9668 -2.1487
  781MOL0     H 7755  11.512   3.198  11.489  1.8091  0.8764  2.4765
  781MOL0     H 7756  11.601   3.360  11.322 -0.4058 -0.1149  0.1090
  781MOL0     H 7757  11.733   3.261  11.283 -0.4392  3.6953 -0.4030
  781MOL0     H 7758  10.963   2.984  10.861  2.4205  0.0082  1.5912
  781MOL0     H 7759  10.794   2.937  10.685 -1.5445 -0.0965  0.8518
  781MOL0     H 7760  10.620   2.736  10.384 -0.7972  0.7424 -0.1385
  781MOL0     H 7761  10.422   2.793  10.254  3.6748  0.5640  0.4249
  781MOL0     H 7762   9.605   3.637   9.398 -0.9486 -1.3870 -1.6348
  781MOL0     H 7763   9.537   3.643   9.166 -0.4425  0.2794  0.5344
  781MOL0     H 7764   9.687   3.921   8.809 -0.7067  2.2881  0.3376
  781MOL0     H 7765   9.660   4.026   8.605 -0.8811  0.7315  1.6553
  781MOL0     H 7766   9.495   4.118   8.451 -2.3481 -3.4547 -0.4236
  781MOL0     H 7767   9.666   4.117   8.392 -0.2132 -0.0701  0.7507
  781MOL0     H 7768   9.533   4.242   8.243  2.2753 -1.2240 -0.0042
  781MOL0     H 7769   9.406   4.116   8.231 -1.1198  0.2049  0.6455
  781MOL0     H 7770   9.705   4.097   8.138 -0.3400 -0.8929  1.2409
  781MOL0     H 7771   9.614   3.964   8.134  2.4587  0.4361  4.2007
  781MOL0     H 7772   9.442   4.081   7.968  0.1076 -1.4976  1.3345
  781MOL0     H 7773   9.610   4.077   7.907 -0.8373 -0.5105 -0.3364
  781MOL0     H 7774   9.549   4.489   7.950  0.0429  0.9398 -0.3814
  781MOL0     H 7775   9.427   3.703   8.446 -2.6423 -0.2502  2.0734
  781MOL0     H 7776   9.442   3.493   8.536  0.0212 -2.1827  0.0625
  781MOL0     H 7777   9.542   3.443   8.657 -3.1619 -3.1174  2.1707
  781MOL0     H 7778   9.383   3.518   8.699  0.1471  1.9818  0.2263
  782MOL0     O 7779   0.609   8.162   0.349  0.4491 -0.6580 -0.5002
  782MOL0     C 7780   0.712   8.119   0.286  0.5512 -0.4678 -1.1035
  782MOL0     O 7781   0.825   8.194   0.245  0.9124  0.6373  0.7999
  782MOL0     C 7782   0.828   8.329   0.283 -0.6636 -0.2958  0.3985
  782MOL0     C 7783   0.732   8.418   0.240 -0.7996 -0.0335 -0.2773
  782MOL0     C 7784   0.752   8.556   0.270 -0.3233  0.4585  0.2455
  782MOL0     C 7785   0.872   8.601   0.342 -0.6890  0.1194  0.9265
  782MOL0     O 7786   0.893   8.730   0.386 -0.1577 -0.4094 -0.3219
  782MOL0     C 7787   0.787   8.783   0.470 -0.0022  0.3493 -0.0083
  782MOL0     C 7788   0.812   8.717   0.612 -0.0554  0.3956 -0.2420
  782MOL0     C 7789   0.695   8.759   0.711 -0.2040 -0.1432 -0.1864
  782MOL0     C 7790   0.737   8.748   0.857 -0.7924  0.0647  0.2811
  782MOL0     C 7791   0.623   8.735   0.958  0.0557  0.1125 -0.5075
  782MOL0     C 7792   0.506   8.819   0.940 -0.2139  0.2547  0.4245
  782MOL0     C 7793   0.477   8.896   1.071 -0.7679 -0.4782 -0.6136
  782MOL0     C 7794   0.569   9.022   1.078  0.9529 -0.3393  0.3843
  782MOL0     N 7795   0.537   9.141   1.004  0.2956 -0.2251  0.0744
  782MOL0     C 7796   0.418   9.219   1.011 -0.4198  0.2115 -0.8315
  782MOL0     C 7797   0.433   9.310   0.910 -0.5540  0.1135 -0.5866
  782MOL0     C 7798   0.340   9.411   0.869 -0.1423 -0.6241  0.4386
  782MOL0     C 7799   0.252   9.476   0.971  0.4206  0.0427 -0.3342
  782MOL0     C 7800   0.175   9.593   0.897  0.0444  0.6591 -0.1685
  782MOL0     C 7801   0.046   9.652   0.957 -0.0358  0.1843 -0.8744
  782MOL0     O 7802  -0.024   9.557   1.038  0.5004  0.6422  0.0381
  782MOL0     C 7803  -0.147   9.586   1.104 -0.7052 -0.0553 -0.3718
  782MOL0     C 7804  -0.201   9.478   1.172 -0.1743 -0.1917  0.1762
  782MOL0     C 7805  -0.311   9.495   1.253  0.6613  0.2934  0.4952
  782MOL0     C 7806  -0.373   9.365   1.302  0.3086  0.1653  0.0926
  782MOL0     C 7807  -0.374   9.627   1.259  0.6922  0.7478 -0.8661
  782MOL0     C 7808  -0.493   9.659   1.343  1.1250  0.8663  0.2637
  782MOL0     O 7809  -0.576   9.761   1.304 -0.3686 -1.5805 -0.0258
  782MOL0     C 7810  -0.680   9.803   1.378  0.1118  0.5126  0.3880
  782MOL0     C 7811  -0.796   9.842   1.318  0.0858  0.4240  0.6854
  782MOL0     C 7812  -0.902   9.893   1.387 -0.0451 -0.5023  0.7815
  782MOL0     C 7813  -0.905   9.885   1.525  0.8211 -0.2073 -0.0770
  782MOL0     O 7814  -1.013   9.949   1.593 -0.7950  0.0585  0.3677
  782MOL0     C 7815  -1.042   9.905   1.722 -0.0435 -0.6533  0.0207
  782MOL0     C 7816  -1.173   9.955   1.756  0.5015 -0.2554 -0.0758
  782MOL0     C 7817  -1.184  10.113   1.768  0.0245  0.4988  0.0313
  782MOL0     C 7818  -1.327  10.158   1.758  0.5046 -0.3246  0.4716
  782MOL0     C 7819  -1.360  10.300   1.774  0.4026 -0.0433 -0.2202
  782MOL0     C 7820  -1.330  10.357   1.915  0.2992 -0.5130 -0.0405
  782MOL0     C 7821  -1.371  10.504   1.940  1.0261 -0.6138  1.0228
  782MOL0     C 7822  -1.292  10.602   1.865 -0.8574  1.2036 -0.4189
  782MOL0    Cl 7823  -1.358  10.760   1.877  0.0072 -0.3022  0.0718
  782MOL0     C 7824  -0.784   9.849   1.593  1.2608  0.6278 -0.0214
  782MOL0     C 7825  -0.670   9.812   1.523  0.4520  0.9339  0.3871
  782MOL0     O 7826  -0.513   9.596   1.448 -0.6874  0.1676  0.7027
  782MOL0     C 7827  -0.313   9.734   1.196  0.2662  0.6909 -0.4750
  782MOL0     C 7828  -0.201   9.715   1.118  0.2411  0.4290  0.0579
  782MOL0     N 7829   0.553   9.286   0.836  1.2058 -0.0060 -0.7213
  782MOL0     N 7830   0.604   9.188   0.899 -0.7158  0.6988  0.3974
  782MOL0     C 7831   0.968   8.505   0.373  0.5610 -0.5265  0.1809
  782MOL0     C 7832   0.942   8.372   0.344  0.1899 -0.1229 -0.2021
  782MOL0     C 7833   0.708   7.967   0.263  0.8386 -0.5605 -0.2980
  782MOL0     C 7834   0.825   7.895   0.289  0.9526  0.2470 -0.1486
  782MOL0     C 7835   0.824   7.755   0.269  0.1546 -0.7639 -0.3057
  782MOL0     C 7836   0.701   7.690   0.214  0.0612 -0.1446 -0.1000
  782MOL0     O 7837   0.712   7.557   0.181  0.2866 -0.8019  0.5391
  782MOL0     C 7838   0.689   7.469   0.290  0.6069  0.0562 -0.6763
  782MOL0     C 7839   0.769   7.342   0.252 -0.2554  0.1198 -0.5156
  782MOL0     C 7840   0.871   7.309   0.357 -0.4267  0.1844  0.3770
  782MOL0     C 7841   0.816   7.261   0.486  0.8477 -0.1082 -1.2549
  782MOL0     C 7842   0.768   7.372   0.570  0.1878 -0.3184 -0.0160
  782MOL0     C 7843   0.725   7.458   0.645 -0.7788  0.6909 -0.5383
  782MOL0     C 7844   0.584   7.764   0.203  0.2157 -0.0893  0.8519
  782MOL0     C 7845   0.592   7.902   0.218 -0.0609  0.6710  0.4086
  782MOL0     C 7846   0.466   7.985   0.170 -0.4691  0.1440  1.0723
  782MOL0     H 7847   0.642   8.385   0.189  0.1888  0.0776 -2.1494
  782MOL0     H 7848   0.681   8.626   0.227  1.1866 -0.0434 -3.4114
  782MOL0     H 7849   0.687   8.757   0.435 -0.1000 -1.0787  1.1964
  782MOL0     H 7850   0.804   8.891   0.479 -0.9820  0.7791 -2.4782
  782MOL0     H 7851   0.820   8.608   0.618  0.1878  0.5075  2.2995
  782MOL0     H 7852   0.910   8.758   0.637  1.0770 -1.7685 -0.8752
  782MOL0     H 7853   0.673   8.864   0.689  2.8356  0.6136 -0.0793
  782MOL0     H 7854   0.609   8.694   0.690 -0.2643  0.5666 -2.3703
  782MOL0     H 7855   0.782   8.648   0.857 -1.7625 -0.5477 -3.6169
  782MOL0     H 7856   0.803   8.832   0.878 -0.6169 -0.6563  3.1212
  782MOL0     H 7857   0.674   8.756   1.053 -0.6370 -3.1926  0.7520
  782MOL0     H 7858   0.600   8.628   0.959  0.5117  0.0084  0.0271
  782MOL0     H 7859   0.520   8.886   0.855  0.3201  0.2357  0.4928
  782MOL0     H 7860   0.418   8.757   0.924 -0.9208  1.0410  1.1858
  782MOL0     H 7861   0.484   8.836   1.162 -0.3467 -0.6508 -0.7560
  782MOL0     H 7862   0.377   8.939   1.076 -0.5646 -0.0336 -0.3814
  782MOL0     H 7863   0.564   9.072   1.175 -1.7076  2.7100 -1.1072
  782MOL0     H 7864   0.672   8.987   1.070  1.0909  0.4033 -2.1509
  782MOL0     H 7865   0.346   9.212   1.091 -0.0521  0.7094 -0.4511
  782MOL0     H 7866   0.283   9.346   0.803 -0.5169  0.9413 -0.8531
  782MOL0     H 7867   0.383   9.481   0.797 -1.8469 -1.0619 -1.0743
  782MOL0     H 7868   0.182   9.403   1.014  1.9952 -0.9169  0.6815
  782MOL0     H 7869   0.311   9.513   1.055  3.4249 -0.4897 -2.0796
  782MOL0     H 7870   0.251   9.669   0.920  1.0764 -0.4334  0.1305
  782MOL0     H 7871   0.172   9.571   0.790  0.1844  2.1934 -0.5149
  782MOL0     H 7872   0.067   9.745   1.009 -1.0910 -0.8482  1.5573
  782MOL0     H 7873  -0.019   9.682   0.874 -2.4394  2.4414  1.6444
  782MOL0     H 7874  -0.168   9.375   1.172 -1.6139 -0.7080 -1.7391
  782MOL0     H 7875  -0.463   9.371   1.363  0.1559  1.1642 -0.2075
  782MOL0     H 7876  -0.305   9.306   1.363 -2.0585 -2.6711  0.1974
  782MOL0     H 7877  -0.407   9.308   1.215 -2.9929  0.1188  1.2680
  782MOL0     H 7878  -0.793   9.833   1.210 -1.3720 -1.1819  0.7325
  782MOL0     H 7879  -0.992   9.918   1.332  1.3624  1.4857 -0.7849
  782MOL0     H 7880  -1.034   9.797   1.734  3.1122 -0.4543  0.6728
  782MOL0     H 7881  -0.982   9.948   1.803  1.1096 -3.4651  0.7472
  782MOL0     H 7882  -1.244   9.902   1.691  1.7507  0.4514 -2.1032
  782MOL0     H 7883  -1.207   9.932   1.857 -0.5178  2.3682  0.2811
  782MOL0     H 7884  -1.136  10.155   1.679 -1.8941  1.2202 -0.7070
  782MOL0     H 7885  -1.130  10.142   1.858  0.0762  1.8288 -0.4176
  782MOL0     H 7886  -1.383  10.112   1.840 -2.4992 -0.2417 -1.3666
  782MOL0     H 7887  -1.355  10.107   1.665 -0.2190  0.0215  0.4932
  782MOL0     H 7888  -1.313  10.365   1.699 -0.9580  2.6832  1.1169
  782MOL0     H 7889  -1.469  10.290   1.763  0.3546 -2.8490  1.7913
  782MOL0     H 7890  -1.222  10.348   1.931  0.7880 -1.7317 -3.1858
  782MOL0     H 7891  -1.386  10.295   1.985  1.9247 -0.8154  1.0472
  782MOL0     H 7892  -1.371  10.532   2.046  0.8845 -1.1927  1.1786
  782MOL0     H 7893  -1.472  10.506   1.900  1.4015  0.7161  0.0707
  782MOL0     H 7894  -1.278  10.578   1.759  1.6385 -0.4426  0.1986
  782MOL0     H 7895  -1.186  10.608   1.892 -0.1874 -0.8551 -2.2806
  782MOL0     H 7896  -0.776   9.834   1.700 -2.9931 -0.3550  0.3168
  782MOL0     H 7897  -0.588   9.789   1.590  0.8035  0.1517 -0.2872
  782MOL0     H 7898  -0.363   9.829   1.208 -2.0730 -0.4283 -0.8086
  782MOL0     H 7899  -0.145   9.804   1.090 -0.0242  1.2132  1.8444
  782MOL0     H 7900   1.055   8.534   0.431 -2.6589  0.4567  5.0665
  782MOL0     H 7901   1.012   8.292   0.367  1.4871  1.0249 -0.0024
  782MOL0     H 7902   0.904   7.959   0.327 -1.6353  2.0022  2.6984
  782MOL0     H 7903   0.909   7.690   0.287  1.1541  0.9547  1.6367
  782MOL0     H 7904   0.728   7.518   0.379 -1.4047  2.6588 -1.1054
  782MOL0     H 7905   0.584   7.448   0.314  1.3195 -2.4175  0.6503
  782MOL0     H 7906   0.816   7.376   0.160 -1.3325  2.3248 -0.3078
  782MOL0     H 7907   0.706   7.256   0.230 -0.6922  0.3615 -0.2275
  782MOL0     H 7908   0.930   7.224   0.321  1.1027  1.1793  0.4278
  782MOL0     H 7909   0.942   7.390   0.376  0.1442  0.3922 -2.1979
  782MOL0     H 7910   0.892   7.210   0.546 -1.2773 -1.8612  0.0924
  782MOL0     H 7911   0.735   7.193   0.456  0.4551 -0.7291  1.0642
  782MOL0     H 7912   0.684   7.538   0.703  0.5452 -1.3136  3.6058
  782MOL0     H 7913   0.494   7.708   0.178  0.5567 -0.5157  0.5790
  782MOL0     H 7914   0.399   7.919   0.114 -0.5710  0.0348  1.3234
  782MOL0     H 7915   0.407   8.020   0.255 -0.6482  0.0199  0.9997
  782MOL0     H 7916   0.498   8.064   0.101  0.2102 -2.4917 -1.8619
  783MOL0     O 7917   3.843   3.735   2.505  0.0536 -0.2272  0.6221
  783MOL0     C 7918   3.744   3.754   2.580 -0.3130  0.0858  0.0711
  783MOL0     O 7919   3.659   3.656   2.625 -0.0131  0.3004 -0.2565
  783MOL0     C 7920   3.688   3.528   2.577  0.5535  0.3425 -0.3717
  783MOL0     C 7921   3.593   3.453   2.508 -0.0295  0.3979  0.9044
  783MOL0     C 7922   3.625   3.320   2.456  0.2226 -0.0566 -0.9469
  783MOL0     C 7923   3.747   3.261   2.501 -0.0527  0.2359  0.8549
  783MOL0     O 7924   3.780   3.127   2.472 -0.5365 -0.4785  0.0988
  783MOL0     C 7925   3.666   3.049   2.422 -0.3173 -0.5410  0.4816
  783MOL0     C 7926   3.698   2.905   2.413  0.9615  1.1923  0.0803
  783MOL0     C 7927   3.587   2.827   2.333  0.5529  0.1004 -0.3736
  783MOL0     C 7928   3.630   2.789   2.196 -0.0130 -0.2476  0.7626
  783MOL0     C 7929   3.536   2.696   2.112 -0.2347 -0.6826 -0.4900
  783MOL0     C 7930   3.606   2.643   1.997  0.4676  0.5094 -0.1389
  783MOL0     C 7931   3.495   2.565   1.924  0.3397  0.1059 -0.0064
  783MOL0     C 7932   3.535   2.491   1.788  0.0500 -0.6666  0.4038
  783MOL0     N 7933   3.575   2.596   1.690  0.3648 -0.2941 -0.1829
  783MOL0     C 7934   3.695   2.646   1.644 -0.0908  0.0889  0.5785
  783MOL0     C 7935   3.660   2.750   1.562 -0.3716  0.6245  1.0523
  783MOL0     C 7936   3.766   2.835   1.491 -0.1813  0.3292  0.7309
  783MOL0     C 7937   3.752   2.983   1.507  0.5307  0.4529 -0.2921
  783MOL0     C 7938   3.752   3.019   1.665 -0.5946 -0.0721  0.2770
  783MOL0     C 7939   3.767   3.166   1.673  0.2731  1.0011 -1.0352
  783MOL0     O 7940   3.903   3.208   1.653 -0.5614  0.9387  1.2260
  783MOL0     C 7941   3.943   3.331   1.688 -0.2829 -1.4797  0.0061
  783MOL0     C 7942   3.869   3.438   1.760  0.9217  0.7326  0.5691
  783MOL0     C 7943   3.922   3.566   1.790 -0.6759  0.0016 -0.6412
  783MOL0     C 7944   3.813   3.667   1.841 -0.6035 -0.2850  0.3327
  783MOL0     C 7945   4.052   3.584   1.767  0.0762 -0.7574  0.7527
  783MOL0     C 7946   4.120   3.719   1.770 -0.5123 -0.4629 -0.0738
  783MOL0     O 7947   4.263   3.720   1.781  0.3009  0.0643  0.5650
  783MOL0     C 7948   4.333   3.821   1.728 -0.1269 -0.8095 -0.4262
  783MOL0     C 7949   4.417   3.895   1.815 -0.9723  0.4035 -0.0642
  783MOL0     C 7950   4.491   4.000   1.757  0.1781  0.9240  0.3201
  783MOL0     C 7951   4.479   4.046   1.631 -1.0394  0.3988 -0.2884
  783MOL0     O 7952   4.539   4.153   1.584  0.1140 -0.1776  0.5523
  783MOL0     C 7953   4.487   4.282   1.627  0.1385  0.0683  0.2426
  783MOL0     C 7954   4.503   4.392   1.524 -0.1024 -1.4518  0.2955
  783MOL0     C 7955   4.414   4.375   1.409 -0.7501 -0.2527  0.7104
  783MOL0     C 7956   4.277   4.439   1.435  0.1387  0.0266  0.2152
  783MOL0     C 7957   4.193   4.443   1.311  0.2569 -0.5434  0.3467
  783MOL0     C 7958   4.165   4.294   1.260 -1.0202 -1.0137 -0.4195
  783MOL0     C 7959   4.031   4.289   1.185 -0.6101 -0.5686  0.1571
  783MOL0     C 7960   4.009   4.160   1.114  0.3111 -0.2374  0.5047
  783MOL0    Cl 7961   4.125   4.144   0.979  0.0611  0.9285  0.1260
  783MOL0     C 7962   4.400   3.966   1.546 -0.1862  0.2989 -0.2107
  783MOL0     C 7963   4.323   3.856   1.597  0.4978  0.0572  0.4076
  783MOL0     O 7964   4.053   3.814   1.743 -0.4208 -0.2154  0.6058
  783MOL0     C 7965   4.133   3.475   1.720  0.6349  0.0048 -0.5451
  783MOL0     C 7966   4.083   3.351   1.684  0.1514 -0.0911  0.2366
  783MOL0     N 7967   3.531   2.763   1.553  0.1820 -0.4113 -0.2819
  783MOL0     N 7968   3.483   2.677   1.626 -0.8465 -0.5518 -0.4700
  783MOL0     C 7969   3.840   3.336   2.567  0.0788 -0.9736  0.1812
  783MOL0     C 7970   3.812   3.471   2.605  1.1277  0.3182 -0.4075
  783MOL0     C 7971   3.699   3.898   2.600 -1.3602  0.5886 -0.6972
  783MOL0     C 7972   3.570   3.924   2.643  0.3245 -0.3093 -0.5654
  783MOL0     C 7973   3.516   4.053   2.639 -0.2382 -0.7208 -0.8621
  783MOL0     C 7974   3.598   4.158   2.603 -0.9377  0.0225 -0.8400
  783MOL0     O 7975   3.521   4.281   2.602  0.4692  0.0641  0.0158
  783MOL0     C 7976   3.600   4.399   2.642  0.1348 -0.3988  1.1221
  783MOL0     C 7977   3.634   4.474   2.517 -0.6568  0.4478 -0.2121
  783MOL0     C 7978   3.510   4.554   2.464  0.3777  0.0498 -0.1210
  783MOL0     C 7979   3.547   4.586   2.313 -0.0396 -0.6271 -0.0685
  783MOL0     C 7980   3.652   4.691   2.312 -0.3600 -0.3532  1.0768
  783MOL0     C 7981   3.733   4.780   2.307  0.4386 -0.9811  0.1026
  783MOL0     C 7982   3.734   4.135   2.588 -0.0829 -0.8164  0.3220
  783MOL0     C 7983   3.782   4.012   2.593 -0.6677  0.2440 -0.0845
  783MOL0     C 7984   3.930   4.004   2.568  0.2026 -0.3056  0.0507
  783MOL0     H 7985   3.504   3.511   2.486  1.4066  3.0585  1.6303
  783MOL0     H 7986   3.534   3.277   2.416 -1.2218  1.2625  0.7548
  783MOL0     H 7987   3.642   3.079   2.319  1.6055 -5.9230 -1.9201
  783MOL0     H 7988   3.579   3.057   2.488 -0.1636  1.3959  0.5167
  783MOL0     H 7989   3.793   2.888   2.362 -0.8696 -0.6683 -3.0972
  783MOL0     H 7990   3.717   2.874   2.516 -1.1476 -2.2093 -0.3999
  783MOL0     H 7991   3.549   2.738   2.385 -0.9921  0.5142 -0.7460
  783MOL0     H 7992   3.496   2.886   2.317 -1.8774 -3.6303 -1.8173
  783MOL0     H 7993   3.633   2.885   2.143  0.2052 -0.8093 -0.2809
  783MOL0     H 7994   3.726   2.737   2.198 -0.3354 -0.8359  1.0387
  783MOL0     H 7995   3.444   2.750   2.087  0.8045  1.9274  0.8815
  783MOL0     H 7996   3.510   2.616   2.182 -2.3648  2.3596  2.5707
  783MOL0     H 7997   3.648   2.723   1.936  1.1845  2.0930  2.2849
  783MOL0     H 7998   3.680   2.565   2.021  0.3723 -0.9955 -3.9856
  783MOL0     H 7999   3.414   2.637   1.907  0.6372  0.4683  0.1111
  783MOL0     H 8000   3.467   2.483   1.991 -2.7865  0.1885 -1.0146
  783MOL0     H 8001   3.603   2.406   1.793  1.1360  0.2090  0.9808
  783MOL0     H 8002   3.446   2.440   1.751  0.2181  0.9305 -2.5596
  783MOL0     H 8003   3.796   2.622   1.674 -0.7268  0.0445  2.9117
  783MOL0     H 8004   3.770   2.833   1.382  3.3302  1.7652  0.6919
  783MOL0     H 8005   3.866   2.811   1.529 -0.5733 -0.4303  1.2988
  783MOL0     H 8006   3.824   3.025   1.437  0.4297  1.6514  0.3014
  783MOL0     H 8007   3.657   3.016   1.465  1.5576  2.0203 -1.4854
  783MOL0     H 8008   3.654   2.991   1.707 -0.4966 -1.6446 -0.4538
  783MOL0     H 8009   3.830   2.979   1.731 -2.4967 -1.7040  1.7049
  783MOL0     H 8010   3.692   3.221   1.614 -0.2325  0.7334 -0.6425
  783MOL0     H 8011   3.743   3.189   1.777 -4.4077 -0.5475 -1.5016
  783MOL0     H 8012   3.769   3.408   1.788  2.0489 -2.4989  1.6419
  783MOL0     H 8013   3.849   3.699   1.939  1.1687  0.0269 -0.3879
  783MOL0     H 8014   3.712   3.630   1.860  0.3028 -3.8978 -1.0249
  783MOL0     H 8015   3.818   3.759   1.782  3.0273  0.1056  1.0260
  783MOL0     H 8016   4.408   3.860   1.917 -0.4560 -1.6637 -0.6855
  783MOL0     H 8017   4.554   4.054   1.827  0.5574  4.1544 -2.3267
  783MOL0     H 8018   4.384   4.266   1.662  0.0549 -0.6154 -0.2860
  783MOL0     H 8019   4.532   4.309   1.723 -1.7258  0.2493  1.1145
  783MOL0     H 8020   4.486   4.494   1.561  0.3172 -0.7877 -1.2666
  783MOL0     H 8021   4.607   4.391   1.492  0.2050  0.1792  1.1561
  783MOL0     H 8022   4.410   4.270   1.380 -1.5825 -0.7543  2.4696
  783MOL0     H 8023   4.462   4.435   1.331  1.6002 -0.8566  1.5961
  783MOL0     H 8024   4.284   4.539   1.481 -0.5230  0.3700 -0.4159
  783MOL0     H 8025   4.228   4.387   1.518  0.0694 -0.1833  0.0436
  783MOL0     H 8026   4.102   4.500   1.327 -2.2625 -2.6836 -4.4190
  783MOL0     H 8027   4.234   4.502   1.229 -0.1090  0.6856  1.0332
  783MOL0     H 8028   4.151   4.227   1.345  3.3229 -2.1798 -0.3805
  783MOL0     H 8029   4.251   4.265   1.199 -0.9160  1.5434 -1.6481
  783MOL0     H 8030   4.012   4.372   1.116 -4.8853 -2.0321 -0.7802
  783MOL0     H 8031   3.951   4.318   1.254 -0.0234  0.7035  0.3421
  783MOL0     H 8032   3.905   4.159   1.078  0.9231  0.3283 -1.4142
  783MOL0     H 8033   4.020   4.077   1.184  0.2883 -0.8543 -0.2123
  783MOL0     H 8034   4.403   3.990   1.440  4.6796 -0.8389 -0.5362
  783MOL0     H 8035   4.270   3.798   1.522  3.4923  1.1924 -2.8626
  783MOL0     H 8036   4.239   3.490   1.702  1.0113 -1.5705  0.1774
  783MOL0     H 8037   4.150   3.283   1.633 -0.0434 -0.6925  0.7618
  783MOL0     H 8038   3.927   3.286   2.607  0.9045  2.8577  3.8444
  783MOL0     H 8039   3.891   3.523   2.657 -0.1160 -0.7093  2.7219
  783MOL0     H 8040   3.504   3.842   2.669 -1.4372  1.7048  1.8963
  783MOL0     H 8041   3.411   4.061   2.665  0.0406  1.6901 -0.2109
  783MOL0     H 8042   3.535   4.466   2.700  2.0567  2.8352 -0.2116
  783MOL0     H 8043   3.687   4.373   2.703  0.9187 -0.4918 -0.0022
  783MOL0     H 8044   3.678   4.398   2.452  0.7679  2.0760 -1.2365
  783MOL0     H 8045   3.713   4.546   2.539  1.0576 -0.4388 -2.9086
  783MOL0     H 8046   3.414   4.504   2.477  1.2147 -1.3399  1.0824
  783MOL0     H 8047   3.504   4.651   2.513 -0.0154  0.6619 -1.3418
  783MOL0     H 8048   3.457   4.617   2.259 -2.2161 -1.6416  2.7181
  783MOL0     H 8049   3.585   4.490   2.278 -0.4833 -2.2559  3.4691
  783MOL0     H 8050   3.797   4.865   2.319 -1.4937  0.7255 -0.8740
  783MOL0     H 8051   3.809   4.212   2.575 -0.1063 -1.0379 -1.4126
  783MOL0     H 8052   3.973   3.939   2.645  0.4896 -1.3370 -0.9526
  783MOL0     H 8053   3.927   3.971   2.463 -2.3152  1.1294 -0.4073
  783MOL0     H 8054   3.973   4.103   2.578 -0.6546 -0.0822  1.9041
  784MOL0     O 8055  11.257   6.750   2.253 -0.4172  0.0439  0.1245
  784MOL0     C 8056  11.356   6.778   2.177  0.3618 -0.8892 -0.5739
  784MOL0     O 8057  11.470   6.851   2.220  0.0793 -0.3430 -0.1886
  784MOL0     C 8058  11.489   6.904   2.345 -1.0935  0.1361  0.1665
  784MOL0     C 8059  11.609   6.977   2.345 -0.2383 -1.5402  0.5787
  784MOL0     C 8060  11.641   7.054   2.457 -0.2032  0.2281 -0.4067
  784MOL0     C 8061  11.550   7.064   2.560  0.2292  0.0838  0.3490
  784MOL0     O 8062  11.579   7.140   2.676 -0.0132  0.2559  0.5821
  784MOL0     C 8063  11.620   7.064   2.777  0.1056 -0.4641 -0.4917
  784MOL0     C 8064  11.596   7.113   2.919  0.1626 -0.3830  0.5551
  784MOL0     C 8065  11.682   7.226   2.953 -0.4977 -0.4968 -0.1356
  784MOL0     C 8066  11.697   7.253   3.105  0.0064 -1.3977  0.3022
  784MOL0     C 8067  11.795   7.363   3.145  0.3423  0.7961  0.2164
  784MOL0     C 8068  11.774   7.504   3.081  1.4249 -0.3088  0.3583
  784MOL0     C 8069  11.620   7.555   3.060 -0.0193  0.5077 -1.0317
  784MOL0     C 8070  11.536   7.581   3.195 -1.4309  0.7798  0.5569
  784MOL0     N 8071  11.417   7.670   3.178  0.1358  0.2882  1.0498
  784MOL0     C 8072  11.404   7.803   3.218  0.4064 -0.0542 -0.9237
  784MOL0     C 8073  11.285   7.835   3.166  0.0024 -0.8157 -0.6826
  784MOL0     C 8074  11.217   7.972   3.178 -0.1990 -0.5435  0.4226
  784MOL0     C 8075  11.179   8.006   3.324 -0.2130  1.1940  0.9978
  784MOL0     C 8076  11.100   8.141   3.327  0.0568  0.0821 -0.4027
  784MOL0     C 8077  11.115   8.199   3.461  0.3003  0.9879 -0.2352
  784MOL0     O 8078  11.032   8.313   3.490  0.4613  0.3747  0.4783
  784MOL0     C 8079  11.036   8.427   3.411  0.4566  0.9130  0.5662
  784MOL0     C 8080  11.162   8.501   3.382 -0.0084  0.7468 -0.0137
  784MOL0     C 8081  11.158   8.635   3.332 -0.5014 -0.4692  0.4878
  784MOL0     C 8082  11.282   8.716   3.342  0.5997 -0.0086 -0.1178
  784MOL0     C 8083  11.041   8.684   3.283  0.7262 -0.9304  0.6033
  784MOL0     C 8084  11.036   8.818   3.221  0.0080 -0.6056 -0.3085
  784MOL0     O 8085  11.121   8.861   3.117 -0.3942  0.1544  0.5477
  784MOL0     C 8086  11.103   8.986   3.065  0.5893 -0.3359 -0.1589
  784MOL0     C 8087  11.195   9.084   3.092  0.5961  0.3019  0.9511
  784MOL0     C 8088  11.175   9.210   3.039  0.9442 -0.0178 -0.5823
  784MOL0     C 8089  11.064   9.245   2.963  0.8022 -0.1009  0.1765
  784MOL0     O 8090  11.053   9.374   2.912  0.2925  0.2759  0.7297
  784MOL0     C 8091  10.952   9.408   2.811  0.7429  0.0460  0.6711
  784MOL0     C 8092  10.974   9.558   2.771 -0.2185  0.0556 -0.0495
  784MOL0     C 8093  11.097   9.574   2.691 -0.2745  0.3421  0.9605
  784MOL0     C 8094  11.115   9.726   2.660  0.5062  0.8892  0.0433
  784MOL0     C 8095  11.218   9.745   2.554 -0.4856  0.5699 -0.0360
  784MOL0     C 8096  11.279   9.883   2.531  0.2637 -0.0750  0.3577
  784MOL0     C 8097  11.364   9.863   2.409  0.4124 -0.5197  0.4185
  784MOL0     C 8098  11.414  10.004   2.361 -0.3334 -0.9579 -0.1435
  784MOL0    Cl 8099  11.516   9.993   2.222 -0.1799  0.3419 -0.1972
  784MOL0     C 8100  10.963   9.151   2.955  0.2958  0.0739  0.2588
  784MOL0     C 8101  10.988   9.018   2.991 -0.7254 -0.1809  0.5378
  784MOL0     O 8102  10.950   8.897   3.271  0.5821  0.1739 -0.3913
  784MOL0     C 8103  10.920   8.614   3.316 -0.8746 -0.7340 -0.5717
  784MOL0     C 8104  10.903   8.486   3.377  0.8289 -1.2042  0.9715
  784MOL0     N 8105  11.230   7.731   3.100 -0.2211 -0.5343  0.7894
  784MOL0     N 8106  11.312   7.635   3.110 -0.7248 -0.0836  1.1289
  784MOL0     C 8107  11.425   6.991   2.560 -0.1057  0.1638 -0.0903
  784MOL0     C 8108  11.402   6.912   2.449  0.3240 -0.2527 -1.6160
  784MOL0     C 8109  11.362   6.742   2.031  0.1698 -0.7108 -0.4006
  784MOL0     C 8110  11.487   6.776   1.972  0.7212 -0.2115 -0.6555
  784MOL0     C 8111  11.496   6.755   1.831  0.1332 -0.3974  0.3118
  784MOL0     C 8112  11.402   6.684   1.749  0.1162  0.0459 -0.1729
  784MOL0     O 8113  11.426   6.689   1.611  0.3429  0.0636  0.5283
  784MOL0     C 8114  11.316   6.641   1.523 -0.6777 -0.5780  0.2454
  784MOL0     C 8115  11.345   6.693   1.389 -0.2474 -0.1955 -0.3691
  784MOL0     C 8116  11.477   6.637   1.312  0.7904 -0.4209 -0.8850
  784MOL0     C 8117  11.457   6.500   1.248  0.0112 -0.4419  0.3028
  784MOL0     C 8118  11.578   6.436   1.214 -0.2051  0.5298  0.4384
  784MOL0     C 8119  11.670   6.359   1.168 -0.3660 -0.7296  0.3242
  784MOL0     C 8120  11.292   6.639   1.815  0.2152 -0.0212  0.2810
  784MOL0     C 8121  11.269   6.673   1.954  0.8202 -0.3377  1.0986
  784MOL0     C 8122  11.133   6.624   2.019 -0.0894 -0.7551  0.1998
  784MOL0     H 8123  11.683   6.990   2.267 -0.7134 -1.5937  0.1169
  784MOL0     H 8124  11.740   7.098   2.464 -0.1414 -0.1123  1.1066
  784MOL0     H 8125  11.727   7.049   2.763 -0.2855 -2.1135 -2.0349
  784MOL0     H 8126  11.562   6.972   2.770 -0.5543 -0.0535 -0.6171
  784MOL0     H 8127  11.497   7.159   2.924  1.0167  2.2096 -2.6234
  784MOL0     H 8128  11.616   7.042   3.000 -0.6001 -0.1988  0.9153
  784MOL0     H 8129  11.784   7.220   2.912  0.1370  1.8786  0.9092
  784MOL0     H 8130  11.637   7.314   2.906 -2.2737  0.1007  2.4782
  784MOL0     H 8131  11.600   7.275   3.151 -1.7569  0.9416 -3.9378
  784MOL0     H 8132  11.744   7.161   3.139  1.1555 -0.9597 -0.0229
  784MOL0     H 8133  11.897   7.338   3.115 -0.0801  0.1953 -0.7588
  784MOL0     H 8134  11.787   7.374   3.254 -2.1152 -1.4109  0.3328
  784MOL0     H 8135  11.823   7.583   3.140  0.3807  0.4182  0.2797
  784MOL0     H 8136  11.823   7.507   2.983 -2.5704  0.6948 -1.8061
  784MOL0     H 8137  11.567   7.488   2.992 -1.8354 -1.8741  2.4332
  784MOL0     H 8138  11.630   7.650   3.008  2.3212 -0.9523 -3.5336
  784MOL0     H 8139  11.495   7.481   3.209 -0.4868  0.1378 -0.9732
  784MOL0     H 8140  11.602   7.595   3.281 -0.4083  2.6103 -0.4538
  784MOL0     H 8141  11.482   7.844   3.280  1.5373 -2.1527 -0.8411
  784MOL0     H 8142  11.129   7.971   3.112 -1.3133  1.5021  1.7663
  784MOL0     H 8143  11.279   8.054   3.142 -0.5125 -0.3004  0.4286
  784MOL0     H 8144  11.122   7.925   3.371 -0.1233 -1.8791 -3.4967
  784MOL0     H 8145  11.272   8.010   3.381 -0.2670 -2.3280  1.5565
  784MOL0     H 8146  11.141   8.215   3.257  0.0775  1.2906  0.8424
  784MOL0     H 8147  10.998   8.124   3.291  0.0653 -0.3690 -0.2144
  784MOL0     H 8148  11.088   8.113   3.524  1.0597 -1.2409 -2.7830
  784MOL0     H 8149  11.220   8.199   3.491  1.0973 -2.2921 -2.3956
  784MOL0     H 8150  11.249   8.462   3.435 -2.1355 -1.2455  2.2408
  784MOL0     H 8151  11.312   8.754   3.244  0.4419  0.6322  0.0800
  784MOL0     H 8152  11.357   8.649   3.386 -1.9562 -0.9731  3.1312
  784MOL0     H 8153  11.273   8.805   3.405  0.1010 -1.4871  1.9942
  784MOL0     H 8154  11.289   9.055   3.137  1.2056  1.7642  0.6862
  784MOL0     H 8155  11.251   9.284   3.063  0.8565  0.1403 -0.7988
  784MOL0     H 8156  10.967   9.348   2.721 -1.3045  2.3316 -1.3187
  784MOL0     H 8157  10.848   9.398   2.842  0.5544  2.5082  1.0107
  784MOL0     H 8158  10.886   9.592   2.715 -2.6072 -0.9181  2.8217
  784MOL0     H 8159  10.986   9.615   2.863 -1.4541  0.3574 -0.0589
  784MOL0     H 8160  11.091   9.519   2.597  1.4715 -0.3584  1.2248
  784MOL0     H 8161  11.184   9.528   2.738  0.9159 -2.4311 -3.3586
  784MOL0     H 8162  11.147   9.781   2.749  2.3563 -0.1675  0.0665
  784MOL0     H 8163  11.014   9.766   2.644 -1.1883 -2.1983  2.0574
  784MOL0     H 8164  11.301   9.675   2.567 -0.1649  0.8635 -0.4726
  784MOL0     H 8165  11.172   9.706   2.462  3.3203 -2.6398 -0.8639
  784MOL0     H 8166  11.346   9.911   2.612  0.6823  1.3515 -0.4534
  784MOL0     H 8167  11.206   9.961   2.508  3.1199  2.7989  0.4537
  784MOL0     H 8168  11.301   9.831   2.326 -1.2630 -3.7632  2.7091
  784MOL0     H 8169  11.452   9.800   2.421 -0.2424 -1.8079 -1.2162
  784MOL0     H 8170  11.476  10.043   2.442 -0.1390 -0.5136 -0.4994
  784MOL0     H 8171  11.344  10.084   2.333 -0.9831 -0.3396  2.8951
  784MOL0     H 8172  10.864   9.178   2.919 -0.4666 -3.9117 -1.1269
  784MOL0     H 8173  10.910   8.944   2.973 -0.4254 -0.2940 -0.3365
  784MOL0     H 8174  10.832   8.671   3.286  0.3739  1.3231 -0.4887
  784MOL0     H 8175  10.810   8.431   3.381 -1.5600  1.8180 -3.9185
  784MOL0     H 8176  11.350   7.017   2.634 -0.8220  4.0982 -1.9568
  784MOL0     H 8177  11.310   6.854   2.449  0.7064 -0.8938 -0.8233
  784MOL0     H 8178  11.576   6.824   2.012  1.5490 -0.1592 -2.4659
  784MOL0     H 8179  11.589   6.791   1.787 -0.3551 -0.0241 -0.4444
  784MOL0     H 8180  11.306   6.532   1.512 -2.5894 -0.3102 -1.1257
  784MOL0     H 8181  11.214   6.671   1.549 -0.7778 -1.1734  0.5650
  784MOL0     H 8182  11.344   6.802   1.391  0.7633 -0.1726 -0.4213
  784MOL0     H 8183  11.255   6.670   1.331 -0.8924 -2.5599  1.4294
  784MOL0     H 8184  11.495   6.705   1.228  1.9778  1.5071  0.8319
  784MOL0     H 8185  11.562   6.636   1.381  1.5207  1.9570 -1.6309
  784MOL0     H 8186  11.385   6.501   1.166  2.4425 -1.5406 -1.9971
  784MOL0     H 8187  11.408   6.427   1.314 -0.4556 -2.0945 -1.7724
  784MOL0     H 8188  11.749   6.303   1.122  0.1112  0.2889 -0.1362
  784MOL0     H 8189  11.206   6.595   1.766  1.6503 -1.7429 -0.8211
  784MOL0     H 8190  11.156   6.549   2.095  0.7089 -1.6330 -0.8693
  784MOL0     H 8191  11.075   6.711   2.051  3.4319  1.8129  0.2150
  784MOL0     H 8192  11.085   6.575   1.934 -0.4911 -1.3497  0.7584
  785MOL0     O 8193   4.847  10.128   6.368 -0.4595 -0.2282  0.3312
  785MOL0     C 8194   4.765  10.058   6.305 -0.6648 -0.9131 -0.1894
  785MOL0     O 8195   4.788  10.012   6.181  0.7878  0.1954  0.1529
  785MOL0     C 8196   4.918  10.029   6.130  0.5325  0.4369 -0.2086
  785MOL0     C 8197   4.954  10.153   6.079  0.5938 -0.4816 -0.1438
  785MOL0     C 8198   5.081  10.165   6.037  0.7209 -0.9652 -0.3879
  785MOL0     C 8199   5.182  10.070   6.054 -0.6222 -0.4853 -0.0314
  785MOL0     O 8200   5.317  10.095   6.014  0.1742  0.0970  0.2695
  785MOL0     C 8201   5.425  10.027   6.079  0.0092  0.2726 -0.4029
  785MOL0     C 8202   5.551  10.112   6.056 -0.0476  0.7891 -0.4547
  785MOL0     C 8203   5.689  10.047   6.072  0.2064  0.9973 -0.8595
  785MOL0     C 8204   5.722   9.969   6.205  0.7098 -0.1499  0.6171
  785MOL0     C 8205   5.739  10.080   6.310  1.0724  0.0101  0.4489
  785MOL0     C 8206   5.751  10.023   6.456  0.2421  0.4968  0.2774
  785MOL0     C 8207   5.872   9.932   6.475  0.6138  0.3716 -0.5516
  785MOL0     C 8208   6.000  10.004   6.452  0.0492 -0.3377  0.7770
  785MOL0     N 8209   6.109   9.910   6.461  0.0842 -0.1159 -0.0215
  785MOL0     C 8210   6.157   9.844   6.575  0.7927  0.2378 -0.0390
  785MOL0     C 8211   6.245   9.758   6.531  0.1770  0.6032  0.7835
  785MOL0     C 8212   6.322   9.662   6.632 -0.6310  0.0360  0.1794
  785MOL0     C 8213   6.453   9.606   6.573  0.6904 -0.1262  0.1716
  785MOL0     C 8214   6.492   9.484   6.659  0.5252 -0.3090  0.0142
  785MOL0     C 8215   6.636   9.441   6.625 -0.1736  0.8091 -0.1340
  785MOL0     O 8216   6.663   9.430   6.490 -0.4477  0.2274  1.2487
  785MOL0     C 8217   6.727   9.318   6.449  0.1702 -1.3797  0.9865
  785MOL0     C 8218   6.692   9.252   6.333  0.4151 -0.0157  0.4971
  785MOL0     C 8219   6.750   9.131   6.303  0.3591  0.6416  0.3087
  785MOL0     C 8220   6.715   9.069   6.164  0.3372  0.9998  0.1276
  785MOL0     C 8221   6.845   9.069   6.383 -0.5875 -0.7226 -0.5829
  785MOL0     C 8222   6.911   8.926   6.362 -0.7952 -0.3740  0.3109
  785MOL0     O 8223   6.886   8.859   6.260 -0.2090 -0.0322  0.1456
  785MOL0     C 8224   6.943   8.734   6.254 -0.5985  0.2335 -0.0001
  785MOL0     C 8225   6.917   8.648   6.358  0.8880  0.0762 -0.6131
  785MOL0     C 8226   7.004   8.540   6.381  0.1012  0.3130  1.1430
  785MOL0     C 8227   7.107   8.507   6.285 -0.5567  0.0797 -0.1968
  785MOL0     O 8228   7.178   8.385   6.291 -0.4614 -0.8327  0.7487
  785MOL0     C 8229   7.143   8.286   6.190 -0.4549 -0.7092 -0.1487
  785MOL0     C 8230   7.259   8.197   6.133 -0.4559 -0.1825 -0.5417
  785MOL0     C 8231   7.204   8.077   6.065 -0.7911 -0.5166 -0.5021
  785MOL0     C 8232   7.285   8.042   5.938  0.0553 -0.0752  0.3550
  785MOL0     C 8233   7.226   7.931   5.853 -0.1054  1.0207  0.2242
  785MOL0     C 8234   7.112   7.983   5.760  0.1176  0.5964  0.3158
  785MOL0     C 8235   7.159   8.093   5.654  1.2635 -0.1918  0.5664
  785MOL0     C 8236   7.053   8.107   5.543  0.1136  0.0132  0.4547
  785MOL0    Cl 8237   6.898   8.182   5.592  0.1088  0.3691 -0.2429
  785MOL0     C 8238   7.123   8.589   6.172  0.4017  0.2723  0.2088
  785MOL0     C 8239   7.044   8.707   6.162 -0.1437  0.3714  0.4408
  785MOL0     O 8240   7.015   8.909   6.431  0.0679  0.7067  0.5359
  785MOL0     C 8241   6.880   9.136   6.499 -1.6928 -0.6620  1.1680
  785MOL0     C 8242   6.829   9.261   6.522  0.2190  1.0355 -0.1452
  785MOL0     N 8243   6.244   9.765   6.393 -0.4770  0.6345  0.0330
  785MOL0     N 8244   6.168   9.855   6.348  1.0456  0.1171 -0.5174
  785MOL0     C 8245   5.142   9.941   6.096  0.4388  0.4695 -0.1344
  785MOL0     C 8246   5.014   9.928   6.151  0.2639 -0.0117 -0.6374
  785MOL0     C 8247   4.645  10.026   6.380 -0.7386  0.5158  0.6300
  785MOL0     C 8248   4.643  10.029   6.511  0.3017  0.3839 -1.4100
  785MOL0     C 8249   4.527   9.986   6.585 -0.4939 -0.7427 -0.4346
  785MOL0     C 8250   4.411   9.952   6.533 -0.4616 -0.3774  0.2545
  785MOL0     O 8251   4.306   9.945   6.619 -0.0396  0.2785 -0.2423
  785MOL0     C 8252   4.170   9.934   6.571 -0.4252  0.9643  0.1140
  785MOL0     C 8253   4.074   9.997   6.674 -0.1631  0.0514  0.5319
  785MOL0     C 8254   4.094   9.943   6.816 -0.7425  0.0685  0.0648
  785MOL0     C 8255   4.128  10.054   6.925 -0.0232 -0.2020 -0.7406
  785MOL0     C 8256   4.005  10.127   6.958 -0.3009 -0.1712 -0.1939
  785MOL0     C 8257   3.904  10.180   6.986  0.0765 -0.7167  0.1446
  785MOL0     C 8258   4.417   9.933   6.392  0.5074 -0.9076 -0.6877
  785MOL0     C 8259   4.532   9.964   6.317 -0.5054  0.9615  0.5516
  785MOL0     C 8260   4.525   9.919   6.170  0.0817  0.0365  1.0394
  785MOL0     H 8261   4.873  10.225   6.066  0.0546 -1.0706 -0.0881
  785MOL0     H 8262   5.119  10.256   5.991 -1.2359 -0.4353 -1.0793
  785MOL0     H 8263   5.441   9.926   6.039  3.3040  1.1218 -1.4840
  785MOL0     H 8264   5.391  10.020   6.183 -0.0563  1.6982 -0.3088
  785MOL0     H 8265   5.543  10.157   5.956 -3.7396 -1.9629 -1.6354
  785MOL0     H 8266   5.534  10.196   6.123 -3.6825 -0.2398  0.1193
  785MOL0     H 8267   5.688   9.967   5.997 -0.7508  0.4508 -0.2730
  785MOL0     H 8268   5.768  10.119   6.048  1.0439 -0.2796 -2.0740
  785MOL0     H 8269   5.643   9.895   6.224  0.2133  0.6015  1.5608
  785MOL0     H 8270   5.812   9.910   6.184 -1.5540 -2.6029 -3.7070
  785MOL0     H 8271   5.646  10.138   6.313  1.6334  0.9214  0.3154
  785MOL0     H 8272   5.814  10.154   6.283 -0.4207  1.0608 -1.0090
  785MOL0     H 8273   5.755  10.103   6.531  1.4044  2.6212 -1.9158
  785MOL0     H 8274   5.654   9.973   6.466  0.4312  0.0858  0.0988
  785MOL0     H 8275   5.863   9.849   6.405  0.3367  0.8617 -1.1070
  785MOL0     H 8276   5.863   9.888   6.575 -1.7651  2.1590  0.1288
  785MOL0     H 8277   6.011  10.035   6.347 -0.7308  0.7789  1.0082
  785MOL0     H 8278   6.008  10.093   6.515  1.1690  2.4162 -2.9169
  785MOL0     H 8279   6.129   9.865   6.678 -2.1053 -1.9045 -0.2722
  785MOL0     H 8280   6.263   9.575   6.662  0.3051 -0.0969  1.7136
  785MOL0     H 8281   6.347   9.724   6.718 -2.4494 -1.7845  2.1527
  785MOL0     H 8282   6.435   9.575   6.470 -0.9643 -0.6423  0.5774
  785MOL0     H 8283   6.536   9.677   6.577  1.8084 -1.4026  2.3560
  785MOL0     H 8284   6.486   9.501   6.767 -0.9598 -0.2742 -0.0472
  785MOL0     H 8285   6.431   9.394   6.647  4.7061 -4.3414  4.6955
  785MOL0     H 8286   6.697   9.525   6.659 -0.3117  1.2243 -0.9167
  785MOL0     H 8287   6.649   9.350   6.685  3.3323  2.5701  2.1183
  785MOL0     H 8288   6.645   9.312   6.256  0.8114  0.6608  0.7671
  785MOL0     H 8289   6.677   8.968   6.181  0.3050  0.7134 -1.4995
  785MOL0     H 8290   6.802   9.078   6.099  0.3704  0.3131  0.0728
  785MOL0     H 8291   6.628   9.119   6.120  0.1399  2.1201  1.7175
  785MOL0     H 8292   6.853   8.658   6.445  1.5742  1.4139 -0.2359
  785MOL0     H 8293   6.988   8.468   6.460  1.2803 -0.4288  0.7370
  785MOL0     H 8294   7.077   8.215   6.240 -1.2431  0.3397  0.3200
  785MOL0     H 8295   7.085   8.315   6.102  0.6109  1.6212 -0.1687
  785MOL0     H 8296   7.328   8.252   6.068  1.2564 -1.7803 -0.1515
  785MOL0     H 8297   7.332   8.169   6.210  0.3730  2.8027 -0.0859
  785MOL0     H 8298   7.107   8.108   6.026 -0.4143  1.2770 -0.1147
  785MOL0     H 8299   7.179   7.997   6.135 -0.3094 -2.1639 -2.1325
  785MOL0     H 8300   7.384   8.007   5.968 -0.6158 -0.2158  2.6122
  785MOL0     H 8301   7.298   8.136   5.885  0.2826  0.2313  0.9440
  785MOL0     H 8302   7.307   7.892   5.790  0.6393 -0.3837  1.9474
  785MOL0     H 8303   7.211   7.840   5.912  1.1867  0.6166 -0.0256
  785MOL0     H 8304   7.022   8.023   5.809  0.1497 -0.0919  0.9368
  785MOL0     H 8305   7.075   7.896   5.704 -0.1451  0.0944  1.2606
  785MOL0     H 8306   7.253   8.077   5.602 -0.1884 -2.2100 -1.6322
  785MOL0     H 8307   7.161   8.191   5.703 -4.3592  1.2035 -1.1852
  785MOL0     H 8308   7.032   8.013   5.492 -2.5529  0.6158  0.2564
  785MOL0     H 8309   7.085   8.169   5.458 -1.3103 -0.8074 -0.7363
  785MOL0     H 8310   7.187   8.566   6.088 -1.4438 -1.2193 -0.8727
  785MOL0     H 8311   7.060   8.776   6.079 -1.9936  1.5349  1.0063
  785MOL0     H 8312   6.958   9.096   6.563 -1.2707  2.0881  2.5175
  785MOL0     H 8313   6.862   9.315   6.611 -1.8072  1.4895  0.3891
  785MOL0     H 8314   5.209   9.856   6.086 -0.4649 -0.2856  0.1249
  785MOL0     H 8315   4.992   9.829   6.191  0.0584  0.8543  1.5600
  785MOL0     H 8316   4.730  10.064   6.566 -1.2351  1.6609  0.3700
  785MOL0     H 8317   4.537  10.005   6.691 -1.5554 -1.0405 -0.2656
  785MOL0     H 8318   4.175   9.991   6.477 -2.2991  1.0407  0.0255
  785MOL0     H 8319   4.136   9.834   6.543 -1.5482  1.3012  0.2147
  785MOL0     H 8320   3.974   9.990   6.631 -1.2078  2.7823  2.2326
  785MOL0     H 8321   4.092  10.105   6.673  3.3574 -0.4216  1.0030
  785MOL0     H 8322   4.010   9.875   6.837 -1.2390  1.3036  2.3266
  785MOL0     H 8323   4.185   9.883   6.810 -1.3380 -0.7829 -0.9810
  785MOL0     H 8324   4.207  10.122   6.893 -0.6748  0.3975 -1.0963
  785MOL0     H 8325   4.152  10.004   7.019 -1.6390 -1.1051 -0.7758
  785MOL0     H 8326   3.809  10.219   7.016 -0.0007 -0.2218 -0.7128
  785MOL0     H 8327   4.332   9.896   6.336  1.5094 -2.0670 -1.5132
  785MOL0     H 8328   4.597   9.839   6.155  0.7378  0.9123 -0.6325
  785MOL0     H 8329   4.426   9.886   6.134  0.4737  0.2893 -0.3129
  785MOL0     H 8330   4.553  10.002   6.106 -3.6175 -0.0754 -1.0404
  786MOL0     O 8331   6.891   8.008   6.376 -0.8412 -0.0974 -0.0108
  786MOL0     C 8332   6.842   7.988   6.264 -0.6567  0.4965 -0.0110
  786MOL0     O 8333   6.824   7.862   6.197 -0.3907 -0.4428  0.1934
  786MOL0     C 8334   6.906   7.761   6.253  0.1336 -0.3540  0.5482
  786MOL0     C 8335   6.859   7.699   6.364 -0.4600 -0.5777 -0.7229
  786MOL0     C 8336   6.946   7.595   6.413 -0.6052  0.1049  1.1933
  786MOL0     C 8337   7.064   7.555   6.338 -0.0235  1.6526 -0.5515
  786MOL0     O 8338   7.148   7.449   6.369 -0.4835  0.0391  0.1253
  786MOL0     C 8339   7.097   7.333   6.442 -0.3352  0.0685 -0.1832
  786MOL0     C 8340   6.997   7.258   6.366  0.0524  0.2310 -0.3326
  786MOL0     C 8341   7.054   7.221   6.229  0.1057  0.0755 -0.3889
  786MOL0     C 8342   7.124   7.083   6.244 -0.1740 -0.2750  0.5329
  786MOL0     C 8343   7.202   7.037   6.118  0.5101 -0.4773  0.1121
  786MOL0     C 8344   7.115   7.019   5.990 -0.1244 -0.9163 -0.8831
  786MOL0     C 8345   7.201   6.954   5.883 -0.2600 -0.1358  0.6416
  786MOL0     C 8346   7.314   7.034   5.820  0.1010 -0.2952 -0.5752
  786MOL0     N 8347   7.260   7.151   5.744 -0.9420 -0.6338 -0.0631
  786MOL0     C 8348   7.235   7.276   5.784 -0.4890  0.1363 -0.2280
  786MOL0     C 8349   7.249   7.350   5.671 -1.2595  0.6593 -0.0914
  786MOL0     C 8350   7.248   7.503   5.686  0.5640  0.3678  0.7985
  786MOL0     C 8351   7.102   7.560   5.666 -0.5857  0.2052 -0.0818
  786MOL0     C 8352   7.023   7.506   5.541 -0.1443 -0.0044  1.5384
  786MOL0     C 8353   7.060   7.583   5.403  0.5342  0.0734  0.0379
  786MOL0     O 8354   7.176   7.517   5.348 -0.9247  0.7235  0.0203
  786MOL0     C 8355   7.231   7.554   5.232  0.4816 -0.0247 -0.4093
  786MOL0     C 8356   7.345   7.486   5.186 -0.0770  0.7153 -0.1294
  786MOL0     C 8357   7.423   7.535   5.077 -0.6949  0.1332 -0.6748
  786MOL0     C 8358   7.523   7.437   5.018 -0.3411  0.8376  0.1424
  786MOL0     C 8359   7.377   7.651   5.004  0.6297 -0.7444 -0.9071
  786MOL0     C 8360   7.456   7.725   4.896 -0.0096 -0.1270  0.4444
  786MOL0     O 8361   7.588   7.693   4.877  0.7205 -1.1322  0.0777
  786MOL0     C 8362   7.627   7.716   4.745 -0.1052 -0.9676 -0.2421
  786MOL0     C 8363   7.643   7.620   4.654  0.1089 -0.1512  0.4932
  786MOL0     C 8364   7.685   7.639   4.522 -0.6010  0.1600  1.4453
  786MOL0     C 8365   7.709   7.770   4.464 -1.3352  0.9339 -0.1590
  786MOL0     O 8366   7.758   7.799   4.338  0.1303 -0.3408 -0.5618
  786MOL0     C 8367   7.764   7.690   4.234 -0.3710 -0.3687  0.4131
  786MOL0     C 8368   7.793   7.745   4.094 -0.2929  1.0000 -1.0248
  786MOL0     C 8369   7.671   7.723   3.999  0.3189  0.4303 -0.3580
  786MOL0     C 8370   7.680   7.774   3.861  0.2751 -0.1906  0.3762
  786MOL0     C 8371   7.663   7.923   3.853  0.3679  0.1963 -0.8584
  786MOL0     C 8372   7.671   7.960   3.707  0.2007 -0.2326 -0.0730
  786MOL0     C 8373   7.687   8.102   3.681 -0.0761  0.6003 -0.0039
  786MOL0     C 8374   7.767   8.140   3.551 -1.6147  0.6054 -0.6773
  786MOL0    Cl 8375   7.931   8.081   3.536 -0.3992  0.0166  0.3015
  786MOL0     C 8376   7.692   7.867   4.550 -1.0550 -0.3136 -0.4234
  786MOL0     C 8377   7.657   7.850   4.693 -0.6721  0.2818  0.1602
  786MOL0     O 8378   7.396   7.811   4.829  0.0756  0.0462  0.0154
  786MOL0     C 8379   7.260   7.713   5.060 -0.4573  0.3946  0.1308
  786MOL0     C 8380   7.190   7.665   5.167  0.0700 -0.4409 -0.3033
  786MOL0     N 8381   7.265   7.273   5.567 -0.1280  0.3485  0.7092
  786MOL0     N 8382   7.275   7.152   5.610 -0.2529  0.2864 -0.2792
  786MOL0     C 8383   7.096   7.619   6.219 -0.4593  0.1576 -0.4769
  786MOL0     C 8384   7.016   7.721   6.181 -0.7000 -0.7929 -0.1882
  786MOL0     C 8385   6.802   8.103   6.186  0.1989 -0.4585 -0.2553
  786MOL0     C 8386   6.775   8.089   6.047  0.4546 -0.4156 -0.4987
  786MOL0     C 8387   6.758   8.197   5.960  0.9490 -1.1369 -0.4236
  786MOL0     C 8388   6.763   8.327   6.010  0.2747 -0.3195 -0.0432
  786MOL0     O 8389   6.754   8.433   5.925 -0.0141 -0.6425  0.6007
  786MOL0     C 8390   6.855   8.524   5.921 -0.6957  0.3191 -0.3291
  786MOL0     C 8391   6.815   8.634   5.822 -0.1863  0.9626 -0.6889
  786MOL0     C 8392   6.915   8.743   5.842  0.1190  0.4219 -0.0299
  786MOL0     C 8393   6.931   8.827   5.713  0.1587  0.0102  0.2436
  786MOL0     C 8394   6.820   8.924   5.689  0.0919 -0.0191  0.4243
  786MOL0     C 8395   6.717   8.987   5.675 -0.5073 -0.2508 -0.1012
  786MOL0     C 8396   6.782   8.345   6.151 -0.1140  0.7993  0.1054
  786MOL0     C 8397   6.800   8.240   6.235 -0.5936  0.6194  0.0361
  786MOL0     C 8398   6.808   8.278   6.384  0.7169  0.3975  0.4922
  786MOL0     H 8399   6.769   7.723   6.422 -0.8406  0.1131 -1.5768
  786MOL0     H 8400   6.912   7.541   6.501 -0.0513 -1.5296  0.4382
  786MOL0     H 8401   7.047   7.366   6.534  4.5107  0.0930  2.8282
  786MOL0     H 8402   7.192   7.288   6.471  0.4910  3.3029  2.9158
  786MOL0     H 8403   6.951   7.184   6.433 -2.3437  1.7730 -0.1651
  786MOL0     H 8404   6.914   7.319   6.332 -0.2244 -1.5103 -3.1213
  786MOL0     H 8405   6.978   7.226   6.150 -0.0575 -0.4053 -0.2642
  786MOL0     H 8406   7.126   7.296   6.195  1.0302 -0.2460  0.8049
  786MOL0     H 8407   7.194   7.080   6.329  1.0415  1.3166 -0.3543
  786MOL0     H 8408   7.054   7.004   6.270  1.6056 -2.2807 -0.4898
  786MOL0     H 8409   7.258   6.948   6.149 -0.2461 -0.9444  0.1624
  786MOL0     H 8410   7.273   7.118   6.103 -2.5516  1.9840 -2.5049
  786MOL0     H 8411   7.041   6.944   6.022  0.5930 -1.2406  0.0782
  786MOL0     H 8412   7.054   7.105   5.961 -1.7542 -1.7348 -0.0376
  786MOL0     H 8413   7.136   6.906   5.809 -1.1719  0.8882  0.7525
  786MOL0     H 8414   7.239   6.857   5.916  2.5362  0.2575 -1.0314
  786MOL0     H 8415   7.389   7.079   5.885 -0.2567  0.1408 -0.4567
  786MOL0     H 8416   7.371   6.963   5.760 -1.8832 -1.1190 -1.5948
  786MOL0     H 8417   7.231   7.307   5.888  0.9185 -0.4287  0.0235
  786MOL0     H 8418   7.316   7.537   5.607  0.3817 -1.2889 -0.1123
  786MOL0     H 8419   7.292   7.540   5.779  3.6839 -2.4794  0.6574
  786MOL0     H 8420   7.038   7.531   5.750 -1.4820  0.1070 -0.7831
  786MOL0     H 8421   7.105   7.669   5.655  0.3731  0.1707 -0.2540
  786MOL0     H 8422   7.017   7.396   5.541  1.6447 -0.2001 -1.3737
  786MOL0     H 8423   6.919   7.539   5.554 -0.6455 -0.1771 -1.3810
  786MOL0     H 8424   6.975   7.580   5.333 -1.0332  0.1019  1.8449
  786MOL0     H 8425   7.073   7.690   5.421  2.8165 -0.3252  1.0877
  786MOL0     H 8426   7.374   7.393   5.236 -1.1146 -0.2393 -1.2361
  786MOL0     H 8427   7.625   7.457   5.051  0.2801 -0.4275 -0.8679
  786MOL0     H 8428   7.513   7.431   4.909 -1.7729 -1.2569  0.3074
  786MOL0     H 8429   7.510   7.339   5.064  0.9847  0.9158  0.6989
  786MOL0     H 8430   7.634   7.521   4.696 -6.2679  0.6046  1.7868
  786MOL0     H 8431   7.692   7.561   4.447  1.1838 -0.8302  2.5484
  786MOL0     H 8432   7.837   7.610   4.249 -0.8525 -0.9187 -0.0806
  786MOL0     H 8433   7.672   7.631   4.230  0.5976 -1.8794 -0.2840
  786MOL0     H 8434   7.838   7.845   4.088  0.0873  0.7639 -2.3367
  786MOL0     H 8435   7.870   7.680   4.051  0.9047 -1.4510  3.9781
  786MOL0     H 8436   7.587   7.776   4.045 -0.4895 -0.1796 -1.0943
  786MOL0     H 8437   7.643   7.618   3.986 -1.4663  0.9432 -0.9616
  786MOL0     H 8438   7.594   7.731   3.808 -0.4457 -0.9703  2.1158
  786MOL0     H 8439   7.760   7.736   3.798 -1.0829 -1.2220 -0.8091
  786MOL0     H 8440   7.567   7.958   3.891  0.4329 -0.3075 -0.2099
  786MOL0     H 8441   7.739   7.986   3.900 -2.4646  3.0804  0.2094
  786MOL0     H 8442   7.581   7.913   3.667 -0.1278 -1.8167  2.2905
  786MOL0     H 8443   7.751   7.906   3.656  1.5270 -0.0504  1.7011
  786MOL0     H 8444   7.740   8.149   3.764 -0.4413  1.9616 -0.5047
  786MOL0     H 8445   7.585   8.142   3.671  0.1255  1.2753  0.5648
  786MOL0     H 8446   7.772   8.249   3.556  2.3007  0.6630 -2.4758
  786MOL0     H 8447   7.714   8.116   3.459 -0.4312  0.4438 -1.3362
  786MOL0     H 8448   7.707   7.968   4.513  1.8822 -0.6520 -0.4130
  786MOL0     H 8449   7.636   7.941   4.747 -2.2986  0.7251 -1.1544
  786MOL0     H 8450   7.206   7.799   5.023 -4.0652 -2.0164 -0.7694
  786MOL0     H 8451   7.105   7.723   5.202  0.3110 -0.2461 -0.0357
  786MOL0     H 8452   7.183   7.599   6.158  1.6364 -1.9063  2.8578
  786MOL0     H 8453   7.040   7.767   6.085 -0.8601 -1.6836 -0.6626
  786MOL0     H 8454   6.766   7.996   5.992  1.0018 -1.3831  0.9979
  786MOL0     H 8455   6.730   8.174   5.858 -1.8460 -1.6668  0.3789
  786MOL0     H 8456   6.856   8.573   6.019 -3.1710  1.2004 -0.6619
  786MOL0     H 8457   6.952   8.479   5.899 -1.5591 -1.6818 -0.2931
  786MOL0     H 8458   6.714   8.667   5.846  0.2872  2.4985 -0.6993
  786MOL0     H 8459   6.820   8.597   5.719 -2.9224  2.9825 -1.6765
  786MOL0     H 8460   6.873   8.806   5.921 -1.1482  2.2584 -2.0484
  786MOL0     H 8461   7.013   8.703   5.868 -0.0946 -0.5479 -0.6591
  786MOL0     H 8462   6.933   8.762   5.626  3.0821 -1.0160  0.9855
  786MOL0     H 8463   7.024   8.884   5.708 -0.4029  1.1815  1.8352
  786MOL0     H 8464   6.624   9.040   5.662  0.4524  1.0652 -2.1953
  786MOL0     H 8465   6.792   8.442   6.198  0.4344  0.7293  0.1351
  786MOL0     H 8466   6.740   8.216   6.444 -1.1504  1.8853  0.0032
  786MOL0     H 8467   6.907   8.259   6.425  1.1524  0.8008 -0.3569
  786MOL0     H 8468   6.770   8.380   6.388 -3.0658 -0.8498  1.3050
  787MOL0     O 8469   6.263   5.846   4.032  0.1723  0.0254  0.4228
  787MOL0     C 8470   6.385   5.842   4.005 -0.6015  0.3517  0.1284
  787MOL0     O 8471   6.483   5.860   4.097 -0.1311  0.1092  0.0274
  787MOL0     C 8472   6.445   5.915   4.227 -0.9179  0.1787  1.0132
  787MOL0     C 8473   6.363   5.853   4.307 -0.6596  0.3846 -1.2070
  787MOL0     C 8474   6.316   5.905   4.429 -0.1557  0.6867  0.2644
  787MOL0     C 8475   6.369   6.027   4.465  0.2922 -0.9135  0.4728
  787MOL0     O 8476   6.326   6.100   4.578 -1.0846 -0.6908 -0.3721
  787MOL0     C 8477   6.320   6.026   4.706 -0.8204 -0.0290  0.4503
  787MOL0     C 8478   6.195   6.083   4.771 -0.7027  0.0362 -0.0249
  787MOL0     C 8479   6.217   6.084   4.924 -0.3584  0.5988 -0.1274
  787MOL0     C 8480   6.103   6.157   4.999  0.5259  0.0489  0.0307
  787MOL0     C 8481   6.102   6.125   5.151  0.4243  0.4224  0.0791
  787MOL0     C 8482   5.961   6.148   5.217 -1.3477  0.5352  0.2777
  787MOL0     C 8483   5.952   6.103   5.368 -0.1599  1.0696  0.6591
  787MOL0     C 8484   6.058   6.138   5.477  0.6501  0.7238 -0.1168
  787MOL0     N 8485   6.006   6.087   5.612  0.2449  0.2199  0.1123
  787MOL0     C 8486   5.886   6.021   5.643  0.1504  0.2173  0.1421
  787MOL0     C 8487   5.916   5.963   5.756 -0.0276  0.4846 -0.6694
  787MOL0     C 8488   5.822   5.875   5.820 -0.7330 -0.5844  0.9049
  787MOL0     C 8489   5.828   5.887   5.971  0.2685 -0.3498 -0.2321
  787MOL0     C 8490   5.908   5.773   6.032  0.9917  0.7071 -0.3958
  787MOL0     C 8491   5.917   5.800   6.180 -0.5480  0.4507  0.5785
  787MOL0     O 8492   5.949   5.676   6.251 -0.2775  0.0070  0.1303
  787MOL0     C 8493   6.057   5.601   6.210  0.0165 -0.6640 -0.5359
  787MOL0     C 8494   6.038   5.474   6.152  0.4073  0.7519  0.7295
  787MOL0     C 8495   6.146   5.397   6.115  0.2193  0.6148 -0.5554
  787MOL0     C 8496   6.112   5.280   6.012  0.5915  0.0078  0.3373
  787MOL0     C 8497   6.277   5.434   6.152 -0.6192  0.3722 -1.2587
  787MOL0     C 8498   6.391   5.343   6.144 -0.4644  0.1163  0.4106
  787MOL0     O 8499   6.515   5.388   6.186  0.4989 -0.0918 -0.2415
  787MOL0     C 8500   6.618   5.304   6.232 -0.1021  0.6156  0.6444
  787MOL0     C 8501   6.636   5.164   6.214 -0.4708 -0.4875  0.7267
  787MOL0     C 8502   6.746   5.097   6.281  0.4003  0.7302 -0.9060
  787MOL0     C 8503   6.829   5.174   6.359  0.1364  0.8699 -0.3093
  787MOL0     O 8504   6.913   5.106   6.440 -0.8268 -0.4052  0.2896
  787MOL0     C 8505   6.868   5.076   6.573  0.7191  0.4436  0.7519
  787MOL0     C 8506   6.978   5.086   6.678  0.0374  1.4020 -0.4072
  787MOL0     C 8507   7.071   4.959   6.638  0.1773 -1.0376 -0.3735
  787MOL0     C 8508   7.195   4.998   6.562  0.2256 -0.1939 -0.9235
  787MOL0     C 8509   7.292   4.873   6.555  0.2808 -1.0279  0.4593
  787MOL0     C 8510   7.343   4.813   6.686 -0.0579 -0.0350  0.1051
  787MOL0     C 8511   7.466   4.709   6.652  0.0515  0.4029  0.3688
  787MOL0     C 8512   7.515   4.622   6.769 -1.9147 -0.1924  0.7133
  787MOL0    Cl 8513   7.572   4.726   6.912  0.0350 -0.3449  0.1776
  787MOL0     C 8514   6.821   5.313   6.365  0.3426  0.0025 -0.0373
  787MOL0     C 8515   6.721   5.375   6.301  0.4649  0.7581  0.7562
  787MOL0     O 8516   6.369   5.233   6.107 -0.5686  0.7770 -0.0721
  787MOL0     C 8517   6.288   5.555   6.224  0.4035  0.3299  0.7554
  787MOL0     C 8518   6.181   5.637   6.242 -0.3043  0.7453  0.9504
  787MOL0     N 8519   6.050   5.977   5.790 -0.2475  0.2905  0.5469
  787MOL0     N 8520   6.096   6.057   5.709 -0.4667 -0.2867 -0.1861
  787MOL0     C 8521   6.452   6.096   4.379 -0.0462 -0.3031  0.1203
  787MOL0     C 8522   6.502   6.039   4.266  1.1230 -0.5692 -0.6132
  787MOL0     C 8523   6.422   5.794   3.867 -0.2244 -1.2464  0.6130
  787MOL0     C 8524   6.534   5.709   3.851 -0.4060 -0.6305  0.2269
  787MOL0     C 8525   6.577   5.674   3.725 -0.6767 -0.0183  0.2789
  787MOL0     C 8526   6.495   5.694   3.619 -1.0820  0.7863 -0.0752
  787MOL0     O 8527   6.509   5.635   3.494 -0.2245  0.5606  0.7935
  787MOL0     C 8528   6.575   5.511   3.498  0.0149  1.3046  0.1135
  787MOL0     C 8529   6.543   5.442   3.360  0.5471  0.0938  0.2116
  787MOL0     C 8530   6.614   5.305   3.350 -0.4924  0.5514  0.1014
  787MOL0     C 8531   6.767   5.322   3.325  0.4552  0.6595  0.0430
  787MOL0     C 8532   6.846   5.197   3.302 -0.4716  0.9172  0.6056
  787MOL0     C 8533   6.880   5.086   3.249 -0.4746  0.1191  0.1000
  787MOL0     C 8534   6.389   5.776   3.627 -0.4565  0.0971 -0.7389
  787MOL0     C 8535   6.354   5.831   3.751 -0.4036  1.0123 -0.3391
  787MOL0     C 8536   6.246   5.942   3.744  0.2222  0.1779  0.4946
  787MOL0     H 8537   6.313   5.760   4.280  0.8676 -0.9134  0.2033
  787MOL0     H 8538   6.251   5.845   4.492 -0.5004  3.0145  2.3070
  787MOL0     H 8539   6.408   6.040   4.770  1.0117 -0.1788 -1.8756
  787MOL0     H 8540   6.295   5.921   4.689 -0.8529  0.2672 -1.5530
  787MOL0     H 8541   6.178   6.187   4.742  1.1374  0.9896  2.0341
  787MOL0     H 8542   6.110   6.016   4.751 -0.0415 -1.9903  3.2632
  787MOL0     H 8543   6.225   5.984   4.967 -2.0887 -0.5161 -2.2158
  787MOL0     H 8544   6.312   6.131   4.952 -0.4894  2.1036 -1.9848
  787MOL0     H 8545   6.120   6.263   4.983 -3.4121  0.7833 -0.3154
  787MOL0     H 8546   6.010   6.139   4.945  2.0543 -2.5007 -2.0505
  787MOL0     H 8547   6.167   6.203   5.192  2.7905 -0.0574 -2.4654
  787MOL0     H 8548   6.159   6.033   5.169  2.3526  1.4480 -0.4108
  787MOL0     H 8549   5.936   6.254   5.222 -0.8610  0.6587  0.0752
  787MOL0     H 8550   5.887   6.098   5.153  0.8551 -0.7712 -1.3748
  787MOL0     H 8551   5.937   5.996   5.351  1.6261  1.2910 -3.7699
  787MOL0     H 8552   5.859   6.153   5.399 -0.9082 -0.1501  0.4439
  787MOL0     H 8553   6.156   6.096   5.454  0.3637 -0.0078 -0.0503
  787MOL0     H 8554   6.057   6.247   5.476 -1.9318  0.7639 -0.3034
  787MOL0     H 8555   5.788   6.026   5.598  0.7052 -3.5624 -1.9520
  787MOL0     H 8556   5.844   5.771   5.793  2.3991 -0.1038  1.2259
  787MOL0     H 8557   5.723   5.907   5.788  1.2839  3.4903 -2.2015
  787MOL0     H 8558   5.877   5.979   6.007  0.8479 -1.4963  2.0580
  787MOL0     H 8559   5.728   5.895   6.015 -1.4344  1.2900 -3.9275
  787MOL0     H 8560   5.852   5.679   6.020  3.1379 -0.8744  1.0798
  787MOL0     H 8561   6.011   5.767   5.996  0.5464 -0.0814 -1.6220
  787MOL0     H 8562   5.992   5.877   6.200 -1.5628  2.0428 -1.3478
  787MOL0     H 8563   5.829   5.835   6.236 -0.1294 -2.4547  3.3075
  787MOL0     H 8564   5.938   5.439   6.129  0.8264 -1.2935  1.8020
  787MOL0     H 8565   6.074   5.196   6.071  0.8041 -1.5767 -1.6683
  787MOL0     H 8566   6.180   5.251   5.931 -0.1979 -2.7588  0.5550
  787MOL0     H 8567   6.027   5.310   5.949  0.3761 -2.4778 -0.6740
  787MOL0     H 8568   6.558   5.105   6.167  0.3472 -1.5239  0.6151
  787MOL0     H 8569   6.759   4.989   6.284  0.2593  0.7277  0.4451
  787MOL0     H 8570   6.778   5.136   6.595 -1.6271 -2.2462 -0.8266
  787MOL0     H 8571   6.830   4.974   6.575 -1.0357  1.0379  0.2045
  787MOL0     H 8572   7.029   5.183   6.680  0.1914  1.3403  2.8111
  787MOL0     H 8573   6.946   5.064   6.780  5.5968  0.5615  1.5140
  787MOL0     H 8574   7.023   4.884   6.574 -0.9128 -2.1819  1.6741
  787MOL0     H 8575   7.095   4.901   6.728  0.4246 -2.3105 -1.2295
  787MOL0     H 8576   7.255   5.077   6.607  0.0421  0.3556 -1.6312
  787MOL0     H 8577   7.170   5.027   6.460 -4.7773 -2.5589 -0.6731
  787MOL0     H 8578   7.245   4.796   6.493  3.3703 -3.9255  1.3612
  787MOL0     H 8579   7.381   4.917   6.510 -0.7835  0.1816 -0.5291
  787MOL0     H 8580   7.272   4.761   6.750 -0.5764  3.0826  2.3067
  787MOL0     H 8581   7.380   4.897   6.746  0.5446  0.5496 -1.0478
  787MOL0     H 8582   7.553   4.772   6.633  0.5941 -0.2005  0.8187
  787MOL0     H 8583   7.448   4.659   6.556 -0.3408 -0.3306  0.8121
  787MOL0     H 8584   7.601   4.568   6.727 -1.1205  3.3501 -2.8640
  787MOL0     H 8585   7.439   4.554   6.809 -2.2290  1.1626  2.5301
  787MOL0     H 8586   6.898   5.374   6.413  4.1734 -2.0592 -2.9861
  787MOL0     H 8587   6.703   5.481   6.318  2.1803  1.8446 -3.1067
  787MOL0     H 8588   6.388   5.591   6.248  0.2790  0.3478  1.2639
  787MOL0     H 8589   6.182   5.733   6.292 -3.6694  1.3400  0.1117
  787MOL0     H 8590   6.473   6.201   4.396 -4.0336  0.5056  1.2466
  787MOL0     H 8591   6.577   6.085   4.202  0.5541  1.2691 -0.0079
  787MOL0     H 8592   6.608   5.705   3.931  0.8383  0.4983 -0.8077
  787MOL0     H 8593   6.664   5.611   3.713  2.1816  3.6912 -0.2715
  787MOL0     H 8594   6.682   5.523   3.516  0.0210  0.3005  0.8713
  787MOL0     H 8595   6.536   5.447   3.578 -1.0271  1.4073 -0.3012
  787MOL0     H 8596   6.566   5.498   3.269  2.6762 -2.0708 -0.6976
  787MOL0     H 8597   6.438   5.412   3.353  1.1410 -2.5192  1.2769
  787MOL0     H 8598   6.593   5.256   3.446 -1.1440  2.0095  0.7414
  787MOL0     H 8599   6.575   5.242   3.270 -4.0801  2.1434  0.3887
  787MOL0     H 8600   6.815   5.383   3.403 -1.1686  2.5836 -0.3816
  787MOL0     H 8601   6.766   5.375   3.230 -0.5190 -2.2407 -1.6557
  787MOL0     H 8602   6.923   4.994   3.214 -1.5301  0.0089 -0.9727
  787MOL0     H 8603   6.327   5.807   3.544 -0.3855  1.7387 -0.2258
  787MOL0     H 8604   6.254   6.017   3.823  1.1809  1.0934 -0.4303
  787MOL0     H 8605   6.257   5.992   3.647 -3.0936 -1.1559 -0.7194
  787MOL0     H 8606   6.141   5.909   3.742  0.4916 -1.1404 -4.0392
  788MOL0     O 8607   3.085   4.942   5.550  0.4531 -0.3914  0.6000
  788MOL0     C 8608   3.002   4.968   5.452 -0.6290 -0.7966 -1.1441
  788MOL0     O 8609   2.877   5.020   5.469 -0.3994  0.3102 -0.2622
  788MOL0     C 8610   2.835   5.068   5.586  0.7228  0.7927  0.0155
  788MOL0     C 8611   2.700   5.080   5.606 -0.4035  0.1303  0.3264
  788MOL0     C 8612   2.646   5.088   5.733 -0.2657  0.3741  0.5455
  788MOL0     C 8613   2.724   5.109   5.842 -0.6639 -0.4191 -0.5131
  788MOL0     O 8614   2.676   5.122   5.969  0.0453 -0.0854 -0.1959
  788MOL0     C 8615   2.543   5.170   5.976  0.1227  0.5233 -0.5625
  788MOL0     C 8616   2.486   5.174   6.118  0.2981  0.2195  0.4457
  788MOL0     C 8617   2.339   5.212   6.121 -1.1460  0.2668  0.2803
  788MOL0     C 8618   2.316   5.358   6.130 -1.2061 -0.1565  0.2933
  788MOL0     C 8619   2.396   5.447   6.226 -0.5068 -0.5883  0.5474
  788MOL0     C 8620   2.406   5.397   6.371  0.0820  0.2021  1.0449
  788MOL0     C 8621   2.299   5.433   6.473 -0.5147 -0.4342 -0.0405
  788MOL0     C 8622   2.322   5.385   6.614  1.0278 -0.2866 -0.2635
  788MOL0     N 8623   2.433   5.462   6.672  0.2609  0.1910 -0.7411
  788MOL0     C 8624   2.417   5.570   6.745 -0.1376 -0.5798  0.2845
  788MOL0     C 8625   2.544   5.592   6.792  0.0529 -1.1870  0.3388
  788MOL0     C 8626   2.595   5.711   6.881  0.6428 -0.8643  0.6455
  788MOL0     C 8627   2.747   5.731   6.875 -1.1896  0.4495  0.4722
  788MOL0     C 8628   2.817   5.842   6.964  0.0643 -0.1215  0.3252
  788MOL0     C 8629   2.833   5.791   7.110  0.1498 -0.3890  0.4243
  788MOL0     O 8630   2.712   5.816   7.181  0.0578  0.0774  0.7183
  788MOL0     C 8631   2.694   5.939   7.239  0.0964 -0.1684  0.7631
  788MOL0     C 8632   2.763   6.057   7.207 -0.5146  0.4861 -0.1482
  788MOL0     C 8633   2.736   6.182   7.270 -0.5676 -0.3360 -0.4373
  788MOL0     C 8634   2.816   6.302   7.235  1.5395  0.3882 -0.8431
  788MOL0     C 8635   2.639   6.189   7.377  0.5532 -0.0264 -0.0586
  788MOL0     C 8636   2.612   6.311   7.459  0.3415  0.6181  0.4008
  788MOL0     O 8637   2.601   6.296   7.591  0.5264 -0.4400 -0.4602
  788MOL0     C 8638   2.597   6.421   7.657 -0.1289  0.2521 -0.1044
  788MOL0     C 8639   2.468   6.484   7.685  0.3965 -0.2188  0.4004
  788MOL0     C 8640   2.469   6.585   7.778  0.1128 -1.0595 -0.4667
  788MOL0     C 8641   2.585   6.640   7.838  0.4599 -0.2765  0.1455
  788MOL0     O 8642   2.584   6.730   7.934  0.5472  0.0210  0.1344
  788MOL0     C 8643   2.487   6.736   8.036  0.5895 -0.5830  0.8498
  788MOL0     C 8644   2.459   6.600   8.112  0.2347 -0.6779 -0.1594
  788MOL0     C 8645   2.427   6.648   8.261  0.1325 -1.5298 -0.4210
  788MOL0     C 8646   2.442   6.524   8.350 -0.1104  1.1784 -0.3899
  788MOL0     C 8647   2.346   6.416   8.313  0.0718  0.0662 -0.2016
  788MOL0     C 8648   2.197   6.421   8.327 -0.4469 -1.2539  0.5352
  788MOL0     C 8649   2.113   6.344   8.220 -0.1029 -0.5569  0.2095
  788MOL0     C 8650   1.961   6.371   8.242  0.3939  1.0256 -0.6054
  788MOL0    Cl 8651   1.890   6.307   8.404  0.3130  0.3340 -0.4675
  788MOL0     C 8652   2.707   6.598   7.795 -0.0432 -0.1423 -0.4564
  788MOL0     C 8653   2.716   6.491   7.706 -0.6688 -0.7542 -0.2157
  788MOL0     O 8654   2.618   6.416   7.399  0.8041  0.7252 -0.0512
  788MOL0     C 8655   2.580   6.069   7.413 -0.4005  0.8639 -0.8563
  788MOL0     C 8656   2.600   5.951   7.343  0.8099 -0.0532  0.1621
  788MOL0     N 8657   2.632   5.502   6.741 -0.4696  0.4880  0.6469
  788MOL0     N 8658   2.566   5.420   6.672  0.5260 -0.6391 -0.0464
  788MOL0     C 8659   2.858   5.133   5.822 -0.3192  0.4458  0.5565
  788MOL0     C 8660   2.912   5.111   5.693 -0.1381 -0.3742 -0.0752
  788MOL0     C 8661   3.040   4.927   5.313  0.5901 -0.1075  0.0418
  788MOL0     C 8662   3.140   4.830   5.298  0.8064 -0.5045 -0.9409
  788MOL0     C 8663   3.172   4.788   5.165  0.4754  0.1138 -0.3636
  788MOL0     C 8664   3.121   4.863   5.051  0.0776 -0.6516 -0.0723
  788MOL0     O 8665   3.164   4.845   4.923  0.2875  0.2786  0.0069
  788MOL0     C 8666   3.242   4.727   4.892 -0.3064 -0.5358  1.3471
  788MOL0     C 8667   3.256   4.707   4.739 -0.8350 -0.0495  0.1749
  788MOL0     C 8668   3.124   4.633   4.696 -0.2391 -1.2248  0.7856
  788MOL0     C 8669   3.115   4.636   4.543 -1.3634  0.1973  0.0849
  788MOL0     C 8670   3.079   4.772   4.499 -0.2896 -0.1685 -0.8948
  788MOL0     C 8671   3.051   4.887   4.473  0.0480 -0.4409  0.3089
  788MOL0     C 8672   3.020   4.960   5.073  0.0696  0.7569  0.8941
  788MOL0     C 8673   2.976   4.995   5.200  0.7001  0.5945 -0.2143
  788MOL0     C 8674   2.873   5.111   5.215 -0.0216  1.4415  0.3665
  788MOL0     H 8675   2.640   5.071   5.516  1.0922  2.0841 -0.9516
  788MOL0     H 8676   2.542   5.065   5.750 -0.8103  3.3916  2.0939
  788MOL0     H 8677   2.476   5.089   5.945  1.2496 -1.1124  1.0647
  788MOL0     H 8678   2.529   5.269   5.930  1.8823  2.6818  3.0746
  788MOL0     H 8679   2.485   5.073   6.158 -1.0356  0.5926  1.4285
  788MOL0     H 8680   2.558   5.231   6.178 -2.5398  3.1046  1.3955
  788MOL0     H 8681   2.288   5.171   6.034  0.8690 -2.2124  0.1570
  788MOL0     H 8682   2.303   5.150   6.203 -1.4573 -1.8285 -1.3633
  788MOL0     H 8683   2.333   5.393   6.027  2.6978 -0.2377  0.7512
  788MOL0     H 8684   2.217   5.376   6.171 -0.8126 -1.5341  1.9728
  788MOL0     H 8685   2.350   5.546   6.219  1.3954  0.3450  0.7237
  788MOL0     H 8686   2.496   5.457   6.183  0.4291  0.4686  2.8058
  788MOL0     H 8687   2.422   5.289   6.371 -2.0003 -0.1552  0.4203
  788MOL0     H 8688   2.496   5.443   6.412  0.3067  3.5547 -2.6202
  788MOL0     H 8689   2.201   5.404   6.435 -0.0945 -0.6128 -1.0290
  788MOL0     H 8690   2.296   5.541   6.488  3.0480  0.2004 -2.7245
  788MOL0     H 8691   2.234   5.397   6.676  0.0669  0.0824 -1.6567
  788MOL0     H 8692   2.358   5.282   6.606  0.2161 -0.7117  1.2258
  788MOL0     H 8693   2.317   5.608   6.765 -0.9203 -3.4177  2.5634
  788MOL0     H 8694   2.560   5.698   6.984  1.5745  0.7880  1.2008
  788MOL0     H 8695   2.534   5.792   6.840 -1.6203 -2.3418  0.8891
  788MOL0     H 8696   2.781   5.635   6.914 -5.9757 -1.9144 -0.4515
  788MOL0     H 8697   2.771   5.752   6.770 -0.0456  2.1481  1.0353
  788MOL0     H 8698   2.920   5.850   6.929  2.3752 -2.9378  5.3230
  788MOL0     H 8699   2.766   5.939   6.959 -2.0400 -1.2298 -2.4928
  788MOL0     H 8700   2.850   5.684   7.103  0.9802 -0.1804 -1.1015
  788MOL0     H 8701   2.918   5.848   7.150  3.7860 -3.5922 -1.9374
  788MOL0     H 8702   2.847   6.053   7.138 -0.1436 -0.1124  0.3240
  788MOL0     H 8703   2.907   6.278   7.180  3.0785 -0.8281  2.0351
  788MOL0     H 8704   2.840   6.351   7.329  0.4757 -1.2794  0.3506
  788MOL0     H 8705   2.752   6.370   7.177  0.0142 -1.0306 -0.8934
  788MOL0     H 8706   2.374   6.456   7.637 -0.2730  2.5711 -0.1215
  788MOL0     H 8707   2.377   6.635   7.808 -0.3490 -0.2530 -3.0405
  788MOL0     H 8708   2.522   6.822   8.094  0.8897 -0.8202  1.0202
  788MOL0     H 8709   2.399   6.766   7.978  1.5050 -0.6754 -0.6166
  788MOL0     H 8710   2.370   6.561   8.061  1.0920  0.6732 -2.8535
  788MOL0     H 8711   2.550   6.541   8.120  2.0159  1.9003 -0.1252
  788MOL0     H 8712   2.333   6.697   8.286  0.7875 -1.1305  1.4709
  788MOL0     H 8713   2.502   6.721   8.292 -0.5221 -1.6795  1.7146
  788MOL0     H 8714   2.413   6.556   8.450  0.2317  0.5147 -0.0740
  788MOL0     H 8715   2.547   6.491   8.353 -0.1995  0.6959 -1.8448
  788MOL0     H 8716   2.372   6.388   8.210  2.9497  1.7748 -0.0522
  788MOL0     H 8717   2.373   6.327   8.370  1.9612  0.5965 -0.2032
  788MOL0     H 8718   2.184   6.530   8.322 -0.3383 -1.1302  2.3096
  788MOL0     H 8719   2.159   6.402   8.427  0.0980  0.4588  1.1082
  788MOL0     H 8720   2.149   6.243   8.199  1.1674 -0.0995  0.1338
  788MOL0     H 8721   2.148   6.395   8.130  0.0464  4.2404  2.6496
  788MOL0     H 8722   1.924   6.322   8.151  2.6329 -0.8953 -0.5876
  788MOL0     H 8723   1.936   6.477   8.236 -0.6333  0.7507 -1.5427
  788MOL0     H 8724   2.798   6.637   7.839  1.2922 -2.9909 -0.4415
  788MOL0     H 8725   2.813   6.450   7.679 -0.1616  0.2811 -0.0150
  788MOL0     H 8726   2.502   6.071   7.488 -0.1053 -2.6668 -0.2668
  788MOL0     H 8727   2.546   5.858   7.357  1.1355 -0.2352  0.2225
  788MOL0     H 8728   2.920   5.179   5.898  1.2764 -0.9340  0.1475
  788MOL0     H 8729   3.017   5.130   5.675  0.4175 -1.0224  2.1437
  788MOL0     H 8730   3.202   4.779   5.370  1.7477  0.7926 -0.7921
  788MOL0     H 8731   3.253   4.718   5.147  2.4337  2.1228  0.2022
  788MOL0     H 8732   3.338   4.721   4.943  2.9582 -1.1213 -4.0885
  788MOL0     H 8733   3.203   4.632   4.930 -1.3935 -0.3465  0.7439
  788MOL0     H 8734   3.341   4.638   4.730 -0.8768 -0.0703 -0.0673
  788MOL0     H 8735   3.292   4.795   4.686 -0.1663  1.2781  2.6469
  788MOL0     H 8736   3.124   4.530   4.732 -0.1490 -1.5274 -0.0593
  788MOL0     H 8737   3.045   4.683   4.753  0.6745  0.2984  0.7560
  788MOL0     H 8738   3.038   4.563   4.515  0.1592 -1.5676  0.3246
  788MOL0     H 8739   3.203   4.607   4.485 -3.0048  1.0858 -3.1061
  788MOL0     H 8740   3.016   4.985   4.444  1.0682 -0.5603 -1.4902
  788MOL0     H 8741   2.965   4.993   4.985 -0.5126  0.0158  0.9672
  788MOL0     H 8742   2.908   5.194   5.278  3.1526  0.2879  0.3304
  788MOL0     H 8743   2.849   5.153   5.117  2.6192  0.0890 -0.9748
  788MOL0     H 8744   2.790   5.051   5.255 -1.4479 -2.0990 -6.3865
  789MOL0     O 8745   3.388  10.283   1.457  0.0530 -0.7223 -0.4314
  789MOL0     C 8746   3.497  10.311   1.498 -0.4668  0.5419  0.1339
  789MOL0     O 8747   3.527  10.370   1.619  0.1045 -0.5356 -0.3471
  789MOL0     C 8748   3.436  10.423   1.703 -0.6909 -0.3002 -0.3300
  789MOL0     C 8749   3.385  10.542   1.666 -0.5985 -0.5340 -0.7146
  789MOL0     C 8750   3.302  10.623   1.750  0.0633 -0.3808  0.8565
  789MOL0     C 8751   3.245  10.569   1.868  0.7283  0.6244 -0.3310
  789MOL0     O 8752   3.158  10.642   1.944  0.1281  0.5851 -0.6680
  789MOL0     C 8753   3.152  10.613   2.087 -0.1230  0.1328  0.3525
  789MOL0     C 8754   3.109  10.731   2.162 -0.1328  1.5462  0.2559
  789MOL0     C 8755   2.960  10.748   2.159  0.6860  0.0360 -0.5221
  789MOL0     C 8756   2.904  10.832   2.283 -0.6231 -0.4825  0.3836
  789MOL0     C 8757   2.768  10.895   2.270  0.1482 -0.1593  0.2582
  789MOL0     C 8758   2.732  10.999   2.377  0.3437  0.0804  0.4294
  789MOL0     C 8759   2.782  11.144   2.333 -0.2178 -0.1286  0.3955
  789MOL0     C 8760   2.729  11.207   2.200 -0.0487  0.2430  0.1522
  789MOL0     N 8761   2.579  11.191   2.187 -0.3110  1.1944  0.1048
  789MOL0     C 8762   2.514  11.090   2.129 -0.2810  0.0707  0.5833
  789MOL0     C 8763   2.383  11.114   2.128  0.3437  0.2473 -0.5816
  789MOL0     C 8764   2.277  11.029   2.075  0.1497  0.1457  0.8170
  789MOL0     C 8765   2.245  11.069   1.928  0.5698 -0.4898  0.2999
  789MOL0     C 8766   2.102  11.022   1.888 -0.5069  0.6031  0.5179
  789MOL0     C 8767   2.105  11.006   1.729  0.7069 -0.6417 -0.6722
  789MOL0     O 8768   2.154  11.112   1.652 -0.6738 -0.0364 -0.0715
  789MOL0     C 8769   2.133  11.251   1.683 -0.7703  0.2060  0.0709
  789MOL0     C 8770   2.012  11.295   1.721 -0.4126 -0.9051 -1.1130
  789MOL0     C 8771   1.994  11.435   1.739  0.1600 -0.0228 -0.8682
  789MOL0     C 8772   1.853  11.474   1.782 -0.0711  0.0189 -0.6142
  789MOL0     C 8773   2.097  11.529   1.714  0.0800  0.6516 -1.4979
  789MOL0     C 8774   2.095  11.672   1.743 -0.0002 -0.4165 -0.3394
  789MOL0     O 8775   2.207  11.744   1.692 -0.2022  0.7673  0.2694
  789MOL0     C 8776   2.221  11.876   1.715  0.1329  0.1596 -0.3918
  789MOL0     C 8777   2.130  11.981   1.693 -0.2015 -0.4018  0.7067
  789MOL0     C 8778   2.154  12.110   1.729  0.2880  0.0933 -0.0202
  789MOL0     C 8779   2.271  12.144   1.795 -0.0964  0.2883  0.0324
  789MOL0     O 8780   2.313  12.263   1.822  0.3766 -0.2966  0.5075
  789MOL0     C 8781   2.231  12.353   1.903  0.2190 -0.1410 -0.0906
  789MOL0     C 8782   2.301  12.490   1.881 -0.2147  0.3177  0.4892
  789MOL0     C 8783   2.282  12.564   1.748 -0.2801  0.6183  0.1866
  789MOL0     C 8784   2.323  12.714   1.761  0.1456  0.9567 -0.7299
  789MOL0     C 8785   2.330  12.784   1.625  0.2099  0.2156  0.5626
  789MOL0     C 8786   2.294  12.931   1.619  0.8428  0.3410 -0.0446
  789MOL0     C 8787   2.163  12.953   1.704 -0.4292 -1.1722 -1.1648
  789MOL0     C 8788   2.084  13.078   1.665 -0.4480  0.4235 -0.4004
  789MOL0    Cl 8789   2.183  13.224   1.681 -0.0724  0.0300 -0.1444
  789MOL0     C 8790   2.360  12.035   1.817  0.1241 -0.2909  0.3564
  789MOL0     C 8791   2.340  11.908   1.777  0.0439  0.3248  0.7228
  789MOL0     O 8792   1.993  11.733   1.784 -0.5170  0.0699  0.3548
  789MOL0     C 8793   2.215  11.469   1.651 -0.3553 -0.3122 -0.6833
  789MOL0     C 8794   2.232  11.340   1.649  0.0174 -0.0820 -1.5346
  789MOL0     N 8795   2.369  11.231   2.205  0.4673 -0.5924  0.4693
  789MOL0     N 8796   2.487  11.278   2.241 -0.3218 -0.7143  0.6258
  789MOL0     C 8797   3.288  10.435   1.908  0.7464  0.4176  0.4908
  789MOL0     C 8798   3.380  10.364   1.827 -1.0078 -0.2730  0.2035
  789MOL0     C 8799   3.614  10.261   1.407  0.6446  1.4174 -0.8471
  789MOL0     C 8800   3.590  10.220   1.269 -0.5911  0.2394 -0.7126
  789MOL0     C 8801   3.697  10.188   1.186  0.1930 -1.5463 -0.1078
  789MOL0     C 8802   3.830  10.182   1.236 -0.1757 -0.9644  0.7561
  789MOL0     O 8803   3.946  10.159   1.160  0.6116 -0.1387 -0.1651
  789MOL0     C 8804   3.941  10.147   1.011 -0.0527 -0.1577 -0.0483
  789MOL0     C 8805   3.936  10.278   0.930  0.6038  0.3274 -0.0069
  789MOL0     C 8806   3.946  10.247   0.779 -0.0363  0.1292 -0.2667
  789MOL0     C 8807   3.984  10.368   0.695 -0.2990 -0.2128  0.2079
  789MOL0     C 8808   3.999  10.314   0.564  0.8936  0.1847  0.5605
  789MOL0     C 8809   3.995  10.272   0.451  0.1872 -0.4096  0.5436
  789MOL0     C 8810   3.850  10.216   1.367  0.3116 -0.1135 -0.4404
  789MOL0     C 8811   3.742  10.253   1.450  0.6424 -0.7349  0.8284
  789MOL0     C 8812   3.787  10.280   1.586  0.0715  0.3166 -0.5890
  789MOL0     H 8813   3.399  10.572   1.563  1.4230 -0.6657 -0.5238
  789MOL0     H 8814   3.286  10.727   1.724  0.7792 -0.5993 -0.5403
  789MOL0     H 8815   3.253  10.591   2.121  1.8144  5.4875 -1.0355
  789MOL0     H 8816   3.091  10.524   2.107  1.0323 -0.9147 -0.5994
  789MOL0     H 8817   3.143  10.719   2.265 -2.6741 -0.8244  0.9334
  789MOL0     H 8818   3.164  10.812   2.112 -0.0386  2.2135  1.4042
  789MOL0     H 8819   2.937  10.787   2.060  0.4260  1.4452  0.0690
  789MOL0     H 8820   2.906  10.653   2.165 -0.0179  0.3736 -1.3141
  789MOL0     H 8821   2.907  10.765   2.370  2.8134 -0.3437  0.5412
  789MOL0     H 8822   2.976  10.913   2.298  1.2740 -2.1014  0.4143
  789MOL0     H 8823   2.695  10.815   2.259 -0.3421  0.4720 -1.4980
  789MOL0     H 8824   2.756  10.934   2.168 -5.6056 -2.0382 -0.1282
  789MOL0     H 8825   2.625  11.009   2.396  0.3724  2.2123 -0.2633
  789MOL0     H 8826   2.779  10.967   2.471  1.6064 -4.5769 -1.5005
  789MOL0     H 8827   2.890  11.158   2.340 -0.7168  5.3018  5.5535
  789MOL0     H 8828   2.740  11.205   2.414 -0.8297 -0.6910  0.5108
  789MOL0     H 8829   2.756  11.312   2.203  0.7368  0.2002 -2.9526
  789MOL0     H 8830   2.780  11.167   2.112  0.1906  1.9217 -0.4942
  789MOL0     H 8831   2.561  11.008   2.076 -2.1315 -3.1418  3.5088
  789MOL0     H 8832   2.183  11.032   2.132 -0.7738 -3.7800 -0.1512
  789MOL0     H 8833   2.319  10.928   2.076  1.8539  0.8089 -0.6207
  789MOL0     H 8834   2.246  11.177   1.912 -1.2798 -0.4120  0.5034
  789MOL0     H 8835   2.324  11.033   1.862 -1.4427  0.0884 -2.6179
  789MOL0     H 8836   2.091  10.920   1.924  2.9852 -0.7886 -1.8348
  789MOL0     H 8837   2.016  11.083   1.917 -0.2489  1.5340 -0.5628
  789MOL0     H 8838   2.168  10.919   1.710 -0.6693 -2.3430  2.0401
  789MOL0     H 8839   2.003  10.983   1.698  0.2736  1.7341 -1.2476
  789MOL0     H 8840   1.923  11.234   1.735  1.8974 -4.0750  1.4332
  789MOL0     H 8841   1.789  11.386   1.782 -0.3572  0.1105 -4.1483
  789MOL0     H 8842   1.809  11.546   1.712 -2.0094 -0.1824  0.3345
  789MOL0     H 8843   1.853  11.522   1.881  0.0427  0.6496 -0.9137
  789MOL0     H 8844   2.032  11.954   1.656 -1.7300 -2.9471  5.6850
  789MOL0     H 8845   2.070  12.175   1.707 -3.0381 -1.9690  4.8504
  789MOL0     H 8846   2.128  12.364   1.865  0.8288  4.0679 -0.9343
  789MOL0     H 8847   2.243  12.322   2.007  4.0424 -3.1846 -1.2093
  789MOL0     H 8848   2.261  12.550   1.962 -0.3988  1.1813 -0.2279
  789MOL0     H 8849   2.409  12.481   1.893  0.5641  0.4401 -4.3679
  789MOL0     H 8850   2.182  12.560   1.704  0.3802 -1.0295 -1.3101
  789MOL0     H 8851   2.353  12.517   1.679  0.1630 -0.2916  1.2307
  789MOL0     H 8852   2.425  12.718   1.801  1.2630  3.1324 -3.5369
  789MOL0     H 8853   2.262  12.757   1.841 -0.6349 -1.2060 -0.0713
  789MOL0     H 8854   2.435  12.773   1.597  0.6148 -1.0730  2.3901
  789MOL0     H 8855   2.271  12.726   1.554  2.4346 -3.4211  1.4276
  789MOL0     H 8856   2.277  12.950   1.513  0.1880 -3.7488 -0.8451
  789MOL0     H 8857   2.389  12.978   1.645  2.2376 -2.2258 -0.1230
  789MOL0     H 8858   2.188  12.968   1.809 -1.8308 -1.6467 -0.7383
  789MOL0     H 8859   2.092  12.870   1.697  0.1677 -2.2663  3.1672
  789MOL0     H 8860   1.988  13.087   1.717 -0.7348  2.4539 -1.1778
  789MOL0     H 8861   2.065  13.073   1.558 -1.5941 -0.6501 -0.1693
  789MOL0     H 8862   2.456  12.045   1.867  1.7354 -1.3968 -2.2896
  789MOL0     H 8863   2.415  11.834   1.802  1.1766 -0.5142 -4.1267
  789MOL0     H 8864   2.300  11.533   1.629 -1.0510  1.0072  0.2875
  789MOL0     H 8865   2.335  11.316   1.624  0.6692  2.2083 -1.2981
  789MOL0     H 8866   3.243  10.384   1.992  0.7935 -1.9610 -0.8346
  789MOL0     H 8867   3.405  10.264   1.861 -0.0877 -0.0364  0.2692
  789MOL0     H 8868   3.496  10.230   1.215  0.1525  3.2340 -1.6343
  789MOL0     H 8869   3.671  10.172   1.082 -3.3235  1.1231  0.1809
  789MOL0     H 8870   4.032  10.093   0.982  0.3833  1.6869 -2.3321
  789MOL0     H 8871   3.860  10.082   0.974 -0.1229 -0.5702  0.7876
  789MOL0     H 8872   4.018  10.339   0.969 -0.9217  0.7937  2.7458
  789MOL0     H 8873   3.843  10.334   0.947 -1.8908 -3.6002  0.5872
  789MOL0     H 8874   4.024  10.173   0.758  1.5283  2.3322 -2.9050
  789MOL0     H 8875   3.858  10.203   0.732  0.7296  0.5320 -2.1759
  789MOL0     H 8876   4.086  10.385   0.731 -0.5019 -1.8813  1.7372
  789MOL0     H 8877   3.924  10.459   0.704 -1.5358 -1.1781  3.1515
  789MOL0     H 8878   4.011  10.235   0.352  1.8666  1.2334  0.1385
  789MOL0     H 8879   3.953  10.199   1.398  0.2233  0.5802  0.2884
  789MOL0     H 8880   3.754  10.227   1.676  2.9556 -0.0267  0.3723
  789MOL0     H 8881   3.894  10.256   1.581 -0.0185  0.0284 -1.1103
  789MOL0     H 8882   3.780  10.385   1.617  1.1472 -0.0801  1.1375
  790MOL0     O 8883   3.912   8.445  11.399  0.3216 -0.3203 -0.0988
  790MOL0     C 8884   3.938   8.335  11.427  0.1756  0.0070  0.2043
  790MOL0     O 8885   3.917   8.220  11.352 -1.0585  0.1636  0.6037
  790MOL0     C 8886   3.896   8.223  11.215 -0.0491 -0.6744 -0.2406
  790MOL0     C 8887   3.928   8.330  11.127  0.8515 -0.0224  0.2810
  790MOL0     C 8888   3.922   8.310  10.989 -0.0809 -0.3103 -0.3647
  790MOL0     C 8889   3.880   8.188  10.934  0.2145  0.9644 -0.0084
  790MOL0     O 8890   3.874   8.176  10.795 -0.0271 -0.4492 -0.0969
  790MOL0     C 8891   3.904   8.044  10.743  0.7937  0.4319 -1.3576
  790MOL0     C 8892   4.039   7.986  10.780  0.1578 -0.3403  0.6550
  790MOL0     C 8893   4.154   8.049  10.707 -0.5949 -0.7891 -0.1922
  790MOL0     C 8894   4.242   8.134  10.798  0.4578  0.2770  0.0116
  790MOL0     C 8895   4.391   8.129  10.758 -0.5433 -0.6069 -1.1513
  790MOL0     C 8896   4.411   8.210  10.640  1.0573 -0.8856 -0.7506
  790MOL0     C 8897   4.553   8.259  10.612  0.4216 -0.1914  0.5196
  790MOL0     C 8898   4.651   8.147  10.615  1.1077 -0.3241  0.0095
  790MOL0     N 8899   4.789   8.181  10.578 -0.0909 -0.0640  0.7376
  790MOL0     C 8900   4.829   8.232  10.464  1.0224 -0.8935  0.7106
  790MOL0     C 8901   4.960   8.219  10.465 -0.3343 -0.4424 -1.2882
  790MOL0     C 8902   5.048   8.246  10.349  0.3535  0.6398 -0.5971
  790MOL0     C 8903   5.045   8.145  10.235  0.1928 -0.8568 -0.0437
  790MOL0     C 8904   5.129   8.196  10.115 -0.8408  0.2501 -0.0930
  790MOL0     C 8905   5.067   8.316  10.047  0.3631 -0.1662 -0.7140
  790MOL0     O 8906   4.924   8.286  10.026 -0.6686 -0.3400 -0.1704
  790MOL0     C 8907   4.865   8.403   9.978 -0.2267  0.6915 -0.3107
  790MOL0     C 8908   4.800   8.494  10.064  0.6420  0.5314 -0.5351
  790MOL0     C 8909   4.729   8.595  10.002  0.4428  0.4554 -0.2040
  790MOL0     C 8910   4.633   8.668  10.094 -0.2315 -0.5243  0.2405
  790MOL0     C 8911   4.731   8.615   9.865 -0.2026 -0.2697 -0.7536
  790MOL0     C 8912   4.658   8.725   9.803  0.3285 -0.3147 -0.3420
  790MOL0     O 8913   4.630   8.697   9.672  0.1538  0.3275 -0.1071
  790MOL0     C 8914   4.629   8.801   9.588  0.0571 -0.9423  0.3001
  790MOL0     C 8915   4.515   8.881   9.573  0.2320 -0.2649  0.5152
  790MOL0     C 8916   4.501   8.981   9.477 -0.2718  0.0626  0.8779
  790MOL0     C 8917   4.618   9.006   9.399 -0.9482 -0.3139  0.5871
  790MOL0     O 8918   4.632   9.100   9.295 -0.5181  0.0783  0.0856
  790MOL0     C 8919   4.590   9.227   9.348 -0.0267 -0.3583  0.7576
  790MOL0     C 8920   4.618   9.340   9.254 -0.1432  0.5243  0.6602
  790MOL0     C 8921   4.584   9.475   9.314  0.3186  0.5002  0.0329
  790MOL0     C 8922   4.588   9.598   9.228 -0.0523  0.8024  0.2158
  790MOL0     C 8923   4.711   9.615   9.132  0.3520  0.0377  0.3980
  790MOL0     C 8924   4.703   9.749   9.067  0.0448  1.2921  0.0683
  790MOL0     C 8925   4.796   9.756   8.954  0.1997 -1.3331  0.3871
  790MOL0     C 8926   4.781   9.876   8.864  0.1413  0.0713 -0.3347
  790MOL0    Cl 8927   4.853  10.018   8.942  0.0794 -0.2092 -0.3410
  790MOL0     C 8928   4.733   8.941   9.422  0.3794 -0.0403 -0.7057
  790MOL0     C 8929   4.740   8.837   9.514 -0.3759 -0.0231 -0.4715
  790MOL0     O 8930   4.660   8.838   9.856 -0.5108 -0.5824  0.1277
  790MOL0     C 8931   4.795   8.523   9.781  0.1938 -0.1464 -0.2363
  790MOL0     C 8932   4.854   8.410   9.840 -0.1224  0.3456  0.1621
  790MOL0     N 8933   5.000   8.160  10.583  0.2321  0.0890 -0.0261
  790MOL0     N 8934   4.896   8.144  10.647 -0.6351 -0.2016 -0.6727
  790MOL0     C 8935   3.852   8.076  11.020 -0.3470 -0.3071  0.4691
  790MOL0     C 8936   3.858   8.094  11.164 -0.6199 -0.0976 -0.6230
  790MOL0     C 8937   3.982   8.316  11.563  0.4962  0.2045  0.5347
  790MOL0     C 8938   3.958   8.421  11.650  0.3893 -0.5600  0.7071
  790MOL0     C 8939   3.997   8.407  11.787  0.5862 -0.7801  0.1773
  790MOL0     C 8940   4.055   8.290  11.826 -0.6253 -0.2635  0.3153
  790MOL0     O 8941   4.105   8.298  11.949  0.0513  0.0161  0.4056
  790MOL0     C 8942   4.167   8.191  12.025 -0.2855  0.0613  0.9361
  790MOL0     C 8943   4.071   8.083  12.078  0.6126  0.1775  0.1940
  790MOL0     C 8944   3.948   8.140  12.158  0.2392  0.3696  0.1091
  790MOL0     C 8945   3.873   8.032  12.246  0.0737 -0.6850  0.3722
  790MOL0     C 8946   3.769   8.095  12.334  0.9263 -0.1861  1.2064
  790MOL0     C 8947   3.633   8.168  12.448  0.7138  0.7792 -0.2201
  790MOL0     C 8948   4.080   8.188  11.738  0.4651 -0.7652 -0.1382
  790MOL0     C 8949   4.050   8.202  11.602  0.1599  0.4705 -0.0932
  790MOL0     C 8950   4.103   8.103  11.508 -0.0851 -0.9784 -0.7504
  790MOL0     H 8951   3.954   8.429  11.162 -1.2059  1.4777 -2.1074
  790MOL0     H 8952   3.956   8.392  10.926 -3.1961  1.3374 -0.0705
  790MOL0     H 8953   3.896   8.052  10.634 -1.8103 -5.4059 -1.9690
  790MOL0     H 8954   3.813   7.986  10.764  2.3363 -1.6633 -0.0223
  790MOL0     H 8955   4.052   7.994  10.888 -4.9446 -0.9893  1.5905
  790MOL0     H 8956   4.037   7.880  10.753  0.4100  0.0312 -0.9233
  790MOL0     H 8957   4.215   7.972  10.660  0.0472  2.1997 -4.8784
  790MOL0     H 8958   4.118   8.107  10.622 -2.6750 -3.2420 -1.1388
  790MOL0     H 8959   4.205   8.236  10.787 -0.2542  0.0804  0.5372
  790MOL0     H 8960   4.234   8.112  10.904 -1.2657 -1.3935 -0.4083
  790MOL0     H 8961   4.436   8.029  10.757  0.5384 -0.3126  2.4875
  790MOL0     H 8962   4.447   8.186  10.833 -2.3027  2.0477 -1.7028
  790MOL0     H 8963   4.376   8.153  10.553 -0.5018 -0.3803 -0.4957
  790MOL0     H 8964   4.347   8.299  10.637 -0.6181 -2.0668 -1.3652
  790MOL0     H 8965   4.587   8.333  10.685 -2.5031 -0.1002  1.9106
  790MOL0     H 8966   4.549   8.312  10.516 -0.2643 -1.5416 -0.2179
  790MOL0     H 8967   4.648   8.096  10.712  0.6229 -0.6309 -0.1670
  790MOL0     H 8968   4.629   8.072  10.539  1.3644  0.1126 -0.4984
  790MOL0     H 8969   4.770   8.256  10.376 -0.8458 -0.5634  1.9927
  790MOL0     H 8970   5.150   8.248  10.387 -0.4963 -1.9092  2.1677
  790MOL0     H 8971   5.030   8.347  10.310  2.5582  1.8485  1.2437
  790MOL0     H 8972   5.077   8.045  10.268 -1.7476 -1.6657 -0.4648
  790MOL0     H 8973   4.944   8.123  10.200 -0.0473 -1.3851  0.9320
  790MOL0     H 8974   5.235   8.211  10.137  0.3410 -2.3135 -3.3095
  790MOL0     H 8975   5.129   8.116  10.041  0.8131 -1.2922  1.4971
  790MOL0     H 8976   5.079   8.407  10.106  0.9271 -0.6758 -0.0254
  790MOL0     H 8977   5.131   8.334   9.959 -0.1374 -0.3119 -1.1088
  790MOL0     H 8978   4.801   8.475  10.171  0.1228 -0.0928 -0.6400
  790MOL0     H 8979   4.610   8.615  10.187  0.0600 -1.1473 -0.0303
  790MOL0     H 8980   4.540   8.668  10.036  0.1814  1.0102 -0.4644
  790MOL0     H 8981   4.649   8.775  10.103 -0.8797 -0.0867 -2.7496
  790MOL0     H 8982   4.419   8.858   9.618 -2.2081  0.1879 -3.9755
  790MOL0     H 8983   4.405   9.030   9.466 -0.0469  0.6693  1.5844
  790MOL0     H 8984   4.485   9.235   9.375 -0.6484  0.7261 -1.7678
  790MOL0     H 8985   4.650   9.252   9.437 -2.4758  1.3557  2.0493
  790MOL0     H 8986   4.725   9.335   9.232 -0.3563  0.6197 -0.5125
  790MOL0     H 8987   4.559   9.316   9.165  1.9264  0.8573 -0.8917
  790MOL0     H 8988   4.662   9.490   9.390  0.6313  0.2203 -0.2295
  790MOL0     H 8989   4.484   9.462   9.358 -0.7899  3.1907 -1.4415
  790MOL0     H 8990   4.600   9.685   9.293 -2.3108  2.4334 -1.3895
  790MOL0     H 8991   4.497   9.611   9.168 -0.5314 -2.2054  0.1275
  790MOL0     H 8992   4.807   9.597   9.182  1.6804 -0.5855 -2.1670
  790MOL0     H 8993   4.708   9.534   9.059  2.3553 -0.3953  0.7402
  790MOL0     H 8994   4.740   9.822   9.140  0.3554 -1.6875  3.1340
  790MOL0     H 8995   4.602   9.774   9.032 -1.3145 -5.6695 -2.5740
  790MOL0     H 8996   4.788   9.665   8.895 -1.3864 -1.2704  0.4723
  790MOL0     H 8997   4.895   9.758   9.000  0.8733 -0.5480 -1.0325
  790MOL0     H 8998   4.674   9.893   8.849 -0.9284 -2.6529  2.8146
  790MOL0     H 8999   4.829   9.871   8.766  0.6321  0.1912 -0.1051
  790MOL0     H 9000   4.833   8.957   9.382 -0.4600 -0.0794 -2.9525
  790MOL0     H 9001   4.818   8.764   9.533  0.1034  0.2921 -1.2162
  790MOL0     H 9002   4.803   8.534   9.674  2.4562  1.9089  0.0602
  790MOL0     H 9003   4.889   8.327   9.779  2.5625  0.5712  1.2302
  790MOL0     H 9004   3.821   7.982  10.975 -1.3573  1.4648 -2.8457
  790MOL0     H 9005   3.848   8.001  11.220 -0.0084 -0.2459 -0.7602
  790MOL0     H 9006   3.898   8.509  11.631 -2.8690 -2.5933  0.8689
  790MOL0     H 9007   3.970   8.485  11.857  0.7865  0.9818 -1.6124
  790MOL0     H 9008   4.247   8.139  11.972 -0.0642  1.8940 -0.6104
  790MOL0     H 9009   4.215   8.227  12.117  0.8031  1.0044  0.0152
  790MOL0     H 9010   4.129   8.014  12.139  2.9400  1.5957 -0.3234
  790MOL0     H 9011   4.020   8.029  11.997  0.7189 -1.8080  1.3993
  790MOL0     H 9012   3.988   8.222  12.219 -3.2140  0.0303  3.1050
  790MOL0     H 9013   3.876   8.188  12.091 -1.4015  1.5940  2.6306
  790MOL0     H 9014   3.946   7.975  12.304  0.7246  2.3811  2.8377
  790MOL0     H 9015   3.824   7.969  12.171  0.7073  0.9354 -1.4842
  790MOL0     H 9016   3.552   8.214  12.501  1.2805  1.4335  0.1075
  790MOL0     H 9017   4.130   8.101  11.779 -2.5781 -2.1750  0.8675
  790MOL0     H 9018   4.024   8.038  11.468 -1.3955 -0.8147  1.4500
  790MOL0     H 9019   4.163   8.149  11.429  1.2701  2.1741  1.9165
  790MOL0     H 9020   4.170   8.036  11.563 -0.3361 -0.5783  0.0599
  791MOL0     O 9021   9.951   4.045   4.619  0.1050  0.7283 -0.4694
  791MOL0     C 9022   9.993   3.929   4.599 -0.3701 -0.4959  0.3502
  791MOL0     O 9023  10.084   3.866   4.674 -0.7846  0.1390 -0.6041
  791MOL0     C 9024  10.151   3.954   4.755  0.2357 -0.0563  0.6062
  791MOL0     C 9025  10.256   4.031   4.706  0.1517 -0.1681 -0.3941
  791MOL0     C 9026  10.320   4.126   4.787  0.2522 -0.6264 -1.0979
  791MOL0     C 9027  10.264   4.148   4.924  0.0589 -1.1795  0.8026
  791MOL0     O 9028  10.320   4.242   5.015 -0.2431  0.2586  0.9724
  791MOL0     C 9029  10.424   4.325   4.966 -0.4160 -1.0810 -0.5037
  791MOL0     C 9030  10.489   4.383   5.085 -0.1069 -0.2293  1.0970
  791MOL0     C 9031  10.586   4.485   5.049  0.4303  0.0936  0.2647
  791MOL0     C 9032  10.531   4.628   5.076  0.0981 -0.2019 -0.3916
  791MOL0     C 9033  10.653   4.729   5.075 -0.1807  0.4071  0.3220
  791MOL0     C 9034  10.616   4.867   5.024  0.2137  1.1788  0.4266
  791MOL0     C 9035  10.668   4.970   5.127  0.0677 -0.2292 -0.1839
  791MOL0     C 9036  10.595   4.974   5.262  0.2718 -0.0674 -0.1685
  791MOL0     N 9037  10.643   5.044   5.380 -0.7021 -0.1949  0.8570
  791MOL0     C 9038  10.780   5.044   5.425 -0.0974  0.5086 -0.1263
  791MOL0     C 9039  10.793   5.130   5.526  0.2037 -0.2243  0.3991
  791MOL0     C 9040  10.914   5.163   5.599 -0.3609 -0.1376  0.1570
  791MOL0     C 9041  11.010   5.045   5.614  0.4759  0.3658 -0.0197
  791MOL0     C 9042  11.142   5.079   5.680  0.2939 -0.4062  0.0775
  791MOL0     C 9043  11.254   4.991   5.627  0.5299 -1.3897  0.5575
  791MOL0     O 9044  11.348   4.992   5.728  0.1447 -0.3150  0.0291
  791MOL0     C 9045  11.470   5.050   5.702 -0.8362 -1.0014 -0.8175
  791MOL0     C 9046  11.557   5.039   5.811  0.2042 -0.8577  0.3210
  791MOL0     C 9047  11.692   5.087   5.799  0.0589 -0.3900  0.3515
  791MOL0     C 9048  11.783   5.065   5.929 -0.3260 -0.0633  0.1541
  791MOL0     C 9049  11.737   5.151   5.681 -0.1914 -0.8552  0.2020
  791MOL0     C 9050  11.877   5.211   5.654  0.1483 -0.1833 -0.3925
  791MOL0     O 9051  11.933   5.270   5.762 -0.4158  0.0951 -0.1083
  791MOL0     C 9052  12.062   5.330   5.774 -0.1427  0.3356 -0.5546
  791MOL0     C 9053  12.092   5.381   5.897  0.5889  0.2768 -0.1499
  791MOL0     C 9054  12.218   5.445   5.915  0.4582  0.3766 -0.4489
  791MOL0     C 9055  12.317   5.454   5.824 -0.3577 -0.1861  0.0270
  791MOL0     O 9056  12.427   5.535   5.855 -0.4771  0.1108 -0.8256
  791MOL0     C 9057  12.505   5.592   5.747 -0.2429 -0.4471 -1.2315
  791MOL0     C 9058  12.641   5.612   5.817  0.3381 -0.1299  0.4770
  791MOL0     C 9059  12.711   5.475   5.863 -0.5495  0.5248  0.0490
  791MOL0     C 9060  12.734   5.371   5.758  0.1408  0.6266  0.4652
  791MOL0     C 9061  12.791   5.238   5.817 -0.0865 -0.5561 -0.5508
  791MOL0     C 9062  12.708   5.188   5.937  0.5525 -0.0028 -0.5832
  791MOL0     C 9063  12.740   5.036   5.983 -0.6507 -0.6453 -0.1786
  791MOL0     C 9064  12.896   5.026   6.030  0.5124  0.2749  0.8911
  791MOL0    Cl 9065  12.923   4.871   6.113 -0.1742 -0.3374 -0.1144
  791MOL0     C 9066  12.283   5.388   5.701 -0.8479 -0.2101  0.5888
  791MOL0     C 9067  12.158   5.330   5.672  0.0787 -0.0834 -0.5462
  791MOL0     O 9068  11.920   5.204   5.538  0.3996 -0.5183 -0.4908
  791MOL0     C 9069  11.642   5.163   5.574 -1.0316 -0.1899  0.3537
  791MOL0     C 9070  11.514   5.119   5.582 -0.8067  0.6947 -0.8174
  791MOL0     N 9071  10.662   5.186   5.544 -0.0765  0.0168  0.7860
  791MOL0     N 9072  10.577   5.139   5.453  0.0377 -0.6862 -0.4270
  791MOL0     C 9073  10.155   4.075   4.967 -0.3415 -0.1150  0.4626
  791MOL0     C 9074  10.108   3.972   4.891 -0.8391  1.0116  0.6509
  791MOL0     C 9075   9.938   3.850   4.492  0.4381 -0.2594 -0.0389
  791MOL0     C 9076   9.984   3.715   4.484 -0.6649 -0.1252  0.4546
  791MOL0     C 9077   9.926   3.628   4.403  0.4845  0.6353 -0.3134
  791MOL0     C 9078   9.828   3.668   4.307 -1.2729  0.1529 -0.9578
  791MOL0     O 9079   9.785   3.585   4.210 -0.6601 -0.7179 -0.4547
  791MOL0     C 9080   9.776   3.444   4.242  0.2804  0.3325  0.0364
  791MOL0     C 9081   9.896   3.372   4.185  0.4972  0.5498 -0.8802
  791MOL0     C 9082   9.925   3.383   4.035 -1.2805  0.4901 -0.3111
  791MOL0     C 9083   9.808   3.379   3.944  0.4390  1.0144  0.1004
  791MOL0     C 9084   9.743   3.251   3.925 -0.1882  0.6135 -0.1018
  791MOL0     C 9085   9.684   3.154   3.893 -1.0570  0.2903 -0.0235
  791MOL0     C 9086   9.790   3.803   4.310  0.4855  0.6688  0.0716
  791MOL0     C 9087   9.828   3.892   4.404  0.2536 -0.7471  0.0728
  791MOL0     C 9088   9.771   4.031   4.403  0.1239 -0.4234 -1.0372
  791MOL0     H 9089  10.272   4.027   4.599 -0.7404 -2.3375 -0.5086
  791MOL0     H 9090  10.397   4.190   4.746  1.2038 -2.2138 -1.9142
  791MOL0     H 9091  10.380   4.411   4.915  2.6225  0.1508 -1.2306
  791MOL0     H 9092  10.501   4.269   4.913  0.3685 -1.6288  1.1459
  791MOL0     H 9093  10.409   4.427   5.147 -0.8481  1.5840 -1.0101
  791MOL0     H 9094  10.544   4.301   5.131 -0.1140 -1.6498 -1.2919
  791MOL0     H 9095  10.681   4.479   5.102 -0.5161  2.0404  2.3719
  791MOL0     H 9096  10.609   4.481   4.942  0.2240  2.0215  0.1018
  791MOL0     H 9097  10.460   4.659   4.999  0.3940  0.7271 -0.2962
  791MOL0     H 9098  10.484   4.638   5.174 -1.5358  0.1668 -1.1819
  791MOL0     H 9099  10.740   4.702   5.014 -1.2730 -1.9092 -0.3237
  791MOL0     H 9100  10.687   4.727   5.180  1.2841  2.9131 -0.0279
  791MOL0     H 9101  10.646   4.885   4.920  1.7315 -2.0324  0.1995
  791MOL0     H 9102  10.508   4.877   5.032  0.0414  0.7232 -1.0466
  791MOL0     H 9103  10.652   5.069   5.083  1.6490  0.2350  0.2170
  791MOL0     H 9104  10.776   4.968   5.142  0.1393  1.5290 -0.2613
  791MOL0     H 9105  10.496   5.007   5.228  1.4841 -0.2299 -4.4632
  791MOL0     H 9106  10.585   4.872   5.298  3.0858 -0.0579  0.8870
  791MOL0     H 9107  10.847   4.976   5.374  1.5939  3.0951 -1.5807
  791MOL0     H 9108  10.875   5.200   5.695 -3.8066 -0.0053 -1.1599
  791MOL0     H 9109  10.974   5.244   5.557  3.2546 -1.4502  2.2993
  791MOL0     H 9110  10.971   4.961   5.673 -1.8614  1.2227 -0.2380
  791MOL0     H 9111  11.037   5.004   5.516  1.1849  2.5982 -0.8111
  791MOL0     H 9112  11.185   5.176   5.655  0.9033 -0.3657  1.2245
  791MOL0     H 9113  11.127   5.060   5.786  0.3649 -4.2389 -0.4433
  791MOL0     H 9114  11.219   4.888   5.614 -0.1066 -0.9787 -1.3836
  791MOL0     H 9115  11.296   5.010   5.528 -1.5566 -0.1704 -0.1463
  791MOL0     H 9116  11.524   4.995   5.905  4.7097  0.6353  2.9345
  791MOL0     H 9117  11.878   5.021   5.896 -0.3634  1.7824 -2.8190
  791MOL0     H 9118  11.744   4.994   6.002  1.8614 -2.6682 -0.9923
  791MOL0     H 9119  11.814   5.154   5.983 -0.9235 -0.1532  0.6477
  791MOL0     H 9120  12.018   5.378   5.975  0.2272 -5.7600 -0.2614
  791MOL0     H 9121  12.232   5.479   6.017 -2.9030  0.8207 -0.0339
  791MOL0     H 9122  12.527   5.528   5.661  2.3489 -0.7345 -0.4403
  791MOL0     H 9123  12.455   5.682   5.711 -0.4429  0.3872  0.9789
  791MOL0     H 9124  12.702   5.665   5.744 -2.4734  0.1463 -1.8428
  791MOL0     H 9125  12.627   5.681   5.901 -1.5703  0.5065 -0.3190
  791MOL0     H 9126  12.667   5.441   5.957  3.4265  0.2805  2.0334
  791MOL0     H 9127  12.809   5.499   5.905 -0.1907 -0.1792 -0.3510
  791MOL0     H 9128  12.796   5.402   5.673 -0.6637  1.8806  0.3126
  791MOL0     H 9129  12.634   5.351   5.719 -0.1041 -0.1185  1.4284
  791MOL0     H 9130  12.781   5.157   5.744 -0.8478  0.9151 -2.1616
  791MOL0     H 9131  12.899   5.246   5.833  0.7621 -1.8665 -4.5397
  791MOL0     H 9132  12.602   5.197   5.915  0.3124  0.1342  0.5452
  791MOL0     H 9133  12.729   5.245   6.029  2.0830 -0.3548 -0.6898
  791MOL0     H 9134  12.726   4.962   5.903 -1.2463  1.6875 -2.3743
  791MOL0     H 9135  12.667   5.014   6.061 -2.2995 -0.7981 -1.6954
  791MOL0     H 9136  12.920   5.103   6.104  1.9368  0.3541  0.3703
  791MOL0     H 9137  12.967   5.034   5.948 -0.7090 -0.7856 -0.3137
  791MOL0     H 9138  12.352   5.409   5.619  0.5499  2.0663  2.2480
  791MOL0     H 9139  12.130   5.298   5.573 -0.9307  1.7368 -0.9028
  791MOL0     H 9140  11.669   5.223   5.488  1.4945  1.1144  1.9396
  791MOL0     H 9141  11.460   5.142   5.491  0.4464  3.8137 -0.8781
  791MOL0     H 9142  10.132   4.101   5.070 -0.4650  0.6777  0.2434
  791MOL0     H 9143  10.027   3.911   4.929  0.3342  0.1410  1.8090
  791MOL0     H 9144  10.068   3.693   4.550  0.8715  0.4738 -1.2279
  791MOL0     H 9145   9.953   3.523   4.406 -3.2943 -0.4892  0.1281
  791MOL0     H 9146   9.756   3.424   4.348 -2.4772 -4.9334 -1.1378
  791MOL0     H 9147   9.691   3.385   4.208  0.6810  0.1846 -0.7172
  791MOL0     H 9148   9.879   3.266   4.208 -0.1017  0.7859 -0.1852
  791MOL0     H 9149   9.988   3.395   4.239 -0.5265  0.8591  0.7953
  791MOL0     H 9150   9.997   3.465   4.039  1.0471 -1.3986 -1.0240
  791MOL0     H 9151   9.996   3.303   4.013  0.5309  0.9667  3.1872
  791MOL0     H 9152   9.849   3.399   3.845 -3.7188  3.8075 -1.3198
  791MOL0     H 9153   9.734   3.457   3.964 -1.2519 -0.5217  0.1090
  791MOL0     H 9154   9.616   3.074   3.871 -2.6600  1.6897 -0.3429
  791MOL0     H 9155   9.727   3.835   4.228 -1.3844 -2.2430  0.2176
  791MOL0     H 9156   9.691   4.044   4.329 -0.4018  0.7026 -0.3003
  791MOL0     H 9157   9.734   4.060   4.502  4.0496 -2.7433  1.3525
  791MOL0     H 9158   9.854   4.099   4.380  0.8001 -0.4363  1.1885
  792MOL0     O 9159   7.262   4.822   0.818 -0.5587  0.0638 -0.1760
  792MOL0     C 9160   7.360   4.757   0.853 -0.1269 -0.6656 -0.3873
  792MOL0     O 9161   7.485   4.804   0.895 -0.0775 -0.4946 -0.0160
  792MOL0     C 9162   7.516   4.937   0.890 -0.2502  0.1710 -0.2981
  792MOL0     C 9163   7.565   4.992   1.009 -0.3799 -0.5838  0.0982
  792MOL0     C 9164   7.579   5.133   1.016  0.6992  0.3717  0.5674
  792MOL0     C 9165   7.562   5.217   0.894 -0.5868 -0.2053 -0.4928
  792MOL0     O 9166   7.592   5.348   0.872 -0.2759  0.7755 -0.5936
  792MOL0     C 9167   7.655   5.410   0.989 -0.3730 -0.0872 -0.0550
  792MOL0     C 9168   7.703   5.543   0.959 -0.2094 -0.1863  0.0508
  792MOL0     C 9169   7.595   5.624   0.884 -0.3806  0.6371 -0.5943
  792MOL0     C 9170   7.645   5.770   0.874  0.4818 -1.0944 -0.1113
  792MOL0     C 9171   7.544   5.868   0.809  0.6176  0.9095 -0.2322
  792MOL0     C 9172   7.552   6.010   0.860 -0.2496  0.3475  0.3272
  792MOL0     C 9173   7.683   6.080   0.815  0.5514  0.3625 -0.8575
  792MOL0     C 9174   7.684   6.229   0.869 -0.4643 -0.1756  0.6942
  792MOL0     N 9175   7.578   6.311   0.812 -0.3341 -0.6397  0.2193
  792MOL0     C 9176   7.587   6.368   0.681 -0.9128 -1.0083 -0.1833
  792MOL0     C 9177   7.484   6.464   0.686 -0.6545  0.2585  0.7970
  792MOL0     C 9178   7.434   6.558   0.577 -0.3323  0.1286  0.1366
  792MOL0     C 9179   7.455   6.513   0.428  0.4786 -0.7175 -0.4252
  792MOL0     C 9180   7.359   6.574   0.321  0.4845  0.1172  1.2247
  792MOL0     C 9181   7.366   6.732   0.335 -0.4199  1.3806 -0.0802
  792MOL0     O 9182   7.502   6.779   0.312 -0.3347  0.5281  0.2237
  792MOL0     C 9183   7.560   6.801   0.190  0.0827 -0.0816 -0.0511
  792MOL0     C 9184   7.677   6.877   0.182 -0.3765  0.0714 -0.7751
  792MOL0     C 9185   7.739   6.919   0.062 -0.7945  0.4058  0.1169
  792MOL0     C 9186   7.849   7.023   0.077  0.1265  0.5306 -0.0935
  792MOL0     C 9187   7.668   6.889  -0.060  0.0717  0.6241 -0.1717
  792MOL0     C 9188   7.726   6.910  -0.195 -0.3893 -1.0459 -0.1354
  792MOL0     O 9189   7.858   6.933  -0.197  0.0474  0.9256  0.6070
  792MOL0     C 9190   7.925   6.954  -0.318  0.1664  0.4436 -0.4800
  792MOL0     C 9191   7.931   6.842  -0.408  1.2089  0.5069  0.9478
  792MOL0     C 9192   8.021   6.864  -0.507 -0.2822  0.4956  0.8686
  792MOL0     C 9193   8.086   6.989  -0.540  0.4744 -0.3861 -0.0726
  792MOL0     O 9194   8.156   6.999  -0.655  0.0457  0.0884  0.4687
  792MOL0     C 9195   8.138   7.120  -0.725 -0.1514 -1.1735 -1.0419
  792MOL0     C 9196   8.207   7.131  -0.856  0.4024 -0.0926  0.9820
  792MOL0     C 9197   8.355   7.137  -0.845 -0.8929  0.2851  1.2731
  792MOL0     C 9198   8.398   7.280  -0.801 -0.1825  0.3355  0.4182
  792MOL0     C 9199   8.545   7.303  -0.855 -0.2108  0.3060 -0.4160
  792MOL0     C 9200   8.616   7.435  -0.815  0.0633 -0.1826  0.4127
  792MOL0     C 9201   8.765   7.427  -0.827 -1.3735  0.9559  0.1571
  792MOL0     C 9202   8.828   7.569  -0.822 -0.3094 -0.3659  0.0219
  792MOL0    Cl 9203   8.788   7.664  -0.957 -0.0209 -0.3814 -0.1693
  792MOL0     C 9204   8.061   7.096  -0.449  0.6085  0.3945 -1.3319
  792MOL0     C 9205   7.990   7.074  -0.325  0.0379  0.0189  0.3415
  792MOL0     O 9206   7.651   6.904  -0.298 -0.2561 -0.3938  0.2359
  792MOL0     C 9207   7.548   6.817  -0.046  0.1778  0.3917  0.4924
  792MOL0     C 9208   7.486   6.793   0.073 -0.5365  0.6456 -0.4219
  792MOL0     N 9209   7.427   6.460   0.803  0.4275  0.1173  0.5646
  792MOL0     N 9210   7.485   6.367   0.879 -0.8337 -0.5792 -0.9559
  792MOL0     C 9211   7.505   5.159   0.783  1.1116 -0.5567  0.6182
  792MOL0     C 9212   7.485   5.016   0.784  0.6902 -1.3047  0.7219
  792MOL0     C 9213   7.336   4.611   0.874  0.1236 -0.4343 -0.2621
  792MOL0     C 9214   7.434   4.530   0.941 -0.2926 -0.4861  0.1248
  792MOL0     C 9215   7.412   4.395   0.959  0.0010  0.0803 -0.0190
  792MOL0     C 9216   7.298   4.332   0.908  0.1055  0.0078 -1.2160
  792MOL0     O 9217   7.261   4.200   0.911 -0.6216 -0.0947  0.1270
  792MOL0     C 9218   7.366   4.097   0.912  0.4702 -0.7720 -0.4747
  792MOL0     C 9219   7.431   4.091   0.780  0.2797  1.5587  1.2834
  792MOL0     C 9220   7.347   4.074   0.659  0.6191 -0.8176  0.7127
  792MOL0     C 9221   7.274   3.941   0.655  0.2173  1.0112 -0.1204
  792MOL0     C 9222   7.232   3.906   0.519  0.8313  0.5737  0.3134
  792MOL0     C 9223   7.204   3.880   0.411 -0.9582  0.8832  1.0791
  792MOL0     C 9224   7.203   4.409   0.848 -0.7909 -0.3003  0.2695
  792MOL0     C 9225   7.212   4.546   0.827 -0.2892  1.0101 -0.1811
  792MOL0     C 9226   7.109   4.618   0.736 -0.4479 -0.6624  0.1288
  792MOL0     H 9227   7.577   4.925   1.094 -0.3608  1.5423  1.8393
  792MOL0     H 9228   7.625   5.176   1.105 -0.0907  0.5960  0.8723
  792MOL0     H 9229   7.751   5.364   1.015  0.6416  2.0450  0.1997
  792MOL0     H 9230   7.593   5.414   1.079  2.2356  1.0514  1.8083
  792MOL0     H 9231   7.736   5.593   1.051  1.9976 -1.6331  0.1418
  792MOL0     H 9232   7.786   5.532   0.888  1.5170  0.6162  1.8574
  792MOL0     H 9233   7.571   5.594   0.781  1.1825  3.1570 -1.8029
  792MOL0     H 9234   7.509   5.631   0.950  1.6282 -1.6186  2.5458
  792MOL0     H 9235   7.656   5.813   0.974  0.7621 -0.8168 -0.2589
  792MOL0     H 9236   7.743   5.769   0.825  0.1956 -1.5492 -0.6975
  792MOL0     H 9237   7.446   5.829   0.838  0.6797 -0.0892 -1.3064
  792MOL0     H 9238   7.556   5.870   0.701  2.2031  1.4399 -0.0862
  792MOL0     H 9239   7.460   6.054   0.819 -1.5557 -2.9205 -0.6072
  792MOL0     H 9240   7.538   6.011   0.969 -1.8962 -0.6375  0.1675
  792MOL0     H 9241   7.684   6.082   0.706  0.4093 -3.3707 -1.0554
  792MOL0     H 9242   7.772   6.030   0.855  0.8319  1.5449  0.0575
  792MOL0     H 9243   7.699   6.238   0.977 -0.7597 -2.1139  0.9317
  792MOL0     H 9244   7.780   6.269   0.835  0.9501 -1.4839  2.8736
  792MOL0     H 9245   7.660   6.331   0.609 -1.0146  0.9483 -1.3687
  792MOL0     H 9246   7.461   6.662   0.596 -0.8605  0.3632 -0.3677
  792MOL0     H 9247   7.326   6.570   0.593  0.0091  0.3983  2.6358
  792MOL0     H 9248   7.561   6.529   0.405  0.5952  1.5361  1.3054
  792MOL0     H 9249   7.453   6.404   0.426  2.6636 -0.8593 -4.2001
  792MOL0     H 9250   7.379   6.547   0.216 -0.6003  0.9224  0.7887
  792MOL0     H 9251   7.254   6.547   0.335  0.7971 -2.3274 -0.3717
  792MOL0     H 9252   7.293   6.781   0.271 -1.3597 -0.9966 -0.9255
  792MOL0     H 9253   7.322   6.756   0.432 -0.0531  1.6560  0.0223
  792MOL0     H 9254   7.711   6.920   0.276  1.1472  1.8269 -2.0527
  792MOL0     H 9255   7.879   7.041   0.181 -0.2520 -1.3528  0.3776
  792MOL0     H 9256   7.823   7.122   0.039 -0.8198  0.1395 -0.5102
  792MOL0     H 9257   7.937   6.990   0.022  0.2303 -1.4347  1.1463
  792MOL0     H 9258   7.881   6.749  -0.386  2.9103 -0.8317 -0.5422
  792MOL0     H 9259   8.057   6.776  -0.558 -2.3095  1.0394 -1.6813
  792MOL0     H 9260   8.036   7.153  -0.749  0.1638  0.2567 -0.5006
  792MOL0     H 9261   8.175   7.204  -0.666  3.4068 -3.3343  0.1001
  792MOL0     H 9262   8.182   7.036  -0.904 -1.0850 -1.0890  3.5483
  792MOL0     H 9263   8.168   7.205  -0.926  0.1094 -1.0935  0.0645
  792MOL0     H 9264   8.384   7.115  -0.948 -1.0876 -0.0881  1.2951
  792MOL0     H 9265   8.402   7.059  -0.784  1.1991  2.4974  2.6703
  792MOL0     H 9266   8.391   7.303  -0.695 -1.4580  0.4477  0.3280
  792MOL0     H 9267   8.338   7.359  -0.846 -0.3250  1.1350  1.9435
  792MOL0     H 9268   8.602   7.211  -0.844 -1.8958 -1.1006 -2.5546
  792MOL0     H 9269   8.545   7.313  -0.964  1.2628  1.0254 -0.3720
  792MOL0     H 9270   8.581   7.442  -0.711 -2.4202 -2.5646 -0.1486
  792MOL0     H 9271   8.577   7.517  -0.876  0.7447  0.2696  0.5644
  792MOL0     H 9272   8.795   7.374  -0.917 -2.3893 -0.0005  0.3576
  792MOL0     H 9273   8.807   7.368  -0.745 -3.7747  0.8723  1.4300
  792MOL0     H 9274   8.936   7.582  -0.818 -0.6649  3.8402  0.7229
  792MOL0     H 9275   8.785   7.615  -0.732 -2.7810 -0.2543 -1.1128
  792MOL0     H 9276   8.116   7.189  -0.460  3.4051 -0.4679  3.0518
  792MOL0     H 9277   7.988   7.142  -0.241 -0.2336  1.2437 -0.6200
  792MOL0     H 9278   7.504   6.780  -0.138  1.8653  0.3526 -0.3507
  792MOL0     H 9279   7.396   6.733   0.067  1.5808 -3.0952  1.6254
  792MOL0     H 9280   7.491   5.223   0.696  1.7043  0.6326  1.3679
  792MOL0     H 9281   7.434   4.979   0.696  0.4110 -0.5909  0.5759
  792MOL0     H 9282   7.531   4.569   0.971 -1.6323  3.8547 -0.5100
  792MOL0     H 9283   7.482   4.329   1.009  1.7018  0.8754 -1.2093
  792MOL0     H 9284   7.450   4.120   0.977 -0.4699 -1.4996  1.0598
  792MOL0     H 9285   7.325   4.001   0.946 -1.2188  0.5383  1.3624
  792MOL0     H 9286   7.495   4.003   0.793 -2.4337 -1.5527 -3.5022
  792MOL0     H 9287   7.499   4.175   0.760  0.5386  0.6267 -2.4299
  792MOL0     H 9288   7.285   4.164   0.649  0.5269 -0.7735  1.5958
  792MOL0     H 9289   7.411   4.065   0.570 -2.0318 -1.0310 -1.2908
  792MOL0     H 9290   7.190   3.941   0.726  0.2642 -1.7793  0.0475
  792MOL0     H 9291   7.347   3.868   0.690 -1.8194 -1.8022 -1.3466
  792MOL0     H 9292   7.177   3.867   0.308 -0.8721  2.9415  0.7559
  792MOL0     H 9293   7.112   4.365   0.807 -1.1178  0.5741  0.0269
  792MOL0     H 9294   7.043   4.684   0.792  2.4408 -0.4718  3.6464
  792MOL0     H 9295   7.152   4.666   0.647  1.2706  0.3613  1.4485
  792MOL0     H 9296   7.048   4.536   0.698 -1.8673  0.4924 -0.1561
  793MOL0     O 9297   9.337  11.108   0.190 -0.1796  0.2088  1.3448
  793MOL0     C 9298   9.348  10.992   0.226 -1.0127 -0.4993  0.0486
  793MOL0     O 9299   9.283  10.937   0.332  0.0534 -0.5666 -0.2014
  793MOL0     C 9300   9.158  10.978   0.367 -0.2334  0.4815  0.1126
  793MOL0     C 9301   9.143  11.075   0.469 -0.0935  0.2649 -0.9759
  793MOL0     C 9302   9.010  11.108   0.515 -0.5803  0.4259  0.3635
  793MOL0     C 9303   8.905  11.060   0.442  0.1529  0.3569  0.2802
  793MOL0     O 9304   8.774  11.094   0.465  0.7683 -0.5717 -0.3146
  793MOL0     C 9305   8.733  11.143   0.597  0.4654  0.8847 -0.6847
  793MOL0     C 9306   8.753  11.035   0.700  0.3994 -1.0065 -0.6315
  793MOL0     C 9307   8.734  11.092   0.844 -0.3859 -0.9999  0.1840
  793MOL0     C 9308   8.837  11.200   0.880 -0.1199  0.2885  0.5276
  793MOL0     C 9309   8.833  11.215   1.029 -0.0387 -0.2180  0.0916
  793MOL0     C 9310   8.957  11.302   1.083 -1.2542 -0.0529  0.7933
  793MOL0     C 9311   8.924  11.381   1.205 -0.3792  1.0942 -0.0407
  793MOL0     C 9312   8.860  11.307   1.329 -0.5805 -0.1235  0.0067
  793MOL0     N 9313   8.949  11.192   1.377  0.5751  0.1872 -0.2236
  793MOL0     C 9314   9.047  11.218   1.464 -0.3991  0.7795 -0.2490
  793MOL0     C 9315   9.097  11.099   1.496  0.9950 -0.3000  0.0951
  793MOL0     C 9316   9.215  11.075   1.592 -0.2886 -0.5763  0.0159
  793MOL0     C 9317   9.156  10.987   1.702  0.5031  0.2896  1.0206
  793MOL0     C 9318   9.272  10.942   1.801  0.3880  0.2277 -0.4849
  793MOL0     C 9319   9.218  10.880   1.928  0.7141 -0.2780  1.4230
  793MOL0     O 9320   9.294  10.908   2.041  0.7706 -0.1864 -0.4913
  793MOL0     C 9321   9.259  10.824   2.146 -0.6758 -0.0069 -0.6125
  793MOL0     C 9322   9.338  10.835   2.261 -0.9276 -0.1452  0.3703
  793MOL0     C 9323   9.308  10.772   2.390  0.4190 -0.8160  0.6787
  793MOL0     C 9324   9.408  10.794   2.508 -0.1530  0.3513  0.9867
  793MOL0     C 9325   9.181  10.704   2.403 -0.4961  0.3343 -0.1995
  793MOL0     C 9326   9.130  10.639   2.529 -0.7459  0.7016 -0.5632
  793MOL0     O 9327   9.026  10.543   2.518 -1.3880  0.0116  0.8725
  793MOL0     C 9328   8.969  10.500   2.637  0.7057 -0.4221 -0.2930
  793MOL0     C 9329   8.988  10.373   2.676  0.7985  0.3340 -0.4760
  793MOL0     C 9330   8.923  10.317   2.783  0.2445 -0.7472  0.6121
  793MOL0     C 9331   8.832  10.398   2.854  0.7272 -0.1564  0.9353
  793MOL0     O 9332   8.769  10.347   2.966 -0.3172  1.0562 -0.4231
  793MOL0     C 9333   8.630  10.365   2.977 -0.0971  1.1646 -0.7820
  793MOL0     C 9334   8.596  10.456   3.100  0.9268  0.2107 -0.2342
  793MOL0     C 9335   8.457  10.410   3.148 -0.2727  0.2242  0.0500
  793MOL0     C 9336   8.336  10.414   3.054  0.1866 -0.1453  0.0674
  793MOL0     C 9337   8.217  10.399   3.142  0.9326  0.1545  0.1166
  793MOL0     C 9338   8.090  10.447   3.071 -1.1035  0.3523 -0.2896
  793MOL0     C 9339   8.080  10.607   3.069  0.6933  0.7297 -0.0748
  793MOL0     C 9340   7.984  10.661   2.964  0.5682 -0.3001  0.0768
  793MOL0    Cl 9341   8.019  10.838   2.932  0.0786 -0.0826  0.1581
  793MOL0     C 9342   8.811  10.535   2.818 -0.2549  1.3320 -0.5139
  793MOL0     C 9343   8.886  10.584   2.713  0.2818  0.4999  0.7767
  793MOL0     O 9344   9.179  10.678   2.632 -0.7121  0.1174 -0.0516
  793MOL0     C 9345   9.124  10.671   2.278  0.6226 -0.5264  1.3012
  793MOL0     C 9346   9.161  10.730   2.158 -0.5760  0.2105  0.1651
  793MOL0     N 9347   9.047  11.007   1.408 -0.1294  0.3980  0.7781
  793MOL0     N 9348   8.953  11.062   1.340 -0.4519  0.6976  0.0565
  793MOL0     C 9349   8.927  10.970   0.345  0.2925  0.2783 -0.6602
  793MOL0     C 9350   9.047  10.924   0.303 -0.6420  0.7997  0.4260
  793MOL0     C 9351   9.456  10.911   0.158  0.0528  0.0655 -0.0001
  793MOL0     C 9352   9.547  10.970   0.067 -0.0688  0.8090  0.7557
  793MOL0     C 9353   9.645  10.890   0.007 -0.3303 -0.1650 -0.8695
  793MOL0     C 9354   9.655  10.753   0.028 -0.6251  0.0241  0.0505
  793MOL0     O 9355   9.764  10.690  -0.030 -0.2130 -0.8487  0.7506
  793MOL0     C 9356   9.753  10.544  -0.040 -0.9181  0.0523 -0.3541
  793MOL0     C 9357   9.895  10.496  -0.089  0.0710  0.4762 -0.0765
  793MOL0     C 9358   9.914  10.541  -0.239 -0.4470 -0.7423 -0.6187
  793MOL0     C 9359   9.996  10.444  -0.335 -0.1339 -0.4483  0.2822
  793MOL0     C 9360   9.979  10.492  -0.474 -0.0700  0.5856 -0.3520
  793MOL0     C 9361   9.954  10.521  -0.590  0.5319 -0.6495  0.1017
  793MOL0     C 9362   9.557  10.688   0.109 -0.1966  0.5995  0.4158
  793MOL0     C 9363   9.473  10.768   0.177  0.9428 -0.1122  0.1605
  793MOL0     C 9364   9.371  10.689   0.262  0.0913 -0.1395 -0.3695
  793MOL0     H 9365   9.229  11.116   0.521 -0.0336 -1.3574  0.3049
  793MOL0     H 9366   8.996  11.168   0.604  2.4694 -0.1914  1.3722
  793MOL0     H 9367   8.630  11.169   0.574  0.6446  3.4343  1.0075
  793MOL0     H 9368   8.768  11.236   0.643  0.1256  0.9752 -0.6066
  793MOL0     H 9369   8.694  10.944   0.686 -1.8849  0.0584  1.2235
  793MOL0     H 9370   8.859  11.013   0.684  0.3132 -1.0156 -1.1834
  793MOL0     H 9371   8.639  11.141   0.866  1.0062  1.1000  1.9743
  793MOL0     H 9372   8.750  11.005   0.908 -0.3134 -1.8874 -0.9967
  793MOL0     H 9373   8.935  11.160   0.851  0.7766 -0.4087  4.0603
  793MOL0     H 9374   8.806  11.301   0.854  1.6089  1.9144  4.0956
  793MOL0     H 9375   8.839  11.123   1.089  0.9951  0.0641  0.4411
  793MOL0     H 9376   8.740  11.270   1.044  0.3291  1.1456 -2.1738
  793MOL0     H 9377   9.041  11.232   1.082 -1.2649 -0.3251 -3.9175
  793MOL0     H 9378   9.001  11.376   1.015 -0.1063  0.3866  1.9710
  793MOL0     H 9379   8.858  11.467   1.189 -0.1547  1.7001  1.9384
  793MOL0     H 9380   9.015  11.427   1.243 -0.6425  2.1056 -0.6193
  793MOL0     H 9381   8.843  11.390   1.399  0.7839 -1.8940  2.6042
  793MOL0     H 9382   8.764  11.261   1.303  0.5529 -3.1795  0.8252
  793MOL0     H 9383   9.073  11.311   1.514  3.9338 -0.4875  0.2889
  793MOL0     H 9384   9.249  11.170   1.633  1.1866  0.4221 -3.2071
  793MOL0     H 9385   9.283  11.008   1.538 -2.1220 -1.4117 -1.4181
  793MOL0     H 9386   9.080  11.055   1.740  0.1999  1.4179 -1.4119
  793MOL0     H 9387   9.104  10.896   1.670  1.9041 -0.1684 -0.0721
  793MOL0     H 9388   9.341  10.873   1.752  1.3712  0.3313  0.6975
  793MOL0     H 9389   9.332  11.030   1.826  0.0807  0.2301  0.2639
  793MOL0     H 9390   9.122  10.926   1.952  1.8602  3.3291 -0.1339
  793MOL0     H 9391   9.200  10.773   1.917  1.2225 -0.5919  3.2150
  793MOL0     H 9392   9.422  10.903   2.251 -2.6038  1.6382 -4.7089
  793MOL0     H 9393   9.362  10.857   2.585 -0.3552 -0.3245  1.4207
  793MOL0     H 9394   9.506  10.831   2.477 -0.2243 -1.2514 -1.4613
  793MOL0     H 9395   9.431  10.696   2.551  0.5183 -0.1311 -0.4061
  793MOL0     H 9396   9.045  10.300   2.620 -2.3095 -3.3362  0.7118
  793MOL0     H 9397   8.942  10.214   2.814 -2.1678 -1.0030  1.4865
  793MOL0     H 9398   8.591  10.404   2.883 -1.1676  3.3399  0.4675
  793MOL0     H 9399   8.579  10.269   2.992  2.0056  0.4427  3.0179
  793MOL0     H 9400   8.672  10.443   3.177  1.8626  1.5999 -0.8902
  793MOL0     H 9401   8.591  10.561   3.069  0.6212 -0.5286 -2.9158
  793MOL0     H 9402   8.429  10.471   3.235  1.4113  5.3939 -2.5926
  793MOL0     H 9403   8.457  10.303   3.171 -1.3293 -0.0356 -1.0368
  793MOL0     H 9404   8.350  10.340   2.975 -2.7374  3.7927 -4.7616
  793MOL0     H 9405   8.335  10.512   3.006 -2.4072 -0.3340 -0.4335
  793MOL0     H 9406   8.210  10.292   3.164  2.2149  0.0091 -0.0786
  793MOL0     H 9407   8.222  10.452   3.238  2.3712 -0.5859  0.4877
  793MOL0     H 9408   8.005  10.407   3.127 -0.1701 -0.3479  0.6367
  793MOL0     H 9409   8.072  10.395   2.976 -1.4539  0.5367 -0.3255
  793MOL0     H 9410   8.176  10.657   3.053  2.9531 -2.5179  2.1550
  793MOL0     H 9411   8.050  10.639   3.169 -0.5078  1.9904 -0.7971
  793MOL0     H 9412   7.881  10.651   2.999 -0.6531  1.4043 -2.6343
  793MOL0     H 9413   8.001  10.602   2.873  1.9726  0.3462 -0.1114
  793MOL0     H 9414   8.757  10.609   2.875  0.2597  1.1538  0.2267
  793MOL0     H 9415   8.857  10.686   2.688  1.0442  1.0397  2.0125
  793MOL0     H 9416   9.038  10.606   2.271  0.7475 -0.5666 -0.6842
  793MOL0     H 9417   9.091  10.694   2.083  0.7677  1.2502 -1.6967
  793MOL0     H 9418   8.838  10.932   0.297  0.0270 -1.7716  1.3365
  793MOL0     H 9419   9.064  10.855   0.220 -0.3973 -0.6713  1.6487
  793MOL0     H 9420   9.548  11.074   0.038  0.3155  0.4112 -0.7200
  793MOL0     H 9421   9.722  10.936  -0.054 -1.3777  1.6765 -0.8684
  793MOL0     H 9422   9.731  10.495   0.055 -1.6250 -1.5225 -1.2808
  793MOL0     H 9423   9.673  10.510  -0.107  0.1061 -2.8959 -0.2346
  793MOL0     H 9424   9.895  10.387  -0.102 -2.0187  0.3702  0.6211
  793MOL0     H 9425   9.987  10.526  -0.037  1.2304 -2.5035 -0.2008
  793MOL0     H 9426   9.814  10.522  -0.279 -0.3406 -3.8398  0.3643
  793MOL0     H 9427   9.944  10.645  -0.256  0.2459 -1.0672 -1.4349
  793MOL0     H 9428   9.941  10.349  -0.331  0.2430 -0.6241  1.9437
  793MOL0     H 9429  10.098  10.420  -0.303 -0.9768 -1.9416  2.0507
  793MOL0     H 9430   9.934  10.531  -0.695 -4.7354  0.9483  0.9955
  793MOL0     H 9431   9.556  10.584   0.139 -0.0248  0.1642 -1.0325
  793MOL0     H 9432   9.267  10.724   0.258  0.4196  1.0067  0.6053
  793MOL0     H 9433   9.373  10.582   0.238  0.6159 -0.0844 -0.5810
  793MOL0     H 9434   9.389  10.696   0.369 -3.2501 -0.4083  0.3214
  794MOL0     O 9435   3.149   5.614   4.870 -0.2508 -0.3744 -0.6869
  794MOL0     C 9436   3.059   5.694   4.847 -0.1186  1.2603 -0.4900
  794MOL0     O 9437   2.927   5.666   4.843 -0.6630 -0.9520 -0.6276
  794MOL0     C 9438   2.881   5.538   4.856 -0.1707  0.0148 -0.4813
  794MOL0     C 9439   2.761   5.521   4.924  0.4918  0.2502 -0.1276
  794MOL0     C 9440   2.691   5.403   4.935 -0.6944  0.2700 -0.1763
  794MOL0     C 9441   2.752   5.287   4.886  0.0888  0.6655 -0.1214
  794MOL0     O 9442   2.686   5.173   4.918 -0.1064 -0.9472  0.4392
  794MOL0     C 9443   2.584   5.131   4.824  0.1957  0.7018 -0.4414
  794MOL0     C 9444   2.618   4.989   4.783  0.5186 -1.1465  0.4045
  794MOL0     C 9445   2.620   4.888   4.902  0.4308 -0.0472 -0.5010
  794MOL0     C 9446   2.730   4.774   4.887 -0.1451 -0.1124 -0.2038
  794MOL0     C 9447   2.700   4.658   4.984 -0.3235 -0.7132  0.1833
  794MOL0     C 9448   2.778   4.526   4.951  0.1426 -1.3692 -0.2616
  794MOL0     C 9449   2.924   4.529   5.003 -0.0014 -0.1342 -0.0216
  794MOL0     C 9450   2.945   4.444   5.130  0.6243  0.3464 -1.0485
  794MOL0     N 9451   3.085   4.442   5.184 -0.1692  0.4999 -0.0665
  794MOL0     C 9452   3.120   4.469   5.308 -0.5556  0.4497 -0.1133
  794MOL0     C 9453   3.257   4.478   5.326 -0.1369 -0.8192 -0.1751
  794MOL0     C 9454   3.338   4.490   5.444  0.8415  1.0030  0.0863
  794MOL0     C 9455   3.396   4.360   5.490  1.3119 -0.3281 -0.5664
  794MOL0     C 9456   3.285   4.266   5.563 -0.8797 -0.3260 -0.3135
  794MOL0     C 9457   3.342   4.120   5.546  0.2267 -1.1050  0.4319
  794MOL0     O 9458   3.244   4.036   5.606 -0.0468 -0.2907  1.1250
  794MOL0     C 9459   3.274   3.906   5.617  1.4264 -0.8676  1.1772
  794MOL0     C 9460   3.373   3.844   5.542 -0.2120 -0.2708 -0.5453
  794MOL0     C 9461   3.428   3.712   5.584  0.1359 -0.4228  0.4246
  794MOL0     C 9462   3.549   3.664   5.514 -0.6234  0.1181  0.2950
  794MOL0     C 9463   3.350   3.637   5.675  0.8138  1.1170  0.1103
  794MOL0     C 9464   3.374   3.481   5.692  0.1176 -0.5387 -0.1297
  794MOL0     O 9465   3.276   3.423   5.767 -0.9614 -0.3181  0.2768
  794MOL0     C 9466   3.310   3.302   5.823 -0.0786 -0.5944 -0.5989
  794MOL0     C 9467   3.273   3.184   5.763  0.2981 -0.8084  0.5200
  794MOL0     C 9468   3.328   3.066   5.817 -0.4674  0.0998 -0.7935
  794MOL0     C 9469   3.408   3.064   5.939  0.1684 -0.0323 -0.3519
  794MOL0     O 9470   3.457   2.942   5.986  0.2101 -0.4850 -0.1364
  794MOL0     C 9471   3.544   2.922   6.107  0.5131  0.9818 -0.2851
  794MOL0     C 9472   3.687   2.886   6.065  0.2061 -0.5565  0.3957
  794MOL0     C 9473   3.730   2.976   5.945 -0.2554  0.3982  0.1246
  794MOL0     C 9474   3.868   2.935   5.891  0.0321 -0.5017  1.0070
  794MOL0     C 9475   3.909   3.019   5.768 -0.0599 -0.0648 -0.7547
  794MOL0     C 9476   3.944   3.157   5.813  0.6018 -0.6239 -0.1606
  794MOL0     C 9477   3.864   3.253   5.722  0.1419 -0.9466  0.5897
  794MOL0     C 9478   3.936   3.256   5.590 -0.4929 -0.0405  0.5776
  794MOL0    Cl 9479   3.871   3.387   5.491 -0.4633  0.2490 -0.3058
  794MOL0     C 9480   3.448   3.186   5.991 -0.0612 -0.3050 -0.3246
  794MOL0     C 9481   3.400   3.305   5.931 -0.0883  0.1376  0.4023
  794MOL0     O 9482   3.476   3.434   5.650 -0.2535 -0.1697  0.0004
  794MOL0     C 9483   3.232   3.695   5.739 -0.2958  0.1347  0.0065
  794MOL0     C 9484   3.195   3.823   5.703  0.9750 -0.4379  0.4417
  794MOL0     N 9485   3.305   4.452   5.197  0.0415 -0.4531 -0.0808
  794MOL0     N 9486   3.198   4.439   5.111 -0.3778  0.3631 -0.3971
  794MOL0     C 9487   2.861   5.298   4.797 -0.5612 -0.2103 -0.7501
  794MOL0     C 9488   2.926   5.415   4.790 -0.3215  0.8538 -1.0142
  794MOL0     C 9489   3.101   5.832   4.830 -0.2721  0.2357 -0.4740
  794MOL0     C 9490   3.094   5.897   4.705 -0.5289  0.5931  0.0682
  794MOL0     C 9491   3.119   6.033   4.690  0.0449  0.7819  1.4078
  794MOL0     C 9492   3.153   6.105   4.799  0.2224 -0.0442 -0.8565
  794MOL0     O 9493   3.206   6.227   4.778  0.1187 -0.4462 -0.0578
  794MOL0     C 9494   3.346   6.241   4.750  0.5414  0.1824  0.9998
  794MOL0     C 9495   3.373   6.389   4.769  0.0406 -0.6989  0.4407
  794MOL0     C 9496   3.366   6.419   4.919  0.4676  0.0055  0.9101
  794MOL0     C 9497   3.375   6.565   4.940 -0.3424  0.5139 -1.0772
  794MOL0     C 9498   3.372   6.591   5.089 -0.3042  1.2870 -0.4728
  794MOL0     C 9499   3.379   6.611   5.210 -1.0006  0.3604  0.0410
  794MOL0     C 9500   3.154   6.051   4.934  0.1251  0.5001  0.4943
  794MOL0     C 9501   3.124   5.913   4.944  0.2037  0.2131 -0.6686
  794MOL0     C 9502   3.111   5.858   5.081 -0.7196 -0.1175  0.4359
  794MOL0     H 9503   2.707   5.608   4.961  1.6012  0.4620  1.0747
  794MOL0     H 9504   2.596   5.400   4.987 -2.1348  1.9454 -2.5355
  794MOL0     H 9505   2.570   5.196   4.737 -2.5127  1.3729  0.3880
  794MOL0     H 9506   2.488   5.130   4.877 -1.2300 -1.2383 -2.8450
  794MOL0     H 9507   2.543   4.977   4.704  2.7876  1.8049 -2.5054
  794MOL0     H 9508   2.712   4.989   4.726 -0.6205  0.3834 -1.5757
  794MOL0     H 9509   2.638   4.943   4.995  0.3783 -0.1818 -0.4099
  794MOL0     H 9510   2.522   4.842   4.914  0.3046  0.6778  1.7745
  794MOL0     H 9511   2.730   4.743   4.782 -1.6204 -0.6430 -0.0606
  794MOL0     H 9512   2.826   4.822   4.909 -0.6502  1.8809 -1.9274
  794MOL0     H 9513   2.594   4.639   5.001  0.1761 -1.8903  2.4014
  794MOL0     H 9514   2.727   4.697   5.083  0.7929  2.2602 -1.1859
  794MOL0     H 9515   2.715   4.461   5.012 -2.4730  3.0441  2.3407
  794MOL0     H 9516   2.784   4.512   4.843 -0.4392  1.2387 -0.6930
  794MOL0     H 9517   2.940   4.632   5.036 -2.0990 -0.2770  1.6630
  794MOL0     H 9518   2.995   4.494   4.928  1.3263  0.6388  0.8379
  794MOL0     H 9519   2.882   4.490   5.206  0.2043  1.1767 -1.8813
  794MOL0     H 9520   2.920   4.340   5.108  1.5127 -0.0742 -0.1512
  794MOL0     H 9521   3.046   4.499   5.381 -0.7610  1.2674 -0.6350
  794MOL0     H 9522   3.288   4.538   5.529  1.2376  3.5713 -1.0278
  794MOL0     H 9523   3.408   4.565   5.406 -1.0663  2.9179  0.2051
  794MOL0     H 9524   3.439   4.311   5.402 -1.0347 -0.8177 -1.5234
  794MOL0     H 9525   3.474   4.375   5.565 -1.1073  0.8755  1.8856
  794MOL0     H 9526   3.290   4.288   5.670  0.8690  2.1865 -0.8386
  794MOL0     H 9527   3.184   4.277   5.521  0.3691  1.2553 -3.1894
  794MOL0     H 9528   3.342   4.104   5.438  2.6791  0.9754  0.0530
  794MOL0     H 9529   3.441   4.106   5.589 -0.2436  0.0847  2.0161
  794MOL0     H 9530   3.427   3.902   5.468  0.5419 -2.6170 -1.9576
  794MOL0     H 9531   3.618   3.619   5.586 -2.2069  0.0435  1.8302
  794MOL0     H 9532   3.593   3.746   5.456 -1.4271  1.9365  2.1446
  794MOL0     H 9533   3.523   3.587   5.441 -0.6470 -0.5037  0.9612
  794MOL0     H 9534   3.207   3.174   5.677 -1.1584 -4.1229  1.8529
  794MOL0     H 9535   3.314   2.978   5.756  3.4349 -0.0227 -1.8126
  794MOL0     H 9536   3.555   3.013   6.166  0.7766  0.5019  0.4186
  794MOL0     H 9537   3.490   2.850   6.170 -0.2710  1.0884 -0.8270
  794MOL0     H 9538   3.747   2.913   6.152  0.8955  2.4285 -0.8865
  794MOL0     H 9539   3.700   2.778   6.050  1.4839 -0.7150  2.3571
  794MOL0     H 9540   3.726   3.077   5.989 -0.4441 -0.5607  2.4803
  794MOL0     H 9541   3.650   2.975   5.870 -2.9051  0.2429  2.7425
  794MOL0     H 9542   3.858   2.834   5.851 -0.6994  0.8950 -2.6917
  794MOL0     H 9543   3.943   2.944   5.970  2.2967  1.7641 -1.2121
  794MOL0     H 9544   3.999   2.968   5.733 -0.4169  0.2712 -2.2762
  794MOL0     H 9545   3.831   3.004   5.692  1.9872 -0.5205 -2.8862
  794MOL0     H 9546   4.052   3.166   5.800  0.6132  0.2893  0.4786
  794MOL0     H 9547   3.931   3.177   5.920  0.1536  1.6036 -0.5689
  794MOL0     H 9548   3.871   3.351   5.769  0.3858 -0.8905  0.4393
  794MOL0     H 9549   3.760   3.223   5.712  0.3578 -0.8833 -3.2486
  794MOL0     H 9550   3.921   3.158   5.542 -1.1545  0.7216 -0.8504
  794MOL0     H 9551   4.044   3.272   5.598 -0.0187 -2.1157 -0.6411
  794MOL0     H 9552   3.500   3.194   6.086 -3.8888  3.8359  1.8401
  794MOL0     H 9553   3.424   3.400   5.978 -0.7196 -0.4635  1.9939
  794MOL0     H 9554   3.165   3.631   5.796 -0.1998  0.9700  1.0877
  794MOL0     H 9555   3.106   3.868   5.745 -0.9003 -0.3895 -3.2173
  794MOL0     H 9556   2.907   5.207   4.760 -0.8314  0.0995 -1.8719
  794MOL0     H 9557   3.011   5.436   4.725  0.5980  1.2104  0.2611
  794MOL0     H 9558   3.064   5.845   4.615  2.9773  0.4972 -1.1976
  794MOL0     H 9559   3.113   6.077   4.591  2.9090 -1.4064  0.0867
  794MOL0     H 9560   3.405   6.185   4.823  0.3702 -0.5845  0.5659
  794MOL0     H 9561   3.365   6.205   4.648 -1.8379 -0.2433  0.6346
  794MOL0     H 9562   3.313   6.456   4.707 -0.4981 -1.9210 -0.3899
  794MOL0     H 9563   3.476   6.402   4.735  0.1754 -2.2844  0.1749
  794MOL0     H 9564   3.270   6.382   4.955  0.7587 -1.3853  0.3253
  794MOL0     H 9565   3.438   6.364   4.980 -0.0291  0.1237  1.6036
  794MOL0     H 9566   3.286   6.617   4.905 -3.0430 -2.5700  0.6313
  794MOL0     H 9567   3.465   6.602   4.891  0.5396 -2.4093 -1.8512
  794MOL0     H 9568   3.359   6.635   5.313 -2.2118 -3.1292  0.7623
  794MOL0     H 9569   3.173   6.117   5.018  2.0409 -0.6773  1.0635
  794MOL0     H 9570   3.195   5.790   5.097  0.0153  1.1561  2.4252
  794MOL0     H 9571   3.124   5.941   5.151 -3.0859  1.4207 -0.8066
  794MOL0     H 9572   3.015   5.806   5.087 -2.3708  2.5706 -0.9396
  795MOL0     O 9573  11.280   1.859  10.355  0.3913  0.1373  0.3254
  795MOL0     C 9574  11.352   1.857  10.454  0.1834  0.5435  0.0606
  795MOL0     O 9575  11.481   1.900  10.452 -0.4673 -0.0558 -0.0225
  795MOL0     C 9576  11.516   1.989  10.352  0.1718  0.4598 -0.0252
  795MOL0     C 9577  11.546   2.117  10.390  0.2573 -0.0198  0.1684
  795MOL0     C 9578  11.594   2.219  10.303  0.2636  0.6793  0.1163
  795MOL0     C 9579  11.622   2.181  10.167  0.9661 -0.4627  0.3519
  795MOL0     O 9580  11.701   2.249  10.078  0.4345  0.1239  0.1610
  795MOL0     C 9581  11.818   2.317  10.137 -0.0676  0.2422 -0.5798
  795MOL0     C 9582  11.816   2.460  10.100  0.0347  0.2392 -0.6606
  795MOL0     C 9583  11.954   2.527  10.069 -0.2767 -1.0247  0.5318
  795MOL0     C 9584  11.939   2.680  10.076 -0.0910 -0.1511 -0.3759
  795MOL0     C 9585  12.073   2.742  10.040 -0.2728  0.7692  0.1729
  795MOL0     C 9586  12.086   2.888  10.076 -0.7395  0.5128  0.4814
  795MOL0     C 9587  12.229   2.935  10.018  0.5383 -0.4651 -0.1007
  795MOL0     C 9588  12.220   3.086  10.024  0.1874 -0.2315  1.3962
  795MOL0     N 9589  12.124   3.158   9.936 -0.4594  0.2630  0.0303
  795MOL0     C 9590  12.123   3.133   9.802 -0.2890 -0.5921 -1.3826
  795MOL0     C 9591  12.015   3.190   9.757  0.4949 -0.2498  1.2045
  795MOL0     C 9592  11.968   3.186   9.607  0.0893  0.0187 -0.9716
  795MOL0     C 9593  11.903   3.055   9.574 -0.1515 -0.7207 -0.3281
  795MOL0     C 9594  11.749   3.053   9.613  0.6073 -0.0980 -0.0232
  795MOL0     C 9595  11.712   3.071   9.767 -0.4620 -0.1830 -1.2994
  795MOL0     O 9596  11.607   2.991   9.816  0.5474 -0.5824 -0.0904
  795MOL0     C 9597  11.589   2.965   9.947  0.6171  0.1331 -0.2226
  795MOL0     C 9598  11.675   2.999  10.053 -0.8936 -1.2681 -0.4593
  795MOL0     C 9599  11.637   2.972  10.186 -0.2723  0.9859 -0.0773
  795MOL0     C 9600  11.725   3.031  10.287 -0.4989  0.2440 -0.1085
  795MOL0     C 9601  11.520   2.895  10.216 -0.3012  0.2045 -0.0027
  795MOL0     C 9602  11.475   2.848  10.343 -0.1942 -0.2609 -0.0276
  795MOL0     O 9603  11.376   2.753  10.347  0.2931 -0.1989  0.1421
  795MOL0     C 9604  11.378   2.671  10.457  0.0623  0.3864 -0.7657
  795MOL0     C 9605  11.442   2.546  10.461 -0.6260 -0.3030  0.0259
  795MOL0     C 9606  11.430   2.448  10.568  0.4541 -0.2923 -0.2703
  795MOL0     C 9607  11.348   2.489  10.677  0.0129 -1.1817 -0.1997
  795MOL0     O 9608  11.329   2.395  10.765  0.0537  0.7673 -0.2027
  795MOL0     C 9609  11.196   2.370  10.819  0.7719 -0.0762  1.4657
  795MOL0     C 9610  11.199   2.249  10.905 -0.4683  0.7586 -0.2250
  795MOL0     C 9611  11.054   2.180  10.909 -0.6593 -0.3442  1.2465
  795MOL0     C 9612  11.027   2.113  11.037  0.1498  0.4452  0.3675
  795MOL0     C 9613  10.882   2.066  11.029 -0.5819  0.0719  0.4094
  795MOL0     C 9614  10.848   1.961  11.140  0.3257  0.8211  0.5642
  795MOL0     C 9615  10.696   1.935  11.164  1.2452  0.1297 -0.6699
  795MOL0     C 9616  10.675   1.793  11.230  0.0660 -0.3063  0.1106
  795MOL0    Cl 9617  10.720   1.667  11.119  0.2352 -0.1018  0.6281
  795MOL0     C 9618  11.277   2.617  10.669  1.2287  0.3155 -0.2511
  795MOL0     C 9619  11.291   2.703  10.563  0.6088  1.0835 -0.0564
  795MOL0     O 9620  11.538   2.879  10.444  0.2820 -0.3808 -0.1116
  795MOL0     C 9621  11.442   2.856  10.104 -0.9359  0.2292 -0.3368
  795MOL0     C 9622  11.477   2.886   9.979 -0.5647 -1.3916 -0.4911
  795MOL0     N 9623  11.957   3.259   9.860  0.0769 -0.0308  0.6968
  795MOL0     N 9624  12.022   3.232   9.967  0.7208 -0.4640  1.3084
  795MOL0     C 9625  11.603   2.045  10.133 -1.7577 -0.8117 -1.2833
  795MOL0     C 9626  11.539   1.948  10.219  0.6089 -0.0110  0.5088
  795MOL0     C 9627  11.275   1.817  10.564 -0.7914 -0.3642  0.0942
  795MOL0     C 9628  11.159   1.738  10.559  0.1276  0.3518 -0.0548
  795MOL0     C 9629  11.097   1.688  10.669  0.4443  0.5996 -0.5037
  795MOL0     C 9630  11.138   1.732  10.792  0.4728  0.2264 -0.2999
  795MOL0     O 9631  11.064   1.696  10.903 -0.3481  0.7045 -0.1261
  795MOL0     C 9632  11.017   1.556  10.924 -0.1362  0.9317 -0.6334
  795MOL0     C 9633  11.112   1.452  10.969 -0.0377 -1.3689 -1.0323
  795MOL0     C 9634  11.049   1.335  11.032 -0.0183  0.6350 -0.5896
  795MOL0     C 9635  10.986   1.233  10.934  0.0604 -1.2394 -0.1587
  795MOL0     C 9636  10.937   1.114  10.992 -0.1407 -0.2131  0.0538
  795MOL0     C 9637  10.904   1.003  11.038  0.2952  0.0776  0.1340
  795MOL0     C 9638  11.242   1.821  10.804 -0.0190  0.0269  0.7862
  795MOL0     C 9639  11.315   1.867  10.698  0.2316 -0.0529  0.0842
  795MOL0     C 9640  11.420   1.973  10.728  0.8099  0.8132 -0.0126
  795MOL0     H 9641  11.539   2.155  10.491 -0.4395  2.1145 -0.6229
  795MOL0     H 9642  11.619   2.317  10.342 -1.5575  0.6632  1.4440
  795MOL0     H 9643  11.906   2.265  10.097 -0.3836 -1.4937  0.8433
  795MOL0     H 9644  11.820   2.301  10.245  1.1264  1.4200 -0.4110
  795MOL0     H 9645  11.746   2.477  10.017 -0.1682 -2.9973 -1.2701
  795MOL0     H 9646  11.776   2.504  10.192  1.9474 -1.3977  1.0443
  795MOL0     H 9647  12.020   2.499  10.152 -2.1412 -2.8156  1.4872
  795MOL0     H 9648  11.998   2.502   9.972 -2.6160  3.5709 -2.0942
  795MOL0     H 9649  11.869   2.732  10.011  0.4631  0.7556 -0.2641
  795MOL0     H 9650  11.913   2.703  10.179 -2.1541 -1.4872 -0.5356
  795MOL0     H 9651  12.084   2.730   9.932 -0.1113  0.5880  0.2082
  795MOL0     H 9652  12.160   2.685  10.073  0.4280  1.8202  0.1943
  795MOL0     H 9653  12.001   2.940  10.032 -0.8905  1.3841  1.7390
  795MOL0     H 9654  12.093   2.883  10.185 -1.8431  1.7642  0.6281
  795MOL0     H 9655  12.268   2.903   9.921  4.5087 -0.4636  1.3145
  795MOL0     H 9656  12.303   2.900  10.090  0.4277  2.0500  1.3601
  795MOL0     H 9657  12.172   3.093  10.122 -2.4233  4.6265  0.0803
  795MOL0     H 9658  12.316   3.137  10.013  0.1286 -0.3419  0.2829
  795MOL0     H 9659  12.197   3.075   9.748  1.9167 -0.9195  1.7264
  795MOL0     H 9660  12.063   3.176   9.555  1.3180  2.4069  0.5910
  795MOL0     H 9661  11.913   3.277   9.579 -1.8819 -0.6994  0.3316
  795MOL0     H 9662  11.902   3.042   9.465  0.6566  1.6076 -0.6844
  795MOL0     H 9663  11.961   2.979   9.626 -0.2562 -0.1465  0.6616
  795MOL0     H 9664  11.703   3.135   9.558  0.1064 -0.8251 -0.7029
  795MOL0     H 9665  11.701   2.963   9.573  0.5693  0.0459 -0.3021
  795MOL0     H 9666  11.805   3.053   9.822 -0.5947  0.7752 -0.7428
  795MOL0     H 9667  11.688   3.175   9.790  1.6948 -0.0973  1.0112
  795MOL0     H 9668  11.758   3.070  10.055 -2.7255  0.9835  0.8791
  795MOL0     H 9669  11.657   3.093  10.346  0.5541  2.0034 -0.6961
  795MOL0     H 9670  11.803   3.094  10.246  1.0327 -1.4019  0.1460
  795MOL0     H 9671  11.762   2.947  10.347 -3.7546 -1.0685  0.3031
  795MOL0     H 9672  11.510   2.539  10.377  1.9458  0.2037  1.9563
  795MOL0     H 9673  11.491   2.359  10.581  2.7959  1.2774  0.0441
  795MOL0     H 9674  11.141   2.446  10.875 -3.9032  0.1041 -2.6703
  795MOL0     H 9675  11.130   2.351  10.734  1.1794  3.6585  0.1333
  795MOL0     H 9676  11.269   2.175  10.866  2.3644  2.4654  1.3173
  795MOL0     H 9677  11.239   2.261  11.006  1.7004 -2.5136 -0.5634
  795MOL0     H 9678  11.057   2.104  10.830  1.0192 -1.2156  2.1114
  795MOL0     H 9679  10.978   2.256  10.887 -2.3496 -2.6375 -1.6101
  795MOL0     H 9680  11.044   2.180  11.122  3.2276  0.9225 -0.5070
  795MOL0     H 9681  11.086   2.026  11.065 -1.0797 -0.6685 -0.3949
  795MOL0     H 9682  10.819   2.155  11.040 -0.5495 -0.0194  1.4915
  795MOL0     H 9683  10.859   2.008  10.940 -0.6716 -2.7865  2.1665
  795MOL0     H 9684  10.888   1.990  11.238  0.1504 -3.0335  1.9322
  795MOL0     H 9685  10.895   1.865  11.116 -1.0807  0.1613  0.3767
  795MOL0     H 9686  10.641   1.930  11.069 -0.8698 -2.7080  0.5506
  795MOL0     H 9687  10.647   2.016  11.218 -0.6599 -1.3875 -0.0158
  795MOL0     H 9688  10.568   1.780  11.248 -0.6261 -0.9163 -3.6771
  795MOL0     H 9689  10.729   1.784  11.325 -0.3728  1.8474  0.6279
  795MOL0     H 9690  11.207   2.639  10.748 -0.1235 -2.2915 -0.6094
  795MOL0     H 9691  11.225   2.789  10.570 -0.5048  0.1499  2.4491
  795MOL0     H 9692  11.359   2.786  10.115  1.0964 -2.4548 -1.0491
  795MOL0     H 9693  11.419   2.846   9.897  0.8963 -0.6178 -1.9619
  795MOL0     H 9694  11.636   2.018  10.033  0.2350 -1.3671 -0.5296
  795MOL0     H 9695  11.508   1.849  10.190  1.7378 -0.9872  2.4182
  795MOL0     H 9696  11.118   1.697  10.467  2.4002 -0.9065 -0.5860
  795MOL0     H 9697  11.013   1.624  10.642 -1.2833  0.7410  3.7369
  795MOL0     H 9698  10.942   1.558  11.004  1.1835 -2.5877  0.9001
  795MOL0     H 9699  10.962   1.534  10.832 -3.3054  2.5710  0.6825
  795MOL0     H 9700  11.162   1.506  11.050 -0.1578 -2.3664 -0.2896
  795MOL0     H 9701  11.184   1.428  10.890  1.2318 -1.4276  0.1004
  795MOL0     H 9702  11.126   1.282  11.088 -1.4958  0.7067  1.6085
  795MOL0     H 9703  10.968   1.355  11.102 -3.9708 -4.8147 -2.8829
  795MOL0     H 9704  11.055   1.205  10.854 -1.4070 -1.4089 -1.4132
  795MOL0     H 9705  10.909   1.279  10.872 -0.0564 -3.4246 -1.7441
  795MOL0     H 9706  10.854   0.916  11.075 -1.0327  1.0136  0.6256
  795MOL0     H 9707  11.250   1.856  10.906 -0.5044 -2.8517  1.9051
  795MOL0     H 9708  11.509   1.913  10.707  0.0399 -0.0655 -0.9103
  795MOL0     H 9709  11.427   2.066  10.671  0.7780  0.5950 -0.3762
  795MOL0     H 9710  11.436   1.998  10.833 -0.1530 -3.2040  1.2925
  796MOL0     O 9711   3.000   0.264   4.062  0.8514  0.0065 -0.6879
  796MOL0     C 9712   2.966   0.160   4.114 -0.4093  0.3897  0.2579
  796MOL0     O 9713   3.013   0.123   4.243 -0.3126  0.4498 -0.3203
  796MOL0     C 9714   3.119   0.187   4.304 -0.5436 -0.1940 -0.1819
  796MOL0     C 9715   3.132   0.140   4.435  0.0104 -0.6577 -0.0280
  796MOL0     C 9716   3.231   0.190   4.525  0.5505 -0.7195  0.0513
  796MOL0     C 9717   3.313   0.303   4.483 -0.4256  0.0470  0.3750
  796MOL0     O 9718   3.398   0.373   4.558 -0.7697  0.1710 -0.1955
  796MOL0     C 9719   3.446   0.314   4.678 -1.0860  0.7316  0.1873
  796MOL0     C 9720   3.554   0.417   4.739  0.5563  0.0921 -0.1557
  796MOL0     C 9721   3.656   0.358   4.844 -0.0625 -0.1122 -0.2047
  796MOL0     C 9722   3.752   0.480   4.884  0.6688  0.4723 -0.0853
  796MOL0     C 9723   3.884   0.428   4.937  0.6277  0.0970  0.0729
  796MOL0     C 9724   3.973   0.353   4.831  0.2093  0.0151  0.4232
  796MOL0     C 9725   4.030   0.455   4.718 -1.5208  0.4496 -0.4952
  796MOL0     C 9726   4.086   0.381   4.589 -0.0872 -1.0468 -0.1527
  796MOL0     N 9727   3.978   0.296   4.541 -0.3701 -1.0057 -0.6067
  796MOL0     C 9728   3.870   0.341   4.471 -0.8539 -1.2678  0.2513
  796MOL0     C 9729   3.812   0.222   4.425  0.2120 -0.3382 -0.1032
  796MOL0     C 9730   3.676   0.204   4.360  0.2162 -0.7458  0.5548
  796MOL0     C 9731   3.634   0.271   4.223 -1.2641  0.5386 -0.5751
  796MOL0     C 9732   3.670   0.422   4.228  0.4908  0.0313  0.3159
  796MOL0     C 9733   3.628   0.471   4.087 -0.6768  1.6627  0.0525
  796MOL0     O 9734   3.735   0.436   3.996  0.5279  0.3889 -0.4089
  796MOL0     C 9735   3.700   0.433   3.860  0.6374 -0.0597 -0.4496
  796MOL0     C 9736   3.640   0.323   3.806 -1.1099  0.1895 -0.2014
  796MOL0     C 9737   3.604   0.309   3.673 -1.1219 -0.0561 -0.1235
  796MOL0     C 9738   3.534   0.177   3.641 -0.1935  0.0556 -0.0814
  796MOL0     C 9739   3.621   0.413   3.587 -0.0314 -0.1066  0.9610
  796MOL0     C 9740   3.556   0.429   3.454 -0.7102 -0.9922 -0.0104
  796MOL0     O 9741   3.553   0.559   3.399  0.1404 -0.6891  0.2898
  796MOL0     C 9742   3.490   0.565   3.284 -0.1423  0.2599  0.0559
  796MOL0     C 9743   3.538   0.524   3.162 -0.6174  0.2035  1.2218
  796MOL0     C 9744   3.450   0.541   3.056 -0.8385  0.1285 -0.4779
  796MOL0     C 9745   3.332   0.608   3.071 -0.5228 -0.3161 -0.3061
  796MOL0     O 9746   3.246   0.646   2.970  0.2184 -0.2173 -0.7331
  796MOL0     C 9747   3.291   0.685   2.838 -0.1445  0.2252 -0.3058
  796MOL0     C 9748   3.178   0.651   2.740 -0.2434  0.2826  0.0182
  796MOL0     C 9749   3.216   0.701   2.602 -0.9618  0.0935  0.2112
  796MOL0     C 9750   3.217   0.853   2.577  0.3337 -0.5389  0.7434
  796MOL0     C 9751   3.278   0.898   2.441  1.0779  0.3848 -0.4000
  796MOL0     C 9752   3.177   0.839   2.328 -0.3354  0.1854 -0.5492
  796MOL0     C 9753   3.235   0.857   2.183 -0.0132 -0.3010  0.1523
  796MOL0     C 9754   3.371   0.789   2.169  0.2430  0.0658  0.4804
  796MOL0    Cl 9755   3.370   0.627   2.239 -0.1786  0.0409 -0.1210
  796MOL0     C 9756   3.299   0.652   3.195  0.5734 -0.1058 -0.1521
  796MOL0     C 9757   3.375   0.628   3.302 -0.0468 -0.3937  0.5213
  796MOL0     O 9758   3.489   0.334   3.418 -0.6498 -0.4675  0.0898
  796MOL0     C 9759   3.698   0.525   3.639 -1.2450  0.2984  0.1395
  796MOL0     C 9760   3.722   0.532   3.770  0.7021 -0.2639 -0.3502
  796MOL0     N 9761   3.889   0.123   4.479 -0.7269  0.5146 -1.1675
  796MOL0     N 9762   3.991   0.159   4.548 -0.6364 -0.2282  0.2692
  796MOL0     C 9763   3.284   0.351   4.348 -0.3061  0.3772 -1.1566
  796MOL0     C 9764   3.198   0.294   4.259  0.1798 -0.2344 -0.1493
  796MOL0     C 9765   2.922   0.046   4.022 -0.9457 -0.0538 -0.3841
  796MOL0     C 9766   2.929  -0.087   4.059 -0.1708 -1.4596 -0.3649
  796MOL0     C 9767   2.875  -0.189   3.979  1.0326  0.0494 -0.1822
  796MOL0     C 9768   2.808  -0.159   3.861  0.5175  0.0967 -1.2581
  796MOL0     O 9769   2.742  -0.248   3.785  0.0774  0.2210  0.5974
  796MOL0     C 9770   2.767  -0.385   3.807  0.0666 -0.3386  0.0039
  796MOL0     C 9771   2.698  -0.471   3.693  0.0953 -0.4323 -0.6804
  796MOL0     C 9772   2.772  -0.447   3.566  0.2261 -0.2143 -0.5557
  796MOL0     C 9773   2.718  -0.547   3.461 -0.0035 -1.0547 -0.3786
  796MOL0     C 9774   2.817  -0.553   3.360  0.5027 -0.1165  0.0380
  796MOL0     C 9775   2.902  -0.544   3.272 -0.4495 -0.7616  0.5169
  796MOL0     C 9776   2.804  -0.019   3.817 -1.4023  0.3543 -0.3743
  796MOL0     C 9777   2.859   0.077   3.901  0.1202  0.2846 -0.0940
  796MOL0     C 9778   2.850   0.221   3.838  0.0255 -0.1971 -0.1752
  796MOL0     H 9779   3.071   0.061   4.479  2.2777 -2.0849  0.7349
  796MOL0     H 9780   3.222   0.157   4.628 -4.5625 -1.1001 -0.2687
  796MOL0     H 9781   3.492   0.217   4.661  0.9661  1.3300  1.7936
  796MOL0     H 9782   3.368   0.301   4.754 -1.5595  1.7834 -0.1010
  796MOL0     H 9783   3.611   0.448   4.651  2.7441 -0.2232  1.0917
  796MOL0     H 9784   3.522   0.512   4.783 -0.1966  1.5502 -3.5102
  796MOL0     H 9785   3.605   0.303   4.924 -2.4552  1.9653 -0.1859
  796MOL0     H 9786   3.717   0.289   4.784 -1.1460 -1.5265  0.2721
  796MOL0     H 9787   3.760   0.538   4.792  0.5423  0.8260  0.1271
  796MOL0     H 9788   3.705   0.553   4.950 -2.6024 -0.0790 -1.5968
  796MOL0     H 9789   3.870   0.357   5.020  3.7073  0.4395  1.0090
  796MOL0     H 9790   3.949   0.510   4.969  3.9493 -1.0846 -2.9815
  796MOL0     H 9791   4.056   0.321   4.895 -0.0579 -0.7741  0.3801
  796MOL0     H 9792   3.927   0.261   4.794  1.6119 -2.3042  3.8575
  796MOL0     H 9793   4.113   0.522   4.744 -2.0455  1.0746 -0.4197
  796MOL0     H 9794   3.956   0.530   4.692 -1.7684  1.0806  1.8610
  796MOL0     H 9795   4.113   0.451   4.510 -1.3842  0.4556  0.6713
  796MOL0     H 9796   4.180   0.330   4.608 -0.7442 -1.6881  1.5676
  796MOL0     H 9797   3.830   0.441   4.466 -1.2061 -1.3780  0.7406
  796MOL0     H 9798   3.607   0.221   4.443 -1.1334  0.1395 -0.7030
  796MOL0     H 9799   3.667   0.098   4.334  0.3239 -0.3371 -1.2190
  796MOL0     H 9800   3.693   0.223   4.144 -3.5668  1.6012 -3.1224
  796MOL0     H 9801   3.530   0.241   4.205 -1.6480  1.4571  0.0448
  796MOL0     H 9802   3.617   0.478   4.306  3.6335  2.5179  0.8735
  796MOL0     H 9803   3.776   0.435   4.253  1.0777 -1.6359 -1.0960
  796MOL0     H 9804   3.529   0.439   4.052  0.9387 -2.5597 -1.1935
  796MOL0     H 9805   3.609   0.579   4.087 -3.2663  1.2763  1.0327
  796MOL0     H 9806   3.619   0.250   3.884 -0.5606  1.0020  0.7255
  796MOL0     H 9807   3.569   0.099   3.709 -1.7782 -1.5378 -0.9926
  796MOL0     H 9808   3.565   0.149   3.539 -1.3887  0.6132 -0.6162
  796MOL0     H 9809   3.426   0.168   3.654  0.1613 -1.5672  2.5713
  796MOL0     H 9810   3.626   0.462   3.154 -0.7915  0.0754  0.1407
  796MOL0     H 9811   3.487   0.498   2.964 -2.2335 -1.9179 -0.1449
  796MOL0     H 9812   3.299   0.794   2.843  1.3097  0.2066 -1.5762
  796MOL0     H 9813   3.383   0.631   2.813 -2.3571 -3.1534 -1.8431
  796MOL0     H 9814   3.167   0.543   2.730  2.7345 -0.2797  1.7661
  796MOL0     H 9815   3.083   0.702   2.762  0.7816  1.3111  2.4712
  796MOL0     H 9816   3.144   0.649   2.537 -2.0802  2.5203 -0.6109
  796MOL0     H 9817   3.311   0.652   2.581 -0.6859  0.5360  0.4107
  796MOL0     H 9818   3.264   0.913   2.655 -0.6934 -0.2900  1.1720
  796MOL0     H 9819   3.116   0.890   2.562  0.5973 -1.1273 -4.2870
  796MOL0     H 9820   3.279   1.007   2.441  0.0739  0.4188  0.8704
  796MOL0     H 9821   3.382   0.863   2.433  0.3968 -1.6002 -1.2351
  796MOL0     H 9822   3.085   0.896   2.342  1.5318  2.6443  3.1160
  796MOL0     H 9823   3.164   0.733   2.349  0.1530  0.5360  1.7410
  796MOL0     H 9824   3.244   0.966   2.174 -3.5548 -0.0669 -2.6711
  796MOL0     H 9825   3.174   0.833   2.096  0.6686  2.9736 -1.3728
  796MOL0     H 9826   3.455   0.840   2.216  0.9327  0.0530 -0.6766
  796MOL0     H 9827   3.406   0.784   2.065  2.8024  3.4494  1.0178
  796MOL0     H 9828   3.214   0.716   3.218  2.7560  2.6827  0.8843
  796MOL0     H 9829   3.342   0.665   3.399  1.8583  0.0670  1.0291
  796MOL0     H 9830   3.714   0.616   3.581  2.0947 -1.1315 -1.4694
  796MOL0     H 9831   3.729   0.632   3.812 -0.3661 -0.1993 -0.2932
  796MOL0     H 9832   3.346   0.432   4.309 -0.2561  0.4048 -1.0203
  796MOL0     H 9833   3.195   0.347   4.164 -1.5644 -0.8211 -0.4512
  796MOL0     H 9834   2.975  -0.116   4.153 -3.1450  0.4503  1.8630
  796MOL0     H 9835   2.886  -0.286   4.025  0.0828  0.0593  0.0833
  796MOL0     H 9836   2.871  -0.417   3.801 -0.2393 -1.5892  0.7884
  796MOL0     H 9837   2.713  -0.410   3.899 -0.5247  0.2590 -0.1724
  796MOL0     H 9838   2.597  -0.432   3.685  0.1355 -0.0696  0.3745
  796MOL0     H 9839   2.713  -0.573   3.729 -0.2794 -0.2943 -0.1207
  796MOL0     H 9840   2.761  -0.345   3.529 -0.7878 -0.1246 -0.0480
  796MOL0     H 9841   2.878  -0.457   3.591 -0.0033 -0.1290  0.4677
  796MOL0     H 9842   2.632  -0.501   3.413 -0.9300 -2.1940  0.1538
  796MOL0     H 9843   2.706  -0.645   3.507  0.2930 -0.9946 -0.1706
  796MOL0     H 9844   2.985  -0.533   3.205 -0.1100 -2.2728  0.6460
  796MOL0     H 9845   2.777   0.010   3.716  2.5792  2.2738 -1.0903
  796MOL0     H 9846   2.800   0.220   3.741 -0.4657  1.3017  0.0317
  796MOL0     H 9847   2.795   0.296   3.896  1.2898  0.9930 -0.4672
  796MOL0     H 9848   2.944   0.272   3.814 -0.8978  0.4865 -2.6106
  797MOL0     O 9849  10.223   8.922   1.031 -0.2046  0.0487 -0.4738
  797MOL0     C 9850  10.197   9.013   1.118 -0.4785  0.3705  0.8670
  797MOL0     O 9851  10.248   9.139   1.108  0.4683  0.3797 -0.5274
  797MOL0     C 9852  10.275   9.190   0.981 -0.1601  0.0348  0.1753
  797MOL0     C 9853  10.407   9.182   0.925 -0.1231  1.1789 -0.7207
  797MOL0     C 9854  10.439   9.234   0.800 -0.2122 -0.2350 -0.1767
  797MOL0     C 9855  10.339   9.295   0.720 -0.0329 -0.1504  0.0176
  797MOL0     O 9856  10.378   9.360   0.604  0.6580 -0.1204  0.0407
  797MOL0     C 9857  10.439   9.284   0.498 -0.0320 -0.5333  0.2750
  797MOL0     C 9858  10.349   9.233   0.391 -0.2488 -1.0382  0.0105
  797MOL0     C 9859  10.416   9.165   0.276  0.4563 -0.2077 -0.4852
  797MOL0     C 9860  10.536   9.068   0.312 -0.0278 -0.1062  1.2296
  797MOL0     C 9861  10.587   8.990   0.196 -0.2413  0.0908 -0.2039
  797MOL0     C 9862  10.565   8.836   0.200  0.1483 -0.3272  1.0442
  797MOL0     C 9863  10.587   8.782   0.062  0.4502 -0.1060  0.5368
  797MOL0     C 9864  10.555   8.634   0.053 -0.3587 -0.0413  0.5879
  797MOL0     N 9865  10.595   8.575  -0.081  0.4393 -0.0504  0.4493
  797MOL0     C 9866  10.724   8.586  -0.126  0.0502 -0.4091 -0.0172
  797MOL0     C 9867  10.726   8.522  -0.246  0.4303 -0.0322  0.1902
  797MOL0     C 9868  10.839   8.517  -0.351 -0.6923  0.0878 -0.4443
  797MOL0     C 9869  10.912   8.648  -0.373 -0.1048 -0.3140  0.4734
  797MOL0     C 9870  10.976   8.639  -0.518 -0.2838 -0.8436 -0.8625
  797MOL0     C 9871  10.874   8.638  -0.625 -0.2095  0.7842  0.0058
  797MOL0     O 9872  10.864   8.514  -0.699 -0.8733 -0.1809 -0.4479
  797MOL0     C 9873  10.930   8.522  -0.824  0.2395  0.5967  0.4923
  797MOL0     C 9874  10.899   8.600  -0.932  0.1403  0.5951  1.0230
  797MOL0     C 9875  10.964   8.587  -1.060  0.9594 -0.2204 -0.2905
  797MOL0     C 9876  10.934   8.697  -1.164 -0.1300 -0.0154  1.1685
  797MOL0     C 9877  11.070   8.490  -1.078 -0.5106  0.0771 -0.3085
  797MOL0     C 9878  11.130   8.459  -1.210 -0.2722  0.3247 -0.0003
  797MOL0     O 9879  11.255   8.408  -1.215 -0.7278  0.2156  0.6315
  797MOL0     C 9880  11.307   8.375  -1.336  0.0994  0.8661  1.0027
  797MOL0     C 9881  11.248   8.269  -1.409  0.9833  0.0437  0.4185
  797MOL0     C 9882  11.281   8.241  -1.544  0.8298  0.7477 -0.2170
  797MOL0     C 9883  11.394   8.304  -1.595 -0.6092 -0.2527 -0.6090
  797MOL0     O 9884  11.430   8.258  -1.721 -0.0921  0.1348  0.4617
  797MOL0     C 9885  11.547   8.316  -1.788 -0.8221 -1.0818 -0.2086
  797MOL0     C 9886  11.494   8.419  -1.880  0.3159  0.1935  0.5895
  797MOL0     C 9887  11.589   8.444  -1.993  0.0219  0.3725 -0.5309
  797MOL0     C 9888  11.553   8.557  -2.087  0.2046 -1.1491 -1.1768
  797MOL0     C 9889  11.673   8.596  -2.191  0.3666  0.1394 -1.3057
  797MOL0     C 9890  11.602   8.662  -2.313  0.0617  0.1675 -0.2326
  797MOL0     C 9891  11.511   8.573  -2.401 -0.6037 -0.0145  0.2298
  797MOL0     C 9892  11.589   8.453  -2.468 -0.2932  0.4693 -0.0765
  797MOL0    Cl 9893  11.488   8.391  -2.609 -0.1670 -0.3836  0.3554
  797MOL0     C 9894  11.465   8.405  -1.515 -0.1443 -0.0119 -0.0888
  797MOL0     C 9895  11.420   8.440  -1.381  0.1475  0.4989 -0.1079
  797MOL0     O 9896  11.058   8.464  -1.306 -0.0860  0.7255  0.1285
  797MOL0     C 9897  11.103   8.404  -0.965 -0.0104 -0.9743  0.3992
  797MOL0     C 9898  11.031   8.424  -0.850 -0.2627  0.1384  0.5954
  797MOL0     N 9899  10.591   8.477  -0.262  0.7687 -0.1425  0.3259
  797MOL0     N 9900  10.517   8.506  -0.164  0.4923 -0.1574 -0.5351
  797MOL0     C 9901  10.213   9.319   0.782  0.1028  0.9246 -0.3889
  797MOL0     C 9902  10.182   9.262   0.907 -1.1724 -1.2861  0.0146
  797MOL0     C 9903  10.120   8.980   1.245  0.3377  0.3589  0.0285
  797MOL0     C 9904  10.152   9.049   1.364  0.0954 -0.7986 -0.3558
  797MOL0     C 9905  10.088   9.021   1.483  0.3351 -1.1399 -1.2020
  797MOL0     C 9906   9.981   8.924   1.492  0.9545 -0.2215 -0.1039
  797MOL0     O 9907   9.925   8.871   1.605 -0.2501 -0.9903  0.5372
  797MOL0     C 9908   9.874   8.974   1.697  0.1421  0.3927 -0.8520
  797MOL0     C 9909   9.961   8.942   1.820  0.0973  0.3515  0.3933
  797MOL0     C 9910   9.911   9.000   1.951  1.1417 -0.3657 -0.1541
  797MOL0     C 9911  10.033   8.989   2.046 -0.0243  0.3566 -0.4455
  797MOL0     C 9912  10.002   9.027   2.191  0.0931  0.0076  0.2111
  797MOL0     C 9913   9.980   9.056   2.306  1.3008  0.5996 -0.2704
  797MOL0     C 9914   9.949   8.862   1.370 -0.7209  0.8227 -0.5110
  797MOL0     C 9915  10.017   8.880   1.247  0.0776 -0.0343 -0.4644
  797MOL0     C 9916   9.979   8.789   1.135  0.1445 -1.4019 -0.7868
  797MOL0     H 9917  10.488   9.124   0.968  3.0229  1.2011 -5.8032
  797MOL0     H 9918  10.545   9.230   0.779  0.4624 -0.8810  2.9145
  797MOL0     H 9919  10.504   9.205   0.537 -0.2496 -0.4427  0.8329
  797MOL0     H 9920  10.512   9.341   0.439  0.5179 -2.3402 -0.8642
  797MOL0     H 9921  10.299   9.161   0.456  3.1528 -2.2459  1.5114
  797MOL0     H 9922  10.287   9.314   0.353  0.2400 -1.7687 -2.5363
  797MOL0     H 9923  10.340   9.103   0.228 -0.4029  0.5740 -0.1752
  797MOL0     H 9924  10.451   9.227   0.192  3.0780 -2.7461 -1.4110
  797MOL0     H 9925  10.622   9.123   0.350  2.1324 -1.2635 -1.5715
  797MOL0     H 9926  10.512   8.991   0.386 -1.6098  0.6818  1.5775
  797MOL0     H 9927  10.695   9.005   0.191 -0.0264 -1.5835 -1.8312
  797MOL0     H 9928  10.537   9.027   0.105 -0.6651  0.2128  0.0781
  797MOL0     H 9929  10.634   8.800   0.276 -0.7622 -1.7305  1.2474
  797MOL0     H 9930  10.464   8.813   0.236 -0.8471 -0.9386 -1.8750
  797MOL0     H 9931  10.690   8.800   0.028 -0.2807  2.9087 -0.4235
  797MOL0     H 9932  10.526   8.841  -0.007  1.5007  0.0504 -0.2806
  797MOL0     H 9933  10.593   8.574   0.136 -1.5770 -0.3684  0.9208
  797MOL0     H 9934  10.446   8.629   0.057 -0.5026  1.6509 -0.2694
  797MOL0     H 9935  10.811   8.630  -0.079  2.4083 -3.1493 -1.4762
  797MOL0     H 9936  10.814   8.469  -0.446 -1.3851  0.2207 -0.3337
  797MOL0     H 9937  10.922   8.454  -0.316  0.1438  1.1489 -0.4473
  797MOL0     H 9938  10.847   8.735  -0.371  1.4075  0.8809 -0.1442
  797MOL0     H 9939  10.990   8.665  -0.298  2.6624 -4.1521 -1.1678
  797MOL0     H 9940  11.041   8.723  -0.545 -0.0780 -1.7148 -3.3492
  797MOL0     H 9941  11.048   8.556  -0.518 -0.5626 -1.1908  2.0159
  797MOL0     H 9942  10.777   8.670  -0.585 -0.8994 -1.5887  0.4164
  797MOL0     H 9943  10.899   8.712  -0.702 -1.9967  0.0404 -1.3733
  797MOL0     H 9944  10.820   8.672  -0.914  0.8414  1.3987  0.9228
  797MOL0     H 9945  10.942   8.662  -1.268 -1.0210 -0.4446  1.2402
  797MOL0     H 9946  11.005   8.778  -1.143  0.7628 -0.1517 -0.9808
  797MOL0     H 9947  10.835   8.737  -1.141  0.6143  1.2880  2.2600
  797MOL0     H 9948  11.167   8.208  -1.368  1.4515  1.3507  3.6115
  797MOL0     H 9949  11.215   8.169  -1.591  1.5269 -0.9139  1.2197
  797MOL0     H 9950  11.615   8.364  -1.717 -0.9628  0.8545 -1.3165
  797MOL0     H 9951  11.598   8.232  -1.837 -1.3193  0.1474 -2.9968
  797MOL0     H 9952  11.400   8.381  -1.919  1.0331  2.0925 -3.5914
  797MOL0     H 9953  11.475   8.515  -1.830  1.4247  0.6598  0.1550
  797MOL0     H 9954  11.593   8.354  -2.055 -0.5918  2.0278 -3.1299
  797MOL0     H 9955  11.687   8.455  -1.946  0.4627 -2.9373 -0.4431
  797MOL0     H 9956  11.534   8.646  -2.027 -4.1792 -4.4256  3.1192
  797MOL0     H 9957  11.453   8.542  -2.130 -0.5721 -0.9983  0.5214
  797MOL0     H 9958  11.748   8.661  -2.145  5.0790 -3.9452 -2.3142
  797MOL0     H 9959  11.715   8.496  -2.209 -1.5513 -1.7728  3.2026
  797MOL0     H 9960  11.682   8.705  -2.374  1.3721 -1.0840  0.5304
  797MOL0     H 9961  11.548   8.750  -2.276 -0.4235 -0.7236  1.2556
  797MOL0     H 9962  11.461   8.635  -2.476 -2.5961 -1.0021  0.6819
  797MOL0     H 9963  11.421   8.532  -2.354  1.2345 -3.5445  1.0209
  797MOL0     H 9964  11.596   8.368  -2.399 -0.9713  0.2241 -0.2935
  797MOL0     H 9965  11.685   8.486  -2.507 -0.6486 -0.4155 -1.8028
  797MOL0     H 9966  11.549   8.465  -1.548 -1.0480  0.1028 -2.3188
  797MOL0     H 9967  11.473   8.520  -1.329  1.0522  0.2787 -0.6602
  797MOL0     H 9968  11.183   8.331  -0.960  1.2259  0.2692 -0.5739
  797MOL0     H 9969  11.071   8.365  -0.768  2.0910 -1.6582 -1.6682
  797MOL0     H 9970  10.145   9.380   0.723 -0.7373  0.1012 -0.2966
  797MOL0     H 9971  10.077   9.269   0.934 -1.8773  0.6017 -2.7667
  797MOL0     H 9972  10.234   9.121   1.360 -2.4321  2.4450  1.1499
  797MOL0     H 9973  10.109   9.067   1.579  0.6239 -0.2390 -1.6810
  797MOL0     H 9974   9.907   9.075   1.670  1.5165  1.3068  3.4535
  797MOL0     H 9975   9.768   8.967   1.722 -0.6786  0.2918 -3.9114
  797MOL0     H 9976  10.063   8.979   1.805  0.1774  0.0724  0.2418
  797MOL0     H 9977   9.964   8.832   1.820  1.9016  0.3325 -1.8543
  797MOL0     H 9978   9.880   9.105   1.950  1.8154 -0.1572  0.3715
  797MOL0     H 9979   9.830   8.930   1.970 -0.3964  1.4409  0.3057
  797MOL0     H 9980  10.117   9.045   2.005  0.5700 -0.7492 -0.7701
  797MOL0     H 9981  10.071   8.887   2.052  2.9762  1.0733 -3.8007
  797MOL0     H 9982   9.942   9.112   2.389 -2.6212 -1.0259 -0.7791
  797MOL0     H 9983   9.893   8.769   1.367 -0.4589  0.6546 -3.6394
  797MOL0     H 9984   9.884   8.744   1.164  0.3382 -2.3992 -1.6348
  797MOL0     H 9985   9.963   8.853   1.047  0.5938  1.1085  0.8596
  797MOL0     H 9986  10.051   8.709   1.114 -1.0261 -2.1835 -1.9534
  798MOL0     O 9987  10.335   6.326  10.653  0.0315 -0.1864 -0.1671
  798MOL0     C 9988  10.337   6.230  10.736 -0.7260 -0.3612  0.4846
  798MOL0     O 9989  10.440   6.137  10.740  0.4162  0.1111  0.4032
  798MOL0     C 9990  10.526   6.108  10.632 -0.3741 -0.4179  0.0381
  798MOL0     C 9991  10.618   6.006  10.664 -0.1191 -0.2087  0.4026
  798MOL0     C 9992  10.722   5.978  10.574  0.7928  0.2529 -0.3471
  798MOL0     C 9993  10.738   6.039  10.451  0.0332 -0.2162 -0.1334
  798MOL0     O 9994  10.848   5.989  10.375  0.4685  0.4284 -0.6832
  798MOL0     C 9995  10.862   6.042  10.242 -0.6320 -0.6399  0.1886
  798MOL0     C 9996  11.000   6.009  10.187 -0.4134  0.4210  0.4007
  798MOL0     C 9997  11.121   6.061  10.270  0.1547  0.4280  0.2707
  798MOL0     C 9998  11.178   6.186  10.213 -0.1830  0.0755  1.0109
  798MOL0     C 9999  11.274   6.242  10.314 -0.1436  0.3247 -0.2677
  798MOL0     C10000  11.268   6.394  10.334 -0.1671  0.4006 -0.4393
  798MOL0     C10001  11.253   6.475  10.205  0.9370 -0.3082 -0.8438
  798MOL0     C10002  11.383   6.447  10.122 -0.0271 -1.1786  0.0413
  798MOL0     N10003  11.397   6.536  10.003  0.0457 -0.1429  0.0913
  798MOL0     C10004  11.315   6.519   9.893  0.1903 -0.5553 -0.4024
  798MOL0     C10005  11.349   6.624   9.810 -0.0242 -0.3977  0.0638
  798MOL0     C10006  11.296   6.645   9.675  1.2642 -0.2216 -0.0994
  798MOL0     C10007  11.311   6.792   9.636  1.2251 -0.2755 -0.2413
  798MOL0     C10008  11.261   6.798   9.498 -0.1729 -0.4275  1.0848
  798MOL0     C10009  11.314   6.926   9.425  0.3942 -0.4403  0.6783
  798MOL0     O10010  11.255   7.049   9.475 -0.4469 -0.5040  0.3947
  798MOL0     C10011  11.229   7.155   9.389 -0.0722  1.1422  0.8856
  798MOL0     C10012  11.203   7.137   9.245 -0.6833  0.6341 -0.4408
  798MOL0     C10013  11.184   7.256   9.168 -0.1213 -0.7905  0.6717
  798MOL0     C10014  11.172   7.222   9.015 -0.8010  0.3698  0.1375
  798MOL0     C10015  11.190   7.382   9.226  0.6719 -0.1749  0.4450
  798MOL0     C10016  11.188   7.508   9.145  0.8306 -0.1677 -0.0950
  798MOL0     O10017  11.294   7.589   9.140  0.5223 -0.1612  0.7508
  798MOL0     C10018  11.296   7.694   9.059 -0.0300 -0.1268 -0.3878
  798MOL0     C10019  11.363   7.812   9.097 -0.0067 -0.5781  0.0330
  798MOL0     C10020  11.377   7.919   9.007  0.2629 -0.2107  0.2508
  798MOL0     C10021  11.337   7.903   8.874  0.3653  0.6351 -0.7110
  798MOL0     O10022  11.368   8.007   8.791  0.7715  0.4608  0.4834
  798MOL0     C10023  11.516   8.018   8.777  0.0228 -0.5124  0.1173
  798MOL0     C10024  11.544   8.127   8.674  0.7388  0.7998 -0.1407
  798MOL0     C10025  11.465   8.103   8.539  0.8603  0.0360  0.4560
  798MOL0     C10026  11.446   8.232   8.451  1.0242  0.4731  0.1063
  798MOL0     C10027  11.415   8.215   8.304 -0.1100  0.1873 -0.2919
  798MOL0     C10028  11.546   8.201   8.223 -0.0807  0.1779  0.2374
  798MOL0     C10029  11.530   8.160   8.080  0.4941 -0.1873  0.6451
  798MOL0     C10030  11.670   8.165   8.007  0.8416  0.2356  0.3582
  798MOL0    Cl10031  11.660   8.095   7.841 -0.4498  0.4323 -0.0242
  798MOL0     C10032  11.291   7.780   8.832 -0.6012  0.9136 -0.8060
  798MOL0     C10033  11.261   7.675   8.923 -0.7604  1.0317 -0.8295
  798MOL0     O10034  11.073   7.538   9.107  0.0931 -0.3491  0.0311
  798MOL0     C10035  11.187   7.389   9.364 -0.5248  0.5630 -0.2512
  798MOL0     C10036  11.215   7.276   9.445 -0.9394  0.5791  0.5649
  798MOL0     N10037  11.439   6.700   9.879 -0.7694  0.4049  0.3236
  798MOL0     N10038  11.464   6.646   9.996 -0.0860 -0.0741 -0.5937
  798MOL0     C10039  10.640   6.126  10.415  0.5943  0.2768  0.0285
  798MOL0     C10040  10.527   6.154  10.499 -0.6054 -0.8518  0.0652
  798MOL0     C10041  10.226   6.221  10.837 -0.2195  0.2126  0.4585
  798MOL0     C10042  10.179   6.342  10.899  0.2222 -0.0053  0.5104
  798MOL0     C10043  10.095   6.326  11.007  0.6690 -0.1693  0.4084
  798MOL0     C10044  10.051   6.203  11.052  0.4448 -0.0312  0.5088
  798MOL0     O10045   9.972   6.177  11.163 -0.8898  0.6828 -0.8463
  798MOL0     C10046   9.954   6.276  11.260  0.0668  0.3628 -0.0295
  798MOL0     C10047   9.846   6.372  11.222 -0.2195  0.2139 -0.3413
  798MOL0     C10048   9.822   6.493  11.320  0.2471 -0.2688  0.1431
  798MOL0     C10049   9.804   6.443  11.469 -0.2578 -1.1189  0.0123
  798MOL0     C10050   9.710   6.522  11.541  0.4218  0.0783  0.7349
  798MOL0     C10051   9.624   6.583  11.611  0.4704 -0.2831 -0.0738
  798MOL0     C10052  10.088   6.092  10.975 -0.4602 -0.0362  0.0602
  798MOL0     C10053  10.184   6.096  10.876 -0.4850  0.0377  0.7465
  798MOL0     C10054  10.235   5.968  10.805 -0.1711  0.8378 -0.1638
  798MOL0     H10055  10.606   5.966  10.764  0.8018  1.9581  1.4311
  798MOL0     H10056  10.802   5.916  10.612 -0.2513  0.7970  3.0936
  798MOL0     H10057  10.862   6.151  10.241  1.0259 -0.5382  2.5230
  798MOL0     H10058  10.781   6.011  10.176 -0.0494 -4.4989  1.0136
  798MOL0     H10059  11.004   5.901  10.173  2.0350  0.7472 -2.5555
  798MOL0     H10060  11.010   6.047  10.085 -1.0179  0.1028  0.2182
  798MOL0     H10061  11.084   6.074  10.373  0.6944 -0.2533  0.5616
  798MOL0     H10062  11.195   5.982  10.286 -0.1208  0.4011  1.5355
  798MOL0     H10063  11.226   6.172  10.116  0.2412  2.0014  0.8949
  798MOL0     H10064  11.086   6.245  10.204 -2.2059 -3.0866 -0.8036
  798MOL0     H10065  11.377   6.213  10.291  0.0419  0.4109  0.4515
  798MOL0     H10066  11.248   6.197  10.410  1.2610  1.1990  0.5556
  798MOL0     H10067  11.175   6.418  10.385  0.1306  1.7333 -0.4966
  798MOL0     H10068  11.341   6.428  10.408 -1.5022 -1.4588  1.8822
  798MOL0     H10069  11.244   6.579  10.236  1.5284 -0.9145  1.5670
  798MOL0     H10070  11.165   6.436  10.152  1.5375 -3.6872  0.3632
  798MOL0     H10071  11.473   6.476  10.177  0.7538  0.1927 -1.8466
  798MOL0     H10072  11.381   6.343  10.087 -0.8028 -0.2745 -2.8863
  798MOL0     H10073  11.243   6.437   9.889  0.0627 -0.6233  1.7528
  798MOL0     H10074  11.188   6.630   9.677  1.1799  0.4129  0.4508
  798MOL0     H10075  11.332   6.570   9.603 -0.9263 -0.8218 -0.6437
  798MOL0     H10076  11.251   6.856   9.702  1.0839  0.6394 -1.2398
  798MOL0     H10077  11.418   6.818   9.632  1.0798  0.3008 -0.4769
  798MOL0     H10078  11.291   6.712   9.437  0.4324  1.2432 -1.1334
  798MOL0     H10079  11.153   6.814   9.487  0.0968  0.9393  0.1103
  798MOL0     H10080  11.421   6.936   9.444 -0.2176  0.6388  4.1708
  798MOL0     H10081  11.311   6.914   9.316  0.7904  0.1170  0.6011
  798MOL0     H10082  11.211   7.037   9.204 -0.0700 -0.7795  2.8393
  798MOL0     H10083  11.063   7.230   9.004 -1.0244 -1.7814  0.3309
  798MOL0     H10084  11.211   7.122   8.995 -0.7714  0.0085  1.8487
  798MOL0     H10085  11.223   7.304   8.964 -1.8782  0.2546 -1.1632
  798MOL0     H10086  11.398   7.818   9.199  1.5143 -0.4781 -0.4748
  798MOL0     H10087  11.411   8.016   9.041  0.0144 -0.4858  1.3315
  798MOL0     H10088  11.571   8.046   8.867 -0.2131 -3.7056  1.3755
  798MOL0     H10089  11.557   7.921   8.744 -0.2762 -1.8143  3.2779
  798MOL0     H10090  11.509   8.225   8.710 -3.8200  0.8917 -3.8029
  798MOL0     H10091  11.650   8.124   8.650  0.7007 -0.5265 -0.1940
  798MOL0     H10092  11.365   8.071   8.570  0.3038  1.7944  0.5577
  798MOL0     H10093  11.506   8.017   8.485  2.0741 -0.4196  2.0340
  798MOL0     H10094  11.527   8.304   8.465  2.2969 -0.8391 -0.2370
  798MOL0     H10095  11.357   8.278   8.494  0.7171 -1.0815  1.2128
  798MOL0     H10096  11.362   8.121   8.283 -1.1388  1.0661 -1.7992
  798MOL0     H10097  11.352   8.294   8.263  1.8734 -0.1278 -4.5690
  798MOL0     H10098  11.606   8.122   8.271 -1.1749  0.1609  1.6300
  798MOL0     H10099  11.596   8.298   8.212 -2.6130  1.2393 -3.4584
  798MOL0     H10100  11.461   8.221   8.020 -2.1255 -2.4160  1.1519
  798MOL0     H10101  11.487   8.060   8.070  1.5820 -0.4837 -1.3706
  798MOL0     H10102  11.747   8.107   8.060 -1.0690  1.1323  4.5415
  798MOL0     H10103  11.707   8.267   8.009 -0.5743  0.7729  2.4559
  798MOL0     H10104  11.274   7.775   8.725  0.0380 -0.9151 -0.8455
  798MOL0     H10105  11.224   7.579   8.890  0.8348 -0.5775  1.7086
  798MOL0     H10106  11.178   7.478   9.425 -1.1252  1.1468 -1.1571
  798MOL0     H10107  11.237   7.296   9.550  1.8259 -4.5104  1.2876
  798MOL0     H10108  10.643   6.165  10.313  0.9932  1.8450  0.6097
  798MOL0     H10109  10.454   6.226  10.466 -0.3905 -0.6024  0.1348
  798MOL0     H10110  10.222   6.436  10.866 -1.6835  0.6592 -0.2220
  798MOL0     H10111  10.058   6.412  11.063 -2.0288 -0.0818 -1.3094
  798MOL0     H10112   9.926   6.220  11.350  2.4770 -1.6553 -0.4063
  798MOL0     H10113  10.049   6.326  11.280  0.1225  1.0728 -1.9329
  798MOL0     H10114   9.758   6.313  11.195  0.4543 -0.1022 -1.9176
  798MOL0     H10115   9.871   6.431  11.133  0.2061 -1.0419 -1.0703
  798MOL0     H10116   9.892   6.575  11.305 -1.0082  0.3318 -3.5423
  798MOL0     H10117   9.729   6.534  11.279 -0.2917 -0.4212  1.1538
  798MOL0     H10118   9.891   6.428  11.534  0.6332  1.8996 -0.3039
  798MOL0     H10119   9.776   6.338  11.459  0.0004 -1.0260 -2.1215
  798MOL0     H10120   9.557   6.642  11.670 -1.2703 -3.5063  1.4385
  798MOL0     H10121  10.048   5.995  11.003  1.4777 -0.6489  0.8838
  798MOL0     H10122  10.217   5.961  10.698  1.2329 -3.1455 -0.3300
  798MOL0     H10123  10.342   5.949  10.818 -0.2235  1.5411  1.6469
  798MOL0     H10124  10.181   5.881  10.845 -1.0915  0.2842 -2.4861
  799MOL0     O10125   4.758   0.553   3.059  0.1326 -0.5192  0.0786
  799MOL0     C10126   4.698   0.528   2.954 -0.0363 -0.1330 -0.8789
  799MOL0     O10127   4.565   0.519   2.941  0.0527  0.5124  0.5249
  799MOL0     C10128   4.484   0.553   3.044 -1.1181  0.2311  0.3475
  799MOL0     C10129   4.455   0.473   3.144  0.6231  0.8935  0.1015
  799MOL0     C10130   4.367   0.507   3.247  0.3687 -0.6559 -0.2351
  799MOL0     C10131   4.318   0.637   3.241  1.1403 -1.1746  0.9067
  799MOL0     O10132   4.214   0.680   3.334  0.8169 -0.1850  0.0756
  799MOL0     C10133   4.259   0.723   3.463  0.1124 -0.6473  0.7495
  799MOL0     C10134   4.238   0.605   3.560 -0.7783 -1.1414  0.5613
  799MOL0     C10135   4.222   0.652   3.708 -0.6130  0.3231 -0.3303
  799MOL0     C10136   4.131   0.559   3.796  0.1029 -0.3073  0.3135
  799MOL0     C10137   4.083   0.639   3.919  0.9420  0.5058 -1.0770
  799MOL0     C10138   4.190   0.614   4.021 -0.4900 -0.1550  0.6663
  799MOL0     C10139   4.168   0.689   4.152 -0.0761 -0.6092 -0.6493
  799MOL0     C10140   4.045   0.629   4.235  0.7617 -0.0263 -1.1520
  799MOL0     N10141   4.038   0.688   4.372  0.9231  0.2791 -0.5275
  799MOL0     C10142   4.146   0.720   4.452 -0.4348 -0.6597  0.3583
  799MOL0     C10143   4.089   0.767   4.567  0.1141  0.3486 -0.0660
  799MOL0     C10144   4.161   0.809   4.690  0.9762 -0.4115 -0.9710
  799MOL0     C10145   4.065   0.890   4.784  1.7684 -0.5869  0.6287
  799MOL0     C10146   4.139   0.909   4.919 -0.4655  0.7720 -0.4299
  799MOL0     C10147   4.068   0.995   5.022 -0.3425  0.3850  0.4840
  799MOL0     O10148   4.171   1.029   5.122  0.1964 -0.7774  0.2363
  799MOL0     C10149   4.141   1.103   5.231  0.0802 -0.7341 -0.7298
  799MOL0     C10150   4.251   1.128   5.317 -0.7019 -0.5591 -0.1069
  799MOL0     C10151   4.239   1.197   5.442 -0.4177  0.5987  1.1071
  799MOL0     C10152   4.375   1.223   5.508 -0.0143 -0.1792  0.9816
  799MOL0     C10153   4.109   1.243   5.484  0.5152 -0.3818  0.1220
  799MOL0     C10154   4.084   1.308   5.609  0.9404  0.1551 -0.8911
  799MOL0     O10155   4.175   1.310   5.717 -0.8481  0.3199  0.7764
  799MOL0     C10156   4.126   1.345   5.842  0.0999 -0.3994  0.0223
  799MOL0     C10157   4.015   1.429   5.875  0.8661 -0.1159 -0.6085
  799MOL0     C10158   3.969   1.440   6.008 -0.3061 -0.1169 -0.5344
  799MOL0     C10159   4.038   1.377   6.114 -0.5884 -0.0012  0.3712
  799MOL0     O10160   3.988   1.404   6.242  0.1329 -0.0168  0.3035
  799MOL0     C10161   4.042   1.337   6.355  0.8722 -0.1837  0.3579
  799MOL0     C10162   3.979   1.379   6.490  1.6876  0.3703  0.1054
  799MOL0     C10163   3.857   1.304   6.520 -0.4690  0.4499 -0.3108
  799MOL0     C10164   3.874   1.206   6.639 -0.2274  0.5814  0.6429
  799MOL0     C10165   3.962   1.094   6.606  0.2074  0.5275  0.0648
  799MOL0     C10166   3.969   0.999   6.729  0.7423 -0.6455 -0.7478
  799MOL0     C10167   4.080   0.899   6.703 -0.7751  0.2520 -0.2073
  799MOL0     C10168   4.092   0.789   6.816 -0.5615  0.2910  0.4736
  799MOL0    Cl10169   4.231   0.673   6.787 -0.2629  0.1961 -0.2101
  799MOL0     C10170   4.158   1.307   6.089 -0.4706  0.5202  0.7073
  799MOL0     C10171   4.197   1.281   5.950 -0.5401 -0.1901 -0.1608
  799MOL0     O10172   3.977   1.367   5.614  0.5193 -0.2623 -0.5233
  799MOL0     C10173   4.003   1.219   5.396 -0.5637 -0.8677  0.8085
  799MOL0     C10174   4.014   1.161   5.268 -0.1029 -0.7990 -0.8502
  799MOL0     N10175   3.951   0.756   4.555  0.9622 -1.1439 -0.2058
  799MOL0     N10176   3.921   0.729   4.434 -0.4319  0.3265 -0.4132
  799MOL0     C10177   4.342   0.721   3.130  0.4847 -0.7796  0.7314
  799MOL0     C10178   4.428   0.678   3.032  0.0699 -0.2795  0.4905
  799MOL0     C10179   4.759   0.525   2.818  1.2684  0.0660  0.3057
  799MOL0     C10180   4.681   0.563   2.705 -0.3587  0.0461 -0.0477
  799MOL0     C10181   4.732   0.553   2.572 -0.3472  0.6492  0.5027
  799MOL0     C10182   4.866   0.521   2.555  0.8751 -1.6116  0.3428
  799MOL0     O10183   4.894   0.510   2.432  0.3897  0.5882  0.5040
  799MOL0     C10184   4.942   0.635   2.377  0.1361 -0.0683 -0.5375
  799MOL0     C10185   4.935   0.625   2.230 -0.2645 -0.4696  0.2677
  799MOL0     C10186   4.784   0.622   2.177 -0.2655 -0.4747 -0.1362
  799MOL0     C10187   4.778   0.605   2.025  0.1202  0.0760  0.5141
  799MOL0     C10188   4.646   0.651   1.989 -0.3214 -0.2680  1.1277
  799MOL0     C10189   4.537   0.712   1.985 -0.2554 -0.5897 -0.6935
  799MOL0     C10190   4.945   0.496   2.662  1.2719  0.0550 -1.1869
  799MOL0     C10191   4.892   0.495   2.794 -0.5009  0.1387 -0.4488
  799MOL0     C10192   4.995   0.467   2.891 -0.4558 -0.1853  0.9985
  799MOL0     H10193   4.494   0.372   3.150 -3.2481 -0.8963 -1.2085
  799MOL0     H10194   4.342   0.443   3.331 -1.9805  0.9206  0.3800
  799MOL0     H10195   4.205   0.813   3.495  3.8053  1.5543  1.3745
  799MOL0     H10196   4.367   0.739   3.471  0.4586 -2.0759 -0.7019
  799MOL0     H10197   4.148   0.556   3.521 -0.9057 -0.3293 -0.2117
  799MOL0     H10198   4.320   0.534   3.547  0.4594  0.2249  0.5170
  799MOL0     H10199   4.322   0.649   3.751 -1.3450  1.6254  1.5631
  799MOL0     H10200   4.180   0.753   3.716  0.1364  0.4993  1.9997
  799MOL0     H10201   4.039   0.534   3.742  0.2672  3.2353 -1.9574
  799MOL0     H10202   4.181   0.466   3.826  0.0645 -0.9017 -1.3213
  799MOL0     H10203   3.994   0.592   3.963  1.6661  1.6206  1.7186
  799MOL0     H10204   4.069   0.746   3.903  1.7309  0.9722  1.1562
  799MOL0     H10205   4.218   0.508   4.030 -1.1210 -0.5127 -1.2565
  799MOL0     H10206   4.278   0.652   3.969 -1.2384 -1.5104 -1.7433
  799MOL0     H10207   4.138   0.788   4.117  0.2465 -1.2401 -2.8537
  799MOL0     H10208   4.259   0.698   4.213  2.0251 -2.4325 -3.2905
  799MOL0     H10209   3.944   0.643   4.194  0.1757 -1.4342 -0.2765
  799MOL0     H10210   4.066   0.525   4.259  1.8445  0.6717  1.2160
  799MOL0     H10211   4.252   0.704   4.433  0.5207  1.7715  2.9982
  799MOL0     H10212   4.252   0.867   4.668  0.9947 -0.8505 -2.1549
  799MOL0     H10213   4.199   0.723   4.746  0.3625 -0.5614 -0.7799
  799MOL0     H10214   4.029   0.983   4.738 -0.0536 -1.2032  0.6940
  799MOL0     H10215   3.965   0.846   4.794 -1.3477  5.0780 -1.1359
  799MOL0     H10216   4.147   0.808   4.960  0.1534  0.2452 -1.7790
  799MOL0     H10217   4.245   0.934   4.919  0.3628 -1.6884  4.0751
  799MOL0     H10218   4.030   1.088   4.980 -0.7515 -1.5142 -3.8264
  799MOL0     H10219   3.992   0.935   5.072  1.4492 -1.7797  0.8042
  799MOL0     H10220   4.344   1.081   5.285 -0.2648 -1.5091  2.3263
  799MOL0     H10221   4.389   1.154   5.592 -1.7619 -1.6873  0.1098
  799MOL0     H10222   4.385   1.326   5.545  0.2585  0.4203 -0.7061
  799MOL0     H10223   4.453   1.198   5.436  0.5822 -0.1332  1.6047
  799MOL0     H10224   3.956   1.495   5.812 -1.2635  0.9166  2.2611
  799MOL0     H10225   3.885   1.500   6.042  2.3590  1.8573  3.2662
  799MOL0     H10226   4.025   1.229   6.344  3.9571 -0.5362 -2.6187
  799MOL0     H10227   4.149   1.359   6.354  0.9811 -0.7037 -0.6598
  799MOL0     H10228   4.049   1.368   6.574 -0.1136  1.4819  1.8282
  799MOL0     H10229   3.963   1.486   6.503  2.9265  0.4214  1.4086
  799MOL0     H10230   3.813   1.248   6.437 -1.3333 -0.9060  1.0077
  799MOL0     H10231   3.780   1.375   6.553  1.0552  0.6185  3.2725
  799MOL0     H10232   3.776   1.177   6.677  1.3540 -0.1086  4.6499
  799MOL0     H10233   3.910   1.265   6.724 -1.0060  1.0213  0.6783
  799MOL0     H10234   3.929   1.030   6.523 -1.9991 -0.3002  1.5076
  799MOL0     H10235   4.060   1.133   6.577  0.2615 -0.3847 -1.0539
  799MOL0     H10236   3.871   0.951   6.732  0.2928  0.0805 -2.4007
  799MOL0     H10237   3.985   1.048   6.825 -0.8148  0.0422 -0.8062
  799MOL0     H10238   4.175   0.952   6.713  0.2346 -1.2445 -1.2647
  799MOL0     H10239   4.069   0.847   6.607 -1.2889 -2.4657  1.2154
  799MOL0     H10240   4.005   0.724   6.808 -0.1801 -0.0796 -1.0866
  799MOL0     H10241   4.108   0.823   6.919 -1.3833  0.5150  0.5328
  799MOL0     H10242   4.219   1.264   6.167 -1.0893  0.2536  1.0456
  799MOL0     H10243   4.284   1.216   5.943 -1.2714 -2.3631  5.6243
  799MOL0     H10244   3.907   1.264   5.420  0.6802  1.6912  1.3020
  799MOL0     H10245   3.929   1.166   5.201  0.7872 -0.3813 -1.9882
  799MOL0     H10246   4.300   0.821   3.118 -2.0600 -1.6959  1.4000
  799MOL0     H10247   4.454   0.746   2.951  0.1429 -0.1020  0.6613
  799MOL0     H10248   4.582   0.604   2.719  0.0693  1.2355 -0.3803
  799MOL0     H10249   4.680   0.563   2.477 -1.1714 -6.0539 -0.2603
  799MOL0     H10250   4.886   0.719   2.419 -1.3889 -1.9147  1.2788
  799MOL0     H10251   5.045   0.640   2.413 -1.0999 -1.2184  3.7206
  799MOL0     H10252   4.975   0.528   2.202 -0.3450  0.0460 -1.8455
  799MOL0     H10253   5.002   0.695   2.179  3.1516 -2.1465  2.1243
  799MOL0     H10254   4.730   0.551   2.239  0.2846  1.5508  2.9266
  799MOL0     H10255   4.741   0.719   2.205 -2.5613 -0.9373 -1.7677
  799MOL0     H10256   4.797   0.501   1.995  1.2917  0.7895 -1.3540
  799MOL0     H10257   4.845   0.677   1.977 -2.2894  0.7771 -2.1293
  799MOL0     H10258   4.447   0.769   1.994 -1.0713 -1.7283 -1.3747
  799MOL0     H10259   5.043   0.467   2.628  1.2527 -1.5621  0.0283
  799MOL0     H10260   5.022   0.367   2.925  0.4787 -1.6305 -3.2571
  799MOL0     H10261   5.094   0.486   2.847 -1.8033 -0.1757 -2.3356
  799MOL0     H10262   4.991   0.533   2.977 -3.5661 -0.3971  1.1245
  800MOL0     O10263   5.076   0.543   8.447 -0.4006 -0.3246  0.1337
  800MOL0     C10264   5.014   0.523   8.349  0.4450  1.0007  0.2911
  800MOL0     O10265   4.964   0.403   8.314 -0.6342 -0.0586 -0.3843
  800MOL0     C10266   4.954   0.296   8.405  0.9835  0.1061 -0.3027
  800MOL0     C10267   5.051   0.191   8.424 -0.2776 -0.0390 -0.2453
  800MOL0     C10268   5.006   0.077   8.499  0.7025  0.6180  1.0035
  800MOL0     C10269   4.891   0.076   8.584  0.3743  0.3402  0.2222
  800MOL0     O10270   4.858  -0.044   8.655  0.4466  0.3530  0.2725
  800MOL0     C10271   4.745  -0.040   8.747 -0.3399 -1.1588 -0.7887
  800MOL0     C10272   4.736  -0.141   8.855  0.2835  1.0375  0.2644
  800MOL0     C10273   4.638  -0.099   8.971  0.0944  0.8187 -0.0473
  800MOL0     C10274   4.673  -0.188   9.092 -0.7010 -0.4632 -0.8629
  800MOL0     C10275   4.642  -0.117   9.220  0.7286 -0.7492 -0.1930
  800MOL0     C10276   4.488  -0.144   9.242 -0.1607 -1.0256 -0.5026
  800MOL0     C10277   4.435  -0.064   9.355  0.6840  0.0635 -0.6021
  800MOL0     C10278   4.460  -0.101   9.494 -0.6327 -0.4032 -0.1346
  800MOL0     N10279   4.420  -0.232   9.541 -0.0784 -0.3099 -0.3194
  800MOL0     C10280   4.495  -0.310   9.622 -1.2236  0.9355  0.7415
  800MOL0     C10281   4.423  -0.419   9.637 -0.1956  0.0726  0.6144
  800MOL0     C10282   4.459  -0.535   9.731  0.4278  0.3692  0.3470
  800MOL0     C10283   4.335  -0.630   9.736  0.4006  0.0134 -0.5822
  800MOL0     C10284   4.357  -0.756   9.815  0.2229 -0.0997  0.0543
  800MOL0     C10285   4.231  -0.850   9.789  0.9228  0.5707 -0.8377
  800MOL0     O10286   4.111  -0.783   9.844  0.4466  0.7475  0.2238
  800MOL0     C10287   3.998  -0.851   9.815 -0.2418  1.1760  0.7643
  800MOL0     C10288   3.884  -0.803   9.875  1.0228  0.6704  0.7047
  800MOL0     C10289   3.757  -0.842   9.846  0.3049  0.0550 -0.4171
  800MOL0     C10290   3.647  -0.771   9.918 -0.5417 -0.4412 -0.4909
  800MOL0     C10291   3.738  -0.958   9.751 -0.4888  0.4240  0.4000
  800MOL0     C10292   3.613  -1.034   9.707 -0.8731  0.5278  1.3524
  800MOL0     O10293   3.501  -0.996   9.770 -0.3371 -1.1077 -0.1721
  800MOL0     C10294   3.383  -1.055   9.747 -0.0870 -0.0275  0.0902
  800MOL0     C10295   3.268  -0.975   9.765 -0.6355  1.4095  0.2630
  800MOL0     C10296   3.140  -1.033   9.726 -0.0431  0.2014 -0.2447
  800MOL0     C10297   3.120  -1.166   9.695 -1.0423 -0.9505 -0.6082
  800MOL0     O10298   2.990  -1.217   9.680 -1.0722  0.1511  0.1878
  800MOL0     C10299   2.965  -1.354   9.700 -0.5976  0.2422  0.0985
  800MOL0     C10300   2.926  -1.415   9.568 -0.3862  0.0913 -0.3313
  800MOL0     C10301   2.784  -1.380   9.537  0.8858  0.5749  0.5170
  800MOL0     C10302   2.724  -1.429   9.402  0.0218  0.2226 -0.8049
  800MOL0     C10303   2.570  -1.440   9.392  0.2409 -0.0475 -1.1731
  800MOL0     C10304   2.530  -1.505   9.257 -0.5947  0.4121 -0.4641
  800MOL0     C10305   2.383  -1.502   9.250  0.8095 -0.0351  1.5471
  800MOL0     C10306   2.336  -1.565   9.114  0.2453 -0.5448 -0.1973
  800MOL0    Cl10307   2.371  -1.443   8.979 -0.7572  0.4489  0.2911
  800MOL0     C10308   3.244  -1.247   9.688  0.6052 -0.4754 -0.6800
  800MOL0     C10309   3.373  -1.191   9.715  0.2341  0.5929 -0.1872
  800MOL0     O10310   3.618  -1.101   9.605  0.3978  0.8382  0.0984
  800MOL0     C10311   3.861  -1.002   9.697  0.1595  0.6347 -0.1244
  800MOL0     C10312   3.980  -0.958   9.729 -0.7040 -0.1694 -0.3703
  800MOL0     N10313   4.307  -0.414   9.550 -0.1249  0.3328 -0.8730
  800MOL0     N10314   4.328  -0.304   9.475 -0.2474  0.2521 -0.1646
  800MOL0     C10315   4.814   0.201   8.582  0.6059  1.0580 -0.4614
  800MOL0     C10316   4.834   0.293   8.482 -0.4482 -0.5077 -0.5759
  800MOL0     C10317   4.975   0.638   8.268  0.3659  1.0130 -1.0954
  800MOL0     C10318   5.005   0.634   8.130  0.8790  0.3175 -0.7357
  800MOL0     C10319   5.002   0.745   8.049  0.0923 -0.1191 -0.8821
  800MOL0     C10320   4.965   0.863   8.104 -0.1291 -0.6473 -0.5735
  800MOL0     O10321   4.963   0.971   8.014 -0.1186  0.3977 -1.1358
  800MOL0     C10322   4.923   1.102   8.056  0.2957  0.2500 -0.2695
  800MOL0     C10323   4.948   1.188   7.934  0.5320 -0.2004 -1.0640
  800MOL0     C10324   4.841   1.295   7.921 -0.6096  0.5891  0.4168
  800MOL0     C10325   4.876   1.388   7.804  0.3382  0.2733 -0.0353
  800MOL0     C10326   4.986   1.481   7.841 -0.4847  0.2946 -0.4608
  800MOL0     C10327   5.084   1.539   7.873 -1.0088  0.5956 -0.9580
  800MOL0     C10328   4.924   0.870   8.233 -0.3473  0.1221  1.0363
  800MOL0     C10329   4.931   0.761   8.321  0.6591 -0.5407 -1.2986
  800MOL0     C10330   4.883   0.783   8.466 -0.3248  0.0919 -0.6013
  800MOL0     H10331   5.148   0.187   8.376 -0.4947  3.0515 -1.1483
  800MOL0     H10332   5.077  -0.004   8.483 -0.1339  0.3279 -1.8009
  800MOL0     H10333   4.659  -0.048   8.680  0.0911  0.1273 -1.5207
  800MOL0     H10334   4.751   0.056   8.799  1.4069 -1.7863  0.2490
  800MOL0     H10335   4.701  -0.234   8.808  1.5815  1.0249 -0.7481
  800MOL0     H10336   4.836  -0.156   8.895  0.7138 -0.2811 -1.2004
  800MOL0     H10337   4.667   0.005   8.993 -2.5751  1.8701 -1.1110
  800MOL0     H10338   4.534  -0.099   8.938 -0.2792 -1.8394  0.9390
  800MOL0     H10339   4.621  -0.283   9.080  1.1978 -1.5082 -1.2386
  800MOL0     H10340   4.779  -0.211   9.106 -0.8144 -0.3122  0.2870
  800MOL0     H10341   4.667  -0.011   9.206  2.0425 -1.0647 -0.3322
  800MOL0     H10342   4.704  -0.154   9.301 -1.2813 -3.1047  0.4005
  800MOL0     H10343   4.431  -0.112   9.154 -5.0712 -3.2475  1.5020
  800MOL0     H10344   4.465  -0.249   9.263  1.6979 -1.4981 -0.6508
  800MOL0     H10345   4.327  -0.079   9.351  0.8702 -1.7725  0.3908
  800MOL0     H10346   4.469   0.040   9.350  2.2022 -0.4106 -0.9669
  800MOL0     H10347   4.565  -0.081   9.513 -1.0010  1.2429  0.2858
  800MOL0     H10348   4.399  -0.033   9.554  2.1670  2.2823 -0.0918
  800MOL0     H10349   4.595  -0.297   9.663 -1.6079  2.2591  1.3104
  800MOL0     H10350   4.499  -0.504   9.828  2.7631 -5.7994  1.8310
  800MOL0     H10351   4.537  -0.596   9.685 -0.8229 -1.5482  0.6373
  800MOL0     H10352   4.249  -0.572   9.769  2.0752  3.0747 -1.1859
  800MOL0     H10353   4.323  -0.648   9.628  1.0168 -0.2571 -0.6092
  800MOL0     H10354   4.444  -0.812   9.781 -0.6364 -0.3064 -1.9118
  800MOL0     H10355   4.378  -0.729   9.919  0.2418 -0.5598  0.1715
  800MOL0     H10356   4.225  -0.874   9.683 -1.1754 -1.3006 -0.3709
  800MOL0     H10357   4.252  -0.941   9.846 -0.1958 -1.0629 -2.9017
  800MOL0     H10358   3.884  -0.718   9.942 -2.3884  0.0713  1.6182
  800MOL0     H10359   3.676  -0.667   9.906  0.7418 -0.3766  2.3321
  800MOL0     H10360   3.633  -0.809  10.020  1.0012 -0.8399 -0.4073
  800MOL0     H10361   3.548  -0.786   9.874 -1.2807  2.2988  0.0859
  800MOL0     H10362   3.286  -0.873   9.796  1.2024  1.3539 -0.4813
  800MOL0     H10363   3.052  -0.970   9.736 -0.4228  0.0606 -2.2636
  800MOL0     H10364   3.046  -1.410   9.747 -0.0856  0.8213 -0.0807
  800MOL0     H10365   2.877  -1.363   9.764 -1.8630 -0.1291 -1.6099
  800MOL0     H10366   2.992  -1.378   9.489 -0.0205  1.6771  0.6629
  800MOL0     H10367   2.928  -1.524   9.574  3.0702  0.0299 -0.4800
  800MOL0     H10368   2.774  -1.271   9.537  1.5151  0.6383  0.1313
  800MOL0     H10369   2.721  -1.413   9.619 -0.4439  0.4035 -0.5482
  800MOL0     H10370   2.748  -1.534   9.384 -0.0056  0.2418 -0.9533
  800MOL0     H10371   2.777  -1.369   9.327  3.8145 -2.2139 -0.3778
  800MOL0     H10372   2.534  -1.506   9.471 -3.4121  1.2156 -1.5616
  800MOL0     H10373   2.517  -1.346   9.412 -1.9519 -1.4456 -0.0350
  800MOL0     H10374   2.564  -1.607   9.240 -0.5153  0.3196  0.2230
  800MOL0     H10375   2.576  -1.449   9.174 -1.4713 -0.9629 -1.9452
  800MOL0     H10376   2.355  -1.397   9.254 -1.0352 -0.3623 -0.5139
  800MOL0     H10377   2.322  -1.556   9.324  0.0105  1.5072  2.0620
  800MOL0     H10378   2.233  -1.597   9.097  0.4221 -0.9567 -0.5262
  800MOL0     H10379   2.378  -1.662   9.085  1.4498  0.1322 -0.8303
  800MOL0     H10380   3.218  -1.346   9.654 -5.4619  0.1068  1.0808
  800MOL0     H10381   3.466  -1.245   9.701  1.0361  1.4022  1.6460
  800MOL0     H10382   3.865  -1.092   9.635 -1.9451 -0.8326  1.7116
  800MOL0     H10383   4.063  -1.005   9.678 -0.6953 -0.9809  0.3722
  800MOL0     H10384   4.719   0.209   8.633  0.0569  0.5636 -1.3746
  800MOL0     H10385   4.768   0.379   8.477  1.8973  1.4830  0.7380
  800MOL0     H10386   5.035   0.536   8.094  0.6622  0.2370 -0.6976
  800MOL0     H10387   5.035   0.748   7.945  0.4351  1.3764 -0.7559
  800MOL0     H10388   4.819   1.092   8.088 -0.1855 -0.9880 -2.0714
  800MOL0     H10389   4.978   1.139   8.143  1.6395  2.1577 -1.8259
  800MOL0     H10390   4.948   1.131   7.841  0.9350 -0.6450 -0.7917
  800MOL0     H10391   5.051   1.219   7.954  0.1101 -0.5725  2.2283
  800MOL0     H10392   4.753   1.239   7.889  0.5694 -1.4828  0.6716
  800MOL0     H10393   4.822   1.355   8.011  1.5606 -0.9586  2.0082
  800MOL0     H10394   4.790   1.447   7.770 -0.7412 -1.4553 -0.4000
  800MOL0     H10395   4.924   1.330   7.725  0.2010  1.7423 -1.2472
  800MOL0     H10396   5.178   1.587   7.895  0.2133 -1.7565 -0.7816
  800MOL0     H10397   4.884   0.966   8.265 -0.9511 -1.2903  5.1111
  800MOL0     H10398   4.824   0.699   8.503 -2.4623  2.0803  0.8165
  800MOL0     H10399   4.965   0.804   8.535 -1.7542 -0.4145  1.3219
  800MOL0     H10400   4.809   0.862   8.480  0.5424  1.4699 -3.1451
  801MOL0     O10401   4.683   9.498   2.846 -0.4998 -0.1433  0.0461
  801MOL0     C10402   4.709   9.406   2.920  0.2732 -0.3387  0.0084
  801MOL0     O10403   4.671   9.279   2.900 -0.0082 -0.5231  0.4731
  801MOL0     C10404   4.606   9.247   2.783 -0.3800  0.0541 -1.4402
  801MOL0     C10405   4.694   9.234   2.668  0.1895 -0.3536 -0.0650
  801MOL0     C10406   4.631   9.184   2.553 -0.7496  1.1994 -0.8568
  801MOL0     C10407   4.490   9.162   2.541  0.4888  0.4830 -0.3061
  801MOL0     O10408   4.429   9.095   2.439 -0.1909  0.5434  0.2951
  801MOL0     C10409   4.482   9.105   2.305 -0.5804  0.5839 -0.1250
  801MOL0     C10410   4.364   9.079   2.216 -1.0802 -1.0934 -1.0831
  801MOL0     C10411   4.345   8.929   2.180 -0.1510 -0.2677  0.2883
  801MOL0     C10412   4.437   8.905   2.063  1.4608 -0.1579  0.0743
  801MOL0     C10413   4.394   8.777   2.000  0.3418  0.5628 -0.5941
  801MOL0     C10414   4.497   8.723   1.907  0.2344  0.0564  0.1821
  801MOL0     C10415   4.459   8.749   1.764 -0.0204 -0.1491  0.1869
  801MOL0     C10416   4.483   8.895   1.730  0.6197  0.0373 -0.4573
  801MOL0     N10417   4.466   8.931   1.583  0.1935  0.7354  0.3027
  801MOL0     C10418   4.363   8.887   1.496 -0.0844  0.5917  0.3848
  801MOL0     C10419   4.431   8.901   1.378  0.4647 -0.3100  1.0548
  801MOL0     C10420   4.380   8.855   1.241  0.5836  0.0917 -1.1957
  801MOL0     C10421   4.417   8.707   1.213 -0.2690  0.7936 -0.1229
  801MOL0     C10422   4.564   8.670   1.188  0.3002  0.3433  0.5234
  801MOL0     C10423   4.645   8.771   1.111  0.9194  0.2475 -0.0023
  801MOL0     O10424   4.760   8.703   1.060  0.6416  0.3283 -0.1143
  801MOL0     C10425   4.864   8.671   1.138 -0.0155 -0.0230  0.1752
  801MOL0     C10426   4.951   8.578   1.093  0.3087  0.0120  0.5375
  801MOL0     C10427   5.057   8.530   1.177 -0.1099  0.3153  0.7581
  801MOL0     C10428   5.150   8.440   1.102 -1.2179 -0.3506 -0.0297
  801MOL0     C10429   5.071   8.576   1.308  0.1847 -0.2086 -0.7266
  801MOL0     C10430   5.176   8.551   1.404 -0.8904 -0.0349 -0.3347
  801MOL0     O10431   5.155   8.592   1.530 -0.7665 -0.2988  0.5655
  801MOL0     C10432   5.256   8.639   1.608 -0.1234  0.5857 -0.4308
  801MOL0     C10433   5.377   8.685   1.555  0.5691  0.6971 -0.5744
  801MOL0     C10434   5.479   8.737   1.641  0.2212 -0.2756 -0.3082
  801MOL0     C10435   5.462   8.738   1.779 -0.4709 -1.2191 -0.2631
  801MOL0     O10436   5.560   8.787   1.856  0.8377 -0.1264  0.6053
  801MOL0     C10437   5.624   8.686   1.925  0.1887 -0.0060 -0.4808
  801MOL0     C10438   5.769   8.737   1.959  0.9453 -0.3197  0.2485
  801MOL0     C10439   5.858   8.623   2.002 -0.2379 -0.4118 -0.2576
  801MOL0     C10440   5.975   8.693   2.084 -0.2600  0.2557  0.5472
  801MOL0     C10441   5.937   8.677   2.232 -0.7582  0.0662 -0.5414
  801MOL0     C10442   6.032   8.754   2.329  0.3216  0.7349 -0.1360
  801MOL0     C10443   6.005   8.716   2.485 -0.9038  0.5893  0.0439
  801MOL0     C10444   5.863   8.734   2.520  0.7382  0.4035 -0.9254
  801MOL0    Cl10445   5.801   8.899   2.506  0.2027  0.1449 -0.0243
  801MOL0     C10446   5.342   8.693   1.829  0.2594  0.6495  0.2280
  801MOL0     C10447   5.240   8.640   1.743  0.6272 -0.1987  0.7971
  801MOL0     O10448   5.269   8.477   1.371 -0.4679 -0.7097  0.1726
  801MOL0     C10449   4.990   8.685   1.340 -0.4990 -0.2340 -0.3296
  801MOL0     C10450   4.893   8.737   1.262  0.3729 -0.1390 -0.0639
  801MOL0     N10451   4.541   8.985   1.384 -0.3344  0.3403  0.0959
  801MOL0     N10452   4.568   8.997   1.510 -0.1013 -0.0233  0.6545
  801MOL0     C10453   4.410   9.209   2.644 -0.4184  1.0663 -0.3089
  801MOL0     C10454   4.466   9.237   2.767  0.3731 -0.2825  0.3594
  801MOL0     C10455   4.789   9.434   3.038  0.5595 -0.7405  0.8510
  801MOL0     C10456   4.726   9.497   3.150 -0.2693 -0.6222  0.1079
  801MOL0     C10457   4.795   9.513   3.274  0.1007  0.0636  0.7229
  801MOL0     C10458   4.922   9.458   3.280 -0.4593  0.5090  0.2819
  801MOL0     O10459   4.998   9.443   3.390 -0.7709  0.2850  0.3294
  801MOL0     C10460   4.927   9.446   3.517 -0.8283  0.1493 -1.1868
  801MOL0     C10461   5.040   9.422   3.625  0.0275  0.2371 -0.2595
  801MOL0     C10462   5.116   9.295   3.605 -0.3595  0.4809 -0.2516
  801MOL0     C10463   5.235   9.306   3.501  0.5116  0.5330 -0.1140
  801MOL0     C10464   5.320   9.183   3.513 -0.0109  1.3343  0.4012
  801MOL0     C10465   5.389   9.088   3.522 -0.2721  0.2526  0.3375
  801MOL0     C10466   4.981   9.390   3.176  0.3541  0.9350 -0.5823
  801MOL0     C10467   4.917   9.383   3.050  0.6860  0.0688 -0.2096
  801MOL0     C10468   4.999   9.313   2.943  0.0354 -0.7604 -0.4951
  801MOL0     H10469   4.795   9.273   2.670  1.3716 -3.1595 -0.7989
  801MOL0     H10470   4.688   9.155   2.465 -3.7919 -1.3614 -2.1914
  801MOL0     H10471   4.562   9.032   2.290 -0.9042  0.1243  0.3465
  801MOL0     H10472   4.517   9.207   2.289  1.3745  0.2505  1.6330
  801MOL0     H10473   4.274   9.112   2.268  1.3597 -0.2605  3.0043
  801MOL0     H10474   4.380   9.141   2.127 -0.9713  3.5789  1.8471
  801MOL0     H10475   4.330   8.865   2.268 -0.7597  1.8112  1.7803
  801MOL0     H10476   4.245   8.937   2.136 -0.1637  3.1869  0.6567
  801MOL0     H10477   4.431   8.984   1.987  1.3706 -1.7087 -1.5925
  801MOL0     H10478   4.535   8.903   2.110  0.5317  2.9317  2.4335
  801MOL0     H10479   4.298   8.788   1.948 -0.2920 -0.7210  0.2421
  801MOL0     H10480   4.397   8.718   2.091  3.4919 -0.2382 -1.1093
  801MOL0     H10481   4.590   8.777   1.926  1.2517 -1.5224 -0.1124
  801MOL0     H10482   4.508   8.616   1.927 -2.2192 -0.0488  1.3812
  801MOL0     H10483   4.353   8.731   1.748 -0.1442  2.0688 -2.3512
  801MOL0     H10484   4.530   8.701   1.696  1.5383 -0.2023  1.7769
  801MOL0     H10485   4.421   8.970   1.780  2.6649  1.5028  0.0338
  801MOL0     H10486   4.583   8.927   1.763 -0.8042  4.0960  0.4959
  801MOL0     H10487   4.273   8.833   1.523 -0.2650 -1.0109 -2.9158
  801MOL0     H10488   4.419   8.930   1.172 -0.3984  0.5203 -1.2933
  801MOL0     H10489   4.271   8.862   1.231  0.2900 -2.3124 -0.4983
  801MOL0     H10490   4.379   8.640   1.291  1.2645 -0.0994 -0.1129
  801MOL0     H10491   4.360   8.678   1.124  0.3118  0.4561 -0.3908
  801MOL0     H10492   4.620   8.661   1.282  1.0512  2.9311  0.3894
  801MOL0     H10493   4.577   8.571   1.144  0.1541 -0.4166  2.1080
  801MOL0     H10494   4.588   8.806   1.025 -0.5178 -4.0789 -1.0924
  801MOL0     H10495   4.658   8.871   1.152  1.6320  0.8915 -1.7273
  801MOL0     H10496   4.939   8.550   0.989 -1.6348  2.2110  0.0958
  801MOL0     H10497   5.092   8.367   1.045 -1.2536  1.0212 -1.8440
  801MOL0     H10498   5.224   8.387   1.162 -0.6769  0.0425 -0.3391
  801MOL0     H10499   5.204   8.500   1.028  0.0391 -2.1342 -0.6139
  801MOL0     H10500   5.400   8.676   1.449  2.2222  0.7989 -0.2573
  801MOL0     H10501   5.570   8.777   1.596  0.4192 -0.4428 -0.0527
  801MOL0     H10502   5.564   8.672   2.015 -0.9282 -0.7262 -1.3035
  801MOL0     H10503   5.641   8.599   1.861  2.3794 -0.1571  0.2486
  801MOL0     H10504   5.805   8.796   1.874 -0.1543  1.2360  0.8104
  801MOL0     H10505   5.754   8.808   2.041 -1.0111 -0.9857  0.4940
  801MOL0     H10506   5.895   8.572   1.912  2.1856  0.9592 -0.1278
  801MOL0     H10507   5.809   8.548   2.065  2.3420 -2.1982 -0.2071
  801MOL0     H10508   5.988   8.800   2.065 -0.2647 -0.2376 -2.8201
  801MOL0     H10509   6.068   8.647   2.051 -0.5660  0.9136 -1.3558
  801MOL0     H10510   5.841   8.729   2.236  0.7248  2.9319  1.5521
  801MOL0     H10511   5.920   8.573   2.261 -2.2867  0.7135  1.0275
  801MOL0     H10512   6.017   8.861   2.315 -0.0845  0.6054 -0.7087
  801MOL0     H10513   6.136   8.729   2.303  1.6662  1.6575  3.7214
  801MOL0     H10514   6.064   8.784   2.547 -1.6441  1.6799 -0.4087
  801MOL0     H10515   6.029   8.612   2.508 -3.3386  0.3633  2.0712
  801MOL0     H10516   5.855   8.706   2.625  0.3294  2.3384 -0.3923
  801MOL0     H10517   5.794   8.666   2.469 -2.1389  0.0490  2.9975
  801MOL0     H10518   5.330   8.705   1.936 -4.6055  3.6057 -0.3333
  801MOL0     H10519   5.144   8.608   1.781 -1.4163  0.3369 -3.3490
  801MOL0     H10520   4.993   8.738   1.435  0.6371 -1.9152  0.6199
  801MOL0     H10521   4.821   8.812   1.291 -0.3189 -1.5724  2.2184
  801MOL0     H10522   4.302   9.202   2.646 -0.3992  0.8783  0.7110
  801MOL0     H10523   4.401   9.262   2.850  1.7118 -0.3385  1.4580
  801MOL0     H10524   4.621   9.516   3.126 -0.2731  1.2177  1.3465
  801MOL0     H10525   4.745   9.560   3.359 -0.0568  1.1631  0.0448
  801MOL0     H10526   4.875   9.539   3.545 -0.5825 -0.6434  2.3442
  801MOL0     H10527   4.855   9.364   3.522 -0.5266 -0.0639 -0.0974
  801MOL0     H10528   4.971   9.406   3.709  1.9960 -1.0740  1.1828
  801MOL0     H10529   5.114   9.500   3.645 -0.3494  0.1880  1.5721
  801MOL0     H10530   5.159   9.264   3.701 -1.3178 -1.1053 -0.2938
  801MOL0     H10531   5.049   9.213   3.576 -0.7192  1.0017 -0.9101
  801MOL0     H10532   5.293   9.391   3.537 -2.0753  2.8435 -0.9601
  801MOL0     H10533   5.182   9.307   3.405  0.7881 -0.8717 -0.3009
  801MOL0     H10534   5.457   9.005   3.518 -2.6207 -1.8098  0.6882
  801MOL0     H10535   5.066   9.337   3.218 -1.4943  0.8268  3.5530
  801MOL0     H10536   4.997   9.203   2.944  2.6776 -0.8588  0.5466
  801MOL0     H10537   4.974   9.360   2.848  3.4100  1.3236 -0.5156
  801MOL0     H10538   5.106   9.330   2.956 -0.3675  1.5921  0.2439
  802MOL0     O10539   1.195   3.880   4.610  0.1334 -0.4363 -0.4291
  802MOL0     C10540   1.133   3.776   4.580 -1.0096  0.3603 -0.3420
  802MOL0     O10541   1.151   3.656   4.629  0.2853  1.1032 -0.4078
  802MOL0     C10542   1.270   3.648   4.706 -0.1082  0.2219  0.3377
  802MOL0     C10543   1.391   3.678   4.652  0.5198  0.4353  0.0540
  802MOL0     C10544   1.508   3.661   4.731 -0.1365  0.0685  0.4904
  802MOL0     C10545   1.505   3.610   4.857 -1.2699 -0.0968 -0.0686
  802MOL0     O10546   1.632   3.588   4.925  0.1170 -0.6226 -0.4808
  802MOL0     C10547   1.648   3.476   5.019 -0.0025  0.0391  0.0214
  802MOL0     C10548   1.657   3.346   4.947  0.5995  0.6307  0.0883
  802MOL0     C10549   1.721   3.234   5.034 -0.8445  0.2715 -0.0464
  802MOL0     C10550   1.749   3.129   4.928  1.2872  0.6613  0.2164
  802MOL0     C10551   1.792   2.993   4.985  0.0933  0.1331 -0.2054
  802MOL0     C10552   1.922   3.006   5.060 -0.1986 -0.6866 -0.6692
  802MOL0     C10553   2.035   3.068   4.972 -0.1531  0.8117  0.2062
  802MOL0     C10554   2.170   3.043   5.035  0.5202 -0.6171  0.6579
  802MOL0     N10555   2.287   3.110   4.982 -0.2899 -0.0018 -0.0878
  802MOL0     C10556   2.321   3.246   4.970 -0.0877 -1.5737 -0.8138
  802MOL0     C10557   2.450   3.240   4.927  0.0476  0.0484 -0.7206
  802MOL0     C10558   2.543   3.367   4.911 -0.2671 -0.0451 -0.4193
  802MOL0     C10559   2.592   3.429   5.043  0.7989 -0.4535 -0.3095
  802MOL0     C10560   2.721   3.524   5.025  0.8787 -0.1167  0.1425
  802MOL0     C10561   2.773   3.580   5.148  0.1346 -0.3719 -0.0503
  802MOL0     O10562   2.674   3.670   5.216  0.2543  0.2092 -0.6420
  802MOL0     C10563   2.701   3.766   5.313 -0.0869 -0.4402  0.5292
  802MOL0     C10564   2.824   3.834   5.328 -0.4611 -0.1002  0.0747
  802MOL0     C10565   2.847   3.919   5.435 -0.8020 -0.5075  0.5099
  802MOL0     C10566   2.983   3.981   5.451 -0.1830  0.5332  0.4194
  802MOL0     C10567   2.743   3.945   5.527  0.7385  0.0674  0.1217
  802MOL0     C10568   2.759   4.025   5.645  0.0254 -0.7164 -0.1945
  802MOL0     O10569   2.862   3.980   5.732  0.1832 -1.1396  0.6953
  802MOL0     C10570   2.897   4.053   5.839  0.7830  0.7651 -0.7335
  802MOL0     C10571   2.851   4.010   5.961 -0.7309 -0.6412 -0.6988
  802MOL0     C10572   2.874   4.087   6.075  0.3883 -0.3064 -0.2784
  802MOL0     C10573   2.963   4.200   6.066 -0.1459  0.3797  1.0506
  802MOL0     O10574   2.985   4.261   6.187 -0.1984 -0.3414  0.5807
  802MOL0     C10575   3.046   4.390   6.186  0.1748  0.7591 -0.1856
  802MOL0     C10576   3.035   4.452   6.332 -0.5940  0.7130 -0.0143
  802MOL0     C10577   2.894   4.477   6.376  0.2482  1.1098 -0.7563
  802MOL0     C10578   2.883   4.531   6.522  0.0712 -1.3529  0.4264
  802MOL0     C10579   2.737   4.544   6.574  0.1804  0.9161 -0.0258
  802MOL0     C10580   2.663   4.657   6.499 -0.1227  0.6540 -0.3909
  802MOL0     C10581   2.531   4.607   6.438  0.5929  0.2004 -0.3374
  802MOL0     C10582   2.461   4.699   6.335 -0.0674 -1.1083 -0.3524
  802MOL0    Cl10583   2.414   4.859   6.413  0.5494  0.2048  0.4033
  802MOL0     C10584   3.003   4.242   5.935 -0.3030  0.4338 -0.2016
  802MOL0     C10585   2.958   4.171   5.822  0.0710 -0.0152  0.4263
  802MOL0     O10586   2.690   4.121   5.675  0.6165 -1.2198 -0.6099
  802MOL0     C10587   2.616   3.901   5.494 -0.6372 -0.1504  0.2038
  802MOL0     C10588   2.601   3.803   5.399 -0.1253 -1.9054 -0.7532
  802MOL0     N10589   2.492   3.109   4.898  0.3764 -0.6720 -0.5000
  802MOL0     N10590   2.395   3.042   4.930  0.8662  0.4349 -0.6188
  802MOL0     C10591   1.386   3.573   4.914 -1.0380  0.6111  0.3446
  802MOL0     C10592   1.269   3.590   4.832 -0.1734 -0.0325 -0.7454
  802MOL0     C10593   1.025   3.803   4.477  0.6390  0.8257 -0.1422
  802MOL0     C10594   1.043   3.917   4.386 -0.4743 -0.7145 -0.0259
  802MOL0     C10595   0.938   3.943   4.290  0.0593  0.6092  0.1500
  802MOL0     C10596   0.835   3.857   4.276  0.2986  0.4759  0.6671
  802MOL0     O10597   0.748   3.890   4.178  0.1319  0.2623 -0.3187
  802MOL0     C10598   0.606   3.915   4.210 -0.1267  0.1892  0.3667
  802MOL0     C10599   0.536   3.944   4.084  0.0994  0.0569  0.1640
  802MOL0     C10600   0.389   3.974   4.115  0.5274  0.6066 -0.1072
  802MOL0     C10601   0.327   4.043   3.985 -0.8671  0.2056 -0.2639
  802MOL0     C10602   0.377   4.185   3.965  1.1802 -0.0279  0.1342
  802MOL0     C10603   0.414   4.300   3.946  0.0646 -0.5106  0.4307
  802MOL0     C10604   0.827   3.742   4.347  0.3668  0.3136  0.2802
  802MOL0     C10605   0.924   3.709   4.448 -0.7713  0.2152 -0.2645
  802MOL0     C10606   0.906   3.576   4.527 -0.9815 -0.3707 -0.1817
  802MOL0     H10607   1.398   3.717   4.551  2.2085 -0.5655 -0.2511
  802MOL0     H10608   1.606   3.690   4.696 -0.5756  0.7619 -0.1856
  802MOL0     H10609   1.566   3.468   5.091 -0.6701  1.0150 -0.5998
  802MOL0     H10610   1.733   3.496   5.086  0.4761 -2.0870  0.1102
  802MOL0     H10611   1.552   3.326   4.925  1.0357  0.0555 -1.7123
  802MOL0     H10612   1.717   3.353   4.856  0.8172 -3.6790 -0.3379
  802MOL0     H10613   1.817   3.260   5.080 -1.6806  0.7529  1.4831
  802MOL0     H10614   1.660   3.187   5.112  1.4613  0.7019  2.1679
  802MOL0     H10615   1.655   3.107   4.876  0.5089 -2.6857  2.7084
  802MOL0     H10616   1.818   3.172   4.854  0.8649  3.9365  1.5314
  802MOL0     H10617   1.806   2.925   4.900  1.0755  0.1334 -0.0572
  802MOL0     H10618   1.712   2.954   5.049  0.4839  0.8259  0.7385
  802MOL0     H10619   1.916   3.071   5.148 -1.5014 -0.4787 -0.8811
  802MOL0     H10620   1.942   2.910   5.108  2.4091  1.2722  2.5464
  802MOL0     H10621   2.022   3.175   4.955 -1.1958  0.8103  0.8962
  802MOL0     H10622   2.031   3.008   4.881 -2.0528 -0.8597  1.3085
  802MOL0     H10623   2.159   3.073   5.140 -1.4527 -2.2242  0.9958
  802MOL0     H10624   2.197   2.937   5.038 -0.5093 -0.8938  0.5031
  802MOL0     H10625   2.266   3.337   4.990  2.3196  0.0406 -1.1445
  802MOL0     H10626   2.498   3.457   4.868  2.8740  2.1252  0.4797
  802MOL0     H10627   2.631   3.335   4.854 -1.6696 -0.2329 -2.6215
  802MOL0     H10628   2.515   3.492   5.088  2.4534  1.2528  0.2554
  802MOL0     H10629   2.621   3.346   5.108  2.7431 -0.4093 -1.0361
  802MOL0     H10630   2.805   3.467   4.983  2.3802  0.7414  1.8797
  802MOL0     H10631   2.689   3.602   4.955 -1.2605  0.1823  1.3633
  802MOL0     H10632   2.804   3.501   5.218  1.7927 -2.3338 -2.8165
  802MOL0     H10633   2.865   3.630   5.118 -0.1669  1.2476  1.5144
  802MOL0     H10634   2.906   3.799   5.266 -1.8832  0.3171 -2.1499
  802MOL0     H10635   3.042   3.900   5.496 -0.9394  1.0598  2.5189
  802MOL0     H10636   2.977   4.076   5.504 -2.2754 -0.3054  1.8025
  802MOL0     H10637   3.034   4.012   5.359 -0.1998  2.7188  1.0869
  802MOL0     H10638   2.785   3.924   5.970 -0.7100 -0.5236  0.6705
  802MOL0     H10639   2.854   4.053   6.176 -0.4116  1.1587  0.0772
  802MOL0     H10640   3.152   4.381   6.160 -0.2166  2.4161 -2.6962
  802MOL0     H10641   2.993   4.451   6.113 -3.1441 -1.8848 -0.2402
  802MOL0     H10642   3.091   4.385   6.398  0.8476  0.6027 -1.2939
  802MOL0     H10643   3.090   4.547   6.330  2.0753 -0.7011  1.1525
  802MOL0     H10644   2.835   4.386   6.359  3.4154 -1.2981  0.1952
  802MOL0     H10645   2.862   4.554   6.305 -0.3513 -1.6476 -3.7373
  802MOL0     H10646   2.923   4.633   6.526 -0.2972 -1.2167  0.7026
  802MOL0     H10647   2.940   4.458   6.581  2.5544  0.8735  0.9848
  802MOL0     H10648   2.677   4.453   6.563 -0.6856  1.6102 -1.3042
  802MOL0     H10649   2.740   4.555   6.683 -1.8183  1.2209  0.0399
  802MOL0     H10650   2.722   4.702   6.419  1.2790 -1.5283 -0.6819
  802MOL0     H10651   2.645   4.735   6.574  0.0614 -1.2548  1.7395
  802MOL0     H10652   2.476   4.558   6.518  1.2666  0.8351  0.5318
  802MOL0     H10653   2.558   4.519   6.378  1.0746 -0.7362  1.2037
  802MOL0     H10654   2.362   4.663   6.303 -0.7592 -1.1676  1.6846
  802MOL0     H10655   2.535   4.708   6.255  0.0256  2.2089 -0.0229
  802MOL0     H10656   3.063   4.333   5.934  1.0068 -0.1900  3.8179
  802MOL0     H10657   2.977   4.206   5.721 -0.6633  0.4379  0.4371
  802MOL0     H10658   2.531   3.931   5.556 -1.5591 -0.2266 -0.9850
  802MOL0     H10659   2.501   3.767   5.377 -1.8300  1.0149  1.6614
  802MOL0     H10660   1.396   3.521   5.009  1.3137  1.6350  0.7122
  802MOL0     H10661   1.180   3.546   4.876  0.6578 -4.0450 -2.6587
  802MOL0     H10662   1.124   3.989   4.378  1.2143 -2.7049 -1.9902
  802MOL0     H10663   0.943   4.034   4.231  0.5172  1.1486  1.0052
  802MOL0     H10664   0.556   3.837   4.268 -2.5778  0.2500 -1.5157
  802MOL0     H10665   0.592   4.002   4.275  0.7403  0.4788  0.1713
  802MOL0     H10666   0.542   3.862   4.012  3.1617  0.8102 -0.5577
  802MOL0     H10667   0.572   4.023   4.017 -1.8864 -0.6360 -1.8779
  802MOL0     H10668   0.335   3.883   4.145  0.0239  1.7409  2.7653
  802MOL0     H10669   0.393   4.041   4.201 -0.8682  0.4352  0.1284
  802MOL0     H10670   0.218   4.045   3.995 -0.6930  1.8530  2.1381
  802MOL0     H10671   0.361   3.984   3.899 -2.3874 -0.7973 -0.2176
  802MOL0     H10672   0.440   4.397   3.909  0.3266 -0.0321  1.8017
  802MOL0     H10673   0.735   3.685   4.336  1.5915 -1.8442  0.5535
  802MOL0     H10674   0.865   3.585   4.628 -1.7872 -3.3806 -0.1410
  802MOL0     H10675   0.833   3.518   4.470 -1.6768  0.5687 -0.2641
  802MOL0     H10676   0.998   3.517   4.537  1.1396  2.1984 -2.7798
  803MOL0     O10677   2.144   6.453   6.369 -0.0639 -0.0810 -0.9115
  803MOL0     C10678   2.165   6.487   6.493 -0.4396  0.7504  0.1446
  803MOL0     O10679   2.075   6.509   6.593  0.1466  0.5054 -0.3745
  803MOL0     C10680   1.952   6.557   6.554  0.4953  0.3582 -0.1024
  803MOL0     C10681   1.845   6.464   6.540  0.5720  0.5330  0.9423
  803MOL0     C10682   1.717   6.511   6.519  0.1618 -1.0673  0.7848
  803MOL0     C10683   1.683   6.646   6.512 -0.3875 -0.1044 -0.2823
  803MOL0     O10684   1.548   6.681   6.507  0.0558 -0.9693  0.6835
  803MOL0     C10685   1.516   6.818   6.473  0.2057  0.2393  0.8683
  803MOL0     C10686   1.367   6.832   6.463 -0.0966  0.1499  0.5929
  803MOL0     C10687   1.310   6.934   6.560 -1.1212 -0.4612  0.4194
  803MOL0     C10688   1.349   7.080   6.521  0.0484 -0.2520 -0.4502
  803MOL0     C10689   1.249   7.190   6.572  0.2191  0.3659  0.9335
  803MOL0     C10690   1.288   7.333   6.550  0.0452 -0.0151  0.5706
  803MOL0     C10691   1.174   7.433   6.574  0.4090  1.0168 -0.2839
  803MOL0     C10692   1.222   7.538   6.667  0.4819 -0.2845  0.2434
  803MOL0     N10693   1.311   7.631   6.593 -0.4530  0.5736  0.6753
  803MOL0     C10694   1.436   7.621   6.544 -1.4920 -1.0528  0.0801
  803MOL0     C10695   1.479   7.743   6.506  0.0601 -0.0605 -0.6020
  803MOL0     C10696   1.616   7.774   6.450  0.6611 -0.0300 -0.4053
  803MOL0     C10697   1.613   7.833   6.311 -0.3237  0.6911  0.2744
  803MOL0     C10698   1.574   7.979   6.296  0.4761  0.2634 -0.5908
  803MOL0     C10699   1.686   8.070   6.348 -0.4933  0.0171  0.7737
  803MOL0     O10700   1.642   8.207   6.329 -0.5308 -0.0184 -0.4488
  803MOL0     C10701   1.734   8.304   6.308  0.2954 -0.5975 -0.2781
  803MOL0     C10702   1.773   8.333   6.183  0.3668  0.3291 -0.2361
  803MOL0     C10703   1.869   8.430   6.160 -0.5015 -0.0363 -0.1292
  803MOL0     C10704   1.905   8.454   6.013 -0.8276  0.5517 -0.4438
  803MOL0     C10705   1.928   8.499   6.273 -0.0797 -0.1052  0.0982
  803MOL0     C10706   2.030   8.602   6.256 -0.0309 -0.0874 -0.7734
  803MOL0     O10707   2.057   8.679   6.370 -0.0138  0.4700  0.5675
  803MOL0     C10708   2.165   8.761   6.376 -0.0069  0.1460  0.4864
  803MOL0     C10709   2.140   8.890   6.428  0.0374  0.5098 -0.3351
  803MOL0     C10710   2.246   8.974   6.443 -0.0578  0.5266 -0.2894
  803MOL0     C10711   2.372   8.936   6.414 -0.3366  0.4617 -1.3934
  803MOL0     O10712   2.481   9.011   6.426 -1.1848  0.3280 -0.5899
  803MOL0     C10713   2.486   9.137   6.501  0.1720  1.4171 -0.3154
  803MOL0     C10714   2.628   9.169   6.524 -0.1658 -0.3963 -0.8218
  803MOL0     C10715   2.646   9.313   6.557  0.2938 -0.4376  0.7255
  803MOL0     C10716   2.550   9.365   6.663 -0.2012 -0.4891  0.1021
  803MOL0     C10717   2.590   9.512   6.693 -0.3013 -0.8511  0.0534
  803MOL0     C10718   2.722   9.544   6.748 -0.7711 -0.2467  0.4272
  803MOL0     C10719   2.736   9.697   6.791  0.1447 -0.1545 -0.1781
  803MOL0     C10720   2.871   9.711   6.853  0.3296  0.1263 -0.2882
  803MOL0    Cl10721   2.999   9.681   6.745  0.0452 -0.3033  0.0628
  803MOL0     C10722   2.401   8.802   6.373  1.0062  0.4232 -0.3928
  803MOL0     C10723   2.293   8.721   6.352  0.2438  0.6542 -0.3210
  803MOL0     O10724   2.091   8.616   6.156 -0.7672 -0.9871  0.7714
  803MOL0     C10725   1.887   8.463   6.404  0.2884  0.5118  0.2422
  803MOL0     C10726   1.790   8.367   6.419 -0.5476 -0.3099 -0.3965
  803MOL0     N10727   1.367   7.829   6.528 -0.2828 -0.9869  0.5166
  803MOL0     N10728   1.267   7.760   6.570 -0.4569  0.1358  0.2341
  803MOL0     C10729   1.789   6.740   6.534  0.0157 -0.2750  0.6487
  803MOL0     C10730   1.922   6.696   6.558 -0.3970 -0.5892  0.7201
  803MOL0     C10731   2.312   6.506   6.528 -1.2017  0.4983  0.5484
  803MOL0     C10732   2.343   6.507   6.665  0.3159 -1.1389  0.5180
  803MOL0     C10733   2.472   6.516   6.722  1.1686  0.3435 -0.6846
  803MOL0     C10734   2.575   6.554   6.642  0.7808  0.6092 -0.2354
  803MOL0     O10735   2.700   6.572   6.685 -0.6524 -0.1520 -0.4352
  803MOL0     C10736   2.734   6.694   6.732 -1.3096 -0.8917 -0.5155
  803MOL0     C10737   2.877   6.750   6.705  0.1885  0.2666 -0.3974
  803MOL0     C10738   2.945   6.694   6.570 -0.4268  0.0126 -0.8973
  803MOL0     C10739   3.088   6.751   6.531  0.4155  0.1136 -0.6444
  803MOL0     C10740   3.068   6.892   6.495 -0.7325  0.1062 -0.1054
  803MOL0     C10741   3.054   7.008   6.499 -0.0998 -0.1791  0.0425
  803MOL0     C10742   2.548   6.558   6.503 -0.0678 -0.0949 -0.4545
  803MOL0     C10743   2.421   6.529   6.440  0.0331  0.5166 -0.0986
  803MOL0     C10744   2.400   6.552   6.293  0.3008  0.5577 -0.2257
  803MOL0     H10745   1.866   6.358   6.541 -2.1412 -0.0789  0.6980
  803MOL0     H10746   1.631   6.450   6.494  0.9325 -2.3941  1.3056
  803MOL0     H10747   1.563   6.844   6.378  1.5092 -2.4269  0.7000
  803MOL0     H10748   1.558   6.879   6.554  0.4676 -2.2545  2.7284
  803MOL0     H10749   1.338   6.853   6.359 -0.4827 -1.0121  0.4460
  803MOL0     H10750   1.308   6.743   6.486 -1.2756  0.8258  0.2852
  803MOL0     H10751   1.203   6.915   6.548 -0.6634 -3.9103  0.8566
  803MOL0     H10752   1.340   6.915   6.664 -0.5829 -0.1624  0.3193
  803MOL0     H10753   1.445   7.102   6.567 -1.4167  0.0787  2.6890
  803MOL0     H10754   1.369   7.087   6.414  2.1562  0.6021 -0.0460
  803MOL0     H10755   1.235   7.173   6.679  1.5799 -4.0250  0.6208
  803MOL0     H10756   1.154   7.173   6.521  0.2824  2.0545  0.1917
  803MOL0     H10757   1.375   7.344   6.616  0.6290 -0.4242 -0.1077
  803MOL0     H10758   1.319   7.365   6.450  1.0748  1.5924  1.3465
  803MOL0     H10759   1.088   7.392   6.628 -1.1501 -0.2795 -3.4859
  803MOL0     H10760   1.125   7.462   6.480 -4.7895 -2.5287  0.9143
  803MOL0     H10761   1.132   7.579   6.714 -0.0399 -1.1477  0.0202
  803MOL0     H10762   1.276   7.493   6.751  0.3150  0.3497  0.6952
  803MOL0     H10763   1.492   7.528   6.537  0.2075 -0.0493 -0.0074
  803MOL0     H10764   1.668   7.678   6.443  0.1070 -0.3094 -0.7375
  803MOL0     H10765   1.662   7.844   6.521 -0.8719  0.5716  0.0248
  803MOL0     H10766   1.711   7.811   6.266 -1.6300  0.5038 -2.7711
  803MOL0     H10767   1.548   7.767   6.252 -1.3900  2.8993 -1.1690
  803MOL0     H10768   1.559   8.014   6.194 -1.6310  0.8386 -0.1223
  803MOL0     H10769   1.483   7.988   6.357  1.3359  0.0314  0.7770
  803MOL0     H10770   1.706   8.052   6.455  1.6551 -2.5820  0.0550
  803MOL0     H10771   1.775   8.038   6.294  0.3846  1.1074  1.5324
  803MOL0     H10772   1.740   8.268   6.103 -1.6517  0.0858  0.7347
  803MOL0     H10773   1.842   8.390   5.949  0.5000 -1.1206 -0.1540
  803MOL0     H10774   2.006   8.413   6.001 -0.2117  1.9060  0.0407
  803MOL0     H10775   1.910   8.561   5.993 -2.8616  1.0718  1.4578
  803MOL0     H10776   2.039   8.921   6.454 -0.2342  1.1617 -2.0617
  803MOL0     H10777   2.222   9.071   6.485 -2.7893 -0.4537  0.6117
  803MOL0     H10778   2.448   9.224   6.448 -0.5594  2.1939  1.4034
  803MOL0     H10779   2.435   9.123   6.597 -0.0584  0.5557 -0.5518
  803MOL0     H10780   2.667   9.106   6.604 -2.5875 -1.7200 -0.5795
  803MOL0     H10781   2.681   9.143   6.432 -1.4060 -0.9271 -1.4111
  803MOL0     H10782   2.610   9.362   6.467 -1.8058  0.4517  1.9768
  803MOL0     H10783   2.753   9.331   6.574  0.3453 -1.9971  2.4212
  803MOL0     H10784   2.579   9.309   6.752  2.2369 -0.3877 -0.5562
  803MOL0     H10785   2.443   9.356   6.642 -0.2863  0.8439 -0.1760
  803MOL0     H10786   2.573   9.568   6.600 -0.0569 -0.6958  0.1019
  803MOL0     H10787   2.518   9.533   6.773 -1.5377  0.3300 -1.3139
  803MOL0     H10788   2.802   9.507   6.683  1.8823  0.3356  3.0918
  803MOL0     H10789   2.732   9.495   6.846 -1.3490  0.2288  0.7344
  803MOL0     H10790   2.661   9.728   6.865  2.7987  0.8957  2.2443
  803MOL0     H10791   2.725   9.764   6.705  0.5448  1.0874  0.7120
  803MOL0     H10792   2.869   9.653   6.946 -1.6337 -2.3024 -1.7354
  803MOL0     H10793   2.890   9.814   6.886  2.5774  0.8431 -3.4119
  803MOL0     H10794   2.501   8.763   6.357  0.9232 -1.3260  2.6515
  803MOL0     H10795   2.302   8.616   6.323 -0.6305  1.1010 -2.3591
  803MOL0     H10796   1.915   8.520   6.492 -0.5465  1.9984 -0.4080
  803MOL0     H10797   1.757   8.349   6.521  0.8203 -1.0103 -0.0515
  803MOL0     H10798   1.769   6.845   6.553  0.7530 -0.0885  0.4437
  803MOL0     H10799   2.004   6.767   6.565  2.2477 -2.7914 -3.4088
  803MOL0     H10800   2.265   6.486   6.737  1.6988  0.6386  2.6903
  803MOL0     H10801   2.478   6.506   6.830  1.1888  1.0751 -0.6129
  803MOL0     H10802   2.665   6.763   6.682  0.7481  1.1569 -0.6672
  803MOL0     H10803   2.703   6.706   6.836 -0.7108  0.8290 -0.5127
  803MOL0     H10804   2.944   6.735   6.790 -1.9283 -0.6669  1.1942
  803MOL0     H10805   2.875   6.859   6.709  2.5562  0.5066 -2.6687
  803MOL0     H10806   2.955   6.587   6.591  1.5989  0.9479  4.3670
  803MOL0     H10807   2.874   6.701   6.487 -2.2728  2.2376  0.7263
  803MOL0     H10808   3.143   6.695   6.455  0.9877 -0.8180  0.4309
  803MOL0     H10809   3.151   6.736   6.620 -0.6922 -1.8253 -0.1321
  803MOL0     H10810   3.048   7.111   6.469  1.0398 -0.4235 -1.1089
  803MOL0     H10811   2.631   6.586   6.438  0.3896 -1.1140 -0.3217
  803MOL0     H10812   2.491   6.586   6.242 -1.3807  0.9445 -3.2796
  803MOL0     H10813   2.358   6.466   6.240 -1.8300  0.4945  1.4439
  803MOL0     H10814   2.323   6.629   6.276 -1.4402 -1.3462 -1.5206
  804MOL0     O10815   5.641   6.490   3.747 -0.0773  0.2078  0.6199
  804MOL0     C10816   5.684   6.591   3.682  0.1675  1.1177  1.3302
  804MOL0     O10817   5.812   6.630   3.662 -0.2908  0.5871 -0.3372
  804MOL0     C10818   5.911   6.566   3.738  0.1349 -0.0538  0.3947
  804MOL0     C10819   5.916   6.594   3.876 -0.6227  0.5459  0.3462
  804MOL0     C10820   6.027   6.539   3.949  1.0684 -0.1024 -0.2080
  804MOL0     C10821   6.126   6.469   3.894 -0.0070 -0.3182 -0.9542
  804MOL0     O10822   6.228   6.437   3.986  0.0715 -0.7145  0.3541
  804MOL0     C10823   6.363   6.425   3.944  0.0845  0.4262  0.0363
  804MOL0     C10824   6.448   6.412   4.067  0.5033 -0.1654  0.5769
  804MOL0     C10825   6.424   6.524   4.170 -0.3938 -0.8601  0.2851
  804MOL0     C10826   6.505   6.521   4.306 -0.0631 -0.6402  0.5652
  804MOL0     C10827   6.530   6.666   4.369 -0.6548  0.3659  0.4469
  804MOL0     C10828   6.641   6.666   4.478  0.0776  1.1157 -0.7697
  804MOL0     C10829   6.678   6.796   4.544  0.2871  0.2910 -0.2757
  804MOL0     C10830   6.766   6.875   4.437  0.1052 -0.6740  0.1358
  804MOL0     N10831   6.767   7.024   4.471 -0.0469  0.4017 -0.5980
  804MOL0     C10832   6.673   7.115   4.434 -0.2958 -0.3639  0.1459
  804MOL0     C10833   6.718   7.226   4.493 -0.1278  0.6708  1.0934
  804MOL0     C10834   6.648   7.356   4.481 -0.1387 -0.4269 -0.4136
  804MOL0     C10835   6.707   7.467   4.389  0.3147 -0.4214  0.9495
  804MOL0     C10836   6.656   7.607   4.425  0.5440  0.4380 -0.3527
  804MOL0     C10837   6.734   7.728   4.371  0.3354  0.4363 -0.6298
  804MOL0     O10838   6.658   7.774   4.263 -0.0209 -1.0189 -0.4872
  804MOL0     C10839   6.568   7.876   4.273  0.8628  0.1080 -0.0246
  804MOL0     C10840   6.546   7.946   4.389  0.2812  0.7289  1.0451
  804MOL0     C10841   6.445   8.044   4.403  0.0862  0.1738 -0.6702
  804MOL0     C10842   6.442   8.108   4.540  0.4589 -0.4842 -0.3965
  804MOL0     C10843   6.366   8.078   4.285  0.5918 -0.0707 -0.5203
  804MOL0     C10844   6.266   8.183   4.279  0.5030  0.2955  0.4321
  804MOL0     O10845   6.241   8.243   4.160  0.6412  0.0759  0.5046
  804MOL0     C10846   6.148   8.342   4.151  0.4982  0.4249  0.3664
  804MOL0     C10847   6.019   8.326   4.211  0.9733  0.2046 -0.9724
  804MOL0     C10848   5.922   8.425   4.189  0.6498 -0.4458  0.0922
  804MOL0     C10849   5.944   8.527   4.097  0.1226  0.2190 -0.2559
  804MOL0     O10850   5.845   8.613   4.069  0.4955  0.0732  0.9497
  804MOL0     C10851   5.863   8.737   3.999  0.4615 -0.4780 -0.8018
  804MOL0     C10852   5.849   8.715   3.856  0.2154 -0.4328  0.0843
  804MOL0     C10853   5.868   8.857   3.793 -0.0987 -0.1779 -0.3643
  804MOL0     C10854   5.886   8.870   3.644 -0.6867  1.2639  0.6696
  804MOL0     C10855   5.931   9.002   3.595 -0.3503  0.3905  0.6727
  804MOL0     C10856   5.948   9.001   3.444 -0.4159  0.5774 -0.0211
  804MOL0     C10857   5.826   9.007   3.354  1.4182  0.3559 -0.1367
  804MOL0     C10858   5.765   9.141   3.333  0.1394  0.4633 -0.5371
  804MOL0    Cl10859   5.603   9.136   3.260 -0.0112 -0.1555  0.2220
  804MOL0     C10860   6.070   8.536   4.033  0.4296 -0.2946 -1.6394
  804MOL0     C10861   6.177   8.450   4.065  0.3115 -0.1655  0.5334
  804MOL0     O10862   6.228   8.224   4.386 -0.6739 -0.3723  0.3666
  804MOL0     C10863   6.388   8.000   4.172 -0.8430  0.4239  0.0104
  804MOL0     C10864   6.492   7.914   4.163  0.4615  1.0988 -0.2491
  804MOL0     N10865   6.837   7.203   4.565  0.0825  0.0840  0.1650
  804MOL0     N10866   6.874   7.084   4.545 -0.4377 -0.0603  0.2268
  804MOL0     C10867   6.115   6.429   3.760 -0.5409 -0.0653 -0.5779
  804MOL0     C10868   6.004   6.482   3.679 -0.1653 -0.3231  0.5613
  804MOL0     C10869   5.588   6.683   3.619 -0.7289  1.0855 -0.5015
  804MOL0     C10870   5.534   6.639   3.497  0.0735  0.0746 -1.0865
  804MOL0     C10871   5.434   6.714   3.443 -0.6144  0.4446 -0.0453
  804MOL0     C10872   5.394   6.833   3.493  0.0963  0.7740 -0.5423
  804MOL0     O10873   5.276   6.882   3.435 -0.0230 -0.2148  0.1883
  804MOL0     C10874   5.235   7.006   3.489 -0.6151  0.7226 -0.1714
  804MOL0     C10875   5.316   7.133   3.453 -0.6668 -0.1332  0.1230
  804MOL0     C10876   5.316   7.196   3.310 -0.3130  0.0089 -0.9683
  804MOL0     C10877   5.377   7.102   3.212  0.3259  0.6099  0.2235
  804MOL0     C10878   5.402   7.157   3.074 -0.1200 -0.8065 -1.0439
  804MOL0     C10879   5.421   7.206   2.967  1.2759  0.6095 -0.1428
  804MOL0     C10880   5.466   6.892   3.601  0.7528 -0.3196  0.3136
  804MOL0     C10881   5.565   6.815   3.664 -0.0519 -1.3289 -0.7125
  804MOL0     C10882   5.630   6.876   3.788 -1.0580  0.1669 -0.6076
  804MOL0     H10883   5.835   6.651   3.922  0.0347  0.8910  1.0994
  804MOL0     H10884   6.034   6.570   4.053 -1.3746 -1.9929  0.6246
  804MOL0     H10885   6.383   6.510   3.878  1.4407 -0.0253 -0.1490
  804MOL0     H10886   6.365   6.335   3.882  3.0809  2.4381 -3.1771
  804MOL0     H10887   6.410   6.321   4.113 -0.2422 -0.1672 -0.0330
  804MOL0     H10888   6.551   6.402   4.032  0.7707 -0.7933  1.4953
  804MOL0     H10889   6.453   6.619   4.123 -1.8419  0.5729  2.1278
  804MOL0     H10890   6.319   6.541   4.194  0.1651 -1.1586  3.2506
  804MOL0     H10891   6.453   6.462   4.382  0.8976 -1.4322  0.6328
  804MOL0     H10892   6.605   6.478   4.291  0.8831  0.9031  2.1872
  804MOL0     H10893   6.435   6.708   4.405  0.5479  0.6437  3.5372
  804MOL0     H10894   6.556   6.738   4.291 -0.1212  0.6044  0.8350
  804MOL0     H10895   6.603   6.601   4.557 -2.1761  2.4334 -0.6646
  804MOL0     H10896   6.734   6.619   4.445 -0.3957  0.3903 -1.0987
  804MOL0     H10897   6.737   6.789   4.635  0.1628  2.4797  0.0406
  804MOL0     H10898   6.583   6.846   4.568  0.2798 -0.0455  0.4204
  804MOL0     H10899   6.863   6.826   4.449  0.5933  0.7625  2.7687
  804MOL0     H10900   6.714   6.874   4.341  0.5994  0.5793 -0.1579
  804MOL0     H10901   6.594   7.103   4.362  0.4850  0.4928 -0.8754
  804MOL0     H10902   6.665   7.400   4.579  1.8043  0.0803 -0.9351
  804MOL0     H10903   6.540   7.336   4.477 -0.7354  2.0457  1.3769
  804MOL0     H10904   6.815   7.476   4.403  1.0069  2.6383 -3.9979
  804MOL0     H10905   6.691   7.443   4.283  0.8530  1.0483  0.5162
  804MOL0     H10906   6.549   7.612   4.403  1.1551  0.3508 -3.9920
  804MOL0     H10907   6.667   7.607   4.534  3.3136 -1.2906 -0.5212
  804MOL0     H10908   6.736   7.801   4.452  1.9124  2.7491 -2.6453
  804MOL0     H10909   6.835   7.703   4.339  0.2369 -1.6742  0.4811
  804MOL0     H10910   6.601   7.929   4.480  0.9966 -0.9377  0.3418
  804MOL0     H10911   6.499   8.045   4.609 -1.6294  0.2742  2.1887
  804MOL0     H10912   6.340   8.091   4.575  1.4510 -3.6393  1.4022
  804MOL0     H10913   6.475   8.212   4.542 -0.2427 -0.2573  1.5922
  804MOL0     H10914   5.991   8.238   4.268 -1.0658  0.5256 -1.3978
  804MOL0     H10915   5.823   8.419   4.234  0.4352  1.1286 -0.1196
  804MOL0     H10916   5.781   8.798   4.037  0.1890 -1.0350 -0.4972
  804MOL0     H10917   5.958   8.780   4.033 -0.9092  1.6027  0.6700
  804MOL0     H10918   5.935   8.654   3.830  0.0836 -0.2636 -0.7634
  804MOL0     H10919   5.757   8.661   3.832  0.7883 -0.2467 -2.9165
  804MOL0     H10920   5.956   8.904   3.837 -2.0094  1.2835  2.1829
  804MOL0     H10921   5.784   8.921   3.822  0.6167 -0.2951  2.2523
  804MOL0     H10922   5.795   8.831   3.597  1.5971 -5.0024  0.5341
  804MOL0     H10923   5.952   8.790   3.609 -1.5392  0.0200  1.8245
  804MOL0     H10924   5.865   9.084   3.626  0.4943  0.2550  2.9934
  804MOL0     H10925   6.035   9.019   3.622 -0.5543 -1.7320  3.1153
  804MOL0     H10926   6.006   8.912   3.417  0.3420  1.2776 -0.7462
  804MOL0     H10927   6.010   9.084   3.409 -1.3342  0.6216 -1.6489
  804MOL0     H10928   5.746   8.947   3.400  1.5278 -0.3995 -0.9157
  804MOL0     H10929   5.855   8.968   3.256 -0.4673 -0.7523 -0.3027
  804MOL0     H10930   5.838   9.208   3.286  0.0869  0.6355 -0.3739
  804MOL0     H10931   5.747   9.184   3.432 -1.3266 -0.6661 -0.2756
  804MOL0     H10932   6.090   8.606   3.953 -2.3530  0.9543 -1.3493
  804MOL0     H10933   6.264   8.451   4.001 -1.6416 -0.8802 -2.3018
  804MOL0     H10934   6.330   8.037   4.088  0.4457  3.2506  0.2382
  804MOL0     H10935   6.528   7.852   4.082  3.2204  0.9542  0.9908
  804MOL0     H10936   6.182   6.358   3.712 -1.6798 -1.9991  0.5779
  804MOL0     H10937   6.003   6.471   3.571  0.7153 -1.5990  0.6489
  804MOL0     H10938   5.565   6.542   3.458 -1.8637 -0.0344 -2.5286
  804MOL0     H10939   5.395   6.681   3.348  2.1034  1.6259 -1.6804
  804MOL0     H10940   5.135   7.018   3.445 -1.6862  0.2431  2.0030
  804MOL0     H10941   5.223   7.015   3.597 -1.7338  4.4304 -0.4576
  804MOL0     H10942   5.423   7.111   3.464 -0.8428 -2.0370 -1.3618
  804MOL0     H10943   5.281   7.211   3.520  0.4670 -0.4357  1.0902
  804MOL0     H10944   5.214   7.209   3.272  0.2646 -1.0311 -3.0048
  804MOL0     H10945   5.362   7.295   3.312  0.9946 -0.5974  0.3556
  804MOL0     H10946   5.320   7.009   3.217 -1.1434  1.4601 -0.0750
  804MOL0     H10947   5.473   7.080   3.259 -0.6717 -0.7516  1.7094
  804MOL0     H10948   5.427   7.230   2.863 -2.6813 -0.1871 -0.7068
  804MOL0     H10949   5.444   6.989   3.644  0.3066 -0.8915  1.4104
  804MOL0     H10950   5.621   6.798   3.865  0.4613 -1.1859 -1.7199
  804MOL0     H10951   5.737   6.894   3.773 -0.6021 -0.9049  1.0059
  804MOL0     H10952   5.583   6.965   3.830  1.0659  0.4732  1.3268
  805MOL0     O10953   9.556   2.979   4.460 -0.2044  0.4933  0.0513
  805MOL0     C10954   9.454   3.034   4.491  0.2105 -0.0217  0.3993
  805MOL0     O10955   9.446   3.143   4.575  0.9635 -0.1469  0.0967
  805MOL0     C10956   9.557   3.189   4.634  0.0794 -0.5240 -0.7492
  805MOL0     C10957   9.618   3.295   4.572 -0.2545 -0.5170  0.6875
  805MOL0     C10958   9.745   3.337   4.619  0.0060 -0.0230  0.6882
  805MOL0     C10959   9.799   3.271   4.733  0.1171  0.4878  0.1416
  805MOL0     O10960   9.912   3.310   4.804  0.4712 -0.6034 -0.0014
  805MOL0     C10961   9.951   3.446   4.788  0.2990 -0.7297 -0.3904
  805MOL0     C10962  10.068   3.470   4.880  0.2381  0.5358 -0.8435
  805MOL0     C10963  10.147   3.593   4.855 -0.1101  0.2741 -0.6197
  805MOL0     C10964  10.269   3.589   4.944 -0.3094  0.2481 -0.0619
  805MOL0     C10965  10.342   3.721   4.955  0.4891 -0.2248 -1.2312
  805MOL0     C10966  10.466   3.702   5.029 -0.0479  1.0442  0.5132
  805MOL0     C10967  10.563   3.815   4.999 -0.1356 -0.8373 -0.4024
  805MOL0     C10968  10.523   3.947   5.061  0.0480 -1.2971  0.5723
  805MOL0     N10969  10.517   3.950   5.209 -0.2183  1.0434 -0.3339
  805MOL0     C10970  10.615   3.907   5.294  1.2818  0.0843 -0.0963
  805MOL0     C10971  10.553   3.902   5.419  0.1385  0.4750 -0.3373
  805MOL0     C10972  10.621   3.840   5.540 -0.2256 -0.1662  0.0123
  805MOL0     C10973  10.560   3.882   5.677  0.0146  0.6220  1.2877
  805MOL0     C10974  10.573   4.024   5.710  0.4498 -0.0083 -0.0099
  805MOL0     C10975  10.533   4.054   5.855 -0.1716  0.1932 -0.3711
  805MOL0     O10976  10.389   4.062   5.869 -0.6811 -0.6363 -0.3794
  805MOL0     C10977  10.316   4.179   5.843  0.1260 -0.1577 -0.2738
  805MOL0     C10978  10.170   4.177   5.862 -0.3993 -0.7202  0.4023
  805MOL0     C10979  10.096   4.301   5.840 -0.2605  0.5666 -0.4290
  805MOL0     C10980   9.945   4.288   5.850  0.4256  0.0122  0.5891
  805MOL0     C10981  10.159   4.424   5.812  0.4047  0.9668  0.7370
  805MOL0     C10982  10.097   4.560   5.806  0.8176  1.2484 -0.5449
  805MOL0     O10983  10.150   4.652   5.732  0.9799 -0.5593  0.3839
  805MOL0     C10984  10.139   4.782   5.750 -0.4140 -0.9648  1.0936
  805MOL0     C10985  10.235   4.847   5.673 -0.0373 -0.1536  0.4814
  805MOL0     C10986  10.221   4.989   5.657 -0.2958  0.3165 -0.7703
  805MOL0     C10987  10.131   5.080   5.721 -0.1600 -0.5407 -0.3730
  805MOL0     O10988  10.126   5.213   5.705  0.3070 -0.1509 -0.0893
  805MOL0     C10989  10.245   5.281   5.745 -0.2396 -0.3653 -1.0399
  805MOL0     C10990  10.268   5.404   5.661  0.5188  0.3389 -0.5929
  805MOL0     C10991  10.354   5.372   5.536 -0.4924 -0.1714  0.6676
  805MOL0     C10992  10.414   5.510   5.490 -1.4215 -0.4542 -1.5266
  805MOL0     C10993  10.542   5.500   5.403  0.4413  0.1573 -0.3386
  805MOL0     C10994  10.502   5.477   5.253  0.4141  0.1518  0.7919
  805MOL0     C10995  10.634   5.473   5.177  0.2846 -0.1639 -0.2065
  805MOL0     C10996  10.615   5.404   5.042 -0.4084 -0.2646  0.6269
  805MOL0    Cl10997  10.719   5.468   4.903 -0.2195  0.3186 -0.2346
  805MOL0     C10998  10.041   5.007   5.803 -0.4728 -0.5997  0.3014
  805MOL0     C10999  10.054   4.871   5.823  0.3782 -0.1547  0.1148
  805MOL0     O11000  10.017   4.584   5.898 -0.7166  0.2245 -0.3624
  805MOL0     C11001  10.297   4.413   5.776 -0.1020 -0.1254 -0.9884
  805MOL0     C11002  10.374   4.294   5.788  1.3143  0.0935 -0.5691
  805MOL0     N11003  10.416   3.933   5.407 -1.0722 -0.1784  0.3204
  805MOL0     N11004  10.399   3.959   5.277 -0.0380 -0.4376 -0.9090
  805MOL0     C11005   9.734   3.161   4.790 -0.5618  0.1478  0.4098
  805MOL0     C11006   9.617   3.122   4.744 -0.5498 -0.8216 -0.4309
  805MOL0     C11007   9.329   2.983   4.435  0.2648 -0.5845 -0.7046
  805MOL0     C11008   9.226   3.077   4.403 -0.2383 -0.0545  0.2837
  805MOL0     C11009   9.113   3.037   4.339  0.8406  0.7690 -0.3849
  805MOL0     C11010   9.090   2.898   4.316  0.7601 -0.5996  0.4520
  805MOL0     O11011   8.979   2.849   4.253  0.4635 -0.0507  0.5060
  805MOL0     C11012   8.856   2.901   4.296 -0.6007  0.5049 -0.1127
  805MOL0     C11013   8.760   2.787   4.312 -0.6651  0.2734 -0.2716
  805MOL0     C11014   8.709   2.721   4.185 -0.2849  1.0102  0.1158
  805MOL0     C11015   8.765   2.580   4.166 -0.8262  0.6182 -0.8669
  805MOL0     C11016   8.694   2.500   4.069 -0.2347  0.6362 -0.3231
  805MOL0     C11017   8.640   2.429   3.986  1.4462 -0.5199  1.0847
  805MOL0     C11018   9.178   2.808   4.362 -0.1453 -0.3509  0.5536
  805MOL0     C11019   9.298   2.848   4.426 -0.6539 -0.3284  0.6079
  805MOL0     C11020   9.386   2.741   4.488  0.2846 -0.3443  0.4557
  805MOL0     H11021   9.575   3.319   4.475 -2.2945 -1.8615  1.2054
  805MOL0     H11022   9.795   3.419   4.569  0.9903 -1.1644 -0.2571
  805MOL0     H11023   9.868   3.515   4.805 -1.3291 -2.0150 -2.5449
  805MOL0     H11024   9.977   3.462   4.683  0.2926 -0.7862 -0.4006
  805MOL0     H11025  10.027   3.476   4.981  0.6851  3.2682 -0.7623
  805MOL0     H11026  10.132   3.381   4.874  0.2148  0.5865 -2.2690
  805MOL0     H11027  10.177   3.587   4.750 -1.7741 -0.7072 -1.0822
  805MOL0     H11028  10.084   3.680   4.873 -0.0992 -0.2267  2.3149
  805MOL0     H11029  10.233   3.563   5.044 -3.1001  0.4481 -0.9315
  805MOL0     H11030  10.328   3.511   4.896 -3.0266 -2.5602  0.8497
  805MOL0     H11031  10.279   3.789   5.012 -2.0548 -2.5906 -1.0326
  805MOL0     H11032  10.352   3.761   4.853 -3.3178  1.3518 -1.1472
  805MOL0     H11033  10.445   3.714   5.136  2.0908 -0.9326  1.2699
  805MOL0     H11034  10.506   3.600   5.019  1.0380  1.6016 -1.1997
  805MOL0     H11035  10.578   3.828   4.892  1.0521 -2.3962 -0.4571
  805MOL0     H11036  10.661   3.792   5.043 -1.6741 -1.9265  2.7845
  805MOL0     H11037  10.590   4.026   5.025 -0.5730  0.3240  2.7530
  805MOL0     H11038  10.421   3.962   5.025  1.0716  0.2010 -2.0151
  805MOL0     H11039  10.718   3.881   5.272  0.8169 -0.3069 -1.9152
  805MOL0     H11040  10.730   3.846   5.537 -0.2580  1.2739  0.8079
  805MOL0     H11041  10.601   3.733   5.530  2.7635 -0.9026  0.8640
  805MOL0     H11042  10.457   3.846   5.685 -0.0234  0.1988 -0.6123
  805MOL0     H11043  10.616   3.831   5.755 -1.2324 -1.4157  0.9110
  805MOL0     H11044  10.679   4.045   5.695  0.7432 -0.5383  1.1880
  805MOL0     H11045  10.519   4.088   5.639  0.1312 -0.1829  0.0690
  805MOL0     H11046  10.559   3.969   5.917 -3.2991  1.0588  2.4033
  805MOL0     H11047  10.586   4.141   5.894 -0.4385  0.2981 -0.2406
  805MOL0     H11048  10.116   4.090   5.899  1.2161 -0.8687  2.6041
  805MOL0     H11049   9.909   4.375   5.905  0.5280  0.2260  0.3228
  805MOL0     H11050   9.912   4.191   5.889 -0.4381 -0.0775 -0.3328
  805MOL0     H11051   9.891   4.298   5.756  2.1587 -2.9120 -0.8544
  805MOL0     H11052  10.303   4.797   5.605  0.5928 -0.8999  1.6412
  805MOL0     H11053  10.290   5.039   5.589 -0.5134  1.3618 -0.2431
  805MOL0     H11054  10.237   5.312   5.849  1.1183 -1.5699 -0.5442
  805MOL0     H11055  10.330   5.213   5.738  1.4059  1.4999  0.1500
  805MOL0     H11056  10.184   5.473   5.649  2.0378  2.9098  2.0185
  805MOL0     H11057  10.321   5.478   5.722  0.1673  0.2195 -0.1422
  805MOL0     H11058  10.293   5.321   5.461 -2.0714  3.0060 -0.3813
  805MOL0     H11059  10.432   5.310   5.582  1.2283 -0.5476 -2.5051
  805MOL0     H11060  10.456   5.561   5.577  1.8953 -0.4373 -2.9928
  805MOL0     H11061  10.333   5.571   5.449 -2.8616 -0.3128  1.2725
  805MOL0     H11062  10.595   5.595   5.418 -0.1406  0.8730 -2.5134
  805MOL0     H11063  10.596   5.416   5.448 -2.4311 -0.5855  2.0456
  805MOL0     H11064  10.434   5.550   5.209 -0.6404 -0.7610  0.8665
  805MOL0     H11065  10.462   5.376   5.239 -0.7081  0.8942 -2.2797
  805MOL0     H11066  10.704   5.413   5.235  0.0278 -0.6473 -0.3941
  805MOL0     H11067  10.681   5.572   5.184 -1.4211  0.9129 -2.5347
  805MOL0     H11068  10.517   5.446   5.020  1.0228  3.6697  0.9166
  805MOL0     H11069  10.620   5.295   5.050  0.4089 -0.2577  0.3656
  805MOL0     H11070   9.974   5.075   5.856  1.3164  4.4028 -3.1518
  805MOL0     H11071   9.996   4.837   5.909  0.4173  1.2215  0.7091
  805MOL0     H11072  10.347   4.504   5.743 -4.3008  2.4725 -1.0071
  805MOL0     H11073  10.479   4.297   5.759  1.3184 -1.5223 -0.8055
  805MOL0     H11074   9.778   3.101   4.869  2.1997 -0.8236 -1.6981
  805MOL0     H11075   9.573   3.036   4.795 -0.0798  0.2296  1.8812
  805MOL0     H11076   9.241   3.181   4.431 -1.8990 -0.3933  2.7004
  805MOL0     H11077   9.034   3.108   4.317  1.2497  0.6565 -2.4974
  805MOL0     H11078   8.863   2.970   4.380 -2.2522  1.3387 -0.6255
  805MOL0     H11079   8.831   2.962   4.208  1.1288  1.2030 -0.1691
  805MOL0     H11080   8.668   2.824   4.358  0.8626 -1.0961  4.5442
  805MOL0     H11081   8.816   2.726   4.384  0.3565  0.9117 -0.5111
  805MOL0     H11082   8.600   2.721   4.196 -0.1944  3.6162  2.0104
  805MOL0     H11083   8.741   2.783   4.101 -1.5332 -0.0259 -1.1889
  805MOL0     H11084   8.745   2.522   4.257  0.1027  2.3292  0.4967
  805MOL0     H11085   8.872   2.576   4.145  0.1012  2.4641  2.6001
  805MOL0     H11086   8.591   2.359   3.921  1.3273 -0.9440  1.6191
  805MOL0     H11087   9.168   2.706   4.328  1.2351 -0.7394  1.2475
  805MOL0     H11088   9.420   2.776   4.586 -0.0675 -0.3300  0.5742
  805MOL0     H11089   9.344   2.640   4.492  2.1428 -1.4230 -2.9427
  805MOL0     H11090   9.470   2.713   4.424  1.7409  0.7082  1.8605
  806MOL0     O11091  10.013   9.376   6.763 -0.1705  0.2671  0.4646
  806MOL0     C11092   9.978   9.475   6.828  0.7557  0.2426 -0.2114
  806MOL0     O11093   9.855   9.528   6.834  0.4273  0.2713  0.0858
  806MOL0     C11094   9.751   9.463   6.775  0.4883  0.5554  0.0111
  806MOL0     C11095   9.670   9.551   6.700 -0.4403  0.0277  0.1583
  806MOL0     C11096   9.556   9.509   6.631 -0.2326 -0.3818 -0.1871
  806MOL0     C11097   9.514   9.375   6.639  0.1857 -0.8388 -0.1502
  806MOL0     O11098   9.393   9.341   6.586  0.5890  0.9091  0.1697
  806MOL0     C11099   9.304   9.436   6.520 -0.3596  0.8841  0.4771
  806MOL0     C11100   9.220   9.528   6.614  0.3144 -0.2687 -0.4939
  806MOL0     C11101   9.176   9.439   6.732  0.2360 -0.5634 -0.5826
  806MOL0     C11102   9.077   9.501   6.824  0.5860  0.8960  0.1415
  806MOL0     C11103   9.078   9.442   6.972  0.4003  0.4730  0.5655
  806MOL0     C11104   9.025   9.299   6.983  0.0552 -0.5290 -0.2303
  806MOL0     C11105   9.026   9.234   7.117 -0.3165 -0.0335 -0.1178
  806MOL0     C11106   8.953   9.311   7.229 -0.7150  0.1211 -0.7596
  806MOL0     N11107   8.944   9.235   7.351 -1.0474 -0.6111 -0.9310
  806MOL0     C11108   8.990   9.259   7.480  0.2133  0.8313 -0.7386
  806MOL0     C11109   8.965   9.132   7.541  0.3387 -0.5778  0.1512
  806MOL0     C11110   9.016   9.096   7.680  0.2066  0.5699  0.3031
  806MOL0     C11111   9.140   9.002   7.682 -0.3695  0.5968 -0.4373
  806MOL0     C11112   9.235   9.008   7.803  0.2537  0.0593 -0.0346
  806MOL0     C11113   9.276   8.863   7.843  0.1889  0.1530 -0.7390
  806MOL0     O11114   9.177   8.783   7.885  0.3219  0.1070 -1.3595
  806MOL0     C11115   9.204   8.657   7.944 -0.2251 -1.1134 -0.1993
  806MOL0     C11116   9.098   8.613   8.027  0.5241  0.9431  0.7940
  806MOL0     C11117   9.109   8.511   8.110  0.7016 -0.9885  0.7665
  806MOL0     C11118   8.985   8.447   8.170 -0.7545 -0.9503  0.2417
  806MOL0     C11119   9.238   8.446   8.129 -0.3523 -0.8238  0.4548
  806MOL0     C11120   9.274   8.347   8.244 -0.0955 -1.3378  0.3239
  806MOL0     O11121   9.172   8.310   8.329  0.2531 -0.2499  0.1229
  806MOL0     C11122   9.199   8.259   8.455 -0.1678  0.1155 -0.1247
  806MOL0     C11123   9.254   8.132   8.476  0.0023 -0.2964  0.5235
  806MOL0     C11124   9.278   8.092   8.610  0.4785  0.5243 -0.5092
  806MOL0     C11125   9.240   8.175   8.724 -0.4387 -0.0585  0.5825
  806MOL0     O11126   9.266   8.122   8.854  0.7122 -0.4757  0.8101
  806MOL0     C11127   9.315   8.226   8.940  0.4983 -0.1512 -0.4981
  806MOL0     C11128   9.366   8.151   9.064 -0.0036 -0.1750 -0.0416
  806MOL0     C11129   9.247   8.132   9.153  0.7412 -0.1243 -1.0448
  806MOL0     C11130   9.234   8.248   9.260 -0.1868 -0.7734 -1.7952
  806MOL0     C11131   9.123   8.238   9.368 -0.2713  0.0308  0.7608
  806MOL0     C11132   8.978   8.255   9.315  0.4517 -0.9665  0.4969
  806MOL0     C11133   8.969   8.404   9.263 -0.6595  0.3960  0.2802
  806MOL0     C11134   8.830   8.432   9.203 -0.5480 -0.0016 -0.7881
  806MOL0    Cl11135   8.702   8.382   9.340 -0.2936 -0.1743 -0.1402
  806MOL0     C11136   9.195   8.304   8.694 -0.4128  0.9788  0.3944
  806MOL0     C11137   9.187   8.346   8.561  1.1060 -0.1923  0.0557
  806MOL0     O11138   9.392   8.316   8.253 -0.4676  0.8002 -0.7056
  806MOL0     C11139   9.342   8.491   8.032  0.8217  0.5808  0.3042
  806MOL0     C11140   9.318   8.594   7.938 -1.2007 -0.4930  0.2910
  806MOL0     N11141   8.885   9.048   7.460 -0.8669 -0.1536  0.9469
  806MOL0     N11142   8.873   9.119   7.359  0.4300  1.0340  0.4448
  806MOL0     C11143   9.594   9.285   6.706 -0.2037  1.2698 -0.5766
  806MOL0     C11144   9.713   9.325   6.770 -1.3183  0.1824  0.6635
  806MOL0     C11145  10.079   9.534   6.920 -0.7550  1.3037 -0.0058
  806MOL0     C11146  10.040   9.602   7.036 -0.4926  0.4492  0.2656
  806MOL0     C11147  10.128   9.658   7.128 -0.0598  0.0479  0.3476
  806MOL0     C11148  10.261   9.648   7.106 -0.2634 -1.0318  0.1348
  806MOL0     O11149  10.332   9.722   7.197 -0.3450 -0.4108 -0.5788
  806MOL0     C11150  10.473   9.737   7.189  0.9152  0.3374 -0.2689
  806MOL0     C11151  10.548   9.705   7.326 -0.0661  0.7338 -0.5367
  806MOL0     C11152  10.509   9.791   7.451 -0.4695 -0.4429 -0.5161
  806MOL0     C11153  10.557   9.941   7.425 -0.4241 -0.3066  0.4282
  806MOL0     C11154  10.456  10.034   7.362  0.5341 -0.3318 -0.0766
  806MOL0     C11155  10.383  10.101   7.288  0.2507  0.3602  0.4901
  806MOL0     C11156  10.311   9.575   6.999 -0.2167 -0.2085 -0.1562
  806MOL0     C11157  10.219   9.510   6.909  1.0513  0.4496  0.6238
  806MOL0     C11158  10.273   9.422   6.807  0.0317  0.3002  0.3427
  806MOL0     H11159   9.696   9.656   6.711 -1.2320  0.0858  1.7552
  806MOL0     H11160   9.506   9.585   6.573  2.3651  0.0362 -2.0953
  806MOL0     H11161   9.239   9.364   6.469 -0.0544  0.1452  1.1098
  806MOL0     H11162   9.350   9.492   6.439  0.2573 -2.1335 -1.4275
  806MOL0     H11163   9.276   9.614   6.650 -0.2804 -0.0494 -0.0725
  806MOL0     H11164   9.134   9.555   6.551  0.1763  1.0125  0.1974
  806MOL0     H11165   9.142   9.338   6.708  0.7422 -0.7692 -0.4577
  806MOL0     H11166   9.268   9.427   6.791  1.7986  0.4173 -2.6628
  806MOL0     H11167   9.100   9.607   6.836 -0.0348  1.1386 -0.6741
  806MOL0     H11168   8.973   9.496   6.788  0.3938 -1.2881  0.8156
  806MOL0     H11169   9.008   9.513   7.016  0.3792  0.5865  0.3464
  806MOL0     H11170   9.174   9.445   7.023  0.0901 -1.1095  1.3093
  806MOL0     H11171   8.926   9.288   6.936  1.2178  1.9869 -3.6912
  806MOL0     H11172   9.095   9.236   6.927 -0.5868 -2.5667  1.1602
  806MOL0     H11173   9.134   9.224   7.133 -0.5107 -0.1191  1.2437
  806MOL0     H11174   8.975   9.137   7.122 -0.5886  0.1567  1.0798
  806MOL0     H11175   9.001   9.409   7.241 -0.1465 -0.4637  3.1024
  806MOL0     H11176   8.853   9.333   7.191 -0.6518 -0.9717 -1.6122
  806MOL0     H11177   9.035   9.345   7.527 -0.6269  0.1177  1.5224
  806MOL0     H11178   8.934   9.044   7.730  0.6887  0.5393  1.0799
  806MOL0     H11179   9.041   9.181   7.744 -2.1507  1.0036  0.7358
  806MOL0     H11180   9.106   8.898   7.683  1.9801 -0.2730  2.1149
  806MOL0     H11181   9.203   9.021   7.594 -0.2689 -1.7059 -0.9165
  806MOL0     H11182   9.324   9.070   7.790  2.0736 -2.7788 -2.0353
  806MOL0     H11183   9.178   9.066   7.877 -2.2053  1.4304 -2.7895
  806MOL0     H11184   9.305   8.810   7.752  0.0276  1.0478 -1.3166
  806MOL0     H11185   9.355   8.872   7.919 -0.0154 -0.5503 -0.4276
  806MOL0     H11186   9.003   8.665   8.026  1.8082  3.4701 -0.1359
  806MOL0     H11187   8.997   8.339   8.156  0.3778 -0.9563  1.1279
  806MOL0     H11188   8.899   8.485   8.114  0.3183  2.4074  0.6986
  806MOL0     H11189   8.973   8.483   8.272 -1.7095 -2.8492  0.8449
  806MOL0     H11190   9.262   8.072   8.385  0.7713  2.4827 -1.3774
  806MOL0     H11191   9.312   7.990   8.628  1.4682  1.0389  0.6463
  806MOL0     H11192   9.393   8.287   8.894 -0.6962  0.0821 -2.3046
  806MOL0     H11193   9.245   8.308   8.960  0.9743 -0.1956  1.6300
  806MOL0     H11194   9.401   8.051   9.036 -1.3966 -0.6395 -0.2215
  806MOL0     H11195   9.441   8.224   9.096 -0.8703  3.0267 -4.3770
  806MOL0     H11196   9.258   8.030   9.192 -3.9188 -0.7153 -0.6389
  806MOL0     H11197   9.150   8.140   9.103  0.2501  0.9711  0.0092
  806MOL0     H11198   9.238   8.344   9.208  0.8212  0.3961  0.3093
  806MOL0     H11199   9.326   8.259   9.317 -1.3193  0.1868 -0.0492
  806MOL0     H11200   9.131   8.139   9.414  1.4708 -0.6633 -0.9139
  806MOL0     H11201   9.146   8.321   9.435 -2.9801 -0.6404  2.6572
  806MOL0     H11202   8.915   8.231   9.402 -1.7144 -1.4674 -1.1215
  806MOL0     H11203   8.946   8.186   9.237 -3.6604 -0.3663  1.4138
  806MOL0     H11204   9.048   8.437   9.195 -2.5250  5.5756  0.1698
  806MOL0     H11205   8.990   8.473   9.345 -1.0377  1.2844 -0.3490
  806MOL0     H11206   8.818   8.383   9.107  1.5396  0.5466 -1.3922
  806MOL0     H11207   8.815   8.539   9.185 -2.8554 -0.0732  0.3633
  806MOL0     H11208   9.166   8.372   8.774  0.4869  0.1640  1.4391
  806MOL0     H11209   9.152   8.447   8.543  0.1431 -0.7239 -1.2403
  806MOL0     H11210   9.441   8.449   8.022  1.8723  3.1274 -0.8589
  806MOL0     H11211   9.398   8.635   7.877  0.3938 -2.1315  1.1759
  806MOL0     H11212   9.561   9.182   6.713 -0.9922  1.6035  3.1002
  806MOL0     H11213   9.775   9.247   6.814 -1.1234  0.1109  0.2657
  806MOL0     H11214   9.933   9.612   7.053 -0.4742  0.3188  0.4727
  806MOL0     H11215  10.098   9.721   7.211 -0.8931  2.0703 -1.4054
  806MOL0     H11216  10.525   9.682   7.109  1.6996  1.8899 -0.8707
  806MOL0     H11217  10.493   9.844   7.190  1.0763  0.3324  2.5475
  806MOL0     H11218  10.657   9.701   7.314 -0.0530 -2.4471 -0.2902
  806MOL0     H11219  10.533   9.601   7.357  2.6629  0.0527 -1.2177
  806MOL0     H11220  10.400   9.782   7.455 -0.4878  0.0565  0.7467
  806MOL0     H11221  10.562   9.751   7.538 -1.2132 -0.7702 -0.2096
  806MOL0     H11222  10.655   9.945   7.377  0.3231  2.0209  2.0014
  806MOL0     H11223  10.574   9.992   7.520  2.9431  0.5185 -0.4745
  806MOL0     H11224  10.322  10.161   7.223  2.5426  0.6950 -1.5264
  806MOL0     H11225  10.414   9.558   6.971 -1.0696 -1.1666 -3.1243
  806MOL0     H11226  10.229   9.323   6.820 -0.9119  0.1999 -2.7460
  806MOL0     H11227  10.261   9.467   6.708  1.5937 -0.1749 -0.0870
  806MOL0     H11228  10.379   9.405   6.828 -0.0228  3.0887  3.7130
  807MOL0     O11229   8.886   2.947   2.568  0.9141 -0.0225 -0.2416
  807MOL0     C11230   8.832   3.055   2.605 -0.5288  0.0698  0.5818
  807MOL0     O11231   8.766   3.147   2.527 -0.2151 -0.6071  0.4688
  807MOL0     C11232   8.739   3.122   2.398  0.7680 -0.5308  1.2385
  807MOL0     C11233   8.695   3.231   2.321  0.0894 -0.0277 -0.6574
  807MOL0     C11234   8.667   3.229   2.183 -0.8200 -0.0776 -0.0224
  807MOL0     C11235   8.665   3.104   2.117 -0.1082 -0.8940 -0.3289
  807MOL0     O11236   8.637   3.113   1.988  0.1846  0.5836 -1.1741
  807MOL0     C11237   8.591   2.992   1.934 -0.2032  0.9938 -0.4134
  807MOL0     C11238   8.697   2.957   1.822 -0.4289  0.0994 -0.2304
  807MOL0     C11239   8.637   2.894   1.702  0.5990  0.1573  0.0085
  807MOL0     C11240   8.744   2.843   1.612 -0.0084  0.5068 -0.2148
  807MOL0     C11241   8.707   2.753   1.491  0.6479 -0.0724  0.2067
  807MOL0     C11242   8.643   2.621   1.551  0.2952 -0.4514 -0.1395
  807MOL0     C11243   8.611   2.514   1.443  0.6218 -0.3719  0.7233
  807MOL0     C11244   8.482   2.554   1.369  0.1153  0.0368 -0.0606
  807MOL0     N11245   8.477   2.481   1.241 -0.2327  0.0237 -0.5016
  807MOL0     C11246   8.551   2.502   1.123  0.4312  0.5050  0.0169
  807MOL0     C11247   8.531   2.387   1.049 -0.3458  0.5935  0.2857
  807MOL0     C11248   8.592   2.331   0.917 -0.2954  0.5466 -0.5245
  807MOL0     C11249   8.539   2.386   0.785  0.0641  0.2417 -0.7929
  807MOL0     C11250   8.618   2.343   0.657 -0.6689  0.3622 -0.9131
  807MOL0     C11251   8.577   2.390   0.524  0.7796 -0.3343 -0.0813
  807MOL0     O11252   8.456   2.326   0.483 -0.4949 -0.3420  0.0175
  807MOL0     C11253   8.377   2.403   0.391  0.2925 -0.1763  0.5297
  807MOL0     C11254   8.230   2.390   0.392 -0.2077  0.8045  0.6082
  807MOL0     C11255   8.146   2.448   0.297  0.7388 -0.6389  0.0036
  807MOL0     C11256   8.003   2.413   0.322 -0.9413  0.1400  0.9417
  807MOL0     C11257   8.205   2.539   0.206  1.0992 -0.1463  0.2333
  807MOL0     C11258   8.120   2.598   0.102  0.9875 -0.5513 -0.3547
  807MOL0     O11259   8.073   2.510   0.006  0.4499 -0.0369  0.1397
  807MOL0     C11260   8.019   2.549  -0.109  0.2677 -0.1556 -0.1158
  807MOL0     C11261   7.885   2.595  -0.118 -0.3150  0.6649  0.3851
  807MOL0     C11262   7.823   2.624  -0.240  0.4685  0.5665  0.8486
  807MOL0     C11263   7.893   2.615  -0.362  0.5469  0.1831 -0.5575
  807MOL0     O11264   7.834   2.644  -0.490 -0.1017  0.1228  0.7017
  807MOL0     C11265   7.688   2.649  -0.505 -0.7990 -0.8775 -0.3523
  807MOL0     C11266   7.651   2.683  -0.651  0.0099 -0.0965 -0.3015
  807MOL0     C11267   7.689   2.571  -0.745  0.9357  0.4120  0.9931
  807MOL0     C11268   7.576   2.522  -0.841  0.5594 -0.0580  0.1295
  807MOL0     C11269   7.617   2.404  -0.926  0.7527  0.1522  0.6868
  807MOL0     C11270   7.630   2.275  -0.847  0.5923  0.3113 -0.3757
  807MOL0     C11271   7.630   2.145  -0.932 -0.1229 -0.0934 -0.2327
  807MOL0     C11272   7.764   2.134  -1.022  1.2643  0.4646  0.0144
  807MOL0    Cl11273   7.890   2.092  -0.906  0.1947  0.1529  0.2404
  807MOL0     C11274   8.029   2.578  -0.357 -0.5087  0.5359 -0.5638
  807MOL0     C11275   8.083   2.543  -0.229 -0.0906 -0.2886  0.5205
  807MOL0     O11276   8.124   2.720   0.094  0.0387  0.3987 -0.4719
  807MOL0     C11277   8.341   2.562   0.197  0.9933  0.5164  0.1184
  807MOL0     C11278   8.429   2.498   0.297  0.5376 -0.0432 -0.5055
  807MOL0     N11279   8.426   2.323   1.114  0.8901 -0.3243 -0.6937
  807MOL0     N11280   8.389   2.371   1.230 -0.3184 -0.1560  0.2586
  807MOL0     C11281   8.713   3.001   2.195  0.1831 -0.3561  1.2720
  807MOL0     C11282   8.753   3.000   2.327  1.8237 -0.3479  0.4244
  807MOL0     C11283   8.854   3.113   2.739 -0.1905  1.0482 -0.3160
  807MOL0     C11284   8.763   3.203   2.795 -0.0608  0.3717  0.5733
  807MOL0     C11285   8.771   3.241   2.934 -0.2491 -1.3012 -0.6387
  807MOL0     C11286   8.881   3.205   3.006 -0.3041  0.9685  1.0541
  807MOL0     O11287   8.908   3.264   3.124  0.4877 -0.1719 -0.0690
  807MOL0     C11288   9.029   3.259   3.192 -0.6154  0.3234 -0.5158
  807MOL0     C11289   9.150   3.349   3.138  0.0065  0.0199 -0.0433
  807MOL0     C11290   9.126   3.493   3.174 -0.2099  0.0849 -0.0970
  807MOL0     C11291   9.242   3.579   3.113 -0.0026  0.3024 -0.5316
  807MOL0     C11292   9.220   3.721   3.139  0.1101  0.6150 -1.0616
  807MOL0     C11293   9.207   3.838   3.156  0.4218  0.3472  0.5962
  807MOL0     C11294   8.970   3.115   2.954 -0.8635 -0.4441 -1.0656
  807MOL0     C11295   8.957   3.071   2.828  0.9070  0.1703  0.1102
  807MOL0     C11296   9.071   2.975   2.786 -0.0120 -0.6903  0.3380
  807MOL0     H11297   8.709   3.327   2.371  3.5949  0.9397 -3.0833
  807MOL0     H11298   8.634   3.315   2.127 -3.5852 -1.2347 -0.3712
  807MOL0     H11299   8.488   3.001   1.898 -0.7305  0.0405  0.7723
  807MOL0     H11300   8.574   2.901   1.993 -3.5471  2.3466  1.0046
  807MOL0     H11301   8.762   3.037   1.785  4.1449 -2.9775  0.3041
  807MOL0     H11302   8.779   2.896   1.862  0.2598  1.2289  0.1327
  807MOL0     H11303   8.566   2.821   1.743  0.9533  0.7420  1.7322
  807MOL0     H11304   8.585   2.969   1.642  2.0979  1.1068 -0.1287
  807MOL0     H11305   8.789   2.934   1.572  1.0640 -0.0452 -0.3150
  807MOL0     H11306   8.822   2.786   1.665  0.3585 -0.3420 -1.6111
  807MOL0     H11307   8.786   2.729   1.419 -2.6160 -0.3033 -3.6205
  807MOL0     H11308   8.625   2.805   1.441  0.1918 -0.7275  0.2728
  807MOL0     H11309   8.716   2.580   1.622 -1.0108  1.7251  2.6888
  807MOL0     H11310   8.554   2.655   1.605  0.4008  1.4452 -1.0784
  807MOL0     H11311   8.597   2.415   1.488 -2.6340 -0.0722  0.6033
  807MOL0     H11312   8.697   2.506   1.376 -1.1373 -2.2423 -1.4586
  807MOL0     H11313   8.393   2.518   1.421 -0.2252  1.2323  0.2131
  807MOL0     H11314   8.478   2.663   1.359 -1.6074  0.2058  1.7681
  807MOL0     H11315   8.626   2.578   1.105  1.4173  0.4258  3.1902
  807MOL0     H11316   8.572   2.226   0.898  0.6583  0.4279 -0.9407
  807MOL0     H11317   8.701   2.337   0.925 -0.3908 -0.0438  2.1993
  807MOL0     H11318   8.438   2.344   0.788  0.1660  0.0139 -0.4137
  807MOL0     H11319   8.522   2.491   0.810  0.9959  0.1313  0.3976
  807MOL0     H11320   8.721   2.372   0.680 -0.7153  0.2341 -0.5381
  807MOL0     H11321   8.628   2.234   0.650  4.2628  0.6784 -2.5024
  807MOL0     H11322   8.544   2.495   0.523 -0.7411 -0.7650  0.8970
  807MOL0     H11323   8.652   2.360   0.451 -3.2021 -2.5551 -3.6860
  807MOL0     H11324   8.189   2.319   0.463  0.5681 -3.2939 -2.6982
  807MOL0     H11325   7.979   2.439   0.425  3.4048  1.2398  1.8984
  807MOL0     H11326   7.982   2.309   0.296  1.1622  0.2655 -1.6943
  807MOL0     H11327   7.946   2.478   0.255 -0.4087  1.6192  1.8589
  807MOL0     H11328   7.818   2.585  -0.033 -1.2913 -0.0581 -0.4472
  807MOL0     H11329   7.716   2.641  -0.236  0.2737 -0.7633  3.2698
  807MOL0     H11330   7.658   2.553  -0.462  3.3074 -1.2747  2.2099
  807MOL0     H11331   7.646   2.732  -0.448 -1.0056 -1.4839  0.3900
  807MOL0     H11332   7.542   2.690  -0.638  0.1028 -2.1844  2.7891
  807MOL0     H11333   7.690   2.779  -0.685  4.1696 -1.3040  0.4516
  807MOL0     H11334   7.725   2.482  -0.694  0.8896 -0.6488 -0.7363
  807MOL0     H11335   7.768   2.609  -0.810 -1.7337  2.0750 -1.5584
  807MOL0     H11336   7.544   2.603  -0.907  3.2075  0.8211 -0.2024
  807MOL0     H11337   7.484   2.502  -0.785  0.0752 -0.2934 -0.7298
  807MOL0     H11338   7.547   2.388  -1.009  0.2172  0.1084  1.1333
  807MOL0     H11339   7.714   2.429  -0.969  2.4158 -0.4404  3.7499
  807MOL0     H11340   7.549   2.269  -0.773  0.5588  2.0886 -0.2253
  807MOL0     H11341   7.718   2.284  -0.782  0.1207  1.0920  0.1657
  807MOL0     H11342   7.542   2.124  -0.992  0.8410 -1.1764 -1.3173
  807MOL0     H11343   7.633   2.050  -0.878  1.8462 -1.0611 -1.9195
  807MOL0     H11344   7.784   2.225  -1.080 -1.3965  0.7170 -0.6527
  807MOL0     H11345   7.738   2.053  -1.091  0.0034 -0.1758  1.1999
  807MOL0     H11346   8.097   2.563  -0.440  0.9249  2.4676  0.2039
  807MOL0     H11347   8.188   2.517  -0.217  0.6072  0.8815 -2.2768
  807MOL0     H11348   8.385   2.626   0.121 -0.5959 -0.6919 -1.8971
  807MOL0     H11349   8.536   2.515   0.293  0.4805  1.6628  2.2388
  807MOL0     H11350   8.726   2.903   2.150  1.5352  0.5066 -0.3543
  807MOL0     H11351   8.769   2.900   2.366  1.6411 -1.1603 -1.4697
  807MOL0     H11352   8.675   3.244   2.747 -1.2187 -0.7083  1.7164
  807MOL0     H11353   8.707   3.317   2.976  1.2632 -0.8013  0.8931
  807MOL0     H11354   9.014   3.298   3.293  1.7191 -0.5500  0.2314
  807MOL0     H11355   9.068   3.157   3.194  1.4199  0.9778 -2.1278
  807MOL0     H11356   9.162   3.334   3.031 -0.3070 -0.9094  0.0441
  807MOL0     H11357   9.242   3.305   3.180 -0.4362 -1.7457 -0.8508
  807MOL0     H11358   9.032   3.526   3.129 -0.0532 -1.0360 -1.3019
  807MOL0     H11359   9.117   3.503   3.283 -1.5726  3.8769 -0.4004
  807MOL0     H11360   9.244   3.553   3.007  0.3406 -1.4875 -0.1156
  807MOL0     H11361   9.337   3.556   3.162 -1.3833 -2.8607  0.9876
  807MOL0     H11362   9.192   3.944   3.150  1.6600  0.4421 -2.2422
  807MOL0     H11363   9.059   3.086   3.009 -1.4431 -0.2989 -0.0288
  807MOL0     H11364   9.051   2.868   2.799 -2.0484 -0.4130 -0.2125
  807MOL0     H11365   9.097   2.995   2.681 -1.8636 -0.9627 -0.2094
  807MOL0     H11366   9.156   2.991   2.853 -0.6982  1.0586  0.8498
  808MOL0     O11367   4.415  11.438   5.494  0.1211  0.4292 -0.7172
  808MOL0     C11368   4.539  11.436   5.485 -0.5485 -1.0323 -0.3342
  808MOL0     O11369   4.620  11.329   5.458 -0.5106  0.0999  0.2497
  808MOL0     C11370   4.564  11.211   5.423 -0.7543 -0.5226  0.3983
  808MOL0     C11371   4.549  11.166   5.294  0.1286 -0.5089  0.0568
  808MOL0     C11372   4.470  11.053   5.265 -0.3062 -0.0147  0.0230
  808MOL0     C11373   4.415  10.976   5.369 -0.6073  0.4898  0.8746
  808MOL0     O11374   4.338  10.868   5.354 -0.3593 -0.2425  0.1173
  808MOL0     C11375   4.398  10.760   5.268 -0.7794 -0.2094 -0.0334
  808MOL0     C11376   4.321  10.762   5.125 -0.2739  0.2152 -1.0522
  808MOL0     C11377   4.357  10.630   5.057 -0.5407 -0.3970  0.4204
  808MOL0     C11378   4.495  10.637   4.992 -0.9821 -0.3942  0.2230
  808MOL0     C11379   4.523  10.502   4.922 -0.7222  0.1144 -0.2631
  808MOL0     C11380   4.676  10.499   4.879 -0.3932 -0.1859  0.6950
  808MOL0     C11381   4.715  10.379   4.799  0.1550  0.3264 -0.2982
  808MOL0     C11382   4.645  10.361   4.672 -0.1511  0.6408 -0.2031
  808MOL0     N11383   4.698  10.248   4.599  0.5353  0.2519  0.6550
  808MOL0     C11384   4.826  10.229   4.562 -0.8818  0.4765  0.5935
  808MOL0     C11385   4.819  10.112   4.484  0.4565 -0.5001 -0.4715
  808MOL0     C11386   4.944  10.072   4.414  0.1246 -0.0904  0.1169
  808MOL0     C11387   4.991   9.933   4.470 -0.0594 -0.3914 -0.8163
  808MOL0     C11388   4.897   9.812   4.450  0.0657 -0.5292 -0.3799
  808MOL0     C11389   4.952   9.663   4.474  0.6341 -1.1720 -0.0568
  808MOL0     O11390   4.961   9.652   4.619  0.1627  0.6889 -0.4762
  808MOL0     C11391   5.043   9.547   4.661 -0.8466 -0.3281 -0.1157
  808MOL0     C11392   5.046   9.418   4.600 -0.1060 -0.4966  0.1617
  808MOL0     C11393   5.130   9.321   4.646  0.4893 -0.1857 -0.2794
  808MOL0     C11394   5.105   9.189   4.579  0.2066 -0.7036  0.4655
  808MOL0     C11395   5.203   9.334   4.766 -0.3448  0.3900  0.3094
  808MOL0     C11396   5.291   9.233   4.831  1.3538 -0.3853 -0.0520
  808MOL0     O11397   5.288   9.237   4.972 -0.1420  0.1776  0.2956
  808MOL0     C11398   5.345   9.126   5.025  0.6101  0.3614  0.4638
  808MOL0     C11399   5.268   9.024   5.060 -0.1517 -0.3340 -0.6031
  808MOL0     C11400   5.320   8.903   5.117 -0.1723 -0.2915 -0.1711
  808MOL0     C11401   5.459   8.891   5.142  0.7157  0.2429  0.1706
  808MOL0     O11402   5.517   8.771   5.185  0.4254 -0.2126 -0.6361
  808MOL0     C11403   5.655   8.763   5.184 -0.7222  0.7075 -0.1291
  808MOL0     C11404   5.695   8.616   5.234  0.1930  0.3902  0.2269
  808MOL0     C11405   5.705   8.525   5.108  0.1387 -0.4986  0.5469
  808MOL0     C11406   5.775   8.391   5.121  0.7606  0.6679 -0.8530
  808MOL0     C11407   5.673   8.286   5.171  0.3250 -0.6180  0.4455
  808MOL0     C11408   5.709   8.136   5.155  0.0985 -0.6934  0.1411
  808MOL0     C11409   5.849   8.099   5.216  0.1945 -0.0782 -0.1915
  808MOL0     C11410   5.908   7.972   5.150  0.4522 -0.0823 -0.0012
  808MOL0    Cl11411   6.065   7.930   5.223 -0.2333 -0.5737  0.2618
  808MOL0     C11412   5.534   8.996   5.096  0.5303  0.2434  0.4193
  808MOL0     C11413   5.481   9.107   5.041 -0.4576 -1.3088  0.1452
  808MOL0     O11414   5.343   9.142   4.760 -0.1795  0.6201 -0.2967
  808MOL0     C11415   5.200   9.456   4.824  0.1973 -0.6057 -0.3942
  808MOL0     C11416   5.124   9.570   4.775 -0.4366  0.2959 -1.3324
  808MOL0     N11417   4.687  10.062   4.482 -0.0029  0.2471  0.0048
  808MOL0     N11418   4.611  10.154   4.534  0.3767  0.1144 -0.3375
  808MOL0     C11419   4.438  11.014   5.503  0.0382  0.5636  0.7327
  808MOL0     C11420   4.514  11.134   5.527 -0.3500 -0.1318 -0.1805
  808MOL0     C11421   4.602  11.559   5.543  0.2512 -0.8308 -0.1000
  808MOL0     C11422   4.552  11.609   5.663  0.5356 -0.0835 -0.2232
  808MOL0     C11423   4.571  11.737   5.714 -0.1224 -0.3729 -0.2665
  808MOL0     C11424   4.661  11.814   5.647  0.2806 -0.3313  0.5111
  808MOL0     O11425   4.703  11.925   5.699 -0.0831 -0.1573 -0.6155
  808MOL0     C11426   4.613  12.034   5.673 -0.0799  0.1332  0.1170
  808MOL0     C11427   4.632  12.081   5.533 -0.1650 -0.0678  0.1475
  808MOL0     C11428   4.781  12.132   5.506  0.2044  0.1650  0.3253
  808MOL0     C11429   4.791  12.185   5.358  0.6489 -0.2585 -0.1377
  808MOL0     C11430   4.782  12.071   5.262  0.1651 -0.2057  0.4112
  808MOL0     C11431   4.783  11.986   5.180  0.7507  0.3457  0.6681
  808MOL0     C11432   4.732  11.764   5.533 -0.4117 -0.1873  0.8785
  808MOL0     C11433   4.700  11.637   5.478 -0.9423  0.4944 -0.6923
  808MOL0     C11434   4.744  11.605   5.341 -0.4409  1.3315 -0.3474
  808MOL0     H11435   4.587  11.224   5.211 -1.7279  0.6737 -0.0204
  808MOL0     H11436   4.447  11.022   5.163  2.7077  0.1589 -0.7936
  808MOL0     H11437   4.390  10.660   5.311 -1.8365  0.4797  1.4377
  808MOL0     H11438   4.505  10.777   5.253 -0.5246 -0.9691  0.8520
  808MOL0     H11439   4.216  10.778   5.150  0.2501  3.3920 -0.4109
  808MOL0     H11440   4.362  10.849   5.072  0.1023 -0.8391 -2.5447
  808MOL0     H11441   4.349  10.548   5.129 -0.9039 -1.2444 -0.5578
  808MOL0     H11442   4.284  10.610   4.978 -3.3403 -3.1634  3.4110
  808MOL0     H11443   4.512  10.726   4.930 -0.0373 -1.6948 -1.4670
  808MOL0     H11444   4.560  10.652   5.078  0.5589  1.9568 -1.2137
  808MOL0     H11445   4.464  10.487   4.832  0.8337 -1.4620 -1.0895
  808MOL0     H11446   4.493  10.418   4.985 -0.7232  1.1565  1.1857
  808MOL0     H11447   4.703  10.583   4.815  2.3536 -1.0713  0.5772
  808MOL0     H11448   4.736  10.507   4.970 -0.8217  2.1698  0.8284
  808MOL0     H11449   4.694  10.293   4.863 -4.0324  1.3567 -0.0473
  808MOL0     H11450   4.823  10.394   4.784  0.0671 -0.7250 -2.2021
  808MOL0     H11451   4.537  10.347   4.677  0.0498 -0.7261  1.4016
  808MOL0     H11452   4.666  10.446   4.606 -0.7041 -0.5557 -1.9535
  808MOL0     H11453   4.917  10.287   4.570 -2.0119  2.8035 -1.8671
  808MOL0     H11454   5.020  10.148   4.436 -0.4514  0.2482  0.9901
  808MOL0     H11455   4.942  10.072   4.304 -0.7695 -3.4730  0.0216
  808MOL0     H11456   5.085   9.899   4.425 -0.3036 -2.5350  0.1455
  808MOL0     H11457   5.007   9.936   4.578  2.9208 -0.2228 -1.1933
  808MOL0     H11458   4.815   9.831   4.520  0.6421 -0.8127  0.3860
  808MOL0     H11459   4.870   9.812   4.344 -2.3116  0.3449  0.1651
  808MOL0     H11460   4.884   9.589   4.432  0.8262 -2.3762  1.6945
  808MOL0     H11461   5.051   9.662   4.428 -0.3012  0.1447 -2.2833
  808MOL0     H11462   4.984   9.393   4.514 -0.9518 -1.9644  1.1605
  808MOL0     H11463   5.081   9.110   4.651  0.5187 -0.2744  1.0414
  808MOL0     H11464   5.194   9.157   4.524 -1.3160 -2.6392 -1.0493
  808MOL0     H11465   5.028   9.185   4.501  2.7845  0.2505 -2.3346
  808MOL0     H11466   5.162   9.032   5.043 -0.3610  1.6597  1.2257
  808MOL0     H11467   5.258   8.820   5.150 -0.6089 -0.1706 -0.6696
  808MOL0     H11468   5.690   8.780   5.082  2.7290 -3.5234  0.0360
  808MOL0     H11469   5.693   8.841   5.252  2.1565 -3.1968  3.2557
  808MOL0     H11470   5.784   8.625   5.298 -1.0393  1.2429  1.8754
  808MOL0     H11471   5.621   8.578   5.305  1.0139 -2.5676 -0.3378
  808MOL0     H11472   5.751   8.576   5.023 -1.8202 -0.1856 -0.3547
  808MOL0     H11473   5.603   8.506   5.073  0.8037 -0.1794 -1.7577
  808MOL0     H11474   5.864   8.403   5.184 -1.7992  3.4371  2.7138
  808MOL0     H11475   5.807   8.359   5.022  2.3275 -1.4840  0.2573
  808MOL0     H11476   5.652   8.306   5.277  0.2305  2.2978 -0.0428
  808MOL0     H11477   5.574   8.291   5.125  0.9698 -1.9642 -1.1710
  808MOL0     H11478   5.722   8.104   5.051  3.1049  1.7819 -0.3758
  808MOL0     H11479   5.624   8.083   5.201 -0.4444  0.9809  1.1553
  808MOL0     H11480   5.834   8.082   5.323 -0.7682  0.6724 -0.1964
  808MOL0     H11481   5.932   8.170   5.203 -0.1751  0.2048 -1.0964
  808MOL0     H11482   5.916   7.990   5.043 -1.2779  3.0914  0.2701
  808MOL0     H11483   5.843   7.885   5.164 -1.3588  0.8839 -1.9215
  808MOL0     H11484   5.643   8.992   5.089  0.4620  0.5233 -1.3513
  808MOL0     H11485   5.553   9.181   5.005  1.2435 -3.3372 -0.8459
  808MOL0     H11486   5.254   9.479   4.915 -2.6307  0.6712  1.1241
  808MOL0     H11487   5.131   9.665   4.827  1.0686 -0.8545  0.6991
  808MOL0     H11488   4.399  10.958   5.587 -2.5945  2.2261  0.7407
  808MOL0     H11489   4.531  11.171   5.627  3.8706 -1.4735 -0.2101
  808MOL0     H11490   4.482  11.539   5.708 -1.0833  0.6715 -1.4498
  808MOL0     H11491   4.523  11.765   5.808 -2.5359 -1.1449 -1.2046
  808MOL0     H11492   4.506  12.014   5.681 -0.4599  1.8207 -0.2329
  808MOL0     H11493   4.641  12.107   5.749 -0.1785 -2.4278  2.7880
  808MOL0     H11494   4.563  12.166   5.535 -0.2408 -0.1047 -0.5794
  808MOL0     H11495   4.607  12.009   5.455 -0.0598  1.1254 -1.0311
  808MOL0     H11496   4.789  12.220   5.570 -0.9202 -0.0065  0.7345
  808MOL0     H11497   4.866  12.068   5.534  1.4511  0.8997 -1.6086
  808MOL0     H11498   4.893  12.226   5.356  2.6509 -4.6360  0.2894
  808MOL0     H11499   4.727  12.266   5.324  2.1346  1.0576  0.0493
  808MOL0     H11500   4.778  11.905   5.110 -0.4634  3.0113 -2.6419
  808MOL0     H11501   4.803  11.825   5.478 -0.7420  0.1253  0.7899
  808MOL0     H11502   4.668  11.549   5.286 -0.4787  0.0275  0.9771
  808MOL0     H11503   4.780  11.695   5.290  0.2022  2.6833  2.2922
  808MOL0     H11504   4.828  11.535   5.343 -2.5262 -1.3172 -0.7123
  809MOL0     O11505   3.490   7.690  10.987 -0.0831 -0.1296 -0.0193
  809MOL0     C11506   3.612   7.684  10.990  0.1191  0.0107 -0.7570
  809MOL0     O11507   3.679   7.688  11.111  0.1998  0.0389  0.2445
  809MOL0     C11508   3.618   7.659  11.232 -0.7390  0.3572  1.0241
  809MOL0     C11509   3.551   7.538  11.247  0.6380 -0.3490  0.2463
  809MOL0     C11510   3.499   7.503  11.370 -0.0957 -0.0825 -0.1437
  809MOL0     C11511   3.504   7.595  11.479 -1.1155 -0.5467 -0.2282
  809MOL0     O11512   3.449   7.575  11.606 -0.3058  0.1034  0.0396
  809MOL0     C11513   3.317   7.525  11.600  1.4284 -0.0765 -0.1564
  809MOL0     C11514   3.223   7.644  11.621  0.2998  0.5099  0.0550
  809MOL0     C11515   3.089   7.602  11.638  0.8241 -0.8599  0.6865
  809MOL0     C11516   3.024   7.563  11.506  0.3733 -0.6572  1.4532
  809MOL0     C11517   2.878   7.536  11.552  0.4450  0.3031 -0.0826
  809MOL0     C11518   2.789   7.478  11.437 -0.5084  0.5964  0.4653
  809MOL0     C11519   2.676   7.391  11.506 -0.0772 -1.0060  0.4461
  809MOL0     C11520   2.570   7.470  11.578 -0.1221  0.2394  0.8439
  809MOL0     N11521   2.472   7.382  11.644 -0.1228  0.0015  0.0040
  809MOL0     C11522   2.330   7.397  11.640 -0.1227  0.1760 -0.6692
  809MOL0     C11523   2.276   7.296  11.722  0.5990 -0.6594 -0.0448
  809MOL0     C11524   2.124   7.285  11.751  0.0602  0.1116 -0.3176
  809MOL0     C11525   2.063   7.175  11.658  0.6568 -0.0085 -0.9248
  809MOL0     C11526   1.912   7.173  11.678  0.2804  0.0262 -0.6498
  809MOL0     C11527   1.847   7.053  11.631  0.5819  0.0321  0.3691
  809MOL0     O11528   1.708   7.061  11.616  0.1894  0.8483  0.1330
  809MOL0     C11529   1.621   6.977  11.674  0.1196 -0.1778  0.2101
  809MOL0     C11530   1.643   6.882  11.770  0.1795  0.4850 -0.4881
  809MOL0     C11531   1.554   6.786  11.824  0.1427  1.1377 -0.1443
  809MOL0     C11532   1.612   6.692  11.932 -0.3766 -0.3193  0.7965
  809MOL0     C11533   1.417   6.792  11.786  0.0236 -0.2729 -0.6488
  809MOL0     C11534   1.306   6.698  11.826 -0.3071  0.5438  0.0159
  809MOL0     O11535   1.181   6.721  11.773 -0.3592 -0.0778 -0.2510
  809MOL0     C11536   1.070   6.653  11.802  0.6208 -0.5404  0.0274
  809MOL0     C11537   1.053   6.518  11.853 -0.1914 -0.2712 -0.1732
  809MOL0     C11538   0.929   6.465  11.878  0.2656  0.3382  0.0068
  809MOL0     C11539   0.815   6.537  11.832  0.0141 -0.4459  0.0636
  809MOL0     O11540   0.691   6.487  11.852 -0.0691  0.2634 -0.0357
  809MOL0     C11541   0.609   6.485  11.733  0.3435 -0.2220 -0.2694
  809MOL0     C11542   0.478   6.416  11.766  0.0152 -0.0816 -0.2293
  809MOL0     C11543   0.491   6.280  11.834 -0.2075  0.1559  0.1268
  809MOL0     C11544   0.572   6.188  11.734  0.1997 -1.3915 -0.7128
  809MOL0     C11545   0.556   6.039  11.773 -0.1243  0.2426 -0.4721
  809MOL0     C11546   0.649   5.942  11.698  0.2337 -0.4480 -0.1916
  809MOL0     C11547   0.630   5.794  11.701 -0.3046  0.7728  0.3090
  809MOL0     C11548   0.611   5.749  11.841 -1.6044 -0.4892  0.1735
  809MOL0    Cl11549   0.626   5.579  11.846 -0.4035 -0.1582 -0.0658
  809MOL0     C11550   0.833   6.667  11.777  0.4424 -0.5194  0.4072
  809MOL0     C11551   0.959   6.721  11.765 -0.3565 -0.0625  0.0649
  809MOL0     O11552   1.329   6.618  11.922  0.0166 -0.3157 -0.3073
  809MOL0     C11553   1.389   6.908  11.698 -0.6044 -0.2443 -0.0406
  809MOL0     C11554   1.486   6.993  11.642  0.9106  0.7730  0.8034
  809MOL0     N11555   2.384   7.227  11.774  0.2257 -0.2324  0.9251
  809MOL0     N11556   2.496   7.272  11.723  0.4475  0.9642 -0.2918
  809MOL0     C11557   3.567   7.717  11.454 -0.2603 -1.1347  0.0172
  809MOL0     C11558   3.630   7.748  11.335  0.7775 -0.1134 -0.7520
  809MOL0     C11559   3.690   7.684  10.865  0.4335  0.0157  0.9146
  809MOL0     C11560   3.833   7.667  10.880 -0.0324 -0.1105  0.3408
  809MOL0     C11561   3.919   7.661  10.775 -0.6527 -0.8313  0.7576
  809MOL0     C11562   3.878   7.653  10.643  1.4981 -0.6978  0.5457
  809MOL0     O11563   3.969   7.626  10.552  0.7351 -0.0099 -0.1573
  809MOL0     C11564   3.931   7.592  10.412 -0.5520  0.2533 -0.1745
  809MOL0     C11565   4.043   7.523  10.321  0.3893 -0.6181 -0.5264
  809MOL0     C11566   3.982   7.438  10.212 -0.5200 -0.3936  0.0936
  809MOL0     C11567   4.089   7.351  10.144  1.0483 -0.5438 -0.6270
  809MOL0     C11568   4.032   7.272  10.038  0.2799 -0.0478  0.2563
  809MOL0     C11569   3.998   7.195   9.951  0.3246  0.4095 -0.1538
  809MOL0     C11570   3.741   7.662  10.623 -0.7367  0.0241  0.1944
  809MOL0     C11571   3.646   7.679  10.726 -0.3172  0.8604 -0.9594
  809MOL0     C11572   3.517   7.727  10.681  0.1437 -0.2022  1.4640
  809MOL0     H11573   3.555   7.477  11.157  2.5047 -1.2673  0.9026
  809MOL0     H11574   3.454   7.407  11.393  1.8322 -0.6253  1.6674
  809MOL0     H11575   3.298   7.460  11.686  1.3258 -0.2803 -0.3309
  809MOL0     H11576   3.279   7.480  11.508  1.8887 -1.1520  0.1572
  809MOL0     H11577   3.247   7.690  11.717 -3.6106 -0.8859  1.9111
  809MOL0     H11578   3.230   7.710  11.534 -0.5378 -0.6524 -0.9217
  809MOL0     H11579   3.085   7.525  11.716  2.3038 -0.0762  1.5868
  809MOL0     H11580   3.042   7.687  11.688  1.0127 -1.9446  2.8317
  809MOL0     H11581   3.007   7.638  11.429 -1.7620 -2.6062 -0.1182
  809MOL0     H11582   3.065   7.482  11.446 -1.8498 -0.2031 -0.8217
  809MOL0     H11583   2.840   7.633  11.585 -4.6890 -1.6688  0.7302
  809MOL0     H11584   2.882   7.459  11.629 -2.9565  2.2165  2.2679
  809MOL0     H11585   2.748   7.551  11.366  0.5141  1.4023  0.6760
  809MOL0     H11586   2.848   7.421  11.365 -0.6098  3.7028 -2.3537
  809MOL0     H11587   2.725   7.323  11.577  1.4822  1.9731  2.4139
  809MOL0     H11588   2.639   7.340  11.417  1.4417  0.0402 -0.8337
  809MOL0     H11589   2.619   7.533  11.652  2.2187 -1.8199  1.1973
  809MOL0     H11590   2.516   7.535  11.509 -0.4807  1.1966  1.9915
  809MOL0     H11591   2.272   7.473  11.588  0.6547  0.8763 -0.5335
  809MOL0     H11592   2.078   7.383  11.739 -2.5151 -0.8110  1.1344
  809MOL0     H11593   2.118   7.250  11.855 -0.1807 -0.2244 -0.4427
  809MOL0     H11594   2.089   7.207  11.557  1.7474  0.7280 -0.4288
  809MOL0     H11595   2.100   7.078  11.692 -2.6495  0.3251  5.0364
  809MOL0     H11596   1.902   7.177  11.787  4.6458 -2.1337  0.0575
  809MOL0     H11597   1.861   7.258  11.632 -0.2506  0.3820  0.5349
  809MOL0     H11598   1.892   7.022  11.536  0.1077 -1.9540  0.7539
  809MOL0     H11599   1.883   6.975  11.699  1.9179  0.3832  0.0983
  809MOL0     H11600   1.746   6.867  11.799 -0.3617 -2.2131  0.4041
  809MOL0     H11601   1.540   6.697  12.015 -0.1353  0.5204  0.9611
  809MOL0     H11602   1.703   6.732  11.976 -0.2209  3.3978 -2.3194
  809MOL0     H11603   1.630   6.593  11.889  1.2956  1.0320 -1.9061
  809MOL0     H11604   1.131   6.455  11.894 -0.4146 -0.1751  0.4225
  809MOL0     H11605   0.911   6.375  11.936 -0.2855  1.3977  1.5672
  809MOL0     H11606   0.574   6.587  11.717  0.4779  0.1408  1.5596
  809MOL0     H11607   0.662   6.438  11.650 -0.9895 -3.7439  0.6643
  809MOL0     H11608   0.439   6.470  11.853 -1.9905 -1.0471 -0.4621
  809MOL0     H11609   0.405   6.413  11.685 -0.3941  1.1312  0.0680
  809MOL0     H11610   0.388   6.244  11.838  0.5353 -1.9980  2.0509
  809MOL0     H11611   0.538   6.277  11.933  1.2821 -2.8366 -0.5523
  809MOL0     H11612   0.677   6.212  11.756  0.3063 -0.1866 -2.3877
  809MOL0     H11613   0.549   6.200  11.628  2.1397 -1.3479 -1.1582
  809MOL0     H11614   0.571   6.026  11.881  1.8318  1.8217 -0.5108
  809MOL0     H11615   0.458   5.993  11.756  1.0805 -3.4533  1.4570
  809MOL0     H11616   0.741   5.967  11.751 -2.0003 -2.1114  5.1905
  809MOL0     H11617   0.658   5.969  11.592  0.4003  0.7159  0.1047
  809MOL0     H11618   0.715   5.753  11.646 -0.2922 -1.4856  1.8480
  809MOL0     H11619   0.533   5.775  11.653 -1.1760 -3.6341  3.1813
  809MOL0     H11620   0.515   5.788  11.876 -0.0330  3.0032  1.0588
  809MOL0     H11621   0.677   5.797  11.914  0.2151 -0.1572 -1.6080
  809MOL0     H11622   0.741   6.721  11.756  1.8036  0.9872 -2.1882
  809MOL0     H11623   0.987   6.817  11.722  0.6122 -0.4754 -0.2407
  809MOL0     H11624   1.287   6.912  11.661 -0.3441 -1.6255 -0.9981
  809MOL0     H11625   1.452   7.065  11.569 -1.3731 -0.3449  0.6511
  809MOL0     H11626   3.565   7.807  11.515 -2.0142 -0.6145 -0.7558
  809MOL0     H11627   3.687   7.838  11.315 -1.5375  1.4340 -0.7561
  809MOL0     H11628   3.871   7.660  10.982 -2.4564 -2.7099  1.2176
  809MOL0     H11629   4.017   7.619  10.795 -0.6507  0.1734  3.1241
  809MOL0     H11630   3.855   7.514  10.425 -0.2487  0.3617  3.0573
  809MOL0     H11631   3.875   7.664  10.352  1.1040 -0.4731 -2.7248
  809MOL0     H11632   4.120   7.459  10.368  0.5213  0.2820  0.5280
  809MOL0     H11633   4.099   7.598  10.265 -1.7946  3.3121  2.0538
  809MOL0     H11634   3.899   7.378  10.250 -2.0732  1.0672 -0.8923
  809MOL0     H11635   3.931   7.511  10.149  1.1762  1.7077  1.0055
  809MOL0     H11636   4.140   7.286  10.215 -1.3107 -1.3317  0.4412
  809MOL0     H11637   4.173   7.417  10.120  1.1600  0.1730  1.5137
  809MOL0     H11638   3.962   7.129   9.875  0.0963  0.4375 -0.0698
  809MOL0     H11639   3.709   7.659  10.519  0.0100  2.9150 -0.2112
  809MOL0     H11640   3.499   7.822  10.731  2.7651  0.7590  0.7139
  809MOL0     H11641   3.516   7.748  10.574  0.5577 -0.9073  1.3160
  809MOL0     H11642   3.434   7.657  10.694  1.6097 -1.5643  4.5813
  810MOL0     O11643   1.848   4.451   4.301 -0.5492  0.4982  0.8501
  810MOL0     C11644   1.896   4.543   4.233  0.5162 -0.2386 -0.5748
  810MOL0     O11645   1.851   4.670   4.251  0.5423 -0.1101 -0.5332
  810MOL0     C11646   1.739   4.712   4.333 -0.7010 -0.8317 -0.1020
  810MOL0     C11647   1.632   4.635   4.375  0.4309 -0.4259  0.0502
  810MOL0     C11648   1.524   4.698   4.433  0.4326 -0.3685 -0.1368
  810MOL0     C11649   1.508   4.837   4.444  1.2394 -0.0545 -0.5475
  810MOL0     O11650   1.389   4.880   4.497 -0.3565 -0.6372 -0.2913
  810MOL0     C11651   1.380   5.014   4.542 -0.9455  0.7563  0.1654
  810MOL0     C11652   1.285   5.010   4.672  0.3525 -0.8480  0.5596
  810MOL0     C11653   1.130   5.002   4.646  0.5306  0.6956  0.2065
  810MOL0     C11654   1.055   4.976   4.781 -0.3600 -0.2905 -0.0621
  810MOL0     C11655   0.915   4.958   4.745 -0.1514  1.0917  0.2136
  810MOL0     C11656   0.871   4.826   4.673 -0.0919 -0.1902  0.2789
  810MOL0     C11657   0.738   4.847   4.619  0.2509  0.2135  0.2503
  810MOL0     C11658   0.668   4.711   4.600  0.4908  0.6572 -0.7571
  810MOL0     N11659   0.520   4.735   4.568  0.2172  0.2827 -0.4816
  810MOL0     C11660   0.477   4.831   4.472  0.1027 -0.0452  0.1492
  810MOL0     C11661   0.337   4.840   4.482  0.0131  0.8493 -0.4123
  810MOL0     C11662   0.254   4.938   4.408  1.5390  0.2250  0.0333
  810MOL0     C11663   0.104   4.908   4.417 -0.1728  0.8357 -0.2512
  810MOL0     C11664   0.026   4.890   4.555 -0.0545 -0.3114  0.1648
  810MOL0     C11665   0.018   5.020   4.641 -0.5627 -0.2299 -0.3425
  810MOL0     O11666  -0.052   5.122   4.570 -0.1414 -0.3170 -0.7282
  810MOL0     C11667  -0.051   5.254   4.624 -0.2333  0.7368  0.4996
  810MOL0     C11668  -0.131   5.347   4.553  0.2648  0.2580 -0.0205
  810MOL0     C11669  -0.145   5.484   4.595 -0.8345 -0.5807  0.4310
  810MOL0     C11670  -0.244   5.576   4.512 -0.4580 -0.1893  0.0116
  810MOL0     C11671  -0.073   5.523   4.719 -1.3893  0.9230 -0.6528
  810MOL0     C11672  -0.060   5.659   4.777  0.1042 -0.5864  0.2956
  810MOL0     O11673  -0.063   5.674   4.916 -0.2320 -0.3497 -0.6417
  810MOL0     C11674  -0.052   5.801   4.969 -0.0586  0.6341  0.2726
  810MOL0     C11675   0.049   5.887   4.934  0.0694 -0.5406  0.3815
  810MOL0     C11676   0.060   6.025   4.981  0.3800 -0.4739  0.8252
  810MOL0     C11677  -0.042   6.067   5.066 -0.0049 -0.5686 -0.0627
  810MOL0     O11678  -0.026   6.195   5.111  0.4316  0.0593 -0.7363
  810MOL0     C11679  -0.116   6.240   5.217  0.0205  0.1777  0.6786
  810MOL0     C11680  -0.074   6.387   5.249 -0.1408 -0.7456  0.1858
  810MOL0     C11681   0.073   6.416   5.291 -0.2374 -0.3410  0.2240
  810MOL0     C11682   0.088   6.571   5.303  0.2417  0.1385  0.2587
  810MOL0     C11683   0.229   6.603   5.352 -0.5775 -0.8944 -0.2547
  810MOL0     C11684   0.242   6.754   5.377 -0.6693  0.4038 -0.5462
  810MOL0     C11685   0.364   6.807   5.466  0.1925  0.2060  0.4817
  810MOL0     C11686   0.343   6.953   5.499  0.0115  0.2260 -0.1443
  810MOL0    Cl11687   0.345   7.053   5.355  0.1107  0.0260  0.0088
  810MOL0     C11688  -0.141   5.975   5.116 -0.9629  0.5389 -0.3672
  810MOL0     C11689  -0.144   5.844   5.066 -0.2287 -0.4025  0.0706
  810MOL0     O11690  -0.052   5.749   4.693  0.1252 -1.3017  0.4283
  810MOL0     C11691   0.004   5.424   4.786  0.1702 -0.3390 -1.2315
  810MOL0     C11692   0.006   5.297   4.740  0.0406  0.3074 -0.3643
  810MOL0     N11693   0.304   4.746   4.582  0.1193 -0.2533 -0.4314
  810MOL0     N11694   0.402   4.691   4.626 -0.6957 -0.3184 -0.5441
  810MOL0     C11695   1.614   4.914   4.405  0.1376  0.2195 -0.2329
  810MOL0     C11696   1.729   4.851   4.346 -0.2491 -0.2980  0.0361
  810MOL0     C11697   2.020   4.506   4.157  1.1008 -1.0095  0.3545
  810MOL0     C11698   2.013   4.388   4.091  0.2844  0.0617 -0.0395
  810MOL0     C11699   2.108   4.355   3.995 -0.6872  0.9551  0.7483
  810MOL0     C11700   2.221   4.437   3.974  0.5819  0.2269 -1.1129
  810MOL0     O11701   2.320   4.420   3.889 -0.0061  0.0342  1.0006
  810MOL0     C11702   2.333   4.282   3.828  0.2002 -0.5983  0.8151
  810MOL0     C11703   2.485   4.267   3.768  0.6564 -0.6245  0.2616
  810MOL0     C11704   2.604   4.309   3.853 -0.0130 -0.2860 -0.1420
  810MOL0     C11705   2.727   4.258   3.775 -1.3373 -0.3150  0.0680
  810MOL0     C11706   2.847   4.320   3.839 -1.2557 -0.1045  0.8229
  810MOL0     C11707   2.958   4.366   3.848 -0.3152  0.0034 -0.0105
  810MOL0     C11708   2.230   4.554   4.043  0.1013 -0.2344  0.4033
  810MOL0     C11709   2.128   4.598   4.132  0.0451 -0.3854  0.3548
  810MOL0     C11710   2.136   4.734   4.198  0.4202  0.0146  0.8534
  810MOL0     H11711   1.622   4.527   4.380 -4.7610 -0.3914 -2.5897
  810MOL0     H11712   1.446   4.638   4.479 -0.1401 -1.2268 -2.1152
  810MOL0     H11713   1.337   5.085   4.470  0.6965  1.2983 -0.3270
  810MOL0     H11714   1.477   5.049   4.580 -0.0007 -0.7006 -0.8098
  810MOL0     H11715   1.314   4.925   4.734  2.6327 -2.7093 -2.7825
  810MOL0     H11716   1.306   5.104   4.723  1.4901 -0.8143  0.0605
  810MOL0     H11717   1.110   5.104   4.612  2.4161  1.5779  1.5241
  810MOL0     H11718   1.104   4.930   4.568 -0.0174 -1.2141  2.0572
  810MOL0     H11719   1.096   4.888   4.832 -0.4048  0.9837  2.2784
  810MOL0     H11720   1.071   5.054   4.856  1.7004 -1.2957  0.6239
  810MOL0     H11721   0.875   5.042   4.687  0.0531  0.3122 -1.0900
  810MOL0     H11722   0.862   4.950   4.840  0.7207 -0.4615  0.5905
  810MOL0     H11723   0.929   4.807   4.582 -2.1378  0.3147 -1.2173
  810MOL0     H11724   0.878   4.741   4.741 -3.4741 -0.5226  0.3929
  810MOL0     H11725   0.749   4.902   4.525  1.6217 -0.0783  0.2159
  810MOL0     H11726   0.678   4.904   4.691 -2.6043  2.2091 -3.3760
  810MOL0     H11727   0.709   4.649   4.520  1.4619 -0.6899  0.7339
  810MOL0     H11728   0.670   4.650   4.691  0.2697 -1.9452 -2.4065
  810MOL0     H11729   0.540   4.886   4.403 -0.1376  2.3410  1.7268
  810MOL0     H11730   0.291   4.925   4.306  0.2990 -0.7165 -0.3264
  810MOL0     H11731   0.280   5.038   4.442  0.7829 -0.0922  1.6509
  810MOL0     H11732   0.043   4.983   4.367 -4.6307 -3.0315 -1.2836
  810MOL0     H11733   0.093   4.822   4.350  0.2373 -1.4552  2.4364
  810MOL0     H11734  -0.072   4.864   4.515  0.2597  1.8572 -2.3012
  810MOL0     H11735   0.065   4.806   4.615  0.1788  0.2318  0.7950
  810MOL0     H11736  -0.033   5.005   4.737  1.1462  2.5760  1.1623
  810MOL0     H11737   0.120   5.051   4.665 -0.2119 -3.0394  2.3578
  810MOL0     H11738  -0.190   5.308   4.471 -0.6201 -1.7527  1.4786
  810MOL0     H11739  -0.210   5.680   4.508  0.0059 -0.3426 -0.1396
  810MOL0     H11740  -0.342   5.574   4.561 -0.8075 -1.2603 -0.6925
  810MOL0     H11741  -0.272   5.544   4.411 -4.3077  1.2740  0.4461
  810MOL0     H11742   0.129   5.853   4.868 -0.4597 -0.4381 -0.3293
  810MOL0     H11743   0.148   6.087   4.971  1.9498 -2.2399  2.6932
  810MOL0     H11744  -0.220   6.234   5.182  1.2039  1.6143 -3.7219
  810MOL0     H11745  -0.092   6.170   5.298  1.7837 -0.6307 -0.4982
  810MOL0     H11746  -0.094   6.439   5.154  2.0134 -1.1708 -0.5669
  810MOL0     H11747  -0.142   6.429   5.323  0.2101  2.6808 -1.2366
  810MOL0     H11748   0.145   6.383   5.215 -0.4196 -0.5679  0.1464
  810MOL0     H11749   0.097   6.355   5.379  2.8714  1.2432  0.5989
  810MOL0     H11750   0.018   6.620   5.371  1.1263  4.2376 -1.4566
  810MOL0     H11751   0.065   6.603   5.201 -3.9236 -1.1753  0.6298
  810MOL0     H11752   0.255   6.545   5.441 -1.7359  0.8301  1.2955
  810MOL0     H11753   0.300   6.562   5.280 -0.3022  0.5981 -0.8894
  810MOL0     H11754   0.153   6.789   5.430 -1.1079 -1.4483 -0.0043
  810MOL0     H11755   0.250   6.801   5.278  3.0444 -0.5119 -0.8438
  810MOL0     H11756   0.456   6.784   5.412  0.5926 -1.7724  1.8831
  810MOL0     H11757   0.369   6.752   5.560  1.6488  2.9045  2.1086
  810MOL0     H11758   0.417   6.990   5.572 -0.6343  1.2939 -0.0125
  810MOL0     H11759   0.245   6.967   5.545 -0.5906  0.5974 -1.4932
  810MOL0     H11760  -0.217   6.000   5.190 -2.6557 -2.4101 -0.9595
  810MOL0     H11761  -0.227   5.787   5.105  0.8510 -3.1463 -1.3082
  810MOL0     H11762   0.068   5.446   4.870  1.0053 -3.4201 -0.9383
  810MOL0     H11763   0.066   5.231   4.801  0.2959  2.1271  1.4716
  810MOL0     H11764   1.600   5.021   4.403  1.7176  0.4407 -1.5986
  810MOL0     H11765   1.803   4.912   4.295 -0.8803 -0.8863 -1.6714
  810MOL0     H11766   1.921   4.331   4.101 -0.4066  1.1495 -0.0536
  810MOL0     H11767   2.098   4.266   3.933  1.0071 -0.3216  2.1859
  810MOL0     H11768   2.316   4.211   3.909 -3.7119  2.4364  3.0174
  810MOL0     H11769   2.259   4.271   3.748  0.4821  1.2998  0.2421
  810MOL0     H11770   2.487   4.341   3.687  1.1113  2.3973  2.8600
  810MOL0     H11771   2.503   4.164   3.736 -2.6741 -0.7980 -1.5410
  810MOL0     H11772   2.612   4.417   3.867  0.4373 -0.0736 -1.8320
  810MOL0     H11773   2.592   4.267   3.953 -1.1092  3.6418  1.5813
  810MOL0     H11774   2.718   4.288   3.670 -2.0339 -2.0253 -0.3864
  810MOL0     H11775   2.730   4.149   3.781  1.6893 -0.3282  0.2716
  810MOL0     H11776   3.059   4.398   3.865 -0.4561 -0.9531  3.3282
  810MOL0     H11777   2.321   4.613   4.044 -0.3505  0.5182  2.4386
  810MOL0     H11778   2.062   4.796   4.147  0.9007  0.6187  0.8697
  810MOL0     H11779   2.122   4.741   4.306 -0.9906  1.1880  0.6242
  810MOL0     H11780   2.237   4.773   4.182  1.6117 -1.7961  3.3062
  811MOL0     O11781   0.930   9.239   4.307  0.2101 -0.8859 -0.7305
  811MOL0     C11782   0.979   9.146   4.237  0.2604  0.1231  0.0517
  811MOL0     O11783   0.991   9.019   4.292  0.6905  0.5860  0.1321
  811MOL0     C11784   0.948   9.009   4.423  0.6687 -0.1740  0.0685
  811MOL0     C11785   1.006   9.086   4.527 -0.5676  0.4677  0.0155
  811MOL0     C11786   0.960   9.077   4.656  0.2744 -0.2095 -0.2482
  811MOL0     C11787   0.850   8.992   4.689  0.1249 -0.8574  0.2764
  811MOL0     O11788   0.800   8.989   4.816 -0.1572 -0.6391  0.6658
  811MOL0     C11789   0.891   9.011   4.931 -0.4534  1.0017  0.1768
  811MOL0     C11790   0.852   8.908   5.037 -0.4607 -0.2420  0.4516
  811MOL0     C11791   0.925   8.932   5.176 -0.8724  0.7311  0.4272
  811MOL0     C11792   0.891   8.828   5.286 -0.0062 -0.0104 -0.6859
  811MOL0     C11793   0.755   8.850   5.357  0.2962  0.3334  1.0678
  811MOL0     C11794   0.716   8.741   5.457  0.3786 -0.5813  0.5573
  811MOL0     C11795   0.595   8.779   5.544 -0.7668 -0.5457  0.2867
  811MOL0     C11796   0.458   8.805   5.471  0.1660  0.0331 -0.4984
  811MOL0     N11797   0.411   8.701   5.380  0.0236 -0.6465 -0.7136
  811MOL0     C11798   0.447   8.666   5.252  0.5016 -0.0004 -0.2909
  811MOL0     C11799   0.415   8.536   5.243 -0.5016 -1.2567 -0.1105
  811MOL0     C11800   0.437   8.456   5.111  0.6943 -1.4163  0.1606
  811MOL0     C11801   0.580   8.394   5.086  0.0844  0.0437  0.8350
  811MOL0     C11802   0.687   8.499   5.103 -0.8645  1.0095  0.1482
  811MOL0     C11803   0.831   8.453   5.071 -0.3841  0.7676 -0.3430
  811MOL0     O11804   0.854   8.525   4.954 -0.0600 -0.1059 -0.2110
  811MOL0     C11805   0.980   8.520   4.903  0.4384 -0.8813 -0.0179
  811MOL0     C11806   1.019   8.626   4.819  0.2518  0.5387  0.7981
  811MOL0     C11807   1.154   8.632   4.766 -0.1110 -0.7455 -0.5718
  811MOL0     C11808   1.167   8.751   4.678  0.0460  0.0129 -0.7365
  811MOL0     C11809   1.255   8.556   4.826 -0.1797  0.0905  0.3969
  811MOL0     C11810   1.403   8.574   4.807 -0.8086 -0.7866  0.5100
  811MOL0     O11811   1.482   8.471   4.799  0.3944 -0.2683 -0.1434
  811MOL0     C11812   1.617   8.484   4.776 -0.1160 -1.2889  0.4540
  811MOL0     C11813   1.718   8.478   4.882 -0.0952 -0.0312  0.5575
  811MOL0     C11814   1.853   8.491   4.855 -0.5304 -0.5527 -0.3155
  811MOL0     C11815   1.902   8.544   4.729  0.7801  1.1512 -0.3818
  811MOL0     O11816   2.037   8.553   4.722  0.2832 -0.3568  0.1656
  811MOL0     C11817   2.085   8.627   4.618 -0.0025 -0.6745  1.1539
  811MOL0     C11818   2.155   8.535   4.510 -0.9303  0.1712  0.2231
  811MOL0     C11819   2.092   8.397   4.489  0.5394  0.5923  0.0300
  811MOL0     C11820   2.163   8.310   4.382 -0.6116  1.0004  0.3790
  811MOL0     C11821   2.065   8.221   4.302  0.0612  0.7906  0.7686
  811MOL0     C11822   1.983   8.119   4.385 -0.1124  0.2267  0.3568
  811MOL0     C11823   2.070   7.997   4.436  0.6156 -0.6325 -0.8090
  811MOL0     C11824   2.111   8.000   4.580 -0.0016 -0.2088  0.6103
  811MOL0    Cl11825   2.245   7.880   4.597  0.0169 -0.2042 -0.1523
  811MOL0     C11826   1.804   8.559   4.628  0.4259 -0.5664 -0.3140
  811MOL0     C11827   1.665   8.531   4.651 -0.5178  0.3546  1.0486
  811MOL0     O11828   1.440   8.693   4.790  0.5033 -0.2978 -0.3563
  811MOL0     C11829   1.213   8.443   4.904  0.0406  0.3156  0.1275
  811MOL0     C11830   1.076   8.426   4.938  0.3427 -0.5672 -0.4280
  811MOL0     N11831   0.365   8.497   5.361 -0.3750 -0.3973 -0.2682
  811MOL0     N11832   0.359   8.593   5.445 -0.1897  0.4179  1.0931
  811MOL0     C11833   0.796   8.916   4.589 -0.3113 -0.4428 -0.8231
  811MOL0     C11834   0.845   8.917   4.457  0.3052 -0.1372 -1.5547
  811MOL0     C11835   0.975   9.169   4.098  0.4086  0.2998 -0.0090
  811MOL0     C11836   0.856   9.231   4.044 -0.4217 -0.1934 -0.3627
  811MOL0     C11837   0.863   9.296   3.920 -0.6078  1.0597  0.0663
  811MOL0     C11838   0.974   9.279   3.839 -0.5515  0.2056 -0.1694
  811MOL0     O11839   0.977   9.360   3.728 -0.0697 -0.0259  0.3024
  811MOL0     C11840   1.107   9.386   3.659  0.3005 -0.1327 -0.1444
  811MOL0     C11841   1.071   9.461   3.524 -0.5927 -1.2054 -0.1826
  811MOL0     C11842   1.013   9.378   3.405  0.1981 -0.2805 -0.3155
  811MOL0     C11843   1.085   9.252   3.367 -0.9787  0.1683  0.2129
  811MOL0     C11844   1.233   9.272   3.345 -0.2044  0.2191  0.7679
  811MOL0     C11845   1.357   9.287   3.338 -0.2566 -0.2600  0.8865
  811MOL0     C11846   1.089   9.208   3.887  0.6762 -0.4671 -0.0646
  811MOL0     C11847   1.090   9.149   4.014 -0.3109 -0.0199 -0.9878
  811MOL0     C11848   1.206   9.066   4.056 -0.0854 -0.7368 -0.1638
  811MOL0     H11849   1.093   9.150   4.510 -0.4057 -0.3331 -2.6887
  811MOL0     H11850   0.993   9.140   4.738  2.6071 -3.5531  1.6213
  811MOL0     H11851   0.868   9.112   4.966  2.1643  1.6804  0.1640
  811MOL0     H11852   0.999   9.011   4.912 -0.6646  0.2665 -1.1942
  811MOL0     H11853   0.743   8.917   5.044 -0.3535  1.2059  0.5911
  811MOL0     H11854   0.871   8.804   5.010  1.9925  0.4005 -0.5738
  811MOL0     H11855   1.035   8.927   5.173 -0.8498  0.4524  1.2007
  811MOL0     H11856   0.887   9.026   5.215 -2.2137  0.1311  0.6126
  811MOL0     H11857   0.885   8.724   5.252  0.7561  0.5271 -2.5645
  811MOL0     H11858   0.968   8.835   5.363 -0.8004  2.9116 -0.0101
  811MOL0     H11859   0.688   8.869   5.273  0.6872  2.3546  1.1607
  811MOL0     H11860   0.758   8.951   5.398  0.8182  0.8272 -0.1344
  811MOL0     H11861   0.699   8.646   5.406  2.4118 -0.5596 -0.2205
  811MOL0     H11862   0.796   8.745   5.531  1.5501  2.4215 -0.7224
  811MOL0     H11863   0.626   8.873   5.591  1.6241 -1.3913  0.5740
  811MOL0     H11864   0.583   8.695   5.614 -0.0214 -1.5131 -0.7211
  811MOL0     H11865   0.374   8.814   5.540 -0.9194 -2.0586 -1.4626
  811MOL0     H11866   0.459   8.900   5.416  0.2229 -1.1995 -2.7697
  811MOL0     H11867   0.489   8.724   5.171  1.0299  2.4380  1.5884
  811MOL0     H11868   0.407   8.516   5.025 -0.7108 -0.0838  1.5032
  811MOL0     H11869   0.364   8.374   5.110 -0.3474 -0.5476  1.0463
  811MOL0     H11870   0.591   8.304   5.147  0.3414 -1.4478 -1.3030
  811MOL0     H11871   0.582   8.372   4.979 -2.9750  3.4523 -0.1402
  811MOL0     H11872   0.668   8.582   5.034 -0.0507  0.6237 -0.5642
  811MOL0     H11873   0.687   8.529   5.208  4.0647  1.6699  0.1933
  811MOL0     H11874   0.888   8.497   5.154 -2.0825 -0.4320  1.5553
  811MOL0     H11875   0.839   8.345   5.053  1.0972  0.7049  0.5273
  811MOL0     H11876   0.940   8.698   4.802 -1.3355 -1.3377 -0.1786
  811MOL0     H11877   1.255   8.744   4.614  2.5141 -1.1415  2.5358
  811MOL0     H11878   1.171   8.847   4.730 -0.7465 -0.2980 -0.0746
  811MOL0     H11879   1.081   8.764   4.611 -0.9969  0.1385  0.5697
  811MOL0     H11880   1.689   8.450   4.982 -0.7654  1.3219  0.7706
  811MOL0     H11881   1.920   8.465   4.936 -0.5502  0.6953  0.1289
  811MOL0     H11882   2.010   8.700   4.586 -0.3016 -1.5290 -0.1659
  811MOL0     H11883   2.165   8.691   4.656 -0.4895 -0.0027  1.0572
  811MOL0     H11884   2.139   8.593   4.419 -2.1066  0.5459  0.6568
  811MOL0     H11885   2.262   8.519   4.527 -0.6926 -0.8539 -1.9203
  811MOL0     H11886   1.993   8.417   4.445  1.0426  2.4669 -0.3332
  811MOL0     H11887   2.081   8.332   4.576  1.7124 -0.9822 -0.9431
  811MOL0     H11888   2.234   8.233   4.415 -0.9890 -2.0685 -4.7788
  811MOL0     H11889   2.220   8.376   4.316 -0.2067 -1.8749 -2.4336
  811MOL0     H11890   1.990   8.278   4.247  0.2365 -0.0592 -0.3947
  811MOL0     H11891   2.127   8.161   4.234 -1.0334  0.7438 -0.2053
  811MOL0     H11892   1.904   8.081   4.320 -1.9830 -0.6879  2.9786
  811MOL0     H11893   1.937   8.167   4.473 -1.1951 -1.6658  0.8921
  811MOL0     H11894   2.165   8.000   4.383  0.7346 -0.3822 -0.5831
  811MOL0     H11895   2.026   7.897   4.426 -0.8178 -0.2926  1.2440
  811MOL0     H11896   2.025   7.956   4.631 -0.3740  0.0612  0.2261
  811MOL0     H11897   2.145   8.098   4.615 -1.3464 -0.5795  3.1577
  811MOL0     H11898   1.835   8.591   4.529  1.6060  1.6214  0.6993
  811MOL0     H11899   1.605   8.545   4.561  0.6234  0.5218  0.2875
  811MOL0     H11900   1.291   8.372   4.930 -1.2105 -1.2004 -0.1312
  811MOL0     H11901   1.044   8.341   4.997 -1.1061  0.2901  0.0629
  811MOL0     H11902   0.712   8.850   4.608 -1.3499  0.1281 -3.1701
  811MOL0     H11903   0.785   8.861   4.386 -0.0206 -0.8262 -0.7632
  811MOL0     H11904   0.770   9.241   4.109  0.5159  0.0787  0.8638
  811MOL0     H11905   0.788   9.370   3.893  2.8643  3.6818 -3.3455
  811MOL0     H11906   1.171   9.441   3.727  1.6313 -0.3182 -1.1920
  811MOL0     H11907   1.159   9.294   3.630  1.4349  0.7629 -1.0317
  811MOL0     H11908   1.164   9.505   3.487 -0.7702 -0.3553  0.3441
  811MOL0     H11909   1.005   9.545   3.549  0.0810 -0.6754 -0.1314
  811MOL0     H11910   0.920   9.336   3.443  1.1084 -1.9198  0.1817
  811MOL0     H11911   0.996   9.434   3.312  1.5095  0.1384 -0.3241
  811MOL0     H11912   1.049   9.214   3.271  0.2000  2.1788 -1.1141
  811MOL0     H11913   1.074   9.175   3.445 -2.2802 -0.8792 -0.9460
  811MOL0     H11914   1.463   9.279   3.329 -0.3252 -1.3642  0.9161
  811MOL0     H11915   1.180   9.198   3.829  1.1655 -0.8433  0.7431
  811MOL0     H11916   1.297   9.122   4.034 -1.2028  0.0019 -3.4023
  811MOL0     H11917   1.211   9.055   4.165  1.5487 -0.0589 -0.1479
  811MOL0     H11918   1.200   8.969   4.005  0.9541  0.9370 -3.7534
  812MOL0     O11919   3.465   2.341   0.185  0.2966  0.1288  0.2837
  812MOL0     C11920   3.456   2.230   0.227 -0.3761 -0.8102 -0.1421
  812MOL0     O11921   3.558   2.138   0.233  0.7033  0.8874 -0.1188
  812MOL0     C11922   3.686   2.173   0.215  0.2286 -0.2071 -0.0281
  812MOL0     C11923   3.771   2.095   0.133 -0.5140 -0.4130 -0.7388
  812MOL0     C11924   3.912   2.116   0.117 -0.1544  0.1907 -0.6272
  812MOL0     C11925   3.970   2.225   0.186 -0.4970 -0.0250 -0.5459
  812MOL0     O11926   4.107   2.229   0.165 -0.1555  0.2686  0.1169
  812MOL0     C11927   4.186   2.351   0.193  0.6727 -0.1156  0.4343
  812MOL0     C11928   4.333   2.306   0.169 -0.3426 -0.3928  0.7449
  812MOL0     C11929   4.435   2.413   0.190  0.3095  0.1819  0.3312
  812MOL0     C11930   4.452   2.493   0.068 -0.7381  0.6108  0.3741
  812MOL0     C11931   4.574   2.582   0.080 -0.2530 -0.3134 -0.2228
  812MOL0     C11932   4.583   2.692  -0.037  0.5565 -0.2449 -0.6905
  812MOL0     C11933   4.697   2.788  -0.004 -0.7698 -0.3482 -0.1756
  812MOL0     C11934   4.714   2.847   0.144  0.4762 -0.5682 -0.4584
  812MOL0     N11935   4.834   2.929   0.165  0.0813 -0.4549  0.2765
  812MOL0     C11936   4.968   2.892   0.143  0.4531  0.8330 -0.0333
  812MOL0     C11937   5.039   2.998   0.186 -0.5403 -0.1864  0.2812
  812MOL0     C11938   5.189   3.009   0.183 -0.5894  0.2205  0.4335
  812MOL0     C11939   5.241   3.110   0.079  0.0258  0.2763 -0.2466
  812MOL0     C11940   5.392   3.119   0.108  0.0456 -0.2466  0.1726
  812MOL0     C11941   5.458   3.180  -0.012 -0.1655  0.1300 -0.4658
  812MOL0     O11942   5.578   3.108  -0.042  0.0507 -0.2826  0.0848
  812MOL0     C11943   5.685   3.104   0.048  0.5681  0.0476  0.7753
  812MOL0     C11944   5.711   3.212   0.135  0.0198 -0.1994 -0.3375
  812MOL0     C11945   5.812   3.197   0.243 -0.1176 -0.3204  0.3467
  812MOL0     C11946   5.828   3.312   0.340 -0.4718 -0.5823  0.0038
  812MOL0     C11947   5.875   3.073   0.258  0.5996 -0.6394  0.4839
  812MOL0     C11948   5.957   3.036   0.374 -0.3722 -0.3948 -0.1303
  812MOL0     O11949   6.075   2.957   0.342 -0.0924 -0.4522 -0.3855
  812MOL0     C11950   6.184   2.951   0.433  0.4922 -0.5647 -0.1703
  812MOL0     C11951   6.285   2.856   0.399  0.0992  0.9330 -0.7952
  812MOL0     C11952   6.411   2.854   0.475  0.7575  0.7328  0.4982
  812MOL0     C11953   6.445   2.946   0.567  0.5011 -0.1037 -0.3000
  812MOL0     O11954   6.561   2.937   0.632 -0.0622  0.7928  0.3711
  812MOL0     C11955   6.603   3.050   0.714  0.4520  0.7647 -0.0587
  812MOL0     C11956   6.740   3.006   0.770 -0.3726 -0.5368  0.3182
  812MOL0     C11957   6.807   3.118   0.844  0.2421 -0.6657  0.0234
  812MOL0     C11958   6.858   3.096   0.989  0.0328  0.3059 -0.4534
  812MOL0     C11959   6.749   3.062   1.088 -0.1673  0.0931  0.0458
  812MOL0     C11960   6.633   3.168   1.112  0.2479 -0.7984 -0.5666
  812MOL0     C11961   6.546   3.145   1.237 -0.1318 -0.3230 -0.7628
  812MOL0     C11962   6.423   3.229   1.255  0.4127  0.5371 -0.0872
  812MOL0    Cl11963   6.319   3.161   1.392  0.1689 -0.1543  0.1188
  812MOL0     C11964   6.345   3.046   0.588 -0.3554 -0.4318 -0.6774
  812MOL0     C11965   6.217   3.048   0.531 -0.9712  0.0673 -0.5094
  812MOL0     O11966   5.925   3.077   0.482 -0.5466  0.0899  0.0506
  812MOL0     C11967   5.851   2.971   0.162  0.4397 -0.9387  0.4603
  812MOL0     C11968   5.764   2.997   0.054 -0.3348 -0.1309 -0.1361
  812MOL0     N11969   4.953   3.100   0.219 -0.2735 -0.7227  0.0332
  812MOL0     N11970   4.826   3.060   0.195  0.0665 -0.5469 -0.1102
  812MOL0     C11971   3.892   2.294   0.279 -0.5912  0.2097 -0.1701
  812MOL0     C11972   3.754   2.265   0.296  0.0062  1.0195  0.4597
  812MOL0     C11973   3.327   2.190   0.284 -0.7419 -0.1494 -0.2181
  812MOL0     C11974   3.235   2.299   0.319 -0.0025 -0.1118  0.1841
  812MOL0     C11975   3.112   2.265   0.371 -0.5520 -0.0638 -0.2362
  812MOL0     C11976   3.072   2.133   0.379  0.8283  0.7325 -0.2241
  812MOL0     O11977   2.950   2.107   0.442  0.0802 -0.3028  0.7276
  812MOL0     C11978   2.884   1.978   0.437  0.2566 -0.9236  0.2180
  812MOL0     C11979   2.779   1.990   0.551  0.6082  0.6232 -0.2747
  812MOL0     C11980   2.689   1.863   0.557  0.1191 -0.7619 -0.2534
  812MOL0     C11981   2.737   1.762   0.647 -0.1640  0.7264 -0.6470
  812MOL0     C11982   2.693   1.623   0.626  0.0847  0.0019 -0.6885
  812MOL0     C11983   2.664   1.504   0.605 -0.3156 -0.3006  0.8751
  812MOL0     C11984   3.155   2.032   0.346  0.1823 -1.0522 -0.6156
  812MOL0     C11985   3.294   2.058   0.312  0.7411 -0.2876 -0.1286
  812MOL0     C11986   3.366   1.934   0.270  0.6503 -0.5006 -0.0846
  812MOL0     H11987   3.726   2.011   0.082 -1.2533 -0.4922  0.0239
  812MOL0     H11988   3.973   2.065   0.044 -1.1755 -1.6309 -0.2556
  812MOL0     H11989   4.159   2.379   0.295  3.0733 -0.8665  1.3501
  812MOL0     H11990   4.157   2.429   0.122 -4.1206 -1.0197  1.0694
  812MOL0     H11991   4.348   2.234   0.250  1.8145 -2.8214 -1.6106
  812MOL0     H11992   4.347   2.262   0.070  0.2708  2.8153 -0.6997
  812MOL0     H11993   4.409   2.464   0.284 -0.4856 -2.9418  1.9385
  812MOL0     H11994   4.539   2.383   0.204  0.3482 -0.0429 -0.4082
  812MOL0     H11995   4.456   2.427  -0.019 -0.7310 -0.5970  1.2681
  812MOL0     H11996   4.362   2.553   0.054  0.3156  1.9643 -0.9062
  812MOL0     H11997   4.666   2.523   0.076 -0.3409 -0.5200  0.6779
  812MOL0     H11998   4.569   2.630   0.178  0.7961 -1.3270  0.3505
  812MOL0     H11999   4.597   2.639  -0.132 -0.3042 -2.0837  0.1606
  812MOL0     H12000   4.488   2.746  -0.037  0.2819 -0.7107  0.3362
  812MOL0     H12001   4.690   2.876  -0.069 -1.3144 -0.6379 -0.5161
  812MOL0     H12002   4.791   2.737  -0.026  0.6575  1.5534  1.1555
  812MOL0     H12003   4.619   2.891   0.174 -0.4458 -1.0125 -2.5204
  812MOL0     H12004   4.743   2.757   0.198  0.2397 -0.2302  0.2396
  812MOL0     H12005   5.003   2.795   0.110  2.2214  0.7441  1.9197
  812MOL0     H12006   5.242   2.914   0.178  1.7434  1.4172  1.2386
  812MOL0     H12007   5.227   3.052   0.276 -1.3908  3.0178 -0.4068
  812MOL0     H12008   5.210   3.069  -0.017  3.0211 -3.7968  0.2302
  812MOL0     H12009   5.201   3.211   0.090  0.6204  0.6706 -1.4778
  812MOL0     H12010   5.407   3.183   0.195 -0.5716  3.9083 -2.5106
  812MOL0     H12011   5.425   3.018   0.136 -1.8376 -1.8425 -2.7205
  812MOL0     H12012   5.399   3.165  -0.103 -0.8677 -1.7751  0.2419
  812MOL0     H12013   5.472   3.287   0.004 -1.1786  0.3590 -1.0077
  812MOL0     H12014   5.649   3.302   0.132 -2.1459 -1.4128  3.0656
  812MOL0     H12015   5.931   3.318   0.376 -0.7980  1.6812  0.7428
  812MOL0     H12016   5.762   3.288   0.424 -0.6753  0.4423  0.1593
  812MOL0     H12017   5.798   3.412   0.305 -0.1552  0.1309  1.6557
  812MOL0     H12018   6.263   2.787   0.318 -0.2432 -0.6504  0.5660
  812MOL0     H12019   6.478   2.774   0.449  1.0603  1.4508 -0.9943
  812MOL0     H12020   6.617   3.148   0.668  1.7304  1.5481  1.8889
  812MOL0     H12021   6.530   3.064   0.794  0.9185  2.2425  0.1498
  812MOL0     H12022   6.725   2.921   0.837 -0.4129  0.2706  1.3431
  812MOL0     H12023   6.812   2.971   0.695  0.7788  0.0797  1.1047
  812MOL0     H12024   6.731   3.194   0.860  0.2219 -1.0414  1.9202
  812MOL0     H12025   6.893   3.159   0.790  0.7289  2.0852  2.5917
  812MOL0     H12026   6.901   3.186   1.033 -1.6146  1.3741 -0.9528
  812MOL0     H12027   6.926   3.011   0.978 -0.5582 -0.0584 -1.4640
  812MOL0     H12028   6.699   2.968   1.060 -3.1155  0.6759  2.7239
  812MOL0     H12029   6.798   3.045   1.184 -2.8219  1.2605  1.7280
  812MOL0     H12030   6.569   3.162   1.024  0.5056 -3.3479 -0.6409
  812MOL0     H12031   6.672   3.270   1.112 -0.7797 -0.3492 -2.6759
  812MOL0     H12032   6.612   3.166   1.321 -2.1242  1.5994  0.4099
  812MOL0     H12033   6.519   3.038   1.240  0.6107 -0.5075 -0.6049
  812MOL0     H12034   6.370   3.224   1.159 -0.3625 -0.3182  0.3679
  812MOL0     H12035   6.458   3.332   1.270  1.1696  0.2267  0.3455
  812MOL0     H12036   6.357   3.119   0.668 -0.4433 -1.1464  0.0009
  812MOL0     H12037   6.159   3.136   0.556 -0.6530 -0.5222  2.7638
  812MOL0     H12038   5.903   2.876   0.164 -1.1544 -2.0487 -3.0809
  812MOL0     H12039   5.767   2.921  -0.024  0.0735  0.8312 -1.0795
  812MOL0     H12040   3.939   2.371   0.339 -4.7291  2.0626  1.0706
  812MOL0     H12041   3.692   2.327   0.359 -0.7358 -0.3661  1.1321
  812MOL0     H12042   3.256   2.405   0.308  0.0402 -0.0184  1.1250
  812MOL0     H12043   3.041   2.334   0.414  1.0245  1.3958  0.1168
  812MOL0     H12044   2.851   1.951   0.337 -1.6586  0.9931  0.2701
  812MOL0     H12045   2.947   1.894   0.470  2.1480  0.5874  0.6172
  812MOL0     H12046   2.715   2.079   0.541 -0.5409  0.0388  1.3577
  812MOL0     H12047   2.828   2.004   0.648 -0.1653  3.1820 -0.1686
  812MOL0     H12048   2.597   1.899   0.603  0.5026  1.6465 -1.2322
  812MOL0     H12049   2.684   1.828   0.454 -0.9031 -0.2336 -0.3881
  812MOL0     H12050   2.709   1.787   0.749  3.8388  1.3579  0.4609
  812MOL0     H12051   2.846   1.753   0.637  0.0270  2.2106 -0.0787
  812MOL0     H12052   2.631   1.406   0.578  1.4671 -0.3822 -1.4042
  812MOL0     H12053   3.108   1.935   0.358  0.2166 -0.7251  3.9203
  812MOL0     H12054   3.384   1.960   0.166  1.6790 -0.2295  0.1474
  812MOL0     H12055   3.464   1.926   0.317  3.2065  0.6316 -4.6645
  812MOL0     H12056   3.312   1.841   0.290 -2.9614  0.7038 -3.1196
  813MOL0     O12057   2.582   5.740   1.984 -1.1898  0.8216 -0.7013
  813MOL0     C12058   2.660   5.673   1.910  0.5709 -0.5186  0.4431
  813MOL0     O12059   2.634   5.641   1.782 -0.1875 -0.1510  0.8228
  813MOL0     C12060   2.506   5.644   1.739 -0.5182 -0.4072 -0.6935
  813MOL0     C12061   2.488   5.688   1.609  0.7897 -0.7003  0.1935
  813MOL0     C12062   2.362   5.679   1.545 -0.3699 -0.4423 -1.3341
  813MOL0     C12063   2.254   5.635   1.616 -0.5820  0.4945  0.7723
  813MOL0     O12064   2.125   5.626   1.564  0.0641 -0.6586 -0.1431
  813MOL0     C12065   2.089   5.649   1.421  0.5382 -0.2007  0.2648
  813MOL0     C12066   1.940   5.617   1.408  0.3185 -0.2011 -0.1497
  813MOL0     C12067   1.892   5.648   1.261 -0.5197 -0.2921  0.3264
  813MOL0     C12068   1.931   5.551   1.151  0.0203  0.0657  1.3703
  813MOL0     C12069   1.839   5.577   1.027  0.1298  0.0445  0.3676
  813MOL0     C12070   1.864   5.475   0.915  1.1313  0.4837 -0.2475
  813MOL0     C12071   1.806   5.330   0.948 -0.5184 -0.3506  0.6775
  813MOL0     C12072   1.821   5.229   0.826  0.9008  0.6463  0.9376
  813MOL0     N12073   1.793   5.091   0.863 -0.7054  0.4573  1.1594
  813MOL0     C12074   1.669   5.031   0.861 -0.6129 -0.5124 -0.8844
  813MOL0     C12075   1.692   4.905   0.900 -0.5497  0.3101  0.5727
  813MOL0     C12076   1.586   4.791   0.911  0.3486 -0.8610  0.2640
  813MOL0     C12077   1.604   4.708   0.792  0.3011  0.5328 -0.1639
  813MOL0     C12078   1.476   4.614   0.761  0.7090  0.3198  0.0087
  813MOL0     C12079   1.465   4.488   0.828 -0.9794 -0.2324 -0.2287
  813MOL0     O12080   1.461   4.520   0.975  0.7249  0.1882  0.6765
  813MOL0     C12081   1.507   4.428   1.077  0.6548  0.0321  1.7681
  813MOL0     C12082   1.511   4.289   1.051 -0.4683 -0.0329  0.6565
  813MOL0     C12083   1.536   4.199   1.153 -0.1337  1.2912 -1.0167
  813MOL0     C12084   1.530   4.051   1.113  0.7220 -0.0949  0.0882
  813MOL0     C12085   1.555   4.246   1.285  0.9742 -0.3387 -0.0477
  813MOL0     C12086   1.592   4.164   1.410 -0.1158 -0.5166  0.2856
  813MOL0     O12087   1.649   4.218   1.531  0.4726  0.1451 -0.3307
  813MOL0     C12088   1.691   4.140   1.632  0.1437 -1.0460  0.0129
  813MOL0     C12089   1.658   4.198   1.755 -0.4687  0.7017 -0.1675
  813MOL0     C12090   1.689   4.126   1.874  0.1818 -0.1775 -0.3071
  813MOL0     C12091   1.759   4.005   1.867  0.0776  0.0764 -0.4331
  813MOL0     O12092   1.795   3.930   1.974  0.5210  0.2677  0.1539
  813MOL0     C12093   1.812   3.995   2.106 -0.0200 -0.1347 -0.8697
  813MOL0     C12094   1.958   4.051   2.127  0.8340  1.0292  0.2038
  813MOL0     C12095   2.072   3.939   2.123  1.0072  0.0404 -0.1804
  813MOL0     C12096   2.217   3.992   2.113  0.3664 -0.5920 -0.0231
  813MOL0     C12097   2.320   3.876   2.085  0.6817 -0.2524 -0.8743
  813MOL0     C12098   2.455   3.896   2.126  0.7560  0.3247  0.3592
  813MOL0     C12099   2.523   4.016   2.062 -0.4392  0.2016  0.4044
  813MOL0     C12100   2.521   4.014   1.908  1.0516 -0.1948  1.3281
  813MOL0    Cl12101   2.646   4.129   1.866 -0.0478 -0.4249  0.0984
  813MOL0     C12102   1.790   3.944   1.743  0.0091  0.0431  0.9758
  813MOL0     C12103   1.751   4.016   1.621 -0.3394 -0.3029 -1.3654
  813MOL0     O12104   1.571   4.046   1.392  0.2794 -0.2693  0.1521
  813MOL0     C12105   1.541   4.386   1.306 -0.4337 -1.4753  0.0516
  813MOL0     C12106   1.527   4.475   1.203 -0.1700 -0.0418  0.4832
  813MOL0     N12107   1.832   4.884   0.929  0.3723  0.0014  0.7419
  813MOL0     N12108   1.884   5.001   0.912 -0.5253 -0.4769  0.3694
  813MOL0     C12109   2.271   5.590   1.751 -0.1547 -1.4746  0.7720
  813MOL0     C12110   2.397   5.592   1.808 -0.3249 -0.1529 -0.4206
  813MOL0     C12111   2.796   5.627   1.953  0.4096  0.5846  0.7502
  813MOL0     C12112   2.904   5.616   1.861  0.7037 -0.2920  0.8882
  813MOL0     C12113   3.029   5.580   1.902  0.3545 -0.3118 -0.1681
  813MOL0     C12114   3.074   5.548   2.029 -0.6980 -0.5205 -0.2737
  813MOL0     O12115   3.210   5.512   2.046  0.2525  0.7875 -0.6630
  813MOL0     C12116   3.233   5.445   2.171 -0.0865  0.0407 -0.4224
  813MOL0     C12117   3.374   5.405   2.182  0.2597 -0.2292 -0.5149
  813MOL0     C12118   3.413   5.331   2.308  0.5005  0.6397  0.3911
  813MOL0     C12119   3.395   5.400   2.446 -0.7008 -0.0547  0.3306
  813MOL0     C12120   3.494   5.507   2.480  0.5688 -0.3499  0.8855
  813MOL0     C12121   3.582   5.591   2.489 -0.7909  0.2447 -0.0223
  813MOL0     C12122   2.970   5.560   2.121 -0.0920 -0.0509 -0.5513
  813MOL0     C12123   2.834   5.598   2.086  0.3007 -0.4898 -0.7108
  813MOL0     C12124   2.750   5.607   2.212 -0.0856 -0.1988  0.9635
  813MOL0     H12125   2.580   5.713   1.558  1.7376 -3.1914  0.5671
  813MOL0     H12126   2.351   5.705   1.440 -2.4430  1.4429 -0.7266
  813MOL0     H12127   2.149   5.584   1.357  1.1219  1.8818 -1.4282
  813MOL0     H12128   2.116   5.749   1.385  1.3444  0.5197  2.7129
  813MOL0     H12129   1.916   5.512   1.428 -0.5667  0.3718  2.0521
  813MOL0     H12130   1.889   5.684   1.478 -0.4550 -2.4777  1.6084
  813MOL0     H12131   1.783   5.645   1.271 -0.6853 -2.2599 -1.3256
  813MOL0     H12132   1.925   5.748   1.232  1.9817 -0.0045  3.5701
  813MOL0     H12133   2.035   5.563   1.119  0.2562 -0.5679  1.8909
  813MOL0     H12134   1.929   5.447   1.183  0.8257 -1.0508 -1.8644
  813MOL0     H12135   1.869   5.668   0.975  2.4116  0.7976  2.7574
  813MOL0     H12136   1.733   5.581   1.056  0.4442  0.7693  1.5003
  813MOL0     H12137   1.800   5.504   0.831  0.8240  0.2325 -0.1015
  813MOL0     H12138   1.971   5.473   0.893  0.5149  0.7961 -4.1502
  813MOL0     H12139   1.699   5.337   0.966 -0.4039  1.0319  0.9226
  813MOL0     H12140   1.857   5.285   1.033  1.6469 -0.7979 -0.7702
  813MOL0     H12141   1.751   5.273   0.754  3.6991  1.8520 -1.2445
  813MOL0     H12142   1.923   5.235   0.787  1.6823 -3.1891  1.9844
  813MOL0     H12143   1.578   5.080   0.826  1.3438  2.4021 -2.2869
  813MOL0     H12144   1.486   4.836   0.911 -0.7660 -3.2178  0.2403
  813MOL0     H12145   1.612   4.744   1.006 -0.7599  0.6826  1.3874
  813MOL0     H12146   1.618   4.776   0.707 -0.3216  0.1247 -0.5988
  813MOL0     H12147   1.696   4.652   0.810  0.5273  1.6391  2.6294
  813MOL0     H12148   1.387   4.677   0.774  0.2828 -0.2726 -0.0055
  813MOL0     H12149   1.480   4.593   0.653  0.8965 -1.4589  0.3377
  813MOL0     H12150   1.380   4.422   0.807  0.6379 -3.6007  2.8129
  813MOL0     H12151   1.562   4.440   0.820 -1.5794 -1.3963 -0.6877
  813MOL0     H12152   1.480   4.245   0.957 -3.0894 -0.2224  1.5330
  813MOL0     H12153   1.630   4.009   1.126 -0.1285 -1.8706  1.3248
  813MOL0     H12154   1.480   4.034   1.017  1.5962  3.5378 -1.1738
  813MOL0     H12155   1.464   4.002   1.186  0.0885  1.1400  0.3814
  813MOL0     H12156   1.601   4.290   1.758  1.7724  2.1998 -0.7558
  813MOL0     H12157   1.654   4.172   1.965  1.9915  0.5052  0.0940
  813MOL0     H12158   1.741   4.078   2.120  0.7744  0.4404 -0.1339
  813MOL0     H12159   1.787   3.927   2.188 -0.1661  2.2311  1.1903
  813MOL0     H12160   1.980   4.122   2.046  0.6303  0.9225  0.0530
  813MOL0     H12161   1.979   4.115   2.213  2.1110  0.5295  0.2844
  813MOL0     H12162   2.041   3.877   2.039 -2.2597 -0.6952  1.3905
  813MOL0     H12163   2.049   3.884   2.214  0.2055 -0.2399 -0.5421
  813MOL0     H12164   2.242   4.037   2.209  1.8320  1.7742 -1.4140
  813MOL0     H12165   2.222   4.076   2.044  3.8971 -3.3375 -3.5455
  813MOL0     H12166   2.270   3.798   2.143 -4.2809  2.7732 -0.5620
  813MOL0     H12167   2.307   3.865   1.977  0.5896  1.4978 -1.0576
  813MOL0     H12168   2.513   3.805   2.109  1.8812  0.6270  2.3423
  813MOL0     H12169   2.455   3.918   2.233 -2.0458  2.0987  0.1095
  813MOL0     H12170   2.631   4.027   2.076 -0.3309  0.5413 -0.5790
  813MOL0     H12171   2.486   4.113   2.097  0.8296  0.7263  0.3617
  813MOL0     H12172   2.423   4.049   1.874  1.6377 -0.4439 -0.7530
  813MOL0     H12173   2.555   3.923   1.859 -0.4014  0.0978 -0.3249
  813MOL0     H12174   1.829   3.843   1.749  1.2819  0.5792  1.9670
  813MOL0     H12175   1.764   3.980   1.519 -0.8016  1.2715 -2.0272
  813MOL0     H12176   1.554   4.437   1.401  0.4632 -0.7754 -0.4337
  813MOL0     H12177   1.516   4.578   1.236  0.3107 -0.6879  2.8556
  813MOL0     H12178   2.193   5.547   1.815 -0.4116 -0.2306  1.3173
  813MOL0     H12179   2.416   5.553   1.908  0.9670  1.4429  0.0223
  813MOL0     H12180   2.886   5.642   1.757 -3.0595 -0.2257  1.4182
  813MOL0     H12181   3.114   5.594   1.836  1.3388  3.8537  1.6086
  813MOL0     H12182   3.218   5.521   2.248 -0.7686  1.3431 -1.8006
  813MOL0     H12183   3.175   5.356   2.195 -1.8728  1.1445 -0.4956
  813MOL0     H12184   3.437   5.494   2.175  1.4436 -1.0849 -1.3060
  813MOL0     H12185   3.407   5.347   2.095 -0.9479 -1.0282 -0.4690
  813MOL0     H12186   3.354   5.239   2.310 -1.5616  1.8546 -1.2296
  813MOL0     H12187   3.514   5.288   2.304 -0.5754 -2.0324  0.0239
  813MOL0     H12188   3.413   5.318   2.515  0.9528 -0.6452 -0.7576
  813MOL0     H12189   3.296   5.448   2.447 -0.2616  0.9602 -1.0548
  813MOL0     H12190   3.661   5.658   2.517  0.1311 -0.7049 -0.2540
  813MOL0     H12191   2.996   5.529   2.222 -0.7892  1.1010 -0.0054
  813MOL0     H12192   2.742   5.714   2.236 -1.0173 -0.0137 -0.1236
  813MOL0     H12193   2.657   5.554   2.189  0.4030 -1.2588  1.3644
  813MOL0     H12194   2.788   5.542   2.291 -1.8902 -0.3906  1.7042
  814MOL0     O12195   5.022   8.317   6.963  0.2400  0.2780 -0.2056
  814MOL0     C12196   4.909   8.322   6.918  0.6150  0.4982 -0.4480
  814MOL0     O12197   4.863   8.241   6.818 -0.4088 -0.3258 -0.4979
  814MOL0     C12198   4.917   8.116   6.822  0.6518  0.7318 -0.2192
  814MOL0     C12199   4.894   8.028   6.924  0.7205  0.3170 -0.7031
  814MOL0     C12200   4.931   7.894   6.925  0.9383 -0.5584  0.4656
  814MOL0     C12201   4.985   7.842   6.804 -0.2355 -1.0284 -0.3787
  814MOL0     O12202   5.031   7.723   6.823 -0.7777 -0.0146 -0.1172
  814MOL0     C12203   5.122   7.671   6.726  0.2665 -0.6038  0.4222
  814MOL0     C12204   5.234   7.614   6.800 -0.5126 -0.1446  0.3953
  814MOL0     C12205   5.320   7.503   6.727  0.0628 -0.0857  0.6631
  814MOL0     C12206   5.262   7.365   6.681  0.3373 -0.3278 -0.4102
  814MOL0     C12207   5.371   7.271   6.623  0.9858  0.0592 -0.3235
  814MOL0     C12208   5.396   7.285   6.472 -0.5171  0.1571  0.2898
  814MOL0     C12209   5.528   7.239   6.433 -0.6425 -0.0851 -0.1546
  814MOL0     C12210   5.520   7.086   6.437  0.2646 -0.1835 -1.1227
  814MOL0     N12211   5.635   7.016   6.375 -0.5841  0.2040 -0.5695
  814MOL0     C12212   5.618   6.953   6.257  0.3952 -0.2416  0.6991
  814MOL0     C12213   5.744   6.909   6.219  0.0083 -0.0848  0.0719
  814MOL0     C12214   5.781   6.827   6.107  0.9870 -0.1077  0.4981
  814MOL0     C12215   5.894   6.890   6.021 -0.5876  0.8071  0.1755
  814MOL0     C12216   5.929   6.814   5.891 -0.3781 -0.7087  1.2098
  814MOL0     C12217   6.049   6.725   5.917 -1.1797 -0.9670 -0.1191
  814MOL0     O12218   6.169   6.806   5.908  0.0739 -0.2707 -0.4413
  814MOL0     C12219   6.230   6.828   5.790  0.2449 -0.4391 -0.1862
  814MOL0     C12220   6.178   6.802   5.662  0.7808 -0.3832 -0.1163
  814MOL0     C12221   6.252   6.811   5.542 -0.8445 -0.4895 -0.2066
  814MOL0     C12222   6.174   6.786   5.411 -0.7517 -0.3019  0.2856
  814MOL0     C12223   6.389   6.844   5.553  0.8664  0.0523  0.1686
  814MOL0     C12224   6.486   6.818   5.433  0.2368  0.0469 -1.3125
  814MOL0     O12225   6.606   6.879   5.447  0.3202  0.5852  0.4934
  814MOL0     C12226   6.696   6.849   5.353  0.2804 -0.2389  0.6377
  814MOL0     C12227   6.780   6.740   5.376  0.0609  0.7611  0.5529
  814MOL0     C12228   6.884   6.709   5.285 -0.8909 -0.8694  0.7222
  814MOL0     C12229   6.917   6.799   5.184  0.1834 -0.2723  0.0182
  814MOL0     O12230   7.019   6.772   5.096  0.5283  0.3197  0.5504
  814MOL0     C12231   6.976   6.755   4.959 -0.0352 -0.2136  0.0683
  814MOL0     C12232   7.073   6.819   4.862 -0.3076  0.3636  0.0711
  814MOL0     C12233   7.043   6.758   4.727 -0.3383  0.1154  1.3347
  814MOL0     C12234   7.146   6.817   4.633  0.1403  0.9842  0.8697
  814MOL0     C12235   7.157   6.758   4.492 -0.5418  0.0631 -0.3653
  814MOL0     C12236   7.158   6.604   4.486  0.0099 -0.7543 -0.5357
  814MOL0     C12237   7.159   6.557   4.338  0.3635  0.0190 -0.0588
  814MOL0     C12238   7.304   6.602   4.284  0.7146  0.5800 -0.2635
  814MOL0    Cl12239   7.329   6.494   4.154 -0.0206  0.1469 -0.7724
  814MOL0     C12240   6.835   6.922   5.165  1.0445  0.2175 -0.3223
  814MOL0     C12241   6.717   6.940   5.249 -1.2269  0.6926 -0.3407
  814MOL0     O12242   6.444   6.761   5.331 -0.6046 -1.5674 -0.4687
  814MOL0     C12243   6.438   6.888   5.676  0.5779 -0.5848 -0.4613
  814MOL0     C12244   6.359   6.889   5.792  0.2422 -0.6273 -0.1524
  814MOL0     N12245   5.830   6.971   6.303 -0.8074  0.5171  0.4046
  814MOL0     N12246   5.767   7.028   6.400 -0.1525  0.8764  0.4815
  814MOL0     C12247   5.002   7.927   6.693  0.2890 -0.0133  0.1082
  814MOL0     C12248   4.977   8.067   6.700 -0.2228 -0.0477 -1.2202
  814MOL0     C12249   4.832   8.445   6.953 -0.4675 -0.1493  0.3120
  814MOL0     C12250   4.763   8.511   6.849 -0.3526  1.0828 -0.9079
  814MOL0     C12251   4.695   8.627   6.882  1.0490  0.3771 -0.8834
  814MOL0     C12252   4.673   8.676   7.009 -0.3545  0.0550  0.4176
  814MOL0     O12253   4.592   8.787   7.027  0.2090 -0.5406  0.2894
  814MOL0     C12254   4.605   8.873   7.138  0.8286  0.1435  0.1860
  814MOL0     C12255   4.742   8.951   7.131  0.7837 -0.5610 -0.0909
  814MOL0     C12256   4.810   8.985   7.264 -0.3166 -0.0064 -0.7026
  814MOL0     C12257   4.897   8.865   7.300  0.6511  0.2618 -0.1747
  814MOL0     C12258   4.988   8.926   7.403 -0.3808 -0.1183 -0.1885
  814MOL0     C12259   5.069   8.989   7.471  0.4679  0.2263 -0.6071
  814MOL0     C12260   4.737   8.604   7.111 -0.6484 -0.7046  0.1737
  814MOL0     C12261   4.802   8.480   7.088 -0.8698 -0.2990 -0.4398
  814MOL0     C12262   4.863   8.411   7.201  0.3254 -0.5528 -0.2871
  814MOL0     H12263   4.860   8.081   7.012 -0.1688 -0.2025 -0.7245
  814MOL0     H12264   4.899   7.832   7.008  1.0973 -1.4665 -0.1239
  814MOL0     H12265   5.177   7.748   6.671  0.9539 -0.9461  0.6143
  814MOL0     H12266   5.074   7.600   6.659 -0.2635  1.2719 -1.2741
  814MOL0     H12267   5.301   7.693   6.834 -0.4779 -0.2860  0.6523
  814MOL0     H12268   5.193   7.568   6.890 -0.9233 -0.7254 -0.0756
  814MOL0     H12269   5.335   7.558   6.634 -2.1660 -2.3627 -1.1755
  814MOL0     H12270   5.410   7.485   6.785 -1.6054 -1.3458  3.0361
  814MOL0     H12271   5.218   7.312   6.766  0.0754  0.5032 -0.0135
  814MOL0     H12272   5.174   7.368   6.616  0.7139  2.0141 -0.9118
  814MOL0     H12273   5.329   7.170   6.629  1.8749 -0.4160 -1.7507
  814MOL0     H12274   5.455   7.289   6.691  0.0237  0.1684  0.8729
  814MOL0     H12275   5.314   7.240   6.416  0.9938 -2.0915 -0.2670
  814MOL0     H12276   5.386   7.392   6.452 -0.4527 -0.2460 -2.2707
  814MOL0     H12277   5.600   7.284   6.502 -2.5939  2.2320  0.5316
  814MOL0     H12278   5.545   7.269   6.329 -2.6092  1.6689 -0.0364
  814MOL0     H12279   5.512   7.054   6.541  2.4458  1.1145 -0.5114
  814MOL0     H12280   5.428   7.054   6.386 -0.7656  0.4406  0.2768
  814MOL0     H12281   5.526   6.926   6.208 -0.6210 -0.1477  2.4729
  814MOL0     H12282   5.696   6.820   6.038 -0.4459 -2.3870  2.3592
  814MOL0     H12283   5.809   6.728   6.143  4.6013  0.8504  0.6510
  814MOL0     H12284   5.876   6.995   5.997  2.9932  1.4085 -0.4920
  814MOL0     H12285   5.982   6.907   6.085 -0.2099  0.1634 -0.1649
  814MOL0     H12286   5.843   6.760   5.852  0.4959 -0.4358 -1.2697
  814MOL0     H12287   5.953   6.884   5.810 -1.3828 -0.5079  1.0802
  814MOL0     H12288   6.044   6.675   6.013  0.8941 -0.4684  0.2963
  814MOL0     H12289   6.055   6.642   5.846  0.9192 -0.1657 -0.9601
  814MOL0     H12290   6.076   6.765   5.652 -0.4888  3.2976 -3.9451
  814MOL0     H12291   6.148   6.680   5.398 -1.9547 -0.2500  2.0366
  814MOL0     H12292   6.218   6.838   5.325  0.7029 -0.6872  0.7697
  814MOL0     H12293   6.075   6.830   5.419 -0.5730  0.2740 -0.4911
  814MOL0     H12294   6.748   6.672   5.454  0.4292 -1.8716 -1.4172
  814MOL0     H12295   6.945   6.619   5.286  0.2624 -0.2254 -2.0613
  814MOL0     H12296   6.943   6.658   4.920 -1.8500  1.2678 -2.3794
  814MOL0     H12297   6.882   6.809   4.947  1.5858  2.3792 -1.8662
  814MOL0     H12298   7.070   6.928   4.855  0.7263  0.4286  0.5335
  814MOL0     H12299   7.172   6.802   4.904  0.0260  0.1185 -0.7978
  814MOL0     H12300   6.945   6.786   4.687  0.6553  0.3046 -1.1185
  814MOL0     H12301   7.046   6.649   4.731 -3.0530 -0.4991 -4.2146
  814MOL0     H12302   7.249   6.799   4.666 -0.1528 -0.0114  1.2786
  814MOL0     H12303   7.123   6.923   4.628 -2.1640  0.6179  1.9883
  814MOL0     H12304   7.070   6.798   4.439  0.2175  2.3432 -0.0162
  814MOL0     H12305   7.242   6.803   4.440  0.3449  2.3279  2.7491
  814MOL0     H12306   7.084   6.549   4.545 -2.1572  1.6408 -0.8568
  814MOL0     H12307   7.255   6.581   4.531  0.6070  5.1527  2.0032
  814MOL0     H12308   7.083   6.603   4.274  0.2434 -0.0781  0.0141
  814MOL0     H12309   7.151   6.448   4.340  2.4537 -0.2037  2.7616
  814MOL0     H12310   7.384   6.592   4.358  0.8352  0.4579 -0.4114
  814MOL0     H12311   7.291   6.707   4.254 -2.5334  0.4536  0.3995
  814MOL0     H12312   6.878   6.997   5.100  0.0533 -0.3791 -1.7106
  814MOL0     H12313   6.658   7.028   5.225  2.0292  2.6659 -1.7542
  814MOL0     H12314   6.541   6.920   5.687  0.2342 -0.2547  3.0051
  814MOL0     H12315   6.394   6.912   5.892 -3.3713 -0.6773  1.2972
  814MOL0     H12316   5.057   7.895   6.605 -1.2154 -3.2621  0.1671
  814MOL0     H12317   5.007   8.126   6.614  2.8572  1.8846  0.9732
  814MOL0     H12318   4.763   8.464   6.751  0.4959 -1.4068  0.2158
  814MOL0     H12319   4.640   8.681   6.806 -1.5406  2.3288  2.1418
  814MOL0     H12320   4.518   8.941   7.138 -0.2579 -1.2029  0.0658
  814MOL0     H12321   4.597   8.829   7.237 -3.3556 -1.1029 -0.4839
  814MOL0     H12322   4.710   9.050   7.096  1.1134 -0.2606  0.4535
  814MOL0     H12323   4.807   8.912   7.053 -2.0845 -1.5486 -2.1878
  814MOL0     H12324   4.884   9.066   7.260  1.2050 -1.1799  1.7725
  814MOL0     H12325   4.733   9.012   7.336 -0.8224 -1.0026 -0.8505
  814MOL0     H12326   4.950   8.826   7.213  2.4968  1.2437  0.4645
  814MOL0     H12327   4.840   8.791   7.358 -0.7176  0.7809 -0.8005
  814MOL0     H12328   5.145   9.046   7.520 -0.4866  2.1301 -1.2610
  814MOL0     H12329   4.727   8.627   7.217  3.6327 -1.6167  0.9828
  814MOL0     H12330   4.841   8.460   7.296 -3.9819  1.4405 -2.0651
  814MOL0     H12331   4.848   8.303   7.202  0.7539 -0.6135 -0.0190
  814MOL0     H12332   4.969   8.434   7.182  1.2557 -2.5034  1.9835
  815MOL0     O12333   9.021   4.031   1.818 -0.3442 -0.1985 -0.1120
  815MOL0     C12334   9.119   3.964   1.844 -0.9517  0.2873  0.4470
  815MOL0     O12335   9.247   3.992   1.813 -0.0441 -0.5107  0.0447
  815MOL0     C12336   9.279   4.080   1.718 -0.7878  0.4606  0.2801
  815MOL0     C12337   9.205   4.128   1.614  0.2445 -0.9098 -0.1338
  815MOL0     C12338   9.264   4.205   1.516 -0.5192  0.2691 -0.0445
  815MOL0     C12339   9.396   4.256   1.530  0.0384 -0.0497 -0.4698
  815MOL0     O12340   9.435   4.334   1.427 -0.5410  0.5955 -0.5892
  815MOL0     C12341   9.580   4.323   1.389  0.1214  0.2714 -0.0807
  815MOL0     C12342   9.636   4.461   1.355  0.2833 -0.7158  0.5423
  815MOL0     C12343   9.547   4.534   1.245 -0.7115 -0.7690 -0.0625
  815MOL0     C12344   9.566   4.682   1.228 -0.7796  0.0194 -0.2671
  815MOL0     C12345   9.494   4.725   1.109 -0.2315 -0.6920 -0.3513
  815MOL0     C12346   9.503   4.882   1.087  0.0880 -0.6130 -0.1528
  815MOL0     C12347   9.442   4.924   0.946  0.1249 -0.6383  0.3664
  815MOL0     C12348   9.436   5.070   0.912 -0.5105 -0.9271 -0.5350
  815MOL0     N12349   9.549   5.155   0.966 -0.3274  0.6823  0.6848
  815MOL0     C12350   9.684   5.140   0.914 -0.2605  0.5972  0.1410
  815MOL0     C12351   9.753   5.217   0.999  0.1146  0.9429  1.4878
  815MOL0     C12352   9.906   5.233   0.986  0.1767  0.1989  0.4038
  815MOL0     C12353   9.985   5.187   0.864  1.2293 -0.2612  0.3287
  815MOL0     C12354   9.953   5.293   0.757 -0.8262  0.1200 -0.4149
  815MOL0     C12355  10.064   5.326   0.656 -0.0785  0.4552 -0.4539
  815MOL0     O12356  10.151   5.440   0.689 -0.5375  0.8263 -0.4616
  815MOL0     C12357  10.268   5.433   0.754 -0.0152  0.1756  0.3272
  815MOL0     C12358  10.268   5.386   0.885 -0.9287  0.1989 -0.8769
  815MOL0     C12359  10.395   5.367   0.955  0.0914 -1.5777  0.8798
  815MOL0     C12360  10.390   5.283   1.076 -0.0629  0.1932  0.8625
  815MOL0     C12361  10.517   5.417   0.893 -0.2799  0.5675  0.3074
  815MOL0     C12362  10.653   5.417   0.951 -0.2674  0.5310 -0.7057
  815MOL0     O12363  10.692   5.331   1.053 -0.4744 -0.5117  0.1428
  815MOL0     C12364  10.827   5.330   1.081  0.1494 -0.6564 -0.5289
  815MOL0     C12365  10.913   5.267   1.000 -0.3233  0.6578  0.0349
  815MOL0     C12366  11.055   5.254   1.034  0.2290  0.4377 -1.2247
  815MOL0     C12367  11.114   5.330   1.144  0.1857 -0.4713  0.8245
  815MOL0     O12368  11.243   5.333   1.179  0.0346  0.3678  0.3894
  815MOL0     C12369  11.329   5.246   1.113  0.1571  0.5565  0.5164
  815MOL0     C12370  11.476   5.267   1.166  0.4914  1.1261  0.0307
  815MOL0     C12371  11.581   5.198   1.083 -0.7846 -0.4986  0.8254
  815MOL0     C12372  11.632   5.297   0.978  1.0611 -0.2434 -0.0955
  815MOL0     C12373  11.726   5.220   0.884 -0.1497  0.1239  0.0755
  815MOL0     C12374  11.777   5.308   0.772 -0.4473  0.0489 -0.0937
  815MOL0     C12375  11.906   5.244   0.718 -0.8287  0.3318 -0.4092
  815MOL0     C12376  11.892   5.085   0.703  0.2212 -0.2804 -0.0902
  815MOL0    Cl12377  12.029   5.032   0.599 -0.5689 -0.1233 -0.2435
  815MOL0     C12378  11.019   5.398   1.223  0.7920 -0.1859  0.4239
  815MOL0     C12379  10.882   5.392   1.198  0.8091  0.0918 -0.2962
  815MOL0     O12380  10.720   5.510   0.915  0.5617 -0.2825 -0.3528
  815MOL0     C12381  10.500   5.473   0.764 -0.2193 -0.2335  0.3158
  815MOL0     C12382  10.380   5.481   0.697 -0.0181 -0.1503  0.0555
  815MOL0     N12383   9.673   5.262   1.096  0.0909  0.5078 -0.9878
  815MOL0     N12384   9.551   5.222   1.083  0.3511 -0.1388 -0.8607
  815MOL0     C12385   9.461   4.217   1.642  0.3474 -0.5335 -0.0007
  815MOL0     C12386   9.409   4.131   1.732  0.7819 -0.1074 -0.1083
  815MOL0     C12387   9.115   3.853   1.945 -0.1039  0.0910  0.3869
  815MOL0     C12388   9.230   3.802   1.992 -0.6237 -0.4059  0.2218
  815MOL0     C12389   9.234   3.705   2.093 -0.0849 -0.8843 -0.3671
  815MOL0     C12390   9.120   3.659   2.155 -0.2385 -0.1827 -0.3855
  815MOL0     O12391   9.140   3.564   2.257  0.0598  0.3785  0.1966
  815MOL0     C12392   9.017   3.475   2.298 -0.4990  0.2894 -0.8223
  815MOL0     C12393   9.038   3.398   2.430 -1.3155 -0.1689  0.4884
  815MOL0     C12394   9.038   3.486   2.558 -0.1799 -0.1225  0.5725
  815MOL0     C12395   9.051   3.417   2.698 -0.8454  0.7600  0.1698
  815MOL0     C12396   9.177   3.338   2.713 -0.0876 -0.3611 -0.1042
  815MOL0     C12397   9.279   3.276   2.739 -0.2674  0.1683  0.9554
  815MOL0     C12398   9.001   3.698   2.094 -0.8147  0.3950 -0.6868
  815MOL0     C12399   9.001   3.797   2.003 -0.3851  0.0165  0.8435
  815MOL0     C12400   8.858   3.834   1.950  0.5532 -0.1551 -0.5866
  815MOL0     H12401   9.102   4.093   1.609 -1.1320  2.1318  2.8352
  815MOL0     H12402   9.218   4.218   1.419 -1.3124  1.4568  0.4619
  815MOL0     H12403   9.573   4.277   1.290 -1.8278 -0.7212  0.4615
  815MOL0     H12404   9.640   4.271   1.465 -1.6791 -2.0373 -0.1069
  815MOL0     H12405   9.632   4.529   1.441  1.3658  0.0226  0.0397
  815MOL0     H12406   9.742   4.453   1.331  0.0459 -1.4583 -0.2737
  815MOL0     H12407   9.581   4.489   1.151 -1.1114 -3.5231  0.9981
  815MOL0     H12408   9.439   4.529   1.263 -0.5431  1.6987  2.1946
  815MOL0     H12409   9.525   4.730   1.317  2.8173  1.1431  0.9546
  815MOL0     H12410   9.673   4.703   1.223 -0.2672 -2.2928  0.0379
  815MOL0     H12411   9.393   4.689   1.128 -1.5399 -0.4208 -5.3981
  815MOL0     H12412   9.537   4.677   1.020 -1.9333  1.3678 -2.4258
  815MOL0     H12413   9.438   4.929   1.162 -0.1278  0.4809 -1.0060
  815MOL0     H12414   9.606   4.919   1.084 -0.0918 -0.1316 -3.1694
  815MOL0     H12415   9.348   4.869   0.933  0.1224 -0.8581  1.2410
  815MOL0     H12416   9.505   4.881   0.868 -1.4506  2.3102 -2.8134
  815MOL0     H12417   9.418   5.083   0.805 -1.5568 -2.0114 -0.5120
  815MOL0     H12418   9.351   5.108   0.970  1.7618  0.2444  2.2935
  815MOL0     H12419   9.725   5.094   0.825  2.5657 -0.4480  1.8536
  815MOL0     H12420   9.954   5.188   1.074  0.7871  1.4654  0.7389
  815MOL0     H12421   9.922   5.338   1.010  0.2790  0.0573  0.9755
  815MOL0     H12422  10.091   5.179   0.889  1.9745  2.4928 -1.5355
  815MOL0     H12423   9.941   5.095   0.823 -2.5509  1.4359  0.1676
  815MOL0     H12424   9.866   5.250   0.706  0.8822 -3.4979 -0.5679
  815MOL0     H12425   9.918   5.393   0.785  1.2654  1.8369 -3.3973
  815MOL0     H12426  10.121   5.233   0.651 -4.9312 -2.9584  0.4514
  815MOL0     H12427  10.028   5.336   0.553  0.9057 -0.9519 -0.9657
  815MOL0     H12428  10.175   5.361   0.934 -1.2549 -1.2708 -2.1630
  815MOL0     H12429  10.392   5.344   1.166  0.1444  0.0399  0.9626
  815MOL0     H12430  10.461   5.200   1.074 -0.2184 -0.0759  3.3562
  815MOL0     H12431  10.291   5.238   1.089  0.1280 -0.3084  0.6282
  815MOL0     H12432  10.874   5.221   0.909  0.7925  1.6188 -0.9595
  815MOL0     H12433  11.127   5.185   0.990  0.5698  2.2465 -3.7424
  815MOL0     H12434  11.297   5.143   1.127 -1.4803  0.8803 -0.6458
  815MOL0     H12435  11.325   5.280   1.010  2.9293 -0.5710 -0.0624
  815MOL0     H12436  11.508   5.372   1.171  1.1866  0.8478  3.1601
  815MOL0     H12437  11.486   5.229   1.268  4.3414  0.4462 -0.4551
  815MOL0     H12438  11.543   5.110   1.030 -1.6457  0.5974 -0.4459
  815MOL0     H12439  11.662   5.177   1.153  0.6712 -0.5577 -0.8142
  815MOL0     H12440  11.677   5.390   1.014 -3.1058  1.3165  1.6657
  815MOL0     H12441  11.553   5.329   0.910 -0.0894  0.5762  1.5417
  815MOL0     H12442  11.809   5.193   0.949 -0.4166  1.3563  0.9654
  815MOL0     H12443  11.676   5.132   0.841 -2.3453  2.3747 -2.3964
  815MOL0     H12444  11.796   5.410   0.807  1.8512 -0.1680 -0.5639
  815MOL0     H12445  11.711   5.329   0.687 -1.0741 -0.1272  0.3451
  815MOL0     H12446  11.996   5.271   0.774  0.6950 -1.5463 -1.8050
  815MOL0     H12447  11.922   5.286   0.618 -1.0422  0.2532 -0.4765
  815MOL0     H12448  11.801   5.047   0.655  0.4278  4.2906 -5.1226
  815MOL0     H12449  11.910   5.041   0.802  4.5765 -2.8646 -1.7416
  815MOL0     H12450  11.054   5.451   1.311  1.1638 -0.0181  0.1787
  815MOL0     H12451  10.818   5.455   1.257 -2.5456 -1.0836 -2.4000
  815MOL0     H12452  10.581   5.520   0.709 -2.4997  0.0858 -3.0509
  815MOL0     H12453  10.380   5.517   0.594  2.6028  0.4627  0.2141
  815MOL0     H12454   9.565   4.248   1.655  1.2232 -3.9707  3.0462
  815MOL0     H12455   9.469   4.117   1.821  0.4772  0.8344  0.2562
  815MOL0     H12456   9.327   3.817   1.945 -0.8519 -0.4223 -0.2604
  815MOL0     H12457   9.326   3.650   2.111 -0.7495 -1.9691 -0.1416
  815MOL0     H12458   8.931   3.543   2.295 -2.1341 -1.5486 -5.8307
  815MOL0     H12459   9.002   3.398   2.222 -2.1256  1.7770 -2.0946
  815MOL0     H12460   9.137   3.352   2.423 -0.8029  0.8007  1.1642
  815MOL0     H12461   8.958   3.323   2.434 -2.2741  0.4277 -3.2620
  815MOL0     H12462   9.126   3.551   2.566 -0.4767  0.4357 -0.4938
  815MOL0     H12463   8.957   3.560   2.562  0.4254  0.5861 -0.2242
  815MOL0     H12464   8.961   3.357   2.713 -0.6655  0.2512 -0.7474
  815MOL0     H12465   9.067   3.493   2.774  1.0094  0.0786  0.4921
  815MOL0     H12466   9.369   3.218   2.748  1.8520  2.2725 -3.5167
  815MOL0     H12467   8.903   3.667   2.129 -1.3474 -0.9493 -3.0928
  815MOL0     H12468   8.784   3.760   1.979 -0.7325  1.7901  1.3840
  815MOL0     H12469   8.828   3.931   1.989  0.2217 -0.9147  1.1389
  815MOL0     H12470   8.846   3.833   1.841  3.1532  0.0582 -0.9481
  816MOL0     O12471   4.616   9.918   3.178  0.4780  0.4331  0.9447
  816MOL0     C12472   4.718   9.912   3.249 -0.7394 -0.4663  0.6054
  816MOL0     O12473   4.735   9.998   3.355  0.0106  0.1489  0.2018
  816MOL0     C12474   4.639  10.020   3.447  0.2647  0.7327 -0.6590
  816MOL0     C12475   4.655  10.141   3.528 -0.0818  0.1960 -0.1416
  816MOL0     C12476   4.560  10.185   3.621  0.3462  1.0149  0.9559
  816MOL0     C12477   4.448  10.106   3.644  0.1071 -0.4447  0.1853
  816MOL0     O12478   4.354  10.166   3.717  0.4184 -0.9103 -0.3312
  816MOL0     C12479   4.235  10.087   3.740 -0.9996 -0.7271 -0.1960
  816MOL0     C12480   4.137  10.174   3.824 -0.0698  0.0748  0.2198
  816MOL0     C12481   4.153  10.144   3.978 -0.2444 -0.1275 -1.1463
  816MOL0     C12482   4.045  10.217   4.062 -0.0479  0.4224 -0.1133
  816MOL0     C12483   4.041  10.174   4.215  0.9158  0.8796  0.4459
  816MOL0     C12484   4.182  10.164   4.283  0.8887  0.2881 -1.1777
  816MOL0     C12485   4.238  10.303   4.301  0.8773 -0.4446  0.6802
  816MOL0     C12486   4.360  10.311   4.390  0.1486  0.0885  0.4601
  816MOL0     N12487   4.412  10.449   4.426  0.0957 -0.0444 -0.0334
  816MOL0     C12488   4.473  10.519   4.321 -0.5270 -0.6548  0.0803
  816MOL0     C12489   4.516  10.632   4.393 -0.2987  0.0329 -0.0940
  816MOL0     C12490   4.588  10.750   4.355  0.1923 -0.0888  0.8059
  816MOL0     C12491   4.735  10.766   4.398  0.4641 -0.0901 -0.1678
  816MOL0     C12492   4.812  10.649   4.354  0.0103  0.1254 -0.5475
  816MOL0     C12493   4.955  10.656   4.393  0.4365 -0.3654  0.8027
  816MOL0     O12494   4.973  10.654   4.540  0.0071 -0.7081 -0.3911
  816MOL0     C12495   5.096  10.616   4.583 -0.1284 -0.3212 -0.3779
  816MOL0     C12496   5.110  10.586   4.723  0.0831 -0.3907 -0.2425
  816MOL0     C12497   5.229  10.563   4.785 -0.3281 -0.1764 -1.1415
  816MOL0     C12498   5.236  10.545   4.936  0.4055 -1.2209 -0.0076
  816MOL0     C12499   5.345  10.555   4.707  0.0339  1.2582 -0.1054
  816MOL0     C12500   5.482  10.520   4.758  0.4179  0.9847  0.3048
  816MOL0     O12501   5.595  10.573   4.680  0.7998  0.7067  0.0508
  816MOL0     C12502   5.717  10.559   4.733 -0.1701  0.2132  0.3700
  816MOL0     C12503   5.824  10.540   4.642 -0.0184  0.3676  0.7591
  816MOL0     C12504   5.964  10.541   4.670 -0.0338  0.2680  0.4712
  816MOL0     C12505   5.995  10.552   4.811  1.0667 -0.5860  0.8251
  816MOL0     O12506   6.115  10.547   4.861 -0.1441  0.0456  0.3397
  816MOL0     C12507   6.227  10.551   4.768  0.2727 -0.0382  0.3276
  816MOL0     C12508   6.359  10.594   4.836 -1.0338  0.1373  0.7677
  816MOL0     C12509   6.409  10.483   4.940 -0.4931 -0.8433 -0.5646
  816MOL0     C12510   6.531  10.534   5.014 -0.2478 -0.3538 -0.7713
  816MOL0     C12511   6.596  10.429   5.101 -0.2904  0.3072  0.9202
  816MOL0     C12512   6.698  10.500   5.185 -0.4702 -0.6741  1.7255
  816MOL0     C12513   6.784  10.402   5.257  0.4045 -0.7590  0.0708
  816MOL0     C12514   6.834  10.464   5.391 -0.1618 -0.6032  0.2465
  816MOL0    Cl12515   6.897  10.335   5.502  0.1523 -0.3370 -0.3423
  816MOL0     C12516   5.890  10.551   4.907 -0.7485 -0.0637  0.6780
  816MOL0     C12517   5.758  10.560   4.865  0.4059 -0.1313  0.7638
  816MOL0     O12518   5.495  10.426   4.834  0.0471  0.3764 -0.0002
  816MOL0     C12519   5.334  10.578   4.571  0.2813  0.0303 -0.0210
  816MOL0     C12520   5.216  10.608   4.504  0.2764 -0.8028 -0.1561
  816MOL0     N12521   4.471  10.633   4.531  0.7351 -0.2611  0.5778
  816MOL0     N12522   4.402  10.524   4.540 -0.3459  1.4548 -0.1261
  816MOL0     C12523   4.445   9.981   3.579 -0.9925 -0.0969  0.1893
  816MOL0     C12524   4.539   9.939   3.483 -0.4634  0.4559 -0.2341
  816MOL0     C12525   4.833   9.831   3.184  0.2939 -0.5111  0.3780
  816MOL0     C12526   4.820   9.815   3.050  0.4240 -0.3789  0.2813
  816MOL0     C12527   4.919   9.760   2.980  0.1586  0.4627  0.6348
  816MOL0     C12528   5.039   9.718   3.034  0.3364 -0.6126  0.2949
  816MOL0     O12529   5.136   9.690   2.940 -0.1214 -0.2202 -0.1476
  816MOL0     C12530   5.273   9.672   2.994 -0.2357 -1.2021 -1.5210
  816MOL0     C12531   5.303   9.539   3.063 -0.4023  0.0089  0.5046
  816MOL0     C12532   5.444   9.523   3.125 -0.0328 -0.2612 -0.0803
  816MOL0     C12533   5.553   9.535   3.026 -0.8402  0.4727 -0.6391
  816MOL0     C12534   5.685   9.525   3.095  0.2825 -0.5528 -0.8069
  816MOL0     C12535   5.789   9.534   3.149 -0.0547 -0.2042  0.5360
  816MOL0     C12536   5.056   9.737   3.173  0.1100  0.3617 -0.0379
  816MOL0     C12537   4.947   9.792   3.252  0.3342 -0.1958 -0.1693
  816MOL0     C12538   4.972   9.820   3.397  0.6476  0.6089  1.0245
  816MOL0     H12539   4.738  10.198   3.488 -3.2558  3.6238 -2.4361
  816MOL0     H12540   4.564  10.283   3.667  0.6483  0.7411  1.5224
  816MOL0     H12541   4.270   9.992   3.780  0.3207 -1.0089 -1.9139
  816MOL0     H12542   4.186  10.079   3.643 -0.9051  0.9907 -0.4157
  816MOL0     H12543   4.140  10.282   3.810 -1.7184  0.4820  2.3939
  816MOL0     H12544   4.039  10.135   3.792  1.2262 -2.9484 -0.4232
  816MOL0     H12545   4.144  10.035   3.986  2.8690 -0.4186 -0.3123
  816MOL0     H12546   4.257  10.157   4.010 -0.3494  0.7088 -1.1245
  816MOL0     H12547   4.082  10.319   4.069  0.7593  0.0442  2.4369
  816MOL0     H12548   3.956  10.222   3.999 -0.5871  1.2383  0.6826
  816MOL0     H12549   3.991  10.077   4.208  2.0117  0.4117 -2.7093
  816MOL0     H12550   3.989  10.253   4.270  1.4510  0.0844  2.1342
  816MOL0     H12551   4.178  10.127   4.385  1.9644  1.8737 -0.5186
  816MOL0     H12552   4.242  10.090   4.229 -1.8866 -2.9304 -0.1658
  816MOL0     H12553   4.175  10.382   4.342  0.1879 -1.2427  1.1882
  816MOL0     H12554   4.250  10.336   4.197  1.4100 -3.3471 -0.2844
  816MOL0     H12555   4.342  10.262   4.486  1.4330 -2.1535 -0.3766
  816MOL0     H12556   4.438  10.258   4.334 -0.0211  1.2643 -0.9620
  816MOL0     H12557   4.485  10.496   4.216  1.1297  2.3189 -0.4972
  816MOL0     H12558   4.533  10.839   4.388  0.4806  1.5875 -2.7295
  816MOL0     H12559   4.588  10.751   4.245  3.7175 -0.8525  0.6671
  816MOL0     H12560   4.769  10.853   4.341  3.6020 -1.4673 -0.6135
  816MOL0     H12561   4.743  10.788   4.504 -0.7985 -0.5498  0.0384
  816MOL0     H12562   4.778  10.556   4.399 -3.9227  0.4442 -2.4625
  816MOL0     H12563   4.807  10.648   4.245  1.2401  3.7314 -0.7437
  816MOL0     H12564   5.004  10.569   4.346  0.6124 -0.3003  0.8625
  816MOL0     H12565   5.004  10.744   4.351  0.1742  0.6695  2.5967
  816MOL0     H12566   5.019  10.590   4.782  1.2303  2.0034  1.5452
  816MOL0     H12567   5.194  10.448   4.965 -0.4413 -1.2502 -1.2728
  816MOL0     H12568   5.168  10.615   4.986 -0.7993 -3.3661  1.4859
  816MOL0     H12569   5.336  10.563   4.976  0.5390  2.7885 -1.6364
  816MOL0     H12570   5.812  10.506   4.540  2.5817 -1.9347  1.1105
  816MOL0     H12571   6.042  10.529   4.595 -1.2020 -2.8417 -0.3851
  816MOL0     H12572   6.236  10.457   4.714  1.9824  1.1225 -1.5131
  816MOL0     H12573   6.210  10.636   4.701  0.1822 -0.0886  0.2852
  816MOL0     H12574   6.440  10.628   4.771  0.1419 -0.8529  1.6551
  816MOL0     H12575   6.328  10.682   4.892 -2.2615  0.2794 -0.1053
  816MOL0     H12576   6.427  10.394   4.879 -0.2295 -1.0653 -0.1622
  816MOL0     H12577   6.340  10.449   5.018  0.1597 -2.3723 -0.6124
  816MOL0     H12578   6.499  10.617   5.077 -0.2069  0.8743 -2.2902
  816MOL0     H12579   6.600  10.569   4.936  0.3857 -1.5063 -0.7505
  816MOL0     H12580   6.520  10.371   5.152 -0.8224 -2.0111 -2.2013
  816MOL0     H12581   6.641  10.350   5.040 -0.4228 -0.8090  2.2496
  816MOL0     H12582   6.641  10.557   5.259 -0.3541  0.4560  0.9736
  816MOL0     H12583   6.761  10.560   5.117  0.3658 -2.9058  0.4338
  816MOL0     H12584   6.855  10.376   5.177 -0.4937 -1.7670 -0.4196
  816MOL0     H12585   6.724  10.318   5.291  1.0554 -0.7558  1.2570
  816MOL0     H12586   6.750  10.506   5.448 -0.7785  2.2903 -2.4886
  816MOL0     H12587   6.913  10.535   5.368  0.3701 -0.6348  1.8450
  816MOL0     H12588   5.909  10.545   5.013  0.4016 -1.4198  0.4202
  816MOL0     H12589   5.686  10.561   4.946 -2.5906  0.6012 -1.7228
  816MOL0     H12590   5.422  10.579   4.507 -3.3274  2.1242 -5.6915
  816MOL0     H12591   5.210  10.627   4.398 -3.4658  0.0768  0.0716
  816MOL0     H12592   4.364   9.909   3.588  1.2687 -2.9179 -0.6607
  816MOL0     H12593   4.526   9.847   3.427  3.2492 -2.1056  2.6015
  816MOL0     H12594   4.737   9.862   2.999  0.8333  0.7438  0.6168
  816MOL0     H12595   4.898   9.763   2.873 -3.0658 -0.1820  1.1482
  816MOL0     H12596   5.342   9.692   2.911  0.3684  0.4776 -0.6443
  816MOL0     H12597   5.304   9.754   3.058  1.5388 -2.1604 -1.0785
  816MOL0     H12598   5.285   9.458   2.993  0.2563  1.5822 -1.5807
  816MOL0     H12599   5.231   9.513   3.142 -0.6509 -3.4224 -0.6885
  816MOL0     H12600   5.448   9.608   3.194 -0.5532  0.4880 -0.9538
  816MOL0     H12601   5.466   9.429   3.178  1.9932  0.0768 -0.2429
  816MOL0     H12602   5.558   9.637   2.988 -2.2304  0.8957  0.2274
  816MOL0     H12603   5.545   9.472   2.937 -0.8078  0.3681 -0.5680
  816MOL0     H12604   5.893   9.556   3.164  0.5611 -1.2955 -1.6893
  816MOL0     H12605   5.154   9.741   3.220  0.4301  0.5849 -0.7109
  816MOL0     H12606   4.900   9.760   3.452 -0.6523  0.8307 -0.3788
  816MOL0     H12607   5.071   9.787   3.430  0.5847  0.4275  1.0330
  816MOL0     H12608   4.942   9.920   3.429 -1.8588  0.8858 -1.7115
  817MOL0     O12609  10.790   3.093  11.425 -0.2071 -0.5162  1.0556
  817MOL0     C12610  10.755   3.006  11.355  0.2897 -0.6480 -0.1089
  817MOL0     O12611  10.753   2.876  11.393  0.3210  0.1897 -0.5396
  817MOL0     C12612  10.812   2.839  11.521  0.0776  0.1879 -0.2076
  817MOL0     C12613  10.902   2.723  11.525  0.1488  0.5242  0.1266
  817MOL0     C12614  10.944   2.671  11.646 -0.0725 -0.1778 -0.4481
  817MOL0     C12615  10.906   2.735  11.772 -0.1657 -0.0988  0.2105
  817MOL0     O12616  10.950   2.702  11.896  0.2012  0.1161 -0.0610
  817MOL0     C12617  11.047   2.596  11.911 -0.6897  0.0478  0.2904
  817MOL0     C12618  11.018   2.528  12.045 -0.6520  0.5668  0.3743
  817MOL0     C12619  10.917   2.420  12.045  0.0565 -0.1899  1.0234
  817MOL0     C12620  10.903   2.357  12.181  0.1169  0.1145 -0.4495
  817MOL0     C12621  10.813   2.233  12.186 -0.0996  0.6966  0.2079
  817MOL0     C12622  10.794   2.172  12.325 -0.1169 -0.6946  0.7828
  817MOL0     C12623  10.722   2.038  12.313  0.2095  0.0606  0.0010
  817MOL0     C12624  10.569   2.045  12.324  0.1734 -0.2804 -0.0289
  817MOL0     N12625  10.521   2.074  12.456 -0.4311 -0.2478 -0.0802
  817MOL0     C12626  10.543   2.003  12.575 -0.9310 -0.4949 -1.1904
  817MOL0     C12627  10.502   2.090  12.676 -0.8567  0.7461 -0.2135
  817MOL0     C12628  10.524   2.062  12.829  0.2058 -0.2925  0.6427
  817MOL0     C12629  10.409   1.989  12.898 -0.0152  0.4348 -0.9613
  817MOL0     C12630  10.277   2.067  12.902  0.4092  0.0980  0.4215
  817MOL0     C12631  10.172   1.994  12.986  0.3385  0.3274  0.6526
  817MOL0     O12632  10.039   1.998  12.942 -0.3899  0.1381 -0.1211
  817MOL0     C12633   9.959   2.096  12.990 -0.1587  0.6782 -0.2946
  817MOL0     C12634   9.823   2.068  12.967  0.5501  0.2734 -0.5200
  817MOL0     C12635   9.728   2.171  13.005 -0.7470  0.4809 -0.0910
  817MOL0     C12636   9.581   2.147  12.981 -0.8610  0.5761 -0.0035
  817MOL0     C12637   9.769   2.289  13.065 -0.1574 -0.0088 -0.0815
  817MOL0     C12638   9.678   2.391  13.119 -0.4905 -0.8541 -0.0266
  817MOL0     O12639   9.715   2.465  13.222  0.0234  0.7785 -0.0810
  817MOL0     C12640   9.617   2.520  13.295 -0.8375 -0.2218  0.6556
  817MOL0     C12641   9.577   2.656  13.283  1.0982 -0.3567 -0.1520
  817MOL0     C12642   9.485   2.701  13.381 -0.5310  0.9763 -0.6819
  817MOL0     C12643   9.422   2.606  13.470 -1.0602 -0.3853 -0.1089
  817MOL0     O12644   9.327   2.635  13.562  0.1716  0.1943  0.6132
  817MOL0     C12645   9.245   2.752  13.552  0.2617  0.5875 -0.0461
  817MOL0     C12646   9.130   2.738  13.651 -0.4011  0.9253  1.0890
  817MOL0     C12647   9.171   2.778  13.801  0.3172 -0.4305  0.0886
  817MOL0     C12648   9.239   2.915  13.812  0.7190  0.0069 -1.2254
  817MOL0     C12649   9.205   2.972  13.957 -0.8327 -0.6469 -0.6680
  817MOL0     C12650   9.288   3.090  14.009  0.4785  0.4272 -0.4589
  817MOL0     C12651   9.340   3.182  13.899 -0.2351  0.2560 -0.3407
  817MOL0     C12652   9.450   3.280  13.945  0.3123  0.6609 -0.0234
  817MOL0    Cl12653   9.605   3.203  13.982 -0.0394 -0.3992  0.3652
  817MOL0     C12654   9.463   2.475  13.477  0.7244  0.1560  1.4583
  817MOL0     C12655   9.561   2.425  13.385 -0.4554 -0.4200 -1.0684
  817MOL0     O12656   9.571   2.418  13.056 -0.1872  0.7384  0.3048
  817MOL0     C12657   9.901   2.308  13.101  0.2051  0.1102 -0.3245
  817MOL0     C12658   9.995   2.212  13.061 -0.2066  0.9745 -0.4525
  817MOL0     N12659  10.433   2.190  12.615 -0.2115  0.7290 -0.1825
  817MOL0     N12660  10.446   2.186  12.484 -0.7341  0.0126 -0.4570
  817MOL0     C12661  10.824   2.842  11.766 -0.7478  0.4818 -1.1940
  817MOL0     C12662  10.771   2.902  11.646 -0.7104 -0.8492  0.0935
  817MOL0     C12663  10.706   3.041  11.221 -0.2457 -0.4693  0.1611
  817MOL0     C12664  10.637   2.940  11.150 -0.4711 -0.2309 -0.5264
  817MOL0     C12665  10.597   2.954  11.019 -0.4852 -0.5742 -0.5469
  817MOL0     C12666  10.613   3.074  10.951  0.1825 -0.2102 -0.0203
  817MOL0     O12667  10.579   3.105  10.823  0.6311  0.8593 -0.8792
  817MOL0     C12668  10.496   3.018  10.746 -1.0449  1.3445 -0.4276
  817MOL0     C12669  10.351   3.021  10.798  0.2035 -0.2863  0.0886
  817MOL0     C12670  10.274   2.891  10.778  0.3272 -0.0109 -0.7113
  817MOL0     C12671  10.119   2.887  10.810  0.4952 -0.0100  0.2705
  817MOL0     C12672  10.070   2.750  10.794 -0.3486  0.2703  0.7386
  817MOL0     C12673  10.034   2.636  10.755 -0.1503 -1.0859  0.5726
  817MOL0     C12674  10.683   3.177  11.017 -0.3860  0.5890  0.5132
  817MOL0     C12675  10.714   3.165  11.158  0.4129 -0.1936 -0.5297
  817MOL0     C12676  10.776   3.285  11.228 -0.4123 -0.0952 -0.2070
  817MOL0     H12677  10.928   2.682  11.427  0.6178  1.4161 -0.1367
  817MOL0     H12678  11.017   2.591  11.632  1.6762  1.5449 -1.6961
  817MOL0     H12679  11.148   2.639  11.911  0.1659 -1.7561  2.4670
  817MOL0     H12680  11.054   2.513  11.841 -0.9079  0.3654 -0.1111
  817MOL0     H12681  11.110   2.482  12.084  1.2829  1.8294 -2.3849
  817MOL0     H12682  10.992   2.606  12.117  0.7453  2.0868 -0.6996
  817MOL0     H12683  10.822   2.455  12.005 -0.3166  0.7212  2.6208
  817MOL0     H12684  10.952   2.337  11.983  2.1345  1.0722  0.4087
  817MOL0     H12685  11.004   2.327  12.212  0.8243  1.7771 -1.0535
  817MOL0     H12686  10.863   2.429  12.253  3.3878  1.2037  0.4793
  817MOL0     H12687  10.865   2.162  12.119 -0.7869  0.9252 -0.5808
  817MOL0     H12688  10.723   2.272  12.138  0.8526  4.4430  1.1643
  817MOL0     H12689  10.893   2.155  12.367  1.6353  0.6296 -2.5207
  817MOL0     H12690  10.740   2.238  12.394  1.8101 -0.4273  2.0949
  817MOL0     H12691  10.762   1.985  12.400  1.7108 -2.3117 -2.0243
  817MOL0     H12692  10.751   1.993  12.218  0.7481 -1.7148  0.9666
  817MOL0     H12693  10.537   2.119  12.249 -2.6288 -2.1818 -0.8777
  817MOL0     H12694  10.527   1.946  12.303 -1.3919  0.3859 -0.1950
  817MOL0     H12695  10.603   1.913  12.577 -0.6028 -0.2831 -1.5397
  817MOL0     H12696  10.520   2.157  12.883  0.4226 -0.3140  0.6986
  817MOL0     H12697  10.616   2.009  12.856 -0.6126 -3.9804 -2.7946
  817MOL0     H12698  10.402   1.890  12.851  2.5556  0.2604 -1.1373
  817MOL0     H12699  10.452   1.964  12.996 -0.8374 -2.3583 -1.2432
  817MOL0     H12700  10.292   2.168  12.941  3.3890  0.4220 -1.2943
  817MOL0     H12701  10.240   2.083  12.801 -1.7169  1.0651  1.2987
  817MOL0     H12702  10.198   1.889  12.971 -0.6131  0.0612  0.7822
  817MOL0     H12703  10.186   2.024  13.090  0.6219  0.1860  0.6574
  817MOL0     H12704   9.797   1.975  12.919 -0.0920 -0.2290  0.7440
  817MOL0     H12705   9.532   2.207  12.903 -0.5025 -1.3419 -1.7863
  817MOL0     H12706   9.524   2.147  13.074  0.3768 -0.8895  0.7967
  817MOL0     H12707   9.574   2.048  12.934 -0.8534  0.5108  0.1337
  817MOL0     H12708   9.627   2.723  13.214 -2.1949  2.1400 -0.3430
  817MOL0     H12709   9.459   2.804  13.402  1.9364  0.8291  4.6920
  817MOL0     H12710   9.292   2.848  13.576 -2.2048  1.1821  2.9374
  817MOL0     H12711   9.206   2.752  13.449 -0.1655  0.2478  0.1147
  817MOL0     H12712   9.041   2.798  13.629 -0.0173  1.2781  0.4748
  817MOL0     H12713   9.105   2.632  13.659 -0.2076  0.8860  1.1940
  817MOL0     H12714   9.237   2.701  13.841 -0.8257 -0.3335  2.2636
  817MOL0     H12715   9.083   2.779  13.866 -0.1489  1.8333 -0.4940
  817MOL0     H12716   9.191   2.977  13.736  1.2204  1.5502 -0.3317
  817MOL0     H12717   9.345   2.902  13.786  1.5769  1.1133  1.3735
  817MOL0     H12718   9.101   3.002  13.941 -1.1507 -2.0453 -1.3667
  817MOL0     H12719   9.211   2.905  14.043  4.5568  0.7573  0.4173
  817MOL0     H12720   9.368   3.056  14.074 -2.4908 -4.2686  1.2947
  817MOL0     H12721   9.219   3.146  14.073  0.2035 -0.6686  0.2272
  817MOL0     H12722   9.265   3.244  13.849  2.5989  4.8099  0.4916
  817MOL0     H12723   9.388   3.119  13.823  0.2867 -1.8162  1.5765
  817MOL0     H12724   9.409   3.329  14.034 -2.0823 -1.9749  0.4654
  817MOL0     H12725   9.475   3.351  13.865  0.6272  0.0662 -0.4614
  817MOL0     H12726   9.411   2.394  13.528  0.9231 -0.2484  1.0336
  817MOL0     H12727   9.593   2.321  13.386  1.7146  0.2090  0.2926
  817MOL0     H12728   9.939   2.388  13.165  0.9282 -0.3315 -0.1949
  817MOL0     H12729  10.097   2.242  13.083 -0.8371  1.8800  1.4756
  817MOL0     H12730  10.781   2.884  11.856  2.0939 -0.4366  0.7407
  817MOL0     H12731  10.689   2.972  11.647 -0.9730 -1.1249 -0.7842
  817MOL0     H12732  10.612   2.842  11.188 -1.8678  0.0962 -0.5487
  817MOL0     H12733  10.546   2.872  10.969  0.9172 -1.5162 -0.4655
  817MOL0     H12734  10.516   3.049  10.644 -0.4450  2.9395  0.1373
  817MOL0     H12735  10.534   2.916  10.761 -3.3895  0.0062 -2.6535
  817MOL0     H12736  10.300   3.097  10.738 -0.5999 -1.3774 -0.6418
  817MOL0     H12737  10.342   3.048  10.903  0.9132 -4.7306  1.4845
  817MOL0     H12738  10.297   2.875  10.672  3.3791  0.3862 -0.2034
  817MOL0     H12739  10.314   2.814  10.844  0.9119 -1.2861 -2.5033
  817MOL0     H12740  10.055   2.968  10.774 -0.4708 -0.2766  1.3069
  817MOL0     H12741  10.118   2.899  10.919 -2.0998  1.2083  0.1842
  817MOL0     H12742  10.003   2.534  10.756 -1.5757 -0.9207 -3.7430
  817MOL0     H12743  10.707   3.274  10.974 -2.3145  0.5436 -0.8111
  817MOL0     H12744  10.790   3.365  11.155  0.4980  0.3457  0.4337
  817MOL0     H12745  10.723   3.317  11.318 -2.4496 -0.6543 -1.1448
  817MOL0     H12746  10.876   3.257  11.263 -0.9129  0.5046  1.8599
  818MOL0     O12747  10.691   8.198   8.043  0.5073  0.4407 -0.3991
  818MOL0     C12748  10.586   8.232   8.100  0.2666 -0.6075 -0.4743
  818MOL0     O12749  10.505   8.164   8.189 -0.2243  0.5546  0.4933
  818MOL0     C12750  10.535   8.031   8.211  0.4231 -1.0812  1.0429
  818MOL0     C12751  10.566   7.982   8.338 -1.3140  0.1828 -0.3113
  818MOL0     C12752  10.607   7.851   8.356  0.7300 -0.6684  1.0169
  818MOL0     C12753  10.614   7.765   8.244 -0.4152  0.6406  0.0592
  818MOL0     O12754  10.631   7.623   8.247 -0.1854  0.4117 -0.0477
  818MOL0     C12755  10.649   7.564   8.375  0.2463  0.3073 -0.8866
  818MOL0     C12756  10.686   7.418   8.373 -0.0928  0.3602 -0.4237
  818MOL0     C12757  10.810   7.385   8.293  0.1899 -0.1324 -0.3471
  818MOL0     C12758  10.850   7.240   8.320 -0.1345  0.1856 -0.3287
  818MOL0     C12759  10.950   7.199   8.209  0.3063 -0.0920  0.3105
  818MOL0     C12760  10.970   7.053   8.198 -0.0902  0.1028 -0.5942
  818MOL0     C12761  11.052   7.024   8.070 -0.0256 -0.3854 -0.2865
  818MOL0     C12762  11.202   7.066   8.071 -0.2098 -0.8022  0.5217
  818MOL0     N12763  11.274   7.014   8.188  0.0718  0.1463 -0.3250
  818MOL0     C12764  11.333   6.884   8.194 -0.3604  0.0047  0.7688
  818MOL0     C12765  11.355   6.872   8.327 -0.2380  0.0004  0.2965
  818MOL0     C12766  11.406   6.735   8.382 -0.2081 -0.3035  0.2541
  818MOL0     C12767  11.474   6.750   8.521  0.0746  1.0213  0.6175
  818MOL0     C12768  11.601   6.662   8.551  0.9277 -0.1175  0.1966
  818MOL0     C12769  11.640   6.671   8.698  0.1967  0.3945  0.0446
  818MOL0     O12770  11.775   6.686   8.712 -1.1168 -0.3809 -0.5191
  818MOL0     C12771  11.829   6.675   8.836  0.1285  0.3865  1.5992
  818MOL0     C12772  11.971   6.680   8.834 -0.3980  0.4311 -0.0399
  818MOL0     C12773  12.032   6.662   8.955 -1.2860 -0.3342  0.3040
  818MOL0     C12774  12.187   6.690   8.963 -0.5942  0.4255  0.6841
  818MOL0     C12775  11.969   6.619   9.073  0.0383  0.5078 -0.5945
  818MOL0     C12776  12.028   6.596   9.210 -0.2287  0.6768 -0.5427
  818MOL0     O12777  11.933   6.574   9.311 -0.1969 -0.2901 -0.1862
  818MOL0     C12778  11.988   6.534   9.430  0.0165 -0.6117  0.8668
  818MOL0     C12779  12.036   6.403   9.453  0.1722 -0.7049 -0.3101
  818MOL0     C12780  12.090   6.375   9.577  0.1042  0.7147  0.5286
  818MOL0     C12781  12.109   6.461   9.676 -0.1378  0.8107  1.3453
  818MOL0     O12782  12.194   6.426   9.772 -0.0107  0.0879 -0.5724
  818MOL0     C12783  12.236   6.515   9.869 -0.0627  0.1710  0.3082
  818MOL0     C12784  12.123   6.510   9.977 -0.4466  0.1673  0.7233
  818MOL0     C12785  12.175   6.565  10.104 -0.2599 -0.3114 -0.2959
  818MOL0     C12786  12.205   6.715  10.097  0.5952  0.4372 -0.4378
  818MOL0     C12787  12.224   6.781  10.232  0.7224 -0.0140  0.0751
  818MOL0     C12788  12.355   6.731  10.297 -0.5026  0.5751  0.1805
  818MOL0     C12789  12.329   6.629  10.417 -0.5031 -0.7064  0.6420
  818MOL0     C12790  12.466   6.571  10.479  0.0701 -0.3757 -0.4576
  818MOL0    Cl12791  12.553   6.702  10.552 -0.1743  0.3338 -0.2902
  818MOL0     C12792  12.056   6.594   9.653 -0.7541  1.0272  0.1145
  818MOL0     C12793  11.993   6.626   9.532  0.5072 -0.1113 -0.8434
  818MOL0     O12794  12.150   6.597   9.230 -0.0671  0.0024 -0.4706
  818MOL0     C12795  11.829   6.601   9.062 -0.7086  0.2183  0.3650
  818MOL0     C12796  11.763   6.629   8.948  0.8867 -0.1601 -0.1404
  818MOL0     N12797  11.320   6.980   8.404  0.2308 -0.2391 -0.6024
  818MOL0     N12798  11.264   7.065   8.315 -0.1062 -0.1072 -0.2418
  818MOL0     C12799  10.597   7.819   8.113  1.2072  0.4770 -0.0663
  818MOL0     C12800  10.548   7.948   8.096  0.1505 -1.5527  0.3559
  818MOL0     C12801  10.555   8.379   8.094 -0.0068 -0.0851 -0.8243
  818MOL0     C12802  10.546   8.444   8.221  0.3165 -0.5135 -0.4672
  818MOL0     C12803  10.515   8.577   8.245 -0.0975 -0.0028 -0.2021
  818MOL0     C12804  10.499   8.663   8.138 -0.0492 -0.3798  0.3816
  818MOL0     O12805  10.471   8.795   8.139 -0.6626  0.1485  0.7051
  818MOL0     C12806  10.520   8.865   8.253  0.6400 -0.8700  0.8736
  818MOL0     C12807  10.514   9.019   8.230  0.8880 -0.7163 -0.2115
  818MOL0     C12808  10.398   9.076   8.158 -0.0755 -0.0617  0.0308
  818MOL0     C12809  10.415   9.222   8.093  0.3755 -0.5805 -0.0879
  818MOL0     C12810  10.326   9.222   7.973 -0.4682  0.3549 -0.8255
  818MOL0     C12811  10.287   9.236   7.861 -0.1196  0.5848  1.4462
  818MOL0     C12812  10.512   8.607   8.008 -0.2634  0.1927  0.5441
  818MOL0     C12813  10.551   8.464   7.980  0.0441  0.0994 -0.3362
  818MOL0     C12814  10.563   8.413   7.832  0.6447 -0.3028  0.0823
  818MOL0     H12815  10.542   8.053   8.417 -0.1983  0.5430 -0.2779
  818MOL0     H12816  10.633   7.825   8.458  2.1318  2.8877  1.7190
  818MOL0     H12817  10.553   7.563   8.428 -0.2304 -2.1312 -1.6592
  818MOL0     H12818  10.717   7.615   8.444 -0.5274 -1.7020  1.4920
  818MOL0     H12819  10.702   7.389   8.477  2.5498  3.8259  0.3579
  818MOL0     H12820  10.611   7.358   8.321  1.9954 -1.9599 -0.9269
  818MOL0     H12821  10.783   7.409   8.190  0.3327 -1.1454 -0.6307
  818MOL0     H12822  10.882   7.465   8.314 -0.8794  0.2853  2.1490
  818MOL0     H12823  10.884   7.218   8.421 -3.0022 -4.1400 -0.0729
  818MOL0     H12824  10.758   7.183   8.308 -0.5411  0.3249  1.7810
  818MOL0     H12825  11.047   7.246   8.230  1.8767 -2.7995 -0.3579
  818MOL0     H12826  10.917   7.234   8.110  1.8247 -0.7479 -0.4662
  818MOL0     H12827  11.001   6.996   8.286 -3.1368 -4.4068 -2.0646
  818MOL0     H12828  10.873   7.002   8.197 -0.1502  0.2092 -1.8965
  818MOL0     H12829  11.006   7.061   7.978 -2.2029  0.3759  1.0248
  818MOL0     H12830  11.048   6.916   8.052 -0.3212 -0.1979 -1.4701
  818MOL0     H12831  11.250   7.034   7.978 -2.2802  2.4222 -1.8459
  818MOL0     H12832  11.214   7.174   8.080 -1.5075 -0.4559 -1.2493
  818MOL0     H12833  11.337   6.808   8.117  3.7241  0.7330  0.0201
  818MOL0     H12834  11.484   6.700   8.313  1.3046  2.5670  0.3566
  818MOL0     H12835  11.324   6.663   8.388  0.8569 -1.5102  0.9224
  818MOL0     H12836  11.512   6.851   8.539  4.3747 -0.8931  4.5687
  818MOL0     H12837  11.402   6.719   8.597 -1.9615 -3.7470 -2.7871
  818MOL0     H12838  11.572   6.558   8.532 -0.3589  0.4499 -1.1979
  818MOL0     H12839  11.670   6.694   8.472 -0.3445  2.6944  0.1038
  818MOL0     H12840  11.592   6.754   8.750 -1.5527 -0.6506  0.1932
  818MOL0     H12841  11.600   6.580   8.744 -2.4515 -0.2215 -3.1141
  818MOL0     H12842  12.019   6.706   8.740 -2.2663  4.0950 -0.1368
  818MOL0     H12843  12.239   6.595   8.951  0.2972  0.8623  0.9783
  818MOL0     H12844  12.211   6.758   9.045 -0.3558  1.7790 -0.4574
  818MOL0     H12845  12.220   6.751   8.878  0.4529  2.1144  2.2316
  818MOL0     H12846  12.035   6.331   9.372  0.5991 -1.0084 -0.0477
  818MOL0     H12847  12.129   6.274   9.584  0.8010  0.6066 -3.1078
  818MOL0     H12848  12.331   6.476   9.904 -0.6658 -2.9060 -1.0903
  818MOL0     H12849  12.255   6.616   9.831  1.4208  0.8985  2.7755
  818MOL0     H12850  12.052   6.586   9.943 -0.8072 -1.6232 -2.9354
  818MOL0     H12851  12.078   6.411   9.989 -0.1284 -0.2178 -0.9953
  818MOL0     H12852  12.263   6.511  10.138  0.7000  0.9847 -0.6510
  818MOL0     H12853  12.100   6.552  10.182  1.4337 -1.4549  1.2106
  818MOL0     H12854  12.123   6.767  10.046  1.5613  2.0600 -0.3689
  818MOL0     H12855  12.293   6.710  10.032  0.7705  2.0479 -0.3414
  818MOL0     H12856  12.224   6.888  10.213 -2.6834 -0.2233 -1.8088
  818MOL0     H12857  12.139   6.766  10.300  1.0805  2.1917  1.0998
  818MOL0     H12858  12.407   6.815  10.344  2.1327 -1.0190  0.3074
  818MOL0     H12859  12.428   6.684  10.231  0.8814  0.1204  1.9526
  818MOL0     H12860  12.261   6.550  10.383 -0.4769 -0.0873 -0.9608
  818MOL0     H12861  12.283   6.689  10.496  1.1673  1.5965 -0.0379
  818MOL0     H12862  12.534   6.532  10.403  0.9998  1.5829 -0.7044
  818MOL0     H12863  12.440   6.488  10.546  0.9762  0.3173  0.7898
  818MOL0     H12864  12.069   6.672   9.727  0.0055  0.1307  0.9529
  818MOL0     H12865  11.973   6.730   9.509  2.3048 -0.0970 -2.6816
  818MOL0     H12866  11.775   6.562   9.148  1.2714  0.0374  1.6002
  818MOL0     H12867  11.659   6.599   8.962  0.3850  0.3737 -2.3788
  818MOL0     H12868  10.610   7.759   8.023  2.5995  1.7221 -0.7399
  818MOL0     H12869  10.534   7.988   7.996  1.0871  0.7882  1.0685
  818MOL0     H12870  10.542   8.393   8.317 -2.6088  1.1461  0.4288
  818MOL0     H12871  10.503   8.608   8.348 -2.7766 -2.0165  0.1887
  818MOL0     H12872  10.460   8.832   8.338 -2.8024  3.6884  0.5736
  818MOL0     H12873  10.623   8.835   8.275  1.2640  0.9427  0.6348
  818MOL0     H12874  10.594   9.067   8.174 -1.3931  0.4536 -2.6778
  818MOL0     H12875  10.523   9.074   8.325  0.7544 -0.2424 -0.4684
  818MOL0     H12876  10.375   9.013   8.072  0.7814  1.0346 -1.0429
  818MOL0     H12877  10.313   9.076   8.226  1.3149 -1.5857  1.8696
  818MOL0     H12878  10.517   9.224   8.052  1.3713 -0.8492  2.2238
  818MOL0     H12879  10.408   9.312   8.155  3.5574 -1.8462  2.4120
  818MOL0     H12880  10.262   9.237   7.756 -1.4036 -0.3913  1.7119
  818MOL0     H12881  10.494   8.677   7.928 -1.7859 -0.2171  0.5027
  818MOL0     H12882  10.661   8.449   7.799 -0.7949  3.2578 -0.7824
  818MOL0     H12883  10.554   8.304   7.831 -2.9449 -0.1639 -2.4520
  818MOL0     H12884  10.484   8.454   7.769 -0.9692  0.2394  2.3120
  819MOL0     O12885   9.346   3.752   7.642  1.2782 -0.1672  0.1653
  819MOL0     C12886   9.321   3.637   7.656 -0.0700 -0.0035  0.0178
  819MOL0     O12887   9.273   3.574   7.771  0.3424 -0.4712 -0.0060
  819MOL0     C12888   9.278   3.618   7.898  0.8491 -0.6042  0.0878
  819MOL0     C12889   9.202   3.550   7.980  0.4462 -0.1283  0.1385
  819MOL0     C12890   9.191   3.577   8.112 -0.9530 -0.0740  0.5223
  819MOL0     C12891   9.251   3.699   8.164  0.5908  0.3926  0.4640
  819MOL0     O12892   9.240   3.768   8.287 -0.4467 -0.9458  0.2958
  819MOL0     C12893   9.136   3.735   8.374 -0.0190 -0.3703 -0.0808
  819MOL0     C12894   9.166   3.822   8.505 -0.9344  0.0122 -0.8357
  819MOL0     C12895   9.174   3.972   8.467  0.4197  0.3124  0.1800
  819MOL0     C12896   9.167   4.074   8.580 -0.4153 -0.1887  0.0378
  819MOL0     C12897   9.051   4.039   8.671 -0.6028 -0.8129 -0.2418
  819MOL0     C12898   9.022   4.143   8.786  0.1551 -0.4095  0.5395
  819MOL0     C12899   8.899   4.108   8.868  0.0105 -0.5280  0.7261
  819MOL0     C12900   8.783   4.110   8.774  0.6081 -1.0186  0.4838
  819MOL0     N12901   8.656   4.109   8.861  0.3051  0.3116 -0.2534
  819MOL0     C12902   8.557   4.009   8.839  0.2760 -0.8439 -0.2363
  819MOL0     C12903   8.458   4.053   8.919  0.0375 -0.5527 -0.5480
  819MOL0     C12904   8.325   3.992   8.922  0.2688 -0.0832 -0.4431
  819MOL0     C12905   8.294   3.924   9.052  0.8206  0.0224  0.0539
  819MOL0     C12906   8.148   3.878   9.059  0.6536 -0.3773 -0.0798
  819MOL0     C12907   8.044   3.995   9.066  0.1540 -0.4732 -0.5482
  819MOL0     O12908   7.911   3.941   9.074 -0.1861 -0.1815 -0.1837
  819MOL0     C12909   7.835   3.951   9.189 -0.1692  0.6916 -0.0472
  819MOL0     C12910   7.697   3.937   9.170 -0.1623  0.7486 -0.7732
  819MOL0     C12911   7.605   3.961   9.271 -0.3564  0.6426 -0.2606
  819MOL0     C12912   7.461   3.951   9.232  0.4003 -0.4479  1.0160
  819MOL0     C12913   7.655   3.997   9.396  0.0353 -0.3038  0.1459
  819MOL0     C12914   7.563   4.011   9.518 -0.5043  0.0825  0.6101
  819MOL0     O12915   7.630   4.044   9.634 -0.4160  0.3937 -0.5026
  819MOL0     C12916   7.588   4.002   9.753  0.2504  0.0836 -0.0495
  819MOL0     C12917   7.498   4.082   9.825  0.6617  0.2213 -0.8298
  819MOL0     C12918   7.475   4.038   9.953 -0.6252  0.0640  0.7096
  819MOL0     C12919   7.529   3.923  10.006  0.5639  0.9913  0.7522
  819MOL0     O12920   7.470   3.892  10.126  0.3641  0.0730 -0.7375
  819MOL0     C12921   7.460   3.755  10.172 -0.4362 -0.3970 -0.5782
  819MOL0     C12922   7.368   3.742  10.300  0.2972  0.0340 -0.0875
  819MOL0     C12923   7.222   3.763  10.266  0.3918  0.0031 -0.1532
  819MOL0     C12924   7.149   3.773  10.399  0.4067 -0.6082 -0.1019
  819MOL0     C12925   7.148   3.647  10.483 -0.1722  0.3084 -0.7808
  819MOL0     C12926   7.090   3.513  10.423  0.6205  0.6008  0.3465
  819MOL0     C12927   7.079   3.403  10.532 -1.4312  0.4647  0.1356
  819MOL0     C12928   7.066   3.265  10.472 -0.2385  1.6019 -0.2487
  819MOL0    Cl12929   6.900   3.211  10.540 -0.1093  0.2475 -0.5265
  819MOL0     C12930   7.625   3.848   9.928  0.4515  0.0120 -0.7979
  819MOL0     C12931   7.648   3.887   9.796 -0.7455  0.3312  0.0932
  819MOL0     O12932   7.445   3.972   9.512 -0.0379  0.7302 -0.2875
  819MOL0     C12933   7.792   4.011   9.414  0.1615  1.7155  0.2033
  819MOL0     C12934   7.886   3.973   9.312  0.4527  0.4418 -0.5841
  819MOL0     N12935   8.498   4.173   8.984 -0.4169 -0.5134 -0.2766
  819MOL0     N12936   8.618   4.204   8.952  0.2768 -0.1409  0.3591
  819MOL0     C12937   9.344   3.768   8.080  0.3185 -0.1277 -0.7013
  819MOL0     C12938   9.354   3.726   7.947  0.0434  0.8200 -0.1013
  819MOL0     C12939   9.327   3.549   7.537  0.3142 -0.3019  0.9503
  819MOL0     C12940   9.316   3.411   7.554  0.0387 -0.6714 -0.6752
  819MOL0     C12941   9.284   3.328   7.449  0.3260 -0.5644  0.6059
  819MOL0     C12942   9.255   3.372   7.325 -1.2755 -0.6969  0.5191
  819MOL0     O12943   9.220   3.300   7.213 -0.4452  0.9106 -0.2808
  819MOL0     C12944   9.281   3.168   7.196 -0.2356  0.0877  0.4002
  819MOL0     C12945   9.431   3.154   7.166  0.0962  0.3197 -0.8608
  819MOL0     C12946   9.446   3.102   7.022 -1.1353 -0.4304 -0.1621
  819MOL0     C12947   9.581   3.129   6.950  0.1785 -0.0957 -0.6219
  819MOL0     C12948   9.688   3.085   7.044 -0.7065 -0.8142 -0.3326
  819MOL0     C12949   9.762   3.037   7.131 -0.0379 -0.5742 -0.3160
  819MOL0     C12950   9.289   3.505   7.301  0.5505 -0.6765 -0.1924
  819MOL0     C12951   9.328   3.588   7.404 -0.2056 -0.0006 -0.6421
  819MOL0     C12952   9.355   3.733   7.352  0.3420 -0.0042  0.1760
  819MOL0     H12953   9.146   3.471   7.929 -0.1627  0.9495 -0.9113
  819MOL0     H12954   9.127   3.515   8.175 -1.0539  0.4089  0.9037
  819MOL0     H12955   9.149   3.628   8.395 -1.3915 -0.7437 -1.0040
  819MOL0     H12956   9.041   3.762   8.329  0.8112  1.7763 -0.6796
  819MOL0     H12957   9.091   3.808   8.583  0.3056 -0.8407  0.2455
  819MOL0     H12958   9.264   3.785   8.537 -1.2669  0.6785  1.0847
  819MOL0     H12959   9.268   3.983   8.412  0.8565  1.8550  1.1586
  819MOL0     H12960   9.092   3.994   8.398  0.3988  0.3951  0.2294
  819MOL0     H12961   9.262   4.073   8.634  1.7192 -1.2283 -3.4306
  819MOL0     H12962   9.160   4.172   8.532  2.3675 -1.0212 -2.3950
  819MOL0     H12963   9.063   3.948   8.731 -0.4882  0.0727  1.1208
  819MOL0     H12964   8.965   4.037   8.604 -0.1296  1.3945 -0.9640
  819MOL0     H12965   9.111   4.149   8.850  2.5599 -4.0800 -2.0713
  819MOL0     H12966   9.011   4.247   8.754 -0.9237 -1.3063 -2.3092
  819MOL0     H12967   8.891   4.185   8.945 -2.2933 -1.8427  1.9281
  819MOL0     H12968   8.913   4.007   8.907  2.4136 -0.6142 -0.2153
  819MOL0     H12969   8.805   4.195   8.709  3.8890 -2.2052 -0.1665
  819MOL0     H12970   8.776   4.018   8.716  0.2939 -1.1435  0.7156
  819MOL0     H12971   8.571   3.928   8.768  0.0788 -1.3164  0.2620
  819MOL0     H12972   8.323   3.914   8.846  1.0802 -1.5225  0.9618
  819MOL0     H12973   8.247   4.066   8.900 -2.0038 -1.1182  3.1819
  819MOL0     H12974   8.366   3.842   9.063  4.4882  2.9451 -0.3573
  819MOL0     H12975   8.318   3.995   9.132 -0.4233 -2.0088  2.4006
  819MOL0     H12976   8.114   3.826   8.969 -0.3374  0.3512 -0.1507
  819MOL0     H12977   8.127   3.823   9.151  2.7027 -3.5231 -1.3292
  819MOL0     H12978   8.070   4.050   9.157 -0.2844 -0.8744 -0.1695
  819MOL0     H12979   8.041   4.061   8.979 -0.4866 -1.7631 -1.5420
  819MOL0     H12980   7.678   3.926   9.063  0.5775 -2.2979 -0.6579
  819MOL0     H12981   7.407   4.044   9.253  0.1411 -0.1449 -0.7542
  819MOL0     H12982   7.419   3.873   9.296 -2.6766  0.4447  0.2756
  819MOL0     H12983   7.450   3.919   9.128  1.0992 -1.1188  1.1414
  819MOL0     H12984   7.451   4.169   9.780 -0.2231  0.3392  0.2957
  819MOL0     H12985   7.411   4.109  10.004 -1.7264  0.8644 -1.6559
  819MOL0     H12986   7.435   3.683  10.094 -1.0740 -1.4929  0.6204
  819MOL0     H12987   7.555   3.721  10.214 -2.1182 -1.6156  2.5292
  819MOL0     H12988   7.369   3.638  10.333 -2.5493  0.5122  1.8207
  819MOL0     H12989   7.417   3.805  10.374 -0.8012  1.0996 -0.2198
  819MOL0     H12990   7.189   3.677  10.208 -0.2145 -0.0268  0.2298
  819MOL0     H12991   7.206   3.853  10.206 -0.4925  0.2648  0.4667
  819MOL0     H12992   7.049   3.818  10.404  0.8688  0.5378 -0.8304
  819MOL0     H12993   7.204   3.848  10.458 -1.1265 -1.0840  2.0989
  819MOL0     H12994   7.251   3.621  10.511  0.0366 -0.0820 -1.8926
  819MOL0     H12995   7.085   3.662  10.571 -0.2479 -0.4771 -0.6869
  819MOL0     H12996   7.137   3.490  10.327 -3.0283  2.3222 -2.0711
  819MOL0     H12997   6.985   3.517  10.394 -1.4741 -1.8170  6.0272
  819MOL0     H12998   7.002   3.425  10.607 -0.3724  0.2813  1.3129
  819MOL0     H12999   7.171   3.410  10.590 -2.3100  0.7460  1.5623
  819MOL0     H13000   7.148   3.202  10.507 -1.1588 -0.5543 -1.7657
  819MOL0     H13001   7.077   3.266  10.363  2.1304 -3.1942 -0.3143
  819MOL0     H13002   7.679   3.760   9.962 -0.5711 -0.3776 -0.1360
  819MOL0     H13003   7.712   3.825   9.734 -1.8711 -1.2360  0.4101
  819MOL0     H13004   7.822   4.033   9.516  0.2396 -3.0379  1.4442
  819MOL0     H13005   7.993   3.972   9.330  0.6310  0.3754 -1.6260
  819MOL0     H13006   9.386   3.860   8.118  1.0916 -0.4233 -0.8280
  819MOL0     H13007   9.413   3.791   7.883  0.8546 -0.0262 -0.2455
  819MOL0     H13008   9.318   3.364   7.652 -1.0829  0.2225 -0.1845
  819MOL0     H13009   9.290   3.226   7.485  2.9380  0.7338  4.5249
  819MOL0     H13010   9.275   3.112   7.290 -0.9767 -0.5702 -0.0261
  819MOL0     H13011   9.226   3.112   7.119 -0.0609  0.4736 -0.0080
  819MOL0     H13012   9.469   3.074   7.229 -1.3270 -1.3344 -2.0293
  819MOL0     H13013   9.488   3.242   7.197 -1.8431  0.6231  2.3334
  819MOL0     H13014   9.442   2.994   7.035 -1.7211 -0.4939 -0.8304
  819MOL0     H13015   9.367   3.134   6.954  1.3512 -1.1488 -3.6847
  819MOL0     H13016   9.596   3.236   6.930 -0.0074 -0.3379 -2.1587
  819MOL0     H13017   9.587   3.072   6.857  2.7085 -2.2015  0.7029
  819MOL0     H13018   9.829   2.967   7.178 -2.5636 -3.3848 -0.5615
  819MOL0     H13019   9.280   3.548   7.202  2.8650 -0.8459 -0.5294
  819MOL0     H13020   9.374   3.748   7.245  0.0877 -1.5222 -0.1110
  819MOL0     H13021   9.275   3.805   7.370  1.3436  1.8092 -2.0880
  819MOL0     H13022   9.444   3.772   7.402 -0.9771  1.4501  1.4924
  820MOL0     O13023  11.126   2.485   6.978  0.7977 -0.5141  0.0812
  820MOL0     C13024  11.219   2.560   6.996  0.2248 -0.0768 -0.2860
  820MOL0     O13025  11.283   2.632   6.902  0.0404 -0.6210 -0.4376
  820MOL0     C13026  11.268   2.604   6.767 -0.6653 -0.4364 -0.1072
  820MOL0     C13027  11.307   2.487   6.700  0.6405  0.6681  0.1872
  820MOL0     C13028  11.315   2.476   6.563  0.3254  0.1847 -0.0851
  820MOL0     C13029  11.271   2.586   6.486  0.2343 -0.0708 -0.7072
  820MOL0     O13030  11.279   2.574   6.345 -0.1038 -0.1573  0.2759
  820MOL0     C13031  11.220   2.666   6.252 -0.7001 -0.2700  0.0234
  820MOL0     C13032  11.170   2.588   6.131 -0.5718  0.3546  0.3872
  820MOL0     C13033  11.185   2.663   5.993  0.7520  0.2342  0.4283
  820MOL0     C13034  11.057   2.729   5.931 -0.3202  0.2059 -0.1738
  820MOL0     C13035  11.009   2.848   6.019 -0.2779  0.1155  1.0876
  820MOL0     C13036  10.893   2.813   6.113  0.4167 -0.7213 -0.0866
  820MOL0     C13037  10.862   2.928   6.215 -0.2557 -0.1188  0.3597
  820MOL0     C13038  10.718   2.967   6.227  0.0621 -0.3411 -0.1788
  820MOL0     N13039  10.665   3.024   6.107  0.3551 -0.0448  1.0593
  820MOL0     C13040  10.531   3.016   6.072 -0.3130 -0.5433 -0.0311
  820MOL0     C13041  10.517   3.078   5.952  0.5070 -0.2710  0.2949
  820MOL0     C13042  10.380   3.102   5.879 -0.3109  0.7175  0.1301
  820MOL0     C13043  10.396   3.150   5.731  0.4547  0.9246  0.7404
  820MOL0     C13044  10.453   3.291   5.712  0.1432  0.1797  0.0300
  820MOL0     C13045  10.440   3.320   5.570 -0.3898  0.0987  0.9913
  820MOL0     O13046  10.496   3.217   5.488 -0.4192  0.6537 -0.7107
  820MOL0     C13047  10.572   3.251   5.378  0.5224 -0.3180 -0.6273
  820MOL0     C13048  10.623   3.137   5.315  0.4877 -0.6466  0.2633
  820MOL0     C13049  10.696   3.150   5.192 -0.2855 -0.1151  0.5059
  820MOL0     C13050  10.753   3.021   5.129  0.2383 -0.0726 -0.1361
  820MOL0     C13051  10.711   3.274   5.131 -0.2981  0.4035  0.4822
  820MOL0     C13052  10.783   3.310   4.997  0.0094  0.0889  0.2075
  820MOL0     O13053  10.849   3.206   4.928  0.0574 -0.1462 -0.2868
  820MOL0     C13054  10.910   3.230   4.809  0.1304 -0.1612  0.7243
  820MOL0     C13055  10.874   3.329   4.711  0.4943  0.0163  0.7010
  820MOL0     C13056  10.943   3.346   4.590 -0.3619  0.0471 -0.3087
  820MOL0     C13057  11.046   3.258   4.555  0.2961 -0.5035 -0.2665
  820MOL0     O13058  11.130   3.267   4.445 -1.1375  0.2573  0.0008
  820MOL0     C13059  11.063   3.289   4.318  0.4561 -0.5046 -0.2622
  820MOL0     C13060  11.079   3.160   4.238 -0.3120 -0.4808 -0.4688
  820MOL0     C13061  11.223   3.109   4.229 -0.4544  0.0336  0.4846
  820MOL0     C13062  11.201   2.963   4.173  0.7701 -0.6883  0.7317
  820MOL0     C13063  11.331   2.895   4.146 -0.6832 -0.0073 -0.1650
  820MOL0     C13064  11.315   2.750   4.077  0.2555 -1.0891  0.4749
  820MOL0     C13065  11.257   2.768   3.935  0.3833 -0.0993 -0.2857
  820MOL0     C13066  11.255   2.638   3.848 -0.5003 -1.0907  0.0521
  820MOL0    Cl13067  11.434   2.606   3.813  0.4376  0.2734  0.2182
  820MOL0     C13068  11.070   3.151   4.645 -0.1458  0.0809  0.0734
  820MOL0     C13069  11.001   3.138   4.765 -0.2500  0.2762 -0.2022
  820MOL0     O13070  10.777   3.430   4.960 -0.5334  0.7521 -0.5516
  820MOL0     C13071  10.660   3.388   5.202 -0.0377  0.2870  0.2053
  820MOL0     C13072  10.601   3.382   5.327  0.1313  0.8196 -0.3359
  820MOL0     N13073  10.648   3.107   5.907  0.3312 -0.3011 -0.2384
  820MOL0     N13074  10.738   3.083   5.998 -0.3364 -0.3522  0.5163
  820MOL0     C13075  11.224   2.701   6.551  0.3980  0.9442 -0.2978
  820MOL0     C13076  11.239   2.719   6.683  0.5955  0.3006 -1.0381
  820MOL0     C13077  11.262   2.582   7.129  0.1172 -0.2956  0.3588
  820MOL0     C13078  11.245   2.706   7.189  0.7875 -0.3220 -0.4484
  820MOL0     C13079  11.268   2.719   7.324 -0.1200  0.2082  0.8487
  820MOL0     C13080  11.326   2.623   7.398 -0.6072  0.5974 -0.6283
  820MOL0     O13081  11.344   2.657   7.532  0.1910 -1.0427 -0.4387
  820MOL0     C13082  11.420   2.561   7.611  1.0296 -0.2231 -0.2665
  820MOL0     C13083  11.452   2.643   7.744  0.0257 -0.4522 -0.5664
  820MOL0     C13084  11.568   2.742   7.710 -0.4513  0.2201 -0.5384
  820MOL0     C13085  11.582   2.855   7.816 -0.2004 -0.1430 -0.1917
  820MOL0     C13086  11.702   2.937   7.803 -0.1012  0.0221  0.6426
  820MOL0     C13087  11.805   2.987   7.820 -0.0930  0.0422 -0.4731
  820MOL0     C13088  11.362   2.503   7.340  0.8473 -0.1070  0.2414
  820MOL0     C13089  11.330   2.481   7.201 -0.8076  0.4481 -0.8032
  820MOL0     C13090  11.357   2.338   7.156 -0.2124 -0.2101 -0.2812
  820MOL0     H13091  11.362   2.415   6.759 -0.5328  0.5737  1.2034
  820MOL0     H13092  11.346   2.384   6.514  1.4213 -0.1985  1.2832
  820MOL0     H13093  11.296   2.739   6.222 -1.1434 -0.2079 -0.9715
  820MOL0     H13094  11.126   2.710   6.287 -2.9692 -4.5501 -0.0339
  820MOL0     H13095  11.222   2.492   6.121 -1.3079 -0.1483  1.1998
  820MOL0     H13096  11.066   2.571   6.159 -0.1477 -3.0572  0.3423
  820MOL0     H13097  11.247   2.750   6.016  0.8037 -0.1324  1.7948
  820MOL0     H13098  11.239   2.600   5.922 -0.0051 -1.4213  1.2589
  820MOL0     H13099  11.085   2.763   5.831 -0.2274  0.1555 -0.1640
  820MOL0     H13100  10.979   2.654   5.916  0.4126 -0.6171  0.0278
  820MOL0     H13101  10.984   2.934   5.956  0.1946 -0.0646  0.6453
  820MOL0     H13102  11.089   2.886   6.083  1.0966 -2.3138  0.9469
  820MOL0     H13103  10.804   2.785   6.056  0.2222 -0.2986 -0.0001
  820MOL0     H13104  10.919   2.730   6.180 -2.7624 -0.7614  1.2922
  820MOL0     H13105  10.916   3.019   6.188  1.4087 -1.3168 -0.5298
  820MOL0     H13106  10.889   2.885   6.312 -1.8752  1.3428  1.5168
  820MOL0     H13107  10.650   2.886   6.251  0.2225  0.2749  2.6604
  820MOL0     H13108  10.711   3.041   6.307  0.5637 -0.9719  0.4544
  820MOL0     H13109  10.454   2.967   6.131  0.4952  0.7918  2.2502
  820MOL0     H13110  10.319   3.177   5.930  1.5484  2.3395  0.1209
  820MOL0     H13111  10.336   3.003   5.891  2.7690 -0.7425  0.4977
  820MOL0     H13112  10.459   3.076   5.680  3.2923  1.4518  3.2067
  820MOL0     H13113  10.297   3.155   5.684 -0.4173 -0.7358  2.2736
  820MOL0     H13114  10.403   3.374   5.761 -1.1832  0.1584 -1.2379
  820MOL0     H13115  10.560   3.290   5.739  0.4730 -1.4670 -1.1456
  820MOL0     H13116  10.334   3.321   5.541 -0.0688  2.1750 -0.3149
  820MOL0     H13117  10.497   3.413   5.559  3.0592 -2.0363 -0.6218
  820MOL0     H13118  10.602   3.041   5.361  3.4317 -1.6597 -0.3421
  820MOL0     H13119  10.861   3.018   5.151 -0.0820  0.9350  1.7716
  820MOL0     H13120  10.717   2.995   5.029 -0.9043 -4.4755  1.2062
  820MOL0     H13121  10.714   2.934   5.183 -3.3038  1.7200  0.4424
  820MOL0     H13122  10.796   3.401   4.729 -0.8591 -0.7346 -1.7616
  820MOL0     H13123  10.909   3.422   4.521 -1.2161  1.2684  1.3905
  820MOL0     H13124  10.956   3.295   4.339  1.1195 -1.7243  4.9122
  820MOL0     H13125  11.109   3.373   4.265  2.8017 -2.2596 -1.1573
  820MOL0     H13126  11.016   3.094   4.299  0.0450  3.6853  5.2716
  820MOL0     H13127  11.037   3.177   4.139  0.4981 -0.3685 -0.8003
  820MOL0     H13128  11.268   3.112   4.328 -1.1860 -0.7012  0.8480
  820MOL0     H13129  11.290   3.165   4.163 -2.8764  3.8854  1.0166
  820MOL0     H13130  11.142   2.959   4.081  2.7731  2.6031 -0.8666
  820MOL0     H13131  11.139   2.913   4.248  1.0252  2.1347  3.0444
  820MOL0     H13132  11.394   2.956   4.082 -0.1453 -0.4275 -0.0476
  820MOL0     H13133  11.368   2.875   4.247 -2.3037  1.1838  0.7126
  820MOL0     H13134  11.235   2.696   4.127 -0.8726 -2.6760 -2.8177
  820MOL0     H13135  11.408   2.692   4.073  0.3706 -0.8580 -0.4490
  820MOL0     H13136  11.305   2.848   3.879  1.1177  0.4407  1.0474
  820MOL0     H13137  11.153   2.799   3.948 -0.6730 -1.5472 -4.1720
  820MOL0     H13138  11.196   2.650   3.757 -0.4744 -1.4454 -0.0136
  820MOL0     H13139  11.201   2.567   3.912 -3.8720  1.2154  0.0514
  820MOL0     H13140  11.135   3.074   4.603  2.5942  1.0343  2.2771
  820MOL0     H13141  11.015   3.057   4.835  1.6992 -1.3759 -2.3591
  820MOL0     H13142  10.671   3.493   5.179 -0.1049 -0.3886 -3.5006
  820MOL0     H13143  10.563   3.473   5.373 -0.9555 -0.5703  1.6836
  820MOL0     H13144  11.195   2.777   6.479 -0.5017  1.2570  0.3682
  820MOL0     H13145  11.241   2.819   6.725 -1.9395 -0.2954  0.7561
  820MOL0     H13146  11.204   2.788   7.132 -3.1931 -1.6535  0.1884
  820MOL0     H13147  11.259   2.819   7.366  3.0429  1.0188 -0.1206
  820MOL0     H13148  11.364   2.470   7.635  1.5285 -0.3939  0.2606
  820MOL0     H13149  11.508   2.519   7.561  1.2561 -2.5107  1.8653
  820MOL0     H13150  11.476   2.570   7.821  1.0662 -0.5267 -0.9417
  820MOL0     H13151  11.362   2.701   7.766 -0.5582 -1.4002 -0.4276
  820MOL0     H13152  11.662   2.687   7.700 -1.0160 -1.6865  3.1329
  820MOL0     H13153  11.549   2.797   7.617 -0.8216  1.8318  0.4477
  820MOL0     H13154  11.569   2.812   7.916  0.0212  1.0314  0.3539
  820MOL0     H13155  11.491   2.913   7.797  1.3025  1.8919 -1.5716
  820MOL0     H13156  11.894   3.045   7.835  1.5404 -1.5619 -3.0496
  820MOL0     H13157  11.408   2.418   7.388 -0.8698 -0.8314  0.6926
  820MOL0     H13158  11.443   2.339   7.088  1.5859  2.2433  1.8082
  820MOL0     H13159  11.376   2.269   7.239 -0.9844  0.6153  0.6011
  820MOL0     H13160  11.267   2.304   7.103 -1.1278  0.5782  0.7249
  821MOL0     O13161   2.933  11.454   9.545 -0.5520 -0.6067 -0.4998
  821MOL0     C13162   2.986  11.481   9.651 -0.1439 -0.7697 -1.1662
  821MOL0     O13163   2.950  11.425   9.773 -0.6191 -0.7170  0.4791
  821MOL0     C13164   2.822  11.383   9.782 -0.4096 -0.2932 -0.0072
  821MOL0     C13165   2.708  11.444   9.725 -0.2970  0.4003 -0.3620
  821MOL0     C13166   2.588  11.414   9.782  1.4706 -0.1075  0.4390
  821MOL0     C13167   2.578  11.328   9.886  0.2833 -0.1090 -1.0000
  821MOL0     O13168   2.454  11.306   9.948 -0.8130  1.0561 -0.9494
  821MOL0     C13169   2.447  11.258  10.080 -0.1881 -0.8427 -0.6623
  821MOL0     C13170   2.304  11.271  10.131  0.5584  0.7579  0.7271
  821MOL0     C13171   2.208  11.167  10.052  0.5186 -0.3067  0.3661
  821MOL0     C13172   2.065  11.214  10.082 -0.1470 -0.4369 -0.6106
  821MOL0     C13173   1.959  11.124  10.035  0.0679  0.0119  1.0161
  821MOL0     C13174   1.814  11.163  10.065 -0.3258  0.2996  0.3671
  821MOL0     C13175   1.758  11.286   9.989  0.3100 -0.8454  0.6027
  821MOL0     C13176   1.765  11.423  10.052  0.1740 -0.0596  0.2169
  821MOL0     N13177   1.757  11.437  10.194  0.1824  0.4849  0.5217
  821MOL0     C13178   1.862  11.443  10.276  0.1333  0.1421  0.9064
  821MOL0     C13179   1.818  11.462  10.399  0.4228  0.0064 -0.7119
  821MOL0     C13180   1.879  11.475  10.532  0.5553  0.2733  0.5050
  821MOL0     C13181   2.027  11.458  10.519 -0.2048  0.0417 -0.5039
  821MOL0     C13182   2.100  11.585  10.485  0.0298 -0.1613 -0.4492
  821MOL0     C13183   2.253  11.559  10.489 -0.2949  1.0031 -0.2004
  821MOL0     O13184   2.314  11.556  10.620  0.3293  0.3085 -0.0267
  821MOL0     C13185   2.395  11.670  10.647 -0.6701  0.2581 -0.7431
  821MOL0     C13186   2.526  11.659  10.691 -0.1502 -0.3695  0.0941
  821MOL0     C13187   2.609  11.769  10.724 -0.0446 -0.1467  0.7573
  821MOL0     C13188   2.747  11.732  10.764  0.2613  0.1128  0.1427
  821MOL0     C13189   2.559  11.894  10.687 -0.0611 -0.7929  0.4014
  821MOL0     C13190   2.638  12.021  10.698 -0.2583 -0.2597 -0.0060
  821MOL0     O13191   2.573  12.139  10.672 -0.3261  1.0013 -0.4054
  821MOL0     C13192   2.659  12.249  10.647  0.1773 -0.2219 -0.0860
  821MOL0     C13193   2.719  12.312  10.760  1.2902 -0.1686  0.3004
  821MOL0     C13194   2.772  12.442  10.748  0.1878  0.3391  0.3693
  821MOL0     C13195   2.791  12.499  10.619 -0.2999 -0.1758  0.7094
  821MOL0     O13196   2.834  12.625  10.595 -0.1519 -0.0865  0.2546
  821MOL0     C13197   2.787  12.720  10.691 -0.3116  0.1516  0.7551
  821MOL0     C13198   2.797  12.868  10.644 -0.3124 -1.2454  0.6269
  821MOL0     C13199   2.752  12.963  10.748  0.2761 -1.2685 -1.2825
  821MOL0     C13200   2.778  13.105  10.691 -0.2476 -0.6255 -0.1441
  821MOL0     C13201   2.696  13.220  10.755 -0.1245 -0.6379  0.4800
  821MOL0     C13202   2.724  13.223  10.908  0.8418  0.8591  0.8666
  821MOL0     C13203   2.674  13.353  10.971  0.2444 -0.0290 -1.1081
  821MOL0     C13204   2.713  13.365  11.121 -0.7831 -0.5538 -0.4628
  821MOL0    Cl13205   2.592  13.333  11.242  0.4991 -0.1426 -0.2954
  821MOL0     C13206   2.749  12.414  10.508 -0.0368 -0.4719 -0.1937
  821MOL0     C13207   2.676  12.298  10.520  0.1889  0.9447  0.0476
  821MOL0     O13208   2.760  12.008  10.730 -0.1573  0.0893  0.0400
  821MOL0     C13209   2.421  11.905  10.648 -0.2927 -0.0916 -0.0792
  821MOL0     C13210   2.339  11.796  10.631 -0.0819 -0.6030  0.0113
  821MOL0     N13211   1.672  11.464  10.389 -0.9556 -0.0654  0.2872
  821MOL0     N13212   1.642  11.446  10.259 -0.9773 -0.0819  0.1031
  821MOL0     C13213   2.684  11.248   9.920  0.0390 -0.0454  0.6104
  821MOL0     C13214   2.807  11.288   9.871 -0.2687 -1.0555 -0.1513
  821MOL0     C13215   3.115  11.558   9.643 -0.6828  0.3375 -0.2462
  821MOL0     C13216   3.197  11.564   9.759  0.0153 -0.4139  0.3098
  821MOL0     C13217   3.321  11.621   9.761 -0.9502  0.1437 -0.4020
  821MOL0     C13218   3.374  11.684   9.654 -0.0712 -1.2401 -0.6901
  821MOL0     O13219   3.490  11.757   9.652 -0.1307 -0.2427  0.5035
  821MOL0     C13220   3.583  11.746   9.751  0.8257 -0.3668 -0.3294
  821MOL0     C13221   3.568  11.841   9.877 -0.4873  0.7485  0.0208
  821MOL0     C13222   3.607  11.989   9.848  0.4279  0.2479  0.2518
  821MOL0     C13223   3.754  12.027   9.822  0.4227  0.5685  0.5392
  821MOL0     C13224   3.846  12.010   9.934 -0.4577  0.6926 -1.0049
  821MOL0     C13225   3.920  11.998  10.028 -0.2867 -0.0777  0.7042
  821MOL0     C13226   3.296  11.683   9.537  0.7732 -0.2970 -1.2999
  821MOL0     C13227   3.168  11.622   9.528  0.4847  0.1979  0.4432
  821MOL0     C13228   3.102  11.614   9.395  0.4029  0.9120  0.0615
  821MOL0     H13229   2.709  11.510   9.640 -0.9229  1.6336  0.5650
  821MOL0     H13230   2.499  11.466   9.745 -0.1897 -0.0020  4.1018
  821MOL0     H13231   2.519  11.313  10.141 -1.2199 -0.2112  0.0220
  821MOL0     H13232   2.475  11.152  10.084  1.6653 -0.4189 -1.2983
  821MOL0     H13233   2.283  11.260  10.238 -3.3825  1.6057  0.1929
  821MOL0     H13234   2.262  11.370  10.112  1.4937  1.5527  2.5726
  821MOL0     H13235   2.214  11.167   9.943 -4.5425 -0.3471 -0.1121
  821MOL0     H13236   2.210  11.063  10.086  0.6791 -0.2419  0.5630
  821MOL0     H13237   2.057  11.223  10.191  2.8248 -0.2018 -0.3312
  821MOL0     H13238   2.041  11.314  10.045 -1.4473 -1.2668 -2.1321
  821MOL0     H13239   1.978  11.021  10.065  3.9120  0.9348  2.2430
  821MOL0     H13240   1.966  11.119   9.926  1.8878  0.5508  1.0754
  821MOL0     H13241   1.748  11.079  10.042 -0.7119  0.5255  0.6180
  821MOL0     H13242   1.809  11.183  10.173  0.0019  0.8873  0.2775
  821MOL0     H13243   1.650  11.271   9.984  0.4072 -1.3626 -0.1552
  821MOL0     H13244   1.794  11.303   9.887 -0.0086  1.6117  0.8550
  821MOL0     H13245   1.853  11.476  10.013  0.2545 -0.3422  0.0173
  821MOL0     H13246   1.683  11.480  10.009  1.9207  1.4404 -1.2912
  821MOL0     H13247   1.968  11.431  10.256  0.4509  2.4307  0.8803
  821MOL0     H13248   1.842  11.391  10.591 -2.9107  0.3478 -1.2882
  821MOL0     H13249   1.848  11.569  10.580 -1.3288  0.0665 -0.2212
  821MOL0     H13250   2.063  11.422  10.616  0.9535  0.6009 -0.7129
  821MOL0     H13251   2.049  11.383  10.442  2.9092  1.3744 -1.0736
  821MOL0     H13252   2.075  11.620  10.385  3.8391  0.7177 -1.2376
  821MOL0     H13253   2.062  11.668  10.546 -3.2055 -2.0196  0.2979
  821MOL0     H13254   2.273  11.462  10.444  2.4716  1.3705  0.1019
  821MOL0     H13255   2.305  11.631  10.425  1.6594 -0.0388  0.1479
  821MOL0     H13256   2.561  11.559  10.716  0.2191 -1.3783 -3.7437
  821MOL0     H13257   2.820  11.775  10.695 -1.4659  0.5807 -1.4759
  821MOL0     H13258   2.769  11.626  10.748  0.5489  0.2989 -0.7723
  821MOL0     H13259   2.760  11.754  10.871 -1.8435  1.6789  0.1348
  821MOL0     H13260   2.703  12.269  10.858 -0.8481  0.4979  0.2896
  821MOL0     H13261   2.792  12.492  10.842 -0.5564  2.4248 -0.5233
  821MOL0     H13262   2.682  12.697  10.708 -0.1663 -0.2218  1.1721
  821MOL0     H13263   2.848  12.708  10.782 -0.5783 -1.2944  0.7644
  821MOL0     H13264   2.900  12.884  10.610 -0.5977 -1.6771 -0.4626
  821MOL0     H13265   2.731  12.886  10.559  0.3574  1.1211  0.5189
  821MOL0     H13266   2.800  12.948  10.845  0.9819  1.0945 -1.2119
  821MOL0     H13267   2.645  12.947  10.763  0.1981 -0.2521 -0.6874
  821MOL0     H13268   2.765  13.101  10.583 -0.9482  1.7972 -0.2078
  821MOL0     H13269   2.885  13.110  10.713 -0.0298  1.5312 -1.4194
  821MOL0     H13270   2.736  13.313  10.713  0.3536 -0.3347  1.5782
  821MOL0     H13271   2.590  13.223  10.727  0.5726  2.0234 -2.5777
  821MOL0     H13272   2.826  13.199  10.938  0.9323  1.5748  1.1370
  821MOL0     H13273   2.671  13.137  10.951 -0.3665  0.9885 -0.2701
  821MOL0     H13274   2.565  13.353  10.957 -0.3517 -4.5410  1.7804
  821MOL0     H13275   2.717  13.447  10.934  0.4924  1.2263  2.0479
  821MOL0     H13276   2.755  13.463  11.144  3.6278 -1.9172 -1.7335
  821MOL0     H13277   2.796  13.297  11.140 -1.5125 -0.9946  1.3710
  821MOL0     H13278   2.769  12.466  10.415  0.3066  1.8054  1.0751
  821MOL0     H13279   2.650  12.237  10.434  0.1850 -0.7783  1.2182
  821MOL0     H13280   2.386  12.003  10.618 -0.2823 -0.5034 -1.5058
  821MOL0     H13281   2.242  11.814  10.585 -0.1815 -0.2767  0.3492
  821MOL0     H13282   2.675  11.173   9.999 -2.4959  0.4770  0.8895
  821MOL0     H13283   2.898  11.245   9.910  0.3776  0.5469  0.1844
  821MOL0     H13284   3.159  11.521   9.851  2.5023  2.4409  2.9083
  821MOL0     H13285   3.384  11.608   9.848 -1.8855  2.7942  0.7926
  821MOL0     H13286   3.582  11.647   9.797  0.7169 -0.8176 -1.2743
  821MOL0     H13287   3.680  11.761   9.703  0.9482 -2.9989 -1.0336
  821MOL0     H13288   3.637  11.814   9.957 -2.7637 -0.7968  1.5805
  821MOL0     H13289   3.471  11.825   9.925  0.5781  3.1755  3.2937
  821MOL0     H13290   3.547  12.014   9.760 -0.8870 -4.2636 -0.3913
  821MOL0     H13291   3.569  12.050   9.931  0.5779  1.0997 -0.2951
  821MOL0     H13292   3.748  12.132   9.793  0.6880  0.2642 -0.6723
  821MOL0     H13293   3.791  11.971   9.736 -0.1883 -1.3654  1.4687
  821MOL0     H13294   3.982  11.978  10.114  1.8276 -1.4951 -1.0300
  821MOL0     H13295   3.337  11.738   9.453 -0.8080  0.3524 -1.6868
  821MOL0     H13296   3.166  11.683   9.338  1.7124  0.9130  1.4780
  821MOL0     H13297   3.102  11.519   9.341 -1.4093 -0.2080  1.9074
  821MOL0     H13298   2.996  11.640   9.401 -0.8717 -2.6698 -3.1273
  822MOL0     O13299   0.928   8.872   9.548 -0.1018  0.3918 -0.0435
  822MOL0     C13300   0.836   8.803   9.500 -0.1667 -0.0984 -0.5285
  822MOL0     O13301   0.850   8.672   9.461  1.1453  0.0544 -0.2675
  822MOL0     C13302   0.960   8.588   9.462  0.1432  0.1299  0.4352
  822MOL0     C13303   0.926   8.456   9.428  0.4057 -0.0717 -0.8486
  822MOL0     C13304   1.016   8.348   9.424 -0.7972 -0.6333  0.0945
  822MOL0     C13305   1.151   8.379   9.453 -0.8054  0.0991 -0.3907
  822MOL0     O13306   1.247   8.278   9.444  0.4496 -0.2313 -0.0666
  822MOL0     C13307   1.225   8.186   9.342  0.5414 -0.4300  0.7393
  822MOL0     C13308   1.352   8.105   9.311 -0.1659 -0.2199  0.2790
  822MOL0     C13309   1.341   8.041   9.181 -0.0384  0.0088 -1.1056
  822MOL0     C13310   1.462   7.955   9.153 -0.1348  0.2488 -0.1982
  822MOL0     C13311   1.462   7.863   9.036 -0.8492  1.4611  1.0023
  822MOL0     C13312   1.578   7.764   9.032  0.0162  1.4667 -0.0221
  822MOL0     C13313   1.593   7.705   8.890  0.1337  0.5833 -0.0980
  822MOL0     C13314   1.662   7.807   8.802 -0.2150 -0.5774  0.3054
  822MOL0     N13315   1.705   7.768   8.666 -0.3750 -0.6853  0.2995
  822MOL0     C13316   1.748   7.646   8.628  1.0576  0.2959  0.1110
  822MOL0     C13317   1.779   7.661   8.496  0.3668  0.5444 -0.2986
  822MOL0     C13318   1.834   7.550   8.407  0.6130  0.0655  0.2642
  822MOL0     C13319   1.994   7.548   8.401  0.1920 -0.5691 -0.1083
  822MOL0     C13320   2.063   7.445   8.318 -0.0819 -0.5941 -0.9692
  822MOL0     C13321   2.206   7.484   8.283 -0.1859 -0.8559 -0.4445
  822MOL0     O13322   2.291   7.468   8.389  0.7028  0.2626 -0.3097
  822MOL0     C13323   2.378   7.360   8.390  0.3367 -0.2386  0.5908
  822MOL0     C13324   2.366   7.280   8.497  0.8453 -0.4740  0.1888
  822MOL0     C13325   2.452   7.175   8.521  0.0486 -0.1220 -0.0965
  822MOL0     C13326   2.446   7.106   8.653 -0.5261 -0.5027 -1.2071
  822MOL0     C13327   2.536   7.131   8.418 -0.3799  0.1896  0.3069
  822MOL0     C13328   2.622   7.016   8.425  0.9079  0.7768  0.0064
  822MOL0     O13329   2.736   7.006   8.347  0.1612 -0.2063 -1.1589
  822MOL0     C13330   2.798   6.894   8.327  1.1690 -0.4548  0.1445
  822MOL0     C13331   2.884   6.840   8.426  0.2573  0.1642  1.1243
  822MOL0     C13332   2.944   6.711   8.410 -0.2346  0.0531  0.1072
  822MOL0     C13333   2.921   6.636   8.294  0.0433 -1.2937 -0.7878
  822MOL0     O13334   2.971   6.514   8.273  0.2546  0.0859  0.3470
  822MOL0     C13335   2.960   6.416   8.389  0.1591  0.7805  0.0984
  822MOL0     C13336   3.105   6.388   8.427  1.4324 -0.1097  0.2164
  822MOL0     C13337   3.117   6.279   8.536 -0.1386 -0.5870  0.7577
  822MOL0     C13338   3.249   6.287   8.608  0.4642 -0.3369 -1.3029
  822MOL0     C13339   3.267   6.170   8.710  0.4775 -0.1251  0.0432
  822MOL0     C13340   3.286   6.221   8.850  1.0360 -0.6690  0.4387
  822MOL0     C13341   3.324   6.106   8.946  0.6928 -0.4475  0.2919
  822MOL0     C13342   3.214   6.012   8.983  0.9350  0.0202 -0.4787
  822MOL0    Cl13343   3.093   6.096   9.095  0.2651  0.0663  0.1888
  822MOL0     C13344   2.829   6.690   8.201  0.2771  0.1377  0.2638
  822MOL0     C13345   2.772   6.817   8.209  0.1887 -0.6229  0.2979
  822MOL0     O13346   2.572   6.924   8.484  1.0017  0.3191  0.0433
  822MOL0     C13347   2.542   7.213   8.297  0.5939  0.5159  0.3066
  822MOL0     C13348   2.465   7.328   8.284  0.7246 -1.4540  0.2301
  822MOL0     N13349   1.775   7.795   8.464 -0.1573 -0.3421 -0.2437
  822MOL0     N13350   1.723   7.854   8.565 -0.4226  0.3072  0.0093
  822MOL0     C13351   1.197   8.512   9.485  0.2872  0.1439 -0.7568
  822MOL0     C13352   1.098   8.616   9.483  0.0961 -0.2043 -1.1175
  822MOL0     C13353   0.704   8.866   9.513 -0.4906  0.2898 -0.9800
  822MOL0     C13354   0.692   8.975   9.598 -0.4684 -0.2825 -0.1794
  822MOL0     C13355   0.566   9.043   9.614 -0.6182 -0.1414 -0.0866
  822MOL0     C13356   0.448   9.003   9.555  0.1117  0.6311 -0.0212
  822MOL0     O13357   0.332   9.070   9.574  0.2678  0.8972  0.0812
  822MOL0     C13358   0.202   9.008   9.542 -1.0999  0.3756 -0.4886
  822MOL0     C13359   0.088   9.088   9.606 -0.6771  0.7560  0.0417
  822MOL0     C13360  -0.033   9.012   9.577 -0.5228  0.2154 -0.4560
  822MOL0     C13361  -0.153   9.090   9.625 -0.5197  0.5742 -0.2014
  822MOL0     C13362  -0.266   9.022   9.551  0.6885  0.3794 -1.0691
  822MOL0     C13363  -0.373   8.980   9.511 -0.7425 -0.4684  0.8688
  822MOL0     C13364   0.464   8.891   9.467  0.2433  0.0692  0.6731
  822MOL0     C13365   0.591   8.831   9.435  0.3932  0.1884 -1.0066
  822MOL0     C13366   0.597   8.719   9.337  1.0197 -0.2722  0.7788
  822MOL0     H13367   0.819   8.436   9.418  0.0421  1.3367 -0.0446
  822MOL0     H13368   0.982   8.247   9.403  0.9758 -0.7460 -2.7316
  822MOL0     H13369   1.191   8.240   9.253  0.7688 -1.0745  0.2522
  822MOL0     H13370   1.147   8.112   9.359 -0.6808  1.3586  3.6773
  822MOL0     H13371   1.439   8.172   9.315  1.0025 -1.7477  1.1264
  822MOL0     H13372   1.358   8.023   9.383 -1.7978  0.4395  1.2159
  822MOL0     H13373   1.256   7.972   9.181  0.7204 -0.9834  0.3859
  822MOL0     H13374   1.335   8.118   9.104 -2.3716 -0.8785 -1.8764
  822MOL0     H13375   1.550   8.019   9.145  0.3088 -0.3819 -0.4702
  822MOL0     H13376   1.470   7.884   9.236  0.1221 -1.7264 -1.8335
  822MOL0     H13377   1.466   7.933   8.952 -1.0758  1.7010  1.1906
  822MOL0     H13378   1.373   7.801   9.028 -0.6008  1.1727  0.3887
  822MOL0     H13379   1.670   7.820   9.050  0.8069  0.2583 -0.2252
  822MOL0     H13380   1.568   7.691   9.113 -1.9447  2.3304  0.5866
  822MOL0     H13381   1.498   7.672   8.848  0.8024 -0.2158 -1.0248
  822MOL0     H13382   1.644   7.610   8.913 -0.4047  0.9900  3.4047
  822MOL0     H13383   1.597   7.894   8.792  1.7277  0.7886 -1.0802
  822MOL0     H13384   1.752   7.846   8.851  0.0253  0.3840 -0.8750
  822MOL0     H13385   1.745   7.558   8.691 -0.5136  1.2347  1.4256
  822MOL0     H13386   1.793   7.567   8.307  1.1424 -2.0658 -0.3768
  822MOL0     H13387   1.798   7.454   8.445  0.6826 -1.1439 -2.4731
  822MOL0     H13388   2.021   7.647   8.364  2.2561 -0.5324  1.3096
  822MOL0     H13389   2.035   7.539   8.502 -0.0714  2.2413  0.3135
  822MOL0     H13390   2.073   7.344   8.360  1.8032 -1.3332 -2.9666
  822MOL0     H13391   2.004   7.437   8.226 -0.1797  1.2755 -1.1037
  822MOL0     H13392   2.238   7.428   8.195  0.3789  0.5084 -1.1344
  822MOL0     H13393   2.219   7.590   8.256 -0.0585  0.1616  3.1146
  822MOL0     H13394   2.303   7.298   8.584 -0.5390  0.0311 -0.8855
  822MOL0     H13395   2.376   7.022   8.651 -0.8958 -0.2496  0.0238
  822MOL0     H13396   2.422   7.166   8.742  3.3668 -0.2659 -0.1441
  822MOL0     H13397   2.549   7.089   8.686  0.2923  3.0299 -1.5691
  822MOL0     H13398   2.884   6.885   8.525 -0.1376 -4.6293  3.6100
  822MOL0     H13399   3.004   6.665   8.488  1.8417  2.4124  0.0414
  822MOL0     H13400   2.898   6.458   8.469  0.1261  0.3485  0.3038
  822MOL0     H13401   2.901   6.330   8.354  0.7225  0.5299 -0.2437
  822MOL0     H13402   3.163   6.363   8.337  0.9306 -0.0271 -0.1310
  822MOL0     H13403   3.151   6.480   8.465  0.7790  0.0717  0.5858
  822MOL0     H13404   3.120   6.186   8.479  1.2606 -0.6090  0.8393
  822MOL0     H13405   3.034   6.285   8.607  0.0915  0.5590  0.9497
  822MOL0     H13406   3.267   6.383   8.657  1.6767  0.2640 -2.8230
  822MOL0     H13407   3.326   6.287   8.530  0.2538  2.0441 -1.5914
  822MOL0     H13408   3.175   6.110   8.711 -0.8768  1.8560  1.5643
  822MOL0     H13409   3.353   6.115   8.671  1.7674  1.3949  0.6580
  822MOL0     H13410   3.193   6.271   8.878  0.7462 -2.4147  3.0701
  822MOL0     H13411   3.377   6.281   8.853  0.8725 -0.3330 -0.7946
  822MOL0     H13412   3.353   6.166   9.033 -1.9688 -2.9005  3.0703
  822MOL0     H13413   3.410   6.052   8.906 -0.1529 -0.0217 -2.3452
  822MOL0     H13414   3.255   5.930   9.043 -0.1722  0.8481  1.4964
  822MOL0     H13415   3.157   5.967   8.901 -1.5944 -1.2187  1.8158
  822MOL0     H13416   2.811   6.647   8.103  0.7231 -0.0910  0.2811
  822MOL0     H13417   2.706   6.865   8.138  0.4402  1.8611  1.6112
  822MOL0     H13418   2.596   7.187   8.207 -2.8593  1.8087 -2.3590
  822MOL0     H13419   2.462   7.391   8.196 -0.5202 -1.1211  0.4958
  822MOL0     H13420   1.301   8.521   9.515  0.7745  1.1946 -2.5900
  822MOL0     H13421   1.127   8.719   9.498 -0.6919 -0.1288  0.0588
  822MOL0     H13422   0.778   9.006   9.656  1.0496 -4.6714  0.2625
  822MOL0     H13423   0.573   9.130   9.678  2.6148  1.4510 -2.3582
  822MOL0     H13424   0.173   9.018   9.437 -1.4735 -1.0619 -0.5390
  822MOL0     H13425   0.181   8.910   9.584 -2.5472  0.6501 -0.5081
  822MOL0     H13426   0.091   9.190   9.567  1.4158  0.1569 -1.5460
  822MOL0     H13427   0.093   9.088   9.715  3.0841  3.5356  0.0586
  822MOL0     H13428  -0.025   8.979   9.473  1.0143  1.4455 -0.7745
  822MOL0     H13429  -0.034   8.925   9.643 -3.0945  1.5485  1.4611
  822MOL0     H13430  -0.142   9.196   9.601 -0.7537  0.9824  1.4242
  822MOL0     H13431  -0.164   9.068   9.731 -0.3916 -0.7511 -0.4341
  822MOL0     H13432  -0.472   8.948   9.486 -0.6647  0.0523 -0.1260
  822MOL0     H13433   0.373   8.858   9.417  1.9163 -0.8408 -1.9721
  822MOL0     H13434   0.642   8.749   9.242  0.7684  1.8098  1.2802
  822MOL0     H13435   0.642   8.638   9.394 -1.1336  0.4966  3.8320
  822MOL0     H13436   0.494   8.687   9.314 -0.1266  3.8618 -0.9317
  823MOL0     O13437   8.283   0.513  11.334  0.0064 -0.1881 -0.6177
  823MOL0     C13438   8.352   0.571  11.260 -0.3649 -0.7859 -0.4478
  823MOL0     O13439   8.467   0.638  11.291  0.3193 -0.3084 -0.2176
  823MOL0     C13440   8.480   0.672  11.418 -0.8408  0.3279 -0.7169
  823MOL0     C13441   8.416   0.777  11.476 -0.3531 -0.3055 -0.0469
  823MOL0     C13442   8.431   0.806  11.611 -0.8035 -0.4567 -0.6329
  823MOL0     C13443   8.497   0.714  11.694 -0.0706  0.1029 -0.2738
  823MOL0     O13444   8.503   0.733  11.824  0.0206 -0.0488 -0.2414
  823MOL0     C13445   8.380   0.728  11.890 -0.1912 -0.1303 -0.2816
  823MOL0     C13446   8.381   0.727  12.043 -0.4223  0.2518  0.5728
  823MOL0     C13447   8.451   0.594  12.106  0.9015 -1.1784 -0.4273
  823MOL0     C13448   8.430   0.586  12.259  0.2094  0.2462  0.8771
  823MOL0     C13449   8.495   0.461  12.334 -0.0860  0.2700  0.9942
  823MOL0     C13450   8.450   0.453  12.482  0.4698  0.3485 -0.4120
  823MOL0     C13451   8.483   0.314  12.546 -0.6620  0.5147  0.4242
  823MOL0     C13452   8.536   0.328  12.685 -0.1443  0.0721 -0.5453
  823MOL0     N13453   8.679   0.351  12.692  0.0968  0.4353 -0.0119
  823MOL0     C13454   8.728   0.477  12.659 -0.0389 -0.3009  0.3650
  823MOL0     C13455   8.865   0.467  12.676 -0.3788 -0.1736 -0.3747
  823MOL0     C13456   8.968   0.585  12.665  0.5574  0.1545 -0.3003
  823MOL0     C13457   9.026   0.592  12.515 -0.4159 -0.2199 -0.3615
  823MOL0     C13458   9.102   0.465  12.465  0.1755 -0.1837  0.2869
  823MOL0     C13459   9.091   0.455  12.314 -0.0554 -0.7941 -0.2311
  823MOL0     O13460   8.954   0.418  12.283  0.4607  0.0826 -0.0660
  823MOL0     C13461   8.935   0.376  12.149  1.3677 -0.4363 -0.0529
  823MOL0     C13462   8.823   0.304  12.132 -0.0246  0.5484 -0.0038
  823MOL0     C13463   8.775   0.280  12.005  0.2172  0.0536 -0.6087
  823MOL0     C13464   8.634   0.228  12.004  0.6544 -0.4670 -0.2162
  823MOL0     C13465   8.848   0.299  11.892 -0.9187 -0.7547  0.4723
  823MOL0     C13466   8.802   0.278  11.758 -0.8229 -0.7573  0.1669
  823MOL0     O13467   8.668   0.281  11.736 -0.0012 -0.5414  0.2372
  823MOL0     C13468   8.602   0.232  11.620 -0.0796 -0.1370 -0.2537
  823MOL0     C13469   8.649   0.214  11.487  0.8578  0.3205 -0.0253
  823MOL0     C13470   8.569   0.160  11.380  0.4406 -0.3870  0.3568
  823MOL0     C13471   8.431   0.135  11.402 -1.3204 -0.3813 -0.4993
  823MOL0     O13472   8.346   0.099  11.299 -0.4281  0.5551  0.9933
  823MOL0     C13473   8.211   0.126  11.305 -0.7681  0.3962 -0.4937
  823MOL0     C13474   8.125   0.082  11.193 -0.3647  0.3275  0.3757
  823MOL0     C13475   8.141   0.149  11.055  0.6158  0.5413  0.6091
  823MOL0     C13476   7.998   0.162  10.996 -0.3902  1.0136 -0.1429
  823MOL0     C13477   8.013   0.235  10.869 -0.3185  0.3364  0.2373
  823MOL0     C13478   7.876   0.265  10.808 -0.1661  0.6746 -0.0977
  823MOL0     C13479   7.891   0.370  10.681  0.2026  0.1714  0.8820
  823MOL0     C13480   7.913   0.302  10.550 -0.1391  0.1803  0.0745
  823MOL0    Cl13481   7.811   0.384  10.423  0.1868 -0.1501  0.1451
  823MOL0     C13482   8.383   0.157  11.539  0.1198 -0.9982  0.3493
  823MOL0     C13483   8.469   0.204  11.639  0.5533 -1.0189  0.4477
  823MOL0     O13484   8.887   0.281  11.667  0.9415  0.4852  0.0653
  823MOL0     C13485   8.978   0.349  11.914  0.6018  0.6974 -0.2511
  823MOL0     C13486   9.017   0.394  12.036  0.3661  0.6524 -0.2076
  823MOL0     N13487   8.890   0.340  12.734  0.3619 -0.0366  0.2763
  823MOL0     N13488   8.783   0.265  12.738  0.2983 -0.5769 -0.7148
  823MOL0     C13489   8.574   0.616  11.635  0.6411  0.4340 -1.2090
  823MOL0     C13490   8.563   0.591  11.498 -0.1047  0.2345  0.5712
  823MOL0     C13491   8.326   0.563  11.115  0.3384 -0.2699 -0.3818
  823MOL0     C13492   8.191   0.589  11.082  0.1402  1.1039  0.2336
  823MOL0     C13493   8.161   0.584  10.950  0.1123 -0.3501 -0.0200
  823MOL0     C13494   8.259   0.564  10.847 -0.2629 -0.8880  0.0178
  823MOL0     O13495   8.220   0.590  10.721 -0.2317  0.2074 -0.2944
  823MOL0     C13496   8.226   0.724  10.660 -0.6604 -0.3612 -1.0368
  823MOL0     C13497   8.089   0.761  10.593 -0.4293  0.0523  0.1908
  823MOL0     C13498   7.982   0.788  10.695 -0.9382  0.3808  0.4752
  823MOL0     C13499   7.850   0.853  10.635  0.3713 -0.9289  0.2371
  823MOL0     C13500   7.760   0.786  10.539 -0.3280  0.6549  0.5764
  823MOL0     C13501   7.682   0.736  10.460  1.0685  0.3639  0.6491
  823MOL0     C13502   8.391   0.544  10.875 -0.5520 -0.7675 -0.3030
  823MOL0     C13503   8.430   0.547  11.013 -0.2988  0.2321 -0.0750
  823MOL0     C13504   8.571   0.510  11.046 -0.1082 -0.3260  0.7811
  823MOL0     H13505   8.342   0.831  11.419  0.8575 -2.8216 -4.4231
  823MOL0     H13506   8.393   0.903  11.641  2.1383  0.0599  1.8562
  823MOL0     H13507   8.321   0.640  11.863 -3.4523  2.3469 -1.9154
  823MOL0     H13508   8.327   0.815  11.849 -0.7556 -0.2740  0.1211
  823MOL0     H13509   8.437   0.813  12.082  1.3312 -1.7654  2.7943
  823MOL0     H13510   8.277   0.732  12.073 -0.5294  1.0878  0.0861
  823MOL0     H13511   8.411   0.511  12.047  2.3945 -0.7408 -2.1363
  823MOL0     H13512   8.558   0.604  12.085  1.0119  0.3965  0.6826
  823MOL0     H13513   8.475   0.670  12.312 -0.0057 -0.2346  1.8616
  823MOL0     H13514   8.323   0.575  12.279  0.4379 -1.5960  1.2576
  823MOL0     H13515   8.601   0.485  12.327 -0.2078  0.9386  1.3749
  823MOL0     H13516   8.476   0.373  12.271 -0.9380  1.9795 -1.2744
  823MOL0     H13517   8.493   0.540  12.533  1.9014 -0.7764  0.3971
  823MOL0     H13518   8.342   0.464  12.493  0.5649 -0.2052  1.4502
  823MOL0     H13519   8.549   0.264  12.475 -1.4589  1.3799 -0.9546
  823MOL0     H13520   8.389   0.259  12.554 -0.4479 -0.2510 -1.7926
  823MOL0     H13521   8.482   0.403  12.744  0.8543 -0.6110  1.3151
  823MOL0     H13522   8.515   0.232  12.733  0.1837 -0.3226 -1.1731
  823MOL0     H13523   8.678   0.569  12.629 -0.4639 -0.3665  0.8758
  823MOL0     H13524   9.046   0.571  12.740 -0.5344 -1.8172  0.5447
  823MOL0     H13525   8.908   0.669  12.700  1.7275  0.8934 -0.0192
  823MOL0     H13526   8.951   0.640  12.452 -1.2052 -0.0559  0.6892
  823MOL0     H13527   9.114   0.657  12.527  0.6866 -1.7327  0.1193
  823MOL0     H13528   9.203   0.467  12.507  0.1876 -0.1171  0.2526
  823MOL0     H13529   9.048   0.376  12.500 -0.9636  0.8161  1.1832
  823MOL0     H13530   9.114   0.556  12.281 -0.6234 -0.2796  0.8916
  823MOL0     H13531   9.164   0.380  12.281  2.9264  2.1040 -0.7195
  823MOL0     H13532   8.748   0.292  12.210 -0.4616  2.4916 -0.0665
  823MOL0     H13533   8.607   0.192  12.104  1.3845  0.7869  0.4571
  823MOL0     H13534   8.607   0.157  11.926 -0.0746  2.6568 -3.0473
  823MOL0     H13535   8.579   0.319  11.978  1.7179  0.3586  0.3379
  823MOL0     H13536   8.755   0.231  11.466  1.5496 -1.2534  1.8253
  823MOL0     H13537   8.614   0.150  11.282  0.5491 -0.6767  0.4352
  823MOL0     H13538   8.176   0.068  11.391  0.7939 -0.7599 -0.6094
  823MOL0     H13539   8.193   0.228  11.342 -1.8332 -0.8752  2.8919
  823MOL0     H13540   8.122  -0.027  11.181 -1.4109  0.3953 -0.0619
  823MOL0     H13541   8.029   0.120  11.230 -0.1198  1.6493 -0.2779
  823MOL0     H13542   8.201   0.099  10.980 -1.3114  3.7867 -3.5355
  823MOL0     H13543   8.173   0.253  11.068 -0.7720  1.2157 -0.9324
  823MOL0     H13544   7.924   0.206  11.064 -0.8208  0.3133 -0.1480
  823MOL0     H13545   7.951   0.064  10.982  1.3072  0.1525 -0.1550
  823MOL0     H13546   8.059   0.333  10.882  0.1346 -0.0685  1.8787
  823MOL0     H13547   8.086   0.180  10.809 -1.0676  1.0167 -1.3448
  823MOL0     H13548   7.822   0.295  10.898  1.4785 -1.6926  1.8276
  823MOL0     H13549   7.824   0.175  10.773 -0.6998  0.9853 -0.1009
  823MOL0     H13550   7.971   0.443  10.697 -0.1481  0.2288  2.5478
  823MOL0     H13551   7.798   0.428  10.677 -0.2585 -0.2723  3.2751
  823MOL0     H13552   7.891   0.195  10.562  0.3165  0.1174  0.3309
  823MOL0     H13553   8.019   0.302  10.525 -0.6597  0.6412 -2.4858
  823MOL0     H13554   8.278   0.148  11.568  0.3313 -0.2842  1.4030
  823MOL0     H13555   8.428   0.234  11.735 -1.3923  3.6515 -1.5041
  823MOL0     H13556   9.043   0.358  11.828 -0.5754  0.8503 -1.1446
  823MOL0     H13557   9.119   0.425  12.051  1.2410 -2.2006  0.2760
  823MOL0     H13558   8.646   0.565  11.697  0.2401  1.0551 -0.1936
  823MOL0     H13559   8.611   0.508  11.447 -2.4431 -0.0551 -1.3293
  823MOL0     H13560   8.103   0.608  11.143 -0.7951  1.2341 -1.1126
  823MOL0     H13561   8.059   0.613  10.925  1.1456  3.3978 -0.4324
  823MOL0     H13562   8.246   0.799  10.737 -2.1785 -1.2501  0.3035
  823MOL0     H13563   8.309   0.730  10.589  2.9288  0.7958  2.8457
  823MOL0     H13564   8.071   0.679  10.522 -1.7652  0.2076  0.3306
  823MOL0     H13565   8.104   0.851  10.533 -3.2867  2.7574  3.1652
  823MOL0     H13566   7.960   0.691  10.739 -1.2879 -0.7637 -2.0733
  823MOL0     H13567   8.025   0.855  10.770  1.6280  0.4517 -0.9646
  823MOL0     H13568   7.886   0.939  10.578  0.5063 -1.4441 -0.4775
  823MOL0     H13569   7.792   0.882  10.723  3.5493  0.4635  2.0094
  823MOL0     H13570   7.618   0.701  10.382  3.7919 -0.5786 -1.3121
  823MOL0     H13571   8.462   0.536  10.793 -1.2052  0.7411 -1.0490
  823MOL0     H13572   8.623   0.599  11.084  2.1128 -0.9733 -0.5472
  823MOL0     H13573   8.572   0.428  11.119 -2.0206 -2.1022 -1.0543
  823MOL0     H13574   8.612   0.489  10.946 -4.2589  0.9241 -1.4220
  824MOL0     O13575   9.328   1.424   4.203 -0.6169 -0.3343  0.1758
  824MOL0     C13576   9.277   1.519   4.136 -0.7328 -0.3458 -0.2004
  824MOL0     O13577   9.315   1.538   4.010  1.3407  0.0534 -0.5683
  824MOL0     C13578   9.439   1.495   3.970 -0.0869 -0.1655  0.7918
  824MOL0     C13579   9.552   1.570   4.004 -0.0117 -0.8151  0.7710
  824MOL0     C13580   9.674   1.537   3.951  0.1766  0.2797  0.9581
  824MOL0     C13581   9.688   1.431   3.858  0.5207 -0.2816  0.2661
  824MOL0     O13582   9.805   1.402   3.790  0.7015  0.7262  0.0626
  824MOL0     C13583   9.881   1.517   3.752 -0.1421  0.9044  0.4088
  824MOL0     C13584   9.994   1.477   3.651 -0.0583 -0.1916  0.6336
  824MOL0     C13585  10.029   1.584   3.553 -0.0892 -0.7069 -0.6346
  824MOL0     C13586  10.161   1.555   3.484 -1.0126  0.0769  0.4465
  824MOL0     C13587  10.207   1.671   3.395  0.5587 -0.7238  2.3114
  824MOL0     C13588  10.335   1.620   3.304  0.5255 -0.0655 -0.2347
  824MOL0     C13589  10.467   1.603   3.379  0.0327  1.1594 -0.0369
  824MOL0     C13590  10.593   1.608   3.292  0.5357  0.4035 -0.4305
  824MOL0     N13591  10.608   1.732   3.221  0.3623  0.1124  0.0356
  824MOL0     C13592  10.560   1.752   3.093  0.1520 -0.3176  1.0603
  824MOL0     C13593  10.574   1.887   3.071  1.0373  0.3166 -0.7313
  824MOL0     C13594  10.517   1.960   2.944 -0.0566  0.6090  0.8542
  824MOL0     C13595  10.615   2.042   2.871 -0.3235 -0.4514 -0.1302
  824MOL0     C13596  10.681   2.155   2.954 -0.6507 -0.4117 -0.3105
  824MOL0     C13597  10.576   2.249   3.022 -0.8746 -0.7099  0.8946
  824MOL0     O13598  10.513   2.333   2.922 -0.0893  0.2681 -0.5611
  824MOL0     C13599  10.433   2.435   2.963 -0.4401 -0.1516  0.8342
  824MOL0     C13600  10.366   2.501   2.853  0.7485 -0.0716 -0.3753
  824MOL0     C13601  10.265   2.600   2.875 -0.7946 -0.2989  0.2009
  824MOL0     C13602  10.183   2.643   2.756 -0.1766 -0.1911  0.8073
  824MOL0     C13603  10.236   2.639   3.008  0.1180  1.0933  0.3275
  824MOL0     C13604  10.135   2.738   3.035  0.5967  0.2335 -1.0084
  824MOL0     O13605  10.062   2.724   3.151  0.1120 -0.1268  0.0395
  824MOL0     C13606   9.969   2.823   3.173 -0.6786  0.4363  0.1373
  824MOL0     C13607   9.837   2.806   3.147  0.4058 -0.6090 -0.5830
  824MOL0     C13608   9.753   2.915   3.168  0.1072  0.4018 -0.0066
  824MOL0     C13609   9.798   3.035   3.214  1.2499  0.4424 -0.1767
  824MOL0     O13610   9.706   3.134   3.244  0.4418 -0.4016  0.4123
  824MOL0     C13611   9.757   3.268   3.240  0.0490 -0.7777  1.1207
  824MOL0     C13612   9.656   3.355   3.150 -0.7843  0.1752  0.3451
  824MOL0     C13613   9.709   3.354   3.002  0.0109 -1.1165  0.4788
  824MOL0     C13614   9.596   3.399   2.901 -0.4885 -0.3780 -0.3526
  824MOL0     C13615   9.668   3.447   2.773 -0.0131  1.3391 -0.3347
  824MOL0     C13616   9.570   3.503   2.676 -0.5499 -0.7116  0.2194
  824MOL0     C13617   9.501   3.640   2.720 -0.0968 -0.1319  0.5582
  824MOL0     C13618   9.405   3.688   2.605 -1.0058  0.5167  0.2720
  824MOL0    Cl13619   9.469   3.670   2.430 -0.0449  0.0273  0.0082
  824MOL0     C13620   9.936   3.049   3.235 -0.4979 -0.5757 -0.9377
  824MOL0     C13621  10.024   2.941   3.221  0.0045  0.1357 -0.4523
  824MOL0     O13622  10.123   2.824   2.953 -0.0525  0.4767 -0.5105
  824MOL0     C13623  10.307   2.570   3.110  0.8420 -0.0461 -0.4635
  824MOL0     C13624  10.399   2.470   3.089  0.7462 -0.2498  0.2410
  824MOL0     N13625  10.613   1.946   3.196  0.2355 -0.2626  0.1554
  824MOL0     N13626  10.642   1.846   3.286  0.7674  1.2509  0.5291
  824MOL0     C13627   9.582   1.343   3.835 -1.0172  0.1399 -0.2975
  824MOL0     C13628   9.452   1.378   3.905  0.5812 -0.6132  0.6162
  824MOL0     C13629   9.163   1.603   4.186  0.3327  0.1683 -0.3059
  824MOL0     C13630   9.122   1.719   4.107 -0.6111  0.0063 -0.0905
  824MOL0     C13631   9.029   1.807   4.148  0.6087 -0.3825 -1.4562
  824MOL0     C13632   8.975   1.802   4.274 -0.8778  0.3434  0.0380
  824MOL0     O13633   8.889   1.899   4.319  1.2047  0.4422  0.0286
  824MOL0     C13634   8.871   1.927   4.463  0.0317  0.4982 -0.2552
  824MOL0     C13635   8.740   2.014   4.468  0.3151  0.4159 -0.7354
  824MOL0     C13636   8.711   2.058   4.609  0.8672  0.0974 -0.8418
  824MOL0     C13637   8.583   2.143   4.610  0.0379 -0.2361 -0.3828
  824MOL0     C13638   8.590   2.273   4.543  0.4660  0.3155  0.5383
  824MOL0     C13639   8.607   2.372   4.474 -0.1006  0.1582 -0.5923
  824MOL0     C13640   9.010   1.687   4.347  0.0316  1.5139 -0.4174
  824MOL0     C13641   9.098   1.587   4.304  0.7097  0.1547 -0.3081
  824MOL0     C13642   9.118   1.466   4.392  0.2039  0.6491 -0.3808
  824MOL0     H13643   9.542   1.665   4.056 -1.7038  0.3209 -1.4813
  824MOL0     H13644   9.758   1.603   3.972  1.0837 -1.1013  1.8412
  824MOL0     H13645   9.934   1.550   3.842  1.0269  1.8531 -0.6006
  824MOL0     H13646   9.822   1.599   3.711  0.0325  1.5664  1.4254
  824MOL0     H13647  10.084   1.461   3.710 -0.7895  3.5013  3.1020
  824MOL0     H13648   9.966   1.390   3.591  2.2698  0.6161 -1.8173
  824MOL0     H13649   9.949   1.605   3.482  2.0651 -2.1387 -3.6771
  824MOL0     H13650  10.045   1.672   3.617 -0.8223 -0.7234 -0.4147
  824MOL0     H13651  10.242   1.551   3.557 -1.1775 -0.2463  0.6166
  824MOL0     H13652  10.147   1.460   3.432  3.8322  0.3745 -1.9598
  824MOL0     H13653  10.238   1.756   3.456  1.5692  0.3729  0.3342
  824MOL0     H13654  10.121   1.701   3.335 -0.6029 -0.8319  3.8413
  824MOL0     H13655  10.303   1.537   3.240 -1.7301 -1.4505  2.4756
  824MOL0     H13656  10.346   1.691   3.222  2.7171  0.3456  0.3568
  824MOL0     H13657  10.467   1.508   3.433  3.3266  1.8415  1.4326
  824MOL0     H13658  10.466   1.685   3.452  0.6930 -0.2223  1.5890
  824MOL0     H13659  10.668   1.590   3.369 -1.2254 -1.9870  0.8632
  824MOL0     H13660  10.590   1.521   3.226 -0.8417 -0.3663  0.5927
  824MOL0     H13661  10.514   1.693   3.015  1.7642  0.7421 -0.7652
  824MOL0     H13662  10.425   2.013   2.970 -1.3360 -0.5877 -1.0127
  824MOL0     H13663  10.479   1.878   2.883 -3.3827  2.0369  0.8005
  824MOL0     H13664  10.696   1.980   2.830 -0.1224  1.2558 -2.5321
  824MOL0     H13665  10.563   2.083   2.784 -0.6177 -3.1899 -1.3674
  824MOL0     H13666  10.747   2.112   3.029  2.0154  3.5965 -0.0065
  824MOL0     H13667  10.738   2.223   2.889 -2.6051  0.3014 -1.3819
  824MOL0     H13668  10.497   2.200   3.080 -1.5734  0.2727  0.7964
  824MOL0     H13669  10.633   2.303   3.099  2.4326 -1.1243 -1.0763
  824MOL0     H13670  10.383   2.469   2.751 -0.2699  1.1007 -0.9441
  824MOL0     H13671  10.195   2.567   2.678 -1.0999  2.6914 -2.3919
  824MOL0     H13672  10.224   2.739   2.725  2.3155 -0.6405  2.4344
  824MOL0     H13673  10.078   2.659   2.782  0.8080  4.3400  2.9748
  824MOL0     H13674   9.792   2.719   3.100  0.2381 -2.2114  2.3222
  824MOL0     H13675   9.645   2.915   3.160  0.0491  0.9569  0.6412
  824MOL0     H13676   9.755   3.309   3.341  0.0628 -1.4480  1.4011
  824MOL0     H13677   9.852   3.288   3.188  0.1611  2.2239  2.3017
  824MOL0     H13678   9.554   3.316   3.147 -0.4570 -0.8085  1.4217
  824MOL0     H13679   9.633   3.457   3.181 -2.7570  0.6072 -2.2499
  824MOL0     H13680   9.734   3.251   2.973 -1.0961 -1.6196  1.2316
  824MOL0     H13681   9.794   3.422   2.991 -1.2065  0.3860  0.0167
  824MOL0     H13682   9.544   3.488   2.936 -1.0262 -0.9211  0.2439
  824MOL0     H13683   9.522   3.318   2.897  3.2685 -4.1864 -1.0508
  824MOL0     H13684   9.728   3.535   2.800 -0.1552  2.0087 -2.1081
  824MOL0     H13685   9.732   3.366   2.737 -2.1193 -1.8572  2.4451
  824MOL0     H13686   9.497   3.429   2.640 -0.3045 -0.8607  0.0211
  824MOL0     H13687   9.625   3.522   2.583 -1.8472  0.9496 -0.2574
  824MOL0     H13688   9.561   3.731   2.729 -2.8574  1.9128 -0.2403
  824MOL0     H13689   9.446   3.639   2.815  0.0833 -1.9556  0.6890
  824MOL0     H13690   9.392   3.795   2.623 -0.4970  0.8914 -1.4013
  824MOL0     H13691   9.305   3.643   2.607 -0.2402 -1.2964  0.6494
  824MOL0     H13692   9.972   3.133   3.294 -0.1568 -1.2451 -0.1732
  824MOL0     H13693  10.131   2.955   3.227  0.1034 -0.3071 -1.0648
  824MOL0     H13694  10.291   2.604   3.211  0.6545  1.2170 -0.9041
  824MOL0     H13695  10.446   2.426   3.176  0.3490  2.4660  1.9571
  824MOL0     H13696   9.585   1.279   3.747 -0.9649 -1.3288  0.7259
  824MOL0     H13697   9.359   1.324   3.892  0.9186 -1.6470  2.0986
  824MOL0     H13698   9.171   1.729   4.010 -0.5739 -1.7609 -0.2927
  824MOL0     H13699   9.010   1.898   4.093 -0.4805  1.8218  2.1912
  824MOL0     H13700   8.842   1.841   4.523 -0.5140  1.3636  0.7436
  824MOL0     H13701   8.962   1.973   4.503  0.0797  0.6253 -0.5017
  824MOL0     H13702   8.659   1.952   4.430  0.5828  0.8620 -2.1272
  824MOL0     H13703   8.741   2.102   4.402 -2.9949  2.8385  2.0597
  824MOL0     H13704   8.699   1.965   4.665 -4.0882 -1.1010 -3.3359
  824MOL0     H13705   8.786   2.127   4.648  0.6696 -0.1509  0.0003
  824MOL0     H13706   8.557   2.165   4.714  0.1394  0.7337 -0.5543
  824MOL0     H13707   8.510   2.084   4.553  0.5717 -0.8144 -0.4754
  824MOL0     H13708   8.616   2.465   4.421  0.0594  0.6426  0.2486
  824MOL0     H13709   8.957   1.677   4.441 -0.6352  3.9766 -0.4599
  824MOL0     H13710   9.155   1.375   4.343 -1.7008  0.5049 -1.6249
  824MOL0     H13711   9.189   1.487   4.473  0.0629 -1.6444  0.4292
  824MOL0     H13712   9.021   1.434   4.431  0.6571 -1.7926 -1.0962
  825MOL0     O13713   7.477  10.341   4.177  0.0701  0.1960  0.1617
  825MOL0     C13714   7.597  10.314   4.176 -0.0067 -0.1238  0.4175
  825MOL0     O13715   7.657  10.224   4.257 -0.5679 -1.0483 -0.3199
  825MOL0     C13716   7.585  10.128   4.319  0.3806  0.4113  0.5121
  825MOL0     C13717   7.604  10.110   4.456  0.6738  0.4507 -0.3419
  825MOL0     C13718   7.534  10.007   4.532  0.5182 -0.7846  0.2461
  825MOL0     C13719   7.434   9.929   4.456  0.1564  0.1709 -0.1339
  825MOL0     O13720   7.365   9.821   4.512 -0.6164 -0.1136 -0.1222
  825MOL0     C13721   7.433   9.757   4.622 -0.0900 -0.9031  0.3127
  825MOL0     C13722   7.359   9.630   4.641  0.1636 -0.0758  0.4108
  825MOL0     C13723   7.221   9.636   4.714 -0.4762  0.4316 -0.3487
  825MOL0     C13724   7.151   9.503   4.720 -0.1917  0.3327 -0.4227
  825MOL0     C13725   7.011   9.513   4.762 -0.1348  0.2551  0.2683
  825MOL0     C13726   6.941   9.370   4.742 -1.1798 -0.1881 -0.2725
  825MOL0     C13727   6.795   9.361   4.752 -0.2483  0.9836  0.1032
  825MOL0     C13728   6.760   9.220   4.821  0.5055 -1.3462  0.3241
  825MOL0     N13729   6.720   9.116   4.733  0.2695  0.2072 -0.2651
  825MOL0     C13730   6.636   9.130   4.618 -0.0210 -0.5383  0.4826
  825MOL0     C13731   6.640   9.016   4.553  0.7262 -0.2988 -0.1578
  825MOL0     C13732   6.561   8.979   4.430  0.0959 -1.1263 -0.9212
  825MOL0     C13733   6.421   9.049   4.442 -0.2315 -0.1406 -0.0271
  825MOL0     C13734   6.326   9.005   4.326  0.1886 -0.4843  0.1247
  825MOL0     C13735   6.194   9.086   4.308  0.0504 -0.7265 -1.6528
  825MOL0     O13736   6.132   9.061   4.181  0.2880  0.1675 -0.2116
  825MOL0     C13737   6.155   9.153   4.077 -0.0034 -0.5333 -0.0489
  825MOL0     C13738   6.246   9.265   4.078 -0.6218  0.2596 -1.1630
  825MOL0     C13739   6.229   9.376   3.994  0.5742 -1.4687 -0.3079
  825MOL0     C13740   6.335   9.481   3.997  0.2786  0.2210 -0.1640
  825MOL0     C13741   6.134   9.362   3.896  0.3017  0.1700  0.2861
  825MOL0     C13742   6.106   9.468   3.787  0.5680  0.3522 -0.2230
  825MOL0     O13743   6.019   9.435   3.689  0.0848 -0.2822  0.5160
  825MOL0     C13744   5.976   9.544   3.610 -0.0516 -0.0169  1.2910
  825MOL0     C13745   5.883   9.637   3.652  0.4201  0.5796 -0.5377
  825MOL0     C13746   5.856   9.756   3.583  0.4564  0.0668  0.3315
  825MOL0     C13747   5.925   9.777   3.464 -0.1159  0.0492  0.7561
  825MOL0     O13748   5.888   9.894   3.398  0.0405 -0.1920  0.1758
  825MOL0     C13749   5.972   9.958   3.294  0.1947 -0.2042  0.1819
  825MOL0     C13750   5.934  10.115   3.286 -0.3040  0.1870 -0.9970
  825MOL0     C13751   6.039  10.188   3.195  1.3966 -0.2017 -0.4149
  825MOL0     C13752   5.957  10.242   3.074  0.7447  0.1473 -0.3198
  825MOL0     C13753   6.043  10.301   2.961 -0.1602 -0.1114  0.7086
  825MOL0     C13754   6.132  10.411   3.018 -0.0641  0.7802  0.0413
  825MOL0     C13755   6.201  10.491   2.914  0.0731 -0.1524  0.3828
  825MOL0     C13756   6.143  10.636   2.902 -0.3372  0.5518  0.7688
  825MOL0    Cl13757   5.990  10.655   2.812 -0.3366 -0.0616 -0.6898
  825MOL0     C13758   6.018   9.679   3.411  0.4253  0.5299 -0.3332
  825MOL0     C13759   6.041   9.567   3.484  0.5437 -0.0416  0.2237
  825MOL0     O13760   6.152   9.575   3.804  0.0978  0.2780  0.8061
  825MOL0     C13761   6.049   9.247   3.890  0.3776  0.3768 -0.0019
  825MOL0     C13762   6.053   9.152   3.985 -0.4210 -0.8122  0.6676
  825MOL0     N13763   6.720   8.938   4.630 -0.8077  0.0685 -0.2947
  825MOL0     N13764   6.783   9.001   4.723  0.8372  0.1972  0.6615
  825MOL0     C13765   7.417   9.943   4.317 -0.4526 -0.1564 -0.3929
  825MOL0     C13766   7.490  10.045   4.253 -0.5608 -0.0949  0.2970
  825MOL0     C13767   7.677  10.389   4.090  0.5758  0.0343  0.7508
  825MOL0     C13768   7.764  10.487   4.142 -0.0264 -0.5699  0.2092
  825MOL0     C13769   7.846  10.573   4.055 -0.1439  0.5942 -0.8241
  825MOL0     C13770   7.818  10.580   3.925  0.0346  0.1393  0.5979
  825MOL0     O13771   7.881  10.650   3.819 -0.2060 -0.6443  0.3167
  825MOL0     C13772   7.975  10.744   3.859 -0.1277  0.4758 -0.2801
  825MOL0     C13773   8.123  10.684   3.840 -0.0132 -0.1984  0.6607
  825MOL0     C13774   8.154  10.566   3.928 -0.0548  0.4765  1.0381
  825MOL0     C13775   8.270  10.488   3.886  1.1563  1.0455  0.7614
  825MOL0     C13776   8.394  10.560   3.893  0.2054 -0.5518 -0.1575
  825MOL0     C13777   8.494  10.620   3.870 -0.3302  0.0718 -0.8119
  825MOL0     C13778   7.723  10.488   3.872 -0.5830 -0.1982  0.2676
  825MOL0     C13779   7.660  10.391   3.947 -0.0400  0.2289 -1.2366
  825MOL0     C13780   7.555  10.310   3.889 -0.4527  0.1978  0.4275
  825MOL0     H13781   7.684  10.159   4.510  0.5495  0.6185 -0.3083
  825MOL0     H13782   7.550   9.979   4.636 -1.4794 -1.4259  0.4244
  825MOL0     H13783   7.419   9.819   4.710 -1.0943  0.1473 -0.5414
  825MOL0     H13784   7.541   9.748   4.608 -0.2742  0.0071 -2.1341
  825MOL0     H13785   7.342   9.586   4.542 -4.0377  0.4908  0.6934
  825MOL0     H13786   7.416   9.558   4.700 -0.2975 -1.6984 -1.0281
  825MOL0     H13787   7.219   9.682   4.813 -2.3874  1.1166 -0.6800
  825MOL0     H13788   7.159   9.702   4.653 -0.1502  1.1238  0.0610
  825MOL0     H13789   7.153   9.463   4.618  1.5523 -0.1649 -0.2318
  825MOL0     H13790   7.203   9.437   4.790 -0.7087 -1.7161 -1.8838
  825MOL0     H13791   6.957   9.586   4.701 -2.1219 -2.7963 -1.9064
  825MOL0     H13792   7.010   9.532   4.870  2.3862 -3.6888  1.1922
  825MOL0     H13793   6.973   9.342   4.641  4.2221  3.0182  0.1535
  825MOL0     H13794   6.986   9.302   4.815 -0.6526  1.2955  0.8150
  825MOL0     H13795   6.747   9.368   4.654 -0.4781 -0.8541  0.0608
  825MOL0     H13796   6.754   9.443   4.812  0.4145  2.0071 -0.8109
  825MOL0     H13797   6.842   9.187   4.886  1.7085 -1.9834 -1.4287
  825MOL0     H13798   6.677   9.245   4.887  1.5820  0.4436  1.0818
  825MOL0     H13799   6.575   9.217   4.592  0.4290 -1.1739 -3.2374
  825MOL0     H13800   6.560   8.870   4.442  1.4483 -1.2076 -1.4158
  825MOL0     H13801   6.611   9.007   4.336 -0.2687  1.7203 -0.3460
  825MOL0     H13802   6.379   9.025   4.541 -0.7516  3.5762  0.7949
  825MOL0     H13803   6.433   9.157   4.438 -1.5459  0.1004  1.5772
  825MOL0     H13804   6.375   9.002   4.229 -1.2058  2.5958 -0.8089
  825MOL0     H13805   6.297   8.905   4.360 -2.9404  0.9178  2.0622
  825MOL0     H13806   6.129   9.072   4.395  1.4308  4.6984  0.7181
  825MOL0     H13807   6.230   9.189   4.322 -1.4640 -0.3768 -0.0011
  825MOL0     H13808   6.336   9.275   4.138 -0.4109 -0.7072 -1.3055
  825MOL0     H13809   6.417   9.466   4.068  1.2285 -2.5612 -1.6686
  825MOL0     H13810   6.297   9.581   4.020 -0.6816 -0.4805  1.4575
  825MOL0     H13811   6.393   9.477   3.905 -0.4037  2.7473 -0.7672
  825MOL0     H13812   5.833   9.620   3.747 -2.3038  1.5378 -1.7146
  825MOL0     H13813   5.777   9.821   3.617  1.1374 -0.6839  3.6925
  825MOL0     H13814   6.080   9.957   3.311  0.5946 -0.4375 -2.0583
  825MOL0     H13815   5.951   9.909   3.199  0.7324 -1.6426  0.7746
  825MOL0     H13816   5.835  10.128   3.241  0.1536  4.2922 -1.1700
  825MOL0     H13817   5.935  10.155   3.388  1.0966  0.0071 -0.9180
  825MOL0     H13818   6.122  10.120   3.171  0.4724 -0.7035 -2.4300
  825MOL0     H13819   6.074  10.269   3.259 -0.4041 -0.6339  1.1790
  825MOL0     H13820   5.889  10.318   3.113  0.3737 -0.6789  0.6644
  825MOL0     H13821   5.897  10.159   3.036 -3.3548  0.2978  4.6943
  825MOL0     H13822   6.114  10.229   2.919  0.7862  1.2495 -0.1100
  825MOL0     H13823   5.989  10.352   2.881  2.4987  2.6174  0.5030
  825MOL0     H13824   6.215  10.361   3.069  2.0821  1.2813 -2.7728
  825MOL0     H13825   6.082  10.472   3.094  0.7926  0.9249  0.4985
  825MOL0     H13826   6.198  10.451   2.812 -0.8827  3.0181 -0.9579
  825MOL0     H13827   6.305  10.501   2.944  0.4195  0.7125 -1.0020
  825MOL0     H13828   6.227  10.689   2.856  2.6589 -1.2481  3.7111
  825MOL0     H13829   6.132  10.681   3.001  0.0906 -0.5247  1.3286
  825MOL0     H13830   6.072   9.690   3.317  0.0714 -1.8151 -0.8567
  825MOL0     H13831   6.123   9.506   3.447 -1.7405 -1.5946 -2.5934
  825MOL0     H13832   5.966   9.238   3.821  0.1865 -2.2240  0.4478
  825MOL0     H13833   5.990   9.066   4.005 -0.2145 -1.0878  0.1377
  825MOL0     H13834   7.350   9.877   4.263  0.1425  2.2184 -4.5156
  825MOL0     H13835   7.469  10.054   4.147 -0.9717  1.6852  0.4857
  825MOL0     H13836   7.790  10.494   4.247  1.3142  0.1013 -0.1337
  825MOL0     H13837   7.925  10.636   4.095 -1.2754  0.7639  1.2812
  825MOL0     H13838   7.955  10.823   3.786  0.4866 -0.1314 -1.1264
  825MOL0     H13839   7.947  10.787   3.955  1.2380 -0.7480  0.7009
  825MOL0     H13840   8.200  10.760   3.859  0.3756  0.0182 -1.5016
  825MOL0     H13841   8.130  10.662   3.733 -2.9366 -1.2047  0.5813
  825MOL0     H13842   8.155  10.611   4.027 -0.4522  1.7222  0.5021
  825MOL0     H13843   8.073  10.493   3.926  1.6728 -1.5181  0.7800
  825MOL0     H13844   8.252  10.446   3.787  0.6148  0.0889  1.2555
  825MOL0     H13845   8.269  10.409   3.961  2.8924  2.0476  1.8978
  825MOL0     H13846   8.576  10.667   3.819  0.3875 -0.1847  0.0673
  825MOL0     H13847   7.706  10.485   3.765 -0.9858 -2.0914  0.3433
  825MOL0     H13848   7.571  10.204   3.907  0.6667  0.1255 -0.8087
  825MOL0     H13849   7.458  10.333   3.933 -1.5142  0.1106 -1.7333
  825MOL0     H13850   7.559  10.318   3.780  1.8261  0.0582  0.4368
  826MOL0     O13851   1.825   8.619  10.635  0.0179  0.3930 -0.1558
  826MOL0     C13852   1.861   8.525  10.705  0.1112  1.0826 -0.6298
  826MOL0     O13853   1.867   8.533  10.839 -0.0161  0.6844 -0.4335
  826MOL0     C13854   1.854   8.657  10.895 -0.8321  0.9963 -0.7463
  826MOL0     C13855   1.764   8.660  11.002 -0.1670  0.4296 -0.5772
  826MOL0     C13856   1.733   8.783  11.066  0.3410  0.0038  0.4615
  826MOL0     C13857   1.795   8.904  11.026 -0.7355 -0.1149 -0.8618
  826MOL0     O13858   1.762   9.035  11.068 -0.4747  0.9087 -0.4082
  826MOL0     C13859   1.643   9.052  11.144  0.8096  0.2750 -0.3741
  826MOL0     C13860   1.637   9.195  11.206  0.8877  0.9190 -0.1662
  826MOL0     C13861   1.753   9.212  11.302  0.1469 -0.6164 -0.0339
  826MOL0     C13862   1.749   9.327  11.397  0.6321 -0.2303 -0.3868
  826MOL0     C13863   1.685   9.313  11.540 -0.7639  0.1914 -0.6068
  826MOL0     C13864   1.791   9.251  11.632  0.7124  0.3481  0.9637
  826MOL0     C13865   1.725   9.213  11.757 -0.5574 -0.0478  0.9699
  826MOL0     C13866   1.820   9.203  11.869 -0.0892 -0.4340  0.5395
  826MOL0     N13867   1.906   9.318  11.896  0.0856  0.2436 -0.4118
  826MOL0     C13868   1.870   9.414  11.995 -0.1338 -0.0969  0.0579
  826MOL0     C13869   1.969   9.504  11.984  0.2273  0.0999 -0.3170
  826MOL0     C13870   1.985   9.627  12.062  0.8392  0.1455 -0.0716
  826MOL0     C13871   1.889   9.735  12.021 -1.6512 -0.2365  0.2301
  826MOL0     C13872   1.941   9.804  11.899  0.0788  0.5518  0.6636
  826MOL0     C13873   1.835   9.907  11.850 -0.2918  0.9101  0.7488
  826MOL0     O13874   1.754   9.843  11.752  0.1614 -0.2725  0.1641
  826MOL0     C13875   1.631   9.896  11.726 -0.0948  0.6484  0.8538
  826MOL0     C13876   1.531   9.813  11.773  1.4700  0.6544  0.1199
  826MOL0     C13877   1.396   9.846  11.755  0.9288  0.8108 -0.2632
  826MOL0     C13878   1.302   9.745  11.799 -0.3870  0.4144 -0.1160
  826MOL0     C13879   1.363   9.980  11.708  0.3228 -0.4607 -0.2853
  826MOL0     C13880   1.215  10.031  11.693 -0.2712 -0.1924 -0.2152
  826MOL0     O13881   1.221  10.156  11.643  0.3040 -0.2991  1.2150
  826MOL0     C13882   1.105  10.224  11.616  1.4788  0.5705  0.0752
  826MOL0     C13883   1.089  10.306  11.507 -0.3242 -0.0768 -0.2049
  826MOL0     C13884   0.981  10.390  11.490  0.5940  0.3469  1.3290
  826MOL0     C13885   0.873  10.384  11.575  0.4868 -0.1824  0.8163
  826MOL0     O13886   0.762  10.456  11.537 -0.0933  0.1694 -0.0602
  826MOL0     C13887   0.647  10.455  11.622  0.3380  0.0573 -0.0721
  826MOL0     C13888   0.525  10.518  11.554 -0.3621  0.6147 -0.1910
  826MOL0     C13889   0.537  10.656  11.509 -0.3165 -0.0966  0.3526
  826MOL0     C13890   0.578  10.755  11.609 -0.2054 -0.0673 -0.0929
  826MOL0     C13891   0.689  10.861  11.565 -0.1626  1.0233 -0.2894
  826MOL0     C13892   0.836  10.812  11.535  0.4465 -0.0654 -0.5937
  826MOL0     C13893   0.925  10.906  11.458  0.6409 -0.2184  0.5634
  826MOL0     C13894   0.880  10.926  11.304 -0.9942  0.4933 -0.7585
  826MOL0    Cl13895   0.938  10.783  11.209  0.2850  0.1557 -0.0543
  826MOL0     C13896   0.882  10.298  11.681 -0.4715 -0.2412 -0.4640
  826MOL0     C13897   0.997  10.221  11.701  0.3368 -0.4607 -1.0089
  826MOL0     O13898   1.120   9.959  11.709  0.0115 -0.6594 -0.1136
  826MOL0     C13899   1.477  10.059  11.666 -0.3323 -0.0119  0.4038
  826MOL0     C13900   1.613  10.017  11.671  0.6234  0.0163  0.4764
  826MOL0     N13901   2.062   9.460  11.892  0.2056  0.3755 -0.0140
  826MOL0     N13902   2.028   9.348  11.853  0.6293  0.4685  0.4643
  826MOL0     C13903   1.894   8.899  10.927  0.1196 -0.0301  0.6200
  826MOL0     C13904   1.904   8.783  10.855 -0.4534 -0.0707  0.3627
  826MOL0     C13905   1.902   8.398  10.632  0.7200 -0.1262  0.2582
  826MOL0     C13906   1.885   8.387  10.495  0.9381  0.3740 -0.2184
  826MOL0     C13907   1.928   8.275  10.427 -0.0348  0.3545  0.2562
  826MOL0     C13908   2.006   8.172  10.489  0.6988  1.0397 -0.4309
  826MOL0     O13909   2.047   8.055  10.423 -0.6459  0.5017 -0.4893
  826MOL0     C13910   2.008   8.035  10.293  0.7932 -0.4343 -0.8717
  826MOL0     C13911   2.074   7.909  10.252 -0.6706  0.2803 -0.2901
  826MOL0     C13912   2.231   7.925  10.231  0.4457  0.4650  0.0362
  826MOL0     C13913   2.286   7.772  10.222  0.3740 -0.0352 -0.4802
  826MOL0     C13914   2.420   7.771  10.174 -0.5654  0.2368  0.5776
  826MOL0     C13915   2.529   7.753  10.127 -0.5765 -0.2133  0.6368
  826MOL0     C13916   2.023   8.182  10.621 -0.1261  0.1235 -0.4760
  826MOL0     C13917   1.973   8.289  10.695 -0.1001 -0.2537 -0.7747
  826MOL0     C13918   1.995   8.277  10.849 -1.5982  0.0908  0.1139
  826MOL0     H13919   1.720   8.565  11.032  4.2855 -1.5268  0.4611
  826MOL0     H13920   1.658   8.787  11.144 -0.0877  1.0416  0.0266
  826MOL0     H13921   1.639   8.985  11.230  1.8506  1.1420  0.3766
  826MOL0     H13922   1.559   9.018  11.083  2.2855 -0.5265 -2.0310
  826MOL0     H13923   1.638   9.273  11.130 -0.7775  2.7315  1.5633
  826MOL0     H13924   1.536   9.205  11.245  0.1162  2.6003 -2.3995
  826MOL0     H13925   1.776   9.123  11.360 -1.0601 -1.7803 -1.2513
  826MOL0     H13926   1.841   9.225  11.239  0.2899 -1.7060 -0.0847
  826MOL0     H13927   1.851   9.364  11.413  0.2775 -0.2085  2.1158
  826MOL0     H13928   1.690   9.405  11.349 -2.4660 -1.8984  0.4430
  826MOL0     H13929   1.593   9.254  11.548 -0.3356 -0.1940  3.4277
  826MOL0     H13930   1.661   9.413  11.575 -1.1183 -0.8807  2.5166
  826MOL0     H13931   1.827   9.157  11.589  0.6640  0.0757  1.5035
  826MOL0     H13932   1.880   9.313  11.646  1.1004  0.2100 -0.7263
  826MOL0     H13933   1.678   9.115  11.748  2.4571 -1.4151 -2.0090
  826MOL0     H13934   1.646   9.282  11.786  0.1844  2.0001 -1.5675
  826MOL0     H13935   1.769   9.172  11.960  1.1989 -2.2631  0.6936
  826MOL0     H13936   1.893   9.128  11.837  0.2902 -0.5202  1.5617
  826MOL0     H13937   1.777   9.410  12.049 -0.8908 -0.4245 -1.2301
  826MOL0     H13938   2.089   9.658  12.049  1.3959 -1.8543 -0.6572
  826MOL0     H13939   1.965   9.615  12.169 -1.0106 -1.2532 -0.5218
  826MOL0     H13940   1.787   9.697  12.012 -1.5221 -0.2277 -1.6729
  826MOL0     H13941   1.886   9.807  12.104  2.2122  0.4641 -0.0593
  826MOL0     H13942   2.035   9.856  11.919  3.3322 -4.7686  1.1083
  826MOL0     H13943   1.962   9.732  11.820 -1.2249 -0.0317  0.8113
  826MOL0     H13944   1.779   9.939  11.938 -1.2925 -1.1809  0.9564
  826MOL0     H13945   1.889   9.994  11.813 -3.0331  2.5329  0.2647
  826MOL0     H13946   1.553   9.710  11.799 -0.7969 -0.2173 -1.1412
  826MOL0     H13947   1.242   9.717  11.711 -0.5769  2.1880 -0.5987
  826MOL0     H13948   1.232   9.779  11.876  0.2360  1.0833  0.1627
  826MOL0     H13949   1.361   9.658  11.828 -0.5926  0.8504  1.6992
  826MOL0     H13950   1.181  10.314  11.450  0.2113 -1.6220  0.4029
  826MOL0     H13951   0.965  10.443  11.396 -3.3049 -0.8198  1.1522
  826MOL0     H13952   0.615  10.353  11.644 -0.1525  0.2175 -0.0317
  826MOL0     H13953   0.667  10.506  11.717 -2.5360 -1.2247  1.3199
  826MOL0     H13954   0.503  10.458  11.465  0.4367  2.1626 -1.4782
  826MOL0     H13955   0.438  10.519  11.620 -1.1459 -0.4501 -1.1644
  826MOL0     H13956   0.438  10.683  11.471 -0.8628  1.4009  2.6549
  826MOL0     H13957   0.609  10.649  11.426 -1.5448 -1.9332 -0.6375
  826MOL0     H13958   0.617  10.701  11.695 -1.9129 -0.9896  0.1617
  826MOL0     H13959   0.488  10.811  11.635 -1.1428 -0.4319 -2.2701
  826MOL0     H13960   0.633  10.903  11.481  0.0298  0.5289 -0.6721
  826MOL0     H13961   0.680  10.948  11.631  1.5150 -0.3173  1.8367
  826MOL0     H13962   0.845  10.721  11.475 -0.8247  1.4186 -3.2042
  826MOL0     H13963   0.889  10.788  11.627 -0.8475  0.1214  0.2366
  826MOL0     H13964   1.026  10.865  11.459 -0.2119 -2.5061 -0.6569
  826MOL0     H13965   0.914  11.006  11.501  1.3648 -1.0332  2.8091
  826MOL0     H13966   0.943  11.006  11.263  1.6856 -0.8054  0.5370
  826MOL0     H13967   0.773  10.946  11.291 -1.7608 -2.1435  0.7374
  826MOL0     H13968   0.813  10.290  11.764  1.9051 -0.2917  1.6159
  826MOL0     H13969   0.990  10.153  11.786 -2.0067 -1.5216 -1.9422
  826MOL0     H13970   1.461  10.159  11.627 -1.8531  0.1114  1.2851
  826MOL0     H13971   1.699  10.070  11.632 -0.1727  0.2379 -1.0694
  826MOL0     H13972   1.945   8.990  10.897 -1.5188  0.5603 -0.6136
  826MOL0     H13973   1.973   8.798  10.772 -0.7988  0.4829  0.1667
  826MOL0     H13974   1.861   8.474  10.435 -1.6685  1.9084  2.7463
  826MOL0     H13975   1.889   8.266  10.327 -0.2119  0.2783  0.3315
  826MOL0     H13976   1.899   8.027  10.286  0.7609  0.8818 -3.0722
  826MOL0     H13977   2.039   8.118  10.228  1.6478 -0.6819 -0.7879
  826MOL0     H13978   2.031   7.882  10.155 -0.1778  0.5429 -0.5874
  826MOL0     H13979   2.059   7.829  10.325  0.8013  1.3997  1.2949
  826MOL0     H13980   2.252   7.982  10.140 -0.1319  0.3260 -0.1929
  826MOL0     H13981   2.276   7.964  10.323  0.5878 -0.2208  0.2592
  826MOL0     H13982   2.218   7.708  10.166 -1.1930 -0.5845  1.8798
  826MOL0     H13983   2.288   7.733  10.324  2.0767  1.2743  0.0344
  826MOL0     H13984   2.623   7.735  10.078 -1.4475  0.4104 -1.3874
  826MOL0     H13985   2.082   8.103  10.664  0.8997  0.8144 -0.5719
  826MOL0     H13986   1.894   8.267  10.891 -2.0904  1.8090 -0.5567
  826MOL0     H13987   2.067   8.198  10.874  0.8893  2.1028 -0.3245
  826MOL0     H13988   2.035   8.371  10.888 -2.9863  0.1406  1.4973
  827MOL0     O13989   7.030  10.883  11.359 -0.0869  1.0045  0.3854
  827MOL0     C13990   6.910  10.849  11.351 -0.0561 -0.2962  0.5972
  827MOL0     O13991   6.865  10.722  11.299 -0.3229 -0.0081 -0.2938
  827MOL0     C13992   6.959  10.623  11.284  0.6398 -0.0948 -1.4430
  827MOL0     C13993   7.017  10.568  11.397  0.2193  0.4086  0.5075
  827MOL0     C13994   7.084  10.446  11.387  0.2611  0.7049 -0.3959
  827MOL0     C13995   7.127  10.399  11.257  0.4430  0.0813  0.0498
  827MOL0     O13996   7.209  10.294  11.217 -0.6805  0.1793 -0.9015
  827MOL0     C13997   7.257  10.200  11.320 -0.2730  0.2506 -0.5799
  827MOL0     C13998   7.333  10.090  11.229 -0.1748 -1.3061 -0.4545
  827MOL0     C13999   7.443  10.025  11.299 -0.5191 -0.6648  0.4068
  827MOL0     C14000   7.503   9.914  11.239  0.0559  0.6746 -0.3674
  827MOL0     C14001   7.630   9.869  11.318 -0.1068 -0.3224  0.2864
  827MOL0     C14002   7.681   9.727  11.293 -0.0703  0.5215 -0.1390
  827MOL0     C14003   7.732   9.722  11.149  0.3601 -0.4331 -0.4885
  827MOL0     C14004   7.718   9.570  11.099 -0.8452 -0.4229  0.3287
  827MOL0     N14005   7.621   9.563  10.987  0.0219 -1.2995  0.2649
  827MOL0     C14006   7.654   9.585  10.858 -0.5493 -0.2478 -1.0212
  827MOL0     C14007   7.537   9.568  10.797  0.3422  0.0062 -0.0846
  827MOL0     C14008   7.524   9.573  10.646 -0.7266  0.1602 -0.6458
  827MOL0     C14009   7.584   9.462  10.561 -0.6638  0.2186 -0.3987
  827MOL0     C14010   7.517   9.341  10.604 -0.1741 -0.0574  0.3544
  827MOL0     C14011   7.592   9.216  10.543 -0.4591  0.9196  0.7373
  827MOL0     O14012   7.544   9.193  10.410  0.2838  0.3253  0.6881
  827MOL0     C14013   7.596   9.080  10.344 -0.1547  0.2102 -0.6200
  827MOL0     C14014   7.682   8.991  10.407  0.1089  0.7225 -0.0078
  827MOL0     C14015   7.729   8.877  10.334  1.0505 -0.0102 -0.4521
  827MOL0     C14016   7.838   8.800  10.413 -0.2201  0.5323  0.2689
  827MOL0     C14017   7.679   8.846  10.210 -0.1965 -0.0286  0.5623
  827MOL0     C14018   7.706   8.723  10.131 -0.4554 -0.2850 -0.0462
  827MOL0     O14019   7.681   8.726   9.992 -0.0604  0.0345 -0.1450
  827MOL0     C14020   7.702   8.607   9.918 -0.2939 -0.4276 -0.6427
  827MOL0     C14021   7.592   8.549   9.857  0.7625  0.4749 -0.2968
  827MOL0     C14022   7.613   8.424   9.800 -0.0628  1.1785  0.0075
  827MOL0     C14023   7.735   8.368   9.785  0.5169 -0.0112  0.3351
  827MOL0     O14024   7.738   8.261   9.686 -1.1012  0.2996  0.9148
  827MOL0     C14025   7.806   8.141   9.725 -0.1561  1.1499 -0.1255
  827MOL0     C14026   7.852   8.052   9.606  1.1184 -0.6019 -0.2805
  827MOL0     C14027   7.946   8.116   9.500  0.2293 -0.2772  0.6150
  827MOL0     C14028   7.986   8.026   9.382  1.1943 -0.4891 -0.1710
  827MOL0     C14029   8.077   8.113   9.296 -0.2601 -0.3305 -0.5258
  827MOL0     C14030   8.157   8.021   9.195 -0.4468  0.2545 -0.7030
  827MOL0     C14031   8.211   8.116   9.096 -0.2567  1.1302  0.3804
  827MOL0     C14032   8.277   8.045   8.980  0.7271  1.0667  0.7058
  827MOL0    Cl14033   8.427   7.942   9.025 -0.2031 -0.0246 -0.3680
  827MOL0     C14034   7.851   8.429   9.832  0.8331  0.9309  0.3457
  827MOL0     C14035   7.827   8.546   9.901  0.7736  0.5164 -0.4356
  827MOL0     O14036   7.751   8.627  10.195 -0.2362  0.2363  0.1553
  827MOL0     C14037   7.597   8.939  10.145  0.6507 -0.2036  0.7965
  827MOL0     C14038   7.560   9.059  10.206  1.1242 -0.5009 -0.8583
  827MOL0     N14039   7.432   9.553  10.876 -0.2550 -0.0109 -0.1459
  827MOL0     N14040   7.486   9.546  10.992 -0.4287 -0.5867 -0.4869
  827MOL0     C14041   7.070  10.462  11.146  0.8972  0.1488 -0.2338
  827MOL0     C14042   6.976  10.573  11.151 -0.1184  0.5016  0.5460
  827MOL0     C14043   6.805  10.948  11.397 -0.4920  0.2609  0.6812
  827MOL0     C14044   6.692  10.901  11.457  0.0346  0.6182 -0.0113
  827MOL0     C14045   6.598  10.979  11.516  0.2031  1.1825  0.5193
  827MOL0     C14046   6.614  11.117  11.510 -0.2779  1.0435 -0.0149
  827MOL0     O14047   6.519  11.195  11.555  0.6324  0.5281 -0.3795
  827MOL0     C14048   6.422  11.138  11.653 -1.1729 -0.0316 -1.1423
  827MOL0     C14049   6.343  11.261  11.716 -0.8175  0.7346 -0.3734
  827MOL0     C14050   6.247  11.240  11.831  0.6546 -0.1060  0.4964
  827MOL0     C14051   6.129  11.149  11.817  0.7431 -0.2989 -0.3504
  827MOL0     C14052   6.011  11.225  11.786 -0.0170 -0.6336  0.4564
  827MOL0     C14053   5.932  11.310  11.755 -0.3628 -0.5206  0.0220
  827MOL0     C14054   6.729  11.169  11.448 -0.1487  1.1312  0.6823
  827MOL0     C14055   6.831  11.089  11.390  0.4616  0.0137  0.2557
  827MOL0     C14056   6.957  11.159  11.339  0.0603  0.7199 -0.3852
  827MOL0     H14057   7.003  10.617  11.493  1.7446 -0.5399  1.2474
  827MOL0     H14058   7.129  10.400  11.474 -0.3793 -1.0002 -0.9272
  827MOL0     H14059   7.174  10.151  11.370  2.3571 -3.7746  0.2952
  827MOL0     H14060   7.335  10.240  11.386  0.7145 -2.0176 -0.2633
  827MOL0     H14061   7.256  10.014  11.216  0.6458 -2.4610  1.1144
  827MOL0     H14062   7.353  10.128  11.128 -1.5776 -0.8555 -0.5940
  827MOL0     H14063   7.528  10.092  11.316  0.1730 -1.3032 -0.4560
  827MOL0     H14064   7.409  10.007  11.401 -1.2956  1.3916  0.5546
  827MOL0     H14065   7.429   9.834  11.240  0.5862  0.1305 -1.6576
  827MOL0     H14066   7.516   9.942  11.134 -0.1112 -1.7789 -1.0991
  827MOL0     H14067   7.595   9.864  11.421 -1.9199 -0.1222 -0.2790
  827MOL0     H14068   7.716   9.937  11.322  2.0653 -2.9456  3.7888
  827MOL0     H14069   7.762   9.714  11.366 -0.1005  1.5395  0.0877
  827MOL0     H14070   7.601   9.654  11.309  0.0533  0.5573  0.7157
  827MOL0     H14071   7.840   9.736  11.157  0.2772 -0.7941  2.2660
  827MOL0     H14072   7.697   9.800  11.081  2.1874 -0.4371 -1.4990
  827MOL0     H14073   7.811   9.528  11.060 -2.1989 -0.6764 -3.0232
  827MOL0     H14074   7.689   9.507  11.183 -0.5246 -0.1266  0.6662
  827MOL0     H14075   7.752   9.604  10.814  0.0571 -1.8211 -0.4180
  827MOL0     H14076   7.575   9.667  10.622 -0.0447  0.5443  1.9492
  827MOL0     H14077   7.419   9.570  10.615 -0.3816 -2.2536 -1.7345
  827MOL0     H14078   7.583   9.463  10.452  2.4021 -2.9217 -0.6389
  827MOL0     H14079   7.688   9.465  10.597  0.2578  1.0811 -2.9208
  827MOL0     H14080   7.498   9.335  10.711 -0.1592  0.4521  0.3856
  827MOL0     H14081   7.420   9.340  10.553  0.8692 -0.1781 -1.7294
  827MOL0     H14082   7.700   9.233  10.546 -0.4754  0.8809  1.9996
  827MOL0     H14083   7.583   9.126  10.604  1.9145 -1.5454 -2.2741
  827MOL0     H14084   7.720   8.991  10.509  1.3201 -0.3404 -0.4270
  827MOL0     H14085   7.921   8.770  10.348  1.5689 -0.9105  3.0106
  827MOL0     H14086   7.794   8.713  10.464  0.1437 -0.3489 -0.8692
  827MOL0     H14087   7.889   8.859  10.489 -1.2153 -2.7174  3.8030
  827MOL0     H14088   7.499   8.603   9.870  0.6242 -0.3447  2.8021
  827MOL0     H14089   7.530   8.361   9.770  2.0279 -1.5967 -0.3118
  827MOL0     H14090   7.880   8.173   9.798 -1.1075  0.4390  1.2086
  827MOL0     H14091   7.732   8.087   9.785 -0.8638  0.8849 -1.2031
  827MOL0     H14092   7.904   7.965   9.647 -0.3749 -0.5745  1.7947
  827MOL0     H14093   7.769   8.010   9.548  0.1352  0.7433  0.1070
  827MOL0     H14094   8.041   8.146   9.545 -0.7762  1.6732  1.5962
  827MOL0     H14095   7.903   8.204   9.451  1.9445  0.2452 -0.0125
  827MOL0     H14096   7.892   7.993   9.336 -2.3509  1.9637  4.4307
  827MOL0     H14097   8.028   7.928   9.407 -2.3263 -1.2528  3.7502
  827MOL0     H14098   8.009   8.184   9.247  0.6924  0.7576 -0.3186
  827MOL0     H14099   8.141   8.166   9.366  0.7023 -0.6402 -1.1520
  827MOL0     H14100   8.091   7.942   9.158  2.3795 -2.1530 -0.9366
  827MOL0     H14101   8.231   7.958   9.245  0.2456  0.9049 -0.8954
  827MOL0     H14102   8.298   8.172   9.130 -1.0150  3.5178 -1.3065
  827MOL0     H14103   8.139   8.187   9.054  0.9606  2.1749 -0.0078
  827MOL0     H14104   8.303   8.121   8.906 -1.1724  0.4738 -0.6608
  827MOL0     H14105   8.211   7.977   8.926  3.1135  0.9252 -2.3109
  827MOL0     H14106   7.952   8.391   9.829  0.3110 -0.4638 -0.0205
  827MOL0     H14107   7.909   8.585   9.960  1.8803 -2.0303 -0.1833
  827MOL0     H14108   7.565   8.922  10.043  1.3090  1.7850  0.2166
  827MOL0     H14109   7.489   9.131  10.166  0.4330 -1.3018 -1.1029
  827MOL0     H14110   7.104  10.440  11.045 -0.8089  2.7787 -1.5054
  827MOL0     H14111   6.921  10.622  11.071 -1.0887  2.7402  2.4868
  827MOL0     H14112   6.682  10.794  11.470 -0.1647  0.4443 -1.4219
  827MOL0     H14113   6.512  10.931  11.561  1.1980 -0.3984  0.8256
  827MOL0     H14114   6.339  11.076  11.619 -2.0255 -1.8572  3.5835
  827MOL0     H14115   6.482  11.079  11.722 -1.7760 -2.9333 -2.9230
  827MOL0     H14116   6.288  11.305  11.633  2.4828  2.1870 -1.9715
  827MOL0     H14117   6.417  11.338  11.739 -0.1907  1.1323 -3.2875
  827MOL0     H14118   6.305  11.205  11.917 -2.2262  1.6865  3.3869
  827MOL0     H14119   6.211  11.340  11.857  0.1058 -0.2440  0.2769
  827MOL0     H14120   6.106  11.091  11.907  1.8702  1.5495  1.2040
  827MOL0     H14121   6.139  11.081  11.731 -1.1749 -1.0557 -0.0310
  827MOL0     H14122   5.855  11.377  11.721 -0.7548 -2.4463 -3.3951
  827MOL0     H14123   6.730  11.278  11.448  0.9962  1.1440  1.6184
  827MOL0     H14124   6.943  11.265  11.316 -1.9681  1.3881  3.0666
  827MOL0     H14125   7.039  11.156  11.411 -0.3469  2.6550  0.2252
  827MOL0     H14126   6.994  11.115  11.247 -0.3947  0.8487 -0.6353
  828MOL0     O14127   1.942   3.974   0.660  0.6591 -0.5658  0.3805
  828MOL0     C14128   1.831   3.963   0.598 -0.4430 -0.7368 -0.6564
  828MOL0     O14129   1.733   4.066   0.599 -0.6394  0.8294  0.4791
  828MOL0     C14130   1.753   4.178   0.675  0.0536 -0.7477 -1.4454
  828MOL0     C14131   1.777   4.154   0.819 -0.4775 -0.1399  1.2250
  828MOL0     C14132   1.835   4.257   0.898 -0.6215 -0.0730 -0.7885
  828MOL0     C14133   1.839   4.387   0.846  0.4019 -0.2141  0.1448
  828MOL0     O14134   1.884   4.494   0.918  0.2775  0.3915  0.4124
  828MOL0     C14135   1.850   4.505   1.052  0.8551 -0.0015 -1.2435
  828MOL0     C14136   1.960   4.581   1.122  0.5875  0.0274 -0.3593
  828MOL0     C14137   2.083   4.488   1.154 -0.6070  0.1842  0.2560
  828MOL0     C14138   2.200   4.581   1.127 -0.6379  0.9153 -0.3864
  828MOL0     C14139   2.210   4.685   1.243  0.4515  0.0077  0.1124
  828MOL0     C14140   2.329   4.773   1.214 -0.6960 -0.1065  1.0751
  828MOL0     C14141   2.310   4.859   1.089  0.6870 -0.3613 -0.6417
  828MOL0     C14142   2.185   4.955   1.092  0.6634 -0.3046  0.8256
  828MOL0     N14143   2.200   5.069   1.175 -0.5859  0.7778  0.9872
  828MOL0     C14144   2.187   5.071   1.314  0.3988  0.2294  0.5600
  828MOL0     C14145   2.197   5.198   1.353 -0.3075 -0.0408 -0.5960
  828MOL0     C14146   2.208   5.239   1.496  0.2830  0.2145 -0.9054
  828MOL0     C14147   2.345   5.210   1.565 -0.4647 -0.3704  0.0399
  828MOL0     C14148   2.457   5.304   1.510  0.2048  0.3671  0.1816
  828MOL0     C14149   2.596   5.297   1.579  0.1607  0.7174  0.2275
  828MOL0     O14150   2.658   5.169   1.552 -0.4363  0.3296 -0.4579
  828MOL0     C14151   2.794   5.193   1.507  0.2613  0.7897  0.3106
  828MOL0     C14152   2.889   5.114   1.575 -0.7264  0.0480 -0.4632
  828MOL0     C14153   3.029   5.113   1.532 -0.7132 -0.3901 -0.4146
  828MOL0     C14154   3.120   5.021   1.615 -0.4733 -0.0688 -0.6891
  828MOL0     C14155   3.070   5.197   1.423  0.1931  1.1305 -0.1480
  828MOL0     C14156   3.221   5.215   1.378 -0.4894  0.1633 -0.2558
  828MOL0     O14157   3.320   5.139   1.442 -0.8138 -0.3081  0.8850
  828MOL0     C14158   3.452   5.132   1.412 -0.1809 -0.2133 -0.3857
  828MOL0     C14159   3.526   5.240   1.358  0.0520  1.1166 -0.1423
  828MOL0     C14160   3.665   5.224   1.338 -0.4306  0.0003 -0.1722
  828MOL0     C14161   3.723   5.102   1.361 -0.8973 -0.6868 -0.0600
  828MOL0     O14162   3.850   5.066   1.323 -0.1147  0.5435  0.2163
  828MOL0     C14163   3.961   5.088   1.420  0.4854  0.8821  0.6047
  828MOL0     C14164   4.005   5.234   1.424  1.3057  0.1347  0.0863
  828MOL0     C14165   4.143   5.257   1.484  0.0045  0.6380 -0.7727
  828MOL0     C14166   4.181   5.163   1.601 -0.5475  1.0916 -0.6901
  828MOL0     C14167   4.299   5.209   1.680  0.5477 -0.1424 -0.7845
  828MOL0     C14168   4.433   5.203   1.605 -1.0682  0.1438 -0.6597
  828MOL0     C14169   4.560   5.220   1.685  0.0740 -0.3244 -0.0937
  828MOL0     C14170   4.693   5.255   1.602 -0.4755 -0.2858 -0.5037
  828MOL0    Cl14171   4.763   5.104   1.527  0.5245 -0.3870  0.2285
  828MOL0     C14172   3.647   4.992   1.422 -0.1872 -0.2135  0.1435
  828MOL0     C14173   3.520   5.017   1.452  0.8966 -0.1861 -0.2132
  828MOL0     O14174   3.236   5.274   1.270  0.5471  0.0859 -0.2167
  828MOL0     C14175   2.959   5.255   1.348  0.4437 -0.7077  0.8803
  828MOL0     C14176   2.828   5.259   1.384  0.3509  0.4927 -0.4175
  828MOL0     N14177   2.220   5.276   1.241  0.9138  0.1790 -0.8558
  828MOL0     N14178   2.220   5.199   1.134 -0.6631 -0.1951  0.1515
  828MOL0     C14179   1.807   4.413   0.713  0.8382  0.1945  0.0929
  828MOL0     C14180   1.763   4.313   0.626  0.4379  0.0462 -0.1757
  828MOL0     C14181   1.800   3.856   0.507  0.0348  0.3882  0.9506
  828MOL0     C14182   1.713   3.872   0.391  0.1054  0.1377 -1.4499
  828MOL0     C14183   1.704   3.772   0.296  1.8920  0.1382 -0.7768
  828MOL0     C14184   1.783   3.659   0.297  0.3244 -1.0519  0.2807
  828MOL0     O14185   1.788   3.575   0.191  0.6081  0.1358 -0.0290
  828MOL0     C14186   1.784   3.636   0.062  0.2118 -0.4412 -0.8564
  828MOL0     C14187   1.855   3.555  -0.045  1.2258  0.6960 -0.0305
  828MOL0     C14188   2.001   3.551  -0.029  0.0077 -0.5742 -0.7692
  828MOL0     C14189   2.077   3.481  -0.144  0.1812  0.4244 -0.9423
  828MOL0     C14190   2.222   3.481  -0.120  0.1812  1.0207  0.7097
  828MOL0     C14191   2.337   3.487  -0.094  0.3586 -0.1967  0.6916
  828MOL0     C14192   1.876   3.635   0.399  0.8632 -1.2188 -0.1957
  828MOL0     C14193   1.886   3.732   0.500  0.0926 -0.6175  0.3263
  828MOL0     C14194   1.994   3.697   0.612  0.4271  0.0075  0.3770
  828MOL0     H14195   1.756   4.052   0.849 -2.9397 -1.1920 -3.1907
  828MOL0     H14196   1.869   4.219   0.995  0.2766 -4.0365 -2.4624
  828MOL0     H14197   1.834   4.408   1.100  1.1417  1.1484  1.3621
  828MOL0     H14198   1.764   4.572   1.063  1.7215  1.1433 -1.3108
  828MOL0     H14199   1.990   4.655   1.047  1.9115 -2.5802 -2.5903
  828MOL0     H14200   1.927   4.634   1.211 -1.5433  1.0457 -1.6643
  828MOL0     H14201   2.081   4.458   1.260 -6.1630  2.0792  1.0066
  828MOL0     H14202   2.071   4.401   1.089  0.5315 -0.5457  0.9813
  828MOL0     H14203   2.294   4.524   1.135 -0.4391  0.8521 -2.5461
  828MOL0     H14204   2.197   4.629   1.028 -1.2010 -0.1191 -0.8916
  828MOL0     H14205   2.224   4.638   1.341  1.8500 -1.7858 -0.8716
  828MOL0     H14206   2.113   4.735   1.251  1.0856  1.0748  1.4906
  828MOL0     H14207   2.359   4.836   1.298  1.4559  1.5615 -0.8298
  828MOL0     H14208   2.407   4.698   1.198 -1.3301 -0.1796 -2.6882
  828MOL0     H14209   2.307   4.802   0.995 -4.2587 -0.7435 -0.5357
  828MOL0     H14210   2.394   4.928   1.082 -0.2697  0.6827 -3.3402
  828MOL0     H14211   2.152   4.982   0.991 -0.2669  3.1489  1.8836
  828MOL0     H14212   2.097   4.904   1.133  0.3165  1.0738  1.8892
  828MOL0     H14213   2.177   4.981   1.374  0.1369  0.3889  0.7612
  828MOL0     H14214   2.124   5.198   1.553  0.9855  0.7406  0.5641
  828MOL0     H14215   2.200   5.347   1.488 -2.0323  0.0371 -1.7298
  828MOL0     H14216   2.340   5.232   1.672 -2.9473  0.4675 -0.2064
  828MOL0     H14217   2.385   5.109   1.551  0.0669 -0.5218  2.2778
  828MOL0     H14218   2.479   5.274   1.407  1.2542  1.8943 -0.0742
  828MOL0     H14219   2.424   5.408   1.505  1.4690  0.7311 -2.5836
  828MOL0     H14220   2.651   5.391   1.564 -1.7088  2.2847  2.5419
  828MOL0     H14221   2.589   5.293   1.688  4.0038 -1.1734  0.5927
  828MOL0     H14222   2.852   5.041   1.647  1.8891 -1.1311 -0.1905
  828MOL0     H14223   3.056   4.972   1.689 -2.9403 -0.6857 -3.0703
  828MOL0     H14224   3.204   5.077   1.659 -0.4215 -0.3749 -0.4017
  828MOL0     H14225   3.160   4.941   1.552  2.3661  0.0334  0.8046
  828MOL0     H14226   3.474   5.333   1.337 -0.7754  0.4266 -1.3023
  828MOL0     H14227   3.717   5.302   1.284 -3.7795  2.7650  0.2386
  828MOL0     H14228   3.924   5.041   1.512  3.1076 -3.1271 -0.1759
  828MOL0     H14229   4.044   5.020   1.399  0.2041  0.5578  0.5440
  828MOL0     H14230   4.018   5.277   1.324  1.1539 -1.1723 -0.5163
  828MOL0     H14231   3.938   5.301   1.479 -1.2070 -1.4746 -0.8463
  828MOL0     H14232   4.144   5.361   1.518 -1.1901  0.9106 -1.4870
  828MOL0     H14233   4.223   5.253   1.410  2.6214 -2.1612  1.9151
  828MOL0     H14234   4.184   5.059   1.567 -2.7519  1.5100 -2.3431
  828MOL0     H14235   4.100   5.179   1.672 -0.9295  1.4487 -1.2031
  828MOL0     H14236   4.297   5.315   1.707  0.4786 -0.5729  1.0331
  828MOL0     H14237   4.297   5.158   1.777  2.6195 -1.1741 -1.2259
  828MOL0     H14238   4.427   5.274   1.521 -1.6609 -0.7399 -1.3799
  828MOL0     H14239   4.436   5.100   1.570 -1.3928  0.1462 -0.7048
  828MOL0     H14240   4.586   5.131   1.743  2.2785 -0.7027 -1.5154
  828MOL0     H14241   4.542   5.304   1.753  0.0303  0.0665 -0.5832
  828MOL0     H14242   4.768   5.293   1.672  1.8472 -3.6884 -0.9006
  828MOL0     H14243   4.681   5.338   1.531  0.5471  1.4888  1.3068
  828MOL0     H14244   3.693   4.895   1.433  0.4995  0.0318 -0.5235
  828MOL0     H14245   3.478   4.928   1.497  1.8632  0.2857  1.7095
  828MOL0     H14246   2.990   5.301   1.255 -0.1167 -4.6516 -1.4806
  828MOL0     H14247   2.753   5.311   1.326 -0.2984  1.1622  0.9895
  828MOL0     H14248   1.827   4.513   0.677 -0.4597  1.5457  2.8271
  828MOL0     H14249   1.745   4.328   0.520 -0.8476 -2.5346 -0.4239
  828MOL0     H14250   1.665   3.970   0.388 -1.4014 -0.5008  0.3055
  828MOL0     H14251   1.628   3.796   0.222  0.3674  1.2857  1.0397
  828MOL0     H14252   1.680   3.657   0.038  0.6495  1.3166 -1.3533
  828MOL0     H14253   1.830   3.735   0.069 -2.2468  0.6710  1.4994
  828MOL0     H14254   1.830   3.602  -0.141  0.0398 -3.0618 -1.7469
  828MOL0     H14255   1.816   3.454  -0.061 -0.6963  1.1287  1.5849
  828MOL0     H14256   2.033   3.655  -0.019  1.8377 -1.3069  3.0094
  828MOL0     H14257   2.028   3.501   0.065  0.8478  1.8588  0.3776
  828MOL0     H14258   2.062   3.507  -0.250 -1.8166 -1.9373 -1.3475
  828MOL0     H14259   2.045   3.377  -0.145 -0.6470  0.5845  1.8835
  828MOL0     H14260   2.437   3.474  -0.057  0.8804  0.9264 -0.2688
  828MOL0     H14261   1.950   3.558   0.385  2.1516  0.5129 -4.9891
  828MOL0     H14262   2.019   3.592   0.595 -0.1746  0.2304 -2.3522
  828MOL0     H14263   2.080   3.764   0.605  2.4114 -2.4080  0.3300
  828MOL0     H14264   1.945   3.712   0.708 -1.2635  2.4869 -0.7616
  829MOL0     O14265   3.495   3.867   3.169 -0.1588  0.8382  0.0605
  829MOL0     C14266   3.432   3.959   3.197  0.2218 -0.9292 -0.0900
  829MOL0     O14267   3.318   3.966   3.268  1.2872  0.8701  0.0667
  829MOL0     C14268   3.235   3.858   3.295 -0.1776 -0.5694 -0.0201
  829MOL0     C14269   3.117   3.873   3.374 -0.2708  0.2772 -1.0952
  829MOL0     C14270   3.036   3.761   3.401 -0.0616 -0.3199  0.1673
  829MOL0     C14271   3.070   3.642   3.353  0.1308 -0.1366 -0.8547
  829MOL0     O14272   2.977   3.540   3.376  0.1340  0.5063 -0.1584
  829MOL0     C14273   2.973   3.444   3.269 -0.6400  0.0128  0.3001
  829MOL0     C14274   2.835   3.402   3.215 -0.7179  0.5856 -0.1780
  829MOL0     C14275   2.757   3.324   3.327  0.7465  0.4322 -0.0560
  829MOL0     C14276   2.699   3.424   3.432  0.6726  0.3634  0.1216
  829MOL0     C14277   2.558   3.367   3.489 -0.6574  0.6241  0.2383
  829MOL0     C14278   2.525   3.444   3.611 -1.1631 -0.9065  0.3708
  829MOL0     C14279   2.389   3.412   3.662 -0.3524 -0.4180  0.1457
  829MOL0     C14280   2.363   3.266   3.712  0.1100 -0.4885  0.4840
  829MOL0     N14281   2.437   3.239   3.840 -0.8636 -0.8800 -0.3273
  829MOL0     C14282   2.527   3.142   3.871  0.7981  0.0973 -0.5787
  829MOL0     C14283   2.556   3.150   4.009  0.0245  0.3487  0.0835
  829MOL0     C14284   2.653   3.066   4.098  0.2769  0.2026 -0.7659
  829MOL0     C14285   2.571   2.959   4.166 -0.2326 -0.1187 -0.2875
  829MOL0     C14286   2.693   2.869   4.226  0.9826 -0.3377 -0.1313
  829MOL0     C14287   2.632   2.749   4.280 -0.6447  1.4936 -0.7859
  829MOL0     O14288   2.741   2.656   4.310 -0.4331  0.2661  0.2679
  829MOL0     C14289   2.715   2.554   4.399 -0.5236 -0.3346 -0.3601
  829MOL0     C14290   2.811   2.449   4.402  0.2671  0.1819 -0.8600
  829MOL0     C14291   2.785   2.333   4.468  0.5121  0.3132  0.6154
  829MOL0     C14292   2.896   2.230   4.465 -0.3003 -0.3707  0.2394
  829MOL0     C14293   2.660   2.324   4.533 -0.1934  0.5811  0.3653
  829MOL0     C14294   2.617   2.184   4.589 -0.5710  0.0001  0.5156
  829MOL0     O14295   2.489   2.186   4.648  0.1041  0.7258  0.0768
  829MOL0     C14296   2.449   2.072   4.709  0.3785 -0.2334  0.1044
  829MOL0     C14297   2.329   2.010   4.665 -0.2875  0.0588  0.2247
  829MOL0     C14298   2.278   1.887   4.713 -0.3619  0.0545 -0.3658
  829MOL0     C14299   2.363   1.822   4.819  0.2841 -0.0555 -0.5789
  829MOL0     O14300   2.331   1.703   4.878  1.2926  0.0470  0.1012
  829MOL0     C14301   2.428   1.603   4.867  1.2697 -0.1391  0.9666
  829MOL0     C14302   2.466   1.550   5.007  0.1306  0.2689 -0.6998
  829MOL0     C14303   2.554   1.634   5.095  0.1623 -0.6108 -0.3616
  829MOL0     C14304   2.607   1.571   5.227  0.0143 -0.0138  1.0000
  829MOL0     C14305   2.515   1.586   5.344  0.7863  0.4707 -0.3814
  829MOL0     C14306   2.396   1.498   5.332 -0.0520  0.4450 -0.2039
  829MOL0     C14307   2.331   1.484   5.471 -0.2214 -0.8199 -0.4463
  829MOL0     C14308   2.392   1.381   5.570  0.5707 -0.5419 -0.3651
  829MOL0    Cl14309   2.359   1.425   5.743  0.9433 -0.6949 -0.3939
  829MOL0     C14310   2.479   1.889   4.859 -0.0399  0.4910  0.3758
  829MOL0     C14311   2.519   2.005   4.804 -1.5079  0.6946 -0.4125
  829MOL0     O14312   2.696   2.085   4.578 -0.5527 -0.3016  0.2384
  829MOL0     C14313   2.568   2.435   4.539 -0.3552  0.3848  0.5369
  829MOL0     C14314   2.603   2.552   4.478  0.4249  0.2718 -0.2373
  829MOL0     N14315   2.485   3.263   4.056 -0.5101  0.0539  1.0643
  829MOL0     N14316   2.419   3.319   3.955 -0.0500  0.0080  0.3094
  829MOL0     C14317   3.181   3.625   3.267 -1.1150 -0.3535  0.6780
  829MOL0     C14318   3.263   3.732   3.239 -0.0539 -0.1040  0.4205
  829MOL0     C14319   3.470   4.097   3.152 -0.9145  1.0652  0.9657
  829MOL0     C14320   3.399   4.209   3.191 -0.5300  0.3146  0.6483
  829MOL0     C14321   3.434   4.343   3.152 -0.2129  0.1369  0.2470
  829MOL0     C14322   3.532   4.367   3.069 -0.5123  0.4350  1.0250
  829MOL0     O14323   3.557   4.494   3.016 -0.3479  0.5021  0.3248
  829MOL0     C14324   3.587   4.599   3.117  0.6282  0.7780 -0.1760
  829MOL0     C14325   3.666   4.715   3.066 -0.6192 -0.1162  0.4372
  829MOL0     C14326   3.596   4.823   2.983 -0.1710 -0.8685 -0.0711
  829MOL0     C14327   3.563   4.783   2.836 -0.0490  0.5060 -0.4161
  829MOL0     C14328   3.524   4.906   2.757 -0.7935 -0.2444  0.4800
  829MOL0     C14329   3.508   4.995   2.684 -0.1960 -0.2732  0.3384
  829MOL0     C14330   3.603   4.261   3.016  0.4877  0.8892  0.2192
  829MOL0     C14331   3.580   4.127   3.062  0.1402  0.8818 -0.8344
  829MOL0     C14332   3.675   4.024   3.009  0.2179 -0.1088  0.3893
  829MOL0     H14333   3.100   3.972   3.414  2.1636  0.6637 -0.9136
  829MOL0     H14334   2.948   3.770   3.463 -0.9891 -0.3704 -1.0993
  829MOL0     H14335   3.040   3.361   3.291 -1.5723 -0.5524  1.0814
  829MOL0     H14336   3.013   3.491   3.179  2.3160 -0.4019  1.3116
  829MOL0     H14337   2.788   3.496   3.184  2.3802  2.6427  0.8510
  829MOL0     H14338   2.848   3.341   3.125  2.2019 -1.6260  1.5249
  829MOL0     H14339   2.675   3.275   3.274 -0.9479  1.9080  1.0505
  829MOL0     H14340   2.813   3.242   3.373 -0.0212  1.0861  2.1796
  829MOL0     H14341   2.764   3.435   3.519  2.2518 -0.0612 -0.9773
  829MOL0     H14342   2.673   3.523   3.394 -1.1672 -0.7739 -1.8575
  829MOL0     H14343   2.578   3.265   3.521  1.6660  0.2960 -1.9122
  829MOL0     H14344   2.477   3.369   3.416 -0.8509  0.4397  0.4488
  829MOL0     H14345   2.598   3.426   3.690 -0.5759  0.2317  0.1113
  829MOL0     H14346   2.518   3.548   3.577 -1.6235 -1.3746 -1.0612
  829MOL0     H14347   2.327   3.421   3.572 -0.3056  0.6740  0.2089
  829MOL0     H14348   2.356   3.487   3.735  0.2578 -0.9616  0.9996
  829MOL0     H14349   2.257   3.243   3.728  0.5964 -0.8039  4.0855
  829MOL0     H14350   2.405   3.196   3.640  2.0739 -0.3592  1.4396
  829MOL0     H14351   2.569   3.066   3.806  2.4269  0.7660 -0.3544
  829MOL0     H14352   2.695   3.130   4.177 -0.2087  0.2829 -0.5730
  829MOL0     H14353   2.728   3.009   4.041  0.9426 -1.8977  1.9720
  829MOL0     H14354   2.505   3.004   4.241 -0.2218 -1.5496  0.6325
  829MOL0     H14355   2.520   2.899   4.090 -0.4492 -0.2576 -0.0350
  829MOL0     H14356   2.756   2.833   4.144  2.1516  2.1133 -0.3917
  829MOL0     H14357   2.755   2.921   4.300  0.7347 -1.0082  0.5599
  829MOL0     H14358   2.567   2.775   4.364 -2.3554 -1.7727 -0.9387
  829MOL0     H14359   2.561   2.695   4.215  1.1826 -0.3874 -1.3297
  829MOL0     H14360   2.899   2.466   4.342 -1.6120 -1.4733 -4.3775
  829MOL0     H14361   2.874   2.138   4.411  0.6300  0.3248 -1.4003
  829MOL0     H14362   2.947   2.216   4.560 -0.8506 -2.0643  0.3115
  829MOL0     H14363   2.982   2.276   4.416 -1.8933 -0.5266 -3.0028
  829MOL0     H14364   2.264   2.073   4.606 -2.0071 -0.3027  1.6461
  829MOL0     H14365   2.188   1.849   4.668 -2.0583  1.4574  1.6107
  829MOL0     H14366   2.393   1.517   4.809  2.4569 -0.7672  1.1316
  829MOL0     H14367   2.511   1.640   4.806 -1.9488  0.7656 -3.3322
  829MOL0     H14368   2.376   1.523   5.063  2.4488 -2.2993  2.1514
  829MOL0     H14369   2.526   1.461   4.988 -1.8929 -1.4914  0.7549
  829MOL0     H14370   2.499   1.722   5.129 -1.3178 -2.1246  1.3918
  829MOL0     H14371   2.633   1.666   5.026  0.0644  0.5997  0.0805
  829MOL0     H14372   2.697   1.631   5.242 -0.3815  0.8158  0.1405
  829MOL0     H14373   2.633   1.466   5.207 -0.8473  0.1982 -1.6378
  829MOL0     H14374   2.574   1.549   5.428  0.3305  2.0246  0.6888
  829MOL0     H14375   2.497   1.692   5.365  1.7749  0.2150  2.1121
  829MOL0     H14376   2.421   1.401   5.290  1.0353  0.9646 -0.8179
  829MOL0     H14377   2.320   1.528   5.259  2.2433  1.7213 -2.2315
  829MOL0     H14378   2.227   1.451   5.461  0.5697 -3.6034 -0.2825
  829MOL0     H14379   2.331   1.579   5.525  2.4821 -1.5045  0.9298
  829MOL0     H14380   2.501   1.380   5.571  0.6611  2.0198 -0.8005
  829MOL0     H14381   2.358   1.281   5.542  2.0852 -0.6191 -2.1600
  829MOL0     H14382   2.549   1.849   4.932  2.6752  2.0569 -1.2082
  829MOL0     H14383   2.605   2.053   4.850 -2.3579  1.3445  0.5532
  829MOL0     H14384   2.481   2.434   4.605 -1.4274  0.0542 -0.8300
  829MOL0     H14385   2.525   2.626   4.480 -0.7993 -0.8356  4.3154
  829MOL0     H14386   3.217   3.533   3.223  0.5069 -1.4525  4.0031
  829MOL0     H14387   3.357   3.701   3.196 -0.9480  0.2808 -1.9483
  829MOL0     H14388   3.310   4.206   3.254 -1.2052 -1.7148 -0.3093
  829MOL0     H14389   3.375   4.432   3.168 -0.2316  1.4168 -4.9788
  829MOL0     H14390   3.486   4.628   3.149  0.8143  2.1211 -0.7320
  829MOL0     H14391   3.629   4.549   3.205  0.0083  0.1423 -0.2350
  829MOL0     H14392   3.749   4.674   3.009 -1.7690 -0.7797 -0.8315
  829MOL0     H14393   3.710   4.767   3.152 -0.4729 -0.6112  0.6656
  829MOL0     H14394   3.498   4.854   3.021 -0.4870 -1.3369 -0.4861
  829MOL0     H14395   3.665   4.908   2.987  1.2449 -1.5336 -4.5884
  829MOL0     H14396   3.479   4.713   2.833 -1.1256  1.7671 -0.3961
  829MOL0     H14397   3.651   4.738   2.789 -0.2747 -0.7254  0.2706
  829MOL0     H14398   3.477   5.065   2.610 -3.0130  0.9341  2.4932
  829MOL0     H14399   3.667   4.268   2.929 -0.7296  1.9547 -0.6292
  829MOL0     H14400   3.674   3.930   3.064  0.6386 -0.6160 -0.4529
  829MOL0     H14401   3.650   3.994   2.907 -2.2330 -1.2825  1.2520
  829MOL0     H14402   3.778   4.054   2.985  0.0288  0.4760  0.2866
  830MOL0     O14403   0.337   2.273   4.441  0.4063  0.8170  0.1479
  830MOL0     C14404   0.302   2.227   4.554 -0.4973 -0.2770 -0.6808
  830MOL0     O14405   0.311   2.305   4.670  1.5602  0.4801 -0.9864
  830MOL0     C14406   0.321   2.444   4.671 -0.4251  0.2738  0.6952
  830MOL0     C14407   0.244   2.513   4.761 -0.6393  0.2675 -0.4807
  830MOL0     C14408   0.248   2.653   4.757 -0.4149  0.4620 -0.5496
  830MOL0     C14409   0.323   2.731   4.674  0.0281  0.0279 -0.6777
  830MOL0     O14410   0.318   2.869   4.702 -0.5322  0.0389  0.3252
  830MOL0     C14411   0.284   2.933   4.578 -0.4837  0.2791 -0.0168
  830MOL0     C14412   0.175   3.037   4.604 -0.4711  0.5285 -1.1830
  830MOL0     C14413   0.139   3.112   4.476  0.2171 -0.7892  0.0112
  830MOL0     C14414   0.024   3.213   4.489  0.5557 -0.7518  0.7949
  830MOL0     C14415   0.029   3.296   4.363 -0.0713  0.9176 -0.3233
  830MOL0     C14416  -0.079   3.414   4.350  0.1743  1.0431 -0.0713
  830MOL0     C14417  -0.094   3.446   4.195 -0.8711 -0.3525  0.6524
  830MOL0     C14418  -0.188   3.566   4.183 -0.1402 -1.4910 -0.0031
  830MOL0     N14419  -0.139   3.665   4.086  0.7734  0.8105  0.1292
  830MOL0     C14420  -0.112   3.634   3.950 -0.6075  0.5871 -0.7685
  830MOL0     C14421  -0.086   3.759   3.901 -0.1013 -0.4801  0.5082
  830MOL0     C14422  -0.031   3.803   3.769 -0.3638 -0.3164 -0.2178
  830MOL0     C14423   0.092   3.899   3.778 -0.0244  0.1346  0.4932
  830MOL0     C14424   0.175   3.899   3.648  0.1011  0.5160 -0.1294
  830MOL0     C14425   0.113   3.953   3.512  0.4505  0.4362  0.5672
  830MOL0     O14426   0.055   4.073   3.556  0.0697  0.0047 -0.0950
  830MOL0     C14427  -0.060   4.130   3.519 -0.4565  1.7167  1.5294
  830MOL0     C14428  -0.115   4.103   3.391  0.0353  0.0106 -0.0351
  830MOL0     C14429  -0.240   4.149   3.345 -0.0639 -0.2604 -0.5226
  830MOL0     C14430  -0.295   4.108   3.212 -0.1792  0.1858 -0.1118
  830MOL0     C14431  -0.311   4.232   3.440 -0.1594 -0.0220 -0.1559
  830MOL0     C14432  -0.443   4.292   3.425  0.3708  0.0005  0.3925
  830MOL0     O14433  -0.467   4.402   3.497  0.2986 -0.1027  0.4978
  830MOL0     C14434  -0.592   4.463   3.488 -0.0512  0.6331 -0.2268
  830MOL0     C14435  -0.665   4.508   3.376 -0.1299  0.2630  0.1080
  830MOL0     C14436  -0.789   4.580   3.397 -0.1168  0.4288  0.3886
  830MOL0     C14437  -0.837   4.617   3.522 -0.6585 -0.7051  1.2579
  830MOL0     O14438  -0.949   4.688   3.529  0.0922  0.5764  0.4270
  830MOL0     C14439  -0.974   4.771   3.635 -0.8700 -0.5314 -0.1531
  830MOL0     C14440  -1.115   4.823   3.624 -0.6971  0.3672 -0.7583
  830MOL0     C14441  -1.117   4.941   3.525 -0.1545  1.1190 -0.1962
  830MOL0     C14442  -1.257   4.959   3.491 -0.5749  0.5693 -0.6088
  830MOL0     C14443  -1.293   5.092   3.441 -0.2333  0.2973  0.8026
  830MOL0     C14444  -1.309   5.191   3.551  0.0857  0.4902  0.4562
  830MOL0     C14445  -1.401   5.312   3.511 -0.4075  0.5498  0.0360
  830MOL0     C14446  -1.401   5.418   3.617  1.0574  0.1209 -0.5212
  830MOL0    Cl14447  -1.240   5.489   3.600 -0.0230  0.2329 -0.2481
  830MOL0     C14448  -0.767   4.567   3.633  0.3296 -0.4031 -0.0958
  830MOL0     C14449  -0.640   4.511   3.610  0.0923  0.4752  0.2063
  830MOL0     O14450  -0.529   4.233   3.362  0.8165  0.1581  0.6168
  830MOL0     C14451  -0.246   4.263   3.562 -0.3179 -0.1146  0.8473
  830MOL0     C14452  -0.122   4.216   3.596 -0.4176 -0.6435 -0.5082
  830MOL0     N14453  -0.092   3.856   4.002 -0.2736 -0.0364  0.9514
  830MOL0     N14454  -0.118   3.790   4.118 -0.7079  0.0475  0.3584
  830MOL0     C14455   0.407   2.665   4.590 -0.0832  0.6624  0.5558
  830MOL0     C14456   0.406   2.522   4.585  0.2162  0.7153 -0.5765
  830MOL0     C14457   0.238   2.085   4.570  0.5219  0.1259 -0.6980
  830MOL0     C14458   0.238   2.037   4.700  0.1955 -0.9913  0.5485
  830MOL0     C14459   0.186   1.907   4.733 -0.2811 -0.2208  1.0045
  830MOL0     C14460   0.128   1.836   4.638 -0.8799 -0.1745  0.9129
  830MOL0     O14461   0.094   1.705   4.672  0.3369  0.5079 -0.3950
  830MOL0     C14462  -0.006   1.630   4.603 -0.0262  0.1787  0.1145
  830MOL0     C14463  -0.094   1.556   4.710 -0.9588 -0.1373  0.4812
  830MOL0     C14464  -0.176   1.667   4.794 -0.2509  1.2081 -0.1506
  830MOL0     C14465  -0.227   1.794   4.722 -0.0187 -0.3840  0.7805
  830MOL0     C14466  -0.333   1.757   4.628 -0.2863 -0.0947 -0.9671
  830MOL0     C14467  -0.426   1.731   4.558  0.0905  0.5495 -0.4531
  830MOL0     C14468   0.106   1.885   4.508  0.3605 -0.6201 -0.0203
  830MOL0     C14469   0.171   2.002   4.470  0.3563 -0.9129  0.2289
  830MOL0     C14470   0.156   2.041   4.323  0.3675 -0.2661 -0.8040
  830MOL0     H14471   0.171   2.451   4.813 -0.3470 -0.4402 -0.8920
  830MOL0     H14472   0.185   2.719   4.816  1.6019  2.4428 -0.5060
  830MOL0     H14473   0.250   2.862   4.501  0.9159  0.2355 -0.6169
  830MOL0     H14474   0.374   2.981   4.540 -1.3964  1.4338 -0.8196
  830MOL0     H14475   0.090   2.985   4.648  0.8202 -0.8795 -0.2404
  830MOL0     H14476   0.212   3.105   4.681 -0.0956 -2.1673  1.1634
  830MOL0     H14477   0.230   3.158   4.437 -0.8514  1.5897  0.1618
  830MOL0     H14478   0.102   3.040   4.402  1.2624  0.0875 -1.3978
  830MOL0     H14479  -0.074   3.165   4.495  1.0241 -2.1812 -1.5600
  830MOL0     H14480   0.036   3.276   4.577  1.3627  1.2680 -0.6777
  830MOL0     H14481   0.015   3.227   4.280  3.5500 -1.5422  0.8645
  830MOL0     H14482   0.129   3.334   4.342  0.3464 -0.4292 -0.8435
  830MOL0     H14483  -0.177   3.387   4.390  0.5216  1.8244  1.4012
  830MOL0     H14484  -0.049   3.504   4.404  2.0007  1.0313 -1.0021
  830MOL0     H14485  -0.120   3.353   4.142  0.4078 -0.4063  0.0931
  830MOL0     H14486  -0.011   3.481   4.134 -1.0020  0.3889  0.8862
  830MOL0     H14487  -0.286   3.532   4.148 -0.5934 -1.8168  1.5003
  830MOL0     H14488  -0.208   3.615   4.278 -0.6065 -1.7568  0.0407
  830MOL0     H14489  -0.108   3.534   3.907  0.8959  0.6378 -0.7920
  830MOL0     H14490  -0.113   3.848   3.713  0.0534 -1.2012 -1.5764
  830MOL0     H14491  -0.004   3.708   3.722  0.2815  0.1346 -0.7609
  830MOL0     H14492   0.063   4.002   3.801 -2.3442 -0.4136  0.3510
  830MOL0     H14493   0.162   3.878   3.859  0.9611  2.5326  0.3238
  830MOL0     H14494   0.252   3.968   3.682  3.5108 -2.0552 -1.9948
  830MOL0     H14495   0.234   3.808   3.634  0.4004  0.1206  2.9645
  830MOL0     H14496   0.189   3.964   3.434 -0.1467 -3.6274 -0.8278
  830MOL0     H14497   0.041   3.883   3.469 -0.8391  1.7253  0.5203
  830MOL0     H14498  -0.059   4.029   3.335  3.2615  0.9902  1.6124
  830MOL0     H14499  -0.349   4.190   3.164 -0.9391 -0.9915 -1.3629
  830MOL0     H14500  -0.370   4.029   3.217  2.2035 -2.2216 -0.0351
  830MOL0     H14501  -0.215   4.078   3.144 -0.3876 -0.1206 -0.2276
  830MOL0     H14502  -0.628   4.479   3.278 -0.2068 -2.0444  0.6940
  830MOL0     H14503  -0.858   4.593   3.314 -2.4150 -1.7137  1.8115
  830MOL0     H14504  -0.944   4.723   3.729 -0.3365 -1.3769 -0.7344
  830MOL0     H14505  -0.904   4.854   3.627  1.4129 -2.3501 -0.0422
  830MOL0     H14506  -1.180   4.739   3.597  2.3148 -1.1131 -4.3058
  830MOL0     H14507  -1.136   4.860   3.725 -2.6033 -2.6861  0.1088
  830MOL0     H14508  -1.061   4.902   3.440  1.0423 -0.1876  1.1173
  830MOL0     H14509  -1.073   5.032   3.569  2.3058  0.1909 -0.5896
  830MOL0     H14510  -1.322   4.934   3.576 -1.6860 -3.3543 -2.3776
  830MOL0     H14511  -1.277   4.883   3.416 -1.7499  2.3959 -2.2399
  830MOL0     H14512  -1.217   5.132   3.373 -0.9970 -1.2601 -1.0596
  830MOL0     H14513  -1.380   5.080   3.376  0.6468 -0.9014 -0.1971
  830MOL0     H14514  -1.214   5.220   3.596  0.6782 -2.3635  1.2478
  830MOL0     H14515  -1.366   5.136   3.627  2.6432 -2.2716  0.5624
  830MOL0     H14516  -1.503   5.274   3.497  0.7234 -1.6624 -3.4527
  830MOL0     H14517  -1.373   5.347   3.411 -1.3304  0.0064 -0.4258
  830MOL0     H14518  -1.426   5.389   3.719 -0.9574 -2.9284 -1.7216
  830MOL0     H14519  -1.477   5.495   3.601  1.4835  1.5150  3.1892
  830MOL0     H14520  -0.801   4.567   3.736  2.2128 -1.0367  0.5761
  830MOL0     H14521  -0.573   4.475   3.687  2.2963  0.5549 -1.5734
  830MOL0     H14522  -0.291   4.333   3.631  0.0424 -0.7640  1.7514
  830MOL0     H14523  -0.095   4.241   3.698 -5.2456  1.1439  0.6160
  830MOL0     H14524   0.468   2.728   4.526 -0.8261  2.0594  1.1916
  830MOL0     H14525   0.476   2.485   4.511  0.7666 -0.5041  0.5138
  830MOL0     H14526   0.268   2.101   4.782  0.0193  2.4847 -1.9200
  830MOL0     H14527   0.192   1.864   4.832 -2.7838 -0.3055  1.1926
  830MOL0     H14528  -0.068   1.697   4.543  0.4983  1.3095  0.8025
  830MOL0     H14529   0.033   1.555   4.534 -3.7697 -2.0903  0.2106
  830MOL0     H14530  -0.042   1.479   4.769  1.2218 -0.6905 -2.0043
  830MOL0     H14531  -0.168   1.497   4.655 -1.6693 -0.5888  1.8580
  830MOL0     H14532  -0.256   1.611   4.842  0.5494 -1.0833 -1.3153
  830MOL0     H14533  -0.114   1.707   4.875 -0.8699  0.6706  0.6104
  830MOL0     H14534  -0.146   1.849   4.672 -0.6139  1.0120  1.3078
  830MOL0     H14535  -0.257   1.868   4.797  1.1140 -0.3202  1.1953
  830MOL0     H14536  -0.501   1.714   4.483  1.0444 -0.2385 -1.2410
  830MOL0     H14537   0.057   1.828   4.431 -2.7229 -0.7794  1.8866
  830MOL0     H14538   0.243   2.095   4.285 -0.8713  2.0734 -0.5290
  830MOL0     H14539   0.130   1.955   4.260 -0.9545 -0.8725  0.5170
  830MOL0     H14540   0.070   2.108   4.320 -1.4412 -2.4534 -1.1996
  831MOL0     O14541   6.582  11.163  10.899  0.1998  0.0754 -0.3053
  831MOL0     C14542   6.502  11.079  10.872 -0.6396 -0.0362 -0.9950
  831MOL0     O14543   6.506  11.002  10.763  0.0587  0.8776  0.3202
  831MOL0     C14544   6.616  11.011  10.680 -0.3620  0.5011 -0.1358
  831MOL0     C14545   6.744  10.977  10.729 -0.3457  0.6266  0.3400
  831MOL0     C14546   6.862  11.002  10.646 -0.4674  0.0946 -0.0470
  831MOL0     C14547   6.843  11.050  10.514 -0.1415 -0.1263 -0.3177
  831MOL0     O14548   6.963  11.092  10.453  0.3697 -0.9472 -0.5720
  831MOL0     C14549   7.041  11.196  10.523 -0.2938  0.3382  0.0380
  831MOL0     C14550   7.100  11.298  10.423 -0.2734 -0.0053  0.2631
  831MOL0     C14551   6.985  11.376  10.349 -0.1134  1.1637 -0.1904
  831MOL0     C14552   7.014  11.509  10.273  0.0206  0.8870  0.5938
  831MOL0     C14553   6.884  11.580  10.235  0.5527  0.2701  0.6886
  831MOL0     C14554   6.788  11.493  10.167 -0.4273  0.6396 -0.2531
  831MOL0     C14555   6.846  11.441  10.027 -0.4516  0.1304  0.7993
  831MOL0     C14556   6.744  11.384   9.922 -0.1389  1.0100 -0.4244
  831MOL0     N14557   6.673  11.281  10.003  0.4350  0.7289 -0.2403
  831MOL0     C14558   6.540  11.287  10.044  0.0929  0.6063  0.7008
  831MOL0     C14559   6.525  11.171  10.116  0.5410  0.9726 -0.1311
  831MOL0     C14560   6.404  11.125  10.189  0.0152 -0.1527 -0.5649
  831MOL0     C14561   6.289  11.098  10.088  0.2078  0.7728 -0.2906
  831MOL0     C14562   6.261  10.945  10.089 -0.8293  0.2536  0.7486
  831MOL0     C14563   6.353  10.883   9.987 -0.2813  0.6107  0.4533
  831MOL0     O14564   6.304  10.760   9.944 -0.4482  0.3072 -0.8517
  831MOL0     C14565   6.384  10.658   9.919 -0.5522  0.3818 -0.7342
  831MOL0     C14566   6.485  10.661   9.832  0.2587 -0.7130 -0.1753
  831MOL0     C14567   6.548  10.547   9.780 -0.3633  0.1722 -0.4099
  831MOL0     C14568   6.658  10.564   9.673  0.6504 -0.0271  0.1998
  831MOL0     C14569   6.529  10.420   9.842  0.7677 -0.1350  0.4825
  831MOL0     C14570   6.614  10.308   9.813  0.4607 -0.3932  0.6492
  831MOL0     O14571   6.609  10.266   9.691 -0.0672 -0.4189  0.0591
  831MOL0     C14572   6.678  10.156   9.633 -0.9392  0.0195  0.3568
  831MOL0     C14573   6.804  10.128   9.685 -0.8758  0.2918  0.8985
  831MOL0     C14574   6.879  10.024   9.627 -0.9039 -0.7116  0.0886
  831MOL0     C14575   6.820   9.942   9.526  0.8444  0.0314 -0.2697
  831MOL0     O14576   6.868   9.836   9.473 -0.2393 -0.4173 -0.5955
  831MOL0     C14577   7.012   9.839   9.445  1.2321  1.0698 -0.6491
  831MOL0     C14578   7.050   9.743   9.322 -0.2517  0.1521 -0.6589
  831MOL0     C14579   7.030   9.816   9.191 -0.0232 -0.3192  0.5594
  831MOL0     C14580   6.892   9.880   9.161  0.7214 -0.1694 -0.3375
  831MOL0     C14581   6.865   9.869   9.009 -0.1457 -0.4021  0.3577
  831MOL0     C14582   6.726   9.926   8.979  0.3827  0.4565 -0.0422
  831MOL0     C14583   6.682   9.947   8.833  0.7440  0.0460  0.1278
  831MOL0     C14584   6.574   9.857   8.787  0.0077 -0.8251  0.7386
  831MOL0    Cl14585   6.642   9.687   8.762 -0.1639  0.5650 -0.1742
  831MOL0     C14586   6.693   9.980   9.473 -0.7281 -0.0429 -0.5717
  831MOL0     C14587   6.630  10.095   9.526  0.7802  1.2102  0.6015
  831MOL0     O14588   6.653  10.245   9.911 -0.5000  0.1218  0.2970
  831MOL0     C14589   6.440  10.416   9.948  0.3803  0.8112 -0.4170
  831MOL0     C14590   6.366  10.532   9.981  0.1731 -0.5875  0.5019
  831MOL0     N14591   6.642  11.097  10.123 -0.2542  0.6762  0.6424
  831MOL0     N14592   6.732  11.172  10.064  0.0914 -0.3248  0.1994
  831MOL0     C14593   6.718  11.100  10.478  0.9361 -0.4373 -0.7052
  831MOL0     C14594   6.610  11.081  10.558 -0.6607 -0.4762  1.0652
  831MOL0     C14595   6.394  11.063  10.968 -0.6928  0.0622  0.7812
  831MOL0     C14596   6.278  11.006  10.923  0.5470  0.0412 -0.2088
  831MOL0     C14597   6.166  10.994  10.996  0.0215  0.1816  0.5784
  831MOL0     C14598   6.166  11.045  11.126 -0.0577  0.2102  0.0528
  831MOL0     O14599   6.055  11.043  11.214  0.4735  0.6327  0.1124
  831MOL0     C14600   5.931  10.979  11.167 -0.1272 -0.4268  0.4042
  831MOL0     C14601   5.833  10.972  11.289  0.4322  0.9290  0.9138
  831MOL0     C14602   5.786  11.103  11.325 -0.4343 -0.0941 -0.3702
  831MOL0     C14603   5.688  11.101  11.442 -0.2163  1.0291 -0.0797
  831MOL0     C14604   5.555  11.071  11.404  0.7679 -0.4466 -0.0263
  831MOL0     C14605   5.438  11.060  11.370  0.1091  0.3583  0.5103
  831MOL0     C14606   6.282  11.096  11.180  0.0669 -0.0565  0.9517
  831MOL0     C14607   6.397  11.102  11.106  0.3745 -0.0828  0.2947
  831MOL0     C14608   6.516  11.155  11.168  0.5649 -0.4428 -0.4446
  831MOL0     H14609   6.757  10.936  10.828 -1.3096  1.8877  1.0202
  831MOL0     H14610   6.962  10.974  10.678 -0.2964 -1.4735 -1.7818
  831MOL0     H14611   7.127  11.145  10.567  2.5600  3.7231 -1.1889
  831MOL0     H14612   6.979  11.245  10.599 -0.1548  1.5504 -0.6036
  831MOL0     H14613   7.167  11.370  10.470  2.0344 -1.5526 -0.5206
  831MOL0     H14614   7.156  11.236  10.353 -3.4034 -3.3750  0.4489
  831MOL0     H14615   6.938  11.310  10.276  2.6754 -0.7980 -0.3488
  831MOL0     H14616   6.908  11.401  10.422 -1.5125 -2.0721 -0.3961
  831MOL0     H14617   7.069  11.572  10.343  0.9905  2.9681 -1.8581
  831MOL0     H14618   7.074  11.484  10.185  1.6348  1.4523  1.5054
  831MOL0     H14619   6.905  11.677  10.189  0.5140 -0.1518 -0.2454
  831MOL0     H14620   6.837  11.592  10.333 -0.2923 -1.2831  0.5103
  831MOL0     H14621   6.758  11.411  10.233  1.1741 -0.7264 -1.1618
  831MOL0     H14622   6.695  11.549  10.152  0.2081  1.6506 -0.4924
  831MOL0     H14623   6.915  11.358  10.043  0.9682  1.1111 -0.0041
  831MOL0     H14624   6.896  11.514   9.963  1.2227 -2.5321 -1.1371
  831MOL0     H14625   6.673  11.451   9.872 -0.7309  0.2136 -0.6593
  831MOL0     H14626   6.798  11.342   9.837 -1.1967  4.2230 -2.8771
  831MOL0     H14627   6.476  11.374  10.031  3.2119  2.7024 -2.3935
  831MOL0     H14628   6.370  11.199  10.262 -2.8804  0.8564 -2.7471
  831MOL0     H14629   6.431  11.036  10.247  2.0284  1.0187  0.3794
  831MOL0     H14630   6.194  11.144  10.118 -1.0127  0.2448 -3.0405
  831MOL0     H14631   6.302  11.139   9.987 -2.3773  2.4344 -0.0209
  831MOL0     H14632   6.266  10.890  10.184 -1.8886 -0.3238  0.4806
  831MOL0     H14633   6.157  10.935  10.059 -0.3502  1.9625 -1.7885
  831MOL0     H14634   6.365  10.951   9.902 -2.0332 -0.8824 -1.0771
  831MOL0     H14635   6.449  10.868  10.038  0.5473  2.3745 -0.4980
  831MOL0     H14636   6.502  10.760   9.789  2.1237 -0.4570  1.0825
  831MOL0     H14637   6.720  10.648   9.703  1.1709  0.3724 -1.8544
  831MOL0     H14638   6.604  10.579   9.579  0.1860 -0.1695  0.4391
  831MOL0     H14639   6.725  10.479   9.656 -0.3872 -0.5511 -1.6080
  831MOL0     H14640   6.845  10.188   9.766  1.8591 -0.7479  0.3898
  831MOL0     H14641   6.979  10.003   9.661 -0.5786  0.1046 -0.3362
  831MOL0     H14642   7.038   9.945   9.431  0.8253  1.2587  0.0022
  831MOL0     H14643   7.060   9.813   9.540  0.1240  2.8703  0.4683
  831MOL0     H14644   7.156   9.715   9.325 -0.6945 -1.8241  3.7788
  831MOL0     H14645   6.997   9.648   9.330  1.4249 -0.8212 -0.5071
  831MOL0     H14646   7.053   9.743   9.114  1.1407 -1.4712  1.9394
  831MOL0     H14647   7.099   9.902   9.195  0.3458 -0.6471  1.7626
  831MOL0     H14648   6.873   9.979   9.204 -0.9676 -0.2201 -0.8878
  831MOL0     H14649   6.829   9.809   9.215 -0.4901 -0.5270 -2.1349
  831MOL0     H14650   6.935   9.925   8.946 -1.3812  2.7716  1.6152
  831MOL0     H14651   6.865   9.765   8.975 -0.4559 -0.0094 -0.9090
  831MOL0     H14652   6.717  10.022   9.029  0.3067 -0.7811  2.4895
  831MOL0     H14653   6.662   9.845   9.016 -0.2581  0.4555 -1.1010
  831MOL0     H14654   6.762   9.937   8.760 -0.1204 -1.2915 -0.6775
  831MOL0     H14655   6.636  10.046   8.839 -0.2449 -0.4166  0.5641
  831MOL0     H14656   6.536   9.904   8.696  2.5816  1.4657  0.7054
  831MOL0     H14657   6.499   9.833   8.863  1.6652 -3.8151  1.6328
  831MOL0     H14658   6.653   9.911   9.400 -1.2110 -2.4780  1.8177
  831MOL0     H14659   6.532  10.122   9.489  0.7613  0.2792 -0.0712
  831MOL0     H14660   6.415  10.326  10.004  1.2499  0.9493  0.2262
  831MOL0     H14661   6.294  10.533  10.062 -2.6281  1.4710 -1.8342
  831MOL0     H14662   6.707  11.169  10.395  0.9165 -0.2502 -0.5467
  831MOL0     H14663   6.512  11.123  10.536  0.7937  1.1314 -3.2554
  831MOL0     H14664   6.271  10.973  10.820  0.0151 -1.2723  0.2317
  831MOL0     H14665   6.092  10.933  10.945  2.2490 -0.6817 -1.8116
  831MOL0     H14666   5.893  11.040  11.084 -0.0432  0.3164  0.9004
  831MOL0     H14667   5.945  10.874  11.140 -0.2419 -0.2227 -0.5068
  831MOL0     H14668   5.885  10.929  11.375 -1.5087 -1.5033  0.9851
  831MOL0     H14669   5.746  10.908  11.269  0.7617  1.0876 -1.2596
  831MOL0     H14670   5.873  11.162  11.358 -1.8726  2.5678 -1.0220
  831MOL0     H14671   5.747  11.163  11.242 -1.9821  2.2573  1.8933
  831MOL0     H14672   5.699  11.201  11.486  0.1193  0.9627 -0.0089
  831MOL0     H14673   5.715  11.029  11.519 -1.9477 -0.8095 -1.1020
  831MOL0     H14674   5.344  11.035  11.326 -0.1235  2.1738 -0.0870
  831MOL0     H14675   6.280  11.148  11.275  1.5904  1.2642  0.3120
  831MOL0     H14676   6.603  11.101  11.130 -1.5120 -1.6597 -3.9685
  831MOL0     H14677   6.504  11.260  11.139 -2.7100 -0.9163 -1.2699
  831MOL0     H14678   6.517  11.150  11.277  1.6687 -0.1038 -0.4288
  832MOL0     O14679   4.907   9.723   3.807  0.3324 -0.1958 -0.3203
  832MOL0     C14680   4.960   9.770   3.904 -0.0484 -0.0084 -0.5533
  832MOL0     O14681   4.965   9.730   4.031  0.2906 -0.5512 -0.4895
  832MOL0     C14682   4.954   9.596   4.050 -1.0376  0.2809  0.4279
  832MOL0     C14683   4.882   9.564   4.165  0.4108 -1.2182  0.9679
  832MOL0     C14684   4.862   9.427   4.185 -0.9252 -0.0392 -0.2511
  832MOL0     C14685   4.910   9.324   4.114 -0.4061  1.1079  0.2866
  832MOL0     O14686   4.888   9.184   4.124  0.5198  0.0744  0.1246
  832MOL0     C14687   4.819   9.120   4.238 -0.0644 -0.1212  0.0044
  832MOL0     C14688   4.717   9.014   4.198 -1.4739  0.5786  0.0838
  832MOL0     C14689   4.591   9.069   4.123 -0.5830 -0.4779  0.7055
  832MOL0     C14690   4.484   9.127   4.218  0.3789  0.1455  0.1807
  832MOL0     C14691   4.360   9.164   4.136 -0.0097  0.1109 -0.4757
  832MOL0     C14692   4.271   9.254   4.213  0.4724 -0.9754 -0.5935
  832MOL0     C14693   4.208   9.193   4.338 -1.4651  0.3206  0.2964
  832MOL0     C14694   4.081   9.262   4.379  0.1438  0.0635 -0.5365
  832MOL0     N14695   3.974   9.248   4.273  0.5156  0.1827  0.5605
  832MOL0     C14696   3.924   9.129   4.225 -0.4186 -0.7182 -1.3890
  832MOL0     C14697   3.844   9.175   4.127 -1.7331  0.2241  0.0473
  832MOL0     C14698   3.751   9.103   4.032 -0.1336 -0.1670 -0.4427
  832MOL0     C14699   3.616   9.161   4.058  0.4555  0.5788  0.3379
  832MOL0     C14700   3.529   9.122   3.932  0.0034  0.5332 -0.0460
  832MOL0     C14701   3.379   9.154   3.948  0.0500  0.2480  0.2063
  832MOL0     O14702   3.316   9.046   4.025 -0.4926  0.4242  0.8168
  832MOL0     C14703   3.178   9.028   4.040  0.0511 -0.3994 -0.1855
  832MOL0     C14704   3.110   8.919   4.089 -0.2397  0.8209 -0.8110
  832MOL0     C14705   2.972   8.914   4.113 -0.2586 -0.4686  0.0340
  832MOL0     C14706   2.908   8.794   4.173  0.1798 -0.0511  0.8862
  832MOL0     C14707   2.888   9.030   4.087 -0.7062  0.1720 -0.7355
  832MOL0     C14708   2.736   9.049   4.101  0.6029  0.6559 -0.7092
  832MOL0     O14709   2.682   9.156   4.033  0.5300  0.3713 -0.1718
  832MOL0     C14710   2.550   9.174   4.049  0.1417 -0.2943 -0.2986
  832MOL0     C14711   2.441   9.090   3.995  0.2821 -0.8448  0.2355
  832MOL0     C14712   2.315   9.140   3.997 -0.1221  1.5047  0.7175
  832MOL0     C14713   2.273   9.260   4.051 -0.1675 -0.1165  0.1873
  832MOL0     O14714   2.150   9.317   4.050  0.2843 -0.4835  0.3084
  832MOL0     C14715   2.052   9.228   4.007  0.6159 -0.0941  0.4762
  832MOL0     C14716   1.932   9.262   4.098 -0.5649  0.1014 -0.2730
  832MOL0     C14717   1.820   9.161   4.076  0.0888 -0.1805 -0.8375
  832MOL0     C14718   1.742   9.179   3.942  0.0704 -0.7006  0.3049
  832MOL0     C14719   1.639   9.296   3.942  1.0367 -0.5238  0.0154
  832MOL0     C14720   1.559   9.289   3.812  0.5000  0.5621  0.5142
  832MOL0     C14721   1.645   9.317   3.685 -0.9785  0.6900  0.3178
  832MOL0     C14722   1.555   9.371   3.570 -0.0875  0.4703 -1.6433
  832MOL0    Cl14723   1.457   9.515   3.619  0.1805  0.2927  0.1783
  832MOL0     C14724   2.377   9.339   4.100 -0.0992 -1.3468 -0.7179
  832MOL0     C14725   2.511   9.298   4.098  0.0608 -1.3441  0.8933
  832MOL0     O14726   2.677   8.972   4.171 -0.2468  0.7998  1.1654
  832MOL0     C14727   2.955   9.137   4.034 -0.1321  0.1238 -0.3928
  832MOL0     C14728   3.098   9.140   4.004  0.9861  0.7137  0.1498
  832MOL0     N14729   3.851   9.314   4.110  0.0196  0.3329  0.6478
  832MOL0     N14730   3.937   9.346   4.194 -0.1978 -0.2096  0.5978
  832MOL0     C14731   4.984   9.359   4.005 -0.2270  0.5268  0.3938
  832MOL0     C14732   5.007   9.492   3.968 -0.1244  0.2120  0.5857
  832MOL0     C14733   5.037   9.894   3.885  0.9455 -1.2290 -0.8629
  832MOL0     C14734   5.168   9.895   3.931 -0.3152 -0.1457  0.3547
  832MOL0     C14735   5.247  10.004   3.907 -0.2062 -0.4338 -0.3603
  832MOL0     C14736   5.186  10.121   3.845 -0.1393  0.0446  0.9157
  832MOL0     O14737   5.244  10.244   3.817  0.2970  0.5783  0.0071
  832MOL0     C14738   5.350  10.275   3.900 -0.8831 -0.2394  0.3302
  832MOL0     C14739   5.485  10.248   3.828 -0.6361 -0.0009 -0.2732
  832MOL0     C14740   5.598  10.322   3.876 -0.8827 -0.0976  0.0722
  832MOL0     C14741   5.723  10.319   3.787  0.5793  0.1252  0.0161
  832MOL0     C14742   5.782  10.186   3.771 -0.0700  0.0714 -0.0469
  832MOL0     C14743   5.826  10.074   3.768  0.3258  0.8495  0.2968
  832MOL0     C14744   5.067  10.100   3.774 -0.1448 -1.1995  0.6011
  832MOL0     C14745   4.988   9.995   3.803 -0.2058 -1.0433 -0.3256
  832MOL0     C14746   4.845   9.993   3.750 -0.5975 -0.0202  0.4788
  832MOL0     H14747   4.830   9.642   4.220 -1.1850 -2.3949  1.2239
  832MOL0     H14748   4.803   9.392   4.269 -1.6855 -1.0244 -1.1605
  832MOL0     H14749   4.774   9.196   4.303  1.2192 -1.0556  2.0918
  832MOL0     H14750   4.891   9.067   4.301  0.6610 -0.9219 -1.4249
  832MOL0     H14751   4.769   8.933   4.147 -0.7233  0.4580  1.0060
  832MOL0     H14752   4.677   8.973   4.291 -2.0686  0.4910 -0.2044
  832MOL0     H14753   4.617   9.153   4.057  0.9056 -2.0888 -0.8967
  832MOL0     H14754   4.558   8.993   4.052  1.3352 -0.1245 -0.6681
  832MOL0     H14755   4.445   9.058   4.294 -1.3146  1.8561  0.9503
  832MOL0     H14756   4.528   9.214   4.267  1.9507 -1.1963  1.2988
  832MOL0     H14757   4.312   9.072   4.103  2.8220 -2.0504  1.0322
  832MOL0     H14758   4.387   9.214   4.042  0.3565 -1.2956 -1.1443
  832MOL0     H14759   4.333   9.342   4.234 -1.5179  0.5248 -0.7747
  832MOL0     H14760   4.203   9.295   4.138  0.7444  0.3876 -0.1414
  832MOL0     H14761   4.286   9.189   4.414 -0.3655  2.0542 -0.6533
  832MOL0     H14762   4.183   9.090   4.311 -1.0456  0.1410  0.6036
  832MOL0     H14763   4.047   9.231   4.478 -3.3101 -2.8804 -2.4265
  832MOL0     H14764   4.101   9.370   4.383 -1.8139  0.4295  0.3420
  832MOL0     H14765   3.940   9.025   4.251  0.0638 -0.6250 -1.2984
  832MOL0     H14766   3.739   8.995   4.047 -1.4673  0.1570  1.1045
  832MOL0     H14767   3.789   9.132   3.933 -1.2537  1.9900 -0.2923
  832MOL0     H14768   3.576   9.120   4.152  0.8151  1.6319  0.9712
  832MOL0     H14769   3.616   9.269   4.077  0.0865  0.3874  1.5017
  832MOL0     H14770   3.572   9.166   3.842  0.4843 -1.7260 -0.9952
  832MOL0     H14771   3.526   9.013   3.920 -0.4186  0.4562  0.6706
  832MOL0     H14772   3.364   9.253   3.992  1.8260  1.3163 -1.4304
  832MOL0     H14773   3.331   9.150   3.849  0.2201 -3.8343  0.1265
  832MOL0     H14774   3.163   8.827   4.109 -1.5172 -0.5393 -3.1653
  832MOL0     H14775   2.984   8.723   4.206 -0.4040 -0.2578  1.8270
  832MOL0     H14776   2.836   8.748   4.104  3.8038 -5.9845  0.3536
  832MOL0     H14777   2.846   8.816   4.261 -1.8060 -1.4999 -0.0524
  832MOL0     H14778   2.473   8.996   3.952  1.8557  0.1781 -0.9365
  832MOL0     H14779   2.262   9.070   3.933  2.3490  1.5250 -1.5115
  832MOL0     H14780   2.020   9.251   3.905 -0.9578  1.8612  1.3667
  832MOL0     H14781   2.075   9.122   4.023 -0.7916 -0.2230  1.7781
  832MOL0     H14782   1.964   9.269   4.202 -1.0043 -2.7994  0.1485
  832MOL0     H14783   1.886   9.360   4.080  0.4046  1.4513  3.6789
  832MOL0     H14784   1.744   9.155   4.154 -0.0273 -0.8545 -0.9955
  832MOL0     H14785   1.867   9.062   4.075  0.0152 -0.2514 -2.8000
  832MOL0     H14786   1.686   9.086   3.928  2.9910 -2.3990 -1.1176
  832MOL0     H14787   1.813   9.200   3.861  0.4389  1.0923  1.0559
  832MOL0     H14788   1.577   9.300   4.031  1.2303  2.1332  0.0995
  832MOL0     H14789   1.693   9.391   3.938  0.0899  0.0006 -0.3404
  832MOL0     H14790   1.474   9.358   3.819 -2.2743 -2.5492  0.1248
  832MOL0     H14791   1.511   9.194   3.788  0.3198  1.1683 -1.7416
  832MOL0     H14792   1.684   9.218   3.662  2.1242  2.1166 -1.2509
  832MOL0     H14793   1.725   9.392   3.692 -0.3860  0.5809 -3.2326
  832MOL0     H14794   1.480   9.293   3.557  1.1593 -0.7633 -1.6044
  832MOL0     H14795   1.615   9.382   3.479  1.4040 -0.6130 -0.8234
  832MOL0     H14796   2.355   9.440   4.133 -1.0037 -0.9375 -2.4900
  832MOL0     H14797   2.584   9.371   4.131  0.2550 -0.2843 -1.6665
  832MOL0     H14798   2.905   9.228   4.003 -0.1243  1.0098  1.9892
  832MOL0     H14799   3.141   9.235   3.972  3.7753 -0.4520  0.1007
  832MOL0     H14800   5.017   9.287   3.931  1.0930 -0.0072  1.4572
  832MOL0     H14801   5.081   9.511   3.891  2.0036 -0.6355  2.2994
  832MOL0     H14802   5.207   9.809   3.985 -0.8871 -1.4255 -1.1922
  832MOL0     H14803   5.350  10.008   3.943 -0.3077 -1.8311  0.1613
  832MOL0     H14804   5.334  10.382   3.915 -1.8684 -0.6302  2.3679
  832MOL0     H14805   5.352  10.227   3.998 -1.3199 -1.0577 -0.0448
  832MOL0     H14806   5.463  10.266   3.722 -0.7635  0.6101 -0.1517
  832MOL0     H14807   5.499  10.140   3.827 -0.3667 -0.2722  4.9546
  832MOL0     H14808   5.569  10.428   3.882 -0.2922  0.1360 -0.8746
  832MOL0     H14809   5.626  10.283   3.974  0.7870  2.2868  0.6450
  832MOL0     H14810   5.797  10.385   3.834 -0.5962 -0.6890  3.2300
  832MOL0     H14811   5.697  10.367   3.691 -3.3930 -0.5246  0.5986
  832MOL0     H14812   5.857   9.973   3.753 -2.7099  0.0092 -1.0008
  832MOL0     H14813   5.030  10.183   3.715  2.7559 -1.4866 -1.8717
  832MOL0     H14814   4.858   9.979   3.642 -0.2838  2.5319  0.1400
  832MOL0     H14815   4.776   9.935   3.812 -0.7393  0.7589  1.0470
  832MOL0     H14816   4.807  10.094   3.761 -0.5643  0.4593 -2.8193
  833MOL0     O14817   7.985   3.860   7.488  0.5279 -0.0544  0.0668
  833MOL0     C14818   7.961   3.845   7.608 -0.4822  0.0010  0.2044
  833MOL0     O14819   7.865   3.759   7.668 -0.7246 -0.4085  0.9080
  833MOL0     C14820   7.781   3.696   7.582  0.1578  0.3999  0.2499
  833MOL0     C14821   7.721   3.748   7.466  0.1155  1.4197  0.9619
  833MOL0     C14822   7.654   3.672   7.387 -0.1370  1.7258  0.0400
  833MOL0     C14823   7.653   3.532   7.402 -0.2334  0.6965 -0.9218
  833MOL0     O14824   7.577   3.465   7.310 -0.2785  0.7149  0.2200
  833MOL0     C14825   7.582   3.320   7.309 -0.6022 -0.8619 -0.2403
  833MOL0     C14826   7.708   3.298   7.225  0.5812 -0.3067 -0.8700
  833MOL0     C14827   7.690   3.371   7.085 -0.6736  0.7595  0.0640
  833MOL0     C14828   7.790   3.325   6.971  0.0377  0.0278  0.5033
  833MOL0     C14829   7.763   3.385   6.832 -0.6514  0.6596  0.5352
  833MOL0     C14830   7.636   3.335   6.757  0.1218 -0.1139 -0.4374
  833MOL0     C14831   7.614   3.395   6.621  0.7094 -0.4401 -0.9207
  833MOL0     C14832   7.742   3.398   6.530  0.1332  0.5426 -0.5424
  833MOL0     N14833   7.702   3.419   6.382 -0.1761  0.1451 -0.1782
  833MOL0     C14834   7.693   3.547   6.336  0.0537  0.2360  0.6021
  833MOL0     C14835   7.706   3.538   6.207 -0.0377 -0.4223  0.8812
  833MOL0     C14836   7.734   3.647   6.097  0.5500  0.9732  0.9721
  833MOL0     C14837   7.886   3.667   6.086 -0.0742 -0.0047 -0.0010
  833MOL0     C14838   7.936   3.785   5.999  0.2051 -0.0796  1.0703
  833MOL0     C14839   7.891   3.751   5.852 -0.1416  0.5388 -0.7745
  833MOL0     O14840   7.935   3.844   5.763 -0.3134  0.0433 -0.0545
  833MOL0     C14841   7.898   3.821   5.628 -0.1860  0.3524  0.3649
  833MOL0     C14842   8.000   3.793   5.534 -0.4924 -1.0675 -0.6034
  833MOL0     C14843   7.969   3.755   5.401 -0.6746  0.5838 -0.4741
  833MOL0     C14844   8.082   3.734   5.308  0.4456  1.0763 -0.0598
  833MOL0     C14845   7.829   3.743   5.370 -0.1560 -0.1494 -0.3446
  833MOL0     C14846   7.777   3.701   5.243  1.0600 -0.1563  0.4887
  833MOL0     O14847   7.684   3.600   5.249  0.2121  0.0478 -0.3400
  833MOL0     C14848   7.647   3.531   5.140  0.8169  0.8261  0.7610
  833MOL0     C14849   7.720   3.411   5.117  0.3510  0.1025 -0.6013
  833MOL0     C14850   7.687   3.320   5.020  0.1939 -0.3131  0.5497
  833MOL0     C14851   7.579   3.350   4.942  0.7048  0.3961  0.6186
  833MOL0     O14852   7.543   3.261   4.845  0.9898 -0.5509  0.1382
  833MOL0     C14853   7.631   3.226   4.740  0.0544 -0.4050  0.1492
  833MOL0     C14854   7.659   3.073   4.758  0.2675  0.0979  0.2466
  833MOL0     C14855   7.537   2.984   4.720  0.0877  0.6156  0.5646
  833MOL0     C14856   7.599   2.845   4.700 -0.8902  0.4215  0.1974
  833MOL0     C14857   7.484   2.742   4.704  0.0217 -0.2957 -0.4816
  833MOL0     C14858   7.360   2.758   4.620  0.0562 -0.3580  0.8418
  833MOL0     C14859   7.263   2.636   4.618  0.3644  0.5449  0.9576
  833MOL0     C14860   7.155   2.638   4.728  0.8522 -0.2096 -0.6167
  833MOL0    Cl14861   7.039   2.788   4.742  0.2656  0.0429 -0.2847
  833MOL0     C14862   7.498   3.463   4.963 -0.1902 -0.3363  1.1366
  833MOL0     C14863   7.533   3.557   5.058 -0.4388 -0.1063 -0.1132
  833MOL0     O14864   7.835   3.740   5.144 -0.1834 -0.3868  0.1287
  833MOL0     C14865   7.724   3.786   5.462 -1.4636  0.2119 -0.6916
  833MOL0     C14866   7.765   3.821   5.589  0.1294  0.4913 -0.1771
  833MOL0     N14867   7.704   3.404   6.172 -0.7321 -0.1547  0.8142
  833MOL0     N14868   7.690   3.333   6.277 -0.1047  0.3205  0.4037
  833MOL0     C14869   7.743   3.474   7.503 -0.2534  0.7894  0.8445
  833MOL0     C14870   7.791   3.558   7.599 -0.1003  0.0193  1.2289
  833MOL0     C14871   8.045   3.920   7.701  0.4123 -1.2476  0.5833
  833MOL0     C14872   8.071   3.865   7.831  0.0855  0.0472  0.0109
  833MOL0     C14873   8.147   3.933   7.928 -0.8427 -0.6652  0.5619
  833MOL0     C14874   8.188   4.058   7.905  0.7421 -0.7728 -0.2185
  833MOL0     O14875   8.247   4.122   8.008  0.5852 -0.3131  0.5944
  833MOL0     C14876   8.296   4.255   7.992  0.7003 -0.8325 -0.1414
  833MOL0     C14877   8.306   4.338   8.115 -0.0893 -0.1782  0.0388
  833MOL0     C14878   8.364   4.251   8.235  0.1325 -0.6301  0.6528
  833MOL0     C14879   8.398   4.337   8.359  0.9503  0.0898  0.6192
  833MOL0     C14880   8.312   4.459   8.379  0.4330  0.8186  0.1275
  833MOL0     C14881   8.248   4.558   8.396 -0.0032 -0.5932  0.2656
  833MOL0     C14882   8.182   4.103   7.771 -0.5848  0.7841  0.7521
  833MOL0     C14883   8.114   4.038   7.666  1.2365 -0.8091 -0.3885
  833MOL0     C14884   8.095   4.110   7.537  0.0272  0.7773  0.3690
  833MOL0     H14885   7.730   3.853   7.441 -0.0067  0.8723 -1.6495
  833MOL0     H14886   7.603   3.713   7.301 -2.1030  0.9534  0.7842
  833MOL0     H14887   7.501   3.290   7.241  0.6687 -2.7015 -1.0113
  833MOL0     H14888   7.581   3.271   7.406  0.4871  0.3323  0.4028
  833MOL0     H14889   7.792   3.337   7.283 -0.3032  1.1313 -0.4908
  833MOL0     H14890   7.723   3.191   7.210 -1.1622 -1.1086  2.1475
  833MOL0     H14891   7.587   3.357   7.052 -1.2823  1.8105  1.4236
  833MOL0     H14892   7.699   3.478   7.105  2.4040  0.4899  0.7360
  833MOL0     H14893   7.894   3.357   6.982  0.3272 -0.6569 -0.1563
  833MOL0     H14894   7.800   3.216   6.975 -0.1246  0.0428  2.2692
  833MOL0     H14895   7.848   3.356   6.769 -0.4184  1.0787  0.6567
  833MOL0     H14896   7.760   3.492   6.853  2.1036  0.2814  3.7592
  833MOL0     H14897   7.653   3.228   6.740 -1.2710 -0.2369 -1.2570
  833MOL0     H14898   7.553   3.351   6.826  0.8013  2.5025 -0.1366
  833MOL0     H14899   7.576   3.497   6.626 -0.6481 -0.8743 -1.8640
  833MOL0     H14900   7.542   3.336   6.563  2.4547  0.9755 -4.9042
  833MOL0     H14901   7.792   3.490   6.562  0.2001  0.1688  0.4761
  833MOL0     H14902   7.808   3.311   6.540  1.5358  1.6981  0.9637
  833MOL0     H14903   7.708   3.641   6.387  0.2454  1.4276 -1.5447
  833MOL0     H14904   7.671   3.734   6.117 -0.8382 -0.2727  2.2909
  833MOL0     H14905   7.696   3.609   6.002  2.3969 -1.1123  0.9686
  833MOL0     H14906   7.930   3.692   6.183  0.3570 -0.6968 -0.0079
  833MOL0     H14907   7.941   3.577   6.058 -1.4435 -0.7275 -0.4551
  833MOL0     H14908   7.895   3.879   6.037  0.6671  0.6315 -0.1310
  833MOL0     H14909   8.045   3.783   6.005  0.2212 -0.0527  0.7780
  833MOL0     H14910   7.939   3.654   5.834  0.6693  0.7621  0.1156
  833MOL0     H14911   7.782   3.737   5.856  0.1362 -1.9354  1.7854
  833MOL0     H14912   8.103   3.807   5.568 -1.5072  2.0492  1.6678
  833MOL0     H14913   8.119   3.632   5.323  0.0580  1.0062  0.4374
  833MOL0     H14914   8.167   3.796   5.339  2.5790 -2.6378  2.3149
  833MOL0     H14915   8.057   3.734   5.202  0.3487 -1.7890 -0.1083
  833MOL0     H14916   7.801   3.382   5.184 -0.5972 -0.9318  0.1350
  833MOL0     H14917   7.744   3.228   5.004 -2.5288 -1.7629 -1.7666
  833MOL0     H14918   7.567   3.253   4.656  1.9244  2.0817 -0.6040
  833MOL0     H14919   7.719   3.291   4.754  1.3170 -1.9370 -0.3871
  833MOL0     H14920   7.743   3.057   4.690  0.0753  0.9184 -0.1992
  833MOL0     H14921   7.698   3.051   4.858  2.0048  4.2879  0.7075
  833MOL0     H14922   7.486   3.019   4.630 -0.0415  0.9162  0.7543
  833MOL0     H14923   7.477   2.976   4.811 -3.5462 -0.3151 -1.6975
  833MOL0     H14924   7.671   2.838   4.782 -0.9541  2.0710  0.4235
  833MOL0     H14925   7.656   2.836   4.608 -2.2048 -2.6844 -0.4500
  833MOL0     H14926   7.528   2.645   4.680  0.6730  0.7879 -4.3576
  833MOL0     H14927   7.430   2.753   4.798  0.0469 -0.7774 -0.4100
  833MOL0     H14928   7.401   2.774   4.520  3.0874  3.5010  2.4763
  833MOL0     H14929   7.305   2.851   4.635  3.9012  2.7840 -2.3098
  833MOL0     H14930   7.322   2.549   4.647 -0.0981 -0.3489 -0.6305
  833MOL0     H14931   7.221   2.643   4.517  1.3921 -2.4403  0.2289
  833MOL0     H14932   7.203   2.648   4.825 -1.0416 -1.1425  0.4761
  833MOL0     H14933   7.102   2.544   4.707  0.6382 -0.2875  0.2536
  833MOL0     H14934   7.408   3.463   4.901 -0.3890 -3.0730  1.2919
  833MOL0     H14935   7.467   3.639   5.084  0.8098 -0.4924  5.5542
  833MOL0     H14936   7.618   3.794   5.440 -1.9805  4.7420  1.9850
  833MOL0     H14937   7.689   3.858   5.658  0.8545 -0.2934  1.0762
  833MOL0     H14938   7.755   3.368   7.520  1.3708  1.0325  1.3771
  833MOL0     H14939   7.854   3.523   7.680  0.9904 -2.5094 -0.5925
  833MOL0     H14940   8.035   3.766   7.857 -0.1152  0.3850  1.1142
  833MOL0     H14941   8.165   3.892   8.026  0.5418  2.3899  1.7169
  833MOL0     H14942   8.394   4.243   7.945  1.8787  1.5630  1.5092
  833MOL0     H14943   8.240   4.309   7.915 -0.8361 -2.8289 -0.5216
  833MOL0     H14944   8.204   4.368   8.143 -0.5414 -1.7746  0.2431
  833MOL0     H14945   8.372   4.423   8.098 -0.2459 -0.6090 -3.2501
  833MOL0     H14946   8.297   4.168   8.256 -0.4262 -0.2771  0.2754
  833MOL0     H14947   8.454   4.192   8.211  0.7981 -0.2281  2.0639
  833MOL0     H14948   8.500   4.378   8.354  1.1343  0.4449  4.3253
  833MOL0     H14949   8.410   4.273   8.447 -0.7069 -2.5379 -0.9700
  833MOL0     H14950   8.202   4.655   8.398  1.5281  0.1980 -0.8353
  833MOL0     H14951   8.226   4.197   7.740  1.1027  0.0407  0.7696
  833MOL0     H14952   8.149   4.205   7.544 -3.1218  2.6942  0.3941
  833MOL0     H14953   8.138   4.049   7.457  1.7411  1.8697  0.3897
  833MOL0     H14954   7.989   4.125   7.516  0.4363  2.8498 -0.5792
  834MOL0     O14955  10.077  10.944   6.256  0.5395 -0.1066  0.6517
  834MOL0     C14956  10.112  11.060   6.285 -0.1596 -0.7612 -0.1175
  834MOL0     O14957  10.213  11.099   6.366  0.9847  0.2801  1.0489
  834MOL0     C14958  10.306  11.022   6.425 -0.2554  0.5192 -0.0638
  834MOL0     C14959  10.357  11.052   6.549  0.0488 -0.4732 -0.2637
  834MOL0     C14960  10.453  10.976   6.619 -0.0527  0.0038  0.5113
  834MOL0     C14961  10.501  10.860   6.560 -0.8477  0.2610 -0.0487
  834MOL0     O14962  10.586  10.784   6.630  0.5443  0.5520  0.2765
  834MOL0     C14963  10.700  10.722   6.571  0.6310  0.2634 -0.3383
  834MOL0     C14964  10.818  10.721   6.674 -0.6951  0.9798  0.2599
  834MOL0     C14965  10.894  10.850   6.664  0.2337 -0.2845  0.2804
  834MOL0     C14966  11.036  10.814   6.711  0.1752  0.1015  0.0395
  834MOL0     C14967  11.112  10.943   6.727 -0.6320 -0.4121 -0.2730
  834MOL0     C14968  11.164  10.992   6.592  0.1547 -1.0411 -0.2503
  834MOL0     C14969  11.256  11.119   6.611  0.5907  0.6445  0.1470
  834MOL0     C14970  11.289  11.168   6.470 -0.3831  0.0860  0.4608
  834MOL0     N14971  11.338  11.311   6.500 -0.6870  0.2886 -0.1838
  834MOL0     C14972  11.260  11.425   6.482 -0.7861  0.3519  0.1693
  834MOL0     C14973  11.336  11.530   6.500  0.1969 -0.0289  0.3483
  834MOL0     C14974  11.293  11.672   6.497 -0.8674 -0.3625 -0.1927
  834MOL0     C14975  11.371  11.762   6.395  0.0977 -0.3408 -0.4842
  834MOL0     C14976  11.320  11.902   6.387  0.1361 -0.5250  0.1457
  834MOL0     C14977  11.396  11.976   6.282  0.1084 -0.3910 -0.0417
  834MOL0     O14978  11.506  12.041   6.347 -0.0705 -0.7188 -0.7956
  834MOL0     C14979  11.580  12.140   6.288 -0.0831  0.8041 -0.0891
  834MOL0     C14980  11.719  12.131   6.306  0.4970  0.1903 -0.9481
  834MOL0     C14981  11.807  12.222   6.234  0.0621  0.1957 -0.2075
  834MOL0     C14982  11.958  12.202   6.254  0.3360 -0.2049  0.2043
  834MOL0     C14983  11.753  12.315   6.141  0.4246 -0.0858 -0.5355
  834MOL0     C14984  11.829  12.406   6.066 -0.0213  0.4035  0.3107
  834MOL0     O14985  11.765  12.436   5.941 -0.2773  0.1485 -0.5630
  834MOL0     C14986  11.829  12.520   5.845  0.5652  0.3180 -0.5340
  834MOL0     C14987  11.766  12.529   5.721  0.1244 -0.5140  0.2984
  834MOL0     C14988  11.822  12.601   5.615 -0.0602  1.1401  0.7991
  834MOL0     C14989  11.944  12.659   5.619 -0.2390  0.5238 -0.1991
  834MOL0     O14990  12.013  12.715   5.519 -0.2852 -0.4253 -0.4976
  834MOL0     C14991  11.960  12.831   5.459 -0.1804  0.0649 -0.2284
  834MOL0     C14992  11.899  12.810   5.316 -0.2475 -0.3609 -0.2667
  834MOL0     C14993  11.820  12.938   5.272  0.2587  0.5725  0.0611
  834MOL0     C14994  11.813  12.946   5.117  0.4018 -0.7500 -0.5223
  834MOL0     C14995  11.679  13.015   5.051  0.3671 -0.2329  0.1382
  834MOL0     C14996  11.655  13.157   5.113  0.0918 -0.0289  0.3714
  834MOL0     C14997  11.738  13.266   5.051 -0.9223  0.0135  0.2955
  834MOL0     C14998  11.718  13.395   5.123 -0.1802 -0.4233 -0.0384
  834MOL0    Cl14999  11.552  13.453   5.092 -0.4794  0.5731  0.5218
  834MOL0     C15000  11.999  12.660   5.749  0.1314  0.1141  0.8758
  834MOL0     C15001  11.940  12.589   5.854 -0.6540 -0.5061 -0.6900
  834MOL0     O15002  11.915  12.470   6.123 -0.4258 -0.4457 -0.0460
  834MOL0     C15003  11.613  12.323   6.140  0.2389 -0.6421  0.9824
  834MOL0     C15004  11.529  12.246   6.219 -0.5903  0.5598 -0.4408
  834MOL0     N15005  11.463  11.472   6.503  0.3457 -0.1000 -0.4598
  834MOL0     N15006  11.463  11.337   6.495  0.3091 -0.1140 -0.0208
  834MOL0     C15007  10.455  10.829   6.434  0.7686 -0.6677  1.2304
  834MOL0     C15008  10.366  10.914   6.360  0.2288  0.1861  0.0095
  834MOL0     C15009  10.008  11.166   6.261 -0.2511 -0.1074 -0.0877
  834MOL0     C15010  10.031  11.293   6.322  0.2701  0.4045 -0.4483
  834MOL0     C15011   9.946  11.401   6.295  0.1352  0.5963  0.5147
  834MOL0     C15012   9.839  11.390   6.218 -0.5800  0.1266  0.8988
  834MOL0     O15013   9.760  11.501   6.208 -0.3695  0.7950 -0.0801
  834MOL0     C15014   9.621  11.481   6.178 -0.0349  0.0302  0.0799
  834MOL0     C15015   9.522  11.592   6.203  0.2713 -1.3130 -0.0360
  834MOL0     C15016   9.376  11.550   6.174  0.7731 -0.5280 -0.2771
  834MOL0     C15017   9.278  11.667   6.190  0.2334 -0.0220 -0.7962
  834MOL0     C15018   9.141  11.612   6.171 -0.3191  0.0315  0.2203
  834MOL0     C15019   9.040  11.559   6.145  0.7502 -0.2215 -0.3563
  834MOL0     C15020   9.808  11.269   6.153 -0.3559 -0.0066  0.2745
  834MOL0     C15021   9.903  11.164   6.162  1.5160  0.2399  0.2880
  834MOL0     C15022   9.887  11.049   6.071 -0.4618 -0.0979 -0.2415
  834MOL0     H15023  10.308  11.138   6.594  1.5169  0.6732 -0.7862
  834MOL0     H15024  10.494  11.024   6.707  1.1384  2.4210 -1.2518
  834MOL0     H15025  10.735  10.760   6.474  3.5426  0.8402  0.8242
  834MOL0     H15026  10.669  10.618   6.555 -0.0075  0.0015  2.1794
  834MOL0     H15027  10.795  10.689   6.776  0.5091 -0.3050  0.1546
  834MOL0     H15028  10.882  10.640   6.639 -2.1549 -0.0154 -0.1779
  834MOL0     H15029  10.876  10.896   6.566 -1.4336 -0.8067  0.3009
  834MOL0     H15030  10.853  10.917   6.740 -1.3139  0.8524 -1.4664
  834MOL0     H15031  11.039  10.778   6.814  1.3160  0.8049  0.2760
  834MOL0     H15032  11.080  10.750   6.633 -0.6168  2.1837 -2.2622
  834MOL0     H15033  11.198  10.921   6.792 -1.0007  1.2834  0.8521
  834MOL0     H15034  11.053  11.021   6.774 -0.9464  0.2851 -1.7766
  834MOL0     H15035  11.205  10.921   6.520 -0.4280  0.7433 -2.4689
  834MOL0     H15036  11.070  11.026   6.547  0.0811  1.0871  1.3821
  834MOL0     H15037  11.345  11.102   6.672  0.7775  3.7402  0.8745
  834MOL0     H15038  11.184  11.191   6.651 -1.3631  0.3999 -2.5934
  834MOL0     H15039  11.366  11.102   6.430 -0.9928 -1.0769  1.1570
  834MOL0     H15040  11.202  11.153   6.406 -0.1432  0.1870  0.1120
  834MOL0     H15041  11.152  11.415   6.474 -0.7042 -0.8836  0.3333
  834MOL0     H15042  11.302  11.716   6.597  4.4717 -0.5540 -0.3376
  834MOL0     H15043  11.187  11.681   6.468 -1.0446  0.1558  0.5982
  834MOL0     H15044  11.477  11.769   6.422  0.5068 -0.2077 -2.0290
  834MOL0     H15045  11.372  11.715   6.296  0.5103  0.3122 -0.7949
  834MOL0     H15046  11.215  11.904   6.357 -0.5203 -1.7581  2.1372
  834MOL0     H15047  11.320  11.954   6.483 -1.3144  1.1327 -0.7048
  834MOL0     H15048  11.437  11.902   6.213 -1.0650 -1.7994  0.7260
  834MOL0     H15049  11.331  12.047   6.230 -1.6256 -1.9408 -0.0886
  834MOL0     H15050  11.736  12.047   6.373  0.4733  1.4966  0.7707
  834MOL0     H15051  12.004  12.198   6.155 -0.7901  0.2632 -0.3609
  834MOL0     H15052  11.984  12.116   6.317  0.6281  0.4038  0.9263
  834MOL0     H15053  11.999  12.289   6.306  0.3086  0.1378 -0.3426
  834MOL0     H15054  11.685  12.460   5.701 -0.8877  0.0730  2.1720
  834MOL0     H15055  11.780  12.616   5.516 -3.3448 -1.9851  1.5103
  834MOL0     H15056  11.891  12.880   5.529 -0.7810  1.6341 -1.8591
  834MOL0     H15057  12.043  12.902   5.458 -1.6489  1.8726 -1.1531
  834MOL0     H15058  11.980  12.795   5.244 -0.7169 -1.0121 -0.6680
  834MOL0     H15059  11.824  12.731   5.307 -2.4231  1.6746 -1.3727
  834MOL0     H15060  11.882  13.018   5.315  0.7544 -1.2329  2.9959
  834MOL0     H15061  11.720  12.938   5.316  0.3647  1.8249  0.3572
  834MOL0     H15062  11.826  12.843   5.083  3.7402 -1.0397  1.1284
  834MOL0     H15063  11.904  12.998   5.085 -0.4505  2.5459  1.8364
  834MOL0     H15064  11.702  13.030   4.945 -0.2996  1.4828  0.2117
  834MOL0     H15065  11.578  12.972   5.049 -0.6832  1.9678  1.7398
  834MOL0     H15066  11.672  13.158   5.221  1.9741  1.1725  0.1157
  834MOL0     H15067  11.553  13.180   5.082  0.7108  0.8709 -1.0993
  834MOL0     H15068  11.722  13.277   4.944 -0.1364  0.7339  0.2370
  834MOL0     H15069  11.842  13.237   5.070  0.2227  3.0010 -0.7566
  834MOL0     H15070  11.800  13.462   5.097  0.6705 -0.7823  1.5638
  834MOL0     H15071  11.724  13.369   5.229  4.3209 -1.4703 -0.3389
  834MOL0     H15072  12.096  12.705   5.769  0.1817  0.0074  0.8734
  834MOL0     H15073  11.989  12.604   5.949  0.1209 -1.2099 -0.9638
  834MOL0     H15074  11.568  12.401   6.078 -2.6786 -1.6073  1.7140
  834MOL0     H15075  11.425  12.273   6.230 -0.8409 -0.7339  0.6320
  834MOL0     H15076  10.491  10.744   6.376 -2.6895 -1.8884  0.6447
  834MOL0     H15077  10.346  10.880   6.258 -3.3418  0.3776  0.5168
  834MOL0     H15078  10.098  11.319   6.403 -2.6402  1.8583  1.6606
  834MOL0     H15079   9.953  11.502   6.334 -0.8605  2.6585 -3.9765
  834MOL0     H15080   9.614  11.456   6.072  0.4076 -0.2761  0.1216
  834MOL0     H15081   9.578  11.400   6.237 -2.4160  0.6286 -0.7170
  834MOL0     H15082   9.564  11.676   6.148  2.6812 -2.3291  0.1255
  834MOL0     H15083   9.531  11.630   6.306 -1.9638  0.9850 -0.5837
  834MOL0     H15084   9.363  11.495   6.080  0.6737 -1.1914  0.1197
  834MOL0     H15085   9.358  11.471   6.248  0.3090  0.3836  0.5957
  834MOL0     H15086   9.298  11.760   6.135 -0.7561  0.8513  0.2755
  834MOL0     H15087   9.297  11.707   6.290  0.6511 -1.5611 -0.2379
  834MOL0     H15088   8.944  11.526   6.109 -1.8026  0.6401  4.8101
  834MOL0     H15089   9.725  11.264   6.083 -1.0688 -1.8197  1.1802
  834MOL0     H15090   9.976  11.022   6.013  0.8088 -1.1184  2.0505
  834MOL0     H15091   9.841  10.968   6.129 -1.1796 -0.8735 -1.8349
  834MOL0     H15092   9.800  11.069   6.008 -0.4610  0.7459  0.0167
  835MOL0     O15093   2.570  10.103   3.528 -0.8806 -0.5898 -1.1013
  835MOL0     C15094   2.539   9.993   3.574 -0.6688 -0.1400  0.3691
  835MOL0     O15095   2.584   9.876   3.520  0.1259 -0.2038  1.0588
  835MOL0     C15096   2.639   9.875   3.399 -0.6502 -0.5036 -0.6386
  835MOL0     C15097   2.782   9.861   3.398 -0.3209 -0.9405 -0.5357
  835MOL0     C15098   2.846   9.842   3.277  0.6562  0.5969 -0.4133
  835MOL0     C15099   2.776   9.846   3.153 -0.3089  0.3600  0.6722
  835MOL0     O15100   2.856   9.837   3.039  0.2471  0.9425 -0.0614
  835MOL0     C15101   2.801   9.893   2.926  0.3628  0.4896  0.9002
  835MOL0     C15102   2.894   9.881   2.806 -1.4454 -0.8682 -0.9022
  835MOL0     C15103   3.030   9.954   2.815 -0.6228  0.3879 -0.8998
  835MOL0     C15104   3.099   9.985   2.679 -0.0290  0.0145 -0.3634
  835MOL0     C15105   3.227  10.070   2.701 -0.5656  0.0467 -0.8059
  835MOL0     C15106   3.360   9.992   2.721 -0.0777  0.5233 -0.4293
  835MOL0     C15107   3.479  10.085   2.705 -0.2227  0.2988 -0.6823
  835MOL0     C15108   3.607  10.010   2.697  0.1332 -0.6659 -0.5009
  835MOL0     N15109   3.722  10.095   2.662 -0.5470  0.0207  0.3260
  835MOL0     C15110   3.736  10.141   2.529  1.0503 -0.0460  0.0160
  835MOL0     C15111   3.857  10.203   2.541 -0.1078  0.5201 -0.6308
  835MOL0     C15112   3.923  10.282   2.431 -0.4412  1.1829 -0.3730
  835MOL0     C15113   3.853  10.406   2.379  0.3110 -0.0328 -0.6566
  835MOL0     C15114   3.945  10.501   2.297  0.3376 -0.4703 -0.5924
  835MOL0     C15115   3.992  10.613   2.377  0.5815 -0.1144  0.0439
  835MOL0     O15116   3.875  10.709   2.389 -0.4668 -0.0919 -0.1982
  835MOL0     C15117   3.890  10.832   2.455 -0.1917  0.3009  0.8921
  835MOL0     C15118   4.012  10.864   2.505  0.6248  0.5416  0.2564
  835MOL0     C15119   4.036  10.996   2.545 -0.3622 -0.3295 -0.7420
  835MOL0     C15120   4.174  11.031   2.611  0.6204  0.3501  0.5429
  835MOL0     C15121   3.932  11.090   2.534 -0.0728  0.9775 -0.2194
  835MOL0     C15122   3.946  11.219   2.599  0.5036  0.5791  0.0964
  835MOL0     O15123   3.958  11.231   2.739  0.1309  0.3164  0.2978
  835MOL0     C15124   3.912  11.140   2.831  0.2790  0.8181 -0.6250
  835MOL0     C15125   3.783  11.069   2.813  0.2804 -0.3435  0.6523
  835MOL0     C15126   3.730  10.989   2.920 -0.5533 -0.9314  0.6677
  835MOL0     C15127   3.809  10.963   3.031 -0.0046 -0.0199 -0.3782
  835MOL0     O15128   3.748  10.870   3.117  0.2408  0.1502  0.0699
  835MOL0     C15129   3.825  10.829   3.229 -0.8302  0.3510  0.2815
  835MOL0     C15130   3.739  10.737   3.326  0.3791  0.3840  0.3646
  835MOL0     C15131   3.680  10.618   3.251  0.0565  0.3300  0.4188
  835MOL0     C15132   3.772  10.498   3.271 -0.7818  0.0184  0.1632
  835MOL0     C15133   3.761  10.452   3.418  0.2183  0.0056 -0.7787
  835MOL0     C15134   3.856  10.338   3.450 -0.4966  0.4940 -0.0270
  835MOL0     C15135   3.803  10.205   3.396  0.4256 -0.3304  0.2852
  835MOL0     C15136   3.886  10.087   3.433  0.1115  0.3594  0.8068
  835MOL0    Cl15137   3.861  10.045   3.599  0.0041  0.0215 -0.0629
  835MOL0     C15138   3.931  11.026   3.048 -0.3306 -0.5486  0.2647
  835MOL0     C15139   3.979  11.122   2.955  0.1463 -0.2030  0.3748
  835MOL0     O15140   3.939  11.311   2.517 -0.7704  0.1273 -0.5588
  835MOL0     C15141   3.815  11.052   2.479 -0.1938 -0.5399  0.1210
  835MOL0     C15142   3.789  10.920   2.448 -0.2570  0.1599  0.4040
  835MOL0     N15143   3.899  10.205   2.678 -0.3640  0.0552 -0.2632
  835MOL0     N15144   3.818  10.139   2.748 -0.0367 -0.6311  0.4192
  835MOL0     C15145   2.638   9.880   3.154 -0.9227 -0.4050  0.7383
  835MOL0     C15146   2.579   9.895   3.276  0.1951  0.4633 -0.6442
  835MOL0     C15147   2.454   9.977   3.690  0.2497  0.5309  0.6410
  835MOL0     C15148   2.364   9.867   3.683 -0.0429 -0.1935 -0.0290
  835MOL0     C15149   2.274   9.851   3.790 -0.6287 -0.5875  0.0581
  835MOL0     C15150   2.286   9.926   3.900 -1.0207 -0.1300 -0.9831
  835MOL0     O15151   2.201   9.905   4.006  0.2490  0.2007 -0.8259
  835MOL0     C15152   2.071   9.967   3.988 -0.1725  0.4084  0.7829
  835MOL0     C15153   2.001   9.973   4.123  1.3143  0.4927  0.4077
  835MOL0     C15154   1.998  10.120   4.180 -0.2047  0.2974 -0.2717
  835MOL0     C15155   1.983  10.131   4.335 -0.0667 -0.0127 -0.1248
  835MOL0     C15156   1.836  10.135   4.371  0.9387 -0.1968 -0.5207
  835MOL0     C15157   1.719  10.131   4.387  0.6342 -0.4917  0.0396
  835MOL0     C15158   2.373  10.030   3.912  0.3910 -0.6322 -0.0644
  835MOL0     C15159   2.458  10.058   3.806 -0.7300 -0.1083  0.0055
  835MOL0     C15160   2.561  10.174   3.804 -0.9399  0.0869  0.4419
  835MOL0     H15161   2.842   9.855   3.488 -0.8478 -0.1018 -0.1191
  835MOL0     H15162   2.953   9.825   3.275  0.5662  0.0871 -1.5902
  835MOL0     H15163   2.784  10.000   2.942 -1.1425  0.3548  0.3521
  835MOL0     H15164   2.711   9.833   2.916 -0.4205  1.5001  1.6278
  835MOL0     H15165   2.905   9.773   2.797  1.1955 -0.8396  1.0430
  835MOL0     H15166   2.851   9.926   2.715  0.8976  0.2041 -1.5572
  835MOL0     H15167   3.017  10.042   2.879  0.2687 -0.6659  0.8170
  835MOL0     H15168   3.101   9.893   2.872  0.1072  1.4856 -0.6047
  835MOL0     H15169   3.123   9.888   2.634  0.2887 -0.3976  0.6589
  835MOL0     H15170   3.035  10.044   2.613  0.3375 -0.3053 -1.0081
  835MOL0     H15171   3.214  10.140   2.784 -3.1610  1.1006 -1.9804
  835MOL0     H15172   3.247  10.131   2.612  0.8026 -0.1905 -0.6896
  835MOL0     H15173   3.358   9.944   2.819 -0.0482  1.4081  0.0200
  835MOL0     H15174   3.364   9.904   2.656  1.4352 -0.0780  0.4499
  835MOL0     H15175   3.486  10.161   2.784  1.0587  0.5765 -1.0330
  835MOL0     H15176   3.475  10.134   2.608 -1.3018 -2.2466 -2.0209
  835MOL0     H15177   3.640   9.976   2.795 -0.6483  0.5401  0.2162
  835MOL0     H15178   3.595   9.927   2.627 -0.4622  0.7104 -2.1206
  835MOL0     H15179   3.685  10.121   2.435  1.9038  0.9527 -0.6832
  835MOL0     H15180   3.922  10.210   2.349  0.7906  0.6957  0.0289
  835MOL0     H15181   4.019  10.317   2.469 -1.2612  1.3228  1.6974
  835MOL0     H15182   3.756  10.386   2.331  0.1816 -2.7844  0.5761
  835MOL0     H15183   3.829  10.454   2.474  0.4672 -2.7625  0.8728
  835MOL0     H15184   4.022  10.452   2.236 -0.7928  0.8779 -3.2901
  835MOL0     H15185   3.874  10.543   2.225  0.7539  0.2309 -0.6011
  835MOL0     H15186   4.049  10.583   2.466 -0.0626 -1.9369 -0.1177
  835MOL0     H15187   4.071  10.665   2.323  0.3575 -0.8897 -1.0593
  835MOL0     H15188   4.094  10.796   2.522  1.4995  1.5183  0.0884
  835MOL0     H15189   4.161  11.036   2.720 -1.1453 -2.4958  0.5771
  835MOL0     H15190   4.211  11.128   2.578 -1.2933  0.4922 -1.4009
  835MOL0     H15191   4.251  10.958   2.586 -0.5454 -1.0047  0.7971
  835MOL0     H15192   3.721  11.087   2.726  0.3272  2.4912  1.1104
  835MOL0     H15193   3.631  10.945   2.915  0.0302 -2.4762  1.7751
  835MOL0     H15194   3.909  10.765   3.201  0.8704  1.1577  3.2169
  835MOL0     H15195   3.866  10.915   3.282  1.2408 -0.4785  0.1291
  835MOL0     H15196   3.807  10.706   3.407 -1.1593 -0.9172  1.2157
  835MOL0     H15197   3.655  10.789   3.372 -0.8508  0.0505 -1.4278
  835MOL0     H15198   3.664  10.638   3.145 -0.4914 -1.2199  0.1943
  835MOL0     H15199   3.579  10.596   3.286  0.9461 -2.4032  1.5766
  835MOL0     H15200   3.875  10.518   3.241  0.3435 -1.6746  2.6126
  835MOL0     H15201   3.742  10.427   3.194  2.2857 -1.1772 -0.0747
  835MOL0     H15202   3.787  10.526   3.494 -2.2759 -1.0489  1.2431
  835MOL0     H15203   3.662  10.412   3.441  0.1461  0.2105 -0.7312
  835MOL0     H15204   3.861  10.332   3.559 -0.3115  5.2661  0.4404
  835MOL0     H15205   3.959  10.347   3.416 -1.1310  3.4791 -1.5222
  835MOL0     H15206   3.817  10.213   3.288  3.9106  2.9224  0.7626
  835MOL0     H15207   3.697  10.182   3.408 -0.3743  3.0207  0.6317
  835MOL0     H15208   3.994  10.103   3.425 -0.2612  2.9343 -0.3031
  835MOL0     H15209   3.874  10.005   3.362 -1.0441 -1.4246  2.9533
  835MOL0     H15210   3.996  11.014   3.134 -1.9918 -3.2961  1.2308
  835MOL0     H15211   4.067  11.186   2.963 -0.7673  1.2528 -0.7596
  835MOL0     H15212   3.742  11.132   2.472  1.4338  0.8808 -3.7238
  835MOL0     H15213   3.694  10.893   2.404 -0.0303  0.8643 -0.5801
  835MOL0     H15214   2.579   9.877   3.064  0.9120  2.1055 -0.6774
  835MOL0     H15215   2.473   9.909   3.293  0.5465  0.3360  2.1217
  835MOL0     H15216   2.355   9.798   3.599  0.0886  0.5686 -0.6883
  835MOL0     H15217   2.194   9.777   3.788 -1.5965  0.3337  2.0065
  835MOL0     H15218   2.093  10.064   3.944  0.0243 -0.2421 -0.6048
  835MOL0     H15219   2.006   9.915   3.916  0.1522 -0.9267  1.4102
  835MOL0     H15220   2.052   9.915   4.201  1.4853 -3.4402 -2.3323
  835MOL0     H15221   1.898   9.945   4.100  0.4519  2.4846  1.6476
  835MOL0     H15222   2.094  10.157   4.143 -1.3236  3.1254 -0.5617
  835MOL0     H15223   1.917  10.171   4.127 -2.2092 -2.2337  0.1519
  835MOL0     H15224   2.034  10.217   4.379 -0.4274 -0.7584  1.8388
  835MOL0     H15225   2.025  10.039   4.376  0.4503  1.5565  3.1886
  835MOL0     H15226   1.615  10.151   4.373  0.1274 -2.5331  0.6713
  835MOL0     H15227   2.366  10.095   3.999 -0.3920  0.6447 -1.0529
  835MOL0     H15228   2.565  10.210   3.907  2.8603 -2.7620  1.5222
  835MOL0     H15229   2.661  10.143   3.774 -1.4534  1.4532 -3.2574
  835MOL0     H15230   2.522  10.248   3.733  1.5977  1.3788  0.2951
  836MOL0     O15231   5.098   0.264   1.178  0.1051  0.0789  0.9104
  836MOL0     C15232   5.023   0.352   1.223  0.2930  1.1565  0.1663
  836MOL0     O15233   5.055   0.432   1.323  0.0005 -0.4562  0.4296
  836MOL0     C15234   5.185   0.457   1.369 -0.2782  0.2726 -0.0726
  836MOL0     C15235   5.300   0.361   1.350 -0.3715  0.5880 -0.8529
  836MOL0     C15236   5.428   0.386   1.402 -0.3153  0.4540 -0.5129
  836MOL0     C15237   5.457   0.501   1.474 -0.2048 -0.2949 -0.3872
  836MOL0     O15238   5.595   0.518   1.505  0.5165  0.1573 -0.4390
  836MOL0     C15239   5.639   0.570   1.629  0.4520 -1.3662  0.3016
  836MOL0     C15240   5.678   0.470   1.739  0.4219  0.4805 -0.0412
  836MOL0     C15241   5.558   0.375   1.759 -0.3017  0.5598  0.3386
  836MOL0     C15242   5.539   0.317   1.900 -0.6202 -0.2112 -0.5154
  836MOL0     C15243   5.421   0.229   1.915  0.3246 -0.7121 -0.0505
  836MOL0     C15244   5.286   0.296   1.889 -0.0554 -0.2525 -0.1508
  836MOL0     C15245   5.160   0.213   1.894 -1.2720 -0.4562 -0.6398
  836MOL0     C15246   5.091   0.219   2.029 -1.0271 -0.6692 -0.1741
  836MOL0     N15247   4.972   0.131   2.035 -0.1860  0.6888 -0.3372
  836MOL0     C15248   4.972   0.002   2.087  0.3126 -0.2290  0.0501
  836MOL0     C15249   4.842  -0.036   2.083 -0.5109  0.2768  0.0800
  836MOL0     C15250   4.787  -0.171   2.132 -0.5110 -0.2525  1.3214
  836MOL0     C15251   4.869  -0.291   2.091  0.2901  0.7000 -0.0857
  836MOL0     C15252   4.846  -0.436   2.146 -0.1392  0.3601 -0.0201
  836MOL0     C15253   4.836  -0.450   2.295  0.5325 -0.9322 -0.1981
  836MOL0     O15254   4.943  -0.384   2.361  0.2446  0.1000 -0.2560
  836MOL0     C15255   5.061  -0.447   2.369 -0.8920  0.0448  0.4681
  836MOL0     C15256   5.158  -0.378   2.438 -1.7825  0.4442 -0.6330
  836MOL0     C15257   5.297  -0.415   2.437 -0.8461  0.9846  0.3614
  836MOL0     C15258   5.390  -0.335   2.521 -0.9077 -0.1467 -0.4893
  836MOL0     C15259   5.340  -0.524   2.362  0.3466  0.1127 -0.1782
  836MOL0     C15260   5.477  -0.564   2.338 -1.3201  1.3221 -0.4289
  836MOL0     O15261   5.500  -0.700   2.342 -0.0409 -0.2391 -0.2876
  836MOL0     C15262   5.604  -0.762   2.274 -0.5396  0.0227  0.0532
  836MOL0     C15263   5.740  -0.720   2.310 -0.0355 -0.5420 -0.9735
  836MOL0     C15264   5.851  -0.774   2.240 -0.2000  0.0226 -0.1306
  836MOL0     C15265   5.824  -0.865   2.135  0.6792 -0.4450 -0.4693
  836MOL0     O15266   5.914  -0.918   2.060 -0.7549  0.2737  0.4870
  836MOL0     C15267   6.050  -0.864   2.053 -0.1883 -0.5817  0.4330
  836MOL0     C15268   6.135  -0.950   1.951 -0.1314 -0.3512 -0.1720
  836MOL0     C15269   6.278  -0.941   1.997  0.4216  0.6742 -0.1519
  836MOL0     C15270   6.375  -0.993   1.899  0.0743 -0.0669 -0.1392
  836MOL0     C15271   6.330  -1.097   1.801  0.1176 -0.1005 -0.5758
  836MOL0     C15272   6.428  -1.116   1.695 -0.6837 -0.6963  0.3659
  836MOL0     C15273   6.544  -1.211   1.739  1.0420 -0.9307 -0.5561
  836MOL0     C15274   6.650  -1.224   1.628  0.5729  0.3971  0.7466
  836MOL0    Cl15275   6.713  -1.068   1.575 -0.0049 -0.2039  0.7168
  836MOL0     C15276   5.696  -0.915   2.125  0.0092  0.9566 -0.6278
  836MOL0     C15277   5.585  -0.863   2.182  0.7093  1.2136  1.4561
  836MOL0     O15278   5.554  -0.481   2.307 -0.0989  0.0500 -0.2910
  836MOL0     C15279   5.241  -0.605   2.310  0.6211 -0.4947 -0.4556
  836MOL0     C15280   5.108  -0.561   2.305 -0.9619  0.4829  0.5600
  836MOL0     N15281   4.764   0.072   2.040  0.1920  0.2466  0.1723
  836MOL0     N15282   4.844   0.180   2.025  0.6898  0.0628  0.1457
  836MOL0     C15283   5.354   0.597   1.493 -0.9835  0.3376 -0.3989
  836MOL0     C15284   5.225   0.577   1.432  0.9803 -0.9814 -0.8273
  836MOL0     C15285   4.896   0.379   1.166 -0.6015 -0.0446  0.1949
  836MOL0     C15286   4.842   0.507   1.179 -0.1385  0.0542 -0.0573
  836MOL0     C15287   4.701   0.526   1.153 -0.0696 -0.5795 -0.0551
  836MOL0     C15288   4.624   0.427   1.114 -0.1231 -1.2043  1.5220
  836MOL0     O15289   4.483   0.442   1.112 -0.5978 -0.1680 -0.1143
  836MOL0     C15290   4.435   0.465   0.982  0.3182  0.0594  0.4067
  836MOL0     C15291   4.280   0.446   0.971 -0.3875 -0.0910  0.1775
  836MOL0     C15292   4.198   0.514   1.072  0.2466 -0.3545  0.4685
  836MOL0     C15293   4.052   0.511   1.050 -0.1415 -0.3598 -0.3402
  836MOL0     C15294   3.999   0.383   0.995 -0.6614  1.2561 -0.3322
  836MOL0     C15295   3.959   0.279   0.955 -0.2460  0.0511  0.1198
  836MOL0     C15296   4.686   0.312   1.076  0.6160  0.6522  0.1975
  836MOL0     C15297   4.811   0.280   1.103 -0.8221 -0.6371 -0.2079
  836MOL0     C15298   4.855   0.139   1.055 -0.0806 -0.9434  0.1244
  836MOL0     H15299   5.277   0.262   1.313 -1.3846 -0.2722  1.8298
  836MOL0     H15300   5.504   0.309   1.400 -1.2923 -0.7996  3.2957
  836MOL0     H15301   5.569   0.649   1.658  0.8662 -1.1667  0.7696
  836MOL0     H15302   5.733   0.618   1.598  0.3245 -0.1995  1.6037
  836MOL0     H15303   5.768   0.414   1.711 -1.6382 -1.6356 -3.0989
  836MOL0     H15304   5.697   0.516   1.836 -0.2006  3.7263 -1.3326
  836MOL0     H15305   5.469   0.436   1.742 -1.8561 -1.1499  1.8016
  836MOL0     H15306   5.576   0.289   1.694  4.9680  1.0474  0.7124
  836MOL0     H15307   5.632   0.263   1.919  0.0540  1.1363  0.2025
  836MOL0     H15308   5.532   0.398   1.973  2.5273 -0.6471  0.4163
  836MOL0     H15309   5.423   0.191   2.018  0.8008 -0.6351 -0.0305
  836MOL0     H15310   5.425   0.138   1.854  0.5914 -0.0372 -1.0564
  836MOL0     H15311   5.284   0.387   1.950  2.2892 -0.5117  0.4150
  836MOL0     H15312   5.299   0.343   1.791  1.3231 -0.2144  0.0291
  836MOL0     H15313   5.199   0.113   1.876  0.3767  0.1386 -0.5912
  836MOL0     H15314   5.090   0.234   1.813 -1.4549  1.2379 -0.0928
  836MOL0     H15315   5.161   0.198   2.112 -0.1735 -2.3701 -1.2584
  836MOL0     H15316   5.053   0.321   2.031 -1.7204 -0.8702 -1.9401
  836MOL0     H15317   5.057  -0.059   2.118  0.1778 -0.0808  0.7195
  836MOL0     H15318   4.690  -0.199   2.088  1.4403 -1.6206 -2.5404
  836MOL0     H15319   4.785  -0.162   2.241  3.3943  1.3757  1.3988
  836MOL0     H15320   4.855  -0.301   1.983 -0.6636  3.8362 -0.3267
  836MOL0     H15321   4.971  -0.268   2.122 -0.0622  1.3992  0.5832
  836MOL0     H15322   4.765  -0.498   2.107 -1.4610  1.6792  0.4868
  836MOL0     H15323   4.921  -0.502   2.103 -0.0325  0.7806 -0.4814
  836MOL0     H15324   4.742  -0.417   2.341  1.0047 -0.8949  0.7702
  836MOL0     H15325   4.840  -0.556   2.323  0.9815 -0.9727 -0.3987
  836MOL0     H15326   5.131  -0.285   2.488  0.5526  0.3507  1.0263
  836MOL0     H15327   5.436  -0.266   2.449 -2.2991 -1.0991 -2.3644
  836MOL0     H15328   5.460  -0.401   2.573  0.1609  1.2028 -0.1594
  836MOL0     H15329   5.331  -0.272   2.589 -1.2261  0.3028 -1.1661
  836MOL0     H15330   5.753  -0.635   2.375 -1.3448  0.5680 -2.0891
  836MOL0     H15331   5.948  -0.730   2.257 -1.8414  3.2966  1.8337
  836MOL0     H15332   6.045  -0.757   2.029 -2.2065 -0.3806  1.5435
  836MOL0     H15333   6.093  -0.872   2.153 -0.2070 -0.5205  0.4461
  836MOL0     H15334   6.105  -1.054   1.967 -0.9711  0.2018  2.3988
  836MOL0     H15335   6.124  -0.927   1.845 -1.2294 -1.7273 -0.3913
  836MOL0     H15336   6.289  -1.013   2.078 -0.2061 -0.1366 -0.7812
  836MOL0     H15337   6.309  -0.841   2.029  2.4532  0.8086 -2.3067
  836MOL0     H15338   6.459  -1.029   1.959 -1.0734  0.4765  1.9197
  836MOL0     H15339   6.396  -0.912   1.830  0.4746 -0.7319 -0.8170
  836MOL0     H15340   6.319  -1.183   1.867  1.3566  0.7419  0.7987
  836MOL0     H15341   6.237  -1.073   1.749 -0.3106  5.6605  2.0115
  836MOL0     H15342   6.463  -1.018   1.662 -1.2509 -0.5722  0.1214
  836MOL0     H15343   6.378  -1.167   1.612  1.5540 -0.4379 -1.2395
  836MOL0     H15344   6.499  -1.306   1.769 -3.4491  1.3054  0.7627
  836MOL0     H15345   6.604  -1.171   1.821  1.2063 -0.2670 -0.9869
  836MOL0     H15346   6.592  -1.277   1.552 -0.2410 -0.8256  2.1561
  836MOL0     H15347   6.736  -1.284   1.659 -0.1314  0.4732  3.0393
  836MOL0     H15348   5.678  -0.991   2.049 -1.6675  0.8152 -0.1236
  836MOL0     H15349   5.487  -0.896   2.147  0.3308  1.6423  2.0847
  836MOL0     H15350   5.264  -0.694   2.252  1.4925 -0.4614 -0.1781
  836MOL0     H15351   5.030  -0.626   2.265  2.1240 -2.4527 -1.2213
  836MOL0     H15352   5.368   0.696   1.537 -2.7229  0.7474 -0.6906
  836MOL0     H15353   5.164   0.666   1.445  3.2797  0.4248  1.3138
  836MOL0     H15354   4.903   0.585   1.224  3.1984 -1.6709 -1.2596
  836MOL0     H15355   4.671   0.629   1.165 -0.2169 -0.7962  1.8179
  836MOL0     H15356   4.470   0.566   0.956  1.7429 -0.6440 -0.5345
  836MOL0     H15357   4.487   0.397   0.914 -0.8193 -0.9394  0.5235
  836MOL0     H15358   4.264   0.341   0.995  0.2562  0.1637  1.8145
  836MOL0     H15359   4.243   0.464   0.870 -0.8786 -0.7426  0.2333
  836MOL0     H15360   4.220   0.463   1.166  2.3486  1.8730  1.2828
  836MOL0     H15361   4.229   0.618   1.083  0.9288 -0.5657  0.6128
  836MOL0     H15362   4.032   0.593   0.980  0.6495  1.4411  1.4494
  836MOL0     H15363   3.994   0.536   1.138 -1.8560 -2.2967 -0.8406
  836MOL0     H15364   3.916   0.199   0.898 -1.7270  1.2491 -0.5071
  836MOL0     H15365   4.621   0.251   1.015  0.3167  2.4711 -1.3774
  836MOL0     H15366   4.963   0.126   1.039  0.0478 -2.6758  2.0306
  836MOL0     H15367   4.829   0.065   1.131 -1.3932 -0.9745 -0.3255
  836MOL0     H15368   4.804   0.106   0.963 -0.3090  1.4711 -0.6831
  837MOL0     O15369   5.125   0.803   7.084 -0.3144 -0.6431 -0.1862
  837MOL0     C15370   5.175   0.728   7.171  0.4593  1.0354 -0.1419
  837MOL0     O15371   5.134   0.586   7.171 -0.2583 -0.4428 -0.0315
  837MOL0     C15372   5.053   0.551   7.073 -0.2966  0.1290  0.2383
  837MOL0     C15373   5.108   0.498   6.959 -1.2265  0.2466  1.2165
  837MOL0     C15374   5.039   0.432   6.863 -0.1714 -0.8013  0.7494
  837MOL0     C15375   4.906   0.431   6.865  1.1158 -0.1991  0.8724
  837MOL0     O15376   4.849   0.376   6.751 -1.2961 -0.0670  0.2943
  837MOL0     C15377   4.721   0.424   6.719  0.3542 -1.7130 -1.0723
  837MOL0     C15378   4.701   0.445   6.571 -0.6557  0.6792 -0.4787
  837MOL0     C15379   4.557   0.502   6.560  0.7539 -0.2852  1.2375
  837MOL0     C15380   4.504   0.536   6.404 -0.9832  0.5863 -0.6958
  837MOL0     C15381   4.355   0.545   6.391 -0.2096  0.8742 -0.3001
  837MOL0     C15382   4.301   0.560   6.252 -0.2074 -0.1745  0.1162
  837MOL0     C15383   4.330   0.439   6.150  0.7124  0.3758  0.4914
  837MOL0     C15384   4.239   0.452   6.025  0.4157 -0.0621 -0.3258
  837MOL0     N15385   4.259   0.573   5.950  1.2160 -0.3936  0.5826
  837MOL0     C15386   4.200   0.693   5.993 -1.0315  0.7737  0.4757
  837MOL0     C15387   4.216   0.785   5.892  0.5403  0.3679  1.0336
  837MOL0     C15388   4.173   0.923   5.896 -0.4503 -0.6150  0.3037
  837MOL0     C15389   4.078   0.971   5.786  0.5820  0.1087  0.7424
  837MOL0     C15390   3.939   0.917   5.768  0.8877 -0.2615  1.0160
  837MOL0     C15391   3.919   0.769   5.798  0.1227  0.8997 -0.1735
  837MOL0     O15392   3.796   0.712   5.767 -0.0627 -0.0372  0.0959
  837MOL0     C15393   3.739   0.636   5.867 -0.6549 -0.0835 -0.1447
  837MOL0     C15394   3.807   0.536   5.921  0.0413 -0.0487 -0.3274
  837MOL0     C15395   3.752   0.458   6.028  0.0545  0.3031 -0.3638
  837MOL0     C15396   3.823   0.331   6.080 -0.1897  1.1123 -0.1605
  837MOL0     C15397   3.623   0.494   6.070  1.0985  0.0884 -0.0908
  837MOL0     C15398   3.552   0.439   6.186  0.0531 -1.1183 -0.5373
  837MOL0     O15399   3.413   0.446   6.187  0.1420  0.6604  0.5603
  837MOL0     C15400   3.352   0.421   6.312  0.0691  0.0141  0.0528
  837MOL0     C15401   3.337   0.519   6.413 -1.5396  0.1233 -0.9620
  837MOL0     C15402   3.256   0.480   6.521  0.6306  0.3595 -0.0299
  837MOL0     C15403   3.199   0.357   6.545 -0.0698 -0.7905 -0.9801
  837MOL0     O15404   3.139   0.340   6.664 -0.3677 -0.3435  0.0542
  837MOL0     C15405   3.095   0.211   6.701 -0.2560 -0.4669 -0.2675
  837MOL0     C15406   3.010   0.222   6.824 -0.2710  0.2835  0.7766
  837MOL0     C15407   2.931   0.100   6.848  0.7753  0.4174  1.0613
  837MOL0     C15408   2.999  -0.028   6.902 -0.0059  0.1974  0.9622
  837MOL0     C15409   2.887  -0.131   6.926  0.3748 -0.1351 -0.2671
  837MOL0     C15410   2.942  -0.257   6.983  0.3329  0.5851 -0.1098
  837MOL0     C15411   2.833  -0.364   7.026  1.0382  0.4438  0.3449
  837MOL0     C15412   2.881  -0.433   7.147  0.4887 -0.3977  0.1783
  837MOL0    Cl15413   2.891  -0.318   7.287 -0.0313  0.5564 -0.0207
  837MOL0     C15414   3.230   0.259   6.445  0.2053 -0.1973 -0.0106
  837MOL0     C15415   3.300   0.286   6.322  0.7226 -1.3851  0.0807
  837MOL0     O15416   3.615   0.401   6.284 -0.4770 -1.4028 -0.9587
  837MOL0     C15417   3.552   0.595   5.998  0.0045 -0.1870  0.0220
  837MOL0     C15418   3.616   0.674   5.904  1.5108  0.4865  0.0311
  837MOL0     N15419   4.282   0.722   5.785 -0.5773 -0.1350  0.5349
  837MOL0     N15420   4.307   0.592   5.821  1.2074  0.1265 -0.2804
  837MOL0     C15421   4.842   0.490   6.979  0.3480 -0.2835  0.9317
  837MOL0     C15422   4.915   0.538   7.084 -0.4752  0.2983 -0.5101
  837MOL0     C15423   5.266   0.770   7.278 -0.1427  0.9373 -0.1819
  837MOL0     C15424   5.335   0.667   7.351 -0.0516 -1.1118  0.0358
  837MOL0     C15425   5.447   0.710   7.425  0.3126 -0.5140  0.5813
  837MOL0     C15426   5.470   0.842   7.460  1.9695 -0.4542 -0.2311
  837MOL0     O15427   5.574   0.884   7.539  0.8116 -0.5320 -0.3694
  837MOL0     C15428   5.632   0.782   7.622 -0.0329 -0.5127 -0.1186
  837MOL0     C15429   5.539   0.714   7.726  0.2309  0.3040 -0.1661
  837MOL0     C15430   5.503   0.811   7.834  0.2675  0.1770 -0.1807
  837MOL0     C15431   5.424   0.750   7.947  0.1581  0.1084 -0.5142
  837MOL0     C15432   5.456   0.832   8.054  0.3928  0.1834 -0.1642
  837MOL0     C15433   5.504   0.897   8.146 -0.1557  0.1003 -0.1925
  837MOL0     C15434   5.387   0.934   7.408 -0.5585 -0.8065  0.3188
  837MOL0     C15435   5.286   0.903   7.317  0.0374  0.7119  1.0256
  837MOL0     C15436   5.212   1.015   7.246  0.0505  0.5397  0.0526
  837MOL0     H15437   5.217   0.502   6.958 -1.1996 -0.0465  2.1101
  837MOL0     H15438   5.098   0.405   6.776 -0.0718  2.6314 -0.4041
  837MOL0     H15439   4.696   0.525   6.755 -2.1808 -2.9599  1.0224
  837MOL0     H15440   4.643   0.366   6.769 -0.4938  0.3078  0.0986
  837MOL0     H15441   4.772   0.522   6.540 -2.9994  3.3915  0.5197
  837MOL0     H15442   4.714   0.352   6.514  2.1677 -0.7410  2.1646
  837MOL0     H15443   4.492   0.422   6.597 -0.6552 -0.8566 -2.0974
  837MOL0     H15444   4.539   0.590   6.623  0.6067 -0.4404  1.4128
  837MOL0     H15445   4.548   0.634   6.384  2.0006 -0.1096  1.7365
  837MOL0     H15446   4.541   0.454   6.341 -2.3803  1.9031 -3.4010
  837MOL0     H15447   4.335   0.636   6.449  4.2399  2.8050 -1.3853
  837MOL0     H15448   4.306   0.457   6.435 -1.9543  1.9486 -0.0093
  837MOL0     H15449   4.192   0.560   6.257 -0.4707  0.8954 -3.2900
  837MOL0     H15450   4.340   0.652   6.207  6.6075 -3.8602 -3.2086
  837MOL0     H15451   4.305   0.345   6.200 -2.8756  1.3897  0.9087
  837MOL0     H15452   4.433   0.434   6.114 -0.0732 -4.2896 -1.9522
  837MOL0     H15453   4.261   0.365   5.963  0.7280 -0.4500  0.3213
  837MOL0     H15454   4.135   0.441   6.059  1.5528 -2.0397  3.0196
  837MOL0     H15455   4.161   0.721   6.090  3.3915  3.2532  1.8262
  837MOL0     H15456   4.264   0.983   5.883 -2.6014  3.6556  2.6441
  837MOL0     H15457   4.116   0.927   5.990 -0.9184  2.5031  0.0094
  837MOL0     H15458   4.062   1.079   5.795  3.0401  0.4266  2.2164
  837MOL0     H15459   4.131   0.951   5.692  2.1385 -0.3845  1.6933
  837MOL0     H15460   3.860   0.977   5.812  0.2563  0.8125 -1.3712
  837MOL0     H15461   3.910   0.937   5.664 -3.4024  0.4225  2.1866
  837MOL0     H15462   3.989   0.719   5.730 -1.3328  1.2580 -2.0107
  837MOL0     H15463   3.934   0.761   5.906 -0.5534  1.6466 -0.0180
  837MOL0     H15464   3.901   0.505   5.877 -0.3013 -1.4664 -0.1020
  837MOL0     H15465   3.762   0.269   6.147 -0.6414  1.4719 -0.2377
  837MOL0     H15466   3.911   0.362   6.137 -0.0462 -2.3983  1.8291
  837MOL0     H15467   3.864   0.265   6.003 -1.2980  1.2500 -0.8967
  837MOL0     H15468   3.380   0.617   6.394  0.7901 -0.7711 -0.5928
  837MOL0     H15469   3.257   0.555   6.600  0.5609  0.8310 -0.4681
  837MOL0     H15470   3.037   0.182   6.614 -1.6726  0.7103  0.2447
  837MOL0     H15471   3.176   0.139   6.715 -1.4305 -1.2059  4.4916
  837MOL0     H15472   3.074   0.240   6.910  0.9980 -0.9923  0.1289
  837MOL0     H15473   2.934   0.298   6.799 -2.2998 -1.7590  0.4332
  837MOL0     H15474   2.886   0.080   6.751  2.3214  1.8991 -0.0393
  837MOL0     H15475   2.858   0.139   6.920  0.2398 -1.3162  1.4867
  837MOL0     H15476   3.046   0.001   6.997  1.1564  5.0941 -0.8125
  837MOL0     H15477   3.077  -0.065   6.834 -0.7105 -4.0597  2.1463
  837MOL0     H15478   2.806  -0.106   6.995 -1.3675  0.1455 -2.2846
  837MOL0     H15479   2.842  -0.149   6.828  2.6439  2.3983 -1.9177
  837MOL0     H15480   3.011  -0.237   7.067 -1.0180  0.7387  0.9984
  837MOL0     H15481   3.003  -0.301   6.903  1.1113  1.8469 -0.2338
  837MOL0     H15482   2.821  -0.425   6.936 -2.0046  1.6218 -0.1446
  837MOL0     H15483   2.738  -0.319   7.056  1.5246  1.5470  0.2562
  837MOL0     H15484   2.977  -0.481   7.127  1.3683  1.1075  0.6543
  837MOL0     H15485   2.812  -0.515   7.169  0.5343  0.2077  2.9887
  837MOL0     H15486   3.205   0.153   6.447 -0.1606 -0.1287 -0.6812
  837MOL0     H15487   3.325   0.217   6.242 -2.0363 -2.5160  0.0707
  837MOL0     H15488   3.452   0.626   6.027 -1.9245 -2.1269 -3.7367
  837MOL0     H15489   3.557   0.751   5.856 -0.8258 -0.2744  1.5165
  837MOL0     H15490   4.734   0.494   6.990  0.2414 -0.1580 -0.0556
  837MOL0     H15491   4.857   0.563   7.172  0.6887  0.5943  0.1893
  837MOL0     H15492   5.326   0.567   7.310 -2.6031 -0.9524  0.1040
  837MOL0     H15493   5.512   0.629   7.457  1.8941  0.4764  0.0160
  837MOL0     H15494   5.680   0.719   7.546 -2.0300 -2.8976  0.4495
  837MOL0     H15495   5.711   0.838   7.672 -1.3364  3.0769 -1.6909
  837MOL0     H15496   5.586   0.623   7.762 -0.6864 -0.1747 -0.1434
  837MOL0     H15497   5.444   0.684   7.681  0.2392 -0.9283  0.5904
  837MOL0     H15498   5.596   0.856   7.872  0.0006  0.5426  0.0439
  837MOL0     H15499   5.437   0.890   7.795  1.5760  1.4814  0.1255
  837MOL0     H15500   5.457   0.647   7.964  1.6791  0.9434  2.3551
  837MOL0     H15501   5.318   0.746   7.921 -0.5143 -0.2894  2.0414
  837MOL0     H15502   5.546   0.960   8.222  1.1698 -1.6311  0.5876
  837MOL0     H15503   5.423   1.034   7.428  0.7942 -1.3531  0.7735
  837MOL0     H15504   5.238   1.009   7.140  0.9471  1.4999  0.2018
  837MOL0     H15505   5.104   1.016   7.265 -0.1685 -3.0916 -0.2320
  837MOL0     H15506   5.261   1.111   7.264  0.8548  0.1861 -0.1858
  838MOL0     O15507  10.558   1.301   4.464  0.4248  0.5327 -0.5825
  838MOL0     C15508  10.670   1.354   4.486 -0.1061  1.0937  0.6760
  838MOL0     O15509  10.787   1.305   4.432 -0.3317 -0.6644  0.6364
  838MOL0     C15510  10.789   1.204   4.349  0.2173  0.7129  0.4869
  838MOL0     C15511  10.737   1.073   4.382 -0.6937  0.4206 -0.3941
  838MOL0     C15512  10.728   0.977   4.286 -0.1098  0.4831  0.4870
  838MOL0     C15513  10.799   0.991   4.163  0.5611  0.1254  0.4263
  838MOL0     O15514  10.802   0.892   4.056 -0.0846  0.1668  0.2850
  838MOL0     C15515  10.867   0.782   4.122 -0.2884 -0.0621  0.4668
  838MOL0     C15516  10.912   0.667   4.021  0.0094  1.2821 -0.0242
  838MOL0     C15517  11.032   0.710   3.939 -0.5085 -0.3381  0.2433
  838MOL0     C15518  11.090   0.602   3.850  0.2530  0.6626  0.3681
  838MOL0     C15519  11.192   0.679   3.765  0.8919  0.2727  0.2427
  838MOL0     C15520  11.304   0.585   3.712  0.7879 -0.6845 -0.5963
  838MOL0     C15521  11.394   0.645   3.607 -0.5648  0.3227  0.2740
  838MOL0     C15522  11.519   0.562   3.565 -0.3550  0.0799  0.1714
  838MOL0     N15523  11.626   0.584   3.656 -0.3759 -0.0192  0.2746
  838MOL0     C15524  11.654   0.508   3.762  0.1545 -0.8401 -0.6070
  838MOL0     C15525  11.763   0.568   3.822  0.9141 -0.0950 -0.4461
  838MOL0     C15526  11.827   0.504   3.940  0.1614 -0.1249 -0.6948
  838MOL0     C15527  11.740   0.471   4.063  1.0419 -0.2622  0.7630
  838MOL0     C15528  11.817   0.373   4.154  0.7695  0.9639  0.3226
  838MOL0     C15529  11.797   0.215   4.107 -0.5976 -0.8350  0.8701
  838MOL0     O15530  11.657   0.161   4.090 -0.4233  1.0248  0.6664
  838MOL0     C15531  11.588   0.124   4.194 -0.1232 -0.0627 -1.0750
  838MOL0     C15532  11.633   0.009   4.279  0.7501 -0.2608 -0.0613
  838MOL0     C15533  11.559  -0.045   4.382 -1.1247 -0.6287  0.5789
  838MOL0     C15534  11.620  -0.159   4.471  0.1419 -0.0964  0.7458
  838MOL0     C15535  11.437   0.030   4.414  0.2528  0.2625  0.2892
  838MOL0     C15536  11.355   0.010   4.533 -0.4889 -0.5099 -0.6180
  838MOL0     O15537  11.341  -0.117   4.590  0.7037 -0.2754 -0.2846
  838MOL0     C15538  11.300  -0.133   4.715 -0.0566  0.2175 -0.7180
  838MOL0     C15539  11.393  -0.203   4.796 -0.3556 -0.4908 -0.0164
  838MOL0     C15540  11.355  -0.243   4.923 -1.0044 -0.7703  0.1187
  838MOL0     C15541  11.231  -0.203   4.980 -0.1713  0.6316 -0.7185
  838MOL0     O15542  11.197  -0.234   5.107 -0.7919  0.2400 -0.8667
  838MOL0     C15543  11.149  -0.127   5.196  0.5302  0.5568  0.5466
  838MOL0     C15544  11.191  -0.141   5.345 -0.0372  0.4608  0.2225
  838MOL0     C15545  11.169  -0.281   5.398  0.3123  0.2903 -0.7724
  838MOL0     C15546  11.196  -0.283   5.547 -0.6262 -0.0203 -0.5724
  838MOL0     C15547  11.353  -0.324   5.555  1.2380 -0.1549  0.0253
  838MOL0     C15548  11.375  -0.353   5.699 -0.6180 -0.2713  0.2808
  838MOL0     C15549  11.519  -0.380   5.728 -0.2291  0.0567  0.0193
  838MOL0     C15550  11.567  -0.509   5.656 -0.0705 -0.6847 -0.3242
  838MOL0    Cl15551  11.722  -0.542   5.724 -0.3539 -0.2602  0.3399
  838MOL0     C15552  11.138  -0.130   4.900 -0.0084  1.0146  0.0162
  838MOL0     C15553  11.176  -0.093   4.768  0.2882 -0.5581  1.1656
  838MOL0     O15554  11.322   0.114   4.595  0.2418  0.6529  0.4635
  838MOL0     C15555  11.409   0.142   4.344 -0.0650  0.1535  0.7481
  838MOL0     C15556  11.484   0.200   4.237 -0.5287 -0.0830 -0.5527
  838MOL0     N15557  11.795   0.681   3.750  1.0027 -1.2541  0.7462
  838MOL0     N15558  11.715   0.689   3.650 -1.1038  0.1713  0.3711
  838MOL0     C15559  10.855   1.118   4.140 -0.0749 -0.1909  0.0108
  838MOL0     C15560  10.854   1.216   4.232 -0.0397  0.7989  0.3150
  838MOL0     C15561  10.676   1.493   4.553 -0.5855  0.3278 -0.1964
  838MOL0     C15562  10.754   1.594   4.491 -0.2413  1.1942  0.0739
  838MOL0     C15563  10.766   1.718   4.556  0.0867  0.2134  0.9536
  838MOL0     C15564  10.698   1.747   4.667  0.5697  0.4225 -0.4512
  838MOL0     O15565  10.693   1.868   4.731 -0.1381  0.0210  0.8393
  838MOL0     C15566  10.751   1.975   4.667 -0.6237 -0.0116 -0.6792
  838MOL0     C15567  10.670   2.025   4.561  0.3247 -0.5766  0.5795
  838MOL0     C15568  10.517   2.040   4.584  0.5026 -1.0639 -1.0271
  838MOL0     C15569  10.427   1.931   4.516  0.0144 -1.0302 -0.2905
  838MOL0     C15570  10.348   1.985   4.408 -0.1744 -0.2157  0.9128
  838MOL0     C15571  10.279   2.030   4.318  0.0649  0.0487  0.0757
  838MOL0     C15572  10.623   1.641   4.725  0.2824 -1.0144 -1.3014
  838MOL0     C15573  10.610   1.515   4.675  0.5088 -0.2046  0.1145
  838MOL0     C15574  10.533   1.411   4.750 -0.1098  0.7647 -0.1168
  838MOL0     H15575  10.693   1.057   4.480  1.5375  0.8881  0.7522
  838MOL0     H15576  10.677   0.884   4.310  0.0678  0.1323 -0.4494
  838MOL0     H15577  10.797   0.736   4.192 -0.6854 -0.0891  0.0583
  838MOL0     H15578  10.954   0.815   4.181 -0.7847 -0.8031  1.6456
  838MOL0     H15579  10.945   0.581   4.081 -0.1318 -0.7174 -2.5902
  838MOL0     H15580  10.834   0.629   3.955 -1.9030  2.5261  1.4125
  838MOL0     H15581  11.008   0.797   3.877 -0.0520 -0.1162  0.3789
  838MOL0     H15582  11.105   0.741   4.014  1.1999  0.2292 -1.5772
  838MOL0     H15583  11.146   0.526   3.906 -0.8214 -2.3031 -2.3069
  838MOL0     H15584  11.015   0.540   3.799  0.3594 -0.0498  1.0441
  838MOL0     H15585  11.239   0.758   3.824 -0.6532  0.4026  1.3465
  838MOL0     H15586  11.135   0.733   3.689  1.4024  1.5882  0.7685
  838MOL0     H15587  11.364   0.551   3.797  1.9969 -3.5804 -2.4540
  838MOL0     H15588  11.262   0.493   3.669  1.9944 -1.8245  0.5726
  838MOL0     H15589  11.435   0.737   3.650  0.6114  0.6776 -1.5074
  838MOL0     H15590  11.326   0.682   3.529  0.7482  0.8086 -0.6867
  838MOL0     H15591  11.492   0.456   3.561 -0.6271  0.0974  1.3013
  838MOL0     H15592  11.554   0.587   3.464  2.2672  1.1067  1.2267
  838MOL0     H15593  11.609   0.416   3.797 -0.6453  0.1262  1.0373
  838MOL0     H15594  11.920   0.555   3.968  0.3411 -1.1305  0.6304
  838MOL0     H15595  11.853   0.409   3.892  0.0503 -0.3968 -0.2173
  838MOL0     H15596  11.707   0.563   4.114 -1.4279  0.0267 -1.1690
  838MOL0     H15597  11.664   0.402   4.026  2.1158 -2.0805  1.8216
  838MOL0     H15598  11.925   0.388   4.159  0.7433  0.7691  2.6393
  838MOL0     H15599  11.782   0.396   4.255 -0.0904  3.2766 -0.4094
  838MOL0     H15600  11.852   0.193   4.015  1.5387 -3.4804  2.6209
  838MOL0     H15601  11.838   0.159   4.191  1.4143 -1.5978 -0.5572
  838MOL0     H15602  11.725  -0.043   4.257 -0.6791 -2.9462 -0.0603
  838MOL0     H15603  11.536  -0.225   4.494 -0.7266  0.9785  0.7301
  838MOL0     H15604  11.652  -0.114   4.566  3.2393  0.0481 -0.2607
  838MOL0     H15605  11.701  -0.201   4.411 -0.4234  1.4450 -1.2132
  838MOL0     H15606  11.486  -0.227   4.745  0.0671 -0.0912  0.5640
  838MOL0     H15607  11.420  -0.305   4.984 -1.1396  1.9718  3.3546
  838MOL0     H15608  11.200  -0.036   5.162  0.8753 -1.1607 -4.2909
  838MOL0     H15609  11.043  -0.120   5.170  1.0883  1.2178 -1.8271
  838MOL0     H15610  11.298  -0.123   5.344 -0.2814  2.0483  0.1890
  838MOL0     H15611  11.125  -0.075   5.403 -0.3385  0.8840 -0.5843
  838MOL0     H15612  11.230  -0.360   5.353  0.3998 -0.7649  1.0756
  838MOL0     H15613  11.064  -0.308   5.380 -0.4811  1.1633  2.0148
  838MOL0     H15614  11.143  -0.368   5.591  1.1980 -0.5371  0.8068
  838MOL0     H15615  11.171  -0.193   5.604 -0.9247  0.2267 -1.0938
  838MOL0     H15616  11.372  -0.412   5.493 -0.3664 -1.2565  1.0349
  838MOL0     H15617  11.421  -0.246   5.520 -0.9230  1.0903 -1.6809
  838MOL0     H15618  11.319  -0.439   5.738  0.9029 -0.3298  2.5282
  838MOL0     H15619  11.337  -0.266   5.753 -0.8714 -2.8906  4.9305
  838MOL0     H15620  11.534  -0.391   5.835  1.8820 -1.5351 -0.3927
  838MOL0     H15621  11.582  -0.301   5.687  0.2790 -1.1728 -1.6543
  838MOL0     H15622  11.551  -0.515   5.548 -1.1998  0.8451 -0.2823
  838MOL0     H15623  11.507  -0.587   5.704 -2.2335  0.0765 -1.6344
  838MOL0     H15624  11.043  -0.104   4.946 -0.9354 -0.5067 -0.9406
  838MOL0     H15625  11.104  -0.055   4.696  2.7088 -0.4932 -1.4205
  838MOL0     H15626  11.321   0.199   4.370 -1.6823 -2.0732  0.3736
  838MOL0     H15627  11.453   0.284   4.177  2.2154  1.3382 -0.1355
  838MOL0     H15628  10.894   1.123   4.039 -0.3415 -1.0867 -0.1532
  838MOL0     H15629  10.908   1.303   4.197  1.3560 -0.3394 -0.4822
  838MOL0     H15630  10.816   1.563   4.408  0.1884 -1.0358  1.1487
  838MOL0     H15631  10.835   1.791   4.514 -1.6759  1.8030  0.6859
  838MOL0     H15632  10.759   2.061   4.734  0.0469 -0.5648 -0.0207
  838MOL0     H15633  10.849   1.949   4.628 -0.1224  0.6194  0.1283
  838MOL0     H15634  10.681   1.952   4.481 -4.4871 -0.7193 -0.2917
  838MOL0     H15635  10.705   2.119   4.517  0.2584 -1.2000 -0.8575
  838MOL0     H15636  10.498   2.034   4.691  0.1248  3.1511 -0.7022
  838MOL0     H15637  10.494   2.145   4.562  1.5014 -0.8584 -1.1489
  838MOL0     H15638  10.358   1.904   4.596 -1.4610 -1.8172 -1.7670
  838MOL0     H15639  10.489   1.854   4.469  0.2619  0.2208 -2.1509
  838MOL0     H15640  10.237   2.066   4.226 -1.6959  0.1995  0.8922
  838MOL0     H15641  10.577   1.667   4.820 -0.1388 -2.0766 -1.1992
  838MOL0     H15642  10.445   1.393   4.688  1.0290 -1.4939 -1.1913
  838MOL0     H15643  10.602   1.327   4.761 -0.1049  0.8704  0.7045
  838MOL0     H15644  10.510   1.446   4.851  1.3415 -1.9091  1.2480
  839MOL0     O15645   9.763   0.494   3.799  0.1982 -0.2148  0.8538
  839MOL0     C15646   9.796   0.540   3.904 -0.8196 -1.2819  1.2544
  839MOL0     O15647   9.926   0.546   3.953  0.6745 -0.0347 -0.6389
  839MOL0     C15648  10.033   0.516   3.871  0.1822 -1.3205 -0.3324
  839MOL0     C15649  10.098   0.393   3.850  0.7904 -0.6366 -0.7567
  839MOL0     C15650  10.212   0.394   3.775 -0.2190 -0.1880 -0.3684
  839MOL0     C15651  10.269   0.504   3.723  1.0827 -0.9297  0.6434
  839MOL0     O15652  10.377   0.490   3.650 -0.3681 -0.5054  0.6615
  839MOL0     C15653  10.367   0.519   3.507  0.0888 -0.5644 -0.6450
  839MOL0     C15654  10.504   0.546   3.459 -0.1535 -0.2498 -1.1303
  839MOL0     C15655  10.565   0.680   3.490 -0.3596 -0.9693 -1.1706
  839MOL0     C15656  10.699   0.723   3.424  0.8438  1.4997  0.3048
  839MOL0     C15657  10.813   0.639   3.470  0.1117 -0.0448  0.5506
  839MOL0     C15658  10.955   0.711   3.479  0.5187  0.2613 -0.5948
  839MOL0     C15659  10.976   0.810   3.367  0.2863  0.7782  1.1916
  839MOL0     C15660  11.024   0.749   3.227 -0.2489  0.0359 -0.7206
  839MOL0     N15661  11.138   0.658   3.247  0.3036 -0.1360  0.3653
  839MOL0     C15662  11.133   0.517   3.238 -0.5346 -0.1453  0.8521
  839MOL0     C15663  11.263   0.486   3.249 -0.6653 -0.3330  0.2817
  839MOL0     C15664  11.322   0.354   3.259  0.1337 -0.0604  0.0290
  839MOL0     C15665  11.291   0.273   3.135 -1.5550 -0.7566 -0.1603
  839MOL0     C15666  11.372   0.137   3.137  0.4034  0.3593  0.0290
  839MOL0     C15667  11.376   0.059   3.270  0.9219 -0.3527  0.6235
  839MOL0     O15668  11.245   0.032   3.308  0.2788 -0.2805 -1.0244
  839MOL0     C15669  11.224  -0.040   3.432 -0.0545  0.0147  0.8679
  839MOL0     C15670  11.091  -0.053   3.470  0.4368 -0.8457  0.3188
  839MOL0     C15671  11.053  -0.110   3.594  0.0191  0.3730  0.1894
  839MOL0     C15672  10.904  -0.126   3.616  0.0844 -0.1602 -0.2669
  839MOL0     C15673  11.153  -0.153   3.687 -0.3826  1.0532  0.7282
  839MOL0     C15674  11.137  -0.211   3.817  0.6345  0.6552 -0.1853
  839MOL0     O15675  11.248  -0.281   3.871  0.3723 -0.3994 -0.6242
  839MOL0     C15676  11.244  -0.327   4.000 -0.8036 -0.0211 -0.7242
  839MOL0     C15677  11.150  -0.413   4.060 -0.2706 -1.1530  0.3255
  839MOL0     C15678  11.144  -0.441   4.192  0.4862 -0.4483 -0.3243
  839MOL0     C15679  11.225  -0.379   4.279 -0.5956 -0.1467 -0.2857
  839MOL0     O15680  11.229  -0.400   4.412  0.7059 -0.2849  0.2772
  839MOL0     C15681  11.111  -0.459   4.466 -0.6302  0.4944 -1.2137
  839MOL0     C15682  11.116  -0.442   4.617 -0.3689 -0.2098 -0.5692
  839MOL0     C15683  10.995  -0.524   4.670 -0.5655  0.5384  0.3025
  839MOL0     C15684  10.977  -0.476   4.811 -0.0690  0.8374  0.5894
  839MOL0     C15685  10.842  -0.508   4.869  0.2385  0.3031  0.5910
  839MOL0     C15686  10.864  -0.578   5.006  1.0866 -0.8056  1.2649
  839MOL0     C15687  10.934  -0.504   5.114  0.1946  0.2558  0.2206
  839MOL0     C15688  10.838  -0.422   5.199 -0.2183 -0.9753 -0.3979
  839MOL0    Cl15689  10.813  -0.277   5.121 -0.2426  0.3609 -0.2589
  839MOL0     C15690  11.328  -0.296   4.229 -0.5534 -0.1710  0.2174
  839MOL0     C15691  11.340  -0.269   4.088 -0.9347  0.6167 -0.2424
  839MOL0     O15692  11.024  -0.201   3.875  0.5840 -0.2044 -0.4011
  839MOL0     C15693  11.290  -0.144   3.633  0.0583 -0.4616  0.6138
  839MOL0     C15694  11.319  -0.085   3.514 -0.3293 -0.2797  0.2145
  839MOL0     N15695  11.336   0.600   3.241  0.4010  0.6946 -0.6830
  839MOL0     N15696  11.261   0.704   3.254 -0.5167 -0.3221  0.0438
  839MOL0     C15697  10.211   0.627   3.739 -1.5391  0.5383  0.0075
  839MOL0     C15698  10.094   0.638   3.817  0.4245  0.0396  0.8875
  839MOL0     C15699   9.695   0.571   4.000 -0.1838  0.0960 -0.1631
  839MOL0     C15700   9.573   0.497   3.992  0.7755 -0.4689  0.3760
  839MOL0     C15701   9.466   0.535   4.074 -0.2118  1.2606  0.1031
  839MOL0     C15702   9.465   0.644   4.151  0.8195  0.1728  0.2342
  839MOL0     O15703   9.341   0.677   4.190  0.7821 -0.8636 -0.3546
  839MOL0     C15704   9.306   0.822   4.178  1.0694  0.0845 -0.0413
  839MOL0     C15705   9.232   0.852   4.045 -1.4469 -0.4619  0.2651
  839MOL0     C15706   9.235   1.006   4.010 -0.5850 -0.8243  1.5685
  839MOL0     C15707   9.149   1.102   4.102 -0.4873  0.5214 -0.3109
  839MOL0     C15708   9.049   1.172   4.021  0.5423  0.5473 -0.3906
  839MOL0     C15709   8.964   1.215   3.942  0.3560 -0.4276 -0.6968
  839MOL0     C15710   9.585   0.710   4.171  0.4063  0.1035  0.1032
  839MOL0     C15711   9.705   0.674   4.105  0.1421 -0.6470 -0.2286
  839MOL0     C15712   9.832   0.748   4.149 -0.6833 -0.7542 -0.3236
  839MOL0     H15713  10.064   0.300   3.894 -1.3681 -0.6366 -2.2465
  839MOL0     H15714  10.251   0.297   3.745 -1.0443 -0.4219 -0.7058
  839MOL0     H15715  10.308   0.608   3.482  1.3027  0.8408  1.2297
  839MOL0     H15716  10.325   0.438   3.446 -1.9460 -1.3838  1.6631
  839MOL0     H15717  10.574   0.483   3.515  0.1702 -1.0813 -2.4257
  839MOL0     H15718  10.505   0.519   3.353 -0.7466 -3.2269 -0.4833
  839MOL0     H15719  10.494   0.755   3.455 -0.2694  0.5252  1.5129
  839MOL0     H15720  10.569   0.706   3.596 -3.3847 -0.8983 -0.9823
  839MOL0     H15721  10.680   0.723   3.316 -0.7700 -1.3491  0.4774
  839MOL0     H15722  10.716   0.824   3.463  0.3938  2.3364 -1.5411
  839MOL0     H15723  10.812   0.548   3.408  0.0796 -0.4258  1.0965
  839MOL0     H15724  10.795   0.597   3.569 -3.2327  0.1286  0.1191
  839MOL0     H15725  10.941   0.765   3.574  0.8256  0.9233 -0.9200
  839MOL0     H15726  11.044   0.647   3.482 -0.9762 -1.9854 -1.2227
  839MOL0     H15727  11.051   0.883   3.400  1.7592 -0.5506  0.8855
  839MOL0     H15728  10.887   0.872   3.351 -0.0804  0.0262  0.2397
  839MOL0     H15729  10.952   0.675   3.190  1.8486 -1.8979 -1.1648
  839MOL0     H15730  11.040   0.833   3.159 -2.6526  0.8186 -0.4372
  839MOL0     H15731  11.048   0.450   3.244  1.0576 -2.1229  3.5342
  839MOL0     H15732  11.290   0.311   3.355 -2.8630 -0.5675 -1.0836
  839MOL0     H15733  11.429   0.370   3.273  0.0027 -0.5758  1.8620
  839MOL0     H15734  11.187   0.239   3.136 -2.0030  0.5781  0.2542
  839MOL0     H15735  11.314   0.327   3.043  0.2320  0.1669  0.7715
  839MOL0     H15736  11.329   0.076   3.058 -0.3581  0.1202  0.6176
  839MOL0     H15737  11.476   0.140   3.103  1.2299 -5.7371  0.9592
  839MOL0     H15738  11.414  -0.040   3.241  0.2254  0.2588 -2.8552
  839MOL0     H15739  11.437   0.118   3.339  1.6180  0.5608 -0.7184
  839MOL0     H15740  11.025  -0.014   3.392  1.3834  2.4587  1.0164
  839MOL0     H15741  10.880  -0.232   3.626  0.4626 -0.2489 -0.2993
  839MOL0     H15742  10.842  -0.090   3.534 -3.0769 -2.4333  0.9364
  839MOL0     H15743  10.879  -0.095   3.718 -0.9956 -2.1083  0.1140
  839MOL0     H15744  11.074  -0.460   3.999 -0.9571  0.0538  0.2265
  839MOL0     H15745  11.075  -0.517   4.228  2.0472 -1.7528  0.0569
  839MOL0     H15746  11.022  -0.401   4.440  0.8159  3.0195 -0.8432
  839MOL0     H15747  11.113  -0.566   4.444  0.0659 -0.0396  1.2201
  839MOL0     H15748  11.211  -0.482   4.652 -0.7772 -0.1721  0.6127
  839MOL0     H15749  11.117  -0.334   4.634  1.0485 -0.2883 -0.0144
  839MOL0     H15750  11.020  -0.630   4.675  2.0907  1.0592 -0.2662
  839MOL0     H15751  10.906  -0.515   4.608 -1.2910 -4.5962  0.1834
  839MOL0     H15752  10.996  -0.369   4.811  0.5976  0.7347  1.8131
  839MOL0     H15753  11.062  -0.523   4.862  1.7668  2.5195 -0.7872
  839MOL0     H15754  10.790  -0.412   4.867  1.7485  1.2546  2.7530
  839MOL0     H15755  10.805  -0.583   4.798  1.4405 -1.0060  1.2936
  839MOL0     H15756  10.929  -0.666   4.992  0.6015 -0.6073 -4.4816
  839MOL0     H15757  10.766  -0.620   5.031 -1.3003  1.6217 -2.8420
  839MOL0     H15758  11.026  -0.449   5.090 -0.2652  1.4466  1.1315
  839MOL0     H15759  10.955  -0.583   5.187 -1.4976 -0.4677 -0.0328
  839MOL0     H15760  10.880  -0.388   5.294  3.2290  1.9980 -2.6953
  839MOL0     H15761  10.748  -0.480   5.217 -2.1144  1.6820 -0.7691
  839MOL0     H15762  11.398  -0.238   4.288 -1.1199  0.7657 -0.0048
  839MOL0     H15763  11.422  -0.219   4.038 -2.2594 -3.1421 -7.5405
  839MOL0     H15764  11.384  -0.171   3.679 -0.3574  0.9299  2.3991
  839MOL0     H15765  11.423  -0.077   3.486  0.1012  1.1602  2.0289
  839MOL0     H15766  10.263   0.713   3.696 -0.2150 -0.2745 -0.0664
  839MOL0     H15767  10.071   0.740   3.845  1.0580  0.9325 -1.5527
  839MOL0     H15768   9.553   0.432   3.907  1.6404  1.2971 -1.2444
  839MOL0     H15769   9.376   0.477   4.062  1.9300 -1.7921 -3.6911
  839MOL0     H15770   9.246   0.852   4.265  0.7771  1.5706 -0.7270
  839MOL0     H15771   9.398   0.882   4.182  1.1918 -0.1450  0.9182
  839MOL0     H15772   9.128   0.818   4.039 -2.1394  1.5633  0.0582
  839MOL0     H15773   9.288   0.800   3.967 -0.0265  2.0217 -0.5096
  839MOL0     H15774   9.339   1.039   4.021  0.0479 -1.8154 -0.8011
  839MOL0     H15775   9.206   1.024   3.906  0.7800  1.2099  1.4742
  839MOL0     H15776   9.217   1.165   4.160 -1.1139 -2.1512  3.7675
  839MOL0     H15777   9.096   1.043   4.178  0.7921 -2.4000 -1.5283
  839MOL0     H15778   8.887   1.270   3.892 -1.4448  1.0655  3.2586
  839MOL0     H15779   9.575   0.778   4.256  0.2917 -1.4144  1.3473
  839MOL0     H15780   9.815   0.819   4.231  0.1990 -0.8338 -0.0586
  839MOL0     H15781   9.908   0.676   4.181  1.4928 -1.1933 -5.5976
  839MOL0     H15782   9.881   0.806   4.070 -0.1944 -2.1105 -1.0500
  840MOL0     O15783  10.505   0.312   4.163 -0.0359  0.3530  0.0744
  840MOL0     C15784  10.628   0.322   4.173 -0.8479  0.2698  1.2396
  840MOL0     O15785  10.710   0.323   4.291 -0.1013  0.0937 -0.1975
  840MOL0     C15786  10.634   0.330   4.406  0.7581  0.8767  0.6993
  840MOL0     C15787  10.672   0.432   4.483  0.4026 -0.5903 -0.6174
  840MOL0     C15788  10.605   0.440   4.606 -0.5369  0.0264  0.2411
  840MOL0     C15789  10.500   0.354   4.644  0.1378 -0.2869  0.1787
  840MOL0     O15790  10.448   0.367   4.771  0.5198  0.9117 -0.2423
  840MOL0     C15791  10.377   0.255   4.832 -0.1700  0.1168  0.6277
  840MOL0     C15792  10.355   0.267   4.985  0.3997 -0.7187  0.4703
  840MOL0     C15793  10.485   0.292   5.065 -0.2851 -0.2720 -1.3576
  840MOL0     C15794  10.503   0.445   5.082 -0.4771  0.4452 -0.0165
  840MOL0     C15795  10.619   0.478   5.182  0.4286 -0.1569  0.2066
  840MOL0     C15796  10.618   0.638   5.202 -0.8788 -0.5208  0.7175
  840MOL0     C15797  10.755   0.696   5.143  0.7849  0.0965 -0.2318
  840MOL0     C15798  10.754   0.843   5.124  0.1399  0.3071  0.2021
  840MOL0     N15799  10.645   0.888   5.032  0.6680  0.0525 -0.1558
  840MOL0     C15800  10.644   0.881   4.896  0.6501  0.1078  0.2729
  840MOL0     C15801  10.550   0.981   4.861  0.2723  0.6132 -0.0819
  840MOL0     C15802  10.491   1.020   4.728 -0.6884 -0.1696 -0.3662
  840MOL0     C15803  10.470   0.905   4.614 -0.5142 -0.2181 -0.1741
  840MOL0     C15804  10.380   0.791   4.662  1.2196  0.1148 -0.9510
  840MOL0     C15805  10.232   0.828   4.709  1.1111 -0.6917  0.1041
  840MOL0     O15806  10.159   0.725   4.783 -0.3196 -0.2544  0.6045
  840MOL0     C15807  10.175   0.729   4.918 -0.4904 -0.1780 -0.4672
  840MOL0     C15808  10.070   0.657   4.986  0.5277 -0.3201  1.0431
  840MOL0     C15809  10.063   0.651   5.130 -1.3384 -0.0716  0.5694
  840MOL0     C15810   9.936   0.591   5.188  0.7033 -0.1136  0.5429
  840MOL0     C15811  10.161   0.709   5.208 -0.5673 -0.7141  0.5175
  840MOL0     C15812  10.146   0.745   5.350  1.2950 -0.1486  0.0390
  840MOL0     O15813  10.020   0.739   5.399  0.7244 -0.7647  0.7245
  840MOL0     C15814  10.000   0.741   5.537 -0.0374 -0.0844 -0.0926
  840MOL0     C15815  10.047   0.645   5.613 -0.3711 -0.2362  0.0908
  840MOL0     C15816  10.042   0.653   5.753 -0.3681 -0.2684  0.0577
  840MOL0     C15817   9.965   0.752   5.808  0.0735  0.0578 -0.4249
  840MOL0     O15818   9.968   0.765   5.939  0.1910  0.4992  0.2336
  840MOL0     C15819   9.864   0.685   5.991 -0.3809  0.1519 -0.7480
  840MOL0     C15820   9.859   0.692   6.141 -0.2660  0.1956 -0.5286
  840MOL0     C15821   9.856   0.842   6.189  1.3281  0.3872 -0.1410
  840MOL0     C15822   9.733   0.911   6.123 -0.1033 -0.5371  0.0810
  840MOL0     C15823   9.723   1.056   6.169 -0.1508  1.2477 -0.1960
  840MOL0     C15824   9.589   1.130   6.148 -0.7891  0.1738  0.4081
  840MOL0     C15825   9.607   1.261   6.220 -0.0091 -0.5542 -0.3810
  840MOL0     C15826   9.510   1.361   6.159  0.2246  0.6908  0.0155
  840MOL0    Cl15827   9.340   1.313   6.186 -0.1085 -0.3338 -0.0479
  840MOL0     C15828   9.906   0.845   5.730  0.3422  0.6321  1.4615
  840MOL0     C15829   9.921   0.846   5.593 -0.1665  0.6116  0.5314
  840MOL0     O15830  10.235   0.795   5.421  0.5409  0.1200 -0.5204
  840MOL0     C15831  10.265   0.786   5.140 -0.8404  0.0082  0.5827
  840MOL0     C15832  10.272   0.792   4.997  0.1275  0.0400 -0.1665
  840MOL0     N15833  10.511   1.040   4.978 -0.3984 -0.1092  0.3023
  840MOL0     N15834  10.563   0.985   5.080  0.2149  0.3588  0.3177
  840MOL0     C15835  10.476   0.255   4.564 -0.6930  0.9193  0.3010
  840MOL0     C15836  10.539   0.234   4.443  0.2474 -1.1601 -0.6450
  840MOL0     C15837  10.706   0.333   4.043  0.1688  0.2163  0.1892
  840MOL0     C15838  10.815   0.245   4.024  0.0929 -1.2134  1.0834
  840MOL0     C15839  10.878   0.254   3.901  0.6713  0.5028  0.2788
  840MOL0     C15840  10.831   0.337   3.796 -0.0672  0.2692 -0.1900
  840MOL0     O15841  10.891   0.334   3.673  0.5551  0.3841 -0.5104
  840MOL0     C15842  10.869   0.220   3.600  0.1700  0.4866  0.3911
  840MOL0     C15843  10.735   0.208   3.518 -0.6271  0.5525 -1.1873
  840MOL0     C15844  10.617   0.134   3.590 -0.5469 -0.8364  1.0651
  840MOL0     C15845  10.523   0.076   3.480 -0.1789 -1.2267  0.7252
  840MOL0     C15846  10.580  -0.011   3.377 -0.2118  0.0114  1.0719
  840MOL0     C15847  10.631  -0.054   3.274  0.6625  0.0811  0.9572
  840MOL0     C15848  10.712   0.414   3.813 -0.6909  0.5273 -0.5663
  840MOL0     C15849  10.659   0.423   3.940 -0.5262 -0.1310 -0.6034
  840MOL0     C15850  10.565   0.538   3.975  0.5607 -0.3434  0.6600
  840MOL0     H15851  10.750   0.498   4.449  0.0081  1.0395  1.4209
  840MOL0     H15852  10.631   0.522   4.673 -1.3150  1.8165 -1.5503
  840MOL0     H15853  10.437   0.166   4.812 -1.0008  0.0613 -2.0217
  840MOL0     H15854  10.286   0.233   4.775  1.8624 -0.6245 -2.5658
  840MOL0     H15855  10.287   0.350   5.006  1.9635  0.8743 -0.4692
  840MOL0     H15856  10.317   0.169   5.017 -0.4375  0.0518  1.9446
  840MOL0     H15857  10.472   0.253   5.167 -3.6448  0.4213 -1.3832
  840MOL0     H15858  10.572   0.244   5.019  2.0581  0.6734  1.7413
  840MOL0     H15859  10.532   0.501   4.992 -0.3463  2.5492  1.2725
  840MOL0     H15860  10.413   0.494   5.120  1.2311  2.1416  2.0208
  840MOL0     H15861  10.703   0.422   5.140  1.3791 -0.1461  2.0066
  840MOL0     H15862  10.586   0.441   5.279  1.7760 -1.0661  0.3444
  840MOL0     H15863  10.536   0.688   5.150 -0.8253 -0.1261  1.0030
  840MOL0     H15864  10.601   0.664   5.307 -0.0273 -0.4572  0.8531
  840MOL0     H15865  10.761   0.659   5.041 -1.8032 -3.3085  0.6512
  840MOL0     H15866  10.843   0.653   5.191  0.8840  0.4527 -0.0889
  840MOL0     H15867  10.752   0.894   5.221 -1.3047 -2.2982  1.6596
  840MOL0     H15868  10.845   0.874   5.073 -1.4509  0.8327 -2.5508
  840MOL0     H15869  10.683   0.808   4.826 -1.4727 -2.2834  1.4355
  840MOL0     H15870  10.553   1.091   4.672  0.0695  0.9043  1.7278
  840MOL0     H15871  10.396   1.074   4.740  1.7362  4.2579  1.1944
  840MOL0     H15872  10.419   0.949   4.528  1.7128  3.2422  0.0890
  840MOL0     H15873  10.570   0.866   4.592  1.2048  4.0149 -0.7767
  840MOL0     H15874  10.379   0.715   4.583  2.1179  0.0610 -0.9233
  840MOL0     H15875  10.427   0.744   4.749  1.8548  0.7049 -0.9701
  840MOL0     H15876  10.232   0.915   4.775 -0.0320 -1.1185  0.7008
  840MOL0     H15877  10.182   0.843   4.613  3.2854 -1.5725 -1.2724
  840MOL0     H15878   9.986   0.606   4.940  1.7845 -1.8101  0.2886
  840MOL0     H15879   9.961   0.546   5.284  2.3886  2.6119  1.4824
  840MOL0     H15880   9.887   0.513   5.128 -1.1962 -1.2226  3.3286
  840MOL0     H15881   9.861   0.667   5.212 -1.7696 -2.0551 -0.5689
  840MOL0     H15882  10.093   0.561   5.563  2.5366 -1.2104  3.9121
  840MOL0     H15883  10.100   0.584   5.814  1.3500 -1.4173 -2.7186
  840MOL0     H15884   9.771   0.722   5.946  1.6671  4.9051 -1.6495
  840MOL0     H15885   9.891   0.583   5.963 -2.3038 -0.2182 -1.4849
  840MOL0     H15886   9.776   0.632   6.178  0.1203  0.0472  0.1202
  840MOL0     H15887   9.948   0.637   6.173 -0.2177  1.0485  0.9559
  840MOL0     H15888   9.943   0.902   6.162  0.4667  3.1727  2.7084
  840MOL0     H15889   9.843   0.849   6.297 -0.4101 -1.0842 -0.2066
  840MOL0     H15890   9.653   0.841   6.152 -0.6878 -0.3112 -0.9523
  840MOL0     H15891   9.745   0.911   6.015 -0.6337 -2.6879 -0.0357
  840MOL0     H15892   9.726   1.049   6.278 -1.0816 -2.9731 -0.2764
  840MOL0     H15893   9.801   1.121   6.128  0.9723 -0.4844 -0.9059
  840MOL0     H15894   9.498   1.086   6.190 -0.5117  0.7557  1.6689
  840MOL0     H15895   9.555   1.133   6.044  1.2394 -0.6721 -0.3292
  840MOL0     H15896   9.711   1.292   6.203  0.5570 -1.6445  0.9258
  840MOL0     H15897   9.584   1.252   6.326 -1.1554 -1.7128 -0.7045
  840MOL0     H15898   9.527   1.377   6.052 -2.9561 -1.2899 -0.9308
  840MOL0     H15899   9.533   1.455   6.211 -0.5892 -0.2893  2.2621
  840MOL0     H15900   9.850   0.921   5.784 -0.9701  0.1206  0.8860
  840MOL0     H15901   9.870   0.915   5.527 -0.0189  0.2629  0.0473
  840MOL0     H15902  10.341   0.836   5.199  0.6527  0.4192 -1.5818
  840MOL0     H15903  10.362   0.840   4.960  0.7467  1.5330  2.9623
  840MOL0     H15904  10.390   0.192   4.586 -4.6069  6.2839  2.5369
  840MOL0     H15905  10.508   0.160   4.370  0.7350 -0.3362 -1.7304
  840MOL0     H15906  10.848   0.170   4.095  5.3180 -2.4183 -2.0503
  840MOL0     H15907  10.968   0.194   3.888  0.9094 -0.6413  5.1411
  840MOL0     H15908  10.944   0.213   3.521  0.2358  2.3787  0.2491
  840MOL0     H15909  10.888   0.136   3.668  1.0533 -0.5111 -1.0419
  840MOL0     H15910  10.767   0.158   3.426  2.2535  0.1301 -0.0815
  840MOL0     H15911  10.711   0.312   3.493 -0.0221  1.3346  1.1906
  840MOL0     H15912  10.655   0.050   3.648  0.1116  0.4028  2.4917
  840MOL0     H15913  10.556   0.198   3.654 -0.1242 -1.6769  2.3532
  840MOL0     H15914  10.463   0.153   3.430 -1.1790 -2.8435 -0.6484
  840MOL0     H15915  10.454   0.010   3.533  0.5453 -1.9684  0.7682
  840MOL0     H15916  10.676  -0.098   3.187  0.3438  2.2270 -0.3733
  840MOL0     H15917  10.668   0.474   3.734 -0.8006  1.2914  0.0594
  840MOL0     H15918  10.573   0.623   3.907  0.6815 -0.7263  0.1893
  840MOL0     H15919  10.465   0.500   3.954  0.5853  0.5384 -1.1632
  840MOL0     H15920  10.582   0.575   4.077  1.5507  0.4943  0.2057
  841MOL0     O15921   4.841  10.423  10.358  0.1418  0.1421  0.0735
  841MOL0     C15922   4.915  10.443  10.266  1.0496  0.1073 -0.2335
  841MOL0     O15923   4.876  10.494  10.142  1.0147 -0.5594  0.1376
  841MOL0     C15924   4.745  10.530  10.126 -0.2650 -0.1365  0.1617
  841MOL0     C15925   4.659  10.449  10.049  0.2218 -0.5079  0.7090
  841MOL0     C15926   4.519  10.485  10.051  0.1391  0.3728 -0.3825
  841MOL0     C15927   4.478  10.599  10.123  0.2434  0.1989 -0.2935
  841MOL0     O15928   4.349  10.627  10.113  1.1464 -0.6773  0.3941
  841MOL0     C15929   4.265  10.682  10.217 -0.0393  0.6108 -1.0292
  841MOL0     C15930   4.184  10.568  10.273  0.4957 -0.2548 -1.2812
  841MOL0     C15931   4.095  10.498  10.167  0.1842  0.7693 -0.0626
  841MOL0     C15932   3.959  10.562  10.148 -0.7184 -0.4346 -0.3997
  841MOL0     C15933   3.860  10.487  10.061 -1.5341  0.2338 -0.3702
  841MOL0     C15934   3.841  10.335  10.099  0.5941 -0.1540  0.5892
  841MOL0     C15935   3.746  10.267   9.987 -0.3099  0.5057 -0.7995
  841MOL0     C15936   3.712  10.115  10.019  0.0399 -0.7635 -0.5156
  841MOL0     N15937   3.827  10.023  10.025  0.2172 -0.4178 -0.1899
  841MOL0     C15938   3.883   9.974  10.144 -0.9109 -0.0383 -0.1232
  841MOL0     C15939   3.983   9.894  10.111  0.0743  0.1682  0.2484
  841MOL0     C15940   4.062   9.817  10.221 -0.4853 -1.6777 -1.1038
  841MOL0     C15941   4.204   9.790  10.189 -0.3561 -0.4080 -0.4103
  841MOL0     C15942   4.255   9.652  10.230 -0.2876  1.0287  0.2438
  841MOL0     C15943   4.222   9.625  10.389 -0.0502  0.1837 -0.1787
  841MOL0     O15944   4.264   9.722  10.493  0.2024  0.3623 -0.0930
  841MOL0     C15945   4.393   9.737  10.540  0.0736  0.3337  0.4192
  841MOL0     C15946   4.409   9.848  10.622 -0.0502  0.1258 -0.5134
  841MOL0     C15947   4.529   9.876  10.684 -0.3035  0.4081  0.1631
  841MOL0     C15948   4.530   9.988  10.783 -1.0025  1.4562 -0.0477
  841MOL0     C15949   4.641   9.789  10.652 -0.0782  0.1984 -0.2897
  841MOL0     C15950   4.774   9.821  10.700 -0.4142  0.8458 -0.7575
  841MOL0     O15951   4.874   9.823  10.605  0.1843 -0.3296  0.2533
  841MOL0     C15952   4.995   9.832  10.649  0.1189 -0.6523 -0.5590
  841MOL0     C15953   5.078   9.722  10.658  0.3629 -0.4964 -0.8664
  841MOL0     C15954   5.210   9.739  10.706 -1.3199 -0.6018 -0.4877
  841MOL0     C15955   5.255   9.862  10.752 -1.0249  1.1165  0.4183
  841MOL0     O15956   5.374   9.875  10.810 -0.4638 -0.2923 -0.4263
  841MOL0     C15957   5.373   9.936  10.940  0.4250 -0.6383 -0.5114
  841MOL0     C15958   5.498   9.941  11.024  0.9419 -0.5432  0.1382
  841MOL0     C15959   5.460   9.996  11.157 -0.3467 -0.5819  0.1591
  841MOL0     C15960   5.576   9.996  11.257  0.4157  0.6999 -0.0601
  841MOL0     C15961   5.532  10.056  11.390 -0.5777  0.2307  0.4419
  841MOL0     C15962   5.646  10.076  11.497  0.5668 -0.0953  0.8966
  841MOL0     C15963   5.711   9.957  11.562  0.1747 -0.0329 -0.3571
  841MOL0     C15964   5.772  10.002  11.693 -0.2116  0.0359  0.2139
  841MOL0    Cl15965   5.874   9.878  11.778  0.2721  0.2177 -0.1631
  841MOL0     C15966   5.176   9.969  10.727 -0.4757 -0.8100 -0.8042
  841MOL0     C15967   5.042   9.957  10.693 -0.0268 -0.5275  0.5236
  841MOL0     O15968   4.788   9.796  10.825 -0.6711 -0.2241 -0.2144
  841MOL0     C15969   4.627   9.682  10.567 -0.6819  0.1600 -0.1814
  841MOL0     C15970   4.506   9.656  10.510  0.1698 -0.2462  0.4542
  841MOL0     N15971   3.994   9.893   9.971 -0.2772  0.3344 -0.4586
  841MOL0     N15972   3.909   9.970   9.922 -0.4793  0.3164 -0.1462
  841MOL0     C15973   4.572  10.677  10.183 -0.4454 -1.8395  0.4766
  841MOL0     C15974   4.707  10.645  10.191  0.6353  0.1987  0.9638
  841MOL0     C15975   5.052  10.380  10.289  0.5324 -0.2118  0.1264
  841MOL0     C15976   5.061  10.265  10.383 -0.2232 -0.5993  0.7818
  841MOL0     C15977   5.185  10.201  10.414  0.8516  0.3071  0.5542
  841MOL0     C15978   5.300  10.266  10.376 -0.4925 -0.3581 -0.7745
  841MOL0     O15979   5.418  10.225  10.429 -0.0432 -0.0733 -0.0140
  841MOL0     C15980   5.445  10.264  10.565  0.0626 -0.1347 -0.5067
  841MOL0     C15981   5.578  10.329  10.557 -0.3797  0.4473  0.1071
  841MOL0     C15982   5.607  10.385  10.691  0.3231 -0.1847  0.4927
  841MOL0     C15983   5.638  10.274  10.796  0.7211 -0.2827 -0.5262
  841MOL0     C15984   5.630  10.329  10.930 -0.6603  0.2664 -0.4317
  841MOL0     C15985   5.629  10.386  11.036 -0.4091  0.0113 -0.0657
  841MOL0     C15986   5.294  10.374  10.287  0.4119  0.2337  0.1440
  841MOL0     C15987   5.174  10.426  10.239 -0.8782 -0.1154  1.0016
  841MOL0     C15988   5.194  10.548  10.136  0.2019  0.1573 -0.3275
  841MOL0     H15989   4.691  10.364   9.989 -0.9636  0.6197 -1.6889
  841MOL0     H15990   4.448  10.412  10.015  0.6679 -0.0426 -0.5857
  841MOL0     H15991   4.210  10.770  10.185  3.1104  3.1672  0.0359
  841MOL0     H15992   4.318  10.723  10.304 -3.3290  2.1893  0.3867
  841MOL0     H15993   4.251  10.494  10.318  0.8413 -0.2544 -1.7830
  841MOL0     H15994   4.113  10.605  10.347  1.6761 -1.8553  0.7526
  841MOL0     H15995   4.144  10.501  10.069  0.7391 -1.3863  0.1011
  841MOL0     H15996   4.085  10.396  10.207  1.7591  1.1971  1.5949
  841MOL0     H15997   3.908  10.557  10.244  1.1784 -1.6746  0.6031
  841MOL0     H15998   3.970  10.664  10.110  1.7873 -0.5289 -0.0943
  841MOL0     H15999   3.911  10.483   9.964  2.4228  0.5946  1.4854
  841MOL0     H16000   3.766  10.542  10.058 -0.4552  2.3964  1.5918
  841MOL0     H16001   3.940  10.288  10.109  1.9539  1.3081 -3.7791
  841MOL0     H16002   3.796  10.329  10.199 -1.2511  1.7694 -0.0699
  841MOL0     H16003   3.807  10.267   9.896  2.1965 -1.3998  0.7531
  841MOL0     H16004   3.655  10.327   9.982 -1.6318 -1.4480 -1.1188
  841MOL0     H16005   3.661  10.111  10.116  1.0405 -0.9504  0.0172
  841MOL0     H16006   3.644  10.077   9.942  0.0577  1.1011 -1.5204
  841MOL0     H16007   3.847   9.977  10.246  1.0056 -3.6233  0.8247
  841MOL0     H16008   4.009   9.722  10.237  0.1119 -2.0786 -1.4655
  841MOL0     H16009   4.051   9.876  10.312 -0.3923 -2.1162 -0.8039
  841MOL0     H16010   4.245   9.808  10.089  5.0369 -4.3764  0.6582
  841MOL0     H16011   4.261   9.862  10.247 -1.5291  2.1872 -2.2588
  841MOL0     H16012   4.201   9.574  10.176 -2.2655  2.3049  0.2881
  841MOL0     H16013   4.360   9.653  10.200 -0.2432 -2.5107 -0.1791
  841MOL0     H16014   4.114   9.620  10.401 -0.3964 -1.1139 -3.1058
  841MOL0     H16015   4.256   9.524  10.412 -1.4540 -0.2167  0.1837
  841MOL0     H16016   4.321   9.908  10.643 -0.9755 -1.0640 -0.8643
  841MOL0     H16017   4.458   9.958  10.861  0.2089 -1.9008 -0.0276
  841MOL0     H16018   4.504  10.078  10.727 -2.1934  0.0915 -1.7859
  841MOL0     H16019   4.627  10.001  10.832  0.4257  3.4405 -3.1589
  841MOL0     H16020   5.040   9.628  10.619 -1.6469  0.6720 -1.8723
  841MOL0     H16021   5.274   9.654  10.729  0.9071  0.4540 -2.3476
  841MOL0     H16022   5.333  10.038  10.934 -0.0723 -0.6836  1.4035
  841MOL0     H16023   5.297   9.882  10.998  1.7374 -3.1974 -1.0173
  841MOL0     H16024   5.532   9.837  11.032 -3.1811 -1.9724  2.8310
  841MOL0     H16025   5.578  10.002  10.981  1.0245 -0.6853  0.0893
  841MOL0     H16026   5.384   9.930  11.201  0.4942 -1.3193  0.5255
  841MOL0     H16027   5.399  10.087  11.163 -1.1693 -1.2098  2.5960
  841MOL0     H16028   5.652  10.067  11.222 -0.5840  0.7793 -2.1702
  841MOL0     H16029   5.620   9.896  11.262 -0.3711  0.3928  1.3613
  841MOL0     H16030   5.491  10.156  11.376  1.8857  1.6362  2.4144
  841MOL0     H16031   5.447   9.997  11.425 -2.3016  1.6797 -1.0981
  841MOL0     H16032   5.596  10.139  11.571  1.4804  0.9738  0.6420
  841MOL0     H16033   5.723  10.141  11.455 -0.0541  0.4633  0.6037
  841MOL0     H16034   5.792   9.914  11.502 -0.3420 -1.4040 -0.1024
  841MOL0     H16035   5.640   9.876  11.582  0.1724  0.7400  3.7706
  841MOL0     H16036   5.697  10.037  11.764 -1.6046 -3.6756  0.8002
  841MOL0     H16037   5.840  10.086  11.671 -0.1400  0.1838  0.9684
  841MOL0     H16038   5.215  10.066  10.755  0.5006 -1.2058 -0.7531
  841MOL0     H16039   4.971  10.039  10.688 -1.2135 -1.5319  0.2924
  841MOL0     H16040   4.715   9.622  10.545 -0.0215  1.0957 -0.1670
  841MOL0     H16041   4.497   9.569  10.445  2.5799 -0.1903 -0.0314
  841MOL0     H16042   4.539  10.761  10.244  1.8947  0.1755 -0.8383
  841MOL0     H16043   4.782  10.706  10.239  1.7518 -0.0880 -0.3605
  841MOL0     H16044   4.974  10.233  10.439 -1.7536  7.2563  4.3743
  841MOL0     H16045   5.185  10.111  10.474  2.2427 -0.2234 -0.1790
  841MOL0     H16046   5.368  10.324  10.615 -1.3302 -2.6034  0.5360
  841MOL0     H16047   5.443  10.168  10.618 -0.7658 -0.4498 -1.0921
  841MOL0     H16048   5.585  10.402  10.475 -2.3898  0.1830 -0.3392
  841MOL0     H16049   5.654  10.253  10.535 -1.9151 -2.1727  3.0822
  841MOL0     H16050   5.694  10.451  10.684 -0.8379  1.3119 -0.7217
  841MOL0     H16051   5.523  10.449  10.720  0.8249 -0.1659  1.9720
  841MOL0     H16052   5.739  10.233  10.782  0.8763 -0.5766  1.2272
  841MOL0     H16053   5.560  10.198  10.783  1.3056 -0.8593 -0.7645
  841MOL0     H16054   5.660  10.413  11.135  0.9260 -0.8341 -0.2180
  841MOL0     H16055   5.390  10.415  10.260  1.7263 -1.6427  1.7314
  841MOL0     H16056   5.275  10.518  10.069  0.7843 -0.0856  0.4640
  841MOL0     H16057   5.111  10.579  10.071 -0.0394  1.4073  0.5337
  841MOL0     H16058   5.210  10.643  10.187 -4.9682 -0.9848  4.4986
  842MOL0     O16059   9.084   7.298   0.272 -0.7541  0.5230  0.2387
  842MOL0     C16060   9.208   7.283   0.286  1.0985 -0.9470  0.4317
  842MOL0     O16061   9.283   7.363   0.368 -0.6422  1.0086 -0.2027
  842MOL0     C16062   9.221   7.445   0.450 -0.0116 -0.1706 -0.4101
  842MOL0     C16063   9.251   7.434   0.585 -0.0544 -0.5656  0.2143
  842MOL0     C16064   9.169   7.517   0.670  0.0183  0.2283 -1.1372
  842MOL0     C16065   9.065   7.596   0.620 -0.4139  0.3905 -0.1791
  842MOL0     O16066   8.994   7.688   0.688 -0.2234 -0.2815  0.4533
  842MOL0     C16067   9.066   7.768   0.783 -0.6723 -0.0661 -0.3007
  842MOL0     C16068   8.980   7.890   0.827  0.1528 -0.7020 -0.0498
  842MOL0     C16069   8.847   7.854   0.883  0.9115 -1.2884 -0.0909
  842MOL0     C16070   8.856   7.797   1.022  0.0171  0.1280  0.0858
  842MOL0     C16071   8.902   7.897   1.131  0.0678 -0.5406 -0.1385
  842MOL0     C16072   8.884   7.825   1.262  0.4519  0.5693 -0.6596
  842MOL0     C16073   8.841   7.928   1.365  0.6854 -0.1653 -0.1067
  842MOL0     C16074   8.832   7.875   1.520 -0.7632  0.6749 -0.5985
  842MOL0     N16075   8.731   7.767   1.540  0.0911 -1.0292 -0.8370
  842MOL0     C16076   8.742   7.633   1.507  0.7691 -1.1048  0.7041
  842MOL0     C16077   8.629   7.577   1.560 -0.3353 -0.0477  0.5262
  842MOL0     C16078   8.582   7.431   1.531  0.5374 -0.8652 -0.2238
  842MOL0     C16079   8.436   7.429   1.507  0.6307  0.5053 -0.5651
  842MOL0     C16080   8.409   7.313   1.413  0.9128 -0.2065  0.1104
  842MOL0     C16081   8.461   7.174   1.448 -1.0649 -0.8000  0.3609
  842MOL0     O16082   8.557   7.124   1.353  0.2590  0.1391  0.1350
  842MOL0     C16083   8.509   7.084   1.235  0.0302 -0.7362  0.9859
  842MOL0     C16084   8.381   7.076   1.186  0.0636 -0.5951 -1.2443
  842MOL0     C16085   8.350   7.024   1.059 -0.3337 -0.6474 -0.2555
  842MOL0     C16086   8.204   6.992   1.023 -0.6223 -1.0478 -0.6045
  842MOL0     C16087   8.460   6.998   0.972 -0.7802  0.0076  0.0823
  842MOL0     C16088   8.432   6.944   0.835 -0.2573 -0.0923 -0.2206
  842MOL0     O16089   8.311   6.968   0.770  1.0218  0.0921  0.4688
  842MOL0     C16090   8.308   6.955   0.634 -0.1190 -0.3601  0.6559
  842MOL0     C16091   8.365   7.046   0.540 -0.9395 -0.1054 -0.7521
  842MOL0     C16092   8.339   7.036   0.406 -0.0906  0.3773 -0.1781
  842MOL0     C16093   8.262   6.933   0.364 -0.1067 -0.2962  0.2825
  842MOL0     O16094   8.237   6.934   0.228 -0.9921 -0.1656  0.8989
  842MOL0     C16095   8.199   6.818   0.151  0.6726  0.6216 -0.7571
  842MOL0     C16096   8.203   6.839  -0.002 -0.0789 -0.1466  0.2611
  842MOL0     C16097   8.338   6.866  -0.044  0.5232  0.4975 -0.3307
  842MOL0     C16098   8.350   6.874  -0.197  0.2843  1.0220  0.5877
  842MOL0     C16099   8.495   6.880  -0.258 -0.5852 -0.2882 -1.0443
  842MOL0     C16100   8.518   6.939  -0.399 -0.0019 -0.3036 -0.0254
  842MOL0     C16101   8.654   6.927  -0.448 -0.9221  0.4106 -0.4930
  842MOL0     C16102   8.651   6.978  -0.590  0.3851 -0.3006 -0.4247
  842MOL0    Cl16103   8.806   6.945  -0.661 -0.2403  0.0679  0.1766
  842MOL0     C16104   8.213   6.834   0.445  0.4739  0.5986 -0.0751
  842MOL0     C16105   8.229   6.848   0.581  0.4846 -1.0264 -0.2988
  842MOL0     O16106   8.532   6.910   0.780  0.2253 -0.2624  0.2669
  842MOL0     C16107   8.595   7.009   1.024 -0.0031 -0.0518 -0.0027
  842MOL0     C16108   8.612   7.043   1.156 -0.0344 -0.0700 -0.4490
  842MOL0     N16109   8.555   7.680   1.623 -0.5049  0.6143  0.4689
  842MOL0     N16110   8.616   7.785   1.609  0.1989 -0.7222 -0.4170
  842MOL0     C16111   9.036   7.592   0.488 -0.7338 -0.3875  0.5418
  842MOL0     C16112   9.124   7.533   0.394 -0.4314 -0.3622 -0.6413
  842MOL0     C16113   9.284   7.207   0.185  0.0522  0.3586 -0.0649
  842MOL0     C16114   9.418   7.238   0.161 -1.0180  0.7947  0.1323
  842MOL0     C16115   9.495   7.167   0.071  0.1294  0.2997  0.6019
  842MOL0     C16116   9.438   7.063  -0.000 -0.6083 -0.4421  0.2403
  842MOL0     O16117   9.511   6.980  -0.079  0.0282  0.0597  0.1804
  842MOL0     C16118   9.468   6.940  -0.210  0.0657  0.7785 -0.3921
  842MOL0     C16119   9.583   6.864  -0.271  0.7380  0.8505  0.8230
  842MOL0     C16120   9.724   6.925  -0.252  0.3676 -0.0761  0.3159
  842MOL0     C16121   9.797   6.950  -0.392  0.3996 -0.2374  0.0973
  842MOL0     C16122   9.820   6.822  -0.464  0.5991 -0.4535 -0.2172
  842MOL0     C16123   9.855   6.721  -0.514 -0.1246  0.1046 -0.0571
  842MOL0     C16124   9.302   7.030   0.022 -0.9440  0.2936 -0.2395
  842MOL0     C16125   9.224   7.106   0.113  0.0150  0.1791 -0.1121
  842MOL0     C16126   9.073   7.060   0.109 -1.2427 -0.3613 -0.5168
  842MOL0     H16127   9.326   7.375   0.638  1.4080 -0.2444 -1.4031
  842MOL0     H16128   9.183   7.529   0.776  0.5896 -0.7020 -1.0888
  842MOL0     H16129   9.157   7.814   0.744 -2.1709  1.6462 -2.0362
  842MOL0     H16130   9.083   7.710   0.874 -1.4604 -1.2719 -0.8902
  842MOL0     H16131   9.039   7.953   0.895 -1.9825  0.7751  0.5704
  842MOL0     H16132   8.956   7.944   0.736 -1.0744 -2.3641 -0.7634
  842MOL0     H16133   8.793   7.949   0.894 -0.4514 -1.9450 -0.7801
  842MOL0     H16134   8.789   7.798   0.809 -0.8291 -0.6720  0.7485
  842MOL0     H16135   8.757   7.765   1.056  0.1685 -0.4959 -0.0540
  842MOL0     H16136   8.923   7.711   1.014  0.5544  0.7016 -2.6744
  842MOL0     H16137   8.856   7.996   1.123  1.9990  0.8210  3.4414
  842MOL0     H16138   9.010   7.917   1.120  0.3950 -0.4397  2.4918
  842MOL0     H16139   8.805   7.749   1.259  0.3978  0.4819  1.4811
  842MOL0     H16140   8.980   7.783   1.294  1.0608  1.1581 -1.6277
  842MOL0     H16141   8.748   7.973   1.330  0.3912 -1.1039 -0.5813
  842MOL0     H16142   8.910   8.013   1.369 -1.5689  1.7808 -0.6443
  842MOL0     H16143   8.929   7.828   1.535 -1.2759  0.5890  4.2790
  842MOL0     H16144   8.817   7.957   1.592  1.9483  1.7669 -1.1541
  842MOL0     H16145   8.817   7.576   1.453  1.4656 -0.1945  0.6741
  842MOL0     H16146   8.609   7.365   1.615 -2.8124 -2.8294 -0.5212
  842MOL0     H16147   8.633   7.400   1.440  2.1179  2.7594 -0.7345
  842MOL0     H16148   8.385   7.424   1.604 -2.1500 -4.2303 -1.8869
  842MOL0     H16149   8.399   7.520   1.459  0.5878  1.6055  1.4560
  842MOL0     H16150   8.300   7.311   1.403  0.8837  2.9699 -1.7778
  842MOL0     H16151   8.444   7.340   1.313  1.5403  1.7141  0.7906
  842MOL0     H16152   8.515   7.192   1.542  2.6202 -1.6947 -1.4126
  842MOL0     H16153   8.379   7.105   1.465 -1.3560 -0.3767  0.7057
  842MOL0     H16154   8.305   7.104   1.258  1.3133  0.4697 -0.2784
  842MOL0     H16155   8.135   7.001   1.108  0.3474  1.9977 -0.0105
  842MOL0     H16156   8.204   6.890   0.983  3.3152 -1.1603 -0.7146
  842MOL0     H16157   8.178   7.069   0.950  0.1340  1.7646  1.8732
  842MOL0     H16158   8.421   7.126   0.589 -0.1198 -1.4820  0.6558
  842MOL0     H16159   8.375   7.111   0.336 -1.9144  1.0481 -0.4332
  842MOL0     H16160   8.260   6.729   0.171  1.0239  1.0123 -0.0529
  842MOL0     H16161   8.093   6.796   0.169 -0.1690  2.6210 -2.8942
  842MOL0     H16162   8.171   6.744  -0.046  1.4412 -0.3782 -0.4310
  842MOL0     H16163   8.139   6.921  -0.037 -1.3457 -1.5014 -0.7009
  842MOL0     H16164   8.404   6.788  -0.003 -1.8750 -1.7698 -0.4796
  842MOL0     H16165   8.364   6.961   0.004 -0.2785 -0.3319  1.8767
  842MOL0     H16166   8.288   6.954  -0.239  0.3217  0.2188 -1.0981
  842MOL0     H16167   8.303   6.784  -0.239  0.4982  2.3971 -3.0324
  842MOL0     H16168   8.550   6.932  -0.178 -1.5450 -2.1692  0.9435
  842MOL0     H16169   8.539   6.780  -0.256  2.6353  1.0111 -1.1347
  842MOL0     H16170   8.495   7.045  -0.415  2.5761  0.1475 -1.2709
  842MOL0     H16171   8.447   6.882  -0.460  0.0880  0.8899 -1.3187
  842MOL0     H16172   8.704   6.830  -0.458  5.4238  3.0716  1.1068
  842MOL0     H16173   8.721   6.992  -0.392  0.8137 -0.4030 -1.5569
  842MOL0     H16174   8.631   7.086  -0.582 -3.7491 -0.8260 -1.4101
  842MOL0     H16175   8.572   6.928  -0.647 -0.8704  1.0908  0.0324
  842MOL0     H16176   8.177   6.736   0.414 -1.5882  0.7020  1.7184
  842MOL0     H16177   8.178   6.777   0.645 -1.3315  1.5709  1.3603
  842MOL0     H16178   8.681   6.991   0.959 -1.1178  0.9323 -1.8490
  842MOL0     H16179   8.702   7.034   1.216 -1.3688 -0.4142  1.5847
  842MOL0     H16180   8.950   7.652   0.460  0.5806  1.4787  0.3222
  842MOL0     H16181   9.098   7.536   0.289  1.0809 -0.0170 -1.0178
  842MOL0     H16182   9.473   7.311   0.221  3.3022  0.4003 -2.8782
  842MOL0     H16183   9.602   7.184   0.062  0.5498 -2.2140  0.1625
  842MOL0     H16184   9.382   6.872  -0.203  1.3658 -0.7570  1.9645
  842MOL0     H16185   9.439   7.027  -0.269  0.5903 -0.6593 -2.9367
  842MOL0     H16186   9.567   6.830  -0.373  0.1314  2.2946  0.4047
  842MOL0     H16187   9.602   6.772  -0.215  0.1269  0.5428  0.5367
  842MOL0     H16188   9.717   7.030  -0.224 -2.1228  0.1037 -0.6901
  842MOL0     H16189   9.789   6.868  -0.185 -1.0234  0.5152  2.2376
  842MOL0     H16190   9.893   7.001  -0.388 -0.2036  0.8542  1.0598
  842MOL0     H16191   9.729   7.000  -0.462  2.6877 -0.8069 -2.7125
  842MOL0     H16192   9.883   6.620  -0.537  0.0433 -0.1885  1.3507
  842MOL0     H16193   9.275   6.941  -0.033  0.5852  1.3773 -2.9681
  842MOL0     H16194   9.054   7.033   0.213  0.8191  0.1373  0.0311
  842MOL0     H16195   9.008   7.144   0.084  0.1318  0.7613 -0.4149
  842MOL0     H16196   9.056   6.971   0.048  0.3423 -0.7933 -0.3619
  843MOL0     O16197   9.549   7.344   7.321 -0.1041  0.1631  0.7511
  843MOL0     C16198   9.491   7.344   7.215 -0.5633 -0.2804  0.2167
  843MOL0     O16199   9.354   7.333   7.204 -0.5514 -0.3813  0.3236
  843MOL0     C16200   9.277   7.315   7.312  0.2468  0.4941 -1.1500
  843MOL0     C16201   9.235   7.177   7.340  0.1506 -0.2758 -0.6467
  843MOL0     C16202   9.150   7.149   7.457  0.0141 -0.3898 -0.7670
  843MOL0     C16203   9.112   7.257   7.539  0.5672 -0.9296 -0.4686
  843MOL0     O16204   9.034   7.225   7.650 -0.0905 -0.0174  0.3911
  843MOL0     C16205   8.932   7.318   7.691  0.3767 -0.7463  0.6691
  843MOL0     C16206   8.847   7.260   7.794 -0.0156  0.0627 -0.3465
  843MOL0     C16207   8.925   7.180   7.898  0.4242 -0.3449  0.6121
  843MOL0     C16208   8.851   7.130   8.015  0.1553 -0.7496 -0.3881
  843MOL0     C16209   8.946   7.065   8.123  0.6147  0.2490  0.2995
  843MOL0     C16210   8.875   7.036   8.259  0.2202  0.2178  0.1495
  843MOL0     C16211   8.976   6.966   8.347 -0.2238 -0.2744  0.2427
  843MOL0     C16212   8.939   6.996   8.497  0.6297  0.7754 -0.8409
  843MOL0     N16213   9.022   6.897   8.573 -0.4861 -0.9500 -0.9242
  843MOL0     C16214   8.993   6.761   8.576 -0.4685  0.1110  0.8792
  843MOL0     C16215   9.099   6.713   8.653  0.4119  0.0334  0.6680
  843MOL0     C16216   9.137   6.571   8.687  0.9209 -0.5112 -0.0282
  843MOL0     C16217   9.107   6.550   8.835  0.1985 -0.1242 -1.2650
  843MOL0     C16218   9.216   6.467   8.905 -0.3583 -0.1474 -0.4836
  843MOL0     C16219   9.168   6.421   9.040 -0.2608  0.3382 -1.3361
  843MOL0     O16220   9.278   6.355   9.109 -0.0825 -0.0723 -0.3527
  843MOL0     C16221   9.309   6.219   9.074 -0.7450  0.4280 -0.8803
  843MOL0     C16222   9.433   6.178   9.124  1.0706 -1.0020 -0.3384
  843MOL0     C16223   9.494   6.060   9.089  0.8697  0.7439  0.0988
  843MOL0     C16224   9.629   6.015   9.145 -0.0412  0.6217  0.4149
  843MOL0     C16225   9.432   5.979   8.986  0.7071 -0.0697  0.0003
  843MOL0     C16226   9.492   5.857   8.914 -0.5772  1.0166  0.6990
  843MOL0     O16227   9.400   5.755   8.902  0.2330 -0.1397  0.2624
  843MOL0     C16228   9.430   5.638   8.851 -0.5895  0.7815 -0.4680
  843MOL0     C16229   9.439   5.615   8.719  0.6976 -0.3358 -0.7311
  843MOL0     C16230   9.476   5.486   8.666  0.3459 -0.3020  0.8014
  843MOL0     C16231   9.536   5.399   8.751  0.2653 -0.2846  0.1114
  843MOL0     O16232   9.606   5.287   8.706 -0.1146  0.2287 -0.4275
  843MOL0     C16233   9.673   5.280   8.583  0.4390 -1.2437 -0.4232
  843MOL0     C16234   9.762   5.166   8.581 -0.8210 -0.3816 -0.5247
  843MOL0     C16235   9.870   5.189   8.695  0.1170 -0.6115 -0.2728
  843MOL0     C16236   9.991   5.096   8.682 -0.8506  0.5702 -0.1817
  843MOL0     C16237  10.080   5.078   8.799  0.7175 -0.5784  0.0138
  843MOL0     C16238  10.186   4.972   8.755 -0.0816 -0.7996 -0.2705
  843MOL0     C16239  10.135   4.831   8.746  0.0257  0.6722  0.2736
  843MOL0     C16240  10.232   4.739   8.691 -0.2044  0.4771  0.2890
  843MOL0    Cl16241  10.150   4.599   8.626  0.0659  0.2222  0.2951
  843MOL0     C16242   9.517   5.410   8.886 -1.5990 -0.6529 -0.2134
  843MOL0     C16243   9.464   5.532   8.937 -0.4589 -0.4937 -0.1553
  843MOL0     O16244   9.616   5.859   8.876 -0.5644  0.5472 -0.7367
  843MOL0     C16245   9.297   6.015   8.941  0.0869  0.1929  0.5445
  843MOL0     C16246   9.242   6.134   8.987 -0.1277  0.7352 -1.1278
  843MOL0     N16247   9.183   6.817   8.695  0.1262 -0.0451 -0.5255
  843MOL0     N16248   9.135   6.925   8.641 -0.1768  0.6870 -0.2545
  843MOL0     C16249   9.153   7.390   7.501 -0.0269 -0.2692 -0.0660
  843MOL0     C16250   9.227   7.415   7.392  0.1146 -0.0868  1.3095
  843MOL0     C16251   9.573   7.350   7.096 -0.1692 -1.1992  0.1044
  843MOL0     C16252   9.536   7.438   7.001  0.1953 -0.8457 -0.4857
  843MOL0     C16253   9.603   7.442   6.876 -0.2730 -0.2723 -1.2791
  843MOL0     C16254   9.715   7.358   6.856 -0.5346  0.3659 -0.5146
  843MOL0     O16255   9.795   7.358   6.739 -0.5237  1.1492  0.2169
  843MOL0     C16256   9.768   7.452   6.637 -0.8257 -0.3412 -0.0811
  843MOL0     C16257   9.830   7.415   6.510 -1.0210  0.2035  0.7320
  843MOL0     C16258   9.841   7.541   6.410 -0.3585 -0.8759 -0.4685
  843MOL0     C16259   9.929   7.659   6.447 -0.2613 -1.0094  0.1262
  843MOL0     C16260   9.932   7.751   6.338 -0.2517 -0.1636 -0.5181
  843MOL0     C16261   9.938   7.844   6.262  0.0297  0.1692  0.8732
  843MOL0     C16262   9.738   7.260   6.947  0.5992  0.4982 -0.3388
  843MOL0     C16263   9.672   7.254   7.063  0.0369  0.3630 -0.2104
  843MOL0     C16264   9.714   7.142   7.156 -0.2088 -0.6991 -0.6035
  843MOL0     H16265   9.285   7.089   7.301 -1.6232 -1.6531 -0.0042
  843MOL0     H16266   9.116   7.048   7.476 -2.0602 -0.2383 -3.1788
  843MOL0     H16267   8.861   7.337   7.610  0.6625  1.4305  0.8535
  843MOL0     H16268   8.967   7.412   7.734  1.1852 -0.8544  0.2670
  843MOL0     H16269   8.783   7.332   7.844  1.8152  0.1627  1.9870
  843MOL0     H16270   8.777   7.190   7.746  0.6146 -0.5839 -0.3343
  843MOL0     H16271   8.967   7.092   7.847  0.2180  0.8317 -1.7422
  843MOL0     H16272   9.012   7.234   7.936  0.2958 -1.3526  2.4424
  843MOL0     H16273   8.808   7.216   8.068  2.4678  0.9560 -1.0635
  843MOL0     H16274   8.762   7.071   7.993 -0.7327 -0.5269  2.3133
  843MOL0     H16275   9.037   7.124   8.141 -0.7853  1.9283  2.3221
  843MOL0     H16276   8.977   6.970   8.079  0.3241 -1.3560  3.3434
  843MOL0     H16277   8.853   7.131   8.307  0.3256  0.5035 -0.3573
  843MOL0     H16278   8.784   6.976   8.249 -0.3819  0.9799  0.9363
  843MOL0     H16279   9.079   7.002   8.340  0.0904 -1.0574  0.6080
  843MOL0     H16280   8.968   6.858   8.330 -0.0764  0.0879 -2.4727
  843MOL0     H16281   8.967   7.097   8.529  1.2605  0.1972  0.4949
  843MOL0     H16282   8.837   6.975   8.530  1.6183 -2.2547  0.5744
  843MOL0     H16283   8.909   6.709   8.531 -0.5781  1.1527 -0.1608
  843MOL0     H16284   9.242   6.555   8.664  0.5524 -0.8953 -1.5350
  843MOL0     H16285   9.078   6.509   8.619  0.5452 -2.4323  1.9261
  843MOL0     H16286   9.087   6.644   8.885  1.4354  0.6698 -2.1942
  843MOL0     H16287   9.016   6.493   8.854  1.6007 -1.7079  1.3012
  843MOL0     H16288   9.267   6.385   8.853  3.6728 -0.7634  3.7331
  843MOL0     H16289   9.292   6.545   8.914 -0.3319 -0.2825  0.6695
  843MOL0     H16290   9.153   6.515   9.093  0.6546 -1.0331  1.6004
  843MOL0     H16291   9.076   6.363   9.038  0.0186 -0.3148  1.1682
  843MOL0     H16292   9.477   6.242   9.200 -2.0991  2.5047 -1.1757
  843MOL0     H16293   9.704   6.057   9.077  2.0808 -0.0645  2.2006
  843MOL0     H16294   9.642   5.907   9.154 -0.4213  0.5748  0.4172
  843MOL0     H16295   9.663   6.061   9.239  0.4330  0.0920  0.5069
  843MOL0     H16296   9.386   5.688   8.658 -3.2826 -1.2297  1.3133
  843MOL0     H16297   9.475   5.469   8.558 -4.9764  2.6186  0.0649
  843MOL0     H16298   9.601   5.273   8.500  1.3492  0.6432 -1.4410
  843MOL0     H16299   9.732   5.372   8.575 -1.4243  0.2482  1.8220
  843MOL0     H16300   9.712   5.070   8.598 -1.4661  0.3278  1.9287
  843MOL0     H16301   9.796   5.173   8.477 -2.1473 -0.6748 -1.0082
  843MOL0     H16302   9.827   5.161   8.792  0.0915  4.9330  1.6936
  843MOL0     H16303   9.897   5.294   8.709  2.5297 -0.8119 -2.6253
  843MOL0     H16304  10.048   5.126   8.594 -0.0907 -3.4600 -1.2548
  843MOL0     H16305   9.948   4.999   8.653  0.3194  0.1440 -0.5363
  843MOL0     H16306  10.141   5.168   8.815 -2.1723  1.9170 -1.9690
  843MOL0     H16307  10.022   5.055   8.889  1.1988 -0.1205  0.4481
  843MOL0     H16308  10.270   4.974   8.826 -0.0264 -1.6111 -0.3082
  843MOL0     H16309  10.215   4.999   8.653 -2.8087 -2.1744 -1.4994
  843MOL0     H16310  10.044   4.823   8.685  1.2996  1.5544 -1.8484
  843MOL0     H16311  10.099   4.798   8.844 -1.0408 -0.4491 -0.4633
  843MOL0     H16312  10.320   4.713   8.751  0.2378 -0.1221 -0.5893
  843MOL0     H16313  10.270   4.775   8.595 -0.1546 -0.8850 -0.2211
  843MOL0     H16314   9.566   5.343   8.957 -2.4818 -2.0928 -0.9137
  843MOL0     H16315   9.467   5.546   9.045 -1.1502 -1.0483 -0.0605
  843MOL0     H16316   9.256   5.960   8.857 -0.0240  1.7943 -0.4962
  843MOL0     H16317   9.151   6.168   8.940 -0.2389  1.8528 -0.1442
  843MOL0     H16318   9.113   7.474   7.557 -0.2106 -0.7242  0.4927
  843MOL0     H16319   9.251   7.521   7.385 -0.6315  0.0151 -3.3687
  843MOL0     H16320   9.454   7.506   7.021  1.3144  0.5858 -0.6208
  843MOL0     H16321   9.574   7.519   6.806 -0.2037  0.6598 -0.3031
  843MOL0     H16322   9.662   7.442   6.614 -1.2162 -0.7834  1.7509
  843MOL0     H16323   9.796   7.551   6.673  0.5477 -0.8727  0.3823
  843MOL0     H16324   9.773   7.341   6.453  1.0128  1.4435 -3.3121
  843MOL0     H16325   9.924   7.363   6.531 -2.4253 -1.6717  2.8874
  843MOL0     H16326   9.868   7.502   6.312  0.4923 -3.4745  0.7049
  843MOL0     H16327   9.745   7.594   6.407 -1.3368 -2.4642  0.6504
  843MOL0     H16328  10.025   7.614   6.476  0.9782  0.9498 -0.7399
  843MOL0     H16329   9.897   7.711   6.538 -0.0922  1.6955 -1.2882
  843MOL0     H16330   9.938   7.912   6.179  0.2079 -0.0451  0.6971
  843MOL0     H16331   9.808   7.179   6.930  0.4489 -0.4469  2.9794
  843MOL0     H16332   9.616   7.092   7.157 -1.5328  1.7115  1.0064
  843MOL0     H16333   9.799   7.079   7.130  0.4510 -0.9446  1.9093
  843MOL0     H16334   9.743   7.170   7.258 -0.6251 -2.4408  0.0274
  844MOL0     O16335   5.597   0.173   7.825  1.1914  0.2712  0.5510
  844MOL0     C16336   5.524   0.091   7.884 -0.8989 -0.0134 -0.5155
  844MOL0     O16337   5.451   0.120   7.996 -0.0856  0.3120 -0.0826
  844MOL0     C16338   5.450   0.237   8.065 -0.4205 -1.2068  0.1823
  844MOL0     C16339   5.569   0.306   8.079 -0.0141 -1.2382 -0.8102
  844MOL0     C16340   5.574   0.432   8.146  0.1443 -0.2625 -0.0805
  844MOL0     C16341   5.451   0.481   8.211 -0.1023  0.7028 -0.3142
  844MOL0     O16342   5.459   0.608   8.265 -0.2322  0.0506 -0.6066
  844MOL0     C16343   5.390   0.631   8.387  0.6263 -0.6692 -0.0909
  844MOL0     C16344   5.458   0.736   8.461 -0.9099  0.1171  0.8359
  844MOL0     C16345   5.578   0.684   8.526 -0.2981  0.0077  0.3274
  844MOL0     C16346   5.669   0.807   8.569 -0.3788  0.5134 -0.0001
  844MOL0     C16347   5.816   0.771   8.608 -0.2045  0.1747 -0.5287
  844MOL0     C16348   5.822   0.702   8.741 -1.0363  0.8685 -0.3388
  844MOL0     C16349   5.964   0.703   8.797  0.0677 -0.2752  0.0140
  844MOL0     C16350   5.953   0.632   8.928  0.1549 -0.2413 -0.8304
  844MOL0     N16351   6.088   0.603   8.985 -0.7232  0.0661 -0.5992
  844MOL0     C16352   6.112   0.520   9.090 -0.1139 -0.0711 -0.1988
  844MOL0     C16353   6.242   0.532   9.102 -0.4610  0.1257  0.4256
  844MOL0     C16354   6.321   0.446   9.198 -0.7471 -0.5253 -0.3769
  844MOL0     C16355   6.328   0.297   9.149  0.5276 -0.0346  0.1531
  844MOL0     C16356   6.414   0.196   9.227  0.4136  0.5033  0.1773
  844MOL0     C16357   6.373   0.173   9.367  0.8662 -0.7916 -0.1197
  844MOL0     O16358   6.465   0.080   9.423  0.1624 -0.0884 -0.4841
  844MOL0     C16359   6.486   0.092   9.553  0.0717 -0.3052 -0.5814
  844MOL0     C16360   6.612   0.141   9.589 -0.3764  0.6941 -0.5504
  844MOL0     C16361   6.648   0.161   9.726 -0.2666  0.1449 -0.1844
  844MOL0     C16362   6.792   0.189   9.760  0.1832 -0.0456 -0.4984
  844MOL0     C16363   6.549   0.130   9.820  0.1630  1.4565  0.3135
  844MOL0     C16364   6.569   0.155   9.965  0.4009 -0.3496 -0.7101
  844MOL0     O16365   6.643   0.267   9.996  0.5370 -0.2204 -0.7648
  844MOL0     C16366   6.666   0.296  10.130  0.2869 -0.4719  0.2216
  844MOL0     C16367   6.584   0.306  10.237  1.0752 -0.0183  0.0542
  844MOL0     C16368   6.612   0.382  10.359 -0.6174 -1.0946  1.2515
  844MOL0     C16369   6.740   0.448  10.358  1.7351  0.2044 -0.0511
  844MOL0     O16370   6.767   0.525  10.463  0.4494 -0.1677 -0.3323
  844MOL0     C16371   6.824   0.659  10.446  0.8697 -0.1547 -0.3620
  844MOL0     C16372   6.709   0.749  10.486 -0.1295  0.1985 -0.7080
  844MOL0     C16373   6.609   0.764  10.374 -1.2288 -0.2532  0.3924
  844MOL0     C16374   6.518   0.883  10.385  0.3597 -0.8380  0.2988
  844MOL0     C16375   6.402   0.887  10.285 -0.1143  0.4231  0.8236
  844MOL0     C16376   6.280   0.809  10.343 -0.6154 -0.7016  0.2750
  844MOL0     C16377   6.165   0.785  10.250 -0.5537  0.2784  0.2873
  844MOL0     C16378   6.047   0.728  10.324 -0.5731 -0.8623  0.5814
  844MOL0    Cl16379   5.890   0.802  10.272  0.5296 -0.0027 -0.4803
  844MOL0     C16380   6.831   0.439  10.258 -0.8400 -0.0627 -0.0519
  844MOL0     C16381   6.792   0.358  10.150 -0.1414 -1.2568  0.1264
  844MOL0     O16382   6.495   0.091  10.042 -1.2166  0.2051 -0.3499
  844MOL0     C16383   6.430   0.063   9.779  0.2786 -0.4078  0.7409
  844MOL0     C16384   6.399   0.045   9.648 -0.0410 -0.3589  0.8200
  844MOL0     N16385   6.303   0.628   9.016  0.3518  0.7116 -1.2348
  844MOL0     N16386   6.202   0.662   8.943  0.5567 -0.4057  0.2375
  844MOL0     C16387   5.337   0.398   8.201  0.4764  0.5205 -0.3967
  844MOL0     C16388   5.334   0.286   8.119  0.4733  0.6098 -1.2888
  844MOL0     C16389   5.530  -0.050   7.837  1.0890 -0.1993 -0.8024
  844MOL0     C16390   5.420  -0.131   7.884  0.2005  0.5463  0.4962
  844MOL0     C16391   5.413  -0.264   7.849 -0.2752 -0.0854  0.3860
  844MOL0     C16392   5.511  -0.329   7.767  0.6279  0.1262  0.2359
  844MOL0     O16393   5.491  -0.463   7.727  0.7901 -0.2778  0.0667
  844MOL0     C16394   5.400  -0.472   7.618  1.2134 -1.3674  0.1080
  844MOL0     C16395   5.452  -0.434   7.480 -0.6181 -1.1290  0.2578
  844MOL0     C16396   5.343  -0.367   7.385 -0.0122 -0.7115 -0.0744
  844MOL0     C16397   5.404  -0.277   7.268 -0.1478 -0.3025 -1.0711
  844MOL0     C16398   5.492  -0.360   7.184 -0.0878  0.3650 -0.7195
  844MOL0     C16399   5.569  -0.425   7.129 -0.2750  0.3657  0.6535
  844MOL0     C16400   5.611  -0.248   7.719 -0.4671 -0.1591 -0.4266
  844MOL0     C16401   5.622  -0.112   7.757  0.8287 -0.2153  0.2659
  844MOL0     C16402   5.748  -0.043   7.698  0.0949 -0.1635 -0.9678
  844MOL0     H16403   5.662   0.262   8.044  1.4172  0.7276  0.2923
  844MOL0     H16404   5.658   0.500   8.159  0.5902 -0.5633 -1.2960
  844MOL0     H16405   5.380   0.543   8.451  3.1496 -0.0062  1.3036
  844MOL0     H16406   5.287   0.663   8.365  0.8661  1.7457  1.9560
  844MOL0     H16407   5.498   0.811   8.393 -2.0693  0.6334  0.6985
  844MOL0     H16408   5.389   0.793   8.524 -1.6981  1.2233 -0.9568
  844MOL0     H16409   5.552   0.627   8.615 -0.1611  0.4954  0.6845
  844MOL0     H16410   5.618   0.617   8.450 -3.8622 -0.2560 -1.5387
  844MOL0     H16411   5.678   0.879   8.487 -0.7681 -2.2701 -2.6406
  844MOL0     H16412   5.629   0.851   8.661  0.8815  1.1221  0.2804
  844MOL0     H16413   5.866   0.868   8.616 -2.1706  1.1415  0.7582
  844MOL0     H16414   5.876   0.709   8.542 -0.0054 -0.5840  0.3428
  844MOL0     H16415   5.759   0.745   8.819 -1.7058  0.1134 -0.4542
  844MOL0     H16416   5.795   0.597   8.724 -1.2822  0.8442  0.1815
  844MOL0     H16417   5.988   0.806   8.823 -0.0146 -0.7163  2.0507
  844MOL0     H16418   6.034   0.650   8.731 -0.9334 -2.5415  0.6549
  844MOL0     H16419   5.895   0.697   8.994 -1.7577 -1.1443 -1.5398
  844MOL0     H16420   5.904   0.535   8.916 -0.2949 -0.0058 -0.9151
  844MOL0     H16421   6.060   0.442   9.144  0.6274 -0.5689 -0.1938
  844MOL0     H16422   6.288   0.457   9.301  0.7710  0.0120  0.0871
  844MOL0     H16423   6.428   0.468   9.195 -0.8491 -0.0445 -2.1980
  844MOL0     H16424   6.225   0.260   9.143  0.0125  1.3727  0.0605
  844MOL0     H16425   6.362   0.306   9.045 -1.4664 -2.3073 -0.8039
  844MOL0     H16426   6.408   0.108   9.163  1.3015  0.1187  0.6092
  844MOL0     H16427   6.517   0.233   9.228  1.2080 -1.5677  1.7423
  844MOL0     H16428   6.372   0.273   9.412 -1.2620  0.7057 -3.1158
  844MOL0     H16429   6.269   0.142   9.380  0.3346  0.2141 -1.6591
  844MOL0     H16430   6.698   0.150   9.524  2.1089  0.7434  2.5493
  844MOL0     H16431   6.858   0.123   9.703  0.4275 -1.1457  0.9758
  844MOL0     H16432   6.805   0.167   9.867 -3.0342 -1.1294 -0.2074
  844MOL0     H16433   6.810   0.293   9.733  1.0352 -0.6385 -2.3748
  844MOL0     H16434   6.484   0.263  10.229  1.3150 -0.8324  1.1716
  844MOL0     H16435   6.541   0.396  10.440 -1.0542  1.7940  0.4738
  844MOL0     H16436   6.913   0.674  10.509 -1.0822 -1.6175  3.0110
  844MOL0     H16437   6.848   0.679  10.341  0.4776 -0.8616 -0.5896
  844MOL0     H16438   6.658   0.704  10.571 -0.7097  2.1670  0.0479
  844MOL0     H16439   6.743   0.847  10.521 -0.9355  0.1354  0.3070
  844MOL0     H16440   6.545   0.676  10.371  1.1017 -2.1691  2.5008
  844MOL0     H16441   6.658   0.756  10.276 -2.7760 -2.9820 -0.2778
  844MOL0     H16442   6.590   0.965  10.374  0.2750 -1.0023 -1.9194
  844MOL0     H16443   6.480   0.884  10.487  1.5560  0.9785  0.7726
  844MOL0     H16444   6.364   0.988  10.266  1.7057  0.9228 -0.3373
  844MOL0     H16445   6.437   0.857  10.186  0.4532 -1.5049  1.5557
  844MOL0     H16446   6.244   0.852  10.437  0.3228 -1.5103  1.0242
  844MOL0     H16447   6.314   0.711  10.379 -0.2455  0.6837  4.1411
  844MOL0     H16448   6.200   0.709  10.179  0.1461  0.5287  0.3536
  844MOL0     H16449   6.149   0.883  10.205  1.9663  1.4224  1.6931
  844MOL0     H16450   6.054   0.753  10.430  2.9549 -0.0481  0.2771
  844MOL0     H16451   6.041   0.619  10.320 -0.6212 -0.8397 -2.2007
  844MOL0     H16452   6.926   0.491  10.254 -1.0837  0.6442  1.9599
  844MOL0     H16453   6.859   0.351  10.065 -0.2224  0.9319 -0.1739
  844MOL0     H16454   6.349   0.030   9.843 -3.7744  2.4417 -2.3544
  844MOL0     H16455   6.311  -0.004   9.608 -0.8307  1.5090  0.1987
  844MOL0     H16456   5.245   0.426   8.251  1.5248  1.6020  1.0052
  844MOL0     H16457   5.245   0.224   8.112 -1.0952  2.0260  2.9000
  844MOL0     H16458   5.348  -0.085   7.950  1.2328  1.3332  1.1044
  844MOL0     H16459   5.332  -0.320   7.894 -2.4556  1.6910 -1.1126
  844MOL0     H16460   5.382  -0.580   7.607 -1.6589 -0.7569 -2.4041
  844MOL0     H16461   5.300  -0.435   7.642  0.7045 -3.1421  0.8753
  844MOL0     H16462   5.497  -0.517   7.425  0.2144  0.7320 -2.0657
  844MOL0     H16463   5.535  -0.362   7.490 -0.9330 -0.7879  0.4429
  844MOL0     H16464   5.274  -0.443   7.346  0.5501 -0.5081 -1.5101
  844MOL0     H16465   5.288  -0.297   7.449 -2.7212 -0.6723 -2.2352
  844MOL0     H16466   5.451  -0.185   7.306  0.4312 -0.8043 -0.5410
  844MOL0     H16467   5.319  -0.248   7.206 -0.5268  0.9359 -0.0006
  844MOL0     H16468   5.654  -0.478   7.090 -1.9842 -1.4734 -0.7875
  844MOL0     H16469   5.675  -0.297   7.646  0.2208 -0.1193  0.1371
  844MOL0     H16470   5.702   0.033   7.635 -1.1221 -0.1833 -0.1383
  844MOL0     H16471   5.802   0.003   7.782  1.2569  1.6690 -2.6305
  844MOL0     H16472   5.820  -0.105   7.644 -1.4410 -0.3628 -2.9134
  845MOL0     O16473  11.105   6.170   7.975 -0.1843  0.9428  0.0717
  845MOL0     C16474  11.003   6.201   8.030  0.4422  0.2312  0.2593
  845MOL0     O16475  10.941   6.131   8.124  0.4420 -0.4300 -0.2129
  845MOL0     C16476  10.978   5.999   8.156  0.5557  0.8027  0.0199
  845MOL0     C16477  10.973   5.967   8.294  0.4560  0.0511 -0.2996
  845MOL0     C16478  11.013   5.842   8.336  0.1115  0.2899 -0.0826
  845MOL0     C16479  11.062   5.748   8.240  0.5572 -1.3582 -0.2797
  845MOL0     O16480  11.105   5.624   8.291  0.3181  0.4688  0.0469
  845MOL0     C16481  11.181   5.537   8.203  0.4166  0.4087 -0.4965
  845MOL0     C16482  11.324   5.577   8.188  0.6835  0.2860 -0.3988
  845MOL0     C16483  11.391   5.556   8.328  0.3728 -0.8560  0.6410
  845MOL0     C16484  11.549   5.578   8.326  1.4636 -1.2114  0.7399
  845MOL0     C16485  11.617   5.560   8.455 -0.4753  0.1974  0.6584
  845MOL0     C16486  11.769   5.575   8.424  0.1820  0.4687 -0.8869
  845MOL0     C16487  11.835   5.590   8.562  0.4200  0.0112 -0.1152
  845MOL0     C16488  11.835   5.464   8.651 -0.3310  0.9163  0.1332
  845MOL0     N16489  11.924   5.480   8.769  0.3352  0.1492  0.3663
  845MOL0     C16490  12.029   5.550   8.792 -0.0175  0.1566  0.7030
  845MOL0     C16491  12.097   5.509   8.901  0.1952  0.9176  0.4422
  845MOL0     C16492  12.229   5.560   8.947  1.1083  0.0924 -0.0409
  845MOL0     C16493  12.317   5.453   9.029  0.2661  0.5615  0.2814
  845MOL0     C16494  12.285   5.459   9.180  0.2194 -1.0207 -1.0961
  845MOL0     C16495  12.338   5.335   9.244 -0.6577  0.2164 -0.4002
  845MOL0     O16496  12.312   5.344   9.387 -0.6881 -0.6026  0.3159
  845MOL0     C16497  12.371   5.434   9.470 -0.2509  0.4360 -0.2391
  845MOL0     C16498  12.509   5.459   9.470  0.1140 -0.4912 -0.0762
  845MOL0     C16499  12.564   5.545   9.572  1.4279  1.0987 -0.4996
  845MOL0     C16500  12.719   5.569   9.563  1.3884  1.0359 -0.2786
  845MOL0     C16501  12.477   5.607   9.674  0.2109  1.2097 -0.4419
  845MOL0     C16502  12.515   5.694   9.786 -0.0794  0.3227 -0.6279
  845MOL0     O16503  12.402   5.754   9.847  0.3900  0.1006 -0.4492
  845MOL0     C16504  12.429   5.819   9.965  0.1236 -0.2703 -0.5518
  845MOL0     C16505  12.476   5.750  10.078  0.3165  0.0001  0.4898
  845MOL0     C16506  12.506   5.820  10.188  0.1192 -0.5004 -0.3015
  845MOL0     C16507  12.504   5.957  10.201  0.7279 -0.2499 -0.4515
  845MOL0     O16508  12.546   6.026  10.321  0.8040  0.6479  0.0115
  845MOL0     C16509  12.675   6.089  10.312  0.2046  0.4797 -0.1209
  845MOL0     C16510  12.696   6.127  10.462 -0.3038  0.4591  0.3638
  845MOL0     C16511  12.815   6.216  10.489 -0.1936  0.1613 -0.2903
  845MOL0     C16512  12.785   6.316  10.605 -0.4530 -0.3645 -0.5225
  845MOL0     C16513  12.904   6.413  10.613  0.9321 -0.3397 -0.2711
  845MOL0     C16514  12.897   6.490  10.746  0.5712  0.1472  0.2791
  845MOL0     C16515  12.965   6.626  10.752 -0.7950  0.5211  0.3453
  845MOL0     C16516  13.105   6.628  10.685  0.0792  0.7595 -0.5877
  845MOL0    Cl16517  13.154   6.795  10.668  0.2523 -0.7392 -0.4629
  845MOL0     C16518  12.430   6.022  10.103  0.3288  0.5682  0.6053
  845MOL0     C16519  12.409   5.954   9.978  0.3635 -0.6227 -0.5117
  845MOL0     O16520  12.628   5.705   9.820 -0.0933  0.3160  0.5990
  845MOL0     C16521  12.337   5.573   9.665  0.1657 -0.0774  0.3030
  845MOL0     C16522  12.289   5.486   9.568  0.2936 -1.2057 -0.2220
  845MOL0     N16523  12.006   5.415   8.969 -0.6159 -0.2872 -0.0552
  845MOL0     N16524  11.906   5.398   8.881  0.3910  0.3396 -0.6339
  845MOL0     C16525  11.065   5.787   8.105 -0.0087 -0.9395  0.1551
  845MOL0     C16526  11.026   5.912   8.058 -0.4336 -0.0125 -0.2538
  845MOL0     C16527  10.940   6.336   8.010  0.1040 -0.6243  0.2304
  845MOL0     C16528  10.945   6.377   7.869  0.7319 -0.2283  0.1892
  845MOL0     C16529  10.870   6.484   7.823  0.3642  0.6056 -0.0919
  845MOL0     C16530  10.785   6.552   7.915  0.0333 -0.2159 -1.0789
  845MOL0     O16531  10.718   6.655   7.855  0.2800 -0.3332  0.3348
  845MOL0     C16532  10.624   6.733   7.939 -0.4257 -1.8580  0.0967
  845MOL0     C16533  10.586   6.863   7.878 -0.0953 -0.5581  1.1512
  845MOL0     C16534  10.696   6.961   7.834  0.0931  0.5529  0.5277
  845MOL0     C16535  10.740   6.933   7.691  0.4358 -0.2028  0.2252
  845MOL0     C16536  10.854   7.010   7.644 -0.5455 -0.3841 -0.3810
  845MOL0     C16537  10.954   7.073   7.608  0.5094  0.0142  0.4169
  845MOL0     C16538  10.788   6.518   8.052 -0.6058 -0.4216 -0.4172
  845MOL0     C16539  10.870   6.417   8.103 -0.6322  0.3284 -1.2254
  845MOL0     C16540  10.854   6.377   8.249 -0.8390 -0.1117 -0.9091
  845MOL0     H16541  10.930   6.037   8.364 -0.7143 -1.2443  0.3381
  845MOL0     H16542  11.015   5.820   8.442  1.9324 -1.4083 -0.4081
  845MOL0     H16543  11.138   5.529   8.103 -1.8099  0.1517  0.4248
  845MOL0     H16544  11.177   5.436   8.246 -1.1498  0.3093 -0.8341
  845MOL0     H16545  11.355   5.507   8.110 -1.6066 -0.9478 -0.2641
  845MOL0     H16546  11.329   5.681   8.153 -2.9455  0.1724 -1.5846
  845MOL0     H16547  11.354   5.635   8.396 -0.6244 -0.6278 -0.1336
  845MOL0     H16548  11.371   5.456   8.366  1.5123 -2.5615 -2.8925
  845MOL0     H16549  11.587   5.516   8.245 -2.3978 -1.0848 -1.3827
  845MOL0     H16550  11.556   5.687   8.326  0.1273 -1.1102  0.4309
  845MOL0     H16551  11.606   5.455   8.484  0.2321 -0.0308  0.1176
  845MOL0     H16552  11.579   5.625   8.535 -1.3705 -0.5268  0.8374
  845MOL0     H16553  11.790   5.488   8.362 -2.2019 -1.4045  0.7325
  845MOL0     H16554  11.790   5.661   8.359 -2.2967  1.6322 -0.2725
  845MOL0     H16555  11.790   5.683   8.598  0.0718  1.4969 -3.9206
  845MOL0     H16556  11.939   5.605   8.532  0.2276  0.1131 -0.7403
  845MOL0     H16557  11.743   5.436   8.703 -1.3878  3.4039 -0.2615
  845MOL0     H16558  11.855   5.383   8.581  2.3590  1.5643  0.0421
  845MOL0     H16559  12.058   5.630   8.725 -0.7630 -1.5356 -1.8015
  845MOL0     H16560  12.216   5.655   8.999  4.0566  0.4477  0.1825
  845MOL0     H16561  12.279   5.576   8.851  0.2999 -1.5765 -0.7924
  845MOL0     H16562  12.305   5.349   8.997  1.6596  0.0555  1.2952
  845MOL0     H16563  12.423   5.476   9.011  0.2597 -1.9353 -4.5532
  845MOL0     H16564  12.331   5.548   9.224 -5.3319  1.2236  1.0135
  845MOL0     H16565  12.177   5.470   9.185 -0.4676 -4.2194 -4.4072
  845MOL0     H16566  12.291   5.247   9.200 -0.0001 -0.3255 -0.0447
  845MOL0     H16567  12.444   5.331   9.216 -1.4367 -0.9133 -3.5748
  845MOL0     H16568  12.572   5.424   9.388 -1.2918  1.6985 -2.2563
  845MOL0     H16569  12.772   5.521   9.645 -0.8039 -0.2345  0.4843
  845MOL0     H16570  12.735   5.677   9.556 -1.7795  1.7321  1.3181
  845MOL0     H16571  12.754   5.519   9.473 -1.7049 -0.5069 -0.7544
  845MOL0     H16572  12.484   5.642  10.074  1.9955  0.0380  1.6378
  845MOL0     H16573  12.556   5.764  10.267  0.5596  3.7614  2.8037
  845MOL0     H16574  12.753   6.022  10.277  1.5461  0.7851  2.1346
  845MOL0     H16575  12.672   6.170  10.238 -1.4092 -0.7807 -1.5311
  845MOL0     H16576  12.605   6.181  10.491 -0.6202  0.1971 -0.1282
  845MOL0     H16577  12.728   6.034  10.509 -0.1034 -0.1492 -0.9402
  845MOL0     H16578  12.850   6.259  10.395 -1.6353 -1.6239 -1.7088
  845MOL0     H16579  12.901   6.156  10.522 -0.6392 -0.1036  0.4125
  845MOL0     H16580  12.778   6.251  10.693 -1.6175 -1.0338 -1.0946
  845MOL0     H16581  12.704   6.388  10.590  1.6873  2.9269  2.1612
  845MOL0     H16582  12.999   6.359  10.607  0.2148 -2.0297  1.9826
  845MOL0     H16583  12.897   6.473  10.522  3.8723 -2.0320 -1.7592
  845MOL0     H16584  12.924   6.415  10.821  1.5656  0.2851  0.0814
  845MOL0     H16585  12.793   6.514  10.767  0.2389  0.1904 -1.2686
  845MOL0     H16586  12.980   6.658  10.856 -4.9079 -2.3084  2.0872
  845MOL0     H16587  12.897   6.698  10.705 -0.3565 -0.7590 -2.4804
  845MOL0     H16588  13.106   6.567  10.593 -1.8504 -0.7923  0.3424
  845MOL0     H16589  13.184   6.584  10.746  0.7454  2.4354 -0.2116
  845MOL0     H16590  12.413   6.128  10.116 -1.4873  0.4570 -0.5495
  845MOL0     H16591  12.344   5.999   9.903  0.1588 -1.5854 -0.9217
  845MOL0     H16592  12.257   5.609   9.729 -2.2300 -0.5006 -2.2469
  845MOL0     H16593  12.184   5.465   9.554  0.2964 -0.1178 -2.4415
  845MOL0     H16594  11.099   5.720   8.027 -3.3871  1.6935 -4.0260
  845MOL0     H16595  11.031   5.936   7.953  2.6969  1.2961  0.0919
  845MOL0     H16596  11.017   6.337   7.799 -0.7067  0.7550 -1.9687
  845MOL0     H16597  10.872   6.499   7.716 -2.5381 -2.4869 -0.7297
  845MOL0     H16598  10.533   6.682   7.970 -0.4320 -0.9067  1.7092
  845MOL0     H16599  10.680   6.755   8.030 -0.9998 -3.5023  0.8808
  845MOL0     H16600  10.533   6.915   7.959 -2.4854 -1.7921  0.4429
  845MOL0     H16601  10.520   6.856   7.792  1.7551  4.3983 -1.0985
  845MOL0     H16602  10.656   7.062   7.833  0.4871  0.7451 -1.7767
  845MOL0     H16603  10.775   6.949   7.909  1.8721 -7.9853 -1.5808
  845MOL0     H16604  10.657   6.956   7.624  2.0469 -0.3412 -1.9567
  845MOL0     H16605  10.771   6.829   7.674  1.3568 -0.0065  0.6018
  845MOL0     H16606  11.039   7.136   7.589 -0.6521  0.9373 -2.2776
  845MOL0     H16607  10.735   6.578   8.126 -0.2621  0.8511 -1.1595
  845MOL0     H16608  10.759   6.341   8.290  1.2507 -0.7078  4.0673
  845MOL0     H16609  10.924   6.299   8.279  0.6133  0.5988 -2.3005
  845MOL0     H16610  10.879   6.471   8.299 -0.0593  0.5014 -2.3948
  846MOL0     O16611   7.514   2.452   4.851  0.3551  0.0956 -0.0820
  846MOL0     C16612   7.529   2.335   4.868  1.2336  0.5948 -0.0780
  846MOL0     O16613   7.430   2.239   4.891  0.3556  0.6140 -0.8001
  846MOL0     C16614   7.307   2.296   4.916 -0.0729 -0.1739  0.6718
  846MOL0     C16615   7.206   2.266   4.826 -0.0153  0.7897  0.3732
  846MOL0     C16616   7.083   2.327   4.833  0.0819  0.3408  0.6292
  846MOL0     C16617   7.057   2.415   4.935  1.5504  0.5927  0.1840
  846MOL0     O16618   6.932   2.460   4.964  0.6090 -0.2776 -0.1695
  846MOL0     C16619   6.815   2.414   4.891 -0.2190 -0.3806  0.5612
  846MOL0     C16620   6.703   2.456   4.978 -1.0380 -0.3133  0.2192
  846MOL0     C16621   6.569   2.435   4.902  0.1617 -0.1127 -0.9112
  846MOL0     C16622   6.523   2.548   4.806  0.2715  0.4477 -0.8503
  846MOL0     C16623   6.380   2.533   4.759 -0.1500  0.7649  0.2206
  846MOL0     C16624   6.340   2.418   4.664 -0.6488 -0.4032 -0.5758
  846MOL0     C16625   6.423   2.398   4.529  0.0067 -0.3410  0.0893
  846MOL0     C16626   6.389   2.484   4.402  0.0900 -0.2966 -0.4590
  846MOL0     N16627   6.411   2.420   4.271  0.1625 -0.7392 -0.1512
  846MOL0     C16628   6.385   2.291   4.231  0.4192  0.1151 -0.7314
  846MOL0     C16629   6.432   2.276   4.113  0.8760 -0.3733 -0.3174
  846MOL0     C16630   6.407   2.155   4.022  0.2103 -0.0730  0.0017
  846MOL0     C16631   6.318   2.049   4.089 -0.7426  0.6763 -0.0111
  846MOL0     C16632   6.284   1.929   4.005 -0.0874 -0.5733  1.0168
  846MOL0     C16633   6.277   1.810   4.094  0.3591 -0.4205  0.5815
  846MOL0     O16634   6.179   1.811   4.197 -0.3606  0.1101 -0.1979
  846MOL0     C16635   6.036   1.808   4.190 -0.5908 -1.3995  0.1631
  846MOL0     C16636   5.965   1.841   4.309  0.6825 -0.1370  0.4886
  846MOL0     C16637   5.826   1.830   4.315 -0.4489 -0.0915  0.8574
  846MOL0     C16638   5.761   1.859   4.448  0.1160 -0.0736 -0.7054
  846MOL0     C16639   5.753   1.779   4.197 -0.8452  0.3030  0.0903
  846MOL0     C16640   5.609   1.766   4.188 -0.6375 -0.7321 -0.5371
  846MOL0     O16641   5.524   1.850   4.241  0.3531  0.0730 -0.2490
  846MOL0     C16642   5.390   1.823   4.219  0.3905  0.4316 -0.0515
  846MOL0     C16643   5.315   1.842   4.095 -0.4237 -0.3499  0.4148
  846MOL0     C16644   5.175   1.862   4.099 -1.1492 -0.8011  0.1248
  846MOL0     C16645   5.110   1.872   4.223 -0.5075 -0.3115 -0.1502
  846MOL0     O16646   4.971   1.899   4.243 -0.4364 -0.4814 -0.1496
  846MOL0     C16647   4.921   2.009   4.172  0.1140  0.8528  0.3468
  846MOL0     C16648   4.981   2.143   4.207  0.5581 -0.0922  0.0765
  846MOL0     C16649   4.981   2.160   4.356 -0.4586 -0.1240  0.2877
  846MOL0     C16650   5.017   2.307   4.406  0.7969  1.2412 -0.1058
  846MOL0     C16651   5.158   2.338   4.377 -1.2547 -1.0153  0.8211
  846MOL0     C16652   5.243   2.253   4.471 -0.2447  0.8238  0.6001
  846MOL0     C16653   5.372   2.312   4.506 -0.4123  0.9268 -0.7658
  846MOL0     C16654   5.471   2.311   4.394  0.4383 -0.3093  0.1380
  846MOL0    Cl16655   5.524   2.147   4.363 -0.0662 -0.6285 -0.1804
  846MOL0     C16656   5.178   1.832   4.335 -0.2735  0.0106 -1.3008
  846MOL0     C16657   5.319   1.813   4.339  1.0322 -0.1592  0.0817
  846MOL0     O16658   5.584   1.666   4.122  1.3905  0.2478  0.4772
  846MOL0     C16659   5.832   1.749   4.075  0.3299 -0.3023 -0.0505
  846MOL0     C16660   5.969   1.766   4.072 -1.0689 -0.5598 -1.3243
  846MOL0     N16661   6.502   2.387   4.075 -0.3122 -0.2787 -0.1350
  846MOL0     N16662   6.492   2.470   4.174  0.7927 -0.4695 -0.0317
  846MOL0     C16663   7.156   2.441   5.027  1.1944  0.6347 -0.8998
  846MOL0     C16664   7.277   2.391   5.016 -0.3826  0.3113 -0.6214
  846MOL0     C16665   7.662   2.277   4.849 -0.4858  0.0930  0.2663
  846MOL0     C16666   7.678   2.153   4.786  0.1403  0.7056  0.4878
  846MOL0     C16667   7.800   2.097   4.747  0.0980  0.3015 -0.8017
  846MOL0     C16668   7.918   2.166   4.776  0.2527  0.0894 -0.0125
  846MOL0     O16669   8.049   2.123   4.744  0.5669 -0.3938  0.5107
  846MOL0     C16670   8.069   1.985   4.707  0.1209 -0.7162  0.1250
  846MOL0     C16671   8.055   1.978   4.555  0.7063 -0.1668 -0.3855
  846MOL0     C16672   8.082   1.840   4.501 -0.1907 -0.3129 -0.2982
  846MOL0     C16673   8.054   1.847   4.351 -0.0024 -0.4396 -0.4302
  846MOL0     C16674   8.123   1.734   4.296  0.0902 -0.0002  0.8251
  846MOL0     C16675   8.184   1.646   4.242  0.1005 -0.8678 -0.3706
  846MOL0     C16676   7.908   2.288   4.842 -0.3552 -0.7376  0.0446
  846MOL0     C16677   7.777   2.354   4.874 -0.0417  0.9692 -0.6437
  846MOL0     C16678   7.775   2.490   4.943 -0.2230  0.1855  0.1805
  846MOL0     H16679   7.235   2.193   4.752  3.4041  0.6967  1.6399
  846MOL0     H16680   7.008   2.293   4.763  1.9587  2.8297 -2.9092
  846MOL0     H16681   6.819   2.305   4.883 -1.3220 -0.5269  1.6839
  846MOL0     H16682   6.810   2.456   4.790 -0.1080 -0.0673  0.6851
  846MOL0     H16683   6.702   2.421   5.082 -0.4834 -2.0701 -0.3283
  846MOL0     H16684   6.711   2.565   4.986 -0.3318 -0.3285 -0.1840
  846MOL0     H16685   6.578   2.338   4.851  0.5846 -0.4431 -0.2189
  846MOL0     H16686   6.496   2.443   4.982 -0.5841 -2.1826 -1.3096
  846MOL0     H16687   6.530   2.644   4.858  0.8492 -0.0032 -0.0869
  846MOL0     H16688   6.581   2.556   4.713  0.6000 -1.3265 -0.8320
  846MOL0     H16689   6.372   2.622   4.696  0.2625 -0.7410 -2.0650
  846MOL0     H16690   6.322   2.537   4.852  1.2895 -0.1401  1.1974
  846MOL0     H16691   6.344   2.324   4.720 -1.2899 -0.9233 -1.3779
  846MOL0     H16692   6.235   2.442   4.647 -1.3635 -1.6289  1.6468
  846MOL0     H16693   6.424   2.295   4.494 -2.3172  0.5410 -3.0141
  846MOL0     H16694   6.530   2.405   4.553 -0.4619 -0.3325  2.4297
  846MOL0     H16695   6.284   2.502   4.428  0.7369  0.7909  1.6524
  846MOL0     H16696   6.440   2.580   4.408  1.2649 -0.9281  0.1090
  846MOL0     H16697   6.308   2.231   4.277 -1.1468  2.7190  0.2479
  846MOL0     H16698   6.492   2.106   3.973 -0.1634 -1.2124  0.4481
  846MOL0     H16699   6.364   2.202   3.934  0.3188 -2.0722 -1.1818
  846MOL0     H16700   6.363   2.030   4.187 -0.2949 -0.5905 -0.4521
  846MOL0     H16701   6.225   2.104   4.106  0.7981  3.4717  0.0666
  846MOL0     H16702   6.184   1.949   3.965  1.8064  0.1350 -4.1896
  846MOL0     H16703   6.346   1.914   3.917 -1.4987  0.9128 -0.3066
  846MOL0     H16704   6.272   1.721   4.032  1.0929  1.1100 -1.8055
  846MOL0     H16705   6.375   1.810   4.143  1.8035  2.9993 -1.9105
  846MOL0     H16706   6.029   1.858   4.395 -1.8366 -1.7667  2.8303
  846MOL0     H16707   5.713   1.957   4.446 -0.8956 -0.2180  4.2011
  846MOL0     H16708   5.844   1.860   4.519 -1.0557 -1.7731  0.7821
  846MOL0     H16709   5.691   1.779   4.472 -0.5858  0.7763  0.1572
  846MOL0     H16710   5.380   1.863   4.010 -2.3306 -0.1933 -1.0693
  846MOL0     H16711   5.128   1.860   4.001  1.4602 -1.1256 -1.2075
  846MOL0     H16712   4.931   2.007   4.063 -0.3846  3.0363  0.2172
  846MOL0     H16713   4.816   1.991   4.198  0.4053 -0.1319  0.8930
  846MOL0     H16714   5.087   2.148   4.182  1.5091  0.6923  3.6896
  846MOL0     H16715   4.914   2.216   4.161 -1.1114 -1.6713 -0.1325
  846MOL0     H16716   5.052   2.094   4.407 -0.1640  0.6076  0.8440
  846MOL0     H16717   4.887   2.128   4.400 -0.3406  1.3487  1.7348
  846MOL0     H16718   4.996   2.311   4.513 -1.8895 -2.1128 -0.3069
  846MOL0     H16719   4.942   2.364   4.351  0.9991  1.7335  0.1270
  846MOL0     H16720   5.185   2.325   4.272  1.3025 -3.1277  1.6315
  846MOL0     H16721   5.164   2.446   4.395 -4.9264  0.0233 -2.6641
  846MOL0     H16722   5.264   2.159   4.419  3.9462 -0.0855  3.4399
  846MOL0     H16723   5.186   2.220   4.559 -0.9001 -1.9034 -0.7530
  846MOL0     H16724   5.411   2.267   4.598  0.6036  0.0406 -1.6002
  846MOL0     H16725   5.354   2.419   4.522  1.6264  1.4023 -1.2744
  846MOL0     H16726   5.563   2.354   4.435  2.5246 -1.5759 -2.8787
  846MOL0     H16727   5.431   2.371   4.311  1.0542  0.1677  0.1830
  846MOL0     H16728   5.132   1.821   4.433 -0.9820  3.3118 -1.1691
  846MOL0     H16729   5.372   1.789   4.431 -3.2674 -2.8370  2.1523
  846MOL0     H16730   5.785   1.714   3.984  1.2666 -1.4231 -0.1281
  846MOL0     H16731   6.024   1.739   3.983  1.7876  2.0120 -0.4792
  846MOL0     H16732   7.133   2.499   5.115  1.9917  0.6552 -0.6917
  846MOL0     H16733   7.351   2.407   5.094 -0.5040 -1.8665  0.0063
  846MOL0     H16734   7.589   2.094   4.764 -0.3936  1.5055  0.4686
  846MOL0     H16735   7.796   2.006   4.689  1.7421  0.5585 -1.3717
  846MOL0     H16736   8.175   1.965   4.726  1.2110 -2.0349 -5.5753
  846MOL0     H16737   8.006   1.912   4.759  2.4925 -0.8180  3.1538
  846MOL0     H16738   8.112   2.059   4.509 -1.2067  2.1367  1.0201
  846MOL0     H16739   7.958   2.022   4.530  1.3537  3.3311  2.4468
  846MOL0     H16740   8.181   1.805   4.530 -0.4849  0.3711  1.6551
  846MOL0     H16741   8.020   1.758   4.539  3.0919 -1.5023  3.1222
  846MOL0     H16742   8.099   1.937   4.307 -1.2384 -0.8052 -2.6332
  846MOL0     H16743   7.946   1.836   4.336  0.2463 -2.8321 -0.7954
  846MOL0     H16744   8.222   1.556   4.200  0.2353  0.1835 -2.6265
  846MOL0     H16745   8.006   2.333   4.856  0.0967 -1.7235  0.1470
  846MOL0     H16746   7.725   2.563   4.879  0.4006 -0.0637 -0.5975
  846MOL0     H16747   7.718   2.475   5.035 -2.0919  1.8462 -0.6276
  846MOL0     H16748   7.874   2.519   4.979  0.4187 -1.2953 -0.3235
  847MOL0     O16749   7.470  10.522   3.122 -0.4936 -0.4181  0.2468
  847MOL0     C16750   7.370  10.507   3.184 -0.1696  0.5223 -0.5385
  847MOL0     O16751   7.248  10.560   3.160  0.7381  0.3536  0.3049
  847MOL0     C16752   7.212  10.664   3.076  0.0350 -0.0864 -0.1912
  847MOL0     C16753   7.083  10.707   3.101  0.5600 -0.2948 -0.1963
  847MOL0     C16754   7.021  10.818   3.040 -0.0104 -0.8128 -0.1475
  847MOL0     C16755   7.097  10.897   2.960 -0.8962 -0.0481  1.4547
  847MOL0     O16756   7.046  10.996   2.891 -0.2665 -0.9601  0.5713
  847MOL0     C16757   7.114  11.117   2.892 -0.7822  0.1853 -0.4981
  847MOL0     C16758   7.148  11.155   2.748  0.4701 -0.2010 -0.5085
  847MOL0     C16759   7.022  11.152   2.650 -0.2049  1.2256  1.0603
  847MOL0     C16760   7.078  11.226   2.527 -0.1120  0.4770 -0.2203
  847MOL0     C16761   6.984  11.201   2.411  0.7490  0.0350  0.0172
  847MOL0     C16762   7.034  11.286   2.301 -1.3827  0.6537 -0.3556
  847MOL0     C16763   6.946  11.287   2.175 -0.2876  0.2221  0.4406
  847MOL0     C16764   6.990  11.391   2.057 -0.2256  0.7039 -0.3175
  847MOL0     N16765   6.878  11.411   1.966  0.0981  0.1167 -0.5254
  847MOL0     C16766   6.813  11.328   1.879  0.1970  0.8108 -0.4745
  847MOL0     C16767   6.722  11.409   1.811  0.1576  0.1491 -0.2170
  847MOL0     C16768   6.608  11.374   1.716 -0.6648 -0.6202 -0.3523
  847MOL0     C16769   6.644  11.384   1.567 -0.1923  0.4109  1.0818
  847MOL0     C16770   6.692  11.515   1.504 -0.1674 -0.4945 -0.2882
  847MOL0     C16771   6.680  11.520   1.358  1.0353  0.4485  0.5315
  847MOL0     O16772   6.747  11.408   1.299  0.2018 -0.0916  0.2834
  847MOL0     C16773   6.746  11.418   1.154  0.9089 -0.5435  0.3322
  847MOL0     C16774   6.802  11.303   1.109 -0.5327 -0.5442 -0.5238
  847MOL0     C16775   6.799  11.261   0.979 -0.3708 -0.3815 -0.5254
  847MOL0     C16776   6.846  11.118   0.956 -0.4423  1.2031  0.8888
  847MOL0     C16777   6.726  11.342   0.887  0.0752 -0.0273  0.7099
  847MOL0     C16778   6.724  11.311   0.741  0.1992  0.1415  0.2939
  847MOL0     O16779   6.630  11.367   0.668  0.2520  0.9785 -0.2865
  847MOL0     C16780   6.648  11.395   0.537  0.0375 -0.2688 -0.7844
  847MOL0     C16781   6.607  11.311   0.432  0.4654 -0.2092  0.1627
  847MOL0     C16782   6.665  11.338   0.301  0.5923  0.1223 -1.0154
  847MOL0     C16783   6.742  11.453   0.271 -0.1628  0.6927 -0.9530
  847MOL0     O16784   6.789  11.466   0.142  0.5592  0.0756 -0.0470
  847MOL0     C16785   6.825  11.603   0.108  0.4606  0.8874  0.2306
  847MOL0     C16786   6.831  11.622  -0.051  1.2824  0.0873  0.3042
  847MOL0     C16787   6.692  11.677  -0.098  0.2063  0.8208  0.1318
  847MOL0     C16788   6.558  11.635  -0.017  0.1249  0.1325  0.1189
  847MOL0     C16789   6.442  11.726  -0.062  0.3847 -1.0959  0.6790
  847MOL0     C16790   6.307  11.661  -0.035  0.0944  0.2151  0.2836
  847MOL0     C16791   6.212  11.781   0.001 -0.0043 -0.7890 -0.2133
  847MOL0     C16792   6.074  11.728  -0.018  0.9814  0.7797  0.0844
  847MOL0    Cl16793   5.968  11.806   0.102 -0.2969  0.3889 -0.1752
  847MOL0     C16794   6.763  11.551   0.380 -0.8558 -0.7405 -0.3910
  847MOL0     C16795   6.716  11.516   0.509 -0.1507  0.2352  0.5912
  847MOL0     O16796   6.824  11.257   0.687  0.6358 -0.2892  0.1438
  847MOL0     C16797   6.666  11.460   0.934  0.8281 -0.4341 -0.1344
  847MOL0     C16798   6.667  11.494   1.072 -0.0551  0.6399 -0.0879
  847MOL0     N16799   6.733  11.538   1.855 -0.0439  0.5520 -0.7742
  847MOL0     N16800   6.821  11.543   1.950  0.7904  0.5765 -0.0810
  847MOL0     C16801   7.227  10.853   2.934 -0.3508 -0.9781 -0.2411
  847MOL0     C16802   7.284  10.737   2.983  0.1344 -0.6033 -0.0112
  847MOL0     C16803   7.382  10.413   3.297 -1.0563  0.6127  0.8503
  847MOL0     C16804   7.299  10.419   3.408  0.1265  0.5599  0.5542
  847MOL0     C16805   7.313  10.324   3.512  0.9851 -0.0610 -0.4579
  847MOL0     C16806   7.405  10.233   3.514  0.6893 -0.4233  0.7728
  847MOL0     O16807   7.418  10.132   3.608 -0.0192 -0.2059  0.3055
  847MOL0     C16808   7.320  10.111   3.717 -1.0692 -0.3640  0.4708
  847MOL0     C16809   7.217  10.009   3.669 -0.9152 -0.3280 -0.2580
  847MOL0     C16810   7.108   9.980   3.769  0.4586  0.4945  0.8042
  847MOL0     C16811   7.151   9.892   3.886  0.7435 -0.6201  0.0595
  847MOL0     C16812   7.183   9.754   3.848 -0.2881  0.2232 -0.3379
  847MOL0     C16813   7.206   9.632   3.827  0.2392  0.3154  0.4710
  847MOL0     C16814   7.482  10.217   3.404 -0.1866 -0.8697 -0.5296
  847MOL0     C16815   7.476  10.298   3.292 -0.2088 -0.3000 -0.6729
  847MOL0     C16816   7.545  10.262   3.170 -0.9589 -0.2760 -0.0747
  847MOL0     H16817   7.033  10.640   3.170  0.3558  1.9360  1.9609
  847MOL0     H16818   6.919  10.852   3.057  0.8276  0.7062  2.4116
  847MOL0     H16819   7.202  11.111   2.956 -2.0645 -1.9232  1.2100
  847MOL0     H16820   7.058  11.199   2.938  0.2437  1.2860 -1.1371
  847MOL0     H16821   7.203  11.250   2.755  0.1521 -0.1254  1.6311
  847MOL0     H16822   7.223  11.083   2.714  1.0413  1.1152 -2.2005
  847MOL0     H16823   6.988  11.051   2.624 -3.1683  2.7492 -1.7113
  847MOL0     H16824   6.946  11.220   2.687 -2.3078 -0.0314 -0.7334
  847MOL0     H16825   7.078  11.333   2.553  2.6479  0.2469  1.0195
  847MOL0     H16826   7.179  11.193   2.502 -0.3924 -2.4755  2.1069
  847MOL0     H16827   6.886  11.233   2.445 -0.0885  0.7367 -2.7936
  847MOL0     H16828   6.981  11.099   2.371  1.0134 -0.5106  1.3318
  847MOL0     H16829   7.050  11.388   2.337  0.2153  0.4547 -0.4288
  847MOL0     H16830   7.142  11.273   2.289 -1.3133  1.4500 -0.6839
  847MOL0     H16831   6.841  11.299   2.204 -0.2669 -0.3571  0.7613
  847MOL0     H16832   6.952  11.206   2.101  2.4025  2.0834 -1.5947
  847MOL0     H16833   6.997  11.484   2.115 -2.6179  1.7163 -1.5097
  847MOL0     H16834   7.086  11.371   2.008 -0.1784 -0.8966  0.3555
  847MOL0     H16835   6.818  11.220   1.868 -1.0829  0.2799  2.8746
  847MOL0     H16836   6.529  11.447   1.735  1.5112  1.8143 -0.1154
  847MOL0     H16837   6.576  11.272   1.742  1.5598 -0.7730  2.2538
  847MOL0     H16838   6.720  11.311   1.535  0.2286  0.5850  1.6784
  847MOL0     H16839   6.552  11.352   1.516  0.3935  1.9610 -1.1116
  847MOL0     H16840   6.633  11.593   1.553 -1.4750 -1.2836 -0.5676
  847MOL0     H16841   6.792  11.548   1.535  0.4030 -2.4302  0.0355
  847MOL0     H16842   6.574  11.504   1.334  1.5491 -2.4352 -0.2497
  847MOL0     H16843   6.724  11.615   1.326 -0.0040  1.3646  1.7292
  847MOL0     H16844   6.850  11.245   1.187 -1.6618  0.7344  1.2141
  847MOL0     H16845   6.846  11.084   0.852  1.8741 -0.0929  1.2492
  847MOL0     H16846   6.781  11.045   1.006 -1.6225  0.3603 -1.7325
  847MOL0     H16847   6.947  11.100   0.994  0.6251  3.4031 -0.7121
  847MOL0     H16848   6.540  11.229   0.455 -0.6340  0.6649  0.1521
  847MOL0     H16849   6.664  11.261   0.225  1.4338 -3.0441  1.9366
  847MOL0     H16850   6.755  11.677   0.147 -2.4343 -1.7245  0.3894
  847MOL0     H16851   6.931  11.604   0.136  1.4112 -1.7991 -2.6164
  847MOL0     H16852   6.902  11.698  -0.084 -2.7596  2.0999 -5.3206
  847MOL0     H16853   6.857  11.531  -0.105  1.2437  1.0611 -1.4053
  847MOL0     H16854   6.686  11.642  -0.201 -0.3255 -2.0186  1.0330
  847MOL0     H16855   6.688  11.786  -0.106  1.9908  1.0575  1.7795
  847MOL0     H16856   6.577  11.650   0.089  3.4080 -0.5764 -0.2598
  847MOL0     H16857   6.536  11.528  -0.020  1.1434 -0.0715 -0.9025
  847MOL0     H16858   6.445  11.816  -0.000 -1.8928 -0.4567 -0.0614
  847MOL0     H16859   6.441  11.762  -0.165 -1.5732  0.6293  1.2365
  847MOL0     H16860   6.311  11.592   0.050 -1.3022  2.5581  2.4132
  847MOL0     H16861   6.280  11.613  -0.129  0.8586 -0.3060  0.3245
  847MOL0     H16862   6.224  11.869  -0.063 -0.4317 -1.5886 -1.4442
  847MOL0     H16863   6.222  11.810   0.106  2.5657 -3.2929  0.3654
  847MOL0     H16864   6.065  11.619  -0.007 -1.1114  0.9466  0.4891
  847MOL0     H16865   6.037  11.756  -0.117 -0.7926 -0.3266  0.3863
  847MOL0     H16866   6.819  11.642   0.360 -1.1143 -0.6813 -0.8469
  847MOL0     H16867   6.738  11.579   0.594  0.7929 -1.0580  1.3345
  847MOL0     H16868   6.622  11.527   0.861  2.0337  0.1806 -0.3261
  847MOL0     H16869   6.615  11.580   1.115 -2.7492  1.2168 -3.8968
  847MOL0     H16870   7.285  10.904   2.858 -2.0601 -0.1231 -1.0114
  847MOL0     H16871   7.383  10.700   2.957  0.5294 -1.0397  1.9172
  847MOL0     H16872   7.229  10.501   3.396 -0.5897 -0.4035 -3.4045
  847MOL0     H16873   7.240  10.334   3.593  0.5667 -0.2458 -0.8087
  847MOL0     H16874   7.376  10.070   3.802  0.9761 -0.4113 -0.8408
  847MOL0     H16875   7.285  10.205   3.760  2.2537  0.0610  2.6239
  847MOL0     H16876   7.278   9.920   3.653  0.9783  0.8762 -0.0208
  847MOL0     H16877   7.179  10.036   3.569  1.0321 -0.7044 -1.1488
  847MOL0     H16878   7.084  10.078   3.811 -2.1067  0.0349  0.5783
  847MOL0     H16879   7.018   9.943   3.718 -0.2782 -1.3852  3.2563
  847MOL0     H16880   7.070   9.891   3.959 -0.4804  2.0044 -1.1491
  847MOL0     H16881   7.239   9.933   3.938  1.5006 -1.0052 -0.8772
  847MOL0     H16882   7.215   9.533   3.787  1.8829  0.7024 -0.1990
  847MOL0     H16883   7.545  10.129   3.402 -1.0280 -1.4690 -1.1017
  847MOL0     H16884   7.606  10.171   3.170  0.1057  0.4090 -0.9170
  847MOL0     H16885   7.461  10.259   3.101 -0.7384  2.1936 -0.5508
  847MOL0     H16886   7.616  10.336   3.131  0.9265 -2.3127 -0.7274
  848MOL0     O16887   1.833  10.060   1.636 -0.2879  0.0158  0.0578
  848MOL0     C16888   1.877  10.059   1.748  0.2548  0.2679 -0.9943
  848MOL0     O16889   1.963   9.969   1.806  0.4942 -0.5756  0.0713
  848MOL0     C16890   2.014   9.873   1.726 -0.2368  0.2201 -0.6493
  848MOL0     C16891   2.130   9.920   1.656 -0.4034  0.5229  0.3713
  848MOL0     C16892   2.188   9.828   1.567  0.1661 -0.0224  0.9127
  848MOL0     C16893   2.133   9.701   1.540  0.4734  0.3833 -0.9565
  848MOL0     O16894   2.179   9.628   1.442  0.0184  0.1400  0.2544
  848MOL0     C16895   2.204   9.487   1.451 -0.1557  0.5008 -0.7603
  848MOL0     C16896   2.148   9.387   1.338  0.2793  0.5828 -0.3743
  848MOL0     C16897   2.110   9.460   1.213  1.0623  0.2507 -0.0953
  848MOL0     C16898   2.217   9.531   1.132 -0.0993 -0.4897 -0.9580
  848MOL0     C16899   2.164   9.634   1.026  0.2871  0.0214 -0.3790
  848MOL0     C16900   2.273   9.673   0.926 -0.3412  0.4194 -0.1380
  848MOL0     C16901   2.417   9.704   0.990 -0.9250 -1.1507 -0.1105
  848MOL0     C16902   2.509   9.582   0.978  0.7504 -0.0179 -0.0432
  848MOL0     N16903   2.527   9.543   0.838  0.2436 -0.7784 -0.9167
  848MOL0     C16904   2.545   9.634   0.728  0.2951 -0.5874 -0.5409
  848MOL0     C16905   2.570   9.554   0.626  0.7798 -0.2785  0.1668
  848MOL0     C16906   2.568   9.610   0.485  0.8058  0.0808  0.7672
  848MOL0     C16907   2.435   9.588   0.407  0.0728 -0.3444 -0.2445
  848MOL0     C16908   2.446   9.669   0.273 -0.1475 -0.7006 -0.4425
  848MOL0     C16909   2.312   9.660   0.203 -0.3707 -0.0211  0.2449
  848MOL0     O16910   2.338   9.709   0.066 -0.8001  0.1085  0.4666
  848MOL0     C16911   2.223   9.750   0.007  0.7544 -0.9909  0.2099
  848MOL0     C16912   2.099   9.685   0.016 -0.0336  0.0708 -0.8355
  848MOL0     C16913   1.983   9.728  -0.052 -1.3637 -0.7499  1.1698
  848MOL0     C16914   1.858   9.639  -0.050 -0.4636 -0.9303  0.4136
  848MOL0     C16915   1.986   9.856  -0.124  0.0114  0.4299  0.4459
  848MOL0     C16916   1.867   9.918  -0.190  1.3505 -0.3930 -0.2790
  848MOL0     O16917   1.842  10.051  -0.164  0.4447 -0.8278 -0.1048
  848MOL0     C16918   1.853  10.129  -0.278  0.8923  0.2921 -0.2959
  848MOL0     C16919   1.936  10.099  -0.400 -0.0338  0.1448  0.0575
  848MOL0     C16920   1.935  10.195  -0.503  0.3783  0.0129 -0.4893
  848MOL0     C16921   1.843  10.300  -0.496 -0.3054 -0.4810 -0.0337
  848MOL0     O16922   1.856  10.389  -0.601  0.0340 -0.6913 -0.2887
  848MOL0     C16923   1.747  10.452  -0.661 -0.4812  0.5453 -0.2527
  848MOL0     C16924   1.635  10.354  -0.696  0.4993  0.5108  0.2983
  848MOL0     C16925   1.513  10.428  -0.763 -0.0132  0.3180  0.0751
  848MOL0     C16926   1.528  10.459  -0.908  0.1131  0.4446 -0.3814
  848MOL0     C16927   1.497  10.334  -0.991 -0.0687 -0.2446 -0.5670
  848MOL0     C16928   1.628  10.271  -1.050 -0.7377  0.8146 -0.9633
  848MOL0     C16929   1.598  10.161  -1.151 -0.1389  0.6918  0.9158
  848MOL0     C16930   1.732  10.116  -1.213 -0.2057  0.5130  0.3950
  848MOL0    Cl16931   1.785  10.219  -1.344  0.1057  0.1531  0.3507
  848MOL0     C16932   1.761  10.325  -0.383 -0.7246 -0.1496  0.8993
  848MOL0     C16933   1.773  10.238  -0.271 -0.3481 -0.1441 -0.7093
  848MOL0     O16934   1.792   9.840  -0.247 -0.6101 -0.3924  1.1776
  848MOL0     C16935   2.115   9.906  -0.141 -1.2136  0.1458  0.5507
  848MOL0     C16936   2.230   9.855  -0.089  0.6251  0.5098 -0.7904
  848MOL0     N16937   2.560   9.417   0.668 -0.2493  0.0841  0.3222
  848MOL0     N16938   2.542   9.412   0.796 -0.0298 -0.0712 -1.0435
  848MOL0     C16939   2.020   9.661   1.610 -1.3600  0.7173 -0.1139
  848MOL0     C16940   1.968   9.736   1.712  0.9519 -0.4146 -0.8182
  848MOL0     C16941   1.831  10.159   1.849  0.4292 -0.3545 -0.1058
  848MOL0     C16942   1.705  10.140   1.918 -0.4711  0.8095  0.6302
  848MOL0     C16943   1.662  10.240   2.004  0.2611  0.4442 -0.9065
  848MOL0     C16944   1.745  10.354   2.028 -0.0896  0.4838  0.8765
  848MOL0     O16945   1.694  10.453   2.106  0.0227  0.0840  0.1060
  848MOL0     C16946   1.756  10.575   2.120 -0.3061 -1.1854 -0.0842
  848MOL0     C16947   1.680  10.654   2.229  0.7171  1.1107  0.7834
  848MOL0     C16948   1.697  10.593   2.371 -0.0983 -0.4353 -0.1945
  848MOL0     C16949   1.607  10.675   2.474 -0.4419 -0.0450  0.3298
  848MOL0     C16950   1.685  10.806   2.487  0.4876 -0.4265 -0.0758
  848MOL0     C16951   1.761  10.895   2.505 -0.2108  0.3628  0.1201
  848MOL0     C16952   1.878  10.359   1.971  0.1050 -0.2579  0.6130
  848MOL0     C16953   1.918  10.263   1.883  0.7667 -0.8811 -0.1944
  848MOL0     C16954   2.054  10.278   1.824  1.0837 -0.2528  0.2343
  848MOL0     H16955   2.177  10.017   1.671  0.4772  0.1653 -0.0061
  848MOL0     H16956   2.275   9.870   1.516  0.8265  2.9493  4.0967
  848MOL0     H16957   2.162   9.430   1.535  1.0994 -2.3087 -1.9208
  848MOL0     H16958   2.313   9.479   1.453 -0.0677  1.2038 -2.0116
  848MOL0     H16959   2.234   9.320   1.326  1.8960  2.4786  0.0464
  848MOL0     H16960   2.074   9.320   1.382  1.7081 -0.7399  0.0931
  848MOL0     H16961   2.067   9.390   1.142  1.5688 -0.1726  0.0095
  848MOL0     H16962   2.035   9.530   1.252  1.5887 -0.1729  1.7436
  848MOL0     H16963   2.284   9.583   1.200  0.4872 -1.2593 -0.9302
  848MOL0     H16964   2.281   9.457   1.083 -0.7292 -1.9530  0.3409
  848MOL0     H16965   2.138   9.719   1.091  1.4208 -1.4036  2.0785
  848MOL0     H16966   2.070   9.612   0.975 -0.2135  1.2057 -0.0158
  848MOL0     H16967   2.281   9.590   0.854  0.4384  1.0837 -0.8351
  848MOL0     H16968   2.237   9.757   0.867 -0.5440  0.9914  0.7881
  848MOL0     H16969   2.400   9.743   1.091 -4.0964 -3.0989  0.2540
  848MOL0     H16970   2.475   9.783   0.940  0.4326 -2.8577 -1.3632
  848MOL0     H16971   2.605   9.614   1.020  2.6872  0.6845 -4.3895
  848MOL0     H16972   2.470   9.498   1.035  0.2546  2.2399  3.2154
  848MOL0     H16973   2.531   9.741   0.718 -4.8381 -1.0146 -0.6247
  848MOL0     H16974   2.638   9.555   0.422  1.2212  1.8933 -0.4392
  848MOL0     H16975   2.577   9.719   0.489  0.9966  0.1162 -0.4568
  848MOL0     H16976   2.417   9.483   0.383 -2.0206 -0.1467  0.2570
  848MOL0     H16977   2.353   9.625   0.469 -0.2585 -0.3741 -0.6604
  848MOL0     H16978   2.477   9.772   0.291 -0.8803 -0.4199 -0.7322
  848MOL0     H16979   2.518   9.610   0.214  1.0159 -1.0806  1.2962
  848MOL0     H16980   2.279   9.555   0.198  2.3404 -1.1375  2.5946
  848MOL0     H16981   2.233   9.710   0.259 -0.0722 -1.7741  2.3958
  848MOL0     H16982   2.078   9.592   0.068 -0.0562  0.3811 -0.2780
  848MOL0     H16983   1.856   9.580   0.042 -0.6098 -0.7539  0.5221
  848MOL0     H16984   1.864   9.566  -0.132 -1.5164 -3.2752  2.3200
  848MOL0     H16985   1.767   9.698  -0.060 -0.1321 -0.6821 -1.5246
  848MOL0     H16986   1.996  10.009  -0.411 -1.8356 -1.2980  1.2260
  848MOL0     H16987   1.991  10.205  -0.595  0.8362  0.7116 -0.1483
  848MOL0     H16988   1.715  10.538  -0.602 -0.1809  1.9158 -2.0208
  848MOL0     H16989   1.786  10.496  -0.753  1.9102  2.6249  1.6128
  848MOL0     H16990   1.673  10.272  -0.759  0.0601  0.0385  0.6360
  848MOL0     H16991   1.599  10.310  -0.603  3.9605 -1.5013  0.8664
  848MOL0     H16992   1.485  10.524  -0.717 -4.0615 -0.1086 -1.1174
  848MOL0     H16993   1.429  10.361  -0.745  0.6995  0.2363  3.9848
  848MOL0     H16994   1.628  10.498  -0.932 -0.9138  2.8938 -1.0687
  848MOL0     H16995   1.473  10.549  -0.940  0.1887 -0.0171 -1.8811
  848MOL0     H16996   1.440  10.262  -0.931 -1.3679  0.1482 -1.2855
  848MOL0     H16997   1.423  10.370  -1.064 -1.1754 -0.2102  0.5479
  848MOL0     H16998   1.697  10.235  -0.973  0.6368 -1.0932 -2.9696
  848MOL0     H16999   1.688  10.338  -1.112  2.0907 -0.7038 -0.0259
  848MOL0     H17000   1.523  10.175  -1.228  0.6724 -2.6885 -0.6852
  848MOL0     H17001   1.563  10.079  -1.088  0.9305 -0.6758 -0.1954
  848MOL0     H17002   1.724  10.019  -1.263  0.7713 -0.6055  2.2917
  848MOL0     H17003   1.814  10.110  -1.141  0.1126 -0.3476 -0.0299
  848MOL0     H17004   1.704  10.417  -0.372  1.4956  1.1117  2.8732
  848MOL0     H17005   1.707  10.250  -0.185  2.3642  1.4595  1.3218
  848MOL0     H17006   2.114   9.998  -0.199 -2.6954  0.5192  1.1280
  848MOL0     H17007   2.327   9.902  -0.100  0.1166  1.0875 -3.5449
  848MOL0     H17008   1.985   9.560   1.591  1.8425 -0.4135 -0.7004
  848MOL0     H17009   1.890   9.687   1.770 -0.0981 -2.4283 -3.6709
  848MOL0     H17010   1.644  10.054   1.891  0.3912  0.7224 -1.2516
  848MOL0     H17011   1.563  10.239   2.049  0.3832  0.4676 -0.6318
  848MOL0     H17012   1.856  10.568   2.163  0.3728  0.2164 -1.3845
  848MOL0     H17013   1.755  10.633   2.027 -0.7935  0.2629  0.7943
  848MOL0     H17014   1.572  10.652   2.209  0.3508 -2.1661  2.3541
  848MOL0     H17015   1.715  10.757   2.226 -1.3736  1.8636  0.8073
  848MOL0     H17016   1.657  10.491   2.366 -4.9462  1.0607  2.0370
  848MOL0     H17017   1.803  10.611   2.392  0.9821 -4.8080 -0.8963
  848MOL0     H17018   1.607  10.632   2.575 -1.2151  2.0657  1.2771
  848MOL0     H17019   1.502  10.690   2.449 -0.3564 -1.4650 -1.0499
  848MOL0     H17020   1.812  10.984   2.533 -0.9858  0.1906  2.2789
  848MOL0     H17021   1.949  10.437   1.998 -1.4698  0.5922  2.6122
  848MOL0     H17022   2.062  10.378   1.780 -1.6538  0.5607  1.4440
  848MOL0     H17023   2.129  10.272   1.904 -0.0722  1.4332  1.5218
  848MOL0     H17024   2.079  10.204   1.747  1.6831 -2.0335  2.0697
  849MOL0     O17025   0.647   2.946   9.422 -0.4409 -0.7471 -0.3608
  849MOL0     C17026   0.759   2.893   9.434 -0.9913  1.0615 -0.0041
  849MOL0     O17027   0.775   2.777   9.497  0.0315  0.2950  0.8208
  849MOL0     C17028   0.664   2.700   9.510  0.2154  0.5820  0.3820
  849MOL0     C17029   0.643   2.607   9.409  0.6548 -0.6440 -0.0746
  849MOL0     C17030   0.544   2.510   9.415  0.0805 -1.5849  0.4930
  849MOL0     C17031   0.475   2.490   9.532  0.4186 -0.0741 -0.7840
  849MOL0     O17032   0.399   2.382   9.545 -0.5631  0.5130 -0.2034
  849MOL0     C17033   0.415   2.271   9.446  0.3097 -0.2964  0.4091
  849MOL0     C17034   0.322   2.152   9.475 -0.6560 -0.0528 -0.0391
  849MOL0     C17035   0.193   2.183   9.545  0.4720 -0.5487  0.0286
  849MOL0     C17036   0.127   2.054   9.579  0.1981  0.4758  0.0237
  849MOL0     C17037  -0.018   2.053   9.639 -0.0438  0.0611  0.2350
  849MOL0     C17038  -0.103   1.922   9.637  0.1253  0.3328  1.3348
  849MOL0     C17039  -0.242   1.966   9.680 -0.4320  0.1365  0.4539
  849MOL0     C17040  -0.264   2.011   9.835 -0.3079 -0.7322 -0.9115
  849MOL0     N17041  -0.399   2.015   9.874 -0.1399 -0.2724 -0.8180
  849MOL0     C17042  -0.456   1.950   9.985 -0.2391  0.7206 -0.1736
  849MOL0     C17043  -0.594   1.984   9.983 -0.3910  0.8646  0.9555
  849MOL0     C17044  -0.682   1.965  10.101  0.6689 -0.6717  0.3450
  849MOL0     C17045  -0.703   1.818  10.138  0.3680 -0.7508 -0.7862
  849MOL0     C17046  -0.753   1.788  10.281 -0.3555  0.9004  0.2604
  849MOL0     C17047  -0.763   1.643  10.318 -0.1149  0.0567  0.2537
  849MOL0     O17048  -0.633   1.580  10.333  0.2904  0.3555 -0.3525
  849MOL0     C17049  -0.618   1.448  10.378  0.7326 -0.1440  0.6255
  849MOL0     C17050  -0.726   1.355  10.400  0.3061  0.4945 -0.7537
  849MOL0     C17051  -0.702   1.218  10.446 -1.2447 -0.5286  0.7363
  849MOL0     C17052  -0.819   1.132  10.458 -0.0209  0.4826  0.3668
  849MOL0     C17053  -0.564   1.179  10.477 -0.1105  0.7006 -0.9721
  849MOL0     C17054  -0.520   1.048  10.523 -0.6827  0.0437  0.5004
  849MOL0     O17055  -0.439   1.041  10.624 -0.9513 -0.6801 -0.2568
  849MOL0     C17056  -0.387   0.921  10.672 -1.0026 -0.6023  1.0107
  849MOL0     C17057  -0.271   0.872  10.616 -0.1905 -0.2186  0.4226
  849MOL0     C17058  -0.201   0.773  10.685 -0.5853 -0.3685  0.3118
  849MOL0     C17059  -0.251   0.721  10.811  0.3986  0.5693  0.0668
  849MOL0     O17060  -0.185   0.624  10.903 -0.6521 -0.1511 -0.3659
  849MOL0     C17061  -0.042   0.607  10.876  0.7089  0.5790  0.0684
  849MOL0     C17062   0.030   0.531  10.982 -0.4526  0.2224 -0.5500
  849MOL0     C17063   0.170   0.501  10.932  0.3352 -0.1038 -0.5598
  849MOL0     C17064   0.232   0.386  11.008 -0.7035 -0.0947  0.4172
  849MOL0     C17065   0.383   0.370  10.989  0.8130 -0.1394  0.2545
  849MOL0     C17066   0.424   0.256  11.090  0.0584  0.0919 -0.7124
  849MOL0     C17067   0.578   0.226  11.085  0.3746 -0.5176 -0.0334
  849MOL0     C17068   0.625   0.170  10.948  0.0264 -0.2055 -0.5685
  849MOL0    Cl17069   0.512   0.047  10.887  0.3517  0.4480  0.1563
  849MOL0     C17070  -0.375   0.774  10.856 -0.9360  0.4834 -0.3725
  849MOL0     C17071  -0.436   0.879  10.798 -0.8051 -0.0314  0.5556
  849MOL0     O17072  -0.563   0.948  10.471 -0.1116 -1.2205 -0.1057
  849MOL0     C17073  -0.464   1.275  10.458 -0.3039  0.0566 -0.4281
  849MOL0     C17074  -0.486   1.408  10.418  0.6283  0.2522  0.8547
  849MOL0     N17075  -0.617   2.056   9.867  0.0800 -0.0792  0.0999
  849MOL0     N17076  -0.495   2.083   9.808 -0.1889 -0.1691 -0.2887
  849MOL0     C17077   0.492   2.581   9.639  0.5344 -0.1675  0.4028
  849MOL0     C17078   0.583   2.683   9.625 -0.6268 -0.1708 -1.1743
  849MOL0     C17079   0.887   2.967   9.393  0.2957  0.7276 -0.4123
  849MOL0     C17080   1.001   2.936   9.455 -0.7055  0.1259 -0.2479
  849MOL0     C17081   1.116   2.997   9.418 -0.3737 -0.5600  0.7605
  849MOL0     C17082   1.134   3.082   9.307 -0.3685 -0.4397  0.4975
  849MOL0     O17083   1.265   3.102   9.263  0.5141  1.0334 -0.0394
  849MOL0     C17084   1.286   3.190   9.147  0.1835 -0.6035 -1.2935
  849MOL0     C17085   1.279   3.122   9.010 -0.0570 -0.0282  0.4819
  849MOL0     C17086   1.408   3.070   8.949 -0.3548 -0.3237 -0.9849
  849MOL0     C17087   1.492   3.181   8.895 -0.7047  0.0751  0.4574
  849MOL0     C17088   1.635   3.134   8.871 -1.1791 -0.5436  0.2670
  849MOL0     C17089   1.753   3.095   8.861 -0.7186 -1.2432  0.4970
  849MOL0     C17090   1.013   3.128   9.242 -0.7168  0.0328 -1.2797
  849MOL0     C17091   0.893   3.076   9.296  0.2991 -0.6529  0.3397
  849MOL0     C17092   0.760   3.141   9.241 -0.4249 -1.5594 -0.4904
  849MOL0     H17093   0.713   2.614   9.326  1.0481  1.7541  0.3740
  849MOL0     H17094   0.533   2.459   9.320 -1.9791  3.1041 -2.1676
  849MOL0     H17095   0.517   2.233   9.436 -0.3245 -2.3512  1.3171
  849MOL0     H17096   0.388   2.310   9.347  1.5404  4.4262  1.6473
  849MOL0     H17097   0.301   2.101   9.380  0.2815 -1.1751  0.3345
  849MOL0     H17098   0.372   2.077   9.536 -1.0173  0.0819  0.4230
  849MOL0     H17099   0.208   2.229   9.643  1.2334 -1.6816  0.4707
  849MOL0     H17100   0.130   2.251   9.486  1.7301  1.7080  1.1565
  849MOL0     H17101   0.128   1.981   9.497  2.1748  0.2984  0.1551
  849MOL0     H17102   0.201   2.003   9.642 -1.9498 -1.0125  1.4697
  849MOL0     H17103  -0.066   2.130   9.578 -1.0725 -0.0720  0.8575
  849MOL0     H17104  -0.008   2.105   9.735  0.3043 -0.2098  0.3495
  849MOL0     H17105  -0.105   1.863   9.545 -0.8036  0.3166  1.3600
  849MOL0     H17106  -0.063   1.854   9.712 -1.1877 -1.8081  0.1816
  849MOL0     H17107  -0.291   1.869   9.667  1.6743 -0.6645 -2.5119
  849MOL0     H17108  -0.292   2.042   9.618 -1.5164  1.0529  2.3715
  849MOL0     H17109  -0.211   1.952   9.910 -1.6210  0.6393  1.2040
  849MOL0     H17110  -0.227   2.113   9.846 -1.9515 -0.1444 -0.5798
  849MOL0     H17111  -0.408   1.891  10.062 -1.5356 -1.0730 -0.6805
  849MOL0     H17112  -0.766   2.034  10.086  1.3121 -0.5157 -3.2509
  849MOL0     H17113  -0.623   1.997  10.187  3.1771 -0.2536 -1.4369
  849MOL0     H17114  -0.774   1.783  10.064  1.8169 -0.6385 -2.2888
  849MOL0     H17115  -0.607   1.768  10.122  1.3767 -1.2543  4.7509
  849MOL0     H17116  -0.684   1.829  10.355 -4.3547  0.9606  4.4288
  849MOL0     H17117  -0.844   1.844  10.305 -0.8859  0.5938 -0.9542
  849MOL0     H17118  -0.821   1.647  10.410 -1.5569  1.1668 -0.6468
  849MOL0     H17119  -0.827   1.585  10.250 -1.9314  0.4859  1.5329
  849MOL0     H17120  -0.826   1.392  10.384  0.4872  0.7714 -1.2532
  849MOL0     H17121  -0.797   1.025  10.450 -0.7919  0.4615 -2.7685
  849MOL0     H17122  -0.877   1.153  10.368  0.3758 -0.9615 -0.2503
  849MOL0     H17123  -0.873   1.155  10.550 -0.8953  2.1126 -0.5051
  849MOL0     H17124  -0.242   0.903  10.517  0.7192 -1.0781  0.4062
  849MOL0     H17125  -0.110   0.728  10.644  0.5439  1.3935  0.7725
  849MOL0     H17126  -0.041   0.543  10.787 -0.2506 -2.8033  2.2593
  849MOL0     H17127  -0.001   0.708  10.874  1.4108  0.2860 -0.9678
  849MOL0     H17128   0.029   0.596  11.069  2.5890 -1.1571  0.6663
  849MOL0     H17129  -0.034   0.447  11.012 -0.3765  0.4326  0.1961
  849MOL0     H17130   0.223   0.596  10.941  3.7196 -1.5010 -3.3278
  849MOL0     H17131   0.181   0.488  10.824  1.9626  2.3287 -0.7476
  849MOL0     H17132   0.175   0.299  10.974 -1.6881  0.0058  1.7292
  849MOL0     H17133   0.215   0.392  11.116  0.4608  0.4839  0.5856
  849MOL0     H17134   0.415   0.352  10.886  1.4124  2.2665 -0.0346
  849MOL0     H17135   0.429   0.467  11.013  0.3032 -0.0786  1.0402
  849MOL0     H17136   0.365   0.164  11.080  1.3875 -0.9846  0.7824
  849MOL0     H17137   0.402   0.297  11.189 -0.5512 -1.3452 -0.2272
  849MOL0     H17138   0.592   0.151  11.163 -0.0386 -0.6065 -0.0439
  849MOL0     H17139   0.630   0.319  11.108  0.8070 -0.7001 -0.2561
  849MOL0     H17140   0.722   0.126  10.968 -0.0435 -0.1948 -0.2064
  849MOL0     H17141   0.647   0.250  10.877 -0.2240  0.8772  0.5409
  849MOL0     H17142  -0.410   0.725  10.946  0.3512 -2.8589 -1.5203
  849MOL0     H17143  -0.520   0.935  10.836 -2.3087 -1.9647  0.2629
  849MOL0     H17144  -0.361   1.253  10.484 -0.5611  0.6974  1.2143
  849MOL0     H17145  -0.406   1.476  10.389  1.3637 -1.9175 -2.8338
  849MOL0     H17146   0.451   2.548   9.733  2.4566 -1.1517  0.9603
  849MOL0     H17147   0.601   2.754   9.704  0.5418 -0.3540 -1.2561
  849MOL0     H17148   1.002   2.864   9.535  3.5323  0.2926  0.0829
  849MOL0     H17149   1.213   2.967   9.458 -1.3713 -1.3991  2.6606
  849MOL0     H17150   1.223   3.279   9.140  3.3915  1.9861  0.3892
  849MOL0     H17151   1.387   3.230   9.161  0.0825  0.3765 -3.0639
  849MOL0     H17152   1.225   3.180   8.936  0.3194 -1.6761 -1.1744
  849MOL0     H17153   1.220   3.034   9.035 -1.1605  0.6909  0.4394
  849MOL0     H17154   1.465   3.021   9.029 -1.0846 -1.6024 -1.2311
  849MOL0     H17155   1.386   2.995   8.873 -1.1873  0.7277 -1.8251
  849MOL0     H17156   1.498   3.259   8.971 -0.0058 -2.4954  3.2000
  849MOL0     H17157   1.438   3.217   8.807 -0.4602 -2.7814 -0.9713
  849MOL0     H17158   1.850   3.056   8.841 -0.3245  0.0556 -0.2042
  849MOL0     H17159   1.009   3.205   9.166 -3.5603  0.4882 -0.7449
  849MOL0     H17160   0.776   3.218   9.165 -1.4662  0.0025  0.8315
  849MOL0     H17161   0.703   3.058   9.197  0.2306 -0.6118 -3.3672
  849MOL0     H17162   0.701   3.191   9.318 -1.4487  1.5915 -3.0757
  850MOL0     O17163   5.759   9.590   2.049 -0.3131 -0.3309  0.7819
  850MOL0     C17164   5.832   9.676   2.097  0.2004 -0.7471 -0.5411
  850MOL0     O17165   5.792   9.774   2.189 -0.0115 -1.4136  0.4606
  850MOL0     C17166   5.662   9.808   2.208  0.7725  0.8748 -0.9561
  850MOL0     C17167   5.557   9.718   2.225  0.7625  0.6833 -1.1469
  850MOL0     C17168   5.428   9.761   2.274  0.1243 -0.8345  0.4681
  850MOL0     C17169   5.403   9.897   2.291 -0.4638  0.1944 -0.3558
  850MOL0     O17170   5.278   9.934   2.342 -0.0880  0.1399 -0.6338
  850MOL0     C17171   5.259  10.030   2.447  0.3553 -0.3095 -0.0109
  850MOL0     C17172   5.305   9.962   2.573  0.7949  0.1462  0.0724
  850MOL0     C17173   5.233   9.823   2.596 -0.7157  0.4097  0.5866
  850MOL0     C17174   5.082   9.819   2.582  0.8650  0.4375  0.0503
  850MOL0     C17175   5.029   9.677   2.572  0.1431 -0.7590 -0.6253
  850MOL0     C17176   4.881   9.678   2.556 -0.1461 -0.1851  0.5945
  850MOL0     C17177   4.819   9.543   2.546  0.2089  0.2499  0.0940
  850MOL0     C17178   4.675   9.555   2.517  0.0719  0.0849  0.1992
  850MOL0     N17179   4.652   9.565   2.375  0.3720 -0.1457  0.2224
  850MOL0     C17180   4.625   9.679   2.304 -0.4358  0.1154  0.0029
  850MOL0     C17181   4.601   9.631   2.184 -0.4763 -0.9226  0.7942
  850MOL0     C17182   4.541   9.718   2.068 -0.8203  1.2365 -0.4779
  850MOL0     C17183   4.624   9.831   2.030  0.2235 -0.8598 -0.8634
  850MOL0     C17184   4.571   9.879   1.899  0.7778  0.4810 -0.3830
  850MOL0     C17185   4.649   9.992   1.833 -0.5521 -0.3054 -0.2550
  850MOL0     O17186   4.568  10.073   1.749  0.1172 -0.1055 -0.3256
  850MOL0     C17187   4.629  10.169   1.672 -0.1899 -0.7840  0.0442
  850MOL0     C17188   4.771  10.176   1.655 -0.3242  0.4493 -0.2983
  850MOL0     C17189   4.836  10.281   1.595 -0.4626  0.3965  0.2753
  850MOL0     C17190   4.980  10.278   1.567 -0.6863 -0.0802 -0.3373
  850MOL0     C17191   4.753  10.388   1.546 -0.3655  0.8063 -0.0246
  850MOL0     C17192   4.803  10.519   1.478  0.1464  0.0052  0.5887
  850MOL0     O17193   4.924  10.560   1.510 -0.5192 -0.0752  0.0564
  850MOL0     C17194   4.993  10.661   1.450  0.3144 -0.6708 -0.0831
  850MOL0     C17195   5.123  10.632   1.414 -0.1406  0.0477 -0.5027
  850MOL0     C17196   5.211  10.728   1.375  0.1282 -0.1178  0.7339
  850MOL0     C17197   5.166  10.853   1.354  0.0085 -0.2084  0.0726
  850MOL0     O17198   5.245  10.931   1.278 -0.0772 -0.7683  0.8126
  850MOL0     C17199   5.234  11.074   1.283  1.2588  0.5046 -0.1199
  850MOL0     C17200   5.357  11.145   1.245 -0.0534 -0.4352  0.5668
  850MOL0     C17201   5.427  11.099   1.111  0.6117 -0.0709  0.5815
  850MOL0     C17202   5.320  11.095   0.994 -0.4561 -0.2390 -0.1665
  850MOL0     C17203   5.373  11.055   0.860 -0.8281  0.0492 -0.0711
  850MOL0     C17204   5.261  11.030   0.762 -0.4267  0.1190  0.3350
  850MOL0     C17205   5.170  11.157   0.735  0.8583 -0.2137  0.8640
  850MOL0     C17206   5.087  11.129   0.602  0.1547  0.1612 -0.6354
  850MOL0    Cl17207   5.183  11.114   0.461 -0.0625  0.0101  0.3311
  850MOL0     C17208   5.039  10.890   1.400 -0.6507 -0.3658  0.3201
  850MOL0     C17209   4.953  10.792   1.445 -0.0514 -0.4899 -0.1585
  850MOL0     O17210   4.727  10.580   1.402  0.6259 -0.2829  0.6413
  850MOL0     C17211   4.620  10.371   1.557 -0.5656 -0.1322  0.9639
  850MOL0     C17212   4.552  10.268   1.619 -0.4544 -0.9796  0.0925
  850MOL0     N17213   4.593   9.491   2.177 -0.1467  0.6697  0.2921
  850MOL0     N17214   4.631   9.454   2.299  0.2653 -0.7567 -0.0193
  850MOL0     C17215   5.515   9.990   2.282  0.6700  0.4153 -0.5423
  850MOL0     C17216   5.639   9.944   2.235  0.8205 -0.0203  0.6608
  850MOL0     C17217   5.973   9.674   2.068 -1.5826  0.2228 -0.4285
  850MOL0     C17218   6.048   9.775   2.007  0.0085  0.1835 -0.0934
  850MOL0     C17219   6.173   9.760   1.961  0.3211  0.6959  0.0994
  850MOL0     C17220   6.235   9.636   1.979  0.0460 -0.5858  1.3707
  850MOL0     O17221   6.351   9.602   1.915  0.2235  0.6119  0.1577
  850MOL0     C17222   6.419   9.472   1.946 -0.1080 -0.6379 -0.2436
  850MOL0     C17223   6.548   9.443   1.860 -0.3701  0.4354  0.0304
  850MOL0     C17224   6.668   9.509   1.933 -0.0724  0.5373 -0.4260
  850MOL0     C17225   6.801   9.492   1.860  0.0423  0.4688 -0.1709
  850MOL0     C17226   6.798   9.532   1.718 -1.0254  0.6115  0.0390
  850MOL0     C17227   6.785   9.547   1.602  0.0319 -0.5620  0.5994
  850MOL0     C17228   6.175   9.539   2.068 -0.0093 -0.5072  1.3409
  850MOL0     C17229   6.050   9.562   2.110  0.3580  0.4054 -0.7862
  850MOL0     C17230   6.009   9.458   2.212 -0.3626 -0.6623  0.3261
  850MOL0     H17231   5.570   9.616   2.192 -1.7389  0.1057 -0.5669
  850MOL0     H17232   5.343   9.698   2.298 -2.3393  1.8416 -0.5919
  850MOL0     H17233   5.153  10.055   2.454  0.0483 -1.2986 -0.9310
  850MOL0     H17234   5.307  10.124   2.420 -2.7640  0.6163 -2.9253
  850MOL0     H17235   5.413   9.945   2.581  0.9303  0.2724 -1.1876
  850MOL0     H17236   5.283  10.027   2.658  1.0945  0.6350 -0.2164
  850MOL0     H17237   5.267   9.747   2.524 -2.0384 -1.3835  1.7641
  850MOL0     H17238   5.271   9.782   2.690  3.5519 -1.1829 -1.5357
  850MOL0     H17239   5.040   9.860   2.675  1.1247 -4.7971  2.8898
  850MOL0     H17240   5.046   9.875   2.495 -2.4512 -0.9911  0.3849
  850MOL0     H17241   5.063   9.628   2.664  1.1661 -0.0027 -0.5833
  850MOL0     H17242   5.065   9.620   2.486  2.8656 -0.4013  0.2065
  850MOL0     H17243   4.825   9.729   2.635  0.0953  0.9485  0.0658
  850MOL0     H17244   4.863   9.736   2.465  1.0175  1.2409  1.2279
  850MOL0     H17245   4.843   9.489   2.639 -0.4266 -1.7145 -0.8303
  850MOL0     H17246   4.866   9.484   2.466 -0.3599  0.7432 -0.6110
  850MOL0     H17247   4.625   9.465   2.555  1.0085 -0.8015 -0.5716
  850MOL0     H17248   4.634   9.641   2.569  3.3451  1.5206  0.6694
  850MOL0     H17249   4.644   9.779   2.341  0.6164  0.5371 -1.5396
  850MOL0     H17250   4.438   9.745   2.088 -0.4544  0.1115  4.0467
  850MOL0     H17251   4.542   9.646   1.986  1.1552 -0.9107  1.2603
  850MOL0     H17252   4.603   9.908   2.105 -0.4268  0.7033 -2.5372
  850MOL0     H17253   4.729   9.804   2.023  0.1848 -0.6253 -3.4740
  850MOL0     H17254   4.573   9.790   1.835  2.8074 -0.0374  0.3242
  850MOL0     H17255   4.474   9.922   1.924 -0.0290  0.1793 -2.6998
  850MOL0     H17256   4.702  10.052   1.908  0.1803 -1.3132  0.0566
  850MOL0     H17257   4.733   9.959   1.772  0.7733  3.3786 -0.6926
  850MOL0     H17258   4.840  10.109   1.703 -0.6522  0.5546  0.3261
  850MOL0     H17259   5.029  10.185   1.597 -0.5113 -1.1439 -3.5519
  850MOL0     H17260   5.035  10.344   1.634  0.6870 -1.9065  0.4269
  850MOL0     H17261   4.998  10.296   1.461 -0.2901 -0.9322 -0.4273
  850MOL0     H17262   5.157  10.532   1.438 -1.1147  0.7584  5.1980
  850MOL0     H17263   5.311  10.698   1.344 -0.2106 -2.0762  1.4378
  850MOL0     H17264   5.155  11.110   1.216 -1.6714 -2.4360  1.4644
  850MOL0     H17265   5.216  11.116   1.382 -1.4689  1.0262 -0.7523
  850MOL0     H17266   5.311  11.238   1.210 -1.4891 -1.9321 -1.8463
  850MOL0     H17267   5.434  11.143   1.322  0.8372 -4.1857 -0.2154
  850MOL0     H17268   5.464  11.000   1.138  2.6158  0.8856  1.5661
  850MOL0     H17269   5.516  11.154   1.079 -0.8641  1.5669 -0.9879
  850MOL0     H17270   5.286  11.198   0.977 -4.1244 -1.8566 -5.2514
  850MOL0     H17271   5.234  11.034   1.024 -0.5820  0.1502  0.2751
  850MOL0     H17272   5.449  11.123   0.821 -0.1956 -2.2567 -3.3209
  850MOL0     H17273   5.431  10.963   0.872 -3.3869 -1.3974  2.4527
  850MOL0     H17274   5.196  10.950   0.798  0.8582 -1.4037 -0.6113
  850MOL0     H17275   5.304  10.993   0.668  1.6581 -1.4162  1.8093
  850MOL0     H17276   5.228  11.248   0.720  0.4644 -0.1586 -0.5223
  850MOL0     H17277   5.102  11.182   0.817  0.8829  0.9850  0.5290
  850MOL0     H17278   5.018  11.211   0.584  0.8151  0.7972 -0.3381
  850MOL0     H17279   5.029  11.038   0.619 -1.6885  0.8850 -2.5769
  850MOL0     H17280   5.005  10.992   1.391  1.4980  0.2543 -1.7135
  850MOL0     H17281   4.859  10.822   1.491  2.0006  3.7125  1.9064
  850MOL0     H17282   4.552  10.438   1.505  0.0805 -0.1670  0.0508
  850MOL0     H17283   4.445  10.256   1.630 -1.1208  2.6404 -1.2346
  850MOL0     H17284   5.509  10.089   2.326 -2.0679  0.8037 -1.5891
  850MOL0     H17285   5.721  10.015   2.240  0.6890  0.2817 -1.1174
  850MOL0     H17286   5.997   9.869   1.988  2.6430  1.4567 -1.5425
  850MOL0     H17287   6.229   9.836   1.908  2.9345 -0.9517  0.2807
  850MOL0     H17288   6.446   9.471   2.052 -1.9796  1.0381  0.3225
  850MOL0     H17289   6.356   9.384   1.933  0.3701 -0.9121 -0.7719
  850MOL0     H17290   6.542   9.482   1.759  0.3179  0.3892 -0.0359
  850MOL0     H17291   6.572   9.336   1.862  1.5941  0.7510 -2.3429
  850MOL0     H17292   6.643   9.614   1.951  3.2930  2.3296 -4.4463
  850MOL0     H17293   6.677   9.450   2.024 -1.8846  0.9662  0.0707
  850MOL0     H17294   6.838   9.390   1.854 -1.8198 -0.1837 -1.5204
  850MOL0     H17295   6.871   9.543   1.927  0.9611 -3.0599  1.7747
  850MOL0     H17296   6.774   9.553   1.496 -3.4473 -1.6178  0.8043
  850MOL0     H17297   6.224   9.448   2.100 -1.5320 -1.7874  0.1733
  850MOL0     H17298   5.962   9.526   2.284  1.9658  3.3344 -1.5288
  850MOL0     H17299   5.939   9.385   2.171 -0.5212  0.3129 -1.2317
  850MOL0     H17300   6.099   9.411   2.254  0.0900  1.2680  1.6929
  851MOL0     O17301   4.458   0.262   8.621  0.4497 -0.1915 -0.1482
  851MOL0     C17302   4.376   0.353   8.636 -0.2458  0.1169  1.1615
  851MOL0     O17303   4.274   0.350   8.726  0.1958 -0.4630  0.4257
  851MOL0     C17304   4.257   0.258   8.823  0.1296 -0.6805 -0.2367
  851MOL0     C17305   4.350   0.231   8.910 -0.5601 -0.0579 -0.6498
  851MOL0     C17306   4.319   0.135   9.011  1.0262 -0.0547  0.3824
  851MOL0     C17307   4.196   0.067   9.016  1.0219 -1.2527 -0.9283
  851MOL0     O17308   4.169  -0.032   9.106  0.2150 -0.2768 -1.1119
  851MOL0     C17309   4.136  -0.157   9.045 -0.5623 -0.5325  0.2916
  851MOL0     C17310   4.138  -0.267   9.140  0.0820  0.2104 -0.2590
  851MOL0     C17311   4.034  -0.252   9.250 -0.2258 -0.3996 -0.4692
  851MOL0     C17312   4.008  -0.375   9.328  0.6509 -1.1628  0.7466
  851MOL0     C17313   3.923  -0.347   9.455 -0.4962  0.4475 -0.4087
  851MOL0     C17314   3.915  -0.490   9.523 -0.3745  0.3966  0.3397
  851MOL0     C17315   3.806  -0.509   9.635  0.0590 -1.5575  0.0839
  851MOL0     C17316   3.665  -0.493   9.582  0.1243 -0.1504  0.4974
  851MOL0     N17317   3.623  -0.612   9.501 -0.4901 -0.3553  0.2759
  851MOL0     C17318   3.555  -0.731   9.538 -0.2826  0.7026 -0.1823
  851MOL0     C17319   3.516  -0.783   9.419  1.1425  0.9159  0.0679
  851MOL0     C17320   3.426  -0.908   9.399 -0.6705 -0.4623  0.2903
  851MOL0     C17321   3.304  -0.877   9.311  0.7296  0.2833 -0.4013
  851MOL0     C17322   3.206  -0.991   9.305 -0.6653  0.2104  0.9523
  851MOL0     C17323   3.118  -0.966   9.188 -0.3077  0.0070  0.0091
  851MOL0     O17324   3.022  -1.071   9.187 -0.0085 -0.1094 -0.1068
  851MOL0     C17325   2.935  -1.068   9.080 -0.1837 -0.6047 -1.0153
  851MOL0     C17326   2.903  -0.958   9.000 -0.5326 -0.6445 -0.2012
  851MOL0     C17327   2.802  -0.956   8.901  0.4856 -0.1235 -0.6055
  851MOL0     C17328   2.772  -0.828   8.815 -0.3945  0.5774 -0.1386
  851MOL0     C17329   2.716  -1.061   8.893 -0.5108 -0.4947  0.7141
  851MOL0     C17330   2.608  -1.055   8.806 -0.2120  0.3008  0.1282
  851MOL0     O17331   2.631  -1.133   8.696 -0.8874 -0.2221 -0.0335
  851MOL0     C17332   2.517  -1.159   8.621 -1.0036 -0.0655  0.5892
  851MOL0     C17333   2.497  -1.089   8.497 -0.4219  0.8152 -0.0111
  851MOL0     C17334   2.387  -1.129   8.420  0.6989 -0.9366 -0.1892
  851MOL0     C17335   2.291  -1.229   8.457  0.0928 -1.1352  0.0782
  851MOL0     O17336   2.184  -1.274   8.390  0.1242 -0.1916  0.5407
  851MOL0     C17337   2.189  -1.263   8.244 -0.1007 -0.4650  0.3642
  851MOL0     C17338   2.054  -1.265   8.174  0.6385  0.1256  0.6058
  851MOL0     C17339   1.982  -1.135   8.178  0.2871 -0.6854 -0.5984
  851MOL0     C17340   1.993  -1.058   8.305  0.4352 -0.4545 -0.5723
  851MOL0     C17341   1.923  -0.920   8.296 -0.1029  0.2352  0.3506
  851MOL0     C17342   1.902  -0.843   8.430  0.1361 -0.2518 -0.5529
  851MOL0     C17343   1.902  -0.691   8.443  0.7453 -0.1355  0.5105
  851MOL0     C17344   2.010  -0.630   8.353  0.2768 -0.6377  0.3798
  851MOL0    Cl17345   2.165  -0.707   8.403  1.0251  0.1324  0.5518
  851MOL0     C17346   2.313  -1.283   8.582 -0.1077 -0.1135  0.5442
  851MOL0     C17347   2.418  -1.247   8.666 -0.1045  0.0634 -0.0740
  851MOL0     O17348   2.508  -0.986   8.826 -0.1536  0.3333 -0.0642
  851MOL0     C17349   2.738  -1.169   8.982  0.3478 -0.1100 -1.0178
  851MOL0     C17350   2.850  -1.174   9.070  1.2837  0.0150  0.1446
  851MOL0     N17351   3.552  -0.701   9.313  0.5088  0.4414 -0.1931
  851MOL0     N17352   3.620  -0.603   9.363 -0.0042  0.3315  0.9835
  851MOL0     C17353   4.095   0.109   8.930  0.4485 -1.0645 -0.1375
  851MOL0     C17354   4.121   0.217   8.839 -0.8754 -0.1493  0.7619
  851MOL0     C17355   4.392   0.470   8.550  0.4174  0.1227  1.3070
  851MOL0     C17356   4.482   0.458   8.438  0.2780  0.6189  0.0564
  851MOL0     C17357   4.509   0.568   8.353 -0.8032  0.1594  0.8839
  851MOL0     C17358   4.459   0.697   8.376 -0.2347 -0.9312  0.8809
  851MOL0     O17359   4.485   0.812   8.301 -1.0738  0.3655 -0.2322
  851MOL0     C17360   4.571   0.810   8.184 -0.0346  0.3578 -1.1428
  851MOL0     C17361   4.532   0.931   8.110  0.3875 -0.2375  0.6856
  851MOL0     C17362   4.523   1.055   8.195 -0.6495  0.9185 -0.0487
  851MOL0     C17363   4.471   1.169   8.110  0.3252  0.2148 -0.5551
  851MOL0     C17364   4.447   1.289   8.190  0.5902  0.2325  1.6601
  851MOL0     C17365   4.415   1.388   8.252 -0.5512 -0.0837  0.6494
  851MOL0     C17366   4.369   0.709   8.482 -0.8930  0.5116  0.1151
  851MOL0     C17367   4.344   0.599   8.568 -0.0459  0.1016  1.2853
  851MOL0     C17368   4.256   0.623   8.687 -0.0990  0.3061  0.8689
  851MOL0     H17369   4.445   0.283   8.921 -1.5371  1.3123  2.3068
  851MOL0     H17370   4.396   0.100   9.080 -0.8294 -1.2534  1.9518
  851MOL0     H17371   4.204  -0.160   8.959 -0.5069  3.7590 -0.0252
  851MOL0     H17372   4.035  -0.161   9.003 -0.2084  0.2738 -0.6826
  851MOL0     H17373   4.118  -0.357   9.081  0.2861  0.1910 -0.2993
  851MOL0     H17374   4.244  -0.279   9.162 -0.0182 -3.2904 -1.0968
  851MOL0     H17375   4.081  -0.187   9.324  0.4774 -1.2316 -0.1632
  851MOL0     H17376   3.938  -0.211   9.216 -0.6357 -0.5159  0.5118
  851MOL0     H17377   3.954  -0.447   9.265  0.2870 -0.1342 -0.1673
  851MOL0     H17378   4.107  -0.413   9.354  0.9895 -1.3699 -0.7219
  851MOL0     H17379   3.829  -0.306   9.417 -0.9537  0.5315  0.7979
  851MOL0     H17380   3.974  -0.269   9.512  3.0470 -2.2258  0.4556
  851MOL0     H17381   3.901  -0.565   9.445 -0.5974 -0.0508  0.8120
  851MOL0     H17382   4.017  -0.503   9.560 -0.8419 -1.0316  1.1934
  851MOL0     H17383   3.820  -0.426   9.705  0.4662 -0.6221 -1.0852
  851MOL0     H17384   3.826  -0.595   9.701  1.1775 -0.7126  0.8852
  851MOL0     H17385   3.595  -0.482   9.665  1.8402  1.6160  1.8039
  851MOL0     H17386   3.668  -0.401   9.521  0.2741 -2.0996 -2.6739
  851MOL0     H17387   3.528  -0.774   9.633 -3.0890  1.4792 -0.5554
  851MOL0     H17388   3.415  -0.950   9.500  2.3053 -2.6651 -0.1684
  851MOL0     H17389   3.498  -0.981   9.360  0.8947  2.2494 -2.2539
  851MOL0     H17390   3.254  -0.787   9.347 -1.8456 -1.0080 -0.5352
  851MOL0     H17391   3.335  -0.852   9.209  2.0775  0.6324  0.0658
  851MOL0     H17392   3.265  -1.083   9.294 -0.4958  0.2236  1.7469
  851MOL0     H17393   3.153  -1.004   9.399 -1.2532 -2.9360  0.3077
  851MOL0     H17394   3.074  -0.870   9.216  2.1191  1.2796 -0.2817
  851MOL0     H17395   3.163  -0.971   9.089 -0.7288 -3.6530 -0.1217
  851MOL0     H17396   2.965  -0.870   8.997 -0.6763 -0.5446 -0.2716
  851MOL0     H17397   2.760  -0.858   8.710  0.5270 -1.6219  0.3212
  851MOL0     H17398   2.860  -0.762   8.815  0.3805 -0.4151 -1.3789
  851MOL0     H17399   2.679  -0.784   8.852 -0.6372  1.4662 -1.7373
  851MOL0     H17400   2.548  -0.997   8.467 -1.4244  1.1564 -0.7243
  851MOL0     H17401   2.380  -1.068   8.330  0.7060  0.4489  0.7244
  851MOL0     H17402   2.233  -1.169   8.209 -1.2477  0.2804  0.8562
  851MOL0     H17403   2.232  -1.352   8.198 -0.3887 -1.2696  1.5965
  851MOL0     H17404   2.067  -1.298   8.071  4.5370  2.0906  0.2843
  851MOL0     H17405   1.999  -1.352   8.212  1.6181 -2.5371 -3.4730
  851MOL0     H17406   1.877  -1.157   8.157  0.1487 -0.6508  0.0217
  851MOL0     H17407   2.006  -1.077   8.089  4.8301 -0.1411  0.7274
  851MOL0     H17408   2.099  -1.041   8.330 -0.6288  2.4570  2.9742
  851MOL0     H17409   1.960  -1.114   8.394  1.7894  1.4873  1.2705
  851MOL0     H17410   1.989  -0.867   8.226 -0.0495  2.2471  1.8181
  851MOL0     H17411   1.825  -0.923   8.248 -0.8153  0.4537  1.7324
  851MOL0     H17412   1.982  -0.885   8.492 -0.1541 -0.4286 -0.2888
  851MOL0     H17413   1.812  -0.872   8.486 -0.0958 -3.2356 -2.2654
  851MOL0     H17414   1.901  -0.656   8.547 -1.0755 -1.1535  0.8677
  851MOL0     H17415   1.818  -0.661   8.380  0.8144 -1.1934 -0.1100
  851MOL0     H17416   2.024  -0.523   8.374  0.4349 -0.1452 -1.9730
  851MOL0     H17417   1.986  -0.620   8.247  5.0682  3.0945 -0.7105
  851MOL0     H17418   2.247  -1.356   8.626  0.2295 -0.6022  0.2468
  851MOL0     H17419   2.435  -1.280   8.768 -0.0878  3.2440  1.0628
  851MOL0     H17420   2.666  -1.249   8.971 -0.0314 -0.1056  1.0069
  851MOL0     H17421   2.862  -1.271   9.117  0.2148 -0.1676  0.0639
  851MOL0     H17422   4.001   0.055   8.929 -1.7869  2.2493  3.0474
  851MOL0     H17423   4.057   0.247   8.757 -0.7536  4.1502  1.9708
  851MOL0     H17424   4.550   0.375   8.423  4.1497  3.2139  1.5941
  851MOL0     H17425   4.586   0.562   8.277  0.6356  1.5793  2.1469
  851MOL0     H17426   4.679   0.809   8.205  0.0821  0.0338 -1.7488
  851MOL0     H17427   4.542   0.726   8.120  0.4029 -0.9893  0.3649
  851MOL0     H17428   4.435   0.911   8.062  0.3112  1.5920 -0.0040
  851MOL0     H17429   4.598   0.940   8.023 -0.0099 -2.0149  0.1484
  851MOL0     H17430   4.459   1.034   8.281 -1.4461 -1.0972 -1.0786
  851MOL0     H17431   4.618   1.078   8.246  0.4580 -1.8514 -0.6771
  851MOL0     H17432   4.375   1.132   8.073 -0.8492  0.9866  1.5684
  851MOL0     H17433   4.540   1.181   8.025 -0.0909 -3.1565 -1.4855
  851MOL0     H17434   4.402   1.489   8.287  2.4861 -0.4098  3.1541
  851MOL0     H17435   4.317   0.804   8.490  0.1173  1.0789  0.0203
  851MOL0     H17436   4.237   0.731   8.689  1.4741  0.6480 -0.5969
  851MOL0     H17437   4.163   0.570   8.662 -0.4645  2.2342 -2.5357
  851MOL0     H17438   4.296   0.599   8.785  0.8651  0.3801  0.5008
  852MOL0     O17439   1.674   2.546   9.769 -0.5129 -0.4789  0.2637
  852MOL0     C17440   1.553   2.525   9.760  0.6592  0.7618  1.3267
  852MOL0     O17441   1.452   2.612   9.811  0.0590  0.2841  0.2767
  852MOL0     C17442   1.486   2.734   9.850 -0.3378 -0.0474 -0.0741
  852MOL0     C17443   1.446   2.778   9.978  0.2893  0.4365  0.6585
  852MOL0     C17444   1.465   2.906  10.028 -0.4471  0.1702  0.0958
  852MOL0     C17445   1.519   3.001   9.942 -1.0519  0.7590  0.7322
  852MOL0     O17446   1.507   3.136   9.977 -0.4400  0.1760 -0.0631
  852MOL0     C17447   1.376   3.186   9.955 -0.2079  0.5558  0.5801
  852MOL0     C17448   1.305   3.220  10.077 -0.1467 -0.3431 -0.4674
  852MOL0     C17449   1.166   3.300  10.044 -0.1379  0.4434 -0.2024
  852MOL0     C17450   1.073   3.293  10.166  0.0746 -0.3603  0.0087
  852MOL0     C17451   0.949   3.346  10.119  0.4469 -0.1556  0.3624
  852MOL0     C17452   0.828   3.325  10.217  0.3400 -0.9184  0.1285
  852MOL0     C17453   0.701   3.409  10.181  0.0518 -0.1774  0.1834
  852MOL0     C17454   0.589   3.421  10.280 -0.2437 -1.0758 -0.0743
  852MOL0     N17455   0.642   3.490  10.403  0.5094 -0.5414 -0.1933
  852MOL0     C17456   0.698   3.606  10.412 -0.3107 -1.4547 -0.1790
  852MOL0     C17457   0.750   3.622  10.536  0.9488 -0.5884  0.4777
  852MOL0     C17458   0.851   3.729  10.584  0.0223  0.9536 -0.7259
  852MOL0     C17459   0.970   3.656  10.658  0.2370  0.5954 -0.2554
  852MOL0     C17460   1.082   3.746  10.691 -0.4642 -0.4812  0.5610
  852MOL0     C17461   1.174   3.704  10.804  1.1624  0.3732 -0.3046
  852MOL0     O17462   1.261   3.814  10.851 -0.2734 -0.1031  0.2010
  852MOL0     C17463   1.376   3.792  10.924  0.7296  0.9096  0.8009
  852MOL0     C17464   1.408   3.667  10.985  0.5700  0.1618  0.7412
  852MOL0     C17465   1.537   3.637  11.034  1.1313  0.0857  0.6840
  852MOL0     C17466   1.557   3.501  11.108  0.2157 -0.0429  0.5387
  852MOL0     C17467   1.634   3.740  11.031  0.2191  0.9814 -0.2382
  852MOL0     C17468   1.773   3.730  11.089 -0.0106  0.3236 -0.7798
  852MOL0     O17469   1.862   3.837  11.064 -0.0098  0.2366 -0.5511
  852MOL0     C17470   1.985   3.825  11.133 -0.1940 -1.0052 -0.3310
  852MOL0     C17471   2.091   3.750  11.100  0.2604  0.3950  0.8761
  852MOL0     C17472   2.213   3.761  11.173  0.3403  0.2198  1.2438
  852MOL0     C17473   2.222   3.854  11.279 -1.6621  0.7282 -0.5000
  852MOL0     O17474   2.342   3.886  11.344  0.4321 -0.1426  0.0458
  852MOL0     C17475   2.460   3.811  11.322 -1.4034  0.0930  0.5423
  852MOL0     C17476   2.561   3.896  11.245 -0.1790 -0.4265 -0.6813
  852MOL0     C17477   2.694   3.812  11.214  0.3120 -0.6681 -0.3300
  852MOL0     C17478   2.788   3.819  11.335  0.5677  1.3790 -1.2993
  852MOL0     C17479   2.910   3.734  11.301  0.1935  1.0644  1.2571
  852MOL0     C17480   3.005   3.734  11.418  0.2769  1.1801 -1.0341
  852MOL0     C17481   3.145   3.687  11.405  0.1843  1.3014  0.2326
  852MOL0     C17482   3.241   3.762  11.495  0.1961  0.3685 -0.2662
  852MOL0    Cl17483   3.174   3.755  11.667 -0.8238  0.0032 -0.4101
  852MOL0     C17484   2.109   3.929  11.309 -1.4002  0.6871 -0.1672
  852MOL0     C17485   1.997   3.924  11.238  0.2551 -0.1827  0.1749
  852MOL0     O17486   1.815   3.638  11.160 -0.4427  0.0136 -0.3396
  852MOL0     C17487   1.600   3.867  10.977  0.0950 -0.2032 -0.2004
  852MOL0     C17488   1.467   3.891  10.922 -0.2938  0.0899 -0.5194
  852MOL0     N17489   0.710   3.513  10.607  0.2641  1.0675 -0.2597
  852MOL0     N17490   0.641   3.436  10.530  0.1505 -0.0124  0.4786
  852MOL0     C17491   1.582   2.960   9.823  0.0886 -0.1122  0.6920
  852MOL0     C17492   1.559   2.824   9.771  0.1361 -0.4552 -0.1140
  852MOL0     C17493   1.515   2.408   9.677 -0.1688 -0.3303 -0.1290
  852MOL0     C17494   1.613   2.343   9.596  0.8808 -0.4479  0.4969
  852MOL0     C17495   1.586   2.240   9.510  0.1959  0.4059  0.3646
  852MOL0     C17496   1.456   2.193   9.513  0.7322  0.5132  0.0651
  852MOL0     O17497   1.434   2.088   9.433  0.0037 -0.0377 -0.1708
  852MOL0     C17498   1.314   2.088   9.345 -0.0138 -0.2314  0.6509
  852MOL0     C17499   1.325   1.962   9.258  0.5778  0.6928  1.5292
  852MOL0     C17500   1.443   1.963   9.155  0.1042  0.5062  0.3868
  852MOL0     C17501   1.421   1.859   9.048 -0.8526 -0.0299 -0.4311
  852MOL0     C17502   1.543   1.831   8.973 -0.6063 -1.0176  0.2322
  852MOL0     C17503   1.632   1.829   8.888 -0.0357 -0.5179 -0.4906
  852MOL0     C17504   1.350   2.246   9.586 -0.2700  0.0161 -0.5972
  852MOL0     C17505   1.388   2.355   9.674  1.1089  0.5509  0.2548
  852MOL0     C17506   1.275   2.406   9.762 -0.5045 -0.7428  0.1015
  852MOL0     H17507   1.398   2.699  10.036  2.2685 -0.9692  0.5062
  852MOL0     H17508   1.439   2.936  10.128 -0.3569  0.0294  0.1618
  852MOL0     H17509   1.310   3.111   9.912 -1.4313 -0.0612  3.3167
  852MOL0     H17510   1.389   3.269   9.885 -2.0322 -0.0583 -0.5700
  852MOL0     H17511   1.292   3.135  10.144  1.5496  0.0878  0.4471
  852MOL0     H17512   1.361   3.286  10.143  2.8075  0.0053 -3.0915
  852MOL0     H17513   1.190   3.403  10.014 -0.5657 -0.1572 -2.7583
  852MOL0     H17514   1.118   3.250   9.960 -0.7028 -0.6095  0.7143
  852MOL0     H17515   1.062   3.188  10.195 -2.6412  0.8977  4.5763
  852MOL0     H17516   1.097   3.351  10.255  2.7180  0.2611 -1.0025
  852MOL0     H17517   0.922   3.314  10.018 -1.2085  0.6101  0.5264
  852MOL0     H17518   0.968   3.453  10.117  0.9903 -0.2339  1.0872
  852MOL0     H17519   0.802   3.219  10.222 -1.0142 -0.6688 -0.9290
  852MOL0     H17520   0.847   3.357  10.320 -1.3997 -0.1742  0.2599
  852MOL0     H17521   0.649   3.358  10.099  0.2563  0.8582 -0.6081
  852MOL0     H17522   0.718   3.511  10.145  4.8877 -0.7080  0.3392
  852MOL0     H17523   0.506   3.476  10.234  2.3862  0.4814 -3.4207
  852MOL0     H17524   0.553   3.323  10.310  0.2385 -0.8216  1.4092
  852MOL0     H17525   0.725   3.687  10.346 -0.4215  1.0063  2.6049
  852MOL0     H17526   0.791   3.799  10.642  0.0223  3.2780 -3.2904
  852MOL0     H17527   0.892   3.788  10.501  1.1420 -0.8261 -1.5133
  852MOL0     H17528   0.929   3.609  10.748 -2.2271  0.1290 -1.5304
  852MOL0     H17529   1.014   3.578  10.595  2.5322  1.3251  0.3283
  852MOL0     H17530   1.139   3.763  10.600 -1.2469 -0.2130  0.1104
  852MOL0     H17531   1.043   3.846  10.710  3.0798  1.2973 -0.5698
  852MOL0     H17532   1.107   3.677  10.885  1.5961 -0.8407 -0.3275
  852MOL0     H17533   1.233   3.615  10.779  1.0940  0.0266  0.7089
  852MOL0     H17534   1.330   3.594  11.006  2.0114 -1.2621  1.3176
  852MOL0     H17535   1.641   3.440  11.072 -0.3953 -1.6173  1.6253
  852MOL0     H17536   1.460   3.450  11.106 -1.6388  3.0461  3.1052
  852MOL0     H17537   1.577   3.503  11.215  1.9388 -0.9005  0.2836
  852MOL0     H17538   2.066   3.685  11.017  1.3262 -1.8070  2.1709
  852MOL0     H17539   2.296   3.709  11.127 -0.5043  1.4988 -2.0015
  852MOL0     H17540   2.508   3.801  11.419 -1.8239  0.9057  0.8477
  852MOL0     H17541   2.460   3.713  11.274  1.2053  0.2741  0.0764
  852MOL0     H17542   2.519   3.930  11.150 -1.4809 -0.3055 -0.0769
  852MOL0     H17543   2.585   3.989  11.297 -1.0263  1.8548 -4.0280
  852MOL0     H17544   2.749   3.864  11.134 -1.3223 -1.7590 -2.2708
  852MOL0     H17545   2.669   3.710  11.183 -2.8250 -0.8309  2.2840
  852MOL0     H17546   2.740   3.779  11.424  0.0707 -0.5991 -2.3982
  852MOL0     H17547   2.811   3.926  11.345 -3.4748  2.2687  0.4056
  852MOL0     H17548   2.878   3.634  11.272  1.1645  0.4446  2.2709
  852MOL0     H17549   2.960   3.772  11.212 -1.5809  0.3863 -0.0897
  852MOL0     H17550   2.974   3.677  11.507  5.1228 -0.7001 -0.2309
  852MOL0     H17551   3.004   3.833  11.464 -1.0007 -0.6673  3.6022
  852MOL0     H17552   3.182   3.685  11.303  0.4770 -1.6593  0.3128
  852MOL0     H17553   3.163   3.582  11.433  1.2032  1.4077  0.0008
  852MOL0     H17554   3.254   3.862  11.452 -2.0272 -0.2141 -2.5182
  852MOL0     H17555   3.341   3.719  11.505  0.6052  0.5282 -2.9803
  852MOL0     H17556   2.132   3.993  11.394  4.9667  0.0799 -0.9863
  852MOL0     H17557   1.908   3.984  11.257 -0.8964 -2.5435  3.0340
  852MOL0     H17558   1.651   3.963  10.980 -4.0080  2.2182 -0.7196
  852MOL0     H17559   1.448   3.995  10.895 -4.1683 -0.2594  0.3297
  852MOL0     H17560   1.642   3.029   9.765  1.7205 -1.3151  0.8590
  852MOL0     H17561   1.611   2.792   9.682  2.1709  0.0009  0.8586
  852MOL0     H17562   1.719   2.367   9.597  2.0305 -4.5286 -1.2018
  852MOL0     H17563   1.668   2.191   9.458 -0.6233 -1.5720  0.8471
  852MOL0     H17564   1.222   2.090   9.404 -1.3738  3.1015 -1.2680
  852MOL0     H17565   1.311   2.176   9.279  2.0847  0.2821  1.1411
  852MOL0     H17566   1.235   1.956   9.196  2.2020 -0.9576 -0.8013
  852MOL0     H17567   1.340   1.874   9.321 -3.8469 -1.8470 -0.4451
  852MOL0     H17568   1.469   2.063   9.118  0.3226  0.9491  1.6660
  852MOL0     H17569   1.537   1.942   9.207  1.4597  1.6015 -1.5157
  852MOL0     H17570   1.349   1.899   8.976 -0.6605  0.3898 -0.3932
  852MOL0     H17571   1.374   1.771   9.094 -0.7595 -0.3532 -0.9416
  852MOL0     H17572   1.708   1.841   8.813 -0.7509  2.6770 -0.8301
  852MOL0     H17573   1.252   2.206   9.609  0.0906 -0.7273 -0.2997
  852MOL0     H17574   1.193   2.335   9.773 -2.8834  1.5174 -1.9893
  852MOL0     H17575   1.307   2.424   9.866 -0.3868  0.4418 -0.1263
  852MOL0     H17576   1.229   2.496   9.721  4.6820  1.9043 -0.7459
  853MOL0     O17577  10.400   3.900  10.781  0.1387  0.3466  0.4662
  853MOL0     C17578  10.347   4.007  10.805 -0.1191  0.2792  0.4702
  853MOL0     O17579  10.417   4.121  10.841 -0.2013  0.9136 -0.2196
  853MOL0     C17580  10.541   4.107  10.896  0.1365 -0.4769 -0.0389
  853MOL0     C17581  10.622   4.228  10.873 -0.2904  0.3782  0.2002
  853MOL0     C17582  10.749   4.234  10.935 -0.8349 -0.0391  0.1801
  853MOL0     C17583  10.798   4.125  11.010  0.3980  0.1700  0.6792
  853MOL0     O17584  10.911   4.149  11.077  1.2446  0.0616 -0.1127
  853MOL0     C17585  11.006   4.039  11.107  1.0168 -0.3413 -0.0808
  853MOL0     C17586  11.002   4.005  11.253  0.4350 -0.0412 -0.1011
  853MOL0     C17587  11.096   3.899  11.300 -0.0065  0.0601 -0.5583
  853MOL0     C17588  11.083   3.841  11.449 -0.8580  0.2351  1.2238
  853MOL0     C17589  11.208   3.760  11.488 -0.3089  0.2091  0.5468
  853MOL0     C17590  11.243   3.630  11.396  0.2532  0.2602 -0.9777
  853MOL0     C17591  11.135   3.524  11.427  0.0860 -0.4392  0.1382
  853MOL0     C17592  11.139   3.410  11.336 -0.2819  0.3056  1.0806
  853MOL0     N17593  11.089   3.433  11.197  0.8052 -0.0924  0.6206
  853MOL0     C17594  11.006   3.535  11.163  0.8217 -0.4116  0.4430
  853MOL0     C17595  10.986   3.523  11.030  0.0852  0.3311  0.3669
  853MOL0     C17596  10.909   3.607  10.933  0.3079  0.4227 -0.2107
  853MOL0     C17597  10.984   3.651  10.810  0.3410 -0.2264 -0.8031
  853MOL0     C17598  10.898   3.761  10.743  0.2461  0.0022  0.3333
  853MOL0     C17599  10.975   3.851  10.648  0.5265  0.2690  0.6447
  853MOL0     O17600  11.058   3.937  10.727 -0.1276 -0.1440  0.8309
  853MOL0     C17601  11.136   4.031  10.660 -0.0946  0.7742  0.1456
  853MOL0     C17602  11.248   4.078  10.728  0.6508 -0.5932  1.2021
  853MOL0     C17603  11.337   4.170  10.655  1.1610  0.4632 -0.4351
  853MOL0     C17604  11.440   4.247  10.730  0.3968  0.3383  0.7132
  853MOL0     C17605  11.304   4.207  10.519  0.5685  0.0118  0.5533
  853MOL0     C17606  11.385   4.308  10.444  0.0803  0.3731  0.7904
  853MOL0     O17607  11.323   4.426  10.425  0.0536  0.1313  0.2745
  853MOL0     C17608  11.395   4.520  10.353  0.2619 -0.9126  0.0591
  853MOL0     C17609  11.396   4.530  10.209  0.6261 -0.1845 -0.4475
  853MOL0     C17610  11.475   4.633  10.141  0.6115  0.8726 -0.4714
  853MOL0     C17611  11.563   4.715  10.213  0.0687 -0.5126  0.6532
  853MOL0     O17612  11.643   4.804  10.150 -0.1532 -0.8384 -0.7164
  853MOL0     C17613  11.580   4.931  10.114 -0.4774 -0.4740 -0.5955
  853MOL0     C17614  11.573   5.041  10.221 -0.8216 -0.1259 -0.3966
  853MOL0     C17615  11.682   5.143  10.219 -0.9315 -1.1422 -0.1635
  853MOL0     C17616  11.748   5.172  10.357 -0.3134 -0.2703 -0.3545
  853MOL0     C17617  11.853   5.283  10.351  0.4864  0.2278 -0.5804
  853MOL0     C17618  11.911   5.304  10.490  0.3694  0.4724 -0.1117
  853MOL0     C17619  11.993   5.431  10.497 -1.1745  0.0201 -0.3308
  853MOL0     C17620  11.915   5.533  10.582  0.2126  0.9253 -0.3479
  853MOL0    Cl17621  12.034   5.672  10.590  0.3868  0.5158 -0.2120
  853MOL0     C17622  11.548   4.714  10.354 -0.1147  0.8908 -0.9273
  853MOL0     C17623  11.466   4.621  10.423  0.1456  0.1740 -0.0807
  853MOL0     O17624  11.499   4.281  10.408 -0.1643 -0.8525 -0.1362
  853MOL0     C17625  11.198   4.150  10.457 -0.3385  0.2532  0.2126
  853MOL0     C17626  11.115   4.065  10.526 -0.1719  0.5870 -0.1026
  853MOL0     N17627  11.065   3.416  10.985  0.0635  0.1867 -0.2079
  853MOL0     N17628  11.130   3.365  11.082 -0.0400  0.3290 -0.0659
  853MOL0     C17629  10.718   4.013  11.023 -0.1112  0.2491  0.0569
  853MOL0     C17630  10.598   4.001  10.966 -0.4134 -0.1500  0.3987
  853MOL0     C17631  10.195   3.997  10.792  0.1263  0.7889 -0.8102
  853MOL0     C17632  10.148   4.035  10.919 -0.8217 -0.1068 -0.5298
  853MOL0     C17633  10.011   4.021  10.938 -0.3888  0.1179 -0.0178
  853MOL0     C17634   9.931   3.943  10.856  0.1480 -0.6725  0.1848
  853MOL0     O17635   9.795   3.933  10.896  0.4635 -0.8853  0.6213
  853MOL0     C17636   9.691   3.871  10.809 -0.3764 -0.0892  0.0850
  853MOL0     C17637   9.588   3.978  10.750 -0.4158 -0.3922 -0.6620
  853MOL0     C17638   9.457   3.906  10.713 -0.3169 -0.5144  0.4970
  853MOL0     C17639   9.356   3.990  10.635 -0.3475 -1.0503  0.0034
  853MOL0     C17640   9.247   3.893  10.614 -0.2037 -0.7752 -0.2927
  853MOL0     C17641   9.171   3.798  10.588 -0.9300 -0.0152 -0.7144
  853MOL0     C17642   9.985   3.911  10.727  0.0499 -0.6681 -0.0597
  853MOL0     C17643  10.120   3.924  10.694 -0.5407  0.3186 -0.4303
  853MOL0     C17644  10.170   3.882  10.561 -0.5993 -0.4121  0.8568
  853MOL0     H17645  10.575   4.309  10.818  0.1190 -0.9686 -2.2775
  853MOL0     H17646  10.814   4.320  10.949 -1.0102  0.2820 -0.8982
  853MOL0     H17647  11.105   4.074  11.077 -0.7872  4.2389 -1.5257
  853MOL0     H17648  10.984   3.947  11.051  1.8010 -1.0114  0.6896
  853MOL0     H17649  11.027   4.096  11.307  0.1390 -0.7197  1.2250
  853MOL0     H17650  10.898   3.982  11.278 -0.8156  4.0199 -0.8068
  853MOL0     H17651  11.086   3.813  11.232 -3.4111 -0.7355  0.7511
  853MOL0     H17652  11.200   3.934  11.298 -0.0162  0.0871 -0.5900
  853MOL0     H17653  11.078   3.923  11.521  1.8182  0.5744  1.1335
  853MOL0     H17654  10.990   3.785  11.448  0.6577 -2.5484 -1.5887
  853MOL0     H17655  11.193   3.723  11.589  1.2348 -3.0387 -0.2522
  853MOL0     H17656  11.290   3.832  11.480 -0.8926  1.1002  2.2410
  853MOL0     H17657  11.259   3.650  11.289 -0.6655 -0.5388 -1.2838
  853MOL0     H17658  11.342   3.591  11.423  0.2320 -0.9118 -2.4288
  853MOL0     H17659  11.037   3.573  11.423 -0.0347 -0.6518  0.4734
  853MOL0     H17660  11.147   3.503  11.533 -1.5066  0.3579  0.4988
  853MOL0     H17661  11.245   3.387  11.330 -0.4048 -0.3238  1.1832
  853MOL0     H17662  11.088   3.325  11.384 -1.2719  2.2639  3.7223
  853MOL0     H17663  10.952   3.607  11.224 -1.2940 -2.1315  0.6914
  853MOL0     H17664  10.869   3.688  10.995  3.0520  1.4316  0.3854
  853MOL0     H17665  10.824   3.549  10.895  0.4431  0.2568 -0.2598
  853MOL0     H17666  11.086   3.684  10.834 -0.4227  1.3004  0.5121
  853MOL0     H17667  10.993   3.562  10.747  0.9012  0.7084 -2.0919
  853MOL0     H17668  10.810   3.703  10.712  1.2294 -2.8390  2.4947
  853MOL0     H17669  10.861   3.835  10.815  0.2769 -0.5997  0.9782
  853MOL0     H17670  11.036   3.803  10.571  2.9137  2.1463  1.2403
  853MOL0     H17671  10.900   3.909  10.595  0.2894  1.0861  1.8187
  853MOL0     H17672  11.252   4.055  10.834 -0.2159 -4.4013  0.5562
  853MOL0     H17673  11.523   4.280  10.667  0.0959  0.0054  0.1437
  853MOL0     H17674  11.483   4.197  10.817 -1.1028 -0.3301  1.0908
  853MOL0     H17675  11.392   4.344  10.750 -0.5825  0.7072 -2.7728
  853MOL0     H17676  11.349   4.457  10.145 -1.2439 -0.6929  1.3985
  853MOL0     H17677  11.485   4.638  10.033  0.0384  3.8629 -0.4938
  853MOL0     H17678  11.635   4.973  10.029 -0.7029  1.6328  0.2604
  853MOL0     H17679  11.482   4.912  10.071 -1.0704 -0.1218  0.5658
  853MOL0     H17680  11.482   5.095  10.195  0.3738  1.7981 -0.8065
  853MOL0     H17681  11.570   5.003  10.324  0.4386  1.7484  0.3886
  853MOL0     H17682  11.637   5.238  10.186 -0.0418 -0.2791  1.0191
  853MOL0     H17683  11.765   5.132  10.149 -0.0186 -0.4895  0.7877
  853MOL0     H17684  11.799   5.079  10.382 -3.7856 -2.1503  0.3711
  853MOL0     H17685  11.676   5.197  10.436 -1.6910 -1.2101 -1.2586
  853MOL0     H17686  11.928   5.258  10.275  1.0545 -0.5158  0.2045
  853MOL0     H17687  11.811   5.380  10.323 -3.1865 -0.4894  1.8472
  853MOL0     H17688  11.976   5.217  10.507 -2.4525 -1.6237  0.5880
  853MOL0     H17689  11.834   5.289  10.565  0.3765  2.6488  0.4025
  853MOL0     H17690  12.031   5.467  10.401  1.4337  0.6282  0.8464
  853MOL0     H17691  12.078   5.410  10.562 -0.0047  1.1996 -1.4317
  853MOL0     H17692  11.895   5.485  10.678  2.3314 -1.3394 -0.9211
  853MOL0     H17693  11.826   5.562  10.526 -1.0990  0.8691  1.6096
  853MOL0     H17694  11.599   4.785  10.419 -3.4783  0.0570  3.0442
  853MOL0     H17695  11.471   4.621  10.531  4.4732  0.7087 -0.1315
  853MOL0     H17696  11.165   4.176  10.357  0.7932  0.1786 -0.1957
  853MOL0     H17697  11.033   4.015  10.476  1.0657 -0.6904 -0.9257
  853MOL0     H17698  10.729   3.929  11.092  2.7649 -1.7771 -2.5842
  853MOL0     H17699  10.550   3.906  10.985 -0.1629 -0.0901  1.3856
  853MOL0     H17700  10.202   4.079  11.002 -4.1725 -0.0347  1.8046
  853MOL0     H17701   9.974   4.046  11.037  1.6015  1.1347  0.5097
  853MOL0     H17702   9.726   3.824  10.717 -1.5202 -0.7312 -0.0424
  853MOL0     H17703   9.638   3.802  10.876  0.3342  0.6554  1.4695
  853MOL0     H17704   9.626   4.037  10.666  0.1263  1.2714  0.6862
  853MOL0     H17705   9.582   4.053  10.829  0.7077  0.0109 -0.9441
  853MOL0     H17706   9.485   3.821  10.651  0.5214  0.4105 -0.4447
  853MOL0     H17707   9.410   3.859  10.800 -1.2476 -2.5703 -1.0561
  853MOL0     H17708   9.394   4.024  10.539  0.6841 -1.4393  0.2623
  853MOL0     H17709   9.330   4.083  10.687 -0.8868  0.6469 -3.0881
  853MOL0     H17710   9.117   3.705  10.582  2.5878 -2.2135 -0.8551
  853MOL0     H17711   9.929   3.866  10.645 -0.5567 -3.5974  1.8040
  853MOL0     H17712  10.135   3.782  10.536  0.2334 -0.2210 -1.2756
  853MOL0     H17713  10.117   3.944  10.487 -0.1348  1.3744  1.9613
  853MOL0     H17714  10.279   3.883  10.552 -0.6839  2.4703 -1.7594
  854MOL0     O17715   1.855   2.170   1.283 -0.6700  0.3544 -0.1709
  854MOL0     C17716   1.845   2.082   1.199 -0.3803 -0.4872 -0.0610
  854MOL0     O17717   1.801   2.096   1.074 -0.3555 -0.1958  0.0493
  854MOL0     C17718   1.748   2.216   1.038  0.2575 -0.3460 -0.5013
  854MOL0     C17719   1.613   2.233   1.008 -0.0187 -0.1763  0.7352
  854MOL0     C17720   1.564   2.366   0.985  0.3752  0.1161 -0.6184
  854MOL0     C17721   1.644   2.476   0.979 -0.7650  0.7881 -0.8104
  854MOL0     O17722   1.601   2.607   0.961 -0.3305  0.4660 -0.2786
  854MOL0     C17723   1.682   2.694   0.879  0.2443 -1.4641  0.0722
  854MOL0     C17724   1.583   2.792   0.832  0.1396  0.1670  0.2259
  854MOL0     C17725   1.488   2.731   0.736  1.1367 -0.1194  0.4108
  854MOL0     C17726   1.422   2.832   0.638  0.4300  0.2652 -0.6178
  854MOL0     C17727   1.391   2.773   0.503  0.9668 -0.0216 -0.0683
  854MOL0     C17728   1.305   2.642   0.495 -0.1142  0.5871 -0.0974
  854MOL0     C17729   1.279   2.611   0.343 -0.2705  0.6458 -0.3915
  854MOL0     C17730   1.170   2.695   0.283  0.0672  0.7093 -0.1803
  854MOL0     N17731   1.117   2.632   0.168  0.3258  0.3373  0.2874
  854MOL0     C17732   1.135   2.670   0.035 -0.1257  0.8177  0.1946
  854MOL0     C17733   1.076   2.574  -0.046  0.6059 -0.1589  1.3553
  854MOL0     C17734   1.071   2.580  -0.187 -0.0804 -0.3289  0.6958
  854MOL0     C17735   1.207   2.552  -0.244 -0.6037 -0.2573 -0.5050
  854MOL0     C17736   1.277   2.680  -0.293 -0.8455 -0.0027  0.7043
  854MOL0     C17737   1.434   2.652  -0.319 -1.0649  0.7009 -0.2134
  854MOL0     O17738   1.505   2.588  -0.216 -0.3631 -0.0496  0.4044
  854MOL0     C17739   1.547   2.657  -0.111  0.0693 -0.2401  0.6514
  854MOL0     C17740   1.624   2.577  -0.023  0.4604  0.5073 -0.2327
  854MOL0     C17741   1.695   2.625   0.086  0.1969 -0.1181  0.4561
  854MOL0     C17742   1.784   2.535   0.161 -0.7175 -0.0423  0.9421
  854MOL0     C17743   1.681   2.761   0.109 -0.1720  0.0097  0.5501
  854MOL0     C17744   1.733   2.823   0.241  0.4852  0.7088 -0.4622
  854MOL0     O17745   1.666   2.940   0.285  0.6905  0.3463 -0.1496
  854MOL0     C17746   1.709   3.019   0.386 -1.1405  0.2548  0.4067
  854MOL0     C17747   1.756   2.978   0.508 -0.0393  0.1667 -0.2140
  854MOL0     C17748   1.793   3.061   0.607  1.1060  0.2858  0.0398
  854MOL0     C17749   1.782   3.202   0.593 -0.5363 -0.4758  0.6116
  854MOL0     O17750   1.834   3.295   0.677 -0.8723 -0.0281  0.1028
  854MOL0     C17751   1.851   3.254   0.820 -0.2231 -0.2884  0.7179
  854MOL0     C17752   1.920   3.365   0.905 -0.3715  0.0953 -0.3713
  854MOL0     C17753   2.069   3.387   0.870 -0.7233  0.8543 -0.2063
  854MOL0     C17754   2.177   3.345   0.983  0.4099 -0.0832  0.5588
  854MOL0     C17755   2.320   3.375   0.931  0.1611 -0.2160 -0.0734
  854MOL0     C17756   2.412   3.396   1.060  0.0644 -0.1570  0.1330
  854MOL0     C17757   2.443   3.262   1.133 -0.8243 -0.2643 -0.5713
  854MOL0     C17758   2.404   3.248   1.282 -0.7552 -0.4304  0.4490
  854MOL0    Cl17759   2.250   3.320   1.342 -0.0659  0.4170 -0.1271
  854MOL0     C17760   1.743   3.252   0.477  1.6232 -0.5940  0.7000
  854MOL0     C17761   1.704   3.161   0.369  1.0951 -0.1071 -1.3584
  854MOL0     O17762   1.833   2.773   0.298  0.3336  0.0992  0.9649
  854MOL0     C17763   1.596   2.845   0.028 -0.0431 -0.5133 -0.3936
  854MOL0     C17764   1.524   2.798  -0.085  1.0443  0.6104  0.5158
  854MOL0     N17765   1.023   2.478   0.039  0.0363  0.4576  0.0988
  854MOL0     N17766   1.043   2.518   0.167 -0.5153  0.0725  0.2111
  854MOL0     C17767   1.779   2.453   1.003 -0.3449 -0.2104 -0.4223
  854MOL0     C17768   1.833   2.329   1.039 -0.3410  0.0132 -0.0348
  854MOL0     C17769   1.887   1.942   1.236  0.8341  1.1499 -0.4264
  854MOL0     C17770   1.865   1.834   1.145 -0.3836 -0.0065  0.4361
  854MOL0     C17771   1.905   1.701   1.164 -0.8056  0.9819 -0.0150
  854MOL0     C17772   1.940   1.657   1.294 -0.9211 -0.2944 -0.6376
  854MOL0     O17773   1.984   1.526   1.318  0.2940  0.3368 -0.3244
  854MOL0     C17774   1.970   1.418   1.228 -0.9017 -0.1719 -0.2605
  854MOL0     C17775   2.103   1.357   1.185  0.0933 -0.3453  0.7185
  854MOL0     C17776   2.091   1.244   1.090 -0.2792 -0.5040 -0.1012
  854MOL0     C17777   2.012   1.263   0.969  0.0226  0.0185 -0.3179
  854MOL0     C17778   1.870   1.265   0.979 -0.0712  0.7505 -1.0386
  854MOL0     C17779   1.749   1.254   0.986  1.0865  0.4192 -0.4756
  854MOL0     C17780   1.957   1.763   1.390 -0.4286 -0.2911 -0.3891
  854MOL0     C17781   1.944   1.902   1.367 -0.6576 -0.4206  1.2362
  854MOL0     C17782   1.986   1.999   1.481  0.3094  0.5338 -0.2966
  854MOL0     H17783   1.556   2.141   1.001 -0.8071  0.3995 -4.6447
  854MOL0     H17784   1.461   2.381   0.956 -0.4101 -2.8342  0.3096
  854MOL0     H17785   1.742   2.658   0.795  1.8941  1.5586 -0.1760
  854MOL0     H17786   1.744   2.746   0.953 -1.4025  0.6040  0.0821
  854MOL0     H17787   1.511   2.816   0.911 -1.4654 -0.0423 -1.1156
  854MOL0     H17788   1.636   2.876   0.788  1.5726 -0.9602 -0.2847
  854MOL0     H17789   1.531   2.649   0.677  0.1771 -0.4140  0.1034
  854MOL0     H17790   1.406   2.674   0.779  1.3204 -2.0515 -1.6122
  854MOL0     H17791   1.324   2.859   0.679  0.3947  0.8454 -1.0810
  854MOL0     H17792   1.466   2.930   0.619 -2.7170  1.3162 -3.5235
  854MOL0     H17793   1.486   2.763   0.449  1.6773  3.0986  0.3957
  854MOL0     H17794   1.330   2.838   0.441 -0.3489 -1.1512 -0.0113
  854MOL0     H17795   1.368   2.563   0.538  0.3981  0.1368 -1.5970
  854MOL0     H17796   1.212   2.662   0.549 -1.6153  2.1955 -3.0186
  854MOL0     H17797   1.239   2.510   0.354 -2.1448  1.3842  0.1055
  854MOL0     H17798   1.376   2.602   0.294 -0.9521  3.0264 -2.3793
  854MOL0     H17799   1.086   2.725   0.347 -1.7089  0.6170 -2.3368
  854MOL0     H17800   1.215   2.785   0.240 -2.5190  1.7160 -1.0085
  854MOL0     H17801   1.197   2.754   0.007  0.9688  0.2606  0.8715
  854MOL0     H17802   1.043   2.684  -0.209  1.2036  0.6510  3.2875
  854MOL0     H17803   0.992   2.522  -0.235 -1.6496  0.0954  2.6612
  854MOL0     H17804   1.272   2.502  -0.171  1.5546  1.2256 -1.3227
  854MOL0     H17805   1.187   2.489  -0.331 -2.8555 -0.0217 -0.2140
  854MOL0     H17806   1.244   2.694  -0.397  2.6150  0.1964 -0.4688
  854MOL0     H17807   1.262   2.771  -0.235  1.2308  0.5747  0.3855
  854MOL0     H17808   1.443   2.587  -0.406 -4.5080 -2.3607  1.4428
  854MOL0     H17809   1.480   2.750  -0.338 -1.8837  1.3107  0.8280
  854MOL0     H17810   1.638   2.471  -0.044 -1.1044  0.6017 -1.9795
  854MOL0     H17811   1.888   2.562   0.136 -0.0640 -2.3925  0.8684
  854MOL0     H17812   1.778   2.431   0.126  0.3730 -0.4456  1.8895
  854MOL0     H17813   1.781   2.527   0.270  0.2387 -3.2129  0.8598
  854MOL0     H17814   1.779   2.872   0.518 -0.9715 -0.2821 -2.3096
  854MOL0     H17815   1.820   3.007   0.697  2.1707 -0.9065 -0.9541
  854MOL0     H17816   1.757   3.231   0.870 -2.0786  2.3306 -1.2971
  854MOL0     H17817   1.914   3.165   0.833  0.4074  0.1698  0.8284
  854MOL0     H17818   1.872   3.462   0.887 -0.4955  0.8693  3.4604
  854MOL0     H17819   1.911   3.348   1.012 -2.6529 -0.4026 -0.5762
  854MOL0     H17820   2.102   3.489   0.847  4.4226 -0.1888  1.2666
  854MOL0     H17821   2.087   3.333   0.777 -0.4028 -3.0237  1.8891
  854MOL0     H17822   2.171   3.239   1.006  0.3415 -0.0457  0.7146
  854MOL0     H17823   2.162   3.409   1.070 -0.4864 -0.6095  0.7984
  854MOL0     H17824   2.345   3.297   0.858  0.1297  1.7833 -2.3168
  854MOL0     H17825   2.305   3.461   0.866  0.3836 -2.8130 -3.8731
  854MOL0     H17826   2.368   3.469   1.130 -1.0242 -2.5053  2.0609
  854MOL0     H17827   2.509   3.439   1.033  0.3369 -0.9603 -0.1744
  854MOL0     H17828   2.546   3.229   1.116 -0.6308 -0.5054  0.9252
  854MOL0     H17829   2.385   3.186   1.080  0.2130  0.1281 -2.3620
  854MOL0     H17830   2.479   3.298   1.343 -0.3100 -2.4220  1.6125
  854MOL0     H17831   2.406   3.141   1.306 -1.5740 -1.1349 -2.2908
  854MOL0     H17832   1.738   3.359   0.463 -0.2305 -0.6221  0.8736
  854MOL0     H17833   1.667   3.209   0.279 -0.9962  0.8594 -0.0649
  854MOL0     H17834   1.591   2.950   0.054 -1.7634 -0.2179 -1.7369
  854MOL0     H17835   1.469   2.871  -0.143  1.4495  0.2888 -0.2829
  854MOL0     H17836   1.850   2.535   0.993  0.3289 -1.0463 -3.3421
  854MOL0     H17837   1.940   2.312   1.049 -0.3667  0.9710  3.2545
  854MOL0     H17838   1.812   1.851   1.051  2.8354 -3.0864 -2.1716
  854MOL0     H17839   1.898   1.640   1.074  3.7142  1.2928 -0.8182
  854MOL0     H17840   1.897   1.348   1.270  1.7433 -4.9242 -2.6988
  854MOL0     H17841   1.925   1.444   1.131  2.7554  2.0433 -1.5351
  854MOL0     H17842   2.145   1.318   1.278  0.2485 -2.7227 -0.2943
  854MOL0     H17843   2.168   1.434   1.142  3.5366 -2.2040  2.1574
  854MOL0     H17844   2.183   1.190   1.066  0.9418  0.4935  1.9969
  854MOL0     H17845   2.043   1.166   1.150  1.0131 -0.6125  0.8371
  854MOL0     H17846   2.031   1.171   0.913  3.0025 -2.1684  3.7331
  854MOL0     H17847   2.045   1.349   0.910 -0.2359 -0.4339 -1.1359
  854MOL0     H17848   1.646   1.229   1.002  1.6757 -1.4398  0.6766
  854MOL0     H17849   2.003   1.721   1.479 -0.8684 -1.3352 -0.6415
  854MOL0     H17850   1.900   2.039   1.535 -0.5860  1.8892 -2.6153
  854MOL0     H17851   2.052   1.949   1.553  1.0052 -0.1884 -1.4054
  854MOL0     H17852   2.035   2.089   1.443 -1.1233  2.0313  1.2312
  855MOL0     O17853   5.943   8.008   7.619 -0.3027  0.6184  0.5162
  855MOL0     C17854   5.978   8.107   7.676 -0.5078 -0.1477  0.0102
  855MOL0     O17855   5.976   8.231   7.623  0.0478 -0.3750  0.5714
  855MOL0     C17856   5.961   8.253   7.490  0.6498  0.0549  0.1394
  855MOL0     C17857   5.840   8.228   7.419  0.3629  0.0470  0.0487
  855MOL0     C17858   5.826   8.238   7.282  0.0401  0.1970 -1.5470
  855MOL0     C17859   5.934   8.265   7.207  0.7317 -0.7414  0.2667
  855MOL0     O17860   5.929   8.262   7.068  0.1419  0.8652  0.3381
  855MOL0     C17861   5.930   8.391   6.996 -0.4493  0.6543 -0.6621
  855MOL0     C17862   5.896   8.369   6.846  0.3136 -0.4827 -0.0275
  855MOL0     C17863   5.998   8.286   6.766 -0.4228 -0.2457  0.0044
  855MOL0     C17864   6.137   8.358   6.769 -0.3532  1.1623 -0.1943
  855MOL0     C17865   6.229   8.269   6.679  0.2514 -0.9210  1.0630
  855MOL0     C17866   6.380   8.304   6.691 -0.4411 -0.9177  0.2434
  855MOL0     C17867   6.398   8.456   6.697  0.3389 -0.8788  0.5784
  855MOL0     C17868   6.542   8.496   6.720  0.5306 -0.0304  0.2516
  855MOL0     N17869   6.550   8.638   6.675  0.2566 -0.5507 -1.3774
  855MOL0     C17870   6.524   8.749   6.753  0.4702  0.7777 -0.4252
  855MOL0     C17871   6.547   8.859   6.679 -1.0916 -0.2467  1.1687
  855MOL0     C17872   6.550   9.000   6.728  0.1186 -1.2243  0.3835
  855MOL0     C17873   6.431   9.093   6.697 -0.1112  0.4564  0.6453
  855MOL0     C17874   6.307   9.027   6.748  0.2983 -0.1125 -0.7826
  855MOL0     C17875   6.193   9.119   6.774  0.0924 -0.2213 -0.1121
  855MOL0     O17876   6.183   9.222   6.668  0.9087  0.1941  0.1137
  855MOL0     C17877   6.078   9.312   6.669  0.0939 -0.0953  0.6064
  855MOL0     C17878   6.054   9.385   6.555  0.0171 -0.5683 -0.2028
  855MOL0     C17879   5.949   9.470   6.532  0.5340  0.2125 -0.5880
  855MOL0     C17880   5.941   9.552   6.406  0.3228  0.0757 -0.6293
  855MOL0     C17881   5.850   9.488   6.641 -0.1356  0.5623 -0.0545
  855MOL0     C17882   5.729   9.579   6.635  0.5577  0.3119  0.7207
  855MOL0     O17883   5.694   9.614   6.515  0.5472 -0.4555  0.2868
  855MOL0     C17884   5.569   9.678   6.500  0.2592  0.7681  0.8292
  855MOL0     C17885   5.525   9.777   6.588 -0.5405 -0.6041 -0.0721
  855MOL0     C17886   5.390   9.817   6.594 -1.0890  0.2022  0.3947
  855MOL0     C17887   5.299   9.773   6.500 -0.1005  0.2774 -0.1171
  855MOL0     O17888   5.173   9.812   6.479  0.8289 -0.2821  0.0263
  855MOL0     C17889   5.120   9.929   6.544 -0.3258  1.2185 -0.6465
  855MOL0     C17890   5.179  10.058   6.483 -0.2415  0.5316 -0.0897
  855MOL0     C17891   5.143  10.174   6.576 -0.1913  0.0396  0.2701
  855MOL0     C17892   5.257  10.193   6.678  0.3796  0.3862  1.1901
  855MOL0     C17893   5.224  10.254   6.809 -0.7495 -0.3886  1.0521
  855MOL0     C17894   5.353  10.287   6.892  0.2813  0.4161  0.3005
  855MOL0     C17895   5.323  10.406   6.996 -0.5010 -0.7169 -0.2669
  855MOL0     C17896   5.224  10.355   7.099 -0.5065  0.9470  0.5537
  855MOL0    Cl17897   5.325  10.312   7.253 -0.2837  0.3878  0.7262
  855MOL0     C17898   5.351   9.692   6.396  0.3125  0.1887  0.1648
  855MOL0     C17899   5.480   9.634   6.405 -0.5583 -0.0097 -0.3020
  855MOL0     O17900   5.674   9.608   6.741 -0.3247  0.2258  0.6570
  855MOL0     C17901   5.875   9.415   6.765 -0.0694  0.4066  0.7363
  855MOL0     C17902   5.986   9.328   6.780 -0.4800  0.7415 -0.7193
  855MOL0     N17903   6.596   8.805   6.554  0.4243 -0.2382 -0.2562
  855MOL0     N17904   6.604   8.682   6.562 -0.6190  0.2190 -0.2561
  855MOL0     C17905   6.063   8.306   7.262  0.2247 -0.6007  0.3347
  855MOL0     C17906   6.068   8.291   7.402  0.3138  0.1646 -1.1711
  855MOL0     C17907   6.032   8.102   7.807  0.0224 -0.1194 -0.1656
  855MOL0     C17908   6.133   8.194   7.847 -0.0055  0.0793 -0.6306
  855MOL0     C17909   6.175   8.193   7.985 -0.4716 -0.3114  0.7304
  855MOL0     C17910   6.106   8.106   8.073 -0.2754  0.4740  0.3716
  855MOL0     O17911   6.127   8.101   8.209 -0.3874 -0.0886 -1.1812
  855MOL0     C17912   6.091   8.218   8.281  0.3453 -0.4462 -0.2377
  855MOL0     C17913   5.953   8.274   8.244 -0.6906  0.2313 -1.0389
  855MOL0     C17914   5.952   8.416   8.174  0.8961 -0.6227 -0.6152
  855MOL0     C17915   5.823   8.456   8.111  0.5150  0.0918 -0.1967
  855MOL0     C17916   5.786   8.390   7.988  0.3568  0.8864  0.3145
  855MOL0     C17917   5.774   8.343   7.875  0.4287  0.3737  0.2606
  855MOL0     C17918   6.024   8.007   8.024  0.1813  0.6238 -0.6069
  855MOL0     C17919   5.987   8.001   7.893  1.4528  0.6126  0.1751
  855MOL0     C17920   5.884   7.889   7.864 -0.3164  0.6316 -0.1538
  855MOL0     H17921   5.759   8.208   7.489  1.0273 -0.5406  0.6675
  855MOL0     H17922   5.743   8.182   7.241 -0.0667 -0.9477  0.1305
  855MOL0     H17923   6.022   8.450   7.002  0.1784 -0.3499 -0.0784
  855MOL0     H17924   5.856   8.458   7.040 -1.1107 -1.0601  1.0078
  855MOL0     H17925   5.798   8.320   6.837  0.8905 -1.8518  0.7489
  855MOL0     H17926   5.905   8.464   6.794  3.1699 -1.2487 -1.1341
  855MOL0     H17927   6.006   8.188   6.815  3.1513 -0.6502 -1.0990
  855MOL0     H17928   5.964   8.276   6.663  2.3211  0.4683 -1.0730
  855MOL0     H17929   6.114   8.455   6.725 -4.3521 -0.1432 -1.4451
  855MOL0     H17930   6.178   8.362   6.871 -0.4532  2.1108 -0.1857
  855MOL0     H17931   6.188   8.280   6.578  2.7032 -0.6865  0.0025
  855MOL0     H17932   6.228   8.161   6.693  0.3975 -1.0807 -0.0706
  855MOL0     H17933   6.423   8.264   6.784  1.9242 -0.3640 -0.5547
  855MOL0     H17934   6.445   8.270   6.609 -1.6307 -0.8172 -0.7662
  855MOL0     H17935   6.349   8.505   6.781  1.7760  2.5750 -0.4013
  855MOL0     H17936   6.364   8.500   6.603 -0.2916  1.1752  1.7070
  855MOL0     H17937   6.567   8.496   6.827  3.2337  5.1421 -0.0629
  855MOL0     H17938   6.610   8.432   6.663  1.0244  1.0082 -0.3406
  855MOL0     H17939   6.500   8.762   6.858  1.4517  2.6516 -0.3806
  855MOL0     H17940   6.637   9.044   6.678 -0.9499 -0.2116 -0.6400
  855MOL0     H17941   6.565   8.987   6.836  0.7653 -0.9508  0.3340
  855MOL0     H17942   6.434   9.194   6.741 -1.4312  0.0647  1.7175
  855MOL0     H17943   6.426   9.114   6.590 -1.6656  1.2834  0.8537
  855MOL0     H17944   6.271   8.942   6.689 -3.8060  0.0187  1.1307
  855MOL0     H17945   6.336   8.972   6.838 -1.1595 -1.4691 -1.0987
  855MOL0     H17946   6.100   9.065   6.791  0.2665 -0.0089  1.6956
  855MOL0     H17947   6.216   9.178   6.864 -1.9248 -0.4275  0.5887
  855MOL0     H17948   6.134   9.366   6.485  0.4949 -1.0111  0.4526
  855MOL0     H17949   5.870   9.520   6.329  1.6915  0.1925 -2.0027
  855MOL0     H17950   6.027   9.564   6.340 -1.8698  0.0616 -3.7156
  855MOL0     H17951   5.915   9.649   6.448  2.4699  1.1746 -1.7114
  855MOL0     H17952   5.593   9.825   6.658  0.3380  0.1462 -1.3937
  855MOL0     H17953   5.371   9.902   6.657  0.2730  1.1348 -0.3966
  855MOL0     H17954   5.013   9.931   6.522 -0.3310 -0.6759 -0.9577
  855MOL0     H17955   5.133   9.914   6.651  2.2338  0.7322 -0.9491
  855MOL0     H17956   5.288  10.048   6.476 -0.2855 -0.1564  0.1691
  855MOL0     H17957   5.141  10.060   6.380 -1.9055 -0.5579  0.4620
  855MOL0     H17958   5.048  10.156   6.628 -0.8766  1.8335 -0.2765
  855MOL0     H17959   5.133  10.268   6.520  1.8735  0.7102  0.9480
  855MOL0     H17960   5.319  10.267   6.627 -0.7012  0.4453 -0.1228
  855MOL0     H17961   5.315  10.102   6.695 -1.0127 -0.6558  0.6309
  855MOL0     H17962   5.177  10.348   6.779 -0.0115  0.0143  1.1480
  855MOL0     H17963   5.159  10.194   6.873  0.8306 -0.3483  2.7714
  855MOL0     H17964   5.431  10.321   6.824 -1.3306  0.4111 -1.6357
  855MOL0     H17965   5.391  10.194   6.936 -2.1756  0.8232  3.6837
  855MOL0     H17966   5.302  10.495   6.937 -2.4622 -0.1948  1.1229
  855MOL0     H17967   5.415  10.414   7.055  0.0942 -2.5347 -0.8497
  855MOL0     H17968   5.171  10.265   7.067  1.4118  0.0288 -0.2320
  855MOL0     H17969   5.151  10.433   7.123 -0.1331  1.3833  0.2876
  855MOL0     H17970   5.294   9.640   6.319 -0.3388 -1.1570  1.4888
  855MOL0     H17971   5.516   9.559   6.336  1.2710 -0.5254  1.1434
  855MOL0     H17972   5.810   9.433   6.850 -1.1381  0.0678 -0.0002
  855MOL0     H17973   6.005   9.287   6.879 -2.0779  0.6044 -0.4541
  855MOL0     H17974   6.146   8.325   7.194  0.2992 -1.3849  0.2009
  855MOL0     H17975   6.158   8.315   7.458 -0.7148 -2.1186  1.7270
  855MOL0     H17976   6.183   8.273   7.792 -1.3058  1.9972  0.7899
  855MOL0     H17977   6.239   8.271   8.025  0.0862  0.4248 -1.4544
  855MOL0     H17978   6.097   8.185   8.385 -0.0826  0.5570  0.1175
  855MOL0     H17979   6.163   8.296   8.256  0.7152 -1.2249 -1.7063
  855MOL0     H17980   5.894   8.270   8.336 -0.1765  0.9527 -0.6623
  855MOL0     H17981   5.894   8.204   8.185  2.3039 -3.9786  0.4594
  855MOL0     H17982   5.973   8.491   8.252  0.4898 -2.5650  1.4777
  855MOL0     H17983   6.036   8.418   8.105  0.0305  0.6276 -1.6851
  855MOL0     H17984   5.822   8.565   8.101  0.3173 -0.0799 -2.6793
  855MOL0     H17985   5.746   8.428   8.184  0.9744 -4.1263 -1.0442
  855MOL0     H17986   5.772   8.318   7.771 -0.4079  3.7762 -0.6765
  855MOL0     H17987   5.971   7.934   8.085 -1.0300  0.6154 -1.6272
  855MOL0     H17988   5.867   7.826   7.952 -0.1222 -1.3312 -1.4715
  855MOL0     H17989   5.787   7.938   7.853 -2.2703 -2.7970  0.5211
  855MOL0     H17990   5.931   7.830   7.785  5.0815  1.7843  1.7464
  856MOL0     O17991   5.197   7.793  10.084  0.3482 -0.3305 -0.5864
  856MOL0     C17992   5.214   7.780   9.965 -0.6543 -0.1388  0.7802
  856MOL0     O17993   5.207   7.660   9.899  1.5013 -0.8058  0.4102
  856MOL0     C17994   5.124   7.560   9.946 -1.2058 -0.7098 -0.0393
  856MOL0     C17995   5.168   7.482  10.058  0.1917  0.2123  0.9654
  856MOL0     C17996   5.089   7.381  10.107 -0.3027 -0.0551 -0.7099
  856MOL0     C17997   4.961   7.357  10.050  0.1538  0.5290 -0.5740
  856MOL0     O17998   4.886   7.258  10.096  0.3981 -0.9129 -0.0039
  856MOL0     C17999   4.845   7.285  10.235 -0.8692 -0.1936 -0.3785
  856MOL0     C18000   4.718   7.201  10.251  0.6035 -0.0205 -0.0438
  856MOL0     C18001   4.593   7.255  10.165 -0.2400 -0.3627  0.2826
  856MOL0     C18002   4.501   7.134  10.139 -0.1684 -0.7615  0.4394
  856MOL0     C18003   4.379   7.159  10.051  0.0291  0.5566 -0.0516
  856MOL0     C18004   4.297   7.025  10.026 -0.2064  0.0905  0.3715
  856MOL0     C18005   4.251   6.965  10.164 -0.2859  0.3905 -0.7776
  856MOL0     C18006   4.152   6.857  10.141  0.4362  0.4177  0.3742
  856MOL0     N18007   4.086   6.830  10.264  0.3634  0.1461  0.5250
  856MOL0     C18008   3.945   6.839  10.279  0.7052  0.4157  0.7314
  856MOL0     C18009   3.921   6.801  10.405  0.4756  0.2273 -0.8785
  856MOL0     C18010   3.787   6.831  10.471  0.3037  0.1045 -0.2454
  856MOL0     C18011   3.795   6.856  10.621  0.8723  0.4791 -0.0692
  856MOL0     C18012   3.789   6.731  10.711  0.5322  0.6762  0.5187
  856MOL0     C18013   3.794   6.769  10.855  0.3941 -0.4900  0.5004
  856MOL0     O18014   3.666   6.828  10.866  0.1310  0.0650  0.3640
  856MOL0     C18015   3.638   6.883  10.978 -0.4917  0.2704 -0.4011
  856MOL0     C18016   3.618   6.786  11.084 -0.5924 -0.0402  0.8300
  856MOL0     C18017   3.595   6.828  11.213 -0.4439 -0.2938 -1.5857
  856MOL0     C18018   3.564   6.727  11.337 -0.0178 -0.1847  0.3119
  856MOL0     C18019   3.599   6.965  11.234 -0.7855 -0.9324 -0.0540
  856MOL0     C18020   3.583   7.024  11.378  1.0735 -0.0529  0.5398
  856MOL0     O18021   3.643   6.965  11.479  0.1736  0.5979 -0.4434
  856MOL0     C18022   3.611   7.013  11.602  1.3970 -0.6389  1.0135
  856MOL0     C18023   3.688   7.118  11.647 -0.0489 -1.2109  1.6756
  856MOL0     C18024   3.675   7.169  11.767  0.8086 -0.1451  0.3949
  856MOL0     C18025   3.580   7.111  11.852 -0.1386  0.7859  0.4234
  856MOL0     O18026   3.548   7.135  11.983  0.1427  0.1471 -0.0629
  856MOL0     C18027   3.639   7.230  12.054 -0.4929 -0.4818  0.2102
  856MOL0     C18028   3.773   7.168  12.081 -0.5534  0.0077 -0.2208
  856MOL0     C18029   3.827   7.203  12.222 -0.0296 -0.0241 -1.7204
  856MOL0     C18030   3.955   7.131  12.265 -0.0034 -0.4679 -0.4771
  856MOL0     C18031   3.983   7.160  12.414  0.3928  0.4078 -0.3452
  856MOL0     C18032   4.083   7.274  12.433 -0.1986  0.0238  0.5375
  856MOL0     C18033   4.148   7.278  12.572 -0.4788  0.9119 -0.3566
  856MOL0     C18034   4.293   7.213  12.584  0.5187 -0.1472  0.3761
  856MOL0    Cl18035   4.360   7.210  12.754  0.3905 -0.5338  0.3564
  856MOL0     C18036   3.504   7.006  11.815  0.6650  0.1469  0.5947
  856MOL0     C18037   3.518   6.951  11.686  0.5617  0.3196 -0.4092
  856MOL0     O18038   3.502   7.114  11.392 -0.3498 -0.9745  0.2326
  856MOL0     C18039   3.623   7.063  11.133  0.0867 -0.4320  0.4532
  856MOL0     C18040   3.639   7.026  10.998 -0.9741  0.6608  0.3837
  856MOL0     N18041   4.035   6.775  10.467 -0.3819 -0.2946 -0.4346
  856MOL0     N18042   4.128   6.774  10.375 -0.7974 -0.5986  0.1768
  856MOL0     C18043   4.924   7.430   9.933  0.2525  0.4493  0.2007
  856MOL0     C18044   5.005   7.526   9.877 -0.0395 -0.7396  0.6237
  856MOL0     C18045   5.277   7.890   9.897 -1.2848 -0.4508 -0.1537
  856MOL0     C18046   5.368   7.977   9.964 -0.6757  0.3745 -0.5406
  856MOL0     C18047   5.415   8.091   9.898  0.8025 -0.4044 -0.9913
  856MOL0     C18048   5.401   8.104   9.754  0.4560 -0.2784  0.1525
  856MOL0     O18049   5.468   8.197   9.680  0.4920  0.0300 -0.8587
  856MOL0     C18050   5.496   8.320   9.743  0.4311  0.2366 -0.3109
  856MOL0     C18051   5.554   8.419   9.640  0.7612  0.6310 -0.5046
  856MOL0     C18052   5.668   8.501   9.707  0.7559  0.2378  0.0046
  856MOL0     C18053   5.737   8.568   9.601  0.3665 -0.7018  0.3583
  856MOL0     C18054   5.866   8.621   9.652 -0.1295  0.1785  0.3203
  856MOL0     C18055   5.964   8.683   9.699  0.2931  0.2424  0.2059
  856MOL0     C18056   5.313   8.016   9.691 -0.3433 -0.0951 -0.5081
  856MOL0     C18057   5.245   7.913   9.763  0.0493 -0.7749  0.2981
  856MOL0     C18058   5.154   7.830   9.678  0.4334 -0.5083 -0.8847
  856MOL0     H18059   5.259   7.507  10.112  0.1751 -0.0339  1.1066
  856MOL0     H18060   5.116   7.334  10.200 -0.5471  0.7220 -0.2313
  856MOL0     H18061   4.819   7.387  10.266  0.8534 -0.9102  4.0564
  856MOL0     H18062   4.922   7.249  10.303  2.4059  0.4689 -3.4519
  856MOL0     H18063   4.731   7.095  10.228 -0.1482 -0.2392  0.5009
  856MOL0     H18064   4.684   7.182  10.354  0.7176 -3.4068 -0.5199
  856MOL0     H18065   4.533   7.330  10.216 -3.2816 -2.6017  0.2800
  856MOL0     H18066   4.637   7.300  10.075 -0.2255  0.4945  0.7148
  856MOL0     H18067   4.560   7.060  10.084  1.1262  2.0364 -2.2645
  856MOL0     H18068   4.470   7.084  10.232 -1.7836  1.2811  1.0742
  856MOL0     H18069   4.415   7.193   9.953  1.7112  0.6714  0.5688
  856MOL0     H18070   4.325   7.239  10.102  1.1379 -1.5153  4.9031
  856MOL0     H18071   4.216   7.034   9.954  1.1943 -1.2766 -1.4691
  856MOL0     H18072   4.353   6.948   9.972 -0.7214  2.1753 -3.4765
  856MOL0     H18073   4.210   7.043  10.229 -0.2341 -0.1813 -0.0446
  856MOL0     H18074   4.331   6.921  10.224 -0.9224 -0.5608 -0.6088
  856MOL0     H18075   4.083   6.896  10.066 -3.2288  2.4337  4.3504
  856MOL0     H18076   4.187   6.763  10.098  0.9009  0.7572 -0.0009
  856MOL0     H18077   3.876   6.874  10.203 -1.9868  0.3637  2.9954
  856MOL0     H18078   3.718   6.750  10.446 -0.3297  1.3916 -2.9525
  856MOL0     H18079   3.754   6.926  10.429 -0.8253 -0.8042 -1.4932
  856MOL0     H18080   3.876   6.927  10.640  0.3986  0.7195  1.1532
  856MOL0     H18081   3.705   6.912  10.648  0.3983  1.5760 -3.5016
  856MOL0     H18082   3.714   6.656  10.685 -0.5311  1.4475  1.2855
  856MOL0     H18083   3.880   6.675  10.689 -0.4317 -0.6539 -0.2829
  856MOL0     H18084   3.816   6.684  10.920  4.2696  1.1922  1.6934
  856MOL0     H18085   3.872   6.841  10.882 -1.6476  1.0078  2.7576
  856MOL0     H18086   3.616   6.680  11.063 -1.7253  0.1717 -0.3098
  856MOL0     H18087   3.464   6.753  11.372  0.0748 -0.9807  1.2236
  856MOL0     H18088   3.641   6.742  11.413  0.3920  1.0772 -0.3324
  856MOL0     H18089   3.564   6.621  11.309  3.7298 -1.0372  2.7731
  856MOL0     H18090   3.752   7.160  11.570 -3.6194 -0.7873 -1.3019
  856MOL0     H18091   3.734   7.253  11.802  0.1488  0.1922  0.7235
  856MOL0     H18092   3.650   7.316  11.988 -1.7549 -1.4190 -1.2790
  856MOL0     H18093   3.600   7.258  12.152  1.9972  2.0647  0.6149
  856MOL0     H18094   3.776   7.061  12.058  1.6445  0.0368 -0.2386
  856MOL0     H18095   3.847   7.215  12.017 -0.5019 -0.2339 -0.3402
  856MOL0     H18096   3.750   7.184  12.297  1.9719 -1.2450  0.1513
  856MOL0     H18097   3.851   7.310  12.230  2.6362 -0.5984 -0.9276
  856MOL0     H18098   4.038   7.173  12.206  0.0042  1.4618  0.8112
  856MOL0     H18099   3.951   7.022  12.257 -1.0394 -0.5481  0.8333
  856MOL0     H18100   3.893   7.177  12.472  1.7130  0.3872  1.8378
  856MOL0     H18101   4.035   7.078  12.465  2.8543  2.7172  1.1384
  856MOL0     H18102   4.010   7.355  12.426  2.2889  2.2140 -2.9941
  856MOL0     H18103   4.152   7.304  12.354  0.8570  2.7770  2.3470
  856MOL0     H18104   4.087   7.213  12.635  4.5969 -3.9884  0.2879
  856MOL0     H18105   4.162   7.382  12.604 -1.1471 -0.5356  5.8171
  856MOL0     H18106   4.358   7.267  12.514 -0.5524 -0.6839 -1.0980
  856MOL0     H18107   4.289   7.113  12.539  2.2551  0.2032 -0.6354
  856MOL0     H18108   3.430   6.958  11.878  2.0305 -0.5105  1.7418
  856MOL0     H18109   3.452   6.872  11.649 -1.1091  1.0773  0.8151
  856MOL0     H18110   3.619   7.168  11.159  0.1081 -0.9646  2.8339
  856MOL0     H18111   3.656   7.091  10.913 -3.5260 -0.6764 -1.2800
  856MOL0     H18112   4.832   7.409   9.881  0.3032  3.1327 -1.1374
  856MOL0     H18113   4.970   7.584   9.792 -1.5979  1.3341  2.5547
  856MOL0     H18114   5.379   7.954  10.070 -2.0110  3.1981  0.3203
  856MOL0     H18115   5.463   8.165   9.962 -1.1719 -1.0026  1.3416
  856MOL0     H18116   5.406   8.359   9.790 -0.4256 -2.1330  0.1346
  856MOL0     H18117   5.558   8.304   9.832  1.2255 -2.3328 -1.2186
  856MOL0     H18118   5.470   8.482   9.611 -0.0026 -0.4840 -0.7669
  856MOL0     H18119   5.605   8.359   9.564  1.5887 -0.4370  0.8391
  856MOL0     H18120   5.633   8.576   9.779  1.7472  1.4341 -0.7111
  856MOL0     H18121   5.724   8.432   9.770 -2.5093 -1.3109  1.4714
  856MOL0     H18122   5.667   8.644   9.565  1.3824  0.1931  0.2309
  856MOL0     H18123   5.772   8.497   9.525 -0.5029  0.7477 -1.4810
  856MOL0     H18124   6.020   8.735   9.774 -0.3198 -1.9028  2.2898
  856MOL0     H18125   5.312   8.014   9.582  1.9113 -1.0228 -0.5568
  856MOL0     H18126   5.131   7.874   9.580 -0.8645 -2.5270 -1.5404
  856MOL0     H18127   5.214   7.744   9.646  3.9900  1.8444 -1.1644
  856MOL0     H18128   5.059   7.794   9.718 -0.2037 -1.0912 -2.8143
  857MOL0     O18129   9.781   1.494   6.620  0.1698  0.2168 -0.1485
  857MOL0     C18130   9.773   1.374   6.584 -0.2369 -0.1221  0.3787
  857MOL0     O18131   9.682   1.283   6.612 -0.2087 -0.1569 -0.3769
  857MOL0     C18132   9.589   1.306   6.712  0.5796  0.2342  0.2050
  857MOL0     C18133   9.490   1.408   6.709 -0.1754  0.4784 -0.0062
  857MOL0     C18134   9.396   1.427   6.817  0.2238  0.4725 -1.1380
  857MOL0     C18135   9.401   1.341   6.933 -0.5713 -0.3220 -1.3530
  857MOL0     O18136   9.310   1.352   7.038  0.0734 -0.1434 -0.4261
  857MOL0     C18137   9.216   1.458   7.046 -0.0079 -0.0281 -0.1172
  857MOL0     C18138   9.277   1.593   7.079 -0.4641 -0.1736  0.2808
  857MOL0     C18139   9.162   1.694   7.107  0.6120 -0.4196  0.1852
  857MOL0     C18140   9.207   1.844   7.080 -0.3891  0.3812 -0.3339
  857MOL0     C18141   9.110   1.959   7.110  0.9044 -0.1380 -0.0202
  857MOL0     C18142   9.099   1.999   7.253  0.3064 -1.3154  0.8562
  857MOL0     C18143   9.068   2.153   7.255  0.0867 -0.9574  0.4824
  857MOL0     C18144   8.981   2.204   7.375 -0.3796 -0.8369 -0.0382
  857MOL0     N18145   9.024   2.178   7.516  0.6297  0.7176 -0.1151
  857MOL0     C18146   8.948   2.114   7.608  0.7914 -0.9241 -0.7228
  857MOL0     C18147   9.031   2.119   7.719 -1.1127  0.4985 -0.7017
  857MOL0     C18148   8.980   2.070   7.851  0.7086  0.3284  0.0126
  857MOL0     C18149   8.900   2.177   7.931  0.0893 -0.6644 -0.3742
  857MOL0     C18150   9.002   2.301   7.955 -0.3093 -0.2022  0.9093
  857MOL0     C18151   8.934   2.411   8.028 -0.6723 -0.5096 -0.6547
  857MOL0     O18152   8.802   2.434   7.967 -0.3252 -0.4050  0.2214
  857MOL0     C18153   8.796   2.500   7.845  0.3321 -0.3421  0.2583
  857MOL0     C18154   8.884   2.585   7.784  0.7962 -0.2011 -0.4272
  857MOL0     C18155   8.853   2.653   7.668 -0.4752  0.3340  0.7291
  857MOL0     C18156   8.963   2.752   7.604  0.6251  0.2890  0.5382
  857MOL0     C18157   8.741   2.620   7.597  0.8145 -0.0808  1.4069
  857MOL0     C18158   8.716   2.663   7.456 -0.4028 -0.5357  0.2809
  857MOL0     O18159   8.584   2.703   7.424 -0.2281 -0.4647 -0.4016
  857MOL0     C18160   8.559   2.740   7.293  0.3346  0.1528 -0.0601
  857MOL0     C18161   8.561   2.634   7.195  0.3128  0.4377  0.2508
  857MOL0     C18162   8.553   2.661   7.063 -0.9748  0.1261 -0.0140
  857MOL0     C18163   8.534   2.794   7.018 -0.3397  0.8473 -0.4210
  857MOL0     O18164   8.510   2.821   6.884  0.3517  0.6997  0.6657
  857MOL0     C18165   8.397   2.753   6.834 -0.0514  0.4213  0.4689
  857MOL0     C18166   8.319   2.852   6.750 -0.9739 -0.8111  0.3888
  857MOL0     C18167   8.233   2.945   6.837  0.4968 -0.5574  0.7477
  857MOL0     C18168   8.153   3.045   6.747  0.4518 -0.1135  0.3442
  857MOL0     C18169   8.223   3.182   6.725 -0.3215  1.0155 -0.0859
  857MOL0     C18170   8.303   3.252   6.835  1.5063 -0.2989  0.2234
  857MOL0     C18171   8.206   3.296   6.955 -1.0638 -0.0659  0.0439
  857MOL0     C18172   8.280   3.411   7.030  0.2356  0.3548  0.9418
  857MOL0    Cl18173   8.419   3.360   7.122  0.5287  0.0507  0.5346
  857MOL0     C18174   8.524   2.898   7.109  0.1243 -0.1827  0.0484
  857MOL0     C18175   8.547   2.870   7.245 -0.2964 -0.2763 -0.0636
  857MOL0     O18176   8.814   2.669   7.374 -0.4767 -0.3870 -0.2886
  857MOL0     C18177   8.650   2.528   7.660 -0.2149 -0.1361 -0.6690
  857MOL0     C18178   8.680   2.468   7.783  0.1684  0.6069  0.5194
  857MOL0     N18179   9.150   2.185   7.693 -0.4610  1.1352  1.0743
  857MOL0     N18180   9.153   2.203   7.562  0.3751  0.2291 -0.4346
  857MOL0     C18181   9.497   1.237   6.927  0.1143 -0.9318 -0.1858
  857MOL0     C18182   9.584   1.214   6.821  0.0341 -0.1732 -0.9166
  857MOL0     C18183   9.883   1.325   6.496 -0.0020  0.4510  1.1763
  857MOL0     C18184   9.950   1.420   6.420 -0.1424  0.5015  0.5290
  857MOL0     C18185  10.042   1.389   6.322 -0.2770  0.8442  0.1212
  857MOL0     C18186  10.076   1.255   6.299 -0.0616 -0.0491  0.4493
  857MOL0     O18187  10.171   1.227   6.200 -0.0660  0.3582 -1.0249
  857MOL0     C18188  10.131   1.129   6.107  0.1881  0.1542 -0.5411
  857MOL0     C18189  10.218   1.143   5.984  0.6313 -0.3881  1.2778
  857MOL0     C18190  10.178   1.031   5.894  0.3651  0.3087  0.2746
  857MOL0     C18191  10.238   1.052   5.760 -0.4785 -1.0424 -0.5770
  857MOL0     C18192  10.182   1.166   5.689 -0.2611  0.5562 -0.0078
  857MOL0     C18193  10.135   1.257   5.629 -0.0344  0.3206  0.1088
  857MOL0     C18194  10.021   1.157   6.391  0.4213  0.8807 -1.1282
  857MOL0     C18195   9.929   1.188   6.495 -0.1067 -0.1658 -0.0433
  857MOL0     C18196   9.886   1.067   6.573 -0.0440  0.2468 -0.4963
  857MOL0     H18197   9.485   1.469   6.619  1.0834  2.5517  1.2690
  857MOL0     H18198   9.311   1.495   6.814 -3.4359 -3.2587  3.1654
  857MOL0     H18199   9.141   1.433   7.122 -0.8251  2.0336 -0.1876
  857MOL0     H18200   9.158   1.463   6.954  1.0918 -2.0716 -1.0127
  857MOL0     H18201   9.350   1.588   7.161  2.0115 -0.8158 -1.7961
  857MOL0     H18202   9.332   1.622   6.989  2.0080 -1.7474  1.1772
  857MOL0     H18203   9.068   1.668   7.056  1.2966  0.0261 -1.3443
  857MOL0     H18204   9.131   1.676   7.210  2.2181  1.6956  1.1177
  857MOL0     H18205   9.301   1.862   7.133  0.2310 -1.9359 -0.5648
  857MOL0     H18206   9.226   1.838   6.972 -4.0215  0.3570 -1.1025
  857MOL0     H18207   9.017   1.948   7.053  1.9930  0.1305 -1.9520
  857MOL0     H18208   9.132   2.042   7.043 -1.1905  0.8078  0.3996
  857MOL0     H18209   9.015   1.947   7.301  0.1197 -0.9432  0.9356
  857MOL0     H18210   9.194   1.988   7.306  0.7260  0.8666  0.6514
  857MOL0     H18211   9.019   2.180   7.161  0.8203  1.9874  0.8439
  857MOL0     H18212   9.162   2.210   7.252  0.5969 -1.6457  2.1454
  857MOL0     H18213   8.977   2.313   7.361 -0.9599 -1.1055 -2.6069
  857MOL0     H18214   8.879   2.177   7.346 -0.7216  0.9838 -0.6615
  857MOL0     H18215   8.848   2.075   7.600 -0.8567  2.0163  2.6308
  857MOL0     H18216   9.065   2.030   7.908  3.0030  0.9682 -2.7427
  857MOL0     H18217   8.912   1.989   7.823 -1.7777  2.2138  0.2779
  857MOL0     H18218   8.817   2.214   7.870  0.9217 -0.2063 -1.2388
  857MOL0     H18219   8.861   2.135   8.024  0.5956  1.1714  0.7122
  857MOL0     H18220   9.093   2.271   8.009  1.4593  1.6535 -0.8621
  857MOL0     H18221   9.032   2.342   7.859 -2.4876 -0.9433 -0.1450
  857MOL0     H18222   8.922   2.377   8.131  1.8091  1.0067  0.2174
  857MOL0     H18223   8.998   2.500   8.031  0.8123 -1.5815  1.5400
  857MOL0     H18224   8.984   2.610   7.819  0.7235 -1.4524  0.7493
  857MOL0     H18225   8.928   2.853   7.581  2.7707  0.3641 -3.1159
  857MOL0     H18226   9.009   2.703   7.518 -1.4604 -0.1034 -0.4242
  857MOL0     H18227   9.037   2.760   7.684  2.7004 -2.8640 -0.8700
  857MOL0     H18228   8.596   2.538   7.229  1.4477 -0.0878 -2.1542
  857MOL0     H18229   8.569   2.585   6.987 -0.3348  0.6246 -0.3896
  857MOL0     H18230   8.431   2.669   6.772  2.0503 -0.1044  2.2309
  857MOL0     H18231   8.338   2.711   6.915 -1.1847 -0.5294 -0.7992
  857MOL0     H18232   8.386   2.912   6.687 -3.2149 -0.2330 -1.5861
  857MOL0     H18233   8.253   2.787   6.693 -2.0525  1.9445 -1.7392
  857MOL0     H18234   8.301   2.989   6.910  1.7585  0.5016 -0.9751
  857MOL0     H18235   8.164   2.887   6.900 -0.6313  1.0848  1.0697
  857MOL0     H18236   8.053   3.065   6.786  0.4748 -0.9526  0.8564
  857MOL0     H18237   8.146   3.005   6.645 -0.2812  2.6084 -0.7626
  857MOL0     H18238   8.295   3.175   6.643  1.2250  5.2788  0.6584
  857MOL0     H18239   8.140   3.249   6.700 -2.1664 -1.4883 -1.0905
  857MOL0     H18240   8.352   3.343   6.798  3.0228 -1.3513 -0.4763
  857MOL0     H18241   8.381   3.184   6.868 -0.6405 -3.2894 -0.3881
  857MOL0     H18242   8.209   3.207   7.019  0.0792 -0.8191 -1.0169
  857MOL0     H18243   8.105   3.319   6.920 -1.6870 -1.5679  0.7640
  857MOL0     H18244   8.206   3.456   7.096  0.9812  2.7155  0.2600
  857MOL0     H18245   8.305   3.486   6.953 -1.2106  0.2536  0.3497
  857MOL0     H18246   8.519   2.998   7.067  1.1727 -0.4400 -0.7296
  857MOL0     H18247   8.552   2.961   7.303  0.0676 -0.3181 -0.0264
  857MOL0     H18248   8.559   2.498   7.608 -0.4965  1.3370 -1.0821
  857MOL0     H18249   8.604   2.399   7.818 -1.9709  2.9845  0.8979
  857MOL0     H18250   9.497   1.169   7.012 -0.7995 -0.2580  0.3642
  857MOL0     H18251   9.657   1.135   6.826  2.1547  1.7279  0.0310
  857MOL0     H18252   9.933   1.527   6.410  1.8344  0.6494 -4.8569
  857MOL0     H18253  10.082   1.480   6.277  1.4100  0.9786  1.7587
  857MOL0     H18254  10.153   1.034   6.157  1.7747  1.2227  0.8971
  857MOL0     H18255  10.024   1.130   6.083 -0.3535 -1.2115  1.5568
  857MOL0     H18256  10.325   1.132   6.003  2.0443  2.3805 -3.4120
  857MOL0     H18257  10.212   1.241   5.935  1.7455 -1.2189 -0.6390
  857MOL0     H18258  10.203   0.928   5.923 -0.4864 -0.3894 -1.2772
  857MOL0     H18259  10.070   1.039   5.873 -0.1494  4.1200  3.2374
  857MOL0     H18260  10.234   0.955   5.709  1.8284 -1.0487 -0.8304
  857MOL0     H18261  10.345   1.071   5.775 -0.7712  0.5478 -0.3470
  857MOL0     H18262  10.079   1.335   5.580  0.0339  2.2811  2.9591
  857MOL0     H18263  10.061   1.056   6.393 -1.4567  0.0872  0.8712
  857MOL0     H18264   9.834   1.088   6.667 -1.6488 -2.5464 -0.6481
  857MOL0     H18265   9.815   1.000   6.522  0.5905 -1.8588  1.2358
  857MOL0     H18266   9.973   1.006   6.598 -1.6496 -1.3498  1.5773
  858MOL0     O18267   6.971   5.917   3.472 -0.1868 -0.0054  0.3709
  858MOL0     C18268   7.039   5.843   3.400  0.2256 -1.6546 -0.3484
  858MOL0     O18269   7.177   5.844   3.405  0.1333 -0.1272 -0.1983
  858MOL0     C18270   7.242   5.953   3.451 -0.4582 -0.2375  0.4614
  858MOL0     C18271   7.256   5.974   3.587 -0.4291  0.1944 -0.2113
  858MOL0     C18272   7.317   6.092   3.622  0.2673  0.0804  0.1904
  858MOL0     C18273   7.368   6.184   3.539  0.7933 -0.0459 -0.4756
  858MOL0     O18274   7.422   6.295   3.579  0.1210 -0.0143  0.4735
  858MOL0     C18275   7.481   6.314   3.714  1.1034  0.8615 -0.3835
  858MOL0     C18276   7.594   6.219   3.756 -0.1873  0.8249  0.4832
  858MOL0     C18277   7.613   6.207   3.909  0.4249 -0.0245  0.5069
  858MOL0     C18278   7.652   6.342   3.966  1.0364  0.4124  1.0380
  858MOL0     C18279   7.688   6.329   4.113 -0.8767 -0.6837  0.2324
  858MOL0     C18280   7.595   6.238   4.197 -0.6210 -0.0208 -0.7678
  858MOL0     C18281   7.608   6.292   4.346 -0.3955  0.1551  0.4589
  858MOL0     C18282   7.494   6.240   4.435 -0.9009 -0.4583  0.1062
  858MOL0     N18283   7.513   6.091   4.444  0.8030 -0.5236 -0.3120
  858MOL0     C18284   7.613   6.029   4.515  0.1451  0.3846 -0.0388
  858MOL0     C18285   7.598   5.899   4.488  0.3690 -0.6575 -0.7130
  858MOL0     C18286   7.689   5.808   4.554  0.7851  0.8308 -1.1201
  858MOL0     C18287   7.636   5.659   4.553 -0.2781  0.1830 -0.6082
  858MOL0     C18288   7.756   5.569   4.591  0.1059 -0.3008 -0.1002
  858MOL0     C18289   7.720   5.443   4.670  0.2150 -0.2277  0.2721
  858MOL0     O18290   7.665   5.349   4.580  0.3405  0.7019  0.2158
  858MOL0     C18291   7.662   5.215   4.622  0.4567  0.1801  0.0703
  858MOL0     C18292   7.750   5.131   4.562  0.3354  0.3435  0.6017
  858MOL0     C18293   7.764   4.996   4.601  0.5423 -0.3059 -0.9956
  858MOL0     C18294   7.856   4.902   4.527 -0.4136  0.9044 -0.5695
  858MOL0     C18295   7.699   4.952   4.722 -0.5158 -0.7948 -0.0637
  858MOL0     C18296   7.699   4.816   4.778 -0.2824  1.0304  0.1560
  858MOL0     O18297   7.715   4.787   4.910 -0.5013 -0.5236  0.7362
  858MOL0     C18298   7.718   4.653   4.939  1.1863 -0.4290 -0.3983
  858MOL0     C18299   7.648   4.605   5.051 -0.6246 -0.1208  0.3712
  858MOL0     C18300   7.649   4.468   5.084  0.1255  0.5574 -0.4099
  858MOL0     C18301   7.734   4.383   5.018  0.5765  0.6237 -0.3049
  858MOL0     O18302   7.754   4.251   5.034  0.1689  1.6149 -0.5741
  858MOL0     C18303   7.706   4.168   5.146  0.3769  0.6823  0.4884
  858MOL0     C18304   7.677   4.027   5.088 -0.2228 -0.3263 -0.0326
  858MOL0     C18305   7.570   4.024   4.979  0.6129  0.0928 -0.1820
  858MOL0     C18306   7.483   3.899   4.960 -0.1983 -0.0096  0.3422
  858MOL0     C18307   7.349   3.917   4.888  0.1045  0.7432 -0.1519
  858MOL0     C18308   7.287   3.782   4.839 -0.5920  0.5496 -0.2003
  858MOL0     C18309   7.178   3.789   4.739  0.0868 -0.2958 -0.1181
  858MOL0     C18310   7.046   3.844   4.802 -0.0384  0.6225 -0.6168
  858MOL0    Cl18311   6.995   3.733   4.925 -0.2612 -0.1398 -0.0596
  858MOL0     C18312   7.814   4.431   4.920  0.2162 -0.0884 -0.2106
  858MOL0     C18313   7.810   4.563   4.878  0.8833 -0.3251 -1.2240
  858MOL0     O18314   7.690   4.726   4.695 -0.2662 -0.1500 -0.1467
  858MOL0     C18315   7.616   5.042   4.784 -0.6774  0.3440  0.1141
  858MOL0     C18316   7.595   5.170   4.733  0.2219  0.3259 -0.3871
  858MOL0     N18317   7.506   5.880   4.383 -0.3635  0.0635 -0.7174
  858MOL0     N18318   7.458   5.995   4.356  1.2221  0.3597  0.5964
  858MOL0     C18319   7.333   6.174   3.402  0.3231  0.2417 -0.9056
  858MOL0     C18320   7.277   6.056   3.358  0.3035  0.3286  0.1983
  858MOL0     C18321   6.968   5.755   3.301  0.3317 -0.1943  0.6914
  858MOL0     C18322   7.048   5.689   3.206  0.2391 -0.9450 -0.4332
  858MOL0     C18323   6.990   5.624   3.091 -0.3354  0.6407  0.0063
  858MOL0     C18324   6.860   5.635   3.064  0.6923  0.2919  0.4500
  858MOL0     O18325   6.786   5.590   2.959 -0.1605 -0.2015 -0.0533
  858MOL0     C18326   6.845   5.548   2.837  0.4074  0.0894  0.1973
  858MOL0     C18327   6.883   5.396   2.841 -0.3568 -0.4599 -0.2264
  858MOL0     C18328   6.782   5.300   2.896 -0.3524  0.0440 -1.1696
  858MOL0     C18329   6.830   5.153   2.901 -0.2587  0.5783 -0.4579
  858MOL0     C18330   6.845   5.105   2.764  0.4640  0.7835  0.3757
  858MOL0     C18331   6.845   5.079   2.647  0.6588 -0.3416  0.9296
  858MOL0     C18332   6.782   5.687   3.164  0.0864 -0.9172  0.1835
  858MOL0     C18333   6.832   5.751   3.276  0.6110  0.1899 -0.0297
  858MOL0     C18334   6.733   5.826   3.371 -0.3740 -0.2716 -0.1438
  858MOL0     H18335   7.246   5.894   3.659  1.6906  0.6993  0.7128
  858MOL0     H18336   7.330   6.120   3.726  2.2857  4.1788 -0.9416
  858MOL0     H18337   7.401   6.309   3.789 -0.4026 -1.0128 -1.9936
  858MOL0     H18338   7.527   6.412   3.700  0.0557  1.2690 -1.1973
  858MOL0     H18339   7.572   6.120   3.713 -3.8396  1.5319  0.4093
  858MOL0     H18340   7.689   6.244   3.706  0.1092 -1.0785  0.0035
  858MOL0     H18341   7.514   6.177   3.945 -0.6457  1.3815 -1.0784
  858MOL0     H18342   7.694   6.139   3.937  0.8565  1.3930  2.8514
  858MOL0     H18343   7.736   6.383   3.909  2.1069 -3.4770 -0.5332
  858MOL0     H18344   7.564   6.406   3.950  0.0866 -0.5876  2.0374
  858MOL0     H18345   7.693   6.434   4.145  0.5175 -1.0738  1.3922
  858MOL0     H18346   7.791   6.294   4.123 -0.3757  0.6066 -0.1177
  858MOL0     H18347   7.491   6.258   4.174 -1.1527 -1.5824  0.0999
  858MOL0     H18348   7.637   6.137   4.191 -1.2719 -0.5429  1.9218
  858MOL0     H18349   7.584   6.399   4.341 -1.2684 -0.0875 -1.3759
  858MOL0     H18350   7.705   6.274   4.395 -0.6775  0.6410  1.2199
  858MOL0     H18351   7.520   6.271   4.536 -1.8959  0.3397  0.1276
  858MOL0     H18352   7.393   6.267   4.403 -0.0829 -0.9182 -3.2984
  858MOL0     H18353   7.680   6.080   4.585 -0.0602 -1.0188  1.2340
  858MOL0     H18354   7.703   5.844   4.657  0.6217 -1.0327 -0.3914
  858MOL0     H18355   7.781   5.807   4.496  0.4292 -0.2121 -1.6876
  858MOL0     H18356   7.548   5.648   4.616 -0.6004  0.8532 -0.9270
  858MOL0     H18357   7.610   5.638   4.449  1.2471  2.1071 -1.4519
  858MOL0     H18358   7.801   5.549   4.493 -1.8664  1.6745 -1.5207
  858MOL0     H18359   7.821   5.634   4.650 -0.8499  1.4258 -0.8746
  858MOL0     H18360   7.810   5.400   4.713  0.4684  1.5689  1.6465
  858MOL0     H18361   7.664   5.461   4.762  0.8175 -0.0932  0.6179
  858MOL0     H18362   7.809   5.155   4.474  0.6846  0.5315  0.8800
  858MOL0     H18363   7.928   4.967   4.476 -0.9881  0.3066 -2.2050
  858MOL0     H18364   7.808   4.836   4.454  0.2699  0.2931 -0.4743
  858MOL0     H18365   7.906   4.832   4.594 -2.2513 -0.3344 -0.3925
  858MOL0     H18366   7.594   4.680   5.107 -0.9316  1.3637 -1.7933
  858MOL0     H18367   7.572   4.437   5.155  1.8566 -0.9670  0.9130
  858MOL0     H18368   7.787   4.150   5.219  2.2548 -4.2383 -2.3036
  858MOL0     H18369   7.618   4.212   5.194 -0.0697  0.7280 -0.3522
  858MOL0     H18370   7.774   3.990   5.054  2.7488  2.9940  3.7567
  858MOL0     H18371   7.645   3.966   5.173  0.4571 -0.6625 -0.0099
  858MOL0     H18372   7.627   4.049   4.889  1.6342 -4.0479 -0.8736
  858MOL0     H18373   7.502   4.107   4.999  0.5723  0.2243 -0.8638
  858MOL0     H18374   7.467   3.868   5.063 -0.5369 -2.4715 -0.3795
  858MOL0     H18375   7.544   3.816   4.922  0.1003 -0.6653  2.1617
  858MOL0     H18376   7.280   3.960   4.961  3.5457 -1.4862  5.1161
  858MOL0     H18377   7.374   3.982   4.804 -1.1324  0.7724 -0.5085
  858MOL0     H18378   7.260   3.726   4.928  2.5519  1.7203  1.6769
  858MOL0     H18379   7.370   3.723   4.798 -0.3949 -0.1422  1.1471
  858MOL0     H18380   7.160   3.691   4.695  0.7989  0.3660 -2.0016
  858MOL0     H18381   7.198   3.858   4.657 -4.2073 -0.5268 -1.5706
  858MOL0     H18382   6.978   3.845   4.717  0.9804 -0.9699 -1.5057
  858MOL0     H18383   7.041   3.942   4.851  0.8879 -1.2297  3.6243
  858MOL0     H18384   7.879   4.353   4.881 -1.4870 -1.0274 -1.2720
  858MOL0     H18385   7.878   4.603   4.803  0.8104 -1.9994 -2.2327
  858MOL0     H18386   7.564   5.000   4.870  0.0508  0.8473  0.8203
  858MOL0     H18387   7.519   5.229   4.784 -0.3462  0.0041 -0.8522
  858MOL0     H18388   7.339   6.256   3.331  0.0017  1.2299  0.1645
  858MOL0     H18389   7.239   6.048   3.256 -0.6488  0.5813  0.5269
  858MOL0     H18390   7.156   5.684   3.224  0.9133  0.7137 -3.4483
  858MOL0     H18391   7.048   5.571   3.017  2.9069 -0.6341  3.1571
  858MOL0     H18392   6.778   5.556   2.751 -1.2010 -2.9069  1.0207
  858MOL0     H18393   6.940   5.601   2.829  1.5352 -1.6335  1.3689
  858MOL0     H18394   6.972   5.385   2.903 -0.7764 -1.1002  0.2734
  858MOL0     H18395   6.912   5.350   2.746  2.7402 -1.0974  0.9081
  858MOL0     H18396   6.753   5.330   2.997  2.2770 -1.2668  0.0585
  858MOL0     H18397   6.689   5.311   2.839 -1.4800  2.0395  0.9030
  858MOL0     H18398   6.763   5.087   2.956  0.9017 -1.2051 -1.0879
  858MOL0     H18399   6.929   5.138   2.944  0.0581  0.8453 -1.0737
  858MOL0     H18400   6.842   5.060   2.541  3.7492  2.8511  0.0973
  858MOL0     H18401   6.674   5.688   3.148  0.0673  2.5931 -0.1150
  858MOL0     H18402   6.628   5.817   3.340 -0.5189  0.4536  0.1243
  858MOL0     H18403   6.738   5.787   3.473 -0.0844 -0.2247 -0.1395
  858MOL0     H18404   6.763   5.930   3.353  1.1766 -0.6062  0.4249
  859MOL0     O18405   5.649   0.520   0.201 -0.0659 -0.0617  0.7098
  859MOL0     C18406   5.558   0.439   0.194  0.4091  0.4379 -0.7428
  859MOL0     O18407   5.522   0.351   0.294  0.6791  0.2394  0.1173
  859MOL0     C18408   5.571   0.353   0.424 -0.3155  0.4633  0.4680
  859MOL0     C18409   5.503   0.439   0.508  0.3568 -0.4405 -0.5578
  859MOL0     C18410   5.559   0.457   0.638  0.5257  0.4696  0.6385
  859MOL0     C18411   5.679   0.392   0.678 -0.4665 -0.3594 -0.1913
  859MOL0     O18412   5.721   0.404   0.813  0.3985 -0.0515 -0.7289
  859MOL0     C18413   5.801   0.299   0.862 -0.0560 -0.1016 -0.2695
  859MOL0     C18414   5.761   0.271   1.007 -0.3346  1.4663  0.0463
  859MOL0     C18415   5.849   0.359   1.100 -0.0272 -0.3015 -0.5172
  859MOL0     C18416   5.786   0.336   1.242  0.9595  0.2296 -0.2144
  859MOL0     C18417   5.892   0.370   1.351 -0.2198 -0.7893 -0.2659
  859MOL0     C18418   5.989   0.249   1.388  0.6789 -0.3036  0.2821
  859MOL0     C18419   5.927   0.126   1.454 -0.3175 -0.9700  0.1037
  859MOL0     C18420   5.823   0.153   1.568  0.4003  0.1539  0.4940
  859MOL0     N18421   5.735   0.042   1.600 -0.4977  0.5179  0.2544
  859MOL0     C18422   5.597   0.041   1.573 -0.0609 -0.6435 -0.2389
  859MOL0     C18423   5.556  -0.091   1.586  0.7292  0.0178  1.3652
  859MOL0     C18424   5.412  -0.143   1.581  0.3533  0.0118  0.1530
  859MOL0     C18425   5.335  -0.062   1.473  0.2239  0.0064  0.1857
  859MOL0     C18426   5.247   0.054   1.544 -0.3933 -0.2017 -0.5920
  859MOL0     C18427   5.106   0.039   1.493 -0.0747 -0.2898 -0.4560
  859MOL0     O18428   5.028   0.133   1.565 -0.1017  0.1644 -0.7967
  859MOL0     C18429   4.894   0.140   1.545  0.5080 -0.1699  0.5389
  859MOL0     C18430   4.806   0.176   1.657  1.4847 -0.3692  0.1584
  859MOL0     C18431   4.668   0.146   1.658  0.2247 -0.0389  0.7455
  859MOL0     C18432   4.591   0.186   1.781 -0.3855  1.1726  0.2867
  859MOL0     C18433   4.612   0.083   1.533 -0.3352  0.1548  0.5649
  859MOL0     C18434   4.474   0.056   1.501  0.3580 -0.1858  0.4070
  859MOL0     O18435   4.443   0.021   1.374 -0.2042 -0.3136  0.5595
  859MOL0     C18436   4.311   0.008   1.353 -1.0970 -0.2725  0.4159
  859MOL0     C18437   4.259   0.079   1.242 -0.2998  0.3197 -0.2556
  859MOL0     C18438   4.121   0.066   1.223 -0.6674 -0.4251  1.1181
  859MOL0     C18439   4.044  -0.025   1.287 -0.4174 -0.9550 -0.2618
  859MOL0     O18440   3.904  -0.037   1.271  0.2443  0.6279  0.2107
  859MOL0     C18441   3.819   0.045   1.190 -0.8269 -0.5343  0.0189
  859MOL0     C18442   3.816   0.200   1.250  0.1425  0.0279 -0.0240
  859MOL0     C18443   3.698   0.292   1.203 -0.8080 -0.0159  0.6521
  859MOL0     C18444   3.562   0.210   1.183  0.7084 -0.5725 -0.1591
  859MOL0     C18445   3.439   0.296   1.190  1.2625  0.7027  0.6406
  859MOL0     C18446   3.404   0.386   1.067 -0.6035  0.3805  0.1861
  859MOL0     C18447   3.303   0.494   1.092 -0.1545 -0.3176  0.6879
  859MOL0     C18448   3.175   0.434   1.134  0.4898  0.3494  0.7272
  859MOL0    Cl18449   3.039   0.555   1.120 -0.3184  0.1958 -0.1477
  859MOL0     C18450   4.105  -0.121   1.373  1.2123 -1.1281  0.0848
  859MOL0     C18451   4.238  -0.095   1.419 -0.7018 -0.4605 -0.0518
  859MOL0     O18452   4.390   0.063   1.595 -0.5810  0.7659  0.3407
  859MOL0     C18453   4.697   0.066   1.424 -0.8792 -0.0378 -0.1774
  859MOL0     C18454   4.837   0.089   1.431  1.0063 -1.0115 -0.8340
  859MOL0     N18455   5.666  -0.171   1.621  0.0550  0.3826 -0.1437
  859MOL0     N18456   5.769  -0.090   1.639  0.4515  1.1603  1.0223
  859MOL0     C18457   5.741   0.299   0.588 -1.1151 -0.0308 -0.4891
  859MOL0     C18458   5.689   0.288   0.459  0.0565  0.7745 -0.1761
  859MOL0     C18459   5.466   0.452   0.075  0.4946 -0.5084 -0.5509
  859MOL0     C18460   5.507   0.531  -0.032 -0.7114 -0.9440  0.3450
  859MOL0     C18461   5.419   0.561  -0.140 -0.7801  0.1043 -1.0370
  859MOL0     C18462   5.291   0.506  -0.145 -0.3297 -0.0314 -0.5669
  859MOL0     O18463   5.222   0.540  -0.261 -0.2185 -0.4611 -0.6036
  859MOL0     C18464   5.080   0.547  -0.245 -0.1324 -0.3318  0.2017
  859MOL0     C18465   5.018   0.629  -0.358  0.0706 -0.0010 -0.4023
  859MOL0     C18466   5.103   0.758  -0.393 -0.2104  0.5978 -0.4316
  859MOL0     C18467   5.214   0.731  -0.493 -0.9121  0.2003 -0.5927
  859MOL0     C18468   5.206   0.828  -0.604 -0.3461 -0.4487  0.0189
  859MOL0     C18469   5.197   0.906  -0.702 -0.6730 -0.5732  0.0485
  859MOL0     C18470   5.255   0.425  -0.039 -0.6993  0.4359 -0.1553
  859MOL0     C18471   5.336   0.397   0.072 -0.1348 -0.3008 -0.3931
  859MOL0     C18472   5.264   0.307   0.173 -0.1516 -1.6545  0.0738
  859MOL0     H18473   5.414   0.482   0.463  2.4320  1.4260 -3.1971
  859MOL0     H18474   5.511   0.514   0.717 -2.5660  1.1801 -1.5444
  859MOL0     H18475   5.906   0.318   0.841  0.1402  1.9184  2.0324
  859MOL0     H18476   5.764   0.217   0.800 -3.0108  0.6787  0.3038
  859MOL0     H18477   5.656   0.299   1.015 -1.0959 -1.4007  1.8887
  859MOL0     H18478   5.771   0.164   1.029  2.1970  1.1762 -2.0965
  859MOL0     H18479   5.949   0.320   1.122 -1.2421 -4.1386 -1.1022
  859MOL0     H18480   5.850   0.464   1.071  0.6780 -0.1245  0.1135
  859MOL0     H18481   5.695   0.396   1.255 -1.1029 -2.8083  0.2376
  859MOL0     H18482   5.753   0.232   1.243  0.0946  0.3916 -3.0652
  859MOL0     H18483   5.851   0.405   1.446  3.4401  0.8704  0.8664
  859MOL0     H18484   5.948   0.456   1.313 -0.0438 -1.7424 -2.2873
  859MOL0     H18485   6.035   0.206   1.299 -0.7626  1.2588 -1.2773
  859MOL0     H18486   6.065   0.289   1.456  0.4326 -1.1765  1.1021
  859MOL0     H18487   6.013   0.064   1.481  2.2354  2.6182  0.8735
  859MOL0     H18488   5.866   0.085   1.372 -0.8134  1.4751 -0.8332
  859MOL0     H18489   5.865   0.175   1.666  4.5456 -0.9036 -0.8556
  859MOL0     H18490   5.749   0.232   1.549 -2.6623 -2.1014  2.1601
  859MOL0     H18491   5.533   0.126   1.553  2.1010  0.5027 -2.9661
  859MOL0     H18492   5.351  -0.147   1.671 -1.1676 -0.6450 -0.8559
  859MOL0     H18493   5.415  -0.248   1.551 -0.0939  0.9128 -3.6385
  859MOL0     H18494   5.402  -0.013   1.402 -1.5628 -0.3413 -1.8642
  859MOL0     H18495   5.278  -0.127   1.405  0.1540 -0.9402  1.1187
  859MOL0     H18496   5.239   0.031   1.651 -2.1739 -0.5057 -0.7694
  859MOL0     H18497   5.299   0.150   1.544  2.3422 -1.4663  2.5200
  859MOL0     H18498   5.099   0.051   1.384 -2.1583 -3.5883 -0.8454
  859MOL0     H18499   5.073  -0.064   1.511 -3.8640  0.8760  0.3203
  859MOL0     H18500   4.861   0.207   1.745 -0.4437  1.3509  0.8315
  859MOL0     H18501   4.496   0.231   1.752 -0.2663  1.4474  0.3209
  859MOL0     H18502   4.647   0.259   1.840 -1.4109 -0.6864  3.7947
  859MOL0     H18503   4.559   0.101   1.842 -0.5936 -0.3643 -1.8499
  859MOL0     H18504   4.331   0.140   1.188  0.7605 -4.6448 -5.4953
  859MOL0     H18505   4.091   0.135   1.145  1.6200  1.4071  1.7507
  859MOL0     H18506   3.841   0.024   1.085 -0.3661 -1.3161  0.2687
  859MOL0     H18507   3.720   0.002   1.209 -0.1103 -0.9782  3.2683
  859MOL0     H18508   3.791   0.197   1.356 -2.3564  3.3875 -0.3488
  859MOL0     H18509   3.899   0.266   1.224 -1.4908  2.5456  0.7852
  859MOL0     H18510   3.724   0.342   1.109 -1.7615 -0.8434 -0.0690
  859MOL0     H18511   3.686   0.362   1.286 -0.6270 -1.5671  2.0260
  859MOL0     H18512   3.555   0.131   1.259 -2.8084 -0.2957 -0.0456
  859MOL0     H18513   3.558   0.155   1.089 -1.7901  0.9669 -1.0581
  859MOL0     H18514   3.350   0.235   1.208  0.0505  3.0623  3.2870
  859MOL0     H18515   3.432   0.360   1.278  0.5944  2.4307 -0.5958
  859MOL0     H18516   3.368   0.329   0.981 -0.3794 -2.5657  1.8970
  859MOL0     H18517   3.490   0.445   1.035 -1.1584  1.1947  0.1858
  859MOL0     H18518   3.282   0.550   1.001 -1.2146  0.3483  1.3091
  859MOL0     H18519   3.337   0.567   1.166 -0.6715 -0.4736  1.0881
  859MOL0     H18520   3.181   0.399   1.238  0.1513  1.8260  1.2740
  859MOL0     H18521   3.144   0.345   1.080  1.7008  1.4115 -1.9087
  859MOL0     H18522   4.055  -0.206   1.419  1.8054 -2.0994 -1.0120
  859MOL0     H18523   4.287  -0.150   1.499  0.1848  0.2428 -0.0852
  859MOL0     H18524   4.670   0.035   1.323  1.9990  2.1969 -1.8077
  859MOL0     H18525   4.894   0.105   1.340  4.0342  2.0367  1.3007
  859MOL0     H18526   5.837   0.251   0.599 -0.9055  0.2082 -1.2132
  859MOL0     H18527   5.730   0.217   0.388  0.4463  1.1716 -0.3572
  859MOL0     H18528   5.593   0.596  -0.040  0.2877 -1.9105  2.2938
  859MOL0     H18529   5.465   0.627  -0.213  2.9133 -0.1278  0.8455
  859MOL0     H18530   5.032   0.451  -0.227 -0.8969 -0.1833 -0.8800
  859MOL0     H18531   5.057   0.591  -0.148 -0.2678 -4.5344  2.2679
  859MOL0     H18532   4.922   0.675  -0.333  1.1125  1.6823  0.6686
  859MOL0     H18533   4.999   0.570  -0.448  0.3752 -0.9546  0.1386
  859MOL0     H18534   5.033   0.824  -0.445 -0.1795  0.1763 -1.0182
  859MOL0     H18535   5.152   0.814  -0.312  2.2551  1.3634 -2.2959
  859MOL0     H18536   5.207   0.627  -0.526  1.6787 -0.7446  1.4828
  859MOL0     H18537   5.314   0.741  -0.449 -0.2375 -3.0812 -1.0822
  859MOL0     H18538   5.202   0.956  -0.796 -0.7425  0.5775  0.6393
  859MOL0     H18539   5.165   0.366  -0.049 -0.9540  1.0831 -1.8597
  859MOL0     H18540   5.169   0.269   0.132 -0.4334 -0.2857 -0.5910
  859MOL0     H18541   5.331   0.223   0.191 -0.5262 -1.6917  1.4122
  859MOL0     H18542   5.248   0.357   0.269  3.5639 -0.3456  0.1497
  860MOL0     O18543   2.316  10.169   4.448  0.4016 -0.3218  0.2484
  860MOL0     C18544   2.391  10.108   4.372  0.4617  1.2160 -0.8948
  860MOL0     O18545   2.441  10.152   4.250  0.2234 -0.2937 -0.2568
  860MOL0     C18546   2.469  10.285   4.229  0.1792 -0.9125 -0.3424
  860MOL0     C18547   2.419  10.359   4.119  0.0749  0.2677 -0.1033
  860MOL0     C18548   2.451  10.498   4.104  0.0437  0.4410  0.7506
  860MOL0     C18549   2.526  10.560   4.203 -0.4898  0.3241  0.7169
  860MOL0     O18550   2.562  10.687   4.174  0.0389 -0.2617  0.2344
  860MOL0     C18551   2.503  10.791   4.260 -0.7467 -0.1062  0.7172
  860MOL0     C18552   2.524  10.934   4.193  0.8856  0.1857 -0.0204
  860MOL0     C18553   2.487  11.047   4.285  0.3026  0.1702 -0.7604
  860MOL0     C18554   2.597  11.153   4.281 -0.0956  0.1671  0.5145
  860MOL0     C18555   2.588  11.260   4.387 -0.1828 -0.2496 -0.0924
  860MOL0     C18556   2.698  11.361   4.378  0.2836 -0.4772 -0.5005
  860MOL0     C18557   2.696  11.442   4.512  0.2555  0.0700  0.7867
  860MOL0     C18558   2.822  11.522   4.506  0.0259  0.1204  0.0177
  860MOL0     N18559   2.851  11.578   4.640 -0.5109  0.1221  0.0781
  860MOL0     C18560   2.753  11.630   4.721 -0.4617  0.2232 -0.4396
  860MOL0     C18561   2.808  11.637   4.843 -0.4943  0.4546  0.4588
  860MOL0     C18562   2.755  11.697   4.965  0.0936 -0.8753 -0.0456
  860MOL0     C18563   2.824  11.838   4.992  0.0257 -0.4725  0.7524
  860MOL0     C18564   2.745  11.919   5.093  0.6624  0.4909 -0.1966
  860MOL0     C18565   2.734  11.872   5.236  0.8068 -0.8661  0.7556
  860MOL0     O18566   2.679  11.978   5.305  0.6860  0.2587  0.4983
  860MOL0     C18567   2.759  12.085   5.339  0.1051  0.2325 -0.1927
  860MOL0     C18568   2.901  12.099   5.323  0.1188  0.1978  0.3835
  860MOL0     C18569   2.971  12.210   5.372 -0.9315 -0.4270  0.1578
  860MOL0     C18570   3.121  12.218   5.356 -0.2566  0.2313 -0.0274
  860MOL0     C18571   2.911  12.320   5.432  0.1114  1.2020 -0.4867
  860MOL0     C18572   2.976  12.431   5.505 -0.3812 -0.3918  0.1474
  860MOL0     O18573   3.073  12.408   5.593 -0.2844 -0.1500 -0.4274
  860MOL0     C18574   3.132  12.505   5.680  0.0711 -0.4924  0.0945
  860MOL0     C18575   3.276  12.524   5.695 -0.1110  0.1511  0.9436
  860MOL0     C18576   3.327  12.626   5.767 -0.3472 -0.0925  0.1607
  860MOL0     C18577   3.240  12.719   5.826  0.1634  0.0582  0.1919
  860MOL0     O18578   3.309  12.826   5.870 -1.3340  0.7778  0.4470
  860MOL0     C18579   3.253  12.944   5.931 -1.0236 -0.1357  0.5723
  860MOL0     C18580   3.207  13.036   5.821 -0.1747 -0.4495 -0.4685
  860MOL0     C18581   3.291  13.052   5.695 -0.1814 -0.0282 -0.1661
  860MOL0     C18582   3.436  13.084   5.706  0.1803  0.1220  0.6162
  860MOL0     C18583   3.476  13.219   5.765 -0.2098 -0.0443  0.1202
  860MOL0     C18584   3.630  13.231   5.774 -0.0351  1.3799 -0.1548
  860MOL0     C18585   3.669  13.365   5.841 -0.5945 -0.1636 -1.0398
  860MOL0     C18586   3.815  13.375   5.871  0.2803  0.9826 -0.5758
  860MOL0    Cl18587   3.904  13.448   5.733  0.0056 -0.5690  0.6694
  860MOL0     C18588   3.107  12.697   5.828  0.4730 -0.4207  0.2368
  860MOL0     C18589   3.043  12.581   5.760 -0.9829  0.1327 -0.3847
  860MOL0     O18590   2.942  12.546   5.477  0.5537  0.9113 -0.4562
  860MOL0     C18591   2.772  12.309   5.440  0.1039  0.0337  0.2546
  860MOL0     C18592   2.699  12.193   5.400 -0.1384  0.1435 -0.1592
  860MOL0     N18593   2.939  11.578   4.836  0.8161  0.0115 -0.6348
  860MOL0     N18594   2.961  11.546   4.717  0.0577  0.3532 -0.8719
  860MOL0     C18595   2.578  10.483   4.305 -0.0820 -1.1106 -0.6629
  860MOL0     C18596   2.544  10.356   4.320 -0.7850  0.6901  0.4061
  860MOL0     C18597   2.395   9.966   4.419 -0.7827 -0.0880 -0.8737
  860MOL0     C18598   2.321   9.878   4.342 -0.0423 -0.0762 -0.0938
  860MOL0     C18599   2.334   9.737   4.376 -0.1354 -0.7963  0.3471
  860MOL0     C18600   2.415   9.698   4.481 -0.1931 -0.7262  0.2044
  860MOL0     O18601   2.420   9.570   4.518 -0.7432  0.2891 -0.3528
  860MOL0     C18602   2.437   9.479   4.408 -0.9024  0.5969  0.5531
  860MOL0     C18603   2.512   9.358   4.455 -0.2210  0.2378 -0.0104
  860MOL0     C18604   2.424   9.280   4.552  0.3210 -0.5784  1.1086
  860MOL0     C18605   2.486   9.163   4.620  1.0259 -0.4560 -0.5861
  860MOL0     C18606   2.382   9.110   4.716 -1.2753  0.4578 -0.1322
  860MOL0     C18607   2.300   9.060   4.782  0.1940 -0.6110 -1.2678
  860MOL0     C18608   2.486   9.791   4.553  0.4068  0.5198  0.3305
  860MOL0     C18609   2.473   9.929   4.530 -0.1075  0.6081 -0.3170
  860MOL0     C18610   2.544  10.023   4.618  1.0789  0.7621  0.0756
  860MOL0     H18611   2.346  10.306   4.057 -1.5617 -1.9431  3.3976
  860MOL0     H18612   2.399  10.550   4.024 -0.5187 -1.8545 -0.4871
  860MOL0     H18613   2.551  10.770   4.356  0.0784 -2.0456 -0.0681
  860MOL0     H18614   2.396  10.765   4.268 -1.1294  0.6841 -1.1907
  860MOL0     H18615   2.628  10.930   4.158  1.8021 -1.8241  2.5912
  860MOL0     H18616   2.462  10.942   4.103  0.1320 -2.9969  0.1017
  860MOL0     H18617   2.399  11.099   4.247  0.7731 -0.0829 -2.2770
  860MOL0     H18618   2.479  11.021   4.391  0.2356  1.5647 -0.3997
  860MOL0     H18619   2.693  11.102   4.297 -0.1673 -0.6726 -1.4571
  860MOL0     H18620   2.592  11.202   4.183  3.5129 -0.2603 -0.0443
  860MOL0     H18621   2.600  11.216   4.487  1.0669  1.4528  0.5578
  860MOL0     H18622   2.491  11.309   4.373 -0.1090 -0.1637 -0.3120
  860MOL0     H18623   2.782  11.291   4.379 -0.4972 -1.4482  0.1568
  860MOL0     H18624   2.696  11.425   4.290 -2.3079 -0.0746 -0.2455
  860MOL0     H18625   2.698  11.371   4.595 -1.7874  1.3694  2.0469
  860MOL0     H18626   2.604  11.501   4.522  1.0101  1.4037  0.1381
  860MOL0     H18627   2.901  11.454   4.473 -1.2215 -2.1396  1.4689
  860MOL0     H18628   2.820  11.606   4.436  3.5008  0.5466  0.2562
  860MOL0     H18629   2.653  11.658   4.689 -0.6197  0.6914  0.4296
  860MOL0     H18630   2.762  11.625   5.046 -0.9027 -1.9705 -0.8969
  860MOL0     H18631   2.648  11.719   4.957  0.2848  0.8197  1.4108
  860MOL0     H18632   2.927  11.834   5.028  1.7080 -0.3344 -3.4694
  860MOL0     H18633   2.847  11.886   4.897  1.2041  0.8853  1.6664
  860MOL0     H18634   2.789  12.019   5.090  1.8343 -0.0118 -1.1176
  860MOL0     H18635   2.650  11.927   5.040  0.9673 -1.5040 -1.1480
  860MOL0     H18636   2.670  11.784   5.243 -0.9383  0.3032  0.2918
  860MOL0     H18637   2.830  11.833   5.270  1.6867  1.2563  0.9021
  860MOL0     H18638   2.957  12.018   5.277 -3.3386 -0.7140 -2.5659
  860MOL0     H18639   3.169  12.303   5.404  1.7684 -0.1266 -1.3149
  860MOL0     H18640   3.143  12.217   5.249  0.8497 -1.8155  0.1713
  860MOL0     H18641   3.168  12.127   5.394 -1.9324 -1.0376 -0.8582
  860MOL0     H18642   3.348  12.461   5.644 -0.0021  0.4766  0.6903
  860MOL0     H18643   3.431  12.651   5.750  0.2029 -0.8454  2.1084
  860MOL0     H18644   3.165  12.915   5.990 -1.6571  1.7804  0.6177
  860MOL0     H18645   3.328  12.993   5.993 -3.6490 -0.0587  3.9361
  860MOL0     H18646   3.112  13.000   5.781  0.0990 -2.8032  0.8217
  860MOL0     H18647   3.191  13.133   5.870 -2.4105 -2.3794  3.1185
  860MOL0     H18648   3.249  13.133   5.635 -2.7193 -1.0639  0.1002
  860MOL0     H18649   3.282  12.955   5.644  3.0680 -0.7529  0.3743
  860MOL0     H18650   3.476  13.076   5.604  0.8132  1.2133  0.7621
  860MOL0     H18651   3.491  13.012   5.768  3.7148  1.5060 -0.6747
  860MOL0     H18652   3.434  13.307   5.716 -0.4719  0.2029  0.7719
  860MOL0     H18653   3.436  13.221   5.867 -2.3261  2.3298 -0.6562
  860MOL0     H18654   3.671  13.231   5.672  1.3472  1.8371  0.3733
  860MOL0     H18655   3.680  13.151   5.831 -0.2916  1.8291  0.7150
  860MOL0     H18656   3.617  13.375   5.937  0.4475 -0.6182 -0.4070
  860MOL0     H18657   3.638  13.450   5.780 -1.0693  1.9483  1.9108
  860MOL0     H18658   3.858  13.278   5.896 -3.5624 -1.4927 -2.6855
  860MOL0     H18659   3.823  13.439   5.959 -2.2594  1.5012 -0.6582
  860MOL0     H18660   3.030  12.767   5.859  2.8808  1.8073  1.5787
  860MOL0     H18661   2.935  12.582   5.748 -1.4866  4.1995  2.3845
  860MOL0     H18662   2.717  12.391   5.485  0.6412 -0.0198  1.0237
  860MOL0     H18663   2.592  12.208   5.408 -0.0466  1.6775 -1.3057
  860MOL0     H18664   2.642  10.530   4.380 -0.7679  0.7571 -1.1834
  860MOL0     H18665   2.586  10.292   4.398 -0.8310 -2.1770 -1.7619
  860MOL0     H18666   2.269   9.899   4.248 -0.4720 -1.2646 -0.1499
  860MOL0     H18667   2.279   9.662   4.320  2.2503 -2.9114  0.6916
  860MOL0     H18668   2.334   9.454   4.382 -0.7689 -1.1754  1.5655
  860MOL0     H18669   2.486   9.517   4.318  0.6639 -3.3582 -0.4619
  860MOL0     H18670   2.603   9.391   4.507  0.9097 -1.4818 -0.7926
  860MOL0     H18671   2.550   9.294   4.376  2.7879  0.8023  0.8571
  860MOL0     H18672   2.397   9.355   4.626  0.2689  0.9791 -0.4319
  860MOL0     H18673   2.328   9.249   4.508 -0.9000  2.3451  1.4760
  860MOL0     H18674   2.573   9.192   4.679  0.8939  1.1993 -1.1476
  860MOL0     H18675   2.506   9.086   4.544 -3.0500 -0.8460 -1.5198
  860MOL0     H18676   2.227   9.015   4.846 -1.8692  1.7192 -1.8147
  860MOL0     H18677   2.532   9.757   4.646 -0.4984  1.1855  1.0405
  860MOL0     H18678   2.574   9.958   4.701 -1.6217 -2.8086 -1.4585
  860MOL0     H18679   2.627  10.070   4.564 -1.3651  1.9571 -2.9712
  860MOL0     H18680   2.478  10.102   4.656  1.9369  1.2335  0.6238
  861MOL0     O18681   6.656   5.937   1.924 -0.4938 -0.0357 -0.3282
  861MOL0     C18682   6.715   5.871   2.006  0.3858 -0.3336  0.0641
  861MOL0     O18683   6.655   5.820   2.117  0.2063 -0.0104 -0.1387
  861MOL0     C18684   6.539   5.879   2.164 -0.5489 -0.1556  0.1548
  861MOL0     C18685   6.545   5.971   2.262  0.4143  0.2475  0.2510
  861MOL0     C18686   6.431   6.041   2.306 -0.1966  0.0776 -0.6215
  861MOL0     C18687   6.307   6.009   2.256  0.8105  1.1643  0.4992
  861MOL0     O18688   6.194   6.061   2.311  0.1584  0.3421  0.9209
  861MOL0     C18689   6.130   6.158   2.229  0.6065  0.2243 -0.3235
  861MOL0     C18690   6.096   6.271   2.320 -0.4040  0.0535  0.3330
  861MOL0     C18691   6.011   6.388   2.263  1.4187 -0.0198  0.2862
  861MOL0     C18692   5.860   6.353   2.280 -0.6422 -0.8245 -0.2214
  861MOL0     C18693   5.786   6.415   2.398 -0.3809  0.0103 -1.1189
  861MOL0     C18694   5.777   6.329   2.520  0.0270 -0.3946  0.0853
  861MOL0     C18695   5.648   6.364   2.594 -0.1082  0.3409  0.5367
  861MOL0     C18696   5.637   6.304   2.733  0.2215 -0.3643  0.1641
  861MOL0     N18697   5.547   6.374   2.835 -0.8088  0.0863  0.2669
  861MOL0     C18698   5.411   6.365   2.807  0.4499 -0.5593  0.3428
  861MOL0     C18699   5.350   6.421   2.912  0.2569 -0.6601  0.4857
  861MOL0     C18700   5.203   6.444   2.915 -0.6880  0.1057 -0.5934
  861MOL0     C18701   5.143   6.438   3.060  0.2487 -0.3931 -0.0589
  861MOL0     C18702   5.171   6.562   3.140  0.4577 -0.2176 -0.3260
  861MOL0     C18703   5.068   6.574   3.253  0.4780  0.3918  0.0512
  861MOL0     O18704   5.076   6.689   3.339  0.4165 -0.0807 -0.3072
  861MOL0     C18705   5.029   6.666   3.469  0.2551  0.0671  0.0189
  861MOL0     C18706   5.119   6.626   3.568 -1.7876 -0.3635  0.7917
  861MOL0     C18707   5.082   6.609   3.700  0.7596  0.4136 -0.1597
  861MOL0     C18708   5.191   6.584   3.795  1.2558  0.1705 -0.8358
  861MOL0     C18709   4.941   6.631   3.733  0.2546  0.3136 -0.9013
  861MOL0     C18710   4.879   6.622   3.864 -0.0896  0.7500 -0.8892
  861MOL0     O18711   4.748   6.626   3.861  0.4344  0.1431 -0.2159
  861MOL0     C18712   4.681   6.644   3.981  0.4557  0.2239  0.6838
  861MOL0     C18713   4.684   6.549   4.078  0.0568  0.6029 -0.8640
  861MOL0     C18714   4.620   6.553   4.200  0.2570 -0.6603  0.1453
  861MOL0     C18715   4.556   6.677   4.237  0.7738  0.4684 -0.2157
  861MOL0     O18716   4.519   6.701   4.369  0.2589 -0.5827  0.3113
  861MOL0     C18717   4.545   6.842   4.410 -1.0656 -0.1243 -0.6274
  861MOL0     C18718   4.584   6.838   4.556 -0.8595 -0.2267 -1.7271
  861MOL0     C18719   4.721   6.767   4.572  0.0816  0.1167  0.1599
  861MOL0     C18720   4.833   6.854   4.517  0.2179 -0.0033  1.3388
  861MOL0     C18721   4.976   6.791   4.535  0.7200 -0.8959  0.7992
  861MOL0     C18722   5.012   6.680   4.429 -0.5968 -0.2033  0.5661
  861MOL0     C18723   5.026   6.734   4.289 -0.4593 -0.8552  0.4365
  861MOL0     C18724   5.154   6.801   4.258  0.4291 -0.2359 -0.3222
  861MOL0    Cl18725   5.306   6.707   4.280 -0.0133 -0.0133 -0.0074
  861MOL0     C18726   4.541   6.780   4.135 -0.1923  0.0344  0.6628
  861MOL0     C18727   4.596   6.755   4.006 -0.1227  0.3193  0.4850
  861MOL0     O18728   4.949   6.616   3.966 -0.4130  0.6647  0.6250
  861MOL0     C18729   4.856   6.669   3.623 -0.0016  0.6982  0.1588
  861MOL0     C18730   4.903   6.683   3.497  0.2203 -0.8493  0.3823
  861MOL0     N18731   5.448   6.456   3.006 -1.0443  0.1099 -0.3616
  861MOL0     N18732   5.564   6.411   2.961 -1.1445 -0.1604  0.1216
  861MOL0     C18733   6.296   5.920   2.151  0.5301  0.3765 -0.0557
  861MOL0     C18734   6.408   5.858   2.102 -0.1332 -0.5357 -0.0835
  861MOL0     C18735   6.843   5.816   1.972  0.0394 -0.1285  0.2975
  861MOL0     C18736   6.873   5.686   2.012 -0.4426  0.4243  0.0063
  861MOL0     C18737   6.998   5.625   1.971  0.4877 -0.3900 -0.1984
  861MOL0     C18738   7.091   5.694   1.889  0.4366  0.4692 -0.1398
  861MOL0     O18739   7.203   5.622   1.838  0.6368  0.4207 -0.3234
  861MOL0     C18740   7.314   5.694   1.787 -0.4092  0.3446 -0.7829
  861MOL0     C18741   7.385   5.793   1.887 -0.1132  0.2159  0.1264
  861MOL0     C18742   7.527   5.819   1.837  0.6334  0.2070 -0.4093
  861MOL0     C18743   7.615   5.896   1.938  0.1570 -0.5138 -0.3840
  861MOL0     C18744   7.736   5.947   1.872  0.3549  0.3800 -0.2448
  861MOL0     C18745   7.838   5.981   1.823 -0.0542  0.0501 -0.2052
  861MOL0     C18746   7.056   5.828   1.854  0.3830  0.4433  0.5284
  861MOL0     C18747   6.937   5.891   1.898  0.6424  0.1626 -0.2686
  861MOL0     C18748   6.910   6.029   1.852 -0.7787 -0.2940 -0.1715
  861MOL0     H18749   6.640   5.985   2.311 -0.3535  1.4532  1.4576
  861MOL0     H18750   6.454   6.106   2.390  1.7419  0.3148 -1.2892
  861MOL0     H18751   6.032   6.117   2.202 -0.1083  0.6853  1.4689
  861MOL0     H18752   6.187   6.206   2.149  0.2400 -0.1284 -0.8041
  861MOL0     H18753   6.040   6.220   2.399  0.7162 -3.2879 -0.8528
  861MOL0     H18754   6.188   6.308   2.366 -1.9358  1.6317  2.2523
  861MOL0     H18755   6.041   6.482   2.310  0.7901 -0.8875  2.5712
  861MOL0     H18756   6.025   6.391   2.155 -0.2243 -2.1426 -0.0555
  861MOL0     H18757   5.805   6.380   2.190 -4.1684  1.6368  2.4225
  861MOL0     H18758   5.855   6.244   2.282 -0.3205 -0.8343  0.1609
  861MOL0     H18759   5.690   6.427   2.349  0.6201  1.9963 -2.7727
  861MOL0     H18760   5.817   6.515   2.431  2.2356 -0.1267 -2.8756
  861MOL0     H18761   5.781   6.223   2.492 -4.6176 -0.3570 -1.5792
  861MOL0     H18762   5.861   6.359   2.583  1.2029  1.4281 -2.2198
  861MOL0     H18763   5.553   6.343   2.543 -0.6211  2.2322  0.6326
  861MOL0     H18764   5.639   6.473   2.597 -1.3008  0.2401  1.9886
  861MOL0     H18765   5.623   6.196   2.730 -3.4953 -0.0066 -0.3088
  861MOL0     H18766   5.739   6.300   2.773  0.6139  2.2123 -0.3817
  861MOL0     H18767   5.365   6.329   2.716 -2.0886  0.5095  1.0950
  861MOL0     H18768   5.153   6.362   2.862 -2.4765 -0.0776  1.2471
  861MOL0     H18769   5.175   6.537   2.864 -1.0034  0.2526 -0.1561
  861MOL0     H18770   5.036   6.420   3.049  0.2419 -0.0568 -0.6001
  861MOL0     H18771   5.185   6.350   3.110  0.4053 -0.9747 -1.1808
  861MOL0     H18772   5.259   6.549   3.204 -1.6676 -2.6663  2.3808
  861MOL0     H18773   5.167   6.653   3.080  0.9488  0.1832  0.2371
  861MOL0     H18774   4.967   6.573   3.210  0.6038 -3.1158 -0.4609
  861MOL0     H18775   5.052   6.480   3.307 -2.3595 -0.7994 -2.5414
  861MOL0     H18776   5.219   6.595   3.539 -0.3225  0.0799  4.6630
  861MOL0     H18777   5.154   6.525   3.880  3.3252  2.5310  1.9155
  861MOL0     H18778   5.213   6.681   3.841 -1.5368  1.9049 -2.8813
  861MOL0     H18779   5.283   6.542   3.753  1.3871 -0.3648 -0.0414
  861MOL0     H18780   4.745   6.461   4.059  0.4678  0.6349  0.1868
  861MOL0     H18781   4.605   6.470   4.268 -3.0105 -1.9315 -1.8543
  861MOL0     H18782   4.623   6.890   4.351 -2.6515  2.2957 -0.9075
  861MOL0     H18783   4.462   6.912   4.390  0.8772  1.6858 -2.9680
  861MOL0     H18784   4.577   6.934   4.609 -0.1919 -1.6736  1.1718
  861MOL0     H18785   4.498   6.790   4.605 -0.1302 -0.5882 -0.7713
  861MOL0     H18786   4.717   6.674   4.514  1.3529 -0.1665  0.4839
  861MOL0     H18787   4.739   6.723   4.671 -0.5363 -2.8199 -0.9108
  861MOL0     H18788   4.835   6.946   4.577  0.5723  2.0974 -1.6757
  861MOL0     H18789   4.814   6.883   4.413 -1.7792 -1.0624  1.3751
  861MOL0     H18790   5.046   6.873   4.517 -0.5353  0.8072  2.9653
  861MOL0     H18791   4.972   6.763   4.641 -2.8755 -1.2398  0.6964
  861MOL0     H18792   4.928   6.611   4.418 -0.3852 -0.4899  0.7285
  861MOL0     H18793   5.104   6.631   4.463 -0.1585  1.0449  1.2223
  861MOL0     H18794   4.942   6.800   4.264 -0.5364 -2.4162 -4.4119
  861MOL0     H18795   5.022   6.659   4.209 -0.0988  0.0394 -0.4433
  861MOL0     H18796   5.165   6.888   4.323  0.7613  2.4448 -3.6897
  861MOL0     H18797   5.138   6.843   4.158  0.6605  1.8699  0.4725
  861MOL0     H18798   4.487   6.869   4.164 -1.4677 -1.2934  2.6040
  861MOL0     H18799   4.591   6.827   3.925  1.7707 -1.7482 -1.6076
  861MOL0     H18800   4.753   6.690   3.649  0.8142  1.5812  3.0441
  861MOL0     H18801   4.833   6.725   3.425 -1.9172  0.7293  3.1950
  861MOL0     H18802   6.199   5.905   2.104 -0.3706  2.8309  0.8469
  861MOL0     H18803   6.391   5.794   2.016 -2.4276  0.9216 -0.8056
  861MOL0     H18804   6.805   5.627   2.073 -1.9164  0.9675 -1.0713
  861MOL0     H18805   7.023   5.524   2.000 -2.6103 -0.2143  3.9463
  861MOL0     H18806   7.381   5.612   1.759 -0.4882 -1.1030  2.7695
  861MOL0     H18807   7.296   5.753   1.697  0.8371  2.3237  0.1815
  861MOL0     H18808   7.383   5.747   1.986 -2.5961  0.7203  0.3840
  861MOL0     H18809   7.322   5.881   1.905  1.1966  0.9358  1.3636
  861MOL0     H18810   7.583   5.727   1.816  2.2944  1.1774 -0.3245
  861MOL0     H18811   7.523   5.874   1.743 -0.9202  0.7799 -0.0352
  861MOL0     H18812   7.639   5.835   2.025 -1.7828 -1.7267 -0.6535
  861MOL0     H18813   7.558   5.984   1.970  0.2137 -0.9077  0.8500
  861MOL0     H18814   7.929   6.017   1.782 -1.4618  3.0837 -0.9671
  861MOL0     H18815   7.127   5.883   1.793 -1.8125  0.8239 -1.8857
  861MOL0     H18816   6.996   6.075   1.803 -2.4535  1.3220 -1.7153
  861MOL0     H18817   6.832   6.025   1.775 -3.8715 -0.3418  2.7118
  861MOL0     H18818   6.879   6.087   1.940  0.0922  0.5866 -0.4279
  862MOL0     O18819   4.993  11.545   3.950 -0.1449 -0.3821 -0.5981
  862MOL0     C18820   4.870  11.523   3.955 -0.4175 -0.7272  0.2168
  862MOL0     O18821   4.796  11.510   3.846 -0.1183  1.1809  0.2414
  862MOL0     C18822   4.839  11.485   3.715 -0.9075 -0.0362  0.2256
  862MOL0     C18823   4.973  11.486   3.668 -0.1565  0.0180 -0.0611
  862MOL0     C18824   5.012  11.468   3.531  0.9065 -0.9341  0.5193
  862MOL0     C18825   4.910  11.454   3.427  0.1980 -0.8574 -0.0991
  862MOL0     O18826   4.937  11.447   3.294  0.4776  0.3887  0.4887
  862MOL0     C18827   5.047  11.533   3.250  0.6628 -0.8812 -0.7953
  862MOL0     C18828   5.060  11.499   3.100 -0.6143  0.2144 -0.3423
  862MOL0     C18829   5.166  11.585   3.034  0.1287  1.3581 -0.3303
  862MOL0     C18830   5.146  11.600   2.877  0.1911  1.4273 -0.2617
  862MOL0     C18831   5.280  11.664   2.824 -0.0696 -0.2922  0.7047
  862MOL0     C18832   5.276  11.718   2.688  0.9768 -0.0182  0.4751
  862MOL0     C18833   5.256  11.617   2.576 -0.2562  0.1340  0.0887
  862MOL0     C18834   5.219  11.688   2.440  0.8431 -0.3902  0.3841
  862MOL0     N18835   5.072  11.673   2.432  0.0863 -0.6702 -0.9139
  862MOL0     C18836   4.986  11.778   2.459  0.0065 -0.7012 -0.3779
  862MOL0     C18837   4.862  11.714   2.458 -0.1364  0.0553 -0.4465
  862MOL0     C18838   4.724  11.774   2.485 -0.1719 -0.8314  0.2776
  862MOL0     C18839   4.710  11.795   2.633  0.0698  0.1268  0.6757
  862MOL0     C18840   4.642  11.669   2.693  0.4508 -0.6181  0.5153
  862MOL0     C18841   4.620  11.651   2.849 -0.4924 -0.4763  0.8911
  862MOL0     O18842   4.722  11.722   2.918 -0.1807 -0.1579 -0.0944
  862MOL0     C18843   4.717  11.730   3.053  0.4671  0.1320  0.0335
  862MOL0     C18844   4.791  11.822   3.121 -0.4099  0.1272 -0.6008
  862MOL0     C18845   4.788  11.835   3.262 -0.5711 -0.2176  0.0273
  862MOL0     C18846   4.868  11.955   3.325  0.6660 -0.2236  0.1272
  862MOL0     C18847   4.699  11.751   3.338 -0.1619  0.4668  0.7500
  862MOL0     C18848   4.658  11.770   3.477  0.0529  0.1996 -0.7396
  862MOL0     O18849   4.526  11.791   3.494  0.1862  0.2163 -0.5883
  862MOL0     C18850   4.469  11.778   3.622  0.7591  0.7904 -0.7820
  862MOL0     C18851   4.428  11.647   3.658 -0.6961  0.1558 -0.2975
  862MOL0     C18852   4.361  11.623   3.782  0.2146 -0.5093  0.5773
  862MOL0     C18853   4.341  11.724   3.873 -0.1500 -0.8224 -0.3872
  862MOL0     O18854   4.302  11.686   4.001 -0.3823 -0.1347  0.2728
  862MOL0     C18855   4.232  11.782   4.074 -0.6326 -0.2049  0.2361
  862MOL0     C18856   4.187  11.735   4.207 -0.0851 -0.3849 -0.2049
  862MOL0     C18857   4.107  11.595   4.205  1.1545 -0.5583  0.0925
  862MOL0     C18858   3.976  11.611   4.117  0.3479  0.3111 -0.1749
  862MOL0     C18859   3.877  11.491   4.123  0.3977  0.8318 -0.3868
  862MOL0     C18860   3.963  11.363   4.103 -0.0440  0.0564 -1.2673
  862MOL0     C18861   3.888  11.235   4.112  0.5689  0.3644 -0.2752
  862MOL0     C18862   3.848  11.194   4.256 -0.3184 -0.6657  0.8112
  862MOL0    Cl18863   3.777  11.040   4.223  0.1963 -0.0252 -0.2540
  862MOL0     C18864   4.387  11.858   3.837  1.1115  1.1291  0.2768
  862MOL0     C18865   4.442  11.885   3.707  0.3173 -0.5844 -0.3529
  862MOL0     O18866   4.724  11.739   3.572  0.6525 -0.0372 -0.6178
  862MOL0     C18867   4.614  11.663   3.259 -0.9398 -0.1833 -0.7592
  862MOL0     C18868   4.638  11.650   3.127 -0.3611  0.7043 -0.1401
  862MOL0     N18869   4.877  11.580   2.427  0.5325  0.6300  0.0142
  862MOL0     N18870   5.005  11.556   2.410 -0.2585  0.5805  0.2722
  862MOL0     C18871   4.780  11.441   3.472  0.0671  0.0716  0.2218
  862MOL0     C18872   4.743  11.451   3.609 -0.7313 -0.3223 -1.4579
  862MOL0     C18873   4.781  11.518   4.070 -0.1004  1.1669  0.0686
  862MOL0     C18874   4.644  11.507   4.046 -0.2462 -0.0322  0.0907
  862MOL0     C18875   4.555  11.503   4.151 -0.2156 -0.6462  0.4945
  862MOL0     C18876   4.599  11.504   4.290 -0.4519  0.6409  0.2494
  862MOL0     O18877   4.503  11.497   4.388 -0.4342  0.3566  0.4414
  862MOL0     C18878   4.554  11.442   4.512  0.2299  0.0488  0.3554
  862MOL0     C18879   4.434  11.398   4.600  0.0737  0.6203 -0.4848
  862MOL0     C18880   4.335  11.515   4.615  0.4086 -0.5309  0.1372
  862MOL0     C18881   4.229  11.481   4.734  0.9984  0.1114  0.6405
  862MOL0     C18882   4.295  11.494   4.855  0.3651 -0.1878 -0.0020
  862MOL0     C18883   4.357  11.513   4.959  0.3599  0.1137  0.1856
  862MOL0     C18884   4.738  11.523   4.314  0.0430  0.2790  0.1138
  862MOL0     C18885   4.826  11.526   4.197 -0.4130  0.2201 -0.2358
  862MOL0     C18886   4.983  11.543   4.226 -0.0550 -0.4612 -0.2043
  862MOL0     H18887   5.062  11.503   3.726 -0.2937  2.4456 -0.4485
  862MOL0     H18888   5.113  11.496   3.504  1.3961 -1.1507  2.0623
  862MOL0     H18889   5.145  11.529   3.298 -1.0776 -0.4670  3.1391
  862MOL0     H18890   5.008  11.634   3.265  1.4298 -0.3706 -2.0562
  862MOL0     H18891   5.089  11.393   3.092  0.9670 -0.1347  5.5619
  862MOL0     H18892   4.960  11.528   3.064 -0.8502  1.8574  1.5246
  862MOL0     H18893   5.168  11.686   3.078 -2.7051  1.8148 -1.0385
  862MOL0     H18894   5.262  11.532   3.045 -0.6212 -0.0724 -0.5141
  862MOL0     H18895   5.128  11.498   2.840 -3.6110  0.4552  3.4259
  862MOL0     H18896   5.058  11.661   2.857 -2.0162 -0.2593  3.2352
  862MOL0     H18897   5.357  11.586   2.823  1.7754  1.3246 -2.8854
  862MOL0     H18898   5.323  11.745   2.884  1.7987 -1.4709  1.0613
  862MOL0     H18899   5.182  11.774   2.682  1.0555 -0.0282 -1.8908
  862MOL0     H18900   5.355  11.792   2.675  1.0479 -0.0650  0.6323
  862MOL0     H18901   5.183  11.539   2.601  1.8307 -2.5311 -1.5324
  862MOL0     H18902   5.356  11.573   2.580  0.4579  1.3726 -2.1953
  862MOL0     H18903   5.255  11.791   2.440 -0.3581  0.1259 -2.7749
  862MOL0     H18904   5.271  11.644   2.355 -2.2493 -1.8919 -0.8920
  862MOL0     H18905   4.993  11.885   2.468  1.8982 -0.6059 -2.1165
  862MOL0     H18906   4.650  11.716   2.429  1.3538 -0.7605 -1.9218
  862MOL0     H18907   4.721  11.873   2.439  0.7507 -0.9658 -0.0939
  862MOL0     H18908   4.806  11.805   2.683  0.4369  2.7397 -0.3745
  862MOL0     H18909   4.645  11.882   2.650  0.6140  1.1554 -1.9960
  862MOL0     H18910   4.541  11.659   2.651 -0.2829  2.0733  1.4062
  862MOL0     H18911   4.711  11.587   2.671  3.2652  1.9198 -0.8385
  862MOL0     H18912   4.528  11.700   2.881  0.6272  1.2343  1.6370
  862MOL0     H18913   4.616  11.544   2.868 -0.4103 -0.8708 -1.0951
  862MOL0     H18914   4.862  11.871   3.054 -1.3222  0.5317 -1.2939
  862MOL0     H18915   4.800  12.026   3.373  1.5815 -1.2524  3.1220
  862MOL0     H18916   4.925  12.003   3.244  1.0635  1.5455  1.4022
  862MOL0     H18917   4.937  11.924   3.403 -0.3180  0.8811  1.4783
  862MOL0     H18918   4.470  11.569   3.596 -0.6029 -0.5452  0.6224
  862MOL0     H18919   4.330  11.527   3.821  0.4930 -0.5817  0.6196
  862MOL0     H18920   4.296  11.871   4.079  0.0632 -0.6849  0.0850
  862MOL0     H18921   4.135  11.805   4.030 -0.2096 -0.4751 -0.8745
  862MOL0     H18922   4.272  11.733   4.276 -1.6338  1.7042  1.9313
  862MOL0     H18923   4.116  11.807   4.248 -1.3124 -0.1973 -2.4450
  862MOL0     H18924   4.083  11.588   4.311 -1.0614  0.4951 -0.2748
  862MOL0     H18925   4.171  11.517   4.162 -0.6986 -3.1805  1.8018
  862MOL0     H18926   4.013  11.623   4.015 -1.5354 -0.1355 -0.9539
  862MOL0     H18927   3.920  11.693   4.163 -0.1053 -2.6261  5.3787
  862MOL0     H18928   3.819  11.487   4.215  0.2756 -1.2714 -0.5240
  862MOL0     H18929   3.798  11.497   4.047  1.4789  0.5635 -1.5601
  862MOL0     H18930   4.039  11.352   4.180 -1.5011 -3.8749 -0.1415
  862MOL0     H18931   4.015  11.366   4.006  1.7151 -0.1563 -0.3587
  862MOL0     H18932   3.953  11.161   4.066 -0.8113 -0.7409 -0.5334
  862MOL0     H18933   3.804  11.253   4.044 -0.7676  0.0968  1.2480
  862MOL0     H18934   3.773  11.267   4.284 -0.3299 -0.1525 -0.4905
  862MOL0     H18935   3.925  11.179   4.332  2.3136 -2.1743 -1.9375
  862MOL0     H18936   4.377  11.934   3.913  1.0086  0.4517  0.9561
  862MOL0     H18937   4.457  11.992   3.691 -0.2894 -0.5208 -0.5231
  862MOL0     H18938   4.535  11.597   3.294 -0.3549 -1.3527 -1.5494
  862MOL0     H18939   4.580  11.575   3.073  2.2845 -0.4666 -1.5835
  862MOL0     H18940   4.709  11.421   3.392 -0.0248  0.6957  0.1376
  862MOL0     H18941   4.638  11.450   3.635 -0.0434  1.6111  2.0951
  862MOL0     H18942   4.591  11.506   3.951 -2.5545 -0.2535  1.3144
  862MOL0     H18943   4.451  11.489   4.126 -0.5384  2.3451 -0.1292
  862MOL0     H18944   4.635  11.371   4.498  0.5910  0.7331 -1.2335
  862MOL0     H18945   4.603  11.527   4.561 -1.3245  0.8091  0.6444
  862MOL0     H18946   4.463  11.363   4.700 -1.1373  1.9828  0.3974
  862MOL0     H18947   4.376  11.314   4.560 -1.6712 -0.0893  3.1166
  862MOL0     H18948   4.386  11.610   4.630 -0.9859  0.1722  0.5980
  862MOL0     H18949   4.294  11.528   4.514  1.8734  0.9499 -0.3123
  862MOL0     H18950   4.187  11.381   4.721  2.2453 -0.6801  2.3097
  862MOL0     H18951   4.144  11.550   4.728  2.1948  1.5288 -0.9918
  862MOL0     H18952   4.422  11.544   5.039  1.7765  1.7997 -1.5077
  862MOL0     H18953   4.781  11.540   4.412  5.1196 -1.2589 -1.5494
  862MOL0     H18954   5.000  11.556   4.333 -0.1883 -2.8750  0.1467
  862MOL0     H18955   5.049  11.463   4.190 -1.5622 -1.1621 -1.4857
  862MOL0     H18956   5.016  11.638   4.182  1.1302  0.0948  1.7496
  863MOL0     O18957   3.850   8.528   3.739 -0.5025 -0.3322 -0.7082
  863MOL0     C18958   3.894   8.641   3.757  0.0110 -0.0973 -0.4036
  863MOL0     O18959   3.897   8.736   3.651  0.5308 -0.0681  0.1683
  863MOL0     C18960   3.830   8.711   3.536 -0.9044  0.1875  0.0523
  863MOL0     C18961   3.871   8.620   3.438  0.8340  0.3460 -0.8139
  863MOL0     C18962   3.791   8.597   3.322  0.6750 -0.4153 -0.5412
  863MOL0     C18963   3.673   8.679   3.297  0.6819  0.2264  0.5892
  863MOL0     O18964   3.596   8.670   3.184 -0.3143 -0.3065  0.3903
  863MOL0     C18965   3.644   8.666   3.048  0.3701  0.9206 -0.9307
  863MOL0     C18966   3.726   8.783   3.006  0.2361  0.8415  0.0047
  863MOL0     C18967   3.654   8.917   3.001 -0.1821 -0.8421  0.2961
  863MOL0     C18968   3.682   8.994   2.867 -0.0730  0.2640 -0.1488
  863MOL0     C18969   3.607   9.127   2.857  0.2532 -0.0504  0.6402
  863MOL0     C18970   3.641   9.239   2.954 -0.8667  0.4203  0.0133
  863MOL0     C18971   3.765   9.303   2.907  0.1169 -0.2035  0.2153
  863MOL0     C18972   3.808   9.435   2.976  0.1686 -0.2645 -0.3340
  863MOL0     N18973   3.945   9.479   2.937 -0.9702 -0.4293  0.3510
  863MOL0     C18974   4.000   9.571   2.844 -0.3400 -0.5278 -0.0037
  863MOL0     C18975   4.127   9.577   2.866  0.0425 -0.6480 -0.3754
  863MOL0     C18976   4.236   9.645   2.771  0.4111  0.2927 -0.1642
  863MOL0     C18977   4.251   9.564   2.639 -0.4454  0.4147  0.0218
  863MOL0     C18978   4.309   9.657   2.523 -0.0185  1.5036  0.5378
  863MOL0     C18979   4.286   9.603   2.384  0.0033 -0.1589 -0.2449
  863MOL0     O18980   4.146   9.638   2.346 -0.3259  0.2877 -0.5919
  863MOL0     C18981   4.119   9.745   2.278 -0.4746  0.4119  0.4156
  863MOL0     C18982   3.987   9.754   2.240 -0.8738  0.3732 -0.4299
  863MOL0     C18983   3.926   9.855   2.165 -0.0182 -0.5086  0.1326
  863MOL0     C18984   3.790   9.830   2.117  0.0193  0.3545 -0.6013
  863MOL0     C18985   4.018   9.954   2.115  0.2964  0.0626  1.1261
  863MOL0     C18986   3.984  10.065   2.024  0.5613 -0.6293  0.9481
  863MOL0     O18987   4.084  10.125   1.946 -0.6588 -0.9679  0.1767
  863MOL0     C18988   4.070  10.246   1.882 -0.4906  0.3493 -0.3739
  863MOL0     C18989   3.989  10.360   1.923 -0.8676  0.4198 -0.0693
  863MOL0     C18990   3.987  10.475   1.843 -0.7064 -0.0017 -0.5718
  863MOL0     C18991   4.058  10.479   1.718  0.2354  0.2299 -0.3350
  863MOL0     O18992   4.045  10.584   1.633 -0.4974  0.6084 -0.6645
  863MOL0     C18993   4.037  10.710   1.703  0.1389 -0.7481 -0.6605
  863MOL0     C18994   4.025  10.830   1.607 -1.2640  0.2516  0.5007
  863MOL0     C18995   4.163  10.874   1.564  0.3916  0.2072  0.1240
  863MOL0     C18996   4.215  10.981   1.671 -0.1840  0.6781  0.1440
  863MOL0     C18997   4.311  11.094   1.605  0.2634  0.5912  0.9710
  863MOL0     C18998   4.370  11.190   1.706 -0.4552  0.0129 -0.6276
  863MOL0     C18999   4.512  11.155   1.759  0.2769 -0.4089 -0.1562
  863MOL0     C19000   4.591  11.238   1.862  0.9180 -0.7246 -0.3088
  863MOL0    Cl19001   4.616  11.401   1.806 -0.1977 -0.1313 -0.2558
  863MOL0     C19002   4.127  10.366   1.674 -0.0468  0.0866  0.2237
  863MOL0     C19003   4.135  10.253   1.755 -0.7368 -0.1026  0.4734
  863MOL0     O19004   3.869  10.110   2.040  0.5776 -0.4105 -0.4681
  863MOL0     C19005   4.154   9.957   2.156  0.0704  1.4934  0.0886
  863MOL0     C19006   4.202   9.856   2.239  0.0481 -0.1798 -0.3238
  863MOL0     N19007   4.168   9.503   2.982  0.2950  1.2171  0.5685
  863MOL0     N19008   4.054   9.458   3.021  1.1173  0.3796  0.2462
  863MOL0     C19009   3.635   8.768   3.397  0.2845 -0.9730  0.0768
  863MOL0     C19010   3.714   8.786   3.508  0.2763 -0.0295 -0.4315
  863MOL0     C19011   3.970   8.679   3.875  0.5357  0.9093 -0.1612
  863MOL0     C19012   4.053   8.792   3.864  0.4808 -0.0065 -0.3686
  863MOL0     C19013   4.118   8.839   3.978 -0.2106  0.3646  0.5477
  863MOL0     C19014   4.125   8.768   4.096  0.0320  0.2031  0.7379
  863MOL0     O19015   4.199   8.833   4.187 -0.3646 -0.1498 -0.7220
  863MOL0     C19016   4.232   8.771   4.316  0.3027  0.0363 -0.0917
  863MOL0     C19017   4.340   8.660   4.306 -0.4533 -0.0637 -0.1521
  863MOL0     C19018   4.463   8.712   4.237  0.0714  0.3916  0.6718
  863MOL0     C19019   4.576   8.607   4.211 -0.2891 -0.0188 -0.5410
  863MOL0     C19020   4.710   8.641   4.272 -0.1724  0.8690 -0.9174
  863MOL0     C19021   4.818   8.627   4.334 -0.3309 -1.1387 -0.5111
  863MOL0     C19022   4.060   8.647   4.106  0.0320 -0.0186 -0.1439
  863MOL0     C19023   3.971   8.608   4.004  0.1642 -0.5535  1.2149
  863MOL0     C19024   3.877   8.484   4.029  0.3208 -0.2071  0.1759
  863MOL0     H19025   3.960   8.560   3.449  1.7316  1.5779 -1.2084
  863MOL0     H19026   3.822   8.532   3.241 -0.4307  2.4631 -3.4872
  863MOL0     H19027   3.567   8.633   2.977  1.5899 -1.9749 -1.0551
  863MOL0     H19028   3.710   8.579   3.042  2.1038  2.0661  0.4550
  863MOL0     H19029   3.821   8.779   3.060  1.5067 -2.8005 -2.0996
  863MOL0     H19030   3.758   8.757   2.905 -1.8178 -1.1001 -0.2311
  863MOL0     H19031   3.547   8.910   3.018 -0.3405 -1.8364 -0.9412
  863MOL0     H19032   3.703   8.970   3.083  2.0693 -0.3048 -1.2757
  863MOL0     H19033   3.787   9.009   2.840  0.5739 -0.6775  1.6477
  863MOL0     H19034   3.644   8.918   2.798 -1.9719  0.1697  0.9338
  863MOL0     H19035   3.504   9.110   2.889  0.0622  2.2801  1.5102
  863MOL0     H19036   3.603   9.165   2.754 -0.3449 -1.6890  0.0301
  863MOL0     H19037   3.566   9.319   2.956 -1.7759 -0.4061  0.0092
  863MOL0     H19038   3.658   9.204   3.056 -0.7389 -3.0554 -1.0568
  863MOL0     H19039   3.751   9.317   2.800 -3.4045 -1.5338  0.3654
  863MOL0     H19040   3.843   9.226   2.914 -2.6222 -3.3163 -0.8889
  863MOL0     H19041   3.752   9.526   2.951 -1.0996 -1.5706 -2.5300
  863MOL0     H19042   3.801   9.435   3.085 -0.6848  0.1911 -0.3751
  863MOL0     H19043   3.962   9.621   2.755  2.9281 -0.1741 -1.3086
  863MOL0     H19044   4.329   9.662   2.826 -0.9672  0.7961  2.1325
  863MOL0     H19045   4.195   9.743   2.747 -0.0614  0.4850  1.3424
  863MOL0     H19046   4.319   9.482   2.662  1.3383  1.9623  0.5633
  863MOL0     H19047   4.153   9.528   2.607  2.3562 -5.7426 -3.2349
  863MOL0     H19048   4.276   9.761   2.528 -0.9496  1.2132  0.6901
  863MOL0     H19049   4.415   9.660   2.548 -0.4290  0.5060  2.6095
  863MOL0     H19050   4.355   9.641   2.309 -1.3694 -0.6532 -1.8150
  863MOL0     H19051   4.312   9.496   2.385  1.7782  0.2416 -0.7026
  863MOL0     H19052   3.927   9.666   2.261  1.5457 -1.1190  0.6680
  863MOL0     H19053   3.789   9.728   2.078  1.7200 -0.0744  0.3775
  863MOL0     H19054   3.756   9.890   2.033  1.3023 -0.1582 -1.5152
  863MOL0     H19055   3.726   9.837   2.206  3.1647 -1.8331  2.0537
  863MOL0     H19056   3.946  10.353   2.022  4.6472 -0.6174  2.6269
  863MOL0     H19057   3.925  10.560   1.869 -1.0019 -0.0900 -0.9726
  863MOL0     H19058   3.940  10.723   1.751 -2.1793 -1.2540 -4.7033
  863MOL0     H19059   4.120  10.716   1.774 -1.2362 -3.0008  1.2601
  863MOL0     H19060   3.973  10.805   1.514  1.2835 -1.5427 -0.5466
  863MOL0     H19061   3.965  10.910   1.651 -0.0512  1.6713 -0.3449
  863MOL0     H19062   4.156  10.922   1.466  4.4007  0.7384 -0.0703
  863MOL0     H19063   4.239  10.795   1.557  2.9998  2.3595  1.9356
  863MOL0     H19064   4.263  10.915   1.743 -0.1702 -0.3112 -0.7542
  863MOL0     H19065   4.134  11.027   1.729 -1.6921 -0.1228 -1.2140
  863MOL0     H19066   4.381  11.051   1.533 -2.1267 -0.2493 -1.0141
  863MOL0     H19067   4.250  11.158   1.540  3.1204  0.9334 -1.5868
  863MOL0     H19068   4.300  11.209   1.789  0.3258 -3.2712  0.9340
  863MOL0     H19069   4.372  11.280   1.644 -2.8197 -1.0668 -2.4406
  863MOL0     H19070   4.578  11.156   1.672 -1.2782 -1.4689 -1.4236
  863MOL0     H19071   4.509  11.056   1.806 -0.8378  0.4333  1.6843
  863MOL0     H19072   4.684  11.182   1.881  1.3268 -0.4911 -1.5251
  863MOL0     H19073   4.539  11.252   1.957  1.4573  0.1845 -0.1332
  863MOL0     H19074   4.182  10.349   1.582  2.4406 -2.4480  1.9943
  863MOL0     H19075   4.179  10.159   1.726 -0.6037  0.6220 -1.9386
  863MOL0     H19076   4.221  10.029   2.109 -1.2752  0.8702 -3.0298
  863MOL0     H19077   4.303   9.859   2.280 -0.8565 -0.3500  2.0406
  863MOL0     H19078   3.550   8.832   3.379 -0.9766 -1.3680  3.7572
  863MOL0     H19079   3.690   8.862   3.581 -0.8992  2.1697 -2.9616
  863MOL0     H19080   4.075   8.853   3.777  4.4040  0.1700  0.5449
  863MOL0     H19081   4.184   8.924   3.963  2.4498 -1.3787  1.6109
  863MOL0     H19082   4.261   8.847   4.389 -0.5090  3.8329 -3.3583
  863MOL0     H19083   4.139   8.726   4.353  0.3338 -1.1885 -1.4131
  863MOL0     H19084   4.314   8.573   4.245  0.2484  0.0019 -0.5582
  863MOL0     H19085   4.372   8.630   4.407 -2.7942 -1.4231  0.2498
  863MOL0     H19086   4.461   8.776   4.148 -0.1389  1.3307  1.3442
  863MOL0     H19087   4.502   8.783   4.310  0.3261 -0.1139  1.0313
  863MOL0     H19088   4.578   8.605   4.102 -2.0502  1.6798 -0.6506
  863MOL0     H19089   4.529   8.515   4.246 -1.8529  0.4004 -1.4537
  863MOL0     H19090   4.916   8.626   4.376 -1.0220 -3.0932  1.2037
  863MOL0     H19091   4.068   8.594   4.201  0.2381 -0.8402 -0.6103
  863MOL0     H19092   3.915   8.400   3.971  0.0824 -0.4595  0.3849
  863MOL0     H19093   3.884   8.445   4.131  2.0283 -1.4315 -0.3618
  863MOL0     H19094   3.778   8.507   3.989  2.1999  2.0592 -3.8030
  864MOL0     O19095   8.888   6.495   5.162  0.4561 -0.7464 -1.1537
  864MOL0     C19096   8.953   6.595   5.190  0.9386  1.0576  0.5120
  864MOL0     O19097   9.081   6.596   5.241 -0.5648 -0.1063  0.3122
  864MOL0     C19098   9.150   6.481   5.256  1.0459  0.2773  0.6667
  864MOL0     C19099   9.281   6.465   5.202 -0.2589  0.1561  0.1774
  864MOL0     C19100   9.357   6.337   5.222 -0.5773 -0.3533 -0.1565
  864MOL0     C19101   9.300   6.233   5.287 -0.4583  0.4963 -0.2834
  864MOL0     O19102   9.369   6.120   5.309 -0.2964 -0.1617  0.2406
  864MOL0     C19103   9.403   6.076   5.439 -0.9205  0.6644 -1.1375
  864MOL0     C19104   9.500   5.965   5.450  0.3849 -0.4144 -0.3682
  864MOL0     C19105   9.424   5.838   5.454 -0.1220  0.6200  0.3608
  864MOL0     C19106   9.517   5.718   5.491  0.3081 -0.2005  0.1889
  864MOL0     C19107   9.428   5.599   5.468 -0.3512  1.1034 -0.1910
  864MOL0     C19108   9.490   5.480   5.526  0.1320  0.3036 -0.8267
  864MOL0     C19109   9.414   5.350   5.508 -0.1189 -0.0001 -0.8564
  864MOL0     C19110   9.482   5.229   5.581  0.3258  0.0561  0.0638
  864MOL0     N19111   9.406   5.102   5.563 -0.2522  0.4793 -0.3053
  864MOL0     C19112   9.280   5.089   5.608 -1.5912 -0.0085 -0.5634
  864MOL0     C19113   9.225   5.003   5.516  0.2269  0.0751  0.7430
  864MOL0     C19114   9.076   4.957   5.513 -0.0368 -0.1380 -0.1229
  864MOL0     C19115   9.071   4.839   5.617 -0.5942 -0.7290  0.2295
  864MOL0     C19116   8.919   4.810   5.646 -0.4182 -0.0652  0.6405
  864MOL0     C19117   8.908   4.663   5.680  0.2832 -0.2236  0.3393
  864MOL0     O19118   8.766   4.624   5.677 -0.5949  0.2970 -0.2819
  864MOL0     C19119   8.711   4.581   5.562  0.8852 -0.8733  0.5451
  864MOL0     C19120   8.599   4.657   5.523  0.9608 -0.1554 -0.9126
  864MOL0     C19121   8.527   4.640   5.403 -1.4973 -0.1739 -1.2326
  864MOL0     C19122   8.410   4.732   5.371 -0.2452 -0.7521 -0.0155
  864MOL0     C19123   8.572   4.523   5.318  0.1382 -0.7385 -0.7171
  864MOL0     C19124   8.498   4.477   5.201 -0.4884  0.2136 -0.2651
  864MOL0     O19125   8.561   4.367   5.137 -0.8142  0.0030 -0.5007
  864MOL0     C19126   8.506   4.304   5.028  0.3650 -0.9839  0.5077
  864MOL0     C19127   8.516   4.168   5.022  0.6911 -0.0756 -0.7721
  864MOL0     C19128   8.484   4.097   4.909  0.0798 -0.0811  0.6772
  864MOL0     C19129   8.413   4.168   4.807 -0.2406  0.0041 -0.5142
  864MOL0     O19130   8.366   4.087   4.712  0.0620  1.3764 -0.4300
  864MOL0     C19131   8.288   4.129   4.598  0.7409 -0.0463 -0.2309
  864MOL0     C19132   8.248   4.001   4.524  0.8078 -0.4694 -0.1420
  864MOL0     C19133   8.113   4.026   4.449  0.4510 -0.0823 -0.6030
  864MOL0     C19134   8.023   3.903   4.420 -0.0161 -0.4272 -0.7817
  864MOL0     C19135   7.921   3.880   4.526 -0.0681  0.7351  0.3743
  864MOL0     C19136   7.856   3.732   4.539 -0.2522  0.0945  0.2590
  864MOL0     C19137   7.763   3.738   4.665 -0.4065  0.4589  0.3219
  864MOL0     C19138   7.686   3.604   4.679  0.3906 -0.3211  0.0316
  864MOL0    Cl19139   7.547   3.570   4.561  0.6069 -0.0077 -0.4419
  864MOL0     C19140   8.398   4.302   4.811 -0.1644  0.6970  0.2840
  864MOL0     C19141   8.453   4.375   4.922  0.4395  0.8421  0.1281
  864MOL0     O19142   8.383   4.510   5.177  0.4874 -0.7017 -0.5666
  864MOL0     C19143   8.690   4.459   5.361 -0.7828 -0.9670  0.3952
  864MOL0     C19144   8.763   4.487   5.473 -0.2202  0.2650 -0.5270
  864MOL0     N19145   9.314   4.980   5.415  0.0640  0.3684  0.2387
  864MOL0     N19146   9.426   5.023   5.452  0.2935  0.3248  0.0926
  864MOL0     C19147   9.173   6.244   5.337 -0.7132  0.8513  0.3063
  864MOL0     C19148   9.106   6.366   5.323  0.1852 -0.3410  0.7721
  864MOL0     C19149   8.868   6.708   5.193 -0.7783 -1.2270  0.5520
  864MOL0     C19150   8.791   6.736   5.079 -0.2239  0.1318  0.2354
  864MOL0     C19151   8.699   6.836   5.077 -0.2386 -0.1391 -0.1191
  864MOL0     C19152   8.691   6.930   5.184  0.0755  0.0739 -0.7508
  864MOL0     O19153   8.588   7.019   5.203  0.4002  0.0705  0.4148
  864MOL0     C19154   8.495   7.049   5.102  0.1551 -0.1453  0.6953
  864MOL0     C19155   8.548   7.161   5.012 -0.2220 -0.2593  0.5313
  864MOL0     C19156   8.637   7.264   5.088  0.8033  1.0624  0.6372
  864MOL0     C19157   8.684   7.381   4.995  0.3461 -0.0863  0.3327
  864MOL0     C19158   8.774   7.468   5.057 -0.1839  0.0579 -0.7082
  864MOL0     C19159   8.837   7.549   5.120 -1.0654 -0.3890 -0.0137
  864MOL0     C19160   8.774   6.902   5.292 -0.3238 -0.3241 -0.0052
  864MOL0     C19161   8.861   6.790   5.300  0.2609  0.0662  0.5395
  864MOL0     C19162   8.938   6.764   5.430  0.1432  0.1012 -0.1674
  864MOL0     H19163   9.325   6.556   5.163  1.2027 -0.6154 -0.0564
  864MOL0     H19164   9.458   6.326   5.183  0.5203  1.8589  1.7986
  864MOL0     H19165   9.312   6.049   5.493 -0.6822 -0.6651 -1.3591
  864MOL0     H19166   9.456   6.147   5.503 -0.4293 -1.1791  0.5949
  864MOL0     H19167   9.579   5.977   5.375  0.9134  0.3946  0.2979
  864MOL0     H19168   9.556   5.958   5.543 -0.9239  0.2841  0.5005
  864MOL0     H19169   9.338   5.835   5.521 -1.3217 -1.5372 -1.1269
  864MOL0     H19170   9.396   5.807   5.353  0.1465 -0.0066  0.4745
  864MOL0     H19171   9.608   5.720   5.431 -1.0863  0.3826 -2.0510
  864MOL0     H19172   9.536   5.727   5.598  0.1287  5.2774  0.0668
  864MOL0     H19173   9.412   5.585   5.361  1.0059 -0.4676 -0.2294
  864MOL0     H19174   9.329   5.609   5.513  0.3604  0.7913  1.5110
  864MOL0     H19175   9.583   5.462   5.470 -0.3451 -5.6582 -0.3427
  864MOL0     H19176   9.513   5.496   5.632  2.8117 -1.3375 -1.0663
  864MOL0     H19177   9.405   5.319   5.403  4.3279 -1.4507 -1.0109
  864MOL0     H19178   9.318   5.360   5.559  0.0920 -0.3166 -0.3998
  864MOL0     H19179   9.589   5.215   5.563 -0.0727 -2.2870 -0.8523
  864MOL0     H19180   9.476   5.247   5.689  2.1819  0.2663  0.1646
  864MOL0     H19181   9.238   5.134   5.698 -0.0404  3.0418 -1.2357
  864MOL0     H19182   9.042   4.944   5.410 -2.6644  1.8906  0.3708
  864MOL0     H19183   9.016   5.036   5.560  0.4797  0.1900 -0.0088
  864MOL0     H19184   9.124   4.752   5.579 -1.0346 -0.8213 -0.1841
  864MOL0     H19185   9.130   4.864   5.706 -0.9751 -1.1833  0.6184
  864MOL0     H19186   8.892   4.862   5.738  0.1496  3.0608 -0.8052
  864MOL0     H19187   8.849   4.840   5.568 -2.6018 -0.0466  2.5199
  864MOL0     H19188   8.964   4.603   5.607  2.0177  1.0181  0.6009
  864MOL0     H19189   8.941   4.637   5.781 -2.7557 -0.7717  1.2935
  864MOL0     H19190   8.566   4.745   5.578 -1.3660  0.3066 -2.8669
  864MOL0     H19191   8.314   4.697   5.409 -0.7192  1.2505  0.7112
  864MOL0     H19192   8.397   4.735   5.262 -1.2157  1.0226  0.1215
  864MOL0     H19193   8.435   4.833   5.404 -1.4920 -0.2113 -0.6835
  864MOL0     H19194   8.553   4.103   5.100 -0.1162  0.0886 -0.2387
  864MOL0     H19195   8.498   3.989   4.905 -1.1642 -0.2437 -2.5703
  864MOL0     H19196   8.203   4.190   4.633  1.2995 -0.5455  2.1906
  864MOL0     H19197   8.332   4.205   4.532 -1.6038  0.6719 -1.0832
  864MOL0     H19198   8.324   3.973   4.451 -0.2354 -1.9705 -0.6983
  864MOL0     H19199   8.230   3.919   4.594 -2.1682  0.9529  0.8923
  864MOL0     H19200   8.158   4.078   4.364  1.0761  1.2480  0.5099
  864MOL0     H19201   8.045   4.100   4.492  0.5658  1.1205 -2.3549
  864MOL0     H19202   8.102   3.828   4.409  2.7356  2.3804 -1.7959
  864MOL0     H19203   7.969   3.919   4.326 -2.4072 -2.5178  0.1193
  864MOL0     H19204   7.963   3.909   4.623  2.7045 -1.1760 -0.1469
  864MOL0     H19205   7.834   3.940   4.496  1.2591  0.6418 -4.3790
  864MOL0     H19206   7.939   3.661   4.544  2.5965  3.0458 -1.3028
  864MOL0     H19207   7.788   3.725   4.453  0.0548  1.2138 -0.0983
  864MOL0     H19208   7.686   3.815   4.654 -2.4095 -1.7727 -5.8669
  864MOL0     H19209   7.826   3.755   4.753 -1.6441  1.4056  1.0641
  864MOL0     H19210   7.657   3.600   4.784 -0.6985  0.7327 -0.2129
  864MOL0     H19211   7.755   3.519   4.675 -0.1854 -0.8008  0.2687
  864MOL0     H19212   8.343   4.362   4.740  0.4801  2.9295  1.5611
  864MOL0     H19213   8.445   4.483   4.929 -0.3173  0.8876 -1.0781
  864MOL0     H19214   8.728   4.376   5.303  3.0511  1.1393 -0.4416
  864MOL0     H19215   8.843   4.425   5.510 -1.8966 -2.4086 -1.1110
  864MOL0     H19216   9.129   6.160   5.390 -0.3231  0.4324 -0.0164
  864MOL0     H19217   9.009   6.394   5.361  0.9898  2.1651  1.1536
  864MOL0     H19218   8.796   6.669   4.994 -0.7694  1.1084 -0.5788
  864MOL0     H19219   8.645   6.858   4.986 -4.3543 -3.1759  1.3029
  864MOL0     H19220   8.461   6.965   5.042 -3.4138  2.6010 -1.5098
  864MOL0     H19221   8.401   7.079   5.149 -0.0144  0.5597 -0.0625
  864MOL0     H19222   8.474   7.219   4.955  2.0093 -0.3495 -2.7044
  864MOL0     H19223   8.609   7.105   4.941  0.8044 -1.0029  1.9572
  864MOL0     H19224   8.575   7.298   5.172 -1.3617  0.7772 -0.7636
  864MOL0     H19225   8.724   7.206   5.120  0.1887 -0.9133 -1.0406
  864MOL0     H19226   8.594   7.432   4.959  1.0937  0.4184 -0.8974
  864MOL0     H19227   8.735   7.326   4.915 -0.6214 -2.4524  1.2599
  864MOL0     H19228   8.865   7.630   5.184  0.0564 -1.7226  1.2621
  864MOL0     H19229   8.762   6.944   5.392  1.6425  1.0265 -0.2855
  864MOL0     H19230   9.044   6.788   5.424 -0.6174  5.1896  1.8564
  864MOL0     H19231   8.901   6.823   5.515 -0.9114 -1.4507  0.5023
  864MOL0     H19232   8.917   6.661   5.461 -1.1232  0.3584 -0.1111
  865MOL0     O19233   1.070   5.460  11.437 -0.1306  1.3846 -0.3064
  865MOL0     C19234   1.039   5.349  11.480  0.1007 -0.1258  0.1236
  865MOL0     O19235   1.014   5.327  11.611 -0.3495 -0.1011  0.4284
  865MOL0     C19236   1.051   5.426  11.695 -0.1584  0.2507  0.1461
  865MOL0     C19237   0.969   5.534  11.732 -0.4732 -0.1735 -0.1657
  865MOL0     C19238   1.000   5.634  11.829  0.6535  0.0359  0.4442
  865MOL0     C19239   1.118   5.626  11.893 -0.5343 -0.9931 -0.3071
  865MOL0     O19240   1.149   5.722  11.982  0.4063  0.1685 -0.1403
  865MOL0     C19241   1.178   5.679  12.117  0.5560 -0.0435  0.6007
  865MOL0     C19242   1.105   5.769  12.220 -0.5842  0.3475  0.0912
  865MOL0     C19243   1.109   5.707  12.371  0.1040  0.5243  0.4991
  865MOL0     C19244   1.030   5.801  12.467  0.2684  0.3966  0.2387
  865MOL0     C19245   1.113   5.922  12.509 -0.7353 -0.4465  0.6855
  865MOL0     C19246   1.069   5.971  12.644  1.0436 -1.0773 -0.4284
  865MOL0     C19247   1.157   6.091  12.700  0.0812 -0.2003 -0.4484
  865MOL0     C19248   1.100   6.136  12.838 -0.1020  0.1758  0.6455
  865MOL0     N19249   1.174   6.248  12.892 -0.5077  0.5616  0.4292
  865MOL0     C19250   1.209   6.361  12.831  0.1311  0.3916 -0.0945
  865MOL0     C19251   1.200   6.465  12.918 -0.6308  0.2411  0.5400
  865MOL0     C19252   1.232   6.615  12.915  0.3281  0.6129  0.3788
  865MOL0     C19253   1.379   6.636  12.915 -0.0694 -0.3509 -0.2721
  865MOL0     C19254   1.423   6.779  12.961  0.5743  0.5661  0.0204
  865MOL0     C19255   1.421   6.803  13.119  0.1970  0.0783 -0.1097
  865MOL0     O19256   1.420   6.940  13.141 -0.0342 -0.5042  0.4407
  865MOL0     C19257   1.532   7.023  13.149 -0.5571 -0.4202  0.4624
  865MOL0     C19258   1.666   6.985  13.104 -0.1577 -0.0786 -0.5275
  865MOL0     C19259   1.773   7.064  13.106 -0.1085  1.4731 -0.1101
  865MOL0     C19260   1.909   7.008  13.063 -0.3079 -0.4657 -0.3506
  865MOL0     C19261   1.759   7.198  13.149 -1.7512  0.0587  0.1425
  865MOL0     C19262   1.866   7.296  13.132  0.0747 -0.1497  1.1260
  865MOL0     O19263   1.836   7.422  13.191  0.8665  0.5209  0.8063
  865MOL0     C19264   1.907   7.530  13.160 -0.1874 -0.3643 -1.2908
  865MOL0     C19265   2.004   7.569  13.248 -0.3269 -0.2917  0.0527
  865MOL0     C19266   2.046   7.702  13.239 -0.4998 -0.5085  0.3264
  865MOL0     C19267   2.007   7.787  13.134 -1.0482  1.0758  1.5798
  865MOL0     O19268   2.073   7.900  13.124  0.4947  0.2976  0.2467
  865MOL0     C19269   2.031   7.998  13.024 -0.4511 -0.2991 -0.3193
  865MOL0     C19270   2.089   8.136  13.054 -0.1087  0.9174  0.0935
  865MOL0     C19271   2.082   8.230  12.931  0.0276  0.2559 -1.1424
  865MOL0     C19272   1.934   8.255  12.905  0.0646 -0.0782  1.3145
  865MOL0     C19273   1.906   8.359  12.804 -0.9368 -1.3446 -0.2860
  865MOL0     C19274   1.768   8.405  12.823 -0.0245  0.2328  0.3335
  865MOL0     C19275   1.739   8.513  12.715 -0.3618  0.8253  0.2032
  865MOL0     C19276   1.633   8.611  12.776  0.2976  0.3972  1.1329
  865MOL0    Cl19277   1.469   8.548  12.802  0.3134  0.4826  0.6821
  865MOL0     C19278   1.920   7.736  13.031 -0.3286 -0.0829  0.3961
  865MOL0     C19279   1.881   7.605  13.044 -0.4611 -0.2657 -0.6055
  865MOL0     O19280   1.958   7.271  13.046  0.2683  0.0658 -0.8041
  865MOL0     C19281   1.636   7.235  13.195 -0.2418 -0.1884 -1.0818
  865MOL0     C19282   1.523   7.148  13.199  0.2498 -0.0757  0.7487
  865MOL0     N19283   1.147   6.411  13.035 -0.5737  0.4517  0.6044
  865MOL0     N19284   1.137   6.283  13.021 -1.1148 -0.3261 -0.4997
  865MOL0     C19285   1.212   5.517  11.857  0.7976  1.3269  0.4652
  865MOL0     C19286   1.176   5.419  11.756  0.1841 -0.0057 -0.1520
  865MOL0     C19287   1.001   5.233  11.388 -0.4416 -0.1665 -0.2397
  865MOL0     C19288   0.896   5.146  11.413 -0.7633 -0.2548 -0.1128
  865MOL0     C19289   0.876   5.034  11.333 -0.1870 -0.1281 -0.2253
  865MOL0     C19290   0.972   4.994  11.233 -0.7128 -0.5271 -1.8428
  865MOL0     O19291   0.941   4.873  11.174  0.2073 -0.2947 -1.1886
  865MOL0     C19292   1.030   4.826  11.072 -1.2522 -0.6822  0.3569
  865MOL0     C19293   1.115   4.717  11.138 -0.2968  0.3143 -0.0438
  865MOL0     C19294   1.027   4.595  11.183  0.4749  0.2752  0.2201
  865MOL0     C19295   1.022   4.476  11.089  0.4471 -0.1229 -0.5901
  865MOL0     C19296   1.009   4.509  10.946  0.5122 -0.0416 -0.3484
  865MOL0     C19297   1.016   4.525  10.826  0.9083  0.1892 -0.1501
  865MOL0     C19298   1.073   5.087  11.209 -0.5977  1.1632 -0.8238
  865MOL0     C19299   1.083   5.202  11.282 -0.7315 -0.7883  0.6734
  865MOL0     C19300   1.206   5.290  11.252 -0.6512 -0.3296  0.4853
  865MOL0     H19301   0.869   5.534  11.690 -0.1871 -2.0574 -0.9137
  865MOL0     H19302   0.928   5.709  11.858 -1.2399 -1.9324  1.1418
  865MOL0     H19303   1.283   5.680  12.147 -0.2979  2.1701  4.1138
  865MOL0     H19304   1.141   5.577  12.122  1.5715 -0.4432  0.1830
  865MOL0     H19305   1.146   5.870  12.217  0.9937 -0.2710 -1.0898
  865MOL0     H19306   0.999   5.776  12.197 -1.1209 -2.9160  0.9671
  865MOL0     H19307   1.062   5.609  12.352  1.6139  0.0630 -1.0667
  865MOL0     H19308   1.207   5.692  12.416  0.5446  3.4527  0.6862
  865MOL0     H19309   0.938   5.827  12.415  0.3838  0.3722  0.0242
  865MOL0     H19310   1.017   5.741  12.558 -1.9490  1.0395  0.4179
  865MOL0     H19311   1.112   5.998  12.430 -1.5650 -1.0051  0.1356
  865MOL0     H19312   1.216   5.899  12.536 -1.0636 -0.3202  2.1155
  865MOL0     H19313   0.966   6.007  12.634  1.6302  1.5649  1.8241
  865MOL0     H19314   1.075   5.888  12.714  0.8164 -0.0012  0.9018
  865MOL0     H19315   1.157   6.178  12.634 -0.1400  0.2884  0.1967
  865MOL0     H19316   1.264   6.068  12.697 -0.1452 -1.6387  1.0696
  865MOL0     H19317   0.992   6.154  12.832 -0.3395  0.0596  3.4036
  865MOL0     H19318   1.107   6.057  12.913  2.7410 -1.9449 -1.6095
  865MOL0     H19319   1.237   6.384  12.728 -0.3784  0.9741 -0.1082
  865MOL0     H19320   1.178   6.664  12.996  0.2375  0.8897  0.1529
  865MOL0     H19321   1.195   6.652  12.818 -0.0819  0.9110  0.6449
  865MOL0     H19322   1.441   6.556  12.958 -0.4106 -0.1955  0.5363
  865MOL0     H19323   1.395   6.627  12.807  2.7847  3.5824 -0.4159
  865MOL0     H19324   1.518   6.797  12.910  1.1545 -1.9601  0.0639
  865MOL0     H19325   1.352   6.847  12.914 -1.2442 -2.6719 -2.3037
  865MOL0     H19326   1.333   6.770  13.176  0.4634  1.6872  1.3194
  865MOL0     H19327   1.519   6.771  13.158  0.3546 -1.1459 -1.4344
  865MOL0     H19328   1.681   6.884  13.066 -1.3124 -1.5596  2.6530
  865MOL0     H19329   1.990   7.045  13.126 -1.5960  2.7287 -0.3636
  865MOL0     H19330   1.917   7.037  12.958 -4.7370  0.0070 -0.7383
  865MOL0     H19331   1.907   6.899  13.051 -2.7654 -0.3333 -1.9497
  865MOL0     H19332   2.018   7.511  13.339  0.6262  1.2926  0.9689
  865MOL0     H19333   2.126   7.733  13.306 -0.4170 -0.6009  0.2717
  865MOL0     H19334   2.076   7.957  12.933  1.6094 -0.9488  0.9279
  865MOL0     H19335   1.922   8.011  13.028 -0.1088  3.1531  1.7550
  865MOL0     H19336   2.032   8.176  13.138 -2.3641 -0.0005 -0.9237
  865MOL0     H19337   2.192   8.117  13.086  0.2360 -1.4825 -2.1089
  865MOL0     H19338   2.126   8.199  12.835 -0.0571 -3.0021 -0.2473
  865MOL0     H19339   2.133   8.319  12.970 -0.3300  1.0088 -2.3366
  865MOL0     H19340   1.886   8.283  12.999  2.1901  0.1055  2.4183
  865MOL0     H19341   1.871   8.170  12.876  2.2551 -0.6652 -2.3492
  865MOL0     H19342   1.973   8.442  12.827 -2.4025 -0.9106  3.0389
  865MOL0     H19343   1.931   8.319  12.705  3.9705 -2.4199  1.1103
  865MOL0     H19344   1.748   8.446  12.922 -1.8029  0.5272 -0.1273
  865MOL0     H19345   1.698   8.321  12.816 -1.7493  1.5218  1.2725
  865MOL0     H19346   1.696   8.468  12.624 -0.1042  1.5903 -0.3101
  865MOL0     H19347   1.826   8.576  12.694  1.2867 -0.5092  2.6394
  865MOL0     H19348   1.628   8.698  12.710  0.7553  0.7510  1.5600
  865MOL0     H19349   1.672   8.645  12.872 -2.8926 -2.1689  3.5986
  865MOL0     H19350   1.879   7.803  12.956 -1.9280  2.8045  3.5810
  865MOL0     H19351   1.817   7.564  12.966  0.7797 -1.3858 -1.0721
  865MOL0     H19352   1.619   7.338  13.228  3.6194  0.1739  0.2540
  865MOL0     H19353   1.428   7.171  13.245 -0.4272 -2.7248  0.8751
  865MOL0     H19354   1.301   5.498  11.916  0.1927  1.8463  1.5666
  865MOL0     H19355   1.235   5.328  11.744 -2.4067 -1.7919 -0.2039
  865MOL0     H19356   0.828   5.160  11.496  0.3549  2.3088  0.4748
  865MOL0     H19357   0.790   4.970  11.351 -1.2214  0.4992 -2.5613
  865MOL0     H19358   0.975   4.777  10.991  2.5079 -1.8662 -1.6693
  865MOL0     H19359   1.096   4.904  11.033 -0.7962  2.1933  5.8714
  865MOL0     H19360   1.182   4.760  11.213  0.9661  0.6900 -1.3486
  865MOL0     H19361   1.179   4.684  11.056 -0.4349  0.1329 -0.0804
  865MOL0     H19362   1.065   4.566  11.281  2.1233 -1.2921 -0.8197
  865MOL0     H19363   0.927   4.637  11.198  0.4652 -0.7577  3.9941
  865MOL0     H19364   0.935   4.417  11.119  1.7523 -0.6092  2.6264
  865MOL0     H19365   1.108   4.412  11.108 -1.1119 -1.8566  1.0312
  865MOL0     H19366   1.015   4.547  10.722  3.4520 -0.5528 -0.3935
  865MOL0     H19367   1.144   5.069  11.129 -1.1897  3.6072 -2.0067
  865MOL0     H19368   1.168   5.386  11.214 -0.3453 -0.3893  0.0232
  865MOL0     H19369   1.269   5.316  11.338  1.2413 -1.6872 -0.4065
  865MOL0     H19370   1.267   5.242  11.174  0.9285 -0.6199  1.8606
  866MOL0     O19371   7.816   1.782   2.762 -0.2356 -0.6786 -0.8509
  866MOL0     C19372   7.778   1.683   2.698 -0.3388  0.2927  0.2930
  866MOL0     O19373   7.750   1.558   2.754  0.5189 -0.2264  0.5336
  866MOL0     C19374   7.759   1.550   2.891 -0.0683 -0.0393  0.4218
  866MOL0     C19375   7.690   1.631   2.979  0.8343 -0.9225  0.3332
  866MOL0     C19376   7.714   1.630   3.117 -0.6431  0.5904  0.1112
  866MOL0     C19377   7.820   1.545   3.152  0.2217 -0.1814 -0.6566
  866MOL0     O19378   7.886   1.556   3.277  0.0989 -0.2869 -0.0378
  866MOL0     C19379   7.825   1.620   3.390  0.0478  0.8352  1.0370
  866MOL0     C19380   7.906   1.569   3.511  0.1963  0.4460 -0.1104
  866MOL0     C19381   7.804   1.567   3.623 -0.5969 -0.2500  0.9859
  866MOL0     C19382   7.855   1.503   3.750 -0.5482  0.0163 -0.3194
  866MOL0     C19383   7.761   1.483   3.867 -0.0501  1.4291  0.7078
  866MOL0     C19384   7.670   1.605   3.890 -0.0184  0.3552  0.6340
  866MOL0     C19385   7.635   1.599   4.043 -0.9622  0.1497  0.5499
  866MOL0     C19386   7.605   1.732   4.103 -0.1559  0.4300 -0.0763
  866MOL0     N19387   7.479   1.781   4.050  0.3858 -0.4583  0.0286
  866MOL0     C19388   7.466   1.889   3.972 -0.3253 -0.7722  0.0636
  866MOL0     C19389   7.335   1.899   3.947  1.1722  0.1730  0.9784
  866MOL0     C19390   7.266   2.009   3.871  0.5692  0.1521 -0.5971
  866MOL0     C19391   7.260   2.139   3.950 -0.0275 -0.9674 -0.9319
  866MOL0     C19392   7.201   2.260   3.865 -0.5226  0.1231  0.2755
  866MOL0     C19393   7.205   2.391   3.938 -0.2203 -0.3416 -1.0091
  866MOL0     O19394   7.324   2.477   3.929 -0.5596 -0.1234 -0.7153
  866MOL0     C19395   7.327   2.551   3.816  0.4438 -1.7679 -0.2757
  866MOL0     C19396   7.261   2.528   3.692 -0.0016 -0.2105  0.0902
  866MOL0     C19397   7.267   2.619   3.586 -1.1387  0.2269  0.8692
  866MOL0     C19398   7.208   2.568   3.451  0.0848  0.7129 -0.5793
  866MOL0     C19399   7.321   2.755   3.605  0.3496  1.0212 -0.0234
  866MOL0     C19400   7.317   2.859   3.501 -0.6081 -1.1067 -0.3896
  866MOL0     O19401   7.413   2.951   3.503 -0.2751 -0.1631  0.7900
  866MOL0     C19402   7.390   3.072   3.447 -0.7060 -0.3758 -0.8462
  866MOL0     C19403   7.270   3.146   3.492 -0.2138 -0.2037 -0.4375
  866MOL0     C19404   7.252   3.280   3.444  0.4767  0.4186  0.1500
  866MOL0     C19405   7.347   3.338   3.366  0.2038 -0.2154 -0.3429
  866MOL0     O19406   7.349   3.468   3.314  0.3284  0.1095 -0.4190
  866MOL0     C19407   7.269   3.571   3.381 -0.4682 -0.2658  1.1634
  866MOL0     C19408   7.286   3.698   3.308  0.4602 -0.2306 -0.2487
  866MOL0     C19409   7.165   3.796   3.323 -0.0820  0.5387 -0.0203
  866MOL0     C19410   7.086   3.801   3.191  0.3984 -0.3589 -0.0149
  866MOL0     C19411   6.962   3.898   3.208 -0.6561  0.4715 -0.6329
  866MOL0     C19412   6.861   3.855   3.312 -0.3695 -0.3564 -0.3849
  866MOL0     C19413   6.733   3.934   3.294 -1.3242 -0.1949 -0.7886
  866MOL0     C19414   6.619   3.885   3.394 -0.7734  0.2155  0.2172
  866MOL0    Cl19415   6.477   3.905   3.297 -0.1122  0.6656 -0.2385
  866MOL0     C19416   7.464   3.272   3.332  0.4833 -0.0727 -0.3424
  866MOL0     C19417   7.485   3.140   3.372 -0.3230  0.5133 -0.5699
  866MOL0     O19418   7.223   2.866   3.420 -0.2323 -0.1264 -1.1314
  866MOL0     C19419   7.394   2.774   3.729  0.9760 -0.2937  0.4160
  866MOL0     C19420   7.393   2.678   3.830 -0.1760  0.0533  0.4235
  866MOL0     N19421   7.269   1.792   4.016 -1.2560 -0.1721 -0.8514
  866MOL0     N19422   7.357   1.729   4.084  0.3247 -0.6848 -0.6236
  866MOL0     C19423   7.890   1.456   3.066  0.0546 -0.1233 -0.7378
  866MOL0     C19424   7.863   1.465   2.932 -0.1014  0.1779 -0.8183
  866MOL0     C19425   7.793   1.683   2.552  0.3061  0.3691  0.0109
  866MOL0     C19426   7.803   1.560   2.487  0.8897  0.4468 -0.0590
  866MOL0     C19427   7.811   1.550   2.349  0.2444  0.0860  0.8857
  866MOL0     C19428   7.820   1.670   2.269  0.2064  0.5827  0.4445
  866MOL0     O19429   7.831   1.667   2.135 -0.6217 -1.0178  0.3464
  866MOL0     C19430   7.836   1.555   2.040  0.9019  0.4598 -0.5858
  866MOL0     C19431   7.933   1.594   1.927  1.1480  0.5267  0.1723
  866MOL0     C19432   8.083   1.620   1.961 -0.5502  0.3607 -0.2048
  866MOL0     C19433   8.178   1.569   1.846 -0.1033 -0.2666 -0.2902
  866MOL0     C19434   8.144   1.635   1.723  0.3767 -0.1640  0.1180
  866MOL0     C19435   8.116   1.672   1.610  0.6128  0.5504 -0.7775
  866MOL0     C19436   7.798   1.791   2.333  1.2497  0.9145  0.1079
  866MOL0     C19437   7.777   1.801   2.473  1.1345  0.3172 -0.4951
  866MOL0     C19438   7.739   1.934   2.521  0.4812  0.6562 -1.1657
  866MOL0     H19439   7.615   1.697   2.936  2.1135  0.9676  0.9201
  866MOL0     H19440   7.671   1.702   3.185  0.3807  3.0079 -1.6606
  866MOL0     H19441   7.719   1.599   3.407 -0.5279  3.1436  0.6644
  866MOL0     H19442   7.847   1.725   3.371  2.7863  0.0478 -0.6680
  866MOL0     H19443   7.940   1.466   3.493 -0.9899  0.1380 -0.7162
  866MOL0     H19444   7.987   1.641   3.518  0.7589 -0.3470  2.4569
  866MOL0     H19445   7.785   1.674   3.634 -1.5961 -0.0648 -1.7528
  866MOL0     H19446   7.713   1.510   3.603  0.7651 -3.0972  2.2797
  866MOL0     H19447   7.913   1.413   3.728  3.1160  1.6680  1.6077
  866MOL0     H19448   7.933   1.573   3.782  0.9825 -2.2507  1.2101
  866MOL0     H19449   7.822   1.456   3.954 -1.1706 -0.4166  0.9755
  866MOL0     H19450   7.700   1.393   3.850 -0.7837  1.8828  0.9139
  866MOL0     H19451   7.723   1.698   3.865  2.6292 -1.1201  0.3124
  866MOL0     H19452   7.586   1.589   3.822 -1.1681  2.7968  1.3890
  866MOL0     H19453   7.731   1.576   4.091 -1.5866 -0.1277  1.7177
  866MOL0     H19454   7.563   1.521   4.071  1.1364 -1.2189  2.5359
  866MOL0     H19455   7.591   1.727   4.211 -3.3435 -1.2854 -0.4448
  866MOL0     H19456   7.680   1.810   4.084  0.7874  0.2121  2.4157
  866MOL0     H19457   7.549   1.952   3.941 -0.0851 -0.5185  1.1632
  866MOL0     H19458   7.164   1.971   3.871  1.8920 -4.2932  3.2031
  866MOL0     H19459   7.312   2.035   3.775 -1.2608 -0.2496 -1.6220
  866MOL0     H19460   7.203   2.139   4.044 -0.3345  1.0328 -1.0723
  866MOL0     H19461   7.363   2.157   3.981 -0.7023 -2.0303  2.3900
  866MOL0     H19462   7.250   2.259   3.767  1.9719  0.4303  1.4429
  866MOL0     H19463   7.096   2.242   3.844 -0.5408  0.4002  0.1195
  866MOL0     H19464   7.125   2.458   3.905  0.7125  1.1468 -0.3663
  866MOL0     H19465   7.193   2.371   4.045 -1.1558 -1.4784 -1.2967
  866MOL0     H19466   7.225   2.427   3.674 -0.0461 -0.2006  0.1246
  866MOL0     H19467   7.170   2.466   3.462 -4.5937  2.0108 -2.4779
  866MOL0     H19468   7.282   2.563   3.370 -0.1938  1.7311 -0.9136
  866MOL0     H19469   7.128   2.632   3.414 -0.0055  0.6214 -0.5420
  866MOL0     H19470   7.201   3.091   3.556 -1.0552  1.4932  0.1578
  866MOL0     H19471   7.167   3.339   3.478  1.7228  1.8985  0.8250
  866MOL0     H19472   7.164   3.548   3.363 -0.4687 -0.4985  1.4612
  866MOL0     H19473   7.288   3.584   3.488  1.3261  2.5385  0.5918
  866MOL0     H19474   7.373   3.744   3.356  1.3375 -1.4502 -0.5995
  866MOL0     H19475   7.306   3.692   3.201  0.5375  1.2616 -0.3387
  866MOL0     H19476   7.189   3.894   3.366 -0.6013 -0.2416  2.1553
  866MOL0     H19477   7.096   3.756   3.397  2.2471 -0.8244  1.5370
  866MOL0     H19478   7.062   3.703   3.149 -1.6380 -0.7895  1.9706
  866MOL0     H19479   7.148   3.853   3.117  0.6425  0.8428  1.0087
  866MOL0     H19480   6.982   4.001   3.239  0.9413 -0.9175  3.7405
  866MOL0     H19481   6.911   3.894   3.111 -2.8305  0.4204  0.4532
  866MOL0     H19482   6.908   3.879   3.408 -0.1641  0.3097 -0.6420
  866MOL0     H19483   6.850   3.746   3.310 -0.2654 -0.3623 -0.7088
  866MOL0     H19484   6.689   3.923   3.194  2.7329 -0.5954 -2.6998
  866MOL0     H19485   6.750   4.041   3.311 -0.0853 -0.9593  4.5362
  866MOL0     H19486   6.621   3.945   3.486  2.9552  0.2376  0.2672
  866MOL0     H19487   6.634   3.783   3.432 -3.2012  0.1253  1.1440
  866MOL0     H19488   7.534   3.329   3.272  1.6309 -0.3474  0.6876
  866MOL0     H19489   7.574   3.085   3.344 -0.3658  0.4938 -0.6660
  866MOL0     H19490   7.443   2.867   3.759 -2.8819  1.8223  0.7727
  866MOL0     H19491   7.433   2.681   3.931 -1.1837 -1.5362  0.9260
  866MOL0     H19492   7.963   1.394   3.117 -1.6582 -0.1828  1.8428
  866MOL0     H19493   7.903   1.406   2.850  0.5282 -0.0402 -0.3584
  866MOL0     H19494   7.813   1.465   2.539 -0.9524  0.8651  1.1561
  866MOL0     H19495   7.830   1.461   2.291 -0.5680  0.0291  0.6983
  866MOL0     H19496   7.873   1.463   2.086  0.4856 -0.5395 -2.1497
  866MOL0     H19497   7.730   1.538   2.017  0.7847  1.0863 -0.5353
  866MOL0     H19498   7.892   1.681   1.875  1.7141 -0.0987 -1.3731
  866MOL0     H19499   7.935   1.517   1.850 -0.1527 -0.0124  0.6540
  866MOL0     H19500   8.099   1.728   1.965 -2.3171  0.6087  1.3825
  866MOL0     H19501   8.111   1.576   2.057 -1.2717 -2.0441 -1.0427
  866MOL0     H19502   8.160   1.462   1.833 -0.9241 -0.2585  0.6090
  866MOL0     H19503   8.284   1.580   1.873  0.7126 -3.3612 -1.7042
  866MOL0     H19504   8.079   1.709   1.516 -0.8573  0.6587 -0.1770
  866MOL0     H19505   7.783   1.874   2.264  0.0447 -0.2608 -1.1311
  866MOL0     H19506   7.672   1.935   2.608  1.4919 -1.3304 -0.3117
  866MOL0     H19507   7.832   1.984   2.549 -0.0796  1.3692 -0.5183
  866MOL0     H19508   7.703   2.006   2.447  0.6803  1.2556 -0.6912
  867MOL0     O19509   1.141   0.254   7.927  0.0659 -0.6206 -0.3652
  867MOL0     C19510   1.103   0.140   7.958  0.1805  0.9785 -0.6510
  867MOL0     O19511   1.177   0.024   7.941 -0.0636 -0.0316  0.2600
  867MOL0     C19512   1.300   0.027   7.891 -0.1664  0.6156 -0.0159
  867MOL0     C19513   1.294   0.025   7.752 -0.1111  0.0030  0.3952
  867MOL0     C19514   1.417   0.018   7.685 -0.0674  0.3823 -0.3270
  867MOL0     C19515   1.532  -0.004   7.750  0.1186 -0.4241 -0.0956
  867MOL0     O19516   1.633  -0.037   7.668 -0.4291 -0.3204  0.3565
  867MOL0     C19517   1.768   0.037   7.680  0.1004  0.5157  0.3241
  867MOL0     C19518   1.870  -0.022   7.574 -0.1373 -0.4459 -0.5063
  867MOL0     C19519   1.928   0.070   7.491  0.7890 -0.1594  0.0495
  867MOL0     C19520   2.019   0.176   7.558 -0.0932  0.1060 -0.3512
  867MOL0     C19521   2.127   0.223   7.460  0.2060 -0.4419  0.5221
  867MOL0     C19522   2.234   0.304   7.546  0.5281 -0.8089  0.0363
  867MOL0     C19523   2.354   0.342   7.460  0.1069  0.3290  0.5593
  867MOL0     C19524   2.444   0.450   7.519 -0.3035 -0.3404 -0.2216
  867MOL0     N19525   2.391   0.578   7.500 -0.0080 -0.1035  0.4059
  867MOL0     C19526   2.343   0.665   7.594  0.5018  0.2016 -0.9126
  867MOL0     C19527   2.323   0.778   7.526  0.2757  0.0481  0.9114
  867MOL0     C19528   2.274   0.907   7.580 -0.0634  0.3517 -0.0743
  867MOL0     C19529   2.121   0.918   7.610  0.1217 -0.1474  1.0022
  867MOL0     C19530   2.085   1.026   7.706  0.4315 -0.8350  0.9135
  867MOL0     C19531   1.946   1.087   7.687  0.0234  0.7783 -0.7191
  867MOL0     O19532   1.838   0.993   7.683 -0.6894 -0.2165 -0.2471
  867MOL0     C19533   1.717   1.025   7.609  0.3676 -0.0882  0.2791
  867MOL0     C19534   1.700   1.134   7.523  0.6510 -0.4704 -1.1452
  867MOL0     C19535   1.585   1.153   7.453 -0.1915 -0.0621 -0.1322
  867MOL0     C19536   1.592   1.281   7.365  0.0780 -1.3360 -0.9269
  867MOL0     C19537   1.474   1.072   7.463 -0.6270  0.0607 -0.0093
  867MOL0     C19538   1.344   1.098   7.399  0.4652 -0.4767 -0.5886
  867MOL0     O19539   1.320   1.220   7.340 -0.3202  0.1869  0.4059
  867MOL0     C19540   1.187   1.234   7.285 -0.0763 -0.1914  0.1200
  867MOL0     C19541   1.165   1.208   7.150 -0.0772  0.0461  1.0337
  867MOL0     C19542   1.047   1.249   7.096  0.1751 -0.4783  0.0219
  867MOL0     C19543   0.957   1.328   7.166  0.0603 -0.3991 -1.1310
  867MOL0     O19544   0.836   1.368   7.116 -0.0827 -0.0307  0.0641
  867MOL0     C19545   0.803   1.328   6.981  0.0072  0.1552  0.4156
  867MOL0     C19546   0.658   1.372   6.959 -0.0829 -0.0746  0.2153
  867MOL0     C19547   0.615   1.289   6.841 -0.1555  0.5444 -0.1575
  867MOL0     C19548   0.492   1.334   6.761  0.6001  0.1153  0.0682
  867MOL0     C19549   0.480   1.251   6.634 -0.6102 -0.6090  0.1617
  867MOL0     C19550   0.466   1.098   6.642  0.5700  0.3855  0.1887
  867MOL0     C19551   0.374   1.046   6.750 -0.0794 -0.7467  0.4124
  867MOL0     C19552   0.420   0.902   6.797  0.5713 -0.6378 -0.4235
  867MOL0    Cl19553   0.484   0.790   6.669  0.1616 -0.7633 -0.2250
  867MOL0     C19554   0.982   1.375   7.290 -0.0674 -0.6551  0.1594
  867MOL0     C19555   1.096   1.320   7.355  0.2309 -0.5702 -0.7901
  867MOL0     O19556   1.266   1.009   7.403  0.4489  0.6521  0.3106
  867MOL0     C19557   1.489   0.955   7.548 -0.0575 -0.6394 -0.5918
  867MOL0     C19558   1.611   0.937   7.623 -1.2141  0.2072  0.7809
  867MOL0     N19559   2.353   0.756   7.388 -1.1296 -0.1392 -0.2119
  867MOL0     N19560   2.399   0.638   7.375 -0.6201  0.1046 -0.6786
  867MOL0     C19561   1.536  -0.019   7.899 -0.7852 -0.5633  0.0217
  867MOL0     C19562   1.418   0.003   7.972 -0.9000  0.7066  0.5988
  867MOL0     C19563   0.965   0.131   8.015 -0.7911 -0.0505 -0.2628
  867MOL0     C19564   0.928   0.228   8.103 -0.1015 -0.4014 -0.3951
  867MOL0     C19565   0.803   0.220   8.171  0.9543  0.4364 -0.3456
  867MOL0     C19566   0.720   0.118   8.129 -0.4323  0.7505 -0.3463
  867MOL0     O19567   0.597   0.096   8.180 -0.2492  0.7171 -1.2966
  867MOL0     C19568   0.532   0.181   8.271 -0.4244 -1.2709  1.1579
  867MOL0     C19569   0.382   0.148   8.275  0.7465  0.5751  0.6293
  867MOL0     C19570   0.318   0.226   8.402  0.9516 -0.5527 -0.3362
  867MOL0     C19571   0.171   0.246   8.387 -0.3548  0.4338  0.2085
  867MOL0     C19572   0.092   0.125   8.410  0.1662 -0.0353 -0.2538
  867MOL0     C19573   0.058   0.027   8.460 -0.2985 -0.4485 -0.0300
  867MOL0     C19574   0.752   0.025   8.028 -0.7649 -0.3361 -0.3798
  867MOL0     C19575   0.880   0.027   7.968 -0.4715 -1.3634 -0.2312
  867MOL0     C19576   0.930  -0.092   7.889  0.2417 -0.2236 -0.1670
  867MOL0     H19577   1.200   0.029   7.699 -1.9291  0.3673  3.4063
  867MOL0     H19578   1.401   0.015   7.578 -1.3164 -0.6697 -0.1525
  867MOL0     H19579   1.808   0.020   7.780  2.3506  0.7878 -0.4813
  867MOL0     H19580   1.748   0.142   7.658 -0.1068 -0.0566 -2.6659
  867MOL0     H19581   1.947  -0.065   7.639  1.1821  1.6768 -0.5744
  867MOL0     H19582   1.826  -0.100   7.511  1.3802 -1.2254 -0.6386
  867MOL0     H19583   1.987   0.001   7.429 -0.0950  0.3372 -1.3950
  867MOL0     H19584   1.862   0.114   7.416  1.7501 -1.4162 -1.6025
  867MOL0     H19585   1.965   0.266   7.590  2.7873  2.2051 -0.9447
  867MOL0     H19586   2.075   0.130   7.639  0.2082 -0.4540 -0.8684
  867MOL0     H19587   2.093   0.282   7.374  1.4702  1.2961  1.1647
  867MOL0     H19588   2.168   0.127   7.426 -1.2385 -1.4062  1.3983
  867MOL0     H19589   2.187   0.395   7.584 -1.6939 -1.5974 -0.6666
  867MOL0     H19590   2.270   0.251   7.634  0.0567  2.6018  2.4869
  867MOL0     H19591   2.317   0.377   7.363  0.1498 -2.1341 -0.4228
  867MOL0     H19592   2.407   0.249   7.440 -0.9905 -0.1435 -0.2057
  867MOL0     H19593   2.473   0.447   7.624 -0.9087  3.8053  0.2389
  867MOL0     H19594   2.541   0.442   7.468  0.7971 -1.2163  1.8805
  867MOL0     H19595   2.311   0.643   7.695 -2.5159  0.7800 -1.6519
  867MOL0     H19596   2.309   0.990   7.518  3.0802  0.3476  1.4939
  867MOL0     H19597   2.318   0.934   7.676  0.5295 -0.1139 -0.2099
  867MOL0     H19598   2.067   0.927   7.515 -1.9746 -2.0596  1.8974
  867MOL0     H19599   2.092   0.820   7.649 -0.6067  0.5793  2.3400
  867MOL0     H19600   2.095   0.983   7.807  1.5751 -1.2352  0.6462
  867MOL0     H19601   2.154   1.108   7.683  1.7156 -2.7083 -2.7038
  867MOL0     H19602   1.925   1.172   7.752  1.2835  2.9470 -2.9385
  867MOL0     H19603   1.960   1.133   7.588 -0.6636 -1.9258 -2.1826
  867MOL0     H19604   1.784   1.199   7.502  2.2697 -2.1339 -0.1295
  867MOL0     H19605   1.679   1.343   7.387 -1.1322 -0.4297  1.8114
  867MOL0     H19606   1.512   1.349   7.395  0.8539 -1.4656  1.6678
  867MOL0     H19607   1.577   1.254   7.260 -2.2235 -2.7478 -0.3146
  867MOL0     H19608   1.241   1.145   7.107  3.3567  2.6519  2.7238
  867MOL0     H19609   1.029   1.204   6.998  1.0615  0.7083 -0.7108
  867MOL0     H19610   0.873   1.383   6.918  1.0797 -0.8082  0.7365
  867MOL0     H19611   0.814   1.224   6.948  0.4473  1.4321 -4.2550
  867MOL0     H19612   0.601   1.364   7.052 -0.6816  1.5827  0.0245
  867MOL0     H19613   0.651   1.475   6.921 -2.0350 -0.9606 -2.1468
  867MOL0     H19614   0.593   1.188   6.879 -1.5432  1.0921  0.5854
  867MOL0     H19615   0.698   1.305   6.772  0.7989 -1.6007  0.4034
  867MOL0     H19616   0.509   1.440   6.741  2.9784 -0.0146  1.0849
  867MOL0     H19617   0.398   1.334   6.817  0.2596  2.9495 -0.3406
  867MOL0     H19618   0.394   1.294   6.582 -0.1616  0.3377  0.1714
  867MOL0     H19619   0.566   1.264   6.568 -0.7852 -0.6446 -0.0719
  867MOL0     H19620   0.565   1.060   6.671  0.2680 -1.3705 -0.9686
  867MOL0     H19621   0.435   1.051   6.549  0.1193  0.1555  0.4513
  867MOL0     H19622   0.272   1.054   6.710  0.5305  0.8840 -0.9409
  867MOL0     H19623   0.376   1.109   6.840 -0.4420  1.2429 -0.8958
  867MOL0     H19624   0.329   0.862   6.844  0.2505  2.4631  1.8440
  867MOL0     H19625   0.491   0.923   6.877  0.7848 -1.6401 -0.3268
  867MOL0     H19626   0.922   1.449   7.341 -1.7122 -2.7541  1.4474
  867MOL0     H19627   1.123   1.358   7.453 -0.0177  0.1056 -0.9783
  867MOL0     H19628   1.404   0.888   7.559 -1.6929  1.4845  0.6634
  867MOL0     H19629   1.619   0.851   7.689  1.1677  0.3161  0.7153
  867MOL0     H19630   1.629  -0.061   7.938  0.1942  1.1138 -0.3893
  867MOL0     H19631   1.422  -0.014   8.079 -0.7823  1.3202  0.6950
  867MOL0     H19632   0.996   0.313   8.111 -0.5163 -0.1943  1.3589
  867MOL0     H19633   0.766   0.285   8.250  2.3982  1.2648 -0.3334
  867MOL0     H19634   0.583   0.174   8.367 -1.0994  0.4247  1.6907
  867MOL0     H19635   0.538   0.288   8.248 -2.3032 -1.6023 -1.2786
  867MOL0     H19636   0.382   0.040   8.290 -0.0276  0.5190  0.2571
  867MOL0     H19637   0.342   0.175   8.177  0.6669 -1.1806  0.1444
  867MOL0     H19638   0.332   0.180   8.500  1.9607  0.6102  0.0950
  867MOL0     H19639   0.373   0.320   8.412 -1.4131  0.6957  2.4385
  867MOL0     H19640   0.161   0.266   8.280  4.2731 -0.3044 -0.5663
  867MOL0     H19641   0.137   0.332   8.447 -1.5136 -1.9775  3.3205
  867MOL0     H19642   0.050  -0.073   8.499 -0.6759 -0.6980 -0.7417
  867MOL0     H19643   0.680  -0.042   7.982  0.0928  0.3174 -2.8416
  867MOL0     H19644   1.001  -0.058   7.814 -1.4735  0.7329 -1.4456
  867MOL0     H19645   0.971  -0.170   7.954 -2.0257 -1.4031 -0.0394
  867MOL0     H19646   0.844  -0.134   7.836 -0.1902 -0.9434  1.0555
  868MOL0     O19647   4.549   4.590  11.432  0.2478 -0.2000  0.0683
  868MOL0     C19648   4.671   4.576  11.428  0.3232 -0.5445  0.3344
  868MOL0     O19649   4.757   4.679  11.446  0.5268  0.6122  0.0159
  868MOL0     C19650   4.717   4.800  11.481  0.0936  0.2744  0.0168
  868MOL0     C19651   4.659   4.812  11.608  0.3553  0.5053  0.4554
  868MOL0     C19652   4.598   4.931  11.637 -1.0398 -0.2326 -0.9436
  868MOL0     C19653   4.596   5.042  11.550 -0.2758 -0.0785 -0.2553
  868MOL0     O19654   4.531   5.155  11.599 -0.3086 -0.1526  0.5732
  868MOL0     C19655   4.534   5.273  11.507 -0.6373 -0.4585 -0.9042
  868MOL0     C19656   4.492   5.398  11.580 -0.4579  0.2464  0.0151
  868MOL0     C19657   4.360   5.370  11.651 -0.8086  0.8199  0.1467
  868MOL0     C19658   4.301   5.484  11.730 -1.7029  0.0523 -0.5106
  868MOL0     C19659   4.387   5.515  11.863 -0.1127 -0.1341 -0.1613
  868MOL0     C19660   4.306   5.627  11.935 -0.0610  0.5048 -0.0294
  868MOL0     C19661   4.356   5.681  12.067 -0.5559  0.7367  0.5444
  868MOL0     C19662   4.335   5.591  12.191  0.5042  0.1838  0.3545
  868MOL0     N19663   4.411   5.636  12.309  0.2584 -0.1480 -0.1128
  868MOL0     C19664   4.545   5.617  12.336 -0.1350 -0.1700 -0.8852
  868MOL0     C19665   4.549   5.668  12.463  0.3170 -0.4588 -0.3123
  868MOL0     C19666   4.677   5.670  12.544  0.1725 -0.0218  0.3957
  868MOL0     C19667   4.685   5.552  12.637  0.6985 -0.0131  0.6566
  868MOL0     C19668   4.568   5.570  12.746 -1.1238  0.0232 -0.6808
  868MOL0     C19669   4.565   5.438  12.827  0.2351 -0.2614 -0.8561
  868MOL0     O19670   4.513   5.339  12.739 -0.1743 -0.7347  0.4033
  868MOL0     C19671   4.388   5.346  12.685  0.5654 -0.6455  0.5262
  868MOL0     C19672   4.369   5.271  12.577  0.8818 -0.4443 -0.0447
  868MOL0     C19673   4.247   5.282  12.501  0.2233 -0.1501  0.2299
  868MOL0     C19674   4.252   5.204  12.366  0.0629 -0.7108 -0.3002
  868MOL0     C19675   4.136   5.332  12.565  0.5659 -0.7030 -0.3233
  868MOL0     C19676   4.000   5.353  12.505  0.7161 -0.3771  0.1128
  868MOL0     O19677   3.915   5.435  12.578 -0.4153  0.3830  0.3232
  868MOL0     C19678   3.779   5.432  12.524 -0.3345 -0.3232  0.8935
  868MOL0     C19679   3.688   5.328  12.556  0.5430 -0.1143 -0.0840
  868MOL0     C19680   3.554   5.342  12.535  0.4270  0.0156 -0.0966
  868MOL0     C19681   3.504   5.454  12.464  0.0735 -0.1034  0.5803
  868MOL0     O19682   3.375   5.471  12.439  0.7030 -0.2801 -0.2045
  868MOL0     C19683   3.296   5.352  12.428 -0.8396  0.5545 -0.1606
  868MOL0     C19684   3.169   5.404  12.367  0.2953  0.2440  0.4643
  868MOL0     C19685   3.051   5.295  12.368 -0.9123 -0.4734  0.6816
  868MOL0     C19686   3.093   5.169  12.287 -0.3003 -0.6787 -0.3577
  868MOL0     C19687   2.983   5.063  12.310 -0.5659  0.2535 -0.1632
  868MOL0     C19688   2.989   4.965  12.182  0.3861 -0.2866  0.8048
  868MOL0     C19689   2.886   4.848  12.212 -0.2628  0.1327  0.0705
  868MOL0     C19690   2.906   4.777  12.348 -0.7314  0.0363  0.1985
  868MOL0    Cl19691   3.077   4.730  12.360 -0.1115 -0.0821 -0.2862
  868MOL0     C19692   3.593   5.554  12.423 -0.0435 -0.0234 -1.0800
  868MOL0     C19693   3.722   5.540  12.455  1.1437 -0.3036 -0.3648
  868MOL0     O19694   3.971   5.303  12.394  0.0267 -0.2131 -0.7056
  868MOL0     C19695   4.159   5.397  12.693  0.4458 -1.1908  0.6866
  868MOL0     C19696   4.285   5.409  12.751  0.9687  0.0153 -1.0492
  868MOL0     N19697   4.424   5.714  12.512 -0.8963  0.0223 -0.1513
  868MOL0     N19698   4.341   5.692  12.410  0.0978 -0.6694  0.0609
  868MOL0     C19699   4.638   5.014  11.423  0.3886  0.2488 -0.3065
  868MOL0     C19700   4.698   4.893  11.385  0.9874 -0.0661 -0.0125
  868MOL0     C19701   4.716   4.432  11.398 -1.2562  0.3698  0.4195
  868MOL0     C19702   4.615   4.332  11.398  0.0547  0.5471 -0.3361
  868MOL0     C19703   4.636   4.208  11.341 -0.2663  0.5784 -0.3486
  868MOL0     C19704   4.754   4.181  11.278 -0.2082  0.4508 -0.4473
  868MOL0     O19705   4.794   4.065  11.212  1.3074  0.2680 -0.2980
  868MOL0     C19706   4.693   3.988  11.150 -0.0460  0.4090 -0.5915
  868MOL0     C19707   4.752   3.934  11.020  0.2377 -0.3769 -0.4588
  868MOL0     C19708   4.776   4.025  10.901  1.1444 -0.3453  0.7313
  868MOL0     C19709   4.645   4.077  10.833  0.2919  0.7266  0.5704
  868MOL0     C19710   4.657   4.103  10.690 -0.4123 -0.8486 -0.1768
  868MOL0     C19711   4.671   4.129  10.580  0.8121 -0.0323 -0.0501
  868MOL0     C19712   4.858   4.266  11.303  0.3393 -0.7428  0.5636
  868MOL0     C19713   4.845   4.397  11.348  0.7025  1.2023 -0.5651
  868MOL0     C19714   4.961   4.487  11.351  0.3824 -0.3718 -0.3880
  868MOL0     H19715   4.664   4.738  11.686 -1.8876  0.1637  0.3407
  868MOL0     H19716   4.561   4.936  11.740 -0.7431 -0.9164 -0.8035
  868MOL0     H19717   4.467   5.237  11.428 -2.2381 -1.8554  0.9810
  868MOL0     H19718   4.632   5.288  11.461 -0.5114 -2.4598 -1.3596
  868MOL0     H19719   4.562   5.435  11.655 -0.8520 -0.0113  0.5096
  868MOL0     H19720   4.480   5.486  11.515 -0.0784  0.5362  0.3325
  868MOL0     H19721   4.281   5.348  11.578 -0.5425  2.5263 -0.7167
  868MOL0     H19722   4.362   5.283  11.717 -1.9162  0.2859 -0.4897
  868MOL0     H19723   4.311   5.572  11.666  3.0018  0.2938  0.2073
  868MOL0     H19724   4.195   5.466  11.753 -2.0541  1.3592 -1.0509
  868MOL0     H19725   4.489   5.545  11.839  0.7220 -2.8675 -0.4751
  868MOL0     H19726   4.394   5.425  11.925 -0.6690  0.8823  1.4085
  868MOL0     H19727   4.301   5.714  11.869  0.7956  0.2318 -0.4720
  868MOL0     H19728   4.206   5.589  11.958 -0.2092  2.0630  2.2124
  868MOL0     H19729   4.309   5.779  12.081 -1.7542 -0.0853  2.8053
  868MOL0     H19730   4.462   5.702  12.050 -0.8612  1.3946 -0.6710
  868MOL0     H19731   4.228   5.578  12.208  0.0363 -1.9359 -3.0930
  868MOL0     H19732   4.376   5.491  12.171  1.9263  0.7152  0.5097
  868MOL0     H19733   4.611   5.573  12.263 -1.6287 -2.2876 -1.0548
  868MOL0     H19734   4.690   5.769  12.588 -1.8652  0.6393 -0.3644
  868MOL0     H19735   4.755   5.664  12.467 -1.2925 -1.6966 -1.0384
  868MOL0     H19736   4.686   5.465  12.571 -2.6494  0.3326 -0.0175
  868MOL0     H19737   4.774   5.561  12.701  1.2361 -3.2211  0.5498
  868MOL0     H19738   4.600   5.650  12.813 -1.1267  1.5518 -2.4376
  868MOL0     H19739   4.470   5.603  12.709 -0.6280  0.6603 -1.4517
  868MOL0     H19740   4.665   5.402  12.854  1.4971  3.6281  0.2383
  868MOL0     H19741   4.493   5.448  12.909 -1.6882 -0.7130 -2.4073
  868MOL0     H19742   4.447   5.207  12.537  0.2472  0.1874 -2.4723
  868MOL0     H19743   4.225   5.266  12.280  0.1975  0.9019  0.7743
  868MOL0     H19744   4.194   5.113  12.381  0.4399 -1.1401 -1.3132
  868MOL0     H19745   4.353   5.166  12.343 -0.4447 -5.2850  3.5135
  868MOL0     H19746   3.723   5.246  12.618 -0.5944 -0.7619 -0.2775
  868MOL0     H19747   3.488   5.269  12.579 -0.8543 -0.0565 -2.0234
  868MOL0     H19748   3.329   5.264  12.372  0.0981 -1.3562  3.1288
  868MOL0     H19749   3.281   5.315  12.529  1.4545 -1.5016 -0.4843
  868MOL0     H19750   3.133   5.485  12.432  0.3239 -0.5041  1.4430
  868MOL0     H19751   3.193   5.437  12.266  1.6233 -1.7958  0.0625
  868MOL0     H19752   2.955   5.332  12.332 -1.2012 -2.4516 -0.7992
  868MOL0     H19753   3.025   5.252  12.465 -2.5350  0.9408  0.9182
  868MOL0     H19754   3.193   5.128  12.300 -0.9259 -2.3361 -0.4912
  868MOL0     H19755   3.094   5.200  12.182  0.1969 -0.1731 -0.2057
  868MOL0     H19756   2.994   5.014  12.407 -0.6160 -1.1769 -0.8586
  868MOL0     H19757   2.886   5.115  12.309 -1.6619 -1.3285 -5.2072
  868MOL0     H19758   3.093   4.933  12.170  0.5014  0.1188  0.7147
  868MOL0     H19759   2.952   5.028  12.101  0.0099  0.7440  1.7395
  868MOL0     H19760   2.890   4.770  12.135  1.4714  1.8022 -1.6460
  868MOL0     H19761   2.786   4.888  12.195 -1.2911 -2.3710 -0.1573
  868MOL0     H19762   2.854   4.682  12.366  3.5312 -2.2520  1.6993
  868MOL0     H19763   2.884   4.859  12.417 -0.6245  0.0755  0.1846
  868MOL0     H19764   3.551   5.643  12.378 -0.3930  0.0718 -0.5732
  868MOL0     H19765   3.779   5.631  12.435 -1.2267  0.7458 -2.9547
  868MOL0     H19766   4.069   5.431  12.744 -0.0445 -2.9384  1.0239
  868MOL0     H19767   4.307   5.468  12.840 -0.0538  0.4206 -1.0491
  868MOL0     H19768   4.617   5.090  11.349  2.5838  1.0434 -0.2004
  868MOL0     H19769   4.722   4.866  11.283 -1.3850 -1.4901 -0.2772
  868MOL0     H19770   4.517   4.364  11.431  0.8990  2.3264  0.6286
  868MOL0     H19771   4.561   4.130  11.334 -1.1247  1.4896 -1.7768
  868MOL0     H19772   4.666   3.903  11.214 -1.3698  0.6784 -0.7645
  868MOL0     H19773   4.599   4.039  11.132  0.9334  2.0656 -1.1875
  868MOL0     H19774   4.680   3.859  10.987 -3.1108  2.5808 -0.5157
  868MOL0     H19775   4.843   3.887  11.058  1.0854  0.7716 -0.9889
  868MOL0     H19776   4.828   4.114  10.939 -0.0794  1.2679 -1.1951
  868MOL0     H19777   4.839   3.978  10.824  0.6595  1.2630 -0.7041
  868MOL0     H19778   4.615   4.171  10.881 -2.0733  0.8669 -1.0024
  868MOL0     H19779   4.564   4.004  10.837  0.8608  0.0261 -0.3528
  868MOL0     H19780   4.676   4.168  10.480 -1.0632  1.6697  0.4511
  868MOL0     H19781   4.961   4.234  11.297  0.6487  0.5559 -2.3621
  868MOL0     H19782   5.052   4.428  11.334  0.3977 -2.0009  4.0120
  868MOL0     H19783   4.946   4.559  11.270 -0.5537 -2.2569 -1.9705
  868MOL0     H19784   4.966   4.534  11.450 -2.5936 -1.9894  0.6572
  869MOL0     O19785   4.639  10.952  10.654  0.5689  0.3117 -0.0338
  869MOL0     C19786   4.565  10.938  10.750  0.1413  1.4478 -0.1586
  869MOL0     O19787   4.487  10.830  10.777  0.5474 -0.1280  0.3942
  869MOL0     C19788   4.471  10.722  10.701  0.8413 -0.2901 -0.3415
  869MOL0     C19789   4.577  10.653  10.662 -0.7028 -0.3395 -0.6696
  869MOL0     C19790   4.560  10.538  10.589  1.1990 -0.8442  0.3694
  869MOL0     C19791   4.429  10.486  10.567 -0.5246 -0.3496  0.5276
  869MOL0     O19792   4.419  10.354  10.532 -0.8052  0.4974  0.4606
  869MOL0     C19793   4.463  10.313  10.400 -0.7727  1.1773 -0.3122
  869MOL0     C19794   4.507  10.167  10.402 -0.7528 -0.0383 -0.5640
  869MOL0     C19795   4.531  10.116  10.259  0.5536  0.1740 -0.9040
  869MOL0     C19796   4.587   9.976  10.249 -0.4278 -0.2159  0.1023
  869MOL0     C19797   4.733   9.983  10.297  0.6212  0.1627 -0.4948
  869MOL0     C19798   4.832   9.897  10.216 -0.8046 -0.4378  0.0750
  869MOL0     C19799   4.867   9.957  10.071 -1.0225 -0.2759 -0.9220
  869MOL0     C19800   4.956  10.075  10.072 -0.2720 -0.1534 -1.3761
  869MOL0     N19801   5.034  10.087   9.948  0.1905  0.5923  0.0235
  869MOL0     C19802   4.980  10.113   9.828 -0.0916 -0.3520 -1.3490
  869MOL0     C19803   5.092  10.126   9.757 -0.5153 -0.2578  0.1582
  869MOL0     C19804   5.094  10.182   9.614  0.3602  0.3888 -0.5311
  869MOL0     C19805   5.017  10.302   9.589  0.0022  0.5253  0.1639
  869MOL0     C19806   5.082  10.427   9.654  1.2668 -0.0479 -1.0797
  869MOL0     C19807   5.034  10.555   9.577  0.9005 -0.5517  0.2597
  869MOL0     O19808   5.121  10.610   9.472  0.0041  0.2741  0.6552
  869MOL0     C19809   5.048  10.676   9.376  0.1004 -0.2209  0.4407
  869MOL0     C19810   5.080  10.805   9.370  0.7716 -0.8127  0.6789
  869MOL0     C19811   5.017  10.894   9.279 -0.1282 -0.1774 -0.4070
  869MOL0     C19812   5.063  11.040   9.286  1.4331  0.4466 -0.0380
  869MOL0     C19813   4.917  10.843   9.197 -0.1677 -1.0813 -0.2124
  869MOL0     C19814   4.821  10.921   9.110 -0.5919  0.2744 -0.1862
  869MOL0     O19815   4.713  10.849   9.063 -0.3926  0.3795 -0.1101
  869MOL0     C19816   4.619  10.927   8.998 -0.6534  0.7747  0.2484
  869MOL0     C19817   4.616  10.941   8.855  1.4796 -0.1464 -0.1609
  869MOL0     C19818   4.508  10.992   8.789  0.2452 -0.7847  1.6539
  869MOL0     C19819   4.398  11.048   8.855 -0.8370 -0.7284  0.4663
  869MOL0     O19820   4.285  11.107   8.789 -0.3392 -0.1334  0.6246
  869MOL0     C19821   4.274  11.092   8.646 -0.4541  0.6489 -0.2666
  869MOL0     C19822   4.144  11.154   8.596 -1.0937 -0.0081 -0.0334
  869MOL0     C19823   4.099  11.279   8.675  0.9984  0.8217 -0.1740
  869MOL0     C19824   4.180  11.408   8.645 -0.2099  0.0213  0.0976
  869MOL0     C19825   4.128  11.507   8.537 -0.5109  0.9275  0.1888
  869MOL0     C19826   3.970  11.514   8.538  0.7444  0.3025  0.1860
  869MOL0     C19827   3.921  11.617   8.441  0.1830  0.7474 -0.1350
  869MOL0     C19828   3.781  11.598   8.404  0.4281 -0.9816  1.6319
  869MOL0    Cl19829   3.721  11.738   8.306 -0.0590 -0.0813 -0.2590
  869MOL0     C19830   4.405  11.042   8.989 -0.1227 -0.0787 -0.2199
  869MOL0     C19831   4.510  10.976   9.062 -0.2753  0.1015  0.6605
  869MOL0     O19832   4.836  11.040   9.099  0.4420 -0.2876 -0.6275
  869MOL0     C19833   4.903  10.702   9.187  0.2614  1.2086 -1.1067
  869MOL0     C19834   4.969  10.618   9.280  0.8965 -0.7596  0.9175
  869MOL0     N19835   5.208  10.116   9.827 -0.2421 -0.2516 -0.6951
  869MOL0     N19836   5.166  10.088   9.943 -0.6422  0.3952  1.3919
  869MOL0     C19837   4.321  10.553  10.606  0.3525 -0.1503 -0.4577
  869MOL0     C19838   4.337  10.672  10.673  1.0081 -0.9944 -0.0746
  869MOL0     C19839   4.571  11.051  10.847  0.1621  0.7399 -0.2612
  869MOL0     C19840   4.671  11.153  10.829  0.0250  0.6162 -0.3502
  869MOL0     C19841   4.672  11.274  10.910 -0.0503 -1.0962  0.4051
  869MOL0     C19842   4.589  11.272  11.020  0.7163  0.2907 -0.2206
  869MOL0     O19843   4.597  11.383  11.101 -0.9321 -0.5507  0.7247
  869MOL0     C19844   4.480  11.434  11.177 -0.0549 -0.3858 -0.1807
  869MOL0     C19845   4.551  11.533  11.278  0.7720  0.4021 -0.3283
  869MOL0     C19846   4.468  11.663  11.300  0.2153 -0.6456 -0.2415
  869MOL0     C19847   4.542  11.782  11.363 -0.2648 -0.8145 -0.2942
  869MOL0     C19848   4.610  11.865  11.270 -0.8304 -0.9374  0.3328
  869MOL0     C19849   4.678  11.919  11.185  0.1188  0.7077 -1.0202
  869MOL0     C19850   4.498  11.169  11.053 -0.1168 -0.9402  0.8376
  869MOL0     C19851   4.492  11.055  10.967 -0.4336  0.2875 -0.2985
  869MOL0     C19852   4.396  10.941  11.002 -0.1900  0.5348  0.0873
  869MOL0     H19853   4.670  10.690  10.705 -0.7831  0.1818 -0.9382
  869MOL0     H19854   4.642  10.482  10.546  1.0543  0.2469 -1.4530
  869MOL0     H19855   4.544  10.371  10.355  0.9172 -0.5113  0.4075
  869MOL0     H19856   4.377  10.319  10.332  0.0928 -0.3551 -1.6208
  869MOL0     H19857   4.596  10.159  10.465  0.9603 -1.0433 -2.9468
  869MOL0     H19858   4.427  10.106  10.445 -1.2401  1.4406  0.6973
  869MOL0     H19859   4.429  10.108  10.219  0.7677 -0.6316 -1.3144
  869MOL0     H19860   4.585  10.194  10.205 -0.1596 -0.0922 -2.0490
  869MOL0     H19861   4.531   9.910  10.315 -1.3292  0.4927  0.0657
  869MOL0     H19862   4.575   9.949  10.143 -2.4367  1.5263 -0.1800
  869MOL0     H19863   4.737   9.958  10.404  2.3813  1.2969 -0.2309
  869MOL0     H19864   4.763  10.089  10.296  0.5078  0.1987 -0.2525
  869MOL0     H19865   4.919   9.886  10.282 -1.6033  0.6608  1.3622
  869MOL0     H19866   4.785   9.801  10.196 -0.8563  0.0502 -2.4166
  869MOL0     H19867   4.777   9.985  10.015 -0.3079 -0.0078 -1.9711
  869MOL0     H19868   4.912   9.876  10.013  1.6172 -0.9349  1.8420
  869MOL0     H19869   4.886  10.158  10.059  0.4161  0.2784 -2.4499
  869MOL0     H19870   5.028  10.077  10.155 -1.4658 -2.5270 -0.1873
  869MOL0     H19871   4.881  10.108   9.785 -0.3185 -0.6842 -0.8026
  869MOL0     H19872   5.072  10.110   9.534  0.5797  0.3207 -0.5326
  869MOL0     H19873   5.200  10.204   9.600  0.5288 -0.9831 -1.6629
  869MOL0     H19874   5.017  10.312   9.480  2.1001 -4.0045 -0.4460
  869MOL0     H19875   4.913  10.289   9.619 -0.1891 -0.3090 -0.8520
  869MOL0     H19876   5.069  10.439   9.762  3.9256  4.4250 -1.0024
  869MOL0     H19877   5.191  10.427   9.645  1.3192  1.7115 -0.8952
  869MOL0     H19878   4.937  10.534   9.531 -0.2410 -0.0510  2.3280
  869MOL0     H19879   5.018  10.630   9.654 -0.5682 -0.1041 -0.4469
  869MOL0     H19880   5.160  10.846   9.432 -0.1740  0.8954  0.8343
  869MOL0     H19881   5.028  11.100   9.202 -0.1545  1.0157  0.9757
  869MOL0     H19882   5.173  11.036   9.289  1.4042 -3.0395  1.8984
  869MOL0     H19883   5.006  11.084   9.368 -1.0764 -0.2670 -1.3142
  869MOL0     H19884   4.705  10.917   8.796  1.9855  2.4417 -0.5514
  869MOL0     H19885   4.511  10.990   8.680 -1.7931 -1.8100  1.5618
  869MOL0     H19886   4.356  11.149   8.601 -2.1998  0.8743 -3.4119
  869MOL0     H19887   4.278  10.985   8.621  0.5554  0.2860  1.3027
  869MOL0     H19888   4.156  11.171   8.489  1.3020  2.0446  0.4509
  869MOL0     H19889   4.062  11.086   8.621 -1.1660  1.3113  4.2234
  869MOL0     H19890   4.090  11.266   8.784 -3.6202 -2.0076 -0.6353
  869MOL0     H19891   3.992  11.282   8.654  0.7708 -1.0675  0.5229
  869MOL0     H19892   4.279  11.379   8.610  0.4963  0.9491  1.2360
  869MOL0     H19893   4.185  11.469   8.736 -1.0153  2.2089 -1.2637
  869MOL0     H19894   4.173  11.605   8.553 -0.2599  1.1087 -1.4443
  869MOL0     H19895   4.168  11.469   8.443 -2.6935  1.1592 -0.8952
  869MOL0     H19896   3.930  11.541   8.636  0.2621  1.9563 -0.4281
  869MOL0     H19897   3.931  11.418   8.503 -1.5054  0.8160  1.0727
  869MOL0     H19898   3.997  11.618   8.363  0.6271  1.8461  0.2770
  869MOL0     H19899   3.936  11.717   8.484  2.4758  1.6516 -2.7441
  869MOL0     H19900   3.712  11.593   8.489  0.3870 -2.1209  1.5513
  869MOL0     H19901   3.771  11.509   8.341 -3.5398  0.1576  0.3838
  869MOL0     H19902   4.323  11.083   9.047 -1.8752 -3.2160 -0.2517
  869MOL0     H19903   4.491  10.950   9.165 -0.5012  0.1050  0.6204
  869MOL0     H19904   4.839  10.653   9.115  2.4868 -2.0685 -1.0955
  869MOL0     H19905   4.966  10.510   9.270 -0.6423 -0.6226 -0.6162
  869MOL0     H19906   4.221  10.514  10.590  0.8202 -0.2215 -4.0174
  869MOL0     H19907   4.250  10.730  10.701  2.7644  2.0113 -0.4294
  869MOL0     H19908   4.740  11.145  10.746 -0.5444 -2.0346 -0.6258
  869MOL0     H19909   4.734  11.356  10.875  1.2867 -1.1818  2.3871
  869MOL0     H19910   4.418  11.498  11.113  1.3278  0.8668 -0.3074
  869MOL0     H19911   4.417  11.367  11.236  1.6162  1.4344  4.0724
  869MOL0     H19912   4.655  11.559  11.253  1.0525 -0.1181  0.2639
  869MOL0     H19913   4.563  11.489  11.377  0.9461  2.0879  0.4348
  869MOL0     H19914   4.436  11.696  11.201  1.2128 -1.7743 -0.9644
  869MOL0     H19915   4.382  11.628  11.358 -0.4030 -0.2679 -0.9125
  869MOL0     H19916   4.613  11.745  11.437  1.9997  1.6970 -1.0438
  869MOL0     H19917   4.474  11.842  11.425  0.7317  3.6662 -3.0632
  869MOL0     H19918   4.732  11.973  11.110  0.8486  2.2949  0.5787
  869MOL0     H19919   4.448  11.183  11.149 -1.2916  0.5688  0.0657
  869MOL0     H19920   4.339  10.956  11.095 -2.5162 -1.9736 -0.7945
  869MOL0     H19921   4.319  10.934  10.924 -3.7605 -1.3350  3.4089
  869MOL0     H19922   4.455  10.849  11.011 -2.6398 -0.9829  2.7435
  870MOL0     O19923   6.184   1.939   6.675 -0.0474  0.1422 -0.2630
  870MOL0     C19924   6.066   1.918   6.652  0.8032 -0.2378  0.5781
  870MOL0     O19925   6.009   1.898   6.526 -0.2939  0.3795 -0.0649
  870MOL0     C19926   6.070   1.968   6.423 -0.1247  0.0387 -0.8258
  870MOL0     C19927   5.989   2.056   6.352 -0.1106 -0.5840 -0.4232
  870MOL0     C19928   6.051   2.138   6.247  0.3602  0.2908 -0.1719
  870MOL0     C19929   6.184   2.132   6.217  0.0532 -0.0284 -0.4790
  870MOL0     O19930   6.217   2.202   6.109  0.0458 -0.2891  0.1831
  870MOL0     C19931   6.358   2.223   6.097  0.0126  0.7856 -0.6427
  870MOL0     C19932   6.386   2.347   6.010  0.3173  0.8419  1.0553
  870MOL0     C19933   6.527   2.351   5.971  0.2258 -0.7257  0.5599
  870MOL0     C19934   6.587   2.478   5.907  0.5983 -0.3294 -0.1934
  870MOL0     C19935   6.503   2.511   5.782 -0.7996 -0.4214 -0.6266
  870MOL0     C19936   6.587   2.588   5.669  0.5412  0.8622 -0.4208
  870MOL0     C19937   6.516   2.614   5.541  0.6192 -0.1892  0.6701
  870MOL0     C19938   6.398   2.717   5.563  0.2355  0.6703  0.1400
  870MOL0     N19939   6.460   2.842   5.615 -0.1300 -0.0175 -0.4958
  870MOL0     C19940   6.506   2.928   5.518 -0.5934  0.6312  0.3800
  870MOL0     C19941   6.572   3.016   5.596  0.5364 -0.1133  0.5803
  870MOL0     C19942   6.670   3.111   5.529  0.0115 -0.5578  0.3196
  870MOL0     C19943   6.801   3.122   5.592  0.0437 -0.2749  0.1607
  870MOL0     C19944   6.892   3.233   5.555  0.0954 -0.4058 -0.6864
  870MOL0     C19945   6.932   3.239   5.407  0.0641 -0.2560 -0.2559
  870MOL0     O19946   6.989   3.112   5.370  0.2075 -0.0675  0.4096
  870MOL0     C19947   7.115   3.084   5.408  0.1297 -0.6079 -0.7322
  870MOL0     C19948   7.150   2.957   5.398 -0.7441 -0.1401 -0.7140
  870MOL0     C19949   7.283   2.919   5.445 -0.3633  0.1228 -0.0057
  870MOL0     C19950   7.321   2.773   5.414  0.5285 -0.5100 -0.0464
  870MOL0     C19951   7.372   3.012   5.526 -0.5019  0.7937 -0.2121
  870MOL0     C19952   7.500   2.972   5.591 -0.1052  0.9629  0.1039
  870MOL0     O19953   7.577   3.078   5.638 -0.6169 -0.0600  0.5858
  870MOL0     C19954   7.711   3.047   5.644 -0.0369 -0.3689  0.1144
  870MOL0     C19955   7.776   2.985   5.537 -0.4055 -0.6692 -0.4466
  870MOL0     C19956   7.922   2.963   5.550  0.6323  0.4103 -0.1459
  870MOL0     C19957   7.991   2.996   5.666 -0.2286 -0.6719  0.0224
  870MOL0     O19958   8.116   2.953   5.681 -0.8693  0.2542  0.0614
  870MOL0     C19959   8.203   2.988   5.794  0.0094  0.2157  0.5345
  870MOL0     C19960   8.348   2.953   5.770 -0.7756  1.0879 -0.0404
  870MOL0     C19961   8.457   3.048   5.848  0.9015  0.4295 -0.3084
  870MOL0     C19962   8.459   3.025   5.993  0.6806  0.0591 -0.0201
  870MOL0     C19963   8.563   3.127   6.061  0.1639  0.9361 -0.2703
  870MOL0     C19964   8.544   3.123   6.216 -0.1785 -0.2358  0.4392
  870MOL0     C19965   8.626   3.229   6.293 -0.5809  0.1835  0.1930
  870MOL0     C19966   8.670   3.166   6.420  0.6451  0.1390  1.5063
  870MOL0    Cl19967   8.527   3.082   6.498 -0.5220  0.2396 -0.3557
  870MOL0     C19968   7.921   3.063   5.764  0.1541 -0.4494 -0.6961
  870MOL0     C19969   7.783   3.092   5.756  0.8936 -0.5142  0.2738
  870MOL0     O19970   7.536   2.852   5.596 -0.3731  0.7329  0.0493
  870MOL0     C19971   7.322   3.140   5.530 -0.4634  1.3539 -0.4704
  870MOL0     C19972   7.201   3.173   5.474  0.1661  0.2728  0.2632
  870MOL0     N19973   6.558   2.982   5.729  0.2466  0.0841  0.3014
  870MOL0     N19974   6.476   2.888   5.744 -0.0348 -0.4216 -0.4375
  870MOL0     C19975   6.259   2.043   6.296  0.1624  0.0730  0.7294
  870MOL0     C19976   6.207   1.960   6.390  0.0272 -1.0671 -0.2913
  870MOL0     C19977   5.995   1.860   6.768  0.6796  0.2764  0.5271
  870MOL0     C19978   6.074   1.802   6.875  0.4675  0.0890  0.0394
  870MOL0     C19979   6.007   1.751   6.988  0.0587 -0.2273 -1.0014
  870MOL0     C19980   5.870   1.751   7.000 -0.8991  0.2361 -0.8305
  870MOL0     O19981   5.795   1.697   7.104  0.1542 -0.4632  1.6646
  870MOL0     C19982   5.851   1.599   7.187 -0.0717  0.1169  0.0862
  870MOL0     C19983   5.739   1.501   7.240  0.1539 -0.3347  0.6702
  870MOL0     C19984   5.617   1.570   7.295  0.7179 -0.1433  0.4344
  870MOL0     C19985   5.519   1.470   7.348  0.5559 -0.3581  0.9473
  870MOL0     C19986   5.419   1.437   7.234 -0.1993  0.7561 -1.2165
  870MOL0     C19987   5.362   1.418   7.133 -0.0935 -0.0202  1.1760
  870MOL0     C19988   5.802   1.803   6.897  0.6357 -0.0062  0.1708
  870MOL0     C19989   5.858   1.863   6.791  1.1420 -0.2299 -0.2680
  870MOL0     C19990   5.757   1.934   6.692 -0.3711 -0.7206 -0.1104
  870MOL0     H19991   5.884   2.059   6.380  0.1195 -0.2273  0.4512
  870MOL0     H19992   5.987   2.207   6.192  0.4258  0.9997  0.6193
  870MOL0     H19993   6.412   2.132   6.070  0.1456 -1.4897  5.6013
  870MOL0     H19994   6.409   2.245   6.192 -0.2456  1.2956 -0.6170
  870MOL0     H19995   6.335   2.323   5.916  2.6727 -0.5252  0.0305
  870MOL0     H19996   6.348   2.443   6.047  0.5209  2.3043 -2.1425
  870MOL0     H19997   6.586   2.344   6.062  0.4820 -0.2467  0.4364
  870MOL0     H19998   6.551   2.266   5.906  0.1389 -1.7361  1.8231
  870MOL0     H19999   6.582   2.559   5.981 -1.4847  0.4817 -1.1403
  870MOL0     H20000   6.692   2.471   5.876  0.7952 -2.0801  0.7610
  870MOL0     H20001   6.424   2.579   5.818  1.7716  1.5904  1.6861
  870MOL0     H20002   6.476   2.418   5.731 -1.7807 -1.7105  2.0811
  870MOL0     H20003   6.613   2.683   5.717 -1.6668  0.0534  2.6966
  870MOL0     H20004   6.681   2.539   5.643  1.2551  1.5173  0.8275
  870MOL0     H20005   6.475   2.519   5.507 -1.4727 -0.6548  4.0068
  870MOL0     H20006   6.581   2.653   5.462 -3.7403  1.2449 -2.6859
  870MOL0     H20007   6.343   2.736   5.471 -0.5215  1.3551  0.7259
  870MOL0     H20008   6.330   2.675   5.637  0.5762 -0.5866 -0.2274
  870MOL0     H20009   6.517   2.905   5.413  1.7926 -2.3200  1.1451
  870MOL0     H20010   6.617   3.206   5.529  0.2680 -0.3783 -1.1900
  870MOL0     H20011   6.677   3.091   5.421 -4.2845  2.0598 -0.7072
  870MOL0     H20012   6.774   3.149   5.694  0.3785  2.1735 -0.3360
  870MOL0     H20013   6.856   3.028   5.582  0.1367 -0.2471  0.4146
  870MOL0     H20014   6.847   3.326   5.590  1.1635 -0.5847  1.2975
  870MOL0     H20015   6.978   3.215   5.620  0.4869  0.2197 -1.0313
  870MOL0     H20016   6.845   3.260   5.344 -0.3459 -0.3043  0.2921
  870MOL0     H20017   6.998   3.323   5.385 -2.0061  0.9749 -2.2282
  870MOL0     H20018   7.077   2.898   5.342 -1.1009 -0.0846 -0.3095
  870MOL0     H20019   7.421   2.781   5.370  0.7571 -0.3440  0.5005
  870MOL0     H20020   7.247   2.728   5.347  0.7403 -0.3112 -0.4173
  870MOL0     H20021   7.317   2.714   5.506 -4.1293  0.2538  0.4794
  870MOL0     H20022   7.734   2.949   5.444 -1.5641 -0.8018  0.1182
  870MOL0     H20023   7.967   2.913   5.466  2.4014 -0.2487  1.1193
  870MOL0     H20024   8.204   3.096   5.805  1.7969  0.1176  1.7913
  870MOL0     H20025   8.156   2.938   5.880  0.2699  1.7599  1.6234
  870MOL0     H20026   8.367   2.847   5.790 -0.4041  1.7128  3.5677
  870MOL0     H20027   8.367   2.966   5.663 -0.5592 -4.6986 -1.0740
  870MOL0     H20028   8.450   3.152   5.817 -0.4927  1.0588  1.9244
  870MOL0     H20029   8.557   3.019   5.813  1.1005  0.6980  0.0302
  870MOL0     H20030   8.462   2.919   6.019 -1.0586 -0.4729 -1.7556
  870MOL0     H20031   8.361   3.058   6.029 -1.0291 -1.7400 -2.6608
  870MOL0     H20032   8.659   3.083   6.032 -0.3133  0.8965 -1.8924
  870MOL0     H20033   8.565   3.230   6.025 -0.3879  2.2711  3.0709
  870MOL0     H20034   8.563   3.020   6.245 -3.7887 -1.1303  0.1591
  870MOL0     H20035   8.439   3.147   6.239 -0.4784 -1.6010  0.5886
  870MOL0     H20036   8.582   3.325   6.321  1.6132  1.2412  0.2861
  870MOL0     H20037   8.712   3.244   6.227 -2.8412  1.4073 -2.6525
  870MOL0     H20038   8.704   3.241   6.492  1.4787 -0.9041  2.2405
  870MOL0     H20039   8.743   3.087   6.398  1.5081  1.4302 -0.4750
  870MOL0     H20040   7.963   3.093   5.860  1.9548 -1.8262 -1.0062
  870MOL0     H20041   7.732   3.135   5.842 -0.2171 -0.6763 -0.2834
  870MOL0     H20042   7.374   3.210   5.595  1.2996 -0.5427  0.2679
  870MOL0     H20043   7.176   3.279   5.475  0.5016  0.5746 -3.9751
  870MOL0     H20044   6.363   2.021   6.273 -1.3000 -5.5842 -2.5248
  870MOL0     H20045   6.267   1.894   6.451 -0.2252 -2.0548 -1.0807
  870MOL0     H20046   6.180   1.784   6.860  0.1866  0.0329 -2.2262
  870MOL0     H20047   6.067   1.713   7.071  1.2895 -1.0953 -2.2432
  870MOL0     H20048   5.916   1.533   7.129  1.6456  1.1068  0.8207
  870MOL0     H20049   5.904   1.651   7.267 -3.0322  2.5809  0.6266
  870MOL0     H20050   5.796   1.456   7.322 -1.1881 -1.1877  1.1759
  870MOL0     H20051   5.727   1.422   7.164 -1.8246 -0.1410  0.7359
  870MOL0     H20052   5.642   1.634   7.380  0.8416  0.9961 -0.4374
  870MOL0     H20053   5.573   1.645   7.230 -2.7517 -1.0815  1.4745
  870MOL0     H20054   5.462   1.496   7.438  0.6770  0.7990  0.7017
  870MOL0     H20055   5.567   1.376   7.380  1.0650 -0.6765 -0.6976
  870MOL0     H20056   5.330   1.392   7.034 -0.3615 -0.5878  1.4066
  870MOL0     H20057   5.697   1.788   6.917  0.4876  0.9246  0.0984
  870MOL0     H20058   5.662   1.967   6.734 -0.4572  1.3493 -1.7771
  870MOL0     H20059   5.804   2.024   6.651  0.2942  0.7055  3.3685
  870MOL0     H20060   5.751   1.865   6.607  0.6165 -1.9216  0.7583
  871MOL0     O20061   3.003   7.912   6.475  0.1832  0.6558  0.8022
  871MOL0     C20062   3.111   7.882   6.427  0.4401  1.4863 -0.4344
  871MOL0     O20063   3.181   7.964   6.345 -0.9922  0.0074 -0.0985
  871MOL0     C20064   3.169   8.096   6.322  0.4816  0.0433  0.6818
  871MOL0     C20065   3.121   8.194   6.419 -0.8962  0.1751  0.2956
  871MOL0     C20066   3.160   8.321   6.402  0.6094  0.1419  0.7154
  871MOL0     C20067   3.234   8.366   6.286 -0.4930  0.5587 -0.5359
  871MOL0     O20068   3.259   8.498   6.270 -0.1975 -0.3902 -0.2647
  871MOL0     C20069   3.395   8.524   6.223 -0.2894  0.6294 -0.0455
  871MOL0     C20070   3.499   8.507   6.342  0.3384 -0.2103  0.6649
  871MOL0     C20071   3.645   8.508   6.304 -0.0711 -0.0437 -0.4277
  871MOL0     C20072   3.685   8.373   6.236  0.1881 -0.3097 -0.1303
  871MOL0     C20073   3.835   8.336   6.206  0.8184 -0.5574  1.0132
  871MOL0     C20074   3.928   8.316   6.323  0.1800 -0.0694  0.6872
  871MOL0     C20075   3.868   8.248   6.442 -0.7977 -0.0251 -0.2239
  871MOL0     C20076   3.848   8.108   6.416  0.5121 -0.1938  0.1673
  871MOL0     N20077   3.779   8.032   6.524 -0.8501 -0.0435  0.3295
  871MOL0     C20078   3.778   8.053   6.663 -1.2000 -0.5532 -0.1274
  871MOL0     C20079   3.693   7.961   6.718  0.3160  0.4857 -0.1896
  871MOL0     C20080   3.654   7.953   6.867 -0.4061 -0.0243  0.5088
  871MOL0     C20081   3.757   7.917   6.973 -0.0672 -0.5371 -0.7143
  871MOL0     C20082   3.698   7.948   7.118 -0.5811  0.5295  0.8644
  871MOL0     C20083   3.786   7.876   7.213 -0.0149  0.7404  0.3763
  871MOL0     O20084   3.729   7.891   7.348  0.1441  0.1422 -0.1226
  871MOL0     C20085   3.758   7.812   7.457  0.4518 -0.4898  0.2225
  871MOL0     C20086   3.663   7.784   7.550 -0.3290 -0.7942  0.7291
  871MOL0     C20087   3.690   7.713   7.673 -0.8411 -1.6799 -1.3649
  871MOL0     C20088   3.580   7.706   7.772  0.2285  0.6813 -0.7813
  871MOL0     C20089   3.819   7.650   7.686  0.2519 -0.5598  0.6098
  871MOL0     C20090   3.862   7.570   7.806  0.0256 -0.4037 -0.3941
  871MOL0     O20091   3.964   7.477   7.790 -0.1056  0.1591  0.3606
  871MOL0     C20092   3.969   7.379   7.889  0.4232 -0.2491  0.2780
  871MOL0     C20093   3.860   7.308   7.914  0.4634 -0.4456  0.2793
  871MOL0     C20094   3.871   7.212   8.008 -0.0004  0.8203 -0.1036
  871MOL0     C20095   3.995   7.171   8.068  0.5924  0.1598  0.2286
  871MOL0     O20096   4.010   7.064   8.153  0.2670 -0.6596 -0.4411
  871MOL0     C20097   3.910   6.963   8.162 -0.4839 -0.2154  0.5828
  871MOL0     C20098   3.816   6.990   8.274  0.1649  0.1443  0.0368
  871MOL0     C20099   3.882   6.999   8.410  0.0725 -0.5729  0.9929
  871MOL0     C20100   3.871   6.868   8.484  0.1490  1.0639 -0.3654
  871MOL0     C20101   3.892   6.861   8.637  0.4682 -0.9517  0.1775
  871MOL0     C20102   4.046   6.849   8.666  0.8515  0.2601 -0.0175
  871MOL0     C20103   4.075   6.872   8.812  0.6721  0.3002 -0.2964
  871MOL0     C20104   4.214   6.855   8.849 -0.2843 -0.3085 -1.5789
  871MOL0    Cl20105   4.264   6.676   8.833  0.2927 -0.3850  0.2202
  871MOL0     C20106   4.106   7.243   8.036 -0.5159 -0.2230 -0.8675
  871MOL0     C20107   4.089   7.353   7.950 -0.4202  0.2782 -0.1378
  871MOL0     O20108   3.805   7.606   7.908 -0.6659 -0.2814  0.2153
  871MOL0     C20109   3.912   7.680   7.580 -0.0871  0.0180  0.3351
  871MOL0     C20110   3.882   7.760   7.470 -0.1317  0.5321  0.0666
  871MOL0     N20111   3.636   7.895   6.611  0.7399 -0.1744 -0.7360
  871MOL0     N20112   3.692   7.929   6.499 -0.0561  1.4676 -0.7898
  871MOL0     C20113   3.266   8.272   6.186  0.3643  0.5369 -0.2789
  871MOL0     C20114   3.240   8.135   6.208 -0.0247 -0.9301 -0.9009
  871MOL0     C20115   3.173   7.758   6.474 -0.3493  0.0200 -0.1830
  871MOL0     C20116   3.320   7.752   6.481 -0.1202  0.2798  0.8647
  871MOL0     C20117   3.395   7.637   6.522 -0.1929  0.2817  0.1377
  871MOL0     C20118   3.323   7.522   6.567 -0.2540  0.4811 -0.0307
  871MOL0     O20119   3.375   7.412   6.632  0.0806  0.4710 -0.1310
  871MOL0     C20120   3.514   7.385   6.639  0.4445  0.5108  0.7664
  871MOL0     C20121   3.560   7.271   6.723 -0.2825  0.6838  0.0465
  871MOL0     C20122   3.561   7.131   6.660 -0.6920 -0.9209 -0.3158
  871MOL0     C20123   3.420   7.087   6.595 -0.2807  0.7491 -0.6098
  871MOL0     C20124   3.422   6.948   6.550  0.2037  0.0319 -0.1288
  871MOL0     C20125   3.418   6.826   6.552 -0.7167 -0.3413  0.6693
  871MOL0     C20126   3.182   7.529   6.563  0.4016  0.2202  0.4003
  871MOL0     C20127   3.110   7.642   6.517  0.3327  0.0223 -0.6702
  871MOL0     C20128   2.962   7.627   6.531 -0.1822  0.3330  0.1295
  871MOL0     H20129   3.058   8.178   6.505 -0.4623  1.7593  0.9429
  871MOL0     H20130   3.139   8.393   6.480 -1.7236 -0.2310  0.5119
  871MOL0     H20131   3.398   8.630   6.198  5.9992  0.5076 -1.4271
  871MOL0     H20132   3.429   8.477   6.130 -1.4779  2.2440 -1.3758
  871MOL0     H20133   3.493   8.587   6.417  3.3899  0.3303  0.4706
  871MOL0     H20134   3.478   8.418   6.402 -0.9944  0.8708  1.8863
  871MOL0     H20135   3.659   8.581   6.223  0.4208 -1.3417 -1.5609
  871MOL0     H20136   3.703   8.518   6.396 -0.8022 -0.9406  0.1393
  871MOL0     H20137   3.638   8.286   6.282 -3.4768  0.5678 -1.8398
  871MOL0     H20138   3.632   8.365   6.140 -0.6819 -1.5214  0.4216
  871MOL0     H20139   3.880   8.408   6.137  2.6860 -2.1957  0.4088
  871MOL0     H20140   3.818   8.244   6.149 -0.1068  1.1167 -1.6248
  871MOL0     H20141   4.007   8.254   6.279 -1.3002 -0.2633 -1.9176
  871MOL0     H20142   3.979   8.410   6.346 -1.1414  2.0422 -3.7922
  871MOL0     H20143   3.774   8.302   6.461  0.1287  0.4715  3.9206
  871MOL0     H20144   3.931   8.251   6.532  0.9312 -1.8793 -1.2913
  871MOL0     H20145   3.778   8.088   6.335  2.4421  0.8803 -1.8981
  871MOL0     H20146   3.945   8.059   6.405  0.5519  0.2540 -2.0496
  871MOL0     H20147   3.835   8.126   6.719  1.5973 -2.4159 -0.3702
  871MOL0     H20148   3.564   7.892   6.883 -0.3227 -1.0842 -2.5826
  871MOL0     H20149   3.634   8.058   6.888 -0.0693  0.6237 -2.1545
  871MOL0     H20150   3.772   7.810   6.955 -0.7097 -0.6073 -0.8442
  871MOL0     H20151   3.844   7.978   6.945  0.1389  1.4271  3.4919
  871MOL0     H20152   3.694   8.053   7.147 -1.0719  0.0948  2.4773
  871MOL0     H20153   3.598   7.904   7.118 -0.3313 -0.0606  1.8380
  871MOL0     H20154   3.791   7.768   7.194  0.8196  0.5621  1.4954
  871MOL0     H20155   3.886   7.918   7.206 -1.0911  3.3959 -0.2722
  871MOL0     H20156   3.571   7.840   7.541  0.0676 -0.1315  0.7124
  871MOL0     H20157   3.491   7.736   7.715  1.7043  1.8182 -2.6308
  871MOL0     H20158   3.590   7.772   7.859 -1.6097 -2.9740  2.5176
  871MOL0     H20159   3.564   7.605   7.810 -1.0814  0.4175 -1.9549
  871MOL0     H20160   3.769   7.331   7.861 -0.4151 -1.4483  1.3020
  871MOL0     H20161   3.774   7.173   8.038  0.2920 -0.6853 -0.9846
  871MOL0     H20162   3.870   6.952   8.061  1.6480 -3.1349 -0.0566
  871MOL0     H20163   3.956   6.865   8.180 -3.5393 -1.5237  1.9044
  871MOL0     H20164   3.767   7.083   8.246  2.3919  0.9869 -1.3535
  871MOL0     H20165   3.740   6.912   8.275  1.3167 -1.0624 -1.4301
  871MOL0     H20166   3.822   7.065   8.473  0.0191  1.9134 -1.5123
  871MOL0     H20167   3.984   7.035   8.395 -0.8047  1.1840 -1.1942
  871MOL0     H20168   3.923   6.784   8.436 -0.6613 -0.1877  0.8791
  871MOL0     H20169   3.769   6.835   8.466  0.9650 -0.3171 -2.9120
  871MOL0     H20170   3.836   6.943   8.683 -1.7570 -3.5209  2.3724
  871MOL0     H20171   3.834   6.775   8.671 -2.2894 -1.3351 -4.7115
  871MOL0     H20172   4.099   6.931   8.617 -1.0324  1.7533  0.2825
  871MOL0     H20173   4.068   6.747   8.636 -2.5294  0.2543 -3.0678
  871MOL0     H20174   4.020   6.802   8.875  2.1456 -0.6946 -0.0779
  871MOL0     H20175   4.048   6.972   8.847 -2.1524 -0.7659  0.9244
  871MOL0     H20176   4.232   6.889   8.952 -2.6264  0.1385 -1.2542
  871MOL0     H20177   4.286   6.917   8.794  0.9129  1.2599  1.5025
  871MOL0     H20178   4.200   7.217   8.084  0.1519 -2.9285 -3.3777
  871MOL0     H20179   4.174   7.412   7.919  1.2497 -0.8783  1.9789
  871MOL0     H20180   3.999   7.616   7.575 -0.8278 -1.0188  0.4234
  871MOL0     H20181   3.948   7.767   7.384  1.8245  0.9216  1.5169
  871MOL0     H20182   3.327   8.287   6.098 -2.2213 -1.7774 -2.6764
  871MOL0     H20183   3.297   8.058   6.157 -0.2965 -2.3559  0.8319
  871MOL0     H20184   3.376   7.844   6.465  0.5987 -0.2329  0.3872
  871MOL0     H20185   3.503   7.643   6.529 -0.3253  1.4523  2.0860
  871MOL0     H20186   3.553   7.367   6.538  1.1106 -1.1364  1.2803
  871MOL0     H20187   3.556   7.480   6.673  0.5894  1.2805 -1.4100
  871MOL0     H20188   3.500   7.270   6.815 -2.7948  1.4190 -1.5050
  871MOL0     H20189   3.665   7.285   6.750  0.0912 -1.1118 -0.3960
  871MOL0     H20190   3.644   7.137   6.590 -0.2119  4.4317  0.2952
  871MOL0     H20191   3.587   7.059   6.738  1.0141  1.9337  1.9907
  871MOL0     H20192   3.385   7.165   6.528 -1.3001  0.2738 -0.6419
  871MOL0     H20193   3.341   7.085   6.670 -1.5841 -0.1168 -1.9441
  871MOL0     H20194   3.417   6.722   6.578  0.4219 -0.6108 -0.2912
  871MOL0     H20195   3.141   7.435   6.601  3.8443 -0.7278  2.1624
  871MOL0     H20196   2.941   7.523   6.557 -2.9095  0.2914 -1.7756
  871MOL0     H20197   2.912   7.687   6.607  1.5664 -1.0542  2.4918
  871MOL0     H20198   2.917   7.649   6.433 -0.1910  0.9107  0.2585
  872MOL0     O20199   1.644   4.664   5.851 -0.6057 -0.0639 -0.0600
  872MOL0     C20200   1.649   4.575   5.778  0.0099  0.0503  0.2782
  872MOL0     O20201   1.635   4.585   5.645  0.0380 -0.8045 -0.0535
  872MOL0     C20202   1.589   4.697   5.578 -0.2494 -0.2938 -0.1032
  872MOL0     C20203   1.578   4.669   5.441  0.6946 -0.1848  0.9215
  872MOL0     C20204   1.542   4.767   5.343 -0.6048 -0.0195 -0.4282
  872MOL0     C20205   1.514   4.895   5.386  0.5425 -0.8064  0.0174
  872MOL0     O20206   1.454   4.983   5.306 -0.2296 -0.1398  1.1611
  872MOL0     C20207   1.425   5.119   5.345 -0.1606  0.1542 -0.5405
  872MOL0     C20208   1.284   5.122   5.415  0.5945  0.4201  0.2199
  872MOL0     C20209   1.205   5.254   5.374  0.7476  0.8610  0.3202
  872MOL0     C20210   1.063   5.281   5.423  0.1103 -0.1437  0.3241
  872MOL0     C20211   0.956   5.222   5.338 -0.3585  0.0405  0.7555
  872MOL0     C20212   0.930   5.310   5.210 -0.0407  0.9938 -0.1922
  872MOL0     C20213   0.866   5.444   5.235  0.7098  0.2725 -0.1592
  872MOL0     C20214   0.722   5.433   5.283  0.1633 -0.3526 -0.2160
  872MOL0     N20215   0.635   5.341   5.205 -0.9155  0.3302 -1.2244
  872MOL0     C20216   0.594   5.210   5.225  0.1270 -0.6691 -0.2523
  872MOL0     C20217   0.539   5.173   5.112 -0.3688 -1.1515  0.8947
  872MOL0     C20218   0.475   5.042   5.083 -0.3069  1.0031  0.9751
  872MOL0     C20219   0.316   5.040   5.050 -0.0574 -0.3501 -0.4732
  872MOL0     C20220   0.224   5.040   5.167  0.1991  0.4594 -0.3479
  872MOL0     C20221   0.219   4.893   5.230 -0.6296 -0.8987  0.2082
  872MOL0     O20222   0.151   4.896   5.351 -0.1166 -0.7032  0.4089
  872MOL0     C20223   0.215   4.854   5.471 -0.2834 -1.3286  0.7218
  872MOL0     C20224   0.353   4.861   5.495  0.1983 -0.4615 -0.5038
  872MOL0     C20225   0.419   4.824   5.619  1.0375 -0.1072 -0.2024
  872MOL0     C20226   0.565   4.837   5.625 -1.3070  0.3599 -0.3096
  872MOL0     C20227   0.338   4.775   5.730  0.1558 -0.3256  0.1597
  872MOL0     C20228   0.398   4.736   5.865  0.2238  0.1345  0.2947
  872MOL0     O20229   0.312   4.743   5.970 -0.1909 -0.1908  0.3547
  872MOL0     C20230   0.344   4.708   6.101  0.8327  0.2326 -0.7605
  872MOL0     C20231   0.456   4.634   6.152  0.4133 -0.6049  0.2647
  872MOL0     C20232   0.469   4.602   6.292 -0.9749  0.5841 -0.2448
  872MOL0     C20233   0.377   4.658   6.377 -1.6075  0.0993  0.8885
  872MOL0     O20234   0.377   4.629   6.510  0.1579 -0.8646  0.1967
  872MOL0     C20235   0.404   4.730   6.610 -0.0490 -0.0196 -0.3888
  872MOL0     C20236   0.549   4.756   6.602 -0.4536 -0.9987  0.4143
  872MOL0     C20237   0.600   4.853   6.714 -1.0692  0.8021  0.3594
  872MOL0     C20238   0.754   4.838   6.714 -0.0301  0.1155 -0.0975
  872MOL0     C20239   0.805   4.933   6.836  0.1651  0.0846 -0.3368
  872MOL0     C20240   0.945   4.888   6.885 -0.0175 -0.0233  0.0676
  872MOL0     C20241   1.000   4.956   7.010  0.0365 -1.1673 -0.0764
  872MOL0     C20242   1.051   5.102   6.979  0.1464 -0.1880  0.8867
  872MOL0    Cl20243   0.939   5.238   6.985 -0.3176  0.1814  0.2130
  872MOL0     C20244   0.262   4.730   6.327  0.2027 -0.4767 -0.2690
  872MOL0     C20245   0.243   4.753   6.188  0.1718  0.4392 -0.2140
  872MOL0     O20246   0.516   4.697   5.872  0.1651  0.0474 -0.4672
  872MOL0     C20247   0.200   4.765   5.707 -0.4919 -0.3982  0.6335
  872MOL0     C20248   0.143   4.811   5.584  0.7264 -0.4025 -0.2254
  872MOL0     N20249   0.557   5.271   5.012  0.8841  0.5764  0.2425
  872MOL0     N20250   0.614   5.364   5.072  0.4265 -0.1335 -0.2512
  872MOL0     C20251   1.531   4.921   5.522 -0.1640 -0.4806  0.5048
  872MOL0     C20252   1.569   4.832   5.620  0.2075  1.1349  0.3279
  872MOL0     C20253   1.666   4.441   5.830 -0.2474  0.2377  1.1081
  872MOL0     C20254   1.697   4.343   5.737 -0.2217  0.3367 -0.7734
  872MOL0     C20255   1.721   4.208   5.777 -0.5379  0.3459 -0.9487
  872MOL0     C20256   1.724   4.177   5.916 -0.3032  0.1995  0.4813
  872MOL0     O20257   1.741   4.047   5.963  0.1543 -0.6443 -0.0502
  872MOL0     C20258   1.861   3.979   5.924  0.0304  0.0543 -0.2213
  872MOL0     C20259   1.989   4.037   5.961 -0.1050 -0.5274 -0.8973
  872MOL0     C20260   2.091   3.926   5.996  0.4000  0.3133  0.0027
  872MOL0     C20261   2.222   3.971   6.051  0.0825 -0.4357 -0.8041
  872MOL0     C20262   2.327   3.968   5.954 -0.5360 -1.5820 -0.3645
  872MOL0     C20263   2.428   3.989   5.889 -0.3615  0.3296  1.0442
  872MOL0     C20264   1.696   4.277   6.007  0.1319 -0.2021  0.0715
  872MOL0     C20265   1.672   4.406   5.970  0.1718 -0.3531  0.1812
  872MOL0     C20266   1.644   4.505   6.084 -0.3212 -0.4306  0.5064
  872MOL0     H20267   1.617   4.572   5.410 -1.7419 -1.1337  0.5440
  872MOL0     H20268   1.548   4.751   5.236  0.8535 -1.5584 -0.1665
  872MOL0     H20269   1.432   5.184   5.257  6.4178 -0.6207 -1.0264
  872MOL0     H20270   1.497   5.149   5.422  0.8968 -5.4710  1.0747
  872MOL0     H20271   1.236   5.030   5.380 -5.1131  3.2481 -0.5766
  872MOL0     H20272   1.301   5.124   5.524  4.3646  3.6240 -0.1897
  872MOL0     H20273   1.272   5.337   5.399  0.3322  0.6964  2.1138
  872MOL0     H20274   1.199   5.242   5.265  2.8113 -1.9226  0.3959
  872MOL0     H20275   1.055   5.238   5.523 -0.4344  1.2494  0.8980
  872MOL0     H20276   1.060   5.390   5.429 -1.8264 -0.0947 -0.7372
  872MOL0     H20277   0.863   5.222   5.396 -1.2446  1.8910 -0.5364
  872MOL0     H20278   0.969   5.116   5.316 -1.4956  0.4217 -2.2590
  872MOL0     H20279   1.022   5.330   5.156  0.0308  2.4436  0.3965
  872MOL0     H20280   0.860   5.261   5.141 -1.8986  0.9384  1.6236
  872MOL0     H20281   0.878   5.493   5.138  4.3298 -1.7305 -0.8653
  872MOL0     H20282   0.919   5.507   5.307  0.0512  2.4137 -1.4391
  872MOL0     H20283   0.715   5.405   5.388 -0.8906 -1.4861 -0.5757
  872MOL0     H20284   0.688   5.537   5.271 -1.4028 -0.8196 -0.0221
  872MOL0     H20285   0.606   5.158   5.320  1.9315 -1.8522 -1.0678
  872MOL0     H20286   0.486   4.974   5.168  1.0670  1.6933  1.3773
  872MOL0     H20287   0.543   5.000   5.009  1.9721  3.2727  1.6114
  872MOL0     H20288   0.290   5.130   4.992  1.9082 -0.0277 -0.9414
  872MOL0     H20289   0.296   4.945   4.999  1.8348 -1.5042  0.8199
  872MOL0     H20290   0.259   5.115   5.239  4.2141 -1.1644 -0.3677
  872MOL0     H20291   0.128   5.071   5.124  0.0512 -0.8641 -1.0149
  872MOL0     H20292   0.167   4.825   5.162 -3.1257 -0.2521  1.3713
  872MOL0     H20293   0.324   4.866   5.248 -0.7613 -0.7477  1.2137
  872MOL0     H20294   0.416   4.902   5.417  2.6241 -2.2743  0.3748
  872MOL0     H20295   0.608   4.896   5.544  2.5246  0.8894  1.8014
  872MOL0     H20296   0.613   4.738   5.625 -1.2693  0.3518 -2.3873
  872MOL0     H20297   0.576   4.884   5.724 -1.8411 -3.6814  1.9167
  872MOL0     H20298   0.536   4.606   6.084  1.4408 -0.5811  1.4124
  872MOL0     H20299   0.552   4.552   6.341 -2.6417  0.1785  2.3289
  872MOL0     H20300   0.338   4.816   6.600  1.3228  1.2540  1.1322
  872MOL0     H20301   0.394   4.690   6.711 -0.2209  1.0789  0.0359
  872MOL0     H20302   0.598   4.660   6.618 -0.9756 -1.2127  0.7507
  872MOL0     H20303   0.586   4.782   6.503 -3.0332  1.4291 -0.0508
  872MOL0     H20304   0.564   4.811   6.809  0.0508 -6.4168 -1.7769
  872MOL0     H20305   0.566   4.954   6.692 -0.4615  1.2387  1.3574
  872MOL0     H20306   0.795   4.878   6.621  2.0463 -0.4040  0.5519
  872MOL0     H20307   0.783   4.734   6.732  1.0039  0.4202  0.0755
  872MOL0     H20308   0.803   5.031   6.788 -2.8055 -1.4618 -3.8852
  872MOL0     H20309   0.721   4.931   6.906 -0.0375 -0.6064 -0.5864
  872MOL0     H20310   1.020   4.896   6.806  0.8699  0.0272  0.8896
  872MOL0     H20311   0.942   4.785   6.922  0.5917  0.0606  0.3563
  872MOL0     H20312   1.081   4.897   7.054  0.4751 -1.1274 -0.8040
  872MOL0     H20313   0.918   4.976   7.079 -0.3497  1.4924 -1.1804
  872MOL0     H20314   1.097   5.112   6.880  1.9477 -3.6432  1.2128
  872MOL0     H20315   1.122   5.126   7.059  0.5154  3.7081 -0.3862
  872MOL0     H20316   0.191   4.771   6.398  1.6602  0.9250  0.4317
  872MOL0     H20317   0.157   4.798   6.139 -1.4124 -4.1805 -2.1727
  872MOL0     H20318   0.131   4.736   5.786 -0.1111  1.5256  1.7371
  872MOL0     H20319   0.035   4.811   5.576  0.4658  3.6599  1.1578
  872MOL0     H20320   1.505   5.018   5.564 -1.1448 -0.8696  0.8369
  872MOL0     H20321   1.556   4.857   5.724  1.6859  2.1630  0.2993
  872MOL0     H20322   1.694   4.360   5.630  0.1869 -2.4070 -1.2905
  872MOL0     H20323   1.739   4.127   5.707  0.6913 -0.0152 -0.2356
  872MOL0     H20324   1.854   3.878   5.968 -1.6563  0.6467  0.9584
  872MOL0     H20325   1.870   3.970   5.816 -0.6544 -0.8444 -0.2125
  872MOL0     H20326   1.981   4.105   6.046 -0.8649  2.3704 -3.1435
  872MOL0     H20327   2.031   4.103   5.885 -1.4251  0.0932 -1.1020
  872MOL0     H20328   2.045   3.870   6.078  1.0900  1.1240  0.9628
  872MOL0     H20329   2.117   3.861   5.912  0.7513  0.8331 -0.2991
  872MOL0     H20330   2.256   3.915   6.138 -1.9026  2.7690  2.2673
  872MOL0     H20331   2.206   4.074   6.083 -3.3032 -0.3840 -2.3047
  872MOL0     H20332   2.524   4.020   5.851 -0.3685  0.6843  1.3072
  872MOL0     H20333   1.706   4.250   6.112  7.6431 -3.6648 -0.8678
  872MOL0     H20334   1.738   4.538   6.127  0.7071 -2.7263  0.1782
  872MOL0     H20335   1.596   4.600   6.058 -0.5783 -0.7194 -0.0807
  872MOL0     H20336   1.581   4.458   6.160  0.7188 -1.2039  0.9116
  873MOL0     O20337   7.854   5.789   5.456 -0.6606 -0.7852  0.0390
  873MOL0     C20338   7.738   5.782   5.436  0.7756  0.3338 -0.5714
  873MOL0     O20339   7.661   5.669   5.459  0.5626  0.3863 -0.7636
  873MOL0     C20340   7.708   5.559   5.529  0.0593 -0.0483 -0.1683
  873MOL0     C20341   7.622   5.500   5.620 -0.2619  0.2487 -0.1011
  873MOL0     C20342   7.675   5.403   5.707  0.3130  0.1971  0.0891
  873MOL0     C20343   7.809   5.351   5.698 -0.0398 -0.5867  0.0677
  873MOL0     O20344   7.868   5.264   5.789  0.1539  0.3714  0.3869
  873MOL0     C20345   7.774   5.186   5.871 -0.9069  0.0272  0.2463
  873MOL0     C20346   7.864   5.088   5.951  1.1724 -0.4784  0.2779
  873MOL0     C20347   7.942   4.996   5.862 -0.3696 -0.8909  0.4584
  873MOL0     C20348   7.863   4.898   5.763  0.1646 -0.2447 -0.0473
  873MOL0     C20349   7.955   4.793   5.698 -0.4319 -0.0279  0.8512
  873MOL0     C20350   7.869   4.698   5.614 -0.2988 -0.5653 -0.1675
  873MOL0     C20351   7.960   4.603   5.537 -0.2027 -0.3793  0.9853
  873MOL0     C20352   7.904   4.516   5.417  0.1884 -0.5745 -0.4874
  873MOL0     N20353   7.798   4.429   5.456  0.2034 -0.0146 -0.8548
  873MOL0     C20354   7.811   4.307   5.523  0.3772 -0.4428 -0.7122
  873MOL0     C20355   7.686   4.281   5.561  0.5578  0.1704  0.2241
  873MOL0     C20356   7.651   4.150   5.627 -0.0336  0.8597  0.0081
  873MOL0     C20357   7.618   4.181   5.771  0.2657 -0.0468 -0.6648
  873MOL0     C20358   7.526   4.076   5.822 -0.0006 -0.2188 -0.6940
  873MOL0     C20359   7.505   4.105   5.971 -0.0039  0.5557 -0.5377
  873MOL0     O20360   7.637   4.079   6.029 -0.0469  0.0278 -0.1406
  873MOL0     C20361   7.640   4.097   6.164  0.3321  0.8191  0.4722
  873MOL0     C20362   7.687   4.213   6.214 -0.1717 -1.0158 -0.1055
  873MOL0     C20363   7.699   4.237   6.348  0.2091 -0.7104 -0.1527
  873MOL0     C20364   7.756   4.368   6.398  0.1283  0.5349  0.3197
  873MOL0     C20365   7.657   4.140   6.443  0.4509 -0.7995  0.2098
  873MOL0     C20366   7.678   4.163   6.586 -0.2049 -0.5259  0.5622
  873MOL0     O20367   7.570   4.148   6.667 -0.5719  0.2277 -0.7307
  873MOL0     C20368   7.563   4.198   6.794 -0.2957  0.4503 -0.3273
  873MOL0     C20369   7.646   4.297   6.854 -0.0629  0.2995 -0.0404
  873MOL0     C20370   7.604   4.363   6.970 -0.3883 -0.0368  0.5177
  873MOL0     C20371   7.489   4.326   7.041 -0.6919 -0.2293  0.2639
  873MOL0     O20372   7.459   4.379   7.157 -0.0159 -0.6401  1.1228
  873MOL0     C20373   7.477   4.525   7.169 -0.9668 -0.1016  1.0439
  873MOL0     C20374   7.377   4.577   7.265  0.1094 -0.1813 -0.7707
  873MOL0     C20375   7.236   4.571   7.199 -0.5942 -0.1736 -0.3231
  873MOL0     C20376   7.207   4.706   7.117 -0.0766  0.3013 -0.4954
  873MOL0     C20377   7.094   4.692   7.017 -0.3658 -1.3794 -0.5009
  873MOL0     C20378   6.961   4.677   7.081 -0.1739  0.3548  0.2797
  873MOL0     C20379   6.853   4.643   6.985 -0.0536  0.5977 -0.0024
  873MOL0     C20380   6.717   4.611   7.058  0.2052  0.2003  0.3848
  873MOL0    Cl20381   6.641   4.759   7.089  0.0397  0.0281  0.7144
  873MOL0     C20382   7.405   4.231   6.987 -0.3056 -0.2586 -1.0500
  873MOL0     C20383   7.439   4.172   6.866 -0.1827 -0.6930 -1.4271
  873MOL0     O20384   7.789   4.195   6.623 -0.1701  0.0008  0.3902
  873MOL0     C20385   7.593   4.023   6.388 -0.9567  0.0968 -0.5412
  873MOL0     C20386   7.577   4.012   6.255  0.0612  0.5382 -0.0271
  873MOL0     N20387   7.596   4.380   5.520  0.1721 -1.3002  0.4405
  873MOL0     N20388   7.673   4.480   5.471  0.1635  0.0880 -1.1677
  873MOL0     C20389   7.895   5.411   5.602  0.0567 -0.3208  0.4315
  873MOL0     C20390   7.848   5.518   5.523 -0.3322  0.3662  0.8663
  873MOL0     C20391   7.666   5.910   5.433  0.8012 -0.2430 -0.2096
  873MOL0     C20392   7.538   5.913   5.501 -0.3298  0.4879  0.0415
  873MOL0     C20393   7.467   6.025   5.494  0.2758 -0.4631  0.0486
  873MOL0     C20394   7.505   6.136   5.423 -0.2198 -1.1174  0.1554
  873MOL0     O20395   7.412   6.246   5.421 -0.2405 -0.7232 -0.5175
  873MOL0     C20396   7.392   6.309   5.292 -0.1680 -0.3905  0.7479
  873MOL0     C20397   7.310   6.212   5.196  0.9042 -0.0202  0.1492
  873MOL0     C20398   7.164   6.196   5.265  0.2361 -1.0528 -0.2762
  873MOL0     C20399   7.052   6.142   5.186  0.2079  0.1027  0.1942
  873MOL0     C20400   6.970   6.258   5.151 -0.6763 -0.2416 -0.2987
  873MOL0     C20401   6.898   6.349   5.119  0.3737 -0.4308  0.3740
  873MOL0     C20402   7.636   6.137   5.361  0.3427  0.1054  0.1005
  873MOL0     C20403   7.709   6.021   5.366 -0.6205  1.1509  0.1583
  873MOL0     C20404   7.845   6.025   5.300  0.3361 -0.1949 -0.0402
  873MOL0     H20405   7.519   5.533   5.632 -0.2910 -0.0822  0.6335
  873MOL0     H20406   7.612   5.365   5.788 -0.4184  1.9403  0.3851
  873MOL0     H20407   7.709   5.122   5.811 -0.4979 -0.2894  0.1308
  873MOL0     H20408   7.716   5.248   5.939 -0.1864 -0.5045  1.3958
  873MOL0     H20409   7.937   5.131   6.021  2.4679 -3.3528  0.8663
  873MOL0     H20410   7.799   5.024   6.012  0.6262 -0.2401 -0.0537
  873MOL0     H20411   8.018   5.057   5.812 -2.3470  1.4441  0.1848
  873MOL0     H20412   7.988   4.914   5.917  0.9061 -1.2112 -0.9934
  873MOL0     H20413   7.781   4.840   5.806  0.0068  1.3744  1.9777
  873MOL0     H20414   7.827   4.963   5.683 -3.1425  0.0623  1.5310
  873MOL0     H20415   7.996   4.729   5.778 -2.7205 -3.2827 -0.3402
  873MOL0     H20416   8.030   4.837   5.632 -2.3598 -1.6655 -2.7542
  873MOL0     H20417   7.791   4.643   5.666 -1.6899  1.9021  0.5068
  873MOL0     H20418   7.818   4.754   5.535  1.9841 -0.3322 -1.5712
  873MOL0     H20419   8.006   4.541   5.615  3.9916  0.8571 -0.2523
  873MOL0     H20420   8.027   4.660   5.472 -1.0802 -1.3672 -0.8831
  873MOL0     H20421   7.853   4.591   5.356 -2.1843 -2.5578 -1.0699
  873MOL0     H20422   7.983   4.468   5.359 -0.0844 -0.9125 -0.5815
  873MOL0     H20423   7.890   4.238   5.553 -0.0487  0.2939  2.4748
  873MOL0     H20424   7.727   4.071   5.631  0.8461  1.6328 -0.9056
  873MOL0     H20425   7.564   4.118   5.570  0.5818  0.3806 -0.6896
  873MOL0     H20426   7.709   4.188   5.833 -1.6477 -0.3118  2.3704
  873MOL0     H20427   7.572   4.280   5.774  3.0305  1.3326 -0.0571
  873MOL0     H20428   7.435   4.071   5.761  0.5736 -0.8397 -1.5270
  873MOL0     H20429   7.582   3.983   5.814 -1.7898 -1.2903 -1.5211
  873MOL0     H20430   7.479   4.210   5.986 -1.1855  0.5557 -2.3070
  873MOL0     H20431   7.421   4.048   6.013  0.5019 -0.0866 -0.3780
  873MOL0     H20432   7.713   4.291   6.143 -0.6785  0.3545  1.1407
  873MOL0     H20433   7.686   4.410   6.471 -0.0188  2.3263 -0.7879
  873MOL0     H20434   7.754   4.442   6.318  0.8994 -1.5856 -1.7682
  873MOL0     H20435   7.859   4.348   6.428  0.6294  3.3150  0.6741
  873MOL0     H20436   7.736   4.336   6.808  1.2240  1.9114  3.5092
  873MOL0     H20437   7.685   4.420   7.014  0.0301 -1.1447  1.2400
  873MOL0     H20438   7.576   4.548   7.208 -0.3504  0.0308 -0.5465
  873MOL0     H20439   7.461   4.566   7.069 -1.7224 -2.7174 -0.0101
  873MOL0     H20440   7.372   4.509   7.350  1.1991 -0.8976 -1.2458
  873MOL0     H20441   7.402   4.681   7.288  3.2796 -1.2327  1.0915
  873MOL0     H20442   7.169   4.560   7.285 -0.6196  0.7598 -0.2144
  873MOL0     H20443   7.224   4.482   7.136  3.3253 -0.5932 -0.7317
  873MOL0     H20444   7.288   4.750   7.058 -0.0020  0.8681  0.0166
  873MOL0     H20445   7.193   4.789   7.187 -0.9414  2.5544 -3.1520
  873MOL0     H20446   7.092   4.790   6.968  0.3761 -0.9203  0.3531
  873MOL0     H20447   7.099   4.619   6.936 -3.7538  0.6119 -2.7617
  873MOL0     H20448   6.934   4.773   7.125  0.5472  1.2527 -1.1613
  873MOL0     H20449   6.972   4.601   7.159  1.8440  1.3864  1.0772
  873MOL0     H20450   6.871   4.548   6.934 -3.5368  0.5844 -1.5402
  873MOL0     H20451   6.845   4.715   6.903  1.9559  0.4453 -0.3928
  873MOL0     H20452   6.735   4.554   7.150  1.3112  0.3179  0.2504
  873MOL0     H20453   6.644   4.556   6.997  0.5367 -1.2911  1.2665
  873MOL0     H20454   7.300   4.225   7.011 -0.1060  0.1832 -0.0081
  873MOL0     H20455   7.366   4.111   6.815 -0.4610 -2.0513  0.4802
  873MOL0     H20456   7.561   3.944   6.455  1.6559 -0.0264  0.6832
  873MOL0     H20457   7.524   3.922   6.225 -2.0988  1.1545  1.6198
  873MOL0     H20458   7.999   5.380   5.595  0.0149 -0.5893  0.9425
  873MOL0     H20459   7.921   5.585   5.480 -0.6492  2.5753  3.4657
  873MOL0     H20460   7.504   5.833   5.566 -0.9619  0.6806 -0.0556
  873MOL0     H20461   7.378   6.035   5.556  1.9407 -2.2814  2.9348
  873MOL0     H20462   7.324   6.392   5.313 -1.8030 -1.4169 -0.2625
  873MOL0     H20463   7.485   6.350   5.252 -1.1331 -1.6518 -3.3514
  873MOL0     H20464   7.366   6.119   5.187 -1.7803 -1.9800  2.2466
  873MOL0     H20465   7.306   6.264   5.100 -2.6829 -1.9167 -0.8958
  873MOL0     H20466   7.188   6.122   5.342  1.0706  1.5524  2.1386
  873MOL0     H20467   7.120   6.277   5.324 -0.9699 -1.6130 -0.3897
  873MOL0     H20468   7.000   6.067   5.247 -0.0608  2.4289  3.0723
  873MOL0     H20469   7.092   6.103   5.092 -0.7084 -0.2742 -0.0542
  873MOL0     H20470   6.844   6.434   5.080 -0.8177 -1.6456 -0.7392
  873MOL0     H20471   7.673   6.228   5.316 -0.0143  1.1583  1.8226
  873MOL0     H20472   7.848   5.946   5.225  2.2223 -0.9285  0.7259
  873MOL0     H20473   7.878   6.123   5.264  1.9232  0.6973  3.3745
  873MOL0     H20474   7.929   6.005   5.368  2.5638 -0.3695 -2.6521
  874MOL0     O20475  10.897   6.916   4.811  0.4187 -0.0571 -0.3238
  874MOL0     C20476  10.922   6.809   4.861 -0.4173  0.3626 -1.3078
  874MOL0     O20477  10.890   6.681   4.818  0.3145  0.0775 -0.0814
  874MOL0     C20478  10.831   6.665   4.698 -0.7877  0.7972 -0.4643
  874MOL0     C20479  10.869   6.538   4.649  0.8728  0.0333 -0.3440
  874MOL0     C20480  10.821   6.492   4.525 -0.3635 -0.1348 -0.5238
  874MOL0     C20481  10.738   6.569   4.449  0.0913  0.9177  0.2634
  874MOL0     O20482  10.716   6.524   4.323  0.7152 -0.1453  0.1985
  874MOL0     C20483  10.605   6.579   4.253  0.3922 -0.4946 -0.6384
  874MOL0     C20484  10.577   6.515   4.114  0.5291  0.1167  0.9121
  874MOL0     C20485  10.682   6.565   4.007 -0.1917  0.2294 -0.3620
  874MOL0     C20486  10.662   6.476   3.879 -0.1023 -0.9558  1.3173
  874MOL0     C20487  10.768   6.517   3.776 -0.8700 -0.1386  0.2196
  874MOL0     C20488  10.755   6.418   3.656  0.3934  0.2399 -0.0763
  874MOL0     C20489  10.634   6.462   3.564  0.2352  0.7015 -0.3555
  874MOL0     C20490  10.631   6.420   3.418 -0.4416  0.1285  0.3192
  874MOL0     N20491  10.505   6.459   3.351 -0.5911 -0.2153  0.4862
  874MOL0     C20492  10.463   6.585   3.339  0.3045 -1.1880 -0.9140
  874MOL0     C20493  10.344   6.568   3.269 -0.1188  0.2883  0.0687
  874MOL0     C20494  10.235   6.660   3.199 -0.1102 -0.2333  0.1594
  874MOL0     C20495  10.140   6.727   3.304  0.8769 -0.1002  0.7796
  874MOL0     C20496  10.219   6.845   3.371 -0.0279  0.5558 -0.9051
  874MOL0     C20497  10.164   6.870   3.509 -0.2447 -0.2436 -0.0502
  874MOL0     O20498  10.036   6.939   3.504  0.0423  0.6925  0.6318
  874MOL0     C20499   9.974   6.974   3.618 -0.2813 -0.7357  0.2037
  874MOL0     C20500   9.838   7.004   3.599  0.5349  0.1137  0.3095
  874MOL0     C20501   9.756   7.037   3.706  0.0207 -0.6122 -1.2906
  874MOL0     C20502   9.617   7.080   3.692 -0.0147 -0.3417  0.6820
  874MOL0     C20503   9.825   7.038   3.838 -0.2200  0.0779 -0.0906
  874MOL0     C20504   9.759   7.067   3.963 -0.0232 -0.2664  0.5359
  874MOL0     O20505   9.841   7.131   4.059 -0.0026  0.7572 -0.5244
  874MOL0     C20506   9.781   7.198   4.153 -1.0857 -0.0339  0.6191
  874MOL0     C20507   9.681   7.284   4.119 -0.5268  0.2404 -0.9672
  874MOL0     C20508   9.613   7.363   4.220  0.4755  0.2499  0.1926
  874MOL0     C20509   9.644   7.355   4.355  0.4632 -0.4207  0.0474
  874MOL0     O20510   9.569   7.405   4.457 -0.6408 -0.0451  0.4193
  874MOL0     C20511   9.506   7.539   4.436  0.4338  0.1184  0.1522
  874MOL0     C20512   9.593   7.652   4.502  0.3338 -0.1547  0.1066
  874MOL0     C20513   9.548   7.786   4.461 -0.0284  0.2275  0.2473
  874MOL0     C20514   9.661   7.889   4.457  0.5473  0.4117  0.0821
  874MOL0     C20515   9.729   7.913   4.596 -0.1566  0.7903  0.0438
  874MOL0     C20516   9.792   8.055   4.617  0.2592 -0.1649 -0.1927
  874MOL0     C20517   9.897   8.089   4.504 -0.1902  0.4637  0.3917
  874MOL0     C20518   9.985   8.215   4.543 -0.2012 -0.3992  0.6780
  874MOL0    Cl20519   9.886   8.360   4.549 -0.0852 -0.6897 -0.2940
  874MOL0     C20520   9.749   7.262   4.386  0.6302 -0.6651 -0.1498
  874MOL0     C20521   9.813   7.187   4.285 -0.2640 -0.4129 -0.8730
  874MOL0     O20522   9.644   7.023   3.988 -0.4474 -0.1459  0.8399
  874MOL0     C20523   9.959   7.008   3.851  0.3964  0.4297  0.2517
  874MOL0     C20524  10.034   6.978   3.744  0.1880 -0.1171 -0.2229
  874MOL0     N20525  10.321   6.430   3.252 -0.0070 -0.6973 -0.4473
  874MOL0     N20526  10.414   6.375   3.302 -0.2125 -0.3943 -0.9677
  874MOL0     C20527  10.698   6.693   4.501 -0.3556  0.3474 -0.5302
  874MOL0     C20528  10.756   6.745   4.621 -0.1585  0.1608  0.4968
  874MOL0     C20529  11.004   6.819   4.986  0.2589  0.2984  0.0126
  874MOL0     C20530  11.063   6.696   5.039 -0.3171 -0.2832  0.0822
  874MOL0     C20531  11.147   6.705   5.151  0.1914  0.3683  0.6947
  874MOL0     C20532  11.176   6.820   5.215  0.4661  0.0765 -0.0392
  874MOL0     O20533  11.259   6.844   5.318 -0.2278 -0.5799 -0.0948
  874MOL0     C20534  11.325   6.739   5.392  0.0751  0.1953 -0.1532
  874MOL0     C20535  11.246   6.642   5.487  0.6277 -0.6842  0.5152
  874MOL0     C20536  11.151   6.712   5.583  0.0424  0.5739  0.0182
  874MOL0     C20537  11.160   6.662   5.725 -0.1895  0.0975  0.4256
  874MOL0     C20538  11.112   6.525   5.742 -0.9969 -0.0388  0.2339
  874MOL0     C20539  11.048   6.425   5.749 -0.1657  0.8420  0.9192
  874MOL0     C20540  11.111   6.928   5.172 -0.0084  0.6218 -0.0449
  874MOL0     C20541  11.026   6.934   5.060 -1.4635 -0.2856  0.4409
  874MOL0     C20542  10.945   7.067   5.055  0.3467  0.4409 -0.2063
  874MOL0     H20543  10.942   6.476   4.700  0.9176 -0.6297 -1.1917
  874MOL0     H20544  10.872   6.403   4.488 -0.0085  0.3410 -1.2020
  874MOL0     H20545  10.629   6.683   4.229 -0.9756  0.3551  1.4323
  874MOL0     H20546  10.512   6.573   4.309 -1.1325  1.7952 -2.7081
  874MOL0     H20547  10.594   6.408   4.128 -4.3917 -1.1948 -1.2592
  874MOL0     H20548  10.473   6.528   4.084  0.3602 -1.2707  0.8451
  874MOL0     H20549  10.677   6.673   3.991 -1.7391 -0.0015 -1.7332
  874MOL0     H20550  10.780   6.542   4.050 -0.6505  1.0324  1.1739
  874MOL0     H20551  10.672   6.371   3.909 -1.5438 -0.5898  3.2343
  874MOL0     H20552  10.565   6.476   3.830 -1.1746  0.0611  3.3311
  874MOL0     H20553  10.868   6.520   3.819 -0.5853  0.5884 -0.4872
  874MOL0     H20554  10.748   6.614   3.731  2.1520  0.0473 -0.9250
  874MOL0     H20555  10.845   6.434   3.595  1.6905 -1.7343  1.1952
  874MOL0     H20556  10.767   6.315   3.691  4.9647  0.6350  0.2129
  874MOL0     H20557  10.647   6.571   3.566  3.4657  0.4566 -1.3325
  874MOL0     H20558  10.538   6.427   3.601  1.0251 -0.8533  0.3410
  874MOL0     H20559  10.721   6.459   3.369 -0.6795  2.0118  1.2861
  874MOL0     H20560  10.642   6.312   3.410  0.6960  0.1293  1.5528
  874MOL0     H20561  10.516   6.679   3.354 -1.3876 -0.4054  0.3976
  874MOL0     H20562  10.172   6.605   3.128 -0.6045 -2.5288  2.2277
  874MOL0     H20563  10.278   6.749   3.152  0.5030 -0.1065  0.9309
  874MOL0     H20564  10.060   6.778   3.250  2.6964  1.7745 -0.3236
  874MOL0     H20565  10.110   6.652   3.377  0.9231 -0.9607 -0.0687
  874MOL0     H20566  10.324   6.813   3.375  0.4111  2.0604  1.4056
  874MOL0     H20567  10.218   6.936   3.310  0.6105  1.5410  0.5100
  874MOL0     H20568  10.152   6.774   3.560  1.1206 -0.4847 -0.1498
  874MOL0     H20569  10.234   6.937   3.560 -0.0438  0.2267 -0.9201
  874MOL0     H20570   9.783   7.007   3.506  0.3830  0.9104  0.4187
  874MOL0     H20571   9.542   7.029   3.753 -1.1677  0.4927 -0.0070
  874MOL0     H20572   9.583   7.070   3.588 -1.9816 -0.7643  1.3172
  874MOL0     H20573   9.627   7.187   3.713  0.3249 -0.2519  0.1056
  874MOL0     H20574   9.652   7.297   4.015  0.7583 -0.5764 -1.4493
  874MOL0     H20575   9.539   7.436   4.189 -0.3441 -0.3950  0.5710
  874MOL0     H20576   9.495   7.560   4.329  1.5026  0.0017  0.0118
  874MOL0     H20577   9.414   7.551   4.495  1.5728 -0.4349  2.1195
  874MOL0     H20578   9.582   7.650   4.611 -1.2306  0.0205 -0.0357
  874MOL0     H20579   9.701   7.639   4.488  0.3338  1.3409 -1.8305
  874MOL0     H20580   9.478   7.818   4.539 -0.5661  0.0225 -0.1408
  874MOL0     H20581   9.503   7.783   4.361  1.4599 -1.5469 -0.4091
  874MOL0     H20582   9.604   7.981   4.443 -2.4486 -1.4172 -0.6523
  874MOL0     H20583   9.731   7.861   4.377 -0.9930 -1.9166 -0.5661
  874MOL0     H20584   9.663   7.881   4.677 -0.5632 -1.3236 -1.0510
  874MOL0     H20585   9.803   7.834   4.601 -2.4932 -1.4376  1.9327
  874MOL0     H20586   9.826   8.069   4.720 -1.7651 -0.8852  0.6224
  874MOL0     H20587   9.706   8.122   4.606  0.6293  0.7724  2.0919
  874MOL0     H20588   9.841   8.107   4.412 -0.3067  0.3319  0.4384
  874MOL0     H20589   9.968   8.007   4.488 -0.0271  0.1542  2.4522
  874MOL0     H20590  10.068   8.230   4.472 -0.2822  1.6308  0.9501
  874MOL0     H20591  10.039   8.185   4.633 -0.7518  0.4075  1.2945
  874MOL0     H20592   9.777   7.254   4.491 -1.1449 -1.1748  0.3155
  874MOL0     H20593   9.898   7.127   4.319 -1.4890 -0.8710  1.6064
  874MOL0     H20594  10.016   7.012   3.943  4.5248  2.0539 -2.1131
  874MOL0     H20595  10.138   6.957   3.766  0.4408  1.2810  0.0289
  874MOL0     H20596  10.637   6.765   4.447  1.6295  1.9526 -0.7449
  874MOL0     H20597  10.723   6.845   4.648 -1.2963  0.0653 -0.4159
  874MOL0     H20598  11.046   6.597   4.997  0.6006 -0.1363 -0.6645
  874MOL0     H20599  11.199   6.616   5.186 -1.6096 -1.3815 -0.8451
  874MOL0     H20600  11.372   6.681   5.311 -1.8808  1.8577 -2.6441
  874MOL0     H20601  11.407   6.784   5.449  1.9038  1.4350 -3.4580
  874MOL0     H20602  11.311   6.569   5.536 -1.1761 -3.7266 -1.3098
  874MOL0     H20603  11.180   6.588   5.419  0.1319  1.5206 -0.8669
  874MOL0     H20604  11.158   6.821   5.584  0.1864  0.5687  1.7263
  874MOL0     H20605  11.049   6.687   5.553  0.6552 -0.1028 -1.6326
  874MOL0     H20606  11.093   6.723   5.786  2.9442  2.2119  2.0268
  874MOL0     H20607  11.258   6.681   5.770 -0.1084  2.0290 -0.4739
  874MOL0     H20608  10.985   6.340   5.768 -3.7737  2.5486 -2.0075
  874MOL0     H20609  11.109   7.015   5.237 -0.0135 -0.4369  1.4219
  874MOL0     H20610  10.978   7.144   5.125  1.5440  1.9522 -2.2966
  874MOL0     H20611  10.949   7.128   4.964  0.3690 -1.1614 -1.3355
  874MOL0     H20612  10.838   7.052   5.070  0.2695  0.9095 -0.2750
  875MOL0     O20613  10.600   0.928   7.548  0.3002 -0.0796 -0.0940
  875MOL0     C20614  10.647   0.940   7.433  0.5610 -1.3123  0.1367
  875MOL0     O20615  10.688   1.061   7.382 -0.0201 -0.2145  1.1038
  875MOL0     C20616  10.643   1.176   7.435  1.4626 -0.6836 -0.3193
  875MOL0     C20617  10.535   1.203   7.525 -0.9383  0.0012  0.1836
  875MOL0     C20618  10.527   1.329   7.596 -0.5606 -0.3207 -0.4347
  875MOL0     C20619  10.612   1.428   7.574 -0.6391 -0.5125  0.3632
  875MOL0     O20620  10.605   1.553   7.633 -0.3590  0.0538  0.5284
  875MOL0     C20621  10.526   1.582   7.750 -0.0868  0.2032  0.4979
  875MOL0     C20622  10.540   1.724   7.800 -0.0997 -0.6462 -1.0524
  875MOL0     C20623  10.486   1.741   7.941  0.7708  0.1943  1.0192
  875MOL0     C20624  10.489   1.890   7.989 -0.3205  0.1394  1.3512
  875MOL0     C20625  10.358   1.966   7.966  0.3136  0.7963  0.6636
  875MOL0     C20626  10.363   2.090   8.056 -0.2438 -0.5406 -0.2930
  875MOL0     C20627  10.263   2.190   8.006 -1.0184 -0.0215 -0.4866
  875MOL0     C20628  10.251   2.335   8.040 -0.0883  0.3448 -0.1987
  875MOL0     N20629  10.207   2.346   8.182  0.5319 -0.3557 -0.4422
  875MOL0     C20630  10.290   2.314   8.290 -0.1273 -0.1094  0.6572
  875MOL0     C20631  10.209   2.342   8.398 -0.0195 -0.6619 -0.2276
  875MOL0     C20632  10.242   2.325   8.538 -1.4328 -0.2510 -0.4150
  875MOL0     C20633  10.224   2.170   8.557  0.2610  0.0641 -0.3743
  875MOL0     C20634  10.231   2.117   8.698 -0.3368  0.0457  0.3772
  875MOL0     C20635  10.373   2.123   8.748  0.1954 -0.6129 -0.0731
  875MOL0     O20636  10.461   2.079   8.646 -0.2505  0.0816  0.1467
  875MOL0     C20637  10.478   1.954   8.597  0.5458  0.1504 -0.7000
  875MOL0     C20638  10.427   1.837   8.664  0.4335  0.0277 -0.0138
  875MOL0     C20639  10.425   1.708   8.601  0.0221 -0.0516 -0.5495
  875MOL0     C20640  10.378   1.606   8.700  0.4885 -0.6838  0.4597
  875MOL0     C20641  10.484   1.686   8.479 -0.7479 -0.1467 -0.1131
  875MOL0     C20642  10.497   1.557   8.413  0.7670 -0.6329 -0.1586
  875MOL0     O20643  10.511   1.564   8.268 -1.1001  0.0808  0.4140
  875MOL0     C20644  10.536   1.457   8.196 -0.0778  0.9145  0.1313
  875MOL0     C20645  10.447   1.347   8.197 -0.1553 -0.1082 -0.1091
  875MOL0     C20646  10.476   1.236   8.115  0.0810 -0.2651 -0.0844
  875MOL0     C20647  10.591   1.244   8.028  0.1697 -0.0840 -0.5533
  875MOL0     O20648  10.643   1.149   7.947 -0.6515 -1.2261 -0.7320
  875MOL0     C20649  10.583   1.024   7.934 -0.0164  0.8827  0.5642
  875MOL0     C20650  10.455   1.013   7.859  0.2950  0.3293 -0.0339
  875MOL0     C20651  10.382   0.880   7.896  0.2660 -0.2356 -0.2853
  875MOL0     C20652  10.447   0.743   7.859 -0.0776  0.4477  1.0652
  875MOL0     C20653  10.374   0.622   7.937  0.0307  0.0059 -0.1476
  875MOL0     C20654  10.415   0.483   7.883  0.6057  0.6635 -0.0413
  875MOL0     C20655  10.375   0.463   7.732  0.7633 -0.0426 -0.4128
  875MOL0     C20656  10.438   0.337   7.676 -1.1836 -1.2776 -0.3547
  875MOL0    Cl20657  10.407   0.344   7.503 -0.4646 -0.1132  0.1262
  875MOL0     C20658  10.678   1.353   8.025 -0.4078 -0.5838  0.9022
  875MOL0     C20659  10.647   1.460   8.113 -0.9623 -0.2398  0.4540
  875MOL0     O20660  10.496   1.452   8.485  0.1679 -0.4762 -0.3040
  875MOL0     C20661  10.534   1.802   8.415 -0.3320  1.0364  0.3513
  875MOL0     C20662  10.534   1.927   8.469  0.6539 -0.4480  0.0478
  875MOL0     N20663  10.080   2.374   8.359 -0.1131  0.7175 -0.8302
  875MOL0     N20664  10.077   2.365   8.228 -0.1175  0.0264 -0.2225
  875MOL0     C20665  10.711   1.406   7.474  0.2435 -0.0562  0.4481
  875MOL0     C20666  10.735   1.283   7.417  0.0202 -1.4491  0.2559
  875MOL0     C20667  10.673   0.817   7.353  0.0218  0.0997 -0.1555
  875MOL0     C20668  10.716   0.838   7.217 -1.0405 -1.0441  0.5943
  875MOL0     C20669  10.747   0.730   7.135  0.9416 -0.4804  0.2152
  875MOL0     C20670  10.736   0.601   7.188 -0.1825 -0.0527  1.4339
  875MOL0     O20671  10.775   0.511   7.083  0.0703 -1.5811  0.3333
  875MOL0     C20672  10.796   0.383   7.124 -0.4240  0.8788 -0.9049
  875MOL0     C20673  10.822   0.303   7.001  0.3411 -0.6704  0.0179
  875MOL0     C20674  10.967   0.310   6.946 -1.1010  0.4934 -0.2482
  875MOL0     C20675  10.999   0.206   6.827 -0.3089 -0.3323 -0.1062
  875MOL0     C20676  10.925   0.252   6.713 -0.4249  0.3893 -0.6393
  875MOL0     C20677  10.865   0.298   6.621  0.6870  1.1730 -0.4919
  875MOL0     C20678  10.718   0.578   7.318  0.5532 -0.8753 -0.3071
  875MOL0     C20679  10.680   0.686   7.408 -0.3960 -0.6094  1.3308
  875MOL0     C20680  10.620   0.652   7.533  1.0749 -0.7469 -1.4515
  875MOL0     H20681  10.453   1.132   7.528  0.2299 -1.4185 -0.3967
  875MOL0     H20682  10.439   1.345   7.658 -1.9009 -1.8958 -1.8292
  875MOL0     H20683  10.535   1.514   7.835  0.4573 -0.6200 -0.2056
  875MOL0     H20684  10.418   1.566   7.739  0.0689 -1.0094  0.5573
  875MOL0     H20685  10.638   1.773   7.792 -1.3693  2.5812  1.2337
  875MOL0     H20686  10.466   1.782   7.743  0.4475  2.1844  0.8854
  875MOL0     H20687  10.387   1.695   7.945 -0.3302  1.5599 -4.2011
  875MOL0     H20688  10.548   1.681   8.009 -2.0434 -2.6731  1.3171
  875MOL0     H20689  10.516   1.886   8.094  2.3280 -1.5690  0.7064
  875MOL0     H20690  10.570   1.943   7.937 -0.4038 -0.6967  0.3235
  875MOL0     H20691  10.281   1.903   8.011  0.7857 -1.5348 -1.5499
  875MOL0     H20692  10.335   1.980   7.860 -1.4632 -0.2167  0.8754
  875MOL0     H20693  10.351   2.057   8.159  1.1958 -1.7346 -0.4746
  875MOL0     H20694  10.467   2.122   8.056 -1.2561  3.5745 -3.0393
  875MOL0     H20695  10.162   2.152   8.026 -1.9700  0.7153 -3.4374
  875MOL0     H20696  10.275   2.206   7.899 -3.3849  1.5355 -0.6160
  875MOL0     H20697  10.353   2.373   8.027  1.6350 -3.5184  0.3802
  875MOL0     H20698  10.177   2.379   7.974 -0.0675 -4.3241 -3.7880
  875MOL0     H20699  10.391   2.275   8.287 -1.9196 -5.4791 -0.9386
  875MOL0     H20700  10.176   2.384   8.602  0.0789 -0.4224  1.3758
  875MOL0     H20701  10.345   2.358   8.552 -2.0433  2.9277 -2.3198
  875MOL0     H20702  10.127   2.150   8.513  1.1185 -0.7635 -1.9648
  875MOL0     H20703  10.275   2.105   8.486 -2.9295 -1.2742 -1.5813
  875MOL0     H20704  10.172   2.172   8.772  1.7736  0.5162  1.7783
  875MOL0     H20705  10.197   2.013   8.698  0.7717 -0.3350 -0.3585
  875MOL0     H20706  10.405   2.223   8.778 -2.8847 -0.5017  3.5114
  875MOL0     H20707  10.379   2.060   8.837  0.6760 -1.0487 -0.4038
  875MOL0     H20708  10.367   1.844   8.754  1.7502  2.1907  0.7820
  875MOL0     H20709  10.321   1.532   8.643  0.0308 -0.6248  0.8392
  875MOL0     H20710  10.303   1.651   8.766 -1.9076 -0.8066 -1.9530
  875MOL0     H20711  10.466   1.558   8.742  1.7124 -3.0140 -4.0933
  875MOL0     H20712  10.360   1.342   8.263 -1.2494  1.2799 -1.3676
  875MOL0     H20713  10.416   1.145   8.120  0.5666 -0.5674  0.3745
  875MOL0     H20714  10.661   0.963   7.888 -0.3220  0.5847  0.4356
  875MOL0     H20715  10.569   0.972   8.029  0.4030 -4.5860 -2.0034
  875MOL0     H20716  10.385   1.094   7.881 -2.0165 -1.3213 -0.9659
  875MOL0     H20717  10.478   1.032   7.754  0.7288 -0.1162 -0.0249
  875MOL0     H20718  10.278   0.882   7.861 -0.5144 -1.6383  1.7518
  875MOL0     H20719  10.383   0.876   8.005  2.8075 -0.1501 -0.2528
  875MOL0     H20720  10.552   0.768   7.878 -0.1038  4.4796 -2.5063
  875MOL0     H20721  10.447   0.737   7.749  2.3167  0.6135  1.0022
  875MOL0     H20722  10.395   0.635   8.043  1.7764  1.5958 -0.6356
  875MOL0     H20723  10.267   0.640   7.923 -0.6902 -2.2748  1.7647
  875MOL0     H20724  10.369   0.403   7.943  0.2218  0.0278 -1.1467
  875MOL0     H20725  10.522   0.471   7.898  0.2763  0.3331  2.6554
  875MOL0     H20726  10.413   0.548   7.676  1.7002 -1.2703 -1.7108
  875MOL0     H20727  10.267   0.470   7.719  0.5356 -1.8078  0.2897
  875MOL0     H20728  10.393   0.247   7.717 -1.9037 -0.6011  0.3556
  875MOL0     H20729  10.546   0.318   7.684 -1.5672 -3.4459  0.3179
  875MOL0     H20730  10.764   1.353   7.959 -1.4251  0.1749 -0.4623
  875MOL0     H20731  10.711   1.547   8.121 -4.9253  3.2148 -1.9516
  875MOL0     H20732  10.579   1.788   8.317  3.2664  0.3717  1.9044
  875MOL0     H20733  10.573   2.013   8.415  2.9605  1.0600  3.6954
  875MOL0     H20734  10.779   1.490   7.461 -1.0798  0.8861 -0.5915
  875MOL0     H20735  10.821   1.278   7.351  0.0525  4.3369 -0.6681
  875MOL0     H20736  10.709   0.934   7.166  0.4004 -1.2427 -0.0264
  875MOL0     H20737  10.780   0.727   7.032  1.0385 -0.2186  0.2393
  875MOL0     H20738  10.888   0.369   7.182  0.1277 -1.5103 -2.2352
  875MOL0     H20739  10.708   0.339   7.172 -0.4002  0.6179 -1.1014
  875MOL0     H20740  10.749   0.327   6.924 -1.8666 -1.5758  1.7272
  875MOL0     H20741  10.804   0.197   7.020  1.5729 -0.9737 -0.3679
  875MOL0     H20742  10.980   0.415   6.917 -2.6175  1.9196  3.6382
  875MOL0     H20743  11.027   0.277   7.031 -2.4454  1.4624  1.1420
  875MOL0     H20744  10.964   0.105   6.850 -2.1942  0.6843  1.8410
  875MOL0     H20745  11.104   0.193   6.800  0.5971 -0.7181  3.1983
  875MOL0     H20746  10.822   0.331   6.528  1.8154 -1.2525 -1.9855
  875MOL0     H20747  10.735   0.476   7.349  2.3532 -0.0882  1.5813
  875MOL0     H20748  10.675   0.704   7.611 -1.4423  2.5913 -1.7032
  875MOL0     H20749  10.515   0.680   7.530  0.7697 -0.6882  3.0538
  875MOL0     H20750  10.617   0.546   7.561 -3.4263  0.0954  2.3958
  876MOL0     O20751   6.004   8.794   0.631 -0.4992  1.1200  0.2993
  876MOL0     C20752   6.060   8.836   0.726 -0.2675 -0.6844  0.6334
  876MOL0     O20753   6.158   8.777   0.798  0.4822 -0.8296  0.2242
  876MOL0     C20754   6.252   8.692   0.732  0.8173  0.8964 -0.0827
  876MOL0     C20755   6.214   8.581   0.656  0.4318  0.6291 -0.2235
  876MOL0     C20756   6.308   8.512   0.582  0.5013 -0.0029 -1.2111
  876MOL0     C20757   6.444   8.541   0.589  1.2146  0.9171 -0.4158
  876MOL0     O20758   6.531   8.471   0.510 -0.0082 -0.4185 -0.3232
  876MOL0     C20759   6.661   8.454   0.581  0.6951 -0.3736 -0.1636
  876MOL0     C20760   6.749   8.358   0.493  0.6563 -0.0953 -0.4261
  876MOL0     C20761   6.888   8.323   0.547  0.1995 -0.5600 -0.0080
  876MOL0     C20762   7.000   8.421   0.518 -0.3995  0.1094 -0.0900
  876MOL0     C20763   7.133   8.371   0.570  0.8637 -0.5111 -1.0742
  876MOL0     C20764   7.199   8.274   0.473 -0.5546  1.1175 -0.9596
  876MOL0     C20765   7.347   8.265   0.499 -0.1232 -0.5259  0.7606
  876MOL0     C20766   7.390   8.207   0.635 -0.2369  0.4516 -0.7800
  876MOL0     N20767   7.344   8.065   0.640  1.1700 -0.2033  0.4100
  876MOL0     C20768   7.387   7.955   0.566  0.1488  0.2068  0.0102
  876MOL0     C20769   7.353   7.841   0.638 -0.9559  0.9117 -0.0176
  876MOL0     C20770   7.356   7.691   0.607 -0.4366  0.0624 -0.0751
  876MOL0     C20771   7.499   7.637   0.641  0.3923 -0.4837  0.0486
  876MOL0     C20772   7.537   7.504   0.565  0.3038  1.0262 -0.7987
  876MOL0     C20773   7.433   7.394   0.587 -0.1793  0.5375 -0.2053
  876MOL0     O20774   7.415   7.347   0.718  0.1593 -0.2644 -0.0475
  876MOL0     C20775   7.311   7.263   0.739 -0.0162 -0.3973 -0.6518
  876MOL0     C20776   7.168   7.288   0.707 -0.2370 -0.3611 -0.0419
  876MOL0     C20777   7.071   7.185   0.730 -0.4616  0.0998  0.7943
  876MOL0     C20778   6.923   7.210   0.673 -0.2455  0.0939 -0.6195
  876MOL0     C20779   7.112   7.062   0.794 -0.5184  0.4673  0.1018
  876MOL0     C20780   7.018   6.950   0.829 -0.5976  0.0596 -0.2591
  876MOL0     O20781   7.051   6.820   0.814  0.0897 -0.1672  0.0256
  876MOL0     C20782   6.974   6.724   0.866 -0.5212  0.5177 -1.6567
  876MOL0     C20783   6.843   6.701   0.817 -0.0964 -0.1939  0.1364
  876MOL0     C20784   6.769   6.590   0.862  0.1909  0.4944 -0.8611
  876MOL0     C20785   6.826   6.502   0.964 -0.4666 -0.8164  0.2595
  876MOL0     O20786   6.777   6.383   1.016 -0.3674 -0.4607  0.5159
  876MOL0     C20787   6.634   6.380   1.041 -0.3106  0.2999  0.0981
  876MOL0     C20788   6.587   6.236   1.071  0.2559 -0.5704 -0.8176
  876MOL0     C20789   6.438   6.211   1.061 -0.6508 -0.1542 -0.1622
  876MOL0     C20790   6.351   6.308   1.142 -0.6025  0.2781  0.2975
  876MOL0     C20791   6.202   6.269   1.156  0.5246 -1.2264 -0.5417
  876MOL0     C20792   6.115   6.256   1.027  0.0627  0.3260  0.2639
  876MOL0     C20793   6.109   6.391   0.950 -0.7591 -0.2994 -0.4466
  876MOL0     C20794   5.997   6.394   0.854 -0.8010  0.9795  0.0369
  876MOL0    Cl20795   5.847   6.391   0.951  0.1437 -0.3227 -0.1038
  876MOL0     C20796   6.949   6.536   1.020 -0.4794  0.0876  0.3740
  876MOL0     C20797   7.033   6.636   0.961 -1.1273 -0.0316 -1.1443
  876MOL0     O20798   6.927   6.990   0.891  0.3807 -0.4192 -0.4626
  876MOL0     C20799   7.254   7.041   0.824 -0.1404 -1.6214  0.0434
  876MOL0     C20800   7.351   7.140   0.787  0.0441  0.5779  0.4630
  876MOL0     N20801   7.281   7.885   0.745 -0.4965 -0.1283 -0.8508
  876MOL0     N20802   7.275   8.011   0.747  0.2641  0.1047 -0.3128
  876MOL0     C20803   6.483   8.648   0.671 -0.8188  0.9377 -0.6523
  876MOL0     C20804   6.390   8.723   0.732 -0.3459 -0.3363  0.0234
  876MOL0     C20805   6.005   8.952   0.806  0.0292 -1.0158  0.6411
  876MOL0     C20806   6.004   8.959   0.945 -0.5657  0.4440 -0.7212
  876MOL0     C20807   5.962   9.072   1.008  0.4068 -0.5929 -0.9257
  876MOL0     C20808   5.895   9.180   0.941  0.0418  0.5349  0.2614
  876MOL0     O20809   5.864   9.296   1.004  0.4806 -0.2260  0.4785
  876MOL0     C20810   5.833   9.411   0.924 -0.1665  0.9243  0.0869
  876MOL0     C20811   5.678   9.421   0.883  0.2743 -0.4100  0.1009
  876MOL0     C20812   5.645   9.552   0.806 -0.0859 -1.2105 -0.2445
  876MOL0     C20813   5.506   9.548   0.736 -0.9896  0.1806 -0.2550
  876MOL0     C20814   5.485   9.691   0.689  0.4943 -1.0644  0.1831
  876MOL0     C20815   5.495   9.802   0.642  0.7048  0.6158  0.1227
  876MOL0     C20816   5.880   9.159   0.807  1.0996 -0.4082  0.0716
  876MOL0     C20817   5.934   9.054   0.737 -0.5767  0.0228  0.2500
  876MOL0     C20818   5.917   9.057   0.585  0.4763 -0.6127  0.1031
  876MOL0     H20819   6.107   8.569   0.649 -0.0011  1.2627  3.3987
  876MOL0     H20820   6.272   8.435   0.515 -2.2726  0.0531  0.1053
  876MOL0     H20821   6.628   8.395   0.666 -1.9842  0.2054 -0.7054
  876MOL0     H20822   6.713   8.547   0.607 -1.8065  1.3291 -0.8151
  876MOL0     H20823   6.682   8.274   0.475 -2.5511  1.9539  1.0680
  876MOL0     H20824   6.757   8.411   0.397 -1.2716  2.4910  0.7300
  876MOL0     H20825   6.880   8.321   0.656  3.6677  1.9496  0.4774
  876MOL0     H20826   6.923   8.227   0.510  5.0812 -0.2479  2.8421
  876MOL0     H20827   7.016   8.431   0.411 -0.1597  0.3967 -0.0262
  876MOL0     H20828   6.994   8.513   0.578  2.5181 -0.3956  1.1518
  876MOL0     H20829   7.118   8.317   0.664 -1.5089 -1.9345 -2.1778
  876MOL0     H20830   7.204   8.452   0.588 -0.5258  0.5191  0.0538
  876MOL0     H20831   7.156   8.177   0.500 -1.5351  1.2893 -1.8278
  876MOL0     H20832   7.162   8.292   0.372 -3.9071  0.8839  0.1221
  876MOL0     H20833   7.382   8.367   0.486 -5.0830  1.2589 -1.2942
  876MOL0     H20834   7.393   8.217   0.412  0.1988  0.9367  0.1046
  876MOL0     H20835   7.499   8.207   0.647  0.2125 -5.3333 -1.7181
  876MOL0     H20836   7.352   8.269   0.717 -0.8802  0.5485 -1.1469
  876MOL0     H20837   7.432   7.950   0.468 -0.4273  2.5255 -0.4222
  876MOL0     H20838   7.340   7.676   0.500 -2.2491 -0.3402  0.2255
  876MOL0     H20839   7.281   7.632   0.660  1.7023 -1.0437  1.9384
  876MOL0     H20840   7.574   7.712   0.613 -2.6214  2.0011 -2.0103
  876MOL0     H20841   7.496   7.619   0.749 -0.8875  0.0841  0.1259
  876MOL0     H20842   7.545   7.537   0.461  3.7427  1.2017 -0.6080
  876MOL0     H20843   7.638   7.469   0.590  0.6845 -1.2820 -4.7305
  876MOL0     H20844   7.340   7.445   0.558 -0.6900  0.4397  1.1496
  876MOL0     H20845   7.455   7.316   0.515  0.3208 -0.4272  0.9508
  876MOL0     H20846   7.133   7.378   0.657 -1.1212 -0.1197  0.9701
  876MOL0     H20847   6.906   7.312   0.638  0.4114  0.0566 -1.0772
  876MOL0     H20848   6.849   7.210   0.754  0.9721  2.2160  0.5960
  876MOL0     H20849   6.890   7.141   0.595 -4.8071  1.4498 -0.1830
  876MOL0     H20850   6.801   6.773   0.747  1.2455 -0.6274 -1.1657
  876MOL0     H20851   6.667   6.576   0.827 -0.5248  2.0877  0.4846
  876MOL0     H20852   6.605   6.445   1.124  4.0692  0.0213  2.0933
  876MOL0     H20853   6.577   6.419   0.956 -0.5756  3.1408  1.4569
  876MOL0     H20854   6.634   6.179   0.990 -0.4902 -1.6741 -0.5017
  876MOL0     H20855   6.619   6.194   1.167 -1.6608 -0.6777 -0.1896
  876MOL0     H20856   6.410   6.110   1.091  2.2523 -0.8498  0.5158
  876MOL0     H20857   6.400   6.211   0.958  0.0242 -0.9640 -0.4230
  876MOL0     H20858   6.357   6.400   1.084 -1.3225 -1.3440 -2.5138
  876MOL0     H20859   6.386   6.322   1.245 -2.3854 -1.6336  1.2641
  876MOL0     H20860   6.200   6.169   1.202 -1.7347 -0.9810  0.0072
  876MOL0     H20861   6.148   6.324   1.233  0.6146 -2.9371  0.7973
  876MOL0     H20862   6.015   6.229   1.063  0.3175  1.4994  1.9701
  876MOL0     H20863   6.149   6.172   0.966 -2.4375 -1.9544  1.7813
  876MOL0     H20864   6.200   6.425   0.899 -1.7000  0.9286 -1.3499
  876MOL0     H20865   6.088   6.472   1.021  1.5340  0.3425 -0.3938
  876MOL0     H20866   6.005   6.320   0.773  2.3555  0.5168  0.6533
  876MOL0     H20867   5.991   6.487   0.797 -0.2345  0.5272 -0.8044
  876MOL0     H20868   6.988   6.477   1.102  2.0536  0.1113 -0.7129
  876MOL0     H20869   7.134   6.654   0.994 -1.1038  0.8807 -1.6914
  876MOL0     H20870   7.289   6.955   0.881 -1.2356 -3.9449 -2.5889
  876MOL0     H20871   7.456   7.151   0.813 -0.1044  0.3902  1.1447
  876MOL0     H20872   6.586   8.682   0.674 -0.0595 -1.3068  0.7662
  876MOL0     H20873   6.417   8.811   0.788 -2.3072 -1.9060  3.7910
  876MOL0     H20874   6.052   8.884   1.007 -1.5782  0.8968  0.6651
  876MOL0     H20875   5.996   9.073   1.111 -0.5373 -0.6979 -0.6012
  876MOL0     H20876   5.847   9.499   0.987 -2.0423 -0.2704  2.3478
  876MOL0     H20877   5.892   9.418   0.832  0.5233  0.7199  0.5038
  876MOL0     H20878   5.611   9.410   0.968 -0.2317 -3.4525 -0.5675
  876MOL0     H20879   5.659   9.341   0.811  0.4330  1.7903 -2.5335
  876MOL0     H20880   5.651   9.630   0.881  2.5544 -1.2013 -0.3906
  876MOL0     H20881   5.719   9.583   0.732 -0.2499  1.4037  0.5946
  876MOL0     H20882   5.428   9.520   0.807 -0.4353 -0.9741 -0.0787
  876MOL0     H20883   5.528   9.477   0.656  1.5284  0.7676 -0.1684
  876MOL0     H20884   5.490   9.896   0.592  2.5130  1.4483  1.3648
  876MOL0     H20885   5.839   9.240   0.748  3.4991  0.6004 -0.3591
  876MOL0     H20886   6.009   9.091   0.535 -1.2042  0.9884 -2.1197
  876MOL0     H20887   5.884   8.962   0.542  2.8356 -1.4315 -0.0783
  876MOL0     H20888   5.839   9.131   0.565  0.2267 -0.8896  0.0534
  877MOL0     O20889   5.694   7.712   3.798 -0.1431  0.0831 -0.4136
  877MOL0     C20890   5.695   7.829   3.845 -0.1025 -0.0049  0.6206
  877MOL0     O20891   5.747   7.855   3.964 -0.1984  0.1648  0.5985
  877MOL0     C20892   5.868   7.792   3.995 -0.3154 -0.2918 -0.0929
  877MOL0     C20893   5.878   7.654   4.007 -0.2294  0.0741  0.0350
  877MOL0     C20894   5.998   7.595   4.042  0.1608  0.1383  0.5577
  877MOL0     C20895   6.110   7.669   4.051 -0.0681  0.3232 -0.2967
  877MOL0     O20896   6.223   7.612   4.087  0.1933 -0.0633  0.9410
  877MOL0     C20897   6.241   7.468   4.105  0.5516 -0.5163  0.0754
  877MOL0     C20898   6.372   7.458   4.168 -0.5048  0.5259  0.4433
  877MOL0     C20899   6.456   7.325   4.146 -0.1515  0.2892  0.2805
  877MOL0     C20900   6.545   7.345   4.015 -0.3223 -0.1895  0.0958
  877MOL0     C20901   6.665   7.244   4.009  0.4634 -0.4951  0.1422
  877MOL0     C20902   6.616   7.108   3.976  0.0560  0.4677 -0.2362
  877MOL0     C20903   6.722   7.000   3.988 -0.1608  0.1661  1.0694
  877MOL0     C20904   6.659   6.856   3.969  0.0107 -0.0398 -0.8392
  877MOL0     N20905   6.761   6.750   3.967 -0.0073 -0.2734 -0.7236
  877MOL0     C20906   6.857   6.746   3.864 -0.5998  0.0102  0.1350
  877MOL0     C20907   6.944   6.652   3.906 -0.4171 -0.2762  0.6242
  877MOL0     C20908   7.068   6.618   3.838 -1.1924  0.2769 -0.1330
  877MOL0     C20909   7.056   6.594   3.689 -0.0461 -0.1742 -0.2791
  877MOL0     C20910   7.107   6.452   3.614  0.1692 -0.6792  0.0573
  877MOL0     C20911   7.043   6.426   3.476  0.3604  0.6918 -0.2291
  877MOL0     O20912   7.083   6.525   3.374  0.0925 -0.3993 -0.2354
  877MOL0     C20913   7.006   6.538   3.262 -0.0800  0.3324  0.1413
  877MOL0     C20914   7.063   6.598   3.147 -1.0232 -0.2375  0.0214
  877MOL0     C20915   6.998   6.582   3.022  0.1568 -0.0803 -0.0918
  877MOL0     C20916   7.056   6.679   2.918  0.0856  0.8718  0.0138
  877MOL0     C20917   6.878   6.508   3.009 -0.9559 -0.6435  1.0287
  877MOL0     C20918   6.820   6.484   2.878  0.0976  0.0785 -1.1907
  877MOL0     O20919   6.904   6.459   2.775 -0.1888  0.2956  0.2048
  877MOL0     C20920   6.859   6.470   2.649 -0.9590 -0.0623 -0.9699
  877MOL0     C20921   6.796   6.363   2.591 -0.9791 -0.2451 -1.3902
  877MOL0     C20922   6.753   6.364   2.461 -0.0537 -0.4963  0.5341
  877MOL0     C20923   6.761   6.485   2.393  0.1264 -0.0504 -0.3644
  877MOL0     O20924   6.724   6.469   2.261 -0.0900 -0.7757 -0.6900
  877MOL0     C20925   6.734   6.582   2.168  0.3175  0.2211  0.5841
  877MOL0     C20926   6.664   6.539   2.033  0.3335 -1.0008  1.3789
  877MOL0     C20927   6.697   6.385   2.000 -0.3646  0.4476  0.2360
  877MOL0     C20928   6.652   6.338   1.857  0.6945 -1.0718  0.1765
  877MOL0     C20929   6.508   6.338   1.849  0.0109  0.8044 -0.1526
  877MOL0     C20930   6.449   6.232   1.745 -1.1348 -0.5925  0.1688
  877MOL0     C20931   6.293   6.238   1.744  0.6430 -0.0344 -0.4260
  877MOL0     C20932   6.243   6.345   1.653 -0.4485 -0.1200 -0.0367
  877MOL0    Cl20933   6.070   6.288   1.607 -0.0617 -0.5187  0.4221
  877MOL0     C20934   6.825   6.595   2.449 -0.0905 -0.3286 -0.0433
  877MOL0     C20935   6.878   6.586   2.578  0.5892 -1.1015  0.7660
  877MOL0     O20936   6.701   6.509   2.871  0.6315 -0.7157 -0.1976
  877MOL0     C20937   6.818   6.461   3.128 -0.3257  0.0755 -0.0702
  877MOL0     C20938   6.876   6.485   3.258 -0.5183 -0.6981  0.2986
  877MOL0     N20939   6.912   6.613   4.029  0.7667 -0.0018 -0.7723
  877MOL0     N20940   6.796   6.661   4.063 -0.2944  0.7016 -0.6325
  877MOL0     C20941   6.100   7.812   4.059 -0.0244  0.2219  0.6025
  877MOL0     C20942   5.973   7.870   4.031  0.4287 -0.4742  0.1304
  877MOL0     C20943   5.612   7.935   3.784  1.1074  0.1275  0.0881
  877MOL0     C20944   5.527   7.882   3.686 -0.1351 -0.4168  0.0744
  877MOL0     C20945   5.435   7.957   3.618 -0.1528  0.0193  0.0725
  877MOL0     C20946   5.420   8.090   3.649 -0.7770  0.6547  0.0075
  877MOL0     O20947   5.321   8.153   3.578 -0.5800  0.2936 -0.3941
  877MOL0     C20948   5.237   8.241   3.646 -0.4400 -0.2999 -0.4731
  877MOL0     C20949   5.164   8.180   3.772 -0.6593 -0.2075  0.1434
  877MOL0     C20950   5.221   8.215   3.914 -0.0096  0.7290 -0.4166
  877MOL0     C20951   5.221   8.365   3.949  0.1272  0.2412 -0.5290
  877MOL0     C20952   5.083   8.403   3.959  0.9496 -0.6531  0.6602
  877MOL0     C20953   4.968   8.427   3.958  0.9624 -0.8269 -0.0305
  877MOL0     C20954   5.506   8.151   3.750  0.0221  0.1387  0.2125
  877MOL0     C20955   5.603   8.070   3.819 -0.1319 -0.5164 -1.1460
  877MOL0     C20956   5.696   8.138   3.914 -1.0935 -0.0550 -0.5450
  877MOL0     H20957   5.786   7.595   4.003 -1.2499  1.4706  1.6363
  877MOL0     H20958   6.004   7.488   4.059  1.9791  0.2091  0.5909
  877MOL0     H20959   6.236   7.414   4.009  0.8194  0.1358 -0.3119
  877MOL0     H20960   6.173   7.419   4.175  1.7927 -0.6063  1.2667
  877MOL0     H20961   6.434   7.539   4.128  0.7153 -0.5930 -0.0083
  877MOL0     H20962   6.363   7.475   4.276  4.2270 -0.4208  1.1878
  877MOL0     H20963   6.523   7.316   4.232  2.0140  1.6290 -1.1502
  877MOL0     H20964   6.393   7.237   4.141 -3.6898  2.3310  3.6113
  877MOL0     H20965   6.482   7.333   3.926 -0.4338 -2.9036  0.4703
  877MOL0     H20966   6.587   7.446   4.022 -3.1513  1.0127  1.3438
  877MOL0     H20967   6.714   7.253   4.106 -0.9814  1.3786  0.7487
  877MOL0     H20968   6.738   7.273   3.932  1.0231 -0.2750  0.7545
  877MOL0     H20969   6.535   7.080   4.043 -0.8684 -1.1250 -1.9205
  877MOL0     H20970   6.573   7.101   3.875 -0.6162  0.0120  0.0760
  877MOL0     H20971   6.753   7.001   4.093  1.3858  0.0459  0.6326
  877MOL0     H20972   6.807   7.018   3.923  0.7801 -0.8217  1.9824
  877MOL0     H20973   6.592   6.825   4.050  2.8903  2.1438  2.6798
  877MOL0     H20974   6.604   6.849   3.874 -0.5796  0.2064 -0.5206
  877MOL0     H20975   6.865   6.807   3.774 -0.3877  0.1808  0.2675
  877MOL0     H20976   7.104   6.526   3.883 -1.3258  0.2155 -0.1509
  877MOL0     H20977   7.137   6.701   3.858 -0.4852 -0.3683  0.1344
  877MOL0     H20978   6.957   6.622   3.652  0.8125 -0.3925 -2.9519
  877MOL0     H20979   7.113   6.672   3.638 -1.4698 -0.4874 -2.4814
  877MOL0     H20980   7.216   6.458   3.602  0.2625 -1.3540  0.4874
  877MOL0     H20981   7.089   6.367   3.681  0.7517  0.2564  1.4648
  877MOL0     H20982   7.074   6.326   3.445 -2.6367  0.0849 -1.6502
  877MOL0     H20983   6.935   6.432   3.492  0.4662  1.1592  0.3917
  877MOL0     H20984   7.155   6.654   3.154 -1.9849  1.6056 -1.2481
  877MOL0     H20985   7.091   6.621   2.833 -2.8600  0.1309 -0.7986
  877MOL0     H20986   7.134   6.745   2.957  0.7770  0.4589 -0.6454
  877MOL0     H20987   6.972   6.745   2.895 -3.1580 -2.7195  0.4732
  877MOL0     H20988   6.789   6.273   2.651  1.4127  1.1055  1.1386
  877MOL0     H20989   6.723   6.280   2.400  2.2481 -2.3005  1.7314
  877MOL0     H20990   6.688   6.669   2.216  1.0988  0.5107  0.8180
  877MOL0     H20991   6.838   6.602   2.142  0.6575  1.0565  2.4664
  877MOL0     H20992   6.557   6.560   2.031  0.5062  0.2242 -2.0363
  877MOL0     H20993   6.705   6.604   1.955 -0.8233 -0.5637  1.1220
  877MOL0     H20994   6.651   6.323   2.077 -0.1741  0.8065  0.6395
  877MOL0     H20995   6.805   6.377   2.010  0.1186  1.2922 -2.9951
  877MOL0     H20996   6.704   6.242   1.850 -1.1153 -2.1226  0.4243
  877MOL0     H20997   6.684   6.403   1.776 -0.8622 -0.5025 -0.0117
  877MOL0     H20998   6.467   6.315   1.948  0.2389  4.1055  0.8358
  877MOL0     H20999   6.463   6.436   1.827 -1.3286  0.5789  1.3457
  877MOL0     H21000   6.490   6.134   1.769  1.4662  0.5662  0.9072
  877MOL0     H21001   6.500   6.248   1.649  1.2635 -2.2236  1.0840
  877MOL0     H21002   6.250   6.251   1.844 -3.8731  2.1954 -2.4095
  877MOL0     H21003   6.256   6.137   1.723 -5.7992  1.2656  2.1666
  877MOL0     H21004   6.310   6.357   1.567 -1.0683 -1.6340 -0.7666
  877MOL0     H21005   6.239   6.443   1.700 -3.8738  0.7850 -1.9015
  877MOL0     H21006   6.844   6.684   2.390  1.7000  0.5170  1.6887
  877MOL0     H21007   6.918   6.679   2.618 -1.7810 -0.1062  0.9835
  877MOL0     H21008   6.724   6.409   3.116 -0.0206 -1.2026  2.4262
  877MOL0     H21009   6.823   6.439   3.340 -0.0382  0.2650  1.1793
  877MOL0     H21010   6.181   7.867   4.104  0.5763 -0.6114  0.5653
  877MOL0     H21011   5.973   7.978   4.038  5.6007 -0.3055  1.8082
  877MOL0     H21012   5.514   7.776   3.664  0.9786  0.0554 -3.4754
  877MOL0     H21013   5.380   7.905   3.541  1.2905 -2.7703  0.8024
  877MOL0     H21014   5.287   8.337   3.660  0.5936 -0.9604  0.5953
  877MOL0     H21015   5.155   8.269   3.580 -0.7884  1.2729  0.5771
  877MOL0     H21016   5.170   8.071   3.759  0.5250 -0.3872  1.8507
  877MOL0     H21017   5.060   8.213   3.769 -0.7403 -0.4164  0.6474
  877MOL0     H21018   5.172   8.157   3.993  1.3219 -2.4895 -1.7617
  877MOL0     H21019   5.322   8.172   3.916  0.9104  2.6415 -2.2726
  877MOL0     H21020   5.282   8.432   3.889 -2.2566  3.5498  0.4636
  877MOL0     H21021   5.275   8.364   4.044 -1.1347 -0.0117  0.2128
  877MOL0     H21022   4.861   8.432   3.960  0.9834  1.0271 -1.3311
  877MOL0     H21023   5.504   8.258   3.769 -0.0232  0.3645 -0.9535
  877MOL0     H21024   5.699   8.102   4.018 -2.5187 -0.3430 -0.5878
  877MOL0     H21025   5.800   8.125   3.882 -0.4220 -2.7785  2.2682
  877MOL0     H21026   5.683   8.247   3.919 -1.4257  0.0500 -2.9328
  878MOL0     O21027   3.070   4.081   9.996 -0.1203 -0.6477  0.0467
  878MOL0     C21028   2.985   4.007  10.043 -1.1244  0.8446 -0.2082
  878MOL0     O21029   2.870   4.056  10.088  0.5070  0.5550 -0.1014
  878MOL0     C21030   2.851   4.195  10.078  0.1297  0.2198  0.2685
  878MOL0     C21031   2.738   4.245  10.012 -0.2064  0.4103  0.0803
  878MOL0     C21032   2.701   4.376  10.028 -0.2868 -0.1240 -0.7788
  878MOL0     C21033   2.777   4.466  10.117  0.3096  0.5531 -0.2598
  878MOL0     O21034   2.736   4.586  10.150  0.5210 -0.8145 -0.3807
  878MOL0     C21035   2.594   4.591  10.189  0.6330 -0.5091 -0.3632
  878MOL0     C21036   2.554   4.705  10.271  0.1778  0.3532  0.1043
  878MOL0     C21037   2.635   4.714  10.394 -0.0325 -0.7739 -0.5209
  878MOL0     C21038   2.601   4.839  10.484  0.3855 -0.4366  0.7586
  878MOL0     C21039   2.450   4.847  10.522 -0.6418 -0.1283  0.6572
  878MOL0     C21040   2.401   4.733  10.613 -0.6239  0.1693 -0.6708
  878MOL0     C21041   2.261   4.743  10.660 -0.1904 -0.4212  0.3126
  878MOL0     C21042   2.163   4.682  10.558  0.2929 -0.5732  0.5400
  878MOL0     N21043   2.176   4.538  10.564  0.5654  0.1296 -0.2345
  878MOL0     C21044   2.243   4.466  10.473  0.1287  0.5041  0.1107
  878MOL0     C21045   2.223   4.338  10.499  0.0992 -0.4953 -0.6282
  878MOL0     C21046   2.275   4.243  10.400  0.1434 -0.2787 -0.3996
  878MOL0     C21047   2.170   4.180  10.319  0.5515 -0.3187  1.0177
  878MOL0     C21048   2.207   4.055  10.237 -0.0874 -0.5026 -0.6453
  878MOL0     C21049   2.080   4.013  10.166  0.4643  0.7070  1.0087
  878MOL0     O21050   2.005   3.933  10.257 -0.0075 -0.2830  0.2379
  878MOL0     C21051   1.877   3.972  10.275 -0.2557  0.6510  0.8531
  878MOL0     C21052   1.849   3.974  10.413  0.6148  0.4772  0.0769
  878MOL0     C21053   1.721   4.006  10.465  0.2128 -0.1395 -0.9937
  878MOL0     C21054   1.701   4.027  10.617 -0.2234 -0.0107  0.1300
  878MOL0     C21055   1.631   4.045  10.366 -0.8626 -0.3520 -0.5293
  878MOL0     C21056   1.482   4.077  10.387  0.1727 -0.4527  0.3858
  878MOL0     O21057   1.417   4.002  10.483  0.0059  1.0377 -0.1271
  878MOL0     C21058   1.287   4.028  10.502  0.0810 -0.9879  0.1910
  878MOL0     C21059   1.261   4.090  10.619 -0.2902  0.6827  0.1250
  878MOL0     C21060   1.137   4.135  10.647  0.1658  0.4770 -0.2621
  878MOL0     C21061   1.027   4.099  10.568 -0.2944  0.8268  0.6930
  878MOL0     O21062   0.901   4.144  10.584 -0.3206  0.0403 -0.2796
  878MOL0     C21063   0.855   4.143  10.714  0.2167  0.0785  0.7236
  878MOL0     C21064   0.704   4.145  10.732  0.7619  0.0403  0.3226
  878MOL0     C21065   0.661   4.133  10.867 -0.8315 -0.9185 -0.6493
  878MOL0     C21066   0.513   4.146  10.888 -0.4608  0.4954  0.2852
  878MOL0     C21067   0.474   4.122  11.032  0.1881  0.2375 -0.2156
  878MOL0     C21068   0.483   4.249  11.114 -0.7517  0.9795 -0.0845
  878MOL0     C21069   0.364   4.337  11.076  0.6384 -0.1273 -0.6026
  878MOL0     C21070   0.334   4.445  11.179  0.1353  0.1778  0.0988
  878MOL0    Cl21071   0.246   4.368  11.319  0.5020 -0.1940  0.1411
  878MOL0     C21072   1.057   4.030  10.445 -0.5262 -0.3670  0.6894
  878MOL0     C21073   1.189   4.005  10.406 -0.9845 -0.1899 -0.2830
  878MOL0     O21074   1.441   4.175  10.330  0.3925  0.1221 -0.8090
  878MOL0     C21075   1.659   4.040  10.226  0.5404 -0.3422  0.0411
  878MOL0     C21076   1.780   3.999  10.185 -0.2748 -0.1904  0.7827
  878MOL0     N21077   2.140   4.329  10.601  0.4962 -0.0468  0.2238
  878MOL0     N21078   2.102   4.449  10.636 -0.5739 -0.3205  0.4410
  878MOL0     C21079   2.901   4.424  10.165 -0.8028 -0.4577 -0.4042
  878MOL0     C21080   2.933   4.291  10.148 -0.1974  0.1349 -1.0523
  878MOL0     C21081   3.029   3.867  10.069 -0.8947  0.0496 -0.2950
  878MOL0     C21082   2.954   3.796  10.169  0.3660  0.2359  0.1163
  878MOL0     C21083   2.986   3.659  10.181  0.5940  0.0492  0.0373
  878MOL0     C21084   3.081   3.594  10.109 -0.0742 -0.0208 -0.4053
  878MOL0     O21085   3.092   3.461  10.110 -0.5591  0.3177 -0.7739
  878MOL0     C21086   3.123   3.384  10.227 -0.1152 -0.3216 -0.1275
  878MOL0     C21087   3.041   3.252  10.240 -0.3780  0.6139 -0.1528
  878MOL0     C21088   3.078   3.149  10.131 -0.1684  0.5876 -0.4370
  878MOL0     C21089   3.212   3.076  10.153 -0.6486 -0.3851  0.1627
  878MOL0     C21090   3.207   2.991  10.274  0.4836  0.8930  0.4133
  878MOL0     C21091   3.190   2.903  10.361  0.6378  1.0509 -0.0503
  878MOL0     C21092   3.160   3.669  10.023 -1.3660 -0.1954  0.1758
  878MOL0     C21093   3.134   3.807   9.995 -0.0714  0.0922 -0.0130
  878MOL0     C21094   3.222   3.870   9.892  0.0187 -0.5024  0.0553
  878MOL0     H21095   2.680   4.170   9.959 -0.2964  0.1172  0.5919
  878MOL0     H21096   2.616   4.412   9.972 -0.2401  3.2094  1.0454
  878MOL0     H21097   2.579   4.500  10.249  2.2646 -0.4361  0.1958
  878MOL0     H21098   2.527   4.579  10.103  0.3176 -0.3431 -0.1415
  878MOL0     H21099   2.555   4.795  10.210  2.2300 -0.6598 -1.4858
  878MOL0     H21100   2.452   4.678  10.299  0.0435  1.5163  0.8181
  878MOL0     H21101   2.615   4.623  10.450  1.2833 -3.6287 -4.2323
  878MOL0     H21102   2.737   4.717  10.354 -0.2614  2.5515 -1.1238
  878MOL0     H21103   2.674   4.834  10.566  2.3104  0.3746 -0.7984
  878MOL0     H21104   2.624   4.921  10.415 -0.1167 -2.1066 -1.4953
  878MOL0     H21105   2.383   4.849  10.436  2.2237 -2.4370 -1.8640
  878MOL0     H21106   2.446   4.941  10.577  2.6449  0.1037  0.6630
  878MOL0     H21107   2.427   4.631  10.583 -1.7329 -0.4843  0.4555
  878MOL0     H21108   2.469   4.739  10.699 -0.1791  3.1330 -1.1404
  878MOL0     H21109   2.233   4.848  10.677  1.9738  0.3612 -0.5272
  878MOL0     H21110   2.241   4.687  10.752 -2.6876  1.2393  0.8924
  878MOL0     H21111   2.069   4.731  10.585  0.6528  0.3635  0.1062
  878MOL0     H21112   2.190   4.718  10.458 -2.7352  1.4045  0.2903
  878MOL0     H21113   2.293   4.511  10.387  0.7288 -0.4190 -0.0449
  878MOL0     H21114   2.332   4.164  10.449  0.3958  1.3624  2.1535
  878MOL0     H21115   2.343   4.295  10.332  0.6257  1.3381  1.2491
  878MOL0     H21116   2.098   4.152  10.396  2.3717 -0.9168  2.5863
  878MOL0     H21117   2.128   4.261  10.258  0.9074 -1.3078 -0.6143
  878MOL0     H21118   2.292   4.080  10.174  2.0170  1.2976  2.6038
  878MOL0     H21119   2.238   3.976  10.307 -1.0763 -0.4087 -0.0845
  878MOL0     H21120   2.024   4.103  10.142  0.6220  0.4567 -0.3880
  878MOL0     H21121   2.107   3.962  10.073  2.7332  3.8340 -0.2358
  878MOL0     H21122   1.927   3.965  10.489  1.5564 -0.9599 -0.9824
  878MOL0     H21123   1.727   3.937  10.673 -2.1943 -1.8629 -1.7350
  878MOL0     H21124   1.595   4.046  10.641 -1.4183 -3.9439 -1.3157
  878MOL0     H21125   1.767   4.110  10.643 -0.9797  0.1369  1.6837
  878MOL0     H21126   1.349   4.108  10.680  1.6426  3.1624 -3.0505
  878MOL0     H21127   1.108   4.186  10.739 -2.0585 -2.2881  0.7242
  878MOL0     H21128   0.880   4.043  10.751  1.0497 -0.6596 -1.6546
  878MOL0     H21129   0.891   4.232  10.767 -0.9333  0.3772  1.0282
  878MOL0     H21130   0.664   4.238  10.692 -2.2515 -0.5478  1.6884
  878MOL0     H21131   0.665   4.061  10.673  1.2784 -1.1458  1.5927
  878MOL0     H21132   0.712   4.205  10.932 -0.5518 -0.4550 -1.3670
  878MOL0     H21133   0.692   4.040  10.914 -3.7406 -1.1861  0.9818
  878MOL0     H21134   0.457   4.071  10.833  2.1091 -0.2966 -1.4626
  878MOL0     H21135   0.476   4.241  10.847  1.5260  2.0506  1.8736
  878MOL0     H21136   0.377   4.074  11.052 -0.9029  2.2920 -0.3873
  878MOL0     H21137   0.548   4.053  11.075 -0.8874 -0.3368  0.7850
  878MOL0     H21138   0.572   4.307  11.088 -0.2743 -0.4857 -1.8793
  878MOL0     H21139   0.475   4.228  11.221 -1.5573 -2.2397 -0.6853
  878MOL0     H21140   0.271   4.279  11.076 -0.6933  1.8913  0.5887
  878MOL0     H21141   0.369   4.389  10.979 -3.1364  3.0256  0.6238
  878MOL0     H21142   0.278   4.524  11.129 -1.1187 -3.0619 -4.2217
  878MOL0     H21143   0.430   4.485  11.212 -0.7303  1.1941  1.4562
  878MOL0     H21144   0.985   3.982  10.379  0.1936  1.5743 -1.6332
  878MOL0     H21145   1.213   3.941  10.322  0.1387  1.0047 -0.9080
  878MOL0     H21146   1.596   4.061  10.140 -0.0067  0.8751  0.7160
  878MOL0     H21147   1.794   3.991  10.078 -0.6965 -0.4925  0.7485
  878MOL0     H21148   2.964   4.487  10.226 -1.8032 -0.7076  0.9270
  878MOL0     H21149   3.029   4.257  10.185  2.2260  3.3138 -3.8635
  878MOL0     H21150   2.893   3.856  10.235  2.3639  1.9795  0.4867
  878MOL0     H21151   2.920   3.601  10.245 -1.1300 -2.9832 -4.0622
  878MOL0     H21152   3.230   3.361  10.220  0.6928  2.9130  0.1420
  878MOL0     H21153   3.096   3.450  10.310 -1.1675 -2.8882  1.6905
  878MOL0     H21154   2.933   3.265  10.225 -0.1079  2.4306 -0.7961
  878MOL0     H21155   3.041   3.206  10.339  2.1125  2.2557  0.6900
  878MOL0     H21156   2.999   3.074  10.124  1.1265 -1.2409  2.4955
  878MOL0     H21157   3.086   3.206  10.038 -0.4201 -1.4914 -1.8026
  878MOL0     H21158   3.307   3.130  10.151  1.9770 -4.3180  2.8373
  878MOL0     H21159   3.227   3.008  10.069  3.4017 -1.1816  1.2763
  878MOL0     H21160   3.175   2.820  10.427 -1.7774  0.7067 -0.9413
  878MOL0     H21161   3.244   3.629   9.967 -1.6400  3.3842 -3.1955
  878MOL0     H21162   3.287   3.797   9.843  1.3672  2.8420 -3.6148
  878MOL0     H21163   3.162   3.909   9.810 -1.5887 -2.0943  0.4035
  878MOL0     H21164   3.286   3.954   9.919  0.3831 -0.2112 -1.6129
  879MOL0     O21165   3.991   7.256   9.658  0.2655  0.4735  0.7872
  879MOL0     C21166   4.059   7.352   9.653  0.1581  0.4429  0.4174
  879MOL0     O21167   4.175   7.363   9.572  0.1260  0.3884 -0.6890
  879MOL0     C21168   4.221   7.271   9.473  0.3254  0.9901 -0.0356
  879MOL0     C21169   4.352   7.274   9.433  0.2843  0.3371  0.1963
  879MOL0     C21170   4.399   7.186   9.331 -0.7149 -0.1491  0.0129
  879MOL0     C21171   4.318   7.088   9.283  0.9731 -0.1304  0.8713
  879MOL0     O21172   4.363   6.998   9.190  0.2187 -0.6678  0.0804
  879MOL0     C21173   4.474   6.916   9.229  0.1465 -0.4886 -0.3823
  879MOL0     C21174   4.532   6.834   9.114  0.1635  0.6339 -0.5300
  879MOL0     C21175   4.606   6.913   9.005  0.4198 -0.2777  0.2849
  879MOL0     C21176   4.677   6.835   8.892 -0.8385 -0.1048 -0.1771
  879MOL0     C21177   4.761   6.947   8.823 -0.2299 -0.3594 -0.5858
  879MOL0     C21178   4.685   7.080   8.780  0.0321 -0.6411 -0.2364
  879MOL0     C21179   4.753   7.168   8.678  0.2062  0.3436 -0.4297
  879MOL0     C21180   4.658   7.275   8.636  1.0951 -0.7758 -0.4731
  879MOL0     N21181   4.721   7.366   8.533  0.4892  0.1280  0.3601
  879MOL0     C21182   4.728   7.505   8.534  0.9879 -0.8004  0.0853
  879MOL0     C21183   4.785   7.541   8.423 -0.5580 -0.3993  0.1392
  879MOL0     C21184   4.813   7.678   8.354 -0.1833  0.8308 -0.6774
  879MOL0     C21185   4.891   7.766   8.452 -0.1472  0.2717  1.2386
  879MOL0     C21186   5.036   7.732   8.481 -0.6530 -0.2746 -0.1629
  879MOL0     C21187   5.133   7.821   8.402 -0.2935 -0.7924  0.3990
  879MOL0     O21188   5.084   7.957   8.374 -0.3734 -0.0671  0.0041
  879MOL0     C21189   5.098   8.062   8.462 -0.8715  0.7351  0.9879
  879MOL0     C21190   5.082   8.187   8.408 -0.1275 -0.2156 -0.0943
  879MOL0     C21191   5.100   8.305   8.495  0.2577  0.9424 -0.7428
  879MOL0     C21192   5.109   8.438   8.422  0.4835  0.1782  0.1761
  879MOL0     C21193   5.119   8.295   8.629  0.2489 -0.1851  0.3166
  879MOL0     C21194   5.133   8.406   8.725 -0.4760 -0.1268  0.2143
  879MOL0     O21195   5.212   8.377   8.833 -0.2837  0.0276  0.4408
  879MOL0     C21196   5.265   8.475   8.909  0.3464 -0.2783 -0.0468
  879MOL0     C21197   5.270   8.463   9.045  0.2512 -0.0517  0.1068
  879MOL0     C21198   5.301   8.571   9.128  0.0952  0.0096  0.3605
  879MOL0     C21199   5.344   8.695   9.074  0.1542  0.3943  0.2851
  879MOL0     O21200   5.389   8.803   9.141  0.5076  0.3610  0.0700
  879MOL0     C21201   5.434   8.776   9.283  0.3880  0.1213  0.1409
  879MOL0     C21202   5.478   8.901   9.374  0.2169 -0.0180  0.0934
  879MOL0     C21203   5.553   9.008   9.298 -0.2334 -0.9041 -0.5484
  879MOL0     C21204   5.534   9.152   9.359 -0.1344  0.4400 -0.3857
  879MOL0     C21205   5.638   9.255   9.303  1.1843 -0.2823  0.7778
  879MOL0     C21206   5.623   9.393   9.373  0.1024 -0.4419  0.7384
  879MOL0     C21207   5.722   9.504   9.314  0.2639  0.4041 -1.1425
  879MOL0     C21208   5.679   9.646   9.356 -1.0399  0.8849 -0.7077
  879MOL0    Cl21209   5.707   9.651   9.526  0.2845 -0.2829 -0.1251
  879MOL0     C21210   5.350   8.697   8.931  0.0201  0.4744 -0.6975
  879MOL0     C21211   5.309   8.592   8.860  0.0674  0.9584 -0.5882
  879MOL0     O21212   5.075   8.506   8.711  0.3771 -0.0958  0.4481
  879MOL0     C21213   5.126   8.161   8.674 -0.5324 -0.5320 -0.0041
  879MOL0     C21214   5.125   8.047   8.598 -0.3822 -0.6411 -0.0274
  879MOL0     N21215   4.818   7.425   8.349 -0.1397 -0.2300  0.2055
  879MOL0     N21216   4.776   7.320   8.406 -1.4252 -0.5628 -0.6790
  879MOL0     C21217   4.183   7.070   9.342 -1.2340 -0.6145  0.2089
  879MOL0     C21218   4.135   7.165   9.429 -0.2174  0.2379  0.2165
  879MOL0     C21219   4.034   7.469   9.731  0.2920  0.4589 -0.4611
  879MOL0     C21220   4.141   7.567   9.739 -1.0346  0.1105  0.0554
  879MOL0     C21221   4.127   7.680   9.823  0.0669 -0.3516  0.2181
  879MOL0     C21222   4.013   7.706   9.893 -0.4807  0.1782  0.3190
  879MOL0     O21223   3.991   7.819   9.971  0.2203 -0.6474  0.8248
  879MOL0     C21224   4.115   7.888  10.017  0.0376 -0.5700  0.7477
  879MOL0     C21225   4.082   8.010  10.095  0.3781  0.0797  0.7450
  879MOL0     C21226   4.206   8.057  10.162  0.5897 -0.9498 -0.4307
  879MOL0     C21227   4.162   8.141  10.285 -0.3611 -0.1200 -0.1563
  879MOL0     C21228   4.248   8.258  10.295 -1.0270 -0.6219  0.5650
  879MOL0     C21229   4.312   8.361  10.319 -0.2749  0.4914  0.0957
  879MOL0     C21230   3.905   7.627   9.869  0.2974 -0.0368 -0.0317
  879MOL0     C21231   3.905   7.511   9.785 -0.1575 -0.5313  0.0331
  879MOL0     C21232   3.784   7.433   9.766  0.1880 -0.9957  0.6359
  879MOL0     H21233   4.406   7.364   9.459 -1.3936  0.9304  1.8330
  879MOL0     H21234   4.490   7.182   9.272 -2.0476 -2.2805 -2.0590
  879MOL0     H21235   4.447   6.853   9.315  2.1328  3.2360  3.3714
  879MOL0     H21236   4.559   6.980   9.254 -1.8650  1.8224  0.9329
  879MOL0     H21237   4.606   6.765   9.155  0.2047 -0.3322 -2.1415
  879MOL0     H21238   4.454   6.778   9.061 -0.7597 -0.7310  2.0589
  879MOL0     H21239   4.527   6.976   8.963 -0.0862 -1.5429 -0.7071
  879MOL0     H21240   4.675   6.972   9.065  0.3838 -0.2497  0.2984
  879MOL0     H21241   4.736   6.761   8.947 -0.0244  0.9110  0.3278
  879MOL0     H21242   4.616   6.770   8.828 -0.0389 -3.4509  2.1676
  879MOL0     H21243   4.803   6.899   8.734 -0.1577 -0.2365 -0.6188
  879MOL0     H21244   4.849   6.987   8.873  1.2718 -1.8986 -1.8590
  879MOL0     H21245   4.589   7.051   8.736 -0.3606 -0.2818  0.3832
  879MOL0     H21246   4.672   7.139   8.871 -0.4251 -1.3536  0.1688
  879MOL0     H21247   4.786   7.108   8.593  0.9060  1.8677 -1.2849
  879MOL0     H21248   4.837   7.226   8.719 -2.1771  3.3467  0.6764
  879MOL0     H21249   4.563   7.240   8.594 -0.4096  0.4771  1.6979
  879MOL0     H21250   4.632   7.341   8.719  0.0649 -3.4543  1.4865
  879MOL0     H21251   4.672   7.570   8.600  1.2610  1.3136 -1.6589
  879MOL0     H21252   4.720   7.722   8.315  0.1193  1.7555 -0.3870
  879MOL0     H21253   4.876   7.657   8.268  0.7799  2.2273 -0.3558
  879MOL0     H21254   4.894   7.858   8.394 -2.0377 -0.1363  0.4250
  879MOL0     H21255   4.830   7.780   8.542 -0.3034 -0.4522  1.2512
  879MOL0     H21256   5.043   7.756   8.587  0.6010 -0.9624 -0.0762
  879MOL0     H21257   5.063   7.627   8.467  3.3094  0.6092 -0.4175
  879MOL0     H21258   5.227   7.837   8.455  0.6829  0.2764 -1.5049
  879MOL0     H21259   5.158   7.776   8.305 -2.6796 -2.8305  0.6386
  879MOL0     H21260   5.054   8.202   8.304  0.1182 -0.0937 -0.1432
  879MOL0     H21261   5.214   8.468   8.423  1.0141 -1.4709 -1.0801
  879MOL0     H21262   5.050   8.515   8.472 -0.4832 -0.2802 -0.2266
  879MOL0     H21263   5.069   8.426   8.321  1.1361 -0.4208 -0.0262
  879MOL0     H21264   5.257   8.371   9.101  1.1938  0.4397  1.1653
  879MOL0     H21265   5.301   8.553   9.235  1.2901 -2.0316  0.0637
  879MOL0     H21266   5.351   8.731   9.339  1.3656  0.6215  2.0796
  879MOL0     H21267   5.527   8.720   9.270  1.7891  2.0451  1.2525
  879MOL0     H21268   5.391   8.953   9.415  0.4959  0.2243  0.3839
  879MOL0     H21269   5.532   8.869   9.463 -2.9495 -1.5193  1.6408
  879MOL0     H21270   5.511   9.026   9.199 -1.9935  1.8513  0.6019
  879MOL0     H21271   5.658   8.977   9.306  0.2673  0.6052 -0.9846
  879MOL0     H21272   5.559   9.148   9.466  1.1291  0.6653 -0.6553
  879MOL0     H21273   5.432   9.186   9.339  0.5594  2.0404 -1.4625
  879MOL0     H21274   5.734   9.203   9.317  1.4252  0.6368  2.9447
  879MOL0     H21275   5.612   9.263   9.197  3.8023 -1.5474 -0.0415
  879MOL0     H21276   5.638   9.388   9.482 -3.1603  1.9076  1.4689
  879MOL0     H21277   5.522   9.432   9.357 -0.6764 -0.6479  4.3197
  879MOL0     H21278   5.724   9.494   9.205  2.3124 -2.8035 -0.9719
  879MOL0     H21279   5.823   9.481   9.348  0.0444  0.8487 -0.1652
  879MOL0     H21280   5.574   9.666   9.333 -0.7902 -0.7148 -3.6503
  879MOL0     H21281   5.741   9.723   9.308  2.8722 -0.2611  1.9825
  879MOL0     H21282   5.396   8.785   8.886  1.8569 -0.0465  0.0612
  879MOL0     H21283   5.302   8.593   8.751 -3.7622 -1.1921 -0.5087
  879MOL0     H21284   5.123   8.155   8.782  0.3520 -0.7975  0.0082
  879MOL0     H21285   5.132   7.946   8.638  0.0101 -1.2078 -1.4676
  879MOL0     H21286   4.126   6.982   9.311  4.6239 -5.0517  0.2226
  879MOL0     H21287   4.032   7.148   9.458  0.7019 -1.9708  2.6146
  879MOL0     H21288   4.242   7.564   9.700 -0.5260  0.9860  1.2391
  879MOL0     H21289   4.210   7.748   9.837 -0.6366  0.6740 -0.4785
  879MOL0     H21290   4.179   7.824  10.078  3.5772  3.5305  1.8927
  879MOL0     H21291   4.169   7.938   9.936 -2.9356  3.0963  0.7596
  879MOL0     H21292   4.003   7.980  10.164 -0.3030  2.3170  0.9925
  879MOL0     H21293   4.039   8.086  10.030  2.9761 -0.2259 -1.5321
  879MOL0     H21294   4.270   7.978  10.203  0.9217 -0.3830  0.1712
  879MOL0     H21295   4.264   8.107  10.084  0.6121  0.3000  0.3507
  879MOL0     H21296   4.162   8.084  10.379  2.1154  1.7025  1.0633
  879MOL0     H21297   4.064   8.187  10.269  0.5764  2.0881  0.0930
  879MOL0     H21298   4.356   8.456  10.341 -1.3282  0.7211  1.3134
  879MOL0     H21299   3.813   7.660   9.916  0.3849 -1.1196  0.9550
  879MOL0     H21300   3.768   7.352   9.838 -0.2033 -0.8486  0.7189
  879MOL0     H21301   3.698   7.496   9.790  0.9813  0.4814 -0.3111
  879MOL0     H21302   3.778   7.400   9.662  0.5690 -3.2154  1.2621
  880MOL0     O21303   5.616   9.551   6.120 -0.8860 -0.3204 -0.1387
  880MOL0     C21304   5.669   9.442   6.085  0.4252  0.0535 -0.2027
  880MOL0     O21305   5.636   9.326   6.144 -0.9528 -0.6894 -0.7122
  880MOL0     C21306   5.566   9.309   6.258  1.4643 -0.1112  0.7176
  880MOL0     C21307   5.429   9.300   6.249  0.1089  0.7444 -0.3586
  880MOL0     C21308   5.354   9.299   6.365 -0.0681  0.1423 -0.0063
  880MOL0     C21309   5.411   9.305   6.485 -0.2667 -0.3371  0.5135
  880MOL0     O21310   5.326   9.297   6.584  1.2195  0.2097  0.8606
  880MOL0     C21311   5.337   9.391   6.690 -0.8040 -0.5864 -1.4293
  880MOL0     C21312   5.205   9.399   6.765 -0.0043 -0.7050  0.3917
  880MOL0     C21313   5.121   9.513   6.705 -0.8410  0.2215 -0.1763
  880MOL0     C21314   5.063   9.476   6.556 -0.9361 -0.8656  0.0324
  880MOL0     C21315   4.947   9.571   6.532 -1.0941 -0.2201 -0.0985
  880MOL0     C21316   4.897   9.571   6.385 -0.3406  1.3094  0.6779
  880MOL0     C21317   4.783   9.661   6.363  0.4400 -0.9817  0.0853
  880MOL0     C21318   4.657   9.617   6.411  0.1497 -0.8271 -0.5077
  880MOL0     N21319   4.586   9.532   6.320  0.0099  0.0201  1.0322
  880MOL0     C21320   4.602   9.399   6.286  0.3482 -0.1204 -0.0376
  880MOL0     C21321   4.519   9.368   6.187  0.1332  0.1592 -0.2201
  880MOL0     C21322   4.496   9.243   6.100 -1.1104  0.3806 -0.2154
  880MOL0     C21323   4.626   9.161   6.084  0.0493  1.2056 -0.0194
  880MOL0     C21324   4.582   9.028   6.019  0.3614 -0.4369  0.4180
  880MOL0     C21325   4.703   8.937   6.017  0.2443  0.9474 -0.7636
  880MOL0     O21326   4.816   9.000   5.960 -0.2182  0.5944 -0.1293
  880MOL0     C21327   4.937   8.942   5.979 -0.1238 -0.0311 -0.8906
  880MOL0     C21328   5.045   9.013   5.929  1.2722 -0.6663 -0.7583
  880MOL0     C21329   5.171   8.966   5.931  0.7711 -0.1224  0.4248
  880MOL0     C21330   5.285   9.062   5.899  0.7822  0.6068 -1.3540
  880MOL0     C21331   5.186   8.833   5.989  0.3254 -0.1934  0.0704
  880MOL0     C21332   5.308   8.752   5.991 -0.5471  0.2985 -0.4211
  880MOL0     O21333   5.304   8.625   6.029  0.1060  0.5082 -0.6487
  880MOL0     C21334   5.413   8.550   6.037  0.0471  0.5059  0.2632
  880MOL0     C21335   5.493   8.570   6.155  0.3252 -1.5032  0.7807
  880MOL0     C21336   5.608   8.492   6.181  0.6313 -0.0876  0.8931
  880MOL0     C21337   5.636   8.383   6.092  1.2481  0.1805  0.6940
  880MOL0     O21338   5.742   8.291   6.108  0.0872 -0.0377 -0.9133
  880MOL0     C21339   5.767   8.176   6.035  0.5891  1.0683  0.5111
  880MOL0     C21340   5.715   8.037   6.069 -0.2374 -0.3484  0.8850
  880MOL0     C21341   5.768   7.923   5.990 -0.0152  0.1478  0.9193
  880MOL0     C21342   5.709   7.919   5.850  0.0056 -0.2186 -0.5730
  880MOL0     C21343   5.790   7.825   5.749  0.8495 -0.2722  0.2182
  880MOL0     C21344   5.713   7.827   5.620  0.0575 -0.0011  1.2390
  880MOL0     C21345   5.736   7.703   5.530  0.6621 -0.2090 -0.0153
  880MOL0     C21346   5.887   7.660   5.532  1.0746  0.3588  0.7504
  880MOL0    Cl21347   5.932   7.553   5.402  0.2132 -0.2374  0.3106
  880MOL0     C21348   5.549   8.367   5.981  0.2366 -0.3788 -0.7406
  880MOL0     C21349   5.440   8.442   5.959  0.7500 -0.4382  0.5747
  880MOL0     O21350   5.416   8.816   5.980 -0.1749  0.6622  0.1043
  880MOL0     C21351   5.073   8.759   6.030 -0.5307  0.0052 -0.7836
  880MOL0     C21352   4.951   8.817   6.040 -0.0814  0.3819  0.7317
  880MOL0     N21353   4.441   9.480   6.168  0.3851 -1.2466 -0.1740
  880MOL0     N21354   4.474   9.573   6.249 -0.0778  0.2830  1.3855
  880MOL0     C21355   5.550   9.312   6.503 -0.0329 -0.8578  0.1908
  880MOL0     C21356   5.630   9.303   6.388  0.0542  0.3641 -0.5423
  880MOL0     C21357   5.780   9.439   5.984 -0.7707  0.9058  1.2709
  880MOL0     C21358   5.828   9.311   5.951  0.2289 -0.0363  0.1875
  880MOL0     C21359   5.916   9.300   5.849 -0.4079  0.6186 -0.3253
  880MOL0     C21360   5.955   9.406   5.765 -0.0130 -0.2019  0.2712
  880MOL0     O21361   6.030   9.392   5.647  0.4898  0.0604 -0.2071
  880MOL0     C21362   6.033   9.263   5.584  0.0351 -0.1141 -0.7014
  880MOL0     C21363   6.160   9.183   5.621  0.1974  0.4017  0.0621
  880MOL0     C21364   6.274   9.284   5.588  0.1112  0.4638 -0.3531
  880MOL0     C21365   6.411   9.212   5.614  0.1423  0.0789 -0.1813
  880MOL0     C21366   6.448   9.227   5.747 -0.0034  0.0972 -1.2928
  880MOL0     C21367   6.479   9.236   5.867  0.1980  0.1806 -0.0454
  880MOL0     C21368   5.914   9.534   5.797 -0.2128  0.9996 -0.0023
  880MOL0     C21369   5.818   9.551   5.910  0.4747  0.4852  0.3394
  880MOL0     C21370   5.772   9.691   5.942 -0.6674 -0.4902  0.0917
  880MOL0     H21371   5.376   9.298   6.154  0.6653 -5.2955 -0.9605
  880MOL0     H21372   5.245   9.294   6.360 -0.1391  1.9187 -1.0197
  880MOL0     H21373   5.377   9.491   6.670 -0.0587  0.5100  3.9294
  880MOL0     H21374   5.420   9.347   6.746 -0.1877  0.1576 -1.7443
  880MOL0     H21375   5.149   9.305   6.760  1.2878 -1.4494 -0.8196
  880MOL0     H21376   5.233   9.422   6.868  1.7207 -1.2211  0.0644
  880MOL0     H21377   5.047   9.525   6.784 -0.0852 -1.3980  0.8352
  880MOL0     H21378   5.176   9.607   6.711  0.3702 -0.4562 -0.4156
  880MOL0     H21379   5.141   9.500   6.483  0.7340 -0.1673  1.9502
  880MOL0     H21380   5.030   9.372   6.557 -1.8074 -0.6384 -1.5643
  880MOL0     H21381   4.985   9.673   6.542  0.8240 -0.1079 -5.5273
  880MOL0     H21382   4.872   9.548   6.608 -0.6256 -2.3219 -0.2004
  880MOL0     H21383   4.984   9.584   6.320 -2.3359 -1.0958 -2.8297
  880MOL0     H21384   4.870   9.466   6.366  2.6396  0.2176  1.7498
  880MOL0     H21385   4.769   9.682   6.256 -2.5133  2.7406  0.9983
  880MOL0     H21386   4.811   9.760   6.399 -1.9789 -0.5986  1.1185
  880MOL0     H21387   4.664   9.560   6.505  2.1491  1.0531  0.5891
  880MOL0     H21388   4.589   9.702   6.423  1.7646  0.4435 -0.0235
  880MOL0     H21389   4.673   9.323   6.316  0.6606  1.2360  2.9783
  880MOL0     H21390   4.447   9.268   6.006  0.5885  1.2435 -0.9121
  880MOL0     H21391   4.420   9.189   6.158  1.0405 -3.5632 -0.6841
  880MOL0     H21392   4.702   9.214   6.026  1.9053  2.1428  3.0317
  880MOL0     H21393   4.677   9.135   6.177  0.3661 -1.5554 -0.8932
  880MOL0     H21394   4.504   8.970   6.069  0.8838 -1.7400 -0.2263
  880MOL0     H21395   4.543   9.046   5.919 -1.7189 -2.6669  0.7314
  880MOL0     H21396   4.727   8.920   6.122  1.9785  2.9999 -0.7661
  880MOL0     H21397   4.684   8.840   5.970  0.9848  1.5037 -2.3000
  880MOL0     H21398   5.030   9.110   5.883  2.8613 -0.6757 -1.3478
  880MOL0     H21399   5.239   9.158   5.875 -0.4398  0.4443  0.1896
  880MOL0     H21400   5.340   9.037   5.808  2.2083  2.3629 -1.0124
  880MOL0     H21401   5.356   9.070   5.981  1.0013 -0.2997 -1.4370
  880MOL0     H21402   5.455   8.645   6.224 -0.6826 -3.1092  2.0743
  880MOL0     H21403   5.678   8.517   6.260  0.6345 -0.4536  1.0052
  880MOL0     H21404   5.742   8.188   5.930  3.1923 -0.4590 -0.3707
  880MOL0     H21405   5.876   8.165   6.043  0.6622  2.4169  1.8070
  880MOL0     H21406   5.750   8.013   6.170  2.5718  0.7968  0.3044
  880MOL0     H21407   5.609   8.033   6.045  0.0728 -0.9866 -0.4532
  880MOL0     H21408   5.743   7.833   6.046  2.6665 -0.3229  1.5050
  880MOL0     H21409   5.876   7.936   5.973 -0.2638  1.6394  0.3174
  880MOL0     H21410   5.703   8.023   5.817 -0.3879  0.6621  2.0425
  880MOL0     H21411   5.606   7.886   5.857  0.0769 -0.9433 -2.3664
  880MOL0     H21412   5.890   7.866   5.731  0.2192  0.2634 -2.5237
  880MOL0     H21413   5.798   7.720   5.779 -1.7146 -1.2055 -1.9291
  880MOL0     H21414   5.751   7.911   5.560  0.6907 -1.0590  0.1067
  880MOL0     H21415   5.607   7.839   5.643  0.1519  3.3656  0.4241
  880MOL0     H21416   5.692   7.709   5.431 -1.2929  1.0342  0.8751
  880MOL0     H21417   5.692   7.620   5.587 -0.6205  0.7120  0.3706
  880MOL0     H21418   5.914   7.592   5.614  1.6944 -1.4929 -0.9051
  880MOL0     H21419   5.957   7.741   5.513  1.9774 -0.5519  0.0555
  880MOL0     H21420   5.559   8.281   5.916 -1.3201  1.6267 -3.8634
  880MOL0     H21421   5.366   8.400   5.892  1.8071 -1.9965  0.3382
  880MOL0     H21422   5.073   8.657   6.068  0.5204  1.2729  3.0676
  880MOL0     H21423   4.873   8.766   6.094 -0.6716  1.3331  0.8116
  880MOL0     H21424   5.591   9.340   6.599 -1.5344  7.5858 -0.8501
  880MOL0     H21425   5.738   9.308   6.395  0.2817  1.0504 -3.3810
  880MOL0     H21426   5.798   9.217   5.995  1.1507 -0.3929  0.0663
  880MOL0     H21427   5.953   9.199   5.835 -1.3496  0.4789 -1.9503
  880MOL0     H21428   5.954   9.191   5.605  0.8713 -0.7403  0.3920
  880MOL0     H21429   6.042   9.282   5.476 -1.9092  0.0630 -0.8733
  880MOL0     H21430   6.163   9.106   5.543 -1.0407  0.2181  0.1938
  880MOL0     H21431   6.153   9.135   5.719 -0.8637  0.9080  0.2414
  880MOL0     H21432   6.267   9.315   5.483  2.5868 -1.8805 -1.3431
  880MOL0     H21433   6.274   9.375   5.648  1.1202 -0.0713  0.5046
  880MOL0     H21434   6.492   9.248   5.551  1.1039  0.6125  1.2958
  880MOL0     H21435   6.386   9.108   5.591  1.2033  0.4943 -3.7967
  880MOL0     H21436   6.487   9.247   5.973 -3.1160 -0.8899  0.4423
  880MOL0     H21437   5.953   9.618   5.741  0.0067  1.3610  0.6827
  880MOL0     H21438   5.802   9.757   5.860  0.6624  0.7734  1.5063
  880MOL0     H21439   5.664   9.700   5.950 -0.3817  1.4452  4.2324
  880MOL0     H21440   5.811   9.729   6.037 -0.0994 -1.7107  0.3623
  881MOL0     O21441   0.763   4.364   7.550  0.3375 -0.1358 -1.2958
  881MOL0     C21442   0.833   4.266   7.518  0.1336 -0.1431  0.6698
  881MOL0     O21443   0.963   4.268   7.467  0.1320 -0.4474 -0.0442
  881MOL0     C21444   1.013   4.392   7.429  0.0443 -0.3851 -0.0578
  881MOL0     C21445   1.007   4.422   7.294  0.5261 -1.1653  0.1720
  881MOL0     C21446   1.081   4.534   7.245 -0.0283 -0.9742 -0.4146
  881MOL0     C21447   1.123   4.631   7.335  0.2317  0.8801 -0.8118
  881MOL0     O21448   1.195   4.740   7.290 -0.2802 -0.1395  0.8283
  881MOL0     C21449   1.176   4.868   7.359 -0.3101 -0.0181  0.4884
  881MOL0     C21450   1.301   4.894   7.440 -0.3157  0.2072 -0.0738
  881MOL0     C21451   1.298   5.023   7.513  0.4963 -0.2037  0.0722
  881MOL0     C21452   1.424   5.053   7.599  0.7921 -0.0901  0.0816
  881MOL0     C21453   1.416   5.176   7.688 -0.5642  0.8325 -0.3687
  881MOL0     C21454   1.328   5.162   7.814  0.0997 -1.1795  0.0013
  881MOL0     C21455   1.350   5.286   7.898 -0.5802  0.2332 -0.1682
  881MOL0     C21456   1.231   5.385   7.906  0.1537  0.4605  0.5972
  881MOL0     N21457   1.157   5.361   8.030 -0.4422  0.1984  0.0151
  881MOL0     C21458   1.084   5.251   8.059 -0.0160 -0.3927 -0.6949
  881MOL0     C21459   1.005   5.286   8.163  1.3774 -0.2714  0.9637
  881MOL0     C21460   0.884   5.200   8.230 -0.9120 -0.5388 -0.3307
  881MOL0     C21461   0.902   5.176   8.377 -0.3420 -0.0640 -0.2303
  881MOL0     C21462   0.782   5.089   8.429 -0.2416 -0.1080  0.0078
  881MOL0     C21463   0.807   4.940   8.424 -1.1009 -0.1676  0.0701
  881MOL0     O21464   0.695   4.872   8.484  0.2545  0.6818  0.5296
  881MOL0     C21465   0.687   4.737   8.502  0.3054  0.7255  0.0217
  881MOL0     C21466   0.565   4.692   8.553  0.6395  0.1368 -0.0163
  881MOL0     C21467   0.546   4.558   8.592  0.2419  0.0958 -0.6035
  881MOL0     C21468   0.417   4.527   8.662  0.1104  0.4877  0.0699
  881MOL0     C21469   0.652   4.464   8.560  0.5011 -0.7843  0.4780
  881MOL0     C21470   0.656   4.325   8.595 -0.1969  0.2097  0.2037
  881MOL0     O21471   0.748   4.237   8.527  0.4199 -0.7301 -0.3236
  881MOL0     C21472   0.739   4.107   8.555 -0.1661 -0.8509  0.1960
  881MOL0     C21473   0.622   4.029   8.563 -0.1608  0.2918  0.5073
  881MOL0     C21474   0.635   3.889   8.565 -0.1762 -0.0576 -0.3496
  881MOL0     C21475   0.758   3.826   8.560  0.0406 -0.3426 -0.2060
  881MOL0     O21476   0.781   3.687   8.547  0.2782 -0.6977  0.3148
  881MOL0     C21477   0.695   3.605   8.465  0.5676  0.2687  0.0648
  881MOL0     C21478   0.779   3.487   8.416  0.3768  0.2899  0.5211
  881MOL0     C21479   0.693   3.367   8.366 -0.3260  0.1894 -0.5826
  881MOL0     C21480   0.767   3.261   8.292 -0.1334  0.6554  0.0805
  881MOL0     C21481   0.673   3.149   8.226  0.3681 -0.2931  0.8035
  881MOL0     C21482   0.755   3.043   8.156 -0.8390  0.8286  0.1278
  881MOL0     C21483   0.679   2.948   8.059  1.2046  0.0142  0.0756
  881MOL0     C21484   0.785   2.845   8.020 -0.7717 -0.2935 -0.6951
  881MOL0    Cl21485   0.912   2.916   7.920  0.2371  0.1064  0.0135
  881MOL0     C21486   0.871   3.914   8.583  1.4305  0.2211  0.1051
  881MOL0     C21487   0.861   4.049   8.561 -0.4416  0.7977 -0.3002
  881MOL0     O21488   0.572   4.294   8.679 -0.6857  0.3694  0.6216
  881MOL0     C21489   0.768   4.516   8.512  0.0877 -0.7020 -0.0404
  881MOL0     C21490   0.782   4.646   8.476 -0.8537 -0.0073  0.9978
  881MOL0     N21491   1.028   5.415   8.200 -0.4203 -0.1455  0.3155
  881MOL0     N21492   1.117   5.459   8.115  0.8831  0.4858 -0.3905
  881MOL0     C21493   1.119   4.607   7.474  0.4813 -0.2677  0.0861
  881MOL0     C21494   1.067   4.495   7.520  0.6345  1.3094  0.7245
  881MOL0     C21495   0.784   4.130   7.547  0.2691  0.5998  0.7735
  881MOL0     C21496   0.834   4.015   7.468  0.1395 -0.3120 -0.4581
  881MOL0     C21497   0.770   3.891   7.475 -0.1999  0.3232  0.7677
  881MOL0     C21498   0.667   3.864   7.566  0.2410  0.7535 -0.4142
  881MOL0     O21499   0.643   3.740   7.576  0.1590  0.2874  0.4015
  881MOL0     C21500   0.518   3.700   7.632 -0.0051  0.3754 -0.0786
  881MOL0     C21501   0.496   3.550   7.610 -0.8402 -0.6040 -0.0978
  881MOL0     C21502   0.358   3.526   7.547  0.4825  0.4576 -0.3799
  881MOL0     C21503   0.341   3.396   7.470  0.2353 -0.5183 -0.5375
  881MOL0     C21504   0.414   3.290   7.538 -0.1629 -0.5528 -0.6191
  881MOL0     C21505   0.465   3.194   7.588  0.0940 -0.0269 -0.7059
  881MOL0     C21506   0.620   3.967   7.648 -0.6886 -0.6372  0.1610
  881MOL0     C21507   0.676   4.097   7.639 -0.8001  0.4644  0.2636
  881MOL0     C21508   0.605   4.194   7.736 -0.4323  0.5463  0.0248
  881MOL0     H21509   0.959   4.347   7.232 -1.9322  0.8361 -0.5124
  881MOL0     H21510   1.114   4.553   7.143  2.1907  4.3580  0.9808
  881MOL0     H21511   1.082   4.869   7.415 -1.0629  0.1945 -0.7425
  881MOL0     H21512   1.165   4.936   7.275 -2.0447 -3.4476 -2.2896
  881MOL0     H21513   1.320   4.819   7.517  1.3481  1.7693  1.1111
  881MOL0     H21514   1.383   4.874   7.370 -0.1730 -1.3996  0.5123
  881MOL0     H21515   1.280   5.102   7.439 -1.3686 -0.9775 -0.3652
  881MOL0     H21516   1.215   5.030   7.584  0.4623  0.0410  0.0111
  881MOL0     H21517   1.459   4.979   7.671  0.9505 -1.5611 -1.4648
  881MOL0     H21518   1.507   5.057   7.527  0.7662 -0.1148  0.0505
  881MOL0     H21519   1.387   5.265   7.631  3.4243  2.3587 -0.3432
  881MOL0     H21520   1.515   5.194   7.731  0.0919 -1.5056 -0.7728
  881MOL0     H21521   1.225   5.134   7.791  1.3868 -5.3172 -1.6035
  881MOL0     H21522   1.359   5.072   7.869  0.7840 -2.3831 -2.2070
  881MOL0     H21523   1.442   5.343   7.880  0.3812 -0.5025  2.0388
  881MOL0     H21524   1.376   5.263   8.001  1.0049 -2.4260 -1.0689
  881MOL0     H21525   1.262   5.489   7.917  2.1941 -0.2954  2.6871
  881MOL0     H21526   1.163   5.371   7.821 -0.4312 -0.5420  1.2000
  881MOL0     H21527   1.084   5.158   8.003  0.7356 -0.7638 -0.0925
  881MOL0     H21528   0.881   5.103   8.180 -0.0340  1.2511 -4.2426
  881MOL0     H21529   0.788   5.248   8.207 -1.3403 -1.8732 -1.4953
  881MOL0     H21530   0.996   5.123   8.390 -1.6897 -3.4400 -2.6958
  881MOL0     H21531   0.906   5.266   8.438  2.9941 -0.9545  1.0760
  881MOL0     H21532   0.757   5.120   8.531  3.4186  2.3200  0.3350
  881MOL0     H21533   0.695   5.113   8.366  0.5424  1.0737 -0.6621
  881MOL0     H21534   0.825   4.920   8.318 -4.8289  3.4242 -1.4890
  881MOL0     H21535   0.896   4.909   8.480 -0.2303  1.0231 -0.5913
  881MOL0     H21536   0.481   4.758   8.572 -0.1870 -0.9936  0.3529
  881MOL0     H21537   0.363   4.619   8.686 -0.3397  0.2509 -0.0128
  881MOL0     H21538   0.428   4.475   8.758  0.2673  2.4089  1.1397
  881MOL0     H21539   0.346   4.467   8.603 -0.0992 -1.4163  2.1110
  881MOL0     H21540   0.520   4.062   8.545  1.7210  5.7078 -2.6285
  881MOL0     H21541   0.545   3.832   8.545 -0.2488 -0.7054  1.6579
  881MOL0     H21542   0.612   3.566   8.525  1.3454 -3.4198 -0.9881
  881MOL0     H21543   0.666   3.661   8.376  1.3978  0.5557 -0.0326
  881MOL0     H21544   0.845   3.525   8.337 -1.1134  0.4128 -0.7187
  881MOL0     H21545   0.836   3.452   8.502 -2.5464 -0.0940  2.4540
  881MOL0     H21546   0.616   3.413   8.304  1.1580  1.8175 -1.3001
  881MOL0     H21547   0.644   3.314   8.448 -0.9260 -1.3149 -1.8632
  881MOL0     H21548   0.839   3.202   8.349 -0.8535 -0.3009  0.0204
  881MOL0     H21549   0.816   3.306   8.205  3.3934  1.0683  2.1052
  881MOL0     H21550   0.620   3.098   8.308  0.2726  2.4098  2.5690
  881MOL0     H21551   0.602   3.195   8.156  3.1465  0.5173 -1.6644
  881MOL0     H21552   0.814   2.988   8.229 -1.7987 -0.2842  0.0870
  881MOL0     H21553   0.828   3.097   8.094 -1.9903  2.0973 -0.1563
  881MOL0     H21554   0.640   2.992   7.967 -2.9038 -1.0709  1.0774
  881MOL0     H21555   0.592   2.905   8.109 -0.8049  2.6247 -0.9178
  881MOL0     H21556   0.746   2.760   7.964  1.1002 -1.1641 -0.7573
  881MOL0     H21557   0.836   2.808   8.109  1.7646  0.8733 -1.5467
  881MOL0     H21558   0.962   3.856   8.596  0.0241 -1.6741  2.1452
  881MOL0     H21559   0.952   4.107   8.551  0.5078 -0.4513  0.8172
  881MOL0     H21560   0.854   4.451   8.513  0.1807 -0.6311  2.4555
  881MOL0     H21561   0.882   4.688   8.471 -0.6789 -0.4063  1.0945
  881MOL0     H21562   1.164   4.681   7.539  0.8189 -0.4175  0.0224
  881MOL0     H21563   1.068   4.472   7.626  1.7184 -1.0086  0.2644
  881MOL0     H21564   0.914   4.036   7.398  2.1663  0.1369  1.8591
  881MOL0     H21565   0.786   3.809   7.406 -2.5207  0.8370 -0.5147
  881MOL0     H21566   0.524   3.696   7.741  2.4662  0.4735 -0.1573
  881MOL0     H21567   0.434   3.756   7.591  1.8598  2.0520 -1.8608
  881MOL0     H21568   0.500   3.506   7.710  2.1210  0.5112  0.3888
  881MOL0     H21569   0.576   3.515   7.545 -0.4532  0.8049 -0.4092
  881MOL0     H21570   0.286   3.529   7.629  1.4845  2.2189  0.4785
  881MOL0     H21571   0.323   3.609   7.485 -0.7384 -1.1119 -1.9126
  881MOL0     H21572   0.384   3.413   7.371  3.2608 -0.6584  0.6551
  881MOL0     H21573   0.237   3.362   7.460 -0.5566  1.9238 -1.5994
  881MOL0     H21574   0.528   3.115   7.627 -2.5574 -1.9476 -0.0137
  881MOL0     H21575   0.554   3.948   7.732 -0.2438  0.8859  0.9031
  881MOL0     H21576   0.598   4.155   7.838 -1.2698  2.5350  0.7865
  881MOL0     H21577   0.650   4.293   7.746  1.4110 -0.2871  0.3959
  881MOL0     H21578   0.504   4.206   7.695 -0.2314  2.4785 -0.0039
  882MOL0     O21579   5.452   3.768   7.006 -0.5235  0.8213 -0.8539
  882MOL0     C21580   5.518   3.733   7.104  0.2126  0.1869 -0.0431
  882MOL0     O21581   5.559   3.604   7.124  0.5060 -0.5255 -0.7135
  882MOL0     C21582   5.545   3.510   7.027 -0.1665 -0.4026  1.2824
  882MOL0     C21583   5.601   3.529   6.899 -0.2188 -0.0670 -0.5501
  882MOL0     C21584   5.603   3.431   6.807 -0.2079  0.1808  0.6811
  882MOL0     C21585   5.537   3.311   6.828 -0.1205  0.6330 -0.3520
  882MOL0     O21586   5.544   3.211   6.737 -0.4591  0.1450  0.1764
  882MOL0     C21587   5.617   3.226   6.617  0.7138  0.4556  0.0331
  882MOL0     C21588   5.572   3.095   6.542 -0.0081 -0.3708  0.9023
  882MOL0     C21589   5.607   2.966   6.623  0.3970 -0.3230 -0.7624
  882MOL0     C21590   5.542   2.844   6.554 -1.3699 -0.4190 -0.4381
  882MOL0     C21591   5.611   2.707   6.582  0.3156 -0.8950  0.4565
  882MOL0     C21592   5.507   2.605   6.518 -0.5558  0.0333  0.1928
  882MOL0     C21593   5.546   2.458   6.528  0.4485 -0.3013 -0.4145
  882MOL0     C21594   5.464   2.376   6.436 -0.7751 -0.2571  1.2646
  882MOL0     N21595   5.490   2.238   6.467  0.3306 -0.0120 -0.7159
  882MOL0     C21596   5.427   2.179   6.567 -0.2832  0.6874  0.5314
  882MOL0     C21597   5.450   2.051   6.546  0.0047  0.3857  0.5020
  882MOL0     C21598   5.399   1.924   6.609  0.1028  0.9652  0.0343
  882MOL0     C21599   5.291   1.952   6.721 -0.3880 -0.1026 -0.6303
  882MOL0     C21600   5.372   1.990   6.844 -0.3113  0.5328 -0.6260
  882MOL0     C21601   5.276   2.008   6.962 -0.9209  0.0380 -1.1329
  882MOL0     O21602   5.157   2.093   6.943 -1.2717 -0.3813  0.2488
  882MOL0     C21603   5.118   2.146   7.064 -1.0800  0.3657  0.5968
  882MOL0     C21604   5.013   2.097   7.129 -0.1864 -0.3335 -0.0929
  882MOL0     C21605   4.983   2.136   7.262 -0.3171 -0.3940 -0.0301
  882MOL0     C21606   4.860   2.080   7.332 -0.2222 -0.1766 -1.1478
  882MOL0     C21607   5.062   2.242   7.322  1.0265 -0.7573  0.5348
  882MOL0     C21608   5.026   2.315   7.449  0.0295  0.0051  0.6657
  882MOL0     O21609   5.089   2.440   7.451  0.2345 -0.0099  0.2297
  882MOL0     C21610   5.101   2.501   7.570  0.0034 -0.8300 -0.0273
  882MOL0     C21611   5.211   2.480   7.646  0.4166  0.2056  0.5914
  882MOL0     C21612   5.234   2.543   7.767  0.4263 -0.0342 -0.1139
  882MOL0     C21613   5.131   2.628   7.821  0.7029 -0.3582 -0.4909
  882MOL0     O21614   5.163   2.678   7.945  0.7669 -0.3408  0.4457
  882MOL0     C21615   5.057   2.689   8.047 -0.0789  0.2647  0.7342
  882MOL0     C21616   5.119   2.789   8.149  0.0156  0.1774 -0.2636
  882MOL0     C21617   5.019   2.857   8.243  0.7117 -0.3470 -0.3239
  882MOL0     C21618   5.050   3.005   8.253  0.3679  0.0478  0.0417
  882MOL0     C21619   4.938   3.065   8.336  0.2502 -0.3350  0.7066
  882MOL0     C21620   4.961   3.214   8.350 -0.1169  0.8317  0.2721
  882MOL0     C21621   4.840   3.294   8.394 -0.2669 -0.1285 -0.0198
  882MOL0     C21622   4.824   3.279   8.547  1.3656  0.0417  0.9789
  882MOL0    Cl21623   4.718   3.401   8.607  0.0708 -0.2666  0.2653
  882MOL0     C21624   5.015   2.647   7.741 -0.1249  0.6971  0.2349
  882MOL0     C21625   4.997   2.580   7.621  0.0780  0.8477  0.2991
  882MOL0     O21626   4.979   2.259   7.545 -0.6098 -0.1363  0.7462
  882MOL0     C21627   5.168   2.298   7.240 -0.3803 -0.2042  0.3867
  882MOL0     C21628   5.195   2.252   7.112  0.2988  0.9143 -0.1959
  882MOL0     N21629   5.528   2.032   6.431  0.4426 -0.0589 -0.2338
  882MOL0     N21630   5.551   2.154   6.384  1.0409  0.1966  0.0154
  882MOL0     C21631   5.488   3.280   6.952  0.5908 -0.4202  1.2809
  882MOL0     C21632   5.483   3.382   7.047  0.1527 -0.9105 -0.0392
  882MOL0     C21633   5.513   3.826   7.220 -1.1182 -0.5299  0.0307
  882MOL0     C21634   5.471   3.964   7.195 -0.3263 -0.1763 -0.0380
  882MOL0     C21635   5.478   4.058   7.303 -0.4820  0.7871 -0.0646
  882MOL0     C21636   5.515   4.016   7.427  0.1489  1.3265  0.2556
  882MOL0     O21637   5.539   4.116   7.519 -0.6150 -0.0542  0.1959
  882MOL0     C21638   5.634   4.100   7.621 -1.3582  0.6305 -0.4046
  882MOL0     C21639   5.687   4.237   7.650 -0.4501 -0.1570  0.5076
  882MOL0     C21640   5.736   4.241   7.793 -0.0767  0.7942  0.3112
  882MOL0     C21641   5.879   4.188   7.798  0.6671 -0.2461  0.7073
  882MOL0     C21642   5.940   4.200   7.927  0.1584 -1.1311 -0.1508
  882MOL0     C21643   6.003   4.216   8.027 -0.9394  0.2647  0.1076
  882MOL0     C21644   5.554   3.882   7.451 -0.2884  0.0791 -0.1855
  882MOL0     C21645   5.561   3.789   7.352  0.5984  1.1933 -0.1215
  882MOL0     C21646   5.589   3.646   7.406  0.5364 -0.2746  0.2710
  882MOL0     H21647   5.666   3.616   6.889  0.0879 -0.2375 -0.0580
  882MOL0     H21648   5.657   3.461   6.718  2.2734  0.2240  2.1110
  882MOL0     H21649   5.722   3.223   6.648  0.5479  1.0756  0.6869
  882MOL0     H21650   5.581   3.318   6.570  1.1954  0.7975  0.3154
  882MOL0     H21651   5.464   3.096   6.525 -0.1069  3.5890  0.8728
  882MOL0     H21652   5.623   3.095   6.445  0.6387  2.1178  1.1766
  882MOL0     H21653   5.714   2.944   6.618  0.5461  0.2683 -0.2145
  882MOL0     H21654   5.571   2.973   6.726  2.8656  0.7560  0.1167
  882MOL0     H21655   5.437   2.839   6.584 -2.2664  3.0923 -2.4637
  882MOL0     H21656   5.531   2.868   6.448  1.3671 -0.1439 -0.7271
  882MOL0     H21657   5.608   2.694   6.690  0.4662 -2.1065  0.3298
  882MOL0     H21658   5.713   2.711   6.541 -0.3417  2.6429 -1.1985
  882MOL0     H21659   5.403   2.615   6.551 -0.7163 -0.4294 -0.1494
  882MOL0     H21660   5.511   2.635   6.413  3.3252  0.5648  0.3561
  882MOL0     H21661   5.533   2.439   6.635  0.6117  2.9378  0.2703
  882MOL0     H21662   5.653   2.450   6.505  0.2882  0.5278 -1.5331
  882MOL0     H21663   5.358   2.397   6.448 -1.0711  0.5182 -1.7460
  882MOL0     H21664   5.495   2.380   6.331  2.4239 -1.3340  2.0462
  882MOL0     H21665   5.372   2.220   6.651 -0.6816  1.4718 -0.1005
  882MOL0     H21666   5.489   1.870   6.640  1.4914  2.2942 -1.4933
  882MOL0     H21667   5.337   1.864   6.541 -1.6768  2.6737  0.0515
  882MOL0     H21668   5.219   2.029   6.693 -0.3396  0.4633  0.7409
  882MOL0     H21669   5.238   1.858   6.741  0.5539 -0.1855  1.8288
  882MOL0     H21670   5.429   1.898   6.862 -0.3804  0.5027 -0.5624
  882MOL0     H21671   5.432   2.080   6.826  2.0104 -0.8060 -0.0289
  882MOL0     H21672   5.254   1.911   7.006  5.3492 -0.7540  1.2691
  882MOL0     H21673   5.324   2.048   7.052 -3.5427 -1.0272  0.8890
  882MOL0     H21674   4.953   2.028   7.071 -3.0455  2.8259 -1.2138
  882MOL0     H21675   4.825   2.155   7.404  0.7546  0.4592 -1.3178
  882MOL0     H21676   4.891   2.000   7.399  1.4956  0.5475 -1.0294
  882MOL0     H21677   4.781   2.046   7.264 -0.5932 -2.4281  0.3311
  882MOL0     H21678   5.295   2.431   7.597  1.9830  2.8884  0.4515
  882MOL0     H21679   5.321   2.541   7.831 -1.4044 -2.3930  2.5679
  882MOL0     H21680   4.963   2.726   8.005 -2.6013 -0.9912  4.7590
  882MOL0     H21681   5.034   2.588   8.082 -0.9278  1.3372  3.4765
  882MOL0     H21682   5.205   2.750   8.205  0.5838  1.5044 -0.1815
  882MOL0     H21683   5.168   2.868   8.092  1.9400 -3.5729 -4.3891
  882MOL0     H21684   5.033   2.822   8.346  0.6600  1.2171  0.2303
  882MOL0     H21685   4.922   2.842   8.193  0.7122  1.5386 -0.9486
  882MOL0     H21686   5.061   3.046   8.153 -1.0107  2.4013  0.7819
  882MOL0     H21687   5.148   3.022   8.299  0.7603  0.0879 -0.7954
  882MOL0     H21688   4.846   3.036   8.284  1.2902 -4.3145  0.7670
  882MOL0     H21689   4.920   3.012   8.430  0.0158  0.9285  1.3981
  882MOL0     H21690   4.976   3.247   8.246 -0.1229  0.5614  0.1861
  882MOL0     H21691   5.049   3.240   8.410 -1.0303  0.7451  1.6835
  882MOL0     H21692   4.746   3.278   8.341 -0.4740  1.8548 -0.2954
  882MOL0     H21693   4.868   3.396   8.367  1.9560  0.1218  2.7259
  882MOL0     H21694   4.921   3.294   8.596  1.9000 -1.8442  0.6014
  882MOL0     H21695   4.787   3.180   8.577 -1.5812  1.8247  3.8270
  882MOL0     H21696   4.937   2.716   7.773 -0.3741  0.3634  0.3468
  882MOL0     H21697   4.905   2.590   7.563 -0.3381  0.3822  0.8649
  882MOL0     H21698   5.235   2.379   7.271 -1.8511  0.3351  2.3109
  882MOL0     H21699   5.265   2.306   7.049 -0.4945  4.0297  1.4116
  882MOL0     H21700   5.454   3.180   6.976  0.4673 -0.0930  2.5533
  882MOL0     H21701   5.448   3.357   7.147  1.6149  1.3270  1.1070
  882MOL0     H21702   5.416   3.998   7.108  0.9371  1.5254 -0.2059
  882MOL0     H21703   5.441   4.159   7.300 -0.6499  0.7008 -1.0822
  882MOL0     H21704   5.581   4.049   7.702 -1.0886 -0.7245 -1.0560
  882MOL0     H21705   5.722   4.038   7.601 -2.5253 -1.4180  0.4640
  882MOL0     H21706   5.605   4.310   7.647 -0.1478  0.1424 -0.8813
  882MOL0     H21707   5.764   4.273   7.582 -0.8692  0.3165  0.2762
  882MOL0     H21708   5.723   4.339   7.842 -0.7487  0.1014  1.5765
  882MOL0     H21709   5.668   4.180   7.853 -0.4420 -2.6175 -3.2284
  882MOL0     H21710   5.933   4.244   7.721 -0.0735 -3.4719 -2.4805
  882MOL0     H21711   5.869   4.084   7.765  0.0092 -0.3584  1.2453
  882MOL0     H21712   6.040   4.236   8.125 -0.7322  1.5806 -0.2205
  882MOL0     H21713   5.600   3.861   7.547  0.2774  1.7713 -0.0642
  882MOL0     H21714   5.694   3.630   7.433  0.1823 -1.6206  0.9017
  882MOL0     H21715   5.520   3.638   7.491 -0.1062  1.8107  0.0135
  882MOL0     H21716   5.556   3.567   7.338 -0.2049 -0.2165  0.5503
  883MOL0     O21717   4.848   1.743   1.471 -0.4968 -0.4378  0.0232
  883MOL0     C21718   4.870   1.844   1.548  0.6092 -0.9730 -0.7688
  883MOL0     O21719   4.832   1.855   1.678  0.2229 -0.2258 -0.0596
  883MOL0     C21720   4.730   1.780   1.729 -0.4894 -0.7458  0.5500
  883MOL0     C21721   4.600   1.841   1.720 -1.2023  1.2345 -0.3058
  883MOL0     C21722   4.499   1.798   1.812 -0.1288 -0.0951 -0.2262
  883MOL0     C21723   4.524   1.688   1.894  0.1648 -0.5016 -0.4904
  883MOL0     O21724   4.415   1.628   1.959 -0.0913 -0.6957 -0.2600
  883MOL0     C21725   4.428   1.507   2.026  0.2519  0.5633 -0.6312
  883MOL0     C21726   4.418   1.379   1.933  0.5365 -1.0256  0.1411
  883MOL0     C21727   4.416   1.244   2.006  0.2789 -0.1665  0.5027
  883MOL0     C21728   4.434   1.129   1.915  0.3919  1.4440  0.4968
  883MOL0     C21729   4.301   1.086   1.844  0.2641 -0.1245 -0.0801
  883MOL0     C21730   4.197   1.012   1.928  0.3324  0.4146  0.1362
  883MOL0     C21731   4.108   0.940   1.841  0.3858  0.1585 -0.0129
  883MOL0     C21732   3.963   0.955   1.887  0.7787  0.3783  0.0844
  883MOL0     N21733   3.948   0.902   2.018  1.0631  0.1153  0.6092
  883MOL0     C21734   3.964   0.770   2.057 -0.2818 -0.0845  0.6269
  883MOL0     C21735   3.943   0.765   2.190 -0.3269 -0.6333 -0.1867
  883MOL0     C21736   3.922   0.647   2.285 -0.1591 -0.9431  0.8725
  883MOL0     C21737   3.802   0.675   2.385 -0.2946 -0.0923  0.7125
  883MOL0     C21738   3.775   0.552   2.474 -0.1511 -0.4432  0.6174
  883MOL0     C21739   3.629   0.558   2.529 -0.3342  0.0674  0.1365
  883MOL0     O21740   3.587   0.690   2.574 -0.0786  0.7600 -0.6338
  883MOL0     C21741   3.634   0.743   2.696 -0.0679  0.3854  0.2988
  883MOL0     C21742   3.629   0.876   2.701 -0.2926 -0.1237 -0.5300
  883MOL0     C21743   3.635   0.937   2.828  0.8877  0.6631  0.0404
  883MOL0     C21744   3.606   1.086   2.844 -0.6893 -0.1775 -0.2223
  883MOL0     C21745   3.673   0.863   2.947  1.0201 -0.0847  0.6928
  883MOL0     C21746   3.693   0.913   3.083  0.5352 -0.7257 -0.2456
  883MOL0     O21747   3.745   0.817   3.168  0.5787 -0.1017  0.4502
  883MOL0     C21748   3.764   0.853   3.298  0.1179  0.2781 -0.4795
  883MOL0     C21749   3.648   0.876   3.377  0.6470 -0.2762  0.1429
  883MOL0     C21750   3.668   0.925   3.508 -0.4236  0.4839  0.1495
  883MOL0     C21751   3.802   0.957   3.560  0.0057 -0.4153 -0.1908
  883MOL0     O21752   3.819   0.998   3.685 -0.1887 -0.1823  0.3555
  883MOL0     C21753   3.726   1.081   3.738  0.1191 -0.5508  0.1692
  883MOL0     C21754   3.785   1.139   3.867 -0.7460 -0.7474  0.7781
  883MOL0     C21755   3.782   1.040   3.981  0.1496  0.2952 -0.2473
  883MOL0     C21756   3.823   1.099   4.118  0.6209 -0.1789 -0.4292
  883MOL0     C21757   3.814   0.996   4.235 -0.3307  0.1453  0.3480
  883MOL0     C21758   3.857   1.064   4.369 -0.0446 -0.0441 -0.0558
  883MOL0     C21759   3.739   1.150   4.419  0.5058 -0.3931 -0.0638
  883MOL0     C21760   3.776   1.302   4.417 -0.1408 -1.0880 -0.3171
  883MOL0    Cl21761   3.891   1.327   4.547 -0.0794  0.1551  0.3621
  883MOL0     C21762   3.912   0.932   3.476 -0.3409 -0.0961  0.4246
  883MOL0     C21763   3.894   0.870   3.355  0.1802 -0.5619 -0.4069
  883MOL0     O21764   3.691   1.034   3.114 -0.3018  0.1191 -0.4130
  883MOL0     C21765   3.691   0.725   2.926  0.0120 -0.3386 -1.0585
  883MOL0     C21766   3.676   0.662   2.804 -0.0690 -0.0962  0.2809
  883MOL0     N21767   3.928   0.895   2.234  0.0325  0.3509  0.9914
  883MOL0     N21768   3.924   0.976   2.130  0.2953 -0.0505 -0.5054
  883MOL0     C21769   4.653   1.639   1.904  0.6564  0.1762 -1.0182
  883MOL0     C21770   4.755   1.682   1.820  0.2366 -0.0553  0.3256
  883MOL0     C21771   4.926   1.963   1.476 -0.2750 -0.5101  0.5141
  883MOL0     C21772   4.870   2.082   1.503  1.0494  0.1196 -0.5886
  883MOL0     C21773   4.915   2.203   1.453 -0.1195 -0.5626  0.0394
  883MOL0     C21774   5.031   2.213   1.377  0.4766  0.2537 -0.0667
  883MOL0     O21775   5.062   2.342   1.340 -0.2622 -0.2563  0.4959
  883MOL0     C21776   5.192   2.377   1.279  0.0474 -0.1179  0.4231
  883MOL0     C21777   5.304   2.372   1.387 -0.3156 -0.2869  0.7651
  883MOL0     C21778   5.295   2.462   1.510  0.3124 -0.4533  0.0905
  883MOL0     C21779   5.407   2.420   1.614 -0.3453  1.2139 -0.0238
  883MOL0     C21780   5.404   2.502   1.739 -0.5373 -0.8771 -0.1176
  883MOL0     C21781   5.419   2.579   1.833 -1.1464 -0.5612  0.2602
  883MOL0     C21782   5.092   2.089   1.343  0.1754  0.0358 -0.0508
  883MOL0     C21783   5.046   1.967   1.395  0.3182  0.7182  0.2322
  883MOL0     C21784   5.128   1.839   1.375 -0.4967 -0.5763 -0.8079
  883MOL0     H21785   4.591   1.909   1.635  0.5140 -2.9367 -4.2689
  883MOL0     H21786   4.397   1.829   1.794 -0.8957 -1.4884  1.4482
  883MOL0     H21787   4.343   1.512   2.094 -0.4040 -0.4181 -1.3328
  883MOL0     H21788   4.513   1.501   2.095  0.8155  2.2120 -1.1435
  883MOL0     H21789   4.328   1.383   1.872  0.9992  1.2733 -0.4923
  883MOL0     H21790   4.512   1.373   1.876  0.5789 -0.2305  0.1119
  883MOL0     H21791   4.494   1.228   2.082 -0.5560  1.4410  1.7579
  883MOL0     H21792   4.323   1.236   2.063  1.3151 -1.7289  2.0486
  883MOL0     H21793   4.513   1.146   1.841  1.5766 -4.2982 -0.0853
  883MOL0     H21794   4.476   1.040   1.963  1.2557  1.3883 -0.3262
  883MOL0     H21795   4.346   1.016   1.774 -2.1165 -0.7804 -1.0446
  883MOL0     H21796   4.266   1.169   1.782 -0.1053  0.0854  0.3966
  883MOL0     H21797   4.252   0.939   1.989  0.0854  0.8093  0.8402
  883MOL0     H21798   4.143   1.081   1.992  1.0417  0.0342  1.1810
  883MOL0     H21799   4.124   0.832   1.827 -2.3231 -0.1784 -1.0615
  883MOL0     H21800   4.106   0.981   1.740  0.4520  1.3617  0.4554
  883MOL0     H21801   3.927   1.057   1.902  1.8987  0.5899  1.4728
  883MOL0     H21802   3.896   0.901   1.819  0.5398 -0.0643  0.6590
  883MOL0     H21803   3.989   0.688   1.991  1.4044 -0.5349  1.7457
  883MOL0     H21804   4.014   0.640   2.343  0.1585  1.2529  0.7017
  883MOL0     H21805   3.904   0.556   2.226 -0.2228 -0.8324  0.7224
  883MOL0     H21806   3.819   0.768   2.440 -0.8558 -0.2203  1.1186
  883MOL0     H21807   3.716   0.693   2.321  1.3951  0.4052 -1.5275
  883MOL0     H21808   3.767   0.464   2.409 -3.5451  0.8369 -0.9651
  883MOL0     H21809   3.843   0.543   2.559  1.3403  0.3919 -0.4572
  883MOL0     H21810   3.565   0.530   2.444  0.7024  1.1742 -1.0545
  883MOL0     H21811   3.614   0.480   2.604 -0.9574 -0.0596 -0.1142
  883MOL0     H21812   3.614   0.937   2.613  2.0610 -0.1202 -1.0160
  883MOL0     H21813   3.573   1.129   2.749  1.0054 -1.0935 -1.2886
  883MOL0     H21814   3.689   1.148   2.879 -4.1753  2.4205  4.7040
  883MOL0     H21815   3.537   1.110   2.925  0.1210  0.1378  0.3887
  883MOL0     H21816   3.546   0.865   3.341 -0.4002 -1.1949  3.0244
  883MOL0     H21817   3.580   0.937   3.571 -1.1798  1.1344 -1.0024
  883MOL0     H21818   3.695   1.162   3.671  1.3081 -0.3126 -0.1247
  883MOL0     H21819   3.645   1.015   3.769  1.6718 -1.8821  1.5517
  883MOL0     H21820   3.890   1.168   3.851 -0.3197 -3.1203 -1.3538
  883MOL0     H21821   3.723   1.227   3.886 -0.6478 -0.1475 -1.3918
  883MOL0     H21822   3.844   0.953   3.958 -0.9441 -0.3721 -0.7705
  883MOL0     H21823   3.677   1.010   3.989 -0.0905  0.1966 -3.0062
  883MOL0     H21824   3.750   1.177   4.145  0.6566 -0.2036 -0.2607
  883MOL0     H21825   3.921   1.147   4.118  0.1864  0.7511 -0.5888
  883MOL0     H21826   3.712   0.954   4.233 -0.4961  0.5508  0.1397
  883MOL0     H21827   3.869   0.906   4.206 -0.0450  0.5953 -0.5150
  883MOL0     H21828   3.945   1.127   4.353  0.5982 -1.0410 -0.5760
  883MOL0     H21829   3.879   0.988   4.444  2.6302 -1.6694 -2.2724
  883MOL0     H21830   3.711   1.118   4.519 -1.1319  0.6087 -0.1716
  883MOL0     H21831   3.653   1.117   4.360  0.5324 -1.5968  0.5257
  883MOL0     H21832   3.681   1.356   4.426  1.4062  1.4160  3.3185
  883MOL0     H21833   3.811   1.328   4.317  1.7466  2.0103  1.0193
  883MOL0     H21834   4.011   0.956   3.514  0.0321 -1.8628  0.6241
  883MOL0     H21835   3.985   0.839   3.304  1.0572  0.9933  0.1288
  883MOL0     H21836   3.717   0.666   3.013  1.0953  4.1814  2.0105
  883MOL0     H21837   3.703   0.560   2.778  1.2283  0.9152 -2.8998
  883MOL0     H21838   4.671   1.562   1.978 -2.2147  1.4230  1.2066
  883MOL0     H21839   4.858   1.649   1.830  1.2997  2.4117 -1.5516
  883MOL0     H21840   4.795   2.089   1.582 -1.0850  1.6988 -2.6129
  883MOL0     H21841   4.878   2.298   1.492 -1.7645  0.3485 -3.4195
  883MOL0     H21842   5.219   2.304   1.203  0.7212 -2.6207  2.8908
  883MOL0     H21843   5.172   2.476   1.237  1.0154  0.3903  1.1103
  883MOL0     H21844   5.401   2.381   1.338 -1.4498 -1.3118 -1.8642
  883MOL0     H21845   5.291   2.268   1.420 -1.6551 -0.6591 -0.8054
  883MOL0     H21846   5.305   2.567   1.483  0.6279 -0.4207  0.3148
  883MOL0     H21847   5.203   2.445   1.566 -1.6294  1.5139 -2.3188
  883MOL0     H21848   5.505   2.417   1.565  0.3800  2.6345  1.2673
  883MOL0     H21849   5.385   2.321   1.655  1.2026  1.9685  2.8757
  883MOL0     H21850   5.422   2.648   1.915  2.3730 -0.0619 -0.1280
  883MOL0     H21851   5.176   2.090   1.274 -2.8218  2.1089 -4.1451
  883MOL0     H21852   5.221   1.860   1.429  0.5186 -0.7672 -2.4082
  883MOL0     H21853   5.083   1.747   1.413 -0.8444 -0.1132 -0.0724
  883MOL0     H21854   5.148   1.817   1.270  3.3182 -2.3023  0.0920
  884MOL0     O21855   8.311   3.718   1.378 -0.8326 -0.3294  0.0622
  884MOL0     C21856   8.353   3.759   1.488  0.2135  0.3548  0.9181
  884MOL0     O21857   8.283   3.845   1.562  0.1384 -0.2547 -0.2013
  884MOL0     C21858   8.170   3.906   1.503 -0.0251  0.3792  0.7272
  884MOL0     C21859   8.046   3.851   1.546 -0.4690  0.0563 -1.0898
  884MOL0     C21860   7.939   3.888   1.477  0.5700  0.3695  0.2547
  884MOL0     C21861   7.940   3.999   1.387 -0.2165  0.2840 -0.1385
  884MOL0     O21862   7.815   4.035   1.335 -0.2651  0.6397  0.7447
  884MOL0     C21863   7.798   3.972   1.205  0.6041  0.1113  0.2724
  884MOL0     C21864   7.648   3.973   1.190  1.2481  0.6031 -0.1845
  884MOL0     C21865   7.577   3.886   1.286 -0.2292 -0.2857 -0.5206
  884MOL0     C21866   7.435   3.840   1.256 -0.6606 -0.4206 -0.0612
  884MOL0     C21867   7.398   3.751   1.134 -0.0971 -0.2509  0.9651
  884MOL0     C21868   7.253   3.703   1.113  0.6507  0.0875 -0.7578
  884MOL0     C21869   7.242   3.593   0.999  0.0975 -0.5887  1.1881
  884MOL0     C21870   7.146   3.476   1.040 -0.4944  0.7751  0.0289
  884MOL0     N21871   7.230   3.370   1.106 -0.1994 -0.3169 -1.0296
  884MOL0     C21872   7.188   3.280   1.211  0.5574 -0.8995 -0.6471
  884MOL0     C21873   7.249   3.158   1.185 -0.1540 -0.0970 -0.8235
  884MOL0     C21874   7.236   3.025   1.258  1.1618 -0.9048 -0.7367
  884MOL0     C21875   7.290   3.033   1.395  0.3058 -0.1917 -0.0792
  884MOL0     C21876   7.432   3.003   1.394 -0.9785 -0.0233 -0.4002
  884MOL0     C21877   7.491   3.001   1.544 -0.3891  0.0300  0.9909
  884MOL0     O21878   7.462   2.875   1.619 -0.3886  0.2425 -0.0103
  884MOL0     C21879   7.568   2.835   1.705  0.7856  0.4066  0.0005
  884MOL0     C21880   7.575   2.696   1.720 -0.6148 -0.2559 -0.5913
  884MOL0     C21881   7.666   2.644   1.820  0.1033  0.9167  0.4520
  884MOL0     C21882   7.644   2.500   1.848 -0.7719  0.1942  0.6710
  884MOL0     C21883   7.767   2.723   1.873 -0.5633 -0.2690  0.0314
  884MOL0     C21884   7.885   2.680   1.957  0.9910  0.6904 -0.3480
  884MOL0     O21885   7.963   2.780   2.011 -0.5922 -0.1793  0.0575
  884MOL0     C21886   8.048   2.750   2.113  1.0918 -0.0535 -0.3558
  884MOL0     C21887   8.160   2.827   2.120  0.3518 -0.5518  1.3139
  884MOL0     C21888   8.253   2.811   2.218  0.0215 -0.4180  0.7833
  884MOL0     C21889   8.242   2.723   2.325 -0.4962  0.8424  0.0582
  884MOL0     O21890   8.338   2.699   2.417  0.3577  0.0883 -0.9306
  884MOL0     C21891   8.425   2.810   2.456  0.2814 -0.1401  0.9252
  884MOL0     C21892   8.409   2.815   2.606 -0.1544  0.7006 -0.1005
  884MOL0     C21893   8.534   2.879   2.664 -0.0315 -0.0052  0.4116
  884MOL0     C21894   8.541   2.841   2.810  0.0552  0.6006  0.4917
  884MOL0     C21895   8.649   2.903   2.904  0.3296 -0.0076  0.5200
  884MOL0     C21896   8.633   2.864   3.048  0.4014  0.1268 -0.5349
  884MOL0     C21897   8.768   2.890   3.113 -0.5599  0.6459 -0.0883
  884MOL0     C21898   8.774   2.856   3.256  0.6485 -0.2599  0.2957
  884MOL0    Cl21899   8.953   2.875   3.307 -0.1998 -0.3191 -0.3719
  884MOL0     C21900   8.128   2.640   2.319 -0.8979 -0.0054 -0.4195
  884MOL0     C21901   8.033   2.660   2.219 -0.3192 -0.8211 -0.3438
  884MOL0     O21902   7.912   2.560   1.970  0.4939 -1.1792  0.0104
  884MOL0     C21903   7.766   2.856   1.839  0.1335  0.9245 -0.0079
  884MOL0     C21904   7.668   2.913   1.760 -1.0764 -0.1269  0.0217
  884MOL0     N21905   7.344   3.186   1.097  0.2568 -0.9553  0.4321
  884MOL0     N21906   7.320   3.303   1.034 -0.6039 -0.1032 -0.1322
  884MOL0     C21907   8.059   4.050   1.351  0.2323  0.2634 -0.1364
  884MOL0     C21908   8.177   4.009   1.420 -0.4268 -1.3214  0.7381
  884MOL0     C21909   8.466   3.697   1.547 -1.0014  0.7432 -0.1334
  884MOL0     C21910   8.438   3.571   1.610 -0.1779 -0.2156 -0.4151
  884MOL0     C21911   8.531   3.497   1.682  0.0028  0.1317 -0.9152
  884MOL0     C21912   8.664   3.554   1.693 -0.1335 -0.8940 -0.1810
  884MOL0     O21913   8.773   3.502   1.764  0.0415 -0.0996  0.8666
  884MOL0     C21914   8.766   3.362   1.803 -0.2404  0.2542 -0.4135
  884MOL0     C21915   8.872   3.304   1.904 -0.1927 -0.5234 -0.5563
  884MOL0     C21916   9.013   3.374   1.886 -0.0699  0.2686  0.0514
  884MOL0     C21917   9.128   3.295   1.958  0.0616  0.2707  1.1310
  884MOL0     C21918   9.163   3.173   1.873  0.1723  0.4304 -0.4073
  884MOL0     C21919   9.191   3.073   1.806 -0.5682 -0.6175 -0.0992
  884MOL0     C21920   8.692   3.678   1.628 -0.3139 -0.0125 -0.7941
  884MOL0     C21921   8.597   3.749   1.558 -0.0655 -0.4123  0.3642
  884MOL0     C21922   8.642   3.874   1.495  0.2927  0.3028  0.6773
  884MOL0     H21923   8.040   3.757   1.599 -3.2782  0.6436 -0.1926
  884MOL0     H21924   7.845   3.834   1.484  1.1649 -0.7738 -0.2556
  884MOL0     H21925   7.823   3.866   1.211 -1.2515 -0.3227  1.3506
  884MOL0     H21926   7.852   4.013   1.119 -0.4347  0.5222 -0.2044
  884MOL0     H21927   7.616   4.077   1.206 -1.6687 -0.6015  3.0795
  884MOL0     H21928   7.626   3.932   1.091 -0.4436 -1.6229  1.0169
  884MOL0     H21929   7.631   3.792   1.296 -2.8900 -1.6918  2.5286
  884MOL0     H21930   7.573   3.940   1.382  4.2576 -0.3804 -0.0778
  884MOL0     H21931   7.405   3.784   1.345 -0.3153  1.6759  1.4505
  884MOL0     H21932   7.377   3.933   1.261  2.3291  1.5357  1.7918
  884MOL0     H21933   7.463   3.664   1.146  0.6141  0.2814  1.0510
  884MOL0     H21934   7.443   3.807   1.052 -0.7017 -0.5577  0.4192
  884MOL0     H21935   7.228   3.665   1.212  1.2931  1.8803  0.1384
  884MOL0     H21936   7.179   3.781   1.092 -2.4013 -2.9531 -2.2881
  884MOL0     H21937   7.342   3.559   0.972 -0.7427  0.2815 -4.1340
  884MOL0     H21938   7.206   3.643   0.909  1.1499  3.1689  2.6767
  884MOL0     H21939   7.064   3.521   1.097 -0.0053  2.2326 -0.3893
  884MOL0     H21940   7.100   3.422   0.956 -1.6080  0.2726  0.9340
  884MOL0     H21941   7.105   3.297   1.279  1.5091  1.2256  0.0869
  884MOL0     H21942   7.285   2.950   1.195 -1.8248  1.6308 -6.9838
  884MOL0     H21943   7.129   3.002   1.254 -0.1034  3.5926 -6.0479
  884MOL0     H21944   7.277   3.134   1.436  1.6149 -0.1077  0.1857
  884MOL0     H21945   7.237   2.958   1.455  1.9070 -0.2931  1.2968
  884MOL0     H21946   7.447   2.907   1.344 -0.0232  0.6634 -1.4869
  884MOL0     H21947   7.477   3.086   1.337 -3.8490  0.4388 -2.2526
  884MOL0     H21948   7.598   3.016   1.527 -0.0104 -2.7181  0.4718
  884MOL0     H21949   7.438   3.079   1.598 -3.4262 -0.9446 -0.3174
  884MOL0     H21950   7.494   2.649   1.664  0.4323  0.8820 -3.2311
  884MOL0     H21951   7.739   2.448   1.861  0.4065  2.2580  0.7341
  884MOL0     H21952   7.586   2.452   1.768  1.6142  0.2431 -1.2370
  884MOL0     H21953   7.590   2.496   1.943  1.4983  0.0557  2.0347
  884MOL0     H21954   8.167   2.885   2.029 -1.7086 -0.8163  0.9281
  884MOL0     H21955   8.332   2.885   2.217  1.2956 -1.6582 -2.1310
  884MOL0     H21956   8.530   2.794   2.431 -0.1473  1.3789 -2.3428
  884MOL0     H21957   8.400   2.908   2.414  2.2755 -0.1853 -0.4919
  884MOL0     H21958   8.312   2.857   2.632 -0.3869  0.3557 -0.4075
  884MOL0     H21959   8.399   2.712   2.640  3.9365 -0.7012 -2.3665
  884MOL0     H21960   8.549   2.985   2.644  1.3543 -0.5339 -1.6566
  884MOL0     H21961   8.627   2.843   2.618 -0.9835  0.1074 -1.7030
  884MOL0     H21962   8.544   2.732   2.822 -0.3822  0.7027  1.6876
  884MOL0     H21963   8.442   2.877   2.842  0.4211  2.5876 -0.4572
  884MOL0     H21964   8.742   2.852   2.880  0.4135  0.6556 -0.6516
  884MOL0     H21965   8.650   3.012   2.891 -0.4079  0.0063  0.5249
  884MOL0     H21966   8.616   2.757   3.042  1.0487 -0.0242  0.2143
  884MOL0     H21967   8.551   2.920   3.094  1.2568  2.0515 -1.2441
  884MOL0     H21968   8.786   2.997   3.096 -0.6210  0.4994 -1.1227
  884MOL0     H21969   8.835   2.819   3.065 -4.1768 -3.6720  0.4877
  884MOL0     H21970   8.743   2.752   3.272  1.6554 -0.5440  0.4966
  884MOL0     H21971   8.704   2.922   3.307 -0.7417 -1.8455  0.5338
  884MOL0     H21972   8.113   2.577   2.406  1.7811 -0.8738 -0.4808
  884MOL0     H21973   7.951   2.589   2.219  0.6868 -1.9999 -0.9060
  884MOL0     H21974   7.832   2.932   1.878 -0.6926  1.4779  0.3544
  884MOL0     H21975   7.666   3.019   1.739 -0.6146  0.2722  1.8053
  884MOL0     H21976   8.057   4.128   1.276 -2.6743  0.9883  0.5500
  884MOL0     H21977   8.266   4.044   1.368 -2.6685  4.2564 -0.0309
  884MOL0     H21978   8.342   3.520   1.598 -0.8594  0.9770 -0.1963
  884MOL0     H21979   8.489   3.405   1.723 -0.1535  0.1240 -1.0925
  884MOL0     H21980   8.671   3.336   1.851  0.4908  3.1187  2.9535
  884MOL0     H21981   8.762   3.298   1.714 -3.2246  0.0772 -0.2476
  884MOL0     H21982   8.889   3.196   1.895 -2.1536 -1.2578  2.7194
  884MOL0     H21983   8.843   3.325   2.008  2.0031 -0.3694  0.0777
  884MOL0     H21984   9.029   3.396   1.780 -0.7842  0.4573 -0.0265
  884MOL0     H21985   8.996   3.474   1.927  3.2353  0.5252  1.0832
  884MOL0     H21986   9.091   3.272   2.059 -2.3677 -1.6530 -0.0735
  884MOL0     H21987   9.211   3.365   1.970  0.2772  0.1785  0.2278
  884MOL0     H21988   9.225   2.980   1.765  4.7096  1.1010 -0.4299
  884MOL0     H21989   8.797   3.707   1.633  1.0367 -3.8578 -3.0954
  884MOL0     H21990   8.578   3.957   1.528 -2.2932 -0.8668 -1.0907
  884MOL0     H21991   8.742   3.893   1.535  0.7105 -3.0201  1.5862
  884MOL0     H21992   8.640   3.848   1.389 -0.8501 -0.2241  0.8018
  885MOL0     O21993   9.951   4.334   6.700 -0.7243  0.0673 -0.1445
  885MOL0     C21994   9.837   4.369   6.693  0.3041  1.4688  0.2265
  885MOL0     O21995   9.790   4.501   6.692 -0.5230  0.2284 -0.8218
  885MOL0     C21996   9.895   4.593   6.693 -0.9462  0.0584 -1.2030
  885MOL0     C21997   9.901   4.674   6.803  0.7917  0.3220  0.7013
  885MOL0     C21998  10.000   4.768   6.814  0.3382  0.0194  0.2543
  885MOL0     C21999  10.093   4.789   6.711 -0.7121 -0.0698 -0.7576
  885MOL0     O22000  10.184   4.896   6.704  0.6751  0.8323 -0.1209
  885MOL0     C22001  10.224   4.973   6.816  0.4993  0.1492 -0.0336
  885MOL0     C22002  10.270   5.109   6.760  0.4398  0.1595  0.4837
  885MOL0     C22003  10.160   5.215   6.747  0.9928 -0.4709 -0.2669
  885MOL0     C22004  10.033   5.163   6.678  0.2328 -0.1592  0.1761
  885MOL0     C22005   9.921   5.272   6.710  0.8028 -0.0126  0.7137
  885MOL0     C22006   9.772   5.226   6.715  0.2480 -0.8812 -0.6028
  885MOL0     C22007   9.751   5.114   6.814  0.7240  0.1505  0.0316
  885MOL0     C22008   9.606   5.072   6.824  0.2177 -0.0482  0.2497
  885MOL0     N22009   9.589   4.946   6.748  0.7953  0.1387 -0.2476
  885MOL0     C22010   9.499   4.930   6.646 -0.8783 -1.0088 -0.2785
  885MOL0     C22011   9.471   4.793   6.637  0.1421 -0.6458  0.7769
  885MOL0     C22012   9.367   4.718   6.550 -1.1496 -0.4475 -0.0205
  885MOL0     C22013   9.245   4.802   6.524  0.7078  0.5626  0.0285
  885MOL0     C22014   9.148   4.732   6.434 -0.0365  0.9510  0.4387
  885MOL0     C22015   9.037   4.662   6.516  0.5524 -0.5773  0.5164
  885MOL0     O22016   9.089   4.543   6.565  0.4523  0.9401  0.1219
  885MOL0     C22017   9.057   4.419   6.510  1.1145 -0.6736  0.1012
  885MOL0     C22018   9.035   4.406   6.373 -0.5035  0.1818  0.8948
  885MOL0     C22019   9.003   4.287   6.316  0.2430  0.2070  0.0226
  885MOL0     C22020   8.989   4.284   6.162  0.7288  0.8129 -0.6030
  885MOL0     C22021   8.997   4.172   6.401  0.4221 -0.1597 -0.6191
  885MOL0     C22022   8.957   4.031   6.357  0.6642  0.3595 -0.0136
  885MOL0     O22023   8.832   4.025   6.290 -0.3208 -0.2404  0.2640
  885MOL0     C22024   8.798   3.916   6.226  0.7467  1.0402 -0.4256
  885MOL0     C22025   8.664   3.864   6.229 -1.0888 -0.0776 -1.3717
  885MOL0     C22026   8.638   3.749   6.151  0.8595  0.1488  0.1798
  885MOL0     C22027   8.732   3.680   6.080 -0.3923 -0.6346  0.0030
  885MOL0     O22028   8.692   3.580   6.006  0.1118  0.2993 -0.3108
  885MOL0     C22029   8.787   3.523   5.909  0.5991 -0.4410  0.6449
  885MOL0     C22030   8.796   3.616   5.789  1.5037 -0.0454  0.3576
  885MOL0     C22031   8.880   3.553   5.686 -0.1872  0.4556 -0.1387
  885MOL0     C22032   8.884   3.620   5.551  1.0478  0.7777 -0.7543
  885MOL0     C22033   8.934   3.531   5.441 -0.6304 -0.5038 -0.0602
  885MOL0     C22034   9.083   3.509   5.459  0.4603  1.0169 -0.3294
  885MOL0     C22035   9.139   3.423   5.336 -0.2961  0.6406 -0.1205
  885MOL0     C22036   9.290   3.430   5.329  0.8555 -0.5277  0.2522
  885MOL0    Cl22037   9.336   3.351   5.168 -0.2431 -0.3093 -0.2270
  885MOL0     C22038   8.863   3.729   6.084  0.8173 -0.0542 -0.4578
  885MOL0     C22039   8.897   3.846   6.144  1.0584  0.1591  0.2271
  885MOL0     O22040   9.036   3.937   6.377 -0.4931  0.5987 -1.6376
  885MOL0     C22041   9.014   4.180   6.536 -0.4710  0.0605  0.1130
  885MOL0     C22042   9.033   4.311   6.588 -0.0733  0.0190 -0.1855
  885MOL0     N22043   9.549   4.736   6.727 -0.6594 -0.9460  0.4524
  885MOL0     N22044   9.614   4.824   6.795  0.4394  0.7780 -0.3118
  885MOL0     C22045  10.081   4.707   6.600 -0.5026 -0.3496 -0.1874
  885MOL0     C22046   9.982   4.609   6.592 -0.8305 -0.3857  0.3705
  885MOL0     C22047   9.747   4.251   6.694 -0.0673  1.0136 -0.3395
  885MOL0     C22048   9.801   4.125   6.736  0.4642  0.6991 -0.9568
  885MOL0     C22049   9.718   4.005   6.736 -0.0181 -0.4004 -0.2141
  885MOL0     C22050   9.585   4.007   6.688  0.3602 -0.1207 -0.0206
  885MOL0     O22051   9.507   3.896   6.695  0.1496  1.0874 -0.5749
  885MOL0     C22052   9.362   3.904   6.695 -0.2558  0.5339 -0.1976
  885MOL0     C22053   9.285   3.796   6.768 -0.2993 -0.7289 -0.9654
  885MOL0     C22054   9.344   3.752   6.894  1.1470  0.4429 -0.6568
  885MOL0     C22055   9.424   3.618   6.873  0.2282 -0.7644 -0.2747
  885MOL0     C22056   9.343   3.494   6.851  0.2281 -0.3974  0.0685
  885MOL0     C22057   9.263   3.401   6.843  0.3712 -0.5239  1.1223
  885MOL0     C22058   9.531   4.129   6.636  0.0336  0.3948 -1.3769
  885MOL0     C22059   9.606   4.249   6.652  0.3995  0.1316  0.7298
  885MOL0     C22060   9.536   4.373   6.592  0.5434  0.5975  0.0453
  885MOL0     H22061   9.823   4.656   6.876  1.1645 -1.9344  0.6223
  885MOL0     H22062  10.008   4.811   6.913 -1.8505  0.7980  0.1473
  885MOL0     H22063  10.308   4.933   6.873 -0.0151 -1.1764 -0.1711
  885MOL0     H22064  10.141   4.986   6.885  0.6938 -2.1028  0.7076
  885MOL0     H22065  10.346   5.153   6.825  1.0893  0.9165 -0.7630
  885MOL0     H22066  10.326   5.095   6.667  0.6126  2.1194  0.2540
  885MOL0     H22067  10.144   5.254   6.848 -0.1666  1.7777 -1.2653
  885MOL0     H22068  10.204   5.294   6.686  0.8605  1.7247  2.2934
  885MOL0     H22069  10.047   5.165   6.570  1.1879 -2.5754  0.2004
  885MOL0     H22070  10.004   5.064   6.716  2.0369 -0.7879 -0.0065
  885MOL0     H22071   9.937   5.351   6.637 -1.6294  0.3023  0.4411
  885MOL0     H22072   9.944   5.314   6.809 -1.4133 -2.4867  2.4384
  885MOL0     H22073   9.714   5.312   6.751 -0.6414 -2.0140  0.7771
  885MOL0     H22074   9.724   5.206   6.618  1.3952  0.6139 -1.5122
  885MOL0     H22075   9.790   5.138   6.914 -2.4211  1.8301  0.9732
  885MOL0     H22076   9.802   5.024   6.779 -1.7337 -2.0952  1.7908
  885MOL0     H22077   9.582   5.042   6.926  0.3769 -2.8111 -0.4475
  885MOL0     H22078   9.529   5.148   6.808 -2.7956 -3.2119 -1.8632
  885MOL0     H22079   9.452   5.009   6.588  0.1597 -0.3327 -0.2185
  885MOL0     H22080   9.344   4.628   6.607  0.8216 -0.3740  0.9819
  885MOL0     H22081   9.418   4.692   6.456 -0.4839  2.6563 -0.6363
  885MOL0     H22082   9.194   4.829   6.618  2.7100  2.4989  0.6583
  885MOL0     H22083   9.272   4.891   6.465  0.8884  0.9077  0.6200
  885MOL0     H22084   9.104   4.796   6.356  3.3265  0.0580 -2.4278
  885MOL0     H22085   9.206   4.661   6.375  0.3900  1.5581  0.1129
  885MOL0     H22086   8.993   4.731   6.588  0.4353  0.5752 -0.6353
  885MOL0     H22087   8.958   4.649   6.441 -0.0767  0.7083  0.9310
  885MOL0     H22088   9.056   4.487   6.304 -0.1526 -0.1675  0.5860
  885MOL0     H22089   9.010   4.180   6.135 -4.8110 -2.2393  4.3396
  885MOL0     H22090   9.066   4.349   6.119  1.2872  0.5716  0.0125
  885MOL0     H22091   8.893   4.321   6.125  1.1066  2.1224 -0.2907
  885MOL0     H22092   8.582   3.906   6.286  0.2234 -1.1292  1.5200
  885MOL0     H22093   8.537   3.712   6.160 -0.7706  3.9034 -0.9160
  885MOL0     H22094   8.889   3.497   5.939  2.1156  3.4338 -0.5967
  885MOL0     H22095   8.731   3.433   5.879 -1.3460  0.9110 -0.0172
  885MOL0     H22096   8.695   3.613   5.747  2.3531  3.6869 -2.4156
  885MOL0     H22097   8.822   3.720   5.811  1.1339 -0.4673  3.1716
  885MOL0     H22098   8.853   3.449   5.664  0.7165  0.2289 -0.2260
  885MOL0     H22099   8.981   3.542   5.728 -1.0574 -1.0022  1.7436
  885MOL0     H22100   8.956   3.702   5.550  0.9144  0.9767  1.2952
  885MOL0     H22101   8.781   3.650   5.531 -0.3320 -0.3588  3.4874
  885MOL0     H22102   8.878   3.438   5.428  3.4073 -3.2332  0.4493
  885MOL0     H22103   8.921   3.597   5.355 -2.1385 -1.3372 -0.5082
  885MOL0     H22104   9.108   3.453   5.550  1.7332  0.5747 -0.9333
  885MOL0     H22105   9.150   3.595   5.452 -0.4090  1.5538 -3.6692
  885MOL0     H22106   9.105   3.466   5.242 -1.4157 -0.7110 -0.3726
  885MOL0     H22107   9.113   3.317   5.337 -0.3554  0.6524  1.2082
  885MOL0     H22108   9.334   3.377   5.414  0.3942 -1.2188  0.0660
  885MOL0     H22109   9.316   3.536   5.330 -0.6236 -0.1371  1.4052
  885MOL0     H22110   8.940   3.689   6.020  0.2063  0.2739 -1.4208
  885MOL0     H22111   8.985   3.909   6.148 -0.7773  2.8413  0.9897
  885MOL0     H22112   9.008   4.092   6.600  1.6005 -1.6531 -1.8619
  885MOL0     H22113   9.050   4.318   6.695  1.0298  0.3518 -0.3666
  885MOL0     H22114  10.139   4.738   6.514  1.9617 -0.1373  1.4579
  885MOL0     H22115   9.967   4.545   6.506  0.9015  1.5310 -1.4570
  885MOL0     H22116   9.908   4.126   6.751  0.3629 -2.2462  0.6609
  885MOL0     H22117   9.753   3.910   6.775  2.7106  1.2035  1.6186
  885MOL0     H22118   9.337   3.994   6.752 -0.2839  0.2595  0.2303
  885MOL0     H22119   9.330   3.920   6.592  3.4837  1.1789 -1.4111
  885MOL0     H22120   9.258   3.719   6.695 -0.9664 -0.5272 -0.9384
  885MOL0     H22121   9.189   3.847   6.781 -0.0611 -0.6776  0.7976
  885MOL0     H22122   9.415   3.820   6.941  0.4626 -0.8569  2.5424
  885MOL0     H22123   9.266   3.731   6.967 -2.1010  0.4734 -3.8254
  885MOL0     H22124   9.485   3.589   6.959  2.1990  2.4589 -0.4291
  885MOL0     H22125   9.495   3.633   6.791  0.7306  1.3886  0.4931
  885MOL0     H22126   9.183   3.329   6.840  1.4339 -2.1845  5.6869
  885MOL0     H22127   9.436   4.123   6.585 -0.1575 -2.7183 -0.8636
  885MOL0     H22128   9.570   4.459   6.649  1.2159 -1.2727  2.6261
  885MOL0     H22129   9.569   4.379   6.487 -4.5305  0.0633 -1.8630
  885MOL0     H22130   9.427   4.368   6.594  0.2821  3.7376 -0.7194
  886MOL0     O22131   4.481   9.409   5.560 -0.2471 -0.1401 -0.3118
  886MOL0     C22132   4.434   9.307   5.608  1.1112 -0.7672 -0.6165
  886MOL0     O22133   4.504   9.210   5.672  1.0599  0.5014 -0.1118
  886MOL0     C22134   4.643   9.200   5.648 -0.5183  0.0208  0.1274
  886MOL0     C22135   4.731   9.307   5.684  0.1445  0.7347  0.9023
  886MOL0     C22136   4.871   9.289   5.679  0.8391 -0.1276 -0.2960
  886MOL0     C22137   4.917   9.180   5.605  1.1440  0.0345 -0.3520
  886MOL0     O22138   5.051   9.179   5.583  0.2552  0.6604  0.9213
  886MOL0     C22139   5.111   9.128   5.469  0.1152  0.2074  0.3955
  886MOL0     C22140   5.192   9.235   5.395  0.7749  0.3942  0.7841
  886MOL0     C22141   5.107   9.314   5.296  0.2972 -0.0459 -0.7172
  886MOL0     C22142   5.019   9.439   5.347 -0.9089  0.9762  0.5034
  886MOL0     C22143   5.097   9.549   5.419  0.1150  0.4658 -0.2143
  886MOL0     C22144   5.165   9.644   5.308  0.9077 -0.8410 -0.1046
  886MOL0     C22145   5.262   9.736   5.383 -1.3698  0.1432 -0.5735
  886MOL0     C22146   5.306   9.864   5.299  0.2689 -0.2853 -0.0695
  886MOL0     N22147   5.368   9.818   5.181  0.4650  1.1681  0.4209
  886MOL0     C22148   5.490   9.749   5.190  0.8640 -0.4742 -0.0248
  886MOL0     C22149   5.513   9.725   5.052  0.4991  0.4182 -0.5229
  886MOL0     C22150   5.644   9.660   5.011 -0.3480  0.4456  0.0526
  886MOL0     C22151   5.617   9.523   4.947 -0.1710 -0.3748 -0.1512
  886MOL0     C22152   5.751   9.438   4.939  0.4294  0.8926  1.1662
  886MOL0     C22153   5.851   9.506   4.854 -0.3611 -0.3864 -0.8147
  886MOL0     O22154   5.926   9.593   4.945 -0.4201  0.3441  0.0503
  886MOL0     C22155   6.036   9.536   5.001 -1.1087 -0.3406  0.0323
  886MOL0     C22156   6.141   9.497   4.917  0.2439  1.0995 -0.0924
  886MOL0     C22157   6.271   9.490   4.969 -1.5570  0.2707 -0.5448
  886MOL0     C22158   6.373   9.435   4.873 -0.4721 -0.3897 -0.0196
  886MOL0     C22159   6.297   9.512   5.108  0.2084 -0.1521  0.5240
  886MOL0     C22160   6.426   9.509   5.170  0.2131  1.4742  0.2819
  886MOL0     O22161   6.516   9.606   5.136  0.6310 -0.1256  0.2975
  886MOL0     C22162   6.654   9.569   5.140  0.2887  0.1045  0.5704
  886MOL0     C22163   6.698   9.451   5.100  0.5217  0.3231 -0.4121
  886MOL0     C22164   6.834   9.420   5.122  0.6411  0.0343 -0.0440
  886MOL0     C22165   6.928   9.514   5.159 -1.0772 -0.8586  0.0793
  886MOL0     O22166   7.063   9.475   5.156 -0.0938  1.9764 -0.0403
  886MOL0     C22167   7.168   9.549   5.223  0.4424 -0.0765 -0.5189
  886MOL0     C22168   7.295   9.467   5.229 -0.2319  0.0039 -0.1100
  886MOL0     C22169   7.425   9.551   5.266  0.5282  0.0875  0.7708
  886MOL0     C22170   7.540   9.445   5.263 -0.7149  0.1581 -0.4097
  886MOL0     C22171   7.676   9.514   5.317 -0.4705 -0.0885 -0.8509
  886MOL0     C22172   7.807   9.421   5.325  0.5306  0.6738  0.7379
  886MOL0     C22173   7.924   9.520   5.321  0.1934 -0.4789 -0.6321
  886MOL0     C22174   7.936   9.619   5.439  0.6037 -0.0533 -0.8959
  886MOL0    Cl22175   8.097   9.712   5.409 -0.0288 -0.0493  0.3215
  886MOL0     C22176   6.885   9.641   5.199  0.3036 -0.0017  0.5221
  886MOL0     C22177   6.744   9.661   5.197 -0.2436 -0.7122  0.3567
  886MOL0     O22178   6.445   9.419   5.243 -0.2985  0.0548 -0.9292
  886MOL0     C22179   6.184   9.540   5.191 -0.3546  0.5188  0.1511
  886MOL0     C22180   6.058   9.550   5.137  0.1525  0.2796 -0.1959
  886MOL0     N22181   5.400   9.752   4.977  0.9916  0.2767  0.2757
  886MOL0     N22182   5.321   9.818   5.053  0.0194 -0.1038 -0.2984
  886MOL0     C22183   4.826   9.087   5.547 -0.4652 -0.1786  0.2153
  886MOL0     C22184   4.691   9.101   5.565 -0.3599  0.8687  0.3392
  886MOL0     C22185   4.285   9.308   5.626 -0.5092  0.7741  0.9016
  886MOL0     C22186   4.234   9.280   5.760 -0.0194 -0.1726  0.3116
  886MOL0     C22187   4.092   9.274   5.776 -0.1469  0.0525 -0.7219
  886MOL0     C22188   4.000   9.291   5.675  0.3590 -0.1452  0.2537
  886MOL0     O22189   3.865   9.268   5.692 -0.1340 -0.2606 -0.0873
  886MOL0     C22190   3.810   9.204   5.813 -0.0711  0.0587  0.5680
  886MOL0     C22191   3.657   9.216   5.805  0.5465 -0.0511 -0.8897
  886MOL0     C22192   3.589   9.150   5.685 -0.4300  0.4648  0.1682
  886MOL0     C22193   3.580   9.258   5.572 -0.0306 -0.7146 -0.6465
  886MOL0     C22194   3.503   9.217   5.452 -0.2202 -0.5437 -0.7090
  886MOL0     C22195   3.414   9.198   5.373 -0.5804 -0.2416  0.3455
  886MOL0     C22196   4.058   9.332   5.560 -0.1900  0.0864  0.1002
  886MOL0     C22197   4.198   9.340   5.522  0.5504  1.3635  0.1487
  886MOL0     C22198   4.242   9.412   5.392  0.3568 -0.5394  0.5881
  886MOL0     H22199   4.691   9.401   5.721 -0.4712 -0.2106  2.7038
  886MOL0     H22200   4.939   9.365   5.716 -0.0360  1.5183 -1.9165
  886MOL0     H22201   5.040   9.090   5.395  1.6567 -1.1873 -0.4172
  886MOL0     H22202   5.176   9.046   5.498 -1.6942 -2.5148 -2.6050
  886MOL0     H22203   5.241   9.309   5.459 -0.3241  0.6345  1.3512
  886MOL0     H22204   5.271   9.184   5.338 -1.2152 -0.9620 -0.8815
  886MOL0     H22205   5.174   9.363   5.225  0.9414 -1.0942 -0.8443
  886MOL0     H22206   5.054   9.256   5.220 -1.5674  1.1683 -0.4312
  886MOL0     H22207   4.979   9.482   5.255 -0.9579  1.1364  0.5986
  886MOL0     H22208   4.947   9.387   5.411  1.1462 -0.6042  1.6529
  886MOL0     H22209   5.174   9.510   5.486 -1.1376 -3.4265 -0.7829
  886MOL0     H22210   5.029   9.598   5.491 -0.3849  0.0695 -0.4072
  886MOL0     H22211   5.225   9.590   5.234 -1.8248 -0.4483 -2.7723
  886MOL0     H22212   5.075   9.692   5.271  0.5134 -0.7151  0.9682
  886MOL0     H22213   5.355   9.688   5.415  1.9687  3.9710 -3.4262
  886MOL0     H22214   5.209   9.772   5.472 -1.3898 -0.5346 -0.3099
  886MOL0     H22215   5.217   9.916   5.261  1.9025  0.4156 -3.2355
  886MOL0     H22216   5.378   9.928   5.351 -1.7772  0.9909  1.3654
  886MOL0     H22217   5.551   9.754   5.279  0.8257 -1.2930  0.0551
  886MOL0     H22218   5.696   9.642   5.106 -4.9272 -0.4371  2.6678
  886MOL0     H22219   5.708   9.717   4.943  1.9568 -0.1371  1.6225
  886MOL0     H22220   5.553   9.464   5.014  0.3071 -0.4859  0.2088
  886MOL0     H22221   5.566   9.536   4.851 -3.6839  0.5257  1.6840
  886MOL0     H22222   5.788   9.400   5.034 -3.3328  1.1758  2.9048
  886MOL0     H22223   5.725   9.347   4.885  1.6230 -0.0654  2.1522
  886MOL0     H22224   5.924   9.441   4.805  1.6256  1.6249 -0.7290
  886MOL0     H22225   5.797   9.552   4.771  0.7023 -0.0342 -1.3349
  886MOL0     H22226   6.137   9.475   4.811  0.6947  2.5311 -0.4376
  886MOL0     H22227   6.464   9.492   4.893 -1.4373  0.6523  1.6042
  886MOL0     H22228   6.359   9.435   4.764  1.5984  2.7749 -0.4333
  886MOL0     H22229   6.412   9.339   4.911  0.6917  1.8396  5.3282
  886MOL0     H22230   6.627   9.370   5.083  0.8078  0.2322 -1.2322
  886MOL0     H22231   6.878   9.324   5.095 -1.9301 -0.8251 -1.4917
  886MOL0     H22232   7.193   9.636   5.162 -0.0124 -0.4379 -1.2392
  886MOL0     H22233   7.132   9.577   5.323  0.8315 -1.2407 -0.0331
  886MOL0     H22234   7.292   9.380   5.295  2.5578  0.3557  0.5777
  886MOL0     H22235   7.317   9.422   5.132 -0.7965  1.4791 -0.9533
  886MOL0     H22236   7.414   9.605   5.360  0.6455  1.3464  0.0910
  886MOL0     H22237   7.446   9.625   5.187 -0.8409 -0.6316 -0.3090
  886MOL0     H22238   7.564   9.389   5.172  3.0388  0.3385  0.2973
  886MOL0     H22239   7.527   9.364   5.335  4.2872 -2.3284 -1.8082
  886MOL0     H22240   7.700   9.593   5.244  2.2864 -2.1029 -2.3273
  886MOL0     H22241   7.658   9.564   5.412  2.6557 -2.8718  1.4416
  886MOL0     H22242   7.801   9.357   5.236  0.5374  0.9890  0.5098
  886MOL0     H22243   7.800   9.356   5.413 -0.4919 -0.6856 -0.3047
  886MOL0     H22244   7.913   9.583   5.232  0.0329 -0.2955 -0.4792
  886MOL0     H22245   8.019   9.465   5.315  1.0430  0.6042  1.7560
  886MOL0     H22246   7.920   9.557   5.528 -2.6810  1.0878 -0.5607
  886MOL0     H22247   7.854   9.691   5.448  0.7965 -0.0639  1.8892
  886MOL0     H22248   6.951   9.716   5.242 -0.1449  1.7096 -1.6012
  886MOL0     H22249   6.700   9.749   5.243  0.7948 -1.7881  3.7143
  886MOL0     H22250   6.198   9.565   5.296  1.2784 -0.8931  0.3157
  886MOL0     H22251   5.982   9.594   5.200  0.3846  0.5037 -0.0719
  886MOL0     H22252   4.868   9.012   5.481 -0.8134  1.2976 -1.7850
  886MOL0     H22253   4.629   9.024   5.520 -3.1014  2.9907  0.2616
  886MOL0     H22254   4.293   9.250   5.846 -1.2578 -0.8890  0.9424
  886MOL0     H22255   4.064   9.253   5.879  1.7037 -0.1832 -0.2273
  886MOL0     H22256   3.833   9.097   5.814 -0.7882 -0.1009  0.5219
  886MOL0     H22257   3.854   9.237   5.907 -0.2359  1.8293  0.0489
  886MOL0     H22258   3.617   9.318   5.810  0.0887 -0.0202 -3.6203
  886MOL0     H22259   3.622   9.166   5.895  0.7348 -0.3341 -0.9731
  886MOL0     H22260   3.642   9.061   5.650 -3.2495 -0.6803 -1.5564
  886MOL0     H22261   3.486   9.123   5.711 -0.4600  1.6280  1.4077
  886MOL0     H22262   3.681   9.292   5.546 -0.4744  0.7314 -0.6106
  886MOL0     H22263   3.519   9.333   5.623  0.7505 -1.0402  0.8030
  886MOL0     H22264   3.338   9.173   5.302  0.0200 -2.7342  0.4816
  886MOL0     H22265   3.985   9.355   5.482  0.1990  2.2628  0.3077
  886MOL0     H22266   4.321   9.348   5.353  0.8160  0.0464  0.5484
  886MOL0     H22267   4.169   9.423   5.311  1.3421 -2.3190 -0.6100
  886MOL0     H22268   4.289   9.508   5.413 -0.9872 -0.6513  4.9703
  887MOL0     O22269   8.350   0.132   4.849  0.3232  0.5366  0.3623
  887MOL0     C22270   8.407   0.104   4.744  0.7535  0.2021  0.4216
  887MOL0     O22271   8.453  -0.019   4.710 -0.0908 -0.0311  0.1095
  887MOL0     C22272   8.387  -0.134   4.758  0.7012  0.1675 -0.2056
  887MOL0     C22273   8.253  -0.144   4.808 -0.7545 -0.1842  0.8278
  887MOL0     C22274   8.196  -0.276   4.850 -0.5278 -0.8381 -0.5729
  887MOL0     C22275   8.266  -0.392   4.817  0.5107  0.0993  1.0702
  887MOL0     O22276   8.225  -0.517   4.842  0.0751  0.0943 -0.1334
  887MOL0     C22277   8.111  -0.540   4.928 -0.2067 -0.1023 -0.1621
  887MOL0     C22278   8.068  -0.686   4.953 -0.8775  0.5992 -0.9157
  887MOL0     C22279   7.924  -0.698   5.012 -0.0158  0.0864 -0.8860
  887MOL0     C22280   7.941  -0.691   5.167  0.3488  0.1335  0.6073
  887MOL0     C22281   7.807  -0.721   5.237  0.4994  0.0121  0.1543
  887MOL0     C22282   7.828  -0.719   5.387 -0.6724  0.3079  0.4539
  887MOL0     C22283   7.724  -0.754   5.493 -0.4376  0.7363  0.1813
  887MOL0     C22284   7.686  -0.896   5.512  0.2238  0.1125 -0.2652
  887MOL0     N22285   7.796  -0.984   5.555  0.5224 -0.6353 -0.4693
  887MOL0     C22286   7.843  -1.077   5.468 -0.6902 -0.0465  0.3089
  887MOL0     C22287   7.964  -1.110   5.521  0.3754  0.5202  0.3249
  887MOL0     C22288   8.065  -1.208   5.466  0.2672  0.2046  0.0668
  887MOL0     C22289   8.206  -1.151   5.448  0.9552  1.1162  0.5273
  887MOL0     C22290   8.179  -1.029   5.352 -0.6106 -0.1780  0.1927
  887MOL0     C22291   8.304  -0.936   5.336  0.1549 -0.9968  0.0684
  887MOL0     O22292   8.283  -0.851   5.227  0.3853  0.1947 -0.9401
  887MOL0     C22293   8.388  -0.770   5.193 -0.4826 -0.4206 -0.2475
  887MOL0     C22294   8.512  -0.828   5.174  0.0157 -0.5511 -0.6374
  887MOL0     C22295   8.622  -0.758   5.129 -0.1473 -0.0742  0.0353
  887MOL0     C22296   8.744  -0.837   5.120  0.7038  0.2395  0.4313
  887MOL0     C22297   8.613  -0.621   5.099 -0.1376 -0.6764 -0.1947
  887MOL0     C22298   8.725  -0.538   5.052  0.3523 -0.6924 -0.1020
  887MOL0     O22299   8.701  -0.398   5.072 -0.5667  0.2371  0.1922
  887MOL0     C22300   8.792  -0.306   5.030 -1.0512  0.2542 -0.6392
  887MOL0     C22301   8.744  -0.187   4.978  0.8279 -0.2585  0.6879
  887MOL0     C22302   8.846  -0.108   4.926  0.1341 -0.1797 -0.0997
  887MOL0     C22303   8.985  -0.128   4.938 -0.3244  0.2648 -0.7693
  887MOL0     O22304   9.067  -0.027   4.914 -0.9968  0.0973 -1.4625
  887MOL0     C22305   9.205  -0.040   4.939 -0.0293 -0.6572 -0.5797
  887MOL0     C22306   9.251   0.098   4.967  0.6014  0.0974  0.3225
  887MOL0     C22307   9.401   0.119   4.952  0.3674  0.1661 -0.1391
  887MOL0     C22308   9.448   0.250   4.999 -0.0865  0.8222  0.3745
  887MOL0     C22309   9.577   0.306   4.933 -0.1742 -0.3243 -0.1758
  887MOL0     C22310   9.699   0.214   4.943  0.1757  0.7958  0.0942
  887MOL0     C22311   9.775   0.251   4.824  0.4009  0.1621 -0.3406
  887MOL0     C22312   9.907   0.175   4.806  0.5707 -0.2241 -0.7252
  887MOL0    Cl22313   9.999   0.268   4.677  0.5478  0.4909 -0.3141
  887MOL0     C22314   9.024  -0.248   4.986 -0.8972  0.4529  0.1953
  887MOL0     C22315   8.932  -0.342   5.037  0.0724 -0.1935  0.3048
  887MOL0     O22316   8.812  -0.584   4.982  0.1126  0.4712 -0.4829
  887MOL0     C22317   8.489  -0.563   5.128 -0.2208 -0.2377 -0.3444
  887MOL0     C22318   8.376  -0.635   5.177 -0.1019  0.1484  0.4053
  887MOL0     N22319   7.976  -1.045   5.642 -0.1248  0.3133  0.2881
  887MOL0     N22320   7.882  -0.956   5.656 -0.3134  0.3750 -0.5793
  887MOL0     C22321   8.397  -0.383   4.759 -0.0748 -0.6825  0.4492
  887MOL0     C22322   8.450  -0.254   4.738 -0.9452  0.1385 -0.3410
  887MOL0     C22323   8.431   0.213   4.652 -0.8664  0.5944  0.2650
  887MOL0     C22324   8.528   0.195   4.545  0.6010 -0.2619  0.1464
  887MOL0     C22325   8.559   0.292   4.452 -0.2117 -0.7385  0.1633
  887MOL0     C22326   8.504   0.419   4.461  0.3399  0.8363  0.1956
  887MOL0     O22327   8.522   0.523   4.369 -0.0816 -0.1898  0.8424
  887MOL0     C22328   8.632   0.502   4.275 -0.3754 -0.0726  0.3047
  887MOL0     C22329   8.671   0.631   4.216  1.1844 -0.0573 -0.0674
  887MOL0     C22330   8.809   0.641   4.141 -0.6830  0.0760  0.5304
  887MOL0     C22331   8.822   0.543   4.026 -0.2938  0.1188  0.0094
  887MOL0     C22332   8.950   0.563   3.958  0.0578  0.0535  0.0274
  887MOL0     C22333   9.052   0.549   3.897  0.1508  0.2886 -0.0097
  887MOL0     C22334   8.400   0.436   4.557  0.2878 -0.2146  0.0702
  887MOL0     C22335   8.367   0.336   4.651  0.8156  0.0594  0.4575
  887MOL0     C22336   8.241   0.365   4.731  0.1291 -0.0561 -0.5253
  887MOL0     H22337   8.201  -0.049   4.800 -0.7051 -0.3063 -2.3842
  887MOL0     H22338   8.101  -0.275   4.902  0.8937  2.6842  2.4030
  887MOL0     H22339   8.020  -0.498   4.885 -0.0797 -0.3782 -0.7053
  887MOL0     H22340   8.142  -0.516   5.030  1.4833  0.7599 -0.8400
  887MOL0     H22341   8.074  -0.738   4.857 -1.1065 -0.1197 -0.5505
  887MOL0     H22342   8.144  -0.737   5.012  0.1216  2.1784 -0.7726
  887MOL0     H22343   7.857  -0.624   4.965  2.1051  1.6073 -1.6767
  887MOL0     H22344   7.896  -0.798   4.977  0.5870 -1.0879  1.7906
  887MOL0     H22345   8.015  -0.766   5.195  2.8263  1.6786 -1.3184
  887MOL0     H22346   7.965  -0.587   5.189  1.4093  0.1590 -0.5041
  887MOL0     H22347   7.774  -0.813   5.190  1.3179  1.1359 -2.8376
  887MOL0     H22348   7.742  -0.635   5.216  0.3151  1.0837  4.2794
  887MOL0     H22349   7.925  -0.767   5.402  0.2420  1.5845 -1.0607
  887MOL0     H22350   7.859  -0.615   5.397 -2.0394  0.8299 -0.4099
  887MOL0     H22351   7.632  -0.704   5.460 -1.9198 -0.1865  2.6642
  887MOL0     H22352   7.752  -0.717   5.592 -0.0106  2.5804 -0.5919
  887MOL0     H22353   7.609  -0.910   5.588  0.7651 -2.1751 -0.0413
  887MOL0     H22354   7.650  -0.953   5.425  2.4926 -2.7039  0.4547
  887MOL0     H22355   7.808  -1.102   5.369  1.9376 -4.1510  0.1956
  887MOL0     H22356   8.020  -1.243   5.374 -0.8525 -0.9686  1.0259
  887MOL0     H22357   8.078  -1.294   5.532 -0.6323  0.3094  0.3957
  887MOL0     H22358   8.242  -1.133   5.550 -3.0596  0.7579  2.2026
  887MOL0     H22359   8.268  -1.231   5.408 -2.1647  0.1912 -3.0024
  887MOL0     H22360   8.131  -1.065   5.261  0.3937 -0.7400 -0.1366
  887MOL0     H22361   8.108  -0.955   5.390  0.8566  1.1692  0.4296
  887MOL0     H22362   8.319  -0.868   5.420  1.0939 -1.2294  0.0902
  887MOL0     H22363   8.384  -1.010   5.329 -0.3152 -1.3315 -3.5279
  887MOL0     H22364   8.509  -0.936   5.180  2.5112 -0.6042  0.7020
  887MOL0     H22365   8.735  -0.926   5.183 -1.3058 -0.9261 -1.3746
  887MOL0     H22366   8.828  -0.773   5.150  1.6708 -1.1629  0.8418
  887MOL0     H22367   8.754  -0.866   5.015 -2.0299 -3.6966  1.0505
  887MOL0     H22368   8.636  -0.175   4.973  0.5428 -2.7080 -0.7046
  887MOL0     H22369   8.822  -0.011   4.884 -1.9166  0.4305  2.2358
  887MOL0     H22370   9.232  -0.109   5.021 -0.1534 -4.5169 -3.4854
  887MOL0     H22371   9.240  -0.075   4.841 -1.1490  0.8325 -1.5393
  887MOL0     H22372   9.198   0.157   4.893  0.2609 -2.3202 -1.4875
  887MOL0     H22373   9.218   0.117   5.070  0.8215 -3.1558  1.1325
  887MOL0     H22374   9.422   0.094   4.848  0.9646  0.7029 -0.1547
  887MOL0     H22375   9.455   0.043   5.008 -0.2291  1.4927  2.4359
  887MOL0     H22376   9.458   0.251   5.108  0.8079  1.3986  0.3023
  887MOL0     H22377   9.364   0.317   4.981  0.8123  1.1338 -3.6978
  887MOL0     H22378   9.550   0.324   4.828 -1.7640  1.9913  0.5665
  887MOL0     H22379   9.599   0.409   4.963  3.4054 -1.2156  0.8161
  887MOL0     H22380   9.686   0.105   4.946  2.8790  0.3210 -2.0613
  887MOL0     H22381   9.738   0.227   5.044 -4.3655 -3.3470  2.8653
  887MOL0     H22382   9.800   0.356   4.842  0.3845 -0.4597  4.9051
  887MOL0     H22383   9.714   0.236   4.735  0.2873  2.8826 -0.7996
  887MOL0     H22384   9.876   0.076   4.772 -0.7430  0.8587 -2.9146
  887MOL0     H22385   9.975   0.156   4.890  0.1037 -3.4086 -0.9530
  887MOL0     H22386   9.126  -0.283   4.999 -0.6693  0.6347 -0.9952
  887MOL0     H22387   8.968  -0.430   5.090 -0.6018 -3.5898 -4.2709
  887MOL0     H22388   8.476  -0.460   5.097  3.3609  1.1474  2.0550
  887MOL0     H22389   8.282  -0.589   5.205 -0.3875  1.5419 -2.4445
  887MOL0     H22390   8.443  -0.475   4.724 -0.8762  0.3140 -3.7754
  887MOL0     H22391   8.549  -0.244   4.693  0.1659  0.4004  1.9929
  887MOL0     H22392   8.591   0.106   4.545  1.6956  0.4977  0.1233
  887MOL0     H22393   8.610   0.254   4.365  0.0510  1.7607 -0.8553
  887MOL0     H22394   8.717   0.470   4.335 -1.5339 -0.3660  1.8668
  887MOL0     H22395   8.626   0.425   4.198  1.2389  0.3518 -0.2686
  887MOL0     H22396   8.673   0.697   4.303 -3.4738  0.4478 -0.0845
  887MOL0     H22397   8.610   0.676   4.138  3.3396  2.1337 -0.6045
  887MOL0     H22398   8.825   0.743   4.105 -0.4771 -1.0801 -2.9556
  887MOL0     H22399   8.890   0.616   4.211  0.8707 -1.7805 -1.7721
  887MOL0     H22400   8.739   0.544   3.954  0.1247 -1.7374 -0.5408
  887MOL0     H22401   8.824   0.444   4.072  1.0585  1.1935  2.4868
  887MOL0     H22402   9.150   0.526   3.859  0.0620 -1.3159  0.6532
  887MOL0     H22403   8.350   0.532   4.554  1.4643  0.4763  1.2244
  887MOL0     H22404   8.160   0.296   4.703 -2.2702  1.9492  0.9701
  887MOL0     H22405   8.258   0.363   4.839 -1.0704 -0.7060 -0.3268
  887MOL0     H22406   8.193   0.463   4.718 -0.7563 -0.3166  0.5831
  888MOL0     O22407   6.937   6.322  11.446 -0.3831 -0.3037  0.2529
  888MOL0     C22408   6.991   6.403  11.521 -0.1151 -0.1154  0.1780
  888MOL0     O22409   7.012   6.384  11.656  0.2455 -0.0741 -0.5859
  888MOL0     C22410   6.943   6.289  11.723 -0.5647 -0.1466 -0.4063
  888MOL0     C22411   6.823   6.317  11.782 -0.5349 -0.9164 -0.0186
  888MOL0     C22412   6.759   6.216  11.853  0.0735 -0.3853  0.7528
  888MOL0     C22413   6.820   6.094  11.875  0.0851  0.6299 -0.1573
  888MOL0     O22414   6.743   6.008  11.955  0.2641  0.8239  0.1549
  888MOL0     C22415   6.784   5.864  11.941  0.5017 -0.5537 -0.2872
  888MOL0     C22416   6.683   5.754  11.972  1.0238  0.4497 -0.3044
  888MOL0     C22417   6.753   5.621  11.994  0.0021  0.1719 -0.3297
  888MOL0     C22418   6.659   5.496  12.029  0.3212 -1.3808  0.6730
  888MOL0     C22419   6.552   5.457  11.915  0.7734 -0.9987 -0.8963
  888MOL0     C22420   6.448   5.356  11.969 -0.4892 -1.0059  0.0361
  888MOL0     C22421   6.509   5.214  12.005  0.4625 -0.1466  0.2296
  888MOL0     C22422   6.382   5.136  12.045  0.0511  0.4592  0.4248
  888MOL0     N22423   6.418   4.999  12.086  0.4389 -0.1610  0.3737
  888MOL0     C22424   6.532   4.953  12.139 -0.0401  0.8262 -0.6441
  888MOL0     C22425   6.528   4.818  12.127  0.9178  0.0467 -0.0344
  888MOL0     C22426   6.641   4.735  12.170  0.4245  0.7911  1.1990
  888MOL0     C22427   6.631   4.725  12.323  0.6476  0.9062 -0.0882
  888MOL0     C22428   6.729   4.611  12.376  0.6592  0.1186 -0.1722
  888MOL0     C22429   6.733   4.580  12.520  0.4117  0.4612  0.3166
  888MOL0     O22430   6.604   4.572  12.576  0.6294  0.4775  0.9672
  888MOL0     C22431   6.609   4.548  12.707 -1.2079  0.4145 -0.0249
  888MOL0     C22432   6.621   4.414  12.750 -0.2149 -0.9315  0.8112
  888MOL0     C22433   6.644   4.383  12.884  0.4991 -0.2919 -0.7515
  888MOL0     C22434   6.681   4.240  12.908  0.8205 -0.1974 -0.4121
  888MOL0     C22435   6.669   4.488  12.974  0.1882 -0.5004 -0.4649
  888MOL0     C22436   6.700   4.468  13.116 -0.3629  1.0658  0.7296
  888MOL0     O22437   6.822   4.504  13.152 -0.4815 -0.5952 -0.2832
  888MOL0     C22438   6.892   4.467  13.271 -0.4365 -0.4557  1.0848
  888MOL0     C22439   7.021   4.510  13.287 -1.1909 -0.0625 -0.3927
  888MOL0     C22440   7.081   4.504  13.407 -0.0552 -0.9484  0.8470
  888MOL0     C22441   7.015   4.454  13.523  0.1255  0.3665  0.0452
  888MOL0     O22442   7.079   4.444  13.646 -0.0015 -0.3072  0.2798
  888MOL0     C22443   7.117   4.581  13.682  0.3979 -0.5183 -1.0005
  888MOL0     C22444   7.178   4.573  13.823 -0.1697 -0.2048  0.9329
  888MOL0     C22445   7.311   4.496  13.808 -0.0661 -0.1696 -0.1496
  888MOL0     C22446   7.419   4.580  13.739  0.3932 -0.2581 -0.0768
  888MOL0     C22447   7.557   4.567  13.796 -0.3721 -0.0774  0.0869
  888MOL0     C22448   7.606   4.423  13.810  0.2465 -1.5646  0.0503
  888MOL0     C22449   7.583   4.330  13.686 -0.4988 -0.0044 -0.0686
  888MOL0     C22450   7.679   4.369  13.573  0.4789  0.5246  0.8221
  888MOL0    Cl22451   7.847   4.358  13.633  0.9226 -0.3063 -0.2893
  888MOL0     C22452   6.895   4.394  13.504  0.1212  0.0604  0.0052
  888MOL0     C22453   6.833   4.406  13.378  0.0091  0.7302 -0.3183
  888MOL0     O22454   6.611   4.423  13.184  0.3105 -1.0721 -0.1045
  888MOL0     C22455   6.663   4.624  12.923 -0.8538  0.6775  1.0218
  888MOL0     C22456   6.628   4.658  12.786 -1.2396 -0.3035 -0.1735
  888MOL0     N22457   6.403   4.792  12.082 -0.3151  0.6883  0.4879
  888MOL0     N22458   6.338   4.893  12.043  0.3128 -0.2776 -0.8136
  888MOL0     C22459   6.950   6.067  11.818 -0.2124  0.4273  0.3960
  888MOL0     C22460   7.006   6.169  11.737 -0.1474  0.5133 -0.1844
  888MOL0     C22461   7.053   6.528  11.461 -0.1045 -0.3205  0.8167
  888MOL0     C22462   7.074   6.636  11.548 -0.1115  0.5766  0.3252
  888MOL0     C22463   7.096   6.761  11.488  0.9797 -0.6051  0.1818
  888MOL0     C22464   7.101   6.788  11.354  0.4057  1.2093 -0.5409
  888MOL0     O22465   7.113   6.922  11.314 -0.1668 -0.4833 -0.3320
  888MOL0     C22466   7.072   6.961  11.183 -0.0417 -1.0336 -0.5996
  888MOL0     C22467   7.195   7.012  11.106 -0.5203 -0.2926 -0.0904
  888MOL0     C22468   7.314   6.910  11.086  0.4598  0.3199 -0.4153
  888MOL0     C22469   7.422   6.978  11.007  0.2428 -0.4197  1.3112
  888MOL0     C22470   7.375   6.964  10.870  1.0363 -0.1830  0.1442
  888MOL0     C22471   7.328   6.947  10.761 -0.0549  0.2732 -0.6003
  888MOL0     C22472   7.103   6.665  11.270  0.8519 -0.1082 -0.3741
  888MOL0     C22473   7.083   6.540  11.321 -0.7592 -0.5761  0.3097
  888MOL0     C22474   7.092   6.419  11.225 -0.5584 -0.3114 -0.4956
  888MOL0     H22475   6.780   6.417  11.781 -1.8653 -1.4616  0.0876
  888MOL0     H22476   6.659   6.233  11.893 -0.6764  0.2568 -1.2720
  888MOL0     H22477   6.862   5.863  12.018  2.3282  2.0808 -1.9291
  888MOL0     H22478   6.834   5.832  11.849  1.6621 -0.0115  0.1447
  888MOL0     H22479   6.619   5.782  12.055  0.9730  3.0775 -1.1314
  888MOL0     H22480   6.602   5.747  11.899 -0.7816 -0.4984  1.6963
  888MOL0     H22481   6.807   5.599  11.902  2.1718 -0.3297  0.9890
  888MOL0     H22482   6.818   5.616  12.082 -2.9807 -0.5547  1.9716
  888MOL0     H22483   6.714   5.405  12.055 -0.5887 -1.9833  0.5407
  888MOL0     H22484   6.599   5.521  12.117 -1.3395 -0.0267 -0.7509
  888MOL0     H22485   6.612   5.404  11.840 -1.9706 -2.9921 -1.8215
  888MOL0     H22486   6.488   5.535  11.872 -0.6119 -2.9858 -2.6662
  888MOL0     H22487   6.393   5.398  12.054 -1.1865 -1.4261 -0.1964
  888MOL0     H22488   6.374   5.335  11.892 -0.5065 -2.2061  0.3511
  888MOL0     H22489   6.579   5.220  12.089 -0.2949  1.3462  0.7888
  888MOL0     H22490   6.553   5.159  11.921  0.5949 -1.2838  1.0164
  888MOL0     H22491   6.332   5.193  12.123  1.6330 -1.2881  2.8501
  888MOL0     H22492   6.311   5.127  11.961  1.7463 -0.8269 -0.9531
  888MOL0     H22493   6.616   5.013  12.172  0.4822  1.9163 -3.7151
  888MOL0     H22494   6.731   4.789  12.141 -0.3063  0.6679 -1.6177
  888MOL0     H22495   6.624   4.636  12.127 -0.2248  0.7701  1.4866
  888MOL0     H22496   6.683   4.815  12.359  0.4940  0.5906  0.9586
  888MOL0     H22497   6.534   4.704  12.367  2.0706 -3.8485  1.3657
  888MOL0     H22498   6.693   4.519  12.329 -1.5858  0.5772  0.5560
  888MOL0     H22499   6.831   4.613  12.335 -0.5865 -4.3940 -4.4308
  888MOL0     H22500   6.779   4.482  12.539  0.8741  0.8330  1.1925
  888MOL0     H22501   6.800   4.649  12.572  2.5768 -2.1946  1.3343
  888MOL0     H22502   6.616   4.337  12.675 -1.1095 -3.6752  3.5003
  888MOL0     H22503   6.789   4.232  12.890  1.3303 -0.0639  2.1372
  888MOL0     H22504   6.628   4.166  12.848  1.8606 -1.5378  0.2553
  888MOL0     H22505   6.659   4.208  13.011  2.3167 -2.6129 -0.7672
  888MOL0     H22506   7.070   4.565  13.208 -0.9379  0.9824  0.4747
  888MOL0     H22507   7.187   4.531  13.409 -0.1051 -0.1746 -2.4126
  888MOL0     H22508   7.181   4.620  13.603 -0.4302 -0.4781 -1.6663
  888MOL0     H22509   7.026   4.642  13.681  1.8362  1.7611 -0.1155
  888MOL0     H22510   7.182   4.668  13.878 -1.6406  0.5341 -0.1424
  888MOL0     H22511   7.116   4.518  13.894  2.5210 -0.0594  3.6007
  888MOL0     H22512   7.301   4.397  13.762 -0.5252 -1.2425  2.1456
  888MOL0     H22513   7.351   4.478  13.908 -2.4551  1.0195  1.0937
  888MOL0     H22514   7.394   4.686  13.736  0.8517 -0.1150  0.7234
  888MOL0     H22515   7.412   4.563  13.631 -1.8062 -1.2224  0.1666
  888MOL0     H22516   7.615   4.638  13.736 -0.0369 -0.3425  0.0951
  888MOL0     H22517   7.551   4.610  13.896  3.1373  1.7583 -0.3285
  888MOL0     H22518   7.554   4.374  13.892  2.6085 -2.2366  1.2333
  888MOL0     H22519   7.708   4.429  13.848 -0.5979 -2.2605  2.5935
  888MOL0     H22520   7.479   4.332  13.650 -0.0704 -0.4006 -1.3866
  888MOL0     H22521   7.608   4.229  13.719 -1.3316 -1.4782 -3.4872
  888MOL0     H22522   7.659   4.470  13.538 -1.7680 -0.5953 -1.5297
  888MOL0     H22523   7.663   4.314  13.479  0.1342 -0.6907  1.5728
  888MOL0     H22524   6.851   4.335  13.583  1.1594 -0.6381  0.0749
  888MOL0     H22525   6.737   4.359  13.359 -2.1443  3.5911  2.4662
  888MOL0     H22526   6.698   4.704  12.987  2.4643 -0.4588  0.8100
  888MOL0     H22527   6.613   4.757  12.747  1.4122 -0.4000 -1.6505
  888MOL0     H22528   7.003   5.974  11.833  2.4773  1.0552 -3.5793
  888MOL0     H22529   7.100   6.151  11.686  0.5506 -0.3311  1.3216
  888MOL0     H22530   7.048   6.619  11.652  0.7853 -2.1009  0.2039
  888MOL0     H22531   7.096   6.851  11.550 -0.6777 -0.7838  0.4857
  888MOL0     H22532   7.021   6.882  11.128 -3.2687  1.6691 -1.7895
  888MOL0     H22533   6.997   7.040  11.188 -0.3287 -1.3727  0.9804
  888MOL0     H22534   7.223   7.112  11.141  0.0288 -0.7876  0.9214
  888MOL0     H22535   7.166   7.046  11.006  1.3309  1.1439 -0.2126
  888MOL0     H22536   7.363   6.880  11.179 -1.6466 -1.0362  0.3149
  888MOL0     H22537   7.259   6.828  11.039 -0.8410 -0.4807  2.3370
  888MOL0     H22538   7.512   6.916  11.011  0.5107 -0.3320 -1.5139
  888MOL0     H22539   7.451   7.078  11.040 -0.0125 -0.1197  0.6516
  888MOL0     H22540   7.269   6.940  10.672  3.9606  1.1456 -3.6306
  888MOL0     H22541   7.100   6.680  11.162  0.4171 -0.3413 -0.3948
  888MOL0     H22542   7.137   6.334  11.277  1.7901  1.9906  1.5403
  888MOL0     H22543   6.987   6.402  11.200 -1.2523  3.4608 -0.7973
  888MOL0     H22544   7.148   6.447  11.135  1.2255  0.5255  0.8027
  889MOL0     O22545   6.899   2.007   9.741 -0.0676 -0.9029  0.1577
  889MOL0     C22546   6.931   2.106   9.807  0.5975  0.2352  0.3956
  889MOL0     O22547   6.845   2.214   9.831  0.5521 -1.0698 -0.3266
  889MOL0     C22548   6.708   2.214   9.809  0.1962 -0.4607  0.1383
  889MOL0     C22549   6.650   2.338   9.838  0.2870  0.6463 -0.6664
  889MOL0     C22550   6.512   2.347   9.826  0.6404  0.4633 -0.5701
  889MOL0     C22551   6.432   2.255   9.766 -0.0309 -0.1634  0.4941
  889MOL0     O22552   6.298   2.263   9.748 -0.6537  0.4446  0.3424
  889MOL0     C22553   6.221   2.303   9.862 -0.5796  0.8698 -0.3857
  889MOL0     C22554   6.197   2.453   9.867  0.1149  0.4378  0.3113
  889MOL0     C22555   6.163   2.508  10.008  0.1015  0.7239 -0.5068
  889MOL0     C22556   6.028   2.463  10.053  0.1386  0.2104 -0.4079
  889MOL0     C22557   5.905   2.556  10.025  0.9618  0.3703  0.0328
  889MOL0     C22558   5.777   2.497  10.071  1.4287  0.6628  0.4468
  889MOL0     C22559   5.740   2.379   9.975 -0.2805  0.5442 -0.3765
  889MOL0     C22560   5.662   2.415   9.847  1.3814  0.8128 -0.5894
  889MOL0     N22561   5.743   2.454   9.733  0.8740 -0.5934 -0.2220
  889MOL0     C22562   5.859   2.388   9.706  1.1445  1.5967 -0.2238
  889MOL0     C22563   5.915   2.470   9.612  0.7491 -0.7422 -0.0765
  889MOL0     C22564   6.033   2.424   9.530  0.9975 -0.0248 -0.4104
  889MOL0     C22565   6.148   2.538   9.522  0.1168 -0.7302 -0.5009
  889MOL0     C22566   6.268   2.488   9.441 -0.9683 -0.2081 -1.0031
  889MOL0     C22567   6.378   2.608   9.424  0.2357 -0.8060  0.2787
  889MOL0     O22568   6.470   2.585   9.317  0.4547  0.2364  0.0975
  889MOL0     C22569   6.552   2.477   9.304  0.6850  0.1383 -0.8104
  889MOL0     C22570   6.626   2.459   9.189  0.5654 -0.5952 -0.1808
  889MOL0     C22571   6.705   2.349   9.170  0.0929  0.1511 -0.0786
  889MOL0     C22572   6.758   2.342   9.020  0.9961  0.1736 -0.7599
  889MOL0     C22573   6.729   2.253   9.269 -0.1047  1.0320  0.7683
  889MOL0     C22574   6.809   2.125   9.250  0.4138  0.5436 -0.2752
  889MOL0     O22575   6.890   2.110   9.142  0.3658  0.3136 -0.0816
  889MOL0     C22576   6.954   1.985   9.128 -0.8224  0.1120 -0.0763
  889MOL0     C22577   7.095   1.977   9.162  0.7067  0.1052  0.5599
  889MOL0     C22578   7.164   1.857   9.153 -0.2267  0.0859 -1.0257
  889MOL0     C22579   7.089   1.738   9.134 -0.5603  0.3525  1.6292
  889MOL0     O22580   7.159   1.618   9.146  0.3098  0.4584  0.5538
  889MOL0     C22581   7.085   1.501   9.168 -0.5387 -0.7217 -0.7639
  889MOL0     C22582   7.184   1.382   9.169 -0.3168  0.0008 -0.3678
  889MOL0     C22583   7.148   1.259   9.252  0.8423  0.1602  0.3953
  889MOL0     C22584   7.264   1.154   9.226 -0.4263 -0.2142 -0.1342
  889MOL0     C22585   7.264   1.040   9.328 -0.4783  0.0908  0.5085
  889MOL0     C22586   7.357   1.083   9.441  0.3019  0.5148  0.3622
  889MOL0     C22587   7.312   1.015   9.567  0.9711  0.4761  0.0231
  889MOL0     C22588   7.415   1.016   9.677  0.2011  0.1212 -1.1312
  889MOL0    Cl22589   7.357   0.925   9.818  0.0325  0.5176  0.3776
  889MOL0     C22590   6.956   1.746   9.097 -0.0643  0.5888  0.2894
  889MOL0     C22591   6.889   1.861   9.101 -0.3491  0.6571 -0.8212
  889MOL0     O22592   6.799   2.039   9.344 -0.0675 -0.0472  0.4395
  889MOL0     C22593   6.662   2.281   9.392 -0.4116 -0.3518 -0.2922
  889MOL0     C22594   6.581   2.391   9.411 -0.0311 -0.2228 -1.1088
  889MOL0     N22595   5.834   2.582   9.591 -0.0697  0.5559  0.4451
  889MOL0     N22596   5.729   2.573   9.669 -0.7450  0.5440 -1.1070
  889MOL0     C22597   6.495   2.138   9.729 -1.4337 -0.1200  0.6542
  889MOL0     C22598   6.633   2.115   9.742 -0.1264 -0.1398  0.5737
  889MOL0     C22599   7.072   2.121   9.850  0.8288  0.4168  0.7031
  889MOL0     C22600   7.129   2.245   9.845  0.2245  1.1655  0.3006
  889MOL0     C22601   7.265   2.266   9.886 -0.1802  0.1397  0.5428
  889MOL0     C22602   7.338   2.157   9.939  0.4346  0.1140  0.2752
  889MOL0     O22603   7.461   2.181   9.985 -0.6466  0.2623 -0.8025
  889MOL0     C22604   7.552   2.069  10.026 -0.1663 -0.8307 -0.1653
  889MOL0     C22605   7.687   2.143  10.022 -0.7909  0.2779 -0.7701
  889MOL0     C22606   7.715   2.232  10.151  1.1751 -0.5612 -0.0877
  889MOL0     C22607   7.633   2.361  10.150 -0.5811  0.5336  0.0701
  889MOL0     C22608   7.714   2.477  10.184  1.0661  0.4194  0.6856
  889MOL0     C22609   7.777   2.582  10.191  0.5983  0.4193  0.3371
  889MOL0     C22610   7.277   2.033   9.932 -0.1870 -0.5912 -0.9968
  889MOL0     C22611   7.153   2.009   9.889  0.3238  0.1176  0.0450
  889MOL0     C22612   7.104   1.864   9.889 -0.2433 -0.2340  0.5549
  889MOL0     H22613   6.711   2.417   9.881  0.2741 -0.1583  0.9086
  889MOL0     H22614   6.489   2.451   9.847  1.9682  0.9001 -1.1360
  889MOL0     H22615   6.262   2.263   9.955 -1.1807  0.2319 -0.3861
  889MOL0     H22616   6.126   2.252   9.846 -0.4479  0.9183 -1.4531
  889MOL0     H22617   6.280   2.510   9.825  0.7988 -0.8271 -0.1074
  889MOL0     H22618   6.109   2.461   9.803 -0.3895  0.1263  0.9549
  889MOL0     H22619   6.231   2.466  10.082 -0.6553 -1.2573 -0.8700
  889MOL0     H22620   6.183   2.615  10.018 -1.3323  1.2380 -2.4522
  889MOL0     H22621   6.007   2.361  10.023 -0.1268  0.4291 -0.9664
  889MOL0     H22622   6.043   2.459  10.162  2.1421 -0.6180 -0.6649
  889MOL0     H22623   5.897   2.587   9.921 -0.9394 -1.0312 -0.2861
  889MOL0     H22624   5.912   2.647  10.085 -1.6619 -0.7496  2.2699
  889MOL0     H22625   5.781   2.466  10.175 -1.6412 -0.9207  0.2082
  889MOL0     H22626   5.687   2.559  10.075  0.1509 -0.9889 -0.9173
  889MOL0     H22627   5.678   2.319  10.042  0.6537  0.7474  0.6989
  889MOL0     H22628   5.823   2.312   9.949 -1.1266  0.3669 -2.8427
  889MOL0     H22629   5.594   2.334   9.820 -1.4465  1.4488  3.6349
  889MOL0     H22630   5.595   2.498   9.872 -1.4855 -1.5117 -0.0681
  889MOL0     H22631   5.881   2.287   9.741 -0.6604  0.7083 -1.5302
  889MOL0     H22632   6.009   2.393   9.428 -1.0850 -1.6854  0.5052
  889MOL0     H22633   6.075   2.336   9.581 -1.2466 -0.8466  0.1169
  889MOL0     H22634   6.109   2.631   9.481  4.0342  1.5959  0.5391
  889MOL0     H22635   6.189   2.575   9.616  1.5021  0.1874 -1.4240
  889MOL0     H22636   6.310   2.398   9.486  1.2395  1.7229  1.1261
  889MOL0     H22637   6.228   2.461   9.343  2.9092  1.3692 -3.2329
  889MOL0     H22638   6.329   2.702   9.399 -0.1190 -0.4040  2.2783
  889MOL0     H22639   6.432   2.638   9.514  0.0120 -3.1315  1.2638
  889MOL0     H22640   6.604   2.537   9.117 -0.6154 -0.6909  0.0597
  889MOL0     H22641   6.711   2.253   8.976  4.5026 -3.6006  2.1986
  889MOL0     H22642   6.866   2.324   9.009  1.1126 -1.5672  2.1228
  889MOL0     H22643   6.748   2.435   8.963  0.7422 -0.2905 -1.4911
  889MOL0     H22644   7.147   2.071   9.181  0.7644 -0.1177  1.5202
  889MOL0     H22645   7.270   1.853   9.174 -0.0719 -0.8027 -1.9417
  889MOL0     H22646   7.051   1.515   9.271  1.5061  0.6977 -0.2137
  889MOL0     H22647   6.998   1.471   9.109 -1.2203  0.2524 -0.2802
  889MOL0     H22648   7.202   1.355   9.065  0.5773 -0.8775 -0.0026
  889MOL0     H22649   7.270   1.437   9.208 -0.8456 -1.0016  2.4287
  889MOL0     H22650   7.064   1.207   9.206  0.7708  1.8625 -1.5374
  889MOL0     H22651   7.135   1.289   9.357 -0.4996 -0.9220  0.5732
  889MOL0     H22652   7.363   1.201   9.215  0.4998 -1.8340  0.8364
  889MOL0     H22653   7.246   1.101   9.132  2.8848 -2.6967  0.4287
  889MOL0     H22654   7.161   1.035   9.362  0.2247  0.5932  2.8853
  889MOL0     H22655   7.297   0.945   9.286  1.8450 -0.6172  3.5634
  889MOL0     H22656   7.353   1.192   9.440  2.3489  0.6412 -1.8950
  889MOL0     H22657   7.463   1.066   9.417 -0.6078 -0.3626 -3.7368
  889MOL0     H22658   7.304   0.909   9.541 -2.0565  1.1362 -2.2825
  889MOL0     H22659   7.216   1.043   9.610  1.0992 -3.2981  3.3909
  889MOL0     H22660   7.442   1.119   9.702 -2.7567  0.3095  2.1610
  889MOL0     H22661   7.502   0.959   9.644  1.2899  1.5452 -0.8055
  889MOL0     H22662   6.889   1.663   9.078 -0.0266  0.9074 -1.3540
  889MOL0     H22663   6.781   1.854   9.107 -0.5509  1.3771 -2.9695
  889MOL0     H22664   6.700   2.221   9.474 -0.3175 -0.2778 -0.2823
  889MOL0     H22665   6.544   2.422   9.508  1.3634  1.4485 -1.0654
  889MOL0     H22666   6.437   2.061   9.679  1.8043 -1.1626 -1.8521
  889MOL0     H22667   6.680   2.025   9.703  0.0694 -0.9791  2.6444
  889MOL0     H22668   7.064   2.328   9.823  0.7901  0.9587 -2.4435
  889MOL0     H22669   7.302   2.368   9.880 -1.5940  0.6938  0.8116
  889MOL0     H22670   7.512   2.036  10.122 -1.7488 -1.0911 -0.8766
  889MOL0     H22671   7.553   1.987   9.953 -1.9260 -2.2758  1.3240
  889MOL0     H22672   7.702   2.192   9.926 -0.6320 -1.0354 -1.4420
  889MOL0     H22673   7.770   2.072  10.033 -1.5287 -0.2560  2.5086
  889MOL0     H22674   7.679   2.175  10.237 -2.4407  2.0009  0.3309
  889MOL0     H22675   7.822   2.253  10.157  0.6534  2.0626  1.5425
  889MOL0     H22676   7.543   2.364  10.212  0.2413  0.6811  1.2812
  889MOL0     H22677   7.610   2.381  10.045 -2.1377  1.8148  0.6191
  889MOL0     H22678   7.824   2.678  10.199  1.6695  0.2097 -2.4392
  889MOL0     H22679   7.336   1.951   9.970 -0.2252  0.5708  1.8169
  889MOL0     H22680   7.131   1.816   9.794  1.0564  0.0459  0.7562
  889MOL0     H22681   7.159   1.808   9.965 -0.1411 -1.5594 -0.4530
  889MOL0     H22682   6.999   1.857   9.917 -0.6531 -0.0178 -0.8270
  890MOL0     O22683   4.845   0.133  10.694  0.0574  0.5094  0.0350
  890MOL0     C22684   4.802   0.032  10.749  0.6232 -0.1510  0.2942
  890MOL0     O22685   4.879  -0.058  10.807 -0.3016 -0.2881  0.5639
  890MOL0     C22686   5.005  -0.016  10.832 -0.0961 -0.2638  0.4982
  890MOL0     C22687   5.111  -0.069  10.761 -0.6012 -0.5152 -0.6647
  890MOL0     C22688   5.244  -0.056  10.814  1.1384  0.5182  1.1067
  890MOL0     C22689   5.272   0.029  10.923  0.4374  0.4053  0.5505
  890MOL0     O22690   5.396   0.054  10.961 -0.1285  0.3593 -0.0326
  890MOL0     C22691   5.498   0.074  10.863 -0.7477  0.2557 -0.0706
  890MOL0     C22692   5.590   0.196  10.910 -0.4216  0.0868  0.2320
  890MOL0     C22693   5.678   0.166  11.037  0.1935  0.1934 -0.4454
  890MOL0     C22694   5.714   0.296  11.116  0.9037 -0.2743 -0.4293
  890MOL0     C22695   5.728   0.257  11.261  0.3132  0.0289 -0.0179
  890MOL0     C22696   5.775   0.359  11.363 -0.2988 -0.4758  0.5793
  890MOL0     C22697   5.922   0.407  11.327 -1.1321 -0.2080  0.2257
  890MOL0     C22698   5.985   0.494  11.438 -0.5989 -0.4898 -0.3459
  890MOL0     N22699   5.918   0.624  11.461  0.6416 -0.5369 -0.4668
  890MOL0     C22700   5.887   0.673  11.584 -0.5986  0.5468 -0.3448
  890MOL0     C22701   5.807   0.782  11.574  0.0909  0.0147  0.3796
  890MOL0     C22702   5.755   0.869  11.683 -1.1081  0.8095 -0.2386
  890MOL0     C22703   5.869   0.971  11.740  0.1165 -0.1099  0.1350
  890MOL0     C22704   5.898   1.072  11.627  0.0810 -0.2961 -0.0688
  890MOL0     C22705   5.817   1.197  11.639  0.3433  0.2994 -0.5471
  890MOL0     O22706   5.820   1.287  11.524 -0.1453  0.8779 -0.4373
  890MOL0     C22707   5.734   1.255  11.417  0.1552  0.0659  0.5791
  890MOL0     C22708   5.666   1.138  11.401 -0.1523  0.7534 -0.1630
  890MOL0     C22709   5.592   1.109  11.289 -0.3120 -0.0010 -0.5400
  890MOL0     C22710   5.522   0.974  11.282 -0.2082 -0.5697 -0.7054
  890MOL0     C22711   5.575   1.210  11.193 -0.2662  0.3148  0.3266
  890MOL0     C22712   5.490   1.195  11.074 -0.2482 -0.5146 -1.3705
  890MOL0     O22713   5.524   1.256  10.956  0.2838  0.2460  0.6276
  890MOL0     C22714   5.463   1.203  10.847  0.4520 -0.6107 -0.3825
  890MOL0     C22715   5.532   1.122  10.766 -0.9365  0.7499 -0.2273
  890MOL0     C22716   5.473   1.070  10.653 -0.6773  1.3060  0.3180
  890MOL0     C22717   5.352   1.118  10.609 -0.9791  0.5007 -0.5960
  890MOL0     O22718   5.302   1.067  10.490 -0.0014 -0.3497  0.3308
  890MOL0     C22719   5.262   1.149  10.380  0.8206  0.5126 -0.4832
  890MOL0     C22720   5.231   1.071  10.250 -0.4633  0.9207  0.6083
  890MOL0     C22721   5.175   0.928  10.275  0.5277  0.6448  0.6771
  890MOL0     C22722   5.047   0.938  10.335 -0.4569 -0.2161 -0.3029
  890MOL0     C22723   4.988   0.795  10.374 -0.0534 -0.2476 -0.5328
  890MOL0     C22724   4.831   0.817  10.417  0.2210  1.3439 -0.4452
  890MOL0     C22725   4.768   0.685  10.430 -0.1641  0.0798  0.2051
  890MOL0     C22726   4.649   0.699  10.530 -0.5811  0.1520  1.1845
  890MOL0    Cl22727   4.510   0.790  10.452  0.3209  0.1793  0.1154
  890MOL0     C22728   5.287   1.219  10.679 -0.6184 -0.5440  0.9306
  890MOL0     C22729   5.334   1.246  10.808  0.5000 -1.2812 -0.4799
  890MOL0     O22730   5.386   1.134  11.088 -0.8239  0.5651 -0.7982
  890MOL0     C22731   5.640   1.327  11.198 -1.1476 -1.0136 -0.1293
  890MOL0     C22732   5.722   1.352  11.311 -0.8934 -0.0396 -0.3480
  890MOL0     N22733   5.799   0.812  11.437  0.2083  0.0313 -0.0893
  890MOL0     N22734   5.867   0.714  11.371  0.2186 -0.2336 -0.1147
  890MOL0     C22735   5.161   0.086  10.991 -0.4987 -0.3319  0.3846
  890MOL0     C22736   5.035   0.063  10.953  0.5039  0.3356 -0.1802
  890MOL0     C22737   4.658  -0.000  10.730  0.4511  0.0764 -0.5703
  890MOL0     C22738   4.635  -0.112  10.661  0.3122 -0.4006  0.2226
  890MOL0     C22739   4.506  -0.151  10.637 -0.5496  0.2211  0.0452
  890MOL0     C22740   4.399  -0.067  10.668  0.2062  0.2864  0.7213
  890MOL0     O22741   4.271  -0.098  10.637 -0.7058 -0.0550 -0.9383
  890MOL0     C22742   4.232  -0.235  10.601 -0.2901 -0.5888 -0.4018
  890MOL0     C22743   4.254  -0.347  10.719  0.2132  0.0548  0.5388
  890MOL0     C22744   4.193  -0.278  10.845 -0.7011 -0.3258  1.0614
  890MOL0     C22745   4.147  -0.368  10.962  0.4752 -0.1649  0.6486
  890MOL0     C22746   4.134  -0.279  11.077  0.2859 -0.0273  0.2784
  890MOL0     C22747   4.115  -0.186  11.150  0.1996 -0.6828 -0.3495
  890MOL0     C22748   4.428   0.050  10.735 -0.6019 -0.4127 -0.2448
  890MOL0     C22749   4.556   0.080  10.778  0.5624  0.8993  0.8462
  890MOL0     C22750   4.581   0.190  10.874  0.0770 -0.0699 -0.3901
  890MOL0     H22751   5.098  -0.112  10.663 -1.5854  1.9950 -1.7353
  890MOL0     H22752   5.329  -0.107  10.770  1.4985  2.2706 -0.3595
  890MOL0     H22753   5.445   0.100  10.771 -2.2061 -0.5188  0.5215
  890MOL0     H22754   5.552  -0.019  10.842 -1.1439 -0.0628  0.3086
  890MOL0     H22755   5.657   0.221  10.828 -1.0756 -0.7195 -0.5692
  890MOL0     H22756   5.524   0.282  10.924 -0.8018 -0.1802  0.1124
  890MOL0     H22757   5.618   0.099  11.100 -0.4144 -1.0353 -2.2700
  890MOL0     H22758   5.768   0.109  11.011  0.2253  0.4756 -0.9556
  890MOL0     H22759   5.809   0.338  11.084  1.0230  0.3410  0.6917
  890MOL0     H22760   5.624   0.358  11.110 -2.6289 -4.3875  2.7917
  890MOL0     H22761   5.808   0.183  11.264  2.0643  1.7933 -0.6681
  890MOL0     H22762   5.638   0.211  11.302  0.6737  1.3646  2.4789
  890MOL0     H22763   5.702   0.441  11.364  1.9139  1.7717 -2.4953
  890MOL0     H22764   5.780   0.313  11.462  1.1085 -1.5965  0.0255
  890MOL0     H22765   5.923   0.469  11.236  1.1145 -2.7482 -1.6605
  890MOL0     H22766   5.991   0.324  11.310 -0.1502  0.6715 -0.2509
  890MOL0     H22767   5.980   0.426  11.524 -4.3100  1.8850  1.5679
  890MOL0     H22768   6.092   0.509  11.420 -1.1861  1.5550 -2.5432
  890MOL0     H22769   5.911   0.620  11.676 -2.1075  0.1136 -0.1724
  890MOL0     H22770   5.719   0.807  11.766 -1.4285 -1.4879 -2.0112
  890MOL0     H22771   5.667   0.919  11.642 -1.5627 -1.3694 -2.0522
  890MOL0     H22772   5.839   1.023  11.832  0.1436 -1.5668  0.9874
  890MOL0     H22773   5.956   0.907  11.755  0.3731  0.1743 -0.1219
  890MOL0     H22774   6.005   1.091  11.611 -0.2268  0.4414 -1.4281
  890MOL0     H22775   5.883   1.017  11.534 -1.1666 -3.2135  1.7371
  890MOL0     H22776   5.718   1.167  11.674  1.3142 -4.1175 -0.8893
  890MOL0     H22777   5.852   1.262  11.719  2.4870 -0.1543 -1.0515
  890MOL0     H22778   5.677   1.070  11.486  3.9528  0.7096 -0.5127
  890MOL0     H22779   5.416   0.981  11.309 -0.0718  0.5099 -0.4303
  890MOL0     H22780   5.563   0.901  11.353  3.0584 -0.0430 -1.8610
  890MOL0     H22781   5.550   0.935  11.184  1.2552 -0.6948 -0.2631
  890MOL0     H22782   5.631   1.088  10.797 -0.6881 -0.7531 -2.4279
  890MOL0     H22783   5.517   0.986  10.601 -4.9045 -1.9790  1.4092
  890MOL0     H22784   5.181   1.218  10.408 -0.3164 -1.1321  0.4718
  890MOL0     H22785   5.356   1.198  10.356  0.3603  1.8808  0.3484
  890MOL0     H22786   5.183   1.129  10.171 -1.6222 -0.5622  0.1775
  890MOL0     H22787   5.329   1.042  10.211 -1.3462 -2.3551  0.5382
  890MOL0     H22788   5.251   0.876  10.334 -0.4584  0.1157  1.5086
  890MOL0     H22789   5.169   0.879  10.177 -0.4399  1.6211  0.2206
  890MOL0     H22790   4.976   0.989  10.270 -1.9416 -1.8575 -0.0527
  890MOL0     H22791   5.058   0.992  10.430  2.5150  2.3309 -1.9074
  890MOL0     H22792   4.998   0.727  10.290  0.3102 -2.6687  1.3685
  890MOL0     H22793   5.049   0.755  10.455  0.5213  4.5372  1.7762
  890MOL0     H22794   4.780   0.865  10.333 -0.7908 -1.0309 -1.2962
  890MOL0     H22795   4.831   0.875  10.510  0.1722 -1.8824  1.7214
  890MOL0     H22796   4.831   0.604  10.469  0.1348  0.3222  0.2241
  890MOL0     H22797   4.716   0.658  10.338  0.3118 -0.4845  0.0971
  890MOL0     H22798   4.685   0.759  10.614 -2.0206  2.5069  0.2340
  890MOL0     H22799   4.620   0.602  10.571  1.1907 -1.7774 -1.7462
  890MOL0     H22800   5.203   1.277  10.642  1.1455  1.2664 -0.5031
  890MOL0     H22801   5.256   1.305  10.855 -1.3484 -0.7723 -3.8576
  890MOL0     H22802   5.634   1.409  11.127 -1.8179  1.5374  2.6613
  890MOL0     H22803   5.778   1.445  11.318  2.3134 -1.8374  0.0214
  890MOL0     H22804   5.190   0.170  11.052 -0.5615 -0.0734  0.0613
  890MOL0     H22805   4.968   0.131  11.003 -1.4706  0.0167 -2.2104
  890MOL0     H22806   4.722  -0.162  10.620 -1.3919 -1.6738 -2.0750
  890MOL0     H22807   4.498  -0.247  10.587  1.4902 -0.1775  0.4160
  890MOL0     H22808   4.124  -0.220  10.601 -0.0930  1.3478 -2.4308
  890MOL0     H22809   4.272  -0.261  10.502  0.4789  1.8764 -0.8166
  890MOL0     H22810   4.354  -0.380  10.749  0.3521 -0.3087 -0.3143
  890MOL0     H22811   4.201  -0.439  10.694  2.8537 -0.7839 -2.6019
  890MOL0     H22812   4.253  -0.193  10.878 -1.9497  0.2240  1.9612
  890MOL0     H22813   4.098  -0.227  10.828 -1.1078 -1.4669 -0.3955
  890MOL0     H22814   4.211  -0.452  10.990 -1.2437 -1.4189  0.9340
  890MOL0     H22815   4.048  -0.406  10.937  0.6468 -0.4915  0.4615
  890MOL0     H22816   4.076  -0.103  11.206 -5.9559 -3.2472 -0.0823
  890MOL0     H22817   4.345   0.113  10.765 -1.7890 -2.4365  0.9962
  890MOL0     H22818   4.600   0.283  10.819  2.0254  1.6229  2.8355
  890MOL0     H22819   4.495   0.208  10.940 -0.4961 -0.9741 -0.8701
  890MOL0     H22820   4.670   0.163  10.931  1.2783  2.5147 -0.9048
  891MOL0     O22821   8.096   0.903   5.291  0.0336  0.7494  0.0218
  891MOL0     C22822   8.200   0.941   5.345 -1.3583 -0.0250  0.4411
  891MOL0     O22823   8.266   1.055   5.303 -0.5003  1.1283  0.6190
  891MOL0     C22824   8.206   1.159   5.235  0.5735  0.3323 -0.1306
  891MOL0     C22825   8.285   1.269   5.197  0.8544  0.5924  0.1127
  891MOL0     C22826   8.237   1.383   5.146  0.4572 -1.0062 -0.3839
  891MOL0     C22827   8.101   1.393   5.115  1.0504  0.6383  1.1233
  891MOL0     O22828   8.055   1.518   5.058 -0.4728  0.9871 -0.9965
  891MOL0     C22829   7.918   1.552   5.050  0.4514 -0.5511  0.0814
  891MOL0     C22830   7.902   1.704   5.019 -0.1931  0.4588 -0.6114
  891MOL0     C22831   7.767   1.758   5.064 -0.5265  0.2915  0.2545
  891MOL0     C22832   7.725   1.890   4.992  0.3004  0.0205 -0.0854
  891MOL0     C22833   7.593   1.954   5.048 -1.1336  0.0551 -0.4339
  891MOL0     C22834   7.471   1.877   5.029  0.5493  0.2084  0.4217
  891MOL0     C22835   7.349   1.915   5.111 -0.5534  0.6311  0.3060
  891MOL0     C22836   7.291   1.807   5.208  0.4844 -0.1693 -1.8172
  891MOL0     N22837   7.378   1.782   5.327  0.8330  0.1671 -0.5120
  891MOL0     C22838   7.352   1.831   5.447 -0.3558  0.3299 -0.6502
  891MOL0     C22839   7.448   1.786   5.522  0.2976 -0.2603  0.0046
  891MOL0     C22840   7.481   1.824   5.667  0.1221  0.9195  0.6561
  891MOL0     C22841   7.622   1.867   5.702 -0.1098  0.2626 -0.2986
  891MOL0     C22842   7.643   2.025   5.701  1.1628  0.0871  0.4501
  891MOL0     C22843   7.762   2.064   5.803  0.8683 -0.9922  0.5600
  891MOL0     O22844   7.879   1.996   5.751  0.2691 -1.0858  0.3265
  891MOL0     C22845   7.967   1.971   5.862 -0.5497  0.1652 -0.2155
  891MOL0     C22846   7.972   2.033   5.987 -0.6595 -0.0289  0.1163
  891MOL0     C22847   8.074   2.004   6.076  0.0010 -0.1130 -0.3783
  891MOL0     C22848   8.067   2.071   6.217 -0.3883 -0.0286  0.2074
  891MOL0     C22849   8.176   1.910   6.045 -0.4187  0.3492 -0.1427
  891MOL0     C22850   8.300   1.883   6.127 -0.3257 -0.2099 -1.0256
  891MOL0     O22851   8.419   1.850   6.059 -0.1130  0.2171 -0.5379
  891MOL0     C22852   8.544   1.870   6.115 -0.0277 -0.1466  0.4081
  891MOL0     C22853   8.571   1.800   6.232  1.0406  0.7054  0.6189
  891MOL0     C22854   8.701   1.812   6.281  0.8249  0.1790 -0.0361
  891MOL0     C22855   8.802   1.879   6.217 -0.1777  0.1991 -0.4972
  891MOL0     O22856   8.917   1.874   6.284 -0.2531 -0.1726  0.2478
  891MOL0     C22857   8.983   2.003   6.313  0.7313  1.2471  1.1688
  891MOL0     C22858   9.114   1.973   6.377  1.4469  0.9190  0.3957
  891MOL0     C22859   9.182   2.095   6.438  0.0941  0.1858 -0.3666
  891MOL0     C22860   9.246   2.204   6.351  0.5563 -0.3029  0.7306
  891MOL0     C22861   9.384   2.158   6.289  0.1686 -0.4102 -0.0777
  891MOL0     C22862   9.452   2.270   6.202 -0.6908 -0.3725 -0.2649
  891MOL0     C22863   9.478   2.398   6.284  0.5283 -0.3383  0.3568
  891MOL0     C22864   9.621   2.460   6.248  0.9829 -0.0534  0.3292
  891MOL0    Cl22865   9.606   2.513   6.075  0.5520  0.1117 -0.1111
  891MOL0     C22866   8.777   1.942   6.093  0.1550  0.7154 -0.4785
  891MOL0     C22867   8.646   1.937   6.036  0.2129 -1.1680 -0.2030
  891MOL0     O22868   8.288   1.907   6.247 -0.6517 -0.4533 -0.6028
  891MOL0     C22869   8.167   1.841   5.928  0.0279  0.2037  0.2869
  891MOL0     C22870   8.057   1.872   5.843  0.0986  0.1837 -0.8560
  891MOL0     N22871   7.541   1.711   5.456 -0.2097 -0.3403  1.0294
  891MOL0     N22872   7.494   1.725   5.334 -0.3765  0.0936 -0.6882
  891MOL0     C22873   8.015   1.280   5.141 -0.0121  0.3919 -0.5847
  891MOL0     C22874   8.065   1.177   5.214  0.1401 -0.8275  0.3222
  891MOL0     C22875   8.263   0.840   5.432 -0.7857  0.2685  0.2165
  891MOL0     C22876   8.409   0.845   5.430 -0.7206 -0.4079  0.1222
  891MOL0     C22877   8.482   0.745   5.499 -0.0952 -0.9967  0.8569
  891MOL0     C22878   8.406   0.649   5.566 -0.1098  0.6931  0.4515
  891MOL0     O22879   8.488   0.552   5.623 -0.5715  0.1513 -0.2358
  891MOL0     C22880   8.439   0.489   5.747 -0.2416 -0.2973  0.1195
  891MOL0     C22881   8.476   0.572   5.873 -0.0066 -0.6646  0.3446
  891MOL0     C22882   8.627   0.576   5.883 -0.1392 -0.5196 -0.0004
  891MOL0     C22883   8.688   0.709   5.831 -0.2320  0.5642 -1.1486
  891MOL0     C22884   8.685   0.800   5.942 -0.3021  0.9268  0.1058
  891MOL0     C22885   8.668   0.872   6.034 -0.7429 -0.6239  0.3424
  891MOL0     C22886   8.269   0.658   5.586  0.7183  1.0163  1.0809
  891MOL0     C22887   8.198   0.760   5.523  0.0309 -1.0608 -0.7477
  891MOL0     C22888   8.052   0.772   5.544  0.2841  0.4277  0.1298
  891MOL0     H22889   8.389   1.251   5.222  0.6903  2.0433  2.0278
  891MOL0     H22890   8.297   1.469   5.119 -0.7423  0.0216  0.1435
  891MOL0     H22891   7.888   1.531   5.153 -0.2845 -2.3233 -0.4443
  891MOL0     H22892   7.857   1.492   4.980 -0.6876  0.8365 -0.1656
  891MOL0     H22893   7.979   1.757   5.077 -0.7519  0.6669 -0.0416
  891MOL0     H22894   7.915   1.716   4.911  4.2398  1.3568 -0.1797
  891MOL0     H22895   7.691   1.679   5.062 -1.3516  1.0703  0.1050
  891MOL0     H22896   7.776   1.775   5.172 -1.3098  0.6132  0.2785
  891MOL0     H22897   7.809   1.960   5.001  0.7267 -0.7090  2.4341
  891MOL0     H22898   7.706   1.878   4.885 -0.7554 -0.1836  0.1163
  891MOL0     H22899   7.592   2.055   5.007  1.0222 -0.7507 -2.7067
  891MOL0     H22900   7.606   1.951   5.157 -0.6764  0.9121 -0.4607
  891MOL0     H22901   7.452   1.893   4.922 -0.6366  1.6815  0.8327
  891MOL0     H22902   7.476   1.767   5.028 -3.0346 -0.1833 -3.4336
  891MOL0     H22903   7.270   1.927   5.037  0.8312 -0.7162 -1.4886
  891MOL0     H22904   7.370   2.014   5.153  2.0087 -0.1169  0.9632
  891MOL0     H22905   7.195   1.851   5.239  0.9869 -0.3347  0.0963
  891MOL0     H22906   7.279   1.708   5.165 -0.4008  0.3995 -2.9313
  891MOL0     H22907   7.266   1.889   5.480 -0.3096 -1.2149  2.5636
  891MOL0     H22908   7.450   1.738   5.727 -0.1503  1.9138  1.9820
  891MOL0     H22909   7.408   1.902   5.690 -1.7356 -0.4791 -0.1916
  891MOL0     H22910   7.613   1.844   5.809 -0.8591 -1.9599 -0.8000
  891MOL0     H22911   7.697   1.807   5.649 -0.6094 -2.3074  1.7169
  891MOL0     H22912   7.668   2.058   5.599  2.9921  1.8096  1.3964
  891MOL0     H22913   7.549   2.069   5.736 -0.2136 -0.3574 -2.3547
  891MOL0     H22914   7.781   2.171   5.814  0.3482 -0.9172  0.7483
  891MOL0     H22915   7.735   2.028   5.902  1.3063  3.3386  2.4931
  891MOL0     H22916   7.906   2.117   6.008 -0.1471  0.0276  1.5516
  891MOL0     H22917   8.051   1.991   6.291  1.4976 -0.7015 -0.0400
  891MOL0     H22918   7.982   2.139   6.226 -0.3253 -0.1054  1.6913
  891MOL0     H22919   8.161   2.125   6.235  0.5937 -0.9435 -1.8433
  891MOL0     H22920   8.510   1.719   6.270 -0.5960  1.5023 -0.2209
  891MOL0     H22921   8.717   1.742   6.363  0.0896  1.1486  0.9561
  891MOL0     H22922   9.013   2.057   6.222 -0.9917  0.0727 -0.1662
  891MOL0     H22923   8.926   2.073   6.374 -0.7418 -0.9597  2.4503
  891MOL0     H22924   9.089   1.895   6.449 -2.3745 -0.4793 -2.1250
  891MOL0     H22925   9.184   1.934   6.302 -0.1509  1.5656 -1.5348
  891MOL0     H22926   9.263   2.045   6.492  0.2154  0.1484 -0.5831
  891MOL0     H22927   9.105   2.131   6.507 -0.5806 -0.6539 -0.6655
  891MOL0     H22928   9.245   2.299   6.405  0.5205 -0.3065  0.7369
  891MOL0     H22929   9.168   2.232   6.280  0.8778 -0.3093  0.3747
  891MOL0     H22930   9.444   2.122   6.373 -0.1649 -1.6030 -0.3239
  891MOL0     H22931   9.374   2.070   6.224 -0.1763 -0.6288  0.2711
  891MOL0     H22932   9.393   2.301   6.116 -2.1490 -0.0544  0.8133
  891MOL0     H22933   9.546   2.222   6.174  0.5281  0.7824  1.6058
  891MOL0     H22934   9.479   2.377   6.391  0.1024 -1.3627  0.1755
  891MOL0     H22935   9.398   2.471   6.272  0.4402 -0.2507  1.3539
  891MOL0     H22936   9.705   2.389   6.251  0.2623 -1.0766 -1.7304
  891MOL0     H22937   9.637   2.544   6.316 -3.2423 -0.2641  1.8882
  891MOL0     H22938   8.858   1.994   6.043  1.4708 -1.9048 -1.2668
  891MOL0     H22939   8.633   1.975   5.936  4.8746  2.5367  0.2740
  891MOL0     H22940   8.238   1.761   5.910 -0.2652  0.1564 -0.7676
  891MOL0     H22941   8.044   1.806   5.757 -2.4912 -3.6360  2.1308
  891MOL0     H22942   7.907   1.283   5.127 -0.1766  0.2660  0.5868
  891MOL0     H22943   7.985   1.116   5.257 -0.8250 -0.0746 -0.3546
  891MOL0     H22944   8.468   0.916   5.373 -4.6968  0.5639 -3.2280
  891MOL0     H22945   8.590   0.748   5.503 -0.1198  2.7207  2.7293
  891MOL0     H22946   8.334   0.458   5.749  0.7759 -4.4798 -1.0773
  891MOL0     H22947   8.484   0.390   5.760  1.8943  0.9293  3.3093
  891MOL0     H22948   8.441   0.512   5.958  0.8682 -1.7306 -0.0356
  891MOL0     H22949   8.424   0.668   5.881 -3.6164 -2.3230 -0.7824
  891MOL0     H22950   8.633   0.572   5.992  0.0273  0.4597  0.0368
  891MOL0     H22951   8.677   0.485   5.849  2.7778  0.1811  2.0172
  891MOL0     H22952   8.630   0.754   5.750  0.4051  0.2373 -1.7923
  891MOL0     H22953   8.790   0.692   5.797 -0.1904  1.4887 -1.5130
  891MOL0     H22954   8.653   0.913   6.131  0.5125  0.8208 -0.0376
  891MOL0     H22955   8.212   0.580   5.636  1.9164 -2.0204 -1.8744
  891MOL0     H22956   8.021   0.725   5.637  1.2948 -1.1067 -0.2677
  891MOL0     H22957   8.021   0.877   5.551 -0.6747  0.1088  0.8093
  891MOL0     H22958   7.996   0.722   5.465 -1.4863  1.2536  0.7957
  892MOL0     O22959   2.347   8.529   5.875  0.3166  0.0680 -0.6933
  892MOL0     C22960   2.346   8.413   5.857 -0.4264 -0.9147 -0.5429
  892MOL0     O22961   2.423   8.330   5.925 -0.8786  0.3042 -0.2775
  892MOL0     C22962   2.518   8.356   6.020 -0.0705  0.9170 -0.8278
  892MOL0     C22963   2.656   8.302   6.025  0.0484 -0.8159 -0.7268
  892MOL0     C22964   2.736   8.338   6.138 -0.4850 -0.1005 -0.2173
  892MOL0     C22965   2.684   8.427   6.242 -0.3142 -0.1793  0.3171
  892MOL0     O22966   2.769   8.432   6.349 -0.2562 -0.5650 -0.3721
  892MOL0     C22967   2.760   8.542   6.443  1.1434 -0.2268  0.2009
  892MOL0     C22968   2.905   8.577   6.492  0.1838  0.0858  0.7882
  892MOL0     C22969   2.902   8.656   6.619 -0.3250 -0.4371  0.1215
  892MOL0     C22970   3.042   8.709   6.635  0.2085  0.0205 -0.1160
  892MOL0     C22971   3.119   8.699   6.772 -0.2012  0.3542  0.0681
  892MOL0     C22972   3.270   8.736   6.770 -0.0150  0.1109 -0.4964
  892MOL0     C22973   3.312   8.718   6.921  0.2628  0.6261 -0.1302
  892MOL0     C22974   3.467   8.727   6.943 -0.6980 -0.2841  0.1226
  892MOL0     N22975   3.514   8.864   6.933 -0.1437  0.5773 -0.3201
  892MOL0     C22976   3.528   8.965   7.022  0.4825  0.1124 -0.2109
  892MOL0     C22977   3.570   9.077   6.967 -0.1066  0.4106  0.0182
  892MOL0     C22978   3.596   9.214   7.028  0.0049 -0.4490  0.1500
  892MOL0     C22979   3.466   9.294   7.004  0.4769  0.3477 -0.6185
  892MOL0     C22980   3.456   9.443   7.031 -0.7028  0.3370 -0.8972
  892MOL0     C22981   3.538   9.484   7.160  0.3493  0.4929  0.5102
  892MOL0     O22982   3.478   9.424   7.281  0.5070 -0.6453  0.3509
  892MOL0     C22983   3.426   9.515   7.375 -0.2501 -0.6992  0.0243
  892MOL0     C22984   3.458   9.649   7.396 -0.8699  0.2161  0.3075
  892MOL0     C22985   3.396   9.724   7.492  0.5352  0.3724 -0.1478
  892MOL0     C22986   3.440   9.866   7.502  0.3914 -0.6961 -0.0938
  892MOL0     C22987   3.291   9.666   7.571 -0.4733  0.3929  1.8400
  892MOL0     C22988   3.190   9.746   7.636  0.4956 -0.1394 -0.3436
  892MOL0     O22989   3.081   9.671   7.687  0.1359  0.7037 -0.7132
  892MOL0     C22990   2.987   9.736   7.764  0.1786 -0.1082  0.0046
  892MOL0     C22991   3.018   9.828   7.866 -0.7055  0.3534 -0.7707
  892MOL0     C22992   2.916   9.882   7.946 -0.3553  0.3366  0.2667
  892MOL0     C22993   2.784   9.839   7.935 -0.1546  0.8051  0.0197
  892MOL0     O22994   2.680   9.892   8.003 -0.2745 -0.1158 -0.2497
  892MOL0     C22995   2.705   9.954   8.136 -0.0593  0.9405  0.2163
  892MOL0     C22996   2.601   9.905   8.229  0.1687 -0.3540 -0.1718
  892MOL0     C22997   2.629   9.961   8.369 -0.1631  0.5755 -0.2575
  892MOL0     C22998   2.575   9.851   8.471  0.2296 -0.2191  0.6488
  892MOL0     C22999   2.427   9.884   8.498 -0.1096  0.7928  0.0745
  892MOL0     C23000   2.363   9.772   8.571 -1.1468 -0.9094 -0.4453
  892MOL0     C23001   2.226   9.815   8.613  0.7676  0.5088 -0.2700
  892MOL0     C23002   2.158   9.695   8.672  0.2825  0.7898  0.4820
  892MOL0    Cl23003   2.223   9.671   8.833  0.4263 -0.4928 -0.4404
  892MOL0     C23004   2.755   9.752   7.837  0.4974 -0.0699 -0.8514
  892MOL0     C23005   2.854   9.699   7.749  0.0818  0.4832 -0.4795
  892MOL0     O23006   3.201   9.869   7.645  0.4937 -0.5466 -0.4020
  892MOL0     C23007   3.283   9.524   7.561  0.4971  0.1277  1.0561
  892MOL0     C23008   3.341   9.454   7.461 -0.3271  0.0236  0.0767
  892MOL0     N23009   3.590   9.043   6.833 -0.0122  0.6484  0.1502
  892MOL0     N23010   3.555   8.913   6.816  0.1232  0.5538  0.7902
  892MOL0     C23011   2.552   8.463   6.240  0.2008  0.2767 -0.2060
  892MOL0     C23012   2.474   8.428   6.136  0.3613  0.5137  0.2707
  892MOL0     C23013   2.241   8.351   5.770 -0.1621 -0.7766 -0.4263
  892MOL0     C23014   2.250   8.219   5.747  0.4172  0.6447  0.2170
  892MOL0     C23015   2.142   8.148   5.683  0.5393 -0.1768 -0.3403
  892MOL0     C23016   2.029   8.204   5.628  0.2900  0.2594 -0.2610
  892MOL0     O23017   1.921   8.139   5.557 -0.7320 -0.5555  0.1624
  892MOL0     C23018   1.916   7.996   5.543 -0.4129  0.4965 -0.7783
  892MOL0     C23019   1.873   7.936   5.674  0.2503  0.1475  0.5745
  892MOL0     C23020   1.744   7.981   5.746 -0.0492  0.0279 -1.4091
  892MOL0     C23021   1.746   7.956   5.899 -0.3548  0.0806 -0.4920
  892MOL0     C23022   1.784   7.823   5.940 -0.0668  0.9870 -0.0110
  892MOL0     C23023   1.822   7.705   5.965  0.4261 -0.1608  0.0246
  892MOL0     C23024   2.028   8.337   5.642  0.0430 -0.1678  0.4087
  892MOL0     C23025   2.129   8.415   5.694 -1.1422 -1.0876 -1.2738
  892MOL0     C23026   2.110   8.559   5.700  1.0300 -0.2080 -0.1687
  892MOL0     H23027   2.707   8.230   5.963  0.0607  0.7685 -2.6369
  892MOL0     H23028   2.829   8.284   6.152  0.4118  1.6866  1.0694
  892MOL0     H23029   2.699   8.514   6.529  2.0189 -1.1761  0.5362
  892MOL0     H23030   2.708   8.626   6.397  0.4730  0.2962  1.8228
  892MOL0     H23031   2.964   8.486   6.504 -0.6652 -0.5084  0.5045
  892MOL0     H23032   2.950   8.632   6.409 -0.3833  2.0451  1.7134
  892MOL0     H23033   2.833   8.740   6.614 -0.7569 -0.7438  0.8190
  892MOL0     H23034   2.870   8.581   6.692 -0.2639  0.5684  1.1977
  892MOL0     H23035   3.107   8.663   6.560  5.7320  1.5436  3.2087
  892MOL0     H23036   3.025   8.814   6.610  1.1293 -0.0785 -1.2432
  892MOL0     H23037   3.113   8.595   6.806  0.0524 -0.4500 -2.1295
  892MOL0     H23038   3.064   8.774   6.829  0.8760  1.1474  0.0724
  892MOL0     H23039   3.333   8.671   6.708  3.3203  1.0281  1.6960
  892MOL0     H23040   3.291   8.841   6.746  0.2018 -0.5240 -3.5495
  892MOL0     H23041   3.275   8.630   6.974 -1.9114  2.9439  2.4881
  892MOL0     H23042   3.268   8.795   6.986  0.1055  1.1224 -0.8062
  892MOL0     H23043   3.506   8.674   7.031  2.7757 -0.5196 -1.4055
  892MOL0     H23044   3.518   8.672   6.863  1.4264 -1.8847  2.4087
  892MOL0     H23045   3.487   8.968   7.122  1.6399  0.6360  0.2690
  892MOL0     H23046   3.674   9.270   6.976 -0.1401 -1.7340 -1.5115
  892MOL0     H23047   3.625   9.217   7.134 -0.8326 -0.4142  0.3894
  892MOL0     H23048   3.432   9.275   6.901 -2.0205  3.7624 -0.6094
  892MOL0     H23049   3.400   9.238   7.071  2.7204 -4.9134 -2.2607
  892MOL0     H23050   3.494   9.503   6.947 -0.6236  1.5738 -0.0195
  892MOL0     H23051   3.353   9.476   7.049  0.3784  3.3428  0.5252
  892MOL0     H23052   3.635   9.438   7.136 -0.9381 -1.5124 -1.1861
  892MOL0     H23053   3.574   9.587   7.162  3.6083 -0.4248 -1.7411
  892MOL0     H23054   3.542   9.697   7.346 -0.7399  0.7174  0.9876
  892MOL0     H23055   3.428   9.907   7.603 -2.2849 -1.2335 -0.1048
  892MOL0     H23056   3.376   9.928   7.438 -2.8947 -3.6347  0.0331
  892MOL0     H23057   3.547   9.878   7.482  0.3886 -0.4055  0.0557
  892MOL0     H23058   3.118   9.867   7.882 -1.3522  1.6907  0.1967
  892MOL0     H23059   2.932   9.963   8.017 -3.3768  3.4632 -2.2455
  892MOL0     H23060   2.803   9.915   8.165  0.5272  0.0078 -2.6786
  892MOL0     H23061   2.721  10.062   8.133  1.0582  0.8587  1.6918
  892MOL0     H23062   2.506   9.933   8.182  1.9161  0.5137 -3.4543
  892MOL0     H23063   2.619   9.798   8.222 -0.9641 -0.7391  1.9054
  892MOL0     H23064   2.580  10.055   8.392 -0.6281  0.0491  0.9850
  892MOL0     H23065   2.735   9.974   8.393 -0.0856  1.3044 -0.9843
  892MOL0     H23066   2.630   9.859   8.566 -0.4648  4.9367  0.9239
  892MOL0     H23067   2.577   9.749   8.431  3.9150 -0.9979  2.3600
  892MOL0     H23068   2.417   9.973   8.561 -3.5355 -0.3705  1.4721
  892MOL0     H23069   2.365   9.900   8.409 -0.3409  2.4987  0.5016
  892MOL0     H23070   2.415   9.750   8.665 -2.3359  0.5799  0.6079
  892MOL0     H23071   2.358   9.679   8.515 -1.9613 -0.0870 -1.7894
  892MOL0     H23072   2.165   9.844   8.527  1.1183 -0.7192 -0.9606
  892MOL0     H23073   2.220   9.902   8.679  1.8160  2.0060 -2.0534
  892MOL0     H23074   2.187   9.606   8.615 -0.9985  0.1395  0.7869
  892MOL0     H23075   2.050   9.694   8.654  0.5098 -2.2599 -1.4873
  892MOL0     H23076   2.652   9.721   7.820  1.0022 -1.4886 -1.5060
  892MOL0     H23077   2.842   9.606   7.694  0.2220  0.2655 -0.1415
  892MOL0     H23078   3.208   9.466   7.614 -0.3045 -1.4191 -1.5790
  892MOL0     H23079   3.329   9.347   7.446  4.1789 -0.4391 -1.8820
  892MOL0     H23080   2.520   8.518   6.329  3.3395  1.2569  0.4388
  892MOL0     H23081   2.372   8.461   6.122 -0.0483 -0.8344 -0.0474
  892MOL0     H23082   2.339   8.166   5.781 -0.3991 -1.3692 -0.5695
  892MOL0     H23083   2.165   8.042   5.679 -1.4013 -0.7413  1.5153
  892MOL0     H23084   1.836   7.961   5.476 -3.0236 -0.6289  2.6433
  892MOL0     H23085   2.015   7.959   5.516 -1.1005  0.0393 -2.8320
  892MOL0     H23086   1.962   7.945   5.736  3.1615  1.9553 -3.4125
  892MOL0     H23087   1.872   7.826   5.665  3.7613 -0.2555  3.3284
  892MOL0     H23088   1.744   8.088   5.725 -3.5528  0.2731 -0.8160
  892MOL0     H23089   1.650   7.944   5.704 -0.6274 -1.8417  1.2444
  892MOL0     H23090   1.647   7.980   5.940 -1.6097 -2.3131 -1.9429
  892MOL0     H23091   1.815   8.020   5.955  0.1239 -2.5678  2.2065
  892MOL0     H23092   1.827   7.602   5.994 -2.8213 -0.4814 -0.1692
  892MOL0     H23093   1.946   8.382   5.587  1.5891 -0.1064 -2.0066
  892MOL0     H23094   2.206   8.612   5.706  0.9911 -0.0923 -0.5618
  892MOL0     H23095   2.076   8.588   5.600  0.6425 -1.7248 -0.4981
  892MOL0     H23096   2.058   8.588   5.792 -0.0940  1.3954 -1.2548
  893MOL0     O23097   8.782   6.640   2.110 -0.0866  0.2827 -0.7285
  893MOL0     C23098   8.871   6.601   2.180  0.0196  0.0451  1.2105
  893MOL0     O23099   8.869   6.476   2.240  0.0700  0.1092 -0.3225
  893MOL0     C23100   8.808   6.368   2.185  0.0070 -0.1845  0.1104
  893MOL0     C23101   8.876   6.244   2.185  0.4989  0.1771  0.8698
  893MOL0     C23102   8.820   6.128   2.151 -0.2928 -1.3313  0.0878
  893MOL0     C23103   8.686   6.124   2.110  0.0494 -0.6271 -0.4849
  893MOL0     O23104   8.624   6.007   2.064 -0.1232 -0.9810 -0.0081
  893MOL0     C23105   8.620   5.988   1.918  0.2880  0.5708 -0.6339
  893MOL0     C23106   8.756   6.000   1.845 -0.5500  0.5454  0.2216
  893MOL0     C23107   8.745   5.992   1.691  0.4594  0.8446  0.5822
  893MOL0     C23108   8.885   5.981   1.638 -0.5511 -0.0820 -0.0442
  893MOL0     C23109   8.911   5.952   1.480 -0.3038 -0.6303 -0.4752
  893MOL0     C23110   8.855   6.070   1.397 -1.0310  0.1753 -0.6499
  893MOL0     C23111   8.851   6.043   1.250 -1.3506 -0.0269  0.1398
  893MOL0     C23112   8.989   6.012   1.196  0.3713 -0.3188 -0.6322
  893MOL0     N23113   9.016   6.047   1.057  0.3175 -0.0428 -0.4071
  893MOL0     C23114   8.986   5.973   0.939 -0.8934 -0.7243 -0.2293
  893MOL0     C23115   9.042   6.039   0.835  0.4743  0.0308 -0.2276
  893MOL0     C23116   9.049   5.999   0.688  0.4536  0.4855 -0.2114
  893MOL0     C23117   9.008   5.849   0.668 -0.4818  1.0579  0.2783
  893MOL0     C23118   9.032   5.802   0.513  0.8442  0.0438 -0.6726
  893MOL0     C23119   8.999   5.647   0.512  0.2317 -0.4472  0.6100
  893MOL0     O23120   8.886   5.620   0.594  0.2223 -0.5833 -0.4880
  893MOL0     C23121   8.843   5.494   0.604  0.2487 -0.8034 -0.8341
  893MOL0     C23122   8.708   5.475   0.596 -0.2548 -0.2137 -0.3091
  893MOL0     C23123   8.654   5.340   0.616  0.4451  0.0438 -0.9068
  893MOL0     C23124   8.504   5.320   0.622 -0.0217 -1.3105 -0.7710
  893MOL0     C23125   8.747   5.224   0.629  0.3637 -0.7886  0.3606
  893MOL0     C23126   8.711   5.084   0.633  0.0911  0.4634 -0.2489
  893MOL0     O23127   8.811   4.988   0.649 -0.5150  0.9486  0.8226
  893MOL0     C23128   8.787   4.851   0.642  0.5448 -0.2090  0.4946
  893MOL0     C23129   8.798   4.769   0.753  0.1217 -0.0504  0.0812
  893MOL0     C23130   8.782   4.632   0.742  0.4315  0.3256  0.5197
  893MOL0     C23131   8.734   4.572   0.617  0.4609  0.9832  0.4504
  893MOL0     O23132   8.714   4.435   0.619 -0.3032 -0.6786  0.5043
  893MOL0     C23133   8.706   4.377   0.493  0.4064 -0.6256 -0.1008
  893MOL0     C23134   8.724   4.227   0.527  0.4315 -0.0966 -0.1162
  893MOL0     C23135   8.869   4.189   0.571 -0.1632 -1.0124 -0.2659
  893MOL0     C23136   8.872   4.035   0.593  0.9283  0.1451  0.0757
  893MOL0     C23137   9.018   3.990   0.609  0.7774 -0.1680  0.7561
  893MOL0     C23138   9.029   3.831   0.593 -0.4727 -0.3365 -0.5460
  893MOL0     C23139   9.022   3.793   0.447  0.4953 -0.6543 -0.0464
  893MOL0     C23140   9.153   3.814   0.373 -0.1326  0.2096  0.6972
  893MOL0    Cl23141   9.273   3.707   0.441  0.6482  0.2070 -0.4903
  893MOL0     C23142   8.709   4.650   0.509 -0.3969 -0.3798 -0.4714
  893MOL0     C23143   8.746   4.785   0.513 -0.1899  0.7674 -0.0040
  893MOL0     O23144   8.598   5.051   0.602  0.7662  0.3334 -0.1598
  893MOL0     C23145   8.882   5.255   0.632 -0.2594 -0.1937  0.0372
  893MOL0     C23146   8.931   5.391   0.626 -0.1062  0.0070  0.0366
  893MOL0     N23147   9.099   6.154   0.888 -0.0693 -0.6831  0.3622
  893MOL0     N23148   9.072   6.160   1.012 -0.0988 -0.2841 -0.1685
  893MOL0     C23149   8.615   6.240   2.104 -0.0454  0.0218  0.7567
  893MOL0     C23150   8.676   6.359   2.148 -0.2514 -0.3312 -0.4911
  893MOL0     C23151   8.983   6.679   2.228 -1.0681 -0.8936 -0.7622
  893MOL0     C23152   9.091   6.611   2.295  0.5458 -0.8471 -0.5608
  893MOL0     C23153   9.207   6.678   2.315 -0.4754  0.3342 -0.2534
  893MOL0     C23154   9.219   6.817   2.293 -0.1141 -0.2533 -0.0852
  893MOL0     O23155   9.334   6.896   2.305  0.2502 -0.0612 -0.0105
  893MOL0     C23156   9.454   6.837   2.349 -0.5393 -1.1650  1.1483
  893MOL0     C23157   9.568   6.936   2.331 -0.1126 -0.2556 -1.1298
  893MOL0     C23158   9.582   7.008   2.197 -0.4401  0.3856 -0.5177
  893MOL0     C23159   9.669   7.128   2.215 -0.9925 -0.3994  0.9194
  893MOL0     C23160   9.721   7.162   2.079 -0.5368 -0.2451  0.7100
  893MOL0     C23161   9.759   7.201   1.967  0.2821  0.1600 -0.1732
  893MOL0     C23162   9.110   6.886   2.244  1.0690  0.5303  0.7076
  893MOL0     C23163   8.990   6.824   2.217 -0.3397 -0.0718 -0.1913
  893MOL0     C23164   8.871   6.906   2.170 -0.1254  0.3245  0.7332
  893MOL0     H23165   8.982   6.241   2.206  0.2394 -1.1960  2.1072
  893MOL0     H23166   8.888   6.046   2.171  1.0682 -0.1044  0.6510
  893MOL0     H23167   8.545   6.053   1.872 -0.4134 -0.7733 -1.4845
  893MOL0     H23168   8.592   5.883   1.904 -0.2827  0.6786 -0.3629
  893MOL0     H23169   8.813   6.082   1.889 -1.2267  1.3708 -0.4140
  893MOL0     H23170   8.809   5.906   1.863  1.7206  1.9430  1.3094
  893MOL0     H23171   8.688   5.902   1.669 -2.3463  2.3870  1.0511
  893MOL0     H23172   8.701   6.087   1.657  2.5503  2.0305  1.0186
  893MOL0     H23173   8.933   6.079   1.649  0.1544 -0.5442  1.1968
  893MOL0     H23174   8.950   5.904   1.679 -0.1904 -1.5110 -3.0177
  893MOL0     H23175   8.865   5.858   1.450 -2.3899  0.2941 -0.3121
  893MOL0     H23176   9.019   5.946   1.461 -0.0571  2.3276 -0.4263
  893MOL0     H23177   8.752   6.092   1.428 -1.2246  2.1696 -2.5342
  893MOL0     H23178   8.906   6.165   1.414 -0.4196 -0.1384 -0.7306
  893MOL0     H23179   8.819   6.137   1.205  1.3970  0.0066 -1.9776
  893MOL0     H23180   8.783   5.962   1.219 -1.7339 -0.0760  1.0712
  893MOL0     H23181   9.074   6.038   1.260  0.2644 -3.7656  1.0913
  893MOL0     H23182   8.992   5.903   1.202 -0.8348 -0.5902 -3.3407
  893MOL0     H23183   8.934   5.878   0.939 -0.9993 -0.6907  0.9907
  893MOL0     H23184   9.153   6.015   0.656  0.2839  1.6573 -0.2270
  893MOL0     H23185   8.993   6.055   0.612  1.6972 -2.2256 -3.3973
  893MOL0     H23186   9.079   5.786   0.722 -2.4035  1.7951  3.9350
  893MOL0     H23187   8.913   5.813   0.706  0.3170 -1.9192 -0.2641
  893MOL0     H23188   8.976   5.858   0.438 -1.1629  0.2887  0.9066
  893MOL0     H23189   9.137   5.816   0.486  1.6315 -1.1197  1.4655
  893MOL0     H23190   8.976   5.621   0.408  3.1515 -0.3813 -0.1492
  893MOL0     H23191   9.088   5.591   0.542 -2.0044 -3.6930  1.8450
  893MOL0     H23192   8.641   5.550   0.555  2.9915  1.6003 -2.7854
  893MOL0     H23193   8.465   5.248   0.550 -1.7001  0.2666 -1.5243
  893MOL0     H23194   8.455   5.416   0.606 -1.8632 -2.1397 -0.3602
  893MOL0     H23195   8.473   5.291   0.723  1.1088  4.6339  1.6864
  893MOL0     H23196   8.818   4.806   0.853 -3.6124  0.5638  0.7379
  893MOL0     H23197   8.797   4.576   0.833 -0.3930  3.5736  2.8182
  893MOL0     H23198   8.608   4.394   0.447  1.4696  1.0040 -1.9035
  893MOL0     H23199   8.787   4.401   0.424 -0.3583 -0.6300 -1.0130
  893MOL0     H23200   8.653   4.198   0.605 -0.0077  0.6891 -0.2074
  893MOL0     H23201   8.688   4.165   0.444 -3.0201  0.8273  0.5113
  893MOL0     H23202   8.895   4.252   0.657 -1.6665 -0.2864 -0.3044
  893MOL0     H23203   8.936   4.222   0.490 -2.4180  3.7095 -0.5778
  893MOL0     H23204   8.829   3.985   0.506  1.1418 -0.3209  0.2294
  893MOL0     H23205   8.809   3.999   0.676 -0.3702  0.3994 -0.7782
  893MOL0     H23206   9.075   4.042   0.531 -0.3516  0.0743  0.0667
  893MOL0     H23207   9.069   4.013   0.703  1.5241  0.0405  0.3141
  893MOL0     H23208   8.949   3.782   0.649 -0.0692 -0.5882 -0.1837
  893MOL0     H23209   9.122   3.805   0.645 -1.3318  0.9687  1.7542
  893MOL0     H23210   8.938   3.851   0.410  0.2743 -0.7616  0.2843
  893MOL0     H23211   8.983   3.691   0.435 -0.2136 -0.6320  1.7799
  893MOL0     H23212   9.191   3.917   0.373  0.0222  0.3806 -4.3716
  893MOL0     H23213   9.145   3.786   0.268  2.5265  1.3302  0.0979
  893MOL0     H23214   8.679   4.600   0.417 -0.7019  1.2449 -1.2917
  893MOL0     H23215   8.746   4.858   0.433  2.2598  0.7470 -0.0913
  893MOL0     H23216   8.952   5.172   0.627 -0.8346 -0.6324 -0.9648
  893MOL0     H23217   9.038   5.396   0.644 -0.0227  0.6874 -0.5842
  893MOL0     H23218   8.515   6.237   2.060 -0.0940  0.8580  0.7942
  893MOL0     H23219   8.624   6.453   2.161 -0.5214 -0.2478 -2.0061
  893MOL0     H23220   9.080   6.505   2.309  0.5039 -0.8611 -0.7032
  893MOL0     H23221   9.286   6.611   2.348  0.6970  0.2057 -3.0411
  893MOL0     H23222   9.443   6.810   2.454  0.0070  2.3479  2.2366
  893MOL0     H23223   9.476   6.753   2.283  0.9065  0.5019 -0.6194
  893MOL0     H23224   9.669   6.898   2.345 -0.5758 -1.3453 -0.5979
  893MOL0     H23225   9.551   7.006   2.413 -1.7637 -2.7914  0.8533
  893MOL0     H23226   9.614   6.940   2.117  1.1845 -1.9049  1.9237
  893MOL0     H23227   9.487   7.048   2.161 -0.6988 -0.8629 -1.2755
  893MOL0     H23228   9.753   7.105   2.281 -1.0184 -5.3655 -0.3429
  893MOL0     H23229   9.615   7.213   2.256  0.3559  1.6967 -1.3825
  893MOL0     H23230   9.806   7.238   1.878  4.4997 -0.4644  1.5664
  893MOL0     H23231   9.128   6.990   2.219 -0.7459  1.3590  2.5977
  893MOL0     H23232   8.871   7.015   2.179 -2.2240  0.2659  2.0058
  893MOL0     H23233   8.843   6.883   2.066  3.2103 -1.0693  0.0186
  893MOL0     H23234   8.791   6.880   2.239  1.9599 -1.1233  2.7538
  894MOL0     O23235   6.279   9.638   4.305  0.8097  0.8832 -0.0769
  894MOL0     C23236   6.234   9.589   4.410  0.2583 -0.3044  0.5627
  894MOL0     O23237   6.310   9.526   4.501 -0.1674  0.8048  0.3677
  894MOL0     C23238   6.445   9.512   4.466 -0.0266 -0.2738  0.3411
  894MOL0     C23239   6.478   9.426   4.369  0.2259  0.4925 -0.0738
  894MOL0     C23240   6.614   9.401   4.341 -0.0421  0.4043  1.0630
  894MOL0     C23241   6.714   9.476   4.405 -0.4907  0.7127 -0.3648
  894MOL0     O23242   6.852   9.449   4.377 -0.4099  0.5316  0.5906
  894MOL0     C23243   6.952   9.552   4.378  0.0192  0.2663  0.6064
  894MOL0     C23244   7.058   9.507   4.278 -0.0037  0.4225  0.7826
  894MOL0     C23245   7.104   9.357   4.290  0.3319  0.5205  0.0969
  894MOL0     C23246   7.227   9.314   4.196  0.2646  1.0016  0.0058
  894MOL0     C23247   7.175   9.245   4.072  0.4680  0.4104 -0.1062
  894MOL0     C23248   7.279   9.231   3.960  0.1140  0.6296  0.0359
  894MOL0     C23249   7.227   9.157   3.847 -0.1517 -0.2375  1.0196
  894MOL0     C23250   7.323   9.078   3.759 -0.1394  0.0604  0.5359
  894MOL0     N23251   7.447   9.156   3.733 -0.3374 -0.1576  0.7089
  894MOL0     C23252   7.555   9.140   3.812 -0.5097  0.7021  0.3004
  894MOL0     C23253   7.643   9.241   3.798  0.7428 -0.6189 -0.2763
  894MOL0     C23254   7.788   9.239   3.851  0.1700 -0.0017 -0.6933
  894MOL0     C23255   7.832   9.372   3.892 -0.3968 -0.4292  0.3655
  894MOL0     C23256   7.987   9.379   3.908  0.4870 -0.1481  0.6032
  894MOL0     C23257   8.034   9.492   3.996  0.9989  0.8078 -0.1794
  894MOL0     O23258   7.973   9.611   3.953 -0.7121 -0.5910  0.1840
  894MOL0     C23259   8.003   9.727   4.027 -0.1773 -0.0133  0.6594
  894MOL0     C23260   7.903   9.768   4.120 -0.1276  0.3921 -0.3442
  894MOL0     C23261   7.926   9.870   4.211  0.3066 -0.4796  0.0450
  894MOL0     C23262   7.821   9.897   4.308  0.1858  0.2848  0.0639
  894MOL0     C23263   8.053   9.945   4.203  0.1192 -0.6047 -0.3943
  894MOL0     C23264   8.090  10.072   4.277 -0.4910  0.4578 -0.2835
  894MOL0     O23265   8.171  10.153   4.200 -0.4654 -0.4977 -0.5162
  894MOL0     C23266   8.202  10.277   4.237  0.1696  0.0802 -0.2885
  894MOL0     C23267   8.108  10.377   4.222  0.7646  0.1343  0.4527
  894MOL0     C23268   8.124  10.508   4.272 -1.0825 -0.2302  0.8111
  894MOL0     C23269   8.255  10.547   4.309 -0.3290 -1.4293  0.1634
  894MOL0     O23270   8.277  10.680   4.347  0.0491  0.6526  0.5025
  894MOL0     C23271   8.407  10.721   4.297 -0.4135  0.1392  0.3783
  894MOL0     C23272   8.407  10.865   4.253 -0.0616 -0.3036  0.2567
  894MOL0     C23273   8.319  10.893   4.126  0.2730 -0.2319  1.2173
  894MOL0     C23274   8.318  11.043   4.104  0.4677 -0.2342  0.4016
  894MOL0     C23275   8.277  11.081   3.963 -0.8058 -0.1856  0.2070
  894MOL0     C23276   8.335  11.225   3.940  0.6351  0.8396  1.0083
  894MOL0     C23277   8.266  11.321   3.843  0.8109  0.3873  0.3111
  894MOL0     C23278   8.242  11.252   3.708  0.9508  0.5445  0.9593
  894MOL0    Cl23279   8.248  11.363   3.579  0.2129 -0.5065  0.8515
  894MOL0     C23280   8.352  10.442   4.319  0.3769  0.1744 -0.0974
  894MOL0     C23281   8.326  10.310   4.277 -0.4024  0.1869 -0.0635
  894MOL0     O23282   8.038  10.105   4.385 -0.2064  0.0201 -0.0102
  894MOL0     C23283   8.146   9.901   4.100 -0.0097 -0.5363 -0.4053
  894MOL0     C23284   8.120   9.797   4.012 -0.5609 -0.2675  0.0204
  894MOL0     N23285   7.577   9.323   3.700  0.4683 -0.5302  0.7755
  894MOL0     N23286   7.464   9.272   3.658  0.3875 -0.3573 -0.7061
  894MOL0     C23287   6.676   9.567   4.501 -0.1692  0.0544  0.4237
  894MOL0     C23288   6.542   9.583   4.532  0.3523  0.7786  0.5481
  894MOL0     C23289   6.090   9.603   4.428 -0.6578 -0.7770 -0.1594
  894MOL0     C23290   6.043   9.647   4.557  0.3116 -0.6779  0.5686
  894MOL0     C23291   5.916   9.698   4.571  0.4500 -0.7678  0.0049
  894MOL0     C23292   5.826   9.698   4.473 -0.7603  0.1046  0.2882
  894MOL0     O23293   5.699   9.751   4.484 -0.2292 -0.0466 -0.1734
  894MOL0     C23294   5.601   9.680   4.554 -0.1092  0.2259 -0.3866
  894MOL0     C23295   5.456   9.738   4.557  0.2975 -0.5259  0.6239
  894MOL0     C23296   5.451   9.873   4.628  1.0137 -0.5806  0.3348
  894MOL0     C23297   5.299   9.915   4.654 -0.7082  0.9714  0.0769
  894MOL0     C23298   5.277  10.026   4.744 -0.3664  0.6109 -0.3067
  894MOL0     C23299   5.243  10.129   4.804 -0.5192 -0.0180  0.4810
  894MOL0     C23300   5.858   9.632   4.358  1.4326  0.3418  1.0530
  894MOL0     C23301   5.990   9.599   4.328 -0.3755  0.5585 -0.6336
  894MOL0     C23302   6.010   9.555   4.183 -0.9204  0.1069 -0.5080
  894MOL0     H23303   6.398   9.364   4.332 -0.9373  0.8010  1.8066
  894MOL0     H23304   6.648   9.318   4.280  1.6100  0.2896  2.0765
  894MOL0     H23305   6.999   9.552   4.477 -2.5363 -0.4691  1.9035
  894MOL0     H23306   6.912   9.650   4.347  0.3349  0.5360  1.0368
  894MOL0     H23307   7.028   9.539   4.179 -2.3522  2.0350  1.9320
  894MOL0     H23308   7.151   9.561   4.296  0.5647 -0.0995 -0.4582
  894MOL0     H23309   7.121   9.332   4.395  0.8693  0.0957 -0.0900
  894MOL0     H23310   7.014   9.298   4.270  0.4643  0.3415  0.0242
  894MOL0     H23311   7.286   9.400   4.162 -0.7003  1.3692 -0.7672
  894MOL0     H23312   7.291   9.243   4.250  0.5535 -2.2069 -4.0287
  894MOL0     H23313   7.091   9.305   4.035 -0.9615  0.4552  2.8927
  894MOL0     H23314   7.130   9.150   4.104 -1.4261  1.1946 -0.3076
  894MOL0     H23315   7.328   9.321   3.921  0.9374 -0.8753 -2.6869
  894MOL0     H23316   7.346   9.162   4.012 -0.8608  0.4177  1.0517
  894MOL0     H23317   7.183   9.239   3.790  2.3487  0.2980 -0.2850
  894MOL0     H23318   7.146   9.092   3.879 -2.0667  0.5405 -1.8418
  894MOL0     H23319   7.351   8.980   3.796 -1.2924 -0.3698  0.3231
  894MOL0     H23320   7.268   9.060   3.666  0.4381 -0.8367  0.3593
  894MOL0     H23321   7.562   9.049   3.872 -1.0726 -0.5526 -1.4636
  894MOL0     H23322   7.854   9.198   3.774  0.7972  1.1221 -0.7690
  894MOL0     H23323   7.803   9.167   3.932 -2.9328  2.1739  2.1003
  894MOL0     H23324   7.802   9.452   3.823  1.4213  0.0960  0.1389
  894MOL0     H23325   7.796   9.388   3.994  0.9536 -1.7071  1.0622
  894MOL0     H23326   8.019   9.287   3.957 -0.3353 -1.0840 -0.5837
  894MOL0     H23327   8.031   9.376   3.808 -1.4270  0.9089 -0.3147
  894MOL0     H23328   8.009   9.473   4.101 -1.0494 -2.5098 -1.0996
  894MOL0     H23329   8.143   9.494   4.002  0.9195  1.3433  2.1092
  894MOL0     H23330   7.806   9.722   4.106 -0.5283  1.4437 -1.2364
  894MOL0     H23331   7.808  10.003   4.332 -0.8585  0.0213  0.7028
  894MOL0     H23332   7.838   9.844   4.403 -3.8388 -0.6208  0.4584
  894MOL0     H23333   7.724   9.863   4.269 -0.4946 -1.8711  3.2353
  894MOL0     H23334   8.010  10.346   4.186  0.5605  0.7981  0.4234
  894MOL0     H23335   8.048  10.585   4.259  0.9748  1.3577 -4.0827
  894MOL0     H23336   8.483  10.702   4.373 -1.2311  2.5143  1.9238
  894MOL0     H23337   8.450  10.664   4.214 -1.5982 -3.2563  1.9333
  894MOL0     H23338   8.380  10.922   4.342 -0.7437 -0.9435  0.4717
  894MOL0     H23339   8.513  10.887   4.239  0.4356 -1.6979  1.5439
  894MOL0     H23340   8.218  10.858   4.150  0.5859  0.9010  4.8302
  894MOL0     H23341   8.346  10.834   4.038  2.4072  0.5505  1.2827
  894MOL0     H23342   8.417  11.081   4.131  0.2450  0.0383  0.8451
  894MOL0     H23343   8.251  11.086   4.179  0.1095 -1.7363  0.9641
  894MOL0     H23344   8.324  11.009   3.895 -0.1806  0.7360 -0.3678
  894MOL0     H23345   8.169  11.078   3.947 -0.8721 -3.0437  0.6845
  894MOL0     H23346   8.440  11.227   3.910  0.5053 -0.9797  0.3408
  894MOL0     H23347   8.328  11.284   4.033  0.8010 -0.3516  1.7956
  894MOL0     H23348   8.331  11.409   3.841  2.7774 -0.9736  1.1707
  894MOL0     H23349   8.172  11.355   3.888  1.0019 -0.0330  1.0552
  894MOL0     H23350   8.145  11.202   3.700  0.5829  0.9985  2.3290
  894MOL0     H23351   8.322  11.182   3.681  2.6914  2.4324  0.9720
  894MOL0     H23352   8.448  10.473   4.361 -0.6597  2.4729  0.7555
  894MOL0     H23353   8.401  10.236   4.305  1.1470  1.0636 -1.7033
  894MOL0     H23354   8.234   9.965   4.097 -0.8917  0.9288  1.9191
  894MOL0     H23355   8.194   9.766   3.939 -1.7706 -2.2136 -0.4270
  894MOL0     H23356   6.750   9.625   4.555  2.2435 -0.3943 -2.1929
  894MOL0     H23357   6.524   9.649   4.616  1.0045  1.1018  0.4412
  894MOL0     H23358   6.109   9.663   4.642  0.3607 -1.0824  0.6064
  894MOL0     H23359   5.882   9.752   4.659  3.1330  0.6672  0.2568
  894MOL0     H23360   5.594   9.582   4.507  2.9183 -0.6612  0.7592
  894MOL0     H23361   5.638   9.655   4.654  0.1061 -0.1660 -0.5635
  894MOL0     H23362   5.390   9.666   4.607  0.3124 -1.4524 -0.6470
  894MOL0     H23363   5.423   9.757   4.454  3.3912 -1.8409 -0.7472
  894MOL0     H23364   5.498   9.869   4.727  1.0893  1.7573  0.4554
  894MOL0     H23365   5.504   9.947   4.568  1.6534  0.0855  1.6807
  894MOL0     H23366   5.233   9.839   4.698 -0.9935  0.9175 -0.4495
  894MOL0     H23367   5.258   9.935   4.555  4.7613  1.7340 -2.4059
  894MOL0     H23368   5.218  10.229   4.835 -2.5793 -0.0840 -0.7675
  894MOL0     H23369   5.776   9.620   4.288  1.4042 -0.8051  1.2710
  894MOL0     H23370   6.055   9.456   4.180  0.4605  0.5771  1.8013
  894MOL0     H23371   5.911   9.552   4.136 -1.9915 -1.8203  1.6539
  894MOL0     H23372   6.072   9.624   4.125 -1.4268 -0.4994 -1.7964
  895MOL0     O23373   8.525   7.855   1.177  0.2070 -0.5256 -0.4465
  895MOL0     C23374   8.417   7.801   1.173  0.2027 -0.0466  0.3990
  895MOL0     O23375   8.398   7.691   1.101 -0.1854 -0.3639 -0.9807
  895MOL0     C23376   8.500   7.600   1.065  0.4728 -0.1122 -0.6997
  895MOL0     C23377   8.577   7.542   1.164 -0.9214 -0.6059 -0.4256
  895MOL0     C23378   8.667   7.441   1.139  0.2666 -0.2961  0.4972
  895MOL0     C23379   8.699   7.409   1.005  1.3166  0.5524  0.2483
  895MOL0     O23380   8.795   7.330   0.961 -0.6584 -0.0449 -1.5050
  895MOL0     C23381   8.911   7.306   1.048  0.8867 -0.5734  0.5442
  895MOL0     C23382   8.990   7.444   1.065  0.4932  0.0219  0.0776
  895MOL0     C23383   9.122   7.423   1.147 -0.6135 -0.2109 -0.5628
  895MOL0     C23384   9.228   7.375   1.053  0.1670  0.2586  0.0898
  895MOL0     C23385   9.353   7.332   1.121  0.0600 -0.0054 -0.5226
  895MOL0     C23386   9.445   7.233   1.048  0.3536  0.3178 -0.3420
  895MOL0     C23387   9.542   7.176   1.148 -0.7308  0.1645 -0.2486
  895MOL0     C23388   9.671   7.114   1.082 -0.4664 -0.8932  0.1111
  895MOL0     N23389   9.778   7.212   1.064  1.1648 -0.0770 -0.4355
  895MOL0     C23390   9.917   7.187   1.053  0.3367  0.1566 -0.1183
  895MOL0     C23391   9.987   7.303   1.040 -0.4031 -0.8139 -1.0376
  895MOL0     C23392  10.123   7.321   1.011  0.7573  0.2559 -0.0328
  895MOL0     C23393  10.210   7.315   1.130 -0.0079  1.1411 -0.3271
  895MOL0     C23394  10.210   7.441   1.225  0.2818 -0.2002 -0.5718
  895MOL0     C23395  10.080   7.492   1.279 -0.4160 -0.4414  0.2945
  895MOL0     O23396  10.105   7.548   1.406 -0.4699  0.1299  1.0664
  895MOL0     C23397   9.995   7.574   1.482  0.9193  0.5996 -0.5043
  895MOL0     C23398  10.012   7.574   1.621 -0.1387 -0.8239  0.1906
  895MOL0     C23399   9.910   7.593   1.720 -0.3902  0.3311 -0.5465
  895MOL0     C23400   9.954   7.606   1.866 -0.7720 -0.3474  0.4882
  895MOL0     C23401   9.780   7.605   1.677  0.1607 -0.5316 -0.6355
  895MOL0     C23402   9.671   7.628   1.771 -0.3835  0.0566  0.0783
  895MOL0     O23403   9.665   7.552   1.883 -0.4713 -0.0707 -0.7198
  895MOL0     C23404   9.586   7.581   1.989  0.4297 -0.8780  0.2931
  895MOL0     C23405   9.588   7.712   2.034 -0.3114 -0.4837 -0.3244
  895MOL0     C23406   9.510   7.734   2.147  0.1451  0.9541 -0.2091
  895MOL0     C23407   9.440   7.632   2.204  0.6465  1.0427  0.4661
  895MOL0     O23408   9.349   7.660   2.306  0.1391  0.1309 -0.2241
  895MOL0     C23409   9.330   7.549   2.397  0.3917  0.3638  0.7550
  895MOL0     C23410   9.266   7.578   2.534 -0.7255  0.6145 -0.8035
  895MOL0     C23411   9.348   7.691   2.603 -0.4773 -0.0275  0.6694
  895MOL0     C23412   9.273   7.755   2.717 -0.8071  0.9312 -0.3317
  895MOL0     C23413   9.338   7.875   2.788 -0.1268 -0.2895 -0.2453
  895MOL0     C23414   9.239   7.941   2.886  0.6152 -0.1412 -0.3286
  895MOL0     C23415   9.135   8.020   2.803 -0.4728 -0.3321  0.5739
  895MOL0     C23416   9.030   8.078   2.902 -0.5987 -0.0970 -0.2260
  895MOL0    Cl23417   8.884   8.165   2.845  0.1449  0.5803 -0.4652
  895MOL0     C23418   9.442   7.499   2.154  0.3190 -0.1413  0.4463
  895MOL0     C23419   9.520   7.472   2.050  0.2252 -0.8643  0.3675
  895MOL0     O23420   9.588   7.715   1.739  0.5817  0.1197 -0.1087
  895MOL0     C23421   9.754   7.608   1.536 -1.3440 -0.0267  1.0710
  895MOL0     C23422   9.858   7.582   1.446 -0.5745 -0.0812  0.0614
  895MOL0     N23423   9.894   7.401   1.062 -0.3512 -0.7219 -0.0885
  895MOL0     N23424   9.776   7.350   1.092 -0.1866 -0.9081 -0.3563
  895MOL0     C23425   8.618   7.466   0.912 -0.9230  0.0476 -0.3529
  895MOL0     C23426   8.522   7.562   0.938  0.0153 -0.0871  0.6076
  895MOL0     C23427   8.299   7.887   1.204 -0.2292 -0.1922  0.4989
  895MOL0     C23428   8.176   7.870   1.133 -0.2878 -0.3155 -0.0774
  895MOL0     C23429   8.061   7.947   1.166  0.2694 -0.5683  0.0198
  895MOL0     C23430   8.068   8.045   1.267 -0.2179 -0.0724  0.5172
  895MOL0     O23431   7.947   8.112   1.286 -0.2767  0.2133 -0.2533
  895MOL0     C23432   7.928   8.191   1.413  0.5910 -0.3548 -0.0940
  895MOL0     C23433   7.939   8.340   1.414 -0.3328  0.1507  0.6425
  895MOL0     C23434   7.831   8.404   1.323 -0.7239 -0.3063  1.5232
  895MOL0     C23435   7.857   8.554   1.286  0.6243  0.5106 -0.2745
  895MOL0     C23436   7.887   8.633   1.400  0.2704 -0.4026 -0.4126
  895MOL0     C23437   7.911   8.680   1.510  0.3291 -0.7937 -0.3190
  895MOL0     C23438   8.185   8.069   1.333 -0.3709 -0.0882  0.7010
  895MOL0     C23439   8.304   7.988   1.307  0.1847  0.8016 -0.3673
  895MOL0     C23440   8.423   8.000   1.399  0.0278  0.1911  0.5335
  895MOL0     H23441   8.540   7.564   1.264 -1.2336  0.5751 -0.7726
  895MOL0     H23442   8.715   7.398   1.226 -3.0006  2.2314  3.8944
  895MOL0     H23443   8.970   7.226   1.002  0.4911 -0.6341  0.1353
  895MOL0     H23444   8.878   7.275   1.147  1.8477  1.8280  1.7111
  895MOL0     H23445   9.011   7.479   0.963 -0.5329 -0.5024 -0.3253
  895MOL0     H23446   8.936   7.516   1.128  1.7762 -0.1572  1.4377
  895MOL0     H23447   9.162   7.501   1.212 -0.2292  0.4949 -1.6312
  895MOL0     H23448   9.106   7.334   1.209  1.3703 -0.3693 -0.2120
  895MOL0     H23449   9.188   7.279   1.020 -0.3979  0.4368  0.2566
  895MOL0     H23450   9.253   7.441   0.970 -1.1522  1.4152  0.5780
  895MOL0     H23451   9.314   7.282   1.211  0.0641  2.9818  1.2799
  895MOL0     H23452   9.405   7.425   1.145 -1.4218  0.3476  1.7025
  895MOL0     H23453   9.382   7.152   1.009 -0.1870  1.3199 -1.6260
  895MOL0     H23454   9.494   7.283   0.964  3.8547  1.4027  2.1579
  895MOL0     H23455   9.484   7.097   1.195 -3.9302  2.1293 -0.5933
  895MOL0     H23456   9.562   7.260   1.216 -0.3205  0.9933 -1.3420
  895MOL0     H23457   9.719   7.037   1.143  0.0132 -0.7682 -0.1070
  895MOL0     H23458   9.640   7.073   0.985 -0.3346  0.5363 -0.5590
  895MOL0     H23459   9.937   7.080   1.049 -1.2975 -0.1630 -0.4768
  895MOL0     H23460  10.135   7.415   0.956  1.0719  0.8592  1.0118
  895MOL0     H23461  10.138   7.229   0.954 -0.9452 -0.8434  1.2107
  895MOL0     H23462  10.203   7.223   1.187  1.3298  0.9537 -0.4309
  895MOL0     H23463  10.313   7.305   1.096  0.7089 -2.6345  2.3493
  895MOL0     H23464  10.284   7.424   1.304  1.3849 -2.1632 -1.9341
  895MOL0     H23465  10.244   7.527   1.167  1.0723 -0.5198 -0.5965
  895MOL0     H23466  10.031   7.565   1.214 -1.4660 -1.6162 -0.2698
  895MOL0     H23467  10.002   7.419   1.301  0.2036 -0.7469  1.6061
  895MOL0     H23468  10.110   7.566   1.667  1.1221  1.7522 -1.7622
  895MOL0     H23469   9.889   7.662   1.934  0.0485 -1.4475  2.2467
  895MOL0     H23470  10.058   7.641   1.857 -0.3116 -1.2494  1.9366
  895MOL0     H23471   9.968   7.511   1.918  3.7497  0.2575  0.8330
  895MOL0     H23472   9.653   7.791   1.997 -1.9298  1.9308  1.6212
  895MOL0     H23473   9.495   7.837   2.178  1.2754  0.8447  0.7747
  895MOL0     H23474   9.268   7.470   2.353 -0.3964  0.6798  1.2608
  895MOL0     H23475   9.432   7.512   2.411  0.7526  0.6630 -0.8637
  895MOL0     H23476   9.169   7.624   2.513 -2.3572 -1.6308  1.3388
  895MOL0     H23477   9.247   7.487   2.591 -1.0570  2.1306  1.6841
  895MOL0     H23478   9.361   7.763   2.522 -2.0966  2.4349  2.4593
  895MOL0     H23479   9.445   7.649   2.631 -1.8371 -6.2027 -2.3721
  895MOL0     H23480   9.243   7.679   2.790 -2.1402  1.7623  0.0224
  895MOL0     H23481   9.179   7.783   2.668 -1.4513  0.0326  0.3431
  895MOL0     H23482   9.418   7.841   2.854  1.0564  1.6028 -0.6093
  895MOL0     H23483   9.385   7.952   2.725  1.1491  1.3057  2.4527
  895MOL0     H23484   9.285   8.010   2.957 -3.1610  3.9671 -1.4293
  895MOL0     H23485   9.202   7.850   2.934 -2.4232  1.6476  1.0243
  895MOL0     H23486   9.092   7.956   2.726 -0.2964 -0.2988  0.4453
  895MOL0     H23487   9.180   8.099   2.743 -2.6064  1.1175  0.7511
  895MOL0     H23488   9.078   8.148   2.972  2.3441  0.5569 -2.7186
  895MOL0     H23489   8.998   7.993   2.964 -0.0154 -1.6605 -1.9898
  895MOL0     H23490   9.387   7.410   2.184 -0.6764 -0.9692 -3.3313
  895MOL0     H23491   9.524   7.373   2.006  2.5371 -0.4952 -0.3514
  895MOL0     H23492   9.654   7.618   1.496 -1.2077 -0.6187  0.5689
  895MOL0     H23493   9.833   7.569   1.341  2.3191 -0.5279 -0.6590
  895MOL0     H23494   8.650   7.432   0.814 -1.7345  0.2634 -0.7054
  895MOL0     H23495   8.469   7.611   0.857  1.3975 -0.5750 -0.6519
  895MOL0     H23496   8.163   7.800   1.050 -3.0162  1.4633 -1.2970
  895MOL0     H23497   7.960   7.930   1.129 -1.2591 -4.5668  4.9049
  895MOL0     H23498   7.823   8.170   1.433  0.6671  0.1583  0.9505
  895MOL0     H23499   7.985   8.156   1.499  2.5254  1.3399 -0.6059
  895MOL0     H23500   8.039   8.366   1.378 -0.8358 -1.4941 -2.2689
  895MOL0     H23501   7.935   8.377   1.517 -1.1771  0.1986  0.6045
  895MOL0     H23502   7.830   8.349   1.228  3.7117 -0.3837  1.3283
  895MOL0     H23503   7.739   8.390   1.381  0.3131  0.1334  3.3563
  895MOL0     H23504   7.778   8.600   1.225  1.0151  1.4786 -0.0593
  895MOL0     H23505   7.947   8.562   1.225  1.4095  1.2035  0.9288
  895MOL0     H23506   7.952   8.719   1.601  2.9347 -2.9442 -0.4756
  895MOL0     H23507   8.201   8.162   1.385  0.9258  0.4691 -0.6385
  895MOL0     H23508   8.498   8.056   1.342  0.7983 -0.0087  1.3451
  895MOL0     H23509   8.384   8.063   1.478 -4.2700 -1.0771 -0.2969
  895MOL0     H23510   8.459   7.902   1.430  2.1790  1.2086  1.4061
  896MOL0     O23511   1.997   0.366  10.712 -0.3198 -0.8763 -0.0195
  896MOL0     C23512   1.894   0.322  10.658 -0.1788  0.1445  0.0083
  896MOL0     O23513   1.789   0.270  10.741 -0.0249 -0.6944 -0.0835
  896MOL0     C23514   1.807   0.249  10.876 -1.2636 -0.4519 -0.3931
  896MOL0     C23515   1.737   0.140  10.931  1.1566 -0.6776 -0.1469
  896MOL0     C23516   1.728   0.127  11.075 -0.2380  0.7624 -0.5581
  896MOL0     C23517   1.792   0.220  11.156  0.0360  0.2786  0.1000
  896MOL0     O23518   1.805   0.217  11.293 -0.5189 -0.3597 -0.4889
  896MOL0     C23519   1.716   0.139  11.364 -0.5500  0.1421  0.1844
  896MOL0     C23520   1.586   0.211  11.380  1.0590  0.6644 -0.1932
  896MOL0     C23521   1.481   0.118  11.441  0.1008 -0.7309 -0.8835
  896MOL0     C23522   1.344   0.176  11.444 -0.2792 -0.0202 -0.0561
  896MOL0     C23523   1.243   0.085  11.521 -0.2579 -0.0823  0.5891
  896MOL0     C23524   1.107   0.152  11.547 -0.7051 -0.1288 -0.3347
  896MOL0     C23525   1.037   0.097  11.672 -0.2816  1.3182 -0.1665
  896MOL0     C23526   0.912   0.167  11.710  0.1809 -0.0661  0.8363
  896MOL0     N23527   0.852   0.120  11.836  0.2402 -0.4524  0.1063
  896MOL0     C23528   0.888   0.180  11.954 -0.1066 -0.2461 -0.9423
  896MOL0     C23529   0.781   0.144  12.034 -0.0142 -0.8617 -0.5515
  896MOL0     C23530   0.782   0.174  12.183 -0.8002 -1.0778  0.4603
  896MOL0     C23531   0.765   0.042  12.249  0.1186  0.6277  0.2293
  896MOL0     C23532   0.727   0.049  12.402  0.1739 -0.0318  0.6179
  896MOL0     C23533   0.686  -0.089  12.453 -0.3899  0.3429  0.2897
  896MOL0     O23534   0.801  -0.150  12.518 -0.3355 -0.1148 -0.3358
  896MOL0     C23535   0.783  -0.265  12.587  0.4730  0.4775 -0.5711
  896MOL0     C23536   0.884  -0.323  12.662 -0.4836 -0.5757 -0.2524
  896MOL0     C23537   0.877  -0.448  12.737  0.2339 -0.5204 -0.2769
  896MOL0     C23538   0.995  -0.486  12.829  0.6895  0.2020  0.4717
  896MOL0     C23539   0.750  -0.515  12.732  0.4686  0.7139 -1.1756
  896MOL0     C23540   0.706  -0.638  12.806  0.5237 -0.1322 -1.6135
  896MOL0     O23541   0.609  -0.723  12.761  0.3757  0.9979 -0.0085
  896MOL0     C23542   0.599  -0.848  12.823 -0.1358  0.3528  0.3671
  896MOL0     C23543   0.473  -0.888  12.875  0.7281  0.1978  1.1076
  896MOL0     C23544   0.458  -1.011  12.943  0.5170 -1.0263  0.2582
  896MOL0     C23545   0.564  -1.097  12.969 -0.3319  0.7438  0.0050
  896MOL0     O23546   0.558  -1.197  13.057 -0.1299 -0.1822  0.2612
  896MOL0     C23547   0.524  -1.322  13.008 -0.0175  0.9697  0.2848
  896MOL0     C23548   0.375  -1.335  12.983  0.5573 -0.9519 -0.7760
  896MOL0     C23549   0.301  -1.375  13.114 -1.2488 -1.1554  0.3255
  896MOL0     C23550   0.165  -1.313  13.122  0.2527 -0.0176 -0.8267
  896MOL0     C23551   0.093  -1.309  13.254  0.0077 -0.4055  0.1954
  896MOL0     C23552  -0.023  -1.213  13.262  0.7800  0.6744  0.0857
  896MOL0     C23553  -0.113  -1.230  13.392 -0.1758  0.1759 -0.8398
  896MOL0     C23554  -0.092  -1.142  13.505 -0.2217  0.1714 -0.9317
  896MOL0    Cl23555  -0.100  -0.965  13.463  0.0310  0.2747 -0.0752
  896MOL0     C23556   0.685  -1.058  12.904 -0.2310  0.3418 -0.3759
  896MOL0     C23557   0.705  -0.941  12.832 -0.3959 -0.0503  0.7071
  896MOL0     O23558   0.756  -0.652  12.921 -0.6714 -0.2398 -0.1088
  896MOL0     C23559   0.641  -0.455  12.655 -0.2802  0.0270 -1.2802
  896MOL0     C23560   0.664  -0.344  12.576  0.1412 -0.3651  0.4777
  896MOL0     N23561   0.687   0.068  11.968 -0.6059 -0.8419 -0.8649
  896MOL0     N23562   0.736   0.058  11.852  0.1668  1.4134 -0.3692
  896MOL0     C23563   1.866   0.325  11.095  0.3832  0.2993  0.1245
  896MOL0     C23564   1.872   0.344  10.961  1.1183  1.1437 -0.8128
  896MOL0     C23565   1.879   0.329  10.509 -0.0419 -0.2253 -0.4782
  896MOL0     C23566   1.771   0.247  10.456 -0.6469 -0.7291 -1.2136
  896MOL0     C23567   1.751   0.250  10.315 -0.5724  0.4432 -0.6630
  896MOL0     C23568   1.829   0.329  10.235 -0.2399 -0.4898  0.7445
  896MOL0     O23569   1.808   0.332  10.095 -0.8857 -0.0717 -0.0896
  896MOL0     C23570   1.747   0.224  10.022 -0.1149  0.0143  0.1030
  896MOL0     C23571   1.801   0.204   9.883  0.0137  0.5639 -0.5342
  896MOL0     C23572   1.752   0.090   9.800  0.8994  0.3546 -0.0635
  896MOL0     C23573   1.733   0.107   9.650 -0.3828  0.4719 -0.5879
  896MOL0     C23574   1.639   0.004   9.601 -0.3066  0.4192  1.0168
  896MOL0     C23575   1.583  -0.078   9.535  0.3488  0.2707 -0.4037
  896MOL0     C23576   1.922   0.416  10.283 -0.7543  0.2120 -0.2835
  896MOL0     C23577   1.943   0.421  10.420  0.3413 -0.7119  0.4931
  896MOL0     C23578   2.031   0.532  10.472 -0.4801 -0.7244  0.0971
  896MOL0     H23579   1.678   0.078  10.865  3.2382 -1.6282 -1.2294
  896MOL0     H23580   1.670   0.051  11.125 -0.1485  1.8115  1.2300
  896MOL0     H23581   1.759   0.142  11.464  1.6222 -1.3229 -0.6411
  896MOL0     H23582   1.709   0.035  11.332 -1.9459  0.8134 -1.9345
  896MOL0     H23583   1.616   0.288  11.452  1.2468 -1.2663  1.9046
  896MOL0     H23584   1.552   0.253  11.285  2.6485 -0.7835 -1.4521
  896MOL0     H23585   1.476   0.029  11.377 -1.6582 -1.4205  0.1388
  896MOL0     H23586   1.513   0.090  11.542 -0.0681 -0.4903 -0.7603
  896MOL0     H23587   1.346   0.281  11.478  2.6529 -0.9983  3.4914
  896MOL0     H23588   1.298   0.189  11.346  0.1653  0.1698 -0.2393
  896MOL0     H23589   1.286   0.041  11.612 -0.9359 -1.9845  0.0520
  896MOL0     H23590   1.223  -0.003  11.459  1.1468  0.2197 -0.3290
  896MOL0     H23591   1.123   0.260  11.554  0.8121 -0.4430  2.5503
  896MOL0     H23592   1.052   0.116  11.460 -0.6754 -3.8098  1.0077
  896MOL0     H23593   1.106   0.107  11.756 -2.6910  1.3259  1.9481
  896MOL0     H23594   1.009  -0.004  11.640  0.1448  2.6199 -5.7119
  896MOL0     H23595   0.933   0.275  11.709 -0.3212  0.1142 -2.7797
  896MOL0     H23596   0.838   0.150  11.632  0.0196  2.3739  0.3694
  896MOL0     H23597   0.972   0.244  11.979 -2.5039  2.2882  1.2024
  896MOL0     H23598   0.713   0.253  12.215  0.9428  0.5701  0.3328
  896MOL0     H23599   0.879   0.222  12.201 -2.6627  2.6232  1.5638
  896MOL0     H23600   0.680  -0.010  12.203  1.3588  0.7787 -2.4044
  896MOL0     H23601   0.860  -0.011  12.239 -1.4610 -2.1428 -1.1079
  896MOL0     H23602   0.807   0.096  12.460 -0.0898 -0.5116  1.3902
  896MOL0     H23603   0.640   0.112  12.418  0.8196  0.9530  0.3242
  896MOL0     H23604   0.609  -0.062  12.526 -0.5868 -0.5165  0.4197
  896MOL0     H23605   0.651  -0.157  12.375 -1.8456 -1.1860  2.1478
  896MOL0     H23606   0.976  -0.265  12.658  1.4472 -3.4570 -0.8058
  896MOL0     H23607   1.019  -0.592  12.825  0.3324  0.0781  1.3730
  896MOL0     H23608   0.960  -0.483  12.933  0.1317  0.1703  0.2892
  896MOL0     H23609   1.082  -0.421  12.812  0.5551 -0.4753 -4.2255
  896MOL0     H23610   0.399  -0.809  12.861  0.6488 -0.3684 -2.6942
  896MOL0     H23611   0.362  -1.023  12.992 -1.7300  0.1859 -3.4072
  896MOL0     H23612   0.578  -1.337  12.914  2.6455 -2.9484  2.1557
  896MOL0     H23613   0.551  -1.403  13.077 -5.4032 -0.4948  1.0878
  896MOL0     H23614   0.341  -1.244  12.933  1.0786 -0.1926  0.2255
  896MOL0     H23615   0.355  -1.410  12.906 -0.9610 -2.1150  0.6893
  896MOL0     H23616   0.361  -1.336  13.196 -1.7383  0.5609 -0.0924
  896MOL0     H23617   0.297  -1.484  13.124  1.6713 -1.2483  1.4309
  896MOL0     H23618   0.106  -1.363  13.045 -2.3647  3.3082 -1.2426
  896MOL0     H23619   0.168  -1.212  13.079 -2.8073  0.6502  0.2446
  896MOL0     H23620   0.057  -1.406  13.291 -2.1522  0.5732  0.7831
  896MOL0     H23621   0.160  -1.275  13.333 -0.0833  0.5296 -0.1153
  896MOL0     H23622  -0.098  -1.254  13.193 -0.2864 -0.9679  2.1226
  896MOL0     H23623   0.006  -1.112  13.231  3.2792 -0.7714 -2.9109
  896MOL0     H23624  -0.103  -1.337  13.415 -1.2854  0.5439  1.6490
  896MOL0     H23625  -0.217  -1.214  13.362  0.1287 -0.9165 -2.6323
  896MOL0     H23626   0.009  -1.166  13.539 -1.5899 -2.7722  1.4642
  896MOL0     H23627  -0.156  -1.174  13.587  0.0208  0.7255 -0.5192
  896MOL0     H23628   0.774  -1.121  12.909  0.2196  0.8650 -1.3563
  896MOL0     H23629   0.789  -0.912  12.771  0.1503  0.9163  1.8871
  896MOL0     H23630   0.546  -0.506  12.641  0.3469 -1.0315 -1.8109
  896MOL0     H23631   0.591  -0.323  12.498  0.6986  2.7145  0.6757
  896MOL0     H23632   1.903   0.384  11.177 -2.2760 -1.8653  3.1134
  896MOL0     H23633   1.926   0.427  10.917  0.8904  1.6182 -0.2168
  896MOL0     H23634   1.708   0.173  10.504 -0.2634 -0.3044 -0.0272
  896MOL0     H23635   1.672   0.183  10.285 -0.7149  0.1560  0.3281
  896MOL0     H23636   1.764   0.123  10.061  0.2278 -1.8515 -4.2923
  896MOL0     H23637   1.639   0.242  10.015 -0.3156 -0.8632  0.7952
  896MOL0     H23638   1.910   0.208   9.891 -0.0953  1.5137  0.8498
  896MOL0     H23639   1.769   0.291   9.825 -1.5304  0.1486 -0.3607
  896MOL0     H23640   1.822   0.007   9.817  1.0597  0.4450 -0.2790
  896MOL0     H23641   1.655   0.068   9.846  2.3594  1.5546  4.0726
  896MOL0     H23642   1.832   0.103   9.603  0.4391  1.5877  0.9578
  896MOL0     H23643   1.699   0.210   9.634  0.6215  0.8701 -0.2658
  896MOL0     H23644   1.520  -0.150   9.487 -1.2840  2.4673 -1.7530
  896MOL0     H23645   1.967   0.492  10.220  1.7404 -2.0972 -1.4464
  896MOL0     H23646   2.011   0.552  10.578  2.7041  0.2541  0.6424
  896MOL0     H23647   2.134   0.497  10.464 -1.2573 -3.3055  0.6167
  896MOL0     H23648   2.019   0.624  10.415 -0.4754  0.5000  1.9787
  897MOL0     O23649   0.294   2.457   3.038  0.1245 -0.1700  0.3892
  897MOL0     C23650   0.282   2.464   3.158 -0.4597  0.0498 -0.6707
  897MOL0     O23651   0.378   2.435   3.250  0.0926  1.5229  0.1215
  897MOL0     C23652   0.477   2.332   3.234  1.1595 -0.2623  0.4245
  897MOL0     C23653   0.569   2.334   3.334 -0.0704 -0.7760 -0.0234
  897MOL0     C23654   0.687   2.261   3.325  0.5463  0.5413 -0.2201
  897MOL0     C23655   0.692   2.150   3.236 -0.1442 -0.3067  0.6255
  897MOL0     O23656   0.803   2.065   3.242  0.0018  0.7836 -0.5274
  897MOL0     C23657   0.796   1.959   3.152 -0.1734 -0.2465  0.1583
  897MOL0     C23658   0.913   1.858   3.190  0.5176  0.2907  0.0404
  897MOL0     C23659   1.048   1.925   3.181 -0.0998  0.0182 -0.7305
  897MOL0     C23660   1.174   1.832   3.173 -0.0227  0.0252 -0.3660
  897MOL0     C23661   1.294   1.916   3.142  1.0140  0.7114  0.0549
  897MOL0     C23662   1.410   1.823   3.091  0.5915  0.4804  0.3330
  897MOL0     C23663   1.449   1.713   3.192  0.0207  0.3747 -0.6156
  897MOL0     C23664   1.559   1.761   3.296  0.2679  0.3364  0.0987
  897MOL0     N23665   1.679   1.783   3.216 -0.1426 -0.1424  0.4087
  897MOL0     C23666   1.726   1.897   3.159  0.5667 -0.0719 -0.4374
  897MOL0     C23667   1.837   1.873   3.092 -0.6645 -0.0300 -1.0272
  897MOL0     C23668   1.944   1.972   3.038  0.5431  0.1054 -0.5565
  897MOL0     C23669   2.004   2.059   3.159  0.6003 -0.1861  0.2556
  897MOL0     C23670   2.029   2.216   3.138 -0.2874  0.3663  1.8153
  897MOL0     C23671   1.900   2.275   3.080 -1.0011  0.2714  0.0426
  897MOL0     O23672   1.905   2.283   2.940  1.3065  0.1688  0.3021
  897MOL0     C23673   1.988   2.377   2.879  0.2393 -0.3762  0.4937
  897MOL0     C23674   2.078   2.458   2.948  0.2917  0.0541 -0.7496
  897MOL0     C23675   2.179   2.532   2.885  0.5752  0.2615  0.0061
  897MOL0     C23676   2.289   2.574   2.970 -0.5363 -0.5963  0.2842
  897MOL0     C23677   2.164   2.571   2.748  0.3830  0.4765 -0.4012
  897MOL0     C23678   2.264   2.653   2.680 -0.2111  0.6231  0.1431
  897MOL0     O23679   2.274   2.782   2.710  0.5975 -0.3980 -0.6419
  897MOL0     C23680   2.369   2.872   2.677 -0.7283  0.7930  0.6044
  897MOL0     C23681   2.507   2.844   2.701 -0.2747 -0.0101 -0.3599
  897MOL0     C23682   2.610   2.932   2.673  1.0124 -0.2959 -0.7192
  897MOL0     C23683   2.580   3.049   2.607 -0.1106 -0.2297 -0.0069
  897MOL0     O23684   2.681   3.142   2.570 -0.1820 -0.4511  0.5977
  897MOL0     C23685   2.663   3.183   2.431  1.0169  0.5483  0.1007
  897MOL0     C23686   2.773   3.263   2.370  0.0847 -0.2682 -0.8334
  897MOL0     C23687   2.781   3.275   2.219  0.8137 -0.6314 -0.2831
  897MOL0     C23688   2.660   3.346   2.159  0.4490 -0.2761 -0.0870
  897MOL0     C23689   2.662   3.340   2.013  0.3361  0.1806  0.4696
  897MOL0     C23690   2.772   3.396   1.939 -0.4232  0.7385  0.4791
  897MOL0     C23691   2.798   3.541   1.971 -0.0688  0.8880  0.1000
  897MOL0     C23692   2.914   3.586   1.885  0.2841 -0.0169 -0.0461
  897MOL0    Cl23693   2.952   3.747   1.946 -0.4080 -0.5962  0.1938
  897MOL0     C23694   2.449   3.082   2.587  0.1361  0.8474  0.0041
  897MOL0     C23695   2.347   2.990   2.617 -0.7517  0.1296 -0.5640
  897MOL0     O23696   2.338   2.590   2.606  0.5277 -0.3398  0.2942
  897MOL0     C23697   2.069   2.494   2.677 -0.0945  0.0603  0.1839
  897MOL0     C23698   1.992   2.390   2.737 -0.6942 -0.0303 -0.2572
  897MOL0     N23699   1.852   1.736   3.096  0.2857  0.0715  0.4728
  897MOL0     N23700   1.753   1.677   3.163 -0.3318  1.1154  0.5575
  897MOL0     C23701   0.594   2.137   3.135 -0.7731 -0.2899  0.6076
  897MOL0     C23702   0.490   2.233   3.133  0.5113  0.1064 -0.0987
  897MOL0     C23703   0.164   2.525   3.214 -0.2314  0.3109 -0.1429
  897MOL0     C23704   0.175   2.582   3.349  0.2550 -0.9209  0.5708
  897MOL0     C23705   0.074   2.652   3.400 -0.2847 -0.2397 -0.4324
  897MOL0     C23706  -0.049   2.675   3.333 -0.5697  0.3348  0.6302
  897MOL0     O23707  -0.135   2.763   3.388  0.0238  0.3347  0.1397
  897MOL0     C23708  -0.248   2.696   3.448  0.5768 -0.6253  0.4475
  897MOL0     C23709  -0.388   2.710   3.368 -0.5473  1.0708 -0.2179
  897MOL0     C23710  -0.437   2.855   3.345  0.4911  0.0085 -0.7404
  897MOL0     C23711  -0.572   2.866   3.268 -0.0208  0.2004 -0.4257
  897MOL0     C23712  -0.581   2.963   3.154 -0.5115 -0.3555 -0.0270
  897MOL0     C23713  -0.582   3.055   3.073  0.7805  0.7749  0.4368
  897MOL0     C23714  -0.066   2.614   3.206 -0.0412  0.0676 -0.4749
  897MOL0     C23715   0.040   2.548   3.143  0.0116 -0.8864  0.7788
  897MOL0     C23716   0.008   2.510   2.996  0.6486 -0.1980 -0.4182
  897MOL0     H23717   0.552   2.412   3.408 -2.6057  1.7787 -2.9838
  897MOL0     H23718   0.767   2.259   3.398 -0.2336  4.2206  0.9653
  897MOL0     H23719   0.813   1.978   3.046  4.4071 -1.2629  0.4799
  897MOL0     H23720   0.698   1.914   3.169 -1.6259  1.8453 -2.0173
  897MOL0     H23721   0.900   1.828   3.295  0.7701  4.4979  1.4556
  897MOL0     H23722   0.908   1.770   3.125  3.5304  0.7342 -0.9458
  897MOL0     H23723   1.037   1.994   3.097 -0.7175  1.8802  0.8113
  897MOL0     H23724   1.055   1.994   3.265 -2.6629  0.6087 -0.9122
  897MOL0     H23725   1.186   1.791   3.274  0.5291  1.3587  0.1335
  897MOL0     H23726   1.162   1.755   3.097 -1.6932 -1.9679  1.7664
  897MOL0     H23727   1.324   1.976   3.228 -3.5594  2.6949  0.5236
  897MOL0     H23728   1.258   1.970   3.054 -1.8871 -1.2919 -0.1101
  897MOL0     H23729   1.366   1.780   3.000  2.5249  1.5900 -1.1873
  897MOL0     H23730   1.494   1.888   3.066 -0.3082  1.6732  0.3374
  897MOL0     H23731   1.497   1.629   3.141  0.3590 -1.2687  2.1920
  897MOL0     H23732   1.367   1.670   3.250  0.7697  2.2347  2.0342
  897MOL0     H23733   1.525   1.851   3.348  1.6521  0.7888  0.2495
  897MOL0     H23734   1.578   1.689   3.375  0.8107  0.0754 -0.2656
  897MOL0     H23735   1.683   1.997   3.164 -2.3838 -1.2164 -1.1387
  897MOL0     H23736   1.900   2.041   2.965  1.0066  0.0641 -0.8757
  897MOL0     H23737   2.017   1.915   2.980 -1.7185  2.0727 -5.9401
  897MOL0     H23738   1.935   2.062   3.244 -2.2116  0.5193 -1.8870
  897MOL0     H23739   2.096   2.005   3.180  1.6994  0.4444 -2.5109
  897MOL0     H23740   2.060   2.270   3.228 -0.1442  1.6109  1.0369
  897MOL0     H23741   2.112   2.222   3.066  0.1508  0.4426  2.3207
  897MOL0     H23742   1.815   2.217   3.115 -2.6877  2.3250 -0.4069
  897MOL0     H23743   1.888   2.376   3.121 -0.2720  0.3371  0.1176
  897MOL0     H23744   2.084   2.474   3.055  0.0932  1.5719 -0.9450
  897MOL0     H23745   2.383   2.543   2.924 -1.3216 -0.4827 -1.4979
  897MOL0     H23746   2.294   2.516   3.062  2.7614 -4.5353 -2.0671
  897MOL0     H23747   2.292   2.683   2.980  1.1159 -0.1218 -3.6742
  897MOL0     H23748   2.526   2.750   2.751  1.3248 -0.6122 -2.0081
  897MOL0     H23749   2.706   2.888   2.696  0.4750 -0.6499  0.9777
  897MOL0     H23750   2.649   3.096   2.366 -0.4800 -0.1326  1.2461
  897MOL0     H23751   2.572   3.244   2.429  0.5000 -0.0208  2.3767
  897MOL0     H23752   2.762   3.362   2.416  0.9135 -0.0304 -1.1391
  897MOL0     H23753   2.872   3.235   2.406 -0.2324 -1.8427 -1.1427
  897MOL0     H23754   2.784   3.173   2.178  0.4318 -1.4910  1.6827
  897MOL0     H23755   2.870   3.330   2.187 -2.4375  2.7754 -4.7794
  897MOL0     H23756   2.647   3.450   2.192  1.3053  0.2948 -1.4867
  897MOL0     H23757   2.569   3.292   2.187  1.8376 -3.1578 -0.8264
  897MOL0     H23758   2.643   3.238   1.979 -1.9428 -0.3696  3.0610
  897MOL0     H23759   2.574   3.394   1.977  1.3068  1.0031 -0.7541
  897MOL0     H23760   2.743   3.394   1.834 -0.3598  0.0057  0.4730
  897MOL0     H23761   2.863   3.340   1.963 -0.0883  1.7818  1.7830
  897MOL0     H23762   2.802   3.572   2.076  2.9166 -1.6357  0.8698
  897MOL0     H23763   2.709   3.590   1.930 -0.3526  0.6308  0.4048
  897MOL0     H23764   2.894   3.582   1.777 -1.2325  2.3978  0.0802
  897MOL0     H23765   2.992   3.512   1.905 -1.2558 -1.7694 -0.1848
  897MOL0     H23766   2.429   3.179   2.542 -1.3996  1.0011  0.9640
  897MOL0     H23767   2.245   3.019   2.596 -0.7203  2.3588  1.8369
  897MOL0     H23768   2.060   2.492   2.569  1.2851  1.0349  0.0345
  897MOL0     H23769   1.932   2.328   2.671  1.5531 -0.5967 -1.8513
  897MOL0     H23770   0.605   2.062   3.057 -1.0755  0.2049  0.0803
  897MOL0     H23771   0.421   2.227   3.049 -0.9041  1.1711  0.9501
  897MOL0     H23772   0.272   2.590   3.396  0.1322  1.5610  0.5328
  897MOL0     H23773   0.078   2.726   3.479 -3.3947 -0.9694  0.5538
  897MOL0     H23774  -0.235   2.590   3.471  0.6865 -0.7496 -0.1642
  897MOL0     H23775  -0.254   2.750   3.543  0.3109  0.8397 -0.3630
  897MOL0     H23776  -0.455   2.647   3.427  0.2844  2.0316  1.8485
  897MOL0     H23777  -0.376   2.668   3.267 -2.2816 -0.1707  0.0423
  897MOL0     H23778  -0.456   2.916   3.434  1.8993  1.1345 -1.1729
  897MOL0     H23779  -0.359   2.907   3.289  0.7024 -2.7649 -3.2906
  897MOL0     H23780  -0.651   2.886   3.341 -0.2901 -1.7165 -0.1245
  897MOL0     H23781  -0.611   2.768   3.238  0.1957 -1.0371  2.8680
  897MOL0     H23782  -0.596   3.124   2.993  2.5171  2.5430  1.5609
  897MOL0     H23783  -0.156   2.625   3.146 -1.0839  1.3273  1.2153
  897MOL0     H23784  -0.096   2.474   3.000  1.1238 -1.5447  0.6491
  897MOL0     H23785   0.012   2.599   2.933  0.2422  1.0000  1.1730
  897MOL0     H23786   0.067   2.431   2.949  1.6183  0.9222 -1.1147
  898MOL0     O23787   6.694   0.291   6.628 -0.1719  0.4417  0.9280
  898MOL0     C23788   6.686   0.280   6.504  1.0281 -0.4790  0.2456
  898MOL0     O23789   6.791   0.276   6.418  0.5669 -0.6662 -0.7218
  898MOL0     C23790   6.915   0.290   6.478 -0.9233 -0.1142 -0.6563
  898MOL0     C23791   6.994   0.185   6.519 -0.4029 -0.1526  0.3497
  898MOL0     C23792   7.107   0.200   6.600  0.4606 -0.0316 -0.1467
  898MOL0     C23793   7.151   0.330   6.625 -0.8915 -0.1516 -0.0974
  898MOL0     O23794   7.273   0.357   6.694  0.4991  0.0063  0.2367
  898MOL0     C23795   7.323   0.258   6.790 -0.6324  0.3893  0.4649
  898MOL0     C23796   7.437   0.327   6.867  0.0316  1.1936  0.2456
  898MOL0     C23797   7.560   0.376   6.789  0.6206 -0.8095 -0.0578
  898MOL0     C23798   7.694   0.340   6.855 -0.1074 -0.3119 -0.3151
  898MOL0     C23799   7.802   0.362   6.749  0.3075 -0.1295  0.0377
  898MOL0     C23800   7.943   0.370   6.808 -0.3626 -0.8944 -0.4348
  898MOL0     C23801   8.025   0.381   6.687  0.6236  0.1512 -0.5026
  898MOL0     C23802   8.176   0.366   6.702 -0.1966  0.0951 -0.0701
  898MOL0     N23803   8.220   0.405   6.831 -0.4912  0.2534  0.3405
  898MOL0     C23804   8.341   0.362   6.887  0.0498 -0.1361  0.7156
  898MOL0     C23805   8.380   0.459   6.974 -0.1220  0.0761 -0.6476
  898MOL0     C23806   8.510   0.468   7.055 -0.4993  0.1619 -0.4218
  898MOL0     C23807   8.555   0.611   7.069 -0.2571 -0.6050  0.4943
  898MOL0     C23808   8.681   0.612   7.162  0.2990 -0.9515 -0.1519
  898MOL0     C23809   8.811   0.583   7.090 -0.0064 -0.6511 -0.1954
  898MOL0     O23810   8.822   0.625   6.961 -0.1108  1.0061  0.0528
  898MOL0     C23811   8.929   0.575   6.886  0.4914  0.1009  0.2645
  898MOL0     C23812   9.033   0.489   6.921  0.0483 -0.2220 -0.7568
  898MOL0     C23813   9.139   0.454   6.840  1.0171 -0.2723 -0.3448
  898MOL0     C23814   9.234   0.351   6.887  0.1415 -0.3752 -0.5885
  898MOL0     C23815   9.147   0.494   6.709 -0.0956  0.2018 -0.9270
  898MOL0     C23816   9.244   0.451   6.612  0.4235  0.5389  0.6332
  898MOL0     O23817   9.282   0.544   6.518  0.7836 -0.0315  0.1485
  898MOL0     C23818   9.372   0.505   6.425 -0.1962  0.2481  0.0303
  898MOL0     C23819   9.342   0.454   6.300 -0.2568 -0.1309  0.0711
  898MOL0     C23820   9.439   0.395   6.212 -0.2329 -0.1579 -0.1205
  898MOL0     C23821   9.573   0.400   6.259  0.2178  0.2898  0.3984
  898MOL0     O23822   9.656   0.352   6.160  0.3298 -0.3063 -0.3193
  898MOL0     C23823   9.777   0.313   6.213  0.6993  0.4785 -0.4265
  898MOL0     C23824   9.850   0.233   6.101 -0.0418 -0.8884  0.1412
  898MOL0     C23825   9.974   0.171   6.134 -0.0752 -0.1946 -0.3254
  898MOL0     C23826  10.046   0.088   6.032  0.3276  0.2624  0.4176
  898MOL0     C23827  10.174   0.023   6.096 -1.6105 -0.3565  0.5382
  898MOL0     C23828  10.265  -0.016   5.978 -0.4741 -0.2734 -0.3979
  898MOL0     C23829  10.399  -0.081   6.041  0.4307 -0.4103 -0.8530
  898MOL0     C23830  10.489  -0.146   5.931 -0.6240 -0.9840 -1.2591
  898MOL0    Cl23831  10.496  -0.042   5.795 -0.5049  0.6211  0.4675
  898MOL0     C23832   9.607   0.471   6.374 -0.1405  0.6356  0.8138
  898MOL0     C23833   9.511   0.526   6.458  0.0055 -0.2943 -0.0989
  898MOL0     O23834   9.284   0.334   6.618 -0.4774 -0.1228  0.7376
  898MOL0     C23835   9.049   0.586   6.669  0.7049  0.0961  0.3199
  898MOL0     C23836   8.934   0.622   6.753 -0.0765 -0.5035 -0.4822
  898MOL0     N23837   8.287   0.566   6.961  0.1324  0.1143 -0.6406
  898MOL0     N23838   8.197   0.531   6.886 -1.0461  0.0473  0.8335
  898MOL0     C23839   7.080   0.442   6.577  0.2896  0.1719  0.0969
  898MOL0     C23840   6.959   0.418   6.503 -0.3345  0.0971  0.2669
  898MOL0     C23841   6.562   0.308   6.426  0.5156 -0.2414 -0.8443
  898MOL0     C23842   6.560   0.414   6.327  0.5393  0.6060  0.0506
  898MOL0     C23843   6.453   0.414   6.240 -0.9045  0.5363 -0.0716
  898MOL0     C23844   6.349   0.326   6.243 -0.5671 -0.6758 -0.5426
  898MOL0     O23845   6.247   0.336   6.148 -0.0628 -0.4059  0.3960
  898MOL0     C23846   6.131   0.265   6.169 -0.4878 -0.0196  0.1129
  898MOL0     C23847   6.137   0.127   6.118  0.3289 -0.5113 -0.7873
  898MOL0     C23848   5.993   0.067   6.097 -0.2769  0.1401  0.0418
  898MOL0     C23849   6.014  -0.081   6.075  0.3536 -0.9691 -0.1383
  898MOL0     C23850   5.877  -0.148   6.057  0.2343  0.0137 -0.0920
  898MOL0     C23851   5.768  -0.195   6.031 -0.1232  0.1697  0.2797
  898MOL0     C23852   6.350   0.231   6.349  0.7120 -0.0894 -0.7513
  898MOL0     C23853   6.462   0.211   6.435  0.5325  0.4369  1.2429
  898MOL0     C23854   6.468   0.081   6.515 -0.4431 -0.0137  0.8517
  898MOL0     H23855   6.947   0.088   6.503 -2.6709  1.0754 -1.0631
  898MOL0     H23856   7.153   0.118   6.654 -0.9852 -0.3059  0.7317
  898MOL0     H23857   7.372   0.180   6.732 -1.3227 -1.4334  2.2183
  898MOL0     H23858   7.252   0.205   6.854 -0.1386 -1.7899 -0.7075
  898MOL0     H23859   7.386   0.410   6.916 -0.6998  0.1488  1.3277
  898MOL0     H23860   7.463   0.243   6.933  0.5616 -0.7066 -2.2091
  898MOL0     H23861   7.544   0.333   6.690  0.2162 -2.9321  0.8894
  898MOL0     H23862   7.553   0.484   6.771  3.3722 -0.6884 -0.8182
  898MOL0     H23863   7.706   0.396   6.948 -3.1055 -0.8161  0.4930
  898MOL0     H23864   7.695   0.239   6.895  2.3623  0.5326  2.0561
  898MOL0     H23865   7.781   0.453   6.692 -1.7671 -0.7705 -0.3080
  898MOL0     H23866   7.794   0.278   6.679  1.7040  1.0359 -1.5799
  898MOL0     H23867   7.959   0.456   6.874  1.7265 -2.8291  1.7510
  898MOL0     H23868   7.954   0.275   6.860 -0.9113 -1.2031 -0.8657
  898MOL0     H23869   8.004   0.484   6.655  0.1744  0.6389  1.2943
  898MOL0     H23870   7.989   0.324   6.600  2.1076 -1.3569 -0.1776
  898MOL0     H23871   8.224   0.271   6.676 -0.1829  0.2251 -0.5304
  898MOL0     H23872   8.215   0.437   6.629  2.0712  1.1910  2.0631
  898MOL0     H23873   8.386   0.266   6.864 -3.3755 -2.2201  1.9307
  898MOL0     H23874   8.592   0.411   7.009  0.7258 -0.8231  2.6935
  898MOL0     H23875   8.497   0.425   7.154  2.4168 -1.6308 -0.7121
  898MOL0     H23876   8.570   0.666   6.975 -0.1374 -1.1822  0.1734
  898MOL0     H23877   8.470   0.660   7.117  1.0108 -1.4704  3.8466
  898MOL0     H23878   8.688   0.705   7.219 -0.6404  0.8965 -2.8749
  898MOL0     H23879   8.665   0.543   7.246  0.8682  0.8707  1.5319
  898MOL0     H23880   8.899   0.618   7.143 -1.1911  0.8608  0.8566
  898MOL0     H23881   8.815   0.474   7.089 -0.8919 -0.6974 -0.2517
  898MOL0     H23882   9.024   0.449   7.022  2.6178  1.9735  0.4633
  898MOL0     H23883   9.229   0.355   6.996 -0.6928 -1.6953 -0.5548
  898MOL0     H23884   9.335   0.380   6.856  0.3461 -0.1504  0.2569
  898MOL0     H23885   9.214   0.246   6.863 -2.0316 -0.7241  2.2592
  898MOL0     H23886   9.235   0.447   6.278 -0.0250 -0.6579 -0.9359
  898MOL0     H23887   9.416   0.350   6.116 -1.2123 -1.3229  0.6150
  898MOL0     H23888   9.830   0.397   6.258 -1.7948  1.8883  0.0490
  898MOL0     H23889   9.768   0.243   6.297 -3.0710  2.0215  0.6825
  898MOL0     H23890   9.787   0.152   6.064  1.0921 -2.1210  0.8246
  898MOL0     H23891   9.865   0.310   6.025 -3.0902  3.1234  3.1067
  898MOL0     H23892   9.953   0.104   6.218  1.8224  2.1101  2.2110
  898MOL0     H23893  10.041   0.251   6.168  0.6053 -1.0421  0.3722
  898MOL0     H23894  10.072   0.168   5.961 -2.2974  0.1472 -0.7839
  898MOL0     H23895   9.987   0.014   5.978 -0.9431  2.4591 -1.3631
  898MOL0     H23896  10.216   0.103   6.158 -1.4940 -0.8377  1.0856
  898MOL0     H23897  10.155  -0.066   6.158 -2.7548  1.0748  2.3676
  898MOL0     H23898  10.301   0.080   5.938  2.9247 -0.5382  1.6271
  898MOL0     H23899  10.219  -0.082   5.905 -0.7563 -1.7781  1.0863
  898MOL0     H23900  10.369  -0.158   6.113  0.5999 -2.3356 -2.7664
  898MOL0     H23901  10.448  -0.003   6.100  1.3796 -0.6307 -1.3317
  898MOL0     H23902  10.442  -0.241   5.903 -1.2974 -1.2725  0.6898
  898MOL0     H23903  10.589  -0.173   5.966 -0.3994  2.9197  1.8096
  898MOL0     H23904   9.704   0.498   6.414 -0.5119  0.7998  1.6227
  898MOL0     H23905   9.532   0.585   6.547 -7.2677 -1.0126  2.7523
  898MOL0     H23906   9.051   0.624   6.567 -1.4025  2.7045  1.1321
  898MOL0     H23907   8.852   0.686   6.723  0.3690 -0.8763 -2.7550
  898MOL0     H23908   7.119   0.543   6.591 -0.6969  0.7385 -1.0848
  898MOL0     H23909   6.899   0.505   6.479  1.0079  1.3247  1.2277
  898MOL0     H23910   6.642   0.486   6.321  0.3646  0.8574  0.5806
  898MOL0     H23911   6.438   0.485   6.160 -1.2894  0.1815 -0.3201
  898MOL0     H23912   6.098   0.261   6.273 -0.6205  1.8835  0.1668
  898MOL0     H23913   6.050   0.319   6.119 -1.8265 -0.9300  1.1971
  898MOL0     H23914   6.203   0.069   6.184  0.3602  0.3570 -0.0409
  898MOL0     H23915   6.176   0.124   6.016  2.0325 -3.7507 -0.1803
  898MOL0     H23916   5.927   0.092   6.180  0.2212 -1.8429  1.0905
  898MOL0     H23917   5.951   0.112   6.007  2.6994  1.2933 -0.8924
  898MOL0     H23918   6.055  -0.124   6.167  0.3633  0.6526  0.6485
  898MOL0     H23919   6.085  -0.088   5.992 -1.0810 -1.9662 -1.3319
  898MOL0     H23920   5.675  -0.239   6.002  0.3468 -1.1597  0.7239
  898MOL0     H23921   6.264   0.166   6.362  1.2166 -0.7473 -0.6519
  898MOL0     H23922   6.443   0.107   6.619 -2.5382  0.0303  0.3757
  898MOL0     H23923   6.397   0.008   6.476  2.8710 -2.3094 -1.4171
  898MOL0     H23924   6.558   0.021   6.500 -1.9679 -1.9666 -1.1504
  899MOL0     O23925  10.273  11.181   2.427 -0.3543 -0.4730 -0.2746
  899MOL0     C23926  10.185  11.136   2.495 -0.8453 -0.7605  0.4040
  899MOL0     O23927  10.181  11.144   2.631 -0.4916 -0.3979  0.3686
  899MOL0     C23928  10.249  11.242   2.698  0.4371  0.4373 -0.4512
  899MOL0     C23929  10.185  11.281   2.815 -0.0888 -0.6088 -0.4433
  899MOL0     C23930  10.249  11.365   2.903 -0.8984  0.5746  0.1192
  899MOL0     C23931  10.384  11.408   2.880  0.9960 -0.6304 -1.6796
  899MOL0     O23932  10.451  11.503   2.962  0.1762 -0.0819  0.0172
  899MOL0     C23933  10.393  11.639   2.975 -0.4786 -0.2357  0.6336
  899MOL0     C23934  10.355  11.699   2.833 -0.4421  0.6150  0.1112
  899MOL0     C23935  10.328  11.848   2.826 -0.3140  0.5775 -0.0029
  899MOL0     C23936  10.333  11.901   2.681  0.0761  0.1737 -1.1074
  899MOL0     C23937  10.255  12.028   2.663 -0.3805  0.0846 -0.4564
  899MOL0     C23938  10.234  12.064   2.515 -0.9892  0.5261  0.4240
  899MOL0     C23939  10.365  12.134   2.470 -0.2293 -0.5023 -0.0545
  899MOL0     C23940  10.357  12.230   2.354  0.3760  1.4451 -0.5652
  899MOL0     N23941  10.483  12.301   2.313 -0.1049  0.0562  0.9000
  899MOL0     C23942  10.537  12.401   2.383 -0.2967  0.5608  0.0130
  899MOL0     C23943  10.646  12.443   2.312 -0.6966 -0.8552 -0.4887
  899MOL0     C23944  10.753  12.548   2.338  0.5317 -0.0655 -0.0449
  899MOL0     C23945  10.700  12.698   2.314  0.5413 -0.3888  0.2967
  899MOL0     C23946  10.782  12.811   2.378 -0.2714  0.5652  0.1643
  899MOL0     C23947  10.706  12.943   2.368 -0.7542  0.2294  0.4273
  899MOL0     O23948  10.784  13.053   2.405 -0.0249  0.7740 -0.5040
  899MOL0     C23949  10.868  13.108   2.320 -0.5327 -1.4338  0.3701
  899MOL0     C23950  10.878  13.078   2.183  0.2651  0.5662 -0.2852
  899MOL0     C23951  10.973  13.135   2.099  0.1563 -0.7023 -0.2190
  899MOL0     C23952  10.967  13.108   1.953  0.0137  0.2594  0.0967
  899MOL0     C23953  11.053  13.247   2.149  0.0897  0.3069  0.6665
  899MOL0     C23954  11.160  13.305   2.059 -0.6237  0.2316 -0.8428
  899MOL0     O23955  11.200  13.428   2.106 -0.7346 -0.8149  0.4162
  899MOL0     C23956  11.276  13.512   2.035 -0.6516  0.1475 -0.4380
  899MOL0     C23957  11.250  13.646   2.022  0.1348 -0.3238  0.9450
  899MOL0     C23958  11.358  13.732   1.989 -0.1422  0.6315 -0.1488
  899MOL0     C23959  11.491  13.694   1.955  1.0534  0.0649  0.4250
  899MOL0     O23960  11.601  13.772   1.928  0.4289 -0.7833  0.5360
  899MOL0     C23961  11.582  13.915   1.940  0.0399 -0.2309  0.5635
  899MOL0     C23962  11.712  13.990   1.944 -0.0646 -0.3734 -0.5634
  899MOL0     C23963  11.703  14.145   1.968  0.2106  0.1818 -0.3632
  899MOL0     C23964  11.843  14.203   1.959  0.2357 -0.2399 -0.0280
  899MOL0     C23965  11.867  14.330   2.027  0.1570  0.2803 -0.4590
  899MOL0     C23966  11.756  14.440   2.026  0.8374 -0.2767 -0.6591
  899MOL0     C23967  11.814  14.577   2.066  0.5453 -0.7392  0.0457
  899MOL0     C23968  11.722  14.695   2.020 -0.2471  0.5376 -0.4344
  899MOL0    Cl23969  11.720  14.851   2.110 -0.4265 -0.4848  0.3449
  899MOL0     C23970  11.506  13.554   1.971  0.2157  0.8242  0.4131
  899MOL0     C23971  11.402  13.462   2.002 -0.0800  0.3818 -1.1188
  899MOL0     O23972  11.200  13.253   1.960  0.2262  0.3454  0.4046
  899MOL0     C23973  11.045  13.288   2.278  0.5880 -1.1435 -0.0784
  899MOL0     C23974  10.949  13.222   2.361 -0.4472  0.2058  0.5394
  899MOL0     N23975  10.657  12.364   2.196 -0.0485 -0.9723 -0.3533
  899MOL0     N23976  10.562  12.279   2.197  1.5736 -0.2890  0.5286
  899MOL0     C23977  10.448  11.356   2.777 -0.3417  0.3269 -0.8563
  899MOL0     C23978  10.389  11.272   2.680 -0.2222 -0.8796 -0.3935
  899MOL0     C23979  10.088  11.043   2.434 -0.3318  1.1820  0.2128
  899MOL0     C23980  10.010  10.962   2.512 -0.6306 -0.4271  0.1465
  899MOL0     C23981   9.916  10.885   2.453 -0.6535  0.1501  0.4789
  899MOL0     C23982   9.896  10.883   2.312  1.1862  0.2706 -0.1141
  899MOL0     O23983   9.793  10.792   2.271 -0.2526 -0.1875  1.0894
  899MOL0     C23984   9.778  10.770   2.126 -0.8056 -0.5246 -0.4762
  899MOL0     C23985   9.898  10.695   2.054 -0.1942 -0.4868  0.2888
  899MOL0     C23986   9.848  10.619   1.929 -0.9324 -0.9314 -0.6925
  899MOL0     C23987   9.763  10.702   1.835  0.8907 -0.1608  0.2386
  899MOL0     C23988   9.629  10.692   1.869 -0.8234  0.6788 -0.8453
  899MOL0     C23989   9.512  10.697   1.894  0.4858 -0.7653  0.1518
  899MOL0     C23990   9.968  10.965   2.236 -0.0946 -0.6974  0.7110
  899MOL0     C23991  10.073  11.038   2.298  0.0147 -0.2956  0.4541
  899MOL0     C23992  10.133  11.140   2.197  0.2728 -0.7099  0.3597
  899MOL0     H23993  10.082  11.248   2.820 -0.1048 -0.3006  2.4305
  899MOL0     H23994  10.193  11.383   2.995 -2.0833  1.9946 -0.8358
  899MOL0     H23995  10.463  11.712   3.017  1.3738 -1.4906 -0.1441
  899MOL0     H23996  10.306  11.636   3.041  0.0018 -0.9215  1.2565
  899MOL0     H23997  10.432  11.669   2.760  0.2285 -1.3583  1.5525
  899MOL0     H23998  10.267  11.641   2.805 -0.7865  0.0783  2.1812
  899MOL0     H23999  10.228  11.866   2.868 -0.9989  0.4293 -1.4928
  899MOL0     H24000  10.405  11.909   2.874 -1.9788  2.9838 -0.2353
  899MOL0     H24001  10.440  11.919   2.672 -0.2304  5.6434  1.9367
  899MOL0     H24002  10.311  11.826   2.605 -0.4561 -0.2379 -0.5574
  899MOL0     H24003  10.289  12.111   2.725  1.8723 -2.1255  1.4263
  899MOL0     H24004  10.156  12.011   2.706 -0.8747  0.7681 -1.2831
  899MOL0     H24005  10.233  11.972   2.456  3.8936  0.0981  0.5695
  899MOL0     H24006  10.150  12.132   2.497 -1.2388  0.2943  0.7155
  899MOL0     H24007  10.439  12.063   2.433 -1.7555 -2.8008  1.0691
  899MOL0     H24008  10.416  12.182   2.555 -2.6678  3.6248 -0.6548
  899MOL0     H24009  10.322  12.171   2.268  0.9596  0.7873 -0.3654
  899MOL0     H24010  10.281  12.301   2.388 -0.7649 -1.0118  2.5643
  899MOL0     H24011  10.500  12.440   2.477 -2.8203 -2.8182  0.6099
  899MOL0     H24012  10.844  12.539   2.279  0.0787  1.4297 -1.0282
  899MOL0     H24013  10.787  12.544   2.442  0.3823  0.3450  0.0220
  899MOL0     H24014  10.684  12.714   2.207 -1.1463  1.6290  0.7734
  899MOL0     H24015  10.603  12.713   2.362 -0.4046  0.4648 -1.7855
  899MOL0     H24016  10.807  12.792   2.483  0.7952  1.7654  0.1391
  899MOL0     H24017  10.881  12.816   2.334 -0.8145  0.5042 -1.1095
  899MOL0     H24018  10.665  12.954   2.267  0.9061 -2.1057 -0.6049
  899MOL0     H24019  10.617  12.956   2.430  0.6275  1.6010  2.2387
  899MOL0     H24020  10.811  13.001   2.145 -0.0348  0.7192 -0.0613
  899MOL0     H24021  10.985  13.206   1.906 -0.3926 -0.0326 -0.6952
  899MOL0     H24022  10.864  13.079   1.929  0.8308 -1.2553 -1.8572
  899MOL0     H24023  11.040  13.033   1.923 -1.7831 -1.7277  0.4688
  899MOL0     H24024  11.154  13.693   2.040  0.2042  0.0150  0.4601
  899MOL0     H24025  11.324  13.835   1.983  1.9254  1.5274  1.8993
  899MOL0     H24026  11.528  13.954   1.854  3.4310 -0.4678 -1.8681
  899MOL0     H24027  11.518  13.937   2.026 -1.1882  0.4721 -0.4977
  899MOL0     H24028  11.777  13.945   2.020  0.8411  1.5167 -0.1528
  899MOL0     H24029  11.753  13.970   1.845  0.4778 -1.3275 -0.1620
  899MOL0     H24030  11.650  14.163   2.062  0.5689 -2.3580  0.3841
  899MOL0     H24031  11.641  14.185   1.886 -0.1336  0.2414 -0.0762
  899MOL0     H24032  11.872  14.221   1.855  0.6754  2.2874  0.4713
  899MOL0     H24033  11.914  14.146   2.019 -0.6930 -1.2542  0.1444
  899MOL0     H24034  11.878  14.311   2.134 -2.3179 -1.1080 -0.3838
  899MOL0     H24035  11.962  14.361   1.981 -1.1120  1.7505 -2.2517
  899MOL0     H24036  11.685  14.406   2.102  1.1259 -1.9979 -1.1198
  899MOL0     H24037  11.702  14.451   1.932 -3.5329 -0.8908  1.5228
  899MOL0     H24038  11.914  14.597   2.029 -0.8605 -1.2735 -4.7664
  899MOL0     H24039  11.820  14.564   2.175  0.9768  1.0832  0.2613
  899MOL0     H24040  11.620  14.659   2.032 -0.3387  0.8249 -0.3421
  899MOL0     H24041  11.744  14.705   1.913  0.2577 -2.3215 -0.6893
  899MOL0     H24042  11.611  13.541   1.945 -0.1420  0.3210 -0.8048
  899MOL0     H24043  11.423  13.358   2.022  0.4957  0.7137  0.1456
  899MOL0     H24044  11.100  13.373   2.318 -0.2203  0.4901 -2.2148
  899MOL0     H24045  10.926  13.265   2.458 -1.3775  0.6451  0.1310
  899MOL0     H24046  10.555  11.374   2.764 -0.4963  1.7516 -0.4058
  899MOL0     H24047  10.454  11.256   2.595 -0.2682  2.0169 -1.0697
  899MOL0     H24048  10.009  10.960   2.620 -0.6721 -0.0168  0.1532
  899MOL0     H24049   9.854  10.826   2.520  2.1295 -1.4702  1.7772
  899MOL0     H24050   9.691  10.705   2.120  0.2266 -1.8416 -2.5909
  899MOL0     H24051   9.740  10.860   2.075 -4.9762 -2.1192 -0.5347
  899MOL0     H24052   9.941  10.628   2.129 -1.1248  0.8637  2.1061
  899MOL0     H24053   9.984  10.754   2.022 -0.2187 -0.3581  0.4535
  899MOL0     H24054   9.938  10.592   1.873  1.1114  1.7701  1.0540
  899MOL0     H24055   9.791  10.528   1.948 -3.3609  1.1117  2.9561
  899MOL0     H24056   9.774  10.651   1.739 -2.2999 -1.2047  0.2897
  899MOL0     H24057   9.795  10.807   1.833  2.2872 -0.5415  1.1354
  899MOL0     H24058   9.408  10.698   1.918  0.2942  2.4508 -0.3640
  899MOL0     H24059   9.945  10.968   2.130 -0.7194 -0.3192  0.8507
  899MOL0     H24060  10.236  11.110   2.176 -0.2178 -1.6658 -0.7965
  899MOL0     H24061  10.089  11.131   2.097  0.5038 -0.0650  0.1961
  899MOL0     H24062  10.119  11.243   2.231  0.3522  0.0245 -1.6833
  900MOL0     O24063   8.788   1.720   5.664  0.0209  0.4494  0.5753
  900MOL0     C24064   8.832   1.614   5.633  0.2745 -0.2651 -0.6098
  900MOL0     O24065   8.782   1.494   5.671  0.4702  0.2812  0.1320
  900MOL0     C24066   8.674   1.496   5.746  0.0922  0.3498 -0.6799
  900MOL0     C24067   8.695   1.536   5.884 -0.6381 -1.2759 -0.2356
  900MOL0     C24068   8.583   1.556   5.954 -0.4987 -0.8451  0.1320
  900MOL0     C24069   8.453   1.528   5.907 -0.3083  0.0885  0.2255
  900MOL0     O24070   8.339   1.554   5.984 -0.5640  0.4437 -0.4972
  900MOL0     C24071   8.264   1.432   6.002  0.3977 -0.4626  0.6971
  900MOL0     C24072   8.163   1.439   6.120 -0.9157 -0.7480 -0.3241
  900MOL0     C24073   8.058   1.547   6.112  0.3133  0.1399 -0.2759
  900MOL0     C24074   7.940   1.490   6.026 -0.4578 -0.5028  0.0085
  900MOL0     C24075   7.820   1.595   6.002 -0.0797  0.7370  0.0084
  900MOL0     C24076   7.754   1.648   6.135  0.7170 -0.0504  0.9910
  900MOL0     C24077   7.662   1.771   6.121 -0.8544 -0.5217 -0.1601
  900MOL0     C24078   7.525   1.742   6.062 -0.0529 -0.0797 -0.5616
  900MOL0     N24079   7.416   1.719   6.160  0.6697 -0.2190  0.2178
  900MOL0     C24080   7.392   1.604   6.241  0.0909  0.2636  0.4813
  900MOL0     C24081   7.279   1.638   6.312  0.5353  0.5143  0.2578
  900MOL0     C24082   7.198   1.543   6.395  0.3044 -0.4140  0.6069
  900MOL0     C24083   7.205   1.576   6.546 -0.8767 -0.0963  0.8389
  900MOL0     C24084   7.122   1.479   6.637 -0.0972  0.3001  0.2345
  900MOL0     C24085   6.972   1.498   6.626  0.0823 -0.6060  0.8457
  900MOL0     O24086   6.909   1.408   6.712  0.4058  0.3334 -0.0907
  900MOL0     C24087   6.772   1.419   6.742  0.2847  0.4270  0.1437
  900MOL0     C24088   6.728   1.337   6.841 -0.7703  0.5550 -0.4912
  900MOL0     C24089   6.589   1.329   6.878 -0.1215  0.4152 -0.2794
  900MOL0     C24090   6.544   1.229   6.986  0.8359  0.4248 -0.9760
  900MOL0     C24091   6.495   1.412   6.812 -0.1383  0.3911 -0.1139
  900MOL0     C24092   6.363   1.440   6.861  0.0186  0.1812  0.0580
  900MOL0     O24093   6.260   1.406   6.781 -0.0608 -0.6361  0.1880
  900MOL0     C24094   6.141   1.362   6.837  1.0015 -0.2179  0.0503
  900MOL0     C24095   6.147   1.236   6.898  0.3078 -0.3889  0.5915
  900MOL0     C24096   6.031   1.182   6.951 -0.2286 -0.4453 -0.4692
  900MOL0     C24097   5.917   1.262   6.960  0.0857  0.2033  0.1507
  900MOL0     O24098   5.815   1.211   7.031 -0.2470  0.2812 -0.0117
  900MOL0     C24099   5.726   1.151   6.946  1.1539  0.5543  0.5647
  900MOL0     C24100   5.574   1.153   7.002 -0.6175 -0.7311  0.9045
  900MOL0     C24101   5.483   1.064   6.920  0.4179  0.1923 -0.2952
  900MOL0     C24102   5.486   0.918   6.965  0.2518 -0.0546  0.0780
  900MOL0     C24103   5.543   0.822   6.858  0.7313  0.2485 -0.0181
  900MOL0     C24104   5.460   0.694   6.857 -0.0676 -0.1456 -0.0914
  900MOL0     C24105   5.509   0.609   6.744 -0.6886 -0.5642  0.9217
  900MOL0     C24106   5.413   0.489   6.708  0.2697 -0.9548 -0.2928
  900MOL0    Cl24107   5.477   0.339   6.789  0.2475 -0.4265  0.0524
  900MOL0     C24108   5.918   1.400   6.915  0.2361 -0.5970  0.4223
  900MOL0     C24109   6.032   1.449   6.845  0.0113 -0.0215 -0.1267
  900MOL0     O24110   6.360   1.511   6.963  0.5939 -0.3543  0.6796
  900MOL0     C24111   6.544   1.498   6.709  0.0043 -0.2878  0.2345
  900MOL0     C24112   6.686   1.507   6.681 -0.0051 -0.0501  1.2488
  900MOL0     N24113   7.237   1.764   6.269  0.7354  0.2817  0.0913
  900MOL0     N24114   7.322   1.808   6.192 -0.3353 -0.5766 -1.0189
  900MOL0     C24115   8.444   1.471   5.784  0.6431  0.6375  0.5719
  900MOL0     C24116   8.560   1.449   5.706  0.4938  0.1930 -0.6433
  900MOL0     C24117   8.945   1.600   5.540  0.0516 -0.2886 -0.2895
  900MOL0     C24118   9.036   1.495   5.567 -0.1271  1.0635 -0.8939
  900MOL0     C24119   9.142   1.478   5.478 -0.8066  0.0184 -0.8755
  900MOL0     C24120   9.184   1.577   5.389  0.6287  0.4410  0.2929
  900MOL0     O24121   9.309   1.572   5.327 -0.0671  0.0961  0.6570
  900MOL0     C24122   9.368   1.673   5.241  0.3719  0.2204  0.3738
  900MOL0     C24123   9.390   1.612   5.096 -0.0960  0.3792 -0.7499
  900MOL0     C24124   9.503   1.517   5.089  0.3967 -0.2656 -0.2194
  900MOL0     C24125   9.525   1.450   4.953  0.2475 -0.2038 -0.0103
  900MOL0     C24126   9.652   1.496   4.898  1.0484  0.3718 -0.0252
  900MOL0     C24127   9.764   1.526   4.846  0.1418 -1.3082 -0.5610
  900MOL0     C24128   9.094   1.687   5.356 -0.0592  0.6624  0.2658
  900MOL0     C24129   8.975   1.688   5.434 -0.3207 -0.6520 -0.8062
  900MOL0     C24130   8.891   1.818   5.401  0.3971 -0.4790 -0.5773
  900MOL0     H24131   8.792   1.581   5.904 -1.2993  0.9668 -1.7016
  900MOL0     H24132   8.583   1.622   6.040 -1.3605 -1.7524  0.8587
  900MOL0     H24133   8.331   1.345   6.004  2.2460  0.9040  1.3477
  900MOL0     H24134   8.218   1.417   5.904  0.3872 -0.6383  0.7270
  900MOL0     H24135   8.114   1.344   6.146  0.2190 -0.7158  2.2255
  900MOL0     H24136   8.228   1.470   6.203 -0.2743  1.3963 -1.5536
  900MOL0     H24137   8.022   1.577   6.211  1.2919  2.7760 -0.6359
  900MOL0     H24138   8.093   1.636   6.060 -0.6598 -1.5938 -4.2330
  900MOL0     H24139   7.968   1.453   5.927 -3.6446  2.4175 -2.2077
  900MOL0     H24140   7.898   1.403   6.078 -1.5063 -0.9898 -1.5860
  900MOL0     H24141   7.748   1.540   5.941  0.6353  1.6679 -1.7483
  900MOL0     H24142   7.845   1.671   5.928  0.0575 -1.3760 -2.2382
  900MOL0     H24143   7.700   1.560   6.170  3.0120 -1.8772  0.2388
  900MOL0     H24144   7.837   1.679   6.200  2.8265  2.4684 -2.5092
  900MOL0     H24145   7.713   1.843   6.057  0.5190 -0.6404  0.7435
  900MOL0     H24146   7.655   1.819   6.219 -2.8233  1.2524 -1.0974
  900MOL0     H24147   7.497   1.821   5.991 -2.7847  1.3980  1.9650
  900MOL0     H24148   7.542   1.656   5.996  0.5854 -0.9118  0.6644
  900MOL0     H24149   7.465   1.524   6.234  1.6298  1.4773  1.5918
  900MOL0     H24150   7.238   1.442   6.381 -1.4323 -0.9407 -0.8915
  900MOL0     H24151   7.094   1.538   6.361 -0.2634 -0.7518  2.2726
  900MOL0     H24152   7.311   1.569   6.570 -0.5610 -2.0636 -0.7910
  900MOL0     H24153   7.170   1.678   6.560 -0.1365  0.8425 -2.9896
  900MOL0     H24154   7.139   1.377   6.603  2.4965  1.4383 -2.2925
  900MOL0     H24155   7.152   1.479   6.742 -0.7559  0.0097  0.4282
  900MOL0     H24156   6.941   1.600   6.648 -0.1949  0.0526 -2.2585
  900MOL0     H24157   6.948   1.485   6.520  2.0323  1.7596  0.0251
  900MOL0     H24158   6.805   1.272   6.882  0.4717  1.1954 -1.7397
  900MOL0     H24159   6.548   1.127   6.947  0.8101  0.8829 -2.2268
  900MOL0     H24160   6.438   1.248   7.005  0.9004  1.7754 -1.8064
  900MOL0     H24161   6.604   1.232   7.078  0.5321  1.9688 -0.7995
  900MOL0     H24162   6.236   1.174   6.894  0.1151 -0.7597  1.6078
  900MOL0     H24163   6.029   1.079   6.983 -3.5220 -0.8109 -1.4563
  900MOL0     H24164   5.712   1.199   6.849 -2.4960 -3.1027 -0.9975
  900MOL0     H24165   5.755   1.047   6.926 -2.9356 -0.5907 -0.3345
  900MOL0     H24166   5.586   1.113   7.103 -0.0169 -2.6309  0.1179
  900MOL0     H24167   5.537   1.256   7.005 -1.5949 -1.1015  2.4951
  900MOL0     H24168   5.492   1.086   6.813  0.0887  2.1538  0.0375
  900MOL0     H24169   5.382   1.101   6.941  0.7365 -0.2613  2.3458
  900MOL0     H24170   5.380   0.899   6.986  0.7585 -3.1212  0.2872
  900MOL0     H24171   5.526   0.890   7.062 -0.8041 -3.2338 -0.2920
  900MOL0     H24172   5.522   0.861   6.758 -2.8594 -4.1622 -1.3212
  900MOL0     H24173   5.650   0.800   6.867  1.1673  1.5297 -1.6883
  900MOL0     H24174   5.357   0.729   6.844  0.4860  3.2972  3.0475
  900MOL0     H24175   5.473   0.652   6.957  2.4815 -1.1977 -0.7749
  900MOL0     H24176   5.612   0.578   6.763 -1.1021 -1.4221  1.8296
  900MOL0     H24177   5.516   0.671   6.654  0.8422 -2.6090 -0.4418
  900MOL0     H24178   5.401   0.476   6.600  1.7821 -0.8947 -0.4813
  900MOL0     H24179   5.321   0.500   6.766  0.4961 -1.8409  0.2501
  900MOL0     H24180   5.825   1.452   6.937  0.2521 -0.3416 -0.0953
  900MOL0     H24181   6.036   1.547   6.798  1.2100  1.0259  2.0197
  900MOL0     H24182   6.481   1.574   6.663 -1.4391 -0.6454  1.5242
  900MOL0     H24183   6.712   1.575   6.600  0.5770  1.2616  2.4833
  900MOL0     H24184   8.347   1.443   5.744  1.5365 -3.4553  0.9040
  900MOL0     H24185   8.553   1.402   5.608  1.7116  0.6999 -0.9918
  900MOL0     H24186   9.014   1.424   5.646 -0.0368 -0.1595 -1.9325
  900MOL0     H24187   9.218   1.402   5.495  0.4592  1.5911  0.8764
  900MOL0     H24188   9.312   1.767   5.242 -2.0131 -1.0043  4.3265
  900MOL0     H24189   9.462   1.696   5.290  1.3422  0.6363 -1.5655
  900MOL0     H24190   9.426   1.697   5.037  0.5554  0.3718 -0.3660
  900MOL0     H24191   9.295   1.587   5.048  2.6855 -1.0319 -6.4942
  900MOL0     H24192   9.593   1.569   5.124  0.5996 -1.4410  1.1047
  900MOL0     H24193   9.478   1.435   5.157  1.0042 -1.0145 -0.8776
  900MOL0     H24194   9.443   1.462   4.882  0.4210  0.4270 -0.1147
  900MOL0     H24195   9.539   1.342   4.962 -1.6698 -0.3756  1.3784
  900MOL0     H24196   9.857   1.552   4.799  0.2968  0.8092  0.8006
  900MOL0     H24197   9.109   1.761   5.277  3.1502  3.4284  3.1305
  900MOL0     H24198   8.914   1.855   5.301  1.7940 -0.9988 -0.4729
  900MOL0     H24199   8.784   1.801   5.412  0.6564 -3.0066 -1.1676
  900MOL0     H24200   8.922   1.895   5.472 -3.0750  1.3562 -0.8351
  901MOL0     O24201   2.505   9.475  11.186  0.8240 -0.2360  0.3853
  901MOL0     C24202   2.393   9.459  11.236  0.0172  0.8764  0.2292
  901MOL0     O24203   2.291   9.552  11.225 -0.3221 -0.0739 -0.4293
  901MOL0     C24204   2.329   9.676  11.185 -0.5856  0.0382 -0.4437
  901MOL0     C24205   2.421   9.755  11.258 -0.2140 -0.8364 -0.3712
  901MOL0     C24206   2.443   9.882  11.237 -0.5080  1.2575  0.2247
  901MOL0     C24207   2.381   9.943  11.122  0.0649  0.5181 -0.2215
  901MOL0     O24208   2.422  10.072  11.083  0.4790  0.2343 -0.7871
  901MOL0     C24209   2.408  10.183  11.170  0.1309 -0.4159 -0.3155
  901MOL0     C24210   2.366  10.309  11.098  0.0001  0.4585 -0.0148
  901MOL0     C24211   2.448  10.321  10.971  0.6689 -1.1823 -0.1662
  901MOL0     C24212   2.435  10.472  10.918  1.0847  0.3459  0.4324
  901MOL0     C24213   2.460  10.475  10.773  0.7057 -0.3292  0.5414
  901MOL0     C24214   2.584  10.407  10.733 -0.3848  0.6453  0.7062
  901MOL0     C24215   2.645  10.490  10.617  0.7010 -0.2072  0.5937
  901MOL0     C24216   2.736  10.600  10.673 -0.0776 -0.3487 -0.7125
  901MOL0     N24217   2.803  10.675  10.572  0.2672  0.2629 -0.8028
  901MOL0     C24218   2.741  10.764  10.500 -0.7357 -0.0002 -0.5641
  901MOL0     C24219   2.833  10.799  10.403  0.6341 -0.9893  0.0756
  901MOL0     C24220   2.799  10.899  10.287 -0.3355  0.2790 -0.5082
  901MOL0     C24221   2.857  11.040  10.315  0.4173 -1.3386 -0.2294
  901MOL0     C24222   3.004  11.034  10.368 -0.1546 -0.7649  0.2783
  901MOL0     C24223   3.063  11.175  10.341 -0.2037  0.3976 -0.3347
  901MOL0     O24224   3.182  11.198  10.422 -0.0010  0.0343  0.4089
  901MOL0     C24225   3.306  11.170  10.383 -0.2577  0.5263  0.2654
  901MOL0     C24226   3.413  11.256  10.427  0.2989  0.7976 -0.4200
  901MOL0     C24227   3.552  11.229  10.402  0.1873 -0.5676  0.7312
  901MOL0     C24228   3.648  11.322  10.462 -0.2506 -0.4741 -0.2780
  901MOL0     C24229   3.591  11.125  10.319  0.0010 -0.0159  0.3190
  901MOL0     C24230   3.727  11.102  10.272  0.2404  0.8484  0.0463
  901MOL0     O24231   3.831  11.144  10.346 -0.1452  0.8220 -0.4279
  901MOL0     C24232   3.955  11.095  10.323  0.5936 -0.3918  0.0697
  901MOL0     C24233   4.026  11.138  10.211 -0.7798 -0.0893 -0.0126
  901MOL0     C24234   4.160  11.107  10.195 -1.0171  0.5771 -0.3698
  901MOL0     C24235   4.221  11.031  10.294 -0.7999 -0.3170  0.0849
  901MOL0     O24236   4.352  10.985  10.290  0.1230 -0.0772 -0.7585
  901MOL0     C24237   4.449  11.078  10.329 -0.4404 -0.9009 -0.5047
  901MOL0     C24238   4.498  11.157  10.205  0.3344 -0.1245 -0.2280
  901MOL0     C24239   4.648  11.189  10.226  1.2607  0.0171  0.7911
  901MOL0     C24240   4.652  11.301  10.328 -0.2013  0.0007  0.0720
  901MOL0     C24241   4.774  11.396  10.312 -0.3115  0.3612  0.4567
  901MOL0     C24242   4.912  11.325  10.331 -0.8438  1.5707  0.1442
  901MOL0     C24243   5.010  11.421  10.398 -0.8908  0.5532 -0.5073
  901MOL0     C24244   5.043  11.550  10.316  0.0816  0.1224 -1.0236
  901MOL0    Cl24245   5.193  11.627  10.394 -0.1509 -0.0525 -0.0258
  901MOL0     C24246   4.148  10.989  10.403  0.5061 -0.2276 -0.0437
  901MOL0     C24247   4.011  11.025  10.423 -0.1031  0.3817  0.1332
  901MOL0     O24248   3.730  11.030  10.167 -0.2978  0.5028 -0.0722
  901MOL0     C24249   3.480  11.047  10.264  0.0701 -0.4228  0.4939
  901MOL0     C24250   3.347  11.076  10.297 -0.4229  0.1598  0.3542
  901MOL0     N24251   2.945  10.723  10.420  0.3478 -0.7111  0.0768
  901MOL0     N24252   2.923  10.640  10.525  0.4861 -0.3789 -0.3282
  901MOL0     C24253   2.292   9.865  11.034 -1.4849  0.2922 -0.3238
  901MOL0     C24254   2.272   9.730  11.070  0.2966 -0.4083  0.6182
  901MOL0     C24255   2.378   9.343  11.322 -0.2372  1.0724  0.4329
  901MOL0     C24256   2.264   9.335  11.401  0.3623  0.6667 -0.0686
  901MOL0     C24257   2.231   9.223  11.478  0.4028 -0.1933 -0.4449
  901MOL0     C24258   2.309   9.117  11.479  0.8461  0.7131 -0.2260
  901MOL0     O24259   2.268   9.019  11.561  0.0713  0.0301  0.1274
  901MOL0     C24260   2.341   8.904  11.593  0.0994  0.8979 -0.7525
  901MOL0     C24261   2.287   8.804  11.698  0.6898 -0.9629  0.5530
  901MOL0     C24262   2.131   8.785  11.695 -1.2247  0.1909 -0.5604
  901MOL0     C24263   2.062   8.764  11.550 -1.1988  0.1794 -0.7604
  901MOL0     C24264   2.135   8.652  11.476  0.0945  0.4532 -0.4846
  901MOL0     C24265   2.207   8.575  11.412  0.6951  0.1281  0.5291
  901MOL0     C24266   2.431   9.118  11.411 -0.0368 -0.0080 -0.0258
  901MOL0     C24267   2.464   9.231  11.331  0.1787 -0.1851 -0.0311
  901MOL0     C24268   2.606   9.223  11.270 -0.1513  0.5139  0.4726
  901MOL0     H24269   2.460   9.713  11.351  0.9903  0.0538 -0.4543
  901MOL0     H24270   2.505   9.935  11.309  1.7650 -3.2193  1.9390
  901MOL0     H24271   2.507  10.215  11.204  0.0611 -1.3691  0.8928
  901MOL0     H24272   2.339  10.163  11.253  3.0748 -0.1380  2.3874
  901MOL0     H24273   2.260  10.303  11.074 -1.1152  3.6245  3.2278
  901MOL0     H24274   2.393  10.396  11.158 -0.4837  1.3931 -1.1031
  901MOL0     H24275   2.554  10.310  10.998  0.2739 -1.8003  1.1837
  901MOL0     H24276   2.411  10.253  10.894  0.6658  0.2064 -1.4419
  901MOL0     H24277   2.343  10.519  10.952  0.6865 -2.2937  3.5536
  901MOL0     H24278   2.512  10.534  10.964 -1.0596  2.9730  0.6855
  901MOL0     H24279   2.459  10.579  10.740  1.1229  0.7076  3.4342
  901MOL0     H24280   2.383  10.427  10.712  1.4396  0.0833 -0.7255
  901MOL0     H24281   2.662  10.391  10.808  2.0238  3.2393 -1.0402
  901MOL0     H24282   2.548  10.309  10.700 -2.9250  1.8608 -0.4609
  901MOL0     H24283   2.570  10.539  10.555  3.5061  0.7195 -2.3775
  901MOL0     H24284   2.696  10.419  10.551 -0.3508 -0.7410  0.3379
  901MOL0     H24285   2.679  10.668  10.738 -0.0928 -1.8773  0.9544
  901MOL0     H24286   2.809  10.546  10.735 -0.6392  0.5881  0.8520
  901MOL0     H24287   2.637  10.797  10.501 -0.0171  2.5007 -1.2917
  901MOL0     H24288   2.690  10.902  10.288 -0.4094 -0.0184  2.5755
  901MOL0     H24289   2.846  10.858  10.197  1.8882  5.2140 -1.9432
  901MOL0     H24290   2.845  11.105  10.228 -1.8922  1.9395  2.2875
  901MOL0     H24291   2.795  11.084  10.393 -1.4337 -2.0024 -1.2768
  901MOL0     H24292   3.013  11.023  10.477 -3.0090  1.6564  0.8846
  901MOL0     H24293   3.065  10.960  10.315  3.4155  2.1814 -0.1048
  901MOL0     H24294   3.082  11.190  10.235  0.6837 -0.5371 -0.3175
  901MOL0     H24295   2.992  11.256  10.363  0.7607  1.8929 -2.4582
  901MOL0     H24296   3.380  11.325  10.504 -1.3602  1.0905 -1.3493
  901MOL0     H24297   3.708  11.281  10.544  0.8745  1.8269  0.1291
  901MOL0     H24298   3.596  11.410  10.502 -0.6835 -1.2792  0.9846
  901MOL0     H24299   3.725  11.354  10.392  2.3779 -1.3367  2.0258
  901MOL0     H24300   3.961  11.190  10.141  0.4508  3.2654  1.1166
  901MOL0     H24301   4.210  11.121  10.099  1.2707  1.4880  0.8854
  901MOL0     H24302   4.415  11.150  10.404  2.1961 -1.3450  1.2413
  901MOL0     H24303   4.538  11.031  10.372  0.3486  1.7149  0.9501
  901MOL0     H24304   4.492  11.091  10.118  6.9317 -2.4939  0.5655
  901MOL0     H24305   4.437  11.242  10.174 -0.0302 -0.0000  0.7881
  901MOL0     H24306   4.686  11.208  10.125  2.1856  1.9394  1.4323
  901MOL0     H24307   4.688  11.093  10.260 -2.2230 -1.6609  0.5284
  901MOL0     H24308   4.647  11.270  10.433 -1.9983  2.1358  0.6863
  901MOL0     H24309   4.566  11.367  10.313  0.9746  1.4852 -0.4201
  901MOL0     H24310   4.786  11.431  10.209  0.7947  2.5977  1.2631
  901MOL0     H24311   4.755  11.485  10.374  0.4727  0.9739 -0.1557
  901MOL0     H24312   4.941  11.275  10.237  0.9475 -0.8775  1.8605
  901MOL0     H24313   4.899  11.241  10.400  1.8805  0.0530 -0.9818
  901MOL0     H24314   5.100  11.372  10.436 -1.2367  2.2948  2.8979
  901MOL0     H24315   4.967  11.456  10.492 -2.1061 -1.4772 -0.2633
  901MOL0     H24316   4.961  11.622  10.309  3.9523  5.2870  0.7838
  901MOL0     H24317   5.057  11.510  10.215  0.0955 -0.1253 -0.9261
  901MOL0     H24318   4.206  10.936  10.478  2.1839 -0.3934 -1.3889
  901MOL0     H24319   3.956  11.011  10.515  0.2920  0.2581  0.3522
  901MOL0     H24320   3.507  10.962  10.201  0.3725 -1.0051  1.3860
  901MOL0     H24321   3.271  11.008  10.261  0.7773 -1.5362  0.8603
  901MOL0     H24322   2.258   9.927  10.951 -1.6711  1.3742  0.5459
  901MOL0     H24323   2.201   9.672  11.012 -0.7541  3.1140 -1.9853
  901MOL0     H24324   2.197   9.418  11.424  1.6085  1.2554  1.6980
  901MOL0     H24325   2.144   9.227  11.542  0.3582 -1.8722 -0.3570
  901MOL0     H24326   2.338   8.851  11.497  0.8322  2.0552 -1.4365
  901MOL0     H24327   2.446   8.924  11.614  0.5279 -2.9119  1.7280
  901MOL0     H24328   2.309   8.845  11.797  1.8041  0.3042 -0.1759
  901MOL0     H24329   2.337   8.708  11.688  1.2298 -0.9286  2.4648
  901MOL0     H24330   2.104   8.709  11.768 -0.3869  0.6809  0.2910
  901MOL0     H24331   2.084   8.878  11.728 -4.7262 -1.3410 -0.8145
  901MOL0     H24332   2.081   8.854  11.489  0.0277 -1.2623 -2.6160
  901MOL0     H24333   1.955   8.745  11.565 -1.1894  1.2557  0.9064
  901MOL0     H24334   2.261   8.504  11.353 -0.1170 -4.1410  4.3181
  901MOL0     H24335   2.495   9.031  11.420 -1.3003 -0.8564  1.2961
  901MOL0     H24336   2.628   9.117  11.252 -0.7510  0.0918  2.0120
  901MOL0     H24337   2.614   9.280  11.177 -0.2355 -0.3270 -0.0602
  901MOL0     H24338   2.679   9.273  11.335 -1.3771  2.7531  0.2271
  902MOL0     O24339   2.941   5.268   2.504  0.0357 -0.2975 -0.8483
  902MOL0     C24340   2.856   5.217   2.438 -0.2847  0.2585  0.0863
  902MOL0     O24341   2.727   5.269   2.421  0.6304 -0.1480  0.3572
  902MOL0     C24342   2.675   5.362   2.507 -0.8646 -0.5961 -0.7875
  902MOL0     C24343   2.713   5.402   2.638 -0.5221 -0.5669  0.2003
  902MOL0     C24344   2.652   5.499   2.706  0.8227 -0.5554 -0.6995
  902MOL0     C24345   2.529   5.552   2.660  0.3740  0.0808  0.0279
  902MOL0     O24346   2.478   5.651   2.735  0.7989 -0.1095 -0.1696
  902MOL0     C24347   2.403   5.616   2.853 -0.6138  0.0019  0.3219
  902MOL0     C24348   2.305   5.725   2.871 -0.2214 -0.3778  0.0423
  902MOL0     C24349   2.206   5.687   2.985 -0.6362  0.8496  0.3145
  902MOL0     C24350   2.220   5.790   3.101  0.2814 -0.0089  0.6961
  902MOL0     C24351   2.131   5.739   3.211  0.2604 -0.3592  0.4210
  902MOL0     C24352   2.091   5.838   3.329  0.7727  0.1047 -0.4108
  902MOL0     C24353   2.020   5.770   3.441 -0.3942  0.2969  0.2123
  902MOL0     C24354   2.127   5.696   3.527 -0.1342  0.0694 -0.9534
  902MOL0     N24355   2.221   5.798   3.579  0.0194 -0.2754 -0.2190
  902MOL0     C24356   2.195   5.915   3.644  0.6502 -1.2912 -0.9082
  902MOL0     C24357   2.315   5.964   3.665 -0.8228 -0.3171 -0.1871
  902MOL0     C24358   2.336   6.094   3.729 -0.8673  0.4270  0.3951
  902MOL0     C24359   2.267   6.212   3.660  0.2982 -0.7387  0.1641
  902MOL0     C24360   2.330   6.350   3.691  0.6302  0.8969  0.2794
  902MOL0     C24361   2.203   6.433   3.658  0.2764  0.1785 -0.2495
  902MOL0     O24362   2.238   6.574   3.658 -0.4091  0.4645  0.3852
  902MOL0     C24363   2.236   6.647   3.775  0.5442 -0.0856 -1.8044
  902MOL0     C24364   2.168   6.610   3.902 -0.2163  0.1751  0.1275
  902MOL0     C24365   2.156   6.696   4.006 -0.8658 -1.0505  0.5240
  902MOL0     C24366   2.089   6.654   4.130  0.8587  0.3192 -0.5421
  902MOL0     C24367   2.237   6.810   4.003 -0.6807 -0.3622  0.0442
  902MOL0     C24368   2.235   6.914   4.115 -0.2989 -0.3408  0.5901
  902MOL0     O24369   2.360   6.968   4.148  0.0721 -0.2763  0.5833
  902MOL0     C24370   2.381   7.061   4.247  0.8297 -0.0722 -0.2868
  902MOL0     C24371   2.428   7.195   4.221  0.0750  1.6306  0.1298
  902MOL0     C24372   2.436   7.285   4.324  0.8738  0.4395 -0.3382
  902MOL0     C24373   2.385   7.252   4.449  0.7432  0.1346 -1.3679
  902MOL0     O24374   2.363   7.341   4.551 -0.9630  0.2696  0.8294
  902MOL0     C24375   2.304   7.462   4.508 -0.1073  0.3630  0.2920
  902MOL0     C24376   2.216   7.519   4.613 -0.3760  0.0106  1.3008
  902MOL0     C24377   2.089   7.429   4.625  0.4748 -0.6642 -0.6677
  902MOL0     C24378   2.000   7.462   4.737 -0.3716 -0.8416  1.2393
  902MOL0     C24379   1.884   7.375   4.752 -0.0816  0.0817 -0.0073
  902MOL0     C24380   1.905   7.221   4.760 -0.1900 -0.2131  0.3216
  902MOL0     C24381   1.993   7.156   4.871 -0.5903  0.3288  0.3155
  902MOL0     C24382   1.940   7.221   5.002 -0.8688 -0.5392 -0.1256
  902MOL0    Cl24383   2.052   7.157   5.139 -0.6610 -0.0084  0.0771
  902MOL0     C24384   2.372   7.118   4.480 -0.4282  0.0066  0.3032
  902MOL0     C24385   2.363   7.020   4.376  0.0487 -0.1715 -0.5924
  902MOL0     O24386   2.127   6.940   4.177  0.3847 -0.1069  0.4943
  902MOL0     C24387   2.316   6.836   3.891 -0.4750  0.3857 -0.4655
  902MOL0     C24388   2.308   6.759   3.771 -1.2127 -0.5640  0.1745
  902MOL0     N24389   2.411   5.893   3.610 -0.0663 -1.1110  0.1914
  902MOL0     N24390   2.359   5.787   3.561  0.6717 -1.5679  0.1693
  902MOL0     C24391   2.495   5.524   2.529 -0.3032 -0.9572  0.2336
  902MOL0     C24392   2.573   5.443   2.456 -0.0651 -0.4951 -0.1880
  902MOL0     C24393   2.876   5.075   2.389  0.6642  0.3819  0.1344
  902MOL0     C24394   2.769   4.990   2.367  0.9396 -0.0036  1.1439
  902MOL0     C24395   2.783   4.860   2.324  0.4601  0.7086  0.8197
  902MOL0     C24396   2.909   4.805   2.312  0.7776 -0.6619  0.2166
  902MOL0     O24397   2.933   4.686   2.245  1.0232 -0.6149 -0.3553
  902MOL0     C24398   2.831   4.581   2.229  0.0487  0.1482 -0.9887
  902MOL0     C24399   2.821   4.541   2.084 -0.1202  0.5992  0.3659
  902MOL0     C24400   2.759   4.655   1.999 -0.0786 -0.7944 -0.3247
  902MOL0     C24401   2.760   4.619   1.852  0.5267  0.1309 -0.3256
  902MOL0     C24402   2.723   4.753   1.791  0.7378  0.0092  0.5945
  902MOL0     C24403   2.670   4.859   1.750 -0.8101 -0.3117  0.2934
  902MOL0     C24404   3.011   4.881   2.347 -0.0915 -0.8775 -0.0339
  902MOL0     C24405   3.001   5.017   2.364 -0.3428  0.1179 -0.2883
  902MOL0     C24406   3.130   5.091   2.379 -0.4913 -0.4228 -0.6728
  902MOL0     H24407   2.798   5.369   2.697 -2.2226 -2.2781  1.8206
  902MOL0     H24408   2.695   5.536   2.798 -1.2347  1.2086 -0.3696
  902MOL0     H24409   2.454   5.630   2.948  0.8166  0.3987 -0.4763
  902MOL0     H24410   2.368   5.513   2.842 -0.4816  0.2227 -3.2846
  902MOL0     H24411   2.356   5.820   2.888 -3.7670  1.9859 -1.3942
  902MOL0     H24412   2.247   5.725   2.779  0.3611 -4.1268 -0.4692
  902MOL0     H24413   2.110   5.687   2.934  0.6660  1.0809 -2.3262
  902MOL0     H24414   2.199   5.582   3.013 -1.8680  0.8969  0.2286
  902MOL0     H24415   2.325   5.794   3.132  1.2879  0.0008 -2.4146
  902MOL0     H24416   2.183   5.892   3.082  0.6439  0.1161  0.6503
  902MOL0     H24417   2.171   5.645   3.249  0.8197  1.0257  3.6196
  902MOL0     H24418   2.032   5.712   3.173 -1.0807  2.9359  1.2123
  902MOL0     H24419   2.176   5.898   3.366  0.6233 -0.7786  1.5123
  902MOL0     H24420   2.023   5.913   3.288  0.6283 -0.0051 -0.3713
  902MOL0     H24421   1.957   5.698   3.389  2.5515 -0.4636 -2.6024
  902MOL0     H24422   1.963   5.852   3.488 -3.4385  0.0497 -2.6596
  902MOL0     H24423   2.084   5.655   3.618  1.7843 -0.3676 -0.1921
  902MOL0     H24424   2.170   5.609   3.476  1.7309  0.1753  0.3410
  902MOL0     H24425   2.100   5.964   3.664 -0.2207 -2.9930 -0.6814
  902MOL0     H24426   2.443   6.115   3.733 -0.8553  0.3993  0.2270
  902MOL0     H24427   2.306   6.086   3.834 -1.9259 -2.5474 -0.0348
  902MOL0     H24428   2.275   6.192   3.553  3.3844  0.1282  0.1396
  902MOL0     H24429   2.168   6.204   3.706  1.6086 -0.3466  3.3311
  902MOL0     H24430   2.364   6.350   3.795 -0.3692 -1.8275  0.6943
  902MOL0     H24431   2.417   6.378   3.631  0.3852  1.7668  0.3182
  902MOL0     H24432   2.172   6.406   3.557  1.7069 -0.2696 -0.6020
  902MOL0     H24433   2.126   6.412   3.733  2.0777 -3.8326  0.7386
  902MOL0     H24434   2.114   6.516   3.896  1.3709 -0.7035 -1.0212
  902MOL0     H24435   2.165   6.623   4.203  1.0409 -1.1710 -1.3109
  902MOL0     H24436   2.029   6.563   4.121  1.5979 -0.2548  0.1721
  902MOL0     H24437   2.014   6.719   4.175 -0.3133 -1.7988  0.7409
  902MOL0     H24438   2.438   7.226   4.117  0.5646 -1.5172 -0.8531
  902MOL0     H24439   2.454   7.388   4.296  0.0223  0.6631 -0.1200
  902MOL0     H24440   2.378   7.539   4.483 -2.6486  2.0080 -2.9315
  902MOL0     H24441   2.240   7.449   4.420 -0.4961 -0.1445  0.6435
  902MOL0     H24442   2.255   7.520   4.715 -2.0268 -1.4368  1.9955
  902MOL0     H24443   2.188   7.621   4.583 -0.8495  0.5820  3.4934
  902MOL0     H24444   2.110   7.322   4.633 -1.4663 -0.9576  1.5963
  902MOL0     H24445   2.042   7.435   4.527 -1.5679 -1.7273  0.1932
  902MOL0     H24446   1.959   7.562   4.720 -1.4015 -1.0603  2.3167
  902MOL0     H24447   2.053   7.475   4.831 -0.6245 -1.1563  1.4264
  902MOL0     H24448   1.836   7.415   4.842 -2.4877  0.2581 -1.2973
  902MOL0     H24449   1.824   7.402   4.665  1.4898  0.7650 -0.9397
  902MOL0     H24450   1.939   7.186   4.661 -1.5410  1.8384 -0.9412
  902MOL0     H24451   1.810   7.170   4.775  0.0630 -0.0589  2.8643
  902MOL0     H24452   2.100   7.179   4.865 -0.3865  0.6703  3.6239
  902MOL0     H24453   1.983   7.049   4.889 -0.2359  0.2999  0.3584
  902MOL0     H24454   1.834   7.195   5.011 -1.4966  1.1640 -1.8530
  902MOL0     H24455   1.947   7.330   4.992 -1.8359 -0.4529  0.0608
  902MOL0     H24456   2.335   7.090   4.578 -4.9193  1.9328 -0.5738
  902MOL0     H24457   2.306   6.935   4.410  0.1731 -0.0483 -0.0682
  902MOL0     H24458   2.380   6.922   3.910  0.8589 -0.6624 -0.0133
  902MOL0     H24459   2.349   6.789   3.676 -2.1674 -0.2612 -0.1506
  902MOL0     H24460   2.407   5.564   2.479 -0.2133  1.2688  1.7083
  902MOL0     H24461   2.537   5.437   2.353  0.0524  0.4750 -0.3023
  902MOL0     H24462   2.672   5.037   2.383 -2.3595 -4.6261 -2.6302
  902MOL0     H24463   2.700   4.792   2.306  1.8624 -2.5795  5.1336
  902MOL0     H24464   2.858   4.493   2.288 -3.1672 -1.9824 -2.3895
  902MOL0     H24465   2.734   4.602   2.274  0.0691 -1.8348  0.0666
  902MOL0     H24466   2.749   4.460   2.078 -1.6202  1.9192 -0.1423
  902MOL0     H24467   2.920   4.512   2.047 -0.2841  0.8377 -0.2849
  902MOL0     H24468   2.654   4.661   2.029 -0.3764 -1.1011 -1.2912
  902MOL0     H24469   2.810   4.750   2.018 -0.7883 -0.8497  2.2734
  902MOL0     H24470   2.691   4.535   1.836 -0.1499  1.1047 -3.0997
  902MOL0     H24471   2.856   4.575   1.823  0.1325  0.1356 -1.7068
  902MOL0     H24472   2.615   4.947   1.724 -0.1211  0.3138  0.9266
  902MOL0     H24473   3.108   4.842   2.318  0.7652  0.4806  0.8742
  902MOL0     H24474   3.166   5.086   2.482  1.6223  2.3086 -1.1723
  902MOL0     H24475   3.197   5.047   2.305 -0.9730 -0.9325 -0.8048
  902MOL0     H24476   3.122   5.197   2.354  3.0229  0.3631  0.8084
  903MOL0     O24477   5.541  11.400  10.575  0.4225 -0.1547 -0.6511
  903MOL0     C24478   5.536  11.428  10.451  0.5269 -0.5203 -0.4785
  903MOL0     O24479   5.548  11.554  10.393 -0.2166 -0.3402  0.5017
  903MOL0     C24480   5.597  11.657  10.471 -0.2857 -0.1975 -0.2557
  903MOL0     C24481   5.521  11.773  10.493  0.9381 -0.6227 -0.7878
  903MOL0     C24482   5.573  11.889  10.550 -0.7260 -0.3229 -0.6011
  903MOL0     C24483   5.711  11.896  10.571  0.2616  0.5241 -0.0746
  903MOL0     O24484   5.762  12.015  10.623 -0.5385 -0.3356 -0.4868
  903MOL0     C24485   5.894  12.022  10.671 -0.1563 -0.5419  0.1801
  903MOL0     C24486   5.936  11.944  10.789 -0.1984 -0.6425 -0.9509
  903MOL0     C24487   6.053  12.002  10.878  0.4346  0.4247  0.5069
  903MOL0     C24488   6.078  11.899  10.984 -0.4638  0.7464  0.0873
  903MOL0     C24489   6.188  11.941  11.077 -0.2358 -0.0399  0.2545
  903MOL0     C24490   6.321  11.997  11.034  0.4433  0.6318 -0.6181
  903MOL0     C24491   6.423  12.063  11.130 -0.0247  0.3953  0.1755
  903MOL0     C24492   6.519  12.157  11.054 -0.1831  0.6995  0.0618
  903MOL0     N24493   6.591  12.104  10.936  0.5737  0.2437  0.3757
  903MOL0     C24494   6.725  12.087  10.919  0.5124  0.1268 -0.0568
  903MOL0     C24495   6.742  12.058  10.794 -0.1594 -0.1661  1.3587
  903MOL0     C24496   6.883  12.016  10.760 -0.0193  0.2325  0.2017
  903MOL0     C24497   6.933  11.879  10.805 -0.4221  0.0581  0.9291
  903MOL0     C24498   6.857  11.757  10.761 -0.2243 -1.1845  0.6038
  903MOL0     C24499   6.826  11.760  10.610  0.0066 -0.6626  0.1016
  903MOL0     O24500   6.778  11.631  10.574  0.2542 -0.0691  0.3106
  903MOL0     C24501   6.644  11.602  10.581  0.3162 -0.5902 -0.1808
  903MOL0     C24502   6.545  11.682  10.638 -0.7062 -0.3539 -0.3471
  903MOL0     C24503   6.419  11.642  10.659  0.8628  0.4224 -0.6217
  903MOL0     C24504   6.314  11.750  10.707  0.0260 -0.5508 -0.1801
  903MOL0     C24505   6.379  11.505  10.640 -1.1906  0.4385  0.6231
  903MOL0     C24506   6.258  11.448  10.674  0.6771  0.5631 -0.3061
  903MOL0     O24507   6.164  11.527  10.736 -0.6348 -0.2063 -0.6879
  903MOL0     C24508   6.063  11.445  10.778 -0.3562 -0.4934  0.7029
  903MOL0     C24509   5.932  11.482  10.743 -0.2868 -0.7526 -0.3640
  903MOL0     C24510   5.829  11.420  10.800  0.2809  0.4986 -0.1333
  903MOL0     C24511   5.851  11.313  10.892  1.1200  0.7640  0.2756
  903MOL0     O24512   5.754  11.232  10.950  1.3317 -0.1923  0.3904
  903MOL0     C24513   5.626  11.232  10.891 -0.6444  0.2358 -0.3894
  903MOL0     C24514   5.529  11.138  10.967 -0.5358  0.5766 -0.5201
  903MOL0     C24515   5.574  11.000  10.966 -0.4635  0.5320 -0.3840
  903MOL0     C24516   5.484  10.907  11.055  0.6941 -0.0127  0.8296
  903MOL0     C24517   5.503  10.763  11.008 -0.3774 -0.9499  0.0168
  903MOL0     C24518   5.393  10.689  10.929  0.5219  0.0539 -0.0252
  903MOL0     C24519   5.258  10.719  10.988 -1.2176  0.3135 -0.3600
  903MOL0     C24520   5.149  10.612  10.949 -1.2626 -0.2166 -0.6455
  903MOL0    Cl24521   5.191  10.450  11.023 -0.6819  0.8276 -0.1637
  903MOL0     C24522   5.987  11.285  10.931  0.1109  0.4203  0.6371
  903MOL0     C24523   6.089  11.344  10.869 -0.3006 -0.9822 -0.2686
  903MOL0     O24524   6.237  11.337  10.624 -0.7534 -0.1101 -0.7353
  903MOL0     C24525   6.486  11.423  10.605 -0.3971  0.4682  0.2926
  903MOL0     C24526   6.615  11.469  10.577 -0.4747 -0.5208 -0.2496
  903MOL0     N24527   6.618  12.050  10.728 -0.1395 -0.1454  0.5969
  903MOL0     N24528   6.530  12.083  10.809  0.0614 -0.8008 -1.2476
  903MOL0     C24529   5.796  11.786  10.527 -0.3409 -0.7561 -0.7244
  903MOL0     C24530   5.739  11.675  10.477  1.1059 -0.0540 -0.6737
  903MOL0     C24531   5.504  11.309  10.363 -0.0008 -0.7695  0.0441
  903MOL0     C24532   5.535  11.314  10.225  0.2051  0.3696 -0.3264
  903MOL0     C24533   5.500  11.220  10.131  0.3837 -0.3841 -0.0832
  903MOL0     C24534   5.444  11.099  10.173 -0.9122 -0.4778 -0.5636
  903MOL0     O24535   5.408  10.994  10.097 -0.9504  0.0522 -0.0779
  903MOL0     C24536   5.394  11.008   9.955 -1.1139 -0.3010 -0.0989
  903MOL0     C24537   5.287  10.922   9.908  0.3421 -0.2931  0.7694
  903MOL0     C24538   5.333  10.786   9.842 -0.1474 -0.2831 -0.2608
  903MOL0     C24539   5.412  10.808   9.707 -0.7546  1.2001  0.3425
  903MOL0     C24540   5.434  10.673   9.636  0.5287  0.3347  1.0535
  903MOL0     C24541   5.445  10.558   9.612 -1.1060 -1.0867  0.4507
  903MOL0     C24542   5.424  11.081  10.307  0.5706 -0.8965 -1.1055
  903MOL0     C24543   5.445  11.182  10.406 -0.2344  0.8172  0.5105
  903MOL0     C24544   5.406  11.158  10.546  0.5294  0.7045  0.2441
  903MOL0     H24545   5.415  11.774  10.467  0.3503 -2.6085  1.2502
  903MOL0     H24546   5.504  11.968  10.578  0.2208 -0.2906  1.8396
  903MOL0     H24547   5.915  12.126  10.698  2.7082 -1.4356  1.9042
  903MOL0     H24548   5.961  11.995  10.589 -0.8114  0.7402 -0.8170
  903MOL0     H24549   5.843  11.948  10.848  1.6812  0.2970  2.1883
  903MOL0     H24550   5.957  11.841  10.761  0.3231 -1.0311  0.7872
  903MOL0     H24551   6.135  12.023  10.808  0.4925 -1.0970  0.0862
  903MOL0     H24552   6.018  12.092  10.929 -1.7761 -0.2254  0.2304
  903MOL0     H24553   5.987  11.883  11.043 -0.0485  0.1182  0.5690
  903MOL0     H24554   6.093  11.802  10.934 -2.3704  0.8022 -0.6787
  903MOL0     H24555   6.220  11.865  11.148  3.4757 -1.3323 -2.4742
  903MOL0     H24556   6.148  12.026  11.134  1.4911  2.8642 -2.5263
  903MOL0     H24557   6.374  11.917  10.981  1.6494  0.6846  0.4683
  903MOL0     H24558   6.297  12.072  10.957  0.2042  0.1984 -0.9733
  903MOL0     H24559   6.474  11.980  11.181  1.2814  1.5536  0.8344
  903MOL0     H24560   6.388  12.130  11.209  3.1295  0.6350  1.5230
  903MOL0     H24561   6.465  12.248  11.027  4.7787  3.8912 -0.4499
  903MOL0     H24562   6.592  12.193  11.128  0.7351  1.1451 -1.0241
  903MOL0     H24563   6.794  12.088  11.004  0.1508 -3.4565  0.4340
  903MOL0     H24564   6.947  12.079  10.822 -0.2517  0.7433 -0.0697
  903MOL0     H24565   6.894  12.033  10.652 -1.6896 -2.2720 -0.4596
  903MOL0     H24566   7.031  11.868  10.758  0.0097  0.1393  1.7949
  903MOL0     H24567   6.943  11.869  10.913 -1.3624 -0.6545  0.9644
  903MOL0     H24568   6.917  11.672  10.796 -0.1886 -1.0029  0.9916
  903MOL0     H24569   6.769  11.750  10.826 -1.9027  1.7621 -1.1227
  903MOL0     H24570   6.753  11.838  10.588  0.6394  0.1818  0.9457
  903MOL0     H24571   6.919  11.770  10.553  0.2531 -2.1907  0.1787
  903MOL0     H24572   6.565  11.784  10.670 -1.5165 -0.9887  2.3931
  903MOL0     H24573   6.222  11.751  10.648 -0.4766  1.2002  0.5549
  903MOL0     H24574   6.363  11.846  10.686 -2.4558  0.9685  0.5210
  903MOL0     H24575   6.280  11.744  10.811  1.5311  0.7678  0.4365
  903MOL0     H24576   5.906  11.563  10.676  2.1213  0.9510  0.6202
  903MOL0     H24577   5.728  11.454  10.780  0.1187  1.3321  1.8159
  903MOL0     H24578   5.580  11.331  10.900  0.5663  0.9069 -1.2441
  903MOL0     H24579   5.627  11.209  10.784  2.0867 -2.5230  0.0929
  903MOL0     H24580   5.510  11.175  11.068 -2.0193  0.2594 -0.6545
  903MOL0     H24581   5.430  11.131  10.920 -0.4936  0.0905 -0.5343
  903MOL0     H24582   5.676  10.984  11.003 -0.6902 -3.5727 -1.0047
  903MOL0     H24583   5.572  10.959  10.864  0.5606 -3.3909  0.9950
  903MOL0     H24584   5.378  10.933  11.044  0.1545 -0.1569  4.5353
  903MOL0     H24585   5.514  10.924  11.158  1.1307  1.8916  0.4209
  903MOL0     H24586   5.600  10.756  10.957  1.0883 -1.7898  2.7171
  903MOL0     H24587   5.531  10.702  11.094  0.9555 -2.1856 -1.2215
  903MOL0     H24588   5.413  10.582  10.925 -2.9202 -0.7094  0.2919
  903MOL0     H24589   5.386  10.722  10.825 -5.4849  2.9478  0.8648
  903MOL0     H24590   5.223  10.817  10.954 -1.9247 -0.4661 -2.0039
  903MOL0     H24591   5.261  10.724  11.097 -1.2335 -0.3426 -0.3304
  903MOL0     H24592   5.120  10.605  10.843 -3.7778 -0.4540 -0.0236
  903MOL0     H24593   5.056  10.639  11.000 -1.0205 -1.5038  0.5270
  903MOL0     H24594   6.005  11.213  11.010 -2.2014 -3.0157 -1.6888
  903MOL0     H24595   6.192  11.335  10.901  0.1642  3.6190  0.3019
  903MOL0     H24596   6.461  11.318  10.595 -0.5868  0.4427  1.0170
  903MOL0     H24597   6.689  11.390  10.577 -0.7353 -0.9452  3.4982
  903MOL0     H24598   5.903  11.782  10.540 -0.6339 -3.0335  2.4040
  903MOL0     H24599   5.803  11.589  10.460 -1.0719 -1.4538 -2.3411
  903MOL0     H24600   5.589  11.400  10.186 -0.1731  1.5336  1.6143
  903MOL0     H24601   5.518  11.231  10.024 -0.7717  1.2962 -0.1474
  903MOL0     H24602   5.366  11.114   9.952  0.8605  0.2375 -1.3403
  903MOL0     H24603   5.495  10.996   9.915  0.2526 -2.2534  3.3907
  903MOL0     H24604   5.242  10.978   9.825  1.3874  2.1830  1.7672
  903MOL0     H24605   5.210  10.903   9.982  0.4677 -0.0440  0.9669
  903MOL0     H24606   5.392  10.729   9.914  0.8959  2.1406  0.9424
  903MOL0     H24607   5.235  10.740   9.822 -1.2984  1.3061  1.3652
  903MOL0     H24608   5.509  10.856   9.721  0.6739 -1.9180  1.9452
  903MOL0     H24609   5.351  10.875   9.646  1.6935  1.9611 -1.4472
  903MOL0     H24610   5.441  10.451   9.613  0.4395 -1.1813  1.3440
  903MOL0     H24611   5.378  10.989  10.342 -0.0596 -0.3091 -0.3116
  903MOL0     H24612   5.497  11.163  10.606  0.1827 -3.3369  1.3650
  903MOL0     H24613   5.336  11.232  10.587  2.2611  1.9934  0.9626
  903MOL0     H24614   5.359  11.059  10.547 -0.4830  1.0594 -2.3804
  904MOL0     O24615   2.123   1.515   0.491 -0.2174  0.1471 -0.0726
  904MOL0     C24616   2.018   1.470   0.439 -0.4331  0.6851 -1.3387
  904MOL0     O24617   1.955   1.518   0.332  0.7346  0.3334 -0.7686
  904MOL0     C24618   1.962   1.650   0.310  1.4625  0.6363 -1.4973
  904MOL0     C24619   1.958   1.745   0.411 -0.7128 -0.2608  0.8411
  904MOL0     C24620   1.963   1.878   0.389 -0.2325  0.1124 -0.3229
  904MOL0     C24621   1.971   1.929   0.262  0.3932  0.3882  0.6155
  904MOL0     O24622   1.963   2.063   0.240  0.5025 -0.1150  0.6831
  904MOL0     C24623   2.027   2.151   0.336 -0.1733 -0.3126 -0.8354
  904MOL0     C24624   1.997   2.294   0.309 -1.4169 -0.3402  0.5021
  904MOL0     C24625   2.138   2.372   0.320  0.9774  0.2095  0.1624
  904MOL0     C24626   2.132   2.496   0.235  0.4478 -0.0971  0.9270
  904MOL0     C24627   2.273   2.551   0.227  0.6446  0.1358 -0.0392
  904MOL0     C24628   2.286   2.661   0.118  0.7583  0.6415  0.1717
  904MOL0     C24629   2.199   2.783   0.140 -0.3535  0.5300  0.3124
  904MOL0     C24630   2.197   2.876   0.017 -0.7509  0.5260  0.0790
  904MOL0     N24631   2.102   2.991   0.029 -0.0046  0.3445  0.4569
  904MOL0     C24632   1.967   2.982   0.023 -0.5163  0.3911 -0.1612
  904MOL0     C24633   1.924   3.106   0.022 -0.3991  0.2546 -0.5186
  904MOL0     C24634   1.785   3.166   0.025  0.5352 -0.5541 -0.7025
  904MOL0     C24635   1.726   3.185  -0.119  0.0240 -0.5503 -0.1273
  904MOL0     C24636   1.583   3.227  -0.121  0.0875 -0.4900 -0.1356
  904MOL0     C24637   1.569   3.375  -0.071 -1.0752 -0.0977 -0.4104
  904MOL0     O24638   1.437   3.402  -0.042 -0.2551  0.3230 -1.1308
  904MOL0     C24639   1.398   3.356   0.081  0.6060 -0.3977 -0.1194
  904MOL0     C24640   1.306   3.249   0.088 -0.7921 -0.2324  0.1784
  904MOL0     C24641   1.258   3.203   0.211 -0.1030  0.7758  0.1483
  904MOL0     C24642   1.149   3.099   0.215 -0.1168 -0.7328 -0.7244
  904MOL0     C24643   1.319   3.258   0.330  0.0422 -0.0114 -0.6637
  904MOL0     C24644   1.270   3.226   0.463 -0.8281  0.9473  0.3350
  904MOL0     O24645   1.356   3.256   0.562 -0.4231  0.0728  0.1256
  904MOL0     C24646   1.339   3.232   0.692  0.3744  0.1513  0.4975
  904MOL0     C24647   1.434   3.162   0.762 -0.4997  0.7607 -0.3588
  904MOL0     C24648   1.413   3.116   0.899 -0.4955  0.1954 -0.2510
  904MOL0     C24649   1.297   3.152   0.970  0.7992 -0.6441  0.5785
  904MOL0     O24650   1.278   3.128   1.098 -0.2282 -0.3672  0.2872
  904MOL0     C24651   1.296   3.238   1.184 -0.1737 -0.1740  0.1471
  904MOL0     C24652   1.254   3.218   1.332 -0.5678  0.0152  0.4044
  904MOL0     C24653   1.132   3.140   1.381 -0.3528  1.2111  0.8897
  904MOL0     C24654   1.006   3.233   1.374  0.4093  0.0122 -0.5028
  904MOL0     C24655   0.879   3.145   1.386  0.7071  0.3342  0.0096
  904MOL0     C24656   0.829   3.069   1.249  0.0517 -0.7132 -0.7688
  904MOL0     C24657   0.810   3.163   1.127 -0.4188  0.7639 -1.1790
  904MOL0     C24658   0.688   3.248   1.155  0.2933  0.0822  1.1268
  904MOL0    Cl24659   0.522   3.189   1.124  0.1368  0.0616  0.2216
  904MOL0     C24660   1.209   3.240   0.898  0.3842 -0.2445 -0.6303
  904MOL0     C24661   1.228   3.264   0.757  0.3233 -0.7049 -0.4643
  904MOL0     O24662   1.168   3.155   0.480 -0.6432 -0.6025 -0.2107
  904MOL0     C24663   1.409   3.370   0.319 -0.8919 -0.4276 -0.9690
  904MOL0     C24664   1.458   3.414   0.199  0.1851  0.2430 -0.0026
  904MOL0     N24665   2.037   3.192   0.027  0.0022 -0.4552  0.0946
  904MOL0     N24666   2.145   3.123   0.035 -0.0106  0.4878  1.1316
  904MOL0     C24667   1.971   1.835   0.154  0.7336  0.2856  0.2753
  904MOL0     C24668   1.972   1.702   0.180  0.2284  0.2717 -0.6896
  904MOL0     C24669   1.948   1.354   0.505 -0.5069  0.4972  0.4968
  904MOL0     C24670   1.805   1.338   0.481  0.2030  0.1052  0.2845
  904MOL0     C24671   1.728   1.230   0.528  0.5742 -0.4436  0.8009
  904MOL0     C24672   1.793   1.147   0.621  0.4375  1.8018  0.3365
  904MOL0     O24673   1.721   1.065   0.705  0.0337  0.3590  0.1984
  904MOL0     C24674   1.623   0.988   0.643  0.1855  0.3795  0.0909
  904MOL0     C24675   1.580   0.862   0.724 -0.8147  0.0262 -0.3048
  904MOL0     C24676   1.704   0.781   0.768 -0.2756  0.1694  0.2446
  904MOL0     C24677   1.773   0.726   0.644  1.1458 -0.6418 -0.0580
  904MOL0     C24678   1.869   0.636   0.687 -0.2511 -0.0860 -0.2578
  904MOL0     C24679   1.967   0.575   0.729  0.0028 -0.2489  0.4940
  904MOL0     C24680   1.926   1.165   0.647  0.1909  0.4028  0.3181
  904MOL0     C24681   2.014   1.263   0.590 -0.0793  0.2314 -0.0636
  904MOL0     C24682   2.163   1.266   0.591  0.0737  0.0358 -0.1669
  904MOL0     H24683   1.926   1.705   0.506 -3.7658 -0.5975 -0.2078
  904MOL0     H24684   1.934   1.944   0.470  0.8171  0.0154  0.1352
  904MOL0     H24685   2.134   2.125   0.330  0.0523 -0.0312  1.2261
  904MOL0     H24686   1.995   2.130   0.439  0.2592 -0.5084 -0.7359
  904MOL0     H24687   1.953   2.309   0.210 -0.4547 -0.1576  0.0919
  904MOL0     H24688   1.917   2.324   0.378  0.3571 -0.4965  2.7614
  904MOL0     H24689   2.165   2.387   0.425  3.8073 -1.5454 -0.1871
  904MOL0     H24690   2.217   2.314   0.271  1.0775  1.6347 -1.4433
  904MOL0     H24691   2.092   2.491   0.133 -1.2096  4.2819  1.1264
  904MOL0     H24692   2.074   2.567   0.295  2.1952  0.1885  2.3560
  904MOL0     H24693   2.351   2.476   0.210  1.9195  1.2617  0.6155
  904MOL0     H24694   2.293   2.599   0.323 -1.7891  0.4998  0.3412
  904MOL0     H24695   2.391   2.692   0.113  0.7714  0.4557 -0.6727
  904MOL0     H24696   2.262   2.610   0.025  2.9884 -1.2199  0.5165
  904MOL0     H24697   2.225   2.839   0.230 -0.1538  2.5022 -0.9133
  904MOL0     H24698   2.096   2.749   0.154  0.9919 -2.9042  3.3566
  904MOL0     H24699   2.298   2.917   0.017 -0.9357  0.9937  0.5533
  904MOL0     H24700   2.194   2.820  -0.077 -0.8969  1.1431 -0.2915
  904MOL0     H24701   1.910   2.890   0.008  0.9245 -0.4136 -0.9075
  904MOL0     H24702   1.779   3.259   0.082  0.1401 -1.1364  0.2362
  904MOL0     H24703   1.721   3.103   0.087 -0.8360  1.3214 -0.1349
  904MOL0     H24704   1.775   3.265  -0.176 -2.0283 -0.1868 -1.4533
  904MOL0     H24705   1.737   3.091  -0.174 -0.6791  0.9183 -2.9570
  904MOL0     H24706   1.546   3.239  -0.224  0.0290  2.8144  0.1780
  904MOL0     H24707   1.514   3.165  -0.062 -0.6776 -0.4378 -0.9411
  904MOL0     H24708   1.627   3.378   0.022  0.2801 -0.7444 -1.1988
  904MOL0     H24709   1.615   3.455  -0.131 -0.6141 -0.4556 -0.5422
  904MOL0     H24710   1.273   3.205  -0.005  1.9199 -1.7473 -0.1894
  904MOL0     H24711   1.158   3.052   0.117 -0.7138 -0.3486 -0.9683
  904MOL0     H24712   1.046   3.135   0.219 -0.7959 -2.5189 -1.1371
  904MOL0     H24713   1.167   3.020   0.288 -0.4862  0.4721  0.7336
  904MOL0     H24714   1.512   3.126   0.696 -1.9590 -0.5811 -1.4331
  904MOL0     H24715   1.488   3.053   0.945  1.5384  2.0622 -0.8352
  904MOL0     H24716   1.400   3.271   1.193 -0.5470  1.0859  0.0296
  904MOL0     H24717   1.232   3.317   1.143  0.2672  0.6741  1.0551
  904MOL0     H24718   1.335   3.159   1.375  0.4009  0.8267 -0.2521
  904MOL0     H24719   1.269   3.321   1.367  2.5431 -0.6357  1.2470
  904MOL0     H24720   1.167   3.103   1.478  1.5657 -1.0456 -0.5693
  904MOL0     H24721   1.121   3.053   1.316  1.2893 -2.5418  5.0567
  904MOL0     H24722   1.012   3.299   1.287 -1.2855  2.7959  1.3268
  904MOL0     H24723   1.010   3.297   1.462  2.4595  0.2571 -0.7275
  904MOL0     H24724   0.887   3.071   1.466 -0.9190  0.5403  0.4021
  904MOL0     H24725   0.801   3.213   1.423  1.2561  0.2809  1.3300
  904MOL0     H24726   0.737   3.012   1.268  1.1394 -2.1058  0.6468
  904MOL0     H24727   0.907   3.000   1.214 -1.3375 -1.9062 -1.6812
  904MOL0     H24728   0.794   3.098   1.040  4.5745  1.9874 -3.3248
  904MOL0     H24729   0.899   3.220   1.101  0.4106 -1.1372 -2.7172
  904MOL0     H24730   0.695   3.340   1.095 -4.8128  0.2942  0.4100
  904MOL0     H24731   0.698   3.277   1.260  0.3922 -1.2267  1.4946
  904MOL0     H24732   1.116   3.273   0.944  0.7658  1.9125 -1.2802
  904MOL0     H24733   1.155   3.327   0.707 -0.8304 -0.1572  1.7549
  904MOL0     H24734   1.453   3.420   0.404 -0.6650 -1.6563 -0.3470
  904MOL0     H24735   1.527   3.498   0.192 -1.0515  1.1581 -2.6945
  904MOL0     H24736   1.975   1.864   0.049  2.9499 -2.2245 -0.4404
  904MOL0     H24737   1.968   1.634   0.095 -1.8719  1.4911 -1.6260
  904MOL0     H24738   1.755   1.403   0.410  1.4686  2.5296  1.4677
  904MOL0     H24739   1.621   1.223   0.509  1.2104 -0.3425 -4.3179
  904MOL0     H24740   1.540   1.057   0.629  1.5697  2.0708 -0.1759
  904MOL0     H24741   1.646   0.947   0.544 -2.5140 -1.7826  0.2296
  904MOL0     H24742   1.506   0.802   0.671 -1.1445  0.0328  0.1404
  904MOL0     H24743   1.541   0.897   0.820 -0.7900 -0.4151 -0.1293
  904MOL0     H24744   1.773   0.835   0.833  0.4887  1.3166 -1.4278
  904MOL0     H24745   1.669   0.703   0.835  1.1946 -1.1289 -0.4301
  904MOL0     H24746   1.819   0.815   0.599  0.4311  1.8517  3.6695
  904MOL0     H24747   1.703   0.681   0.573 -0.2827 -3.4552  2.8966
  904MOL0     H24748   2.052   0.512   0.746  1.0161  0.4708 -1.5083
  904MOL0     H24749   1.976   1.090   0.708 -0.4827  1.6056  2.4270
  904MOL0     H24750   2.205   1.307   0.498 -1.8434  3.9198  0.4874
  904MOL0     H24751   2.201   1.333   0.668 -1.4072 -0.3111  0.8916
  904MOL0     H24752   2.193   1.161   0.595  0.3731  0.0401 -1.5129
  905MOL0     O24753   5.417   5.928   3.218 -0.7100 -0.1367 -0.1282
  905MOL0     C24754   5.492   6.024   3.217  0.7011  0.5117  0.0438
  905MOL0     O24755   5.476   6.137   3.285  0.0920 -0.7831  0.0185
  905MOL0     C24756   5.359   6.166   3.351  0.4250 -0.6204  0.1944
  905MOL0     C24757   5.235   6.138   3.294 -0.4486 -0.1012 -0.2649
  905MOL0     C24758   5.125   6.190   3.350  0.3387 -0.7096  0.1885
  905MOL0     C24759   5.126   6.279   3.458 -0.1351 -0.7244 -0.1399
  905MOL0     O24760   5.008   6.327   3.517 -0.1093  0.0575  0.5041
  905MOL0     C24761   4.878   6.257   3.492 -0.7489  0.5328  0.4767
  905MOL0     C24762   4.766   6.335   3.562 -0.1686  0.9154  0.5580
  905MOL0     C24763   4.635   6.263   3.593  0.3085  0.2610  0.0892
  905MOL0     C24764   4.591   6.172   3.476 -0.2032  0.4475  0.2739
  905MOL0     C24765   4.445   6.146   3.491  0.2424 -0.2055  0.0386
  905MOL0     C24766   4.382   6.052   3.384 -0.1780  0.7889 -0.1534
  905MOL0     C24767   4.238   6.020   3.430 -0.6911  0.2059  0.1558
  905MOL0     C24768   4.229   5.890   3.512 -0.7287  0.2173  0.8222
  905MOL0     N24769   4.099   5.824   3.510 -0.7878 -0.5721  0.4400
  905MOL0     C24770   3.982   5.877   3.558 -0.2852 -0.5744 -0.5156
  905MOL0     C24771   3.911   5.766   3.564 -0.2110 -0.6694  0.7882
  905MOL0     C24772   3.766   5.759   3.599  0.2851  0.9486  0.4320
  905MOL0     C24773   3.688   5.887   3.595 -0.1606  0.1843  0.1789
  905MOL0     C24774   3.676   5.937   3.453  0.3389 -0.5592 -0.3353
  905MOL0     C24775   3.649   6.086   3.445  1.0388 -0.1684  0.2529
  905MOL0     O24776   3.752   6.157   3.507  0.3719 -0.5942  0.6884
  905MOL0     C24777   3.815   6.262   3.430 -0.5292  1.5329 -0.4753
  905MOL0     C24778   3.838   6.380   3.478  0.1525 -0.8435  0.7876
  905MOL0     C24779   3.910   6.482   3.413  0.6191 -0.1830 -0.2625
  905MOL0     C24780   3.926   6.607   3.493 -0.4439  0.2175 -0.7006
  905MOL0     C24781   3.966   6.455   3.281  0.9431  0.1317 -0.9847
  905MOL0     C24782   4.045   6.539   3.196  0.6630  0.9296 -0.0120
  905MOL0     O24783   4.077   6.504   3.068 -1.1826  0.0060 -0.0653
  905MOL0     C24784   4.146   6.600   2.991 -0.0688  0.2206 -0.5982
  905MOL0     C24785   4.099   6.732   2.963  0.9221 -0.1468 -0.0065
  905MOL0     C24786   4.178   6.826   2.889  0.6854 -0.7794  0.5282
  905MOL0     C24787   4.286   6.772   2.824 -0.4534  0.1213  0.2679
  905MOL0     O24788   4.374   6.844   2.738  0.0184  0.0717  0.6643
  905MOL0     C24789   4.373   6.991   2.740  0.4682  0.3873 -0.2131
  905MOL0     C24790   4.465   7.052   2.642  0.3737 -0.3948 -0.5715
  905MOL0     C24791   4.596   6.979   2.638 -0.2362  0.3176 -0.2149
  905MOL0     C24792   4.694   7.011   2.529 -0.4571  0.6672 -0.3257
  905MOL0     C24793   4.711   6.905   2.411 -1.1491  0.0698 -0.2287
  905MOL0     C24794   4.839   6.937   2.337 -0.1066  0.6852 -0.1117
  905MOL0     C24795   4.833   7.061   2.251 -0.1722 -0.9306 -0.1065
  905MOL0     C24796   4.960   7.139   2.267  1.0564 -0.1454  0.4425
  905MOL0    Cl24797   4.971   7.298   2.183 -0.5689  0.2201  0.0110
  905MOL0     C24798   4.332   6.638   2.845 -0.3874  0.3282 -0.1588
  905MOL0     C24799   4.262   6.551   2.928 -0.4607 -0.9035  0.2429
  905MOL0     O24800   4.075   6.640   3.255 -0.9244 -0.0486  0.4256
  905MOL0     C24801   3.938   6.325   3.228  0.2794 -0.0965  0.8268
  905MOL0     C24802   3.877   6.228   3.312 -0.5812 -0.1439  0.5590
  905MOL0     N24803   3.981   5.655   3.523  0.3189 -0.2460  0.5185
  905MOL0     N24804   4.098   5.690   3.494  0.4927  0.0517  0.2055
  905MOL0     C24805   5.250   6.323   3.505 -0.7374 -0.9417 -0.0409
  905MOL0     C24806   5.368   6.268   3.449  0.7054 -0.5715  1.4799
  905MOL0     C24807   5.610   6.028   3.126 -0.1376  0.0005  0.5589
  905MOL0     C24808   5.592   5.949   3.006 -0.6076 -0.9400 -0.3916
  905MOL0     C24809   5.689   5.955   2.903  0.6416 -0.9660  0.8071
  905MOL0     C24810   5.791   6.043   2.912 -0.2916 -0.5766 -0.7981
  905MOL0     O24811   5.875   6.061   2.804  0.3899  0.2171  0.1012
  905MOL0     C24812   6.000   5.999   2.816  0.3177 -0.0208 -0.2418
  905MOL0     C24813   6.110   6.055   2.716  0.0299  0.4333 -0.1330
  905MOL0     C24814   6.126   6.205   2.724 -0.2902 -0.1921  0.1165
  905MOL0     C24815   6.248   6.245   2.634 -0.5372 -0.4145 -0.1346
  905MOL0     C24816   6.371   6.209   2.698  0.1591 -0.8153  0.1636
  905MOL0     C24817   6.472   6.152   2.726 -0.3699  0.3410 -0.8435
  905MOL0     C24818   5.820   6.108   3.035  0.5544  0.0835 -0.4978
  905MOL0     C24819   5.728   6.102   3.144  0.6301  0.2139  0.3961
  905MOL0     C24820   5.751   6.182   3.269  0.0908  0.6265 -0.4045
  905MOL0     H24821   5.203   6.058   3.228 -2.6406  0.0078  0.5702
  905MOL0     H24822   5.040   6.167   3.287  0.6347  1.4466 -1.1019
  905MOL0     H24823   4.874   6.151   3.517 -1.4689  0.0122 -1.6349
  905MOL0     H24824   4.852   6.263   3.386  2.1128  0.3327 -0.3104
  905MOL0     H24825   4.797   6.366   3.663 -0.6055 -0.6363  1.1986
  905MOL0     H24826   4.743   6.429   3.512  0.1998  0.3476 -0.7125
  905MOL0     H24827   4.637   6.201   3.683 -0.7452  2.4551  1.7059
  905MOL0     H24828   4.566   6.348   3.600 -0.4483 -0.3917  0.8031
  905MOL0     H24829   4.602   6.225   3.381 -0.0073  0.0196  0.0560
  905MOL0     H24830   4.660   6.088   3.478 -0.9405 -0.1918 -0.5785
  905MOL0     H24831   4.384   6.236   3.501 -1.2170 -1.2007  0.4252
  905MOL0     H24832   4.435   6.106   3.592 -1.8274  0.3526  0.1051
  905MOL0     H24833   4.385   6.106   3.290  0.1107 -1.8201 -1.7541
  905MOL0     H24834   4.444   5.962   3.376  0.4595  1.1969  0.1915
  905MOL0     H24835   4.182   6.002   3.338  1.0350 -0.8865 -0.7499
  905MOL0     H24836   4.201   6.103   3.490  1.6374 -0.4537  2.7270
  905MOL0     H24837   4.308   5.829   3.467 -1.2114 -0.3424  0.7282
  905MOL0     H24838   4.252   5.919   3.615  1.7295  2.6296 -0.2746
  905MOL0     H24839   3.960   5.981   3.580 -0.6603 -0.8069  0.2482
  905MOL0     H24840   3.752   5.711   3.696  0.3070  0.0916  0.0211
  905MOL0     H24841   3.732   5.688   3.522 -1.3561  1.5249  0.5810
  905MOL0     H24842   3.591   5.864   3.638  0.5477 -1.0251  1.2021
  905MOL0     H24843   3.746   5.966   3.645  0.9089  0.2653 -1.1397
  905MOL0     H24844   3.765   5.938   3.389  0.3960  2.0371 -0.2987
  905MOL0     H24845   3.595   5.878   3.408  1.4982 -2.8183  0.3545
  905MOL0     H24846   3.639   6.105   3.338 -1.6569  1.9015  0.7416
  905MOL0     H24847   3.567   6.130   3.503  1.6594 -0.6237  1.5155
  905MOL0     H24848   3.787   6.405   3.571 -1.1200  0.1865 -0.1504
  905MOL0     H24849   3.867   6.603   3.585  1.2955  0.1884  0.4536
  905MOL0     H24850   3.880   6.689   3.437  0.7226  0.6863 -1.0072
  905MOL0     H24851   4.032   6.631   3.505 -0.7892  2.0747 -1.0204
  905MOL0     H24852   4.001   6.765   2.995  1.5253 -0.3352  2.1811
  905MOL0     H24853   4.133   6.924   2.877 -0.2944 -1.3133 -0.3048
  905MOL0     H24854   4.272   7.032   2.735  0.1196 -0.2930  0.8043
  905MOL0     H24855   4.410   7.034   2.834 -0.8713  0.7584  0.1591
  905MOL0     H24856   4.423   7.050   2.541 -1.4538 -2.9267  0.1188
  905MOL0     H24857   4.492   7.155   2.666  0.6953  0.4216 -3.9250
  905MOL0     H24858   4.583   6.871   2.635  1.6844  0.0168  0.6116
  905MOL0     H24859   4.638   7.003   2.736 -2.4936 -0.1850  0.9367
  905MOL0     H24860   4.791   7.035   2.575 -0.2946 -0.7726  0.1526
  905MOL0     H24861   4.656   7.104   2.487 -1.8708 -1.1881 -3.5393
  905MOL0     H24862   4.732   6.810   2.462 -0.1320 -0.7711 -2.1217
  905MOL0     H24863   4.626   6.902   2.341  0.3122  1.2340 -2.1386
  905MOL0     H24864   4.850   6.853   2.268 -0.5709 -2.4532  3.3462
  905MOL0     H24865   4.929   6.945   2.398 -0.0293  3.1771 -0.4548
  905MOL0     H24866   4.745   7.112   2.291  1.1517  0.4333  1.1778
  905MOL0     H24867   4.823   7.048   2.142  1.5068 -1.5241 -0.2307
  905MOL0     H24868   5.039   7.070   2.236  0.6691  0.5402 -2.2792
  905MOL0     H24869   4.969   7.155   2.375 -1.0158  0.0439  0.6361
  905MOL0     H24870   4.411   6.600   2.781 -0.0442 -1.2463  1.1497
  905MOL0     H24871   4.294   6.448   2.937  0.2184 -0.8402 -1.1587
  905MOL0     H24872   3.985   6.288   3.137  1.3447 -3.1136  2.4554
  905MOL0     H24873   3.885   6.125   3.279 -1.3089  0.6112 -2.1851
  905MOL0     H24874   5.257   6.393   3.587 -2.5309 -1.7355  0.8657
  905MOL0     H24875   5.468   6.304   3.474 -0.0548  0.9443  2.5114
  905MOL0     H24876   5.492   5.915   2.984 -2.0740  2.2686  0.7459
  905MOL0     H24877   5.665   5.914   2.806 -0.4730  0.4643  0.4426
  905MOL0     H24878   6.042   6.024   2.914 -1.3069  0.7123  0.2920
  905MOL0     H24879   5.974   5.893   2.805  0.4890  0.0438 -1.3918
  905MOL0     H24880   6.087   6.019   2.615 -0.4540 -0.6733  0.3549
  905MOL0     H24881   6.196   5.995   2.749 -0.7991 -0.2421  0.8886
  905MOL0     H24882   6.040   6.257   2.678 -3.4160 -4.3375  0.6924
  905MOL0     H24883   6.143   6.238   2.827 -1.6038  2.4970 -0.4380
  905MOL0     H24884   6.250   6.353   2.620 -2.1552 -0.6148 -2.2499
  905MOL0     H24885   6.246   6.188   2.541  1.5154 -2.6867  1.1058
  905MOL0     H24886   6.566   6.108   2.750 -0.3742  1.8511  2.4044
  905MOL0     H24887   5.905   6.175   3.041 -1.3343  2.6634 -1.2016
  905MOL0     H24888   5.858   6.165   3.285  0.1871  1.4121 -0.1914
  905MOL0     H24889   5.738   6.290   3.267  1.6875  0.9201  1.6416
  905MOL0     H24890   5.713   6.143   3.364 -0.9523 -0.2735 -1.1591
  906MOL0     O24891  10.025   5.818   1.544  0.2572 -0.3043  0.4530
  906MOL0     C24892  10.094   5.878   1.633 -0.4802  0.5232  0.1739
  906MOL0     O24893  10.204   5.832   1.686 -0.1223 -0.0745 -0.8339
  906MOL0     C24894  10.199   5.704   1.735  0.0743 -0.0302  0.0213
  906MOL0     C24895  10.327   5.647   1.762  0.5289  0.2291 -0.0033
  906MOL0     C24896  10.336   5.526   1.827  0.5149 -0.9828  0.4153
  906MOL0     C24897  10.218   5.452   1.846  0.0228  0.8989 -0.2485
  906MOL0     O24898  10.239   5.331   1.911  0.2210 -0.1204  0.4348
  906MOL0     C24899  10.147   5.224   1.895  0.7375 -1.0330  0.3102
  906MOL0     C24900  10.196   5.105   1.970  0.0560 -0.2112  0.1320
  906MOL0     C24901  10.347   5.064   1.944 -0.0217  0.1906 -0.8029
  906MOL0     C24902  10.383   4.952   2.045  0.4228 -0.0096 -0.0518
  906MOL0     C24903  10.430   4.827   1.988 -0.5917 -0.1132 -0.0352
  906MOL0     C24904  10.563   4.859   1.911 -0.8103  0.3727  0.2446
  906MOL0     C24905  10.605   4.740   1.817 -0.1426 -0.7452  0.4950
  906MOL0     C24906  10.732   4.771   1.740  0.8009  0.0195 -0.1693
  906MOL0     N24907  10.781   4.649   1.673  0.7301 -0.4191 -0.5093
  906MOL0     C24908  10.732   4.605   1.553  0.1143 -0.2664 -0.0748
  906MOL0     C24909  10.821   4.503   1.513 -0.9006  0.2449  0.5523
  906MOL0     C24910  10.827   4.432   1.378  1.5086  0.6356  0.0660
  906MOL0     C24911  10.904   4.511   1.271  0.5644  0.4215 -0.8552
  906MOL0     C24912  11.052   4.477   1.296  0.2488  0.0893  0.4948
  906MOL0     C24913  11.159   4.567   1.225 -0.0810  0.9326  0.3379
  906MOL0     O24914  11.146   4.553   1.086  0.1027  0.6434 -0.2698
  906MOL0     C24915  11.246   4.604   1.006  0.3777 -0.8746 -0.2101
  906MOL0     C24916  11.370   4.657   1.050 -0.8890 -0.0247 -0.0748
  906MOL0     C24917  11.454   4.711   0.952 -0.4298 -0.1806  0.4691
  906MOL0     C24918  11.589   4.765   1.006 -0.1277  0.6275  0.9762
  906MOL0     C24919  11.425   4.718   0.810  0.1650 -0.1804  0.0733
  906MOL0     C24920  11.500   4.804   0.715 -0.2133 -0.3564  0.1618
  906MOL0     O24921  11.492   4.762   0.579 -0.3885 -0.0987  0.6555
  906MOL0     C24922  11.549   4.853   0.496 -0.0336 -0.5310  0.4408
  906MOL0     C24923  11.679   4.840   0.454  0.2369  0.2567  0.0526
  906MOL0     C24924  11.738   4.933   0.358  0.3550  0.9436 -0.1216
  906MOL0     C24925  11.660   5.046   0.319 -0.5039 -0.1584  0.0949
  906MOL0     O24926  11.707   5.137   0.224 -0.3020 -0.3501 -0.5971
  906MOL0     C24927  11.846   5.173   0.221  0.6229  0.2179  0.2696
  906MOL0     C24928  11.858   5.321   0.178 -0.5977 -0.3075 -0.3595
  906MOL0     C24929  11.797   5.422   0.289  0.5118 -0.4761  0.2104
  906MOL0     C24930  11.766   5.557   0.226  0.3153  0.5461 -0.2622
  906MOL0     C24931  11.700   5.648   0.328 -0.1347  0.6047  0.7080
  906MOL0     C24932  11.656   5.787   0.282 -0.5405  0.2126 -0.5194
  906MOL0     C24933  11.603   5.871   0.392  0.3699  0.1859  0.2010
  906MOL0     C24934  11.601   6.014   0.340  0.1954 -0.3634  1.2404
  906MOL0    Cl24935  11.761   6.089   0.315 -0.0902 -0.5448 -0.0085
  906MOL0     C24936  11.527   5.058   0.359 -0.3281 -0.1148 -0.0593
  906MOL0     C24937  11.472   4.968   0.454 -0.2604 -0.0632  0.1259
  906MOL0     O24938  11.559   4.906   0.754  0.3005  0.7153 -0.6493
  906MOL0     C24939  11.307   4.649   0.771  0.1697  0.5444  0.6137
  906MOL0     C24940  11.218   4.598   0.866  0.6334 -0.0753 -0.4351
  906MOL0     N24941  10.904   4.476   1.618 -0.3610  0.3311 -0.4419
  906MOL0     N24942  10.881   4.562   1.714 -0.4081 -0.2893 -0.4335
  906MOL0     C24943  10.098   5.507   1.826 -0.5411 -0.1018  0.5979
  906MOL0     C24944  10.081   5.638   1.773 -0.7620 -1.2912 -0.2407
  906MOL0     C24945  10.057   6.008   1.691  0.7597  0.5015  0.2632
  906MOL0     C24946  10.151   6.084   1.761 -0.1929  0.4115 -0.2251
  906MOL0     C24947  10.112   6.210   1.819  0.1458  0.5036 -0.6520
  906MOL0     C24948   9.982   6.258   1.798 -0.5593  0.0811 -0.4254
  906MOL0     O24949   9.946   6.376   1.859 -0.3751 -0.1155  0.2842
  906MOL0     C24950   9.840   6.367   1.958 -0.7513 -0.5081 -0.9721
  906MOL0     C24951   9.816   6.503   2.025  0.4140  0.2665  0.3302
  906MOL0     C24952   9.706   6.506   2.126  1.0787  0.5203 -0.6085
  906MOL0     C24953   9.743   6.585   2.246 -0.2415 -0.0969 -0.1400
  906MOL0     C24954   9.644   6.566   2.355 -0.3254 -0.5773 -0.0681
  906MOL0     C24955   9.549   6.530   2.422 -1.2596 -1.1718 -1.0548
  906MOL0     C24956   9.898   6.183   1.714  0.0321  0.0012 -0.2341
  906MOL0     C24957   9.929   6.055   1.664  0.2036 -1.2133 -0.3764
  906MOL0     C24958   9.814   5.983   1.592  0.0214 -0.1723 -0.3787
  906MOL0     H24959  10.414   5.708   1.739 -1.5328  2.1831 -3.6071
  906MOL0     H24960  10.432   5.480   1.847  0.5318 -2.2062 -2.1050
  906MOL0     H24961  10.134   5.194   1.790 -0.3081  0.8906 -0.1690
  906MOL0     H24962  10.048   5.251   1.933 -0.2813 -0.5340 -2.4205
  906MOL0     H24963  10.179   5.119   2.077 -1.9264 -2.2155  0.1390
  906MOL0     H24964  10.137   5.018   1.940 -2.7133  1.6006  0.0564
  906MOL0     H24965  10.355   5.016   1.845  1.9328  3.0710 -2.1831
  906MOL0     H24966  10.419   5.144   1.962 -2.6531  2.4913  0.1923
  906MOL0     H24967  10.461   4.967   2.119  1.6490 -1.6398 -0.9425
  906MOL0     H24968  10.299   4.926   2.110 -0.8909 -5.3217 -3.2448
  906MOL0     H24969  10.360   4.781   1.917 -0.7005 -1.4452  0.9108
  906MOL0     H24970  10.453   4.756   2.068  3.7538  3.0428  1.9177
  906MOL0     H24971  10.561   4.952   1.853 -0.2169  2.6384  3.5579
  906MOL0     H24972  10.648   4.859   1.979  1.4100  0.2781 -2.3505
  906MOL0     H24973  10.533   4.715   1.738 -0.0351  1.7301 -0.4842
  906MOL0     H24974  10.609   4.652   1.882 -1.8159 -1.2969 -0.0754
  906MOL0     H24975  10.711   4.844   1.662 -0.6046  2.7172  2.5265
  906MOL0     H24976  10.811   4.813   1.802 -0.3998  1.4963  0.4233
  906MOL0     H24977  10.656   4.653   1.493 -0.0038 -1.3644 -0.8336
  906MOL0     H24978  10.722   4.412   1.355  1.7961 -0.9108 -0.0095
  906MOL0     H24979  10.876   4.335   1.390 -0.3179 -0.2129  1.1380
  906MOL0     H24980  10.866   4.474   1.175  0.2913 -1.4857 -0.0514
  906MOL0     H24981  10.891   4.619   1.285  2.5854  0.3734  2.2434
  906MOL0     H24982  11.080   4.480   1.402 -2.5370  1.6230  1.2645
  906MOL0     H24983  11.067   4.375   1.258  0.8559 -0.5709  2.3896
  906MOL0     H24984  11.155   4.674   1.248 -2.2481  1.2403 -1.1970
  906MOL0     H24985  11.258   4.527   1.251 -0.1876  0.7411  0.4540
  906MOL0     H24986  11.403   4.661   1.153  0.7105 -2.3354 -0.4368
  906MOL0     H24987  11.615   4.684   1.075  2.1757  0.4079 -0.0525
  906MOL0     H24988  11.578   4.866   1.046  1.0233  1.3431 -0.4594
  906MOL0     H24989  11.677   4.762   0.941 -3.1828 -0.0829 -3.5882
  906MOL0     H24990  11.731   4.755   0.496 -2.0368 -2.1579 -1.7191
  906MOL0     H24991  11.844   4.926   0.339  0.2006  1.4550 -1.2070
  906MOL0     H24992  11.897   5.152   0.316  0.1050  1.2696  0.7886
  906MOL0     H24993  11.899   5.104   0.154  0.7513  1.1737 -0.6267
  906MOL0     H24994  11.959   5.354   0.152  0.2525 -0.2291  2.6336
  906MOL0     H24995  11.801   5.337   0.086 -1.2957  1.1287  0.2859
  906MOL0     H24996  11.883   5.450   0.352  0.2679  0.4134  0.1557
  906MOL0     H24997  11.717   5.373   0.344 -2.7983  1.4019 -2.5657
  906MOL0     H24998  11.710   5.539   0.134  1.8455  0.2631 -1.1807
  906MOL0     H24999  11.850   5.616   0.189 -1.5320  3.6666  0.1773
  906MOL0     H25000  11.620   5.592   0.377  0.1367 -2.4780 -2.0392
  906MOL0     H25001  11.773   5.649   0.410  0.9383  0.7427 -0.2193
  906MOL0     H25002  11.590   5.778   0.195 -2.0804 -1.0329  0.7365
  906MOL0     H25003  11.748   5.826   0.236 -0.3051  2.0530  1.3726
  906MOL0     H25004  11.658   5.864   0.486  2.0392 -0.1285 -0.7585
  906MOL0     H25005  11.501   5.841   0.419 -0.0156  0.6418 -0.7118
  906MOL0     H25006  11.554   6.074   0.419 -1.6350 -0.5751  0.3568
  906MOL0     H25007  11.528   6.022   0.259 -1.3537 -0.1108  2.5839
  906MOL0     H25008  11.469   5.145   0.329  2.8877  2.1418 -0.3541
  906MOL0     H25009  11.364   4.971   0.466 -0.6635 -2.1122 -2.2553
  906MOL0     H25010  11.275   4.642   0.667 -1.2184  0.4614  1.0273
  906MOL0     H25011  11.130   4.547   0.829  1.6139  0.5267 -3.9397
  906MOL0     H25012  10.000   5.467   1.852 -0.7013  0.6282  1.1647
  906MOL0     H25013   9.982   5.679   1.756 -1.0682 -2.2580 -0.8016
  906MOL0     H25014  10.253   6.050   1.772  0.7685  3.2054  0.4773
  906MOL0     H25015  10.188   6.270   1.868  0.4473  0.8638 -1.5297
  906MOL0     H25016   9.750   6.319   1.920 -1.4125  0.1001 -0.2398
  906MOL0     H25017   9.861   6.295   2.038 -1.8423  0.2356  0.0247
  906MOL0     H25018   9.799   6.569   1.940 -0.4147  2.4291  2.0929
  906MOL0     H25019   9.906   6.544   2.071  0.8668 -0.3752  0.0334
  906MOL0     H25020   9.611   6.550   2.095 -1.4068 -3.2250  0.9396
  906MOL0     H25021   9.695   6.403   2.161  1.9406  0.9149  0.9225
  906MOL0     H25022   9.764   6.689   2.219 -0.0205 -0.7758 -2.8227
  906MOL0     H25023   9.836   6.549   2.291  0.6904 -0.4552 -2.2605
  906MOL0     H25024   9.458   6.515   2.476 -2.0129  0.6818 -1.7173
  906MOL0     H25025   9.796   6.222   1.711 -0.8445 -1.4840  3.7630
  906MOL0     H25026   9.723   6.042   1.586  0.9416  1.9304  3.2279
  906MOL0     H25027   9.839   5.972   1.486 -2.5815  3.1909 -1.5054
  906MOL0     H25028   9.792   5.883   1.630  0.4608  0.1686  0.8427
  907MOL0     O25029  10.933   6.919   3.723 -0.3454 -0.4524 -0.7710
  907MOL0     C25030  10.969   6.808   3.686 -0.5090  0.5140 -0.7666
  907MOL0     O25031  10.924   6.744   3.575 -0.4616 -0.3602 -0.2687
  907MOL0     C25032  10.825   6.806   3.496 -0.8321  0.1019  0.2967
  907MOL0     C25033  10.709   6.863   3.547 -0.6814 -0.5266  0.2818
  907MOL0     C25034  10.609   6.914   3.455 -0.1822  0.4447 -0.5731
  907MOL0     C25035  10.616   6.892   3.315 -0.1280  0.7316  0.4103
  907MOL0     O25036  10.520   6.937   3.235 -0.5924  0.5167  0.3159
  907MOL0     C25037  10.560   6.984   3.097 -0.0103 -1.0239  0.5228
  907MOL0     C25038  10.438   7.040   3.026  0.4032 -0.0219 -0.1918
  907MOL0     C25039  10.397   7.182   3.066  1.7158 -0.3362 -0.3003
  907MOL0     C25040  10.321   7.256   2.948 -0.3648 -0.5187  0.1447
  907MOL0     C25041  10.328   7.407   2.965  1.0701 -0.9659  0.9962
  907MOL0     C25042  10.232   7.484   2.878  0.7242  0.5647 -0.2064
  907MOL0     C25043  10.280   7.500   2.740 -0.9568 -0.6238  0.7953
  907MOL0     C25044  10.182   7.586   2.664 -0.4019  0.4173 -0.0358
  907MOL0     N25045  10.185   7.735   2.674 -0.9156  0.2940  0.2387
  907MOL0     C25046  10.277   7.807   2.609  0.2854  0.3858  0.9911
  907MOL0     C25047  10.246   7.930   2.615  0.0408 -0.0911 -0.5541
  907MOL0     C25048  10.321   8.041   2.553 -0.6604 -0.0255 -1.2730
  907MOL0     C25049  10.434   8.072   2.651 -0.4667  0.8061 -0.4533
  907MOL0     C25050  10.515   8.195   2.608 -0.6654  0.3607  0.1423
  907MOL0     C25051  10.464   8.322   2.675 -0.4005  0.5812 -0.9169
  907MOL0     O25052  10.320   8.343   2.653 -0.6411 -0.7931  0.3377
  907MOL0     C25053  10.246   8.391   2.746  0.9326 -1.0096  0.4602
  907MOL0     C25054  10.107   8.377   2.720  0.2899 -0.0247 -0.2964
  907MOL0     C25055  10.003   8.436   2.796  0.5608  0.1651 -0.7551
  907MOL0     C25056   9.862   8.399   2.770 -0.5019 -0.6034 -0.0014
  907MOL0     C25057  10.040   8.506   2.916  0.0482  0.3368  0.7614
  907MOL0     C25058   9.935   8.541   3.014 -0.6195 -0.3879  0.5661
  907MOL0     O25059   9.862   8.437   3.070  0.0926 -0.7594  0.0799
  907MOL0     C25060   9.794   8.464   3.190  0.4042  1.2252  0.4213
  907MOL0     C25061   9.653   8.469   3.184 -0.2798 -0.4372 -0.5173
  907MOL0     C25062   9.582   8.480   3.304 -0.1806 -0.1948  0.2472
  907MOL0     C25063   9.652   8.485   3.428 -0.4385 -0.7673  0.0085
  907MOL0     O25064   9.579   8.487   3.548  0.2089 -0.0917  0.6939
  907MOL0     C25065   9.437   8.504   3.545  0.3320 -0.3657 -1.3213
  907MOL0     C25066   9.375   8.508   3.691  1.2591 -0.6023  0.3307
  907MOL0     C25067   9.419   8.394   3.786 -0.9380 -0.0007 -0.3531
  907MOL0     C25068   9.362   8.257   3.754 -0.2919 -0.5462 -0.4707
  907MOL0     C25069   9.426   8.157   3.844  0.9784 -0.0925  0.0764
  907MOL0     C25070   9.347   8.128   3.968  1.0463 -0.3097  0.2260
  907MOL0     C25071   9.395   7.999   4.037  0.3941 -0.5982 -0.2071
  907MOL0     C25072   9.349   8.001   4.186  0.3063 -0.2011 -0.2782
  907MOL0    Cl25073   9.163   8.001   4.200  0.3074 -0.0226  0.1518
  907MOL0     C25074   9.792   8.491   3.424 -0.0248  0.3513  0.0325
  907MOL0     C25075   9.866   8.476   3.310  0.8963 -0.0918  0.2554
  907MOL0     O25076   9.937   8.658   3.049  0.1303  0.1810 -0.3799
  907MOL0     C25077  10.182   8.523   2.946 -0.2330 -0.1905  0.2195
  907MOL0     C25078  10.283   8.471   2.857  0.1960  0.8310 -0.6147
  907MOL0     N25079  10.134   7.939   2.686 -0.3422  0.3490 -0.4503
  907MOL0     N25080  10.095   7.820   2.717 -1.0495  0.0961  0.0376
  907MOL0     C25081  10.728   6.815   3.267 -0.1321 -0.1348 -0.4321
  907MOL0     C25082  10.830   6.780   3.353 -0.2697  0.0682  0.0906
  907MOL0     C25083  11.062   6.731   3.774  0.8966 -0.8219 -0.6028
  907MOL0     C25084  11.156   6.645   3.712 -0.1930  0.1949  0.5392
  907MOL0     C25085  11.249   6.574   3.785 -0.4281 -0.8393  1.0714
  907MOL0     C25086  11.274   6.594   3.922  0.0937 -0.2197  1.5216
  907MOL0     O25087  11.386   6.533   3.978 -0.2837 -0.3658  0.0813
  907MOL0     C25088  11.382   6.531   4.123 -1.6314  1.0362 -0.1280
  907MOL0     C25089  11.516   6.475   4.180 -0.1607  0.2033 -0.6035
  907MOL0     C25090  11.515   6.420   4.325 -0.5274 -0.1952  0.2163
  907MOL0     C25091  11.655   6.356   4.347  0.2960  0.1366  0.3740
  907MOL0     C25092  11.690   6.316   4.486  0.3245 -0.2856  0.0594
  907MOL0     C25093  11.717   6.279   4.598 -0.1721  0.1096 -0.6580
  907MOL0     C25094  11.183   6.684   3.989  0.4257  0.7968  0.2956
  907MOL0     C25095  11.069   6.746   3.913 -0.0067  0.2912  0.1440
  907MOL0     C25096  10.961   6.814   3.996 -0.2689 -0.8629 -0.2008
  907MOL0     H25097  10.707   6.875   3.655  0.5446 -1.5569  0.4364
  907MOL0     H25098  10.534   6.975   3.504 -0.8693 -0.8823  0.0767
  907MOL0     H25099  10.586   6.909   3.022 -2.1294  0.6480 -2.1009
  907MOL0     H25100  10.636   7.063   3.101  0.1267 -1.1210 -0.0206
  907MOL0     H25101  10.451   7.044   2.917 -0.8693 -0.2040 -0.3636
  907MOL0     H25102  10.348   6.982   3.046 -1.4690  2.3651 -1.2510
  907MOL0     H25103  10.323   7.159   3.143 -0.6229 -1.8123 -2.7779
  907MOL0     H25104  10.477   7.238   3.113 -0.0826  2.0657  0.1111
  907MOL0     H25105  10.368   7.233   2.852  1.7423  2.5962  0.3004
  907MOL0     H25106  10.222   7.214   2.930 -0.1717 -1.7253  1.6688
  907MOL0     H25107  10.429   7.437   2.938  0.2024 -1.3668 -3.4404
  907MOL0     H25108  10.300   7.419   3.070 -1.4390 -0.2493  0.3288
  907MOL0     H25109  10.137   7.431   2.875 -0.2548  2.2361 -4.2150
  907MOL0     H25110  10.202   7.582   2.918 -1.7170  0.1595 -0.8880
  907MOL0     H25111  10.298   7.402   2.694  3.4701  0.4033 -0.1265
  907MOL0     H25112  10.379   7.544   2.726  0.6422 -3.7642  1.2195
  907MOL0     H25113  10.211   7.555   2.563  0.8153  4.7285 -1.2479
  907MOL0     H25114  10.080   7.549   2.675 -0.3924  0.8147  1.6239
  907MOL0     H25115  10.361   7.770   2.551 -0.8375  3.6011 -3.1908
  907MOL0     H25116  10.259   8.123   2.515  2.9465  3.3456 -0.6441
  907MOL0     H25117  10.376   8.008   2.465  4.0159 -1.1745  1.7321
  907MOL0     H25118  10.394   8.094   2.750  2.5181  0.0094  1.0818
  907MOL0     H25119  10.501   7.985   2.650  1.9264  2.5424 -1.7613
  907MOL0     H25120  10.618   8.166   2.631 -0.8943 -0.4385  0.2236
  907MOL0     H25121  10.510   8.201   2.499 -1.7166 -1.9347  0.0049
  907MOL0     H25122  10.478   8.312   2.783 -1.0890  0.0152 -0.8738
  907MOL0     H25123  10.529   8.406   2.646  1.9578 -1.6619 -2.5083
  907MOL0     H25124  10.078   8.312   2.637  0.8808  0.2823 -0.7455
  907MOL0     H25125   9.803   8.370   2.857  0.8705  0.9084  1.5174
  907MOL0     H25126   9.855   8.323   2.692  1.0091  0.8469 -1.6515
  907MOL0     H25127   9.807   8.490   2.744 -2.8962 -1.6988  0.9252
  907MOL0     H25128   9.594   8.463   3.093 -1.4186  1.8109  0.0085
  907MOL0     H25129   9.476   8.463   3.295  0.0024 -1.0288 -0.4544
  907MOL0     H25130   9.422   8.607   3.510 -2.1306 -0.7006 -1.4484
  907MOL0     H25131   9.389   8.420   3.492 -0.5655 -0.8033  0.1272
  907MOL0     H25132   9.404   8.602   3.739  0.4465  0.5821 -1.4216
  907MOL0     H25133   9.266   8.504   3.695  1.3071 -0.7918  2.1331
  907MOL0     H25134   9.403   8.442   3.883  0.7617  0.2459 -0.1517
  907MOL0     H25135   9.528   8.384   3.787 -0.7894  1.0468  2.4197
  907MOL0     H25136   9.387   8.231   3.651 -0.8936 -0.2610 -0.6941
  907MOL0     H25137   9.253   8.264   3.760 -0.5648 -2.0002 -2.6429
  907MOL0     H25138   9.436   8.064   3.786  0.0658  1.0850 -2.1174
  907MOL0     H25139   9.527   8.179   3.881  0.8548 -1.4890  1.3229
  907MOL0     H25140   9.246   8.117   3.927  0.6994 -2.3057  1.4517
  907MOL0     H25141   9.344   8.213   4.037 -0.6901  0.8753 -1.2366
  907MOL0     H25142   9.504   8.010   4.038  0.1954  3.7720  2.5374
  907MOL0     H25143   9.360   7.913   3.979  3.8055 -0.2487 -3.1584
  907MOL0     H25144   9.388   8.088   4.240 -2.2443 -1.2783  3.7732
  907MOL0     H25145   9.391   7.908   4.226 -0.4545 -2.0092 -3.3843
  907MOL0     H25146   9.839   8.493   3.522  0.9173  1.2556 -0.4298
  907MOL0     H25147   9.972   8.478   3.287  0.7032 -0.8924 -0.8123
  907MOL0     H25148  10.209   8.580   3.035 -0.1149 -2.4663  1.7195
  907MOL0     H25149  10.388   8.483   2.877  1.2815 -0.9630 -4.2919
  907MOL0     H25150  10.744   6.797   3.161 -1.8820 -0.2021 -0.7121
  907MOL0     H25151  10.922   6.734   3.318 -1.8090 -1.5298 -2.1253
  907MOL0     H25152  11.145   6.650   3.604 -2.6013  3.8191  0.7423
  907MOL0     H25153  11.327   6.516   3.737  0.1361  1.8344 -1.5521
  907MOL0     H25154  11.362   6.620   4.183 -3.5577 -0.6095  1.9132
  907MOL0     H25155  11.304   6.460   4.154 -0.1276 -0.6698 -0.0967
  907MOL0     H25156  11.590   6.554   4.170  0.0107  0.0788 -0.3128
  907MOL0     H25157  11.547   6.391   4.117  0.7561 -0.5456  0.8053
  907MOL0     H25158  11.517   6.504   4.395 -2.2802  1.4452 -1.5547
  907MOL0     H25159  11.427   6.360   4.351 -1.2848  0.2826 -1.1289
  907MOL0     H25160  11.722   6.438   4.317 -2.7890  2.6881 -0.1182
  907MOL0     H25161  11.686   6.281   4.274  1.7384  2.1145 -1.1453
  907MOL0     H25162  11.740   6.229   4.689  4.9193  1.9385 -0.6015
  907MOL0     H25163  11.190   6.700   4.096 -4.3342  1.6735  0.7115
  907MOL0     H25164  10.987   6.920   4.005 -0.3804 -1.0102  2.3539
  907MOL0     H25165  10.859   6.808   3.956 -0.3949  0.3777 -0.0991
  907MOL0     H25166  10.978   6.773   4.096  1.4825  1.0436  0.3354
  908MOL0     O25167   4.901   2.198   5.102 -0.0467  0.8751  0.1851
  908MOL0     C25168   4.788   2.247   5.091  0.7458  0.1989  0.4025
  908MOL0     O25169   4.750   2.373   5.102 -0.8523 -0.4987  0.1293
  908MOL0     C25170   4.833   2.467   5.150  0.1740  0.7761  0.2434
  908MOL0     C25171   4.908   2.444   5.271 -0.4906 -0.6715  0.3984
  908MOL0     C25172   4.985   2.545   5.334 -0.1504  1.0657  0.5687
  908MOL0     C25173   5.000   2.661   5.248 -0.1854  0.4321  0.1236
  908MOL0     O25174   5.080   2.770   5.270 -0.3254  0.1573 -0.4609
  908MOL0     C25175   5.081   2.804   5.410 -0.0136 -0.1879 -0.2352
  908MOL0     C25176   5.176   2.923   5.406  0.6742  0.3876 -0.5531
  908MOL0     C25177   5.190   3.010   5.521  0.7161  0.4122  0.0264
  908MOL0     C25178   5.312   3.100   5.495  0.5796  0.2538 -1.2550
  908MOL0     C25179   5.303   3.238   5.570 -0.1438  0.9452  0.1823
  908MOL0     C25180   5.372   3.241   5.710  0.1684 -0.1491 -0.4435
  908MOL0     C25181   5.365   3.376   5.778  0.6714 -0.4884 -0.5457
  908MOL0     C25182   5.371   3.373   5.933 -0.5021 -0.1504 -1.3151
  908MOL0     N25183   5.372   3.509   5.975 -0.3196 -0.3519  0.0064
  908MOL0     C25184   5.274   3.587   6.037 -0.1717 -0.0589 -0.2846
  908MOL0     C25185   5.316   3.720   6.024  0.3931 -0.5837  0.1379
  908MOL0     C25186   5.237   3.839   6.062  0.6916  0.1052 -0.2775
  908MOL0     C25187   5.272   3.882   6.204 -0.2423  0.4667  0.3278
  908MOL0     C25188   5.246   4.038   6.237 -0.3070 -0.8546 -0.0114
  908MOL0     C25189   5.336   4.093   6.351 -0.0901 -0.0740 -0.0376
  908MOL0     O25190   5.332   4.013   6.466  0.3042 -0.3123 -0.2842
  908MOL0     C25191   5.334   4.084   6.584 -0.1003  1.8508 -0.8950
  908MOL0     C25192   5.236   4.172   6.631 -0.0086  0.3673  0.4484
  908MOL0     C25193   5.247   4.239   6.756 -0.0817  0.9086 -0.3661
  908MOL0     C25194   5.138   4.337   6.778  0.6480 -0.2214 -0.7392
  908MOL0     C25195   5.356   4.203   6.843  0.8833  0.4691 -0.3380
  908MOL0     C25196   5.379   4.265   6.973  0.9050 -0.3979  0.5445
  908MOL0     O25197   5.512   4.279   7.015 -0.5015  0.5066 -0.3216
  908MOL0     C25198   5.536   4.350   7.132  0.0218  0.0866  0.1932
  908MOL0     C25199   5.659   4.311   7.191 -0.1093 -0.3012  0.5251
  908MOL0     C25200   5.701   4.363   7.309  0.3445 -1.1078  0.0334
  908MOL0     C25201   5.625   4.472   7.364  0.0705 -0.2100  0.8109
  908MOL0     O25202   5.682   4.550   7.454 -0.5092  0.0044 -0.5447
  908MOL0     C25203   5.819   4.594   7.434  0.2109 -0.5743  0.2193
  908MOL0     C25204   5.825   4.725   7.337  0.6587  0.0315  0.1069
  908MOL0     C25205   5.812   4.709   7.179  0.0270  0.1258  0.2873
  908MOL0     C25206   5.890   4.593   7.119 -0.0352 -0.1088 -0.2066
  908MOL0     C25207   5.830   4.566   6.975  0.5873  0.2123 -0.6363
  908MOL0     C25208   5.917   4.490   6.881 -0.2662  0.3706 -0.4338
  908MOL0     C25209   5.841   4.454   6.749  0.3521 -0.5386 -0.1475
  908MOL0     C25210   5.752   4.330   6.768  0.1530  0.1946 -1.9046
  908MOL0    Cl25211   5.717   4.257   6.609 -0.2338 -0.2797  0.3888
  908MOL0     C25212   5.508   4.515   7.306  0.0811 -0.3290  0.0422
  908MOL0     C25213   5.464   4.459   7.187  0.1534 -0.5219  0.4231
  908MOL0     O25214   5.279   4.286   7.036  0.3139 -0.4435 -0.0852
  908MOL0     C25215   5.448   4.107   6.806  0.1239 -0.2835  0.8231
  908MOL0     C25216   5.437   4.048   6.677  0.1134  0.3633 -0.4384
  908MOL0     N25217   5.438   3.721   5.961 -0.0877 -0.8777  0.7873
  908MOL0     N25218   5.470   3.599   5.932 -0.2946  0.2518  0.0169
  908MOL0     C25219   4.918   2.679   5.138 -0.8539 -0.6526 -0.4560
  908MOL0     C25220   4.838   2.588   5.079  0.3697  0.8198  0.1300
  908MOL0     C25221   4.671   2.156   5.072  0.5402 -0.2648  0.0113
  908MOL0     C25222   4.539   2.198   5.107  0.8031 -0.4574 -0.6199
  908MOL0     C25223   4.437   2.113   5.092 -0.5580  0.3719 -0.3393
  908MOL0     C25224   4.443   1.985   5.038 -0.4215  0.1357  0.1738
  908MOL0     O25225   4.333   1.904   5.011  0.4952  0.4047  0.3402
  908MOL0     C25226   4.201   1.937   5.061 -0.1144  0.0509 -0.1004
  908MOL0     C25227   4.109   1.831   5.010  0.5143  0.8779 -0.2926
  908MOL0     C25228   4.113   1.829   4.847  0.2708 -0.1650  0.2681
  908MOL0     C25229   4.066   1.694   4.800 -0.9165  0.0864 -0.1711
  908MOL0     C25230   3.925   1.694   4.841  0.5381  1.2060  0.2620
  908MOL0     C25231   3.813   1.680   4.881  0.0721 -0.1071 -0.7234
  908MOL0     C25232   4.566   1.949   4.989 -0.5154 -0.3248  0.4889
  908MOL0     C25233   4.685   2.027   5.013 -0.0767 -1.0093  0.3812
  908MOL0     C25234   4.812   1.971   4.951 -0.2695  0.0889 -0.5337
  908MOL0     H25235   4.903   2.345   5.315  2.3904 -1.6903 -1.3138
  908MOL0     H25236   5.037   2.526   5.427 -1.2439  0.5612  1.0981
  908MOL0     H25237   5.134   2.721   5.456  2.2158  0.2877 -1.7934
  908MOL0     H25238   4.980   2.819   5.450 -0.4565 -2.1321 -0.5289
  908MOL0     H25239   5.270   2.881   5.369 -1.8414 -2.6568 -4.4767
  908MOL0     H25240   5.142   2.987   5.324  2.7635  0.9494 -1.0383
  908MOL0     H25241   5.092   3.058   5.525 -0.0362 -0.8998 -1.2394
  908MOL0     H25242   5.188   2.950   5.612  0.1481  0.8183  0.2801
  908MOL0     H25243   5.400   3.047   5.532  0.1731  1.8925  2.5093
  908MOL0     H25244   5.314   3.116   5.387 -2.8846  0.6873 -1.3748
  908MOL0     H25245   5.200   3.271   5.585 -0.0915  0.9846  0.4753
  908MOL0     H25246   5.354   3.313   5.510  2.4150 -0.7913  0.0384
  908MOL0     H25247   5.331   3.166   5.779 -2.2968 -0.4108 -2.1114
  908MOL0     H25248   5.480   3.223   5.706  0.3664  0.8112  0.1357
  908MOL0     H25249   5.267   3.420   5.760 -0.4715 -0.2992  4.6291
  908MOL0     H25250   5.443   3.443   5.738 -1.7236  1.4395 -2.3342
  908MOL0     H25251   5.274   3.330   5.960  0.9078 -2.0316  1.2300
  908MOL0     H25252   5.458   3.320   5.974  1.0038  2.7140 -0.4955
  908MOL0     H25253   5.189   3.544   6.090  0.4322 -0.7133  0.1614
  908MOL0     H25254   5.129   3.821   6.055  0.8910 -0.9600 -0.7701
  908MOL0     H25255   5.244   3.929   6.000 -1.3151  0.3105 -0.2749
  908MOL0     H25256   5.215   3.817   6.271 -1.0715 -2.1860 -2.7342
  908MOL0     H25257   5.373   3.851   6.231 -0.9917 -0.8018  1.7982
  908MOL0     H25258   5.268   4.092   6.144 -1.9217  0.6012  0.4170
  908MOL0     H25259   5.141   4.058   6.259  0.2537  3.0607 -0.2325
  908MOL0     H25260   5.439   4.107   6.318 -0.9094 -0.7732 -3.2194
  908MOL0     H25261   5.296   4.194   6.369  0.2853  0.6230 -2.6232
  908MOL0     H25262   5.158   4.202   6.562  2.1946  0.4573 -2.1779
  908MOL0     H25263   5.168   4.421   6.841 -0.2958 -1.4293  1.4535
  908MOL0     H25264   5.049   4.294   6.825 -0.5032  1.2638 -1.4700
  908MOL0     H25265   5.106   4.374   6.680  0.1818  1.3163 -0.0420
  908MOL0     H25266   5.701   4.230   7.133  0.0191  0.1805 -0.0571
  908MOL0     H25267   5.792   4.323   7.352  0.0899 -0.6747  1.0014
  908MOL0     H25268   5.858   4.626   7.531  1.1433 -2.2503  0.4275
  908MOL0     H25269   5.892   4.524   7.393  0.4011  0.0463 -0.5234
  908MOL0     H25270   5.753   4.801   7.366 -2.8553 -1.4538 -3.6987
  908MOL0     H25271   5.927   4.761   7.351  0.9129 -0.9846  0.9810
  908MOL0     H25272   5.844   4.801   7.129  0.8281  0.4278  1.3118
  908MOL0     H25273   5.706   4.694   7.159  0.1538 -1.4287  0.6578
  908MOL0     H25274   5.877   4.500   7.175  1.7217  0.1558  0.7092
  908MOL0     H25275   5.997   4.615   7.109  0.2531 -1.4938 -0.3410
  908MOL0     H25276   5.740   4.508   6.997  0.6917 -0.2321 -1.3509
  908MOL0     H25277   5.795   4.661   6.934  1.6711 -0.3843 -3.1056
  908MOL0     H25278   5.948   4.403   6.941 -0.3418  1.3066  1.0157
  908MOL0     H25279   6.005   4.551   6.859  1.1500 -1.3257  0.2078
  908MOL0     H25280   5.911   4.413   6.676  1.6439  0.1226  0.6796
  908MOL0     H25281   5.781   4.529   6.696 -2.7959 -1.7432  1.4759
  908MOL0     H25282   5.655   4.351   6.815 -0.6116 -3.0776 -1.7781
  908MOL0     H25283   5.801   4.253   6.828 -1.0526 -0.1304 -1.3172
  908MOL0     H25284   5.454   4.595   7.354  1.4483  1.3791 -1.1302
  908MOL0     H25285   5.371   4.496   7.147 -0.0780 -0.8879  0.6155
  908MOL0     H25286   5.531   4.071   6.866  1.3053 -2.9041 -2.0637
  908MOL0     H25287   5.492   3.955   6.663  0.0043  0.3339 -0.6703
  908MOL0     H25288   4.917   2.776   5.089 -1.4311  0.1642  1.1061
  908MOL0     H25289   4.763   2.611   5.004 -2.1317  0.9518  2.5005
  908MOL0     H25290   4.511   2.295   5.145 -2.9787 -1.4377 -0.4242
  908MOL0     H25291   4.337   2.149   5.116 -0.1248 -0.5206  3.5145
  908MOL0     H25292   4.192   1.926   5.169  3.1620 -1.1801  0.1864
  908MOL0     H25293   4.158   2.022   5.008  0.7012 -0.3259 -1.4442
  908MOL0     H25294   4.004   1.834   5.040  0.3591 -3.3500  0.2757
  908MOL0     H25295   4.150   1.738   5.052  3.0982  1.1160 -2.0369
  908MOL0     H25296   4.062   1.913   4.799  2.5578  0.9341 -0.3940
  908MOL0     H25297   4.216   1.845   4.815  1.1477 -2.2216  1.8523
  908MOL0     H25298   4.130   1.617   4.844 -0.3163  1.3734  1.2892
  908MOL0     H25299   4.079   1.695   4.691 -0.0856  1.1421 -0.0687
  908MOL0     H25300   3.710   1.679   4.909 -0.1256  4.7433 -0.4171
  908MOL0     H25301   4.572   1.857   4.931  2.1629 -0.7429  1.2778
  908MOL0     H25302   4.785   1.890   4.882 -3.6514 -2.0147  2.8863
  908MOL0     H25303   4.872   2.037   4.887  3.6208 -2.9519 -0.4159
  908MOL0     H25304   4.874   1.918   5.024 -1.5099 -1.1186 -0.3159
  909MOL0     O25305  10.348   1.887   6.947  0.4303  0.0584  0.0657
  909MOL0     C25306  10.397   1.999   6.936 -0.9443  0.3101  0.4692
  909MOL0     O25307  10.339   2.119   6.951  0.2434 -0.0264  0.4466
  909MOL0     C25308  10.228   2.154   7.025  0.4838  0.2361  0.5204
  909MOL0     C25309  10.199   2.290   7.046  0.1997  0.8409 -0.2440
  909MOL0     C25310  10.094   2.335   7.127  1.6121  0.7834 -1.0258
  909MOL0     C25311  10.017   2.231   7.195  0.5681 -0.4758 -0.3716
  909MOL0     O25312   9.916   2.258   7.287  0.2039  0.8015 -0.4650
  909MOL0     C25313   9.882   2.392   7.336  0.1339 -0.9541  0.3428
  909MOL0     C25314   9.783   2.462   7.243  0.5000 -0.0960  0.3771
  909MOL0     C25315   9.651   2.378   7.237 -0.1857 -0.3773 -0.5321
  909MOL0     C25316   9.560   2.372   7.361  0.5794 -0.0231  0.2494
  909MOL0     C25317   9.438   2.281   7.348 -0.3618  0.6818 -0.3466
  909MOL0     C25318   9.469   2.132   7.341  0.4040  0.2184 -0.0329
  909MOL0     C25319   9.566   2.078   7.448  0.7359 -0.9285 -0.3234
  909MOL0     C25320   9.581   1.924   7.442  1.0049 -0.9290 -0.7326
  909MOL0     N25321   9.453   1.861   7.472  1.4558  0.4425 -0.4147
  909MOL0     C25322   9.373   1.873   7.584  0.6476  0.2748 -1.2345
  909MOL0     C25323   9.259   1.794   7.556 -0.0727 -0.5952  0.0614
  909MOL0     C25324   9.144   1.775   7.638  0.8435  0.2335 -1.0134
  909MOL0     C25325   9.100   1.629   7.666  0.9682 -0.0077 -0.7020
  909MOL0     C25326   9.003   1.577   7.551  0.1258 -1.4660 -0.0745
  909MOL0     C25327   8.969   1.441   7.582 -0.5045  0.2567 -0.4844
  909MOL0     O25328   8.876   1.391   7.479 -0.2160  0.2290 -0.3283
  909MOL0     C25329   8.818   1.264   7.484 -0.8286 -0.6707  0.0084
  909MOL0     C25330   8.779   1.193   7.371 -0.2025 -0.6255  0.4929
  909MOL0     C25331   8.701   1.071   7.367 -0.9292  0.3674 -0.2623
  909MOL0     C25332   8.666   1.008   7.247 -0.0834  0.6428  0.5743
  909MOL0     C25333   8.666   1.020   7.493 -0.2797 -0.2254 -0.5184
  909MOL0     C25334   8.599   0.887   7.508 -0.0781 -0.5770  0.0537
  909MOL0     O25335   8.480   0.866   7.444  0.6091  0.7369 -0.3537
  909MOL0     C25336   8.387   0.773   7.482  0.3918 -0.4941 -1.2556
  909MOL0     C25337   8.334   0.702   7.377  0.6107 -0.6377  0.6768
  909MOL0     C25338   8.235   0.602   7.398 -0.3181  0.3889 -0.6770
  909MOL0     C25339   8.206   0.576   7.530 -0.4762  0.5682  0.2104
  909MOL0     O25340   8.104   0.487   7.551  0.3138 -0.4747  0.8392
  909MOL0     C25341   8.009   0.527   7.648  0.5958 -0.1441 -0.6388
  909MOL0     C25342   7.860   0.505   7.596  0.6121  0.1793 -0.6230
  909MOL0     C25343   7.847   0.575   7.460 -0.1042  0.0186  0.1573
  909MOL0     C25344   7.859   0.726   7.464 -0.5042  0.0638  0.5183
  909MOL0     C25345   7.838   0.806   7.331 -0.6209  1.3424  0.3580
  909MOL0     C25346   7.967   0.811   7.248 -0.0408 -1.2542 -0.0798
  909MOL0     C25347   7.972   0.912   7.130 -0.4113  0.7538 -0.7251
  909MOL0     C25348   8.102   0.867   7.053  0.5523  0.1568 -0.5504
  909MOL0    Cl25349   8.255   0.917   7.125 -0.1118  0.0214  0.2001
  909MOL0     C25350   8.257   0.642   7.643  0.2161  0.3637  0.1860
  909MOL0     C25351   8.352   0.737   7.621 -0.0047 -0.9750  0.2623
  909MOL0     O25352   8.649   0.816   7.589  0.4041 -0.4128 -0.9792
  909MOL0     C25353   8.706   1.083   7.614  0.2392 -0.4361  0.7033
  909MOL0     C25354   8.782   1.208   7.607  0.1629  0.6240  0.5036
  909MOL0     N25355   9.283   1.751   7.430 -0.4775 -0.0383  0.8229
  909MOL0     N25356   9.390   1.786   7.381  0.2983  0.5709 -0.7908
  909MOL0     C25357  10.039   2.098   7.165 -0.7533 -0.3117 -0.4478
  909MOL0     C25358  10.144   2.059   7.085  0.6110  0.4421  0.5419
  909MOL0     C25359  10.545   1.996   6.909 -0.0947  0.2252 -1.0086
  909MOL0     C25360  10.622   2.080   6.988  0.1328 -0.6292 -0.3249
  909MOL0     C25361  10.763   2.091   6.968  0.2262  0.5237  0.4353
  909MOL0     C25362  10.831   2.013   6.875 -0.1569 -0.1066  0.0895
  909MOL0     O25363  10.970   2.029   6.846  0.6517 -0.0096  0.1924
  909MOL0     C25364  11.046   2.121   6.916 -0.1650  0.4918  0.8048
  909MOL0     C25365  11.186   2.130   6.854  0.8813  0.3577 -0.5391
  909MOL0     C25366  11.259   2.001   6.830  0.1223 -1.1268  0.5084
  909MOL0     C25367  11.249   1.903   6.941 -0.7661 -0.0500  0.1754
  909MOL0     C25368  11.309   1.964   7.060  0.2410 -0.1083 -0.3327
  909MOL0     C25369  11.372   1.999   7.160  0.3752 -0.3899 -0.2351
  909MOL0     C25370  10.759   1.921   6.806  0.1234  0.2469  0.3535
  909MOL0     C25371  10.620   1.908   6.824 -0.0988  0.1094  0.0284
  909MOL0     C25372  10.555   1.793   6.760 -0.3600 -0.3087  0.5529
  909MOL0     H25373  10.271   2.364   7.012 -0.9834  2.1652  0.0438
  909MOL0     H25374  10.093   2.442   7.147 -0.1098  0.7592 -0.8307
  909MOL0     H25375   9.972   2.449   7.359  0.3081 -0.8208 -0.6252
  909MOL0     H25376   9.826   2.371   7.428 -3.4781 -2.6869 -2.0013
  909MOL0     H25377   9.763   2.567   7.265  1.9999  0.8944 -2.4736
  909MOL0     H25378   9.831   2.469   7.145 -0.3190  1.6896  0.0691
  909MOL0     H25379   9.595   2.396   7.145  1.1124 -1.2270 -1.5234
  909MOL0     H25380   9.691   2.276   7.229 -0.0352 -0.2975 -0.8205
  909MOL0     H25381   9.621   2.350   7.450  0.6378  3.7393  1.3125
  909MOL0     H25382   9.521   2.473   7.373 -2.2519 -1.1833  1.7887
  909MOL0     H25383   9.394   2.299   7.250 -0.2294  0.6654 -0.4082
  909MOL0     H25384   9.370   2.303   7.431 -1.8196 -0.9051 -1.0699
  909MOL0     H25385   9.371   2.085   7.355 -0.3595  1.0916 -2.0254
  909MOL0     H25386   9.499   2.095   7.243  0.9355 -1.5636  0.7668
  909MOL0     H25387   9.536   2.118   7.545 -1.4602  0.3538 -1.4586
  909MOL0     H25388   9.665   2.109   7.413  0.4229  0.6468  0.1107
  909MOL0     H25389   9.606   1.889   7.341  0.0467  0.5194 -1.5077
  909MOL0     H25390   9.669   1.890   7.497  0.8206 -0.7695 -0.3356
  909MOL0     H25391   9.402   1.910   7.682  0.5817 -2.0160 -0.2954
  909MOL0     H25392   9.072   1.849   7.601  2.4616  2.1633 -0.4558
  909MOL0     H25393   9.173   1.816   7.735  0.9200  0.2698 -1.0508
  909MOL0     H25394   9.187   1.564   7.670  0.4800 -0.6183  2.7557
  909MOL0     H25395   9.045   1.627   7.760 -0.0545 -3.0962 -1.2740
  909MOL0     H25396   8.922   1.650   7.546  3.3647  2.4637 -1.1248
  909MOL0     H25397   9.055   1.577   7.454  1.8102 -1.4586  0.7959
  909MOL0     H25398   9.052   1.371   7.593 -0.2813  0.3929 -1.2106
  909MOL0     H25399   8.912   1.454   7.675  0.2266  3.3975 -0.3551
  909MOL0     H25400   8.814   1.239   7.279 -6.4347  2.9707 -0.6809
  909MOL0     H25401   8.748   0.943   7.215 -0.3223  0.7374 -0.2494
  909MOL0     H25402   8.658   1.092   7.177 -3.1885  1.4575  1.7059
  909MOL0     H25403   8.566   0.963   7.256  1.1753 -2.2836  0.9195
  909MOL0     H25404   8.363   0.732   7.277  2.1199 -1.0747  0.9577
  909MOL0     H25405   8.198   0.543   7.315 -0.6976 -0.1380 -0.1454
  909MOL0     H25406   8.029   0.474   7.741  2.6077 -1.2890 -1.6515
  909MOL0     H25407   8.008   0.632   7.679  2.1295 -0.8617  2.1475
  909MOL0     H25408   7.852   0.396   7.587 -1.3149  0.2773 -0.4774
  909MOL0     H25409   7.776   0.533   7.660 -0.1052  0.1286 -1.5255
  909MOL0     H25410   7.752   0.548   7.413  0.9152 -2.6476 -0.5890
  909MOL0     H25411   7.917   0.535   7.385 -1.6224  0.8722 -1.8080
  909MOL0     H25412   7.960   0.760   7.489 -1.0045  3.0800 -1.1095
  909MOL0     H25413   7.784   0.762   7.535 -1.7144  1.5033 -1.3956
  909MOL0     H25414   7.753   0.761   7.278 -0.8987 -0.6975  2.3221
  909MOL0     H25415   7.815   0.911   7.351 -3.1207  0.7642  0.9708
  909MOL0     H25416   7.995   0.711   7.215  1.7824 -0.4611 -1.0797
  909MOL0     H25417   8.062   0.832   7.299  1.3830 -1.1481 -2.6186
  909MOL0     H25418   7.990   1.017   7.153 -1.4222  1.4072 -2.7592
  909MOL0     H25419   7.883   0.903   7.067 -2.7392 -0.1399  2.4194
  909MOL0     H25420   8.079   0.915   6.957 -2.7379 -0.3994 -0.1820
  909MOL0     H25421   8.100   0.758   7.043  1.8588 -0.1544  1.8343
  909MOL0     H25422   8.218   0.637   7.745 -0.7610 -2.6186 -0.2392
  909MOL0     H25423   8.408   0.788   7.699 -2.3801  2.3956 -0.0091
  909MOL0     H25424   8.676   1.049   7.712 -3.0251 -1.5830 -0.5545
  909MOL0     H25425   8.797   1.247   7.707 -3.5656 -1.0939  1.9130
  909MOL0     H25426   9.990   2.011   7.207 -1.5187 -0.3047 -1.3125
  909MOL0     H25427  10.167   1.957   7.057  0.6977  1.4667 -3.7480
  909MOL0     H25428  10.577   2.148   7.060  0.0834  0.6345 -1.5214
  909MOL0     H25429  10.824   2.152   7.032 -0.0880  0.7218  0.5515
  909MOL0     H25430  11.003   2.221   6.897 -2.2702 -0.2203  1.5332
  909MOL0     H25431  11.051   2.101   7.023 -1.6521 -1.6155  0.5344
  909MOL0     H25432  11.239   2.205   6.913 -2.8086 -0.3406  4.3258
  909MOL0     H25433  11.161   2.167   6.755  1.2209 -1.7472 -1.4589
  909MOL0     H25434  11.226   1.966   6.731  0.3077  0.4503 -0.1407
  909MOL0     H25435  11.361   2.032   6.805  0.8090 -1.9105  2.1631
  909MOL0     H25436  11.308   1.822   6.898 -2.5100 -1.1448 -0.2752
  909MOL0     H25437  11.149   1.862   6.959  0.0082 -2.9418 -1.4559
  909MOL0     H25438  11.428   2.025   7.247 -4.2920  1.7040  2.5281
  909MOL0     H25439  10.807   1.854   6.735 -0.6904  1.6621 -1.6304
  909MOL0     H25440  10.507   1.731   6.837 -0.4900 -0.6478  0.1987
  909MOL0     H25441  10.482   1.821   6.684  1.9885 -1.7366 -2.4136
  909MOL0     H25442  10.616   1.726   6.700 -1.7505 -1.3118  0.2053
  910MOL0     O25443   1.039   2.900   3.486  1.2873  0.5359  0.2157
  910MOL0     C25444   0.930   2.865   3.446  0.4655  0.4224 -0.1592
  910MOL0     O25445   0.810   2.899   3.502 -0.2808 -0.4953  1.3776
  910MOL0     C25446   0.812   3.005   3.588 -0.1223  0.3988 -0.8870
  910MOL0     C25447   0.859   3.132   3.556  1.1567 -0.3650  0.1774
  910MOL0     C25448   0.858   3.235   3.650  0.1933  0.8079  0.4374
  910MOL0     C25449   0.829   3.207   3.784  0.1396  1.0641  1.2835
  910MOL0     O25450   0.829   3.297   3.881 -0.1421 -0.9918 -0.0890
  910MOL0     C25451   0.705   3.354   3.924  0.3627  0.4284 -0.3375
  910MOL0     C25452   0.737   3.496   3.985 -0.7712  0.6361  0.6450
  910MOL0     C25453   0.777   3.595   3.873  0.3373 -0.2951 -0.0029
  910MOL0     C25454   0.662   3.654   3.801  0.6167 -0.0585  0.6638
  910MOL0     C25455   0.703   3.758   3.702 -0.1937 -0.7882  0.1000
  910MOL0     C25456   0.574   3.826   3.649 -0.6180  0.5235 -0.0383
  910MOL0     C25457   0.605   3.900   3.522 -0.6243 -0.1735  0.5002
  910MOL0     C25458   0.674   4.038   3.535 -0.5243  0.7299  0.7908
  910MOL0     N25459   0.657   4.124   3.415 -0.5483  0.5264 -0.2922
  910MOL0     C25460   0.682   4.264   3.411 -0.2422 -0.3309 -0.1877
  910MOL0     C25461   0.616   4.314   3.298 -1.1518  0.4229 -0.1837
  910MOL0     C25462   0.613   4.456   3.253  0.6996  0.3535  0.0245
  910MOL0     C25463   0.736   4.466   3.163 -0.0576  0.2192 -0.2836
  910MOL0     C25464   0.741   4.397   3.027  0.0528 -0.0023 -0.0831
  910MOL0     C25465   0.630   4.444   2.935 -0.3934  0.0384 -0.0907
  910MOL0     O25466   0.651   4.380   2.812  0.5114  0.5086  0.0282
  910MOL0     C25467   0.563   4.409   2.708 -0.1803 -0.2347 -0.1889
  910MOL0     C25468   0.576   4.342   2.589 -0.1947  0.1229  0.1857
  910MOL0     C25469   0.482   4.354   2.481  0.2740  0.1548  0.0011
  910MOL0     C25470   0.506   4.255   2.363 -1.0593 -0.6378  0.1005
  910MOL0     C25471   0.376   4.442   2.491 -0.0533  0.3426 -0.6505
  910MOL0     C25472   0.293   4.478   2.369  1.3361 -0.4484  0.7248
  910MOL0     O25473   0.212   4.589   2.388  0.2765  0.0163 -1.0843
  910MOL0     C25474   0.155   4.642   2.282  0.6206 -0.8838  1.2754
  910MOL0     C25475   0.083   4.571   2.189 -0.0543 -0.3702 -0.8197
  910MOL0     C25476   0.022   4.640   2.084 -0.1848  1.0360 -1.0072
  910MOL0     C25477   0.043   4.774   2.060  0.0408 -0.3684 -0.0438
  910MOL0     O25478  -0.011   4.827   1.943  0.1050  0.6625  0.1474
  910MOL0     C25479  -0.001   4.974   1.919  0.0483  0.6278  0.2513
  910MOL0     C25480  -0.137   5.035   1.957  0.3904  0.0192  0.1638
  910MOL0     C25481  -0.250   4.980   1.865 -0.0818 -0.0335 -0.1493
  910MOL0     C25482  -0.386   5.045   1.888  0.2543  0.6910  0.4812
  910MOL0     C25483  -0.400   5.186   1.837 -0.4221  0.3986  0.8123
  910MOL0     C25484  -0.428   5.186   1.680  0.2169  0.4318 -0.6761
  910MOL0     C25485  -0.453   5.325   1.620  0.2245 -0.9126 -0.2561
  910MOL0     C25486  -0.330   5.407   1.611  0.1329  1.0328 -0.1140
  910MOL0    Cl25487  -0.201   5.330   1.502  0.1514 -0.4517 -0.8252
  910MOL0     C25488   0.114   4.846   2.157 -0.3557  0.7016  0.9720
  910MOL0     C25489   0.169   4.784   2.270  0.1368  0.8340 -0.4054
  910MOL0     O25490   0.306   4.420   2.263 -0.5953 -0.0536 -0.2178
  910MOL0     C25491   0.367   4.515   2.614 -0.7027  0.3585  0.4716
  910MOL0     C25492   0.459   4.493   2.723 -0.1583 -0.5012 -0.4991
  910MOL0     N25493   0.547   4.212   3.248  0.7593  0.3023 -0.5865
  910MOL0     N25494   0.571   4.106   3.307 -0.6495 -0.4384 -1.4031
  910MOL0     C25495   0.787   3.076   3.814 -1.0981 -0.5314 -1.1508
  910MOL0     C25496   0.781   2.972   3.721  0.3494 -0.1670 -0.6171
  910MOL0     C25497   0.926   2.748   3.347 -0.1341  0.2177 -0.4913
  910MOL0     C25498   1.051   2.703   3.289 -0.1151 -0.3228  0.1218
  910MOL0     C25499   1.057   2.608   3.184  0.6396  0.2965 -0.6820
  910MOL0     C25500   0.936   2.551   3.130  0.1379  0.3068  0.6481
  910MOL0     O25501   0.922   2.464   3.023 -0.5768  0.2238 -0.9341
  910MOL0     C25502   1.033   2.457   2.939 -1.0608  0.1758  1.1303
  910MOL0     C25503   1.020   2.352   2.825  0.5862 -0.2601  0.2843
  910MOL0     C25504   0.940   2.229   2.879 -0.3207 -0.7626 -0.2744
  910MOL0     C25505   0.939   2.130   2.774 -0.2793  0.3816  0.0131
  910MOL0     C25506   0.835   2.026   2.784  0.3217  0.5010  0.0019
  910MOL0     C25507   0.758   1.931   2.787 -0.7728 -0.0605  0.2442
  910MOL0     C25508   0.814   2.597   3.184 -0.5583  0.5311 -0.3308
  910MOL0     C25509   0.811   2.696   3.289  0.1410 -0.2855 -1.2219
  910MOL0     C25510   0.668   2.734   3.330  0.8566  0.1505  0.0788
  910MOL0     H25511   0.892   3.150   3.454 -0.1463  1.2311 -0.0068
  910MOL0     H25512   0.865   3.337   3.613 -0.7780  0.5699 -0.4650
  910MOL0     H25513   0.669   3.288   4.004 -2.0770 -2.2796 -3.3754
  910MOL0     H25514   0.628   3.344   3.848  1.9022 -0.7044 -1.8272
  910MOL0     H25515   0.652   3.537   4.041 -1.2216  1.4165 -0.5752
  910MOL0     H25516   0.815   3.469   4.057 -0.0021 -2.9703 -1.3278
  910MOL0     H25517   0.834   3.675   3.922  1.3078 -1.6160  1.1205
  910MOL0     H25518   0.839   3.550   3.795  0.1206 -0.4769 -0.0689
  910MOL0     H25519   0.624   3.564   3.752 -0.3468  0.2619  0.7879
  910MOL0     H25520   0.587   3.689   3.873  1.7018  0.5536  1.5242
  910MOL0     H25521   0.747   3.706   3.616 -1.0476 -0.0326 -0.8264
  910MOL0     H25522   0.779   3.826   3.741  0.4389 -0.9991 -0.7252
  910MOL0     H25523   0.507   3.743   3.625 -0.3824  1.2303 -3.7564
  910MOL0     H25524   0.522   3.902   3.708 -1.3324  2.4260 -2.9136
  910MOL0     H25525   0.509   3.934   3.480  1.0409  0.2489 -3.4616
  910MOL0     H25526   0.656   3.833   3.451 -0.8080  0.0035  0.1973
  910MOL0     H25527   0.626   4.088   3.620 -3.3991  0.5027 -0.5848
  910MOL0     H25528   0.781   4.019   3.550 -0.1591 -0.3265 -2.3990
  910MOL0     H25529   0.733   4.323   3.486  0.9182 -0.2681 -0.9987
  910MOL0     H25530   0.618   4.532   3.332 -0.1608 -0.6607  1.0967
  910MOL0     H25531   0.523   4.460   3.191 -0.7593 -3.6215  1.5643
  910MOL0     H25532   0.746   4.572   3.135 -0.0981 -0.0599 -1.3936
  910MOL0     H25533   0.819   4.429   3.223  0.8625 -0.1004 -1.7128
  910MOL0     H25534   0.837   4.420   2.980  0.2329 -1.5250 -0.5114
  910MOL0     H25535   0.730   4.289   3.036  2.3763 -0.5541 -2.5245
  910MOL0     H25536   0.538   4.408   2.983  1.2263 -3.5196  0.7161
  910MOL0     H25537   0.626   4.552   2.918 -1.8661 -0.3895 -3.0967
  910MOL0     H25538   0.652   4.265   2.577 -0.8809 -0.5241 -0.1002
  910MOL0     H25539   0.419   4.194   2.337  0.6998 -2.0915 -2.8836
  910MOL0     H25540   0.593   4.192   2.383 -0.7304  0.3951  2.2402
  910MOL0     H25541   0.529   4.328   2.285 -0.4436 -1.0258 -0.0882
  910MOL0     H25542   0.077   4.462   2.193 -0.4497 -0.3409  2.5643
  910MOL0     H25543  -0.054   4.593   2.023 -1.5559 -1.2066  2.1530
  910MOL0     H25544   0.078   5.024   1.976 -1.8353 -1.5448  5.2697
  910MOL0     H25545   0.000   5.004   1.814 -0.8485  1.1280  0.3750
  910MOL0     H25546  -0.157   4.990   2.054  0.6735  2.3488  1.3904
  910MOL0     H25547  -0.146   5.144   1.966  1.4678  0.4945 -3.0277
  910MOL0     H25548  -0.268   4.872   1.868 -0.9276  0.0533 -1.2244
  910MOL0     H25549  -0.216   4.997   1.762 -0.1620 -2.5864 -0.6501
  910MOL0     H25550  -0.409   5.043   1.995  0.2458  1.7070  0.5144
  910MOL0     H25551  -0.455   4.983   1.830  1.6630  0.5279 -1.0927
  910MOL0     H25552  -0.492   5.216   1.888 -0.5005  0.4107  0.6621
  910MOL0     H25553  -0.307   5.241   1.855 -0.4552  0.6534  0.2025
  910MOL0     H25554  -0.508   5.114   1.662  0.1890  0.6967 -1.6541
  910MOL0     H25555  -0.348   5.138   1.623  0.5024  1.8172 -1.4773
  910MOL0     H25556  -0.529   5.378   1.678  0.0145 -0.1584 -1.1978
  910MOL0     H25557  -0.482   5.314   1.515 -0.2868  0.9200 -0.3326
  910MOL0     H25558  -0.282   5.411   1.709  0.4152 -0.3184 -0.1766
  910MOL0     H25559  -0.359   5.509   1.586  1.0262  1.9128  2.1690
  910MOL0     H25560   0.149   4.949   2.149 -1.7713  1.2026  1.0296
  910MOL0     H25561   0.219   4.839   2.349  1.7313 -2.4645  1.1053
  910MOL0     H25562   0.293   4.595   2.620 -2.2795 -0.9171 -0.8723
  910MOL0     H25563   0.446   4.562   2.805  0.8085 -0.7609 -0.1147
  910MOL0     H25564   0.783   3.052   3.919  2.7911  0.6560 -0.5747
  910MOL0     H25565   0.759   2.876   3.765 -1.2983  1.2938  2.0435
  910MOL0     H25566   1.149   2.737   3.318  0.4912 -1.2014 -0.8123
  910MOL0     H25567   1.155   2.566   3.165  0.1724 -2.6693  2.3660
  910MOL0     H25568   1.060   2.554   2.895  0.2839 -0.5793  0.2329
  910MOL0     H25569   1.120   2.410   2.985  0.4103 -3.0570 -4.0868
  910MOL0     H25570   1.115   2.310   2.793  0.8219  0.0733  0.5348
  910MOL0     H25571   0.958   2.379   2.739 -0.6029 -1.5469  0.7030
  910MOL0     H25572   0.997   2.196   2.966 -0.0530 -1.4230 -0.6956
  910MOL0     H25573   0.843   2.268   2.911  0.1694  0.2311  0.0621
  910MOL0     H25574   1.041   2.092   2.771 -0.7126 -0.8321 -1.9581
  910MOL0     H25575   0.910   2.176   2.679 -0.1040  0.4574 -0.0042
  910MOL0     H25576   0.691   1.847   2.777 -1.7427  0.8244 -1.1396
  910MOL0     H25577   0.721   2.560   3.140 -1.2994  0.6914  1.0516
  910MOL0     H25578   0.589   2.696   3.265  2.2678 -1.4938 -0.7474
  910MOL0     H25579   0.652   2.698   3.432  1.6497 -0.7467 -0.1053
  910MOL0     H25580   0.654   2.843   3.334  1.4912  0.2475 -0.2802
  911MOL0     O25581  10.772   0.780   2.988 -0.6996  0.2436  0.2025
  911MOL0     C25582  10.665   0.789   2.934  0.7725 -0.4062 -0.1067
  911MOL0     O25583  10.569   0.694   2.937  1.0258 -0.1718 -0.5755
  911MOL0     C25584  10.625   0.568   2.934 -0.1988 -0.4114  0.4856
  911MOL0     C25585  10.665   0.495   3.049  0.2611 -0.4543 -0.2794
  911MOL0     C25586  10.716   0.366   3.037 -1.5678  0.7528  0.0109
  911MOL0     C25587  10.768   0.322   2.910 -0.3194 -0.4474 -1.2006
  911MOL0     O25588  10.827   0.200   2.918  0.5246 -1.3247  0.0837
  911MOL0     C25589  10.861   0.143   2.787 -0.1640  0.3968 -0.0170
  911MOL0     C25590  10.908   0.006   2.807 -0.1770  0.2130  1.1787
  911MOL0     C25591  11.018  -0.026   2.916 -0.3269 -0.2791  0.6372
  911MOL0     C25592  11.063  -0.175   2.916 -0.6836  0.0205  0.0582
  911MOL0     C25593  11.147  -0.217   3.052  0.6707  0.4711 -0.2280
  911MOL0     C25594  11.099  -0.358   3.089 -0.3379  0.5964  0.0866
  911MOL0     C25595  11.168  -0.414   3.219 -0.6857  0.7867 -0.0543
  911MOL0     C25596  11.321  -0.428   3.194  0.6341 -0.6816 -0.2326
  911MOL0     N25597  11.349  -0.511   3.083  0.3379 -0.2994  0.0919
  911MOL0     C25598  11.306  -0.643   3.063  0.1023  0.3725 -0.3095
  911MOL0     C25599  11.354  -0.689   2.943 -0.5620  0.3058  1.2314
  911MOL0     C25600  11.352  -0.832   2.900 -0.7044 -0.4114  0.8299
  911MOL0     C25601  11.257  -0.854   2.777 -0.8800 -0.0807  0.0791
  911MOL0     C25602  11.110  -0.838   2.812 -0.1559  0.7616 -0.3215
  911MOL0     C25603  11.063  -0.944   2.917 -0.3393 -0.6109 -0.9448
  911MOL0     O25604  10.938  -0.898   2.965 -0.4158 -0.2963 -0.4439
  911MOL0     C25605  10.838  -0.985   3.002  0.1575  0.1086  0.0007
  911MOL0     C25606  10.842  -1.125   2.986  0.2527  0.2361 -0.6420
  911MOL0     C25607  10.737  -1.206   3.041  0.0652  0.3723  0.1905
  911MOL0     C25608  10.743  -1.356   3.023  0.2045 -0.0669 -0.4013
  911MOL0     C25609  10.639  -1.153   3.118  0.1385 -0.4521  0.1647
  911MOL0     C25610  10.526  -1.236   3.178  0.2419 -1.1620  0.0494
  911MOL0     O25611  10.465  -1.322   3.091 -0.2366  0.2688 -0.4083
  911MOL0     C25612  10.364  -1.397   3.140 -0.1626 -1.0936  0.2284
  911MOL0     C25613  10.372  -1.510   3.225 -0.9991  0.1434 -0.1738
  911MOL0     C25614  10.255  -1.576   3.267  0.7002 -0.1295  0.7183
  911MOL0     C25615  10.131  -1.538   3.211  0.3992 -0.2358 -0.7365
  911MOL0     O25616  10.009  -1.592   3.253 -0.8748  1.3926  0.2645
  911MOL0     C25617   9.980  -1.729   3.208 -0.2805 -0.4804 -0.1293
  911MOL0     C25618   9.830  -1.745   3.208  0.4328  0.0505 -0.4972
  911MOL0     C25619   9.744  -1.641   3.147  0.5367 -0.5283  0.9104
  911MOL0     C25620   9.792  -1.611   2.999  1.1201 -0.6705 -0.1214
  911MOL0     C25621   9.694  -1.522   2.927 -0.5299  0.1805  0.3545
  911MOL0     C25622   9.754  -1.460   2.797 -0.1132 -0.3383 -0.2214
  911MOL0     C25623   9.871  -1.356   2.809  0.2345  0.2028  0.5875
  911MOL0     C25624   9.827  -1.214   2.860  0.5231 -0.0902 -0.2310
  911MOL0    Cl25625   9.975  -1.128   2.923 -0.3859  0.2732 -0.6521
  911MOL0     C25626  10.127  -1.425   3.137 -0.4121  0.3877 -0.2049
  911MOL0     C25627  10.244  -1.354   3.097  0.7244 -0.0270 -1.8302
  911MOL0     O25628  10.496  -1.213   3.292 -0.0251  0.3297 -0.5650
  911MOL0     C25629  10.625  -1.013   3.122  0.5994 -0.1467  1.8482
  911MOL0     C25630  10.730  -0.931   3.063  0.5199  1.3021 -0.4137
  911MOL0     N25631  11.422  -0.576   2.890  0.6888  0.1717 -0.1660
  911MOL0     N25632  11.424  -0.479   2.975  0.4143  0.6280  0.1755
  911MOL0     C25633  10.741   0.402   2.800 -0.1848  0.6730  1.1120
  911MOL0     C25634  10.671   0.525   2.801  0.4802  0.0954  0.3310
  911MOL0     C25635  10.628   0.904   2.851  0.1982  0.6756  0.2923
  911MOL0     C25636  10.493   0.895   2.776 -0.3659  0.3511  0.2101
  911MOL0     C25637  10.454   0.998   2.694  0.9860 -0.0418 -0.3427
  911MOL0     C25638  10.528   1.111   2.675 -1.4683 -0.0540  0.4971
  911MOL0     O25639  10.480   1.205   2.580  0.1113 -0.3715 -0.8914
  911MOL0     C25640  10.435   1.327   2.635  0.3435  0.4772 -0.0432
  911MOL0     C25641  10.309   1.307   2.712  0.9288 -0.1582 -0.4518
  911MOL0     C25642  10.239   1.441   2.770  0.0768 -0.2080  0.1685
  911MOL0     C25643  10.095   1.428   2.818 -0.4704 -0.8912  0.2045
  911MOL0     C25644  10.004   1.469   2.716 -0.1676  0.9116 -0.0237
  911MOL0     C25645   9.945   1.495   2.615 -0.0658 -0.1841  1.1913
  911MOL0     C25646  10.645   1.121   2.755 -0.2975 -0.7958  0.5634
  911MOL0     C25647  10.699   1.031   2.838 -0.4205  1.1097  0.0538
  911MOL0     C25648  10.830   1.059   2.900 -0.7088  1.2752  0.0797
  911MOL0     H25649  10.646   0.537   3.147 -1.0310  0.1212 -0.7483
  911MOL0     H25650  10.727   0.305   3.126  0.2039  2.2309  0.8799
  911MOL0     H25651  10.945   0.200   2.746  0.0328  1.2369  1.4409
  911MOL0     H25652  10.779   0.147   2.715  0.7899  0.0198 -1.1461
  911MOL0     H25653  10.818  -0.053   2.827 -1.1767  0.2536 -2.4498
  911MOL0     H25654  10.935  -0.047   2.715 -1.2120  0.5711  0.6520
  911MOL0     H25655  11.096   0.046   2.890 -1.3237  1.5075  2.3212
  911MOL0     H25656  10.980  -0.012   3.018  0.5791 -2.4966  1.3310
  911MOL0     H25657  10.971  -0.234   2.905  0.1638 -1.1245 -1.2069
  911MOL0     H25658  11.127  -0.202   2.832 -1.0485 -3.8885  0.8440
  911MOL0     H25659  11.132  -0.146   3.133 -0.3710 -1.2222  1.1240
  911MOL0     H25660  11.250  -0.225   3.017  0.8694  2.9725 -0.3642
  911MOL0     H25661  10.996  -0.336   3.121 -0.7906  0.1451 -1.0149
  911MOL0     H25662  11.098  -0.435   3.012 -2.8079 -0.2431  0.8576
  911MOL0     H25663  11.129  -0.512   3.246 -0.6170  0.5051 -0.9294
  911MOL0     H25664  11.157  -0.345   3.303 -0.8028  0.3957  0.2517
  911MOL0     H25665  11.367  -0.330   3.186  0.2959 -0.4670  0.3523
  911MOL0     H25666  11.355  -0.480   3.285 -2.6010 -1.7426  0.5199
  911MOL0     H25667  11.250  -0.704   3.133  0.8107  1.2968  1.1184
  911MOL0     H25668  11.333  -0.900   2.984 -1.1507 -1.3781 -0.0276
  911MOL0     H25669  11.454  -0.858   2.871 -1.6027 -3.8413  0.2711
  911MOL0     H25670  11.294  -0.783   2.702  0.8121 -0.7446  0.2620
  911MOL0     H25671  11.270  -0.950   2.726  1.4662  0.8292 -1.2043
  911MOL0     H25672  11.085  -0.733   2.829  0.3887  1.2103 -2.0817
  911MOL0     H25673  11.059  -0.869   2.720 -0.4656 -3.3115  1.0054
  911MOL0     H25674  11.058  -1.043   2.870  1.4886 -0.4956 -1.4608
  911MOL0     H25675  11.127  -0.957   3.005 -0.0501  0.4814 -0.9780
  911MOL0     H25676  10.925  -1.185   2.950  1.4202  2.0051 -0.9767
  911MOL0     H25677  10.836  -1.396   2.982  0.4696  0.3966 -0.2594
  911MOL0     H25678  10.680  -1.379   2.937  3.6008 -2.8058 -2.4241
  911MOL0     H25679  10.712  -1.414   3.111 -1.4621  0.5156 -0.5788
  911MOL0     H25680  10.466  -1.545   3.267 -0.8313  0.2863 -0.4304
  911MOL0     H25681  10.263  -1.653   3.343  1.1542  0.4605  1.2705
  911MOL0     H25682   9.995  -1.738   3.100 -2.0621 -0.0635 -0.4462
  911MOL0     H25683  10.043  -1.803   3.259  0.7173 -0.3997 -1.2131
  911MOL0     H25684   9.809  -1.843   3.163 -0.3969  0.4967 -1.1034
  911MOL0     H25685   9.789  -1.755   3.309  1.1322 -0.0367 -0.2186
  911MOL0     H25686   9.740  -1.556   3.217 -2.5575  0.4233 -0.2412
  911MOL0     H25687   9.640  -1.676   3.149 -0.4252  1.9406 -0.8580
  911MOL0     H25688   9.793  -1.701   2.936  1.2633 -1.5258  1.0615
  911MOL0     H25689   9.892  -1.566   2.994  0.8629 -0.0055  0.5517
  911MOL0     H25690   9.609  -1.583   2.896 -3.3790  4.2412 -0.6379
  911MOL0     H25691   9.650  -1.453   3.000 -0.3335  2.3948 -1.4897
  911MOL0     H25692   9.673  -1.417   2.738 -1.0991  1.8016  2.4427
  911MOL0     H25693   9.791  -1.539   2.731  2.9950 -1.4468  2.5617
  911MOL0     H25694   9.896  -1.349   2.703  2.8248 -0.6209  1.0541
  911MOL0     H25695   9.962  -1.389   2.860  0.6976 -0.9566 -0.9375
  911MOL0     H25696   9.771  -1.222   2.953  3.7267  0.3790  1.9054
  911MOL0     H25697   9.771  -1.167   2.778  0.8964  0.4560 -0.1838
  911MOL0     H25698  10.029  -1.388   3.107 -0.4051  1.1600  0.6893
  911MOL0     H25699  10.222  -1.274   3.028 -0.6700 -1.1027 -2.7075
  911MOL0     H25700  10.541  -0.968   3.173 -0.7857 -1.1782  0.5574
  911MOL0     H25701  10.740  -0.828   3.097 -0.1111  1.2899 -0.1765
  911MOL0     H25702  10.777   0.364   2.705  1.6497  1.6980  1.3710
  911MOL0     H25703  10.660   0.584   2.711  2.6685  1.2078  0.7168
  911MOL0     H25704  10.432   0.805   2.782  0.8334 -0.4976  0.0808
  911MOL0     H25705  10.359   0.986   2.643  0.7054  0.8416 -0.0585
  911MOL0     H25706  10.519   1.356   2.699  0.1059  0.3109  0.3527
  911MOL0     H25707  10.421   1.402   2.557 -0.7741 -0.6303 -0.9614
  911MOL0     H25708  10.331   1.240   2.796  3.9741 -0.1836 -1.1719
  911MOL0     H25709  10.248   1.245   2.646  1.2303 -2.1608  1.0536
  911MOL0     H25710  10.298   1.488   2.849  3.2119  0.5390 -2.3964
  911MOL0     H25711  10.225   1.514   2.689  0.9889 -1.1678 -0.8872
  911MOL0     H25712  10.086   1.497   2.903 -0.7499 -1.7975  0.9268
  911MOL0     H25713  10.070   1.325   2.846  0.8067 -0.9459  1.2372
  911MOL0     H25714   9.892   1.515   2.525 -0.3454  1.0921  1.6138
  911MOL0     H25715  10.688   1.218   2.735 -0.6671 -0.5054  1.1179
  911MOL0     H25716  10.917   0.993   2.890  0.4385  2.5600  1.1070
  911MOL0     H25717  10.866   1.151   2.853 -0.6945  1.0619 -0.3307
  911MOL0     H25718  10.814   1.096   3.002 -0.9563  2.1117 -0.2605
  912MOL0     O25719   6.243   5.617   5.019 -0.1663  0.3639  0.3236
  912MOL0     C25720   6.169   5.651   5.107 -0.1655 -0.4725 -0.8925
  912MOL0     O25721   6.037   5.692   5.085  0.1546  0.4172  0.3869
  912MOL0     C25722   5.988   5.678   4.957 -0.3372 -0.0486 -0.3319
  912MOL0     C25723   5.889   5.598   4.920 -1.0143  0.3189 -1.3153
  912MOL0     C25724   5.850   5.570   4.790  0.9198 -0.1758  0.0369
  912MOL0     C25725   5.911   5.645   4.687 -0.3303  0.6502  0.2455
  912MOL0     O25726   5.874   5.606   4.559  0.2526 -0.3453  1.1171
  912MOL0     C25727   5.977   5.583   4.457 -0.8421 -0.0311  0.9953
  912MOL0     C25728   6.075   5.476   4.501  0.8236 -0.4580 -0.4033
  912MOL0     C25729   6.194   5.462   4.407  0.0226  0.3350  0.0249
  912MOL0     C25730   6.149   5.403   4.271  1.0222  0.0346 -0.3385
  912MOL0     C25731   6.263   5.395   4.178 -0.1371  0.2754 -0.1473
  912MOL0     C25732   6.232   5.312   4.034 -0.2664 -1.5586 -0.4068
  912MOL0     C25733   6.354   5.335   3.946 -0.5155 -0.3902  1.1789
  912MOL0     C25734   6.481   5.279   4.001  0.3204  0.1992 -0.3726
  912MOL0     N25735   6.600   5.313   3.917  0.3723 -0.6977  0.2824
  912MOL0     C25736   6.650   5.229   3.826 -0.2838 -0.9503  1.0755
  912MOL0     C25737   6.759   5.293   3.782  0.0650  0.3150  0.0909
  912MOL0     C25738   6.872   5.243   3.704  0.5129  0.6799 -0.5023
  912MOL0     C25739   6.868   5.087   3.695 -0.0556 -0.5712  0.3524
  912MOL0     C25740   6.930   5.029   3.825  0.7865 -0.2718 -0.2485
  912MOL0     C25741   6.900   4.886   3.856 -1.3588  0.6265 -0.2644
  912MOL0     O25742   6.757   4.857   3.835 -0.4865 -0.2683 -1.0996
  912MOL0     C25743   6.659   4.859   3.929 -0.4107  0.5662  0.1913
  912MOL0     C25744   6.653   4.931   4.046  0.1304 -0.2909 -0.8116
  912MOL0     C25745   6.539   4.957   4.118  0.4873  0.4244 -1.1164
  912MOL0     C25746   6.545   5.038   4.245 -0.1978  0.2717 -0.3322
  912MOL0     C25747   6.433   4.867   4.094  0.1997 -0.6910  0.5382
  912MOL0     C25748   6.312   4.867   4.174 -0.0522 -0.1485  0.7953
  912MOL0     O25749   6.251   4.981   4.181  0.4463 -0.0780  0.0765
  912MOL0     C25750   6.121   4.988   4.241 -0.0683  0.2461  0.5544
  912MOL0     C25751   6.006   4.936   4.189 -0.3453  0.0005 -0.1718
  912MOL0     C25752   5.880   4.945   4.255  0.6840 -0.6836 -0.1777
  912MOL0     C25753   5.877   5.011   4.379 -0.0136 -0.4663 -0.7915
  912MOL0     O25754   5.762   5.010   4.458  0.5016  0.2813 -0.4391
  912MOL0     C25755   5.642   5.040   4.384 -0.2399 -0.3114  0.2636
  912MOL0     C25756   5.558   5.144   4.453 -0.0181  0.2461 -0.2972
  912MOL0     C25757   5.633   5.265   4.513 -0.4396 -0.2228 -0.3814
  912MOL0     C25758   5.680   5.360   4.395 -0.1609  0.7490 -0.2436
  912MOL0     C25759   5.571   5.410   4.298 -0.6809 -0.1978  0.6252
  912MOL0     C25760   5.631   5.486   4.178 -0.3475 -0.6677 -1.0612
  912MOL0     C25761   5.535   5.534   4.069 -0.1415 -0.7223 -0.7712
  912MOL0     C25762   5.427   5.625   4.131 -0.3736 -0.0923  0.4548
  912MOL0    Cl25763   5.522   5.764   4.194  0.2841  0.2047 -0.0500
  912MOL0     C25764   6.001   5.048   4.436  0.2048  0.2578 -0.1496
  912MOL0     C25765   6.125   5.036   4.364 -0.8274  0.2335  0.0333
  912MOL0     O25766   6.269   4.755   4.214  0.1874 -0.3055 -0.2201
  912MOL0     C25767   6.439   4.790   3.977 -0.2349 -0.7025  0.0130
  912MOL0     C25768   6.550   4.788   3.891  0.7394  0.6261  1.1117
  912MOL0     N25769   6.782   5.406   3.856  0.3816 -0.0367 -0.3696
  912MOL0     N25770   6.680   5.425   3.938  0.0143  0.3882  1.1593
  912MOL0     C25771   5.997   5.743   4.726 -1.3991 -0.4066  0.7485
  912MOL0     C25772   6.052   5.750   4.852  0.6585  0.1497 -0.1349
  912MOL0     C25773   6.212   5.670   5.251  0.1021 -0.6411  0.0866
  912MOL0     C25774   6.121   5.727   5.340  0.0523  0.3562 -0.9483
  912MOL0     C25775   6.160   5.755   5.474 -0.0693 -0.5031  0.6536
  912MOL0     C25776   6.281   5.724   5.524 -0.0121  1.1484  0.2734
  912MOL0     O25777   6.309   5.750   5.648 -0.1094 -0.3947  0.3210
  912MOL0     C25778   6.278   5.643   5.743  0.5461 -0.1287  0.8916
  912MOL0     C25779   6.311   5.689   5.884 -0.0170  0.3200  0.3054
  912MOL0     C25780   6.455   5.675   5.912 -0.4628  0.4220 -0.3618
  912MOL0     C25781   6.525   5.800   5.954  0.1002 -0.3710  0.1005
  912MOL0     C25782   6.484   5.844   6.090 -0.9046 -0.8343 -0.0306
  912MOL0     C25783   6.447   5.891   6.200 -0.3053 -0.0683 -0.6507
  912MOL0     C25784   6.359   5.642   5.440  0.0942  0.4252 -0.9946
  912MOL0     C25785   6.332   5.620   5.303  0.0419 -0.7797  0.2419
  912MOL0     C25786   6.441   5.542   5.229 -0.7475  0.7628 -0.1069
  912MOL0     H25787   5.848   5.550   5.008  0.6309  0.5987 -0.3593
  912MOL0     H25788   5.770   5.499   4.773 -1.5443  1.4325  3.5861
  912MOL0     H25789   6.039   5.670   4.434  2.0748 -2.8185 -2.9577
  912MOL0     H25790   5.932   5.539   4.368  0.2300  0.4425  0.2079
  912MOL0     H25791   6.104   5.495   4.605 -1.8334 -4.0683  1.1894
  912MOL0     H25792   6.021   5.382   4.509 -0.8722  0.5170  0.1485
  912MOL0     H25793   6.246   5.557   4.395  1.7266 -0.5946 -0.3110
  912MOL0     H25794   6.265   5.393   4.452 -0.4817 -0.6293 -0.6205
  912MOL0     H25795   6.091   5.312   4.284 -3.6670  2.6976 -0.1688
  912MOL0     H25796   6.081   5.474   4.223  2.2640 -0.3969 -2.9003
  912MOL0     H25797   6.350   5.353   4.228 -1.9847 -3.0148  0.5692
  912MOL0     H25798   6.272   5.501   4.149 -2.7531  0.5275 -0.3280
  912MOL0     H25799   6.208   5.207   4.054 -1.5171 -1.5914 -1.8161
  912MOL0     H25800   6.148   5.366   3.988 -0.9974  1.5769  3.9300
  912MOL0     H25801   6.372   5.442   3.936 -0.9736 -0.4394 -0.3929
  912MOL0     H25802   6.346   5.279   3.852  2.3484  1.1229 -0.0648
  912MOL0     H25803   6.503   5.315   4.102 -1.6285 -1.4500  0.6919
  912MOL0     H25804   6.467   5.171   4.003 -0.5118  0.1105  5.6874
  912MOL0     H25805   6.624   5.128   3.799  1.6239 -1.7018  1.9196
  912MOL0     H25806   6.970   5.279   3.735  0.2799  0.3228  0.7027
  912MOL0     H25807   6.852   5.279   3.603 -1.1788  1.0498 -0.0777
  912MOL0     H25808   6.772   5.051   3.658 -0.9827  0.9482  1.1725
  912MOL0     H25809   6.941   5.067   3.616  0.0048  0.9334 -0.0179
  912MOL0     H25810   7.038   5.035   3.810  0.9893  0.9311  1.3792
  912MOL0     H25811   6.904   5.095   3.909 -1.0459 -0.3902 -0.6680
  912MOL0     H25812   6.968   4.831   3.790  2.0237 -0.6731  3.8733
  912MOL0     H25813   6.942   4.867   3.955  0.6882  1.2622 -0.9668
  912MOL0     H25814   6.742   4.983   4.081 -0.4822  0.3345 -0.1374
  912MOL0     H25815   6.551   4.970   4.330 -0.6536 -1.4743 -1.6539
  912MOL0     H25816   6.457   5.103   4.256 -1.7149 -1.3429 -2.3088
  912MOL0     H25817   6.636   5.099   4.246 -0.4406  0.6421  0.2492
  912MOL0     H25818   6.006   4.877   4.098  0.0614 -0.9599  0.4365
  912MOL0     H25819   5.787   4.922   4.205  0.3325 -2.0129  1.0438
  912MOL0     H25820   5.672   5.088   4.290 -1.8083  0.9646  0.3784
  912MOL0     H25821   5.589   4.951   4.348 -2.5621  1.4084 -0.8950
  912MOL0     H25822   5.476   5.177   4.389  0.2696  1.7483  0.0593
  912MOL0     H25823   5.512   5.083   4.531  0.8158  0.9341  0.7686
  912MOL0     H25824   5.714   5.214   4.566 -0.8204 -1.0014 -0.5210
  912MOL0     H25825   5.573   5.322   4.584  2.0774 -0.7908  2.3916
  912MOL0     H25826   5.770   5.321   4.348 -0.9855 -4.3169  1.7529
  912MOL0     H25827   5.715   5.449   4.447 -0.0597 -0.5843  2.1102
  912MOL0     H25828   5.511   5.323   4.267  1.3726 -1.2268 -0.7345
  912MOL0     H25829   5.513   5.480   4.358 -2.3765  0.3835 -1.5343
  912MOL0     H25830   5.720   5.441   4.134  1.7310  2.8517 -0.7901
  912MOL0     H25831   5.678   5.573   4.224 -0.8547 -0.9727  0.0830
  912MOL0     H25832   5.501   5.443   4.019 -0.4695 -0.8982 -0.2302
  912MOL0     H25833   5.571   5.601   3.991 -2.0720  1.1815 -0.1258
  912MOL0     H25834   5.361   5.571   4.199 -1.8361 -1.6407 -2.0292
  912MOL0     H25835   5.349   5.654   4.061 -1.0562 -3.0731 -0.1752
  912MOL0     H25836   5.996   5.075   4.541 -3.0173  0.0295 -0.1418
  912MOL0     H25837   6.215   5.067   4.417 -0.9697  2.9240 -1.1565
  912MOL0     H25838   6.348   4.743   3.942  0.9684 -3.0033 -0.2264
  912MOL0     H25839   6.544   4.732   3.798 -0.5729  2.2799  0.1433
  912MOL0     H25840   6.026   5.804   4.641 -2.1035 -0.3345  0.5498
  912MOL0     H25841   6.147   5.798   4.874  0.9136 -0.6543  0.6044
  912MOL0     H25842   6.033   5.766   5.288  1.5047  3.9750 -0.9792
  912MOL0     H25843   6.100   5.822   5.535  2.0500  2.2816 -0.1179
  912MOL0     H25844   6.183   5.588   5.740  2.3501 -3.4938  0.8853
  912MOL0     H25845   6.343   5.560   5.716  0.5186 -0.4257  1.7205
  912MOL0     H25846   6.250   5.630   5.954 -1.4699  2.8900  1.3440
  912MOL0     H25847   6.275   5.792   5.897 -1.5968 -0.5239  3.8639
  912MOL0     H25848   6.462   5.589   5.979  1.4123  0.0500 -0.9774
  912MOL0     H25849   6.497   5.640   5.817  0.0226  0.6543 -0.2347
  912MOL0     H25850   6.500   5.881   5.885 -0.6183  0.6113  1.4689
  912MOL0     H25851   6.632   5.782   5.960 -0.4028 -3.4255  3.6624
  912MOL0     H25852   6.412   5.928   6.294  0.1980  2.6729 -1.4402
  912MOL0     H25853   6.453   5.600   5.476  0.4603  1.8710 -0.1802
  912MOL0     H25854   6.494   5.605   5.157 -0.5657  0.8692  0.1206
  912MOL0     H25855   6.506   5.503   5.307 -0.8351  1.1374  0.1561
  912MOL0     H25856   6.404   5.451   5.180 -0.6015  0.1268  0.9405
  913MOL0     O25857   9.980   9.744   6.115  1.0539 -0.8899  0.6627
  913MOL0     C25858   9.886   9.804   6.056 -0.1856 -0.1421  0.5134
  913MOL0     O25859   9.900   9.859   5.931 -0.1528 -0.5031  0.2787
  913MOL0     C25860  10.017   9.855   5.857  0.4383 -0.1084  0.6500
  913MOL0     C25861  10.109   9.755   5.852  0.9338  1.1900 -0.2029
  913MOL0     C25862  10.235   9.781   5.795  0.1183 -0.0093 -0.1237
  913MOL0     C25863  10.260   9.893   5.721 -0.5914  0.0788  0.1377
  913MOL0     O25864  10.367   9.923   5.634  0.3957 -1.1023 -0.6414
  913MOL0     C25865  10.478   9.842   5.633 -0.2143  0.1323 -0.0766
  913MOL0     C25866  10.560   9.870   5.766 -0.8573  0.5482  0.3562
  913MOL0     C25867  10.703   9.794   5.769 -0.4393  0.1549  0.2395
  913MOL0     C25868  10.796   9.836   5.880 -0.3556  0.5843 -0.3806
  913MOL0     C25869  10.761   9.739   5.994 -0.3623  0.6911  0.0149
  913MOL0     C25870  10.835   9.773   6.127  0.6583  0.2243  0.8304
  913MOL0     C25871  10.989   9.753   6.116 -0.2880  1.0105  0.4226
  913MOL0     C25872  11.081   9.772   6.229 -0.7348  0.0003 -0.6715
  913MOL0     N25873  11.060   9.895   6.299 -0.1057 -0.3162  0.7447
  913MOL0     C25874  10.948   9.927   6.378 -0.0920 -0.2335  0.5911
  913MOL0     C25875  10.964  10.060   6.405  0.0068  0.6798  0.0720
  913MOL0     C25876  10.856  10.132   6.487  0.2424 -0.5702  0.5186
  913MOL0     C25877  10.800  10.252   6.413  0.5836 -0.1430  0.0523
  913MOL0     C25878  10.677  10.302   6.481 -0.1552 -0.2871 -0.3237
  913MOL0     C25879  10.588  10.354   6.368 -0.1969  0.2586  0.3152
  913MOL0     O25880  10.493  10.445   6.422 -0.1436 -0.5947  0.4379
  913MOL0     C25881  10.386  10.392   6.494  0.0890 -1.1218 -0.0410
  913MOL0     C25882  10.318  10.483   6.576 -0.5481 -0.3521 -1.1758
  913MOL0     C25883  10.187  10.456   6.635  0.2995  0.8322  0.3490
  913MOL0     C25884  10.119  10.573   6.701 -0.3114  1.0800 -0.5659
  913MOL0     C25885  10.139  10.321   6.616  0.1150  0.1052 -0.7343
  913MOL0     C25886  10.006  10.272   6.674  0.5388  0.4763 -0.2644
  913MOL0     O25887   9.974  10.142   6.659 -0.4663  0.2056 -0.7239
  913MOL0     C25888   9.855  10.096   6.705 -0.1533 -0.5008 -0.4437
  913MOL0     C25889   9.732  10.156   6.655 -0.2892 -0.2403  0.6690
  913MOL0     C25890   9.609  10.092   6.684 -0.0512 -0.0783 -0.0288
  913MOL0     C25891   9.593   9.992   6.778 -1.1688  0.5520  0.5997
  913MOL0     O25892   9.469   9.944   6.793 -0.0405  0.6946 -0.1142
  913MOL0     C25893   9.431   9.828   6.877 -0.7196  0.6421  0.1978
  913MOL0     C25894   9.282   9.806   6.878  0.1990 -0.6330 -0.0256
  913MOL0     C25895   9.216   9.925   6.954 -0.0238  0.7176 -0.0051
  913MOL0     C25896   9.067   9.902   6.974  0.3875 -0.6085  0.3529
  913MOL0     C25897   9.019   9.989   7.081  0.0620  0.7551 -0.6614
  913MOL0     C25898   8.864   9.991   7.097 -0.0333  0.8738  0.1647
  913MOL0     C25899   8.809   9.890   7.200  0.5909  0.2841  0.1221
  913MOL0     C25900   8.851   9.748   7.171  0.4538  0.7807 -1.2695
  913MOL0    Cl25901   9.011   9.712   7.246 -0.0593 -0.4516 -0.0170
  913MOL0     C25902   9.707   9.947   6.840  0.3683  0.5336  0.2117
  913MOL0     C25903   9.835   9.996   6.794  1.0300  0.2462  0.2747
  913MOL0     O25904   9.929  10.352   6.729  0.1079  0.0911  0.0754
  913MOL0     C25905  10.212  10.227   6.544 -0.6855  1.5999 -0.9865
  913MOL0     C25906  10.338  10.259   6.499 -0.4260  0.5541 -0.0418
  913MOL0     N25907  11.083  10.118   6.361  0.2885  0.4164  0.8752
  913MOL0     N25908  11.143  10.013   6.297 -0.4866  0.7839 -0.2549
  913MOL0     C25909  10.164   9.983   5.726 -0.0123 -0.7756  0.6416
  913MOL0     C25910  10.044   9.973   5.790  0.4627 -0.0187  1.3570
  913MOL0     C25911   9.764   9.851   6.125  0.4996  0.2852 -0.5126
  913MOL0     C25912   9.648   9.885   6.049  0.7906 -0.9328  0.2323
  913MOL0     C25913   9.522   9.932   6.105  0.0830 -0.8118 -0.0989
  913MOL0     C25914   9.503   9.932   6.236  0.1776  0.0344 -0.2399
  913MOL0     O25915   9.398   9.978   6.311  0.6915 -0.3280  0.3485
  913MOL0     C25916   9.282  10.030   6.244 -0.0883  0.2778 -0.7814
  913MOL0     C25917   9.160   9.933   6.244  0.5498  0.8727 -0.2328
  913MOL0     C25918   9.071   9.931   6.365 -0.1076 -0.5961  0.0709
  913MOL0     C25919   9.121   9.826   6.465  0.8917 -0.1064  0.1262
  913MOL0     C25920   9.019   9.809   6.570 -0.4558  0.7374  0.0495
  913MOL0     C25921   8.939   9.805   6.658 -0.1970 -0.4785 -1.1451
  913MOL0     C25922   9.611   9.884   6.315 -0.6802  0.1912 -0.6280
  913MOL0     C25923   9.740   9.853   6.271 -0.1773  0.6651 -0.0780
  913MOL0     C25924   9.856   9.829   6.369  0.9250  0.7147 -0.3540
  913MOL0     H25925  10.090   9.654   5.887  1.2515  1.7914  1.8313
  913MOL0     H25926  10.304   9.697   5.789  0.0812 -0.1115  0.6998
  913MOL0     H25927  10.546   9.853   5.548  0.9893  0.6090  0.9060
  913MOL0     H25928  10.443   9.739   5.618  1.4726 -0.0583 -3.8460
  913MOL0     H25929  10.567   9.979   5.775 -4.6510  0.9182  0.2711
  913MOL0     H25930  10.512   9.831   5.856  2.2220 -0.2084  1.8003
  913MOL0     H25931  10.683   9.686   5.767 -0.2921  0.0975  1.3964
  913MOL0     H25932  10.746   9.816   5.671 -0.1693 -5.3854 -1.2196
  913MOL0     H25933  10.898   9.816   5.846  0.4410  0.4811  1.9079
  913MOL0     H25934  10.794   9.942   5.904  3.4556  0.6970 -0.0196
  913MOL0     H25935  10.793   9.646   5.947  1.7354  0.6716  1.3375
  913MOL0     H25936  10.655   9.726   6.016 -0.3535 -1.9186 -1.1780
  913MOL0     H25937  10.805   9.877   6.144 -0.5227  0.0067  0.1366
  913MOL0     H25938  10.800   9.706   6.205  1.2281 -1.3132 -0.1769
  913MOL0     H25939  11.032   9.814   6.036  0.9486 -1.0746 -0.5857
  913MOL0     H25940  11.002   9.649   6.083  0.3782  1.4341 -0.7130
  913MOL0     H25941  11.089   9.683   6.293  0.9871  1.5896  1.4471
  913MOL0     H25942  11.182   9.769   6.187 -1.1886 -1.9384 -1.7511
  913MOL0     H25943  10.859   9.867   6.395  0.3015 -0.4991  1.8674
  913MOL0     H25944  10.903  10.167   6.580  0.6904  0.9219 -0.2328
  913MOL0     H25945  10.775  10.063   6.510 -1.2667  0.8969 -0.1589
  913MOL0     H25946  10.870  10.335   6.421 -1.3276  1.4619  1.0501
  913MOL0     H25947  10.788  10.223   6.308 -0.8817 -1.6410  0.5838
  913MOL0     H25948  10.627  10.220   6.534 -0.1154 -0.0564  0.0753
  913MOL0     H25949  10.685  10.372   6.565 -2.7700 -2.0599  1.5675
  913MOL0     H25950  10.652  10.411   6.300  1.4317 -1.6936  0.1284
  913MOL0     H25951  10.537  10.271   6.320 -0.2248  0.6005 -0.2579
  913MOL0     H25952  10.372  10.577   6.583  0.6332 -1.0150 -1.0209
  913MOL0     H25953  10.022  10.583   6.649  0.6015 -2.7125 -3.4820
  913MOL0     H25954  10.177  10.665   6.689  2.4055 -0.2255  1.5116
  913MOL0     H25955  10.113  10.558   6.809  1.9853  3.5497  0.0134
  913MOL0     H25956   9.735  10.229   6.574  1.9993 -2.5925 -1.5716
  913MOL0     H25957   9.518  10.132   6.640  0.6499 -0.4394 -1.9164
  913MOL0     H25958   9.484   9.736   6.850  0.5529  1.7791 -1.3802
  913MOL0     H25959   9.458   9.848   6.981 -2.4194 -2.6977  1.4429
  913MOL0     H25960   9.241   9.806   6.776 -0.9203  3.4771  0.2369
  913MOL0     H25961   9.257   9.712   6.927 -1.3538 -1.1222 -1.6352
  913MOL0     H25962   9.228  10.020   6.903  0.0379  0.0298 -1.3161
  913MOL0     H25963   9.271   9.938   7.048  1.6996 -1.1718 -0.6625
  913MOL0     H25964   9.052   9.804   7.019  0.5246 -0.0979  1.5451
  913MOL0     H25965   9.007   9.918   6.883  1.2895 -0.0179 -0.1551
  913MOL0     H25966   9.070   9.971   7.176 -0.1879  2.9950 -0.0394
  913MOL0     H25967   9.053  10.092   7.064 -0.0113  0.7245 -1.0071
  913MOL0     H25968   8.813   9.961   7.005 -0.2472  0.9201  0.2666
  913MOL0     H25969   8.816  10.086   7.122 -0.4800 -0.2713  4.4288
  913MOL0     H25970   8.700   9.900   7.198  0.7577  2.4874 -0.6029
  913MOL0     H25971   8.850   9.906   7.300  1.2175 -1.7946  0.2356
  913MOL0     H25972   8.857   9.730   7.063 -0.1529 -2.4185 -0.8662
  913MOL0     H25973   8.781   9.677   7.216  3.1317 -1.7390 -0.8631
  913MOL0     H25974   9.700   9.869   6.915 -0.1302 -1.0975 -1.4616
  913MOL0     H25975   9.912   9.949   6.853 -1.1913 -2.4934  1.1932
  913MOL0     H25976  10.170  10.133   6.511  1.0360  0.8917 -1.2672
  913MOL0     H25977  10.400  10.188   6.445  0.6336  0.4026  1.3036
  913MOL0     H25978  10.189  10.077   5.677 -0.5313 -0.6132  0.6876
  913MOL0     H25979   9.977  10.058   5.798 -2.4179 -1.4388 -3.3918
  913MOL0     H25980   9.650   9.862   5.943 -0.1348  1.3571 -0.3608
  913MOL0     H25981   9.446   9.981   6.045 -1.1035 -0.4149  1.6715
  913MOL0     H25982   9.258  10.127   6.288 -1.5916  1.0832 -3.1956
  913MOL0     H25983   9.297  10.053   6.139  0.9323 -1.0277 -0.9454
  913MOL0     H25984   9.184   9.832   6.208 -0.2080 -0.5727  2.9543
  913MOL0     H25985   9.089   9.975   6.172  0.6076  0.8313 -0.3139
  913MOL0     H25986   9.055  10.027   6.416 -2.5166 -0.5329 -0.6742
  913MOL0     H25987   8.966   9.914   6.340 -1.4865  3.9615  1.6207
  913MOL0     H25988   9.219   9.860   6.499  1.5043 -0.7095 -0.9878
  913MOL0     H25989   9.136   9.729   6.416  1.3732 -0.0407  0.1353
  913MOL0     H25990   8.868   9.793   6.738 -0.4525 -1.4269 -1.4992
  913MOL0     H25991   9.588   9.886   6.421 -1.2364 -1.2491 -0.7019
  913MOL0     H25992   9.937   9.764   6.334  1.0231  1.1992 -1.0482
  913MOL0     H25993   9.915   9.920   6.385  1.3815  0.2854  0.4930
  913MOL0     H25994   9.810   9.806   6.466  0.4268  0.5181 -0.6326
  914MOL0     O25995   5.092  11.032  11.242 -0.5496 -0.0447  0.6269
  914MOL0     C25996   4.986  11.063  11.188 -0.2236  0.4791  0.6668
  914MOL0     O25997   4.881  11.132  11.238 -0.6595  0.1705  0.5184
  914MOL0     C25998   4.855  11.159  11.374 -0.6522  0.5718  0.8837
  914MOL0     C25999   4.963  11.161  11.463 -0.6718  0.8607 -0.3284
  914MOL0     C26000   4.940  11.181  11.602 -0.1373  1.0253  0.0592
  914MOL0     C26001   4.816  11.209  11.645  0.6315 -0.2590  0.0196
  914MOL0     O26002   4.796  11.245  11.779  0.4871  0.5124  0.3307
  914MOL0     C26003   4.814  11.140  11.877  0.9768 -0.1228 -0.3990
  914MOL0     C26004   4.772  11.185  12.019 -0.0354 -0.7690  0.4421
  914MOL0     C26005   4.624  11.206  12.024 -0.3839 -1.2718  0.2352
  914MOL0     C26006   4.556  11.061  12.041  0.3906 -0.0222 -0.2123
  914MOL0     C26007   4.410  11.068  12.094 -0.5038  0.3905  0.7262
  914MOL0     C26008   4.308  11.133  12.003  0.3198  0.1786 -1.0723
  914MOL0     C26009   4.163  11.149  12.055 -0.4153 -0.1002 -0.2219
  914MOL0     C26010   4.160  11.295  12.115 -1.0880  0.3033 -0.3728
  914MOL0     N26011   4.032  11.321  12.176 -1.0171  0.3352 -0.5434
  914MOL0     C26012   3.930  11.371  12.107  1.7090  0.7719 -0.6023
  914MOL0     C26013   3.842  11.410  12.207  0.1690  0.1113  0.2174
  914MOL0     C26014   3.712  11.496  12.182 -0.7227 -0.3955  0.2407
  914MOL0     C26015   3.752  11.645  12.220  0.3247  0.0669 -0.1974
  914MOL0     C26016   3.639  11.738  12.195 -0.3080  0.8284 -0.3159
  914MOL0     C26017   3.653  11.872  12.272  0.2813  0.2496 -0.0943
  914MOL0     O26018   3.779  11.935  12.248 -0.0083 -0.0327 -0.1062
  914MOL0     C26019   3.798  12.067  12.277 -0.7428  0.0841  0.2466
  914MOL0     C26020   3.704  12.158  12.325  0.2188 -0.2688 -0.3968
  914MOL0     C26021   3.739  12.287  12.365 -0.1363  0.0959  0.0622
  914MOL0     C26022   3.622  12.364  12.430 -0.1818 -0.0874  0.5144
  914MOL0     C26023   3.870  12.342  12.344 -0.6608  0.2027 -0.2354
  914MOL0     C26024   3.920  12.476  12.389 -0.1373 -0.9733  0.6042
  914MOL0     O26025   3.841  12.569  12.466  0.0580 -0.1099  0.6634
  914MOL0     C26026   3.911  12.674  12.526  0.1597 -0.5978  1.2439
  914MOL0     C26027   4.037  12.655  12.588  0.1943  0.2492  0.3662
  914MOL0     C26028   4.105  12.759  12.659  0.6520  0.0447 -0.3932
  914MOL0     C26029   4.039  12.887  12.666 -0.1184 -0.2167  0.9796
  914MOL0     O26030   4.094  12.982  12.749  0.6719 -0.0851 -0.1818
  914MOL0     C26031   4.152  13.078  12.652  0.7853  0.6840  0.7102
  914MOL0     C26032   4.174  13.215  12.715 -1.5367  0.6921 -0.5603
  914MOL0     C26033   4.039  13.285  12.767  0.3809  1.8619  0.9481
  914MOL0     C26034   4.062  13.434  12.820 -0.6682  0.3532  0.7409
  914MOL0     C26035   3.946  13.488  12.897 -0.5195 -0.2740 -0.3001
  914MOL0     C26036   3.968  13.623  12.970  0.6485  0.3164  0.6960
  914MOL0     C26037   4.093  13.624  13.056 -0.0212  0.2338 -0.0554
  914MOL0     C26038   4.113  13.738  13.156 -0.2944  0.2169  0.7361
  914MOL0    Cl26039   4.099  13.897  13.062 -0.2975 -0.1569 -0.4712
  914MOL0     C26040   3.912  12.906  12.612 -0.3315 -0.3704  0.5431
  914MOL0     C26041   3.857  12.805  12.523 -0.7506 -0.5279  0.2937
  914MOL0     O26042   4.028  12.507  12.340 -0.0648 -0.4254 -0.6580
  914MOL0     C26043   3.966  12.254  12.300 -0.3661  0.5928 -0.4431
  914MOL0     C26044   3.930  12.119  12.266 -0.5088 -0.2312 -1.2178
  914MOL0     N26045   3.895  11.378  12.328  0.8415 -0.3343  0.3596
  914MOL0     N26046   4.003  11.315  12.308 -0.1024  0.0294  0.4530
  914MOL0     C26047   4.712  11.208  11.558 -0.9993  0.4078 -0.2836
  914MOL0     C26048   4.727  11.177  11.422  0.6225  0.2297  0.9374
  914MOL0     C26049   4.987  11.011  11.054 -0.4351  0.3693  0.4905
  914MOL0     C26050   4.913  10.887  11.015 -0.1369 -0.2183  0.3598
  914MOL0     C26051   4.910  10.851  10.884 -0.1284 -0.2178  1.2276
  914MOL0     C26052   4.977  10.925  10.793 -0.8401  0.3508  0.0378
  914MOL0     O26053   4.998  10.900  10.655 -0.1286 -0.3595 -0.3291
  914MOL0     C26054   4.957  10.768  10.609  0.8051 -0.0480  0.7644
  914MOL0     C26055   4.993  10.756  10.464 -0.7005  0.0613  0.0176
  914MOL0     C26056   4.940  10.870  10.384 -0.4443 -0.3688  0.4202
  914MOL0     C26057   5.018  10.876  10.252 -0.7329 -0.8394  0.0255
  914MOL0     C26058   4.929  10.923  10.143  0.5763  0.0910  0.0633
  914MOL0     C26059   4.840  10.935  10.053  0.2495 -0.8559  0.6952
  914MOL0     C26060   5.056  11.030  10.834  0.5142  0.5359  0.0653
  914MOL0     C26061   5.066  11.083  10.962  0.4421  0.2436  0.2020
  914MOL0     C26062   5.158  11.206  10.995  0.3518  0.5227  0.3015
  914MOL0     H26063   5.067  11.152  11.430  0.0348  0.0572  1.9408
  914MOL0     H26064   5.029  11.176  11.663 -2.3416  0.8877  3.6065
  914MOL0     H26065   4.921  11.115  11.881  1.6892 -0.8443 -8.2115
  914MOL0     H26066   4.747  11.061  11.844  0.3705 -0.1919  0.9392
  914MOL0     H26067   4.807  11.109  12.090 -3.0739 -0.3156  2.5972
  914MOL0     H26068   4.828  11.277  12.039  0.1634 -0.4992 -1.1760
  914MOL0     H26069   4.594  11.260  12.114 -0.0234 -3.6669  1.8901
  914MOL0     H26070   4.586  11.252  11.932  3.9667 -1.2593 -1.7773
  914MOL0     H26071   4.559  11.001  11.949  3.9041 -2.7490  1.4625
  914MOL0     H26072   4.619  11.005  12.111 -1.6737 -0.8397  1.0939
  914MOL0     H26073   4.407  11.105  12.197 -0.1522 -4.7851  2.8943
  914MOL0     H26074   4.375  10.965  12.102 -1.6226  0.5435 -1.4015
  914MOL0     H26075   4.351  11.218  11.950  2.1076  0.2239  0.3545
  914MOL0     H26076   4.294  11.046  11.938  0.0799 -1.7833  1.4313
  914MOL0     H26077   4.135  11.075  12.130  0.6314 -1.4218 -1.0839
  914MOL0     H26078   4.092  11.143  11.972 -3.9374  1.1986  2.4547
  914MOL0     H26079   4.239  11.309  12.189 -1.4500  0.2533  0.0323
  914MOL0     H26080   4.190  11.374  12.046  1.2643  3.2910  3.5958
  914MOL0     H26081   3.916  11.395  12.002 -1.3978  0.6059 -0.3172
  914MOL0     H26082   3.635  11.451  12.246  1.4041 -2.9318  1.1779
  914MOL0     H26083   3.685  11.485  12.076  2.8939 -2.4482 -0.6044
  914MOL0     H26084   3.774  11.653  12.327  1.0193  0.6170 -0.3725
  914MOL0     H26085   3.841  11.679  12.166  0.4437  0.7221  0.3938
  914MOL0     H26086   3.624  11.756  12.088 -3.8994  1.0664  0.1024
  914MOL0     H26087   3.549  11.688  12.231 -0.5316  0.7647 -0.9548
  914MOL0     H26088   3.567  11.934  12.248  0.2114  0.2998  0.2794
  914MOL0     H26089   3.640  11.850  12.378  0.0223  0.6045 -0.0510
  914MOL0     H26090   3.601  12.128  12.335 -0.4507  2.3843  1.7531
  914MOL0     H26091   3.655  12.429  12.512 -1.5472 -0.7891  1.6643
  914MOL0     H26092   3.558  12.298  12.489 -2.3789  3.0218  1.8665
  914MOL0     H26093   3.564  12.422  12.359  0.4846 -1.3307 -1.1254
  914MOL0     H26094   4.085  12.557  12.591 -1.6871 -0.7622 -0.7242
  914MOL0     H26095   4.186  12.759  12.731 -2.4400  1.8400  3.4835
  914MOL0     H26096   4.245  13.037  12.610 -0.1322  1.8177 -2.8374
  914MOL0     H26097   4.081  13.106  12.573  0.1507  0.1404  1.0767
  914MOL0     H26098   4.244  13.209  12.799  0.0280 -0.8929 -1.9079
  914MOL0     H26099   4.208  13.272  12.628 -0.7482 -0.9215 -1.3495
  914MOL0     H26100   3.996  13.227  12.850  0.2985  0.0518 -0.3007
  914MOL0     H26101   3.965  13.282  12.687  3.5482  0.8350 -2.1703
  914MOL0     H26102   4.075  13.503  12.736  0.1502  0.8982  1.3039
  914MOL0     H26103   4.157  13.435  12.874 -0.5618 -1.2900  0.6347
  914MOL0     H26104   3.857  13.515  12.841 -3.9918 -2.9101  3.3739
  914MOL0     H26105   3.908  13.402  12.954 -0.0660  0.9950  2.0802
  914MOL0     H26106   3.873  13.646  13.020 -0.4726  0.7936 -1.5404
  914MOL0     H26107   3.971  13.709  12.903 -0.5081 -0.0710  0.1220
  914MOL0     H26108   4.179  13.627  12.988  0.5425 -3.3370  0.3081
  914MOL0     H26109   4.079  13.532  13.114 -4.7946  0.6942 -0.1205
  914MOL0     H26110   4.214  13.730  13.196 -0.1347  1.6062  0.6516
  914MOL0     H26111   4.044  13.730  13.240 -1.8659  1.8286 -0.3265
  914MOL0     H26112   3.858  13.000  12.611 -0.6808 -0.4999 -2.4991
  914MOL0     H26113   3.769  12.820  12.462 -0.7013 -1.9557 -0.1602
  914MOL0     H26114   4.070  12.278  12.285 -0.5683  1.1193 -1.0550
  914MOL0     H26115   4.014  12.054  12.241 -0.6604 -1.0342  0.2418
  914MOL0     H26116   4.613  11.232  11.597 -1.4258 -0.4642 -0.8127
  914MOL0     H26117   4.648  11.176  11.349 -0.2869 -0.8100  1.9000
  914MOL0     H26118   4.859  10.828  11.088 -1.0505  0.4809  0.2789
  914MOL0     H26119   4.847  10.769  10.850  0.3445  0.4248 -1.4722
  914MOL0     H26120   4.994  10.692  10.679 -0.3474  1.1556  2.7830
  914MOL0     H26121   4.849  10.780  10.625  1.1949  0.3169  3.7509
  914MOL0     H26122   4.956  10.659  10.429  0.5200 -0.3189 -0.2712
  914MOL0     H26123   5.098  10.735  10.445 -0.9367 -1.4633  0.2525
  914MOL0     H26124   4.834  10.866  10.359 -0.7477  5.0869 -0.2645
  914MOL0     H26125   4.961  10.960  10.442  1.8982 -0.8284  0.4171
  914MOL0     H26126   5.033  10.772  10.218  1.2049 -1.8300  3.4137
  914MOL0     H26127   5.114  10.928  10.257  1.0532 -3.9630  1.8662
  914MOL0     H26128   4.773  10.941   9.970 -4.6815  1.7590  4.3060
  914MOL0     H26129   5.124  11.061  10.755  0.7614 -0.2210 -0.0280
  914MOL0     H26130   5.218  11.238  10.909  0.3282  0.8513  0.4087
  914MOL0     H26131   5.090  11.286  11.025  0.2869  0.5971 -0.0440
  914MOL0     H26132   5.215  11.199  11.088 -0.4002  0.0225  0.7379
  915MOL0     O26133   7.182   9.338   6.974  0.3590  0.0104 -0.6158
  915MOL0     C26134   7.178   9.268   7.076 -0.0341  0.1723 -0.1988
  915MOL0     O26135   7.126   9.303   7.195  0.5803  0.3544  0.5239
  915MOL0     C26136   7.108   9.436   7.221  0.8428 -0.0701  0.4673
  915MOL0     C26137   6.995   9.467   7.294  0.7154 -0.4173  0.3483
  915MOL0     C26138   6.973   9.599   7.349 -0.9870  0.2748  0.7136
  915MOL0     C26139   7.080   9.691   7.343 -1.6072 -0.2187  0.5691
  915MOL0     O26140   7.104   9.814   7.411 -0.3894  0.2733 -0.3294
  915MOL0     C26141   7.037   9.841   7.533  1.1889  0.2636  0.1445
  915MOL0     C26142   7.090   9.936   7.640 -0.8043  0.7357  0.7778
  915MOL0     C26143   7.184  10.055   7.601 -0.2010  0.3560 -0.3066
  915MOL0     C26144   7.115  10.144   7.488 -0.5521 -0.7520 -0.0484
  915MOL0     C26145   7.195  10.276   7.469  0.1253  0.2905  0.2459
  915MOL0     C26146   7.097  10.382   7.406  0.7555  1.4123  0.2977
  915MOL0     C26147   7.007  10.445   7.518  1.2205 -0.9940 -0.1064
  915MOL0     C26148   6.915  10.554   7.465  0.3905 -0.0034 -0.7091
  915MOL0     N26149   6.828  10.602   7.577  0.6408  0.3205 -0.4909
  915MOL0     C26150   6.851  10.716   7.651 -0.5676  0.4555 -0.0707
  915MOL0     C26151   6.760  10.707   7.756  0.2988 -1.3791  0.0224
  915MOL0     C26152   6.740  10.812   7.862  0.1425 -0.7024 -0.5714
  915MOL0     C26153   6.631  10.909   7.802  0.1647 -0.3130 -0.5407
  915MOL0     C26154   6.583  11.005   7.912  0.3752  0.5824  0.1118
  915MOL0     C26155   6.498  11.121   7.852 -0.4532  0.3669 -0.1591
  915MOL0     O26156   6.567  11.182   7.744  0.1091 -0.3529  0.8277
  915MOL0     C26157   6.530  11.157   7.608 -0.6610 -0.0234  0.5464
  915MOL0     C26158   6.629  11.194   7.518 -0.3835  0.1008  0.2658
  915MOL0     C26159   6.612  11.186   7.380 -0.6749  0.1372 -0.3779
  915MOL0     C26160   6.722  11.231   7.284 -0.1639 -0.2779  0.7015
  915MOL0     C26161   6.497  11.119   7.338  0.1332  0.3858  0.1859
  915MOL0     C26162   6.465  11.124   7.199 -0.0146 -0.4407 -0.0943
  915MOL0     O26163   6.414  11.247   7.153  0.3907 -0.0996  0.1681
  915MOL0     C26164   6.402  11.268   7.021  0.3405 -0.3015  1.2149
  915MOL0     C26165   6.283  11.231   6.960 -0.5862  0.0622 -0.9080
  915MOL0     C26166   6.276  11.240   6.823  0.6758 -0.0909 -1.4131
  915MOL0     C26167   6.379  11.285   6.745 -0.8982  0.5772  0.6640
  915MOL0     O26168   6.344  11.275   6.613 -0.0309 -0.1857  0.6508
  915MOL0     C26169   6.455  11.306   6.525  0.9949  0.2379  0.6399
  915MOL0     C26170   6.407  11.336   6.375 -0.5072 -0.2973 -0.4746
  915MOL0     C26171   6.358  11.207   6.292 -0.2003  1.1112 -0.7801
  915MOL0     C26172   6.358  11.242   6.149  0.4931  0.3667 -0.6790
  915MOL0     C26173   6.230  11.210   6.076  0.0769 -0.4346 -0.3180
  915MOL0     C26174   6.203  11.061   6.065  0.3761  0.0712 -0.1321
  915MOL0     C26175   6.083  11.039   5.972  0.6546 -1.4159  0.4637
  915MOL0     C26176   6.043  10.894   5.960  0.2308 -0.3703 -0.2817
  915MOL0    Cl26177   6.167  10.792   5.882 -0.1568 -0.1997  0.3549
  915MOL0     C26178   6.499  11.328   6.805 -0.5468 -0.0799  0.2740
  915MOL0     C26179   6.510  11.315   6.944  0.0090  0.0076 -0.0653
  915MOL0     O26180   6.493  11.029   7.129  0.5960 -0.4021  0.9649
  915MOL0     C26181   6.399  11.077   7.427  0.5197 -0.2610 -1.0418
  915MOL0     C26182   6.411  11.093   7.562  0.0205 -0.6780 -0.2645
  915MOL0     N26183   6.680  10.588   7.739 -0.5667 -0.0486 -0.3199
  915MOL0     N26184   6.719  10.539   7.629 -0.2077  0.9189 -0.1292
  915MOL0     C26185   7.190   9.658   7.267  0.3665  0.3877  0.0556
  915MOL0     C26186   7.201   9.533   7.210  0.3705  0.6733 -0.3257
  915MOL0     C26187   7.224   9.128   7.073  0.1589  0.2664  0.4058
  915MOL0     C26188   7.337   9.098   6.996  0.6120 -0.1196  0.7320
  915MOL0     C26189   7.394   8.974   6.991 -0.3190 -0.0451  1.0184
  915MOL0     C26190   7.343   8.865   7.064 -0.3899  0.4226  0.8240
  915MOL0     O26191   7.399   8.739   7.075 -0.4893 -0.2895  0.0968
  915MOL0     C26192   7.497   8.720   6.981  0.1986 -0.3787  0.0824
  915MOL0     C26193   7.550   8.583   6.977  0.2482  0.0250  0.3739
  915MOL0     C26194   7.637   8.550   7.102  0.7024  0.0360  0.5920
  915MOL0     C26195   7.669   8.405   7.103  0.2367 -0.2045  0.3887
  915MOL0     C26196   7.743   8.379   7.228  0.8556  0.0892  0.5097
  915MOL0     C26197   7.797   8.357   7.338 -0.2265 -0.1963 -0.3313
  915MOL0     C26198   7.235   8.907   7.140  0.0254 -0.0320  0.3515
  915MOL0     C26199   7.175   9.026   7.141  0.1885 -0.9270  0.2768
  915MOL0     C26200   7.062   9.034   7.236  0.7348  0.1404 -0.4641
  915MOL0     H26201   6.915   9.394   7.308  0.6567 -1.1294 -2.9260
  915MOL0     H26202   6.882   9.619   7.404 -1.0632  1.5960  0.1223
  915MOL0     H26203   7.032   9.745   7.586  1.3438  0.0314 -0.2523
  915MOL0     H26204   6.936   9.869   7.500  0.3323 -0.8838  1.6480
  915MOL0     H26205   7.001   9.966   7.696 -1.5308  1.3587 -0.6863
  915MOL0     H26206   7.148   9.874   7.710 -1.2351  3.0017  3.3127
  915MOL0     H26207   7.208  10.109   7.692 -1.0095 -1.2612  0.9139
  915MOL0     H26208   7.279  10.014   7.565 -0.0210 -0.1661  0.7401
  915MOL0     H26209   7.123  10.078   7.401 -0.2285 -2.3853  1.1620
  915MOL0     H26210   7.009  10.159   7.509 -0.7781  0.9587 -2.1232
  915MOL0     H26211   7.291  10.264   7.418 -0.5726 -3.3208 -0.4514
  915MOL0     H26212   7.226  10.326   7.562  2.7464  1.4921 -1.1492
  915MOL0     H26213   7.151  10.456   7.347  0.7215  0.8640 -0.4407
  915MOL0     H26214   7.034  10.334   7.330  0.5772 -0.1888  1.3917
  915MOL0     H26215   7.070  10.497   7.590  0.5511 -1.6578  0.9945
  915MOL0     H26216   6.953  10.372   7.580  2.3044 -0.7517  1.1809
  915MOL0     H26217   6.972  10.636   7.419 -1.3293  0.4354 -2.1689
  915MOL0     H26218   6.845  10.519   7.388 -0.2117 -0.7664  0.1749
  915MOL0     H26219   6.923  10.797   7.648  1.6096 -1.2716  1.7493
  915MOL0     H26220   6.828  10.869   7.894 -0.8710 -0.2959  1.7142
  915MOL0     H26221   6.699  10.755   7.946  1.7074 -2.2370 -0.7745
  915MOL0     H26222   6.669  10.960   7.713 -3.2134 -0.5851 -2.3132
  915MOL0     H26223   6.547  10.848   7.767 -0.4601  0.1883  0.0531
  915MOL0     H26224   6.525  10.948   7.985  1.6372  0.6355  1.1809
  915MOL0     H26225   6.664  11.056   7.965  0.6061 -1.3175  1.7010
  915MOL0     H26226   6.400  11.083   7.820 -1.0371  1.0012  0.8078
  915MOL0     H26227   6.483  11.197   7.929  2.0753 -0.4888  1.2725
  915MOL0     H26228   6.711  11.242   7.570  0.6083 -0.4131 -0.7732
  915MOL0     H26229   6.696  11.325   7.234  1.8907 -1.9703 -4.1411
  915MOL0     H26230   6.726  11.167   7.195 -1.5449  1.0023 -0.3452
  915MOL0     H26231   6.816  11.239   7.338 -0.9753 -1.2150  2.3156
  915MOL0     H26232   6.206  11.188   7.023 -0.8431 -1.4352 -2.1797
  915MOL0     H26233   6.182  11.203   6.783 -0.1751 -0.4797  0.8148
  915MOL0     H26234   6.522  11.389   6.551 -0.2496  1.2087  0.8489
  915MOL0     H26235   6.524  11.222   6.521 -1.7518 -2.1555  0.6043
  915MOL0     H26236   6.325  11.408   6.379  0.5308  0.9240 -0.6237
  915MOL0     H26237   6.491  11.383   6.323 -2.9724  3.2650 -1.5492
  915MOL0     H26238   6.259  11.175   6.327  0.2403 -1.1930 -1.4717
  915MOL0     H26239   6.421  11.121   6.318 -3.8257 -1.8588 -0.8899
  915MOL0     H26240   6.437  11.190   6.095 -0.6170 -0.2798 -1.7373
  915MOL0     H26241   6.359  11.351   6.139 -0.1845  0.3467 -0.9970
  915MOL0     H26242   6.148  11.259   6.129  1.9639 -0.6176  3.0842
  915MOL0     H26243   6.247  11.246   5.974  1.5580 -0.5145 -0.1250
  915MOL0     H26244   6.182  11.024   6.165 -2.0050  0.0592 -0.5891
  915MOL0     H26245   6.295  11.010   6.034 -0.0665 -0.9622  0.2217
  915MOL0     H26246   6.112  11.079   5.874  0.9354 -0.8038  0.7931
  915MOL0     H26247   6.001  11.104   6.005  0.3284 -0.9514 -1.1642
  915MOL0     H26248   5.957  10.880   5.895 -0.8056 -1.5317  1.2531
  915MOL0     H26249   6.025  10.860   6.063  3.9143 -0.8223  0.3591
  915MOL0     H26250   6.588  11.357   6.750 -0.4361 -3.1294 -1.3489
  915MOL0     H26251   6.598  11.355   6.993  0.1450 -1.4092  0.8873
  915MOL0     H26252   6.310  11.028   7.389  0.7652 -3.3158  1.8591
  915MOL0     H26253   6.337  11.046   7.626 -0.2386  1.9389  1.4897
  915MOL0     H26254   7.266   9.735   7.259 -0.9376  1.7814  0.4510
  915MOL0     H26255   7.290   9.507   7.153  1.0965  1.1369  0.5790
  915MOL0     H26256   7.389   9.178   6.943 -1.8599  0.2415 -1.3508
  915MOL0     H26257   7.484   8.964   6.932 -0.8809 -3.1146  0.5041
  915MOL0     H26258   7.466   8.751   6.880  0.2236  2.3960  0.8536
  915MOL0     H26259   7.576   8.790   7.010  0.7127 -0.1769 -1.6389
  915MOL0     H26260   7.618   8.575   6.892  2.2347  0.9828  1.8040
  915MOL0     H26261   7.467   8.513   6.960 -0.0812  0.9659 -2.3973
  915MOL0     H26262   7.734   8.599   7.109  0.9881 -0.7518  2.9677
  915MOL0     H26263   7.582   8.588   7.188  0.5366  1.8671 -0.2618
  915MOL0     H26264   7.728   8.388   7.013  0.1517  1.5734 -0.0345
  915MOL0     H26265   7.576   8.349   7.090 -0.8328  1.7506 -0.8054
  915MOL0     H26266   7.844   8.333   7.431 -0.7920 -2.5710 -0.5921
  915MOL0     H26267   7.198   8.829   7.205  2.5608 -2.7308 -1.2148
  915MOL0     H26268   7.096   9.052   7.338 -0.2235 -0.3564 -0.0384
  915MOL0     H26269   6.982   9.098   7.198 -0.7425 -0.8818  0.7892
  915MOL0     H26270   7.015   8.936   7.249  4.1025 -1.4205  1.2531
  916MOL0     O26271   1.294   9.140   4.853 -0.5792  0.3010 -0.8411
  916MOL0     C26272   1.370   9.211   4.913 -0.0669 -0.4022  0.1226
  916MOL0     O26273   1.331   9.319   4.986 -0.6523 -0.8576 -0.5196
  916MOL0     C26274   1.207   9.330   5.015  0.5435 -0.0036  0.5606
  916MOL0     C26275   1.158   9.274   5.129 -0.6042 -0.2320 -0.4851
  916MOL0     C26276   1.025   9.290   5.170  0.3122 -1.8479 -0.6779
  916MOL0     C26277   0.940   9.358   5.085  0.4708  0.5768  0.0238
  916MOL0     O26278   0.807   9.372   5.116  0.1730  0.0526 -0.7720
  916MOL0     C26279   0.787   9.442   5.243  0.7748 -0.5161 -0.2884
  916MOL0     C26280   0.678   9.538   5.221  0.9998  0.0580  0.2771
  916MOL0     C26281   0.573   9.540   5.345 -0.3876 -0.0709  0.0091
  916MOL0     C26282   0.506   9.674   5.362 -0.5430 -0.6232 -0.3425
  916MOL0     C26283   0.602   9.770   5.450 -0.3275  0.8595 -0.3753
  916MOL0     C26284   0.526   9.896   5.479 -0.1120  1.4773  0.0223
  916MOL0     C26285   0.395   9.898   5.564 -0.6330  0.7484  0.6152
  916MOL0     C26286   0.419   9.863   5.708 -0.4533 -0.0825  0.3273
  916MOL0     N26287   0.490   9.978   5.771  0.8152 -0.3176  0.5963
  916MOL0     C26288   0.586   9.972   5.864 -0.7508 -0.6605 -0.6471
  916MOL0     C26289   0.623  10.104   5.900 -0.6563 -0.2893 -0.1691
  916MOL0     C26290   0.727  10.151   6.010 -0.2837  0.4596 -0.1119
  916MOL0     C26291   0.651  10.173   6.147  0.4427  0.5844 -0.3249
  916MOL0     C26292   0.573  10.046   6.190 -0.2474 -1.5197  0.0613
  916MOL0     C26293   0.528  10.038   6.337 -0.8852  0.2330  0.8119
  916MOL0     O26294   0.425  10.136   6.353  0.5952 -0.0550  0.2244
  916MOL0     C26295   0.444  10.254   6.413 -0.0375  0.6549 -0.4396
  916MOL0     C26296   0.485  10.261   6.545 -0.5748 -0.6685 -0.8321
  916MOL0     C26297   0.527  10.379   6.608 -0.7714 -1.0005 -0.0445
  916MOL0     C26298   0.590  10.365   6.743 -1.0685 -0.4186  0.5315
  916MOL0     C26299   0.508  10.500   6.541  0.4432  0.3513  0.2769
  916MOL0     C26300   0.542  10.639   6.595 -0.4323  0.5308  0.1756
  916MOL0     O26301   0.542  10.736   6.503  0.1347 -0.8442 -0.3352
  916MOL0     C26302   0.555  10.872   6.531  0.2738  0.4923  0.5437
  916MOL0     C26303   0.509  10.962   6.437  0.8158  0.4510 -1.0815
  916MOL0     C26304   0.525  11.107   6.459  0.6847 -0.7077  0.5502
  916MOL0     C26305   0.568  11.149   6.581  0.4776  0.6467 -0.1643
  916MOL0     O26306   0.558  11.284   6.600  0.0766  0.0567 -0.5795
  916MOL0     C26307   0.665  11.356   6.654  0.2997 -0.3403 -0.4539
  916MOL0     C26308   0.621  11.488   6.713 -0.1298 -1.0088  0.0922
  916MOL0     C26309   0.744  11.557   6.776 -0.6356  0.2479  0.1125
  916MOL0     C26310   0.698  11.687   6.844 -0.0568 -0.9686  0.1749
  916MOL0     C26311   0.759  11.707   6.987 -1.0454 -0.9788 -0.2669
  916MOL0     C26312   0.904  11.731   7.000 -1.0707 -0.6416 -0.0178
  916MOL0     C26313   0.967  11.840   6.905 -0.1919  1.0124 -0.5998
  916MOL0     C26314   1.122  11.864   6.944 -0.1580  0.6695 -0.3792
  916MOL0    Cl26315   1.196  11.710   6.963 -0.1618  0.1673  0.2566
  916MOL0     C26316   0.615  11.062   6.678 -0.7494  0.3716  0.1752
  916MOL0     C26317   0.620  10.925   6.646  0.1920 -0.9596 -0.1662
  916MOL0     O26318   0.557  10.653   6.713 -0.6627  0.4124 -0.2369
  916MOL0     C26319   0.443  10.492   6.413 -0.5513  0.2164 -0.0155
  916MOL0     C26320   0.415  10.367   6.350  1.1266  0.1599 -1.1542
  916MOL0     N26321   0.540  10.185   5.836  0.1971  0.0606  0.8988
  916MOL0     N26322   0.455  10.110   5.768 -0.5749  0.7835 -0.3962
  916MOL0     C26323   0.984   9.411   4.956 -0.0178  0.1942  0.8147
  916MOL0     C26324   1.121   9.406   4.934 -0.3378 -0.4210 -0.8682
  916MOL0     C26325   1.509   9.158   4.941 -0.2410 -0.7014  0.5950
  916MOL0     C26326   1.542   9.043   4.861 -0.0617 -0.0045 -0.5554
  916MOL0     C26327   1.674   8.989   4.869 -0.8669 -0.3631  0.7411
  916MOL0     C26328   1.773   9.052   4.951 -0.6213  0.3597 -1.1081
  916MOL0     O26329   1.902   9.003   4.940 -0.4437 -0.4028 -0.0289
  916MOL0     C26330   1.927   8.864   4.955 -0.6190  0.2684 -0.1429
  916MOL0     C26331   1.888   8.813   5.099  0.1195 -0.1459 -0.2041
  916MOL0     C26332   1.954   8.897   5.214  0.1827 -0.6468  0.6761
  916MOL0     C26333   1.964   8.800   5.339 -0.5693  0.0767  0.5924
  916MOL0     C26334   2.026   8.670   5.317 -0.0583 -0.0525 -1.5282
  916MOL0     C26335   2.095   8.576   5.295  0.0301  0.3348 -0.1173
  916MOL0     C26336   1.743   9.153   5.028 -0.5267 -0.1433  0.2515
  916MOL0     C26337   1.614   9.209   5.028 -0.1026 -0.2808  0.7506
  916MOL0     C26338   1.594   9.319   5.121 -0.8113 -0.5028 -0.0266
  916MOL0     H26339   1.238   9.224   5.182 -0.1482 -0.6162 -1.5017
  916MOL0     H26340   0.995   9.245   5.264  2.0669 -2.2137 -0.2696
  916MOL0     H26341   0.873   9.492   5.288 -0.8776  0.4069  2.0317
  916MOL0     H26342   0.767   9.375   5.326  0.7322 -1.0424 -0.7208
  916MOL0     H26343   0.728   9.635   5.220 -0.0370  0.7842  3.9018
  916MOL0     H26344   0.610   9.530   5.136  0.5960  0.2755  0.5771
  916MOL0     H26345   0.503   9.456   5.346 -2.1047  1.2356 -2.5786
  916MOL0     H26346   0.644   9.532   5.429  3.9687  1.7977 -3.1176
  916MOL0     H26347   0.488   9.715   5.262 -1.5577  1.4165  0.6174
  916MOL0     H26348   0.415   9.660   5.420  0.3928 -1.0701  1.0771
  916MOL0     H26349   0.685   9.791   5.383 -0.7869 -0.3984 -1.3759
  916MOL0     H26350   0.639   9.720   5.540 -1.3458  2.1502  0.7984
  916MOL0     H26351   0.605   9.957   5.524  0.8700  1.3720 -1.4915
  916MOL0     H26352   0.521   9.936   5.378  1.1816  0.0896 -0.6245
  916MOL0     H26353   0.316   9.834   5.522  1.0545 -0.0743 -1.4516
  916MOL0     H26354   0.345   9.995   5.552 -0.5002  0.4710 -4.2735
  916MOL0     H26355   0.324   9.858   5.761 -0.0088 -0.5985  1.0912
  916MOL0     H26356   0.468   9.767   5.729 -2.9672 -0.8577  3.3257
  916MOL0     H26357   0.629   9.882   5.906 -1.9177 -0.1461  1.8369
  916MOL0     H26358   0.779  10.246   5.992 -2.4843  1.4720 -1.4531
  916MOL0     H26359   0.808  10.077   6.018 -0.9161 -0.2832 -0.4091
  916MOL0     H26360   0.723  10.200   6.226  0.3518  0.2141 -0.1113
  916MOL0     H26361   0.584  10.257   6.127  0.8093  0.5931 -1.5862
  916MOL0     H26362   0.480  10.036   6.133  0.0443 -0.9790 -0.5215
  916MOL0     H26363   0.636   9.959   6.172  0.5178 -0.8573 -0.5668
  916MOL0     H26364   0.478   9.941   6.344  2.7248 -1.9498 -0.8679
  916MOL0     H26365   0.607  10.040   6.412 -2.3876  1.2877  2.4368
  916MOL0     H26366   0.488  10.170   6.604 -0.7577 -0.1531 -0.0083
  916MOL0     H26367   0.670  10.439   6.754 -1.4221 -0.0045  0.3282
  916MOL0     H26368   0.644  10.271   6.757  1.0118 -0.0477 -3.5247
  916MOL0     H26369   0.518  10.390   6.822 -0.2344  1.0416  0.8818
  916MOL0     H26370   0.466  10.903   6.357  1.5559 -1.9626  0.1947
  916MOL0     H26371   0.485  11.180   6.390  1.3212 -1.3187 -0.4970
  916MOL0     H26372   0.698  11.301   6.742 -3.6014  1.3672  2.3595
  916MOL0     H26373   0.754  11.373   6.592  0.6496  1.0252  0.3631
  916MOL0     H26374   0.599  11.551   6.626  1.6114  1.3794  1.2566
  916MOL0     H26375   0.538  11.478   6.783  2.5625 -2.7526  3.3662
  916MOL0     H26376   0.824  11.574   6.703 -0.8987 -0.7107 -0.4205
  916MOL0     H26377   0.784  11.479   6.841 -2.5314 -2.8733 -2.1679
  916MOL0     H26378   0.595  11.682   6.882 -0.1833 -0.6802 -0.1195
  916MOL0     H26379   0.715  11.776   6.783  1.0028 -0.2562  1.4560
  916MOL0     H26380   0.713  11.800   7.020 -0.5830  0.3188 -3.0139
  916MOL0     H26381   0.723  11.626   7.050  1.3153  0.1680  2.8665
  916MOL0     H26382   0.960  11.638   6.997  1.7951  0.9031  1.5210
  916MOL0     H26383   0.921  11.765   7.103 -0.3562  2.9682 -1.1642
  916MOL0     H26384   0.901  11.927   6.913 -2.3684 -0.6862  2.6650
  916MOL0     H26385   0.972  11.798   6.804 -1.0830 -1.5347  0.3241
  916MOL0     H26386   1.114  11.921   7.037  0.8287  0.6638 -0.2891
  916MOL0     H26387   1.179  11.928   6.876  0.9012 -0.4684 -0.5887
  916MOL0     H26388   0.651  11.087   6.778 -0.2096 -2.6004  0.8255
  916MOL0     H26389   0.663  10.870   6.729  0.7087 -0.6874 -0.2525
  916MOL0     H26390   0.407  10.585   6.368 -1.5947 -0.4336 -0.5643
  916MOL0     H26391   0.365  10.366   6.254  1.0971  0.0651 -1.1377
  916MOL0     H26392   0.910   9.459   4.893 -1.0797 -0.2809  1.6661
  916MOL0     H26393   1.162   9.461   4.849  0.0016 -1.0208 -1.0994
  916MOL0     H26394   1.478   8.993   4.789  5.2516 -3.2479 -3.6148
  916MOL0     H26395   1.705   8.911   4.801  5.5487  3.4220 -1.6166
  916MOL0     H26396   1.874   8.800   4.884  2.8243 -2.0760 -0.8281
  916MOL0     H26397   2.034   8.850   4.933 -1.1150  1.8809 -4.7432
  916MOL0     H26398   1.904   8.705   5.105  0.3855 -0.0393  1.2208
  916MOL0     H26399   1.782   8.839   5.107  0.3728  0.5393  1.1044
  916MOL0     H26400   2.055   8.920   5.180 -1.1967  2.2849 -1.9307
  916MOL0     H26401   1.893   8.986   5.229 -1.4476 -1.6555  0.3277
  916MOL0     H26402   1.869   8.778   5.389  0.7199  0.4547  3.4122
  916MOL0     H26403   2.033   8.854   5.404 -1.1291  1.1764  0.3029
  916MOL0     H26404   2.164   8.496   5.279  0.4438 -0.1608  3.4056
  916MOL0     H26405   1.822   9.198   5.086  0.1803  3.0918 -2.8924
  916MOL0     H26406   1.648   9.411   5.099 -0.0063 -0.6313  1.2599
  916MOL0     H26407   1.489   9.346   5.135 -0.5506  1.1451 -0.9981
  916MOL0     H26408   1.626   9.288   5.221  1.1102  0.2744 -0.3631
  917MOL0     O26409   6.668  10.843   5.625 -0.5252  0.2428 -0.1504
  917MOL0     C26410   6.609  10.736   5.639  0.6106 -0.1573 -1.3103
  917MOL0     O26411   6.485  10.704   5.594 -0.2614 -0.4683  0.5767
  917MOL0     C26412   6.383  10.785   5.573  0.2511 -0.0640  1.0597
  917MOL0     C26413   6.395  10.929   5.570  0.1718  0.6080  0.8555
  917MOL0     C26414   6.277  10.997   5.527  0.5262  0.0078  0.1347
  917MOL0     C26415   6.152  10.934   5.507 -0.2514  0.1821  0.5427
  917MOL0     O26416   6.037  11.003   5.475 -0.6850 -0.1402 -0.1970
  917MOL0     C26417   6.025  11.140   5.493  0.2046  1.3410 -0.1326
  917MOL0     C26418   5.879  11.190   5.473  0.0810  0.2898 -0.4498
  917MOL0     C26419   5.767  11.103   5.546  0.1110 -0.0113  0.1460
  917MOL0     C26420   5.785  11.107   5.702 -0.1290  0.5382  0.3112
  917MOL0     C26421   5.673  11.056   5.797  1.0096 -0.1047 -0.1277
  917MOL0     C26422   5.530  11.113   5.773  0.9831  0.7079  0.4112
  917MOL0     C26423   5.415  11.081   5.870 -0.3090  0.1993 -0.6585
  917MOL0     C26424   5.298  11.184   5.874 -0.3309 -0.0457  0.1608
  917MOL0     N26425   5.226  11.153   6.001  0.0152 -0.4679 -0.0172
  917MOL0     C26426   5.134  11.058   6.009  1.0908  0.4377 -0.1664
  917MOL0     C26427   5.100  11.053   6.142 -0.3192  0.1876  0.1435
  917MOL0     C26428   5.003  10.942   6.196  0.3891  0.0632  0.4834
  917MOL0     C26429   4.861  10.974   6.229  0.1817 -0.0214  0.8219
  917MOL0     C26430   4.854  11.062   6.354  0.2644 -0.2144 -1.5136
  917MOL0     C26431   4.697  11.069   6.393 -0.6435  0.3309 -0.0615
  917MOL0     O26432   4.653  10.952   6.451 -0.0120 -0.8141  0.0622
  917MOL0     C26433   4.519  10.951   6.484 -0.0273  0.3712  0.2458
  917MOL0     C26434   4.464  10.830   6.497  0.1138  0.3689 -0.1482
  917MOL0     C26435   4.329  10.811   6.535  0.3852 -0.2974  0.2789
  917MOL0     C26436   4.284  10.670   6.534 -0.4376 -0.3113  0.4038
  917MOL0     C26437   4.247  10.921   6.550  0.3899 -0.5017  0.1067
  917MOL0     C26438   4.098  10.901   6.595 -0.1701 -0.3505  0.0197
  917MOL0     O26439   4.016  11.008   6.572 -0.7667 -0.1870  0.2242
  917MOL0     C26440   3.885  11.025   6.624 -0.9519  0.5022  1.5548
  917MOL0     C26441   3.821  11.128   6.556  0.1199  1.2861 -0.6676
  917MOL0     C26442   3.693  11.152   6.593  0.6647 -0.3398  0.1508
  917MOL0     C26443   3.614  11.073   6.687 -0.5655 -0.4957  0.7566
  917MOL0     O26444   3.486  11.099   6.724 -0.7215  0.1060 -0.4564
  917MOL0     C26445   3.432  11.234   6.700 -0.3417  0.8129 -0.4952
  917MOL0     C26446   3.444  11.334   6.812 -0.0648  1.5305  0.0051
  917MOL0     C26447   3.371  11.272   6.933  0.9033 -0.6032  0.0895
  917MOL0     C26448   3.404  11.372   7.053 -0.3207  0.1273 -0.8079
  917MOL0     C26449   3.325  11.335   7.177 -0.8655 -0.7959 -0.2882
  917MOL0     C26450   3.361  11.415   7.299  0.2221 -0.6943 -0.6977
  917MOL0     C26451   3.286  11.370   7.423 -0.9108 -0.3901  0.0656
  917MOL0     C26452   3.278  11.491   7.521  0.5283  0.1436  0.6846
  917MOL0    Cl26453   3.164  11.427   7.641  0.0470  0.2627 -0.1388
  917MOL0     C26454   3.675  10.964   6.737 -0.4958  0.3807  0.3265
  917MOL0     C26455   3.808  10.934   6.701  0.9691  0.6171  0.8792
  917MOL0     O26456   4.071  10.800   6.666 -0.4482 -0.6050 -0.1625
  917MOL0     C26457   4.305  11.052   6.524 -0.6451  0.8178 -0.9898
  917MOL0     C26458   4.448  11.059   6.509 -0.0870 -0.1256 -0.1438
  917MOL0     N26459   5.168  11.147   6.209  0.3168  0.9261 -0.3206
  917MOL0     N26460   5.241  11.210   6.120 -0.6927  0.0185  0.1065
  917MOL0     C26461   6.141  10.796   5.530 -0.1147  0.4712  0.0328
  917MOL0     C26462   6.252  10.723   5.555 -0.2969  0.2102 -0.1081
  917MOL0     C26463   6.691  10.645   5.733  0.0702 -0.1364  0.2796
  917MOL0     C26464   6.827  10.611   5.695 -0.4827 -0.1998  0.3217
  917MOL0     C26465   6.897  10.520   5.775 -0.4413  1.2258  0.1807
  917MOL0     C26466   6.840  10.459   5.889 -0.6718 -0.1294  0.4112
  917MOL0     O26467   6.918  10.391   5.983 -0.4676 -0.2497 -0.3639
  917MOL0     C26468   6.898  10.250   5.996  0.6308 -0.7134  0.4631
  917MOL0     C26469   6.965  10.170   5.882  1.4218  1.1215 -0.4499
  917MOL0     C26470   7.116  10.185   5.886 -0.2463  0.0844  0.3534
  917MOL0     C26471   7.186  10.132   6.010 -1.1639 -0.0344  0.0478
  917MOL0     C26472   7.332  10.109   5.992  0.3571  1.6928  0.2621
  917MOL0     C26473   7.446  10.097   5.977 -1.0481  0.7955 -0.0169
  917MOL0     C26474   6.701  10.477   5.902 -0.4482 -0.8706 -0.3339
  917MOL0     C26475   6.631  10.574   5.834 -0.1875  0.7725  0.5803
  917MOL0     C26476   6.492  10.598   5.886  0.3922  0.5741  0.0289
  917MOL0     H26477   6.487  10.986   5.582 -0.3635  1.7945 -0.3995
  917MOL0     H26478   6.286  11.105   5.517 -1.7375  0.3795  1.3759
  917MOL0     H26479   6.088  11.192   5.420  1.0937  0.9376  0.3219
  917MOL0     H26480   6.064  11.161   5.592 -0.3095  1.2606  0.0895
  917MOL0     H26481   5.875  11.297   5.497 -0.2059  0.6151 -1.8788
  917MOL0     H26482   5.851  11.187   5.367  1.2276 -0.0080 -0.7556
  917MOL0     H26483   5.667  11.135   5.515 -0.4682  0.1376  2.0704
  917MOL0     H26484   5.778  10.997   5.521  1.3619  0.3971 -1.1823
  917MOL0     H26485   5.870  11.047   5.736  1.5494  1.5922 -1.7699
  917MOL0     H26486   5.805  11.210   5.735 -1.7233  0.5299  1.4189
  917MOL0     H26487   5.691  11.069   5.904 -0.2310 -0.7850  0.1871
  917MOL0     H26488   5.662  10.949   5.776 -1.0789  0.6246 -3.4039
  917MOL0     H26489   5.536  11.222   5.761 -3.3216  0.8055 -3.4490
  917MOL0     H26490   5.502  11.076   5.674 -1.5255  2.5993  0.3157
  917MOL0     H26491   5.454  11.081   5.972  1.1124 -1.1771 -1.1580
  917MOL0     H26492   5.384  10.977   5.857 -3.2783  0.9239 -0.0369
  917MOL0     H26493   5.338  11.286   5.881  0.6662 -0.3910 -0.3912
  917MOL0     H26494   5.248  11.185   5.777  1.3983  1.3430 -0.7705
  917MOL0     H26495   5.084  10.999   5.933  0.7754 -2.0425  1.8514
  917MOL0     H26496   5.051  10.890   6.279 -1.1855  0.0228  1.4117
  917MOL0     H26497   5.003  10.864   6.119  2.5032  1.9961 -1.6182
  917MOL0     H26498   4.814  11.032   6.149  2.2578 -3.7141 -3.5409
  917MOL0     H26499   4.813  10.876   6.236  2.8031 -1.3856  0.8798
  917MOL0     H26500   4.926  11.032   6.431  0.1459  0.9822 -0.9034
  917MOL0     H26501   4.888  11.162   6.328  4.2946 -1.1730 -0.6443
  917MOL0     H26502   4.690  11.150   6.466  0.2125 -0.8889  1.4406
  917MOL0     H26503   4.634  11.098   6.309 -2.8763 -1.7086  0.8091
  917MOL0     H26504   4.530  10.747   6.471  0.3515  0.7096 -0.6625
  917MOL0     H26505   4.261  10.640   6.636  0.7525  2.0796  1.4651
  917MOL0     H26506   4.363  10.615   6.482 -1.4354  0.8426 -2.5971
  917MOL0     H26507   4.194  10.662   6.472 -0.7660  1.5211  0.5856
  917MOL0     H26508   3.890  11.184   6.494  3.5432 -1.0768  0.6561
  917MOL0     H26509   3.660  11.248   6.556  1.5149  0.1852  0.7070
  917MOL0     H26510   3.479  11.282   6.614  0.2178 -1.4749 -1.5484
  917MOL0     H26511   3.325  11.222   6.676 -0.5651 -4.9236  1.7214
  917MOL0     H26512   3.549  11.355   6.832  0.2654 -1.0027  1.3102
  917MOL0     H26513   3.399  11.430   6.785  0.2880  2.7576  3.3890
  917MOL0     H26514   3.420  11.180   6.966  0.9966 -0.5334  0.1467
  917MOL0     H26515   3.265  11.267   6.907  0.8785  2.3560 -0.7941
  917MOL0     H26516   3.383  11.476   7.026  1.7229  1.6787  2.7676
  917MOL0     H26517   3.511  11.372   7.074 -0.6559  1.3712  1.1224
  917MOL0     H26518   3.225  11.363   7.142 -0.9079 -1.8939 -1.0965
  917MOL0     H26519   3.335  11.227   7.193  0.0785 -0.3862  2.4631
  917MOL0     H26520   3.336  11.518   7.270  1.7658  0.5748  2.1041
  917MOL0     H26521   3.469  11.411   7.314  0.0155 -2.2009  0.6032
  917MOL0     H26522   3.338  11.285   7.467 -2.9291 -2.2619 -1.0106
  917MOL0     H26523   3.180  11.346   7.412 -1.2719 -0.1272  2.3561
  917MOL0     H26524   3.233  11.580   7.477 -0.0856  0.6095  2.1607
  917MOL0     H26525   3.372  11.520   7.568  1.1737  0.6522 -0.8573
  917MOL0     H26526   3.624  10.889   6.797  1.9426 -1.7677 -0.0867
  917MOL0     H26527   3.850  10.840   6.735 -2.5497 -2.6909 -2.7470
  917MOL0     H26528   4.249  11.145   6.532 -0.4292  0.9635 -1.1703
  917MOL0     H26529   4.498  11.154   6.496  1.1608 -0.3696  2.4167
  917MOL0     H26530   6.052  10.734   5.526 -0.7362  1.3794 -2.7509
  917MOL0     H26531   6.240  10.617   5.576 -0.0988 -0.5983 -3.5521
  917MOL0     H26532   6.878  10.648   5.607 -0.5751 -2.8344 -0.9365
  917MOL0     H26533   6.996  10.484   5.751  0.2092  0.5840  3.3434
  917MOL0     H26534   6.938  10.216   6.092 -2.9320 -1.1350  1.9346
  917MOL0     H26535   6.795  10.215   5.989  0.6244 -0.4512 -1.2645
  917MOL0     H26536   6.928  10.206   5.785  0.5676 -0.0751 -0.5807
  917MOL0     H26537   6.931  10.066   5.886 -1.0653  1.9162  0.4224
  917MOL0     H26538   7.141  10.122   5.800 -3.4099  0.3966 -0.9385
  917MOL0     H26539   7.141  10.290   5.867 -1.2822  0.5106  1.2586
  917MOL0     H26540   7.126  10.049   6.048 -1.7667  0.4373  0.1382
  917MOL0     H26541   7.179  10.204   6.091  1.1804 -0.8889  1.0959
  917MOL0     H26542   7.551  10.090   5.955 -0.6459  0.2657  1.8361
  917MOL0     H26543   6.659  10.423   5.986  0.6194 -0.0560  0.7494
  917MOL0     H26544   6.510  10.620   5.991  1.8865 -0.4321  0.0078
  917MOL0     H26545   6.418  10.666   5.843 -0.3922  0.2789  0.8801
  917MOL0     H26546   6.451  10.497   5.876  0.0182  0.5759  1.3361
  918MOL0     O26547   4.738   6.748  10.918  0.3157  0.2631  0.0892
  918MOL0     C26548   4.774   6.844  10.976  0.0810  0.1804 -0.2211
  918MOL0     O26549   4.737   6.881  11.098 -0.3181 -0.0316 -0.6797
  918MOL0     C26550   4.669   6.793  11.179  0.1630  0.0873 -0.6504
  918MOL0     C26551   4.534   6.769  11.149  0.0364 -0.9586  0.3581
  918MOL0     C26552   4.470   6.678  11.227  0.5847 -0.4415 -0.6340
  918MOL0     C26553   4.531   6.610  11.333  0.0443  0.3344 -0.2999
  918MOL0     O26554   4.460   6.511  11.396  0.2273  0.0502 -0.0337
  918MOL0     C26555   4.330   6.534  11.442 -0.1029 -1.2326 -0.0718
  918MOL0     C26556   4.339   6.504  11.592  1.1702 -0.0516  0.2887
  918MOL0     C26557   4.205   6.462  11.657  0.0883 -0.4059  1.3086
  918MOL0     C26558   4.218   6.429  11.799  0.4127 -0.3927 -0.1539
  918MOL0     C26559   4.072   6.398  11.846 -0.6472  0.2049 -0.1045
  918MOL0     C26560   4.073   6.358  12.001 -0.4110 -0.7037  0.7016
  918MOL0     C26561   4.122   6.457  12.104 -0.2007 -0.7286 -0.0731
  918MOL0     C26562   4.120   6.429  12.256  0.6573  0.9745 -0.2564
  918MOL0     N26563   3.983   6.437  12.317  0.0264  0.2856  0.4982
  918MOL0     C26564   3.885   6.349  12.287  0.1521 -0.6417  1.3598
  918MOL0     C26565   3.796   6.364  12.385  0.0160  0.2021  0.4574
  918MOL0     C26566   3.690   6.259  12.438 -0.3171  0.2234  0.8874
  918MOL0     C26567   3.695   6.137  12.327 -0.9668 -0.2038 -0.4740
  918MOL0     C26568   3.606   6.012  12.368  0.7508  0.1025  0.5083
  918MOL0     C26569   3.642   5.952  12.507  0.1928 -0.1686 -0.0955
  918MOL0     O26570   3.775   5.910  12.529 -0.1133 -0.7646  1.3804
  918MOL0     C26571   3.807   5.847  12.649 -0.0787 -0.4002  0.0895
  918MOL0     C26572   3.717   5.798  12.750 -0.1613 -0.7047 -0.3143
  918MOL0     C26573   3.768   5.726  12.863  1.0520  0.6699  0.8864
  918MOL0     C26574   3.660   5.676  12.962 -0.7329 -0.3204 -0.3662
  918MOL0     C26575   3.905   5.722  12.885 -0.5237 -0.4074 -0.8539
  918MOL0     C26576   3.970   5.653  13.007 -0.1719  0.4991 -0.2893
  918MOL0     O26577   3.901   5.642  13.129 -0.0681  0.4493 -1.2949
  918MOL0     C26578   3.981   5.601  13.235  1.2454  0.1605  0.7419
  918MOL0     C26579   4.067   5.698  13.280 -0.2817 -0.7104  0.4096
  918MOL0     C26580   4.160   5.667  13.386  0.4499 -0.2810  0.2425
  918MOL0     C26581   4.153   5.538  13.446 -1.0706 -0.3481  0.6934
  918MOL0     O26582   4.234   5.489  13.547  0.2832 -0.2604  1.0057
  918MOL0     C26583   4.373   5.544  13.572  0.5158  0.7589  0.4066
  918MOL0     C26584   4.421   5.486  13.707  0.1320 -0.5610  0.0934
  918MOL0     C26585   4.313   5.474  13.821 -0.7324  1.1104  0.1707
  918MOL0     C26586   4.370   5.403  13.948 -0.0698 -0.6811 -0.8234
  918MOL0     C26587   4.274   5.408  14.059 -0.4171 -0.6960  0.1373
  918MOL0     C26588   4.339   5.386  14.195  0.2638 -0.0941 -0.3909
  918MOL0     C26589   4.387   5.244  14.208  0.5606  0.4877 -0.2102
  918MOL0     C26590   4.280   5.149  14.253  0.2888  0.0999  0.2782
  918MOL0    Cl26591   4.209   5.191  14.414  0.0716  0.2660 -0.1015
  918MOL0     C26592   4.058   5.449  13.403 -0.9220  0.8828 -1.0618
  918MOL0     C26593   3.975   5.478  13.292  0.5512 -0.2141 -0.3772
  918MOL0     O26594   4.074   5.599  12.981  0.7325 -0.2389  0.0591
  918MOL0     C26595   3.990   5.771  12.776 -0.6503  0.8511  0.8766
  918MOL0     C26596   3.940   5.823  12.658  0.0781 -0.1813  0.6962
  918MOL0     N26597   3.836   6.477  12.465  0.6697  1.0325 -0.3448
  918MOL0     N26598   3.947   6.518  12.419 -0.5737 -0.5576  0.5776
  918MOL0     C26599   4.662   6.648  11.364  0.6536 -0.3680 -0.5404
  918MOL0     C26600   4.734   6.739  11.291 -0.8502  0.7305  0.7867
  918MOL0     C26601   4.857   6.947  10.911  0.8767 -0.1912  0.8577
  918MOL0     C26602   4.781   7.055  10.855 -0.5314  0.2550 -1.0114
  918MOL0     C26603   4.849   7.173  10.811 -0.3712  0.1834 -0.2419
  918MOL0     C26604   4.984   7.174  10.796  0.3061 -0.1738  0.0026
  918MOL0     O26605   5.043   7.295  10.761 -0.5698 -0.5615  0.8812
  918MOL0     C26606   5.182   7.292  10.731  0.1851 -0.3617  0.7750
  918MOL0     C26607   5.206   7.355  10.590 -0.7951 -0.5543 -0.6619
  918MOL0     C26608   5.152   7.496  10.584 -0.0993  0.2459 -0.5501
  918MOL0     C26609   5.164   7.534  10.438  0.7309 -0.3634 -1.0795
  918MOL0     C26610   5.172   7.676  10.433 -0.3138 -0.2778  0.4036
  918MOL0     C26611   5.194   7.795  10.434  0.1594 -0.7018  0.9553
  918MOL0     C26612   5.056   7.063  10.843 -0.0709  0.7186 -0.3009
  918MOL0     C26613   4.993   6.953  10.900  0.2197 -0.2572 -0.1577
  918MOL0     C26614   5.077   6.836  10.934  0.2613 -0.6722 -1.0086
  918MOL0     H26615   4.486   6.808  11.060  0.0235 -2.5956 -0.3914
  918MOL0     H26616   4.368   6.646  11.204 -0.3330  0.8937  1.2718
  918MOL0     H26617   4.271   6.461  11.386 -0.8155 -1.7178  1.2645
  918MOL0     H26618   4.302   6.638  11.424 -2.7647 -1.4869  1.9881
  918MOL0     H26619   4.415   6.426  11.595  2.0006  0.7512  0.8418
  918MOL0     H26620   4.380   6.592  11.643 -0.9020  1.0067  0.2599
  918MOL0     H26621   4.130   6.541  11.645  0.5587 -0.3467 -2.2528
  918MOL0     H26622   4.170   6.367  11.614  0.1830 -1.3902  3.3011
  918MOL0     H26623   4.290   6.347  11.799  1.2364  0.2933 -1.4863
  918MOL0     H26624   4.258   6.516  11.851  2.3402 -1.0660 -0.4230
  918MOL0     H26625   4.037   6.307  11.796 -0.0963  0.5186 -1.0809
  918MOL0     H26626   4.000   6.478  11.824 -1.1634  0.0252  0.8696
  918MOL0     H26627   3.969   6.331  12.022 -1.6725  1.9491 -1.5901
  918MOL0     H26628   4.135   6.268  12.012 -3.0567 -2.7239  0.1204
  918MOL0     H26629   4.069   6.552  12.108  0.6087 -0.3187  2.0741
  918MOL0     H26630   4.229   6.474  12.088 -0.3752  1.5727  0.9081
  918MOL0     H26631   4.169   6.331  12.266  1.9324  1.4998 -1.1903
  918MOL0     H26632   4.177   6.504  12.311 -0.0983  0.7030  0.9495
  918MOL0     H26633   3.896   6.269  12.214 -1.1241 -1.1332  1.6795
  918MOL0     H26634   3.584   6.286  12.435 -0.4338 -0.2006  1.0593
  918MOL0     H26635   3.724   6.210  12.530 -3.6998 -1.0169  1.6352
  918MOL0     H26636   3.675   6.184  12.230 -3.1690  2.0583  0.9342
  918MOL0     H26637   3.796   6.096  12.324 -1.6820 -1.9471 -1.7794
  918MOL0     H26638   3.504   6.046  12.387  0.2509 -0.9750 -0.1173
  918MOL0     H26639   3.597   5.931  12.295 -1.6195  0.4201  0.3831
  918MOL0     H26640   3.618   6.035  12.574 -0.2672 -1.0748  0.9144
  918MOL0     H26641   3.578   5.863  12.516  1.5796 -1.2369 -0.3981
  918MOL0     H26642   3.612   5.819  12.735 -0.3244  1.9609  3.1025
  918MOL0     H26643   3.572   5.650  12.903  0.4365  0.9556 -2.8479
  918MOL0     H26644   3.639   5.761  13.027  2.1517 -0.8390  1.4424
  918MOL0     H26645   3.699   5.588  13.015 -0.2592 -1.2334 -2.1309
  918MOL0     H26646   4.044   5.797  13.240  3.2460  1.1372  2.4401
  918MOL0     H26647   4.232   5.745  13.412 -1.4606  1.7022 -0.1128
  918MOL0     H26648   4.429   5.512  13.484 -1.1009 -2.1901  0.3022
  918MOL0     H26649   4.371   5.653  13.582 -0.3350  0.8132 -0.2201
  918MOL0     H26650   4.457   5.384  13.686 -0.7555 -1.4362  2.4723
  918MOL0     H26651   4.514   5.536  13.734  0.2002  0.0908 -1.2423
  918MOL0     H26652   4.224   5.422  13.784 -2.0535  3.4248 -0.0737
  918MOL0     H26653   4.279   5.575  13.847 -1.5502  0.9631 -0.2993
  918MOL0     H26654   4.462   5.440  13.994  0.1169  0.6958 -2.2284
  918MOL0     H26655   4.392   5.300  13.918  0.5897 -1.3494  1.6798
  918MOL0     H26656   4.226   5.505  14.062 -6.2701 -3.1206 -1.5587
  918MOL0     H26657   4.207   5.322  14.045 -1.4914  0.0754  0.4853
  918MOL0     H26658   4.255   5.410  14.261  1.3956 -0.4911  1.2416
  918MOL0     H26659   4.415   5.459  14.224 -0.1396  0.3754 -0.4879
  918MOL0     H26660   4.461   5.242  14.289  0.0181  2.8528  0.4180
  918MOL0     H26661   4.433   5.211  14.114 -0.9488  0.7298 -1.0691
  918MOL0     H26662   4.319   5.047  14.257 -0.3973 -0.1423  1.3083
  918MOL0     H26663   4.214   5.154  14.167  2.1547  0.2222 -1.2173
  918MOL0     H26664   4.071   5.355  13.455 -0.7209  0.5190 -1.7611
  918MOL0     H26665   3.898   5.405  13.267 -1.7301  1.4180  1.4686
  918MOL0     H26666   4.095   5.744  12.782 -0.8799 -0.6487 -0.9493
  918MOL0     H26667   4.001   5.849  12.572  0.3600  0.7878  1.1769
  918MOL0     H26668   4.708   6.611  11.455  0.3714  0.8390  0.1096
  918MOL0     H26669   4.837   6.768  11.310 -2.1585  6.1872  1.1429
  918MOL0     H26670   4.674   7.068  10.862 -0.6776 -0.6243 -1.4568
  918MOL0     H26671   4.792   7.256  10.771  1.0074 -0.2501 -3.4719
  918MOL0     H26672   5.233   7.347  10.810 -0.1015 -0.6855  1.1879
  918MOL0     H26673   5.228   7.193  10.725 -0.7304 -0.7714  0.0954
  918MOL0     H26674   5.167   7.290  10.511  2.4004 -2.4543 -0.8961
  918MOL0     H26675   5.316   7.359  10.589 -0.6237 -1.0655  2.7468
  918MOL0     H26676   5.047   7.491  10.613  0.1159  1.7811  0.6376
  918MOL0     H26677   5.197   7.567  10.655 -0.5896  1.8355 -1.7718
  918MOL0     H26678   5.074   7.505  10.384  1.3290  0.9646 -2.8917
  918MOL0     H26679   5.254   7.492  10.392  0.4226 -1.2277 -0.9066
  918MOL0     H26680   5.225   7.897  10.425  1.3807 -1.0967  0.4917
  918MOL0     H26681   5.164   7.054  10.854  0.5359  0.5689 -4.5532
  918MOL0     H26682   5.177   6.867  10.964 -0.6572  2.2831 -0.6635
  918MOL0     H26683   5.019   6.803  11.021  1.4061  0.9455  0.4474
  918MOL0     H26684   5.087   6.756  10.860  2.8431  0.0489 -1.5472
  919MOL0     O26685   6.757   5.538   5.161  0.0234  0.2380 -0.3474
  919MOL0     C26686   6.809   5.646   5.195 -0.1416 -0.0239  0.0640
  919MOL0     O26687   6.911   5.711   5.125  0.0120 -0.8592  0.2776
  919MOL0     C26688   6.948   5.669   5.003 -0.5072  0.3804  0.1345
  919MOL0     C26689   6.863   5.625   4.902 -0.2078  0.5454 -0.5662
  919MOL0     C26690   6.916   5.565   4.785  0.8155 -0.2775 -0.1487
  919MOL0     C26691   7.048   5.551   4.776 -1.2049 -0.2074  0.6159
  919MOL0     O26692   7.096   5.495   4.658 -0.1649 -0.4660  1.0470
  919MOL0     C26693   7.235   5.518   4.625  0.3381  0.0086 -0.0223
  919MOL0     C26694   7.230   5.615   4.501  0.3009 -0.7469  0.3193
  919MOL0     C26695   7.118   5.731   4.504 -0.9393  0.5277 -0.2449
  919MOL0     C26696   7.133   5.833   4.397 -0.3046 -0.2443 -0.9837
  919MOL0     C26697   6.990   5.893   4.366  0.2843 -0.2264 -1.2232
  919MOL0     C26698   6.970   6.032   4.424  0.2105  0.5763  0.6756
  919MOL0     C26699   6.831   6.081   4.390  0.4998  0.0466  0.3321
  919MOL0     C26700   6.811   6.233   4.402  0.5262 -0.4829  0.4759
  919MOL0     N26701   6.816   6.285   4.534  0.4642  0.8023 -0.3169
  919MOL0     C26702   6.707   6.317   4.616 -0.5959  0.3083 -1.1759
  919MOL0     C26703   6.748   6.373   4.726 -0.6635  0.0947 -0.4919
  919MOL0     C26704   6.686   6.415   4.855 -1.2689 -0.1937 -0.2817
  919MOL0     C26705   6.541   6.455   4.841  0.6357 -0.5552  0.0038
  919MOL0     C26706   6.488   6.552   4.949  0.1482  0.0778 -0.2927
  919MOL0     C26707   6.539   6.694   4.927 -0.6810  0.4591  1.1847
  919MOL0     O26708   6.444   6.764   4.850 -1.4370  0.5310  0.3573
  919MOL0     C26709   6.435   6.900   4.879  0.3547  0.4055 -0.7278
  919MOL0     C26710   6.407   6.939   5.008 -0.9072  0.4474  0.6979
  919MOL0     C26711   6.395   7.069   5.048  0.0964  0.1261  0.9828
  919MOL0     C26712   6.352   7.095   5.189  0.2134  0.3028  0.2887
  919MOL0     C26713   6.415   7.179   4.955  0.5094 -1.1665  0.0013
  919MOL0     C26714   6.414   7.323   4.979 -0.3569  0.5801  0.7890
  919MOL0     O26715   6.420   7.401   4.868  0.1025 -0.1170 -0.7757
  919MOL0     C26716   6.382   7.530   4.870  0.6320 -0.4009 -1.0107
  919MOL0     C26717   6.398   7.589   4.743 -0.4223 -0.5159 -0.1731
  919MOL0     C26718   6.358   7.730   4.731 -0.3284  0.0830 -0.2309
  919MOL0     C26719   6.294   7.801   4.823 -0.4452 -0.5197 -0.9571
  919MOL0     O26720   6.279   7.930   4.791 -0.0342  0.5996 -1.2035
  919MOL0     C26721   6.284   8.030   4.902 -0.2142 -0.2439  0.1143
  919MOL0     C26722   6.151   8.104   4.900  1.2206 -0.5358  0.3996
  919MOL0     C26723   6.121   8.190   4.769 -0.1046 -0.9029 -0.3584
  919MOL0     C26724   6.023   8.306   4.792 -0.0119 -0.3098  0.3155
  919MOL0     C26725   5.992   8.385   4.665 -0.0589  0.0894  0.9038
  919MOL0     C26726   6.105   8.482   4.636 -0.7420 -0.2188 -0.0016
  919MOL0     C26727   6.087   8.567   4.505 -0.4911  0.0829  0.5871
  919MOL0     C26728   6.171   8.695   4.511  0.3228  0.1737 -0.9518
  919MOL0    Cl26729   6.348   8.668   4.566 -0.0762  0.2882 -0.0191
  919MOL0     C26730   6.280   7.740   4.948 -0.5184  0.2928 -0.4765
  919MOL0     C26731   6.319   7.602   4.973 -0.5001  0.2254 -0.4849
  919MOL0     O26732   6.437   7.351   5.097 -0.4328 -0.4600  0.2383
  919MOL0     C26733   6.453   7.127   4.823 -0.0805  0.0101 -0.6074
  919MOL0     C26734   6.446   6.992   4.785 -0.3651 -0.2115  0.6218
  919MOL0     N26735   6.885   6.390   4.712  0.6467 -0.5362 -0.1879
  919MOL0     N26736   6.916   6.331   4.605 -0.1403  0.1585  0.4546
  919MOL0     C26737   7.136   5.591   4.887 -0.1993  0.3024 -0.8392
  919MOL0     C26738   7.090   5.652   4.995  0.1306 -0.2472  0.2006
  919MOL0     C26739   6.771   5.718   5.319 -1.5670  0.3015  0.5841
  919MOL0     C26740   6.779   5.866   5.307  0.6834 -0.3148 -0.0214
  919MOL0     C26741   6.754   5.931   5.418  1.1568 -0.6969 -1.0842
  919MOL0     C26742   6.724   5.879   5.543  0.9834  0.0067  0.1884
  919MOL0     O26743   6.691   5.949   5.657  0.0832 -0.4078 -0.0187
  919MOL0     C26744   6.688   6.095   5.660 -0.0219 -0.7338  0.2429
  919MOL0     C26745   6.640   6.159   5.795 -0.4134 -0.0963  0.1443
  919MOL0     C26746   6.721   6.104   5.918 -0.1718 -0.5670  0.0555
  919MOL0     C26747   6.660   6.144   6.057  0.6934 -0.4292 -0.0380
  919MOL0     C26748   6.740   6.078   6.170  0.4462 -0.0733 -0.0733
  919MOL0     C26749   6.801   6.018   6.255 -0.7285 -0.6356 -0.9319
  919MOL0     C26750   6.718   5.741   5.558  0.7122  0.4222  0.3250
  919MOL0     C26751   6.749   5.659   5.447  0.2121 -0.8835  0.0293
  919MOL0     C26752   6.748   5.505   5.466 -0.8475 -0.4902 -0.0688
  919MOL0     H26753   6.758   5.647   4.912  0.0293  0.6894  3.0160
  919MOL0     H26754   6.851   5.537   4.702 -0.3947  1.0117  0.3194
  919MOL0     H26755   7.280   5.420   4.603  1.3090  0.8391 -2.0866
  919MOL0     H26756   7.295   5.569   4.700 -1.4482  2.2657 -0.0478
  919MOL0     H26757   7.328   5.663   4.508 -0.2992  0.7145 -0.8549
  919MOL0     H26758   7.215   5.567   4.404 -0.1590 -0.5581  0.2940
  919MOL0     H26759   7.020   5.686   4.486 -1.1711  0.7226  0.4932
  919MOL0     H26760   7.121   5.779   4.603  0.8302 -0.3010  0.1620
  919MOL0     H26761   7.207   5.911   4.413 -2.5379  1.9736 -0.8773
  919MOL0     H26762   7.171   5.781   4.308  1.5187 -0.9492  0.1644
  919MOL0     H26763   6.906   5.828   4.392 -1.8258  2.8153  0.1330
  919MOL0     H26764   6.983   5.897   4.257 -3.1323 -5.5664 -1.5834
  919MOL0     H26765   6.977   6.022   4.533  0.0028  2.8237  0.9590
  919MOL0     H26766   7.058   6.088   4.392 -1.7023  1.7855 -3.1618
  919MOL0     H26767   6.761   6.018   4.445  0.9938 -2.7840 -2.0385
  919MOL0     H26768   6.817   6.055   4.285 -3.4644  1.1437  0.4368
  919MOL0     H26769   6.886   6.288   4.345  0.4490 -1.0528 -0.1873
  919MOL0     H26770   6.712   6.247   4.356  2.3352  0.5842 -3.5514
  919MOL0     H26771   6.608   6.275   4.601 -0.9809 -2.0936  5.1492
  919MOL0     H26772   6.747   6.499   4.887  0.6227 -2.4684  2.6287
  919MOL0     H26773   6.709   6.335   4.926  0.3883 -0.0724 -0.6381
  919MOL0     H26774   6.527   6.504   4.744 -0.5171  2.0760  1.3960
  919MOL0     H26775   6.475   6.368   4.835  0.5888 -0.5948  0.9143
  919MOL0     H26776   6.379   6.549   4.947  0.1671 -1.4829  0.0696
  919MOL0     H26777   6.520   6.522   5.049 -0.0674  1.0442  0.0743
  919MOL0     H26778   6.552   6.738   5.027  0.5086 -1.3392  1.8681
  919MOL0     H26779   6.642   6.699   4.889 -1.6456  0.9397 -1.5921
  919MOL0     H26780   6.381   6.855   5.071 -0.2313  1.7332  2.7689
  919MOL0     H26781   6.431   7.133   5.254 -1.2128  1.3411  1.5183
  919MOL0     H26782   6.314   7.009   5.245  1.2230  2.2446  4.3140
  919MOL0     H26783   6.272   7.170   5.182  3.7929  4.4554 -0.8177
  919MOL0     H26784   6.439   7.532   4.661  0.0852 -0.5061  0.0644
  919MOL0     H26785   6.388   7.769   4.634 -0.5383 -1.6120 -1.0120
  919MOL0     H26786   6.331   7.999   4.996 -0.6418  1.5016  0.9391
  919MOL0     H26787   6.365   8.100   4.877 -0.0832 -0.4740 -0.1168
  919MOL0     H26788   6.077   8.023   4.896  0.1878  0.4135 -0.5284
  919MOL0     H26789   6.138   8.169   4.987 -0.2944 -0.6089  0.2637
  919MOL0     H26790   6.069   8.121   4.701 -1.0049 -1.5763  0.9769
  919MOL0     H26791   6.220   8.214   4.729 -0.2069  0.4260  0.1398
  919MOL0     H26792   6.060   8.368   4.875 -1.9755  0.2280  0.8413
  919MOL0     H26793   5.931   8.260   4.828 -0.7212  2.9931  3.2733
  919MOL0     H26794   5.964   8.328   4.576  0.6807  2.5536 -1.0016
  919MOL0     H26795   5.916   8.462   4.683  0.7968  1.3417 -0.5788
  919MOL0     H26796   6.197   8.424   4.629 -1.0142 -0.4880 -1.8033
  919MOL0     H26797   6.129   8.548   4.720  3.3286 -0.0116 -1.1146
  919MOL0     H26798   5.982   8.586   4.481 -1.9708 -4.2541  2.6395
  919MOL0     H26799   6.120   8.507   4.420 -2.1910  0.2067 -0.1966
  919MOL0     H26800   6.124   8.760   4.586 -0.8114 -1.8674  0.2091
  919MOL0     H26801   6.169   8.742   4.413  1.4620  1.5632 -0.3454
  919MOL0     H26802   6.230   7.800   5.023  0.7119  2.0544 -0.9994
  919MOL0     H26803   6.310   7.551   5.068 -0.5495 -1.4776 -1.3538
  919MOL0     H26804   6.481   7.190   4.739  0.7787  1.3939  0.6751
  919MOL0     H26805   6.459   6.947   4.688  1.3744 -2.0433  1.6421
  919MOL0     H26806   7.244   5.584   4.894 -0.2606  0.1608  0.0576
  919MOL0     H26807   7.169   5.679   5.065  0.7240 -0.7912 -0.2601
  919MOL0     H26808   6.788   5.924   5.215 -3.1418  3.6044  1.7215
  919MOL0     H26809   6.759   6.039   5.409  4.5937 -0.7124 -0.3443
  919MOL0     H26810   6.790   6.129   5.641  0.1192 -0.3419  1.6363
  919MOL0     H26811   6.624   6.132   5.579  1.1496 -0.2110 -0.4742
  919MOL0     H26812   6.534   6.136   5.810 -0.4688 -1.4511 -1.9112
  919MOL0     H26813   6.653   6.267   5.783  2.4462 -0.4475 -0.7525
  919MOL0     H26814   6.730   5.997   5.900 -0.2551 -0.4492 -0.6867
  919MOL0     H26815   6.822   6.147   5.921 -0.8137  0.9597  0.8349
  919MOL0     H26816   6.551   6.135   6.066  0.9662 -3.2744  1.3071
  919MOL0     H26817   6.688   6.250   6.065  0.7024 -0.2099 -2.2690
  919MOL0     H26818   6.852   5.967   6.334 -1.6336 -0.4043 -0.1782
  919MOL0     H26819   6.696   5.692   5.652  0.3450 -2.1920 -1.0416
  919MOL0     H26820   6.703   5.450   5.383 -1.8250  2.5010 -1.6608
  919MOL0     H26821   6.851   5.468   5.471 -0.5484  0.3101 -0.2847
  919MOL0     H26822   6.691   5.487   5.558 -1.3701  4.2839  0.8138
  920MOL0     O26823   0.272   7.308  10.718  0.6742 -0.7056 -0.5883
  920MOL0     C26824   0.203   7.209  10.703  0.5570  0.4480  0.4252
  920MOL0     O26825   0.174   7.149  10.588 -0.1333  0.3329  0.0603
  920MOL0     C26826   0.189   7.194  10.455  1.1728 -0.9628 -0.1981
  920MOL0     C26827   0.161   7.321  10.414 -1.4948 -0.2935  0.4927
  920MOL0     C26828   0.165   7.352  10.279 -0.0260 -0.6610  0.1967
  920MOL0     C26829   0.206   7.259  10.177  1.2884  1.5022  0.1147
  920MOL0     O26830   0.227   7.286  10.040 -0.2390 -0.0969 -0.0426
  920MOL0     C26831   0.231   7.424   9.990 -0.6955 -0.0774  1.0070
  920MOL0     C26832   0.260   7.414   9.842  0.1705  0.3947 -0.2547
  920MOL0     C26833   0.283   7.553   9.777  0.8508 -0.1119 -0.1675
  920MOL0     C26834   0.150   7.625   9.747 -0.7347  0.0180  0.6024
  920MOL0     C26835   0.173   7.739   9.652  0.0278  0.6283  0.9072
  920MOL0     C26836   0.154   7.711   9.503  0.2761  0.6858 -0.2229
  920MOL0     C26837   0.177   7.832   9.419 -0.7258 -0.7195  0.1140
  920MOL0     C26838   0.114   7.825   9.283 -0.4479  0.0130 -0.2005
  920MOL0     N26839   0.185   7.915   9.189  0.9150 -0.4599  0.1353
  920MOL0     C26840   0.256   7.877   9.077 -0.2774 -0.0288 -0.2060
  920MOL0     C26841   0.289   7.993   9.020  1.1698 -0.6405 -0.1552
  920MOL0     C26842   0.373   8.008   8.897 -0.2382 -0.4046 -0.1295
  920MOL0     C26843   0.340   7.921   8.784 -0.8754 -1.1423 -0.4322
  920MOL0     C26844   0.406   7.959   8.651 -0.6448  0.4308  0.8540
  920MOL0     C26845   0.535   7.879   8.631 -1.1580 -0.6238 -0.2768
  920MOL0     O26846   0.601   7.940   8.512  0.3595  0.1416 -0.9979
  920MOL0     C26847   0.575   7.914   8.377  0.5252 -0.2771 -0.5921
  920MOL0     C26848   0.662   7.958   8.269 -0.1913 -0.3321 -0.9170
  920MOL0     C26849   0.648   7.921   8.130  0.0153 -0.2396 -0.1815
  920MOL0     C26850   0.751   7.950   8.025 -0.1097 -0.1481  0.4066
  920MOL0     C26851   0.527   7.852   8.098 -0.0775 -0.6630  0.5454
  920MOL0     C26852   0.470   7.838   7.963  0.0208  0.1001 -0.8156
  920MOL0     O26853   0.363   7.745   7.958 -0.8979  0.8875 -0.0284
  920MOL0     C26854   0.307   7.723   7.833  0.0665  0.0863  0.1006
  920MOL0     C26855   0.291   7.600   7.779 -0.1936 -0.6586  0.3805
  920MOL0     C26856   0.225   7.581   7.660 -0.2741 -0.6373  0.2157
  920MOL0     C26857   0.165   7.680   7.594 -0.2293 -0.1506  0.3084
  920MOL0     O26858   0.080   7.659   7.488 -0.2091  0.5953 -0.2511
  920MOL0     C26859   0.147   7.617   7.368  0.0125 -0.5874 -0.2031
  920MOL0     C26860   0.050   7.625   7.244  0.0413 -0.0956  0.5214
  920MOL0     C26861   0.131   7.623   7.109 -0.3802 -0.0524  0.3862
  920MOL0     C26862   0.026   7.649   6.998 -0.0092 -0.8667 -0.2901
  920MOL0     C26863   0.072   7.650   6.854 -0.2221  0.0379  0.0465
  920MOL0     C26864   0.126   7.514   6.817 -0.0934  0.7393 -0.6911
  920MOL0     C26865   0.132   7.475   6.666 -0.3046 -0.1268  0.1145
  920MOL0     C26866   0.141   7.319   6.651  0.3061  0.4851 -0.0414
  920MOL0    Cl26867   0.070   7.284   6.488 -0.1903 -0.1877 -0.5571
  920MOL0     C26868   0.172   7.816   7.636 -1.6251  0.2214  0.1411
  920MOL0     C26869   0.255   7.828   7.755 -0.1051  0.3154  0.2687
  920MOL0     O26870   0.512   7.895   7.866  0.8126 -0.2359  0.4796
  920MOL0     C26871   0.445   7.808   8.206  0.2988  0.3744 -0.5246
  920MOL0     C26872   0.471   7.835   8.343  0.0590  0.5569 -0.0212
  920MOL0     N26873   0.214   8.091   9.079 -0.7954 -0.0062 -0.1346
  920MOL0     N26874   0.151   8.044   9.172 -0.0762  0.0589  0.2664
  920MOL0     C26875   0.229   7.130  10.221 -0.0515 -0.3921 -0.1895
  920MOL0     C26876   0.222   7.093  10.365 -0.2587  0.3713  0.3574
  920MOL0     C26877   0.173   7.132  10.827 -0.5740  1.0499 -0.2987
  920MOL0     C26878   0.136   6.997  10.806  0.3463 -0.0218  0.4661
  920MOL0     C26879   0.096   6.922  10.915 -0.5969  0.1915 -0.4775
  920MOL0     C26880   0.115   6.975  11.048 -0.2806  0.1229 -0.5539
  920MOL0     O26881   0.086   6.882  11.148 -0.1310 -0.7750  0.7816
  920MOL0     C26882   0.004   6.932  11.259 -0.6097 -1.1404 -0.6107
  920MOL0     C26883  -0.086   6.825  11.312  0.5722  0.3399 -0.3683
  920MOL0     C26884  -0.017   6.687  11.342 -0.7202 -0.4250  0.4503
  920MOL0     C26885  -0.114   6.575  11.401  0.4415  0.0032 -0.3889
  920MOL0     C26886  -0.045   6.483  11.497 -0.2338  0.6902 -0.3071
  920MOL0     C26887   0.019   6.408  11.571  0.8967 -1.3086  0.3409
  920MOL0     C26888   0.143   7.108  11.068 -1.2943  0.7521 -0.7911
  920MOL0     C26889   0.172   7.189  10.960 -0.6070 -0.8172 -1.1260
  920MOL0     C26890   0.208   7.334  10.986  0.3978  0.4170  0.5764
  920MOL0     H26891   0.152   7.401  10.487 -2.1616  1.2188 -1.1713
  920MOL0     H26892   0.145   7.452  10.241 -1.0208 -0.6230  0.7755
  920MOL0     H26893   0.314   7.479  10.036 -0.3569  0.5971 -0.3712
  920MOL0     H26894   0.135   7.473  10.007 -2.1973 -3.1722  2.2565
  920MOL0     H26895   0.350   7.353   9.831 -0.2513 -0.8356  2.3824
  920MOL0     H26896   0.181   7.361   9.788  1.3800 -2.0478  0.1944
  920MOL0     H26897   0.349   7.611   9.843 -1.5624 -0.5598  2.8535
  920MOL0     H26898   0.347   7.545   9.688  2.1262  2.2558  0.4342
  920MOL0     H26899   0.084   7.548   9.705  2.1277 -3.0390  1.2367
  920MOL0     H26900   0.107   7.665   9.840 -0.3780  0.7718  0.4524
  920MOL0     H26901   0.275   7.776   9.656  1.2300 -2.3395  0.2718
  920MOL0     H26902   0.106   7.820   9.681 -1.3808  0.5815 -1.8699
  920MOL0     H26903   0.229   7.641   9.464  0.4812  1.4561 -1.2546
  920MOL0     H26904   0.053   7.671   9.492  0.7555  0.0317 -3.2082
  920MOL0     H26905   0.285   7.836   9.410 -0.3356 -0.8848  3.5328
  920MOL0     H26906   0.151   7.924   9.473  0.1476  0.6732 -1.7417
  920MOL0     H26907   0.117   7.721   9.248  0.6232 -0.4392  1.1230
  920MOL0     H26908   0.011   7.863   9.293 -0.4944  0.1042 -0.9595
  920MOL0     H26909   0.281   7.775   9.049 -4.5130 -2.1504  2.7546
  920MOL0     H26910   0.478   7.998   8.923 -0.4577 -2.4559  0.0985
  920MOL0     H26911   0.358   8.115   8.880 -1.6084 -0.5859 -0.1838
  920MOL0     H26912   0.345   7.815   8.810 -0.4801 -0.8760  0.6239
  920MOL0     H26913   0.235   7.945   8.763 -0.3437  1.5039 -0.3330
  920MOL0     H26914   0.335   7.920   8.578  2.6430 -4.3979 -0.2011
  920MOL0     H26915   0.420   8.067   8.639 -0.0927  0.5794  2.6007
  920MOL0     H26916   0.592   7.897   8.722 -1.3921  1.5502 -0.5240
  920MOL0     H26917   0.512   7.774   8.611  0.2983 -0.8793 -0.7415
  920MOL0     H26918   0.744   8.020   8.303 -0.4495 -0.7030  0.4358
  920MOL0     H26919   0.759   8.059   8.013 -0.1912 -0.2940 -1.1541
  920MOL0     H26920   0.747   7.911   7.923  1.2287 -1.6521  0.8912
  920MOL0     H26921   0.847   7.913   8.062 -1.0076 -1.5171  1.4566
  920MOL0     H26922   0.337   7.514   7.829 -1.1105  0.2199  2.9208
  920MOL0     H26923   0.210   7.478   7.629 -1.1642 -1.1853  2.2839
  920MOL0     H26924   0.230   7.687   7.357  0.0253 -0.3555  1.1226
  920MOL0     H26925   0.176   7.512   7.363  3.6245  0.1521  1.6998
  920MOL0     H26926  -0.020   7.542   7.238  0.9725 -0.8036 -2.8783
  920MOL0     H26927  -0.013   7.714   7.250  1.3531  1.1613 -2.3865
  920MOL0     H26928   0.179   7.526   7.095  2.0276  1.1924 -0.5616
  920MOL0     H26929   0.206   7.702   7.100 -1.2658  0.7512 -0.0929
  920MOL0     H26930  -0.017   7.747   7.017  2.2691  0.6321 -2.1953
  920MOL0     H26931  -0.039   7.563   7.012  1.3495 -1.9386 -0.2971
  920MOL0     H26932  -0.015   7.669   6.790 -1.1252 -2.2657  0.5006
  920MOL0     H26933   0.157   7.717   6.838  2.0691 -2.3174  1.5573
  920MOL0     H26934   0.061   7.444   6.870 -1.4760  1.9211 -0.7730
  920MOL0     H26935   0.226   7.492   6.854 -1.5128 -3.4064  1.3603
  920MOL0     H26936   0.228   7.511   6.627  1.4743 -0.0506  4.0567
  920MOL0     H26937   0.044   7.509   6.612 -0.5647 -0.6121  0.2227
  920MOL0     H26938   0.080   7.278   6.732  1.3377  0.8750  0.9571
  920MOL0     H26939   0.244   7.283   6.663  0.7193  1.8325  0.7108
  920MOL0     H26940   0.128   7.901   7.585  1.8249  3.1355  1.6053
  920MOL0     H26941   0.263   7.926   7.802  0.0363 -0.2948  1.5478
  920MOL0     H26942   0.360   7.742   8.189  0.5579 -1.5205  4.1214
  920MOL0     H26943   0.408   7.796   8.423  3.0329 -1.5771  1.4719
  920MOL0     H26944   0.255   7.062  10.141  5.9536  2.4514 -1.2085
  920MOL0     H26945   0.236   6.995  10.410  1.3945  0.0269 -0.8147
  920MOL0     H26946   0.146   6.946  10.711  2.7964 -1.6051  1.4588
  920MOL0     H26947   0.057   6.821  10.904 -2.4821  0.9848 -1.4788
  920MOL0     H26948   0.070   6.957  11.343 -2.5659 -1.0931  0.9799
  920MOL0     H26949  -0.043   7.025  11.224  0.7289  0.1661  0.8505
  920MOL0     H26950  -0.166   6.821  11.238  1.5365 -1.0599 -1.3849
  920MOL0     H26951  -0.139   6.858  11.402 -0.8584  0.6181 -1.2816
  920MOL0     H26952   0.022   6.653  11.245 -3.0218 -0.7811 -0.4160
  920MOL0     H26953   0.071   6.701  11.405  0.0037  2.4916 -1.0312
  920MOL0     H26954  -0.144   6.504  11.323  0.4851 -0.0026 -0.4005
  920MOL0     H26955  -0.203   6.620  11.445  0.8392  0.9039 -0.4941
  920MOL0     H26956   0.067   6.344  11.642  1.2179 -2.1717 -0.6176
  920MOL0     H26957   0.171   7.133  11.170  2.1457 -0.1664 -1.3896
  920MOL0     H26958   0.317   7.348  10.989  0.5711 -0.8583  2.9798
  920MOL0     H26959   0.164   7.405  10.915  2.0553 -0.0585 -1.0251
  920MOL0     H26960   0.175   7.368  11.085  0.3830  0.1741  0.6530
  921MOL0     O26961   9.860   6.409  10.277 -0.5064  0.1121 -0.0943
  921MOL0     C26962   9.909   6.508  10.328  0.6954 -0.3465 -0.5146
  921MOL0     O26963  10.000   6.586  10.277  0.7213  0.1705 -0.1117
  921MOL0     C26964  10.049   6.554  10.155 -0.7221 -0.4979 -0.2488
  921MOL0     C26965   9.979   6.562  10.032  0.2116  0.2017 -0.3714
  921MOL0     C26966  10.047   6.528   9.914  1.4024  0.1861  0.2366
  921MOL0     C26967  10.187   6.517   9.907  0.3859  0.0526  0.7019
  921MOL0     O26968  10.248   6.488   9.786 -0.0431 -0.0996 -1.1403
  921MOL0     C26969  10.205   6.563   9.670 -0.2308 -0.2031  0.3584
  921MOL0     C26970  10.294   6.522   9.555 -0.4251 -0.5603 -0.5176
  921MOL0     C26971  10.439   6.586   9.562  0.4039  0.0277 -0.1115
  921MOL0     C26972  10.510   6.651   9.438  0.4650 -0.7421  0.2510
  921MOL0     C26973  10.666   6.666   9.446 -0.6292  0.8694  0.6978
  921MOL0     C26974  10.713   6.727   9.573 -0.0716 -0.4075 -0.4233
  921MOL0     C26975  10.863   6.750   9.602 -0.1692 -0.3191  0.4214
  921MOL0     C26976  10.887   6.878   9.683  0.1762  0.5820 -0.2623
  921MOL0     N26977  10.829   6.995   9.616  0.6211 -0.6645  0.1220
  921MOL0     C26978  10.880   7.071   9.515 -0.7748  0.8586 -0.1340
  921MOL0     C26979  10.782   7.155   9.471  0.1160  0.0906 -0.5439
  921MOL0     C26980  10.798   7.228   9.341  1.3137  0.4772  0.0675
  921MOL0     C26981  10.741   7.368   9.336  0.3888 -0.5951 -0.1451
  921MOL0     C26982  10.719   7.402   9.184  0.7888  0.2021 -1.0634
  921MOL0     C26983  10.692   7.547   9.159  0.3231 -0.5208  0.5810
  921MOL0     O26984  10.571   7.579   9.215 -0.7180  0.4174  0.8593
  921MOL0     C26985  10.518   7.705   9.178  1.0109  0.3990 -0.7719
  921MOL0     C26986  10.394   7.735   9.233  0.9012 -0.4640  0.5081
  921MOL0     C26987  10.330   7.853   9.220  0.4765  0.7703  0.3351
  921MOL0     C26988  10.205   7.864   9.304 -0.0402 -0.3277 -0.2387
  921MOL0     C26989  10.381   7.946   9.119  0.1727 -0.0170 -0.0872
  921MOL0     C26990  10.305   8.072   9.087 -0.6952  0.5907 -1.0234
  921MOL0     O26991  10.369   8.150   8.998  0.0431 -0.3697  0.4162
  921MOL0     C26992  10.318   8.265   8.946  0.0187 -0.3802  0.2993
  921MOL0     C26993  10.196   8.249   8.880  1.1961 -0.8925 -0.4710
  921MOL0     C26994  10.135   8.361   8.816  0.1253 -0.1147 -1.2096
  921MOL0     C26995  10.208   8.479   8.817 -0.4844  0.6994 -0.6654
  921MOL0     O26996  10.164   8.570   8.733 -1.0046 -0.3819 -0.0279
  921MOL0     C26997  10.025   8.621   8.750 -0.6572  0.5549 -0.8655
  921MOL0     C26998  10.046   8.762   8.814 -0.0374 -0.1027 -0.0169
  921MOL0     C26999   9.920   8.827   8.880 -0.4580  0.2794  0.2706
  921MOL0     C27000   9.824   8.871   8.774 -0.1065 -0.3844  0.0291
  921MOL0     C27001   9.685   8.897   8.837 -0.2080  0.2883 -0.3863
  921MOL0     C27002   9.672   8.992   8.957 -0.5623 -0.2446  0.1804
  921MOL0     C27003   9.525   9.014   9.003 -0.1031  0.1004 -0.1795
  921MOL0     C27004   9.464   8.890   9.059  0.9200 -0.5022  0.0426
  921MOL0    Cl27005   9.290   8.931   9.091 -0.0041  0.1239  0.0130
  921MOL0     C27006  10.324   8.494   8.890  0.3288 -0.4834  0.3118
  921MOL0     C27007  10.380   8.392   8.962 -0.1984  0.1852 -0.0204
  921MOL0     O27008  10.201   8.100   9.145  0.9622 -0.1698  0.4761
  921MOL0     C27009  10.502   7.916   9.059 -0.5291  0.0819  0.3778
  921MOL0     C27010  10.571   7.802   9.090  0.8776 -0.3529  0.7961
  921MOL0     N27011  10.683   7.152   9.567  0.5704  0.0230 -0.2031
  921MOL0     N27012  10.714   7.063   9.655  0.7579  0.9767  1.0382
  921MOL0     C27013  10.254   6.505  10.028  0.0687  0.1516 -0.4921
  921MOL0     C27014  10.183   6.529  10.148 -0.8952 -0.7544 -0.7475
  921MOL0     C27015   9.844   6.567  10.435  0.2804  0.6076  0.6149
  921MOL0     C27016   9.698   6.575  10.440  0.0312 -0.2905  1.3662
  921MOL0     C27017   9.629   6.646  10.542 -0.1803  1.0914  0.9696
  921MOL0     C27018   9.696   6.713  10.636 -0.7613 -1.0266  0.6871
  921MOL0     O27019   9.642   6.806  10.732  0.2111  0.3715  0.1112
  921MOL0     C27020   9.497   6.811  10.753 -0.0517  0.4571 -0.6756
  921MOL0     C27021   9.463   6.895  10.876 -0.6048 -0.4508  0.3646
  921MOL0     C27022   9.334   6.981  10.888  0.1549  0.0784  0.2730
  921MOL0     C27023   9.302   7.082  10.768 -0.0421  0.0046 -0.6026
  921MOL0     C27024   9.160   7.116  10.784  0.4451  0.1223 -0.1817
  921MOL0     C27025   9.041   7.134  10.806 -0.3035  0.4202  0.2577
  921MOL0     C27026   9.838   6.710  10.629  0.8333 -1.0715  0.4333
  921MOL0     C27027   9.913   6.634  10.541  0.2254  0.4464  0.4381
  921MOL0     C27028  10.060   6.633  10.588 -0.9619  0.6781  0.2964
  921MOL0     H27029   9.873   6.586  10.039  0.5215  1.2658  1.3995
  921MOL0     H27030   9.979   6.509   9.831  1.6617 -0.2847  0.1297
  921MOL0     H27031  10.205   6.670   9.689  0.8112  0.2149 -1.6715
  921MOL0     H27032  10.103   6.531   9.646 -0.5524  1.3609 -0.4909
  921MOL0     H27033  10.301   6.413   9.560  0.9617 -0.5264 -1.2448
  921MOL0     H27034  10.251   6.556   9.460 -0.7253 -1.2491 -0.6311
  921MOL0     H27035  10.443   6.665   9.637  2.5426  1.3871 -1.5541
  921MOL0     H27036  10.512   6.516   9.604 -1.6138 -0.9553  1.9433
  921MOL0     H27037  10.488   6.589   9.351  1.3885  0.7189 -1.0867
  921MOL0     H27038  10.471   6.750   9.411  0.8257 -1.5327 -3.8508
  921MOL0     H27039  10.698   6.732   9.365  3.7783  0.1615  1.5940
  921MOL0     H27040  10.719   6.573   9.427  1.8767  2.1660  0.9010
  921MOL0     H27041  10.662   6.823   9.590 -2.2436 -2.0683  4.1768
  921MOL0     H27042  10.681   6.662   9.655  1.1085 -1.0238 -0.4328
  921MOL0     H27043  10.915   6.776   9.510  7.4619  1.1164  4.3554
  921MOL0     H27044  10.906   6.654   9.633  1.1694 -1.8234 -4.9695
  921MOL0     H27045  10.817   6.872   9.767 -1.0567  1.5288 -1.1857
  921MOL0     H27046  10.993   6.898   9.703  0.4057 -0.0997 -0.7563
  921MOL0     H27047  10.973   7.049   9.463  0.4279 -0.6853  2.5041
  921MOL0     H27048  10.743   7.168   9.269 -0.0683 -0.0546  1.5201
  921MOL0     H27049  10.906   7.229   9.324  1.7959  0.7447  2.6340
  921MOL0     H27050  10.659   7.402   9.399 -0.0919 -1.3093 -0.3618
  921MOL0     H27051  10.827   7.430   9.365  1.7078 -1.4293 -2.0069
  921MOL0     H27052  10.805   7.372   9.124 -0.9370 -2.1495 -2.4922
  921MOL0     H27053  10.631   7.340   9.163 -0.6121 -0.0170  3.9632
  921MOL0     H27054  10.777   7.605   9.197  0.3611 -1.6285  2.3056
  921MOL0     H27055  10.681   7.571   9.053 -3.1507  0.4991  1.0444
  921MOL0     H27056  10.348   7.673   9.309 -0.5274  1.3008  1.1422
  921MOL0     H27057  10.235   7.930   9.385 -0.5427 -1.2170  0.6875
  921MOL0     H27058  10.178   7.771   9.354  1.0424  0.0748  1.1654
  921MOL0     H27059  10.116   7.901   9.251 -1.0825  1.4872  2.5497
  921MOL0     H27060  10.150   8.151   8.868 -2.9893  1.1586 -4.0030
  921MOL0     H27061  10.036   8.358   8.770 -0.6633  0.6874  0.3535
  921MOL0     H27062   9.964   8.636   8.661 -1.2012 -2.8042 -1.1565
  921MOL0     H27063   9.962   8.560   8.815  2.3612 -3.2180 -1.1629
  921MOL0     H27064  10.115   8.761   8.899 -3.1031  1.9607  2.7712
  921MOL0     H27065  10.090   8.832   8.742 -2.1907 -0.2691 -1.5746
  921MOL0     H27066   9.945   8.921   8.929 -0.5109  0.6488 -0.4091
  921MOL0     H27067   9.882   8.747   8.944 -0.6914  0.1865  0.0200
  921MOL0     H27068   9.793   8.798   8.698 -2.1822 -0.3106  0.7409
  921MOL0     H27069   9.859   8.962   8.726  0.1010 -1.2953 -1.6491
  921MOL0     H27070   9.617   8.947   8.767  1.8375  0.4700 -2.3410
  921MOL0     H27071   9.652   8.797   8.866 -1.9535  1.1232  0.6904
  921MOL0     H27072   9.725   9.085   8.931 -1.6374  0.3291 -0.0061
  921MOL0     H27073   9.732   8.956   9.041 -1.2714  1.5126  1.5135
  921MOL0     H27074   9.465   9.065   8.928 -1.7604 -0.9696  0.3736
  921MOL0     H27075   9.532   9.075   9.093 -0.1538 -1.1069  0.6588
  921MOL0     H27076   9.511   8.847   9.147  0.5079  0.0182  0.5243
  921MOL0     H27077   9.451   8.810   8.986 -1.7069  0.0944 -0.2531
  921MOL0     H27078  10.385   8.582   8.874 -1.1835  0.5974  0.2717
  921MOL0     H27079  10.482   8.404   8.997  1.0272 -1.8178 -2.5302
  921MOL0     H27080  10.543   7.990   8.991 -0.1311 -0.0326  0.4916
  921MOL0     H27081  10.675   7.787   9.062  0.8521 -1.0143  1.0494
  921MOL0     H27082  10.356   6.472  10.039  0.0751  0.6927  1.2244
  921MOL0     H27083  10.240   6.528  10.240  0.9624 -1.2243 -1.8593
  921MOL0     H27084   9.645   6.514  10.368  2.1615 -1.5888  0.8166
  921MOL0     H27085   9.523   6.626  10.560 -0.1605 -3.3929 -2.1808
  921MOL0     H27086   9.440   6.834  10.663  0.5240  0.3653 -1.0702
  921MOL0     H27087   9.468   6.708  10.777 -0.5688  0.9277  0.8388
  921MOL0     H27088   9.547   6.962  10.894 -0.8869 -0.3414  1.3251
  921MOL0     H27089   9.450   6.829  10.962 -3.2919  2.0192  2.0180
  921MOL0     H27090   9.248   6.912  10.893  1.4695 -1.6468  0.1027
  921MOL0     H27091   9.341   7.041  10.979 -3.6493  0.1371  0.6997
  921MOL0     H27092   9.297   7.040  10.667 -2.3617 -0.8980 -0.1786
  921MOL0     H27093   9.379   7.159  10.776  0.9425 -1.0457  0.3771
  921MOL0     H27094   8.935   7.139  10.823 -0.3381 -0.8098  0.4758
  921MOL0     H27095   9.884   6.752  10.718 -3.9039  2.9214  1.3930
  921MOL0     H27096  10.110   6.730  10.582 -1.8769  1.1228 -0.2655
  921MOL0     H27097  10.066   6.600  10.692 -0.5649 -1.3391 -0.3153
  921MOL0     H27098  10.106   6.561  10.520  0.3925  1.7092  0.0906
  922MOL0     O27099   0.226  10.687   0.933 -0.1538 -0.3115  0.5661
  922MOL0     C27100   0.103  10.674   0.922  0.5216  0.8049  0.2124
  922MOL0     O27101   0.018  10.768   0.868  0.3062  0.0615  0.3011
  922MOL0     C27102   0.080  10.882   0.825 -0.5852 -0.1323  0.1720
  922MOL0     C27103   0.057  10.999   0.907 -0.0244 -0.2077  0.0486
  922MOL0     C27104   0.125  11.118   0.875  0.4568  0.3027  0.1698
  922MOL0     C27105   0.193  11.131   0.753 -0.0930  0.2401 -0.6559
  922MOL0     O27106   0.254  11.241   0.700 -0.1156 -0.0542  0.2225
  922MOL0     C27107   0.250  11.357   0.784  0.6705 -0.6081 -0.0279
  922MOL0     C27108   0.288  11.477   0.699  0.3445 -0.7813 -0.7495
  922MOL0     C27109   0.262  11.616   0.766  0.4829  0.0776  0.5837
  922MOL0     C27110   0.356  11.732   0.720 -0.2172  0.0974  0.5831
  922MOL0     C27111   0.339  11.851   0.801  0.8445 -0.3352 -0.2895
  922MOL0     C27112   0.412  11.966   0.742  0.2084 -0.1295 -0.4201
  922MOL0     C27113   0.399  12.087   0.841  0.4325  0.3517  0.5184
  922MOL0     C27114   0.484  12.095   0.970  0.2678 -0.4484 -0.3851
  922MOL0     N27115   0.625  12.138   0.946  0.4555  0.0493  0.7435
  922MOL0     C27116   0.715  12.043   0.897  0.3021 -0.6506 -0.4004
  922MOL0     C27117   0.825  12.128   0.875 -0.1747  0.1440  0.1024
  922MOL0     C27118   0.965  12.075   0.838  0.3114 -0.1761 -0.4460
  922MOL0     C27119   1.007  12.122   0.699 -0.0406  0.6050  0.1202
  922MOL0     C27120   1.057  12.265   0.691  0.4238  0.6871  0.5054
  922MOL0     C27121   1.154  12.276   0.567  0.0916  0.7044  0.4337
  922MOL0     O27122   1.227  12.400   0.589 -0.4992  0.2784  0.1967
  922MOL0     C27123   1.307  12.452   0.485 -0.0484 -0.3452 -0.1370
  922MOL0     C27124   1.316  12.589   0.472  0.3008  0.6856  1.1338
  922MOL0     C27125   1.381  12.657   0.366  0.4716  1.1536  0.2904
  922MOL0     C27126   1.341  12.807   0.345  0.2016  0.1759 -0.4162
  922MOL0     C27127   1.467  12.583   0.283 -0.5237 -1.0189  0.2320
  922MOL0     C27128   1.551  12.643   0.186 -0.6385  0.3441 -0.1859
  922MOL0     O27129   1.613  12.763   0.221  0.6828 -0.8093 -1.0872
  922MOL0     C27130   1.678  12.831   0.131 -0.5485 -0.2176 -0.4318
  922MOL0     C27131   1.817  12.836   0.133 -0.4294  0.1472 -0.3981
  922MOL0     C27132   1.880  12.919   0.038 -0.3774  0.0381  0.0862
  922MOL0     C27133   1.812  12.993  -0.051  0.5748  0.0582 -0.4891
  922MOL0     O27134   1.886  13.086  -0.132 -0.5116 -0.2685 -0.5143
  922MOL0     C27135   1.826  13.198  -0.198  0.0525  0.9122  0.9303
  922MOL0     C27136   1.931  13.287  -0.259  0.1779  0.4895  0.1961
  922MOL0     C27137   2.034  13.197  -0.332  0.8367  0.9445 -0.5199
  922MOL0     C27138   2.137  13.291  -0.397 -0.1492  0.1503  0.6057
  922MOL0     C27139   2.235  13.213  -0.490 -0.1860  0.8879  0.0480
  922MOL0     C27140   2.312  13.096  -0.432 -0.8993  0.0147 -0.7984
  922MOL0     C27141   2.391  13.013  -0.541  0.3125  0.5777  0.2173
  922MOL0     C27142   2.503  12.922  -0.484  0.0276  0.8359 -0.7202
  922MOL0    Cl27143   2.417  12.815  -0.363  0.1342 -0.6625  0.1108
  922MOL0     C27144   1.675  12.997  -0.036  0.1393 -0.3536 -0.4714
  922MOL0     C27145   1.603  12.915   0.059  0.2732  0.1016  0.3124
  922MOL0     O27146   1.560  12.586   0.076  0.1501 -0.1787  0.3902
  922MOL0     C27147   1.471  12.441   0.303 -0.1335  0.0561 -0.3516
  922MOL0     C27148   1.397  12.382   0.404  0.9265 -0.9710 -0.1807
  922MOL0     N27149   0.797  12.250   0.908  0.6162 -0.8688 -0.3080
  922MOL0     N27150   0.675  12.263   0.938 -0.3541  1.0296 -0.1625
  922MOL0     C27151   0.214  11.017   0.675 -1.1560  0.0521  0.6644
  922MOL0     C27152   0.158  10.890   0.708 -0.1738 -0.7557 -0.1061
  922MOL0     C27153   0.027  10.544   0.961  0.2201  0.5928  0.2707
  922MOL0     C27154  -0.113  10.534   0.938  1.1962  0.0955  0.7285
  922MOL0     C27155  -0.190  10.413   0.955 -0.5987 -0.3472  0.1238
  922MOL0     C27156  -0.125  10.301   1.011  0.2297  0.6220 -0.1775
  922MOL0     O27157  -0.184  10.178   1.039  0.9076 -0.1794 -0.1917
  922MOL0     C27158  -0.305  10.141   0.972  0.0411 -0.0791  0.2523
  922MOL0     C27159  -0.262  10.073   0.845 -0.1727 -1.2395  0.7360
  922MOL0     C27160  -0.384  10.027   0.768  0.0737 -0.3865 -0.3730
  922MOL0     C27161  -0.456   9.904   0.816 -0.9541 -0.6123  0.3166
  922MOL0     C27162  -0.517   9.842   0.703 -0.4633  0.0401  0.5620
  922MOL0     C27163  -0.558   9.785   0.601 -0.5622 -1.3815 -0.4643
  922MOL0     C27164   0.007  10.323   1.052 -0.4608  0.5387 -0.4788
  922MOL0     C27165   0.081  10.438   1.030 -0.2891 -0.2489  0.2770
  922MOL0     C27166   0.214  10.446   1.088  0.6392 -0.0477 -0.0227
  922MOL0     H27167   0.007  11.012   1.003 -0.8452  2.6652 -0.6546
  922MOL0     H27168   0.110  11.203   0.942 -0.7180 -0.3808  0.8162
  922MOL0     H27169   0.325  11.351   0.863  0.6081 -1.2252 -0.0076
  922MOL0     H27170   0.152  11.386   0.823  0.7698  2.6423 -1.8763
  922MOL0     H27171   0.396  11.463   0.685  0.5189  0.2749 -0.5214
  922MOL0     H27172   0.237  11.463   0.603  1.3519 -1.1901 -1.2386
  922MOL0     H27173   0.159  11.647   0.746  0.9896  0.6793 -1.2839
  922MOL0     H27174   0.275  11.600   0.874  0.2678 -0.9633  0.4609
  922MOL0     H27175   0.457  11.694   0.734  0.2109  1.1865  0.5371
  922MOL0     H27176   0.346  11.763   0.616  0.8327  1.3397  0.8219
  922MOL0     H27177   0.369  11.833   0.905 -0.0652 -1.8002 -0.2548
  922MOL0     H27178   0.231  11.868   0.805  0.5308 -2.2963  0.5738
  922MOL0     H27179   0.517  11.938   0.728  0.3931  0.8298 -1.0389
  922MOL0     H27180   0.361  11.982   0.647 -2.2662  0.5174  0.9284
  922MOL0     H27181   0.293  12.096   0.865  0.2993  1.9856 -0.5072
  922MOL0     H27182   0.419  12.170   0.773  3.5160 -1.9505 -1.6510
  922MOL0     H27183   0.443  12.169   1.038 -3.3025 -1.9314 -0.7157
  922MOL0     H27184   0.479  11.997   1.019 -0.5359 -0.3106 -0.1797
  922MOL0     H27185   0.694  11.937   0.912 -0.3282 -0.4358  0.2998
  922MOL0     H27186   0.960  11.966   0.844  1.7355 -0.3580 -1.7941
  922MOL0     H27187   1.040  12.109   0.911 -0.8096 -0.3444  0.8236
  922MOL0     H27188   1.070  12.045   0.652 -2.0917 -0.9039 -0.2807
  922MOL0     H27189   0.923  12.125   0.629  3.0278  2.6196 -3.9710
  922MOL0     H27190   0.977  12.337   0.675 -1.1645 -1.5994 -2.9338
  922MOL0     H27191   1.116  12.285   0.781 -1.5303  2.9754  1.4014
  922MOL0     H27192   1.225  12.193   0.566 -3.0190 -2.2130  1.1931
  922MOL0     H27193   1.098  12.275   0.472 -0.2482  4.9286  0.3921
  922MOL0     H27194   1.246  12.639   0.539  0.1536  2.0043  0.0299
  922MOL0     H27195   1.418  12.884   0.343 -0.0616  0.5204  1.1656
  922MOL0     H27196   1.253  12.832   0.405 -2.8160  3.2473 -5.4604
  922MOL0     H27197   1.308  12.820   0.242 -0.4106  0.8666 -0.1339
  922MOL0     H27198   1.860  12.781   0.215  0.1782  0.9719 -0.1544
  922MOL0     H27199   1.989  12.917   0.042 -0.3146 -2.5417  5.1840
  922MOL0     H27200   1.757  13.172  -0.279 -1.1978 -2.4888  2.8697
  922MOL0     H27201   1.769  13.255  -0.124 -4.8353 -3.5450  1.2131
  922MOL0     H27202   1.895  13.364  -0.328  3.4815  1.2690 -0.8231
  922MOL0     H27203   1.978  13.329  -0.170  2.3118  0.5963 -0.9317
  922MOL0     H27204   1.981  13.142  -0.411  1.9999  0.8982 -1.2923
  922MOL0     H27205   2.086  13.132  -0.261  1.1291  1.1412 -0.5536
  922MOL0     H27206   2.190  13.344  -0.317 -3.2593  0.5255  2.5637
  922MOL0     H27207   2.082  13.364  -0.458 -1.1716 -1.0942 -0.0096
  922MOL0     H27208   2.182  13.180  -0.580  2.3076  0.8945 -1.5085
  922MOL0     H27209   2.310  13.286  -0.520  2.4392 -1.5247  0.2859
  922MOL0     H27210   2.251  13.020  -0.382 -2.7130  0.5032 -2.1528
  922MOL0     H27211   2.375  13.137  -0.353 -1.0158  1.1528 -1.2790
  922MOL0     H27212   2.434  13.075  -0.619  1.0661 -0.4829 -0.2384
  922MOL0     H27213   2.323  12.962  -0.611  0.1576  0.3815  0.5050
  922MOL0     H27214   2.570  12.987  -0.428 -1.3711  1.9538 -0.2870
  922MOL0     H27215   2.548  12.867  -0.567 -1.8624 -1.3536 -0.3982
  922MOL0     H27216   1.604  13.049  -0.099  0.7834  0.7698 -0.2851
  922MOL0     H27217   1.497  12.896   0.066  0.6492 -2.0290  1.0396
  922MOL0     H27218   1.541  12.370   0.259  0.3032  0.5080 -0.3858
  922MOL0     H27219   1.410  12.278   0.432 -1.0154 -0.5848  2.6183
  922MOL0     H27220   0.276  11.042   0.589 -2.2886  2.4630  0.4526
  922MOL0     H27221   0.180  10.803   0.647 -3.9493 -0.6641 -1.9278
  922MOL0     H27222  -0.169  10.622   0.911  1.7143  0.5367  1.0811
  922MOL0     H27223  -0.293  10.430   0.925 -0.4871  2.3574  0.9351
  922MOL0     H27224  -0.358  10.070   1.036  0.6683  0.0870  0.9777
  922MOL0     H27225  -0.361  10.228   0.937  2.1803  0.8667 -1.0478
  922MOL0     H27226  -0.198   9.992   0.883  1.0919 -0.4151  0.4087
  922MOL0     H27227  -0.197  10.147   0.798 -0.7590 -1.1499  0.0382
  922MOL0     H27228  -0.456  10.109   0.766 -1.3959 -1.6446 -1.3116
  922MOL0     H27229  -0.348  10.008   0.666  0.2761 -1.1720 -0.1682
  922MOL0     H27230  -0.537   9.935   0.883  1.1098  5.5328  0.5467
  922MOL0     H27231  -0.396   9.829   0.868  0.6354 -1.3862 -2.3899
  922MOL0     H27232  -0.597   9.752   0.507  0.0589 -0.9988 -0.8684
  922MOL0     H27233   0.061  10.249   1.111  1.8632  3.0659  0.8352
  922MOL0     H27234   0.285  10.424   1.008  0.6067 -1.4747  0.3162
  922MOL0     H27235   0.228  10.546   1.132 -1.9247  0.7697 -0.8760
  922MOL0     H27236   0.228  10.379   1.174 -1.1258 -0.0755  0.2861
  923MOL0     O27237   5.348   0.864   9.140  1.2155 -0.0180  0.4738
  923MOL0     C27238   5.413   0.905   9.041  0.7540 -0.2418  0.4100
  923MOL0     O27239   5.543   0.869   9.000  0.0396 -0.7820  0.7145
  923MOL0     C27240   5.606   0.770   9.070  0.1400 -0.6369 -0.2438
  923MOL0     C27241   5.596   0.634   9.028 -0.7446 -0.7252  0.3457
  923MOL0     C27242   5.668   0.536   9.100  0.2896  0.0458  0.9898
  923MOL0     C27243   5.750   0.571   9.212  0.5285 -0.4166 -0.1765
  923MOL0     O27244   5.829   0.474   9.259  1.0605  0.5683 -0.7083
  923MOL0     C27245   5.914   0.492   9.369  0.0432 -0.3873  0.2579
  923MOL0     C27246   5.958   0.352   9.389 -0.8204 -0.8014  0.4801
  923MOL0     C27247   6.014   0.317   9.531  1.1585 -0.3991  0.6800
  923MOL0     C27248   6.124   0.423   9.568  0.3047 -0.4115 -0.0354
  923MOL0     C27249   6.205   0.376   9.682  0.2076 -0.1829  0.6510
  923MOL0     C27250   6.253   0.492   9.773  0.2463  1.1734  0.1029
  923MOL0     C27251   6.368   0.436   9.864  0.0626  0.0515  0.0860
  923MOL0     C27252   6.406   0.516   9.988  0.3762  1.0279  0.8000
  923MOL0     N27253   6.491   0.629   9.947  0.8066  0.1056  0.1534
  923MOL0     C27254   6.449   0.758   9.929  0.1300  0.0810 -0.2090
  923MOL0     C27255   6.559   0.830   9.906 -0.0130 -1.5493 -0.6268
  923MOL0     C27256   6.567   0.977   9.872  0.2151  0.9682  0.4221
  923MOL0     C27257   6.595   1.002   9.716  0.9862  1.0123 -0.9836
  923MOL0     C27258   6.594   1.152   9.685 -0.7971 -0.2823 -0.3384
  923MOL0     C27259   6.626   1.171   9.542 -0.3451 -0.3894  0.1288
  923MOL0     O27260   6.518   1.131   9.466  0.7679 -0.0275 -0.0482
  923MOL0     C27261   6.529   1.141   9.332 -0.6310 -0.5082  1.0469
  923MOL0     C27262   6.637   1.191   9.252  0.6000  0.1429 -0.1589
  923MOL0     C27263   6.635   1.179   9.110 -0.6527 -0.0031  0.2013
  923MOL0     C27264   6.756   1.225   9.036  0.3245 -0.5026 -0.4243
  923MOL0     C27265   6.526   1.135   9.043  0.7170 -0.7171  0.1034
  923MOL0     C27266   6.524   1.106   8.901  0.3595 -0.6857  0.7662
  923MOL0     O27267   6.397   1.113   8.832  0.3932 -0.0355 -0.2259
  923MOL0     C27268   6.390   1.042   8.713  0.2595  0.6313  0.2080
  923MOL0     C27269   6.310   0.921   8.707 -0.4433 -0.5261 -0.7930
  923MOL0     C27270   6.307   0.853   8.594 -0.6503 -0.8295  0.3812
  923MOL0     C27271   6.357   0.899   8.468 -0.0003  0.2804  0.1536
  923MOL0     O27272   6.338   0.840   8.344  0.0843 -0.3828 -0.7895
  923MOL0     C27273   6.308   0.699   8.329  0.4504  0.2939  0.7923
  923MOL0     C27274   6.297   0.665   8.182 -0.4079  1.1472 -0.0392
  923MOL0     C27275   6.440   0.647   8.127  0.0863 -0.0243  0.5138
  923MOL0     C27276   6.436   0.576   7.988 -0.0968  0.5645  0.0930
  923MOL0     C27277   6.578   0.553   7.942 -0.9256  0.2827  0.3876
  923MOL0     C27278   6.590   0.525   7.783 -1.0558 -0.4339 -0.9901
  923MOL0     C27279   6.509   0.403   7.736  0.7021 -0.4593 -0.8672
  923MOL0     C27280   6.559   0.351   7.599  0.4445  0.1149 -0.0733
  923MOL0    Cl27281   6.575   0.481   7.477 -0.0580  0.0379 -0.6896
  923MOL0     C27282   6.434   1.007   8.470 -0.5976 -0.6136 -0.1937
  923MOL0     C27283   6.454   1.088   8.590  0.5197  0.1013  0.4757
  923MOL0     O27284   6.628   1.072   8.844 -0.5225 -0.0304 -0.4994
  923MOL0     C27285   6.406   1.106   9.115 -0.3605 -0.3558 -0.7049
  923MOL0     C27286   6.412   1.107   9.254 -0.1105 -0.5629  0.4050
  923MOL0     N27287   6.665   0.754   9.945 -0.5523  0.5839  0.3788
  923MOL0     N27288   6.625   0.629   9.965  1.0869  0.1695  0.3099
  923MOL0     C27289   5.746   0.695   9.263  0.2141  0.1368  0.3251
  923MOL0     C27290   5.676   0.796   9.192 -1.4973 -0.6008  0.6469
  923MOL0     C27291   5.338   0.998   8.948 -0.2067 -0.5239  0.0397
  923MOL0     C27292   5.376   1.134   8.936 -0.5158  1.3498  0.6344
  923MOL0     C27293   5.308   1.208   8.845  0.3660  0.3710 -1.4567
  923MOL0     C27294   5.205   1.152   8.768 -0.2362  0.3333  0.6162
  923MOL0     O27295   5.163   1.246   8.667  0.4993 -0.6105  0.4496
  923MOL0     C27296   5.075   1.178   8.572 -0.7765  0.0815 -0.3660
  923MOL0     C27297   5.131   1.072   8.478 -0.7268 -0.0004  0.2652
  923MOL0     C27298   5.249   1.094   8.381  1.0602 -0.0442 -0.5117
  923MOL0     C27299   5.236   1.223   8.301 -0.7526  1.0035 -0.4117
  923MOL0     C27300   5.323   1.217   8.180 -0.8513  0.1712  0.4506
  923MOL0     C27301   5.366   1.197   8.067  0.3067 -0.2033  0.4308
  923MOL0     C27302   5.169   1.018   8.776 -0.4861  0.1895 -0.5268
  923MOL0     C27303   5.246   0.939   8.858 -0.6424  0.4951  0.1940
  923MOL0     C27304   5.236   0.785   8.840 -0.5891 -0.1257 -0.2880
  923MOL0     H27305   5.549   0.595   8.938 -0.8456  2.1373 -0.9409
  923MOL0     H27306   5.682   0.436   9.059  0.2920  0.1302  0.7819
  923MOL0     H27307   5.860   0.514   9.462  1.4964 -0.7324  1.2118
  923MOL0     H27308   5.990   0.569   9.354 -1.2132  0.5221 -1.9592
  923MOL0     H27309   5.872   0.287   9.374 -0.9063 -0.4881 -0.4585
  923MOL0     H27310   6.027   0.328   9.307 -3.4932  0.0520 -2.1888
  923MOL0     H27311   5.938   0.323   9.609  1.1425  0.7935  0.5895
  923MOL0     H27312   6.059   0.217   9.522  0.0174 -1.0002  1.4436
  923MOL0     H27313   6.199   0.442   9.490  2.6545  1.4077  2.5048
  923MOL0     H27314   6.084   0.523   9.588 -2.0887 -1.1581 -0.6958
  923MOL0     H27315   6.286   0.327   9.627 -1.9005 -0.8545 -2.1137
  923MOL0     H27316   6.164   0.296   9.743 -2.7811  0.4111 -0.3889
  923MOL0     H27317   6.284   0.578   9.713 -1.0682  0.1363 -2.2399
  923MOL0     H27318   6.172   0.524   9.839  3.4990 -2.1377  6.6214
  923MOL0     H27319   6.462   0.417   9.811  0.5232  2.6225 -0.1574
  923MOL0     H27320   6.346   0.334   9.896  1.1566 -1.0020 -2.2920
  923MOL0     H27321   6.321   0.547  10.050 -1.2120  0.9817 -1.2589
  923MOL0     H27322   6.450   0.438  10.052 -2.5393 -0.8993  0.6641
  923MOL0     H27323   6.350   0.791   9.901  0.6493  1.5905 -0.3740
  923MOL0     H27324   6.642   1.034   9.927 -0.2181  1.7559  0.2091
  923MOL0     H27325   6.474   1.029   9.896 -1.3676 -2.3049  2.0215
  923MOL0     H27326   6.688   0.958   9.678  0.0632 -1.9897 -0.0532
  923MOL0     H27327   6.509   0.963   9.662 -0.5312  0.3297  1.7193
  923MOL0     H27328   6.502   1.206   9.710 -0.4439 -0.1988  0.8268
  923MOL0     H27329   6.666   1.199   9.752 -0.0620 -1.9164  0.0728
  923MOL0     H27330   6.626   1.280   9.544 -0.7574 -0.3977  2.0028
  923MOL0     H27331   6.717   1.121   9.507 -1.9630 -2.8057 -0.9057
  923MOL0     H27332   6.722   1.238   9.301  3.3945 -1.1874 -3.3120
  923MOL0     H27333   6.823   1.153   8.989  2.8198  0.3841  1.5649
  923MOL0     H27334   6.820   1.284   9.103 -0.9780  0.5204 -0.0354
  923MOL0     H27335   6.718   1.300   8.966 -0.5048  2.5583  2.9718
  923MOL0     H27336   6.252   0.884   8.791  0.2823 -0.4218 -0.2385
  923MOL0     H27337   6.275   0.750   8.603  3.3443 -2.0864  2.4728
  923MOL0     H27338   6.392   0.645   8.376 -1.1087 -2.4306  0.6451
  923MOL0     H27339   6.211   0.666   8.367  0.1534 -1.0448 -1.0038
  923MOL0     H27340   6.249   0.567   8.187 -0.4076  1.1734  0.5185
  923MOL0     H27341   6.241   0.727   8.110  0.4956 -1.9667 -3.7534
  923MOL0     H27342   6.512   0.599   8.195 -0.2570 -0.6932  0.4094
  923MOL0     H27343   6.496   0.740   8.116  2.5593 -1.3353  1.0803
  923MOL0     H27344   6.381   0.646   7.925  0.0078  0.2690 -0.3298
  923MOL0     H27345   6.381   0.482   7.987  0.0138  0.4635 -2.3577
  923MOL0     H27346   6.649   0.631   7.969 -1.4551  1.5798 -1.7856
  923MOL0     H27347   6.608   0.464   7.999 -2.7362 -1.8905 -1.7837
  923MOL0     H27348   6.695   0.510   7.759 -0.5867  2.6926 -1.3066
  923MOL0     H27349   6.569   0.620   7.732 -0.1849 -0.2280 -0.9673
  923MOL0     H27350   6.407   0.443   7.733  2.0117  3.4690  0.0952
  923MOL0     H27351   6.520   0.333   7.820  1.8762  0.5209 -0.1653
  923MOL0     H27352   6.490   0.270   7.576  0.3870  0.5764 -1.6071
  923MOL0     H27353   6.658   0.307   7.617  0.8933  1.3339  0.5939
  923MOL0     H27354   6.473   1.045   8.376 -1.8238 -1.6620 -1.1486
  923MOL0     H27355   6.525   1.169   8.601 -0.7883  1.2502  0.7828
  923MOL0     H27356   6.316   1.072   9.064 -3.9847  3.1008  2.6554
  923MOL0     H27357   6.325   1.070   9.307 -2.1572  0.1285 -2.2292
  923MOL0     H27358   5.779   0.715   9.364 -2.5624 -1.1503  1.5941
  923MOL0     H27359   5.670   0.897   9.232  1.1339 -1.1508  2.6398
  923MOL0     H27360   5.447   1.179   9.005 -1.9636  1.9168  1.8119
  923MOL0     H27361   5.335   1.313   8.836 -1.1181  0.8682 -0.4431
  923MOL0     H27362   4.991   1.138   8.630 -0.2214  0.4725  0.7325
  923MOL0     H27363   5.029   1.259   8.515 -0.8287  1.1937  1.2146
  923MOL0     H27364   5.044   1.048   8.415 -0.6649  0.8399 -0.1622
  923MOL0     H27365   5.171   0.985   8.529 -1.1824 -0.6355 -0.4430
  923MOL0     H27366   5.337   1.101   8.446 -0.8712  2.5150  2.0483
  923MOL0     H27367   5.254   1.012   8.308  1.3091 -1.0721  0.6321
  923MOL0     H27368   5.275   1.298   8.371  1.6655  0.6870 -1.3421
  923MOL0     H27369   5.135   1.253   8.271 -1.1836  1.2527  1.2066
  923MOL0     H27370   5.405   1.180   7.969 -0.1154 -2.3763  0.5866
  923MOL0     H27371   5.088   0.979   8.715 -0.1762  1.4002 -1.7570
  923MOL0     H27372   5.257   0.744   8.939  1.2794  1.4559  0.0268
  923MOL0     H27373   5.128   0.771   8.827 -1.3271  3.1393  1.3024
  923MOL0     H27374   5.306   0.738   8.771 -0.9132 -0.6445 -0.2678
  924MOL0     O27375   7.139   7.260   7.093  0.0028 -0.0445  0.0087
  924MOL0     C27376   7.034   7.312   7.118  0.1396  0.1344  0.2325
  924MOL0     O27377   6.984   7.417   7.056 -0.1965  0.2749  0.4502
  924MOL0     C27378   7.044   7.502   6.956  0.7226 -0.4842  0.6970
  924MOL0     C27379   7.171   7.483   6.904 -0.6803  0.5395  0.9615
  924MOL0     C27380   7.232   7.559   6.812 -0.1798 -0.0651  0.3803
  924MOL0     C27381   7.162   7.671   6.760 -0.3090 -0.9386  0.0058
  924MOL0     O27382   7.246   7.758   6.686 -0.4734  0.0461  0.1864
  924MOL0     C27383   7.206   7.890   6.662  0.7071 -0.0885  0.1833
  924MOL0     C27384   7.323   7.956   6.611  0.3724 -0.3135 -0.3527
  924MOL0     C27385   7.314   8.106   6.605 -0.2818 -0.2445 -0.7125
  924MOL0     C27386   7.447   8.171   6.568 -0.3016  0.9464  0.0317
  924MOL0     C27387   7.435   8.319   6.536  0.2435 -0.1030  0.0871
  924MOL0     C27388   7.411   8.412   6.660  0.4637 -0.9818 -0.6018
  924MOL0     C27389   7.389   8.560   6.638 -0.0012  0.0539  0.2680
  924MOL0     C27390   7.322   8.619   6.509 -0.6113  1.0080 -0.4379
  924MOL0     N27391   7.389   8.748   6.478  0.2077 -0.1434 -0.6938
  924MOL0     C27392   7.346   8.875   6.515  0.0852  0.3192  0.3068
  924MOL0     C27393   7.452   8.954   6.488 -1.0368 -0.0437  0.5419
  924MOL0     C27394   7.443   9.099   6.493 -0.2849  0.0244  0.7932
  924MOL0     C27395   7.349   9.143   6.608  0.3711 -0.2312 -0.1232
  924MOL0     C27396   7.370   9.292   6.635 -0.1075  0.8802  0.0073
  924MOL0     C27397   7.318   9.386   6.535  0.8059 -1.0861 -0.0057
  924MOL0     O27398   7.172   9.381   6.547  0.0196  0.0624  0.1646
  924MOL0     C27399   7.101   9.490   6.571  0.2532 -0.1385  0.4518
  924MOL0     C27400   7.126   9.552   6.691 -0.4289 -0.3373  0.1708
  924MOL0     C27401   7.049   9.654   6.738 -1.1934  1.4048  0.1122
  924MOL0     C27402   7.077   9.708   6.877 -0.6361 -0.6603 -0.9828
  924MOL0     C27403   6.944   9.703   6.660  1.8407  0.1399 -0.2280
  924MOL0     C27404   6.866   9.824   6.694 -0.0428  0.3435 -0.0843
  924MOL0     O27405   6.723   9.823   6.659 -0.5849 -0.3271  0.6007
  924MOL0     C27406   6.653   9.941   6.658  0.1112  0.5229 -0.6008
  924MOL0     C27407   6.562   9.964   6.555 -0.0528 -0.3484  0.3518
  924MOL0     C27408   6.487  10.081   6.556  0.1396 -0.4837  1.5021
  924MOL0     C27409   6.495  10.178   6.650  1.0813  0.7197 -0.1163
  924MOL0     O27410   6.405  10.280   6.648 -0.4013 -0.0226  0.1871
  924MOL0     C27411   6.441  10.396   6.727  0.8037  0.5457  0.4833
  924MOL0     C27412   6.346  10.517   6.697 -1.1400 -0.4744 -0.8435
  924MOL0     C27413   6.345  10.628   6.797  0.5895 -0.4060 -0.7376
  924MOL0     C27414   6.230  10.731   6.765  0.5367 -0.7309  0.2963
  924MOL0     C27415   6.237  10.849   6.864 -0.4985 -0.2217 -0.3160
  924MOL0     C27416   6.123  10.951   6.845 -0.0597 -0.6207  0.2351
  924MOL0     C27417   5.974  10.893   6.851 -0.2856 -0.4989  0.2901
  924MOL0     C27418   5.871  11.000   6.834 -0.9304  0.7970  0.3843
  924MOL0    Cl27419   5.901  11.146   6.938 -0.1589  0.7263 -0.0588
  924MOL0     C27420   6.587  10.155   6.755 -0.3558 -0.3179 -0.1773
  924MOL0     C27421   6.662  10.046   6.754 -0.5928 -0.0602  0.4469
  924MOL0     O27422   6.923   9.914   6.760  0.5775  0.2439  0.2375
  924MOL0     C27423   6.915   9.638   6.536 -1.1185  0.4594  0.8769
  924MOL0     C27424   6.992   9.531   6.492 -0.0921  0.1146  0.3888
  924MOL0     N27425   7.558   8.869   6.439 -0.3652 -0.9874 -0.9056
  924MOL0     N27426   7.518   8.752   6.440 -0.2376  0.2151  0.1529
  924MOL0     C27427   7.031   7.697   6.806  0.4040 -0.4191 -0.6935
  924MOL0     C27428   6.970   7.613   6.903  0.9500  0.0465  0.0547
  924MOL0     C27429   6.951   7.246   7.220 -0.5639  0.3835  0.0622
  924MOL0     C27430   7.015   7.213   7.338 -0.6240  0.7521 -1.2750
  924MOL0     C27431   6.950   7.160   7.447  0.1721  0.2828  0.1271
  924MOL0     C27432   6.818   7.135   7.445 -0.6384 -0.6400  0.0599
  924MOL0     O27433   6.749   7.077   7.550  0.3840  0.4387  0.2801
  924MOL0     C27434   6.821   7.023   7.660  0.8599  0.2852 -0.3069
  924MOL0     C27435   6.721   6.982   7.768 -0.0053 -0.7885 -0.6963
  924MOL0     C27436   6.632   6.866   7.717 -0.6428 -0.1432  0.1710
  924MOL0     C27437   6.550   6.794   7.823  0.2242  0.9198  0.0337
  924MOL0     C27438   6.610   6.772   7.956  0.6154 -0.8897  0.0740
  924MOL0     C27439   6.651   6.761   8.071 -0.2467 -0.1354  0.7775
  924MOL0     C27440   6.748   7.182   7.328 -0.0452  0.7930  0.2209
  924MOL0     C27441   6.816   7.224   7.210  0.9855  0.5977 -0.0406
  924MOL0     C27442   6.726   7.244   7.086  0.1965  0.3251 -0.0048
  924MOL0     H27443   7.229   7.392   6.915  2.1564  2.1079  0.1206
  924MOL0     H27444   7.332   7.547   6.770  0.4485 -0.1958  1.8377
  924MOL0     H27445   7.170   7.939   6.752  1.1556  3.5321 -1.4139
  924MOL0     H27446   7.128   7.871   6.588  0.6496  1.3911 -0.1626
  924MOL0     H27447   7.408   7.933   6.675  1.6058  1.2220 -1.3504
  924MOL0     H27448   7.349   7.916   6.512  1.6196  0.3348 -0.3008
  924MOL0     H27449   7.239   8.126   6.528  2.4381  1.4957 -3.1381
  924MOL0     H27450   7.275   8.151   6.697  1.8865  0.2733  0.0333
  924MOL0     H27451   7.517   8.155   6.651  3.0445 -2.1147 -3.0468
  924MOL0     H27452   7.493   8.117   6.485  1.6525  4.6348 -1.5420
  924MOL0     H27453   7.361   8.340   6.459 -0.9969 -1.2860  0.9011
  924MOL0     H27454   7.535   8.328   6.492  0.5991 -2.2757  0.3220
  924MOL0     H27455   7.323   8.374   6.712  1.6993 -2.3240  0.6401
  924MOL0     H27456   7.495   8.401   6.730  0.0367 -2.8991 -0.3413
  924MOL0     H27457   7.494   8.590   6.642  0.2410 -0.7109 -0.2130
  924MOL0     H27458   7.338   8.608   6.722  1.0538 -0.8574  1.4682
  924MOL0     H27459   7.320   8.551   6.423 -1.7241 -2.4819  2.1344
  924MOL0     H27460   7.217   8.639   6.534 -0.1978  0.0719  2.4065
  924MOL0     H27461   7.253   8.909   6.561  0.6845  3.0940 -0.3560
  924MOL0     H27462   7.406   9.149   6.403  0.2604  0.4515  0.7999
  924MOL0     H27463   7.540   9.140   6.522  0.6925 -1.6074 -0.0316
  924MOL0     H27464   7.243   9.123   6.587  0.3636 -1.4868  0.9595
  924MOL0     H27465   7.370   9.093   6.703 -0.6039  2.3566  1.5815
  924MOL0     H27466   7.345   9.315   6.738  0.4632  0.0833  0.3357
  924MOL0     H27467   7.478   9.300   6.648 -0.1654 -2.3130  4.7761
  924MOL0     H27468   7.352   9.487   6.561 -3.2296  1.3145 -2.9835
  924MOL0     H27469   7.355   9.363   6.435 -1.3000 -0.7196 -0.9123
  924MOL0     H27470   7.213   9.514   6.743  1.5910  1.4080 -1.7088
  924MOL0     H27471   7.135   9.643   6.943 -3.0192  1.6144  3.8853
  924MOL0     H27472   6.983   9.730   6.928 -0.8861 -2.1845 -0.7407
  924MOL0     H27473   7.136   9.800   6.874 -0.2972 -0.8530 -0.3879
  924MOL0     H27474   6.553   9.897   6.470  0.3863  0.0742 -0.0300
  924MOL0     H27475   6.441  10.107   6.462 -0.7176 -0.1286  2.0035
  924MOL0     H27476   6.420  10.361   6.829 -2.9922  0.6168 -0.1025
  924MOL0     H27477   6.542  10.435   6.716  0.5049  0.8418 -1.6255
  924MOL0     H27478   6.379  10.559   6.602  1.7756  1.0116  0.6860
  924MOL0     H27479   6.248  10.469   6.690 -1.3419  0.1994 -3.9459
  924MOL0     H27480   6.442  10.676   6.816 -0.0591  0.8619 -0.5150
  924MOL0     H27481   6.311  10.578   6.888  1.3325  0.2385 -0.0934
  924MOL0     H27482   6.135  10.676   6.761  1.4107 -2.5167  2.2713
  924MOL0     H27483   6.262  10.772   6.668  1.9654 -0.7942  0.7099
  924MOL0     H27484   6.222  10.807   6.963 -2.6696  0.2797 -0.3899
  924MOL0     H27485   6.329  10.908   6.852  1.0449 -2.5110 -0.3166
  924MOL0     H27486   6.140  11.000   6.749  1.8006 -0.0942  0.7882
  924MOL0     H27487   6.126  11.017   6.932 -1.0617 -1.5413  0.9962
  924MOL0     H27488   5.958  10.856   6.953  2.7586 -2.0167  0.3160
  924MOL0     H27489   5.959  10.815   6.776 -0.6855 -2.9709  2.7795
  924MOL0     H27490   5.775  10.950   6.847 -0.7492 -0.7477 -2.9653
  924MOL0     H27491   5.856  11.036   6.732 -1.3952  1.8663  0.8210
  924MOL0     H27492   6.585  10.225   6.839 -1.9096 -0.8427  0.2577
  924MOL0     H27493   6.729  10.024   6.837  1.1966  0.2987 -0.8555
  924MOL0     H27494   6.839   9.676   6.468  1.6530  1.9791 -1.5470
  924MOL0     H27495   6.970   9.478   6.400  0.1505  2.5813 -1.1999
  924MOL0     H27496   6.974   7.781   6.768  0.1392 -0.8048 -1.1614
  924MOL0     H27497   6.870   7.639   6.939  1.2055  2.8564 -1.0104
  924MOL0     H27498   7.120   7.226   7.364 -1.1600  3.5441 -0.1376
  924MOL0     H27499   7.010   7.137   7.534 -3.0004 -4.6750  1.4277
  924MOL0     H27500   6.871   6.931   7.626  2.2856  0.4004  1.3527
  924MOL0     H27501   6.897   7.088   7.704  1.9530 -3.1440  3.4970
  924MOL0     H27502   6.667   7.072   7.797 -1.7063 -2.5084  1.9202
  924MOL0     H27503   6.794   6.967   7.848  0.8005 -0.1935 -1.3084
  924MOL0     H27504   6.574   6.888   7.627 -2.0557 -2.0111  0.5725
  924MOL0     H27505   6.698   6.793   7.671  1.2703  0.8503  1.2028
  924MOL0     H27506   6.523   6.699   7.776 -0.7850  0.1801  2.0229
  924MOL0     H27507   6.458   6.852   7.833 -0.8070 -0.5977 -0.3711
  924MOL0     H27508   6.683   6.756   8.173 -1.7024  0.0957  1.2645
  924MOL0     H27509   6.643   7.157   7.323 -0.2045  1.5463 -0.4113
  924MOL0     H27510   6.695   7.348   7.075 -0.5224 -0.0158 -1.3662
  924MOL0     H27511   6.766   7.197   6.996  2.3312 -1.9869  1.9850
  924MOL0     H27512   6.632   7.190   7.104 -1.0784  2.4441 -0.0168
  925MOL0     O27513   8.740   9.935   0.547  0.0752 -0.0617 -0.3627
  925MOL0     C27514   8.620   9.895   0.529 -0.0265 -0.2778  0.3928
  925MOL0     O27515   8.528   9.869   0.630  0.1328  0.1283 -0.6902
  925MOL0     C27516   8.570   9.843   0.758  0.2847 -0.0370  0.2852
  925MOL0     C27517   8.642   9.941   0.827 -0.2236 -0.1937  0.2088
  925MOL0     C27518   8.662   9.928   0.967  0.3799 -0.3011 -0.5087
  925MOL0     C27519   8.621   9.811   1.040 -0.0877 -0.3307  1.1790
  925MOL0     O27520   8.660   9.801   1.167 -0.1026  0.7968  0.5444
  925MOL0     C27521   8.603   9.692   1.247 -0.0514  0.7859 -1.4007
  925MOL0     C27522   8.691   9.555   1.240  0.1927 -1.1952 -0.4373
  925MOL0     C27523   8.602   9.438   1.278  0.1447 -0.1445  0.5484
  925MOL0     C27524   8.660   9.375   1.412 -0.1656  0.4292 -0.2693
  925MOL0     C27525   8.639   9.466   1.525 -0.4703  0.8104  0.5241
  925MOL0     C27526   8.495   9.505   1.559 -0.3083 -0.3295  0.3576
  925MOL0     C27527   8.473   9.525   1.705  1.2938 -0.2717 -1.3070
  925MOL0     C27528   8.535   9.663   1.743  0.4560  0.6332  0.3919
  925MOL0     N27529   8.521   9.678   1.886  1.2618  0.3323 -0.5018
  925MOL0     C27530   8.512   9.587   1.989  0.8562 -0.4267 -0.0485
  925MOL0     C27531   8.540   9.662   2.099 -0.8902 -0.0300  0.9488
  925MOL0     C27532   8.529   9.605   2.245 -0.5779  0.0123 -0.7459
  925MOL0     C27533   8.635   9.658   2.349  0.6294 -0.9105  0.8015
  925MOL0     C27534   8.777   9.655   2.283 -0.4867 -0.0932 -0.3408
  925MOL0     C27535   8.842   9.506   2.282 -0.6688  0.1155  0.4933
  925MOL0     O27536   8.792   9.430   2.162 -0.6129 -0.1056 -0.0512
  925MOL0     C27537   8.864   9.421   2.049  0.1979  0.7128 -0.0504
  925MOL0     C27538   8.980   9.484   2.017 -0.5969  0.0409  1.6931
  925MOL0     C27539   9.045   9.461   1.898  0.1270 -0.3388  1.0905
  925MOL0     C27540   9.177   9.526   1.891 -0.5930  0.1879 -0.1968
  925MOL0     C27541   8.995   9.369   1.802 -0.2967 -0.0280  0.4834
  925MOL0     C27542   9.057   9.336   1.664  0.1304  0.7613 -1.5749
  925MOL0     O27543   8.973   9.273   1.572 -0.7800 -0.0637  0.0137
  925MOL0     C27544   9.012   9.250   1.444  0.8588  1.1569  0.2421
  925MOL0     C27545   8.954   9.147   1.374  0.2353  0.5633  0.8267
  925MOL0     C27546   8.990   9.112   1.241 -0.2306  0.2232  0.5430
  925MOL0     C27547   9.077   9.199   1.174 -0.3805 -0.1032  0.1141
  925MOL0     O27548   9.077   9.172   1.045  0.0566 -0.1694 -0.0553
  925MOL0     C27549   9.166   9.231   0.957 -0.7847 -0.3733  0.0288
  925MOL0     C27550   9.136   9.176   0.820 -0.1801 -0.4620  0.0608
  925MOL0     C27551   9.055   9.271   0.736  0.5668  1.2759  0.1512
  925MOL0     C27552   8.919   9.302   0.805  0.0403  0.5757 -0.7865
  925MOL0     C27553   8.838   9.415   0.734 -0.3639 -0.3310 -0.5206
  925MOL0     C27554   8.818   9.379   0.583  0.1784  0.1959 -0.1952
  925MOL0     C27555   8.925   9.420   0.493 -0.7251  0.0403  0.5595
  925MOL0     C27556   8.904   9.545   0.406 -0.6660  0.1736  0.2738
  925MOL0    Cl27557   9.025   9.550   0.259  0.1502 -0.1003  0.1660
  925MOL0     C27558   9.131   9.310   1.241  0.3632 -0.0938  0.3000
  925MOL0     C27559   9.099   9.330   1.372 -0.0818 -0.9657 -0.6978
  925MOL0     O27560   9.174   9.363   1.646 -0.4049 -1.0771  0.2923
  925MOL0     C27561   8.873   9.317   1.825 -0.2189  0.7278  0.5048
  925MOL0     C27562   8.810   9.336   1.950  0.2275  0.3975  0.0058
  925MOL0     N27563   8.560   9.797   2.051  1.0418  1.2920 -0.2828
  925MOL0     N27564   8.544   9.805   1.930  0.0880  0.5542  0.3806
  925MOL0     C27565   8.547   9.718   0.966  0.6515 -0.6385 -0.1403
  925MOL0     C27566   8.520   9.732   0.831 -0.1496  0.4037 -0.6232
  925MOL0     C27567   8.585   9.834   0.398 -0.0242  0.3520 -0.6002
  925MOL0     C27568   8.683   9.818   0.299 -0.7627  0.3110 -0.1340
  925MOL0     C27569   8.655   9.790   0.160  0.0135  0.7799  0.3635
  925MOL0     C27570   8.522   9.758   0.120 -0.7258 -0.4517 -0.9206
  925MOL0     O27571   8.512   9.693  -0.003 -0.4222 -0.1671  0.5403
  925MOL0     C27572   8.390   9.629  -0.036  0.0944 -0.2605 -0.1400
  925MOL0     C27573   8.290   9.736  -0.079  0.9709  0.4357  0.9644
  925MOL0     C27574   8.143   9.723  -0.027 -0.3683  0.7350 -0.2318
  925MOL0     C27575   8.080   9.588  -0.070  0.3511 -0.6081 -0.8399
  925MOL0     C27576   8.070   9.580  -0.222 -0.6123  0.0032  0.1735
  925MOL0     C27577   8.085   9.567  -0.342  0.6190  0.1614 -0.6025
  925MOL0     C27578   8.426   9.784   0.220  0.2206  0.0967  0.3910
  925MOL0     C27579   8.450   9.817   0.351 -0.1515 -0.3921 -0.7177
  925MOL0     C27580   8.332   9.848   0.439 -0.4112 -0.6286  0.1250
  925MOL0     H27581   8.667  10.034   0.777 -4.1311  0.7586 -0.3040
  925MOL0     H27582   8.699  10.015   1.018 -1.8658  1.0584 -1.0481
  925MOL0     H27583   8.501   9.662   1.224  0.6317 -4.2367  0.9174
  925MOL0     H27584   8.610   9.719   1.353  0.7709 -5.2713  0.4337
  925MOL0     H27585   8.740   9.538   1.144 -0.0639 -0.3856 -0.7202
  925MOL0     H27586   8.770   9.588   1.309 -2.1928  1.4737  1.2485
  925MOL0     H27587   8.502   9.480   1.282  1.2396  3.2664 -2.3900
  925MOL0     H27588   8.609   9.358   1.204  2.9842  0.3240  0.1922
  925MOL0     H27589   8.609   9.282   1.439 -0.1219 -0.2002 -2.2000
  925MOL0     H27590   8.766   9.352   1.400 -0.2120  1.0487 -2.3077
  925MOL0     H27591   8.700   9.557   1.524  3.0245 -1.3803  0.1131
  925MOL0     H27592   8.673   9.399   1.605 -0.6809 -2.1928 -1.7432
  925MOL0     H27593   8.473   9.594   1.498 -0.2855  0.0506  0.8970
  925MOL0     H27594   8.425   9.427   1.527  1.8916 -3.7533  3.2426
  925MOL0     H27595   8.511   9.434   1.753 -0.9482 -0.1403  0.9295
  925MOL0     H27596   8.366   9.532   1.725  1.3345  2.4220 -1.6736
  925MOL0     H27597   8.637   9.687   1.711  1.4379 -2.6175  0.7717
  925MOL0     H27598   8.471   9.739   1.697  0.7721  0.4301 -0.3972
  925MOL0     H27599   8.506   9.479   1.981 -0.1048 -0.5436  1.7278
  925MOL0     H27600   8.536   9.496   2.247 -1.7579 -0.0856 -0.9539
  925MOL0     H27601   8.429   9.634   2.281 -0.6314  0.0259 -0.9001
  925MOL0     H27602   8.615   9.765   2.364  1.7835 -0.5803  0.1066
  925MOL0     H27603   8.625   9.599   2.440 -3.6309  0.9941  1.7797
  925MOL0     H27604   8.774   9.687   2.179 -0.6857 -1.7999 -0.8822
  925MOL0     H27605   8.847   9.732   2.318 -1.4906  1.3614 -1.4234
  925MOL0     H27606   8.951   9.517   2.290 -0.3607 -1.9218 -0.4325
  925MOL0     H27607   8.815   9.471   2.382  1.7125 -1.3936  0.6861
  925MOL0     H27608   9.009   9.563   2.086 -0.4413  2.5620 -1.0888
  925MOL0     H27609   9.252   9.451   1.865 -1.1260 -0.4886  0.1905
  925MOL0     H27610   9.202   9.574   1.986  1.6296 -1.6246  0.2206
  925MOL0     H27611   9.179   9.604   1.815 -0.7057  0.5369  0.1544
  925MOL0     H27612   8.885   9.083   1.427 -1.9946  0.9319 -1.4479
  925MOL0     H27613   8.954   9.023   1.190  2.8904  0.4295 -2.2953
  925MOL0     H27614   9.154   9.340   0.957  0.1863 -0.2635  0.2428
  925MOL0     H27615   9.266   9.194   0.981 -1.2923 -2.7930 -1.3029
  925MOL0     H27616   9.231   9.155   0.770  2.0561  1.7450  2.9994
  925MOL0     H27617   9.079   9.083   0.820  2.3000 -2.2186 -4.1307
  925MOL0     H27618   9.047   9.242   0.631 -0.0378  3.1088 -0.3505
  925MOL0     H27619   9.113   9.364   0.727 -0.3964  1.7521 -1.9308
  925MOL0     H27620   8.935   9.340   0.906 -0.1563  3.0286 -1.6084
  925MOL0     H27621   8.864   9.207   0.810 -2.3040  1.7610 -2.2194
  925MOL0     H27622   8.739   9.427   0.779 -0.5392  1.5080 -1.3325
  925MOL0     H27623   8.892   9.509   0.748 -0.1689 -0.8504  3.5223
  925MOL0     H27624   8.731   9.435   0.548  1.5809  3.5934  1.3537
  925MOL0     H27625   8.804   9.270   0.575 -0.8375  0.3391 -0.5350
  925MOL0     H27626   8.938   9.341   0.418 -0.8913  0.1472  0.4182
  925MOL0     H27627   9.019   9.436   0.547 -1.5332  1.8321  1.5094
  925MOL0     H27628   8.924   9.639   0.459  2.8047  0.7426 -1.7060
  925MOL0     H27629   8.806   9.533   0.360 -1.1159 -1.0517  1.4776
  925MOL0     H27630   9.209   9.373   1.198  0.6496 -2.6441 -3.3209
  925MOL0     H27631   9.146   9.414   1.421 -0.8297 -1.5094  1.0535
  925MOL0     H27632   8.822   9.247   1.759  0.7537 -0.3046  0.8134
  925MOL0     H27633   8.718   9.285   1.977  0.2299 -0.0593 -0.8229
  925MOL0     H27634   8.514   9.629   1.018  0.2444  0.1187  0.9351
  925MOL0     H27635   8.458   9.651   0.794 -1.7127  0.8846  0.8338
  925MOL0     H27636   8.786   9.828   0.331 -0.0903 -3.1927 -0.8376
  925MOL0     H27637   8.733   9.808   0.088 -0.7216  0.5716 -0.5064
  925MOL0     H27638   8.399   9.557  -0.118 -2.8021 -2.4258  1.2569
  925MOL0     H27639   8.359   9.579   0.056  0.8227  1.0080  0.8231
  925MOL0     H27640   8.278   9.739  -0.187  2.5112 -1.4520  0.6800
  925MOL0     H27641   8.324   9.837  -0.058 -0.8111  0.9006  1.8027
  925MOL0     H27642   8.143   9.749   0.080 -0.2350  2.4113 -0.6104
  925MOL0     H27643   8.090   9.807  -0.073 -1.4643  0.6147  0.7479
  925MOL0     H27644   7.980   9.585  -0.026  0.1835 -0.1708 -1.1834
  925MOL0     H27645   8.141   9.510  -0.024  2.3941  1.9404  1.1549
  925MOL0     H27646   8.115   9.556  -0.444  1.3175  2.5683 -0.7219
  925MOL0     H27647   8.321   9.785   0.193 -0.1996  0.7138  1.9192
  925MOL0     H27648   8.317   9.778   0.522 -1.9050  0.0226  0.4340
  925MOL0     H27649   8.337   9.951   0.476  0.7958 -1.3597  2.1094
  925MOL0     H27650   8.243   9.842   0.375 -0.7452 -2.4785  0.6988
  926MOL0     O27651   0.405   9.967   4.873 -0.6971 -0.9292 -0.5746
  926MOL0     C27652   0.525   9.937   4.843  0.3466 -1.0792 -0.5440
  926MOL0     O27653   0.572   9.898   4.723  0.2085  0.1573 -0.8023
  926MOL0     C27654   0.491   9.878   4.617  0.4314  0.2706 -0.6870
  926MOL0     C27655   0.500   9.758   4.549 -0.0256 -0.2342 -0.5336
  926MOL0     C27656   0.410   9.737   4.456  0.9866 -1.0595  1.2117
  926MOL0     C27657   0.329   9.836   4.394  0.1550  0.0863 -0.7850
  926MOL0     O27658   0.256   9.793   4.293  0.1126 -0.0699  0.7178
  926MOL0     C27659   0.236   9.893   4.185  0.2672  0.2598 -0.4718
  926MOL0     C27660   0.167   9.817   4.068 -0.0213 -0.7374  0.5794
  926MOL0     C27661   0.021   9.797   4.090  0.2645 -0.2249 -0.1536
  926MOL0     C27662  -0.021   9.661   4.049 -0.9600  0.3761  0.6439
  926MOL0     C27663  -0.167   9.631   4.088  0.4748  0.9210 -0.4606
  926MOL0     C27664  -0.283   9.720   4.040  0.6322  0.0668 -0.0728
  926MOL0     C27665  -0.423   9.642   4.070 -0.6291 -0.2715  0.1587
  926MOL0     C27666  -0.458   9.652   4.213 -0.2629 -0.0377 -0.4062
  926MOL0     N27667  -0.597   9.597   4.225  0.3244 -0.0970  0.1910
  926MOL0     C27668  -0.628   9.501   4.313  0.5786  0.5697 -0.5738
  926MOL0     C27669  -0.773   9.489   4.299 -0.1799 -0.6517  0.3038
  926MOL0     C27670  -0.878   9.387   4.360 -0.4691  0.7962 -0.9481
  926MOL0     C27671  -0.806   9.261   4.412  0.0768 -0.1701 -0.0226
  926MOL0     C27672  -0.923   9.170   4.451  0.0186 -0.0194  0.4236
  926MOL0     C27673  -0.882   9.032   4.512  0.4854 -0.0709  0.6501
  926MOL0     O27674  -0.823   8.949   4.421 -0.5975 -0.5165  0.5214
  926MOL0     C27675  -0.761   8.836   4.463 -0.2231 -0.1888 -0.6012
  926MOL0     C27676  -0.669   8.797   4.369  0.2060  0.0466  0.4582
  926MOL0     C27677  -0.589   8.685   4.392  0.3404  0.4668  0.5384
  926MOL0     C27678  -0.471   8.650   4.289 -0.4733 -0.0641  0.1026
  926MOL0     C27679  -0.616   8.594   4.505 -0.3420 -0.1769  0.7425
  926MOL0     C27680  -0.534   8.473   4.532  0.0722 -0.6195  0.0178
  926MOL0     O27681  -0.535   8.420   4.663  0.1561 -0.8327  0.0611
  926MOL0     C27682  -0.465   8.308   4.697 -0.0039  0.2950  0.2867
  926MOL0     C27683  -0.541   8.187   4.725  0.7958 -0.4021 -0.2850
  926MOL0     C27684  -0.472   8.079   4.780 -0.2349 -0.1987 -0.1237
  926MOL0     C27685  -0.330   8.075   4.780 -0.8705 -0.5990  0.1080
  926MOL0     O27686  -0.276   7.963   4.836  0.4985  0.6889  0.0902
  926MOL0     C27687  -0.130   7.933   4.836  0.5009 -0.5910  0.8162
  926MOL0     C27688  -0.117   7.782   4.871 -0.4063  0.4754  0.7017
  926MOL0     C27689   0.011   7.760   4.957 -0.7831  0.0216  0.0917
  926MOL0     C27690   0.041   7.607   4.969 -0.0355 -0.7547  0.1658
  926MOL0     C27691   0.082   7.545   4.834  0.0904 -0.0345 -0.2043
  926MOL0     C27692   0.209   7.600   4.785 -1.3576  0.7881 -0.2123
  926MOL0     C27693   0.242   7.586   4.632  0.1158 -0.3797 -0.0750
  926MOL0     C27694   0.391   7.622   4.598  0.7423 -0.6142  0.3346
  926MOL0    Cl27695   0.428   7.619   4.421 -0.2765  0.1547  0.0373
  926MOL0     C27696  -0.255   8.194   4.744 -0.0650 -0.1426 -0.2734
  926MOL0     C27697  -0.321   8.312   4.715  0.9434  1.2844  0.1278
  926MOL0     O27698  -0.466   8.423   4.441 -0.1706  0.3979 -0.4050
  926MOL0     C27699  -0.718   8.647   4.598 -0.5713  0.6296  0.2354
  926MOL0     C27700  -0.790   8.766   4.576 -0.4134  0.1445 -0.8714
  926MOL0     N27701  -0.813   9.592   4.228  0.7662  0.3846  0.2021
  926MOL0     N27702  -0.717   9.648   4.170  0.5590 -0.5577 -0.3101
  926MOL0     C27703   0.324   9.959   4.456  0.7008 -0.3361  0.1958
  926MOL0     C27704   0.404   9.978   4.570  0.1448 -0.6268  1.0700
  926MOL0     C27705   0.630   9.957   4.951  0.7170 -0.5768 -0.1074
  926MOL0     C27706   0.599  10.043   5.059  0.0861 -0.2479 -1.1465
  926MOL0     C27707   0.686  10.052   5.174 -0.5501  0.1033  0.4400
  926MOL0     C27708   0.814   9.988   5.168 -0.0181  0.4656 -0.0318
  926MOL0     O27709   0.908  10.015   5.261  0.0458  0.0869  0.5705
  926MOL0     C27710   0.965  10.148   5.255  0.4322  0.5408  0.6392
  926MOL0     C27711   1.035  10.190   5.386  0.5707  0.4101 -0.0496
  926MOL0     C27712   0.929  10.189   5.501  0.0249  0.6353 -0.5411
  926MOL0     C27713   0.833  10.289   5.509  0.2955  0.2168  0.3249
  926MOL0     C27714   0.879  10.425   5.523 -0.0080 -0.6954  0.5847
  926MOL0     C27715   0.912  10.540   5.549  0.4500  0.5730 -0.7522
  926MOL0     C27716   0.847   9.913   5.058 -0.8099 -0.1848  0.4507
  926MOL0     C27717   0.763   9.896   4.947  0.8855  0.3632 -1.2451
  926MOL0     C27718   0.823   9.806   4.840 -0.1645  0.6847  0.8718
  926MOL0     H27719   0.571   9.680   4.575  0.0706 -0.4280 -1.3584
  926MOL0     H27720   0.404   9.635   4.418  1.4214  0.0137 -1.9868
  926MOL0     H27721   0.334   9.935   4.161  1.3505 -0.3704  2.4086
  926MOL0     H27722   0.163   9.967   4.220 -0.6609 -1.5892  1.7726
  926MOL0     H27723   0.175   9.878   3.978  1.7917 -0.7106  0.7275
  926MOL0     H27724   0.226   9.726   4.053  0.4652 -0.4973  0.9944
  926MOL0     H27725  -0.000   9.811   4.197  0.9623 -0.4815  0.0232
  926MOL0     H27726  -0.037   9.851   4.015  0.2300 -4.1026 -3.1779
  926MOL0     H27727  -0.009   9.652   3.940  0.4128 -0.9589  0.8729
  926MOL0     H27728   0.049   9.587   4.087  2.5204  3.5186  0.8942
  926MOL0     H27729  -0.174   9.614   4.196  1.5535  0.5311 -0.4347
  926MOL0     H27730  -0.195   9.536   4.041  0.3780  0.4250  0.5721
  926MOL0     H27731  -0.281   9.818   4.088 -3.1820  1.1588 -1.7504
  926MOL0     H27732  -0.272   9.748   3.935  3.4698 -1.4807 -0.3052
  926MOL0     H27733  -0.414   9.537   4.041 -1.3824  0.2330 -2.0916
  926MOL0     H27734  -0.506   9.687   4.015 -1.9887  0.5169  2.7118
  926MOL0     H27735  -0.385   9.602   4.277 -0.0578  3.3203  2.3219
  926MOL0     H27736  -0.456   9.759   4.238 -0.1691  0.0536 -0.8006
  926MOL0     H27737  -0.568   9.432   4.372 -2.0808 -1.8200 -0.4207
  926MOL0     H27738  -0.959   9.361   4.291 -1.1146 -1.5411  0.5648
  926MOL0     H27739  -0.922   9.433   4.450  0.8095  0.4518 -0.1184
  926MOL0     H27740  -0.752   9.220   4.327 -1.6264  1.8857 -2.2529
  926MOL0     H27741  -0.734   9.273   4.493 -1.6795  0.8471  1.4864
  926MOL0     H27742  -0.978   9.226   4.527 -0.3110 -1.1784  1.0693
  926MOL0     H27743  -0.990   9.166   4.365 -0.0398  0.7544  0.4298
  926MOL0     H27744  -0.815   9.054   4.595  1.9038 -0.7836 -0.2706
  926MOL0     H27745  -0.974   9.002   4.562  1.5365 -2.4941  1.2457
  926MOL0     H27746  -0.651   8.843   4.273  1.7683 -3.4159 -1.0517
  926MOL0     H27747  -0.493   8.558   4.233  0.0592  0.2708 -0.6635
  926MOL0     H27748  -0.370   8.643   4.330 -1.0822  1.0581  1.9052
  926MOL0     H27749  -0.470   8.722   4.207  3.7432  0.0759  0.0604
  926MOL0     H27750  -0.648   8.171   4.731  1.0178 -1.3205  2.3036
  926MOL0     H27751  -0.522   7.991   4.819 -0.0215  0.4115  1.6206
  926MOL0     H27752  -0.091   7.952   4.735 -2.1151 -1.6288 -0.5113
  926MOL0     H27753  -0.082   7.995   4.912  1.1568  0.0999 -0.1399
  926MOL0     H27754  -0.203   7.765   4.937  0.9566 -3.4819  1.7645
  926MOL0     H27755  -0.130   7.711   4.789  2.6197 -0.6230  1.0340
  926MOL0     H27756  -0.008   7.805   5.055 -0.1398 -0.7349  0.5791
  926MOL0     H27757   0.092   7.816   4.910 -2.8712  2.8108 -0.4599
  926MOL0     H27758  -0.053   7.561   5.001 -1.0650  1.9634  1.3058
  926MOL0     H27759   0.119   7.592   5.045  0.0896  1.1572  0.4637
  926MOL0     H27760   0.081   7.439   4.859 -1.5295  0.5162  2.5717
  926MOL0     H27761   0.014   7.558   4.749 -1.2326 -1.6895  0.5540
  926MOL0     H27762   0.284   7.538   4.835  0.5179  1.0985 -2.4995
  926MOL0     H27763   0.231   7.706   4.804 -0.1601  0.8061 -1.5876
  926MOL0     H27764   0.164   7.640   4.578 -2.4795 -1.5228  2.2708
  926MOL0     H27765   0.223   7.479   4.616 -1.0444 -0.2101  0.0951
  926MOL0     H27766   0.459   7.546   4.640  0.7275 -0.3460  0.8480
  926MOL0     H27767   0.405   7.721   4.641 -0.5638  0.4006 -1.4578
  926MOL0     H27768  -0.148   8.198   4.759 -0.2716  2.9216  1.3010
  926MOL0     H27769  -0.278   8.411   4.702  2.2193  0.7645  0.2445
  926MOL0     H27770  -0.721   8.583   4.686  1.7106  3.4388  2.6068
  926MOL0     H27771  -0.862   8.814   4.642  0.0311  4.3972 -3.1054
  926MOL0     H27772   0.274  10.036   4.397 -1.7090 -0.1692  2.2873
  926MOL0     H27773   0.417  10.074   4.617  0.7780  1.9334 -3.7320
  926MOL0     H27774   0.505  10.095   5.073  0.5319  0.8341 -1.9714
  926MOL0     H27775   0.637  10.105   5.255 -0.9645  0.8182 -0.2658
  926MOL0     H27776   1.040  10.148   5.176  1.6552  3.8368  1.6185
  926MOL0     H27777   0.891  10.224   5.227 -1.6278 -1.2786  0.9155
  926MOL0     H27778   1.080  10.289   5.374 -1.8140  1.4344 -1.0430
  926MOL0     H27779   1.111  10.112   5.401 -0.8931 -1.3944 -1.5986
  926MOL0     H27780   0.893  10.086   5.500  2.5701 -0.4073  1.6976
  926MOL0     H27781   0.985  10.201   5.595 -0.7486 -3.8234  0.6990
  926MOL0     H27782   0.771  10.280   5.598 -1.6426  4.7348 -0.2594
  926MOL0     H27783   0.762  10.265   5.429  3.6208 -3.6137 -1.8043
  926MOL0     H27784   0.938  10.635   5.592  1.8143 -0.9189  2.0490
  926MOL0     H27785   0.945   9.867   5.051 -0.0515  1.5480 -1.2820
  926MOL0     H27786   0.755   9.725   4.813  0.2761  1.0272 -1.5255
  926MOL0     H27787   0.835   9.850   4.740 -5.4826 -1.1084 -0.8861
  926MOL0     H27788   0.920   9.771   4.875 -0.1292  0.3197  0.4100
  927MOL0     O27789   5.121   0.316   8.969 -0.1988 -0.3219  0.4878
  927MOL0     C27790   5.241   0.347   8.986  0.8315 -0.3900  0.4898
  927MOL0     O27791   5.300   0.359   9.103  0.3473  0.0739 -0.0603
  927MOL0     C27792   5.217   0.420   9.206 -0.1658  0.0985  0.2797
  927MOL0     C27793   5.219   0.556   9.213  0.2947 -0.5838 -0.2675
  927MOL0     C27794   5.128   0.626   9.298  0.3586  0.8720  0.2466
  927MOL0     C27795   5.032   0.548   9.376  0.1573  0.4304  0.5166
  927MOL0     O27796   4.941   0.617   9.456 -0.2673 -0.2968  0.0172
  927MOL0     C27797   4.859   0.529   9.548  0.0005 -1.0600  0.4411
  927MOL0     C27798   4.785   0.627   9.637 -0.3138 -0.8898  0.7615
  927MOL0     C27799   4.697   0.738   9.564  0.2521  0.4076 -0.0661
  927MOL0     C27800   4.589   0.802   9.652  0.2942  0.7369  0.6646
  927MOL0     C27801   4.554   0.952   9.622  1.0690 -0.0884  0.2187
  927MOL0     C27802   4.441   0.997   9.713 -0.5703  0.2129 -0.3808
  927MOL0     C27803   4.375   1.136   9.672  0.0219  0.0825  0.0683
  927MOL0     C27804   4.253   1.169   9.748 -0.0768  0.4014 -0.6280
  927MOL0     N27805   4.181   1.286   9.699  1.0261 -1.1332  0.3502
  927MOL0     C27806   4.252   1.408   9.676 -1.0021  0.6983 -1.1641
  927MOL0     C27807   4.160   1.514   9.707 -0.2117  0.4479  0.1595
  927MOL0     C27808   4.202   1.660   9.728  1.2363  0.6321 -1.0576
  927MOL0     C27809   4.097   1.756   9.693 -0.5095  0.1623  0.5889
  927MOL0     C27810   4.090   1.772   9.533 -0.1740  1.0893 -0.5372
  927MOL0     C27811   3.968   1.847   9.486 -0.0202 -0.6851  0.9631
  927MOL0     O27812   3.855   1.776   9.537 -0.3400  0.7470 -0.2394
  927MOL0     C27813   3.753   1.865   9.568 -0.4028 -0.1509 -0.3845
  927MOL0     C27814   3.682   1.935   9.465 -0.1731  1.2402  0.6279
  927MOL0     C27815   3.577   2.022   9.485 -0.4967 -0.0346  0.7231
  927MOL0     C27816   3.508   2.057   9.360 -0.0472 -0.0935 -0.5049
  927MOL0     C27817   3.545   2.055   9.613  0.3622 -0.5020 -0.3041
  927MOL0     C27818   3.460   2.167   9.645 -0.6170 -0.4038  0.4318
  927MOL0     O27819   3.324   2.134   9.673  0.2324  0.1297  0.5995
  927MOL0     C27820   3.237   2.241   9.697  0.5219  0.4851  1.0880
  927MOL0     C27821   3.105   2.232   9.647 -0.3936 -0.3219 -0.5566
  927MOL0     C27822   3.006   2.319   9.685  0.7065 -0.2567 -0.6002
  927MOL0     C27823   3.042   2.432   9.764 -0.3612 -0.5227 -0.3988
  927MOL0     O27824   2.951   2.530   9.799 -0.4660  0.1935  0.7525
  927MOL0     C27825   2.910   2.533   9.934  0.6364 -0.1464  0.3160
  927MOL0     C27826   2.860   2.668   9.980  1.4641 -0.5081  0.9565
  927MOL0     C27827   2.705   2.712   9.955 -0.6232 -0.8771 -0.1096
  927MOL0     C27828   2.669   2.830  10.056  0.3155  0.8606  0.7673
  927MOL0     C27829   2.523   2.861  10.049  0.4163 -0.6895  0.6622
  927MOL0     C27830   2.430   2.808  10.150  0.2077  1.2083 -0.1824
  927MOL0     C27831   2.435   2.879  10.292 -0.1455 -0.4044  0.4127
  927MOL0     C27832   2.416   2.774  10.400 -0.6555  0.1978  0.6160
  927MOL0    Cl27833   2.583   2.676  10.407 -0.1477 -0.4630 -0.0698
  927MOL0     C27834   3.170   2.442   9.816  0.3168  0.0271  0.3537
  927MOL0     C27835   3.263   2.346   9.782  0.8460 -0.2788 -0.0483
  927MOL0     O27836   3.508   2.280   9.631 -0.2681 -0.9274 -0.9318
  927MOL0     C27837   3.615   1.997   9.722  0.4853 -0.9216 -0.1760
  927MOL0     C27838   3.712   1.901   9.698  0.4219  0.6539 -0.1980
  927MOL0     N27839   4.036   1.454   9.734 -0.8601  0.6685  0.1825
  927MOL0     N27840   4.053   1.331   9.731  0.0019  0.1377  0.3051
  927MOL0     C27841   5.037   0.407   9.360  1.2992 -1.8202 -0.1963
  927MOL0     C27842   5.129   0.345   9.280 -0.2803 -0.6665  0.2392
  927MOL0     C27843   5.341   0.331   8.875 -0.0848 -0.2252  0.4031
  927MOL0     C27844   5.476   0.317   8.910  0.1160 -0.3783  0.0806
  927MOL0     C27845   5.571   0.308   8.816 -0.3987  1.0682  0.8307
  927MOL0     C27846   5.535   0.307   8.678 -0.4942 -1.1444  0.2912
  927MOL0     O27847   5.624   0.292   8.576  0.2706 -0.8029  0.3276
  927MOL0     C27848   5.757   0.236   8.603 -0.7311 -0.1829 -0.4165
  927MOL0     C27849   5.819   0.173   8.484  0.2651  0.1047  0.4835
  927MOL0     C27850   5.847   0.274   8.371 -0.5076  0.6121  0.4598
  927MOL0     C27851   5.914   0.407   8.400  0.0944 -0.4791  0.0478
  927MOL0     C27852   6.047   0.391   8.451  0.8204 -0.8981 -0.3627
  927MOL0     C27853   6.162   0.386   8.494  0.0992 -0.6474 -1.1261
  927MOL0     C27854   5.407   0.322   8.638 -0.0843 -0.1769 -0.0731
  927MOL0     C27855   5.305   0.334   8.742  0.3716 -0.2818  1.5042
  927MOL0     C27856   5.164   0.355   8.685 -0.3498  0.3709  0.1527
  927MOL0     H27857   5.293   0.605   9.151  2.3441 -0.0010  2.4393
  927MOL0     H27858   5.141   0.730   9.327 -1.0345  1.2929 -0.5314
  927MOL0     H27859   4.922   0.468   9.613 -0.7393 -0.8340  1.3970
  927MOL0     H27860   4.793   0.467   9.486  0.7509 -0.1352 -1.3350
  927MOL0     H27861   4.725   0.562   9.702  1.6880 -3.7766 -0.0677
  927MOL0     H27862   4.859   0.668   9.706  0.7188  0.0099 -0.8100
  927MOL0     H27863   4.766   0.821   9.545 -2.3687  2.6668 -0.2170
  927MOL0     H27864   4.663   0.709   9.464 -0.0698 -0.1243  0.1976
  927MOL0     H27865   4.503   0.736   9.640  0.3070  1.2117 -3.2885
  927MOL0     H27866   4.624   0.809   9.755 -0.4615  0.0909  0.9660
  927MOL0     H27867   4.518   0.962   9.519 -3.7607  1.9557  1.8088
  927MOL0     H27868   4.639   1.021   9.635 -0.2800  1.9747 -1.2186
  927MOL0     H27869   4.362   0.920   9.713  0.0519 -0.4801  1.2300
  927MOL0     H27870   4.481   1.002   9.814  0.4792  1.0711 -0.8270
  927MOL0     H27871   4.366   1.133   9.563 -1.1360 -0.6650  0.1676
  927MOL0     H27872   4.444   1.216   9.702 -0.8457  0.4009  1.3570
  927MOL0     H27873   4.191   1.085   9.781 -0.5893  0.7448 -0.7075
  927MOL0     H27874   4.290   1.206   9.845  1.4596 -3.3585  0.3830
  927MOL0     H27875   4.354   1.419   9.642 -1.0712 -1.3526 -2.1938
  927MOL0     H27876   4.287   1.693   9.667  0.7750  3.1736 -0.4633
  927MOL0     H27877   4.231   1.682   9.831  0.4414  1.9330 -1.0972
  927MOL0     H27878   4.005   1.718   9.737 -0.2633 -0.3629  0.6672
  927MOL0     H27879   4.126   1.852   9.735 -2.3768  0.8032  0.5032
  927MOL0     H27880   4.177   1.828   9.497 -0.8682  2.0277 -0.7995
  927MOL0     H27881   4.087   1.677   9.480 -2.5494  2.3964 -3.0327
  927MOL0     H27882   3.980   1.947   9.528  1.0348 -0.6708  0.6572
  927MOL0     H27883   3.966   1.852   9.376  0.1492  1.0074  1.0214
  927MOL0     H27884   3.713   1.903   9.366  1.3858 -1.1947  1.7830
  927MOL0     H27885   3.537   2.160   9.338 -0.1672 -0.1019 -0.7050
  927MOL0     H27886   3.400   2.059   9.377  0.0702 -1.1021  0.5086
  927MOL0     H27887   3.538   1.992   9.277 -1.6839  0.3058 -1.4481
  927MOL0     H27888   3.086   2.160   9.567  0.6165  0.1354 -1.2309
  927MOL0     H27889   2.908   2.312   9.639  1.2475 -0.9986 -1.6633
  927MOL0     H27890   2.845   2.449   9.959  0.9111 -1.0676 -1.8901
  927MOL0     H27891   2.995   2.520  10.002  0.4759 -2.7019  0.1338
  927MOL0     H27892   2.880   2.683  10.086 -0.6125  3.0903  1.0205
  927MOL0     H27893   2.922   2.748   9.939  4.3967 -2.2937  1.6550
  927MOL0     H27894   2.647   2.620   9.955  0.8691 -1.8559 -0.8961
  927MOL0     H27895   2.689   2.748   9.852 -0.4080 -0.2284  0.0779
  927MOL0     H27896   2.731   2.910  10.013 -0.3251  2.4767  2.6989
  927MOL0     H27897   2.702   2.803  10.156  0.0509  0.9609  0.8815
  927MOL0     H27898   2.502   2.968  10.052  0.8792 -0.5806  0.1543
  927MOL0     H27899   2.488   2.831   9.950  1.1431  2.4054 -0.6550
  927MOL0     H27900   2.448   2.701  10.163 -3.1034  0.4880 -0.5984
  927MOL0     H27901   2.325   2.818  10.123 -0.3363  2.0274  2.0729
  927MOL0     H27902   2.352   2.951  10.287 -0.4802 -0.8252 -0.2056
  927MOL0     H27903   2.528   2.937  10.294  0.5265 -1.4648  1.8957
  927MOL0     H27904   2.324   2.717  10.380 -1.7066  3.1093 -4.7142
  927MOL0     H27905   2.407   2.829  10.494 -0.4223 -0.2834  0.9251
  927MOL0     H27906   3.196   2.536   9.863  0.3478 -0.4745  1.3706
  927MOL0     H27907   3.355   2.360   9.838 -0.2781  3.0305  1.1707
  927MOL0     H27908   3.603   2.025   9.826  1.3249 -2.2269  0.3012
  927MOL0     H27909   3.784   1.862   9.769  2.1373  2.0654 -1.0817
  927MOL0     H27910   4.968   0.333   9.400  1.5026 -2.8731 -1.7059
  927MOL0     H27911   5.123   0.237   9.269 -1.1773 -0.5736 -0.2766
  927MOL0     H27912   5.495   0.310   9.017 -3.4902 -1.8717  0.7696
  927MOL0     H27913   5.672   0.297   8.853 -0.1382 -2.6301 -0.4940
  927MOL0     H27914   5.830   0.306   8.645  4.5559 -5.1767  0.0196
  927MOL0     H27915   5.754   0.155   8.677  0.4800 -0.6652 -0.8681
  927MOL0     H27916   5.768   0.094   8.428  3.2039  0.4107 -2.9944
  927MOL0     H27917   5.911   0.128   8.521  0.2243 -0.5945 -0.2546
  927MOL0     H27918   5.903   0.215   8.298  0.5512  1.9490  0.1559
  927MOL0     H27919   5.748   0.307   8.341  0.4582  2.0562 -1.3003
  927MOL0     H27920   5.867   0.472   8.473  2.5473 -0.1507  1.4434
  927MOL0     H27921   5.911   0.468   8.309 -3.0414 -1.9848 -0.9899
  927MOL0     H27922   6.258   0.376   8.541 -1.2594 -0.3174  1.9743
  927MOL0     H27923   5.403   0.301   8.532  2.2816  0.5714 -0.3648
  927MOL0     H27924   5.169   0.389   8.581 -1.6241  0.2988  0.0570
  927MOL0     H27925   5.105   0.263   8.685 -5.5327  3.3278 -1.9223
  927MOL0     H27926   5.112   0.429   8.746 -0.2818  0.4346  0.1337
  928MOL0     O27927   1.263   0.840   8.972 -0.4103 -0.0510  1.2925
  928MOL0     C27928   1.372   0.836   8.916 -0.0677  0.3011 -0.6127
  928MOL0     O27929   1.492   0.838   8.972 -0.5052 -0.2218  0.3339
  928MOL0     C27930   1.495   0.848   9.113 -0.3102  0.3411 -0.7010
  928MOL0     C27931   1.413   0.777   9.202  0.6285 -1.1362 -0.4866
  928MOL0     C27932   1.427   0.809   9.342 -0.5283  0.4324  1.3805
  928MOL0     C27933   1.516   0.908   9.389 -0.1919  1.1203 -0.9766
  928MOL0     O27934   1.527   0.937   9.520 -0.4162  0.2421  0.1061
  928MOL0     C27935   1.568   1.069   9.549  1.8549  0.0603  0.7259
  928MOL0     C27936   1.456   1.167   9.510 -0.8862  0.5586 -0.0606
  928MOL0     C27937   1.466   1.300   9.582 -0.1492 -0.1176  0.2360
  928MOL0     C27938   1.596   1.374   9.556  0.1425  0.0090 -0.2650
  928MOL0     C27939   1.604   1.505   9.645  0.6253 -0.0915 -0.2645
  928MOL0     C27940   1.485   1.605   9.617 -0.1400  0.7872  0.0187
  928MOL0     C27941   1.496   1.714   9.727  1.0416  0.1761 -0.5302
  928MOL0     C27942   1.422   1.842   9.680  0.4644 -0.1350  0.1651
  928MOL0     N27943   1.272   1.839   9.679 -0.0959  0.3771  0.5215
  928MOL0     C27944   1.204   1.819   9.794  0.6279 -0.6864  0.0964
  928MOL0     C27945   1.072   1.836   9.755 -0.7380 -0.4680 -0.5964
  928MOL0     C27946   0.951   1.798   9.842 -0.6698  0.4737  0.6052
  928MOL0     C27947   0.821   1.795   9.756 -0.8239  0.8047  0.1213
  928MOL0     C27948   0.806   1.662   9.674 -0.3633 -0.0064 -1.1333
  928MOL0     C27949   0.697   1.673   9.570  0.0835  1.1576 -0.3352
  928MOL0     O27950   0.693   1.544   9.494  0.3674 -1.3873  0.0556
  928MOL0     C27951   0.747   1.538   9.368  0.0818  0.7677  0.9427
  928MOL0     C27952   0.848   1.629   9.317  0.7433  0.9054 -0.1403
  928MOL0     C27953   0.914   1.600   9.200 -0.8672 -0.6388  1.3315
  928MOL0     C27954   1.045   1.665   9.180  0.5834  1.0561 -0.1673
  928MOL0     C27955   0.860   1.510   9.101  0.2219  0.9772  0.3990
  928MOL0     C27956   0.913   1.489   8.968 -0.5622 -0.1404 -0.6423
  928MOL0     O27957   0.892   1.366   8.911  0.2164  0.2228  0.5250
  928MOL0     C27958   0.940   1.340   8.785  0.6020  0.1568  0.2609
  928MOL0     C27959   1.082   1.330   8.757 -0.0685  0.2613  0.1931
  928MOL0     C27960   1.130   1.301   8.632  0.4928 -0.0154  0.1371
  928MOL0     C27961   1.035   1.296   8.526  0.6187 -0.1815  0.1585
  928MOL0     O27962   1.087   1.277   8.399 -0.8240 -0.2699 -0.6709
  928MOL0     C27963   1.007   1.262   8.281  0.3644 -0.1951  0.0433
  928MOL0     C27964   1.086   1.226   8.155 -0.4471 -0.6979  0.3409
  928MOL0     C27965   1.144   1.085   8.159 -0.4091  0.0590  0.0903
  928MOL0     C27966   1.256   1.081   8.057 -0.3277  1.2248  0.1826
  928MOL0     C27967   1.201   1.070   7.909  0.7210  0.6643  0.4672
  928MOL0     C27968   1.128   0.944   7.872  0.0963 -0.5626 -0.4579
  928MOL0     C27969   1.094   0.939   7.718 -0.2104  0.1405 -0.9273
  928MOL0     C27970   0.970   1.021   7.688 -0.1327 -0.5093 -0.1976
  928MOL0    Cl27971   0.924   1.005   7.517  0.2408  0.4252  0.3641
  928MOL0     C27972   0.895   1.301   8.549 -0.3334  0.2362 -0.0344
  928MOL0     C27973   0.851   1.316   8.677  0.5899 -0.9510 -0.7100
  928MOL0     O27974   0.965   1.581   8.910  0.3796  0.2549 -1.3736
  928MOL0     C27975   0.751   1.426   9.151  0.5143 -0.0976  0.8464
  928MOL0     C27976   0.694   1.441   9.275  0.8290  0.5866 -0.2159
  928MOL0     N27977   1.074   1.857   9.615  0.3252 -0.0083  0.1169
  928MOL0     N27978   1.193   1.856   9.567  0.0109 -0.5195 -0.4136
  928MOL0     C27979   1.616   0.944   9.299 -0.4889 -0.7115  0.3811
  928MOL0     C27980   1.599   0.925   9.166 -0.4355  1.1316  0.8641
  928MOL0     C27981   1.356   0.819   8.775  0.0573 -0.2728  0.0092
  928MOL0     C27982   1.441   0.731   8.703  0.1609 -0.2177 -0.6028
  928MOL0     C27983   1.445   0.729   8.564  0.6690  0.4233 -0.0113
  928MOL0     C27984   1.366   0.820   8.491  0.0983  0.3323 -0.1885
  928MOL0     O27985   1.356   0.809   8.357  0.3347 -0.1671 -0.1983
  928MOL0     C27986   1.347   0.680   8.309  0.8243 -0.4070 -0.2600
  928MOL0     C27987   1.398   0.694   8.163  0.5763  0.4371  0.5238
  928MOL0     C27988   1.546   0.722   8.167  0.3992  0.2861  0.2253
  928MOL0     C27989   1.600   0.724   8.022  0.1792 -0.0975  0.4158
  928MOL0     C27990   1.738   0.767   8.013 -0.0478  0.9544  0.8940
  928MOL0     C27991   1.846   0.830   8.013  0.0407 -0.5565  0.6306
  928MOL0     C27992   1.278   0.900   8.556 -0.0305  0.2986 -0.0817
  928MOL0     C27993   1.271   0.902   8.699 -0.4704 -0.1541  0.0259
  928MOL0     C27994   1.152   0.985   8.760  0.9024  0.7349  0.1987
  928MOL0     H27995   1.328   0.724   9.161  0.1394 -0.2563 -0.6346
  928MOL0     H27996   1.368   0.760   9.419  1.9001  0.1988  3.2129
  928MOL0     H27997   1.666   1.100   9.511  1.0753  0.0405 -1.3852
  928MOL0     H27998   1.570   1.065   9.659  2.2872  1.3607  0.7877
  928MOL0     H27999   1.479   1.187   9.405 -1.4462  0.6320 -0.1745
  928MOL0     H28000   1.360   1.114   9.518  0.1755 -1.9684 -2.2996
  928MOL0     H28001   1.387   1.362   9.539 -0.5744 -1.8134 -1.5660
  928MOL0     H28002   1.452   1.297   9.691 -0.6215  3.2831  0.3679
  928MOL0     H28003   1.678   1.305   9.577 -0.0073 -0.5160 -1.3709
  928MOL0     H28004   1.607   1.404   9.452  0.0222  0.0399 -0.2688
  928MOL0     H28005   1.696   1.558   9.619  0.5079  0.3836  0.2857
  928MOL0     H28006   1.614   1.484   9.752 -1.9029  1.3839  0.3368
  928MOL0     H28007   1.501   1.647   9.518  0.4659  2.4102  0.7642
  928MOL0     H28008   1.388   1.557   9.629 -0.4775  1.6754  1.0820
  928MOL0     H28009   1.603   1.736   9.740  0.7979 -0.3194  3.4506
  928MOL0     H28010   1.463   1.664   9.818 -0.2917 -1.0792 -1.6512
  928MOL0     H28011   1.449   1.936   9.730 -0.7598  0.3686 -0.0826
  928MOL0     H28012   1.446   1.868   9.576 -1.7716  2.7615  0.2492
  928MOL0     H28013   1.258   1.795   9.885  2.5551  1.9865 -0.2095
  928MOL0     H28014   0.944   1.884   9.909  0.6669  0.6359  0.5690
  928MOL0     H28015   0.967   1.704   9.896 -2.0340 -0.3804 -0.3858
  928MOL0     H28016   0.733   1.799   9.820 -0.7494 -2.1500  0.5602
  928MOL0     H28017   0.817   1.880   9.687 -3.4817 -0.5963 -1.6399
  928MOL0     H28018   0.895   1.643   9.613  1.0512  0.8686  0.5510
  928MOL0     H28019   0.784   1.580   9.743  2.4225  1.6485  2.0404
  928MOL0     H28020   0.603   1.692   9.623 -0.8952  4.7942 -2.9523
  928MOL0     H28021   0.704   1.759   9.502  1.8742  1.2331 -0.1021
  928MOL0     H28022   0.870   1.717   9.376  0.8838  2.0285 -1.7879
  928MOL0     H28023   1.032   1.756   9.121 -6.7545 -1.4101 -3.5570
  928MOL0     H28024   1.117   1.603   9.125  0.3372  0.4998  0.1254
  928MOL0     H28025   1.090   1.668   9.280  2.0627 -2.2021 -0.6118
  928MOL0     H28026   1.155   1.336   8.838 -0.7154  1.7597  0.6910
  928MOL0     H28027   1.234   1.295   8.603  0.6224  0.2732  0.5182
  928MOL0     H28028   0.933   1.182   8.293 -1.5303  1.2111 -1.5904
  928MOL0     H28029   0.945   1.350   8.260 -2.3011 -0.8473  4.0974
  928MOL0     H28030   1.019   1.241   8.070 -0.3091  0.2773  0.3886
  928MOL0     H28031   1.168   1.298   8.153 -0.7609 -0.3420  0.2539
  928MOL0     H28032   1.065   1.016   8.128  1.3505 -1.8883 -0.2176
  928MOL0     H28033   1.178   1.058   8.259  0.9594  2.4194  0.3203
  928MOL0     H28034   1.309   0.988   8.077 -0.0008  1.2827 -0.3897
  928MOL0     H28035   1.327   1.162   8.074  2.6309 -0.6777 -2.0354
  928MOL0     H28036   1.127   1.150   7.903  0.0412 -0.0019 -0.4190
  928MOL0     H28037   1.282   1.085   7.837 -1.0780  1.9552 -1.4042
  928MOL0     H28038   1.031   0.937   7.920 -0.7586 -1.8177 -2.2285
  928MOL0     H28039   1.183   0.856   7.907 -0.6646 -0.2213  1.7512
  928MOL0     H28040   1.050   0.839   7.714 -3.1142  0.9538  3.4875
  928MOL0     H28041   1.182   0.961   7.657  2.3161  0.9063  2.6732
  928MOL0     H28042   0.983   1.126   7.714 -2.2242 -1.0701  3.7716
  928MOL0     H28043   0.894   0.978   7.753  0.1903  0.3825  0.7859
  928MOL0     H28044   0.822   1.298   8.469  0.0461 -1.5324 -0.3433
  928MOL0     H28045   0.744   1.312   8.697  0.4618  3.1840  0.4395
  928MOL0     H28046   0.707   1.347   9.090  1.0982  1.8142 -2.2540
  928MOL0     H28047   0.612   1.382   9.316  0.4406  1.2497 -0.0207
  928MOL0     H28048   1.701   1.005   9.327 -0.5965 -0.7303  0.7477
  928MOL0     H28049   1.661   0.982   9.097  0.9473 -0.6661  0.5545
  928MOL0     H28050   1.510   0.675   8.765 -1.1040 -0.2814  0.8038
  928MOL0     H28051   1.502   0.646   8.524 -1.8927 -1.4905  0.0496
  928MOL0     H28052   1.415   0.610   8.359  0.9251  0.8082  1.3998
  928MOL0     H28053   1.241   0.656   8.327  1.0972 -1.0082  0.6218
  928MOL0     H28054   1.346   0.768   8.101  1.5470  2.0928  1.5868
  928MOL0     H28055   1.382   0.597   8.115  0.2783  1.1935 -0.9645
  928MOL0     H28056   1.567   0.811   8.227 -1.0429  0.0654  1.1267
  928MOL0     H28057   1.599   0.640   8.217 -0.7933 -0.5313  0.2120
  928MOL0     H28058   1.550   0.789   7.949  3.1868  0.5130 -1.2610
  928MOL0     H28059   1.598   0.617   7.999  0.4153 -0.0251  0.0536
  928MOL0     H28060   1.941   0.876   7.993 -1.1051  0.4266 -3.4330
  928MOL0     H28061   1.208   0.957   8.496 -1.5368  0.4787  1.7248
  928MOL0     H28062   1.189   1.059   8.831 -0.3231  2.5519 -1.0050
  928MOL0     H28063   1.101   1.032   8.676  0.5324  2.3010  1.2624
  928MOL0     H28064   1.082   0.911   8.800  2.4513 -2.6095 -2.6838
  929MOL0     O28065  11.475   5.071  11.096  0.6444 -0.9766  0.0655
  929MOL0     C28066  11.522   5.091  11.208 -0.1250  1.6299 -0.0768
  929MOL0     O28067  11.624   5.017  11.264 -0.6566 -0.2255 -1.6425
  929MOL0     C28068  11.663   4.916  11.191 -0.1547 -0.6942  0.1598
  929MOL0     C28069  11.601   4.799  11.214 -0.8962  0.1462  0.0794
  929MOL0     C28070  11.638   4.693  11.131  0.9912  0.1600  0.4986
  929MOL0     C28071  11.726   4.702  11.024  0.2943  0.1326  0.4845
  929MOL0     O28072  11.738   4.591  10.949 -0.2480 -0.7054 -0.0520
  929MOL0     C28073  11.821   4.586  10.828 -0.0656 -0.6842 -0.4073
  929MOL0     C28074  11.784   4.459  10.763  0.3607 -0.9738  0.4490
  929MOL0     C28075  11.881   4.444  10.643  0.1375 -0.1793  0.1882
  929MOL0     C28076  11.860   4.313  10.568 -0.3315  0.2941  0.3506
  929MOL0     C28077  11.954   4.304  10.448 -0.0438  0.8583  0.0586
  929MOL0     C28078  11.931   4.167  10.374  1.3586  0.6636  0.4888
  929MOL0     C28079  12.055   4.140  10.282 -0.2682  0.8161  0.4719
  929MOL0     C28080  12.045   3.997  10.208 -0.7004 -0.5970 -0.6086
  929MOL0     N28081  12.171   3.974  10.144  0.5158 -0.3920  1.1460
  929MOL0     C28082  12.213   4.029  10.023 -0.0096 -0.3423 -0.2548
  929MOL0     C28083  12.350   4.011  10.015 -0.6806  0.3553  0.5002
  929MOL0     C28084  12.435   4.074   9.905  0.4698  0.5945 -0.0107
  929MOL0     C28085  12.402   4.013   9.769 -0.3422  0.5360  0.0313
  929MOL0     C28086  12.401   3.860   9.773  0.1127  0.1621  0.2314
  929MOL0     C28087  12.430   3.804   9.633  0.3562 -0.1372 -0.1907
  929MOL0     O28088  12.333   3.854   9.533  1.3657 -0.2638  0.1480
  929MOL0     C28089  12.204   3.812   9.541  0.4969  0.2371  0.5427
  929MOL0     C28090  12.107   3.894   9.480  0.4237 -0.0124  0.0942
  929MOL0     C28091  11.969   3.863   9.478  0.7767 -0.7539  0.3706
  929MOL0     C28092  11.886   3.957   9.396  0.0209 -0.2717 -0.2404
  929MOL0     C28093  11.916   3.750   9.546  0.2267 -0.7576 -0.9160
  929MOL0     C28094  11.771   3.702   9.532  0.9953  0.2306  0.0502
  929MOL0     O28095  11.735   3.612   9.633 -0.4773 -0.2001  1.1749
  929MOL0     C28096  11.644   3.515   9.599  0.6826 -0.3276 -0.3149
  929MOL0     C28097  11.552   3.486   9.696 -0.7433 -0.1660 -0.0847
  929MOL0     C28098  11.456   3.390   9.667  0.2398 -0.0647 -0.1855
  929MOL0     C28099  11.447   3.330   9.544 -0.0407  0.1765  0.5201
  929MOL0     O28100  11.354   3.238   9.513 -0.0799  0.6769  0.3039
  929MOL0     C28101  11.387   3.109   9.577  0.0929 -1.0389  0.8071
  929MOL0     C28102  11.295   2.996   9.538  0.0250  0.2083  0.8944
  929MOL0     C28103  11.297   2.970   9.386 -0.4072  0.2100 -0.4348
  929MOL0     C28104  11.414   2.892   9.335 -0.3777  0.8121  0.5562
  929MOL0     C28105  11.417   2.866   9.189 -0.0338  0.1320  1.1658
  929MOL0     C28106  11.469   2.967   9.090  0.9354  0.2584  0.8924
  929MOL0     C28107  11.497   2.917   8.952 -0.2698 -0.9952 -0.7072
  929MOL0     C28108  11.633   2.861   8.934  0.1550 -0.2747 -0.1902
  929MOL0    Cl28109  11.764   2.970   8.976  0.0993 -0.1655  0.0906
  929MOL0     C28110  11.547   3.357   9.451  0.4134  0.4565  0.4375
  929MOL0     C28111  11.649   3.436   9.483  1.2524 -1.0131 -0.1499
  929MOL0     O28112  11.713   3.724   9.422  0.0557  0.1147 -1.1054
  929MOL0     C28113  12.013   3.667   9.602 -0.5272  0.3621 -0.8504
  929MOL0     C28114  12.153   3.695   9.597  0.3559  0.7718 -0.6502
  929MOL0     N28115  12.388   3.948  10.135 -0.2760 -0.0717  0.0019
  929MOL0     N28116  12.276   3.928  10.206 -0.4427 -0.0396 -0.3669
  929MOL0     C28117  11.804   4.815  11.011 -0.0178 -0.2817  0.2027
  929MOL0     C28118  11.764   4.930  11.093 -0.6509  0.4093  0.6504
  929MOL0     C28119  11.464   5.195  11.286  0.5788  0.9410 -0.3215
  929MOL0     C28120  11.534   5.230  11.394 -0.5901  0.0545 -0.3274
  929MOL0     C28121  11.475   5.309  11.496  2.0074  0.8973  0.7376
  929MOL0     C28122  11.344   5.374  11.482 -0.8651  0.0557  0.1504
  929MOL0     O28123  11.286   5.464  11.564  0.1022  0.1324 -0.0224
  929MOL0     C28124  11.344   5.527  11.681 -0.3624  0.7262  0.0923
  929MOL0     C28125  11.259   5.632  11.747  0.9983 -0.5627 -0.2535
  929MOL0     C28126  11.200   5.736  11.641 -0.2375  0.0863 -0.7245
  929MOL0     C28127  11.048   5.760  11.648  0.9018 -0.8434  0.0861
  929MOL0     C28128  10.971   5.656  11.580 -0.3775 -0.4252 -0.0047
  929MOL0     C28129  10.912   5.564  11.529  0.5024  0.2567  1.2557
  929MOL0     C28130  11.289   5.351  11.362  0.0324 -0.2200  0.0183
  929MOL0     C28131  11.334   5.259  11.266  0.9726  0.1452 -0.0365
  929MOL0     C28132  11.244   5.246  11.136  0.2403  0.0929 -0.1275
  929MOL0     H28133  11.532   4.789  11.297  0.6662  1.9454  1.6865
  929MOL0     H28134  11.602   4.591  11.142  0.8313  0.3835  2.4416
  929MOL0     H28135  11.923   4.591  10.867 -0.9078  3.3494  1.7106
  929MOL0     H28136  11.798   4.667  10.758  0.6285 -1.1183 -1.1611
  929MOL0     H28137  11.784   4.375  10.832  2.1607 -0.2336  1.4129
  929MOL0     H28138  11.682   4.484  10.730 -0.1230 -1.5482  1.4625
  929MOL0     H28139  11.883   4.535  10.584  1.3301  2.1544  3.5550
  929MOL0     H28140  11.975   4.441  10.699 -0.2491  0.1662  0.8689
  929MOL0     H28141  11.884   4.232  10.637 -0.4707  0.6881  0.8726
  929MOL0     H28142  11.753   4.302  10.551 -0.5084  2.2265 -0.0692
  929MOL0     H28143  12.055   4.311  10.489 -0.5619 -0.4840  1.6714
  929MOL0     H28144  11.944   4.377  10.367 -3.0180 -0.5576 -0.9784
  929MOL0     H28145  11.923   4.093  10.455  1.0851  1.4269  1.1800
  929MOL0     H28146  11.832   4.174  10.329  0.8636 -1.4962  1.1238
  929MOL0     H28147  12.139   4.142  10.352  0.3080 -0.8988 -0.1202
  929MOL0     H28148  12.064   4.223  10.211  0.5151  0.3179 -0.0243
  929MOL0     H28149  12.034   3.913  10.278  1.6933  0.0582  0.6793
  929MOL0     H28150  11.974   3.994  10.125  0.0178 -2.2249 -1.2114
  929MOL0     H28151  12.144   4.077   9.955 -1.6855  0.0296  1.5973
  929MOL0     H28152  12.539   4.062   9.934 -0.0495 -0.0988  1.6709
  929MOL0     H28153  12.417   4.182   9.906 -1.7173  0.2919 -0.2232
  929MOL0     H28154  12.302   4.046   9.738  0.1567  0.3841 -1.8381
  929MOL0     H28155  12.474   4.062   9.703  1.0154  0.8028  1.6503
  929MOL0     H28156  12.480   3.827   9.841 -2.7781 -2.7518  2.5116
  929MOL0     H28157  12.310   3.820   9.818  1.5350 -0.8748  2.3389
  929MOL0     H28158  12.523   3.855   9.609 -0.6504  1.6185 -0.5658
  929MOL0     H28159  12.444   3.695   9.632 -3.4067 -0.7711  0.8501
  929MOL0     H28160  12.140   3.986   9.432  0.1346 -0.4609 -0.9716
  929MOL0     H28161  11.868   3.921   9.294 -0.9176 -0.3963 -0.0450
  929MOL0     H28162  11.927   4.055   9.371 -3.5031  1.1001 -1.2279
  929MOL0     H28163  11.785   3.970   9.437 -0.1836  0.4174 -0.9302
  929MOL0     H28164  11.553   3.552   9.782 -0.8613  0.8642 -0.8528
  929MOL0     H28165  11.384   3.351   9.738  0.8774 -2.0891 -0.5628
  929MOL0     H28166  11.491   3.089   9.549  0.6554  2.8294 -0.6056
  929MOL0     H28167  11.377   3.117   9.685  0.2087 -1.5847  0.8593
  929MOL0     H28168  11.338   2.901   9.569 -0.2769 -0.0567  0.4960
  929MOL0     H28169  11.194   3.023   9.570 -0.9469 -1.4708 -0.6230
  929MOL0     H28170  11.291   3.064   9.330 -4.3046 -0.2772 -1.1552
  929MOL0     H28171  11.214   2.906   9.353 -0.7969 -1.2435  2.9406
  929MOL0     H28172  11.421   2.792   9.379  1.3250 -0.3033 -2.0046
  929MOL0     H28173  11.502   2.955   9.357 -1.2169  1.9000  0.8893
  929MOL0     H28174  11.483   2.779   9.182 -0.3370 -0.1317  1.5601
  929MOL0     H28175  11.318   2.838   9.151 -0.2399  2.1213  0.1339
  929MOL0     H28176  11.559   3.020   9.123  1.7502  1.1626 -2.4401
  929MOL0     H28177  11.399   3.049   9.076 -1.1938 -1.4632  0.9199
  929MOL0     H28178  11.476   2.996   8.879  1.0931  0.0833  0.0120
  929MOL0     H28179  11.423   2.838   8.937 -3.1296  1.2264  0.7807
  929MOL0     H28180  11.635   2.816   8.835 -1.4561 -0.9841  0.0604
  929MOL0     H28181  11.635   2.773   8.998  0.2584 -1.3701 -1.6595
  929MOL0     H28182  11.538   3.291   9.365 -2.1628  5.2027 -3.4854
  929MOL0     H28183  11.727   3.458   9.411  1.0102  1.3825  0.2492
  929MOL0     H28184  11.977   3.572   9.640  0.3874  0.1288 -0.5424
  929MOL0     H28185  12.219   3.616   9.632  0.9437  0.3837 -2.5329
  929MOL0     H28186  11.890   4.830  10.947 -0.2949  1.3130  0.1593
  929MOL0     H28187  11.814   5.025  11.075 -0.3257  0.4924  1.9293
  929MOL0     H28188  11.636   5.196  11.410 -0.1874  1.5434  0.4855
  929MOL0     H28189  11.525   5.338  11.588  0.2225 -0.4635  2.2215
  929MOL0     H28190  11.372   5.440  11.741 -1.6569  0.1802 -0.0603
  929MOL0     H28191  11.433   5.579  11.644 -0.3039  0.1610 -0.5952
  929MOL0     H28192  11.323   5.692  11.813 -1.3811  0.6518  1.0763
  929MOL0     H28193  11.182   5.585  11.808 -0.6555  0.6745 -1.2936
  929MOL0     H28194  11.247   5.834  11.657 -2.1439  1.3126 -2.1857
  929MOL0     H28195  11.239   5.712  11.542  1.0243  2.0114 -0.7511
  929MOL0     H28196  11.024   5.848  11.587  2.3084 -0.5670 -0.1028
  929MOL0     H28197  11.013   5.778  11.750 -0.6709  1.7328 -0.8117
  929MOL0     H28198  10.827   5.503  11.509 -0.4629  1.4864  1.4769
  929MOL0     H28199  11.199   5.405  11.334  0.1147  0.3991  0.8857
  929MOL0     H28200  11.289   5.311  11.061 -1.2521  1.2992 -0.0256
  929MOL0     H28201  11.243   5.150  11.082 -1.0728 -0.0740  0.1628
  929MOL0     H28202  11.145   5.286  11.157  1.3769  2.9819  0.1047
  930MOL0     O28203   1.074   6.433   8.616 -0.2168 -0.3127 -0.4104
  930MOL0     C28204   1.141   6.367   8.699  0.6435  0.0697  1.1515
  930MOL0     O28205   1.231   6.277   8.666  0.1642  0.2749 -0.6552
  930MOL0     C28206   1.289   6.284   8.544 -0.3548 -1.0028  0.0210
  930MOL0     C28207   1.426   6.303   8.558  0.5179 -0.7063  0.0260
  930MOL0     C28208   1.502   6.324   8.439  0.0236 -0.4736 -0.7566
  930MOL0     C28209   1.439   6.332   8.314 -0.3648  0.3367 -0.4059
  930MOL0     O28210   1.513   6.356   8.202 -0.7251  0.3933  0.6276
  930MOL0     C28211   1.608   6.463   8.193 -0.5460  0.2127 -0.4070
  930MOL0     C28212   1.581   6.524   8.056  0.6765  0.1019  0.3272
  930MOL0     C28213   1.688   6.624   8.031 -0.7128  0.9466  0.4108
  930MOL0     C28214   1.666   6.695   7.894  0.2099  0.6047  0.2809
  930MOL0     C28215   1.788   6.777   7.835  0.4427  0.5126 -0.5463
  930MOL0     C28216   1.751   6.845   7.705  0.3745 -0.2761  0.0218
  930MOL0     C28217   1.785   6.756   7.584 -0.4505  0.4670  0.9871
  930MOL0     C28218   1.933   6.728   7.546 -0.7164 -0.4465  0.0942
  930MOL0     N28219   1.994   6.624   7.628 -0.0240  0.2911 -0.0860
  930MOL0     C28220   1.959   6.495   7.605  0.7733  0.7947 -0.2883
  930MOL0     C28221   2.051   6.420   7.681  0.4639 -0.1537  0.2886
  930MOL0     C28222   2.044   6.269   7.678  0.2936 -0.0067  0.4001
  930MOL0     C28223   2.184   6.211   7.668  0.4740  0.1469 -0.2564
  930MOL0     C28224   2.206   6.065   7.707 -0.1785  0.0790  0.3936
  930MOL0     C28225   2.135   5.968   7.613 -0.4328  0.0853  0.2761
  930MOL0     O28226   1.999   5.972   7.663  0.0223  0.1450  0.0074
  930MOL0     C28227   1.902   5.912   7.589  0.7912  1.3207  0.0938
  930MOL0     C28228   1.907   5.824   7.484  0.3239  0.4593 -0.4075
  930MOL0     C28229   1.786   5.780   7.423 -0.0034 -0.3440 -0.0098
  930MOL0     C28230   1.804   5.677   7.308  0.2568 -0.3773 -0.5584
  930MOL0     C28231   1.659   5.825   7.475 -0.3410 -0.5623 -0.5636
  930MOL0     C28232   1.525   5.796   7.422  0.3145 -0.4152 -0.3380
  930MOL0     O28233   1.421   5.822   7.498  0.6725 -0.3384  0.1747
  930MOL0     C28234   1.291   5.792   7.458 -0.1402 -0.7379  0.1841
  930MOL0     C28235   1.206   5.719   7.535 -0.5749 -1.2307  0.1731
  930MOL0     C28236   1.074   5.684   7.502  0.3133  1.2352 -0.4513
  930MOL0     C28237   1.031   5.720   7.361  0.0149  0.9445 -0.3070
  930MOL0     O28238   0.900   5.701   7.315 -0.3000 -0.3536 -0.2880
  930MOL0     C28239   0.807   5.627   7.394  0.1936 -0.9877  0.4840
  930MOL0     C28240   0.669   5.633   7.326 -0.1919  0.2370 -0.4372
  930MOL0     C28241   0.676   5.580   7.173 -0.2770 -0.0062 -1.1056
  930MOL0     C28242   0.539   5.545   7.118 -0.8117 -0.2649  0.7653
  930MOL0     C28243   0.518   5.396   7.110  0.1027  0.3716 -0.1006
  930MOL0     C28244   0.492   5.331   7.241  0.8675  0.3915 -0.5223
  930MOL0     C28245   0.489   5.171   7.230 -0.8154 -0.1088  0.2972
  930MOL0     C28246   0.468   5.091   7.369  0.6070  1.0917  0.1156
  930MOL0    Cl28247   0.591   5.128   7.489  0.0888 -0.3456  0.1643
  930MOL0     C28248   1.121   5.794   7.280 -0.3944  0.1410  0.6121
  930MOL0     C28249   1.249   5.831   7.331  0.0235 -0.6520 -0.3736
  930MOL0     O28250   1.524   5.746   7.316 -0.0136 -0.6557  0.5611
  930MOL0     C28251   1.663   5.914   7.586 -0.2660  0.6620 -0.7948
  930MOL0     C28252   1.777   5.958   7.640 -0.3892  0.4557 -0.1027
  930MOL0     N28253   2.149   6.504   7.724 -0.2936  0.5732 -0.8098
  930MOL0     N28254   2.106   6.621   7.701 -0.1891  0.3057 -0.8906
  930MOL0     C28255   1.302   6.310   8.302 -0.0938 -0.5110  0.6303
  930MOL0     C28256   1.225   6.284   8.415 -0.1225  1.3522 -0.8747
  930MOL0     C28257   1.103   6.373   8.842  0.5386 -0.5169 -0.5376
  930MOL0     C28258   1.166   6.274   8.924 -0.6758 -1.1520  0.0380
  930MOL0     C28259   1.126   6.259   9.059 -0.8363 -0.7597  0.2134
  930MOL0     C28260   1.027   6.334   9.106  0.4168  0.0365 -0.7376
  930MOL0     O28261   0.995   6.318   9.233  0.1670  0.7272  0.8642
  930MOL0     C28262   1.072   6.384   9.335  0.1417 -0.0756 -0.1282
  930MOL0     C28263   0.981   6.433   9.441  0.0370 -0.3456 -0.9276
  930MOL0     C28264   0.942   6.575   9.410  0.8555  0.6695 -0.2574
  930MOL0     C28265   0.810   6.617   9.486 -0.8366 -0.1245  0.0415
  930MOL0     C28266   0.749   6.743   9.444 -0.8877  1.1333 -0.6102
  930MOL0     C28267   0.706   6.855   9.408 -0.2670  0.3512 -0.5495
  930MOL0     C28268   0.961   6.431   9.030 -0.6529 -0.1659 -0.1223
  930MOL0     C28269   1.000   6.452   8.900 -0.8306  0.0437  0.1156
  930MOL0     C28270   0.938   6.565   8.829  1.6066 -1.0421 -0.7271
  930MOL0     H28271   1.465   6.297   8.659 -0.0511 -1.2978  0.2200
  930MOL0     H28272   1.610   6.329   8.447  0.0191  0.0993 -1.0059
  930MOL0     H28273   1.712   6.427   8.193 -0.6584 -0.4504 -3.7601
  930MOL0     H28274   1.588   6.537   8.270 -0.4951 -0.4276  0.2380
  930MOL0     H28275   1.581   6.452   7.974 -3.5004  1.0032 -0.7188
  930MOL0     H28276   1.488   6.580   8.074  1.9484  2.1353  0.9325
  930MOL0     H28277   1.694   6.700   8.108 -2.1562  1.3390  0.1825
  930MOL0     H28278   1.783   6.570   8.023 -1.2052 -0.4281  2.7998
  930MOL0     H28279   1.617   6.625   7.826 -0.7422 -0.9001  2.3903
  930MOL0     H28280   1.582   6.762   7.917 -1.9385 -2.0327  0.7127
  930MOL0     H28281   1.876   6.714   7.821  1.0227  1.9501 -4.4562
  930MOL0     H28282   1.820   6.855   7.906  0.0006 -0.4212  0.7087
  930MOL0     H28283   1.644   6.865   7.698  0.4017 -0.5349 -1.5267
  930MOL0     H28284   1.804   6.941   7.698 -0.4418  0.4332  2.5086
  930MOL0     H28285   1.746   6.813   7.500  1.0218  1.3983  0.8926
  930MOL0     H28286   1.729   6.664   7.600 -3.5012  1.8339 -0.8890
  930MOL0     H28287   1.952   6.691   7.444  2.1337 -0.7656  0.6473
  930MOL0     H28288   1.997   6.816   7.555  2.3949 -2.6659  1.4008
  930MOL0     H28289   1.866   6.465   7.559 -0.1897  2.9712  0.1190
  930MOL0     H28290   1.982   6.254   7.590 -0.0502  3.2756 -0.0242
  930MOL0     H28291   2.003   6.230   7.772 -0.2462 -0.8067 -0.1560
  930MOL0     H28292   2.233   6.244   7.576 -2.2351  2.9454 -0.8479
  930MOL0     H28293   2.229   6.264   7.752 -1.1336 -1.6972  1.8950
  930MOL0     H28294   2.312   6.038   7.702 -0.7493 -2.1565 -1.8402
  930MOL0     H28295   2.165   6.041   7.806  1.8832 -1.9836  0.8247
  930MOL0     H28296   2.133   6.008   7.512 -0.1533  0.0070  0.2380
  930MOL0     H28297   2.173   5.865   7.608 -0.9086 -0.0159 -2.5292
  930MOL0     H28298   2.005   5.783   7.461 -1.6386 -4.8298 -0.8050
  930MOL0     H28299   1.905   5.681   7.268  1.0892  1.0020  1.4924
  930MOL0     H28300   1.743   5.708   7.222  0.0464 -0.4546 -0.4366
  930MOL0     H28301   1.774   5.576   7.338 -0.5948  0.1308  0.3906
  930MOL0     H28302   1.258   5.688   7.626 -0.7184  1.4108  1.2557
  930MOL0     H28303   1.010   5.617   7.559  0.2598  1.9345  0.3259
  930MOL0     H28304   0.844   5.524   7.399 -2.0662 -1.9472 -0.8063
  930MOL0     H28305   0.808   5.673   7.493  2.1430 -1.4469  0.7186
  930MOL0     H28306   0.597   5.569   7.377  1.5509 -1.6049 -0.1619
  930MOL0     H28307   0.634   5.736   7.329  0.0293  0.3159 -0.5434
  930MOL0     H28308   0.745   5.499   7.147  0.4481  1.2254 -3.2500
  930MOL0     H28309   0.713   5.671   7.124 -0.4825  1.7551  1.7808
  930MOL0     H28310   0.534   5.600   7.024 -1.0225  0.1602  1.0193
  930MOL0     H28311   0.454   5.579   7.178 -0.6276  3.9797 -1.0490
  930MOL0     H28312   0.431   5.371   7.048  0.4856 -4.7108  0.9337
  930MOL0     H28313   0.609   5.353   7.068  2.1520  3.1343  1.1813
  930MOL0     H28314   0.393   5.354   7.283  0.5918  1.0277 -1.4866
  930MOL0     H28315   0.580   5.352   7.302  0.5270  4.1062 -1.1148
  930MOL0     H28316   0.585   5.143   7.186 -1.0686 -1.3549  0.4980
  930MOL0     H28317   0.415   5.138   7.157 -2.0512 -1.8119  2.2123
  930MOL0     H28318   0.465   4.984   7.343  1.6872  1.6405 -2.6569
  930MOL0     H28319   0.368   5.115   7.405 -0.4600 -1.1480 -1.0967
  930MOL0     H28320   1.099   5.832   7.181 -0.5745  0.1568  0.6573
  930MOL0     H28321   1.330   5.872   7.272  1.4244 -2.0101  0.5450
  930MOL0     H28322   1.572   5.963   7.619 -0.7268 -0.6349 -0.0696
  930MOL0     H28323   1.773   6.037   7.713  1.5334 -0.9196  1.5930
  930MOL0     H28324   1.248   6.313   8.208  0.3839  0.2393  0.3694
  930MOL0     H28325   1.120   6.255   8.417  0.5798 -1.4857  0.5630
  930MOL0     H28326   1.233   6.208   8.869 -1.4468  1.5148 -4.6574
  930MOL0     H28327   1.174   6.179   9.116  0.5329 -0.5704 -0.6131
  930MOL0     H28328   1.139   6.303   9.366  0.1668  0.2614  0.7034
  930MOL0     H28329   1.132   6.463   9.290 -0.9681  0.3413 -0.9431
  930MOL0     H28330   1.045   6.435   9.529  2.0167  0.4088 -2.3223
  930MOL0     H28331   0.893   6.374   9.469  0.7267 -0.7986  0.4020
  930MOL0     H28332   1.024   6.646   9.425  1.8487 -0.4342 -0.3653
  930MOL0     H28333   0.922   6.559   9.303  2.1065 -1.6766 -0.2035
  930MOL0     H28334   0.824   6.617   9.595 -3.1666  1.2480  0.4215
  930MOL0     H28335   0.737   6.538   9.468 -0.7688 -0.4570  1.1233
  930MOL0     H28336   0.658   6.949   9.394 -1.2084  0.1642  1.2038
  930MOL0     H28337   0.891   6.498   9.078  0.1099  0.1950  0.5053
  930MOL0     H28338   1.013   6.630   8.783  0.1644  2.2832  1.2548
  930MOL0     H28339   0.863   6.536   8.754 -0.4749 -1.2882  1.3128
  930MOL0     H28340   0.888   6.635   8.897 -0.8106 -1.8755 -1.5394
  931MOL0     O28341   6.853  10.647   9.911  0.5679  0.9912  0.2164
  931MOL0     C28342   6.943  10.714   9.956  0.2672 -0.0972  0.1232
  931MOL0     O28343   6.978  10.840   9.905 -1.2757 -0.1914 -0.1312
  931MOL0     C28344   6.881  10.901   9.828  0.5004 -0.2084  0.0021
  931MOL0     C28345   6.911  10.933   9.701  0.2377  0.9202 -0.0535
  931MOL0     C28346   6.827  11.014   9.622  0.8771 -0.8728 -0.0774
  931MOL0     C28347   6.700  11.059   9.668  0.8898 -0.1964  0.1627
  931MOL0     O28348   6.631  11.156   9.598  0.3665  0.0591  0.2817
  931MOL0     C28349   6.480  11.161   9.599  0.5524  0.0589  0.1175
  931MOL0     C28350   6.431  11.224   9.475  1.1326 -0.1257  0.0182
  931MOL0     C28351   6.528  11.213   9.355 -0.3563  0.4842  0.8924
  931MOL0     C28352   6.476  11.290   9.232 -0.1813  0.6810 -0.7700
  931MOL0     C28353   6.572  11.275   9.115  0.0316 -0.1218  0.3666
  931MOL0     C28354   6.542  11.371   9.001  0.6988  0.1013  0.6124
  931MOL0     C28355   6.417  11.340   8.910 -0.2631 -0.3563 -0.1997
  931MOL0     C28356   6.409  11.203   8.846  0.2769 -0.4328  0.8913
  931MOL0     N28357   6.508  11.188   8.737 -0.0131  0.3117  0.4743
  931MOL0     C28358   6.480  11.168   8.601  0.0872  0.6115 -0.4418
  931MOL0     C28359   6.601  11.148   8.545  0.0497 -0.0741 -0.0476
  931MOL0     C28360   6.623  11.118   8.393  0.5148  0.5443 -0.1662
  931MOL0     C28361   6.635  10.961   8.376  0.3613 -0.1013 -0.0255
  931MOL0     C28362   6.688  10.941   8.233  0.8003 -0.0032  0.6710
  931MOL0     C28363   6.836  10.911   8.232  0.2604 -0.0073 -0.4460
  931MOL0     O28364   6.869  11.005   8.131  0.0367 -0.7977 -0.5619
  931MOL0     C28365   6.978  10.982   8.055 -0.4417 -0.4402 -0.1070
  931MOL0     C28366   7.005  11.065   7.943  0.0544  0.0602  0.1262
  931MOL0     C28367   7.098  11.032   7.844 -1.3935 -0.5802  0.1653
  931MOL0     C28368   7.107  11.126   7.736  0.0038  0.4819  0.0510
  931MOL0     C28369   7.195  10.924   7.866 -0.4812  0.9658  0.9640
  931MOL0     C28370   7.303  10.885   7.778  0.5792 -0.0536  0.5242
  931MOL0     O28371   7.293  10.754   7.733 -0.3265 -0.4323 -0.6621
  931MOL0     C28372   7.384  10.698   7.646  0.6623  0.3039 -1.4889
  931MOL0     C28373   7.522  10.694   7.665 -0.0666 -0.1276  0.5591
  931MOL0     C28374   7.602  10.651   7.562  0.2419 -0.1231 -0.0114
  931MOL0     C28375   7.551  10.614   7.440 -1.4739  1.3873 -0.5750
  931MOL0     O28376   7.645  10.564   7.347 -0.0199 -0.0972 -0.4926
  931MOL0     C28377   7.624  10.589   7.209  0.3446 -0.2676 -0.1561
  931MOL0     C28378   7.732  10.514   7.126  0.6381  0.3844 -0.3296
  931MOL0     C28379   7.880  10.575   7.149  0.6004 -0.9650  0.1994
  931MOL0     C28380   7.971  10.481   7.064 -0.8862 -0.0806 -0.5555
  931MOL0     C28381   8.112  10.551   7.070  0.2786  0.0723 -0.0448
  931MOL0     C28382   8.214  10.472   6.981 -0.4318 -0.4258  0.4040
  931MOL0     C28383   8.328  10.552   6.943  1.1893  0.4749  0.1231
  931MOL0     C28384   8.294  10.673   6.866  0.7401  0.1896  0.5801
  931MOL0    Cl28385   8.443  10.715   6.776 -0.0811  0.3827  0.0279
  931MOL0     C28386   7.419  10.610   7.424  0.2465 -0.3012  0.0860
  931MOL0     C28387   7.339  10.644   7.529  0.2291  0.3804 -0.0803
  931MOL0     O28388   7.385  10.966   7.738  0.0689  0.3765  0.0224
  931MOL0     C28389   7.173  10.849   7.984 -0.3764 -0.0116 -0.0748
  931MOL0     C28390   7.067  10.878   8.078  0.7749 -0.4873  0.7976
  931MOL0     N28391   6.699  11.148   8.646 -0.7017 -0.2328 -0.0592
  931MOL0     N28392   6.638  11.167   8.756 -0.0812  0.3404 -0.4590
  931MOL0     C28393   6.654  11.003   9.784  0.1020  0.1303 -0.6580
  931MOL0     C28394   6.744  10.925   9.858 -0.3793 -0.7357 -1.1195
  931MOL0     C28395   7.015  10.667  10.075  0.0746 -0.1381 -0.6658
  931MOL0     C28396   7.102  10.553  10.064 -0.1349  0.7012 -0.0500
  931MOL0     C28397   7.186  10.516  10.159 -0.2544  0.2161 -0.1858
  931MOL0     C28398   7.186  10.585  10.282  0.5988  0.1304 -0.1482
  931MOL0     O28399   7.268  10.540  10.377 -0.1175 -0.4796 -0.5530
  931MOL0     C28400   7.338  10.635  10.458 -0.4888  0.5009  0.2237
  931MOL0     C28401   7.434  10.558  10.555  0.6769  0.5511 -0.4703
  931MOL0     C28402   7.347  10.534  10.682 -0.3806 -0.0714  0.0506
  931MOL0     C28403   7.429  10.486  10.798  0.0863 -1.2468  1.4381
  931MOL0     C28404   7.530  10.583  10.837 -0.1654  0.2020 -0.5604
  931MOL0     C28405   7.605  10.669  10.878  0.2055 -0.4099 -0.1349
  931MOL0     C28406   7.108  10.701  10.298  0.3895 -0.1498  0.3137
  931MOL0     C28407   7.016  10.737  10.195 -1.3700  0.2951 -1.5648
  931MOL0     C28408   6.933  10.859  10.204 -0.5920 -0.2332 -0.1478
  931MOL0     H28409   7.012  10.906   9.672  0.1634 -0.8222  1.1785
  931MOL0     H28410   6.861  11.045   9.524  3.0535  3.3392  1.6948
  931MOL0     H28411   6.442  11.220   9.683  2.7926  0.3802  0.9706
  931MOL0     H28412   6.434  11.062   9.612 -1.1884  0.7282 -0.6408
  931MOL0     H28413   6.343  11.165   9.447  1.0135  0.5427 -1.0386
  931MOL0     H28414   6.398  11.325   9.501 -0.3950 -0.6923  0.3883
  931MOL0     H28415   6.619  11.268   9.380 -0.4979  0.6726  0.9916
  931MOL0     H28416   6.548  11.109   9.328 -4.2477 -0.1408 -0.2256
  931MOL0     H28417   6.380  11.254   9.192 -0.1874  0.0884 -0.2306
  931MOL0     H28418   6.465  11.391   9.272  0.8298  0.7095 -0.5605
  931MOL0     H28419   6.576  11.170   9.082 -1.5730 -0.7014  1.8677
  931MOL0     H28420   6.670  11.305   9.153  0.9093 -2.0433 -0.2384
  931MOL0     H28421   6.530  11.468   9.050 -0.9787  2.9407 -4.5912
  931MOL0     H28422   6.624  11.383   8.930 -0.5081  0.8334 -0.7230
  931MOL0     H28423   6.437  11.401   8.821  0.0127 -0.3983 -0.1681
  931MOL0     H28424   6.328  11.367   8.966 -0.3899  2.0128 -1.4141
  931MOL0     H28425   6.435  11.131   8.924 -1.9838  2.1194  4.3032
  931MOL0     H28426   6.308  11.176   8.812  0.6078 -2.8569  1.6752
  931MOL0     H28427   6.387  11.186   8.547 -2.1265  3.0188  3.6132
  931MOL0     H28428   6.716  11.171   8.370  0.4860 -0.1551 -2.1500
  931MOL0     H28429   6.530  11.146   8.343 -1.7072 -3.2672  1.3621
  931MOL0     H28430   6.701  10.918   8.451  2.3831  0.3714 -1.4645
  931MOL0     H28431   6.531  10.928   8.389 -0.3007  2.3987  1.8591
  931MOL0     H28432   6.632  10.861   8.184  2.1250 -0.4535 -0.1663
  931MOL0     H28433   6.660  11.029   8.175  1.1179  0.5080  1.2818
  931MOL0     H28434   6.882  10.958   8.319  0.0032 -2.4333  1.0755
  931MOL0     H28435   6.860  10.807   8.208  1.2693  0.1569 -0.1892
  931MOL0     H28436   6.921  11.131   7.923 -0.1708  0.4219  2.0489
  931MOL0     H28437   7.012  11.174   7.713  1.0121  3.6048  1.8695
  931MOL0     H28438   7.145  11.065   7.654  0.0314 -0.4610  0.7478
  931MOL0     H28439   7.171  11.212   7.755  0.4143  0.4823 -1.2431
  931MOL0     H28440   7.557  10.732   7.760  0.4928 -0.4385  0.4804
  931MOL0     H28441   7.710  10.653   7.567  0.3220  0.5761 -1.3097
  931MOL0     H28442   7.523  10.556   7.181 -0.2584  1.6822 -0.4037
  931MOL0     H28443   7.642  10.696   7.198  1.3259 -0.4201 -0.1645
  931MOL0     H28444   7.726  10.410   7.157 -3.2430 -0.2143 -2.4625
  931MOL0     H28445   7.705  10.515   7.020 -0.1525 -0.7945 -0.1534
  931MOL0     H28446   7.893  10.584   7.257 -2.3042 -0.1817  0.5560
  931MOL0     H28447   7.886  10.670   7.095  0.7718 -0.0986  1.6821
  931MOL0     H28448   7.939  10.497   6.961 -0.5628 -0.6734 -0.7506
  931MOL0     H28449   7.987  10.377   7.094  1.6553  0.5150  0.4805
  931MOL0     H28450   8.093  10.650   7.026 -0.0050  1.3657  2.8047
  931MOL0     H28451   8.144  10.568   7.173  0.5909 -0.8269  0.0106
  931MOL0     H28452   8.161  10.434   6.893 -0.6371 -2.0162  1.1693
  931MOL0     H28453   8.239  10.383   7.040 -1.3431 -0.7491  0.3086
  931MOL0     H28454   8.387  10.488   6.877  1.4245  0.7319  0.0812
  931MOL0     H28455   8.391  10.577   7.029 -1.0226  2.4980  1.2776
  931MOL0     H28456   8.275  10.761   6.930 -0.1862  1.6390 -1.5798
  931MOL0     H28457   8.215  10.654   6.793  1.8467 -1.7276 -0.1835
  931MOL0     H28458   7.372  10.558   7.341  1.2966 -3.9177  1.5585
  931MOL0     H28459   7.231  10.638   7.515  0.1579  4.1965 -2.6306
  931MOL0     H28460   7.233  10.765   8.018 -1.4290  0.3731  3.0470
  931MOL0     H28461   7.061  10.812   8.164 -0.8648 -0.1210  0.9838
  931MOL0     H28462   6.560  11.040   9.823  2.7718  5.5880  1.5826
  931MOL0     H28463   6.716  10.897   9.960 -0.8652 -0.8851 -1.2909
  931MOL0     H28464   7.111  10.495   9.972  0.0309  0.6337  0.0086
  931MOL0     H28465   7.232  10.419  10.139  0.8661  0.7907 -0.5140
  931MOL0     H28466   7.391  10.696  10.385  0.2239  0.3065  0.5738
  931MOL0     H28467   7.279  10.709  10.513  1.5912  3.0872 -0.8198
  931MOL0     H28468   7.528  10.609  10.577  0.9941 -1.3634  3.5234
  931MOL0     H28469   7.457  10.461  10.510 -0.6813  0.7718 -1.7008
  931MOL0     H28470   7.315  10.634  10.711  1.3192  0.4698  0.1649
  931MOL0     H28471   7.264  10.465  10.667  1.8502 -2.8859 -0.2585
  931MOL0     H28472   7.486  10.396  10.769 -0.6785 -1.2947  0.0114
  931MOL0     H28473   7.365  10.465  10.884  0.9398  0.5153  2.5494
  931MOL0     H28474   7.672  10.749  10.904  2.1244 -1.4104 -1.6985
  931MOL0     H28475   7.109  10.772  10.381  0.5148 -1.0752  1.1270
  931MOL0     H28476   6.918  10.892  10.307 -1.1796  2.9520 -1.1541
  931MOL0     H28477   6.994  10.940  10.163  1.4349 -1.3339  0.5427
  931MOL0     H28478   6.833  10.857  10.162  1.0243 -0.7234 -4.4359
  932MOL0     O28479   0.563   8.742  10.400  0.7420  0.4390 -0.2132
  932MOL0     C28480   0.661   8.801  10.440  0.6970  0.0444  0.0245
  932MOL0     O28481   0.706   8.928  10.388  0.4190 -0.0400  0.0298
  932MOL0     C28482   0.638   8.994  10.287  0.8540 -1.1257 -0.2949
  932MOL0     C28483   0.704   9.052  10.180  0.8095  0.7558 -0.3437
  932MOL0     C28484   0.639   9.144  10.104  0.5832 -0.8407  0.2884
  932MOL0     C28485   0.513   9.185  10.119 -0.0490 -0.4125 -0.5125
  932MOL0     O28486   0.449   9.262  10.024 -0.3963 -0.0395 -0.5658
  932MOL0     C28487   0.313   9.317  10.066 -0.9359  0.2640  0.3133
  932MOL0     C28488   0.270   9.437   9.968 -0.7709  0.0399 -0.0466
  932MOL0     C28489   0.275   9.396   9.822 -0.5534  0.4650  0.2727
  932MOL0     C28490   0.273   9.522   9.742 -0.1174  0.1263 -0.5521
  932MOL0     C28491   0.281   9.484   9.596  0.3432  0.6012 -0.4229
  932MOL0     C28492   0.291   9.610   9.508 -1.0173 -0.1734 -1.0749
  932MOL0     C28493   0.282   9.566   9.361 -0.1776 -0.7658  0.1800
  932MOL0     C28494   0.392   9.468   9.298  1.0050 -0.1851 -0.8118
  932MOL0     N28495   0.359   9.446   9.150 -0.2949  0.9079 -0.6601
  932MOL0     C28496   0.286   9.343   9.104 -0.5173 -0.1802  0.6155
  932MOL0     C28497   0.256   9.384   8.976  0.3353  0.2402  0.0188
  932MOL0     C28498   0.180   9.303   8.869  0.4291 -0.4016 -0.2037
  932MOL0     C28499   0.256   9.301   8.740  0.2539 -0.6111  0.2333
  932MOL0     C28500   0.400   9.243   8.750 -0.0625  0.0311  0.1449
  932MOL0     C28501   0.398   9.083   8.772  1.0334 -0.2641 -0.3073
  932MOL0     O28502   0.307   9.021   8.675  0.4051  0.2874  0.4563
  932MOL0     C28503   0.349   8.977   8.551 -0.3428 -0.8417  0.1367
  932MOL0     C28504   0.490   8.969   8.521 -0.6250 -0.5960 -0.7587
  932MOL0     C28505   0.520   8.922   8.393 -0.0878  0.3259  0.1924
  932MOL0     C28506   0.661   8.928   8.345 -0.2071  0.2300  0.3068
  932MOL0     C28507   0.414   8.868   8.307 -0.0814 -0.0973  0.7306
  932MOL0     C28508   0.426   8.820   8.158 -0.7812 -0.0439 -1.3431
  932MOL0     O28509   0.307   8.818   8.086  0.1593 -0.2481  0.0550
  932MOL0     C28510   0.289   8.749   7.970  0.2122 -0.9088 -0.0149
  932MOL0     C28511   0.366   8.631   7.950 -0.2646  0.5708  0.0808
  932MOL0     C28512   0.352   8.558   7.838  0.6737  0.2523 -0.0546
  932MOL0     C28513   0.273   8.605   7.737  0.4743 -0.6566  0.3491
  932MOL0     O28514   0.252   8.531   7.624 -0.1517  0.2288  0.4742
  932MOL0     C28515   0.350   8.443   7.586  0.2116 -0.1758  0.0192
  932MOL0     C28516   0.321   8.385   7.444  1.0145  0.9588 -0.6022
  932MOL0     C28517   0.271   8.497   7.351  0.5388  1.0350  1.2840
  932MOL0     C28518   0.260   8.474   7.206  0.6172 -0.3310  0.2184
  932MOL0     C28519   0.389   8.491   7.137 -0.6786  0.0192 -0.3341
  932MOL0     C28520   0.356   8.480   6.991  0.3379  0.0422  0.7372
  932MOL0     C28521   0.487   8.475   6.903  0.3972 -0.6107 -0.0783
  932MOL0     C28522   0.470   8.485   6.754 -0.8398  0.6100  0.1932
  932MOL0    Cl28523   0.468   8.312   6.684 -0.0136  0.1216  0.5350
  932MOL0     C28524   0.198   8.728   7.744 -0.3508 -0.0537 -0.5801
  932MOL0     C28525   0.208   8.794   7.871  0.3303  1.2329 -0.2462
  932MOL0     O28526   0.535   8.791   8.119  0.1576 -0.3836 -0.3495
  932MOL0     C28527   0.280   8.863   8.350 -0.7472 -0.0609  1.2509
  932MOL0     C28528   0.245   8.924   8.468  1.2037 -0.1060  0.7316
  932MOL0     N28529   0.315   9.507   8.960 -0.0859 -0.0931 -0.2572
  932MOL0     N28530   0.372   9.549   9.064  0.0637 -0.4457 -0.1188
  932MOL0     C28531   0.439   9.116  10.221  0.4933 -0.2414  0.2173
  932MOL0     C28532   0.511   9.031  10.313  0.3095  0.4540 -0.0804
  932MOL0     C28533   0.747   8.734  10.540 -1.1264  0.3708 -0.3566
  932MOL0     C28534   0.888   8.763  10.529 -0.3352  0.7604  0.8073
  932MOL0     C28535   0.985   8.686  10.599 -0.4107  0.3671  0.2512
  932MOL0     C28536   0.945   8.593  10.685 -0.7629  0.2021  0.1049
  932MOL0     O28537   1.051   8.527  10.736 -0.1382 -0.0041  0.0867
  932MOL0     C28538   1.028   8.406  10.812  0.9058 -1.3152 -0.0336
  932MOL0     C28539   1.004   8.446  10.964  0.0610  0.9385  0.6398
  932MOL0     C28540   1.131   8.464  11.059  1.0502  0.1249  0.3490
  932MOL0     C28541   1.189   8.332  11.105 -0.3995  0.7483 -0.4085
  932MOL0     C28542   1.306   8.368  11.192 -0.2952 -1.1588  0.0148
  932MOL0     C28543   1.410   8.418  11.233  0.8787  0.2195 -1.0100
  932MOL0     C28544   0.810   8.570  10.706 -0.6328 -0.1822 -0.0246
  932MOL0     C28545   0.709   8.628  10.633  0.4237 -0.8930 -0.0815
  932MOL0     C28546   0.570   8.569  10.662 -0.3760 -0.2254  0.5342
  932MOL0     H28547   0.801   9.005  10.169 -1.3514 -4.3691 -0.2730
  932MOL0     H28548   0.694   9.184  10.019 -0.9815  4.7574  1.5106
  932MOL0     H28549   0.321   9.346  10.171  0.3124  1.6537 -0.1303
  932MOL0     H28550   0.227   9.249  10.066 -2.4248  2.0430 -0.3788
  932MOL0     H28551   0.165   9.451   9.993 -0.7711 -2.4673  1.7079
  932MOL0     H28552   0.326   9.530   9.977 -0.0442 -0.3695 -0.1761
  932MOL0     H28553   0.367   9.342   9.799 -0.3866 -0.9043  3.6232
  932MOL0     H28554   0.197   9.325   9.791 -0.3098  0.0367  0.6338
  932MOL0     H28555   0.174   9.566   9.758  0.5348  1.1869  0.7941
  932MOL0     H28556   0.347   9.599   9.766  0.2545  0.3677 -2.3494
  932MOL0     H28557   0.190   9.430   9.568  1.2107 -0.9635 -0.3453
  932MOL0     H28558   0.363   9.413   9.577  0.8418  1.8233 -3.4036
  932MOL0     H28559   0.221   9.693   9.524  1.5622  1.9995 -0.3766
  932MOL0     H28560   0.389   9.654   9.528 -0.8922 -1.1069  0.5905
  932MOL0     H28561   0.281   9.657   9.299  1.9785 -1.1924 -0.5429
  932MOL0     H28562   0.186   9.514   9.352  1.3135 -3.9303  1.1152
  932MOL0     H28563   0.494   9.503   9.312 -0.3537  3.0215  2.6326
  932MOL0     H28564   0.382   9.381   9.364 -0.0110  2.2346  2.5165
  932MOL0     H28565   0.244   9.259   9.159 -0.0349 -2.4110 -2.1835
  932MOL0     H28566   0.088   9.350   8.831 -0.7975 -2.1370  0.4890
  932MOL0     H28567   0.161   9.204   8.911 -1.5266  0.9842  2.5148
  932MOL0     H28568   0.191   9.253   8.666 -1.0668  3.5238 -1.6043
  932MOL0     H28569   0.276   9.405   8.714  2.3175 -0.7983  0.9362
  932MOL0     H28570   0.450   9.264   8.655  2.0415 -2.7748  0.5150
  932MOL0     H28571   0.467   9.284   8.826 -1.3675  1.7694  0.4184
  932MOL0     H28572   0.499   9.041   8.782  2.4239  3.1898  2.4054
  932MOL0     H28573   0.358   9.054   8.869  1.9361 -0.3027  0.0640
  932MOL0     H28574   0.570   9.006   8.583 -3.9141  0.8382  3.0762
  932MOL0     H28575   0.723   8.966   8.427 -3.3329  3.4809  1.4456
  932MOL0     H28576   0.671   9.000   8.263 -2.9776 -1.7809 -2.0320
  932MOL0     H28577   0.707   8.835   8.309  1.0916  1.0976 -0.3718
  932MOL0     H28578   0.417   8.591   8.037 -0.6287 -0.4162 -0.1438
  932MOL0     H28579   0.395   8.459   7.824 -0.3665 -0.1545 -0.4842
  932MOL0     H28580   0.447   8.493   7.582 -0.6020  1.8164  2.7073
  932MOL0     H28581   0.362   8.357   7.652 -0.6772  0.0677  0.5175
  932MOL0     H28582   0.417   8.349   7.406  1.4900  1.5981 -0.0331
  932MOL0     H28583   0.253   8.299   7.441  1.0541  0.8178  1.2567
  932MOL0     H28584   0.332   8.585   7.373 -0.5790  2.0498  0.4378
  932MOL0     H28585   0.166   8.511   7.377 -0.3928 -0.0985 -1.4532
  932MOL0     H28586   0.178   8.536   7.167  3.1908  2.7161 -0.7127
  932MOL0     H28587   0.231   8.369   7.194 -1.8762  0.3690 -0.7116
  932MOL0     H28588   0.432   8.592   7.143 -2.7112  1.0365 -1.6960
  932MOL0     H28589   0.474   8.429   7.168  0.5768  1.5535 -0.5584
  932MOL0     H28590   0.297   8.559   6.945 -1.4492 -1.0262  1.1039
  932MOL0     H28591   0.302   8.386   6.975 -0.4521  0.7215 -0.8066
  932MOL0     H28592   0.550   8.390   6.930  2.5939  0.9898  0.1202
  932MOL0     H28593   0.560   8.554   6.924  0.0993 -0.1585 -0.7350
  932MOL0     H28594   0.553   8.547   6.719  0.0743  1.7007  3.8821
  932MOL0     H28595   0.373   8.530   6.727 -2.3480 -1.5771  1.6375
  932MOL0     H28596   0.144   8.778   7.665  1.2583  1.3626 -0.8542
  932MOL0     H28597   0.159   8.891   7.870  1.2094  2.0904 -6.9192
  932MOL0     H28598   0.200   8.820   8.290 -1.0084 -0.7594  2.0808
  932MOL0     H28599   0.141   8.936   8.497  1.0430  1.3658 -0.3233
  932MOL0     H28600   0.331   9.115  10.220  0.4852  0.5609  0.1062
  932MOL0     H28601   0.455   8.984  10.393  2.1320 -1.8660 -0.0690
  932MOL0     H28602   0.927   8.840  10.463 -0.6981  1.6769  1.6258
  932MOL0     H28603   1.082   8.724  10.567 -0.3074  0.8866  1.1465
  932MOL0     H28604   0.939   8.352  10.777 -0.5910  0.7606  0.3910
  932MOL0     H28605   1.102   8.326  10.804 -2.0756 -4.5383  1.4635
  932MOL0     H28606   0.937   8.377  11.016 -0.4595 -0.7094 -2.0189
  932MOL0     H28607   0.948   8.539  10.959 -0.8305  0.3428 -2.4454
  932MOL0     H28608   1.199   8.521  10.995 -3.0971  2.4092 -2.5827
  932MOL0     H28609   1.098   8.513  11.151 -3.5020  1.7330 -1.8342
  932MOL0     H28610   1.231   8.268  11.028 -0.6741 -0.4531  0.4063
  932MOL0     H28611   1.121   8.269  11.163 -0.6888  0.2185 -1.3049
  932MOL0     H28612   1.504   8.456  11.266 -0.0557  3.1790 -1.4951
  932MOL0     H28613   0.772   8.498  10.778  0.9846  0.9992  2.1633
  932MOL0     H28614   0.546   8.526  10.564  0.1854  3.5010 -1.4170
  932MOL0     H28615   0.568   8.491  10.739 -2.5127  0.6793  1.4869
  932MOL0     H28616   0.495   8.644  10.689  0.2319  0.8779 -0.6911
  933MOL0     O28617  11.574   0.065   6.108 -0.2119 -0.2504  0.0101
  933MOL0     C28618  11.661   0.054   6.025  0.1629 -0.7438 -0.4024
  933MOL0     O28619  11.653   0.087   5.899  0.0117 -0.2844  0.5052
  933MOL0     C28620  11.524   0.082   5.851  0.4154 -0.3134  1.7398
  933MOL0     C28621  11.490   0.193   5.764  0.7633  0.2218 -0.1963
  933MOL0     C28622  11.374   0.197   5.691 -0.1188 -0.1369  0.6019
  933MOL0     C28623  11.272   0.088   5.715  0.0039  0.5423 -0.0748
  933MOL0     O28624  11.141   0.089   5.669  0.6776  0.4280  0.0748
  933MOL0     C28625  11.128   0.179   5.558  0.3441  0.0490  1.1118
  933MOL0     C28626  10.982   0.147   5.499 -0.8082 -0.7982 -0.4196
  933MOL0     C28627  10.945   0.243   5.389  0.3773  0.9710  0.5559
  933MOL0     C28628  11.047   0.255   5.274 -0.5201  0.2004  0.1936
  933MOL0     C28629  10.976   0.245   5.138  0.2310  0.1138  0.6563
  933MOL0     C28630  11.077   0.271   5.017  0.3954  0.8976  0.7586
  933MOL0     C28631  11.031   0.222   4.881 -1.2084  0.8895  0.1021
  933MOL0     C28632  10.901   0.287   4.832 -0.1923  0.2049 -0.8043
  933MOL0     N28633  10.912   0.425   4.780 -0.3419 -0.3731 -0.7810
  933MOL0     C28634  10.958   0.460   4.653 -0.0531  0.1133  0.4456
  933MOL0     C28635  10.938   0.594   4.645 -1.1333  0.0257  0.2848
  933MOL0     C28636  10.976   0.682   4.530 -0.0906 -0.4522  0.0972
  933MOL0     C28637  10.980   0.836   4.556  0.7391 -0.3270  1.0900
  933MOL0     C28638  11.060   0.872   4.677 -0.2832  0.2729  0.5789
  933MOL0     C28639  11.091   1.013   4.668 -0.0792 -0.3750 -0.0423
  933MOL0     O28640  10.980   1.092   4.622 -0.0362  0.6812 -0.9408
  933MOL0     C28641  10.960   1.206   4.707  0.5374  0.1093  0.0127
  933MOL0     C28642  10.878   1.222   4.812  0.5513 -0.3475 -0.2774
  933MOL0     C28643  10.861   1.349   4.874  0.3366  0.5891  0.1950
  933MOL0     C28644  10.767   1.360   4.992  0.2793 -0.3239  0.3240
  933MOL0     C28645  10.943   1.453   4.852  0.2891 -0.8655  0.6071
  933MOL0     C28646  10.961   1.577   4.934 -0.1567 -0.9550 -0.0254
  933MOL0     O28647  11.050   1.665   4.888 -0.5806  0.0147 -0.5583
  933MOL0     C28648  11.059   1.786   4.945 -0.0435 -0.4260 -0.1717
  933MOL0     C28649  11.172   1.828   5.010 -0.1350  0.7087  1.2877
  933MOL0     C28650  11.179   1.952   5.065  0.5005  0.7223  0.2526
  933MOL0     C28651  11.076   2.047   5.058  0.3872  0.4899  0.3720
  933MOL0     O28652  11.089   2.173   5.114  0.2445  0.8345 -0.0310
  933MOL0     C28653  10.981   2.226   5.194  0.8548 -0.4585 -0.1908
  933MOL0     C28654  10.950   2.160   5.324 -0.9556  0.7732 -0.7147
  933MOL0     C28655  10.878   2.247   5.427  0.1881 -0.5261  0.8904
  933MOL0     C28656  10.740   2.269   5.376  0.0829 -0.3508  1.1788
  933MOL0     C28657  10.672   2.370   5.457 -0.1023 -0.8798  0.2798
  933MOL0     C28658  10.539   2.399   5.390 -0.4833 -0.0952 -0.2863
  933MOL0     C28659  10.543   2.471   5.247  1.1193  0.1514 -0.5870
  933MOL0     C28660  10.623   2.600   5.261  0.4703  0.5466  0.1317
  933MOL0    Cl28661  10.550   2.720   5.376  0.2365  0.0463  0.3057
  933MOL0     C28662  10.958   2.005   5.002  0.7384 -0.5773 -0.5198
  933MOL0     C28663  10.948   1.872   4.961 -1.1268  0.0860 -0.3571
  933MOL0     O28664  10.899   1.601   5.036 -0.9508  0.1905 -0.6961
  933MOL0     C28665  11.030   1.439   4.739  0.0091 -0.2316 -0.5709
  933MOL0     C28666  11.029   1.323   4.659  0.0594  0.2893 -0.5551
  933MOL0     N28667  10.883   0.638   4.761 -0.0301 -0.3745 -0.2538
  933MOL0     N28668  10.868   0.530   4.840  0.0472 -1.2594 -0.0421
  933MOL0     C28669  11.310  -0.015   5.802 -0.0917 -0.0683  0.0267
  933MOL0     C28670  11.431  -0.017   5.867  1.0929 -0.8543  0.0617
  933MOL0     C28671  11.793   0.006   6.074 -0.8163 -0.6311 -1.2096
  933MOL0     C28672  11.910   0.022   5.985  0.4106  0.4187 -0.5357
  933MOL0     C28673  12.035  -0.007   6.030 -0.6865  0.1757  0.5471
  933MOL0     C28674  12.066  -0.063   6.152  0.7877 -0.0015  0.4473
  933MOL0     O28675  12.196  -0.088   6.178  0.7389 -0.2565  0.3543
  933MOL0     C28676  12.261  -0.071   6.309 -0.4961 -0.4009  0.5887
  933MOL0     C28677  12.385  -0.167   6.317 -0.5527  0.7240  0.0172
  933MOL0     C28678  12.367  -0.312   6.334 -1.1515  0.3014 -0.0853
  933MOL0     C28679  12.482  -0.383   6.256  0.6340  0.2784  0.9529
  933MOL0     C28680  12.454  -0.528   6.225 -0.7468 -1.1110  0.1417
  933MOL0     C28681  12.477  -0.649   6.211  0.4924 -0.0170 -0.1901
  933MOL0     C28682  11.961  -0.069   6.239  0.0819  0.1751 -0.7271
  933MOL0     C28683  11.825  -0.043   6.206  0.2805 -0.6703 -0.7811
  933MOL0     C28684  11.716  -0.083   6.309  0.6383  0.0205  0.0101
  933MOL0     H28685  11.560   0.276   5.767  0.0414  0.8083  2.5677
  933MOL0     H28686  11.338   0.282   5.634 -0.9382  0.3939  1.8530
  933MOL0     H28687  11.190   0.157   5.471  1.1035  3.0228  0.7728
  933MOL0     H28688  11.138   0.285   5.582 -2.1393  0.9982 -1.4287
  933MOL0     H28689  10.969   0.039   5.480  1.8001 -1.5270  1.4304
  933MOL0     H28690  10.921   0.182   5.582  0.7397 -0.9291  0.8115
  933MOL0     H28691  10.855   0.208   5.337  2.9815  0.6344 -4.3553
  933MOL0     H28692  10.927   0.342   5.431  2.4839  2.6389 -2.1027
  933MOL0     H28693  11.088   0.356   5.281  0.1092  0.2011 -2.4413
  933MOL0     H28694  11.126   0.180   5.268  1.5380  2.3657 -1.9906
  933MOL0     H28695  10.897   0.320   5.143  0.1294 -0.0215  5.4380
  933MOL0     H28696  10.930   0.151   5.105 -0.0533  0.4492  0.0810
  933MOL0     H28697  11.099   0.378   5.024  3.0835  0.3214  2.0138
  933MOL0     H28698  11.179   0.235   5.027  1.2902  1.0150 -4.6133
  933MOL0     H28699  11.027   0.113   4.889  0.0469  0.5440 -2.6037
  933MOL0     H28700  11.109   0.245   4.807  0.1166 -1.8903  0.5174
  933MOL0     H28701  10.884   0.235   4.737 -2.3098  0.2778 -0.5299
  933MOL0     H28702  10.815   0.268   4.898 -0.8589 -2.6646 -2.3252
  933MOL0     H28703  11.003   0.389   4.584  0.3450  1.4085 -0.6995
  933MOL0     H28704  10.888   0.679   4.465  0.1096  3.1359 -0.5582
  933MOL0     H28705  11.072   0.652   4.487  1.1536  1.8946  1.0613
  933MOL0     H28706  11.012   0.882   4.462  0.1416 -1.9535  0.0545
  933MOL0     H28707  10.877   0.868   4.570  1.1223  1.4665  0.1615
  933MOL0     H28708  10.992   0.865   4.762  0.2747  4.2459  1.5623
  933MOL0     H28709  11.147   0.807   4.684 -0.4331  0.1668  1.5328
  933MOL0     H28710  11.139   1.038   4.763 -0.6265 -1.5967  0.5723
  933MOL0     H28711  11.166   1.025   4.589  0.9354  0.3338  0.9945
  933MOL0     H28712  10.826   1.135   4.850  1.7178 -0.0239  2.2859
  933MOL0     H28713  10.806   1.350   5.094 -1.0985  1.1615  1.0328
  933MOL0     H28714  10.693   1.280   4.983 -1.0222  0.8819 -0.0191
  933MOL0     H28715  10.708   1.451   4.981  0.7818 -0.1030 -0.5924
  933MOL0     H28716  11.258   1.762   5.013  0.2241  0.9444 -1.2032
  933MOL0     H28717  11.272   1.980   5.113  1.1168 -0.9161  0.1007
  933MOL0     H28718  11.006   2.328   5.225  1.8176 -0.6765 -0.2196
  933MOL0     H28719  10.891   2.244   5.135 -1.1845  1.4173  3.1569
  933MOL0     H28720  10.892   2.068   5.308 -0.5134  0.4156 -0.2772
  933MOL0     H28721  11.047   2.124   5.360 -0.1421  0.6659 -2.8552
  933MOL0     H28722  10.933   2.341   5.438  0.8424 -0.5131 -1.7586
  933MOL0     H28723  10.879   2.198   5.525  1.5586  0.6450  1.5042
  933MOL0     H28724  10.686   2.174   5.373  0.3121 -0.5522 -3.5623
  933MOL0     H28725  10.741   2.294   5.270  1.0320  2.5334  1.7799
  933MOL0     H28726  10.651   2.334   5.558 -0.5518 -3.6651 -0.7372
  933MOL0     H28727  10.729   2.463   5.469 -1.8316 -0.0549  3.1108
  933MOL0     H28728  10.472   2.462   5.449  0.5612  0.3241  0.4751
  933MOL0     H28729  10.496   2.300   5.371  1.4123 -1.0649  0.2538
  933MOL0     H28730  10.440   2.486   5.213  0.3022  2.2097  2.3741
  933MOL0     H28731  10.587   2.404   5.173  1.3786  0.6940 -0.9276
  933MOL0     H28732  10.645   2.646   5.164  0.9694 -1.6381 -0.8530
  933MOL0     H28733  10.721   2.584   5.307  0.0676 -2.3461  0.1368
  933MOL0     H28734  10.873   2.070   5.017  2.1882  1.4054 -0.5237
  933MOL0     H28735  10.846   1.846   4.936 -1.4114  0.4939  0.3358
  933MOL0     H28736  11.098   1.508   4.691  3.3792 -2.1398  1.1254
  933MOL0     H28737  11.095   1.323   4.572  0.6891 -3.5200 -0.2693
  933MOL0     H28738  11.222  -0.078   5.809  0.6010 -1.0667 -0.0423
  933MOL0     H28739  11.464  -0.101   5.928 -0.7896 -3.1816 -1.9542
  933MOL0     H28740  11.897   0.058   5.883  2.5690  0.0463 -1.0045
  933MOL0     H28741  12.116   0.002   5.959 -1.9232 -0.7466 -1.0562
  933MOL0     H28742  12.296   0.033   6.311  0.4232 -0.6367  4.1018
  933MOL0     H28743  12.196  -0.087   6.396  1.8145  1.0098  2.7012
  933MOL0     H28744  12.446  -0.128   6.399  2.7813 -0.3365 -1.7643
  933MOL0     H28745  12.446  -0.151   6.227  0.9103 -2.8646  0.2159
  933MOL0     H28746  12.361  -0.348   6.437  2.1957 -1.2422 -0.3136
  933MOL0     H28747  12.282  -0.348   6.275  1.5444 -2.4959 -2.6206
  933MOL0     H28748  12.568  -0.372   6.322 -0.6999 -0.9064  2.9998
  933MOL0     H28749  12.507  -0.338   6.159 -0.3798 -1.8229 -0.3744
  933MOL0     H28750  12.487  -0.753   6.185 -1.0978  0.2666 -2.1121
  933MOL0     H28751  11.964  -0.107   6.341 -2.6354  2.0553  0.2091
  933MOL0     H28752  11.641  -0.147   6.262 -0.3293  1.9442 -1.2407
  933MOL0     H28753  11.751  -0.144   6.392 -4.0421 -0.9002  1.5981
  933MOL0     H28754  11.660   0.002   6.349 -1.4927  0.0262 -2.7069
  934MOL0     O28755   1.620   4.298   0.298 -0.0236  0.3527 -0.6582
  934MOL0     C28756   1.589   4.415   0.295  0.1846 -0.0528  0.1899
  934MOL0     O28757   1.484   4.471   0.367 -0.1680  0.7774 -0.1493
  934MOL0     C28758   1.385   4.390   0.411 -1.5275 -0.0870 -0.2914
  934MOL0     C28759   1.262   4.394   0.345  0.1248  0.5919 -0.7539
  934MOL0     C28760   1.153   4.319   0.387  0.0956 -1.1041  0.3593
  934MOL0     C28761   1.173   4.231   0.498  0.5909 -0.6724  0.2338
  934MOL0     O28762   1.085   4.139   0.551  0.4876  0.0277 -0.1301
  934MOL0     C28763   0.959   4.126   0.480  0.3997 -0.9718 -0.7335
  934MOL0     C28764   0.900   3.986   0.516  0.4366 -0.0516 -0.9538
  934MOL0     C28765   0.892   3.957   0.673 -0.3225 -0.3214  0.9197
  934MOL0     C28766   0.835   3.821   0.703 -0.1065 -1.0962  0.6400
  934MOL0     C28767   0.917   3.702   0.655  0.7469  0.7579  0.1883
  934MOL0     C28768   1.066   3.703   0.696 -0.6228  0.5355  0.0849
  934MOL0     C28769   1.101   3.709   0.846  0.2384  0.1896  0.9806
  934MOL0     C28770   1.074   3.569   0.913 -0.1891  1.1040  0.1721
  934MOL0     N28771   1.021   3.575   1.054 -0.6829 -0.5782  0.2011
  934MOL0     C28772   0.899   3.625   1.090  0.4058 -0.3865 -0.9447
  934MOL0     C28773   0.897   3.601   1.221 -0.1222 -0.0194 -0.5174
  934MOL0     C28774   0.778   3.616   1.310  0.7682 -0.1031 -1.3798
  934MOL0     C28775   0.762   3.752   1.391 -0.2106  0.2411  0.1076
  934MOL0     C28776   0.884   3.792   1.471 -0.7074  0.4183 -0.0316
  934MOL0     C28777   0.851   3.902   1.567  0.2986  0.0546  0.5979
  934MOL0     O28778   0.800   4.019   1.505 -0.3146 -0.7326 -0.0153
  934MOL0     C28779   0.887   4.126   1.468 -0.0389  0.6300  0.1472
  934MOL0     C28780   1.028   4.111   1.463  0.5478 -0.3906 -0.6813
  934MOL0     C28781   1.109   4.221   1.448 -0.8165  0.0864 -0.6268
  934MOL0     C28782   1.256   4.185   1.471  0.4597 -0.7419  0.6713
  934MOL0     C28783   1.059   4.348   1.406  0.2065 -0.5206 -0.0281
  934MOL0     C28784   1.141   4.474   1.383  0.2510  0.2261 -0.6831
  934MOL0     O28785   1.072   4.577   1.332 -0.4750 -0.3883 -0.8560
  934MOL0     C28786   1.139   4.702   1.311  0.4577  0.5732 -1.0828
  934MOL0     C28787   1.125   4.806   1.401 -0.6679  0.7155 -0.7790
  934MOL0     C28788   1.204   4.922   1.376  0.1791 -0.1004 -0.7258
  934MOL0     C28789   1.289   4.944   1.266  0.0106  0.3881  0.1245
  934MOL0     O28790   1.340   5.072   1.251 -0.5364  0.8339  0.1719
  934MOL0     C28791   1.424   5.102   1.142 -0.2000 -0.0259  0.5556
  934MOL0     C28792   1.426   5.248   1.110  0.4342  0.4692  0.6607
  934MOL0     C28793   1.479   5.338   1.223 -0.0900  0.0936  0.2314
  934MOL0     C28794   1.448   5.483   1.190  0.3677 -0.3406  0.0201
  934MOL0     C28795   1.453   5.567   1.314 -0.5656 -1.4072 -0.5229
  934MOL0     C28796   1.478   5.714   1.284 -0.1417  0.5110 -0.6907
  934MOL0     C28797   1.483   5.794   1.419 -0.0341  0.0118  0.5870
  934MOL0     C28798   1.486   5.945   1.405 -0.5703 -0.6496  0.3433
  934MOL0    Cl28799   1.470   6.042   1.560 -0.0159 -0.0403  0.4519
  934MOL0     C28800   1.292   4.834   1.179  0.3562  0.3845 -0.9006
  934MOL0     C28801   1.230   4.714   1.206 -0.5556 -0.0523  0.4032
  934MOL0     O28802   1.259   4.477   1.416  0.1108 -0.2899  0.7818
  934MOL0     C28803   0.918   4.349   1.396  0.0277 -0.5301  0.0820
  934MOL0     C28804   0.831   4.242   1.425 -0.3772 -0.0408 -0.3841
  934MOL0     N28805   1.011   3.557   1.275 -0.4226  0.1150  0.5519
  934MOL0     N28806   1.092   3.543   1.166 -0.1131 -0.0735 -0.0431
  934MOL0     C28807   1.293   4.241   0.568 -0.7443  0.4594 -0.1836
  934MOL0     C28808   1.403   4.312   0.526 -0.0434 -0.1240  0.8152
  934MOL0     C28809   1.681   4.506   0.215  0.2505  0.8077  0.0921
  934MOL0     C28810   1.790   4.447   0.143  0.9903  0.3562  0.2263
  934MOL0     C28811   1.869   4.521   0.061  0.0157 -0.6612 -0.2513
  934MOL0     C28812   1.852   4.656   0.046 -0.2839  0.3251 -0.5152
  934MOL0     O28813   1.932   4.737  -0.029 -0.5599 -0.8112 -0.4588
  934MOL0     C28814   1.975   4.680  -0.153  0.0951  0.9492 -0.3986
  934MOL0     C28815   2.010   4.780  -0.264 -0.4984  0.5752  0.0067
  934MOL0     C28816   1.915   4.897  -0.286  0.0893 -0.8953 -0.5561
  934MOL0     C28817   1.957   4.973  -0.414  0.3558  0.1445 -0.0419
  934MOL0     C28818   2.068   5.064  -0.388 -0.1497  0.0288  0.1602
  934MOL0     C28819   2.153   5.142  -0.356  0.0365 -0.2495 -0.4244
  934MOL0     C28820   1.757   4.712   0.131 -0.0634  0.3510  0.7921
  934MOL0     C28821   1.676   4.649   0.214 -0.8309  0.5783  0.4262
  934MOL0     C28822   1.585   4.728   0.299 -0.3547 -0.1190  0.5523
  934MOL0     H28823   1.242   4.461   0.262  0.1142 -0.5986 -1.7359
  934MOL0     H28824   1.064   4.317   0.325 -0.1715  1.9311  0.5169
  934MOL0     H28825   0.969   4.129   0.371  1.6015  1.5016 -0.6437
  934MOL0     H28826   0.891   4.207   0.507  2.0203  1.0040 -2.2299
  934MOL0     H28827   0.796   3.975   0.483 -0.9824  0.6331  2.7421
  934MOL0     H28828   0.955   3.907   0.464 -2.1913 -3.3021  0.8152
  934MOL0     H28829   0.993   3.950   0.713 -0.7083 -4.1761  1.6598
  934MOL0     H28830   0.842   4.037   0.728 -2.7701 -0.5108 -0.8434
  934MOL0     H28831   0.834   3.804   0.811  1.7977 -0.1985  0.8432
  934MOL0     H28832   0.737   3.817   0.656  0.5448  1.5587 -1.1823
  934MOL0     H28833   0.906   3.686   0.547 -2.5916  1.2737  0.3617
  934MOL0     H28834   0.877   3.607   0.693 -1.5857  2.5817  2.6887
  934MOL0     H28835   1.115   3.614   0.655 -1.1747 -0.2789  1.1382
  934MOL0     H28836   1.104   3.794   0.649 -1.6202 -0.0733 -2.0559
  934MOL0     H28837   1.057   3.794   0.900  0.0828 -0.2811  1.5988
  934MOL0     H28838   1.209   3.730   0.849  0.3289 -0.0390 -0.2720
  934MOL0     H28839   1.004   3.505   0.858  2.8495 -4.0255  1.5684
  934MOL0     H28840   1.167   3.512   0.915 -0.8926 -0.3462 -2.7112
  934MOL0     H28841   0.817   3.670   1.035  1.9662  1.0505 -2.2355
  934MOL0     H28842   0.781   3.529   1.376  0.0902  1.1472  0.3773
  934MOL0     H28843   0.689   3.607   1.246  0.1898  0.0009 -0.5994
  934MOL0     H28844   0.751   3.825   1.310  0.8625  0.2552 -0.0323
  934MOL0     H28845   0.675   3.746   1.457 -0.1195  0.5570  0.2564
  934MOL0     H28846   0.932   3.707   1.520 -0.5141  0.4033 -0.2479
  934MOL0     H28847   0.963   3.827   1.404 -0.2474  2.0242  1.2826
  934MOL0     H28848   0.783   3.866   1.645 -0.2029 -0.0166  0.1337
  934MOL0     H28849   0.944   3.937   1.614  2.4386  1.4183 -4.0559
  934MOL0     H28850   1.073   4.014   1.480  1.6741 -0.6308 -4.3285
  934MOL0     H28851   1.272   4.077   1.478  1.5793 -0.7055 -0.9172
  934MOL0     H28852   1.304   4.226   1.560  0.2507  2.8347 -0.6970
  934MOL0     H28853   1.321   4.225   1.394  1.9127  1.1837  2.7785
  934MOL0     H28854   1.056   4.798   1.484 -0.4120 -0.9380 -0.7025
  934MOL0     H28855   1.181   5.006   1.441 -4.5254 -0.0963 -2.0572
  934MOL0     H28856   1.521   5.071   1.182 -0.0687  0.3133  0.5113
  934MOL0     H28857   1.397   5.046   1.053 -0.3539  2.0313 -0.7668
  934MOL0     H28858   1.491   5.271   1.025 -0.3672  1.9214  0.3993
  934MOL0     H28859   1.325   5.272   1.074  0.9737  0.4647 -0.9202
  934MOL0     H28860   1.582   5.313   1.248  0.1346 -1.6063 -2.0336
  934MOL0     H28861   1.419   5.297   1.305  0.1109 -1.8554 -0.5375
  934MOL0     H28862   1.353   5.488   1.135  1.4813  4.1664 -1.9691
  934MOL0     H28863   1.530   5.508   1.122 -0.3297  1.6583 -0.1618
  934MOL0     H28864   1.355   5.561   1.364 -1.8608  3.4109 -1.9233
  934MOL0     H28865   1.532   5.526   1.377 -0.6294  0.3579  0.8026
  934MOL0     H28866   1.396   5.751   1.222  0.3464  2.1504 -0.4108
  934MOL0     H28867   1.577   5.719   1.236  0.1856  0.1481 -0.0664
  934MOL0     H28868   1.568   5.766   1.481  0.1027  0.8420  0.7841
  934MOL0     H28869   1.393   5.766   1.475  0.8891  0.8565  2.5851
  934MOL0     H28870   1.407   5.983   1.339  0.0406 -2.5580 -1.5804
  934MOL0     H28871   1.577   5.984   1.358 -0.0148 -0.7212  1.3293
  934MOL0     H28872   1.339   4.836   1.081 -0.0764 -0.9537 -1.1496
  934MOL0     H28873   1.228   4.632   1.135 -0.6150 -0.5550  0.9705
  934MOL0     H28874   0.866   4.437   1.360 -0.9494 -0.2813  1.9525
  934MOL0     H28875   0.726   4.267   1.430 -0.4246  0.1295 -1.7100
  934MOL0     H28876   1.303   4.158   0.638  0.4620 -0.1404 -1.0223
  934MOL0     H28877   1.505   4.303   0.562  0.6135 -1.1915 -1.1845
  934MOL0     H28878   1.814   4.341   0.145  4.2952  0.9937  1.5238
  934MOL0     H28879   1.947   4.479  -0.003 -0.9200 -0.3270 -1.6539
  934MOL0     H28880   2.059   4.614  -0.129 -1.6583 -1.1308  0.3953
  934MOL0     H28881   1.888   4.626  -0.194  2.1211  0.7334 -5.0387
  934MOL0     H28882   2.016   4.710  -0.348  1.0540  0.8264 -0.1226
  934MOL0     H28883   2.111   4.810  -0.236  0.9687 -4.4770  1.1764
  934MOL0     H28884   1.816   4.855  -0.305  1.5913 -4.3685 -1.5626
  934MOL0     H28885   1.918   4.961  -0.198 -0.3647 -0.2911 -0.9766
  934MOL0     H28886   1.866   5.018  -0.454 -0.7040 -2.4528 -0.7119
  934MOL0     H28887   2.000   4.900  -0.482  3.9163  1.4551  0.5766
  934MOL0     H28888   2.236   5.205  -0.332 -1.2420  0.8822  1.2167
  934MOL0     H28889   1.788   4.816   0.141  4.9845 -0.8201  0.1965
  934MOL0     H28890   1.590   4.694   0.403 -1.4244 -1.3251  0.2305
  934MOL0     H28891   1.605   4.836   0.295  1.8250 -0.3336  3.0488
  934MOL0     H28892   1.480   4.713   0.272 -0.3310 -1.8548  1.3021
  935MOL0     O28893   7.396  11.348   8.954 -0.2725 -1.1228 -0.3061
  935MOL0     C28894   7.392  11.247   8.888 -0.1975  0.1836  0.0010
  935MOL0     O28895   7.393  11.234   8.750  0.4318  0.1034  0.0379
  935MOL0     C28896   7.391  11.343   8.672  0.1190 -0.8929  0.4650
  935MOL0     C28897   7.478  11.357   8.563  0.0881  0.0241  0.9514
  935MOL0     C28898   7.475  11.472   8.482  0.2530  0.4453 -0.1375
  935MOL0     C28899   7.389  11.580   8.512 -0.6036  0.3963 -0.7082
  935MOL0     O28900   7.372  11.681   8.422  0.4600  0.2765  0.6225
  935MOL0     C28901   7.491  11.744   8.384  0.2257  0.1113  0.1858
  935MOL0     C28902   7.467  11.880   8.334 -0.1136 -0.4711 -0.2183
  935MOL0     C28903   7.406  11.975   8.443  0.6601  0.9431  0.8411
  935MOL0     C28904   7.330  12.092   8.379 -0.4549  0.8056  0.9813
  935MOL0     C28905   7.259  12.168   8.486 -0.9585 -0.3763  0.2761
  935MOL0     C28906   7.151  12.092   8.566  0.0592 -0.0646 -1.3372
  935MOL0     C28907   7.083  12.179   8.679 -0.2966  0.0368 -0.0395
  935MOL0     C28908   7.007  12.099   8.778  0.2269 -0.0869 -0.9955
  935MOL0     N28909   7.090  11.992   8.833  0.4125  1.0739  0.5784
  935MOL0     C28910   7.210  12.005   8.905  0.2206  0.0975 -0.9047
  935MOL0     C28911   7.253  11.880   8.923 -0.5077  0.3290  0.0591
  935MOL0     C28912   7.372  11.829   8.995 -0.3760  0.2401 -0.6771
  935MOL0     C28913   7.464  11.721   8.930  0.0866 -0.5512  0.4913
  935MOL0     C28914   7.539  11.769   8.802  0.3357 -0.1896 -0.6942
  935MOL0     C28915   7.662  11.688   8.761 -0.0116  0.7126  0.0153
  935MOL0     O28916   7.730  11.749   8.654 -0.8713 -0.5245  0.1665
  935MOL0     C28917   7.841  11.679   8.609 -0.5005 -1.0219  0.0254
  935MOL0     C28918   7.912  11.719   8.494  0.5526 -0.1532  0.0193
  935MOL0     C28919   8.015  11.651   8.427  0.6134  0.0010 -0.0622
  935MOL0     C28920   8.059  11.714   8.294 -0.8216  0.9852  0.3777
  935MOL0     C28921   8.050  11.526   8.481 -1.0757 -0.0653  0.4077
  935MOL0     C28922   8.159  11.442   8.428 -0.1728  0.1600  0.6732
  935MOL0     O28923   8.129  11.306   8.430 -0.4690  0.1535 -0.4429
  935MOL0     C28924   8.221  11.205   8.413 -0.5308  0.6848 -0.6704
  935MOL0     C28925   8.332  11.218   8.319 -0.6331 -1.1675  0.4363
  935MOL0     C28926   8.422  11.117   8.305 -0.1161  0.2252  0.2883
  935MOL0     C28927   8.416  10.998   8.379  0.2334  0.3247  0.6049
  935MOL0     O28928   8.518  10.906   8.367 -0.1934 -0.0498  1.0644
  935MOL0     C28929   8.655  10.939   8.346 -0.2985 -0.1684  1.3019
  935MOL0     C28930   8.741  10.945   8.475  0.5749 -0.6137 -1.3890
  935MOL0     C28931   8.869  11.027   8.468  0.3734 -0.5398 -0.4189
  935MOL0     C28932   8.832  11.170   8.424  0.1779 -0.2124 -1.2341
  935MOL0     C28933   8.928  11.276   8.482 -0.1656 -0.3073 -0.1839
  935MOL0     C28934   8.890  11.423   8.436  0.0104  0.4537  0.4580
  935MOL0     C28935   8.990  11.517   8.506  0.4279 -0.5345  0.7916
  935MOL0     C28936   8.972  11.664   8.461 -0.0202 -0.1051  0.4567
  935MOL0    Cl28937   8.801  11.731   8.470  0.4618 -0.3277 -0.5087
  935MOL0     C28938   8.305  10.980   8.460 -0.7113  0.4510  0.1678
  935MOL0     C28939   8.203  11.075   8.480 -0.5567  0.2986  0.5976
  935MOL0     O28940   8.263  11.489   8.402 -0.5335  0.3281 -0.1067
  935MOL0     C28941   7.991  11.489   8.603  0.6576 -0.5788 -0.0828
  935MOL0     C28942   7.887  11.563   8.662 -0.3665  0.9916 -0.1608
  935MOL0     N28943   7.168  11.791   8.863 -0.6841 -1.0422  0.3960
  935MOL0     N28944   7.069  11.857   8.804 -0.7118  0.4136 -0.0516
  935MOL0     C28945   7.298  11.560   8.614 -0.1895 -0.2553  0.7905
  935MOL0     C28946   7.298  11.450   8.698  0.5744  1.2976  1.1308
  935MOL0     C28947   7.384  11.128   8.970 -0.6777  0.9587  1.5009
  935MOL0     C28948   7.314  11.128   9.091  0.4487  0.5129  0.6549
  935MOL0     C28949   7.308  11.015   9.169  0.2925 -0.8110 -0.4397
  935MOL0     C28950   7.361  10.896   9.135  0.6189  0.5879  0.4021
  935MOL0     O28951   7.342  10.780   9.218  0.1013 -0.6800 -0.2511
  935MOL0     C28952   7.402  10.654   9.204 -0.6324  0.2238  0.3742
  935MOL0     C28953   7.503  10.638   9.310 -1.2606  0.0294  0.6541
  935MOL0     C28954   7.641  10.703   9.277 -0.2828  1.3282  0.6827
  935MOL0     C28955   7.728  10.732   9.404 -0.8121  0.5613  0.6152
  935MOL0     C28956   7.806  10.612   9.439  0.4143  1.0876  0.0021
  935MOL0     C28957   7.874  10.510   9.463 -0.0434  0.8648 -0.1161
  935MOL0     C28958   7.449  10.895   9.023  0.6622  0.3509  0.3582
  935MOL0     C28959   7.462  11.007   8.935  0.0461 -0.2782  0.1437
  935MOL0     C28960   7.552  10.988   8.822 -0.1008  0.0061  0.8423
  935MOL0     H28961   7.540  11.269   8.551 -0.5865 -0.5679  1.7541
  935MOL0     H28962   7.532  11.469   8.390 -0.7853 -0.6071 -0.7750
  935MOL0     H28963   7.543  11.684   8.308 -1.9464  0.1318 -1.4294
  935MOL0     H28964   7.563  11.741   8.465  1.1008  0.9738 -0.5379
  935MOL0     H28965   7.556  11.931   8.296 -0.8461  1.0640  0.0732
  935MOL0     H28966   7.393  11.884   8.254 -1.1674  0.7017  0.7699
  935MOL0     H28967   7.335  11.906   8.491  0.8758 -1.8088 -2.4390
  935MOL0     H28968   7.486  11.982   8.518  2.1588  0.3654 -0.6430
  935MOL0     H28969   7.399  12.151   8.317 -1.3104  0.5148 -0.2723
  935MOL0     H28970   7.258  12.051   8.308  0.4882  0.4510  0.2099
  935MOL0     H28971   7.203  12.250   8.440 -0.6019  0.0417  0.5784
  935MOL0     H28972   7.333  12.213   8.552  0.7415  0.9336 -2.3211
  935MOL0     H28973   7.075  12.051   8.499 -0.0158 -1.9763 -0.1455
  935MOL0     H28974   7.198  12.001   8.605 -1.9147 -0.6443 -0.2285
  935MOL0     H28975   7.016  12.249   8.628  0.3350  0.1919 -0.6727
  935MOL0     H28976   7.171  12.227   8.723 -0.2866 -0.9925  1.1280
  935MOL0     H28977   6.961  12.159   8.856  0.7017  0.1292 -0.8753
  935MOL0     H28978   6.931  12.046   8.720  1.8655 -2.8074 -0.8390
  935MOL0     H28979   7.244  12.101   8.943  0.2049 -0.8658  1.7734
  935MOL0     H28980   7.341  11.789   9.092  2.7950 -1.6057 -0.2792
  935MOL0     H28981   7.438  11.913   9.017  1.0876 -1.0096 -0.1423
  935MOL0     H28982   7.539  11.683   9.000  2.0629  0.5126 -0.9497
  935MOL0     H28983   7.397  11.638   8.906 -2.8208  1.9501 -0.8034
  935MOL0     H28984   7.457  11.758   8.731  0.2976  0.7582 -0.8216
  935MOL0     H28985   7.555  11.878   8.804  0.5791 -0.2321 -0.0865
  935MOL0     H28986   7.733  11.668   8.842  0.2944  0.1358 -0.3818
  935MOL0     H28987   7.626  11.592   8.723  1.3637  0.0765  0.2758
  935MOL0     H28988   7.870  11.808   8.447 -1.1683 -0.1919  1.3928
  935MOL0     H28989   8.068  11.628   8.227  0.4357 -0.0139  1.7737
  935MOL0     H28990   8.158  11.759   8.298  0.0850 -0.9358  0.4666
  935MOL0     H28991   7.984  11.779   8.246 -0.1994  0.8352 -0.8412
  935MOL0     H28992   8.349  11.307   8.258 -1.3283 -1.3902 -0.0923
  935MOL0     H28993   8.504  11.137   8.237  0.0455 -2.1223 -0.3097
  935MOL0     H28994   8.695  10.850   8.296  0.4968  0.9508 -0.0938
  935MOL0     H28995   8.677  11.028   8.288  1.0600 -2.1984 -1.5386
  935MOL0     H28996   8.676  10.999   8.545 -0.1804  0.1888 -2.6788
  935MOL0     H28997   8.757  10.844   8.514 -4.2014 -1.8487 -1.9901
  935MOL0     H28998   8.941  10.999   8.391 -2.6300 -0.4801 -3.4974
  935MOL0     H28999   8.918  11.021   8.566 -0.8655  0.0676  0.2654
  935MOL0     H29000   8.732  11.204   8.451 -0.7005 -1.1989 -3.0744
  935MOL0     H29001   8.840  11.171   8.315 -0.0330 -2.1674 -1.3007
  935MOL0     H29002   8.925  11.269   8.591 -2.7852  1.7741 -0.0083
  935MOL0     H29003   9.029  11.260   8.444  0.7431  3.2791  0.3845
  935MOL0     H29004   8.792  11.444   8.480  0.8686 -0.1917  2.8247
  935MOL0     H29005   8.890  11.422   8.327  0.8612 -1.6754  0.4168
  935MOL0     H29006   9.085  11.485   8.463  0.4762  2.3258 -1.5730
  935MOL0     H29007   8.981  11.510   8.614 -0.5196  0.3470  0.7963
  935MOL0     H29008   9.002  11.659   8.356  1.5140 -2.2705  0.9263
  935MOL0     H29009   9.038  11.728   8.519  2.9710 -1.2429 -1.4155
  935MOL0     H29010   8.300  10.894   8.526  0.1441  0.6308  0.4809
  935MOL0     H29011   8.115  11.047   8.536 -1.6596  4.1999  1.0793
  935MOL0     H29012   8.020  11.396   8.651 -1.4989 -1.6710 -0.7670
  935MOL0     H29013   7.849  11.524   8.756 -1.1784 -3.3729 -2.0485
  935MOL0     H29014   7.230  11.643   8.629 -1.2584 -1.0902  0.7403
  935MOL0     H29015   7.225  11.442   8.778 -0.7195  3.2468  0.2311
  935MOL0     H29016   7.257  11.216   9.120  3.0185  2.9783 -1.1374
  935MOL0     H29017   7.249  11.016   9.260 -0.3378 -1.4165 -0.8352
  935MOL0     H29018   7.318  10.589   9.228 -0.2224  0.1716  1.7390
  935MOL0     H29019   7.435  10.624   9.104 -0.6107 -0.3027  0.5390
  935MOL0     H29020   7.522  10.531   9.321  1.0546  0.4761  1.4965
  935MOL0     H29021   7.466  10.679   9.405 -1.1038  0.7601  0.4065
  935MOL0     H29022   7.695  10.629   9.216  2.2134  2.7639  1.0281
  935MOL0     H29023   7.627  10.791   9.214 -2.7787 -0.5143 -1.5806
  935MOL0     H29024   7.665  10.764   9.488  0.3907 -0.8216  2.1251
  935MOL0     H29025   7.791  10.820   9.388  0.6765 -0.8568 -1.8689
  935MOL0     H29026   7.926  10.417   9.476 -0.7514  0.3117 -1.1114
  935MOL0     H29027   7.506  10.807   8.994  3.5187  2.2619 -0.1807
  935MOL0     H29028   7.486  10.935   8.753  0.1428 -0.3646  0.8923
  935MOL0     H29029   7.603  11.079   8.789 -1.6092  0.1517 -1.3250
  935MOL0     H29030   7.623  10.908   8.844 -0.9621  0.0515  4.3843
  936MOL0     O29031   7.528  10.900   2.722 -0.0102 -0.9121 -0.1752
  936MOL0     C29032   7.647  10.933   2.724 -0.6840 -0.2861 -0.5448
  936MOL0     O29033   7.751  10.839   2.731 -0.7398  0.1790 -0.5273
  936MOL0     C29034   7.728  10.703   2.731  0.3200  0.3526 -0.9707
  936MOL0     C29035   7.748  10.624   2.615 -0.6033  0.3303 -0.0461
  936MOL0     C29036   7.736  10.483   2.613 -0.6375 -0.4317 -0.3645
  936MOL0     C29037   7.697  10.424   2.735  0.5475  0.4505  0.4072
  936MOL0     O29038   7.706  10.289   2.756  0.8745 -0.6100  0.4784
  936MOL0     C29039   7.821  10.211   2.720  0.4061 -0.9405 -0.3747
  936MOL0     C29040   7.954  10.265   2.772  0.9175 -0.5202 -0.6038
  936MOL0     C29041   8.061  10.163   2.818  0.5799 -0.3570  0.1627
  936MOL0     C29042   8.029  10.074   2.937 -0.2737 -0.4161  0.0426
  936MOL0     C29043   8.153   9.990   2.981  0.2171  0.0405  0.1447
  936MOL0     C29044   8.170   9.974   3.125  0.2745  0.2426 -0.9536
  936MOL0     C29045   8.073   9.861   3.184  1.0185  0.8225  0.6454
  936MOL0     C29046   8.055   9.855   3.337  0.6250  0.6470  0.6914
  936MOL0     N29047   7.973   9.741   3.378 -0.4586 -0.0171  0.1397
  936MOL0     C29048   7.842   9.727   3.345 -0.9939 -0.1389  0.3255
  936MOL0     C29049   7.806   9.609   3.410  0.1051  0.0432  0.3390
  936MOL0     C29050   7.670   9.546   3.402  1.0655 -0.2955 -0.5315
  936MOL0     C29051   7.551   9.639   3.445  0.4774  0.6515  0.5903
  936MOL0     C29052   7.412   9.576   3.401 -0.7762 -0.8065 -0.1411
  936MOL0     C29053   7.385   9.581   3.253 -0.0724 -0.3668  0.6445
  936MOL0     O29054   7.257   9.525   3.216 -0.1938  0.0761 -0.4226
  936MOL0     C29055   7.210   9.542   3.090  0.0636  0.4603 -0.9953
  936MOL0     C29056   7.077   9.520   3.078  0.1994 -0.7076 -0.3010
  936MOL0     C29057   7.004   9.544   2.966 -0.0594 -0.1831  1.4877
  936MOL0     C29058   6.853   9.557   2.973  0.7442  0.2428  0.0390
  936MOL0     C29059   7.084   9.569   2.846 -1.1810  0.3469 -0.1366
  936MOL0     C29060   7.019   9.560   2.708  1.0552  0.1358  0.3426
  936MOL0     O29061   7.060   9.647   2.615 -1.3344  0.2922 -0.0609
  936MOL0     C29062   7.020   9.655   2.487 -1.1104 -0.2673 -0.7163
  936MOL0     C29063   6.938   9.563   2.416  0.0084  0.1238 -0.7632
  936MOL0     C29064   6.920   9.590   2.285 -0.0610 -0.7123  0.6362
  936MOL0     C29065   6.975   9.700   2.219  0.3547  0.9818 -0.7060
  936MOL0     O29066   6.934   9.713   2.087  0.2423 -0.4593  0.3320
  936MOL0     C29067   6.940   9.848   2.031  0.4558  0.8306 -0.4019
  936MOL0     C29068   6.868   9.875   1.895  0.0477 -0.2748 -1.1878
  936MOL0     C29069   6.968   9.876   1.781  0.7867  0.3961 -0.0455
  936MOL0     C29070   6.899   9.930   1.654 -0.2031 -0.1610  0.5149
  936MOL0     C29071   6.963   9.878   1.518  0.5431 -0.1972  0.5706
  936MOL0     C29072   6.873   9.886   1.389 -0.3342  0.9584 -0.0458
  936MOL0     C29073   6.932   9.780   1.286  0.2211 -1.2070  0.8588
  936MOL0     C29074   7.008   9.856   1.177 -0.4272 -0.4940  0.4840
  936MOL0    Cl29075   7.175   9.912   1.234 -0.3114  0.0929  0.4002
  936MOL0     C29076   7.055   9.791   2.286  0.3007 -0.0701 -0.5091
  936MOL0     C29077   7.063   9.774   2.423 -0.1415  0.2737  0.6285
  936MOL0     O29078   6.938   9.478   2.682  0.7739 -0.6569 -0.0760
  936MOL0     C29079   7.219   9.604   2.858 -0.3116  0.6117 -0.2635
  936MOL0     C29080   7.285   9.598   2.984 -0.3048  0.6791  0.6003
  936MOL0     N29081   7.922   9.552   3.460 -0.5554 -0.3369  0.2876
  936MOL0     N29082   8.015   9.631   3.440 -1.1683 -0.0600 -0.7513
  936MOL0     C29083   7.667  10.501   2.843 -0.5384  0.3509  0.4223
  936MOL0     C29084   7.697  10.641   2.843 -0.4642  0.1707 -0.6386
  936MOL0     C29085   7.682  11.076   2.717 -0.6188  0.1427  0.1221
  936MOL0     C29086   7.799  11.120   2.775  0.7840  0.4578  1.3386
  936MOL0     C29087   7.834  11.248   2.770  0.9354  0.2331  0.0021
  936MOL0     C29088   7.765  11.348   2.694 -0.7116  0.8849  0.3694
  936MOL0     O29089   7.829  11.455   2.662 -1.3143 -0.2602 -0.3375
  936MOL0     C29090   7.754  11.578   2.673  0.1869 -0.1331  0.1808
  936MOL0     C29091   7.843  11.700   2.647 -0.7914  0.4227  0.8174
  936MOL0     C29092   7.877  11.716   2.495 -1.0148 -0.6187  0.0167
  936MOL0     C29093   7.765  11.788   2.411  0.3518  0.5099 -0.4904
  936MOL0     C29094   7.763  11.933   2.415 -0.2268  0.0614  0.0874
  936MOL0     C29095   7.789  12.050   2.414  1.3986  0.7127  0.1942
  936MOL0     C29096   7.642  11.315   2.635  0.4296  0.3947  0.3384
  936MOL0     C29097   7.606  11.179   2.641  0.3581  2.0657 -0.3975
  936MOL0     C29098   7.492  11.147   2.547  0.5198  0.2505 -0.5285
  936MOL0     H29099   7.767  10.683   2.526  0.8533 -0.0103  0.0149
  936MOL0     H29100   7.779  10.426   2.531 -0.7418  0.7991 -1.3012
  936MOL0     H29101   7.834  10.206   2.612 -0.9224  0.2668 -0.6271
  936MOL0     H29102   7.814  10.111   2.764  0.1356 -1.2097 -1.0233
  936MOL0     H29103   7.987  10.335   2.695  3.7443 -1.9425 -0.8386
  936MOL0     H29104   7.932  10.327   2.859  2.1359  3.5922 -2.9487
  936MOL0     H29105   8.083  10.097   2.733  0.8106  2.4023 -2.0353
  936MOL0     H29106   8.148  10.222   2.848 -1.6139  2.1217  2.1350
  936MOL0     H29107   8.008  10.150   3.012  0.9280  0.1695 -0.2035
  936MOL0     H29108   7.947  10.009   2.902  1.5255 -0.9668 -3.6924
  936MOL0     H29109   8.244  10.038   2.944  0.5685 -0.5442  0.2308
  936MOL0     H29110   8.155   9.892   2.934  0.2875  0.4944 -0.8065
  936MOL0     H29111   8.275   9.954   3.150  0.6864  1.4455 -1.6472
  936MOL0     H29112   8.129  10.060   3.180 -2.6056 -0.4143 -1.8935
  936MOL0     H29113   8.104   9.763   3.148 -3.6709 -1.0891  1.0883
  936MOL0     H29114   7.973   9.885   3.145  0.1812  1.5425  3.0106
  936MOL0     H29115   8.147   9.841   3.394  0.8928  0.6642  0.2717
  936MOL0     H29116   8.011   9.951   3.364 -1.0467 -0.2485  1.2634
  936MOL0     H29117   7.775   9.795   3.293  2.2096  1.4205 -2.1326
  936MOL0     H29118   7.669   9.456   3.465  2.6753 -1.3907 -1.9694
  936MOL0     H29119   7.651   9.514   3.299  1.4392 -1.9066 -0.1329
  936MOL0     H29120   7.547   9.642   3.554  0.3825 -1.4131  0.6802
  936MOL0     H29121   7.565   9.741   3.408 -4.2881  0.3848 -2.8744
  936MOL0     H29122   7.396   9.475   3.440 -2.5594  0.2821  2.2413
  936MOL0     H29123   7.335   9.635   3.453 -2.9058 -1.1848 -2.6699
  936MOL0     H29124   7.397   9.685   3.222 -0.6926  0.0751  1.8121
  936MOL0     H29125   7.460   9.519   3.204  0.1145  0.6937 -0.4496
  936MOL0     H29126   7.025   9.486   3.167  1.3394  1.2655  1.2062
  936MOL0     H29127   6.836   9.613   3.065 -0.8853 -0.7448  0.3862
  936MOL0     H29128   6.804   9.459   2.964  2.0740 -0.5653  1.2140
  936MOL0     H29129   6.813   9.621   2.894  0.4246  1.3290  1.0488
  936MOL0     H29130   6.903   9.472   2.465  1.9493 -0.9699 -1.2782
  936MOL0     H29131   6.851   9.530   2.226 -1.2914  0.4764  0.8024
  936MOL0     H29132   6.908   9.914   2.111  0.4945 -3.6766  3.7790
  936MOL0     H29133   7.045   9.878   2.020  1.7336 -1.4974  3.4310
  936MOL0     H29134   6.793   9.797   1.882  1.6353 -2.0243 -0.3423
  936MOL0     H29135   6.813   9.970   1.900 -0.2554 -0.4977  1.9982
  936MOL0     H29136   7.008   9.775   1.765 -0.0218  0.0930 -0.2279
  936MOL0     H29137   7.056   9.940   1.794  0.7575  1.1286 -2.8163
  936MOL0     H29138   6.879  10.038   1.657 -3.3015 -0.6729  2.0094
  936MOL0     H29139   6.800   9.884   1.653  0.1036 -0.8208 -0.8854
  936MOL0     H29140   7.061   9.926   1.507  0.1546  0.2998 -0.8870
  936MOL0     H29141   6.989   9.773   1.531 -0.1197 -0.3197  0.9647
  936MOL0     H29142   6.875   9.991   1.359  1.3821  2.1994  3.8782
  936MOL0     H29143   6.772   9.857   1.419  0.8435 -2.0417  1.4587
  936MOL0     H29144   6.843   9.727   1.250 -1.1646  1.4255  0.0900
  936MOL0     H29145   7.004   9.716   1.336 -0.8750 -1.4583  2.1786
  936MOL0     H29146   6.945   9.941   1.153 -0.7461 -0.9215 -0.2326
  936MOL0     H29147   7.008   9.808   1.079 -2.9789  0.6503 -0.1479
  936MOL0     H29148   7.102   9.873   2.232  1.7705 -0.3219  0.3468
  936MOL0     H29149   7.109   9.846   2.490 -2.1298  1.1162  1.1419
  936MOL0     H29150   7.283   9.630   2.774  0.6067  0.6140  0.4159
  936MOL0     H29151   7.389   9.622   3.001  0.7475 -0.2779 -3.5710
  936MOL0     H29152   7.633  10.452   2.933 -2.1413 -2.2886 -1.4534
  936MOL0     H29153   7.694  10.688   2.941 -1.1303 -0.3468 -0.4072
  936MOL0     H29154   7.859  11.039   2.816  2.8901  1.1753 -0.1380
  936MOL0     H29155   7.927  11.265   2.823  1.9358 -0.0971 -1.5646
  936MOL0     H29156   7.669  11.571   2.605  0.6076 -1.3384 -0.2411
  936MOL0     H29157   7.712  11.596   2.772  1.2390  0.0691  0.6054
  936MOL0     H29158   7.930  11.671   2.707 -0.0201 -0.5216 -0.6993
  936MOL0     H29159   7.798  11.792   2.685 -1.3094  0.4747  0.0946
  936MOL0     H29160   7.976  11.759   2.482 -1.0966  0.0298  1.3512
  936MOL0     H29161   7.897  11.618   2.451  1.4573 -0.0486 -0.2712
  936MOL0     H29162   7.669  11.742   2.434  1.8427 -1.3549  2.8478
  936MOL0     H29163   7.784  11.778   2.303  2.6481  3.0883 -0.4275
  936MOL0     H29164   7.786  12.155   2.436  0.2982  0.7712 -0.1415
  936MOL0     H29165   7.590  11.382   2.567 -1.3739 -0.3980  0.8778
  936MOL0     H29166   7.528  11.149   2.443 -1.7080 -3.9306 -1.5808
  936MOL0     H29167   7.434  11.057   2.565 -2.7247  1.6730 -2.8374
  936MOL0     H29168   7.415  11.225   2.548  0.1110 -0.1210 -1.5250
  937MOL0     O29169   9.238   4.899   9.777 -0.4849 -0.3840 -0.7757
  937MOL0     C29170   9.206   4.868   9.670  0.0195  0.0198  1.1547
  937MOL0     O29171   9.285   4.813   9.580  0.1418  0.1221  0.5178
  937MOL0     C29172   9.419   4.812   9.590  0.9213  0.5126 -0.1365
  937MOL0     C29173   9.483   4.707   9.667  0.5581  0.7320 -0.3303
  937MOL0     C29174   9.621   4.698   9.693  0.8387 -0.2589 -0.1920
  937MOL0     C29175   9.701   4.793   9.628  0.4864  0.3851 -0.5638
  937MOL0     O29176   9.838   4.776   9.647  0.2343 -0.2257  0.7458
  937MOL0     C29177   9.940   4.873   9.614  0.0772 -0.4481  0.0544
  937MOL0     C29178   9.939   5.004   9.696  0.1114 -0.0856  0.4082
  937MOL0     C29179   9.966   4.977   9.850  0.1931 -0.5867 -0.3255
  937MOL0     C29180   9.856   4.892   9.923 -0.4907  0.2762 -1.0572
  937MOL0     C29181   9.817   4.915  10.077  0.5963 -0.2714 -0.2105
  937MOL0     C29182   9.716   4.808  10.109  0.8150 -0.1271  0.7590
  937MOL0     C29183   9.689   4.780  10.256  0.3468 -0.6848  0.1299
  937MOL0     C29184   9.662   4.912  10.326 -0.1354 -0.1762 -0.2338
  937MOL0     N29185   9.631   4.870  10.464 -0.1642  0.0855 -0.3688
  937MOL0     C29186   9.508   4.871  10.523  0.5034 -0.4189 -1.1641
  937MOL0     C29187   9.539   4.881  10.660  0.1204  0.8780 -0.7033
  937MOL0     C29188   9.430   4.855  10.757  0.5295  0.8803 -0.0060
  937MOL0     C29189   9.409   4.983  10.845  0.3451  0.7257 -0.7388
  937MOL0     C29190   9.382   5.105  10.767 -0.1502 -0.9742 -0.1353
  937MOL0     C29191   9.235   5.114  10.734 -0.2726 -0.0846 -0.2427
  937MOL0     O29192   9.170   5.027  10.639 -0.4168  0.7687  0.7578
  937MOL0     C29193   9.037   5.050  10.603 -0.0796  0.0202 -0.5374
  937MOL0     C29194   8.991   4.955  10.505  0.5581  0.9599 -0.3842
  937MOL0     C29195   8.855   4.972  10.455 -1.3231  0.0986 -0.9929
  937MOL0     C29196   8.828   4.875  10.341  0.9286  0.2166  0.2610
  937MOL0     C29197   8.774   5.066  10.515  0.1703 -1.3194  0.2960
  937MOL0     C29198   8.645   5.076  10.473  0.4508 -0.0816 -0.3617
  937MOL0     O29199   8.619   5.194  10.413  0.7949  0.7628  0.4452
  937MOL0     C29200   8.483   5.212  10.405 -0.1601 -0.3861 -1.2099
  937MOL0     C29201   8.413   5.285  10.510  0.7340 -0.6162  0.0851
  937MOL0     C29202   8.278   5.300  10.503  0.3080  0.5371  0.6278
  937MOL0     C29203   8.207   5.270  10.388 -1.0989 -1.3561  0.6249
  937MOL0     O29204   8.079   5.319  10.387  0.7655  0.2860  0.2984
  937MOL0     C29205   7.998   5.242  10.297  1.4019 -0.0313 -0.2180
  937MOL0     C29206   7.843   5.232  10.325 -0.7353 -0.0522  0.2902
  937MOL0     C29207   7.782   5.093  10.287  0.1985  0.1523  0.1167
  937MOL0     C29208   7.632   5.101  10.289 -0.6679 -0.2758  0.5148
  937MOL0     C29209   7.572   4.991  10.207 -0.4614  0.1013 -0.8066
  937MOL0     C29210   7.422   5.007  10.207 -0.7729 -0.3123  0.2507
  937MOL0     C29211   7.352   4.902  10.124 -0.4289  0.4978 -0.3117
  937MOL0     C29212   7.379   4.915   9.980  0.2486  0.2084  0.1307
  937MOL0    Cl29213   7.256   4.821   9.884  0.4009  0.7169 -0.4283
  937MOL0     C29214   8.284   5.196  10.288  0.5330  0.5031 -0.6239
  937MOL0     C29215   8.413   5.165  10.299  0.2183 -0.0985  0.5811
  937MOL0     O29216   8.568   4.982  10.498  0.5250  0.0964 -0.0585
  937MOL0     C29217   8.829   5.161  10.612  0.0441  0.1015  0.4467
  937MOL0     C29218   8.954   5.149  10.666 -0.2096  0.3281  0.8213
  937MOL0     N29219   9.677   4.880  10.674  0.1567  0.1314  1.9468
  937MOL0     N29220   9.726   4.878  10.551 -0.9323  0.3042 -0.7957
  937MOL0     C29221   9.634   4.886   9.542  0.3609 -0.6037 -0.2133
  937MOL0     C29222   9.499   4.900   9.523 -0.6677  0.6858  0.7391
  937MOL0     C29223   9.057   4.861   9.637 -1.2140 -0.1465 -0.0068
  937MOL0     C29224   8.976   4.805   9.732  0.0154  1.6495  0.3796
  937MOL0     C29225   8.845   4.765   9.700 -0.6985  0.1307 -0.3642
  937MOL0     C29226   8.802   4.796   9.572 -0.6910 -0.1792 -0.0864
  937MOL0     O29227   8.688   4.757   9.520  0.7483 -0.0026  0.0461
  937MOL0     C29228   8.598   4.685   9.605  0.4216 -0.2547 -0.7341
  937MOL0     C29229   8.478   4.626   9.517  0.0099  0.3024 -0.9880
  937MOL0     C29230   8.373   4.736   9.503  0.1476 -0.3639  0.6567
  937MOL0     C29231   8.230   4.687   9.466  0.2577  0.0925  0.5396
  937MOL0     C29232   8.162   4.589   9.564  0.3543 -0.9277  0.2745
  937MOL0     C29233   8.109   4.523   9.646 -0.0574  0.5965  0.6701
  937MOL0     C29234   8.884   4.864   9.482  0.0988 -0.6590 -0.9046
  937MOL0     C29235   9.012   4.902   9.507  0.0268  0.4495  0.4056
  937MOL0     C29236   9.096   4.985   9.400 -1.2297  0.2556  0.2674
  937MOL0     H29237   9.417   4.636   9.716 -2.3740  3.1480 -0.5248
  937MOL0     H29238   9.656   4.618   9.758  2.4918  0.4339 -0.1635
  937MOL0     H29239   9.919   4.914   9.514 -0.4345  1.1298  0.7829
  937MOL0     H29240  10.037   4.824   9.601  0.8303  0.3594  2.3213
  937MOL0     H29241  10.025   5.063   9.664 -1.0923  1.2618 -0.4913
  937MOL0     H29242   9.844   5.056   9.678 -0.9453 -2.2516 -0.6177
  937MOL0     H29243  10.061   4.923   9.860  0.8507  0.5484 -0.2450
  937MOL0     H29244   9.967   5.072   9.904 -1.9185 -0.3671 -0.5848
  937MOL0     H29245   9.762   4.903   9.868 -1.7917  0.0833  0.9901
  937MOL0     H29246   9.891   4.789   9.915  1.3266  0.8304 -0.7392
  937MOL0     H29247   9.772   5.012  10.097  3.4196  0.8393  1.4223
  937MOL0     H29248   9.912   4.916  10.132 -0.1268 -0.0123  1.0587
  937MOL0     H29249   9.625   4.835  10.053  0.0077  1.1574  2.5816
  937MOL0     H29250   9.752   4.714  10.066  0.6591 -1.4641  3.3789
  937MOL0     H29251   9.779   4.730  10.292  0.1059  0.3665  2.3806
  937MOL0     H29252   9.605   4.711  10.260  0.3089 -0.7425 -1.1200
  937MOL0     H29253   9.746   4.982  10.328 -0.8251  0.6580  0.7158
  937MOL0     H29254   9.582   4.965  10.274  1.0033  1.0706 -0.7761
  937MOL0     H29255   9.406   4.871  10.485 -0.7373  0.4415  1.8416
  937MOL0     H29256   9.456   4.763  10.810 -2.7276 -0.3356 -0.2512
  937MOL0     H29257   9.334   4.828  10.712 -1.4484  2.1143  3.0862
  937MOL0     H29258   9.343   4.955  10.927 -0.8946  2.2368 -1.1736
  937MOL0     H29259   9.509   4.997  10.887  1.3532  2.0542 -3.3402
  937MOL0     H29260   9.406   5.183  10.839  2.9223 -1.5727 -0.3875
  937MOL0     H29261   9.440   5.131  10.678 -2.3357  1.1678 -1.0424
  937MOL0     H29262   9.177   5.117  10.827  2.0027  2.8413  1.2746
  937MOL0     H29263   9.206   5.207  10.683  1.6904  0.3102 -0.7245
  937MOL0     H29264   9.054   4.879  10.460  0.5526  1.6876 -1.6825
  937MOL0     H29265   8.743   4.814  10.373 -0.2644  2.4985  1.7983
  937MOL0     H29266   8.917   4.814  10.331 -0.4221 -1.5504 -2.0678
  937MOL0     H29267   8.804   4.925  10.247  0.0226 -2.3039 -0.9330
  937MOL0     H29268   8.471   5.334  10.589  0.4984  0.8379 -0.6013
  937MOL0     H29269   8.225   5.349  10.584 -0.8595 -1.3550  1.0716
  937MOL0     H29270   8.026   5.272  10.196  1.8635 -0.9608 -0.3710
  937MOL0     H29271   8.026   5.138  10.310 -0.1609 -0.4211  0.3038
  937MOL0     H29272   7.842   5.252  10.433  0.9750  1.5088  0.0722
  937MOL0     H29273   7.791   5.310  10.268  1.0016  1.0142  0.0913
  937MOL0     H29274   7.813   5.014  10.355 -0.3980 -0.8247 -0.7131
  937MOL0     H29275   7.824   5.064  10.190 -0.6540 -0.1978 -0.1623
  937MOL0     H29276   7.602   5.197  10.246  0.7582 -1.1473 -2.6827
  937MOL0     H29277   7.598   5.096  10.393  1.9262  0.3771  1.4771
  937MOL0     H29278   7.623   4.981  10.110  1.9227 -0.2246  0.3980
  937MOL0     H29279   7.605   4.897  10.251 -4.8719 -2.1833 -1.8235
  937MOL0     H29280   7.405   5.109  10.171 -0.6651  0.0615  1.2297
  937MOL0     H29281   7.379   5.005  10.307 -0.3752  3.0166  0.5997
  937MOL0     H29282   7.244   4.914  10.138 -0.1663 -0.1620  3.1915
  937MOL0     H29283   7.379   4.803  10.160 -0.5873  1.1754  1.8021
  937MOL0     H29284   7.482   4.889   9.956 -0.5451 -3.4770  0.2336
  937MOL0     H29285   7.362   5.020   9.953 -0.6595  0.3953  1.3263
  937MOL0     H29286   8.234   5.166  10.196 -4.3907  1.3144  1.4431
  937MOL0     H29287   8.459   5.102  10.223  2.7262  2.2294  0.0026
  937MOL0     H29288   8.768   5.234  10.665  0.5846  0.2825  0.8196
  937MOL0     H29289   8.990   5.220  10.740  0.9174  0.2347  0.3682
  937MOL0     H29290   9.690   4.951   9.476 -1.0487 -0.3341 -1.1883
  937MOL0     H29291   9.461   4.967   9.446 -1.0289 -0.6783 -0.3187
  937MOL0     H29292   9.019   4.810   9.831  2.1864  2.4373 -0.5356
  937MOL0     H29293   8.784   4.730   9.783 -0.4156  2.1332  0.7463
  937MOL0     H29294   8.654   4.600   9.645 -2.0203 -0.3088  3.0509
  937MOL0     H29295   8.575   4.744   9.694 -0.2350 -0.3651 -0.8256
  937MOL0     H29296   8.431   4.549   9.579  0.2018 -1.1826 -2.6156
  937MOL0     H29297   8.507   4.577   9.424  2.6259 -2.6699  1.1706
  937MOL0     H29298   8.372   4.794   9.596 -1.0947 -1.0650  1.1038
  937MOL0     H29299   8.406   4.806   9.426  0.5251  1.2434  2.2219
  937MOL0     H29300   8.257   4.621   9.383 -0.6218 -1.0967  1.1659
  937MOL0     H29301   8.168   4.774   9.441  1.8869  1.0642 -0.2614
  937MOL0     H29302   8.068   4.457   9.719  0.3603  0.5744  0.8907
  937MOL0     H29303   8.845   4.893   9.385 -1.0186  3.5920  0.5882
  937MOL0     H29304   9.153   4.919   9.335 -0.5051  2.8962 -1.9416
  937MOL0     H29305   9.058   5.077   9.354 -0.4242 -0.9907 -3.1368
  937MOL0     H29306   9.184   5.025   9.453 -1.8889 -0.6156  2.0916
  938MOL0     O29307   4.824   1.928  10.185 -0.1301 -0.0707 -0.1416
  938MOL0     C29308   4.791   1.865  10.093  0.8736  1.0322  0.3460
  938MOL0     O29309   4.662   1.845  10.053 -0.1284 -0.2256  0.1392
  938MOL0     C29310   4.564   1.842  10.155  0.3731 -0.6591 -1.2801
  938MOL0     C29311   4.578   1.802  10.285  0.2793 -0.0081 -0.3112
  938MOL0     C29312   4.472   1.830  10.371 -0.3152  0.5203 -1.0060
  938MOL0     C29313   4.350   1.874  10.339  0.4513 -0.5610  0.3170
  938MOL0     O29314   4.253   1.890  10.432  0.1459  0.3323 -0.3710
  938MOL0     C29315   4.115   1.930  10.392 -0.4661 -0.3730 -0.2619
  938MOL0     C29316   4.051   1.976  10.527 -0.4662  0.3644 -0.0319
  938MOL0     C29317   4.021   1.871  10.627  0.9079  0.0509  0.0383
  938MOL0     C29318   3.903   1.783  10.581  0.1769  0.0464 -0.5871
  938MOL0     C29319   3.841   1.681  10.692 -0.0120 -0.2371  0.5644
  938MOL0     C29320   3.929   1.582  10.744 -0.4688 -0.2648  0.2863
  938MOL0     C29321   3.867   1.471  10.835 -0.8530 -0.3034  0.8667
  938MOL0     C29322   3.754   1.518  10.930 -0.1725 -0.2364 -0.3303
  938MOL0     N29323   3.714   1.429  11.036  0.1916  0.0422  0.3525
  938MOL0     C29324   3.627   1.459  11.137 -0.3200  0.0732  0.3680
  938MOL0     C29325   3.655   1.365  11.219  0.4922  0.3486 -0.0110
  938MOL0     C29326   3.585   1.349  11.355 -0.0538  0.6021 -0.0329
  938MOL0     C29327   3.483   1.222  11.336 -0.4710  0.6903  0.4098
  938MOL0     C29328   3.392   1.227  11.455  0.5818  0.5118  0.0365
  938MOL0     C29329   3.444   1.183  11.587 -0.6720 -0.7569 -0.8253
  938MOL0     O29330   3.498   1.051  11.568 -0.2286 -0.0067  0.3083
  938MOL0     C29331   3.424   0.951  11.627 -0.3254  0.5715  0.2981
  938MOL0     C29332   3.444   0.923  11.752 -0.1870  0.4316  0.2582
  938MOL0     C29333   3.372   0.830  11.824 -0.0613  0.2068  0.4728
  938MOL0     C29334   3.405   0.814  11.969 -0.8172  0.7008  0.0251
  938MOL0     C29335   3.261   0.760  11.764 -0.6555  0.0370 -0.5491
  938MOL0     C29336   3.178   0.660  11.831 -0.4039  0.9320  0.6294
  938MOL0     O29337   3.076   0.608  11.749  0.3546  0.0327  0.0601
  938MOL0     C29338   3.002   0.498  11.779 -0.1624  0.2987 -0.1186
  938MOL0     C29339   3.006   0.381  11.702 -0.2292  0.8275 -0.7195
  938MOL0     C29340   2.923   0.270  11.738  0.2748 -0.4639  0.5052
  938MOL0     C29341   2.831   0.269  11.837  0.2540 -1.6189 -0.3285
  938MOL0     O29342   2.757   0.155  11.866 -0.4562  0.2708 -0.0311
  938MOL0     C29343   2.642   0.156  11.955  0.7112  0.0010  0.2231
  938MOL0     C29344   2.536   0.050  11.913  0.3233 -0.5187  0.2576
  938MOL0     C29345   2.483   0.081  11.770 -0.2751  0.3892 -0.9110
  938MOL0     C29346   2.374  -0.015  11.740  0.1268  0.9046 -0.3887
  938MOL0     C29347   2.299   0.015  11.615  0.5521  0.3373 -0.0530
  938MOL0     C29348   2.180  -0.082  11.594 -0.5824  0.6506  0.2155
  938MOL0     C29349   2.116  -0.022  11.468 -0.7370 -0.0258  0.5798
  938MOL0     C29350   2.005  -0.108  11.411  0.2683 -0.4178  0.3406
  938MOL0    Cl29351   1.873  -0.110  11.535 -0.1178 -0.6783  0.0012
  938MOL0     C29352   2.825   0.384  11.913  1.1162  0.0074 -0.4000
  938MOL0     C29353   2.907   0.497  11.885  0.0423  0.1712  0.1806
  938MOL0     O29354   3.209   0.617  11.942  0.0091 -0.9885 -0.2328
  938MOL0     C29355   3.239   0.786  11.621 -0.1706  0.3048  0.8188
  938MOL0     C29356   3.327   0.879  11.558  0.2902 -0.0643  0.3107
  938MOL0     N29357   3.720   1.258  11.152 -0.2873 -0.7049  0.8602
  938MOL0     N29358   3.757   1.300  11.047 -0.8858 -0.1496  0.7211
  938MOL0     C29359   4.339   1.919  10.208  0.6345  0.2970  0.2622
  938MOL0     C29360   4.444   1.906  10.119  0.2959 -0.9445  0.5977
  938MOL0     C29361   4.895   1.802  10.008  0.0070  0.1926 -0.2972
  938MOL0     C29362   4.860   1.775   9.878  0.7790  0.6426  0.1011
  938MOL0     C29363   4.954   1.717   9.787 -0.2747  1.2899  0.3934
  938MOL0     C29364   5.081   1.689   9.822  0.4346 -0.8166 -0.5976
  938MOL0     O29365   5.170   1.623   9.751  0.1179 -0.3606  0.1265
  938MOL0     C29366   5.119   1.529   9.647 -0.0779  0.2506  0.4599
  938MOL0     C29367   5.136   1.574   9.507  0.5280 -0.3949 -0.7037
  938MOL0     C29368   5.079   1.475   9.405  0.0448 -0.6157 -0.2381
  938MOL0     C29369   5.127   1.503   9.257  0.0759  0.1101 -0.6947
  938MOL0     C29370   5.075   1.633   9.214 -0.1279  0.0639  0.2511
  938MOL0     C29371   5.012   1.720   9.158 -0.3579 -0.3151  1.0736
  938MOL0     C29372   5.125   1.725   9.953  0.6174  0.0632 -1.3276
  938MOL0     C29373   5.029   1.787  10.047 -0.0771  0.8905 -0.0633
  938MOL0     C29374   5.087   1.823  10.173 -0.6005  0.6430 -1.0429
  938MOL0     H29375   4.676   1.770  10.319 -0.2636  0.6609  2.1078
  938MOL0     H29376   4.486   1.813  10.478 -0.0594  3.1684 -0.5464
  938MOL0     H29377   4.065   1.843  10.347 -2.2826 -1.0092  2.6924
  938MOL0     H29378   4.117   2.017  10.326 -2.9322 -0.6981 -0.8797
  938MOL0     H29379   4.118   2.046  10.578  1.7331 -0.4472 -1.6938
  938MOL0     H29380   3.968   2.047  10.518  0.0414  1.0224  0.3819
  938MOL0     H29381   4.113   1.816  10.649  0.6281 -1.6760 -2.6966
  938MOL0     H29382   3.993   1.925  10.718 -1.6806 -3.2954  1.4310
  938MOL0     H29383   3.823   1.856  10.568 -0.2559 -0.0988  1.0504
  938MOL0     H29384   3.920   1.726  10.489  1.6737 -0.7026  0.1182
  938MOL0     H29385   3.770   1.630  10.628 -0.5352  0.1462  0.8336
  938MOL0     H29386   3.779   1.736  10.765 -1.0140  0.4879 -0.7955
  938MOL0     H29387   3.989   1.523  10.674  0.5828  1.8203 -0.6930
  938MOL0     H29388   4.001   1.642  10.800  1.6048  0.7440 -3.1113
  938MOL0     H29389   3.944   1.421  10.895 -0.0438  0.8464  0.8285
  938MOL0     H29390   3.825   1.389  10.777  0.4855 -0.5684  0.2510
  938MOL0     H29391   3.799   1.604  10.980 -1.4526 -0.1570  0.7201
  938MOL0     H29392   3.659   1.552  10.888 -1.4188 -1.6051  1.2616
  938MOL0     H29393   3.555   1.541  11.138  2.0281  2.2788 -0.7774
  938MOL0     H29394   3.541   1.447  11.378 -1.7285  0.3846 -2.0094
  938MOL0     H29395   3.661   1.330  11.431 -1.0447  3.3683  1.8417
  938MOL0     H29396   3.418   1.223  11.248  0.0236  1.1126  0.0396
  938MOL0     H29397   3.535   1.127  11.320 -0.3506  0.7118  0.6772
  938MOL0     H29398   3.350   1.327  11.449 -2.2681 -0.3716  2.4823
  938MOL0     H29399   3.312   1.158  11.426  0.7576  0.4189 -0.2336
  938MOL0     H29400   3.515   1.258  11.623 -2.7287  0.5459  0.6735
  938MOL0     H29401   3.366   1.188  11.663 -1.9523  0.7485 -2.1584
  938MOL0     H29402   3.512   0.988  11.806 -1.3011  2.9922 -1.2099
  938MOL0     H29403   3.482   0.878  12.011 -0.9389  0.3777  0.7515
  938MOL0     H29404   3.447   0.714  11.984  1.0119  1.6555  1.5638
  938MOL0     H29405   3.313   0.817  12.029 -1.2495 -0.6025 -0.5238
  938MOL0     H29406   3.075   0.369  11.620 -0.9995 -1.6458 -1.0981
  938MOL0     H29407   2.938   0.185  11.673  0.5097  1.8263 -2.6971
  938MOL0     H29408   2.667   0.136  12.060  2.8083 -1.3771 -0.4929
  938MOL0     H29409   2.585   0.250  11.957 -1.4078 -1.0307  5.2540
  938MOL0     H29410   2.569  -0.054  11.909 -1.0653 -0.9598 -2.6627
  938MOL0     H29411   2.458   0.066  11.987 -1.0737 -2.9615 -0.5926
  938MOL0     H29412   2.561   0.069  11.695 -1.5791 -3.8329 -1.8910
  938MOL0     H29413   2.448   0.185  11.766  2.0947  1.2783 -0.1382
  938MOL0     H29414   2.299  -0.006  11.819  0.2674 -1.0140  0.0030
  938MOL0     H29415   2.408  -0.118  11.740  0.3309  0.9637 -1.4065
  938MOL0     H29416   2.261   0.117  11.615  0.3996  0.3616  3.1487
  938MOL0     H29417   2.367   0.005  11.530 -1.0494  0.3575 -1.3828
  938MOL0     H29418   2.108  -0.090  11.676 -4.3438 -0.7534 -2.8836
  938MOL0     H29419   2.218  -0.183  11.579  0.3842  1.2558 -1.8411
  938MOL0     H29420   2.195  -0.011  11.394 -0.6293  1.2037  0.8548
  938MOL0     H29421   2.062   0.073  11.478 -1.4077 -0.3036 -0.2100
  938MOL0     H29422   2.035  -0.212  11.392 -0.2907 -0.4266 -0.5251
  938MOL0     H29423   1.966  -0.059  11.322  0.2124  0.2375  0.7240
  938MOL0     H29424   2.745   0.398  11.985 -0.5133  0.7447 -2.2737
  938MOL0     H29425   2.902   0.592  11.938 -1.0102  0.4143 -0.3216
  938MOL0     H29426   3.152   0.745  11.569 -0.0914  0.6900  0.3732
  938MOL0     H29427   3.300   0.931  11.467  1.4440  1.9447  1.0527
  938MOL0     H29428   4.244   1.963  10.177 -2.1201 -2.6673  3.5350
  938MOL0     H29429   4.450   1.953  10.021 -2.2868 -0.4498  0.6161
  938MOL0     H29430   4.762   1.799   9.839  2.1358  2.8246 -2.2828
  938MOL0     H29431   4.923   1.707   9.683 -3.0594 -0.8227  1.2845
  938MOL0     H29432   5.189   1.445   9.657  1.9940  1.7965 -0.5023
  938MOL0     H29433   5.017   1.498   9.670 -0.3589  2.3080  2.3381
  938MOL0     H29434   5.242   1.592   9.485  0.8161 -1.8853 -0.6721
  938MOL0     H29435   5.093   1.671   9.480  2.3269  0.0190 -2.2749
  938MOL0     H29436   5.095   1.372   9.437 -0.9595 -0.8563 -0.4673
  938MOL0     H29437   4.971   1.463   9.409  0.1944 -3.6529 -1.8182
  938MOL0     H29438   5.106   1.421   9.188  2.6826 -0.7384 -0.5828
  938MOL0     H29439   5.236   1.512   9.256  0.0451  2.0582  1.8080
  938MOL0     H29440   4.943   1.794   9.123 -0.2506 -0.4346  0.6100
  938MOL0     H29441   5.222   1.686   9.983 -1.1826 -1.8965  2.7227
  938MOL0     H29442   5.194   1.799  10.179 -0.6613  0.5440 -0.1910
  938MOL0     H29443   5.091   1.929  10.196 -1.4567  0.9128 -2.0739
  938MOL0     H29444   5.031   1.772  10.252  1.8025  2.4359  2.0082
  939MOL0     O29445   3.067   3.151   3.677 -0.1811  0.3682 -0.5016
  939MOL0     C29446   3.005   3.138   3.782 -0.4340 -0.0224  0.2044
  939MOL0     O29447   2.991   3.230   3.882  0.2939  0.1109  0.1276
  939MOL0     C29448   3.074   3.329   3.866 -0.4568 -1.0051  0.0920
  939MOL0     C29449   3.042   3.432   3.769  0.9494  0.5505  0.3846
  939MOL0     C29450   3.116   3.550   3.754 -0.4479 -0.2869 -0.7106
  939MOL0     C29451   3.224   3.560   3.842  0.7806 -0.9093  0.0814
  939MOL0     O29452   3.303   3.668   3.839 -0.2490  0.0818  0.0055
  939MOL0     C29453   3.340   3.714   3.708  0.1175 -0.4224  0.3514
  939MOL0     C29454   3.474   3.794   3.711 -0.2305  0.2625 -0.8409
  939MOL0     C29455   3.509   3.858   3.582  0.4070  0.4440 -0.1541
  939MOL0     C29456   3.651   3.907   3.579  0.4128 -1.1430 -0.5941
  939MOL0     C29457   3.667   4.020   3.470 -0.9535  0.1812 -0.4822
  939MOL0     C29458   3.809   4.083   3.478  0.1419  0.4079  0.5802
  939MOL0     C29459   3.846   4.185   3.376 -0.9961 -0.2809 -0.6699
  939MOL0     C29460   3.768   4.316   3.379 -0.5328 -0.4715 -0.0748
  939MOL0     N29461   3.839   4.445   3.392 -0.9787 -0.3256  0.5549
  939MOL0     C29462   3.917   4.487   3.493 -0.1366 -0.4517  0.6072
  939MOL0     C29463   3.996   4.582   3.433 -0.4958  0.2639 -0.0839
  939MOL0     C29464   4.095   4.666   3.512  0.8780  0.3147  0.8623
  939MOL0     C29465   4.023   4.764   3.602 -0.1438 -0.1233 -0.0543
  939MOL0     C29466   4.099   4.853   3.706  0.0976  0.1185 -0.1392
  939MOL0     C29467   4.170   4.767   3.815  0.5275  0.1504 -0.0363
  939MOL0     O29468   4.077   4.693   3.889  1.3389  0.7953  0.1593
  939MOL0     C29469   4.114   4.572   3.939 -0.0577 -0.6081  0.2089
  939MOL0     C29470   4.067   4.458   3.887 -0.1856  0.2653  0.5656
  939MOL0     C29471   4.107   4.338   3.935 -1.0185  0.8358  0.5289
  939MOL0     C29472   4.043   4.218   3.868 -1.1537  1.0644  0.5504
  939MOL0     C29473   4.200   4.329   4.044  0.2908 -0.2150 -0.4255
  939MOL0     C29474   4.259   4.206   4.099 -0.0979  0.2878 -0.0556
  939MOL0     O29475   4.369   4.209   4.180 -0.5077  0.1872  0.0816
  939MOL0     C29476   4.389   4.090   4.239  0.1652  0.0797 -0.9724
  939MOL0     C29477   4.380   4.088   4.381  0.8384  0.2471 -0.5270
  939MOL0     C29478   4.418   3.973   4.458  1.2040  0.5362  0.0166
  939MOL0     C29479   4.455   3.850   4.394  0.0921 -0.6073 -0.9364
  939MOL0     O29480   4.459   3.722   4.451 -0.1838 -0.5138  0.1286
  939MOL0     C29481   4.386   3.708   4.575 -0.5109  0.2896 -0.5341
  939MOL0     C29482   4.359   3.564   4.611 -0.3409 -0.1068  0.1688
  939MOL0     C29483   4.308   3.476   4.490 -0.4383 -0.1202 -0.0978
  939MOL0     C29484   4.280   3.323   4.498  0.2050  0.8091 -0.0436
  939MOL0     C29485   4.127   3.298   4.504 -0.2648  0.2489 -0.3581
  939MOL0     C29486   4.049   3.350   4.626 -0.2107  0.5532  0.5505
  939MOL0     C29487   4.109   3.272   4.748 -0.8763  0.1287  0.8237
  939MOL0     C29488   4.122   3.126   4.742  0.4299 -1.2791 -0.1031
  939MOL0    Cl29489   3.959   3.066   4.708 -0.1517  0.2493  0.0012
  939MOL0     C29490   4.468   3.855   4.252  1.0853  0.2945 -0.5815
  939MOL0     C29491   4.431   3.968   4.181 -0.5230 -0.0750  0.5613
  939MOL0     O29492   4.203   4.099   4.065 -0.1092 -0.1702 -0.1837
  939MOL0     C29493   4.250   4.448   4.100 -0.1764  0.1636  0.4806
  939MOL0     C29494   4.213   4.570   4.039  0.8399  0.2486 -1.0380
  939MOL0     N29495   3.963   4.592   3.296  0.4612  0.3936 -0.4451
  939MOL0     N29496   3.872   4.505   3.279  0.4092 -0.8780  0.7991
  939MOL0     C29497   3.256   3.463   3.934 -0.9518  0.2960  1.1203
  939MOL0     C29498   3.191   3.339   3.939 -0.2394  0.1065 -0.8404
  939MOL0     C29499   2.929   3.012   3.789  0.3087 -0.4866 -0.9627
  939MOL0     C29500   2.952   2.932   3.900  1.2228  0.5859 -0.5702
  939MOL0     C29501   2.887   2.804   3.904  0.2517 -0.2613  0.2073
  939MOL0     C29502   2.780   2.780   3.816  0.4744  0.2724  0.7869
  939MOL0     O29503   2.735   2.655   3.800  0.4235  0.1018 -0.8894
  939MOL0     C29504   2.593   2.643   3.822  0.3768  0.2643  0.2195
  939MOL0     C29505   2.549   2.502   3.804  0.4753 -0.1022 -0.5174
  939MOL0     C29506   2.500   2.483   3.661 -0.1445  0.6387  1.0683
  939MOL0     C29507   2.459   2.335   3.636  0.7449  0.9758 -0.3548
  939MOL0     C29508   2.395   2.317   3.512 -0.8013  0.1410  0.1795
  939MOL0     C29509   2.369   2.320   3.391  0.9014 -0.2380 -0.1261
  939MOL0     C29510   2.747   2.867   3.716 -0.1327 -0.8395  0.3999
  939MOL0     C29511   2.824   2.988   3.704  0.6872  1.0841  0.7324
  939MOL0     C29512   2.799   3.067   3.578  0.0456 -0.0059 -0.2364
  939MOL0     H29513   2.964   3.417   3.694  0.5618 -0.2424  0.9326
  939MOL0     H29514   3.086   3.612   3.670  1.4939  1.6144 -0.0774
  939MOL0     H29515   3.267   3.786   3.670  1.1334  0.1372 -0.5973
  939MOL0     H29516   3.347   3.631   3.638 -2.6582  0.4382 -1.0740
  939MOL0     H29517   3.490   3.857   3.798  1.5185 -2.2242  0.7561
  939MOL0     H29518   3.548   3.719   3.738 -0.1464  1.4678  2.8198
  939MOL0     H29519   3.496   3.791   3.496  1.8399 -2.9650  2.0652
  939MOL0     H29520   3.449   3.949   3.575  0.8799  0.7727  0.0412
  939MOL0     H29521   3.675   3.951   3.677 -0.0206  2.2224 -1.8733
  939MOL0     H29522   3.732   3.834   3.565  0.9161 -1.0947  1.5912
  939MOL0     H29523   3.586   4.091   3.486 -2.6871 -1.9982  1.2309
  939MOL0     H29524   3.651   3.980   3.370  1.8796 -1.4180 -0.4110
  939MOL0     H29525   3.831   4.111   3.582  0.9710  2.9901 -0.2119
  939MOL0     H29526   3.878   4.000   3.464  0.4535  0.5159  1.4508
  939MOL0     H29527   3.844   4.138   3.277 -1.5433  1.3728 -1.4940
  939MOL0     H29528   3.951   4.211   3.392 -0.9644  0.7507 -2.2880
  939MOL0     H29529   3.703   4.324   3.291 -0.9099  0.1135  0.2501
  939MOL0     H29530   3.700   4.322   3.464 -1.0740  0.9402 -0.5850
  939MOL0     H29531   3.905   4.449   3.594 -0.9751  1.0454  1.1106
  939MOL0     H29532   4.165   4.716   3.444  2.0024 -1.1448  0.8890
  939MOL0     H29533   4.158   4.598   3.571  1.9342  1.0685  0.6354
  939MOL0     H29534   3.975   4.826   3.526 -3.6920 -1.4887  0.8587
  939MOL0     H29535   3.945   4.715   3.662 -2.2384  1.5498 -1.2714
  939MOL0     H29536   4.169   4.910   3.644 -1.1970 -0.4539 -2.2324
  939MOL0     H29537   4.048   4.935   3.756  1.4696  1.2624 -0.5507
  939MOL0     H29538   4.254   4.710   3.776  2.2613  3.2271 -1.1615
  939MOL0     H29539   4.222   4.836   3.883 -1.3784  1.3715  0.2656
  939MOL0     H29540   3.995   4.462   3.806 -0.6858  0.1619  1.0007
  939MOL0     H29541   4.014   4.142   3.941  0.8078 -1.3025 -0.9865
  939MOL0     H29542   4.114   4.171   3.799 -3.9561  0.4731 -2.2125
  939MOL0     H29543   3.950   4.239   3.814 -0.4900  1.7838 -0.3482
  939MOL0     H29544   4.348   4.173   4.440  0.4746 -0.9236  1.0226
  939MOL0     H29545   4.414   3.973   4.567  1.7243  2.6602  0.0794
  939MOL0     H29546   4.444   3.753   4.656  0.3860 -0.7881 -0.5506
  939MOL0     H29547   4.294   3.765   4.556  1.2870  2.9705 -1.8261
  939MOL0     H29548   4.460   3.526   4.630  0.3718  0.4354 -2.2143
  939MOL0     H29549   4.286   3.556   4.692  0.9881 -2.3329  1.2635
  939MOL0     H29550   4.379   3.490   4.407  0.6161  0.2035  0.8252
  939MOL0     H29551   4.217   3.522   4.450  0.9351  1.6460 -1.3984
  939MOL0     H29552   4.342   3.285   4.580  3.6714  3.1411 -1.3638
  939MOL0     H29553   4.306   3.281   4.400 -4.1293 -0.6619 -0.7835
  939MOL0     H29554   4.083   3.353   4.420 -2.6521  0.3316  0.8762
  939MOL0     H29555   4.109   3.191   4.486  0.1088 -0.2599  2.0357
  939MOL0     H29556   3.943   3.335   4.603 -0.3607  2.0440  0.1824
  939MOL0     H29557   4.059   3.459   4.624 -4.0168  1.0262 -0.3291
  939MOL0     H29558   4.044   3.293   4.833  0.7631  3.4780  1.4140
  939MOL0     H29559   4.201   3.324   4.775 -0.7884  3.3547 -4.3630
  939MOL0     H29560   4.163   3.092   4.838  0.1965  1.5965  1.1181
  939MOL0     H29561   4.195   3.079   4.676  0.3259 -1.8001  0.1441
  939MOL0     H29562   4.497   3.768   4.195 -0.6593  0.2260 -1.4412
  939MOL0     H29563   4.433   3.958   4.073 -0.2353 -4.4846  0.7736
  939MOL0     H29564   4.315   4.451   4.187 -1.7934 -1.7701  1.8669
  939MOL0     H29565   4.246   4.670   4.063 -0.4167  0.2624  0.8520
  939MOL0     H29566   3.349   3.479   3.987  0.0666 -1.1814 -0.1263
  939MOL0     H29567   3.200   3.259   4.012  0.1184  1.8048  1.0352
  939MOL0     H29568   3.018   2.960   3.982 -1.2572 -2.2219  2.6729
  939MOL0     H29569   2.917   2.726   3.972  1.0201 -0.8383 -0.7647
  939MOL0     H29570   2.579   2.683   3.923  3.5899 -0.3202  1.0197
  939MOL0     H29571   2.538   2.705   3.751  0.0224  0.1029  0.3524
  939MOL0     H29572   2.457   2.485   3.860 -1.6721  1.2707 -3.3700
  939MOL0     H29573   2.623   2.431   3.841  1.5000  2.5802  3.0714
  939MOL0     H29574   2.421   2.550   3.626  1.5977  1.1711 -2.1928
  939MOL0     H29575   2.580   2.499   3.588 -0.4713  1.3847  0.8600
  939MOL0     H29576   2.382   2.320   3.713  0.9249  0.1965 -0.3263
  939MOL0     H29577   2.545   2.269   3.643 -2.6694 -3.9860  0.5819
  939MOL0     H29578   2.362   2.328   3.284 -2.6369 -1.8064 -0.1200
  939MOL0     H29579   2.669   2.843   3.645  0.2188 -1.9045  0.3465
  939MOL0     H29580   2.844   3.166   3.588  0.4678 -0.2826  0.6690
  939MOL0     H29581   2.838   3.016   3.489  0.0261  2.2502 -1.6215
  939MOL0     H29582   2.690   3.073   3.574 -0.2272 -0.3303  3.5235
  940MOL0     O29583  10.969  10.981   1.590  0.4400 -0.4753  0.6836
  940MOL0     C29584  10.987  11.082   1.656  0.5010 -0.4970 -0.5953
  940MOL0     O29585  11.023  11.077   1.789 -0.7254 -0.1815  0.3220
  940MOL0     C29586  11.053  10.954   1.850  0.0931 -0.5060 -0.3916
  940MOL0     C29587  11.055  10.968   1.991 -0.1462 -1.0044 -0.8482
  940MOL0     C29588  11.096  10.863   2.073 -0.1477  0.0691  0.3331
  940MOL0     C29589  11.133  10.750   2.013 -0.5545  0.3249  0.0156
  940MOL0     O29590  11.183  10.640   2.083  0.0816  0.3829 -0.1574
  940MOL0     C29591  11.167  10.633   2.219  0.1832  0.2799 -0.2798
  940MOL0     C29592  11.215  10.500   2.269 -0.1433 -0.5033  0.6202
  940MOL0     C29593  11.228  10.475   2.418 -0.1059 -0.6969  0.3114
  940MOL0     C29594  11.243  10.328   2.470  0.0035  0.7717 -0.3266
  940MOL0     C29595  11.251  10.301   2.626 -0.5375  0.1304  0.1596
  940MOL0     C29596  11.381  10.345   2.698  0.4110  0.5623  0.1794
  940MOL0     C29597  11.388  10.319   2.851 -0.0267  0.4772 -0.1289
  940MOL0     C29598  11.391  10.167   2.888  1.3528 -0.0973 -0.1471
  940MOL0     N29599  11.514  10.097   2.849 -0.5803  0.3161 -0.5292
  940MOL0     C29600  11.639  10.085   2.915 -0.3122  0.2141  0.3165
  940MOL0     C29601  11.698   9.987   2.838  0.0248  0.6676  0.1743
  940MOL0     C29602  11.827   9.915   2.871 -0.3293  0.3913  0.2448
  940MOL0     C29603  11.814   9.822   2.995  1.2080 -0.4538  0.0019
  940MOL0     C29604  11.951   9.761   3.029 -0.4501 -0.9298 -0.2944
  940MOL0     C29605  11.946   9.652   3.135 -0.1279  0.0926 -0.4187
  940MOL0     O29606  11.881   9.680   3.264  0.3084 -0.2881 -0.0462
  940MOL0     C29607  11.911   9.601   3.371 -0.1240 -0.4322 -0.0845
  940MOL0     C29608  12.046   9.582   3.423 -0.6814  0.0126  0.1228
  940MOL0     C29609  12.071   9.508   3.539 -0.0884  0.8328 -0.7830
  940MOL0     C29610  12.213   9.497   3.600 -0.1890  0.2556 -0.5110
  940MOL0     C29611  11.950   9.457   3.606 -0.5588 -0.0263 -0.0670
  940MOL0     C29612  11.973   9.391   3.737 -0.0126  0.6402 -0.7277
  940MOL0     O29613  12.063   9.444   3.830 -0.2036 -0.2159  0.2672
  940MOL0     C29614  12.062   9.400   3.957 -0.2044  0.0943  0.1825
  940MOL0     C29615  12.068   9.260   3.994 -0.5543 -0.4987  0.6665
  940MOL0     C29616  12.087   9.212   4.126 -0.0901 -0.4957 -0.5852
  940MOL0     C29617  12.118   9.314   4.215  1.1929  0.4753  0.1420
  940MOL0     O29618  12.142   9.271   4.334 -1.0592 -0.0266 -0.1702
  940MOL0     C29619  12.193   9.365   4.434  0.2136 -0.1297  0.4608
  940MOL0     C29620  12.213   9.282   4.566  0.2314  0.0543 -0.2373
  940MOL0     C29621  12.237   9.371   4.682 -1.1927 -0.2006  0.3771
  940MOL0     C29622  12.109   9.440   4.732 -0.2102 -0.0262  0.3121
  940MOL0     C29623  12.113   9.500   4.882  0.2607 -0.0118  0.3423
  940MOL0     C29624  11.966   9.540   4.904  0.4610  0.1634 -0.2717
  940MOL0     C29625  11.948   9.620   5.032 -0.4924 -0.5759  0.0830
  940MOL0     C29626  11.805   9.659   5.061  0.3221 -0.0003  0.1037
  940MOL0    Cl29627  11.805   9.742   5.215 -0.0880  0.4218  0.3508
  940MOL0     C29628  12.120   9.450   4.181  0.6471 -0.2081  0.6072
  940MOL0     C29629  12.087   9.491   4.054  0.6218 -0.0969  0.2837
  940MOL0     O29630  11.907   9.289   3.748 -0.3569 -0.5555 -0.0761
  940MOL0     C29631  11.821   9.473   3.562  0.0202  0.1532  0.6186
  940MOL0     C29632  11.801   9.543   3.447 -0.3944  0.7839  0.2275
  940MOL0     N29633  11.613   9.953   2.734  0.0597  0.2477  0.6027
  940MOL0     N29634  11.510  10.026   2.740  1.2273  0.2017  0.4795
  940MOL0     C29635  11.139  10.731   1.879 -0.2882 -0.1031 -0.2729
  940MOL0     C29636  11.099  10.834   1.791 -0.4925  0.2981  0.5928
  940MOL0     C29637  10.966  11.214   1.594 -0.5285 -0.5971 -0.1346
  940MOL0     C29638  11.034  11.320   1.654 -0.1324 -0.5099  0.5701
  940MOL0     C29639  11.043  11.440   1.576  1.1444 -0.1914  0.5924
  940MOL0     C29640  10.968  11.466   1.458 -0.9425 -0.5012 -0.2538
  940MOL0     O29641  10.983  11.596   1.404  0.1009  0.1091 -0.7243
  940MOL0     C29642  10.930  11.609   1.269  0.6070 -0.1150  0.7564
  940MOL0     C29643  10.990  11.730   1.209 -0.0304 -0.5223  0.2011
  940MOL0     C29644  10.982  11.716   1.054  1.0143 -1.2893  0.0722
  940MOL0     C29645  11.004  11.836   0.957  0.7164 -0.3820  0.3945
  940MOL0     C29646  10.954  11.972   1.009 -0.2693  0.9896  0.8556
  940MOL0     C29647  10.922  12.081   1.050 -0.2462  0.6639  0.1613
  940MOL0     C29648  10.892  11.358   1.420 -0.0561 -0.1285 -0.3540
  940MOL0     C29649  10.888  11.232   1.477  0.0050 -0.4973  0.2878
  940MOL0     C29650  10.814  11.126   1.387 -0.3588 -0.3955  0.8618
  940MOL0     H29651  11.024  11.058   2.044  2.7251  0.5592 -1.6412
  940MOL0     H29652  11.106  10.884   2.179  3.4619  3.7109 -0.4770
  940MOL0     H29653  11.064  10.644   2.256  1.0606 -0.7072  2.7427
  940MOL0     H29654  11.214  10.724   2.257 -1.4092  1.0970 -0.1687
  940MOL0     H29655  11.136  10.432   2.238 -2.7008  2.5083 -0.0683
  940MOL0     H29656  11.312  10.470   2.229  0.5316  3.2344 -0.9913
  940MOL0     H29657  11.307  10.530   2.471  2.0672 -4.6959  1.5751
  940MOL0     H29658  11.137  10.511   2.467  0.7807  0.8636  0.8964
  940MOL0     H29659  11.152  10.274   2.444 -0.9609  3.3942 -2.9196
  940MOL0     H29660  11.329  10.292   2.412 -0.7549  0.8099 -1.5056
  940MOL0     H29661  11.231  10.197   2.654  1.5796 -0.3774 -0.0112
  940MOL0     H29662  11.158  10.341   2.668 -2.5022 -2.4694 -1.4302
  940MOL0     H29663  11.466  10.296   2.650  1.0168  2.6276 -0.9523
  940MOL0     H29664  11.385  10.453   2.682  1.6699  0.5942  0.6278
  940MOL0     H29665  11.301  10.361   2.902  1.0177 -1.1635  3.2911
  940MOL0     H29666  11.478  10.367   2.891 -0.1185 -0.3174  1.0506
  940MOL0     H29667  11.367  10.164   2.995  0.5941 -0.0594 -0.3100
  940MOL0     H29668  11.312  10.120   2.829  1.1668 -0.7396  0.5901
  940MOL0     H29669  11.680  10.127   3.006  2.2554 -1.2063 -0.0724
  940MOL0     H29670  11.913   9.976   2.898  1.2314 -1.2845 -0.7527
  940MOL0     H29671  11.860   9.866   2.779  0.1881  0.5508  0.3417
  940MOL0     H29672  11.760   9.860   3.082  0.9105 -0.0981 -0.3349
  940MOL0     H29673  11.751   9.740   2.959  0.6522 -0.4676  0.9972
  940MOL0     H29674  11.995   9.721   2.937  1.6473  1.4236 -0.4292
  940MOL0     H29675  12.021   9.839   3.062 -0.9850 -0.6164  0.1140
  940MOL0     H29676  11.891   9.568   3.092 -1.8477  0.5596  0.7960
  940MOL0     H29677  12.046   9.622   3.170 -0.2021  2.2698  1.9530
  940MOL0     H29678  12.117   9.633   3.358 -1.7768 -2.6051 -3.4459
  940MOL0     H29679  12.243   9.573   3.673 -1.8672  1.8709 -1.4273
  940MOL0     H29680  12.283   9.507   3.516 -0.0311  1.7850 -0.2347
  940MOL0     H29681  12.236   9.396   3.635 -5.0347 -0.7487  0.3857
  940MOL0     H29682  12.057   9.185   3.916 -1.7602  0.0357  0.3082
  940MOL0     H29683  12.078   9.106   4.147 -1.7636 -0.4276 -0.8175
  940MOL0     H29684  12.280   9.421   4.397 -2.6965  2.8160 -2.5942
  940MOL0     H29685  12.121   9.446   4.448  1.3967  1.0567 -0.0807
  940MOL0     H29686  12.123   9.222   4.585 -0.1003  0.9020  0.9487
  940MOL0     H29687  12.306   9.225   4.562 -1.0046 -2.0019 -1.1548
  940MOL0     H29688  12.317   9.443   4.661 -2.6603  1.7198  1.0279
  940MOL0     H29689  12.271   9.315   4.770  0.7130 -0.0421 -0.2300
  940MOL0     H29690  12.027   9.368   4.741 -1.6987  1.8335  4.9214
  940MOL0     H29691  12.077   9.518   4.663  1.2220 -0.4311 -0.8303
  940MOL0     H29692  12.152   9.425   4.951  3.3076 -1.5101 -2.6693
  940MOL0     H29693  12.173   9.589   4.903 -0.2926 -0.1971  3.0733
  940MOL0     H29694  11.910   9.446   4.910  1.6435 -0.5471 -0.0942
  940MOL0     H29695  11.926   9.598   4.820 -2.8741 -0.3313  0.8053
  940MOL0     H29696  12.004   9.712   5.015 -1.1992  0.3574  2.4680
  940MOL0     H29697  11.979   9.554   5.114 -2.2250 -3.7026 -1.5512
  940MOL0     H29698  11.744   9.568   5.066  3.1621 -1.9935  1.6984
  940MOL0     H29699  11.764   9.718   4.979 -0.1634 -0.5876 -0.0789
  940MOL0     H29700  12.155   9.532   4.244  1.1537  0.4419 -0.4865
  940MOL0     H29701  12.080   9.594   4.019 -0.2276 -0.7939 -1.7115
  940MOL0     H29702  11.734   9.439   3.618 -0.7323  0.9615 -0.0381
  940MOL0     H29703  11.697   9.549   3.416 -0.8934 -1.6499  1.2823
  940MOL0     H29704  11.187  10.639   1.848 -1.6914 -0.1731 -2.4705
  940MOL0     H29705  11.126  10.829   1.686  1.6987  0.2351  1.1171
  940MOL0     H29706  11.098  11.314   1.742  0.7210  2.5564  0.2952
  940MOL0     H29707  11.102  11.524   1.612 -1.6108  1.7453  0.8845
  940MOL0     H29708  10.956  11.521   1.210 -0.6261  1.6171 -2.6634
  940MOL0     H29709  10.821  11.617   1.268  0.1514 -4.0683 -0.6819
  940MOL0     H29710  11.097  11.735   1.233 -0.4804 -1.2187  2.6053
  940MOL0     H29711  10.950  11.828   1.238 -0.4670 -1.1428  1.7786
  940MOL0     H29712  11.054  11.638   1.025  0.9103 -1.5245  0.4461
  940MOL0     H29713  10.880  11.682   1.035  0.5723 -0.9249  1.7089
  940MOL0     H29714  10.956  11.821   0.859  0.5991 -0.7813  0.5097
  940MOL0     H29715  11.109  11.845   0.931 -0.4953  1.8298 -5.1003
  940MOL0     H29716  10.914  12.180   1.091 -2.7523 -0.8132  3.6780
  940MOL0     H29717  10.810  11.384   1.354  0.3952 -1.1077 -1.3273
  940MOL0     H29718  10.742  11.176   1.321  0.2619  0.6840  0.9798
  940MOL0     H29719  10.885  11.062   1.334 -0.7659  1.8521 -2.7278
  940MOL0     H29720  10.749  11.066   1.452 -2.5391  0.6793 -0.2047
  941MOL0     O29721   5.992   6.012  10.851 -0.2984  0.5346  0.2372
  941MOL0     C29722   6.050   5.919  10.902  1.0465  1.2983 -0.5327
  941MOL0     O29723   6.156   5.922  10.983  0.1229 -0.5833  0.1864
  941MOL0     C29724   6.218   6.038  11.000  1.0333 -0.4199 -0.3556
  941MOL0     C29725   6.343   6.059  10.946 -0.1924 -0.1496 -0.1766
  941MOL0     C29726   6.436   6.160  10.986  0.5676  0.6547 -0.1284
  941MOL0     C29727   6.403   6.240  11.093 -0.1304 -0.5178 -0.4782
  941MOL0     O29728   6.489   6.337  11.136  0.1787 -0.8993 -0.6227
  941MOL0     C29729   6.626   6.303  11.153  0.2056  0.5741  0.4317
  941MOL0     C29730   6.703   6.393  11.060  0.1468 -0.0251  1.0579
  941MOL0     C29731   6.710   6.540  11.097 -0.5001 -0.5462  1.0888
  941MOL0     C29732   6.802   6.628  11.010 -0.1188 -0.0187  1.0090
  941MOL0     C29733   6.768   6.650  10.871 -0.9902 -0.7060 -0.0810
  941MOL0     C29734   6.879   6.716  10.790 -0.3952 -0.2827 -1.3517
  941MOL0     C29735   6.829   6.751  10.653  0.8620 -0.1029  0.3703
  941MOL0     C29736   6.714   6.848  10.639  0.7830 -0.1334 -0.4829
  941MOL0     N29737   6.751   6.977  10.698 -0.1469 -0.6847 -0.0088
  941MOL0     C29738   6.808   7.091  10.628  0.1305 -0.1495 -0.4226
  941MOL0     C29739   6.842   7.180  10.723  0.6115 -0.3890 -0.0239
  941MOL0     C29740   6.897   7.317  10.714 -0.0528 -0.0772  0.2864
  941MOL0     C29741   6.997   7.330  10.581  0.6898 -0.0598 -0.8901
  941MOL0     C29742   7.113   7.239  10.591  0.1901 -0.2627  0.1040
  941MOL0     C29743   7.190   7.220  10.453  1.1382  0.2776  0.5486
  941MOL0     O29744   7.273   7.104  10.469 -0.6285 -0.7435  0.7080
  941MOL0     C29745   7.407   7.136  10.453  0.1956 -0.1910 -0.0716
  941MOL0     C29746   7.486   7.094  10.335  0.6941 -0.0810 -1.0073
  941MOL0     C29747   7.623   7.125  10.321 -0.3090 -0.1517 -0.0861
  941MOL0     C29748   7.704   7.058  10.206  0.8087  0.0929  0.9117
  941MOL0     C29749   7.689   7.202  10.420 -0.6928 -0.5762 -0.7947
  941MOL0     C29750   7.837   7.223  10.429 -0.4507  0.3136 -0.8035
  941MOL0     O29751   7.915   7.229  10.311  0.1545 -0.0479  0.8229
  941MOL0     C29752   8.039   7.291  10.310  0.9206  0.6648 -0.5464
  941MOL0     C29753   8.057   7.426  10.316 -0.9063 -0.8442 -0.8189
  941MOL0     C29754   8.186   7.478  10.328 -0.2399  0.0627 -0.1474
  941MOL0     C29755   8.292   7.382  10.318 -0.3440 -0.0601  1.0044
  941MOL0     O29756   8.432   7.412  10.314  0.4878  0.5906 -0.4557
  941MOL0     C29757   8.488   7.533  10.366  0.5152 -0.2193  0.1861
  941MOL0     C29758   8.633   7.525  10.342  0.8326 -0.5342 -0.8713
  941MOL0     C29759   8.677   7.534  10.200 -0.1678 -0.5661 -0.5875
  941MOL0     C29760   8.820   7.475  10.194 -0.6058  0.9560 -0.0458
  941MOL0     C29761   8.868   7.464  10.047 -0.4329 -0.0712 -1.2662
  941MOL0     C29762   8.861   7.601   9.968 -0.9021  1.3674 -0.1968
  941MOL0     C29763   8.923   7.579   9.825 -0.2110 -0.0058  0.3763
  941MOL0     C29764   8.902   7.692   9.725  0.6766 -1.3690  0.3799
  941MOL0    Cl29765   8.733   7.713   9.668 -0.6155 -0.0807  0.0283
  941MOL0     C29766   8.271   7.243  10.312 -0.7823 -0.1938  0.5674
  941MOL0     C29767   8.147   7.199  10.323  1.5340 -0.0463 -0.1290
  941MOL0     O29768   7.887   7.230  10.541 -0.0188  0.3033 -0.3426
  941MOL0     C29769   7.617   7.246  10.525  0.1205 -0.1917  0.2304
  941MOL0     C29770   7.486   7.206  10.546  0.1885 -0.2671  0.7118
  941MOL0     N29771   6.813   7.119  10.852  0.2022 -1.0273  0.1591
  941MOL0     N29772   6.746   7.007  10.837  0.2319  0.7863 -0.6111
  941MOL0     C29773   6.276   6.230  11.145 -0.2891  0.6039 -0.2848
  941MOL0     C29774   6.184   6.117  11.111  0.0181 -0.2841  0.4214
  941MOL0     C29775   5.994   5.782  10.882  0.5281 -0.0762 -0.3987
  941MOL0     C29776   5.932   5.753  10.764  0.6924  0.6243  0.0926
  941MOL0     C29777   5.872   5.628  10.740  0.0362  0.5311  0.1103
  941MOL0     C29778   5.886   5.524  10.834 -0.7950  0.3591  0.0642
  941MOL0     O29779   5.845   5.395  10.807 -0.0509 -0.2830 -0.0260
  941MOL0     C29780   5.723   5.353  10.853  0.3617 -1.1328 -0.6682
  941MOL0     C29781   5.696   5.203  10.843 -0.2091  0.6032  0.3604
  941MOL0     C29782   5.550   5.154  10.904 -0.8007  0.2650 -0.1231
  941MOL0     C29783   5.569   5.112  11.045  0.7923 -1.3370  0.4033
  941MOL0     C29784   5.452   5.167  11.124 -0.5175  0.0790  0.3528
  941MOL0     C29785   5.355   5.206  11.188 -0.7110  0.0057 -0.0863
  941MOL0     C29786   5.948   5.555  10.955  0.6514 -0.4354  0.5258
  941MOL0     C29787   6.001   5.673  10.986 -1.0954 -0.2703  0.0469
  941MOL0     C29788   6.027   5.694  11.133  0.9969  0.4850 -0.4687
  941MOL0     H29789   6.358   5.974  10.879  1.3390 -0.7868  0.9191
  941MOL0     H29790   6.533   6.170  10.938  0.0843  2.0321 -0.8798
  941MOL0     H29791   6.641   6.195  11.137 -1.7493  0.2160  0.7500
  941MOL0     H29792   6.664   6.312  11.255  0.8562 -0.3419  0.2877
  941MOL0     H29793   6.800   6.350  11.033  0.9115  2.5694 -0.7394
  941MOL0     H29794   6.645   6.375  10.969  0.3715 -2.9049  1.4211
  941MOL0     H29795   6.607   6.577  11.096 -0.4467  0.0318 -3.4255
  941MOL0     H29796   6.746   6.561  11.198 -0.2197  1.4953  0.6041
  941MOL0     H29797   6.824   6.726  11.055 -2.7501  0.6336  0.9957
  941MOL0     H29798   6.904   6.587  11.015 -0.1975 -0.0640  3.0762
  941MOL0     H29799   6.689   6.722  10.890 -0.2118  0.3558 -0.7250
  941MOL0     H29800   6.740   6.564  10.808  0.3048  0.2127 -2.0393
  941MOL0     H29801   6.924   6.802  10.840 -1.5413  2.1344 -4.1354
  941MOL0     H29802   6.962   6.645  10.793  2.6361  3.0295  2.1405
  941MOL0     H29803   6.787   6.657  10.615  1.3950 -0.9303  1.7292
  941MOL0     H29804   6.914   6.780  10.590 -0.0066  1.0288 -0.3183
  941MOL0     H29805   6.690   6.859  10.533  3.3729  1.0430 -1.0242
  941MOL0     H29806   6.624   6.807  10.685 -0.4355  1.9596 -0.8652
  941MOL0     H29807   6.825   7.105  10.522  0.7098 -1.9470 -0.5863
  941MOL0     H29808   6.952   7.334  10.807 -3.2892  0.6645  2.2189
  941MOL0     H29809   6.823   7.396  10.705  0.5421  0.4125 -0.4020
  941MOL0     H29810   6.926   7.298  10.504 -1.5619 -0.1245  1.0978
  941MOL0     H29811   7.019   7.437  10.573  0.0391  0.2459  1.0042
  941MOL0     H29812   7.183   7.281  10.663 -0.0401  1.1458 -0.4732
  941MOL0     H29813   7.068   7.144  10.621 -4.1622  1.9166  1.3620
  941MOL0     H29814   7.116   7.206  10.374 -0.9724 -0.6184  2.5512
  941MOL0     H29815   7.248   7.310  10.428 -1.2913  2.7925  3.2081
  941MOL0     H29816   7.425   7.032  10.271 -0.5869  1.4986 -1.3633
  941MOL0     H29817   7.726   7.128  10.125 -1.4721 -1.3310 -1.0681
  941MOL0     H29818   7.644   6.976  10.167  0.2592  1.1013 -0.4114
  941MOL0     H29819   7.790   7.006  10.250  0.9232 -1.1080 -0.6621
  941MOL0     H29820   7.977   7.499  10.313 -0.6746 -0.5426  0.0484
  941MOL0     H29821   8.212   7.582  10.340 -2.9505  0.6940  0.9221
  941MOL0     H29822   8.435   7.619  10.323 -1.6238 -2.2056 -1.4225
  941MOL0     H29823   8.470   7.542  10.474 -3.4977 -0.7803 -0.2874
  941MOL0     H29824   8.687   7.608  10.389  0.4457  0.2311 -1.7529
  941MOL0     H29825   8.672   7.435  10.391  0.4724 -1.2970 -1.9473
  941MOL0     H29826   8.686   7.636  10.161 -3.1365 -1.0381 -2.8355
  941MOL0     H29827   8.611   7.471  10.140 -0.9623  0.7337 -1.1134
  941MOL0     H29828   8.839   7.372  10.227  1.9413  1.0705 -0.9356
  941MOL0     H29829   8.886   7.540  10.253 -1.2457  1.2084  0.3982
  941MOL0     H29830   8.971   7.426  10.039 -0.0762  0.9697 -1.8409
  941MOL0     H29831   8.811   7.391   9.989  0.9261 -3.6301  1.5088
  941MOL0     H29832   8.923   7.674  10.021  5.0959 -1.8203 -1.9088
  941MOL0     H29833   8.759   7.630   9.944 -0.9117 -0.2402 -2.3658
  941MOL0     H29834   8.881   7.489   9.780  1.9673  0.2166 -2.3747
  941MOL0     H29835   9.032   7.575   9.828 -0.0181  0.2817 -2.7781
  941MOL0     H29836   8.961   7.682   9.634 -2.7520 -0.7310 -2.1278
  941MOL0     H29837   8.923   7.791   9.767 -1.1974  1.2675 -4.1430
  941MOL0     H29838   8.348   7.169  10.324 -1.9581 -1.5198  0.1961
  941MOL0     H29839   8.126   7.094  10.333  1.8078 -0.4096 -2.5885
  941MOL0     H29840   7.662   7.316  10.595 -1.5807  2.6457 -1.3250
  941MOL0     H29841   7.449   7.245  10.640  0.5813  1.2807  0.2451
  941MOL0     H29842   6.247   6.297  11.225 -1.7028 -3.8595  3.3851
  941MOL0     H29843   6.095   6.115  11.173  0.0873 -0.5620  0.5172
  941MOL0     H29844   5.920   5.833  10.692 -0.3503 -2.1644 -3.1008
  941MOL0     H29845   5.801   5.609  10.661  0.4848  0.1570 -0.2125
  941MOL0     H29846   5.718   5.371  10.961 -2.0036  1.7229 -1.1070
  941MOL0     H29847   5.639   5.406  10.806  0.6690 -0.5388 -0.5532
  941MOL0     H29848   5.773   5.138  10.885  0.3410  0.5439 -0.6819
  941MOL0     H29849   5.688   5.174  10.738 -1.8647 -1.1584  0.9167
  941MOL0     H29850   5.481   5.238  10.892 -0.3484  0.7455  0.5668
  941MOL0     H29851   5.505   5.070  10.849  0.9493 -0.1641 -0.9539
  941MOL0     H29852   5.666   5.144  11.085  0.5293  0.2970 -0.1659
  941MOL0     H29853   5.575   5.005  11.067  4.6938 -0.6962  3.8141
  941MOL0     H29854   5.279   5.236  11.257  1.9779 -1.2767  3.7369
  941MOL0     H29855   5.942   5.471  11.023 -0.8108 -4.4882 -3.9864
  941MOL0     H29856   6.129   5.686  11.172  1.2092  0.8515 -0.9330
  941MOL0     H29857   5.978   5.785  11.168 -0.3480 -0.2347 -0.3912
  941MOL0     H29858   5.976   5.614  11.187 -1.5317  1.1585 -1.6918
  942MOL0     O29859   1.256   2.651   6.161  0.5805  0.3558  0.1206
  942MOL0     C29860   1.147   2.656   6.217  1.0457 -0.4990  0.3419
  942MOL0     O29861   1.100   2.564   6.297  0.1141 -0.5688 -0.6309
  942MOL0     C29862   1.184   2.465   6.333  0.5576  0.2342 -0.1269
  942MOL0     C29863   1.163   2.349   6.261  0.1965  1.0059  0.3982
  942MOL0     C29864   1.201   2.229   6.311  0.2648  0.8584 -0.1067
  942MOL0     C29865   1.288   2.220   6.419 -0.1018  0.5239  0.1921
  942MOL0     O29866   1.350   2.105   6.448 -0.6937 -0.4352  0.2064
  942MOL0     C29867   1.474   2.089   6.379  0.4976 -0.3504  0.1223
  942MOL0     C29868   1.535   1.960   6.428  0.6285 -0.8040 -0.4948
  942MOL0     C29869   1.582   1.976   6.570 -0.6475 -0.3752  0.1732
  942MOL0     C29870   1.655   1.841   6.608  0.2927 -0.2589 -1.2500
  942MOL0     C29871   1.728   1.849   6.736 -0.6802  0.3494  0.6161
  942MOL0     C29872   1.847   1.950   6.743 -0.0532 -0.5854 -0.1702
  942MOL0     C29873   1.939   1.920   6.864 -0.0207 -0.3260  0.4857
  942MOL0     C29874   2.016   2.046   6.908  0.5216 -0.7642  0.8134
  942MOL0     N29875   1.930   2.151   6.956 -0.6300 -0.8321  0.0445
  942MOL0     C29876   1.895   2.261   6.890  0.4008 -0.7843  0.6975
  942MOL0     C29877   1.860   2.360   6.967  0.0246  0.5781 -0.0191
  942MOL0     C29878   1.870   2.502   6.925 -0.7334 -0.7995 -0.3403
  942MOL0     C29879   1.774   2.548   6.810  0.2951 -0.1237 -1.1232
  942MOL0     C29880   1.731   2.696   6.816  0.3444 -0.7727  0.8690
  942MOL0     C29881   1.840   2.787   6.754 -0.2271  0.2017  0.1840
  942MOL0     O29882   1.968   2.795   6.824  0.1021  0.0850  0.0837
  942MOL0     C29883   2.041   2.902   6.804 -0.5779  0.0674 -0.0857
  942MOL0     C29884   2.020   3.003   6.706 -0.1323  0.2275 -0.1983
  942MOL0     C29885   2.100   3.119   6.699  0.6023 -0.3504  1.0355
  942MOL0     C29886   2.054   3.209   6.599  0.8449  0.3334 -0.4412
  942MOL0     C29887   2.218   3.132   6.770  0.0735 -0.5697 -0.7797
  942MOL0     C29888   2.305   3.246   6.774 -0.4324 -0.2506  0.0222
  942MOL0     O29889   2.264   3.361   6.718 -0.8784 -0.3728 -0.3587
  942MOL0     C29890   2.311   3.481   6.769 -0.7194 -0.0852 -0.5889
  942MOL0     C29891   2.451   3.527   6.759  0.4824 -0.2736  0.1247
  942MOL0     C29892   2.503   3.641   6.818  0.7609 -0.5506 -0.0047
  942MOL0     C29893   2.411   3.722   6.888 -0.2237 -0.0821  0.0796
  942MOL0     O29894   2.451   3.830   6.945 -0.4100 -0.8059 -0.1811
  942MOL0     C29895   2.349   3.932   6.961 -1.1498 -0.2779  0.3282
  942MOL0     C29896   2.427   4.065   6.992 -0.7734 -0.5822  0.0705
  942MOL0     C29897   2.535   4.115   6.893  1.1641 -0.1100 -0.8524
  942MOL0     C29898   2.471   4.129   6.755  0.6559 -0.2766 -0.5770
  942MOL0     C29899   2.571   4.177   6.647  0.0250 -0.4366 -0.9390
  942MOL0     C29900   2.669   4.073   6.609  0.0780  0.4256  0.0250
  942MOL0     C29901   2.757   4.099   6.490  0.0958 -0.7666 -0.5921
  942MOL0     C29902   2.829   3.978   6.439  0.6264  0.0945  0.2054
  942MOL0    Cl29903   2.885   3.865   6.574 -0.1948 -0.0072  0.5609
  942MOL0     C29904   2.272   3.682   6.904 -0.4280  0.3818  0.2168
  942MOL0     C29905   2.229   3.568   6.831 -0.0248  0.9165 -0.8676
  942MOL0     O29906   2.420   3.230   6.823  0.1261 -0.3433  0.4408
  942MOL0     C29907   2.256   3.018   6.849 -0.2663  0.7923 -0.2784
  942MOL0     C29908   2.171   2.904   6.860  0.7896 -0.0165 -0.0206
  942MOL0     N29909   1.858   2.296   7.095  0.8792 -0.0638 -0.6553
  942MOL0     N29910   1.905   2.170   7.090 -0.4831 -0.6031 -0.0624
  942MOL0     C29911   1.321   2.338   6.484  0.3961 -0.5174 -0.2269
  942MOL0     C29912   1.267   2.461   6.446 -0.4660 -0.7665 -0.1376
  942MOL0     C29913   1.070   2.774   6.197  0.2498 -0.2406  1.8217
  942MOL0     C29914   0.944   2.759   6.134  0.0864  0.0619 -0.4699
  942MOL0     C29915   0.875   2.864   6.083 -0.1572 -0.4700 -0.5347
  942MOL0     C29916   0.916   2.990   6.105 -0.6631 -0.8167 -0.7346
  942MOL0     O29917   0.864   3.108   6.052  0.5534 -0.6564  0.9654
  942MOL0     C29918   0.729   3.106   6.016 -0.1510  0.9990  0.2245
  942MOL0     C29919   0.698   3.056   5.869 -0.0449 -1.2154 -0.2033
  942MOL0     C29920   0.552   2.996   5.865  0.4399  0.3385 -0.6597
  942MOL0     C29921   0.536   2.904   5.740  1.0810  0.5930 -0.4295
  942MOL0     C29922   0.395   2.856   5.744  0.7482 -0.2266  0.4779
  942MOL0     C29923   0.275   2.831   5.737 -0.2510  0.2223 -1.2467
  942MOL0     C29924   1.034   3.014   6.183  0.0108 -0.2749  0.0608
  942MOL0     C29925   1.108   2.904   6.229 -0.6962  0.0479  0.8990
  942MOL0     C29926   1.239   2.937   6.310 -0.0615  0.0669  0.5636
  942MOL0     H29927   1.110   2.365   6.168  0.0851 -4.9538 -0.9175
  942MOL0     H29928   1.186   2.135   6.259  0.2473  1.6713 -1.6147
  942MOL0     H29929   1.548   2.169   6.393 -2.0019  1.9369  1.0864
  942MOL0     H29930   1.441   2.080   6.275 -0.0316 -0.9721  0.3369
  942MOL0     H29931   1.469   1.873   6.430 -2.2850  1.2390  2.2295
  942MOL0     H29932   1.611   1.931   6.355  0.2580 -2.1476 -0.3851
  942MOL0     H29933   1.648   2.063   6.568 -4.6743  3.1001  2.7648
  942MOL0     H29934   1.502   1.991   6.643 -0.0613  3.3501  0.2485
  942MOL0     H29935   1.576   1.767   6.618 -0.9531  0.9045 -2.0670
  942MOL0     H29936   1.731   1.801   6.540 -0.2932 -1.9654 -0.9393
  942MOL0     H29937   1.772   1.751   6.759  2.1108 -0.1845 -5.0903
  942MOL0     H29938   1.660   1.876   6.817  3.7561 -1.6710  5.6170
  942MOL0     H29939   1.904   1.934   6.651  1.8413  1.0438  0.6652
  942MOL0     H29940   1.801   2.049   6.746 -3.0858 -1.9002  1.5193
  942MOL0     H29941   1.999   1.830   6.846  0.4921  0.3737 -1.4445
  942MOL0     H29942   1.864   1.892   6.940 -2.6917 -0.5358 -2.0594
  942MOL0     H29943   2.084   2.019   6.989 -1.9750 -3.1111  2.2971
  942MOL0     H29944   2.087   2.089   6.836  0.7753 -0.8856  0.9912
  942MOL0     H29945   1.913   2.279   6.785 -1.5401  1.4193  0.6633
  942MOL0     H29946   1.976   2.518   6.902  0.9359 -3.9679  3.7540
  942MOL0     H29947   1.856   2.564   7.014 -0.0501  0.1766 -0.8918
  942MOL0     H29948   1.817   2.512   6.716 -3.4955 -1.8640 -2.4054
  942MOL0     H29949   1.680   2.493   6.820  0.0647  0.6337  1.8774
  942MOL0     H29950   1.645   2.704   6.749  2.0146  5.8679 -1.2106
  942MOL0     H29951   1.702   2.737   6.914 -1.2731  0.3833 -0.0367
  942MOL0     H29952   1.853   2.759   6.649 -1.0463 -0.7733  0.3283
  942MOL0     H29953   1.783   2.880   6.766 -0.2127 -0.0178  2.2993
  942MOL0     H29954   1.931   2.998   6.643 -1.6257 -0.8591  1.8920
  942MOL0     H29955   1.963   3.173   6.549 -0.7463 -0.5172  2.8138
  942MOL0     H29956   2.128   3.223   6.519 -1.3215  1.0267 -2.4460
  942MOL0     H29957   2.022   3.304   6.643 -1.4510 -1.0326  1.0629
  942MOL0     H29958   2.520   3.454   6.718 -3.6667 -2.8674 -3.1311
  942MOL0     H29959   2.604   3.680   6.821 -0.2735  2.3226  0.9156
  942MOL0     H29960   2.282   3.948   6.876 -1.9567  3.1210  1.4334
  942MOL0     H29961   2.290   3.906   7.050 -0.8935 -1.2878  0.2167
  942MOL0     H29962   2.351   4.144   6.992 -1.4646 -1.2441  0.2430
  942MOL0     H29963   2.468   4.060   7.094  1.6176  5.7996 -0.0831
  942MOL0     H29964   2.623   4.051   6.898  1.6812  0.6845  0.6304
  942MOL0     H29965   2.561   4.212   6.936 -0.6967 -1.4409  4.0160
  942MOL0     H29966   2.381   4.192   6.759 -0.4670 -1.8245 -0.1835
  942MOL0     H29967   2.434   4.033   6.717  3.3993 -2.3051  1.5235
  942MOL0     H29968   2.513   4.210   6.560 -1.0996  1.1991  0.3792
  942MOL0     H29969   2.624   4.260   6.693 -2.1739  1.2335 -1.2655
  942MOL0     H29970   2.614   3.981   6.589 -0.6226  1.5951 -4.4844
  942MOL0     H29971   2.729   4.048   6.697  0.0488 -0.3688 -0.1724
  942MOL0     H29972   2.832   4.172   6.523 -0.4255 -1.0741  1.4369
  942MOL0     H29973   2.699   4.145   6.410  1.3765  2.4876  0.2050
  942MOL0     H29974   2.908   4.014   6.372 -2.6132  3.0269 -2.4047
  942MOL0     H29975   2.772   3.915   6.371  0.9401  0.2020 -0.1576
  942MOL0     H29976   2.194   3.728   6.963 -0.6534 -0.5193  0.6295
  942MOL0     H29977   2.122   3.553   6.833 -0.0527  0.8931 -1.8507
  942MOL0     H29978   2.352   2.995   6.893 -1.3017 -0.7806  1.2728
  942MOL0     H29979   2.200   2.815   6.914  1.4919  0.8502  1.0708
  942MOL0     H29980   1.357   2.344   6.586 -0.4620  4.8174  0.0203
  942MOL0     H29981   1.274   2.546   6.512 -2.9190  0.4075 -1.2874
  942MOL0     H29982   0.898   2.664   6.109 -0.3188 -0.4040  1.8395
  942MOL0     H29983   0.789   2.838   6.021  1.4585 -0.5736 -2.8913
  942MOL0     H29984   0.686   3.036   6.088 -0.3799  1.7686  0.8431
  942MOL0     H29985   0.683   3.204   6.030 -0.3572  0.9093  0.1730
  942MOL0     H29986   0.771   2.982   5.836  3.2527  1.7127 -0.2031
  942MOL0     H29987   0.717   3.139   5.800 -0.8286 -1.6687 -0.9718
  942MOL0     H29988   0.541   2.929   5.950 -3.3319 -1.2544 -2.1864
  942MOL0     H29989   0.468   3.064   5.878 -2.4076 -2.6389 -2.0553
  942MOL0     H29990   0.605   2.820   5.749 -0.0843 -0.3294  0.3420
  942MOL0     H29991   0.575   2.951   5.650  1.2525  0.5648 -0.3694
  942MOL0     H29992   0.179   2.784   5.734 -0.6521  1.0765 -3.0948
  942MOL0     H29993   1.075   3.113   6.202 -0.4379 -0.2024  0.6727
  942MOL0     H29994   1.257   2.874   6.397  0.9525  0.3990  0.6015
  942MOL0     H29995   1.312   2.914   6.232  0.5889  0.5420  1.0279
  942MOL0     H29996   1.232   3.041   6.343  0.7351 -0.3703  2.2177
  943MOL0     O29997   1.247   7.647   8.820 -0.0748 -0.9859 -0.3750
  943MOL0     C29998   1.296   7.544   8.776  0.5272  0.3405 -1.4724
  943MOL0     O29999   1.321   7.435   8.850  0.9430  0.3775  0.3948
  943MOL0     C30000   1.307   7.448   8.984 -0.1434 -0.4580 -0.6363
  943MOL0     C30001   1.422   7.461   9.069 -0.5659 -0.1530  1.1165
  943MOL0     C30002   1.410   7.488   9.214 -0.5363  0.8517 -0.8907
  943MOL0     C30003   1.281   7.495   9.276  0.4530 -0.5052 -0.5945
  943MOL0     O30004   1.275   7.515   9.409 -0.2312  0.1451  0.2719
  943MOL0     C30005   1.178   7.621   9.462  0.0298  0.6260  0.9722
  943MOL0     C30006   1.174   7.630   9.612  0.2333  0.6604  0.1126
  943MOL0     C30007   1.054   7.714   9.657  0.7081  0.6639  0.1471
  943MOL0     C30008   1.075   7.864   9.638  1.0926 -0.3790  0.6880
  943MOL0     C30009   0.954   7.925   9.700  0.0913 -0.5736  0.3773
  943MOL0     C30010   0.987   8.076   9.696 -0.1105 -0.7766  0.1860
  943MOL0     C30011   0.898   8.163   9.783  0.5598  0.8536 -0.6332
  943MOL0     C30012   0.895   8.136   9.938 -0.5350 -1.7198  0.8408
  943MOL0     N30013   1.033   8.128   9.993 -0.2474 -0.4149 -0.7194
  943MOL0     C30014   1.122   8.226   9.982 -0.6829 -0.4229  0.9737
  943MOL0     C30015   1.235   8.176  10.041 -0.0947 -0.5595  0.3738
  943MOL0     C30016   1.371   8.234  10.051  0.0615 -0.1809  0.1846
  943MOL0     C30017   1.438   8.262   9.916 -0.2423  0.1375 -0.5102
  943MOL0     C30018   1.494   8.154   9.830  0.0444 -0.4309 -0.7184
  943MOL0     C30019   1.394   8.046   9.784  0.4097  0.5154  0.1205
  943MOL0     O30020   1.374   7.946   9.892  0.2396  0.5042  0.2736
  943MOL0     C30021   1.469   7.856   9.931 -0.1336  0.2441  0.1208
  943MOL0     C30022   1.523   7.771   9.837 -0.4435  0.6442  0.2554
  943MOL0     C30023   1.628   7.678   9.866 -0.8286 -0.4102 -0.1219
  943MOL0     C30024   1.656   7.589   9.755 -0.0828  0.3811 -0.0071
  943MOL0     C30025   1.690   7.695   9.992 -0.8623  0.7128  0.8543
  943MOL0     C30026   1.810   7.611  10.035  0.0374  0.0844  0.3147
  943MOL0     O30027   1.826   7.584  10.165  0.6930 -0.1516 -0.6966
  943MOL0     C30028   1.926   7.508  10.224 -0.1082  0.2900 -1.1002
  943MOL0     C30029   1.878   7.453  10.345  0.1042  0.1984 -0.6944
  943MOL0     C30030   1.953   7.372  10.430  0.8991 -0.5108 -0.4506
  943MOL0     C30031   2.083   7.344  10.394 -0.4720 -0.2510 -0.6171
  943MOL0     O30032   2.178   7.275  10.475 -0.0115 -0.7042  0.9629
  943MOL0     C30033   2.155   7.248  10.609  0.6986  0.2272  0.1964
  943MOL0     C30034   2.276   7.186  10.671  0.1602  0.6517 -0.3834
  943MOL0     C30035   2.271   7.035  10.644 -0.8161 -1.1460  0.0789
  943MOL0     C30036   2.397   6.962  10.696  0.5569 -0.8511 -0.5580
  943MOL0     C30037   2.360   6.811  10.683 -0.4404 -0.3694  0.3362
  943MOL0     C30038   2.452   6.724  10.766 -0.2485 -0.1305 -0.2303
  943MOL0     C30039   2.429   6.570  10.746 -0.2317  0.1844  0.5589
  943MOL0     C30040   2.287   6.525  10.740  0.3163  1.1672 -0.1918
  943MOL0    Cl30041   2.281   6.341  10.739 -0.5164  0.1831  0.4098
  943MOL0     C30042   2.136   7.400  10.275  0.7094 -1.1480 -0.5680
  943MOL0     C30043   2.057   7.475  10.186  0.3808 -0.3845 -0.2395
  943MOL0     O30044   1.870   7.548   9.947  0.2074  0.3219  0.0611
  943MOL0     C30045   1.634   7.776  10.085 -0.0627  0.6354 -0.2290
  943MOL0     C30046   1.521   7.864  10.059 -0.3727  0.4469 -0.1352
  943MOL0     N30047   1.204   8.060  10.099 -0.3393  0.1281 -0.2510
  943MOL0     N30048   1.084   8.024  10.069 -0.7528 -0.6451  0.7169
  943MOL0     C30049   1.170   7.486   9.189  0.3135  0.1163  0.2885
  943MOL0     C30050   1.190   7.457   9.049 -0.0433  0.8877  0.1088
  943MOL0     C30051   1.337   7.539   8.630  0.4595 -0.9067 -0.6069
  943MOL0     C30052   1.371   7.412   8.585 -0.7543  0.5645 -1.1020
  943MOL0     C30053   1.409   7.397   8.449  1.4377 -0.4732 -0.6048
  943MOL0     C30054   1.427   7.500   8.356 -0.6287 -0.0334  0.2339
  943MOL0     O30055   1.474   7.478   8.233  0.5398 -0.2238  0.2528
  943MOL0     C30056   1.491   7.347   8.176 -0.4731 -1.1163 -1.0523
  943MOL0     C30057   1.640   7.296   8.189 -0.1524 -0.1460 -0.7506
  943MOL0     C30058   1.649   7.141   8.205  0.6064 -0.2225  0.5488
  943MOL0     C30059   1.661   7.071   8.070  0.8217  0.5090 -0.3182
  943MOL0     C30060   1.544   7.078   7.992 -0.0052 -0.3935  0.1019
  943MOL0     C30061   1.434   7.064   7.936 -0.1873 -0.4182 -0.2665
  943MOL0     C30062   1.398   7.630   8.402 -0.5373  0.2900 -0.8926
  943MOL0     C30063   1.365   7.656   8.542  0.0446  0.2517 -1.6776
  943MOL0     C30064   1.312   7.795   8.579  0.7632 -0.7106  0.3412
  943MOL0     H30065   1.515   7.447   9.016 -1.8443  0.1661 -1.3619
  943MOL0     H30066   1.505   7.503   9.264 -1.1510  2.3713 -0.0981
  943MOL0     H30067   1.080   7.583   9.429 -1.0519  1.8141  2.6610
  943MOL0     H30068   1.193   7.719   9.416  0.4476  0.8923  1.6640
  943MOL0     H30069   1.161   7.533   9.662 -0.7068 -0.4831 -2.1598
  943MOL0     H30070   1.271   7.666   9.645  3.0284 -5.6472  0.1830
  943MOL0     H30071   0.962   7.679   9.608  0.8719 -1.9849  1.5693
  943MOL0     H30072   1.063   7.695   9.764  0.0711 -2.9641 -0.3137
  943MOL0     H30073   1.169   7.889   9.688  0.4564  2.8508  0.4989
  943MOL0     H30074   1.082   7.895   9.534  0.6578  0.2766  0.8463
  943MOL0     H30075   0.931   7.888   9.800  3.8873  0.3168  1.7610
  943MOL0     H30076   0.874   7.915   9.626  1.0290 -1.7739 -0.4979
  943MOL0     H30077   1.089   8.096   9.728  0.8937 -1.4267 -2.3754
  943MOL0     H30078   0.971   8.116   9.596 -1.5683  0.9804  1.0700
  943MOL0     H30079   0.795   8.158   9.747 -0.1142 -0.2692  1.3039
  943MOL0     H30080   0.930   8.264   9.755  1.3401  0.6950 -0.3370
  943MOL0     H30081   0.843   8.218   9.988 -0.9348  0.0153 -2.1495
  943MOL0     H30082   0.833   8.046   9.944 -0.7379 -1.9154 -2.4134
  943MOL0     H30083   1.109   8.318   9.926 -4.4068 -2.1024 -1.3387
  943MOL0     H30084   1.436   8.166  10.106  1.6353 -0.1843 -1.5879
  943MOL0     H30085   1.367   8.330  10.103 -1.7214  1.8609 -3.3101
  943MOL0     H30086   1.376   8.321   9.849 -0.1374  2.6433  1.4424
  943MOL0     H30087   1.531   8.316   9.937 -0.5760  1.1020 -1.4847
  943MOL0     H30088   1.530   8.195   9.735 -2.7667  0.1374 -1.6210
  943MOL0     H30089   1.578   8.111   9.885  0.2010  2.4741  1.5113
  943MOL0     H30090   1.297   8.090   9.759 -0.4035 -1.3558 -0.2074
  943MOL0     H30091   1.423   7.992   9.693  2.0294  1.1183  0.2488
  943MOL0     H30092   1.465   7.780   9.745 -3.1910  2.1268  1.9979
  943MOL0     H30093   1.693   7.493   9.793 -0.0779  0.1209 -0.6650
  943MOL0     H30094   1.734   7.637   9.694 -1.4200  0.6565 -1.5547
  943MOL0     H30095   1.574   7.568   9.687  0.2460  2.1240 -0.9958
  943MOL0     H30096   1.774   7.471  10.370 -0.7680 -3.3308 -1.3106
  943MOL0     H30097   1.905   7.330  10.518 -0.4728  1.2334 -0.3186
  943MOL0     H30098   2.134   7.343  10.660  0.6761  0.1106  0.4046
  943MOL0     H30099   2.072   7.177  10.612 -0.3786  1.4679  2.0205
  943MOL0     H30100   2.354   7.224  10.605  1.8431 -3.3993 -0.9739
  943MOL0     H30101   2.293   7.210  10.777  1.0346  0.5070 -0.4860
  943MOL0     H30102   2.252   7.019  10.538  0.6307  5.4668 -1.6012
  943MOL0     H30103   2.184   7.001  10.701 -2.7041  0.8929 -1.4591
  943MOL0     H30104   2.426   6.992  10.797  2.3879 -1.2902 -0.9159
  943MOL0     H30105   2.476   7.012  10.640 -1.7400  3.2777 -0.5092
  943MOL0     H30106   2.264   6.804  10.735 -1.1122  2.7514 -0.2368
  943MOL0     H30107   2.365   6.781  10.578  3.8020 -0.3137  0.3618
  943MOL0     H30108   2.427   6.746  10.870  1.3919 -2.6050  0.7824
  943MOL0     H30109   2.558   6.740  10.744  0.0681 -2.9804 -1.1583
  943MOL0     H30110   2.480   6.511  10.823  0.3015 -0.1360 -0.0324
  943MOL0     H30111   2.471   6.551  10.647  1.4070  3.3111  0.5297
  943MOL0     H30112   2.246   6.570  10.650  2.4173 -1.3450 -2.6047
  943MOL0     H30113   2.230   6.564  10.825 -2.1653 -1.1897 -0.6139
  943MOL0     H30114   2.242   7.392  10.253  0.3874 -2.6501 -1.7262
  943MOL0     H30115   2.095   7.518  10.093 -0.3987  0.0130 -0.3784
  943MOL0     H30116   1.679   7.788  10.183  1.1337  1.3168 -0.8543
  943MOL0     H30117   1.467   7.937  10.119 -0.8573  2.8765 -3.2508
  943MOL0     H30118   1.071   7.511   9.225  0.6171  0.3651  0.9802
  943MOL0     H30119   1.112   7.449   8.974 -0.6189  4.4363  0.1664
  943MOL0     H30120   1.371   7.330   8.656 -0.1775  1.9696  0.6219
  943MOL0     H30121   1.444   7.301   8.412  3.9574  0.2047 -0.1628
  943MOL0     H30122   1.406   7.286   8.209 -0.6288  0.1565  1.1686
  943MOL0     H30123   1.480   7.358   8.068  1.5223  0.5614 -1.1321
  943MOL0     H30124   1.688   7.331   8.281 -0.5773  1.4546 -1.1016
  943MOL0     H30125   1.690   7.318   8.095  0.8128 -4.5283 -1.4690
  943MOL0     H30126   1.741   7.105   8.251  2.6603  0.4756 -2.7142
  943MOL0     H30127   1.565   7.102   8.264 -0.0665  2.9327  1.8737
  943MOL0     H30128   1.679   6.964   8.081 -1.1749  0.2818  1.4164
  943MOL0     H30129   1.747   7.116   8.019  0.2496  1.1355 -0.7564
  943MOL0     H30130   1.338   7.049   7.890 -0.8360 -0.2667  0.9963
  943MOL0     H30131   1.406   7.718   8.339 -1.1507 -0.3102 -1.8246
  943MOL0     H30132   1.204   7.781   8.569  0.5472  1.9186 -2.7092
  943MOL0     H30133   1.335   7.833   8.679 -2.9135  0.6979  0.7918
  943MOL0     H30134   1.348   7.863   8.501  1.0816 -0.4560  0.7109
  944MOL0     O30135   3.969   4.481   8.787 -1.0346 -0.5551  0.3337
  944MOL0     C30136   3.992   4.364   8.806 -0.9856  0.3789 -0.2222
  944MOL0     O30137   3.990   4.289   8.924  0.4157 -0.0537  0.6530
  944MOL0     C30138   3.915   4.322   9.034  0.2919  0.5334 -0.3320
  944MOL0     C30139   3.932   4.242   9.147  0.4160 -0.4710 -0.3522
  944MOL0     C30140   3.854   4.252   9.270  0.1225  0.1811  0.8486
  944MOL0     C30141   3.747   4.350   9.279 -0.8073  0.3767 -0.0846
  944MOL0     O30142   3.668   4.378   9.386  0.3543 -0.5750 -0.2990
  944MOL0     C30143   3.661   4.276   9.488 -0.6567 -0.1117 -0.0432
  944MOL0     C30144   3.548   4.300   9.594  0.1251 -1.4759  0.3449
  944MOL0     C30145   3.538   4.199   9.700  0.4295 -0.0717  0.2722
  944MOL0     C30146   3.432   4.223   9.807  0.0338 -1.3324 -0.3304
  944MOL0     C30147   3.471   4.338   9.904  0.5085 -0.0621  0.1183
  944MOL0     C30148   3.373   4.345  10.019 -0.3214 -0.5919  0.0256
  944MOL0     C30149   3.392   4.228  10.109 -0.0763  0.0452 -0.6171
  944MOL0     C30150   3.347   4.234  10.256 -0.0520  0.7001 -0.2206
  944MOL0     N30151   3.403   4.334  10.335  0.4202  0.2055 -0.1327
  944MOL0     C30152   3.535   4.362  10.348  0.4374 -0.4085 -0.0444
  944MOL0     C30153   3.545   4.464  10.438  0.6401 -0.0536  0.0223
  944MOL0     C30154   3.676   4.520  10.507  0.5141  0.7302  0.3107
  944MOL0     C30155   3.674   4.481  10.651 -0.0557 -0.1614 -0.3437
  944MOL0     C30156   3.803   4.521  10.729 -0.4755  0.5343  0.3305
  944MOL0     C30157   3.820   4.450  10.862  0.2861  0.7838  0.6972
  944MOL0     O30158   3.829   4.310  10.816 -0.6195  0.8887 -0.7806
  944MOL0     C30159   3.790   4.215  10.909  0.9528  0.5115  0.0244
  944MOL0     C30160   3.862   4.106  10.952  0.3234 -0.8376  0.0453
  944MOL0     C30161   3.832   4.018  11.060  0.2911  0.3468  1.1904
  944MOL0     C30162   3.925   3.898  11.088 -0.5765 -0.8152  0.3385
  944MOL0     C30163   3.707   4.033  11.117 -0.2285 -0.1363  0.7944
  944MOL0     C30164   3.662   3.944  11.221  0.8235  0.6345 -0.4148
  944MOL0     O30165   3.753   3.914  11.326 -0.1479 -0.5183  0.1755
  944MOL0     C30166   3.744   3.796  11.400 -0.5276  0.0674  0.0120
  944MOL0     C30167   3.663   3.691  11.381  0.1508  1.0387 -0.5697
  944MOL0     C30168   3.686   3.564  11.443  0.1359  0.4272 -0.9936
  944MOL0     C30169   3.781   3.554  11.547 -0.5270 -0.2005  0.3047
  944MOL0     O30170   3.831   3.444  11.605  0.0070  0.0068 -0.1702
  944MOL0     C30171   3.756   3.319  11.587 -0.0796 -0.2915 -0.2762
  944MOL0     C30172   3.795   3.215  11.683  0.1799  0.9225  0.5744
  944MOL0     C30173   3.942   3.168  11.655  0.0556 -0.1347 -0.9958
  944MOL0     C30174   3.957   3.041  11.724  0.3610  0.1255 -0.3296
  944MOL0     C30175   4.111   3.018  11.745 -0.0657 -0.2379 -0.0433
  944MOL0     C30176   4.140   2.890  11.821 -0.3224 -0.8672  0.0761
  944MOL0     C30177   4.290   2.863  11.831  1.2977 -0.3044 -0.5347
  944MOL0     C30178   4.312   2.754  11.939  0.2924 -1.2802  0.0374
  944MOL0    Cl30179   4.488   2.735  11.991  0.0391 -0.1273 -0.2069
  944MOL0     C30180   3.851   3.665  11.585 -0.1700 -0.6007 -0.2403
  944MOL0     C30181   3.832   3.786  11.511 -0.4492 -0.0668 -0.9647
  944MOL0     O30182   3.546   3.907  11.220 -0.0638  0.7044 -0.2844
  944MOL0     C30183   3.627   4.144  11.073  1.1208  0.6881 -0.0650
  944MOL0     C30184   3.667   4.230  10.977 -0.8613 -0.8673  1.3543
  944MOL0     N30185   3.421   4.505  10.466  0.7320 -0.2146  0.6088
  944MOL0     N30186   3.337   4.428  10.400 -0.0867  0.3920  0.2101
  944MOL0     C30187   3.734   4.438   9.160 -0.1041  0.0438 -0.7357
  944MOL0     C30188   3.818   4.422   9.044 -0.2751 -0.5147  0.1494
  944MOL0     C30189   4.018   4.279   8.684 -0.2231 -0.1384  0.1675
  944MOL0     C30190   4.124   4.188   8.685  0.3404  0.0851  0.0469
  944MOL0     C30191   4.155   4.116   8.576  0.2437  0.5275  0.6028
  944MOL0     C30192   4.106   4.138   8.449  0.5134 -0.4519  0.0742
  944MOL0     O30193   4.163   4.078   8.335  0.2576 -0.4213  0.2294
  944MOL0     C30194   4.187   4.172   8.227  0.2788 -0.0016  0.9167
  944MOL0     C30195   4.253   4.091   8.124  0.1170  0.7773  1.0235
  944MOL0     C30196   4.402   4.061   8.152 -0.4401  0.5649 -0.1181
  944MOL0     C30197   4.470   3.975   8.042  0.6167  0.1208 -0.2004
  944MOL0     C30198   4.438   4.024   7.908  0.2923 -0.0001  0.0101
  944MOL0     C30199   4.423   4.085   7.798  0.2227  0.7318  0.5780
  944MOL0     C30200   4.001   4.235   8.443  0.3112  0.1579  0.7480
  944MOL0     C30201   3.949   4.293   8.559  0.5871  0.0589  0.9473
  944MOL0     C30202   3.819   4.371   8.562  0.9346  0.1545 -0.0906
  944MOL0     H30203   4.005   4.161   9.150  1.3592  0.2976 -1.6092
  944MOL0     H30204   3.877   4.185   9.352 -2.0609 -3.4163 -1.1971
  944MOL0     H30205   3.756   4.273   9.542 -1.6833 -1.7990  1.7693
  944MOL0     H30206   3.646   4.178   9.441  3.3353 -1.4113  1.0074
  944MOL0     H30207   3.578   4.399   9.629  1.7599 -0.5857 -3.0913
  944MOL0     H30208   3.452   4.312   9.543  1.1630  2.6236 -0.9716
  944MOL0     H30209   3.522   4.110   9.639 -2.9794 -0.1295  1.0534
  944MOL0     H30210   3.636   4.190   9.749  1.0087  1.3568 -0.5511
  944MOL0     H30211   3.333   4.239   9.763 -0.3487  2.0810  1.4508
  944MOL0     H30212   3.421   4.131   9.866 -0.3016 -2.9093 -2.6900
  944MOL0     H30213   3.465   4.427   9.840 -1.0609 -0.8042 -0.8089
  944MOL0     H30214   3.574   4.335   9.941  1.1262  2.8946 -1.0296
  944MOL0     H30215   3.398   4.438  10.070 -0.5446  0.9051 -2.4055
  944MOL0     H30216   3.271   4.345   9.978  0.3436 -0.5132 -1.7518
  944MOL0     H30217   3.497   4.199  10.108  0.4322  1.8017 -0.7606
  944MOL0     H30218   3.333   4.142  10.075 -1.8237  0.2003  1.7148
  944MOL0     H30219   3.238   4.238  10.262 -0.1033 -1.1056  1.0865
  944MOL0     H30220   3.378   4.136  10.294 -2.6478 -0.1538 -0.0893
  944MOL0     H30221   3.619   4.302  10.312  1.7178  1.7016 -0.7431
  944MOL0     H30222   3.669   4.629  10.499  0.3648  0.7504  0.6984
  944MOL0     H30223   3.763   4.471  10.464 -0.8540 -1.3681 -0.2525
  944MOL0     H30224   3.585   4.524  10.699 -0.1824  0.7166 -1.3241
  944MOL0     H30225   3.657   4.373  10.652  1.6737 -0.6369 -4.4500
  944MOL0     H30226   3.882   4.511  10.654 -0.1710  3.6900  0.1217
  944MOL0     H30227   3.804   4.629  10.748  0.5557  0.8518 -1.3808
  944MOL0     H30228   3.920   4.480  10.894  1.4544  0.5952 -2.4019
  944MOL0     H30229   3.746   4.479  10.937 -2.3975 -1.0593 -1.0800
  944MOL0     H30230   3.953   4.108  10.894  0.6854 -0.1050  0.6250
  944MOL0     H30231   3.979   3.909  11.182  2.0903 -0.1609 -1.1386
  944MOL0     H30232   4.004   3.877  11.014  1.0586 -0.8491  2.0258
  944MOL0     H30233   3.864   3.808  11.096  0.5853 -1.6542  0.0348
  944MOL0     H30234   3.588   3.694  11.302 -0.6985 -1.1198  0.0779
  944MOL0     H30235   3.632   3.477  11.409 -1.1926  1.2675 -1.0838
  944MOL0     H30236   3.653   3.338  11.618 -0.5315 -0.7940 -1.4042
  944MOL0     H30237   3.754   3.285  11.482 -0.4900  2.0312 -1.0723
  944MOL0     H30238   3.783   3.256  11.783  1.3733  2.2523  0.2032
  944MOL0     H30239   3.730   3.128  11.669 -1.4435  1.4440  3.8707
  944MOL0     H30240   4.007   3.244  11.699 -0.7663  0.1726 -0.2646
  944MOL0     H30241   3.962   3.157  11.548 -1.1474 -0.4745 -1.2008
  944MOL0     H30242   3.914   2.963  11.660  1.7425 -0.8610 -0.1180
  944MOL0     H30243   3.905   3.040  11.820 -3.0559  0.8888 -2.0028
  944MOL0     H30244   4.157   3.024  11.646  2.6823  3.0969  1.2040
  944MOL0     H30245   4.140   3.108  11.800 -1.2839 -0.6541  1.3492
  944MOL0     H30246   4.094   2.803  11.775 -0.3861  0.4619 -2.5494
  944MOL0     H30247   4.093   2.897  11.920 -2.6516 -0.6514 -0.9791
  944MOL0     H30248   4.335   2.956  11.867 -2.0477  1.2213  0.0106
  944MOL0     H30249   4.333   2.837  11.734  1.0820  0.8363 -0.9458
  944MOL0     H30250   4.261   2.663  11.906  0.1862 -1.8902  1.8121
  944MOL0     H30251   4.250   2.790  12.022  0.6223 -1.1349  0.2229
  944MOL0     H30252   3.925   3.662  11.664  0.7592 -0.7916 -1.0964
  944MOL0     H30253   3.887   3.878  11.529 -1.5328  0.2318  1.2256
  944MOL0     H30254   3.528   4.160  11.115  0.1473 -1.6845 -1.2315
  944MOL0     H30255   3.601   4.315  10.969 -0.2437 -0.5464 -0.9513
  944MOL0     H30256   3.665   4.521   9.169 -2.2870 -1.8682  1.2045
  944MOL0     H30257   3.794   4.478   8.954  0.3785 -0.4920 -0.0186
  944MOL0     H30258   4.184   4.173   8.774 -1.9252 -1.2955  1.4348
  944MOL0     H30259   4.232   4.040   8.586  0.8865  1.2584  1.5161
  944MOL0     H30260   4.087   4.200   8.190 -0.7699 -2.6545  1.5309
  944MOL0     H30261   4.246   4.262   8.245  0.1356  0.6684 -1.5700
  944MOL0     H30262   4.258   4.146   8.030  3.2210 -2.4967 -1.0189
  944MOL0     H30263   4.207   3.994   8.100  2.6227  0.3178 -2.9554
  944MOL0     H30264   4.462   4.149   8.175  0.4937 -0.9514  4.1766
  944MOL0     H30265   4.407   4.009   8.248  0.7184  0.7517 -0.0626
  944MOL0     H30266   4.425   3.875   8.047 -0.1229  0.4546 -0.0643
  944MOL0     H30267   4.576   3.963   8.065  0.8489  0.0827 -1.2440
  944MOL0     H30268   4.390   4.151   7.721 -1.9964 -0.7350  0.1673
  944MOL0     H30269   3.967   4.265   8.344 -2.5505  0.8065  1.8254
  944MOL0     H30270   3.757   4.348   8.475  3.3080 -2.3038 -1.3165
  944MOL0     H30271   3.752   4.345   8.644  0.6123  0.7462 -0.1646
  944MOL0     H30272   3.832   4.478   8.578 -0.8104  0.3923 -0.1274
  945MOL0     O30273   4.924   1.228   7.049  0.7143 -0.0449 -0.2925
  945MOL0     C30274   4.800   1.235   7.055 -0.4865 -0.5878 -0.3091
  945MOL0     O30275   4.719   1.255   6.957  0.6754  0.1249 -0.8160
  945MOL0     C30276   4.763   1.279   6.832 -0.1745  0.9425 -0.5023
  945MOL0     C30277   4.704   1.368   6.745  0.4344  0.1433  0.4809
  945MOL0     C30278   4.749   1.369   6.611  0.3451 -0.0086 -0.2652
  945MOL0     C30279   4.836   1.280   6.554 -0.9719 -0.8017 -0.3554
  945MOL0     O30280   4.852   1.283   6.421  0.2816 -1.1377  0.2196
  945MOL0     C30281   4.987   1.249   6.378  0.4769  0.6149  1.1593
  945MOL0     C30282   4.989   1.259   6.220 -0.1646 -0.1649 -0.2301
  945MOL0     C30283   5.121   1.205   6.167 -0.4214  1.1669  0.2323
  945MOL0     C30284   5.105   1.052   6.139  0.3436  0.4351 -0.1387
  945MOL0     C30285   5.241   0.984   6.109 -1.4437  0.0508 -0.1950
  945MOL0     C30286   5.219   0.837   6.081 -0.4095 -1.4620 -0.4806
  945MOL0     C30287   5.351   0.791   6.024  0.7666  1.3667 -0.4987
  945MOL0     C30288   5.475   0.806   6.110 -0.5238  0.6431  0.9285
  945MOL0     N30289   5.590   0.730   6.054  0.2267 -0.2745  0.0669
  945MOL0     C30290   5.678   0.779   5.965 -0.0989  0.9766  1.8229
  945MOL0     C30291   5.728   0.666   5.905 -0.0057  0.6550 -0.3019
  945MOL0     C30292   5.864   0.649   5.836 -0.4199 -0.0182 -0.3611
  945MOL0     C30293   5.986   0.644   5.924  0.2685  0.9597  0.3067
  945MOL0     C30294   6.107   0.700   5.856 -0.6929  0.0210  0.4289
  945MOL0     C30295   6.228   0.670   5.940  0.3716  0.0196 -0.4738
  945MOL0     O30296   6.219   0.746   6.071  0.2524  0.6880  0.6924
  945MOL0     C30297   6.329   0.758   6.165 -0.4733  0.5664  0.8230
  945MOL0     C30298   6.460   0.750   6.131 -0.2158  0.3708 -0.0438
  945MOL0     C30299   6.563   0.759   6.228  0.2401  0.6491  0.3084
  945MOL0     C30300   6.706   0.764   6.177  0.8677 -0.6722  0.3108
  945MOL0     C30301   6.526   0.770   6.360  0.3841 -0.3450  0.8301
  945MOL0     C30302   6.624   0.768   6.472 -0.2219  0.6801 -0.2084
  945MOL0     O30303   6.572   0.782   6.602 -0.5749 -0.3442  0.6279
  945MOL0     C30304   6.660   0.774   6.714  1.2191  0.2911  0.1608
  945MOL0     C30305   6.758   0.675   6.723  0.8892 -0.1354 -0.8215
  945MOL0     C30306   6.846   0.674   6.825  0.4715 -0.3367 -1.1395
  945MOL0     C30307   6.833   0.765   6.933 -0.5312 -0.5915 -0.3440
  945MOL0     O30308   6.913   0.762   7.044 -0.2505 -0.5232 -0.0365
  945MOL0     C30309   6.986   0.644   7.076  0.2492  0.2746 -0.0722
  945MOL0     C30310   7.054   0.650   7.207  0.1415  0.5436 -0.5041
  945MOL0     C30311   6.958   0.672   7.332 -0.5820 -0.1313 -0.7183
  945MOL0     C30312   7.049   0.663   7.456 -0.2644 -0.0773  0.8142
  945MOL0     C30313   6.955   0.694   7.581  0.5662 -0.0877 -0.9702
  945MOL0     C30314   7.053   0.704   7.700 -0.0180  0.1334 -0.6549
  945MOL0     C30315   6.980   0.714   7.837 -0.6047  0.6886 -0.5889
  945MOL0     C30316   7.091   0.747   7.941  1.0014 -0.4802  0.5351
  945MOL0    Cl30317   7.245   0.677   7.903 -0.3908  0.1443  0.1092
  945MOL0     C30318   6.736   0.867   6.920  0.0372  0.0369 -1.0273
  945MOL0     C30319   6.651   0.867   6.807  0.2013  0.4781  0.4178
  945MOL0     O30320   6.742   0.737   6.446 -0.0507  0.3967  0.9547
  945MOL0     C30321   6.386   0.769   6.395  0.4240  0.3617 -0.3609
  945MOL0     C30322   6.288   0.769   6.293  0.3433  0.7692 -0.3457
  945MOL0     N30323   5.660   0.555   5.966 -0.1643  0.0181  0.1129
  945MOL0     N30324   5.586   0.600   6.051  0.1029 -0.6894  0.2996
  945MOL0     C30325   4.892   1.184   6.643  0.6459 -0.4459  0.3506
  945MOL0     C30326   4.862   1.186   6.781  0.3399 -0.4056  0.6548
  945MOL0     C30327   4.744   1.211   7.195 -1.0628  0.7503  1.1941
  945MOL0     C30328   4.828   1.155   7.288  0.2556 -0.4657  0.6004
  945MOL0     C30329   4.783   1.117   7.412 -0.5384 -0.0315  0.5825
  945MOL0     C30330   4.658   1.152   7.455 -0.1160 -0.5615  0.0731
  945MOL0     O30331   4.613   1.103   7.574  0.7136 -0.1177  0.0759
  945MOL0     C30332   4.563   0.969   7.558 -0.0522  0.6251  0.3947
  945MOL0     C30333   4.613   0.872   7.674  0.1580 -1.0105  0.0931
  945MOL0     C30334   4.772   0.886   7.700  0.1622  0.0284 -0.2466
  945MOL0     C30335   4.856   0.829   7.590  0.0756 -0.6113  0.5621
  945MOL0     C30336   5.000   0.836   7.623 -0.4249  0.4773 -0.9008
  945MOL0     C30337   5.116   0.849   7.648 -1.1127 -0.6184 -0.1574
  945MOL0     C30338   4.573   1.213   7.363  0.7160 -0.4415  0.8821
  945MOL0     C30339   4.620   1.244   7.234  0.3580  0.3723 -0.0316
  945MOL0     C30340   4.527   1.303   7.131 -0.0209 -0.2100  0.0394
  945MOL0     H30341   4.619   1.430   6.774 -0.0641  1.0026 -2.5130
  945MOL0     H30342   4.688   1.430   6.545  3.0459  2.4464 -0.6982
  945MOL0     H30343   5.034   1.155   6.410  1.3331  0.3184 -0.8215
  945MOL0     H30344   5.055   1.328   6.408  1.1916 -0.1143  1.5052
  945MOL0     H30345   4.918   1.188   6.175  3.0059 -2.7033 -1.7030
  945MOL0     H30346   4.972   1.363   6.192 -1.7865 -0.1768  0.5759
  945MOL0     H30347   5.145   1.245   6.068  0.1001  1.1185  0.3370
  945MOL0     H30348   5.213   1.218   6.225  1.3276 -4.8867 -0.3984
  945MOL0     H30349   5.062   1.007   6.229 -0.1466  0.5811 -0.2912
  945MOL0     H30350   5.037   1.047   6.053  0.3494 -0.0104 -0.1148
  945MOL0     H30351   5.311   0.988   6.192 -0.3785  0.4643 -1.0889
  945MOL0     H30352   5.280   1.050   6.031 -4.1203  1.4556 -0.4969
  945MOL0     H30353   5.196   0.791   6.177  3.1229 -0.9690  0.7447
  945MOL0     H30354   5.130   0.810   6.025  0.1351  0.3215 -2.3594
  945MOL0     H30355   5.373   0.828   5.923 -1.2841 -0.1054 -1.5665
  945MOL0     H30356   5.344   0.683   6.010 -1.4034  1.8037 -3.9911
  945MOL0     H30357   5.509   0.911   6.113  0.3590  0.3484  1.9583
  945MOL0     H30358   5.451   0.756   6.204 -1.0433 -3.1154 -1.0332
  945MOL0     H30359   5.707   0.881   5.945 -0.9982  1.0825  0.9840
  945MOL0     H30360   5.881   0.741   5.778  0.3326  0.2285  0.2414
  945MOL0     H30361   5.870   0.562   5.771  0.3253 -1.0577  1.0582
  945MOL0     H30362   5.970   0.710   6.010  0.1044  0.2650  0.8164
  945MOL0     H30363   5.995   0.541   5.961 -0.8110 -0.3713 -2.8124
  945MOL0     H30364   6.133   0.657   5.759  1.5704  0.0639  0.9546
  945MOL0     H30365   6.099   0.808   5.845  5.1857  0.7868  0.7996
  945MOL0     H30366   6.229   0.566   5.974 -0.2590  1.1772  3.6463
  945MOL0     H30367   6.323   0.690   5.889  0.7382  0.6892  0.4381
  945MOL0     H30368   6.483   0.735   6.026 -0.2272  0.7670 -0.1023
  945MOL0     H30369   6.761   0.846   6.224 -0.0869 -0.5273  1.1872
  945MOL0     H30370   6.702   0.794   6.072  1.9356 -1.1797  0.1038
  945MOL0     H30371   6.770   0.675   6.183 -0.3762 -1.7154 -1.1330
  945MOL0     H30372   6.768   0.616   6.632  3.6595 -0.1064 -0.6335
  945MOL0     H30373   6.902   0.582   6.807 -0.9476 -1.3870 -0.4056
  945MOL0     H30374   6.919   0.558   7.070 -1.0989  1.3411 -0.5888
  945MOL0     H30375   7.061   0.642   6.996  0.0176  3.0255 -0.4593
  945MOL0     H30376   7.111   0.556   7.217  0.2548  0.7495  0.9472
  945MOL0     H30377   7.122   0.735   7.214  0.3815  0.2375  4.9550
  945MOL0     H30378   6.871   0.605   7.337 -1.4650  1.0196 -0.3049
  945MOL0     H30379   6.910   0.770   7.327 -1.0450 -0.2006  1.5024
  945MOL0     H30380   7.137   0.727   7.458 -0.9646  1.1212 -1.8735
  945MOL0     H30381   7.078   0.558   7.463 -0.9678 -0.5007 -1.5366
  945MOL0     H30382   6.898   0.787   7.583 -2.0240 -1.5894  0.7877
  945MOL0     H30383   6.889   0.608   7.594  2.0415 -1.3311 -1.3936
  945MOL0     H30384   7.121   0.787   7.681 -0.6940  1.1356  1.0907
  945MOL0     H30385   7.109   0.610   7.704 -3.2556 -1.9348  1.5512
  945MOL0     H30386   6.929   0.619   7.856  0.0604  0.5716  0.7097
  945MOL0     H30387   6.896   0.784   7.840 -0.5032  0.7974 -0.2240
  945MOL0     H30388   7.050   0.710   8.035 -4.1508  0.3192 -1.0882
  945MOL0     H30389   7.109   0.854   7.956 -0.3856 -0.4012  1.8799
  945MOL0     H30390   6.730   0.939   7.001 -0.4832 -3.2314  2.1090
  945MOL0     H30391   6.567   0.935   6.801  1.6185  2.1938 -1.7367
  945MOL0     H30392   6.334   0.774   6.490 -1.0169 -1.8336 -0.9417
  945MOL0     H30393   6.188   0.784   6.332 -0.5835 -0.4777 -2.0874
  945MOL0     H30394   4.959   1.115   6.594  0.8666 -0.2086  0.3160
  945MOL0     H30395   4.912   1.118   6.849  1.0041  1.1987  1.8276
  945MOL0     H30396   4.926   1.121   7.256  1.9987  1.6112  3.2885
  945MOL0     H30397   4.854   1.071   7.479  1.9370  2.8252  0.1075
  945MOL0     H30398   4.455   0.983   7.562 -0.0076  2.4201 -1.9673
  945MOL0     H30399   4.580   0.920   7.461 -1.2734 -0.8778  0.9121
  945MOL0     H30400   4.579   0.773   7.642 -1.1941 -0.2849 -0.8153
  945MOL0     H30401   4.564   0.901   7.767  0.1610  1.1927 -0.5503
  945MOL0     H30402   4.797   0.991   7.719  3.2051 -0.4195 -1.3455
  945MOL0     H30403   4.787   0.836   7.796  0.6588 -0.8353 -0.7640
  945MOL0     H30404   4.823   0.856   7.490 -0.3403 -1.9160  0.3292
  945MOL0     H30405   4.833   0.722   7.587  0.3013 -0.6299 -1.1022
  945MOL0     H30406   5.218   0.877   7.669 -0.8356  1.1827 -3.2706
  945MOL0     H30407   4.469   1.231   7.388  0.5682  0.8884 -0.4812
  945MOL0     H30408   4.581   1.390   7.093  1.3242 -0.5031  1.2254
  945MOL0     H30409   4.509   1.230   7.051  0.3778 -0.5808  0.2911
  945MOL0     H30410   4.427   1.338   7.160 -1.7119 -3.7254 -0.9767
  946MOL0     O30411   6.288   4.594   5.576  0.4615 -0.1133 -0.0781
  946MOL0     C30412   6.358   4.640   5.660 -0.3572 -0.9867 -0.4033
  946MOL0     O30413   6.321   4.683   5.775  0.2444  0.2484 -0.1123
  946MOL0     C30414   6.214   4.776   5.774  0.4294  1.2331  0.9639
  946MOL0     C30415   6.216   4.873   5.870  0.2661 -0.0867  0.0983
  946MOL0     C30416   6.113   4.965   5.881 -0.6498  0.3269  0.1917
  946MOL0     C30417   6.014   4.973   5.784 -0.1096 -0.7925  0.0898
  946MOL0     O30418   5.917   5.067   5.810  0.1860  0.2057 -0.1783
  946MOL0     C30419   5.790   5.047   5.741  0.5083  0.2086 -0.5962
  946MOL0     C30420   5.678   5.118   5.816 -0.3055 -0.7136  0.4474
  946MOL0     C30421   5.542   5.101   5.743 -0.1652  0.0068 -0.2717
  946MOL0     C30422   5.429   5.165   5.819  1.1786  0.0845  0.2086
  946MOL0     C30423   5.296   5.161   5.762 -0.5009  1.1380 -0.2821
  946MOL0     C30424   5.243   5.018   5.764 -0.6459 -0.6887  0.6232
  946MOL0     C30425   5.100   5.009   5.740  1.3485  0.4824 -0.6014
  946MOL0     C30426   5.065   5.017   5.588 -0.7490 -0.3557 -0.3597
  946MOL0     N30427   4.931   4.960   5.563  0.3535 -0.8017  0.6526
  946MOL0     C30428   4.817   5.014   5.626 -0.5643  0.1148  0.0939
  946MOL0     C30429   4.714   4.931   5.584  0.4004 -0.7426 -0.3548
  946MOL0     C30430   4.571   4.926   5.644  0.8273 -0.3074  0.6348
  946MOL0     C30431   4.456   4.969   5.553 -0.1606 -0.3052  0.6086
  946MOL0     C30432   4.324   4.937   5.623 -0.5200 -0.0882 -0.1283
  946MOL0     C30433   4.203   4.964   5.532  0.1021 -0.9059  0.9320
  946MOL0     O30434   4.181   5.100   5.502  0.5682 -1.3031  0.6646
  946MOL0     C30435   4.164   5.187   5.611 -1.2392  0.6056  0.0664
  946MOL0     C30436   4.075   5.148   5.712  0.4141  0.2750 -0.1064
  946MOL0     C30437   4.049   5.228   5.815  0.5287 -0.2983 -0.8241
  946MOL0     C30438   3.928   5.207   5.906  0.0190 -0.1277  0.2245
  946MOL0     C30439   4.116   5.353   5.828 -0.7051  0.9165 -0.5782
  946MOL0     C30440   4.098   5.450   5.944 -0.8971 -1.4968  0.7925
  946MOL0     O30441   4.122   5.584   5.918  0.2091  0.1292  0.5518
  946MOL0     C30442   4.150   5.678   6.012 -0.6886  0.3012 -0.6058
  946MOL0     C30443   4.115   5.809   5.990  0.2907 -0.0801  0.5508
  946MOL0     C30444   4.160   5.920   6.066  0.4118  0.7246 -0.0054
  946MOL0     C30445   4.240   5.893   6.180  0.7547  0.4778  0.5472
  946MOL0     O30446   4.271   5.999   6.259 -0.7425  0.6519 -0.4585
  946MOL0     C30447   4.193   6.118   6.244 -0.2166  0.5090  0.8225
  946MOL0     C30448   4.204   6.208   6.365  0.4527  0.7890 -0.3842
  946MOL0     C30449   4.119   6.336   6.361 -0.1390 -0.0761 -0.5772
  946MOL0     C30450   4.170   6.443   6.462 -0.1659 -0.0259  0.3104
  946MOL0     C30451   4.277   6.532   6.387 -0.2872  0.0079 -0.3287
  946MOL0     C30452   4.329   6.636   6.490  0.0221  0.6258 -0.6877
  946MOL0     C30453   4.406   6.748   6.415 -0.1717 -0.4105 -0.3701
  946MOL0     C30454   4.554   6.738   6.432 -0.6903 -0.9982  0.2148
  946MOL0    Cl30455   4.615   6.754   6.599  0.3091 -0.1361 -0.3575
  946MOL0     C30456   4.282   5.758   6.200 -0.5259  0.0715 -0.4841
  946MOL0     C30457   4.235   5.648   6.124  0.2790 -0.4397 -0.6075
  946MOL0     O30458   4.080   5.406   6.049  0.7429  0.8495 -0.3431
  946MOL0     C30459   4.202   5.384   5.731  0.8773 -0.5057  0.2775
  946MOL0     C30460   4.224   5.312   5.619  0.6522 -0.0295 -0.4344
  946MOL0     N30461   4.762   4.828   5.511  0.1073 -0.2356  0.4511
  946MOL0     N30462   4.888   4.857   5.486  0.0101  0.9262  0.2996
  946MOL0     C30463   6.011   4.874   5.687 -0.3718  0.7433 -0.9339
  946MOL0     C30464   6.108   4.772   5.685  0.4717  0.2029  0.8362
  946MOL0     C30465   6.499   4.648   5.632 -0.0284  0.2320  0.0469
  946MOL0     C30466   6.582   4.730   5.708  0.1139  0.3850  0.9405
  946MOL0     C30467   6.718   4.754   5.689 -0.9392 -0.0599  0.3727
  946MOL0     C30468   6.776   4.715   5.569 -0.8032  0.7716  0.2680
  946MOL0     O30469   6.911   4.743   5.561 -0.4219 -0.9355  0.1054
  946MOL0     C30470   6.982   4.736   5.443 -1.2976 -0.8816  0.7165
  946MOL0     C30471   7.128   4.702   5.478 -0.2072  0.2881  0.2908
  946MOL0     C30472   7.130   4.544   5.504  0.3466 -0.1839  0.0408
  946MOL0     C30473   7.271   4.488   5.532  0.2861  0.3034  0.6687
  946MOL0     C30474   7.255   4.341   5.526  0.0488  0.8863 -0.2873
  946MOL0     C30475   7.243   4.216   5.531  0.5648 -0.1424 -0.7373
  946MOL0     C30476   6.700   4.628   5.488  1.0243 -0.0819  0.3288
  946MOL0     C30477   6.566   4.591   5.520  0.8133 -0.3428 -0.3726
  946MOL0     C30478   6.515   4.492   5.424  0.2346  0.7447  1.1655
  946MOL0     H30479   6.295   4.870   5.944  0.7552  0.5468 -0.3850
  946MOL0     H30480   6.116   5.036   5.963  4.4479  0.2352  0.4285
  946MOL0     H30481   5.765   4.942   5.728  3.0780 -0.4713 -0.4373
  946MOL0     H30482   5.791   5.087   5.639 -0.5753  0.1754 -0.6385
  946MOL0     H30483   5.670   5.065   5.912 -2.1779 -0.4364  0.4707
  946MOL0     H30484   5.702   5.222   5.840 -1.8744 -0.1606 -0.2328
  946MOL0     H30485   5.552   5.133   5.638 -0.3619 -1.9989 -0.9522
  946MOL0     H30486   5.528   4.994   5.728 -0.1951 -0.4331  2.5220
  946MOL0     H30487   5.434   5.127   5.921  0.1830  2.6537  1.3155
  946MOL0     H30488   5.454   5.271   5.831  0.0698  0.6596 -2.0444
  946MOL0     H30489   5.288   5.206   5.663 -2.4724  0.2414 -0.5954
  946MOL0     H30490   5.227   5.227   5.817 -3.6696 -2.2000  0.1365
  946MOL0     H30491   5.303   4.945   5.709  3.3592  2.5002  0.1958
  946MOL0     H30492   5.261   4.983   5.866 -2.3343 -0.4419  1.0319
  946MOL0     H30493   5.047   5.088   5.795 -0.1494 -0.0616 -1.2083
  946MOL0     H30494   5.058   4.918   5.784  1.0945  1.7463  1.9516
  946MOL0     H30495   5.063   5.121   5.553 -0.9270  0.0804  0.9098
  946MOL0     H30496   5.132   4.954   5.529  0.8652  0.0684  0.9561
  946MOL0     H30497   4.811   5.088   5.705  0.6001 -0.5339  0.8153
  946MOL0     H30498   4.578   4.990   5.732  3.2668  1.6075 -0.8318
  946MOL0     H30499   4.557   4.825   5.683 -1.5715 -0.6608 -0.8740
  946MOL0     H30500   4.472   5.077   5.540  0.1775 -0.0726  2.5787
  946MOL0     H30501   4.450   4.905   5.465 -3.3949  3.1268 -2.0144
  946MOL0     H30502   4.318   4.831   5.649  3.1788 -1.0637 -2.4555
  946MOL0     H30503   4.296   4.986   5.717 -1.8223  1.3947 -1.2221
  946MOL0     H30504   4.216   4.917   5.434 -3.4727  2.4609 -1.4834
  946MOL0     H30505   4.110   4.919   5.568 -2.6683  0.7603 -3.2601
  946MOL0     H30506   4.008   5.062   5.712 -3.8650  3.0644  4.7137
  946MOL0     H30507   3.854   5.285   5.887 -0.1798 -0.7283 -1.7069
  946MOL0     H30508   3.958   5.194   6.010 -2.9243  1.8361  1.4743
  946MOL0     H30509   3.885   5.111   5.875 -1.3350  1.2041 -2.4169
  946MOL0     H30510   4.061   5.827   5.898 -1.1113  0.3190  1.4246
  946MOL0     H30511   4.128   6.017   6.029  3.1768  1.0235 -1.9859
  946MOL0     H30512   4.216   6.176   6.154  0.4995  1.5315  1.6500
  946MOL0     H30513   4.090   6.082   6.232  0.8877 -2.1024 -2.5750
  946MOL0     H30514   4.187   6.144   6.452 -0.5594  2.0999  0.4159
  946MOL0     H30515   4.310   6.235   6.364  0.1918  2.0397  1.0828
  946MOL0     H30516   4.018   6.306   6.393  0.6899 -0.0544  2.3931
  946MOL0     H30517   4.117   6.370   6.257  2.1725 -2.0503 -1.3698
  946MOL0     H30518   4.197   6.390   6.553 -3.9143 -2.9355 -0.0286
  946MOL0     H30519   4.084   6.506   6.486 -3.5694 -3.5979 -1.3763
  946MOL0     H30520   4.352   6.463   6.347  0.2581 -0.5557  1.5438
  946MOL0     H30521   4.218   6.577   6.306 -0.4269  2.0024  0.8005
  946MOL0     H30522   4.402   6.581   6.550  0.5515 -0.8063 -2.5603
  946MOL0     H30523   4.252   6.681   6.554  2.4546  3.1906  0.6596
  946MOL0     H30524   4.379   6.849   6.447  0.7531 -1.2660  3.7985
  946MOL0     H30525   4.392   6.740   6.307 -1.2961 -0.7078 -0.2080
  946MOL0     H30526   4.586   6.828   6.377 -4.1062 -0.5017 -1.1691
  946MOL0     H30527   4.603   6.654   6.382  1.2484  1.0100 -1.5106
  946MOL0     H30528   4.367   5.748   6.267  0.3893  0.3556 -1.5739
  946MOL0     H30529   4.270   5.546   6.138 -0.6032 -0.9086 -1.6732
  946MOL0     H30530   4.256   5.478   5.730  0.2921 -0.1570 -1.4938
  946MOL0     H30531   4.296   5.355   5.550  0.3257 -0.4847 -1.0667
  946MOL0     H30532   5.924   4.867   5.624 -0.9478 -0.2658 -0.0632
  946MOL0     H30533   6.096   4.688   5.617  1.1991  0.4709  0.3587
  946MOL0     H30534   6.544   4.785   5.793 -1.0174  2.4645 -0.7916
  946MOL0     H30535   6.774   4.801   5.770 -0.1098  0.1198 -0.2951
  946MOL0     H30536   6.933   4.670   5.371 -1.3280  1.1415 -1.2120
  946MOL0     H30537   6.989   4.830   5.387  1.2487 -1.7363 -0.5322
  946MOL0     H30538   7.160   4.753   5.569 -2.8435 -0.2369  1.5991
  946MOL0     H30539   7.191   4.739   5.396 -0.3052 -3.7890 -1.8904
  946MOL0     H30540   7.067   4.532   5.593 -1.7193 -0.2770 -1.3385
  946MOL0     H30541   7.083   4.490   5.420  4.9993 -1.2557 -2.1887
  946MOL0     H30542   7.317   4.520   5.626 -0.1132  2.6211  0.1220
  946MOL0     H30543   7.341   4.520   5.454 -1.9679 -0.2089 -1.6993
  946MOL0     H30544   7.239   4.110   5.540 -3.9025 -0.0367  1.3390
  946MOL0     H30545   6.740   4.581   5.399 -0.7873 -1.3283  0.1298
  946MOL0     H30546   6.414   4.510   5.386 -0.0196 -0.6797  1.1053
  946MOL0     H30547   6.569   4.491   5.329  1.4159 -3.9060  1.6340
  946MOL0     H30548   6.520   4.388   5.458  1.8710 -0.2829 -1.8711
  947MOL0     O30549   0.886   4.364  11.583 -0.9311  0.5898 -0.0624
  947MOL0     C30550   0.785   4.440  11.561 -1.5633 -0.6838  0.7336
  947MOL0     O30551   0.791   4.576  11.552 -0.3473 -0.4143 -0.3600
  947MOL0     C30552   0.901   4.636  11.588  0.2511  0.4813 -0.1716
  947MOL0     C30553   0.962   4.724  11.499  0.8018  0.1705 -0.1781
  947MOL0     C30554   1.064   4.808  11.538  0.6578 -0.3124  0.4243
  947MOL0     C30555   1.127   4.807  11.669  0.3766 -0.1654  0.6273
  947MOL0     O30556   1.231   4.892  11.710  0.0739  0.3493  0.1183
  947MOL0     C30557   1.274   4.994  11.617 -0.6999 -0.5970  0.0763
  947MOL0     C30558   1.359   5.083  11.709 -0.3740  0.3137 -0.6375
  947MOL0     C30559   1.435   5.190  11.616 -0.0523  0.5457 -0.3455
  947MOL0     C30560   1.519   5.293  11.707 -0.8844  0.5294  0.3928
  947MOL0     C30561   1.551   5.417  11.615 -0.9152  0.5913  0.6543
  947MOL0     C30562   1.588   5.536  11.700 -0.7041 -0.1704  0.4356
  947MOL0     C30563   1.644   5.639  11.612 -0.0405  1.0057 -0.5953
  947MOL0     C30564   1.624   5.771  11.667 -1.1127 -0.0366  0.6414
  947MOL0     N30565   1.706   5.800  11.786  0.6457  0.5321  0.0697
  947MOL0     C30566   1.821   5.877  11.781 -0.1046 -0.5748 -0.3438
  947MOL0     C30567   1.885   5.857  11.900 -0.2211  0.3494  0.6865
  947MOL0     C30568   2.023   5.923  11.936 -0.6339  0.7039 -0.0407
  947MOL0     C30569   2.127   5.810  11.968  0.3950 -0.3582  1.0826
  947MOL0     C30570   2.122   5.745  12.109 -0.3235  0.0055 -0.5260
  947MOL0     C30571   2.194   5.612  12.113  0.6174 -0.2198  0.3511
  947MOL0     O30572   2.189   5.551  12.239  0.6960 -0.3162 -0.0423
  947MOL0     C30573   2.221   5.419  12.240 -0.0989 -0.1064  0.3023
  947MOL0     C30574   2.265   5.348  12.129 -0.8103  1.1725 -0.5314
  947MOL0     C30575   2.328   5.223  12.151 -0.1744  0.4533 -0.0824
  947MOL0     C30576   2.358   5.150  12.029 -0.5194  0.0762 -0.8164
  947MOL0     C30577   2.342   5.165  12.282  0.2094  0.7871 -0.3458
  947MOL0     C30578   2.387   5.030  12.316 -0.4977  0.3768 -0.2187
  947MOL0     O30579   2.339   4.924  12.244 -1.1480 -0.6713 -0.6569
  947MOL0     C30580   2.354   4.794  12.280 -0.5006  0.2054 -0.9280
  947MOL0     C30581   2.479   4.727  12.281 -0.2228 -0.1924  0.4950
  947MOL0     C30582   2.480   4.592  12.310 -0.1420  0.8965  0.6479
  947MOL0     C30583   2.370   4.525  12.341  0.1701 -0.4238 -0.6963
  947MOL0     O30584   2.376   4.386  12.356 -0.4954  0.7925  0.2132
  947MOL0     C30585   2.262   4.318  12.396  0.2641 -0.8523 -0.5227
  947MOL0     C30586   2.265   4.163  12.428 -0.0372 -0.4548  0.1954
  947MOL0     C30587   2.315   4.146  12.574 -0.0809  0.5828  0.0523
  947MOL0     C30588   2.309   4.004  12.613 -0.4051  0.1420  0.0414
  947MOL0     C30589   2.435   3.922  12.582 -0.0359  1.1657  0.2878
  947MOL0     C30590   2.539   3.947  12.683 -0.4095  0.2838 -0.3675
  947MOL0     C30591   2.655   3.844  12.690 -0.0529 -0.4043 -0.5345
  947MOL0     C30592   2.619   3.707  12.727  0.2818  0.3130 -0.8012
  947MOL0    Cl30593   2.554   3.675  12.905  0.4326 -0.0224  0.0658
  947MOL0     C30594   2.246   4.595  12.349  0.1171  0.2549  0.0416
  947MOL0     C30595   2.237   4.730  12.322 -0.5600 -0.7358 -0.5085
  947MOL0     O30596   2.463   5.016  12.412  0.4399 -1.1668  0.2906
  947MOL0     C30597   2.293   5.235  12.394  0.7730 -0.3854  0.3099
  947MOL0     C30598   2.233   5.360  12.363 -0.3222 -0.2013 -0.2053
  947MOL0     N30599   1.809   5.766  11.965 -0.1939 -0.8840 -0.0640
  947MOL0     N30600   1.697   5.748  11.909 -0.0410 -0.5115  0.3191
  947MOL0     C30601   1.063   4.722  11.754  0.5246  0.0755  0.3575
  947MOL0     C30602   0.949   4.644  11.723  0.4854 -0.1688  0.8982
  947MOL0     C30603   0.650   4.387  11.553 -0.2857  0.1416 -0.3827
  947MOL0     C30604   0.555   4.435  11.628  0.8974 -0.9463 -0.1907
  947MOL0     C30605   0.428   4.374  11.631 -0.4426 -0.5085 -0.0423
  947MOL0     C30606   0.403   4.256  11.567  1.4321 -0.0518 -0.1753
  947MOL0     O30607   0.286   4.182  11.580 -0.1195 -0.0475  0.3246
  947MOL0     C30608   0.174   4.226  11.654  0.0759  0.1653  0.3712
  947MOL0     C30609   0.052   4.145  11.632  0.8256  0.2840  0.0415
  947MOL0     C30610  -0.002   4.171  11.492  1.2410 -0.5765 -0.1854
  947MOL0     C30611  -0.122   4.076  11.469 -0.2140  0.3538 -0.7269
  947MOL0     C30612  -0.255   4.142  11.486  0.9637 -1.0293  0.2313
  947MOL0     C30613  -0.363   4.201  11.504 -0.0578  0.4783  0.2188
  947MOL0     C30614   0.507   4.201  11.491 -0.4472 -0.6896 -0.0801
  947MOL0     C30615   0.627   4.272  11.477 -1.1064  0.2377 -0.9692
  947MOL0     C30616   0.730   4.218  11.381  0.3648  0.2088 -0.2310
  947MOL0     H30617   0.921   4.730  11.399 -1.8981  4.0062  0.9406
  947MOL0     H30618   1.102   4.880  11.466 -2.4298  1.1146  0.0875
  947MOL0     H30619   1.193   5.054  11.575  1.1640  0.7419 -1.8084
  947MOL0     H30620   1.343   4.950  11.545  1.7958  2.7563  0.1506
  947MOL0     H30621   1.306   5.133  11.791  1.8059 -2.1279  2.5089
  947MOL0     H30622   1.430   5.014  11.756  1.7021 -0.2163 -4.1558
  947MOL0     H30623   1.492   5.143  11.535 -2.7200 -2.4864 -0.6692
  947MOL0     H30624   1.354   5.236  11.558  0.7919  2.6283  0.0064
  947MOL0     H30625   1.451   5.314  11.790  0.8031  1.0787  1.6742
  947MOL0     H30626   1.615   5.257  11.743 -1.0589  0.4228  0.7563
  947MOL0     H30627   1.470   5.443  11.546 -2.1219 -1.3602  1.2482
  947MOL0     H30628   1.628   5.390  11.542 -2.3017 -2.7547  0.2072
  947MOL0     H30629   1.500   5.570  11.756 -0.5967  2.0625 -0.6393
  947MOL0     H30630   1.668   5.495  11.763  1.7451 -0.8751 -2.8345
  947MOL0     H30631   1.593   5.636  11.515 -1.7669 -1.3526  0.3045
  947MOL0     H30632   1.748   5.613  11.595 -0.5584 -0.5168 -1.6372
  947MOL0     H30633   1.664   5.841  11.593  1.1879 -3.6354 -1.8167
  947MOL0     H30634   1.517   5.790  11.683 -1.2080 -0.5745  0.6559
  947MOL0     H30635   1.857   5.931  11.694 -0.6098 -0.0107 -0.2053
  947MOL0     H30636   2.007   5.960  12.037 -0.1066 -2.3047  1.2640
  947MOL0     H30637   2.059   5.994  11.861  1.3436  0.5476  0.7209
  947MOL0     H30638   2.121   5.734  11.889 -1.7211  0.4496  0.4104
  947MOL0     H30639   2.230   5.844  11.951  0.0738 -0.3954 -1.3416
  947MOL0     H30640   2.157   5.821  12.180 -0.8894 -1.5555  1.5050
  947MOL0     H30641   2.022   5.732  12.151 -0.5679  1.7381 -0.4814
  947MOL0     H30642   2.132   5.554  12.044 -2.3271  2.5766  0.4065
  947MOL0     H30643   2.295   5.626  12.073  0.2113  2.1349 -0.0287
  947MOL0     H30644   2.276   5.391  12.031 -0.9846  1.2456 -0.5206
  947MOL0     H30645   2.412   5.057  12.048 -0.1444 -0.4469 -3.9424
  947MOL0     H30646   2.411   5.220  11.965 -2.7680 -0.2910 -3.2170
  947MOL0     H30647   2.265   5.120  11.980 -2.7939 -1.6923  3.9306
  947MOL0     H30648   2.575   4.777  12.271 -0.9737  1.0076 -1.1570
  947MOL0     H30649   2.573   4.537  12.297 -0.6955  0.4137 -1.7289
  947MOL0     H30650   2.225   4.367  12.486 -2.7203  0.0012 -2.0774
  947MOL0     H30651   2.191   4.318  12.312 -1.5192  2.4718  0.7994
  947MOL0     H30652   2.164   4.125  12.414  0.0985 -0.5339 -0.5708
  947MOL0     H30653   2.316   4.107  12.350 -2.4556 -2.0671 -0.3219
  947MOL0     H30654   2.241   4.196  12.638  2.7588  2.0794  2.4382
  947MOL0     H30655   2.414   4.191  12.583  0.4314 -0.5849  0.4045
  947MOL0     H30656   2.226   3.959  12.558 -1.7045  0.3934  1.7421
  947MOL0     H30657   2.290   3.990  12.719 -1.1779  0.6458 -0.0242
  947MOL0     H30658   2.418   3.814  12.582  2.1464  0.6561 -3.1375
  947MOL0     H30659   2.458   3.941  12.477  0.2692 -2.2286 -0.3781
  947MOL0     H30660   2.495   3.937  12.782 -2.5334  0.8081 -1.2048
  947MOL0     H30661   2.582   4.045  12.663  4.1218 -1.8794 -2.7930
  947MOL0     H30662   2.737   3.884  12.751  0.7906  0.6411 -2.2676
  947MOL0     H30663   2.702   3.833  12.592  1.7116  1.4030  0.0262
  947MOL0     H30664   2.705   3.641  12.710  0.5507  0.1645  0.9203
  947MOL0     H30665   2.546   3.668  12.656 -0.0090  1.4767 -1.1669
  947MOL0     H30666   2.153   4.554  12.387  0.8627 -0.1908  1.4194
  947MOL0     H30667   2.147   4.790  12.324 -0.2493 -0.2763  0.2451
  947MOL0     H30668   2.318   5.199  12.493  2.3636  2.9841  1.2832
  947MOL0     H30669   2.212   5.422  12.450  2.3925 -1.6433  1.6443
  947MOL0     H30670   1.090   4.707  11.858 -0.1502  3.1964  1.0847
  947MOL0     H30671   0.899   4.588  11.801  1.9740 -2.5470  0.2339
  947MOL0     H30672   0.572   4.523  11.691 -1.7868 -0.2211 -0.3873
  947MOL0     H30673   0.350   4.424  11.687 -1.2243 -1.6110 -0.1266
  947MOL0     H30674   0.200   4.237  11.760  1.4144 -0.5814  0.1419
  947MOL0     H30675   0.152   4.330  11.628 -0.0986 -0.4383 -2.1531
  947MOL0     H30676  -0.022   4.153  11.711  1.0144 -1.7811  0.4867
  947MOL0     H30677   0.078   4.039  11.639  1.3685  0.4361  0.4463
  947MOL0     H30678  -0.051   4.268  11.484 -2.0442 -2.0338  0.6692
  947MOL0     H30679   0.077   4.163  11.416  3.8041 -2.0862  2.4207
  947MOL0     H30680  -0.119   3.988  11.534  1.3529  0.5551 -0.4912
  947MOL0     H30681  -0.112   4.038  11.366 -0.0673  1.2099 -1.0407
  947MOL0     H30682  -0.457   4.252  11.503  0.4295  1.5788  2.9969
  947MOL0     H30683   0.509   4.105  11.440  1.4743 -0.2269 -1.0089
  947MOL0     H30684   0.689   4.143  11.312  0.9331 -1.1642  0.8688
  947MOL0     H30685   0.767   4.302  11.322 -0.4020 -1.4394 -3.2718
  947MOL0     H30686   0.800   4.152  11.434 -1.9666 -2.2429  0.0232
  948MOL0     O30687  10.094   3.136   5.318  0.1212 -0.2220 -0.6482
  948MOL0     C30688  10.085   3.082   5.210  1.2345  0.6885  0.0279
  948MOL0     O30689   9.983   3.006   5.175  0.0698 -0.5152  0.2541
  948MOL0     C30690   9.873   3.001   5.254  0.0688 -0.1462  0.6038
  948MOL0     C30691   9.850   2.882   5.335 -0.5123 -0.6357  0.8751
  948MOL0     C30692   9.737   2.881   5.417  0.3082  0.7669  0.0238
  948MOL0     C30693   9.635   2.979   5.421 -0.2312 -0.6129 -0.0602
  948MOL0     O30694   9.526   2.968   5.506 -0.1227 -0.1039  0.8718
  948MOL0     C30695   9.506   3.069   5.595 -0.3358 -0.8432  0.6603
  948MOL0     C30696   9.431   3.002   5.703 -0.1023 -1.7539 -1.3057
  948MOL0     C30697   9.282   2.970   5.678 -0.5688  0.0339  0.1945
  948MOL0     C30698   9.198   3.090   5.675 -0.3469 -0.7707 -0.1627
  948MOL0     C30699   9.057   3.053   5.656  0.5502  0.7392  0.0349
  948MOL0     C30700   8.971   3.180   5.641  0.1537 -0.2043 -0.4889
  948MOL0     C30701   8.816   3.151   5.661  0.0675 -0.6557  0.5251
  948MOL0     C30702   8.748   3.142   5.517  0.1498  0.1068 -0.0260
  948MOL0     N30703   8.612   3.193   5.520  0.8046 -0.1120 -0.2016
  948MOL0     C30704   8.496   3.126   5.501 -0.2147  0.0727 -1.1021
  948MOL0     C30705   8.403   3.218   5.527  0.3423 -0.2820  0.3092
  948MOL0     C30706   8.257   3.199   5.510  0.4294 -0.1913 -1.9284
  948MOL0     C30707   8.205   3.285   5.388  0.0819 -0.4770 -0.0373
  948MOL0     C30708   8.050   3.240   5.361  0.1463  0.5641  0.3145
  948MOL0     C30709   8.034   3.138   5.259  0.5838  0.5516  0.1924
  948MOL0     O30710   8.099   3.026   5.303 -0.4068 -0.0034 -0.2141
  948MOL0     C30711   8.216   2.986   5.251 -0.3331 -0.4861 -0.2894
  948MOL0     C30712   8.275   2.881   5.319  0.0332 -0.0435  0.0812
  948MOL0     C30713   8.394   2.825   5.274 -0.0955 -0.4863 -0.1124
  948MOL0     C30714   8.459   2.742   5.381  0.1646  0.8750 -1.3968
  948MOL0     C30715   8.447   2.864   5.139 -0.0680  0.2677 -0.4070
  948MOL0     C30716   8.560   2.795   5.072 -0.1956 -0.4475  0.5657
  948MOL0     O30717   8.562   2.799   4.932 -0.1615 -0.0665 -0.4970
  948MOL0     C30718   8.660   2.726   4.870 -0.2318  0.4877 -0.9093
  948MOL0     C30719   8.785   2.766   4.869 -0.6904  0.1208  0.1322
  948MOL0     C30720   8.885   2.692   4.800  0.6937 -0.1088 -0.3163
  948MOL0     C30721   8.853   2.565   4.750  0.1099 -0.2842 -0.4722
  948MOL0     O30722   8.967   2.499   4.698  0.6327  0.3074 -0.0763
  948MOL0     C30723   8.942   2.447   4.567  0.0311 -0.4524 -0.0829
  948MOL0     C30724   9.075   2.446   4.490 -0.1955  0.4707  0.6253
  948MOL0     C30725   9.063   2.368   4.360  0.0429  0.1441  0.2876
  948MOL0     C30726   9.185   2.327   4.289 -0.5514  0.1197 -0.5048
  948MOL0     C30727   9.167   2.319   4.142  0.3393  0.1215  0.4198
  948MOL0     C30728   9.067   2.219   4.086  0.7280 -0.1285 -0.3725
  948MOL0     C30729   9.056   2.230   3.939  0.1682 -0.1770 -0.0515
  948MOL0     C30730   8.990   2.110   3.877 -0.5114 -0.8333  0.3625
  948MOL0    Cl30731   8.961   2.129   3.692  0.2070  0.0411  0.0565
  948MOL0     C30732   8.720   2.524   4.751 -0.3879 -0.1689 -0.3029
  948MOL0     C30733   8.619   2.607   4.813 -0.8407  0.1440 -0.3291
  948MOL0     O30734   8.627   2.729   5.147  0.4607  0.3012  0.2243
  948MOL0     C30735   8.384   2.965   5.077 -0.4935 -0.0809  0.3126
  948MOL0     C30736   8.271   3.027   5.122 -0.0680 -0.3130 -0.1780
  948MOL0     N30737   8.468   3.330   5.569  0.3647 -0.6058  0.7940
  948MOL0     N30738   8.594   3.322   5.538  0.8690 -0.1225 -0.7164
  948MOL0     C30739   9.655   3.081   5.325 -0.9471 -0.2443 -0.2149
  948MOL0     C30740   9.770   3.094   5.245  0.3174 -0.8695  0.1158
  948MOL0     C30741  10.201   3.069   5.125 -0.5293 -0.1850  0.4242
  948MOL0     C30742  10.229   2.943   5.070 -0.4228  0.3846  0.5855
  948MOL0     C30743  10.338   2.926   4.989 -0.7501  0.7626  0.2190
  948MOL0     C30744  10.428   3.023   4.948 -0.1323 -0.5353 -0.3201
  948MOL0     O30745  10.537   3.011   4.856 -0.2080  0.2773  0.3213
  948MOL0     C30746  10.547   2.906   4.766 -0.3108  0.2869 -0.3199
  948MOL0     C30747  10.551   2.966   4.623  0.7687  0.1993 -0.2055
  948MOL0     C30748  10.693   3.022   4.590  0.2125  0.5725  1.3604
  948MOL0     C30749  10.681   3.117   4.468  0.3729  1.3467 -0.3875
  948MOL0     C30750  10.645   3.031   4.356  1.3342  0.3551 -0.1561
  948MOL0     C30751  10.599   2.968   4.263  0.3503 -0.2374  0.7091
  948MOL0     C30752  10.410   3.148   5.005  0.5873  0.4246  1.1434
  948MOL0     C30753  10.296   3.174   5.095 -1.0927 -0.2784  0.3081
  948MOL0     C30754  10.279   3.318   5.146 -1.7074  0.0906 -0.1798
  948MOL0     H30755   9.923   2.802   5.336 -0.6011 -0.8217 -1.7932
  948MOL0     H30756   9.718   2.805   5.492  1.3516  1.2185  0.7725
  948MOL0     H30757   9.454   3.151   5.544  0.7900 -0.5450 -0.0563
  948MOL0     H30758   9.597   3.105   5.645  0.6512 -0.9028 -1.0162
  948MOL0     H30759   9.480   2.906   5.726 -1.2343 -2.2894 -1.0620
  948MOL0     H30760   9.425   3.061   5.794 -0.5587 -0.7075 -1.9926
  948MOL0     H30761   9.278   2.927   5.578  1.6276 -0.3569  0.2196
  948MOL0     H30762   9.256   2.894   5.753  2.8638  0.9885  2.6076
  948MOL0     H30763   9.212   3.152   5.763 -2.1951  0.8605 -0.9521
  948MOL0     H30764   9.230   3.144   5.585  0.9260 -1.9971 -0.4906
  948MOL0     H30765   9.030   3.005   5.751  2.6262 -0.7590 -0.0441
  948MOL0     H30766   9.047   2.991   5.567 -0.3029  0.2084  0.4813
  948MOL0     H30767   9.001   3.239   5.728 -1.9371 -0.7307  0.6555
  948MOL0     H30768   8.985   3.245   5.554 -2.7405  0.9751 -0.1958
  948MOL0     H30769   8.764   3.230   5.716 -0.0763 -0.8081  0.6065
  948MOL0     H30770   8.801   3.059   5.718  0.3880  0.1295  1.9320
  948MOL0     H30771   8.807   3.199   5.444 -0.9915 -1.8901 -2.6683
  948MOL0     H30772   8.753   3.035   5.494  1.2974 -0.8066  3.7810
  948MOL0     H30773   8.475   3.025   5.469 -2.7026  0.6658 -1.5627
  948MOL0     H30774   8.203   3.243   5.594 -1.5125 -1.0969 -2.6564
  948MOL0     H30775   8.238   3.092   5.502  2.9153 -1.1134  1.8907
  948MOL0     H30776   8.208   3.392   5.409  1.6915 -1.1209  4.0440
  948MOL0     H30777   8.278   3.260   5.311  1.3771 -1.6267  1.4856
  948MOL0     H30778   8.002   3.201   5.451 -1.1273  1.0180 -0.1369
  948MOL0     H30779   7.985   3.319   5.322 -5.1341 -2.5725  1.7742
  948MOL0     H30780   7.928   3.113   5.244  0.6857 -3.3207  3.9717
  948MOL0     H30781   8.073   3.176   5.164  2.1335 -7.1613 -2.9739
  948MOL0     H30782   8.230   2.839   5.408 -2.6250  0.2526 -1.0221
  948MOL0     H30783   8.567   2.763   5.388  1.3470 -4.3671  0.4810
  948MOL0     H30784   8.443   2.634   5.376  0.8069  0.5742  1.5677
  948MOL0     H30785   8.418   2.759   5.481 -0.8617 -3.7957 -0.8256
  948MOL0     H30786   8.820   2.863   4.903  0.4853 -0.4745  0.6569
  948MOL0     H30787   8.983   2.732   4.777  2.0101 -2.3909  1.0415
  948MOL0     H30788   8.890   2.351   4.566 -1.3992  0.2929 -1.3700
  948MOL0     H30789   8.877   2.513   4.509 -2.5299 -1.8121  1.0732
  948MOL0     H30790   9.120   2.544   4.475 -2.4843  1.6810  1.2882
  948MOL0     H30791   9.143   2.391   4.555  1.7839  0.8314 -1.0232
  948MOL0     H30792   9.002   2.436   4.300  0.2426 -0.5762 -0.7727
  948MOL0     H30793   9.004   2.280   4.385 -0.7846  1.2220  2.3363
  948MOL0     H30794   9.231   2.236   4.330  0.4378 -0.1072 -2.0369
  948MOL0     H30795   9.257   2.409   4.288  1.0003 -1.1841 -1.5551
  948MOL0     H30796   9.137   2.415   4.098  3.0934 -0.3207 -2.8473
  948MOL0     H30797   9.266   2.302   4.099  2.0330  0.5284  3.8222
  948MOL0     H30798   8.973   2.240   4.138  0.6038 -0.8527 -0.2842
  948MOL0     H30799   9.108   2.123   4.119 -0.1627 -0.0130  1.1575
  948MOL0     H30800   9.161   2.226   3.908  1.5026 -2.0721  4.0167
  948MOL0     H30801   9.001   2.321   3.913 -2.1742 -1.6481 -0.5976
  948MOL0     H30802   8.895   2.105   3.929 -0.3280  1.3637  1.0072
  948MOL0     H30803   9.037   2.012   3.889 -0.4724 -1.1887 -2.0663
  948MOL0     H30804   8.683   2.424   4.734  1.1518 -1.2789  2.3155
  948MOL0     H30805   8.514   2.581   4.820 -0.8163  0.4196  1.7050
  948MOL0     H30806   8.431   2.997   4.985 -1.8149  1.7070  0.2167
  948MOL0     H30807   8.247   3.125   5.083 -0.0722 -0.1878  0.1338
  948MOL0     H30808   9.595   3.170   5.341  2.5667  2.3025  0.2862
  948MOL0     H30809   9.792   3.180   5.182 -1.2497  0.3116  1.0956
  948MOL0     H30810  10.164   2.858   5.090 -1.5112  1.1977  0.5545
  948MOL0     H30811  10.350   2.820   4.969  1.8313  1.3122 -1.7713
  948MOL0     H30812  10.641   2.849   4.777  0.1814  0.9716 -0.9362
  948MOL0     H30813  10.461   2.844   4.792  0.0167  1.3014  3.8819
  948MOL0     H30814  10.467   3.037   4.615  0.6071 -0.2094 -3.0654
  948MOL0     H30815  10.511   2.909   4.539  1.5104  1.9945 -1.8689
  948MOL0     H30816  10.745   3.075   4.671  2.1296  0.6286  0.1629
  948MOL0     H30817  10.753   2.931   4.577  1.6953  1.1802  3.2988
  948MOL0     H30818  10.778   3.167   4.454  1.7803 -0.4265  2.2401
  948MOL0     H30819  10.596   3.184   4.486  1.2878  2.1979  1.0221
  948MOL0     H30820  10.552   2.937   4.172  0.6503  0.1991  0.4057
  948MOL0     H30821  10.469   3.236   4.979 -0.3641 -0.3092 -4.9147
  948MOL0     H30822  10.206   3.351   5.072 -1.0699  2.0984  0.0494
  948MOL0     H30823  10.248   3.330   5.251  2.5038  0.4824  1.1995
  948MOL0     H30824  10.378   3.364   5.141 -0.5470 -1.6243  3.4802
  949MOL0     O30825   4.491  10.840   3.743  0.0259 -0.6606 -0.0406
  949MOL0     C30826   4.429  10.782   3.829 -0.1310 -0.2073 -0.3457
  949MOL0     O30827   4.309  10.814   3.881  0.0693 -0.4470 -0.4194
  949MOL0     C30828   4.262  10.937   3.852 -0.0807 -0.4030  1.0470
  949MOL0     C30829   4.343  11.054   3.850 -0.1203 -0.5745 -0.0428
  949MOL0     C30830   4.276  11.184   3.826 -0.0863  0.1991 -0.5513
  949MOL0     C30831   4.138  11.197   3.816 -0.6192  0.3950 -0.2452
  949MOL0     O30832   4.092  11.318   3.784 -0.3201 -0.0852 -0.4341
  949MOL0     C30833   3.965  11.346   3.745  0.6462 -0.1301 -0.5081
  949MOL0     C30834   3.927  11.489   3.740  0.8116  0.3655 -0.6169
  949MOL0     C30835   3.982  11.555   3.619 -0.6521  0.2469 -0.2918
  949MOL0     C30836   3.952  11.701   3.618 -0.2025  0.1015  0.8339
  949MOL0     C30837   4.008  11.759   3.484 -0.2290 -0.0191  0.1563
  949MOL0     C30838   3.914  11.875   3.431 -0.5312  0.4406 -1.0290
  949MOL0     C30839   3.970  11.967   3.320  0.6067  0.7546 -0.2373
  949MOL0     C30840   3.911  11.915   3.183 -0.6515 -0.4090  0.0304
  949MOL0     N30841   3.957  12.001   3.068 -0.0530 -0.4584 -1.1810
  949MOL0     C30842   4.031  12.118   3.065 -0.0629 -0.4740  0.3317
  949MOL0     C30843   4.030  12.160   2.937  0.2085 -0.0431  0.2538
  949MOL0     C30844   4.112  12.270   2.875  0.1642  0.2196 -0.1821
  949MOL0     C30845   4.044  12.407   2.915 -0.0794  0.3431  0.1310
  949MOL0     C30846   4.111  12.526   2.836 -0.2276  0.1185 -0.1033
  949MOL0     C30847   4.047  12.661   2.857  0.4252  0.6825 -0.1410
  949MOL0     O30848   4.128  12.771   2.899 -0.3615 -0.3425  0.7995
  949MOL0     C30849   4.172  12.763   3.024 -0.8426  0.4656  0.5401
  949MOL0     C30850   4.312  12.738   3.041 -0.0821 -0.4486  0.0726
  949MOL0     C30851   4.362  12.729   3.171 -0.1328  0.4216 -0.3838
  949MOL0     C30852   4.513  12.718   3.183  0.6111 -0.5438 -0.2109
  949MOL0     C30853   4.272  12.717   3.280  0.5749  0.4893  0.3793
  949MOL0     C30854   4.315  12.675   3.423  0.1175 -0.2869 -0.1452
  949MOL0     O30855   4.238  12.703   3.532 -0.6477 -0.5381 -0.2544
  949MOL0     C30856   4.276  12.687   3.665  1.0096  0.7534 -0.4693
  949MOL0     C30857   4.163  12.681   3.747 -1.0436  0.8699 -0.2936
  949MOL0     C30858   4.176  12.662   3.884 -0.2631 -0.1448  1.1626
  949MOL0     C30859   4.303  12.634   3.935  0.0113  0.2573 -0.8109
  949MOL0     O30860   4.323  12.599   4.072  0.9403  0.2710  0.0292
  949MOL0     C30861   4.242  12.669   4.171 -0.0375  0.3888  1.5932
  949MOL0     C30862   4.324  12.681   4.303  0.4776  0.1849  0.2094
  949MOL0     C30863   4.252  12.742   4.421 -0.5084  0.2448 -1.1987
  949MOL0     C30864   4.331  12.834   4.515  0.3032 -1.0020  0.2303
  949MOL0     C30865   4.253  12.884   4.636 -0.4040  0.6755 -0.0676
  949MOL0     C30866   4.314  12.994   4.711 -1.0007 -0.3897 -0.1338
  949MOL0     C30867   4.462  12.967   4.759 -0.4052  0.7495  0.3007
  949MOL0     C30868   4.481  12.845   4.850 -1.4310 -0.4663  0.2014
  949MOL0    Cl30869   4.381  12.858   5.005  0.3474  0.3317  0.1393
  949MOL0     C30870   4.416  12.653   3.856 -0.3830  1.8933 -0.2301
  949MOL0     C30871   4.399  12.669   3.713 -0.7540 -0.4931  0.2386
  949MOL0     O30872   4.403  12.591   3.418 -0.1565 -0.2180 -0.4176
  949MOL0     C30873   4.136  12.736   3.261  0.3115 -0.5448  0.2843
  949MOL0     C30874   4.085  12.758   3.135  0.2007  0.2539 -1.4621
  949MOL0     N30875   3.958  12.062   2.864  0.6644  0.1573  0.6212
  949MOL0     N30876   3.902  11.986   2.948  0.5810  0.2812  0.3448
  949MOL0     C30877   4.063  11.080   3.826 -0.3279 -0.2018 -0.1247
  949MOL0     C30878   4.126  10.952   3.847  0.2579 -0.3675  0.3315
  949MOL0     C30879   4.478  10.653   3.881 -0.5971  0.4907 -0.4524
  949MOL0     C30880   4.399  10.540   3.868  0.6362  0.2223  0.1026
  949MOL0     C30881   4.435  10.418   3.927 -0.1540  1.3947  0.2733
  949MOL0     C30882   4.551  10.405   4.003  0.3297  0.4078 -0.7024
  949MOL0     O30883   4.593  10.282   4.065  0.9022 -0.0087  0.5692
  949MOL0     C30884   4.579  10.158   3.993 -0.1768 -0.1289 -0.5375
  949MOL0     C30885   4.579  10.032   4.087 -0.6650 -0.4578 -0.1736
  949MOL0     C30886   4.521   9.907   4.020 -0.0948 -0.0295  0.3431
  949MOL0     C30887   4.484   9.812   4.123  0.4626 -0.0958 -0.5279
  949MOL0     C30888   4.415   9.698   4.059 -0.1990  0.2949  0.6408
  949MOL0     C30889   4.370   9.602   4.012  0.2892 -0.2027  0.3349
  949MOL0     C30890   4.627  10.519   4.013 -0.4003  0.1163 -0.6985
  949MOL0     C30891   4.603  10.643   3.953  1.1697  0.4647 -0.7767
  949MOL0     C30892   4.694  10.768   3.974 -0.2879  0.5010 -0.3653
  949MOL0     H30893   4.450  11.053   3.862 -0.0270  0.6821 -0.6183
  949MOL0     H30894   4.336  11.274   3.823  0.8450 -0.3944 -0.1505
  949MOL0     H30895   3.899  11.309   3.824  0.8260 -0.1431 -0.3640
  949MOL0     H30896   3.943  11.304   3.647 -0.2882  3.9616 -2.2691
  949MOL0     H30897   3.820  11.510   3.745  0.8457  0.5964 -0.8764
  949MOL0     H30898   3.979  11.535   3.824 -0.4749  0.8154 -0.0429
  949MOL0     H30899   4.091  11.544   3.620 -0.3245  2.9875  0.6290
  949MOL0     H30900   3.943  11.509   3.527 -1.3648  0.8980 -0.3254
  949MOL0     H30901   3.844  11.716   3.622 -0.7800 -2.5715 -1.4221
  949MOL0     H30902   3.994  11.754   3.704 -2.1724  0.2036  1.7917
  949MOL0     H30903   4.009  11.678   3.410  0.6666  0.2873 -0.1848
  949MOL0     H30904   4.109  11.793   3.509 -0.9432  1.4504  1.1564
  949MOL0     H30905   3.817  11.836   3.397  0.6811 -0.9841 -3.0920
  949MOL0     H30906   3.894  11.933   3.521 -0.6358 -2.7098  1.1225
  949MOL0     H30907   4.079  11.956   3.312  0.4849  0.6865 -2.4972
  949MOL0     H30908   3.936  12.067   3.350  0.7571  0.1984  1.9109
  949MOL0     H30909   3.938  11.813   3.155 -4.2230 -1.0984 -1.5240
  949MOL0     H30910   3.802  11.908   3.191 -0.5268 -0.0713  4.0730
  949MOL0     H30911   4.079  12.183   3.137 -1.0013  2.4969 -1.5425
  949MOL0     H30912   4.127  12.258   2.768 -2.9983  1.3074 -0.8467
  949MOL0     H30913   4.214  12.269   2.917  0.1200 -0.0373 -0.0840
  949MOL0     H30914   3.936  12.406   2.896  0.2537 -1.1677 -2.0513
  949MOL0     H30915   4.041  12.416   3.024  1.4170 -0.0082  0.2319
  949MOL0     H30916   4.218  12.528   2.859  0.6036 -2.6836 -3.0425
  949MOL0     H30917   4.125  12.509   2.729 -0.8502 -0.7403 -0.0558
  949MOL0     H30918   3.984  12.686   2.771  1.6567  0.0792 -1.2485
  949MOL0     H30919   3.967  12.660   2.931  1.1818  2.1456  0.7404
  949MOL0     H30920   4.368  12.745   2.949  4.0274  0.7840  2.4163
  949MOL0     H30921   4.563  12.737   3.088  1.1674  1.1594  0.3819
  949MOL0     H30922   4.544  12.622   3.227 -0.1749  0.1466  2.0387
  949MOL0     H30923   4.552  12.790   3.255  2.4465  1.1977 -2.7938
  949MOL0     H30924   4.068  12.688   3.696 -0.8397 -0.7723 -0.9660
  949MOL0     H30925   4.095  12.666   3.957  0.3568 -0.7160  1.8873
  949MOL0     H30926   4.222  12.768   4.130 -3.9488 -1.2678 -1.1614
  949MOL0     H30927   4.145  12.620   4.186 -1.4568  1.9879 -1.3812
  949MOL0     H30928   4.356  12.579   4.327  2.2185  0.3594 -1.2040
  949MOL0     H30929   4.419  12.733   4.292 -0.3176  1.2025 -3.1974
  949MOL0     H30930   4.227  12.664   4.493  3.1276 -0.2912 -0.3227
  949MOL0     H30931   4.166  12.801   4.388 -1.4509  0.0560  0.7776
  949MOL0     H30932   4.367  12.919   4.456  0.8528  1.1531  3.3760
  949MOL0     H30933   4.420  12.789   4.561  1.5073 -0.0468 -1.0658
  949MOL0     H30934   4.155  12.917   4.601 -0.5596  0.5494  0.2393
  949MOL0     H30935   4.231  12.800   4.703 -2.6978  1.6082  0.4203
  949MOL0     H30936   4.244  13.008   4.794 -4.5526 -2.2493 -2.5591
  949MOL0     H30937   4.312  13.088   4.655 -1.4718 -1.2297 -1.5885
  949MOL0     H30938   4.500  13.043   4.828  2.0595 -0.8706  0.8396
  949MOL0     H30939   4.535  12.955   4.678  0.3814  2.2639  0.7535
  949MOL0     H30940   4.585  12.839   4.883 -1.8920 -0.1958  1.7781
  949MOL0     H30941   4.467  12.749   4.800 -1.7359 -1.4636  2.1129
  949MOL0     H30942   4.515  12.626   3.891 -0.6267  1.9782  0.5358
  949MOL0     H30943   4.486  12.678   3.650  0.1814  1.3207  1.6969
  949MOL0     H30944   4.064  12.729   3.342  0.5007 -2.0405  0.3441
  949MOL0     H30945   3.982  12.790   3.131  1.1242  3.6079 -0.9691
  949MOL0     H30946   3.955  11.083   3.822 -0.4012 -1.7480  0.2180
  949MOL0     H30947   4.060  10.868   3.862  0.8479 -0.9133 -0.0524
  949MOL0     H30948   4.302  10.538   3.819  1.2457  0.0745 -1.1159
  949MOL0     H30949   4.362  10.337   3.918  0.5530  0.6955  0.6991
  949MOL0     H30950   4.486  10.154   3.936 -1.0179 -2.9029  0.8364
  949MOL0     H30951   4.665  10.146   3.927  0.3976  2.7182 -0.4239
  949MOL0     H30952   4.528  10.072   4.175  1.7169  1.3319  0.5099
  949MOL0     H30953   4.677   9.989   4.111 -1.3310 -2.6303 -1.1114
  949MOL0     H30954   4.431   9.933   3.962  0.7135  2.8380  0.1850
  949MOL0     H30955   4.598   9.870   3.952 -1.6553 -1.4917 -0.7123
  949MOL0     H30956   4.412   9.863   4.187 -0.4929 -0.6421 -1.1465
  949MOL0     H30957   4.569   9.773   4.181 -1.0195 -0.7300  1.3382
  949MOL0     H30958   4.341   9.507   3.972  0.0772 -1.3085  2.8675
  949MOL0     H30959   4.721  10.507   4.067 -0.2900 -0.2476 -0.9683
  949MOL0     H30960   4.736  10.753   4.074 -0.2582  2.1466 -0.1049
  949MOL0     H30961   4.783  10.763   3.912 -1.4456  0.9038 -2.1420
  949MOL0     H30962   4.652  10.870   3.971 -1.4355  0.2170  2.4289
  950MOL0     O30963   8.888   0.953   4.897  0.1515 -0.4219 -0.2169
  950MOL0     C30964   8.940   0.932   5.008  1.1407  0.0487 -0.1357
  950MOL0     O30965   9.052   0.868   5.028  0.2627 -0.2853 -0.7990
  950MOL0     C30966   9.096   0.775   4.935 -0.3440 -1.5887 -0.8268
  950MOL0     C30967   9.078   0.645   4.961 -0.7766  1.3808 -0.0187
  950MOL0     C30968   9.113   0.551   4.865 -0.7133 -0.2738 -1.0695
  950MOL0     C30969   9.180   0.589   4.747  0.2183 -0.0741  0.2005
  950MOL0     O30970   9.221   0.489   4.666  0.1533  0.1274  0.3452
  950MOL0     C30971   9.240   0.509   4.524 -0.5619  0.3856  0.3107
  950MOL0     C30972   9.103   0.480   4.448  0.0672  0.1392 -0.0730
  950MOL0     C30973   9.094   0.341   4.385 -0.1246 -0.7774 -0.0702
  950MOL0     C30974   9.162   0.325   4.256  0.3856 -0.7845 -0.0446
  950MOL0     C30975   9.129   0.184   4.198  0.0093  0.4848 -0.3238
  950MOL0     C30976   9.131   0.167   4.045  0.8025  0.6874 -0.4980
  950MOL0     C30977   9.265   0.183   3.978  0.0656  0.6679  0.4143
  950MOL0     C30978   9.263   0.182   3.824  0.0344 -0.4552  0.9252
  950MOL0     N30979   9.200   0.057   3.786  0.5998 -0.7111  0.0537
  950MOL0     C30980   9.259  -0.066   3.766 -0.5222 -0.5021  0.4502
  950MOL0     C30981   9.164  -0.148   3.734 -0.5469 -0.2358 -0.0033
  950MOL0     C30982   9.192  -0.292   3.706  0.0813  0.8312  0.0177
  950MOL0     C30983   9.155  -0.329   3.567  0.5063 -0.1537  0.3130
  950MOL0     C30984   9.211  -0.268   3.444  0.6568  0.0742 -1.3964
  950MOL0     C30985   9.146  -0.332   3.307  0.4845 -0.6026  0.7781
  950MOL0     O30986   9.011  -0.361   3.319  0.0134  0.4737 -0.4848
  950MOL0     C30987   8.948  -0.415   3.217 -0.1989  0.5953 -0.0536
  950MOL0     C30988   8.846  -0.515   3.235 -0.3252 -0.2079  0.4241
  950MOL0     C30989   8.775  -0.573   3.135  0.0345 -0.3508 -0.4642
  950MOL0     C30990   8.672  -0.681   3.164  0.0148  0.5437  0.1648
  950MOL0     C30991   8.795  -0.524   3.001 -0.1739 -1.1810  0.6622
  950MOL0     C30992   8.760  -0.598   2.876  0.1068 -0.6661 -0.3029
  950MOL0     O30993   8.800  -0.533   2.758 -0.4139  0.3805 -0.6780
  950MOL0     C30994   8.764  -0.595   2.635 -0.7611 -0.4515  0.1970
  950MOL0     C30995   8.861  -0.633   2.547 -0.0078  0.3321  0.2442
  950MOL0     C30996   8.834  -0.665   2.414  0.0675  0.3174  0.1993
  950MOL0     C30997   8.699  -0.671   2.372  1.1591  0.2043  0.6120
  950MOL0     O30998   8.663  -0.708   2.242  0.1097 -0.1796 -0.0030
  950MOL0     C30999   8.737  -0.821   2.180 -0.0011 -0.5665 -0.4363
  950MOL0     C31000   8.639  -0.912   2.104 -0.1001 -0.0950 -0.5462
  950MOL0     C31001   8.533  -0.984   2.204 -1.0547 -0.2483  0.1857
  950MOL0     C31002   8.485  -1.118   2.139 -0.1594 -0.5586 -0.3780
  950MOL0     C31003   8.381  -1.183   2.231  0.0684 -0.9118  0.7707
  950MOL0     C31004   8.318  -1.313   2.187  0.6928 -1.2571 -0.3101
  950MOL0     C31005   8.406  -1.427   2.217  0.1922  0.1253 -0.4763
  950MOL0     C31006   8.351  -1.539   2.133  0.4706  0.6774  0.2470
  950MOL0    Cl31007   8.172  -1.573   2.171 -0.2459 -0.0382  0.0708
  950MOL0     C31008   8.599  -0.634   2.468  0.5985 -0.0181  0.9339
  950MOL0     C31009   8.628  -0.602   2.596 -0.1382 -0.6493 -0.9513
  950MOL0     O31010   8.697  -0.707   2.881 -0.0356  0.3279 -0.1098
  950MOL0     C31011   8.888  -0.416   2.987 -0.6100  0.1160 -0.1579
  950MOL0     C31012   8.964  -0.368   3.092 -0.2059  0.3224 -0.7564
  950MOL0     N31013   9.043  -0.085   3.733  0.1235 -0.3470  0.8641
  950MOL0     N31014   9.067   0.038   3.750 -0.0944 -0.4554  0.0322
  950MOL0     C31015   9.212   0.728   4.724 -0.0442  0.0614  0.3216
  950MOL0     C31016   9.158   0.821   4.815  0.3245  0.0351 -0.6660
  950MOL0     C31017   8.869   0.991   5.131 -0.1525 -0.4087 -0.0070
  950MOL0     C31018   8.939   0.976   5.255  0.4473 -0.5061 -0.0693
  950MOL0     C31019   8.886   1.017   5.374 -0.0885 -0.2185 -0.2567
  950MOL0     C31020   8.766   1.092   5.372  1.0695 -0.5458 -0.3766
  950MOL0     O31021   8.721   1.155   5.491 -1.1213 -0.8799  1.0850
  950MOL0     C31022   8.746   1.069   5.607 -0.6293  0.0109  0.8918
  950MOL0     C31023   8.658   1.098   5.726  0.0719 -0.3890 -0.8478
  950MOL0     C31024   8.506   1.057   5.715 -0.0501 -0.3233 -0.4976
  950MOL0     C31025   8.445   1.083   5.851 -0.6132 -0.4527  0.7021
  950MOL0     C31026   8.306   1.058   5.847 -0.1384 -0.6651  0.1127
  950MOL0     C31027   8.185   1.045   5.817 -1.3701 -0.2844  0.6282
  950MOL0     C31028   8.697   1.119   5.250  0.5750  0.2133 -0.5581
  950MOL0     C31029   8.743   1.062   5.135  0.2858 -1.4081  1.4327
  950MOL0     C31030   8.678   1.115   5.001 -0.3010  0.3282 -0.4508
  950MOL0     H31031   9.031   0.615   5.054 -1.6187  1.8260 -0.2929
  950MOL0     H31032   9.102   0.444   4.876 -1.0914 -0.4112 -2.6032
  950MOL0     H31033   9.318   0.441   4.490 -1.8618 -0.6698 -0.7143
  950MOL0     H31034   9.276   0.610   4.502  0.6253  1.0534  4.4958
  950MOL0     H31035   9.024   0.500   4.521 -0.4800 -2.0410  0.0048
  950MOL0     H31036   9.095   0.556   4.371 -1.9859  0.9113  0.8185
  950MOL0     H31037   9.147   0.268   4.447 -0.7858  0.3957  1.9642
  950MOL0     H31038   8.986   0.326   4.379  0.0631 -1.6976 -1.7315
  950MOL0     H31039   9.138   0.402   4.183 -0.8287 -0.7499  0.3737
  950MOL0     H31040   9.268   0.343   4.277 -0.0449  3.6357 -0.7829
  950MOL0     H31041   9.025   0.169   4.230  0.6970  5.6278  6.8138
  950MOL0     H31042   9.201   0.114   4.242 -1.3945 -0.1326  1.0890
  950MOL0     H31043   9.095   0.065   4.028  4.0572 -0.9176  1.3281
  950MOL0     H31044   9.070   0.249   4.007  0.2257  2.2626  3.4078
  950MOL0     H31045   9.336   0.106   4.012 -2.4752 -2.4342 -0.8424
  950MOL0     H31046   9.309   0.282   3.995 -1.5841  1.6556 -0.8442
  950MOL0     H31047   9.213   0.270   3.782  0.4324 -1.4676 -1.8826
  950MOL0     H31048   9.361   0.181   3.776 -0.8448  1.5669 -1.0963
  950MOL0     H31049   9.359  -0.099   3.791 -0.1357 -0.7613 -1.3235
  950MOL0     H31050   9.131  -0.347   3.778  2.1218  1.3209  2.2675
  950MOL0     H31051   9.297  -0.321   3.719 -0.0018 -0.4648 -1.8920
  950MOL0     H31052   9.171  -0.437   3.553 -0.3504  0.0132 -2.6898
  950MOL0     H31053   9.046  -0.324   3.557  0.1162 -4.4516  0.4263
  950MOL0     H31054   9.170  -0.167   3.438 -0.3411 -0.3931 -4.1410
  950MOL0     H31055   9.321  -0.267   3.448  0.8340 -1.5285  5.1060
  950MOL0     H31056   9.173  -0.258   3.231 -0.9679 -2.5338 -1.7397
  950MOL0     H31057   9.198  -0.427   3.293 -1.6375 -2.3332  3.5799
  950MOL0     H31058   8.838  -0.552   3.337 -5.6449 -2.1628 -0.4008
  950MOL0     H31059   8.652  -0.691   3.271  1.4575 -0.9957  0.3244
  950MOL0     H31060   8.698  -0.785   3.147 -1.4602 -0.8205  4.7111
  950MOL0     H31061   8.576  -0.652   3.119 -0.8930 -1.1830  0.9051
  950MOL0     H31062   8.962  -0.633   2.587 -0.0092  3.7124  0.5359
  950MOL0     H31063   8.909  -0.688   2.339 -0.3842  1.3829 -0.6165
  950MOL0     H31064   8.802  -0.775   2.104 -1.3193  0.4670 -0.9895
  950MOL0     H31065   8.789  -0.877   2.258 -3.1094 -1.8670  0.8891
  950MOL0     H31066   8.583  -0.862   2.024  0.6310  0.6022 -0.6433
  950MOL0     H31067   8.708  -0.981   2.052 -1.0410 -0.0047 -1.9760
  950MOL0     H31068   8.456  -0.907   2.219  0.1401  1.1565 -0.5979
  950MOL0     H31069   8.585  -1.008   2.298  0.0711  1.4506  0.0400
  950MOL0     H31070   8.573  -1.181   2.127 -0.0825 -0.1899 -1.8925
  950MOL0     H31071   8.442  -1.102   2.040 -2.1594  1.6357  0.7293
  950MOL0     H31072   8.424  -1.197   2.331  0.8409 -0.7894  0.4617
  950MOL0     H31073   8.302  -1.112   2.256  1.4007  0.1621  2.1794
  950MOL0     H31074   8.292  -1.315   2.081  0.9408  1.8342 -0.5355
  950MOL0     H31075   8.228  -1.318   2.250  1.8733  1.7993  1.8862
  950MOL0     H31076   8.399  -1.451   2.324 -2.2388 -3.3021 -1.2443
  950MOL0     H31077   8.507  -1.414   2.178 -0.0068  0.8842 -0.7634
  950MOL0     H31078   8.397  -1.631   2.172 -3.4744 -0.6045  2.4770
  950MOL0     H31079   8.356  -1.519   2.026  0.1906  2.4996  0.5406
  950MOL0     H31080   8.494  -0.646   2.442  1.0211 -1.0390 -0.4394
  950MOL0     H31081   8.546  -0.587   2.666 -0.5080  0.8515 -1.6543
  950MOL0     H31082   8.907  -0.377   2.887  0.0667  0.5271  0.1251
  950MOL0     H31083   9.030  -0.288   3.060 -2.0449  2.6806  1.0610
  950MOL0     H31084   9.263   0.758   4.633  1.9657 -3.6634  0.0004
  950MOL0     H31085   9.160   0.929   4.813 -2.3758  0.3484  3.1010
  950MOL0     H31086   9.041   0.937   5.250  1.6892  1.9243  2.9818
  950MOL0     H31087   8.937   0.993   5.466 -0.8559  0.1749  0.2769
  950MOL0     H31088   8.737   0.961   5.588 -3.8517  0.3451 -0.0357
  950MOL0     H31089   8.854   1.083   5.623 -0.0021  0.1571 -2.5517
  950MOL0     H31090   8.684   1.203   5.742  2.5259 -0.6715 -2.3861
  950MOL0     H31091   8.696   1.052   5.818  0.6212  1.0672 -0.3206
  950MOL0     H31092   8.469   1.109   5.627 -2.9406  0.2172  0.8956
  950MOL0     H31093   8.494   0.951   5.690  0.3919 -1.4676  3.4422
  950MOL0     H31094   8.474   1.183   5.884  1.1067 -1.2778  1.8288
  950MOL0     H31095   8.489   1.017   5.927  3.1630  0.6473 -0.2946
  950MOL0     H31096   8.081   1.046   5.792 -1.0643 -1.0876 -0.8118
  950MOL0     H31097   8.611   1.184   5.259 -3.7406 -4.9274 -0.4238
  950MOL0     H31098   8.653   1.037   4.928 -1.5591 -0.3429  0.6681
  950MOL0     H31099   8.589   1.171   5.032  0.1504  0.7419  0.1290
  950MOL0     H31100   8.748   1.176   4.942 -0.2601  1.3727  0.6370
  951MOL0     O31101  11.191  10.625   3.561  0.4975 -0.2164 -0.3306
  951MOL0     C31102  11.135  10.537   3.630  1.2046 -1.1235  0.3914
  951MOL0     O31103  11.144  10.537   3.766 -0.0711 -0.6321 -0.6782
  951MOL0     C31104  11.236  10.627   3.822 -0.5396 -0.3112 -0.5087
  951MOL0     C31105  11.376  10.608   3.820  0.1266 -0.0253 -0.1006
  951MOL0     C31106  11.463  10.702   3.875  0.3842  0.0502 -0.8516
  951MOL0     C31107  11.405  10.813   3.947 -0.3661  1.1921  0.6335
  951MOL0     O31108  11.480  10.907   4.007  0.1138  0.7796 -0.5742
  951MOL0     C31109  11.621  10.917   3.958 -0.5779 -0.2057 -0.3731
  951MOL0     C31110  11.679  11.060   4.004 -0.1576  0.3195  0.8267
  951MOL0     C31111  11.647  11.102   4.148 -0.0497 -0.2865  0.0460
  951MOL0     C31112  11.728  11.026   4.255  0.4105  0.9601  0.4723
  951MOL0     C31113  11.712  11.085   4.399 -0.3257  0.1418  0.6706
  951MOL0     C31114  11.765  10.989   4.507  0.4695 -1.1032  0.5019
  951MOL0     C31115  11.787  11.055   4.640  0.3330 -0.6564 -0.4894
  951MOL0     C31116  11.866  10.967   4.748  0.3985 -0.2450 -0.0835
  951MOL0     N31117  11.926  10.846   4.704  0.0072  0.5986  0.2498
  951MOL0     C31118  11.862  10.734   4.664  0.1025 -0.1301  0.1391
  951MOL0     C31119  11.962  10.636   4.654  0.1273 -0.5293 -0.0293
  951MOL0     C31120  11.975  10.496   4.613  0.1848  0.2944 -0.2450
  951MOL0     C31121  12.033  10.416   4.731  0.8442 -0.4686 -0.0511
  951MOL0     C31122  12.183  10.370   4.697  0.3386 -0.4960 -0.3010
  951MOL0     C31123  12.247  10.280   4.799  0.2567 -0.1188 -0.2889
  951MOL0     O31124  12.322  10.362   4.890 -0.3537  0.1982 -0.2452
  951MOL0     C31125  12.459  10.368   4.863 -0.2656 -0.0100 -1.1821
  951MOL0     C31126  12.545  10.398   4.969  1.1212  0.4231  0.2412
  951MOL0     C31127  12.678  10.398   4.953 -0.3905  0.6510 -1.0674
  951MOL0     C31128  12.758  10.426   5.072 -0.1263  0.0408  0.1721
  951MOL0     C31129  12.739  10.370   4.831 -0.5049 -0.1832  0.9159
  951MOL0     C31130  12.882  10.360   4.803 -0.2287 -0.2612  0.3212
  951MOL0     O31131  12.959  10.316   4.900 -0.2582 -0.0013  0.1152
  951MOL0     C31132  13.094  10.331   4.877  0.3699  0.5393  0.1138
  951MOL0     C31133  13.173  10.414   4.965 -0.4000  0.0622  0.0986
  951MOL0     C31134  13.314  10.422   4.944  0.4250  0.7133  0.0313
  951MOL0     C31135  13.371  10.355   4.839 -0.3530 -0.0385  0.6869
  951MOL0     O31136  13.502  10.390   4.820 -0.1448  0.2830 -0.8774
  951MOL0     C31137  13.574  10.337   4.712  0.0447 -0.2374 -0.0621
  951MOL0     C31138  13.710  10.407   4.701 -1.3154  0.2336  0.0884
  951MOL0     C31139  13.820  10.346   4.796  0.3514  0.2531  0.4393
  951MOL0     C31140  13.945  10.417   4.766  0.6142 -0.5360 -0.2438
  951MOL0     C31141  14.064  10.365   4.853  0.3285  0.1822 -0.5401
  951MOL0     C31142  14.201  10.417   4.811  0.2380  0.1964  0.0050
  951MOL0     C31143  14.231  10.398   4.658 -0.9751  0.1185 -0.1933
  951MOL0     C31144  14.385  10.398   4.647  0.0628  0.6100  0.2317
  951MOL0    Cl31145  14.419  10.365   4.473  0.2944 -0.3831  0.2015
  951MOL0     C31146  13.288  10.267   4.758  0.7517 -1.0361 -0.2740
  951MOL0     C31147  13.151  10.262   4.772  0.0669 -0.7798  0.5959
  951MOL0     O31148  12.914  10.392   4.685 -0.4645 -0.9264 -0.4696
  951MOL0     C31149  12.653  10.356   4.723 -1.1764  0.7215 -0.3936
  951MOL0     C31150  12.522  10.347   4.744  0.1899  0.2554  0.9414
  951MOL0     N31151  12.085  10.701   4.691  1.1919 -0.5179  0.7715
  951MOL0     N31152  12.060  10.826   4.718 -0.2291  1.5047  0.2604
  951MOL0     C31153  11.267  10.835   3.949  0.0021 -1.0475  0.4730
  951MOL0     C31154  11.190  10.742   3.885  0.5755 -0.4015  0.3169
  951MOL0     C31155  11.050  10.452   3.555 -0.2087  0.5214  0.5426
  951MOL0     C31156  10.995  10.352   3.639 -0.4990 -0.7897  0.4548
  951MOL0     C31157  10.908  10.257   3.583  0.1964 -0.5110 -0.5013
  951MOL0     C31158  10.866  10.262   3.448  0.6619  0.6267  0.8566
  951MOL0     O31159  10.794  10.163   3.384 -0.2734  0.7972  0.1790
  951MOL0     C31160  10.746  10.042   3.448  0.1128 -0.0354 -0.8132
  951MOL0     C31161  10.636  10.075   3.556 -0.3493 -0.4773 -0.6141
  951MOL0     C31162  10.602   9.949   3.641  0.6643 -1.2895  0.0230
  951MOL0     C31163  10.503   9.980   3.760  0.9298  0.3934 -0.1888
  951MOL0     C31164  10.521   9.887   3.877  0.0142  0.2470 -0.5336
  951MOL0     C31165  10.547   9.809   3.969 -1.6079  0.2878 -0.4934
  951MOL0     C31166  10.911  10.365   3.370  0.5186 -1.1805  1.2174
  951MOL0     C31167  11.005  10.459   3.418 -0.5879 -0.4218 -0.1763
  951MOL0     C31168  11.045  10.567   3.326  0.2112 -0.2433  0.3039
  951MOL0     H31169  11.414  10.534   3.750 -0.1141 -0.6317  0.4064
  951MOL0     H31170  11.571  10.696   3.867  0.3357  0.8816 -2.6136
  951MOL0     H31171  11.626  10.911   3.849  2.6359  0.6273 -0.3470
  951MOL0     H31172  11.690  10.844   4.002  0.2227  1.1618  0.7021
  951MOL0     H31173  11.785  11.072   3.982 -0.4192  2.7387  0.5766
  951MOL0     H31174  11.627  11.138   3.948 -0.5332  0.3712  1.2395
  951MOL0     H31175  11.659  11.210   4.151 -1.4556 -0.1120  2.8596
  951MOL0     H31176  11.544  11.088   4.182 -0.0615  3.4714  2.0738
  951MOL0     H31177  11.681  10.927   4.254  1.8287  0.2531 -0.8586
  951MOL0     H31178  11.832  11.005   4.226 -0.8496 -1.9712 -2.5695
  951MOL0     H31179  11.613  11.105   4.441  0.5809 -0.5755  3.3964
  951MOL0     H31180  11.767  11.179   4.398  0.1610 -0.1488  0.3059
  951MOL0     H31181  11.692  10.907   4.508 -1.6020  0.6132 -1.1217
  951MOL0     H31182  11.860  10.953   4.465  0.4434 -1.7716  0.9923
  951MOL0     H31183  11.695  11.094   4.685 -0.2385 -3.1044  0.6749
  951MOL0     H31184  11.861  11.131   4.615  0.5697 -1.6225 -2.9946
  951MOL0     H31185  11.958  11.021   4.773  0.5536 -2.2755  4.8240
  951MOL0     H31186  11.819  10.939   4.842  3.4657  3.1760  2.8058
  951MOL0     H31187  11.758  10.738   4.634  0.5268 -2.4361 -1.9876
  951MOL0     H31188  12.040  10.486   4.525  1.0498  0.5649  0.3568
  951MOL0     H31189  11.880  10.450   4.582  2.2054 -1.8992 -4.0012
  951MOL0     H31190  12.032  10.478   4.822  1.0475  0.5294 -0.7159
  951MOL0     H31191  11.971  10.331   4.760  0.0229  0.3799  0.7861
  951MOL0     H31192  12.184  10.324   4.598  3.6019 -0.5975 -0.3427
  951MOL0     H31193  12.254  10.453   4.695  1.8670 -1.7012  1.0141
  951MOL0     H31194  12.157  10.246   4.850 -1.9881  3.0941 -1.8065
  951MOL0     H31195  12.301  10.199   4.749  0.5102 -0.9354  1.2542
  951MOL0     H31196  12.498  10.412   5.065 -0.6847 -1.0802 -0.3416
  951MOL0     H31197  12.816  10.337   5.096 -0.7332 -0.2622  0.5331
  951MOL0     H31198  12.699  10.447   5.161  0.6977  1.0565  0.5082
  951MOL0     H31199  12.812  10.519   5.048  2.7253 -1.8620 -1.4659
  951MOL0     H31200  13.143  10.460   5.058  3.4973 -0.4956  1.8718
  951MOL0     H31201  13.388  10.479   5.000  1.0554  0.3655 -0.4351
  951MOL0     H31202  13.592  10.230   4.725  1.8622 -0.5861 -3.9694
  951MOL0     H31203  13.524  10.358   4.617  2.2716  0.9201 -1.0711
  951MOL0     H31204  13.746  10.393   4.598  0.8297 -0.6255  0.8980
  951MOL0     H31205  13.701  10.514   4.719 -3.0811  0.0610  0.3921
  951MOL0     H31206  13.820  10.241   4.765  0.6725  0.5298 -0.5552
  951MOL0     H31207  13.787  10.358   4.899 -1.6481 -2.8396  0.2650
  951MOL0     H31208  13.936  10.523   4.790 -0.9478  0.8255 -5.6022
  951MOL0     H31209  13.971  10.409   4.660  1.6097  2.6787 -0.3482
  951MOL0     H31210  14.039  10.380   4.959  0.2968  0.3956 -0.5752
  951MOL0     H31211  14.060  10.256   4.849  2.7098 -0.2157  3.0801
  951MOL0     H31212  14.276  10.357   4.863  1.3814 -2.0476 -3.7955
  951MOL0     H31213  14.221  10.524   4.819  3.3446 -0.2683 -0.2263
  951MOL0     H31214  14.189  10.468   4.584 -1.3936 -1.0223 -1.0761
  951MOL0     H31215  14.204  10.299   4.619  0.9510 -0.8290  0.7307
  951MOL0     H31216  14.428  10.326   4.716 -0.6952  3.2878  3.8047
  951MOL0     H31217  14.411  10.502   4.670  1.0300  1.1531 -2.8223
  951MOL0     H31218  13.327  10.216   4.671 -1.2391  2.2702 -3.4275
  951MOL0     H31219  13.099  10.196   4.704  5.1863 -3.4681 -1.1990
  951MOL0     H31220  12.699  10.373   4.626  2.4406 -2.6088  0.4619
  951MOL0     H31221  12.463  10.345   4.652  1.6993  2.8794 -0.1933
  951MOL0     H31222  11.233  10.923   4.004  1.0069 -1.0948  1.2073
  951MOL0     H31223  11.081  10.742   3.888  0.4405  1.5524 -1.7431
  951MOL0     H31224  11.034  10.315   3.734  2.9929  0.5596 -0.3014
  951MOL0     H31225  10.874  10.181   3.653 -3.0456  1.7170  0.5488
  951MOL0     H31226  10.719   9.968   3.372 -1.4269  0.5647 -0.8921
  951MOL0     H31227  10.834   9.995   3.493 -1.0002  0.2902  1.8613
  951MOL0     H31228  10.550  10.124   3.508 -0.8073 -2.4214 -1.9446
  951MOL0     H31229  10.686  10.152   3.615  2.4595 -1.1808 -1.9290
  951MOL0     H31230  10.557   9.875   3.575  2.0452 -1.2873 -0.9624
  951MOL0     H31231  10.700   9.923   3.681  1.1426  1.1444  0.6368
  951MOL0     H31232  10.400   9.976   3.724  0.6651  0.8881  0.4848
  951MOL0     H31233  10.506  10.081   3.804 -1.9237  0.5343 -0.1540
  951MOL0     H31234  10.563   9.749   4.057 -1.5902 -0.4532 -0.9892
  951MOL0     H31235  10.871  10.382   3.271  2.1860  2.1704  0.9600
  951MOL0     H31236  11.013  10.546   3.223 -1.1694 -0.0217  0.6633
  951MOL0     H31237  11.009  10.667   3.355 -1.5909 -0.9389  0.5702
  951MOL0     H31238  11.154  10.571   3.320  0.1318  1.6676 -0.7222
  952MOL0     O31239   0.612   7.343   1.048 -0.0507  1.0956 -0.1727
  952MOL0     C31240   0.630   7.463   1.023  0.9694  0.2645 -0.1248
  952MOL0     O31241   0.518   7.548   1.016  0.7905 -0.0451  0.2880
  952MOL0     C31242   0.392   7.489   1.028 -0.1183  0.1504 -0.7112
  952MOL0     C31243   0.326   7.444   0.914 -0.5993  0.5722 -0.0344
  952MOL0     C31244   0.215   7.369   0.912 -0.4441 -0.2265  0.9074
  952MOL0     C31245   0.144   7.352   1.030 -0.4865 -0.7131  0.2939
  952MOL0     O31246   0.030   7.280   1.028 -1.1246 -0.1674 -0.2369
  952MOL0     C31247  -0.077   7.352   0.970 -0.1041 -0.3288  0.3361
  952MOL0     C31248  -0.190   7.259   1.002 -1.0127  1.0130 -1.2046
  952MOL0     C31249  -0.315   7.314   0.934 -0.1322 -1.4672  0.0186
  952MOL0     C31250  -0.434   7.230   0.960  0.4619 -0.1841 -0.2214
  952MOL0     C31251  -0.565   7.291   0.905 -0.2713 -0.1420  0.4578
  952MOL0     C31252  -0.575   7.289   0.749 -0.4621  0.2305 -0.3144
  952MOL0     C31253  -0.587   7.135   0.710 -0.5805  0.2356  0.6071
  952MOL0     C31254  -0.689   7.110   0.600  0.2562 -0.5673 -0.4960
  952MOL0     N31255  -0.703   6.974   0.544 -0.5068  0.8023 -0.0081
  952MOL0     C31256  -0.759   6.876   0.618  0.0730  0.8884 -0.1397
  952MOL0     C31257  -0.736   6.763   0.533  0.1231 -0.1858 -0.2023
  952MOL0     C31258  -0.769   6.615   0.560  1.1184  0.7987  0.5829
  952MOL0     C31259  -0.882   6.563   0.472  0.4531  0.3489 -0.7983
  952MOL0     C31260  -1.027   6.601   0.506  0.7812  0.0468 -0.2077
  952MOL0     C31261  -1.136   6.488   0.493 -0.5265 -0.0085  0.8028
  952MOL0     O31262  -1.179   6.454   0.624  0.3250 -0.1924 -0.7218
  952MOL0     C31263  -1.256   6.538   0.702  0.1873 -0.0506  0.0956
  952MOL0     C31264  -1.261   6.501   0.839  0.7674  0.7175 -0.9064
  952MOL0     C31265  -1.342   6.564   0.937 -0.5220 -0.6026 -0.3022
  952MOL0     C31266  -1.328   6.512   1.074 -0.1905  0.8181 -0.2778
  952MOL0     C31267  -1.407   6.682   0.903 -0.1556  0.0037 -0.8692
  952MOL0     C31268  -1.475   6.768   0.994  0.8290 -0.3361  0.0021
  952MOL0     O31269  -1.460   6.742   1.131 -0.0719  0.7491  0.3025
  952MOL0     C31270  -1.546   6.816   1.206 -0.4029  0.0826  0.9080
  952MOL0     C31271  -1.486   6.936   1.263  0.1484 -0.4929 -0.0490
  952MOL0     C31272  -1.550   7.021   1.357 -0.0517 -0.5945  0.1514
  952MOL0     C31273  -1.690   6.999   1.380 -0.0138  0.7082  1.0437
  952MOL0     O31274  -1.778   7.057   1.468 -0.0432 -0.4346 -0.9638
  952MOL0     C31275  -1.758   7.188   1.513  0.2475 -1.4314 -1.1274
  952MOL0     C31276  -1.885   7.262   1.538  1.2499 -0.6118 -0.3446
  952MOL0     C31277  -1.979   7.172   1.615 -0.7709 -0.0279  0.3395
  952MOL0     C31278  -2.123   7.230   1.621  0.6431  0.1895  0.2653
  952MOL0     C31279  -2.137   7.340   1.727  0.6382  0.2714 -0.0039
  952MOL0     C31280  -2.262   7.429   1.711 -0.5088 -0.6998 -0.6088
  952MOL0     C31281  -2.239   7.526   1.590  0.3096  0.0449 -0.4170
  952MOL0     C31282  -2.346   7.629   1.598  0.7359  0.1792  0.0750
  952MOL0    Cl31283  -2.477   7.585   1.488  0.3229 -0.1149  0.6545
  952MOL0     C31284  -1.749   6.888   1.325  0.4541  0.3161  1.2091
  952MOL0     C31285  -1.679   6.796   1.241  0.2202 -0.4614  0.2718
  952MOL0     O31286  -1.531   6.872   0.948  1.0546 -0.1825 -0.2964
  952MOL0     C31287  -1.403   6.715   0.761 -0.1000 -0.3733  1.0156
  952MOL0     C31288  -1.334   6.645   0.666 -0.5345  0.5826  0.4914
  952MOL0     N31289  -0.668   6.804   0.418 -0.7057  0.2798 -0.1904
  952MOL0     N31290  -0.653   6.935   0.428 -0.5124 -0.4261  0.4090
  952MOL0     C31291   0.193   7.395   1.150 -0.4596 -0.4363 -1.2409
  952MOL0     C31292   0.317   7.466   1.157  0.2978 -0.6275  0.6767
  952MOL0     C31293   0.768   7.522   0.994  0.0746  0.8151 -0.8608
  952MOL0     C31294   0.772   7.659   0.973 -0.4683 -0.6121 -0.1165
  952MOL0     C31295   0.892   7.718   0.946  0.0678 -0.5752 -0.2779
  952MOL0     C31296   1.009   7.648   0.942  0.4691  0.3663  0.6977
  952MOL0     O31297   1.132   7.703   0.921  0.1036 -0.3827  0.0705
  952MOL0     C31298   1.152   7.837   0.961 -0.0429  0.6104  0.7389
  952MOL0     C31299   1.300   7.883   0.965 -0.5160  0.5620  0.1945
  952MOL0     C31300   1.374   7.795   1.072 -1.0996 -0.4843 -0.2562
  952MOL0     C31301   1.526   7.823   1.099  0.6385 -0.9169 -0.1215
  952MOL0     C31302   1.520   7.950   1.169 -0.1133  0.6117 -0.1504
  952MOL0     C31303   1.505   8.057   1.231  0.3927  0.4301  0.3517
  952MOL0     C31304   1.006   7.511   0.952 -0.4273  0.6256  0.3192
  952MOL0     C31305   0.883   7.443   0.973 -1.0270  0.1306 -0.5806
  952MOL0     C31306   0.885   7.295   0.973  0.0062 -0.4198  0.0211
  952MOL0     H31307   0.379   7.470   0.823  1.1028  1.7259  1.2085
  952MOL0     H31308   0.178   7.330   0.818  2.7440  0.4903 -0.8142
  952MOL0     H31309  -0.080   7.367   0.862 -0.1105 -1.4243  0.1714
  952MOL0     H31310  -0.091   7.445   1.025 -1.4682 -1.4626  2.0545
  952MOL0     H31311  -0.171   7.157   0.968 -2.8447 -1.0920  3.2545
  952MOL0     H31312  -0.191   7.253   1.111 -1.2053  2.9425 -1.0770
  952MOL0     H31313  -0.333   7.415   0.972  2.1049 -0.8930 -0.3336
  952MOL0     H31314  -0.304   7.315   0.825  0.3316 -1.2475  0.0650
  952MOL0     H31315  -0.423   7.133   0.911  1.0912 -0.0895 -0.2678
  952MOL0     H31316  -0.433   7.222   1.069 -1.2544  1.3837 -0.0315
  952MOL0     H31317  -0.581   7.393   0.940 -0.9812 -0.3088  0.6320
  952MOL0     H31318  -0.649   7.235   0.947  0.9574 -3.0779 -0.7024
  952MOL0     H31319  -0.657   7.348   0.708 -0.7268 -1.6225 -2.6582
  952MOL0     H31320  -0.485   7.326   0.699  0.7115  0.2961  1.7085
  952MOL0     H31321  -0.610   7.070   0.795 -1.8622 -0.1099  0.0161
  952MOL0     H31322  -0.491   7.114   0.663 -1.4413  1.4512 -1.8550
  952MOL0     H31323  -0.787   7.149   0.631 -0.5382  1.3575 -4.7568
  952MOL0     H31324  -0.671   7.172   0.512 -1.0140 -0.5987 -0.8012
  952MOL0     H31325  -0.806   6.876   0.716  0.4807  1.1057  0.0556
  952MOL0     H31326  -0.804   6.610   0.664 -0.5433  2.3403  0.1535
  952MOL0     H31327  -0.686   6.545   0.550  0.9841  0.7447 -0.2019
  952MOL0     H31328  -0.866   6.576   0.365  0.9664 -0.0392 -0.7761
  952MOL0     H31329  -0.872   6.455   0.484  3.4266  0.6509  0.1406
  952MOL0     H31330  -1.022   6.625   0.612  2.8430 -0.3672 -0.1833
  952MOL0     H31331  -1.058   6.688   0.448  2.0669 -1.0880 -2.7669
  952MOL0     H31332  -1.227   6.520   0.443  0.3820  1.0839 -0.2129
  952MOL0     H31333  -1.097   6.412   0.425 -0.5424  0.8717 -0.2183
  952MOL0     H31334  -1.211   6.412   0.877  0.2917  0.5888 -0.5601
  952MOL0     H31335  -1.275   6.416   1.076  1.6960  1.7348 -2.1921
  952MOL0     H31336  -1.423   6.481   1.118 -2.3533  0.0597 -4.9535
  952MOL0     H31337  -1.270   6.575   1.143  2.1561 -0.4947 -0.9292
  952MOL0     H31338  -1.385   6.975   1.249 -0.8015  1.8227 -1.0043
  952MOL0     H31339  -1.502   7.102   1.411 -1.6020  0.8066 -0.4663
  952MOL0     H31340  -1.701   7.189   1.606  1.7162  0.0311 -1.9979
  952MOL0     H31341  -1.706   7.248   1.438  0.4261  0.7035  0.6291
  952MOL0     H31342  -1.860   7.352   1.596  0.7368 -0.3454 -0.5333
  952MOL0     H31343  -1.918   7.290   1.437  2.0522  0.1118 -0.4185
  952MOL0     H31344  -1.940   7.151   1.715 -1.8237  0.5316  0.8815
  952MOL0     H31345  -1.987   7.074   1.566 -0.4969  0.6411 -1.1097
  952MOL0     H31346  -2.195   7.161   1.664  0.9858  1.0365  2.3092
  952MOL0     H31347  -2.174   7.247   1.526  1.7382 -2.8693 -0.9905
  952MOL0     H31348  -2.147   7.292   1.825  1.2882 -2.4415 -1.1820
  952MOL0     H31349  -2.049   7.405   1.732 -0.2881  1.4652  1.6441
  952MOL0     H31350  -2.274   7.475   1.810  3.5321 -1.7315  0.5512
  952MOL0     H31351  -2.357   7.377   1.697 -1.5167 -0.0071  2.6881
  952MOL0     H31352  -2.231   7.474   1.494  2.5144  0.8120 -0.7211
  952MOL0     H31353  -2.143   7.578   1.602  0.9607 -0.5927 -2.4011
  952MOL0     H31354  -2.307   7.715   1.543  0.1288 -0.8612 -2.1015
  952MOL0     H31355  -2.385   7.655   1.697 -0.2540  1.5319 -0.6285
  952MOL0     H31356  -1.853   6.859   1.341 -0.4171 -0.7043 -4.2643
  952MOL0     H31357  -1.726   6.711   1.192  0.1777 -0.0846 -0.3571
  952MOL0     H31358  -1.452   6.803   0.720  0.2437  0.5877  2.5825
  952MOL0     H31359  -1.339   6.667   0.560  2.1661  2.0802  0.5798
  952MOL0     H31360   0.141   7.364   1.239  2.3636 -0.6246  0.4685
  952MOL0     H31361   0.346   7.494   1.257 -1.0201 -0.8163  1.1176
  952MOL0     H31362   0.684   7.720   0.988  0.5163  0.9190 -0.3017
  952MOL0     H31363   0.889   7.824   0.925  1.2238 -0.5810 -0.5124
  952MOL0     H31364   1.109   7.910   0.893 -1.1591  0.8444  1.6722
  952MOL0     H31365   1.107   7.852   1.060 -0.8619 -0.2133  0.5002
  952MOL0     H31366   1.302   7.992   0.973  2.7819  0.8537 -2.1871
  952MOL0     H31367   1.343   7.854   0.868  0.3807  1.9225  0.1588
  952MOL0     H31368   1.334   7.805   1.174  0.6531 -3.8702  0.9471
  952MOL0     H31369   1.360   7.688   1.055  1.1299 -1.1806  1.6492
  952MOL0     H31370   1.589   7.836   1.010 -0.3653  1.6616 -0.5456
  952MOL0     H31371   1.571   7.740   1.155  0.5285  0.2170  1.7037
  952MOL0     H31372   1.507   8.154   1.278  0.2106  1.4740 -1.6728
  952MOL0     H31373   1.101   7.457   0.945 -0.1976  0.9508  0.9120
  952MOL0     H31374   0.870   7.256   1.074  0.6425  0.4283  0.4595
  952MOL0     H31375   0.801   7.264   0.911  1.3744  1.1627 -2.8142
  952MOL0     H31376   0.979   7.262   0.928  1.8391  2.8620  1.1148
  953MOL0     O31377   5.861   5.568  10.433  0.0442  0.4785  0.4716
  953MOL0     C31378   5.899   5.549  10.314 -1.1080  0.4243 -0.6477
  953MOL0     O31379   5.935   5.652  10.229  0.3274  0.6699  0.6940
  953MOL0     C31380   5.924   5.784  10.265 -0.3129  0.2717  0.4260
  953MOL0     C31381   5.991   5.833  10.369  0.2224  0.0595 -0.6188
  953MOL0     C31382   5.983   5.965  10.405  0.3418 -0.2113  0.0756
  953MOL0     C31383   5.880   6.042  10.357  0.2392 -1.2810  0.9481
  953MOL0     O31384   5.857   6.175  10.388  0.5955 -0.1690  0.0270
  953MOL0     C31385   5.911   6.226  10.513 -0.6413  0.1953  0.3116
  953MOL0     C31386   5.831   6.147  10.623 -0.5781  0.3487 -0.0227
  953MOL0     C31387   5.673   6.168  10.619 -0.6661 -0.3532  0.4602
  953MOL0     C31388   5.592   6.040  10.637 -0.1879  0.0299 -0.2493
  953MOL0     C31389   5.618   5.994  10.783 -0.1278  0.3997 -1.0172
  953MOL0     C31390   5.534   5.869  10.804 -0.2117  1.3014 -0.7291
  953MOL0     C31391   5.571   5.818  10.943  0.7074  1.1225 -0.6405
  953MOL0     C31392   5.507   5.684  10.970  0.2442 -0.8307  0.3888
  953MOL0     N31393   5.530   5.643  11.100  0.0083 -0.5044  0.3169
  953MOL0     C31394   5.651   5.620  11.158 -0.3857 -0.2519  0.1663
  953MOL0     C31395   5.634   5.539  11.264  0.4251  0.0172  0.2995
  953MOL0     C31396   5.741   5.487  11.359 -0.9453 -0.2649  0.0285
  953MOL0     C31397   5.810   5.352  11.327 -0.1262  0.1728  0.4281
  953MOL0     C31398   5.892   5.297  11.434  0.2455  0.7283 -0.0815
  953MOL0     C31399   6.043   5.278  11.402 -0.1976 -0.3317 -0.7611
  953MOL0     O31400   6.078   5.162  11.336  0.9617 -0.7086 -0.1564
  953MOL0     C31401   6.139   5.180  11.218  0.5741 -0.1723  1.6873
  953MOL0     C31402   6.068   5.138  11.108 -0.6214 -1.1879 -0.0955
  953MOL0     C31403   6.126   5.127  10.986 -0.6966 -0.5106  0.1980
  953MOL0     C31404   6.034   5.076  10.870 -1.0677  0.0227  0.3750
  953MOL0     C31405   6.261   5.170  10.960  0.5295  0.2556  0.8889
  953MOL0     C31406   6.330   5.161  10.826 -0.0859 -1.6231 -0.3165
  953MOL0     O31407   6.461   5.122  10.827  0.2014  0.7460 -0.0205
  953MOL0     C31408   6.534   5.104  10.705  1.0601 -0.4628  0.2668
  953MOL0     C31409   6.601   5.211  10.644  0.8486 -0.1100  0.7919
  953MOL0     C31410   6.684   5.188  10.532  0.3941 -0.1986  0.1685
  953MOL0     C31411   6.710   5.054  10.492  0.3881  0.9335  0.9461
  953MOL0     O31412   6.804   5.019  10.401  0.3752 -0.3715  0.6431
  953MOL0     C31413   6.875   5.121  10.344  0.1681 -0.8867  1.0553
  953MOL0     C31414   6.973   5.072  10.227 -0.4326  0.0972 -0.4341
  953MOL0     C31415   6.899   5.028  10.102 -1.1317 -0.2341 -1.4703
  953MOL0     C31416   7.002   5.007   9.983 -0.1537  0.2133  0.4203
  953MOL0     C31417   6.951   4.989   9.836 -0.1734  0.7143  0.6742
  953MOL0     C31418   6.863   4.869   9.833 -0.1045  0.3674  0.5965
  953MOL0     C31419   6.802   4.843   9.700 -0.2493  1.6750  0.6053
  953MOL0     C31420   6.731   4.714   9.684  0.2714 -0.3396 -0.1178
  953MOL0    Cl31421   6.571   4.715   9.758  0.3880 -0.4655  0.1080
  953MOL0     C31422   6.638   4.947  10.542 -1.3169 -0.8725 -0.2790
  953MOL0     C31423   6.544   4.980  10.641  0.2876 -0.4520 -0.8110
  953MOL0     O31424   6.271   5.212  10.729 -0.6096 -0.6588 -0.5132
  953MOL0     C31425   6.339   5.219  11.075  1.2213  0.0064  1.1745
  953MOL0     C31426   6.272   5.228  11.200  0.2034 -0.7145  0.1631
  953MOL0     N31427   5.495   5.525  11.274 -0.1534  0.3687  0.7312
  953MOL0     N31428   5.437   5.575  11.170  0.1785 -0.7304  0.3645
  953MOL0     C31429   5.801   5.988  10.251  0.0285 -0.5111  0.7100
  953MOL0     C31430   5.822   5.861  10.204  0.3512 -0.4350 -0.4362
  953MOL0     C31431   5.898   5.414  10.262  0.0317  0.6139  0.0856
  953MOL0     C31432   5.909   5.412  10.117 -0.3120  0.2449 -0.4407
  953MOL0     C31433   5.926   5.288  10.053 -0.4659 -2.1379 -0.5510
  953MOL0     C31434   5.935   5.171  10.128  0.4956 -0.6071 -0.2420
  953MOL0     O31435   5.967   5.059  10.050  0.2327 -0.1947  0.4858
  953MOL0     C31436   5.942   4.916  10.082  0.9906 -0.0115  0.0069
  953MOL0     C31437   5.964   4.848   9.949 -0.0127 -1.2762  0.7004
  953MOL0     C31438   6.114   4.850   9.909 -0.3172  0.1991 -0.0911
  953MOL0     C31439   6.218   4.792  10.011 -0.3805 -0.2686  1.2713
  953MOL0     C31440   6.175   4.661  10.067 -0.8277  0.3671 -0.0076
  953MOL0     C31441   6.132   4.552  10.109 -0.3332  0.1360 -0.2386
  953MOL0     C31442   5.912   5.179  10.273 -0.2784  0.2044  0.4013
  953MOL0     C31443   5.899   5.291  10.336  0.2757 -0.6367  0.0959
  953MOL0     C31444   5.900   5.283  10.478 -0.0888 -0.7436 -0.6399
  953MOL0     H31445   6.071   5.773  10.411  0.7254 -0.0393 -1.6916
  953MOL0     H31446   6.049   5.999  10.484  1.7527 -2.1439 -0.1714
  953MOL0     H31447   5.889   6.333  10.511 -0.5136  0.4454 -5.3787
  953MOL0     H31448   6.016   6.196  10.521 -1.4309 -3.9834 -2.2862
  953MOL0     H31449   5.843   6.041  10.599  1.0769  0.6629 -0.7085
  953MOL0     H31450   5.873   6.174  10.720  1.8065  0.8888 -1.1322
  953MOL0     H31451   5.651   6.245  10.694 -0.0346  1.9823 -1.6255
  953MOL0     H31452   5.657   6.212  10.520  3.9642  1.1219  0.1339
  953MOL0     H31453   5.484   6.048  10.620 -0.0280  1.1363 -0.8278
  953MOL0     H31454   5.627   5.960  10.571 -1.4079 -3.0195  2.5332
  953MOL0     H31455   5.582   6.074  10.849 -3.3180 -2.7841  1.5885
  953MOL0     H31456   5.720   5.965  10.808 -0.9136 -4.2956 -2.3329
  953MOL0     H31457   5.426   5.883  10.804 -0.3925  0.8883  2.8211
  953MOL0     H31458   5.558   5.798  10.724 -0.1005  1.5868 -0.9495
  953MOL0     H31459   5.536   5.895  11.012  4.3285  0.7602  1.9144
  953MOL0     H31460   5.678   5.810  10.963  0.0339 -0.5119  3.2319
  953MOL0     H31461   5.398   5.684  10.962  0.1955 -2.6930  0.6320
  953MOL0     H31462   5.527   5.613  10.888 -0.5667 -0.0883 -0.4719
  953MOL0     H31463   5.753   5.641  11.126 -0.5672 -2.0184 -1.8100
  953MOL0     H31464   5.691   5.483  11.456 -2.4896  3.3030 -0.4382
  953MOL0     H31465   5.825   5.552  11.385 -0.3964 -2.4018  4.5137
  953MOL0     H31466   5.728   5.284  11.303 -0.8904  1.8565 -2.0886
  953MOL0     H31467   5.866   5.360  11.233 -2.9410 -2.3243 -1.6603
  953MOL0     H31468   5.878   5.358  11.524  0.9704  1.2024 -0.2821
  953MOL0     H31469   5.840   5.203  11.454  0.5740  0.7915  1.1632
  953MOL0     H31470   6.080   5.363  11.345 -0.0263  0.2598  0.2109
  953MOL0     H31471   6.091   5.281  11.501 -1.1946 -0.0690 -0.2715
  953MOL0     H31472   5.962   5.118  11.122 -1.3019  1.8746 -0.1511
  953MOL0     H31473   6.000   5.151  10.798 -1.1755  0.1883  0.5961
  953MOL0     H31474   5.945   5.029  10.913 -0.4799 -2.3642 -0.8501
  953MOL0     H31475   6.094   4.998  10.823  0.7763 -1.0655  4.1547
  953MOL0     H31476   6.589   5.315  10.673 -0.8181 -0.0294 -0.0614
  953MOL0     H31477   6.709   5.278  10.477 -2.9096  1.1285  0.5704
  953MOL0     H31478   6.803   5.193  10.304  1.2402 -0.4605 -0.1732
  953MOL0     H31479   6.935   5.169  10.422  1.0328  0.4733 -0.4096
  953MOL0     H31480   7.036   5.153  10.189 -0.6628 -0.0111 -1.0569
  953MOL0     H31481   7.047   5.000  10.263 -0.3743  1.2224  1.9293
  953MOL0     H31482   6.839   5.118  10.085 -1.9153  0.9285  4.8571
  953MOL0     H31483   6.849   4.933  10.122  2.5382 -1.5447  3.0457
  953MOL0     H31484   7.057   4.916  10.006 -2.4197 -1.3705 -0.1613
  953MOL0     H31485   7.080   5.085   9.985  0.0281  0.0183  1.2183
  953MOL0     H31486   6.910   5.082   9.796 -2.2498 -0.6451 -0.5513
  953MOL0     H31487   7.048   4.969   9.788 -1.2574 -2.8181 -0.3122
  953MOL0     H31488   6.772   4.862   9.893 -1.7708  2.6002 -1.4718
  953MOL0     H31489   6.932   4.793   9.869  0.6013  2.2242  3.5263
  953MOL0     H31490   6.883   4.847   9.626  0.8000 -2.2176  1.2850
  953MOL0     H31491   6.733   4.922   9.670 -1.0200  1.3825  1.5848
  953MOL0     H31492   6.786   4.635   9.737  0.3918  0.2720  0.6853
  953MOL0     H31493   6.716   4.698   9.577 -0.5104 -0.1073 -0.0480
  953MOL0     H31494   6.665   4.846  10.512 -0.5931 -0.1563 -2.1476
  953MOL0     H31495   6.491   4.895  10.683  2.0690 -2.9217 -3.1982
  953MOL0     H31496   6.436   5.264  11.056 -0.2053  2.5622 -0.7992
  953MOL0     H31497   6.333   5.259  11.284 -0.6598 -2.0398  1.3278
  953MOL0     H31498   5.715   6.039  10.210  1.6233  0.8497 -1.1300
  953MOL0     H31499   5.744   5.821  10.140  0.7021 -1.7674 -0.0627
  953MOL0     H31500   5.904   5.498  10.051  2.3482 -0.8799 -2.3281
  953MOL0     H31501   5.942   5.269   9.947 -1.5627 -1.1775 -0.9118
  953MOL0     H31502   5.999   4.866  10.161  1.0896  1.7415  1.0957
  953MOL0     H31503   5.837   4.897  10.106  1.1153  0.5513  1.0248
  953MOL0     H31504   5.924   4.917   9.875  1.0753  0.7170  1.8770
  953MOL0     H31505   5.913   4.751   9.936 -3.8390  0.5271  0.9244
  953MOL0     H31506   6.126   4.784   9.823  4.9947  0.6668 -0.0959
  953MOL0     H31507   6.154   4.947   9.879 -0.2193  1.2591  3.0489
  953MOL0     H31508   6.218   4.870  10.088 -3.0970  3.2597 -1.8976
  953MOL0     H31509   6.320   4.789   9.974  0.1321  0.3469  2.5448
  953MOL0     H31510   6.084   4.466  10.151  0.0573  0.0233 -0.0204
  953MOL0     H31511   5.906   5.085  10.326 -1.1114  1.1337  2.0507
  953MOL0     H31512   5.877   5.179  10.503  0.6008 -0.5938  0.7170
  953MOL0     H31513   6.002   5.299  10.513  0.3940 -2.5552 -1.1474
  953MOL0     H31514   5.828   5.352  10.525  0.6677 -1.0363  1.0213
  954MOL0     O31515   8.899   7.337   1.583 -0.0341 -0.1843  0.6873
  954MOL0     C31516   8.945   7.278   1.674 -0.2321  0.0277 -0.0977
  954MOL0     O31517   9.004   7.152   1.665 -0.3359  0.6046 -0.5263
  954MOL0     C31518   9.023   7.106   1.541 -0.5359 -0.4215 -0.1704
  954MOL0     C31519   8.944   7.003   1.503  0.0926  0.7931 -0.8406
  954MOL0     C31520   8.945   6.957   1.375  0.3442 -0.2568  0.1829
  954MOL0     C31521   9.043   6.990   1.284  0.2359  0.3104 -0.5095
  954MOL0     O31522   9.021   6.928   1.163 -0.1286 -0.0904 -0.7009
  954MOL0     C31523   9.118   6.949   1.062  0.2440 -0.1918 -0.4773
  954MOL0     C31524   9.076   6.870   0.933  0.6010  0.4635 -0.1372
  954MOL0     C31525   9.177   6.930   0.826 -0.7423  0.5575  0.5128
  954MOL0     C31526   9.132   7.059   0.751 -0.4728 -1.5577  0.5129
  954MOL0     C31527   8.985   7.064   0.697  0.0827 -0.9323  0.0546
  954MOL0     C31528   8.956   7.195   0.623 -0.6293 -0.1122  0.3684
  954MOL0     C31529   8.818   7.222   0.576  0.3170 -0.4038  0.5241
  954MOL0     C31530   8.796   7.367   0.526 -0.3484  1.2379 -0.0943
  954MOL0     N31531   8.656   7.393   0.512  0.1370 -0.4358 -1.2351
  954MOL0     C31532   8.589   7.508   0.554 -0.0128 -0.3310  0.7629
  954MOL0     C31533   8.468   7.506   0.497 -0.2849 -0.9243  0.8715
  954MOL0     C31534   8.342   7.585   0.522  1.2234  0.2376 -0.6217
  954MOL0     C31535   8.265   7.630   0.396  0.0078  0.8966  0.3020
  954MOL0     C31536   8.344   7.707   0.285 -0.0025  1.2971 -0.0668
  954MOL0     C31537   8.428   7.613   0.200  0.2813  0.6518  0.0532
  954MOL0     O31538   8.482   7.695   0.094  0.8054  0.7801 -1.0545
  954MOL0     C31539   8.599   7.671   0.034 -0.3610  0.0211 -0.5194
  954MOL0     C31540   8.693   7.576   0.074 -0.0900  0.3214 -0.5529
  954MOL0     C31541   8.804   7.547  -0.007 -0.7348  0.0426  0.6456
  954MOL0     C31542   8.911   7.461   0.058 -1.4100  0.8877  0.6697
  954MOL0     C31543   8.821   7.613  -0.135 -0.0728 -0.8064 -0.2259
  954MOL0     C31544   8.943   7.598  -0.221 -1.3595 -0.5509  0.2080
  954MOL0     O31545   8.932   7.598  -0.350 -0.0896 -0.2085 -0.6101
  954MOL0     C31546   9.042   7.592  -0.433  0.9566 -0.1866  0.7301
  954MOL0     C31547   9.168   7.659  -0.421 -0.1195  0.9188  0.1600
  954MOL0     C31548   9.277   7.614  -0.505  0.5095  0.5624  0.7964
  954MOL0     C31549   9.248   7.525  -0.613  0.3344 -0.5396 -0.7098
  954MOL0     O31550   9.340   7.508  -0.712  0.1845  0.6529  0.3202
  954MOL0     C31551   9.477   7.524  -0.675 -1.2277 -0.4583  0.1924
  954MOL0     C31552   9.564   7.478  -0.792  0.4157 -1.1994  0.7845
  954MOL0     C31553   9.724   7.509  -0.772  0.8808  0.5999  0.2701
  954MOL0     C31554   9.812   7.449  -0.880 -0.1323 -0.0204  0.8412
  954MOL0     C31555   9.826   7.292  -0.867  0.2228 -0.2530 -0.3534
  954MOL0     C31556   9.917   7.249  -0.751  0.5641 -0.4080  0.8264
  954MOL0     C31557   9.903   7.096  -0.741  0.3643  0.0853  0.5028
  954MOL0     C31558   9.982   7.029  -0.849  0.0249  0.6862 -0.0953
  954MOL0    Cl31559   9.895   7.002  -1.013 -0.5569 -0.2396 -0.0909
  954MOL0     C31560   9.121   7.464  -0.619  1.1340 -0.0500  0.8784
  954MOL0     C31561   9.015   7.492  -0.527 -0.1742  0.2579  0.3868
  954MOL0     O31562   9.051   7.567  -0.161 -0.8622  0.2572  0.8001
  954MOL0     C31563   8.711   7.688  -0.185 -0.5128  0.5279  0.3219
  954MOL0     C31564   8.608   7.716  -0.099 -0.4610  0.1141  0.1460
  954MOL0     N31565   8.475   7.395   0.412  0.7494  0.3341  0.0868
  954MOL0     N31566   8.581   7.320   0.431  0.6081 -0.1933 -0.5607
  954MOL0     C31567   9.135   7.085   1.326 -0.4117  0.3255 -0.0836
  954MOL0     C31568   9.125   7.149   1.452 -1.3757 -0.0381  0.0408
  954MOL0     C31569   8.949   7.344   1.805  0.4154  0.5687  0.1255
  954MOL0     C31570   8.859   7.453   1.817 -0.4350  0.8073 -0.0935
  954MOL0     C31571   8.861   7.532   1.928  0.8363  0.1030  0.0491
  954MOL0     C31572   8.939   7.489   2.031 -0.0728  0.2994 -0.6099
  954MOL0     O31573   8.933   7.575   2.141 -0.0930  0.3214 -0.0229
  954MOL0     C31574   8.889   7.518   2.263  0.1552  0.2901 -0.0303
  954MOL0     C31575   8.865   7.612   2.388 -0.0462  0.2559  0.2611
  954MOL0     C31576   8.789   7.748   2.362 -0.3059 -0.0044  0.2967
  954MOL0     C31577   8.638   7.726   2.318 -1.7546 -0.0025 -0.2153
  954MOL0     C31578   8.564   7.621   2.385 -0.2705  0.4079 -0.0799
  954MOL0     C31579   8.507   7.533   2.455  1.3859  0.3136  0.2753
  954MOL0     C31580   9.026   7.378   2.029  0.4941  0.4599 -1.1978
  954MOL0     C31581   9.027   7.302   1.911 -1.3345 -0.6478 -0.0024
  954MOL0     C31582   9.124   7.183   1.939 -0.8123  0.2819  0.3263
  954MOL0     H31583   8.881   6.955   1.577 -3.1752  1.9707 -2.6607
  954MOL0     H31584   8.869   6.881   1.358 -0.3838  0.7441 -1.2599
  954MOL0     H31585   9.209   6.898   1.097 -1.1249 -1.0210  2.1906
  954MOL0     H31586   9.142   7.055   1.050 -0.2971 -0.1445 -1.1777
  954MOL0     H31587   9.105   6.766   0.952  1.8108  1.0994  1.8115
  954MOL0     H31588   8.971   6.883   0.907 -0.1712 -1.4434  1.7596
  954MOL0     H31589   9.276   6.950   0.869 -0.7209 -1.0510  1.2610
  954MOL0     H31590   9.185   6.844   0.759 -0.6723  3.1066 -3.0606
  954MOL0     H31591   9.138   7.135   0.830  0.6025 -2.5476  1.4242
  954MOL0     H31592   9.202   7.085   0.671  2.1840 -1.6545  2.6516
  954MOL0     H31593   8.910   7.074   0.776  2.0257 -2.1474  2.1595
  954MOL0     H31594   8.973   6.976   0.633 -1.2581  0.7997 -2.2609
  954MOL0     H31595   8.992   7.276   0.687  0.6799  0.1817 -0.6821
  954MOL0     H31596   9.028   7.181   0.541  0.0293 -0.4634  0.9910
  954MOL0     H31597   8.741   7.201   0.651 -2.7430  2.3511 -1.5623
  954MOL0     H31598   8.798   7.156   0.492 -0.1798  1.2569 -0.7077
  954MOL0     H31599   8.836   7.429   0.607  1.2490 -0.5284  0.5321
  954MOL0     H31600   8.848   7.392   0.433  0.1856  0.7000  0.0592
  954MOL0     H31601   8.626   7.582   0.624 -1.3598  2.7068 -1.5101
  954MOL0     H31602   8.360   7.675   0.581  0.7886  0.2430 -0.4980
  954MOL0     H31603   8.282   7.522   0.588  6.2533 -1.6983  2.7891
  954MOL0     H31604   8.211   7.547   0.348  0.5549  0.3078  0.6874
  954MOL0     H31605   8.187   7.696   0.435 -0.1905  0.2421  1.0535
  954MOL0     H31606   8.276   7.770   0.226  0.0259  0.4103 -1.0731
  954MOL0     H31607   8.414   7.770   0.341  0.5899  0.2576  0.3796
  954MOL0     H31608   8.510   7.572   0.259 -1.9663  0.2576  3.1174
  954MOL0     H31609   8.366   7.533   0.159 -1.4608  3.1327 -2.5210
  954MOL0     H31610   8.698   7.528   0.171 -1.2748  3.3173  1.1283
  954MOL0     H31611   8.866   7.381   0.118  0.0220 -1.2536 -0.9792
  954MOL0     H31612   8.990   7.513   0.112  4.0945 -4.2143 -1.3607
  954MOL0     H31613   8.972   7.404  -0.013 -2.3625 -1.2664  1.4766
  954MOL0     H31614   9.185   7.727  -0.337  3.7082 -0.2975  0.5991
  954MOL0     H31615   9.377   7.653  -0.491  1.4557 -1.1216 -0.7744
  954MOL0     H31616   9.502   7.630  -0.659  1.3132 -1.0568  0.5419
  954MOL0     H31617   9.506   7.467  -0.587 -0.1407 -0.1708  0.0334
  954MOL0     H31618   9.541   7.375  -0.822 -3.6451 -0.6069  1.2904
  954MOL0     H31619   9.533   7.539  -0.877 -1.1732 -0.2246  1.9939
  954MOL0     H31620   9.748   7.461  -0.677  1.4531  3.1643  1.5208
  954MOL0     H31621   9.737   7.617  -0.762 -3.7086  1.3032  1.2493
  954MOL0     H31622   9.913   7.490  -0.867  0.4614 -0.6024 -1.3920
  954MOL0     H31623   9.770   7.469  -0.979  3.1513  0.5668 -0.5833
  954MOL0     H31624   9.727   7.248  -0.850 -0.9116  1.2779 -2.4071
  954MOL0     H31625   9.852   7.244  -0.962 -0.4572 -2.3698  0.4702
  954MOL0     H31626   9.893   7.298  -0.656 -0.5761 -1.7863  1.2644
  954MOL0     H31627  10.023   7.276  -0.765  0.6758 -0.0607  2.1840
  954MOL0     H31628   9.797   7.068  -0.749  0.0568  1.6952 -4.2077
  954MOL0     H31629   9.942   7.056  -0.647  2.1679  0.1717 -0.1687
  954MOL0     H31630  10.016   6.932  -0.811  1.1080  1.7346  1.7143
  954MOL0     H31631  10.068   7.092  -0.872  0.1697  0.4559 -0.1862
  954MOL0     H31632   9.108   7.374  -0.679 -2.5651 -1.6895  3.6844
  954MOL0     H31633   8.922   7.442  -0.553  0.6206 -0.7305 -0.6130
  954MOL0     H31634   8.700   7.721  -0.288 -1.2450 -0.5430  0.0331
  954MOL0     H31635   8.519   7.769  -0.132 -2.1777 -1.2009  2.3317
  954MOL0     H31636   9.206   7.106   1.246 -1.5436 -2.4823 -1.9869
  954MOL0     H31637   9.201   7.223   1.477  0.4764 -2.0036  0.5308
  954MOL0     H31638   8.786   7.480   1.742 -2.8184 -0.4607  1.6311
  954MOL0     H31639   8.804   7.624   1.940  1.0594  0.2955 -0.3303
  954MOL0     H31640   8.797   7.467   2.236  1.5099 -0.8238 -2.9728
  954MOL0     H31641   8.965   7.450   2.304  1.9601  3.2578  1.9423
  954MOL0     H31642   8.966   7.641   2.418  1.5362 -4.0892 -0.1781
  954MOL0     H31643   8.820   7.569   2.479 -0.7639 -1.4097 -0.8291
  954MOL0     H31644   8.803   7.814   2.448  0.8577  1.0930 -0.7086
  954MOL0     H31645   8.839   7.796   2.278 -1.6754  0.2211 -0.4150
  954MOL0     H31646   8.628   7.708   2.210  2.0221  3.3895 -1.3761
  954MOL0     H31647   8.592   7.824   2.332  0.4272  0.8864  1.1860
  954MOL0     H31648   8.472   7.455   2.520 -0.8585  1.8801  1.0490
  954MOL0     H31649   9.083   7.365   2.121 -0.4999 -1.5858 -0.8129
  954MOL0     H31650   9.059   7.097   1.956 -1.0417  0.4125  0.1283
  954MOL0     H31651   9.202   7.158   1.867  0.6143  2.9874  0.8166
  954MOL0     H31652   9.168   7.201   2.037 -1.0924  1.0034  0.3303
  955MOL0     O31653   1.592  11.445   1.289  0.1623 -0.2731 -0.2768
  955MOL0     C31654   1.629  11.561   1.282  0.6765 -1.4457  0.9317
  955MOL0     O31655   1.544  11.670   1.257 -0.0703 -0.1678 -0.1794
  955MOL0     C31656   1.412  11.653   1.292  0.0841  0.2373  0.7263
  955MOL0     C31657   1.339  11.710   1.388 -0.8360 -1.1195 -0.7545
  955MOL0     C31658   1.210  11.667   1.417  1.0475 -0.7721 -0.7472
  955MOL0     C31659   1.145  11.569   1.342  0.4992  0.1533 -0.3942
  955MOL0     O31660   1.012  11.538   1.363 -0.0831  0.3772  0.7423
  955MOL0     C31661   0.950  11.540   1.494  0.0269 -0.1717 -0.5706
  955MOL0     C31662   0.874  11.411   1.499 -0.6903 -0.1929  0.2592
  955MOL0     C31663   0.717  11.419   1.480 -0.5277  0.6407 -0.2949
  955MOL0     C31664   0.640  11.291   1.452  1.7114  0.7162  0.7521
  955MOL0     C31665   0.483  11.308   1.433  0.3912  0.4919 -0.1800
  955MOL0     C31666   0.416  11.169   1.420 -0.6013 -1.0624  0.5587
  955MOL0     C31667   0.264  11.174   1.437 -0.0724 -0.1126 -0.6500
  955MOL0     C31668   0.183  11.200   1.314 -0.4976 -0.5505 -0.3324
  955MOL0     N31669   0.185  11.334   1.256  0.0108 -0.2450 -0.0172
  955MOL0     C31670   0.182  11.456   1.324 -0.1601  1.7879  0.2672
  955MOL0     C31671   0.229  11.545   1.232  0.7624  0.5569  0.5214
  955MOL0     C31672   0.242  11.691   1.260 -0.4176  0.0950 -0.4041
  955MOL0     C31673   0.385  11.711   1.305  0.5628  0.3863  0.2011
  955MOL0     C31674   0.480  11.702   1.200 -0.1170  0.0134  0.5832
  955MOL0     C31675   0.628  11.748   1.229 -0.2141 -0.6045 -0.1007
  955MOL0     O31676   0.630  11.890   1.242 -0.9066  0.0005 -1.0586
  955MOL0     C31677   0.753  11.950   1.259 -0.0820 -0.7936  0.3779
  955MOL0     C31678   0.750  12.089   1.258 -0.4222 -0.6586 -0.8179
  955MOL0     C31679   0.870  12.172   1.244 -0.1220  0.9438 -0.5543
  955MOL0     C31680   0.851  12.320   1.259 -0.6748 -0.8514  1.0928
  955MOL0     C31681   0.996  12.097   1.223  0.5513 -0.5522  1.1436
  955MOL0     C31682   1.121  12.166   1.200  0.0443  1.1450  0.1801
  955MOL0     O31683   1.235  12.089   1.240  0.2140  0.2751  0.6007
  955MOL0     C31684   1.365  12.139   1.218 -0.5070 -0.8924 -0.4391
  955MOL0     C31685   1.405  12.273   1.184  0.4289 -0.4059  0.0561
  955MOL0     C31686   1.537  12.298   1.153  0.2174  0.2840 -0.1069
  955MOL0     C31687   1.636  12.196   1.149  0.9708 -0.1018  0.0972
  955MOL0     O31688   1.762  12.228   1.099 -0.1316  0.5436 -0.0835
  955MOL0     C31689   1.867  12.160   1.161 -0.7927 -0.2638  0.2091
  955MOL0     C31690   2.004  12.241   1.152  0.3707 -0.0684 -0.0139
  955MOL0     C31691   2.031  12.278   1.010  0.7312 -0.0977 -0.0142
  955MOL0     C31692   2.172  12.339   0.989 -0.2363 -0.4333 -0.0101
  955MOL0     C31693   2.214  12.361   0.843 -0.2432  0.3408 -0.8104
  955MOL0     C31694   2.358  12.407   0.826  0.0421 -0.6452 -0.4318
  955MOL0     C31695   2.407  12.398   0.679 -0.8927 -0.4624 -0.1512
  955MOL0     C31696   2.560  12.373   0.652 -0.6911  0.3008 -1.0135
  955MOL0    Cl31697   2.606  12.225   0.739 -0.1909 -0.4878 -0.6088
  955MOL0     C31698   1.605  12.072   1.192 -0.1949 -1.1990  0.1881
  955MOL0     C31699   1.465  12.041   1.220 -0.5101  0.1089  0.2731
  955MOL0     O31700   1.115  12.283   1.161  0.1454  0.9526  0.5210
  955MOL0     C31701   0.998  11.949   1.219 -0.1404 -0.5822 -0.6911
  955MOL0     C31702   0.876  11.886   1.239  0.0038  0.4802  0.2682
  955MOL0     N31703   0.259  11.479   1.112 -0.1801  0.4730  0.2318
  955MOL0     N31704   0.246  11.353   1.134  0.1810 -0.0737 -0.0688
  955MOL0     C31705   1.213  11.534   1.220 -0.0648 -0.1869  0.5860
  955MOL0     C31706   1.335  11.569   1.200  0.0959  0.6417 -0.4915
  955MOL0     C31707   1.770  11.602   1.287 -0.0484  0.2573  0.3004
  955MOL0     C31708   1.837  11.645   1.408  0.1509  0.7210 -0.0873
  955MOL0     C31709   1.965  11.688   1.403 -0.7661  0.3522 -0.1298
  955MOL0     C31710   2.034  11.695   1.278 -1.3978 -0.2823 -0.3676
  955MOL0     O31711   2.156  11.751   1.296 -0.2760 -0.1023  0.2469
  955MOL0     C31712   2.227  11.804   1.180  0.4701  0.0866 -0.6668
  955MOL0     C31713   2.306  11.927   1.235 -0.1423 -0.5150 -0.0843
  955MOL0     C31714   2.388  11.905   1.372 -0.6551  0.2623 -0.0910
  955MOL0     C31715   2.530  11.855   1.337 -0.5928 -0.2515 -1.0744
  955MOL0     C31716   2.608  11.829   1.459 -0.0248  0.4144 -1.1186
  955MOL0     C31717   2.655  11.802   1.571  0.8233 -0.5974 -0.5279
  955MOL0     C31718   1.975  11.660   1.156  0.9313  0.5781 -0.4697
  955MOL0     C31719   1.833  11.619   1.161  0.1149  0.1872 -1.5732
  955MOL0     C31720   1.771  11.592   1.025 -0.2220  0.2385 -0.0335
  955MOL0     H31721   1.389  11.791   1.441 -1.3875  0.0659 -1.9535
  955MOL0     H31722   1.156  11.707   1.502 -1.0045 -0.9806 -1.8757
  955MOL0     H31723   0.881  11.626   1.494  0.4021  0.1428  0.7079
  955MOL0     H31724   1.016  11.545   1.581 -3.2948  0.2183  2.1453
  955MOL0     H31725   0.924  11.346   1.426  1.8976 -1.4625  2.9385
  955MOL0     H31726   0.882  11.364   1.597  1.4120  1.3970  0.9100
  955MOL0     H31727   0.676  11.467   1.569 -0.0274  2.4984 -1.0252
  955MOL0     H31728   0.700  11.481   1.391  0.7005 -1.5379 -2.1732
  955MOL0     H31729   0.678  11.243   1.361  0.0491 -0.3318  0.5697
  955MOL0     H31730   0.655  11.221   1.534  4.0860 -1.6499 -1.4987
  955MOL0     H31731   0.458  11.364   1.343 -1.8369 -0.2130 -0.0473
  955MOL0     H31732   0.432  11.361   1.514 -0.6202 -1.1990  0.3420
  955MOL0     H31733   0.451  11.144   1.319 -0.9488  2.3552 -0.5576
  955MOL0     H31734   0.468  11.095   1.481  1.1986  0.9316  1.6183
  955MOL0     H31735   0.232  11.240   1.517 -0.1285 -1.7866  0.7674
  955MOL0     H31736   0.247  11.071   1.470  2.7779 -0.7571 -0.9616
  955MOL0     H31737   0.212  11.128   1.237 -0.5562 -2.7599  1.6109
  955MOL0     H31738   0.080  11.175   1.340 -0.1308  1.5774  4.2016
  955MOL0     H31739   0.172  11.484   1.428  1.8372  0.6380  0.8408
  955MOL0     H31740   0.167  11.727   1.331  0.1225  1.7053 -0.5970
  955MOL0     H31741   0.214  11.750   1.172 -3.7086  0.4576  0.7595
  955MOL0     H31742   0.393  11.804   1.360  1.4452 -0.5741  1.7634
  955MOL0     H31743   0.407  11.633   1.379  3.6477  2.4285  1.6549
  955MOL0     H31744   0.479  11.601   1.157  0.8965  0.0680  0.4153
  955MOL0     H31745   0.452  11.771   1.120  1.7385 -1.3761 -1.3800
  955MOL0     H31746   0.651  11.706   1.327  2.3645  2.4154  0.7515
  955MOL0     H31747   0.691  11.716   1.146  0.4522 -0.2720  0.2685
  955MOL0     H31748   0.660  12.149   1.265  1.1600  1.9315 -1.3240
  955MOL0     H31749   0.937  12.354   1.317  3.6657  2.9705 -6.1396
  955MOL0     H31750   0.750  12.333   1.300 -0.5705  1.6252  0.7295
  955MOL0     H31751   0.860  12.372   1.163 -1.0805 -1.6411  0.6156
  955MOL0     H31752   1.327  12.348   1.180 -0.7691 -1.4516  1.9912
  955MOL0     H31753   1.558  12.394   1.107 -0.4738  0.6991  0.4404
  955MOL0     H31754   1.841  12.138   1.265  1.1857  0.3557  0.8740
  955MOL0     H31755   1.889  12.069   1.105  0.5704 -0.6592  1.3331
  955MOL0     H31756   1.996  12.330   1.216  1.9447 -0.1215  0.2857
  955MOL0     H31757   2.081  12.178   1.197  0.2477 -1.2872 -1.4486
  955MOL0     H31758   1.947  12.342   0.979 -0.9051 -1.2604  1.8073
  955MOL0     H31759   2.033  12.180   0.962 -3.0102 -1.6297  2.5006
  955MOL0     H31760   2.259  12.302   1.044  2.9080  4.1194 -1.2959
  955MOL0     H31761   2.171  12.438   1.036 -0.1085 -0.0293 -0.8268
  955MOL0     H31762   2.199  12.270   0.784 -2.2583 -1.1889  1.8322
  955MOL0     H31763   2.149  12.441   0.804  0.2277  1.0236 -0.2246
  955MOL0     H31764   2.419  12.337   0.883  0.5010  0.6205  0.6824
  955MOL0     H31765   2.363  12.505   0.873 -4.2107  0.0817 -1.1229
  955MOL0     H31766   2.377  12.488   0.625 -0.4962  0.2123  0.7482
  955MOL0     H31767   2.363  12.305   0.640  1.6706 -1.1726 -1.6283
  955MOL0     H31768   2.621  12.456   0.690 -1.8891  0.4618  0.6900
  955MOL0     H31769   2.565  12.364   0.543 -2.1597  0.6934 -1.1352
  955MOL0     H31770   1.675  11.989   1.192  0.5498 -0.5981  1.2276
  955MOL0     H31771   1.433  11.939   1.237  0.4149  0.2031  3.1667
  955MOL0     H31772   1.088  11.893   1.195 -0.6633 -1.1068 -1.4521
  955MOL0     H31773   0.883  11.778   1.239  1.4405  0.4595  3.2495
  955MOL0     H31774   1.167  11.467   1.148 -1.2044 -1.6178  2.5205
  955MOL0     H31775   1.394  11.532   1.116  2.6303 -0.6923  1.6999
  955MOL0     H31776   1.779  11.649   1.500 -2.6644 -1.4545 -1.6226
  955MOL0     H31777   2.015  11.712   1.496  1.3038 -1.5544 -0.6475
  955MOL0     H31778   2.294  11.728   1.139  0.5621  0.4795 -1.2684
  955MOL0     H31779   2.154  11.830   1.103  1.8106 -1.2673 -2.5061
  955MOL0     H31780   2.243  12.016   1.248  1.7506  1.1416 -1.6803
  955MOL0     H31781   2.374  11.960   1.156 -0.1136  1.5208  0.7405
  955MOL0     H31782   2.410  11.999   1.423  1.5312  0.2608 -0.9055
  955MOL0     H31783   2.332  11.834   1.434 -2.4015  1.4637 -0.2264
  955MOL0     H31784   2.596  11.920   1.278  0.7686 -1.3891 -0.8527
  955MOL0     H31785   2.527  11.773   1.264 -1.5009 -2.5100  1.3575
  955MOL0     H31786   2.695  11.783   1.669  0.0978  0.2863 -0.0430
  955MOL0     H31787   2.033  11.665   1.065  2.4164  1.7495  0.5106
  955MOL0     H31788   1.802  11.664   0.949 -1.9204  3.2338  1.8847
  955MOL0     H31789   1.779  11.490   0.987 -4.4570 -0.3199  0.0115
  955MOL0     H31790   1.662  11.604   1.035 -0.1243 -0.0980  1.8924
  956MOL0     O31791   2.876   4.843  11.476 -0.6862  0.4518  0.4325
  956MOL0     C31792   2.773   4.790  11.442  0.5095 -0.7083 -0.7134
  956MOL0     O31793   2.755   4.695  11.345  0.5071  0.4298 -0.9028
  956MOL0     C31794   2.858   4.654  11.262  0.7180  0.0567 -0.9781
  956MOL0     C31795   2.866   4.701  11.125 -0.2496 -0.2812 -0.7876
  956MOL0     C31796   2.966   4.649  11.043  0.0789  0.3456 -0.1033
  956MOL0     C31797   3.069   4.562  11.099  0.4204  0.2882 -0.0407
  956MOL0     O31798   3.169   4.503  11.033 -0.3768 -0.0173 -0.6422
  956MOL0     C31799   3.147   4.493  10.893 -0.1284  0.1241 -0.2719
  956MOL0     C31800   3.253   4.400  10.838 -0.7268 -0.2693 -0.7459
  956MOL0     C31801   3.209   4.246  10.853 -0.1931  0.1289 -0.4221
  956MOL0     C31802   3.311   4.141  10.790  0.4979 -0.2916  0.5200
  956MOL0     C31803   3.316   4.139  10.635 -0.3094  0.3211 -1.0744
  956MOL0     C31804   3.190   4.077  10.579  0.3645 -0.5571  0.4617
  956MOL0     C31805   3.199   3.926  10.600  0.0354  0.1831  0.3309
  956MOL0     C31806   3.100   3.862  10.503 -0.3302  0.3838 -0.8546
  956MOL0     N31807   3.066   3.717  10.544  0.0709 -0.2804 -0.5534
  956MOL0     C31808   3.159   3.619  10.550 -0.2489  0.0303 -0.5146
  956MOL0     C31809   3.086   3.504  10.564 -0.2398 -0.5489 -0.4927
  956MOL0     C31810   3.125   3.368  10.595 -0.6850  1.0835  0.6542
  956MOL0     C31811   3.277   3.329  10.559  0.4127 -1.0899 -0.8305
  956MOL0     C31812   3.323   3.199  10.627  0.0223  0.3903 -0.0583
  956MOL0     C31813   3.472   3.166  10.596  0.2713  0.3639 -0.3490
  956MOL0     O31814   3.562   3.265  10.642 -0.8483  0.4101 -0.3675
  956MOL0     C31815   3.601   3.278  10.775 -0.7769  0.3753  0.1313
  956MOL0     C31816   3.696   3.377  10.799 -0.3862  0.3187  0.1355
  956MOL0     C31817   3.757   3.405  10.920 -0.1039 -1.0664  0.7500
  956MOL0     C31818   3.861   3.510  10.910 -0.8149 -0.0349  0.1902
  956MOL0     C31819   3.730   3.326  11.030 -0.1008  0.3225  0.6639
  956MOL0     C31820   3.807   3.329  11.155  0.7448 -0.3917 -0.1390
  956MOL0     O31821   3.889   3.432  11.181 -0.4859 -1.2506  0.0635
  956MOL0     C31822   4.010   3.395  11.242  0.0582 -0.0722 -0.3728
  956MOL0     C31823   4.057   3.475  11.341 -1.0479  0.0193 -0.8441
  956MOL0     C31824   4.177   3.447  11.403  0.0006 -0.1572 -0.0164
  956MOL0     C31825   4.256   3.328  11.373 -0.2861  0.5533 -0.9111
  956MOL0     O31826   4.375   3.301  11.431 -0.7885  0.1138  0.7651
  956MOL0     C31827   4.429   3.386  11.533 -0.8251  0.1213  0.9365
  956MOL0     C31828   4.365   3.345  11.664 -0.5116 -0.5644 -0.9081
  956MOL0     C31829   4.415   3.424  11.786 -1.0212  0.2263 -0.1248
  956MOL0     C31830   4.554   3.385  11.825  0.3029  0.4035 -0.3218
  956MOL0     C31831   4.596   3.468  11.945 -0.3128  0.0322  0.1028
  956MOL0     C31832   4.733   3.422  12.001 -0.0541  0.1430 -0.1320
  956MOL0     C31833   4.863   3.471  11.930  0.0476  1.6406  0.3759
  956MOL0     C31834   4.992   3.429  12.002  0.6032 -0.1910  0.8625
  956MOL0    Cl31835   4.994   3.534  12.132  0.5465  0.6749  0.1774
  956MOL0     C31836   4.207   3.245  11.266  0.7738  0.1259 -0.6534
  956MOL0     C31837   4.086   3.289  11.197 -0.0614 -0.6496 -0.8769
  956MOL0     O31838   3.801   3.230  11.231 -0.0312 -0.4591  0.9149
  956MOL0     C31839   3.623   3.232  11.014 -0.9392  0.1038  1.0050
  956MOL0     C31840   3.564   3.207  10.894  0.0244 -0.2032  0.3609
  956MOL0     N31841   2.955   3.547  10.564  0.3495  0.6122  0.0118
  956MOL0     N31842   2.939   3.669  10.541 -0.3057  0.3889 -0.9773
  956MOL0     C31843   3.065   4.531  11.232  0.3618  0.1132 -0.0239
  956MOL0     C31844   2.953   4.556  11.312 -0.5482 -0.3783 -1.2092
  956MOL0     C31845   2.651   4.823  11.522 -0.5879 -0.3979  0.0301
  956MOL0     C31846   2.530   4.789  11.461 -0.0314  1.0207  0.2434
  956MOL0     C31847   2.410   4.854  11.502 -0.2515  0.6195  0.4646
  956MOL0     C31848   2.397   4.927  11.627 -0.0195 -0.3871 -0.9391
  956MOL0     O31849   2.289   4.977  11.690 -0.8613 -0.3018  1.2902
  956MOL0     C31850   2.156   4.949  11.628 -0.4499 -0.0249 -0.7376
  956MOL0     C31851   2.050   5.028  11.703  0.2897 -0.4473  0.3968
  956MOL0     C31852   2.074   5.178  11.683  0.1033 -0.2275 -1.0239
  956MOL0     C31853   1.953   5.246  11.750  0.2071  0.3745 -0.0090
  956MOL0     C31854   1.968   5.388  11.745  0.3742 -0.5863 -0.0999
  956MOL0     C31855   1.978   5.507  11.748 -0.7280 -0.1549  0.5473
  956MOL0     C31856   2.514   4.948  11.698 -0.5415  0.2850  0.8507
  956MOL0     C31857   2.642   4.896  11.649 -0.2601  0.9256  0.2928
  956MOL0     C31858   2.765   4.914  11.731 -0.2804 -0.4300 -0.4020
  956MOL0     H31859   2.789   4.767  11.086  1.9338  3.4117  0.6228
  956MOL0     H31860   2.955   4.675  10.938  1.5035 -1.5939 -0.7865
  956MOL0     H31861   3.166   4.579  10.829  2.9572 -1.3242 -1.5218
  956MOL0     H31862   3.044   4.464  10.870 -1.2831  1.9047  2.2471
  956MOL0     H31863   3.284   4.420  10.735  0.3785 -2.0605 -0.7921
  956MOL0     H31864   3.338   4.406  10.906  0.0720  0.5400 -1.7840
  956MOL0     H31865   3.186   4.224  10.958 -0.9144 -4.0149 -1.2764
  956MOL0     H31866   3.117   4.232  10.795 -0.1791 -0.7950 -0.2309
  956MOL0     H31867   3.414   4.169  10.816  0.2948 -0.5823  1.6911
  956MOL0     H31868   3.283   4.048  10.840 -0.6801 -0.8694 -1.1249
  956MOL0     H31869   3.408   4.088  10.604 -1.9760 -2.4147 -1.8055
  956MOL0     H31870   3.323   4.243  10.601 -2.1530  0.6851 -0.4553
  956MOL0     H31871   3.100   4.123  10.620  1.4810  1.3134  0.9059
  956MOL0     H31872   3.186   4.107  10.474  2.2181  3.5735  1.3727
  956MOL0     H31873   3.173   3.882  10.696  0.1242 -2.3357 -0.7166
  956MOL0     H31874   3.301   3.893  10.578  0.4338  1.1637  0.6237
  956MOL0     H31875   3.003   3.911  10.497 -0.4994  0.1493 -0.1560
  956MOL0     H31876   3.153   3.854  10.407  1.9751  2.4528  0.1349
  956MOL0     H31877   3.266   3.630  10.560  0.2655 -1.8186 -2.9925
  956MOL0     H31878   3.042   3.301  10.572 -1.6500  2.5659 -0.4012
  956MOL0     H31879   3.130   3.355  10.703 -1.5745 -0.0020  0.5869
  956MOL0     H31880   3.285   3.314  10.451  0.7386  0.3384 -1.0268
  956MOL0     H31881   3.337   3.413  10.595 -2.5223  0.4435  0.8519
  956MOL0     H31882   3.302   3.200  10.735 -1.4847  1.7023 -0.3274
  956MOL0     H31883   3.259   3.120  10.587 -0.9529  0.1235  1.8897
  956MOL0     H31884   3.499   3.072  10.645  3.0459  1.6154  0.7105
  956MOL0     H31885   3.481   3.137  10.491  1.5974 -0.3888 -0.0419
  956MOL0     H31886   3.735   3.440  10.719  0.3744  1.8554  1.6396
  956MOL0     H31887   3.856   3.566  10.816 -0.1606 -0.4000 -0.0721
  956MOL0     H31888   3.958   3.458  10.916  1.0901  2.8318 -2.3742
  956MOL0     H31889   3.860   3.577  10.996  3.8925 -3.0394  3.0557
  956MOL0     H31890   4.004   3.565  11.373 -1.2327 -0.3628 -0.0568
  956MOL0     H31891   4.209   3.510  11.485  2.4329  0.2753 -1.1988
  956MOL0     H31892   4.536   3.368  11.540 -0.2141  1.6649 -2.6162
  956MOL0     H31893   4.438   3.492  11.508  2.2023 -0.4155 -0.6272
  956MOL0     H31894   4.257   3.356  11.660 -0.7703 -1.4655  1.8184
  956MOL0     H31895   4.389   3.241  11.689  3.9072  0.7071  1.1959
  956MOL0     H31896   4.348   3.405  11.870 -3.6366 -0.3300 -2.1911
  956MOL0     H31897   4.409   3.527  11.749 -2.5849 -0.7518 -2.8605
  956MOL0     H31898   4.632   3.391  11.748 -1.1790 -1.5466 -2.0877
  956MOL0     H31899   4.543   3.285  11.868 -0.7952  0.9016  0.6008
  956MOL0     H31900   4.608   3.570  11.908  0.6145 -1.0037 -2.7259
  956MOL0     H31901   4.508   3.454  12.009 -2.3667  1.7901 -2.1603
  956MOL0     H31902   4.728   3.313  12.012 -2.3831  0.3760  2.0505
  956MOL0     H31903   4.744   3.439  12.108 -0.7782 -1.3590  0.2117
  956MOL0     H31904   4.862   3.579  11.910 -1.5967  1.3590 -1.4124
  956MOL0     H31905   4.864   3.425  11.830 -1.7641  1.3755  0.4461
  956MOL0     H31906   5.076   3.430  11.932 -0.6917 -3.4228 -0.9742
  956MOL0     H31907   4.999   3.326  12.037  2.0548 -0.8709 -1.2276
  956MOL0     H31908   4.260   3.151  11.256  1.8242  0.2334  2.6327
  956MOL0     H31909   4.051   3.228  11.115  0.8529 -0.9500 -1.0563
  956MOL0     H31910   3.599   3.173  11.102  0.4636 -0.6996  0.8830
  956MOL0     H31911   3.491   3.127  10.887 -1.3108  0.9712  0.4716
  956MOL0     H31912   3.150   4.475  11.269 -0.7846 -1.2060  0.6772
  956MOL0     H31913   2.949   4.519  11.414  4.8683  0.1995 -0.4950
  956MOL0     H31914   2.521   4.740  11.365 -0.6211 -0.8488  1.2043
  956MOL0     H31915   2.325   4.839  11.436  0.7503 -4.0037 -0.0839
  956MOL0     H31916   2.161   4.987  11.526  3.8438  0.6645 -0.4563
  956MOL0     H31917   2.127   4.845  11.611  0.4184 -0.2965 -0.6021
  956MOL0     H31918   2.054   5.015  11.812 -0.6131 -0.3610  0.4441
  956MOL0     H31919   1.952   4.999  11.663  1.0092 -2.7615  0.1345
  956MOL0     H31920   2.169   5.204  11.729 -0.3865 -0.8997  0.4273
  956MOL0     H31921   2.073   5.210  11.578  2.1878  2.0746 -0.4353
  956MOL0     H31922   1.959   5.213  11.854  0.7693 -0.6093 -0.3402
  956MOL0     H31923   1.856   5.226  11.703 -0.2853  1.7574  0.3896
  956MOL0     H31924   1.945   5.609  11.749 -2.4580 -0.5751 -2.1099
  956MOL0     H31925   2.519   5.003  11.791 -1.1530  0.2780  0.8902
  956MOL0     H31926   2.736   4.920  11.836  1.3818  0.7667  0.0207
  956MOL0     H31927   2.822   4.821  11.739 -0.0156 -0.1404  1.9249
  956MOL0     H31928   2.828   5.000  11.705  0.9782 -1.0755  0.4007
  957MOL0     O31929   4.536   7.259   7.099  0.1899 -0.6365  0.1817
  957MOL0     C31930   4.493   7.254   7.214 -0.5680  0.2492 -0.5534
  957MOL0     O31931   4.507   7.145   7.302  0.4755  0.6202  0.7363
  957MOL0     C31932   4.576   7.039   7.255  0.0442  0.3042  0.6355
  957MOL0     C31933   4.519   6.916   7.243 -0.0000 -0.4213  0.6115
  957MOL0     C31934   4.592   6.809   7.182 -0.3469 -0.6258  0.7659
  957MOL0     C31935   4.720   6.833   7.128 -0.0990  0.7676  1.2677
  957MOL0     O31936   4.780   6.730   7.060  0.2155 -0.3671 -0.8195
  957MOL0     C31937   4.754   6.720   6.911  0.6967 -0.2422 -0.2803
  957MOL0     C31938   4.788   6.574   6.864 -0.2168  0.3714 -0.4720
  957MOL0     C31939   4.888   6.491   6.946  1.3024 -0.2879 -0.2726
  957MOL0     C31940   5.028   6.559   6.942  0.2615 -0.6074  0.0732
  957MOL0     C31941   5.131   6.461   6.987  0.2996 -0.0694 -0.4838
  957MOL0     C31942   5.277   6.517   6.985 -0.2310  0.4812  0.1805
  957MOL0     C31943   5.362   6.412   7.046  0.1593  0.2021 -0.1472
  957MOL0     C31944   5.506   6.454   7.073  0.3527 -0.0335  0.0866
  957MOL0     N31945   5.525   6.567   7.167 -0.6240  0.2524  0.3082
  957MOL0     C31946   5.614   6.671   7.149 -0.1789  1.5367 -0.2364
  957MOL0     C31947   5.631   6.723   7.275  0.5741  0.5469  0.5929
  957MOL0     C31948   5.697   6.862   7.273  0.6519  0.5324  0.1425
  957MOL0     C31949   5.851   6.841   7.286 -0.0281 -0.4030  0.5295
  957MOL0     C31950   5.947   6.966   7.281  0.0792  0.2426  0.8346
  957MOL0     C31951   5.890   7.077   7.372  0.7530  0.1351 -0.0984
  957MOL0     O31952   5.778   7.141   7.318  0.1271 -1.1085  0.4479
  957MOL0     C31953   5.755   7.273   7.348  0.0285  0.3523  0.8295
  957MOL0     C31954   5.846   7.375   7.346 -0.0154 -0.3812  0.8528
  957MOL0     C31955   5.811   7.509   7.377 -1.1869  0.8607  0.2581
  957MOL0     C31956   5.924   7.614   7.375  0.1686 -0.7808  0.2656
  957MOL0     C31957   5.672   7.541   7.418  0.6087 -0.3227  0.8787
  957MOL0     C31958   5.621   7.675   7.465 -0.4038 -0.3645 -0.8706
  957MOL0     O31959   5.531   7.677   7.563  0.2131  0.1604 -0.3816
  957MOL0     C31960   5.499   7.808   7.596  0.3630 -0.3678  0.3819
  957MOL0     C31961   5.589   7.896   7.660  0.4539 -0.2830  0.4404
  957MOL0     C31962   5.535   8.020   7.715 -0.5988  0.3750 -0.5356
  957MOL0     C31963   5.408   8.065   7.678 -0.0927 -1.3104  0.3295
  957MOL0     O31964   5.366   8.187   7.733 -0.4867  0.3879 -0.2479
  957MOL0     C31965   5.255   8.238   7.663  0.0694 -0.5334 -0.3222
  957MOL0     C31966   5.248   8.393   7.680  0.8859  0.0799  0.1883
  957MOL0     C31967   5.373   8.470   7.650 -1.4151 -0.1030  1.0151
  957MOL0     C31968   5.428   8.435   7.508  0.5874  1.1417 -0.6175
  957MOL0     C31969   5.529   8.532   7.454 -0.6889 -1.6239 -0.5699
  957MOL0     C31970   5.662   8.550   7.529 -0.6136  0.1840  0.6936
  957MOL0     C31971   5.759   8.644   7.463  0.3589  0.7412  0.1249
  957MOL0     C31972   5.890   8.631   7.546 -0.2771 -0.3886  0.3527
  957MOL0    Cl31973   6.014   8.750   7.487 -0.3429 -0.4835  0.1839
  957MOL0     C31974   5.329   7.971   7.616  0.5570 -0.6898  0.6025
  957MOL0     C31975   5.368   7.854   7.560 -0.7711  0.1260  0.3361
  957MOL0     O31976   5.652   7.774   7.398  0.6035 -0.1943  0.1118
  957MOL0     C31977   5.580   7.439   7.417 -0.2785 -0.4972 -0.0392
  957MOL0     C31978   5.621   7.305   7.387  0.6797  0.0140 -0.0083
  957MOL0     N31979   5.568   6.639   7.367  0.0520 -0.1914 -1.4111
  957MOL0     N31980   5.510   6.548   7.302  0.5249 -0.8293  0.3097
  957MOL0     C31981   4.778   6.952   7.140  0.7302 -0.1395 -0.1784
  957MOL0     C31982   4.708   7.054   7.204 -0.2449 -0.1522  0.0487
  957MOL0     C31983   4.423   7.380   7.257 -0.7109 -0.6340 -0.4710
  957MOL0     C31984   4.344   7.363   7.369  0.1545  0.0270 -0.4556
  957MOL0     C31985   4.269   7.477   7.417  0.0474  0.1261 -0.0769
  957MOL0     C31986   4.273   7.593   7.337  0.4353 -0.4268 -1.1572
  957MOL0     O31987   4.195   7.699   7.384 -0.2136 -0.2268  0.7351
  957MOL0     C31988   4.251   7.830   7.398 -0.1430  0.2983 -0.4661
  957MOL0     C31989   4.236   7.882   7.540 -0.4302 -0.0831 -0.4455
  957MOL0     C31990   4.278   7.780   7.650  0.4332  0.5600  0.2530
  957MOL0     C31991   4.266   7.812   7.801 -0.3252  0.0807  0.2871
  957MOL0     C31992   4.358   7.924   7.831  0.5452  0.5137 -0.2933
  957MOL0     C31993   4.425   8.016   7.881  0.6931 -0.1358  0.1965
  957MOL0     C31994   4.352   7.605   7.231 -0.1458  0.6693 -0.0929
  957MOL0     C31995   4.433   7.501   7.188  0.4446 -0.0189 -0.3917
  957MOL0     C31996   4.533   7.539   7.081 -0.0612  1.2960  0.5538
  957MOL0     H31997   4.413   6.901   7.262 -0.8203 -0.0132 -2.9172
  957MOL0     H31998   4.541   6.713   7.179  0.1536 -0.9074 -2.0835
  957MOL0     H31999   4.820   6.788   6.856  0.8150 -0.9923 -1.0754
  957MOL0     H32000   4.654   6.756   6.884  0.2714 -1.0429  0.1921
  957MOL0     H32001   4.699   6.510   6.868 -0.4110  0.6448 -0.4434
  957MOL0     H32002   4.836   6.579   6.766  1.1868  0.0165  0.1688
  957MOL0     H32003   4.865   6.492   7.053 -1.6981  0.2126 -0.8332
  957MOL0     H32004   4.883   6.393   6.897 -2.0016  0.0302 -0.8125
  957MOL0     H32005   5.048   6.586   6.838  0.9137  5.5311  1.4504
  957MOL0     H32006   5.026   6.656   6.992  0.0135 -0.1155 -0.8586
  957MOL0     H32007   5.134   6.372   6.923 -1.5283  0.0919 -0.8611
  957MOL0     H32008   5.095   6.428   7.085  0.8458 -1.2759 -0.6776
  957MOL0     H32009   5.323   6.529   6.886 -1.7381 -1.2912 -0.8078
  957MOL0     H32010   5.289   6.616   7.030 -0.4792  0.1838  0.9063
  957MOL0     H32011   5.376   6.329   6.976 -0.7571 -4.0917  4.1926
  957MOL0     H32012   5.315   6.377   7.139 -4.5376  3.5135 -0.9125
  957MOL0     H32013   5.538   6.360   7.119 -0.1326  0.2758  1.0723
  957MOL0     H32014   5.566   6.473   6.984 -0.8780  0.5207 -0.6476
  957MOL0     H32015   5.664   6.700   7.057  0.0169 -0.8515 -0.9334
  957MOL0     H32016   5.660   6.916   7.361  1.5347  1.1080  0.1736
  957MOL0     H32017   5.658   6.917   7.187 -3.1727 -1.7980  0.1861
  957MOL0     H32018   5.865   6.787   7.380 -1.0142 -2.5271 -0.4835
  957MOL0     H32019   5.878   6.770   7.207  0.0296 -1.4476  1.4672
  957MOL0     H32020   6.053   6.943   7.297  0.6298  0.0129 -2.5407
  957MOL0     H32021   5.958   7.010   7.182 -2.7578 -0.4945  0.0938
  957MOL0     H32022   5.855   7.034   7.466  1.0245 -0.0058 -0.0610
  957MOL0     H32023   5.967   7.152   7.397 -0.4578  1.1825  0.5875
  957MOL0     H32024   5.946   7.348   7.313  0.1180  0.9552  0.1126
  957MOL0     H32025   5.885   7.714   7.355  0.2880 -0.7436  0.2168
  957MOL0     H32026   6.008   7.584   7.311 -0.1865 -2.2945  0.4782
  957MOL0     H32027   5.969   7.638   7.471  3.3951 -0.3874 -1.2055
  957MOL0     H32028   5.695   7.875   7.675  1.0415  1.5995 -0.6975
  957MOL0     H32029   5.587   8.082   7.787  2.1469 -1.1619 -1.0868
  957MOL0     H32030   5.256   8.218   7.556  2.5685  2.0679 -0.8856
  957MOL0     H32031   5.165   8.196   7.708  0.9358  1.7600  4.1234
  957MOL0     H32032   5.170   8.439   7.619  2.3801 -0.2972 -2.1172
  957MOL0     H32033   5.224   8.408   7.786  0.2405  1.0365 -0.0831
  957MOL0     H32034   5.454   8.464   7.723 -0.6553  1.9071  0.4074
  957MOL0     H32035   5.350   8.577   7.647 -0.9189 -0.0094 -0.8725
  957MOL0     H32036   5.341   8.420   7.445 -1.3231 -1.4644  2.2888
  957MOL0     H32037   5.479   8.337   7.504 -1.0602  0.1737  0.8178
  957MOL0     H32038   5.552   8.516   7.348  0.2580  1.7070 -0.9802
  957MOL0     H32039   5.473   8.625   7.466 -0.1739 -1.5665  1.8817
  957MOL0     H32040   5.707   8.451   7.537  0.4660  0.7557  2.2082
  957MOL0     H32041   5.643   8.585   7.631 -1.3973  1.6902  0.0765
  957MOL0     H32042   5.729   8.749   7.456  0.0527  0.5506 -3.3463
  957MOL0     H32043   5.785   8.600   7.366 -1.1791 -1.1594  0.5098
  957MOL0     H32044   5.930   8.530   7.536  2.8267  0.8669 -0.9496
  957MOL0     H32045   5.879   8.650   7.654  0.2434  0.5841  0.2464
  957MOL0     H32046   5.227   8.001   7.595  0.7044  1.4421  2.5519
  957MOL0     H32047   5.303   7.794   7.496  0.5779 -3.5669  2.1444
  957MOL0     H32048   5.478   7.448   7.452 -0.0029 -2.5095  1.4345
  957MOL0     H32049   5.542   7.231   7.382  1.3622 -0.7329  0.0270
  957MOL0     H32050   4.882   6.958   7.110  0.6496 -0.8086 -0.6294
  957MOL0     H32051   4.744   7.156   7.213 -0.1329 -0.0672 -1.2602
  957MOL0     H32052   4.336   7.269   7.423 -2.4930  1.3086  1.5992
  957MOL0     H32053   4.215   7.462   7.510 -1.2323 -0.7470 -0.9296
  957MOL0     H32054   4.358   7.829   7.376  0.3894  0.6421  1.9041
  957MOL0     H32055   4.205   7.898   7.325  2.0414  2.5002  0.0664
  957MOL0     H32056   4.137   7.928   7.550  0.1282  1.2498 -0.8776
  957MOL0     H32057   4.303   7.968   7.550  2.6587 -2.1889 -1.5453
  957MOL0     H32058   4.203   7.702   7.633 -0.2289  1.1474  0.4466
  957MOL0     H32059   4.372   7.727   7.629  0.1374 -0.6841  1.8422
  957MOL0     H32060   4.301   7.720   7.849  0.6296 -0.1429 -0.7968
  957MOL0     H32061   4.162   7.824   7.832 -0.4303 -1.2547  0.5476
  957MOL0     H32062   4.491   8.090   7.921  2.4505 -2.4058  1.7152
  957MOL0     H32063   4.356   7.702   7.182 -2.8707 -0.1150 -2.1397
  957MOL0     H32064   4.538   7.647   7.064  0.0354  1.2259  0.1348
  957MOL0     H32065   4.632   7.504   7.112  1.2705  2.3240 -2.1833
  957MOL0     H32066   4.515   7.481   6.990 -1.4607  4.7135 -1.5637
  958MOL0     O32067  10.946   0.460   9.982 -0.6928 -0.1075  0.1605
  958MOL0     C32068  10.964   0.388   9.887  0.3480 -0.2517  1.2171
  958MOL0     O32069  10.965   0.433   9.750  0.6923 -0.1278  0.1933
  958MOL0     C32070  10.971   0.566   9.714  0.1965 -0.4537 -0.0087
  958MOL0     C32071  10.913   0.676   9.775 -0.2031  0.1528 -0.2838
  958MOL0     C32072  10.912   0.804   9.726 -0.6684  0.3533 -0.3385
  958MOL0     C32073  10.957   0.820   9.599 -0.0687  0.6292 -0.8116
  958MOL0     O32074  10.944   0.934   9.529  0.3476  0.1207 -0.9668
  958MOL0     C32075  10.859   1.038   9.586 -0.9184  0.3871  0.4244
  958MOL0     C32076  10.799   1.119   9.470  1.4454 -0.9545 -0.7580
  958MOL0     C32077  10.861   1.103   9.328  0.2247  0.1158 -0.1240
  958MOL0     C32078  10.994   1.185   9.317 -0.5345 -0.8937  0.1482
  958MOL0     C32079  11.042   1.155   9.172  0.5533  0.5321 -0.3137
  958MOL0     C32080  11.106   1.011   9.169 -0.0125 -0.6988 -0.4993
  958MOL0     C32081  11.147   0.982   9.023  0.5258  0.3560 -0.2691
  958MOL0     C32082  11.137   0.833   8.974  0.0784 -0.4238 -0.1002
  958MOL0     N32083  11.222   0.733   9.051  0.1567 -0.4045 -0.7087
  958MOL0     C32084  11.347   0.686   9.027  1.1393 -0.2342 -0.1113
  958MOL0     C32085  11.366   0.591   9.117 -0.2454 -0.4951 -0.3891
  958MOL0     C32086  11.484   0.516   9.125  0.3002 -0.3879 -0.0695
  958MOL0     C32087  11.473   0.386   9.220 -0.4859 -0.4550  0.4416
  958MOL0     C32088  11.579   0.278   9.182 -0.0031  0.1014  0.4475
  958MOL0     C32089  11.716   0.339   9.183  0.0859  0.0558 -0.2508
  958MOL0     O32090  11.768   0.366   9.314  0.7035  0.3574 -0.6449
  958MOL0     C32091  11.903   0.406   9.327 -0.0163 -0.1154 -0.9470
  958MOL0     C32092  11.982   0.463   9.230  0.3719  0.8042 -0.0996
  958MOL0     C32093  12.115   0.501   9.244  0.1202 -0.3205  0.4427
  958MOL0     C32094  12.190   0.569   9.127 -0.1833 -0.4428 -0.2380
  958MOL0     C32095  12.182   0.471   9.369  0.0140 -0.0812  0.2183
  958MOL0     C32096  12.321   0.483   9.390 -0.4555 -0.9694 -0.6517
  958MOL0     O32097  12.372   0.405   9.493  0.0930 -0.2819  0.3381
  958MOL0     C32098  12.506   0.423   9.536  1.2309  0.2019 -0.7716
  958MOL0     C32099  12.607   0.506   9.487 -0.6714  0.4308  0.0414
  958MOL0     C32100  12.728   0.514   9.545 -0.0593 -0.4980 -0.0354
  958MOL0     C32101  12.757   0.444   9.658 -0.6497  0.3844 -0.2271
  958MOL0     O32102  12.879   0.449   9.726 -0.5856 -0.2659 -0.2826
  958MOL0     C32103  12.918   0.588   9.760 -0.1783 -0.8661 -0.0252
  958MOL0     C32104  13.058   0.564   9.824 -0.0418 -0.5685  0.0109
  958MOL0     C32105  13.159   0.681   9.801 -0.0044  0.1466  0.1374
  958MOL0     C32106  13.296   0.636   9.855  0.6317  0.4785  0.4036
  958MOL0     C32107  13.407   0.754   9.854 -0.0467  0.9117  0.3877
  958MOL0     C32108  13.526   0.718   9.943  0.3014 -0.0665  0.5150
  958MOL0     C32109  13.612   0.601   9.885  0.5273 -0.1408 -0.3142
  958MOL0     C32110  13.750   0.596   9.962  0.2061 -0.0833  0.4495
  958MOL0    Cl32111  13.858   0.491   9.869 -0.0051  0.0958 -0.0558
  958MOL0     C32112  12.654   0.356   9.705 -0.5038  0.2383  0.3409
  958MOL0     C32113  12.523   0.355   9.651  0.2890  0.4280  0.0255
  958MOL0     O32114  12.386   0.563   9.325  0.4293 -1.0602  0.5256
  958MOL0     C32115  12.094   0.415   9.474  0.0674  1.1817  0.2330
  958MOL0     C32116  11.954   0.392   9.456  0.0547 -0.1563  0.3967
  958MOL0     N32117  11.256   0.589   9.202 -0.4308  0.3349  0.1989
  958MOL0     N32118  11.170   0.663   9.145  0.1292 -0.5158 -1.0455
  958MOL0     C32119  11.006   0.712   9.523 -0.0369 -0.8321  0.2675
  958MOL0     C32120  11.021   0.587   9.583 -0.1639  0.9703  0.2602
  958MOL0     C32121  10.980   0.242   9.907 -0.4944  0.4849  0.2583
  958MOL0     C32122  10.954   0.163   9.789 -0.2516  0.1158 -1.0905
  958MOL0     C32123  10.962   0.022   9.796 -0.4511  0.7277 -0.4365
  958MOL0     C32124  10.982  -0.045   9.919  0.7995  0.2264 -0.7214
  958MOL0     O32125  10.975  -0.189   9.915 -0.1188 -0.3428  0.5538
  958MOL0     C32126  11.073  -0.263   9.985 -0.3527  1.0923  0.6367
  958MOL0     C32127  11.217  -0.217   9.945  0.0168 -0.5107 -1.1355
  958MOL0     C32128  11.251  -0.213   9.800 -0.8603 -0.1972 -0.5764
  958MOL0     C32129  11.381  -0.284   9.760 -0.7807 -0.0468 -1.2484
  958MOL0     C32130  11.376  -0.356   9.637 -0.1530 -0.5711 -0.3784
  958MOL0     C32131  11.377  -0.402   9.529  0.3207  0.3868 -0.5797
  958MOL0     C32132  10.985   0.031  10.035  0.3593  0.2898 -0.0013
  958MOL0     C32133  11.004   0.174  10.029  0.3199 -0.4127 -0.7296
  958MOL0     C32134  11.027   0.241  10.161  0.5993 -0.5092 -0.0052
  958MOL0     H32135  10.854   0.666   9.866  1.8359  1.2331  1.2355
  958MOL0     H32136  10.896   0.897   9.781  2.3654  0.0721  1.2486
  958MOL0     H32137  10.922   1.101   9.651  3.3186 -0.8794 -2.0669
  958MOL0     H32138  10.769   1.004   9.638 -2.4251 -0.0498 -2.2728
  958MOL0     H32139  10.694   1.089   9.460  0.1802  2.3020  1.4098
  958MOL0     H32140  10.800   1.225   9.497 -1.7222 -1.0073 -0.1159
  958MOL0     H32141  10.870   1.000   9.292 -6.6823 -1.4550  1.2514
  958MOL0     H32142  10.793   1.152   9.257 -0.5102  0.3820  0.7424
  958MOL0     H32143  10.970   1.291   9.332 -0.0028 -0.3689 -2.3033
  958MOL0     H32144  11.064   1.149   9.393  1.5410  0.9251 -0.7870
  958MOL0     H32145  11.121   1.222   9.137  0.8724  1.3914  1.8520
  958MOL0     H32146  10.961   1.171   9.100 -0.3158  1.1020  0.7474
  958MOL0     H32147  11.184   0.988   9.241 -1.6997  1.8650  2.3941
  958MOL0     H32148  11.037   0.930   9.192  0.8028 -1.7022 -1.4672
  958MOL0     H32149  11.252   1.012   9.008 -0.4582  3.6562 -1.4026
  958MOL0     H32150  11.084   1.039   8.955  0.3428  0.6297  0.1290
  958MOL0     H32151  11.036   0.791   8.979 -0.3740  0.6021 -0.4468
  958MOL0     H32152  11.162   0.826   8.867  2.5646 -0.6172  0.4406
  958MOL0     H32153  11.429   0.723   8.966  1.3370 -0.6579 -0.1047
  958MOL0     H32154  11.563   0.582   9.163 -0.4161  1.4256 -1.6139
  958MOL0     H32155  11.521   0.485   9.027 -0.4165  3.7721 -1.8634
  958MOL0     H32156  11.475   0.424   9.322  0.2593  0.0982  0.2335
  958MOL0     H32157  11.373   0.344   9.204  1.0354 -3.1560 -3.3451
  958MOL0     H32158  11.576   0.213   9.270  1.0710  3.6972  3.3907
  958MOL0     H32159  11.555   0.226   9.089  1.3057 -0.7869  0.5715
  958MOL0     H32160  11.792   0.272   9.142  0.0166  1.7889 -3.4855
  958MOL0     H32161  11.716   0.427   9.118 -1.7891 -0.7642 -1.4328
  958MOL0     H32162  11.942   0.471   9.129  0.6210 -1.7877 -0.4642
  958MOL0     H32163  12.110   0.589   9.055 -0.0941  3.3391  0.4947
  958MOL0     H32164  12.268   0.507   9.084 -2.8960 -2.5942 -2.4613
  958MOL0     H32165  12.214   0.672   9.157 -3.4140  0.8657 -1.6723
  958MOL0     H32166  12.595   0.563   9.395 -0.2312 -0.2026 -0.4206
  958MOL0     H32167  12.801   0.579   9.499  0.5561 -1.5669 -0.5936
  958MOL0     H32168  12.927   0.664   9.682 -2.2464 -0.4660  0.0599
  958MOL0     H32169  12.845   0.626   9.832 -0.5840  1.0442 -1.3636
  958MOL0     H32170  13.047   0.544   9.931  1.0259 -1.1369  0.0334
  958MOL0     H32171  13.096   0.475   9.772  3.7221  1.5445 -1.2659
  958MOL0     H32172  13.128   0.769   9.859  0.7005  0.3377  0.2320
  958MOL0     H32173  13.162   0.703   9.694  0.3829 -0.7180 -0.0289
  958MOL0     H32174  13.332   0.553   9.792  2.6275  2.4105 -1.1450
  958MOL0     H32175  13.285   0.600   9.958  0.3210  0.9368  0.5320
  958MOL0     H32176  13.440   0.776   9.752  0.6003  1.5207  0.7198
  958MOL0     H32177  13.364   0.845   9.897 -0.4785 -0.0261  2.0413
  958MOL0     H32178  13.492   0.702  10.046  0.1176 -0.0976  0.4493
  958MOL0     H32179  13.596   0.801   9.940  2.3655 -1.7481 -1.7041
  958MOL0     H32180  13.632   0.630   9.781 -1.4184 -0.2639 -0.7592
  958MOL0     H32181  13.567   0.501   9.894 -0.0825  0.1017 -0.6157
  958MOL0     H32182  13.731   0.558  10.063  2.4368  2.5093  1.9673
  958MOL0     H32183  13.801   0.692   9.972  0.3868  0.0431 -1.4264
  958MOL0     H32184  12.685   0.297   9.790 -1.1542 -3.0003 -1.4951
  958MOL0     H32185  12.449   0.286   9.690  0.5840  0.7775  1.2461
  958MOL0     H32186  12.139   0.397   9.571 -2.3714 -2.5363  0.8869
  958MOL0     H32187  11.888   0.366   9.538 -0.8614  0.7625 -0.0253
  958MOL0     H32188  11.033   0.730   9.419 -2.4816  0.8301 -0.1824
  958MOL0     H32189  11.072   0.510   9.526  3.1922  2.8045  0.5334
  958MOL0     H32190  10.931   0.196   9.688 -1.9429  0.3855 -0.6432
  958MOL0     H32191  10.944  -0.033   9.704  2.5183  1.3832 -1.5310
  958MOL0     H32192  11.060  -0.243  10.092 -4.4533  0.9959  0.3043
  958MOL0     H32193  11.052  -0.370   9.976  0.2109  0.9599  0.7869
  958MOL0     H32194  11.285  -0.283  10.000  0.8215  1.4868  0.3805
  958MOL0     H32195  11.206  -0.116   9.985 -3.5749 -1.9513  2.1005
  958MOL0     H32196  11.167  -0.240   9.735  0.6729 -2.3362 -1.7962
  958MOL0     H32197  11.269  -0.108   9.774  1.4526 -0.6753 -1.1266
  958MOL0     H32198  11.413  -0.343   9.846 -0.4410  0.6594 -0.8747
  958MOL0     H32199  11.458  -0.206   9.757 -1.3384  0.4777 -2.3006
  958MOL0     H32200  11.394  -0.439   9.430  3.3903 -1.7328  0.5885
  958MOL0     H32201  10.993  -0.027  10.126 -0.5907  0.6512  0.3221
  958MOL0     H32202  10.931   0.275  10.202 -0.1168 -2.1185 -0.2654
  958MOL0     H32203  11.066   0.174  10.239  2.8383  0.4945 -0.1866
  958MOL0     H32204  11.087   0.330  10.145 -1.1178  0.6429 -0.3040
  959MOL0     O32205   9.531  11.203   4.551 -1.2123 -0.2143 -0.2662
  959MOL0     C32206   9.575  11.194   4.440 -0.2227  0.0858  1.2109
  959MOL0     O32207   9.606  11.067   4.378  0.5083 -0.8746 -0.1028
  959MOL0     C32208   9.596  10.948   4.439  0.0266  0.2136  0.3241
  959MOL0     C32209   9.576  10.829   4.365  0.1045  0.6516  0.1842
  959MOL0     C32210   9.553  10.706   4.425 -0.3293  0.8569 -0.0269
  959MOL0     C32211   9.553  10.692   4.564 -1.4659  0.4342 -0.1256
  959MOL0     O32212   9.513  10.568   4.617  0.2439 -0.5736  0.0318
  959MOL0     C32213   9.492  10.556   4.757 -0.3139  0.0565 -0.1917
  959MOL0     C32214   9.430  10.423   4.776  0.3881 -0.1008  0.5704
  959MOL0     C32215   9.289  10.399   4.712  0.8941  0.8856 -0.0580
  959MOL0     C32216   9.291  10.364   4.562 -0.3329  0.2650  1.1297
  959MOL0     C32217   9.150  10.325   4.515 -0.3220  0.3026  0.6253
  959MOL0     C32218   9.152  10.256   4.378 -0.6465  0.0354 -0.7922
  959MOL0     C32219   9.206  10.111   4.406 -0.6450  0.7309 -0.5483
  959MOL0     C32220   9.164  10.009   4.301 -0.1047 -0.4289 -0.1362
  959MOL0     N32221   9.195   9.870   4.338 -0.6158  1.2986 -0.7683
  959MOL0     C32222   9.324   9.819   4.370  0.9025 -0.4790 -0.5236
  959MOL0     C32223   9.304   9.685   4.393 -0.4313 -0.7916 -0.9283
  959MOL0     C32224   9.398   9.576   4.448  1.1710 -0.1441 -0.2097
  959MOL0     C32225   9.530   9.571   4.358  0.3495 -0.8810 -0.0467
  959MOL0     C32226   9.611   9.446   4.369 -0.3695  0.0049 -0.1596
  959MOL0     C32227   9.672   9.400   4.504 -0.3513 -0.6721  0.9177
  959MOL0     O32228   9.569   9.365   4.599 -0.1882  0.3295  0.2067
  959MOL0     C32229   9.601   9.355   4.732 -0.2781 -0.5856  0.3509
  959MOL0     C32230   9.492   9.347   4.817 -0.2404  0.3512 -0.0042
  959MOL0     C32231   9.517   9.331   4.952 -0.1136 -0.2295 -0.6570
  959MOL0     C32232   9.397   9.309   5.051  0.9017 -0.2860 -0.2239
  959MOL0     C32233   9.647   9.328   5.009  0.4203 -0.7166  0.0247
  959MOL0     C32234   9.679   9.305   5.151  1.0695 -0.3039 -0.0459
  959MOL0     O32235   9.799   9.243   5.181  0.9711  0.0634 -0.2547
  959MOL0     C32236   9.862   9.254   5.309  0.1699  0.6240  0.3808
  959MOL0     C32237   9.862   9.370   5.379 -0.2768  0.3402 -0.1125
  959MOL0     C32238   9.916   9.368   5.510 -0.4136 -0.3006  0.0980
  959MOL0     C32239   9.978   9.250   5.563 -0.0876  0.3080  0.4958
  959MOL0     O32240  10.058   9.262   5.672 -0.2034 -0.7056 -0.4267
  959MOL0     C32241   9.997   9.305   5.788  0.8440 -0.4846 -0.5768
  959MOL0     C32242  10.109   9.323   5.900  0.0138 -0.8922  0.2605
  959MOL0     C32243  10.043   9.366   6.035 -0.0553  0.7837  0.6438
  959MOL0     C32244   9.979   9.256   6.104  0.1004  0.6308 -0.2540
  959MOL0     C32245   9.891   9.307   6.225 -0.0508 -0.3112 -0.1978
  959MOL0     C32246   9.793   9.420   6.187 -0.5608  0.4524  0.5569
  959MOL0     C32247   9.685   9.441   6.301  0.7539  0.1783  1.3180
  959MOL0     C32248   9.582   9.538   6.241  0.5002 -0.0090  0.1465
  959MOL0    Cl32249   9.471   9.461   6.119 -0.5798  0.3608 -0.1783
  959MOL0     C32250   9.981   9.134   5.494 -0.2643 -0.3318  0.3198
  959MOL0     C32251   9.923   9.141   5.363  0.2005  0.2122 -0.8177
  959MOL0     O32252   9.608   9.359   5.237 -0.2327  0.0768 -0.1883
  959MOL0     C32253   9.757   9.329   4.916 -0.6968 -0.2925 -1.6167
  959MOL0     C32254   9.734   9.331   4.777 -0.3014 -0.1082  0.8824
  959MOL0     N32255   9.169   9.662   4.388 -0.5883  0.3481  0.1971
  959MOL0     N32256   9.103   9.764   4.355 -0.1636 -0.4094  0.3420
  959MOL0     C32257   9.602  10.808   4.639 -0.6023 -0.4146 -0.3649
  959MOL0     C32258   9.616  10.925   4.578  1.1950  0.0579 -0.6136
  959MOL0     C32259   9.611  11.316   4.362  0.5209  0.0717 -0.0262
  959MOL0     C32260   9.713  11.309   4.267  0.6941  0.8386  0.4474
  959MOL0     C32261   9.750  11.411   4.192 -0.1491 -0.7787  0.3261
  959MOL0     C32262   9.704  11.538   4.218  0.2272  0.4534  0.5839
  959MOL0     O32263   9.773  11.647   4.166 -0.5597 -0.5172 -0.3367
  959MOL0     C32264   9.703  11.780   4.170 -0.4361  0.1441  0.3166
  959MOL0     C32265   9.750  11.846   4.303 -0.9730  0.5795  0.1897
  959MOL0     C32266   9.685  11.981   4.341  0.7447 -0.3854 -0.9009
  959MOL0     C32267   9.750  12.048   4.459  0.7372 -0.7480 -0.4116
  959MOL0     C32268   9.653  12.154   4.502  0.6764  0.5459  1.7384
  959MOL0     C32269   9.596  12.252   4.540  0.2000  0.4267 -0.0664
  959MOL0     C32270   9.601  11.555   4.319 -0.1933  1.0631 -0.3402
  959MOL0     C32271   9.554  11.444   4.392  1.0554 -0.4470 -0.1290
  959MOL0     C32272   9.462  11.471   4.505  0.5079  0.3711  0.1352
  959MOL0     H32273   9.564  10.847   4.258 -1.0668 -0.1843  0.1524
  959MOL0     H32274   9.529  10.621   4.362  0.9306  0.6845 -0.2906
  959MOL0     H32275   9.438  10.644   4.796  0.9909 -0.2576  2.5517
  959MOL0     H32276   9.585  10.557   4.814 -1.9177  2.1278  2.6984
  959MOL0     H32277   9.497  10.344   4.741 -0.8693 -2.2067  2.6307
  959MOL0     H32278   9.424  10.399   4.882 -0.2353 -0.2381  0.5063
  959MOL0     H32279   9.243  10.315   4.764 -0.0421  0.7916 -0.9934
  959MOL0     H32280   9.227  10.489   4.721 -0.8543 -0.2654 -0.2754
  959MOL0     H32281   9.336  10.434   4.491 -1.7212 -0.6846 -0.7804
  959MOL0     H32282   9.346  10.269   4.559  0.5817  0.8057 -0.1580
  959MOL0     H32283   9.086  10.414   4.505 -2.0775 -1.2095 -4.6062
  959MOL0     H32284   9.103  10.254   4.584  3.3742 -2.9646  0.0994
  959MOL0     H32285   9.054  10.251   4.330 -0.3768 -2.6735 -1.2011
  959MOL0     H32286   9.234  10.301   4.322 -0.6725 -0.0004 -0.8574
  959MOL0     H32287   9.156  10.077   4.496 -2.8909  2.6930 -0.9339
  959MOL0     H32288   9.315  10.110   4.408 -0.6021  0.0592  3.0597
  959MOL0     H32289   9.058  10.013   4.275 -0.1188  0.7699  0.0100
  959MOL0     H32290   9.211  10.027   4.204 -2.4385  1.8698 -0.9652
  959MOL0     H32291   9.419   9.871   4.372 -0.5926  2.5063 -0.8136
  959MOL0     H32292   9.339   9.485   4.454  1.0280  0.0277  2.5052
  959MOL0     H32293   9.434   9.585   4.551  3.3724 -3.4669 -0.5170
  959MOL0     H32294   9.494   9.584   4.256 -0.2257  4.1020  0.5434
  959MOL0     H32295   9.605   9.648   4.381  0.5902 -0.8118 -1.0359
  959MOL0     H32296   9.549   9.366   4.327 -2.3385  2.5161 -2.4476
  959MOL0     H32297   9.694   9.455   4.298  0.8030 -0.9346  1.0414
  959MOL0     H32298   9.743   9.319   4.483  0.9716  0.4328  0.9758
  959MOL0     H32299   9.716   9.488   4.550 -3.6997  1.4411  0.3933
  959MOL0     H32300   9.389   9.358   4.787 -0.5259 -2.4157 -0.2871
  959MOL0     H32301   9.396   9.397   5.116  1.4251 -1.2038  1.0813
  959MOL0     H32302   9.406   9.219   5.113 -0.8346  1.4702  2.8484
  959MOL0     H32303   9.305   9.319   4.992  0.7132  0.4507  0.1861
  959MOL0     H32304   9.826   9.458   5.326 -0.2144 -1.0980 -2.7218
  959MOL0     H32305   9.920   9.461   5.565 -1.4706 -1.4217  2.1578
  959MOL0     H32306   9.949   9.397   5.753  2.9810  0.4875 -1.1904
  959MOL0     H32307   9.921   9.239   5.829  2.8132 -2.4089  0.1956
  959MOL0     H32308  10.158   9.227   5.920  1.4402  0.0895  1.7112
  959MOL0     H32309  10.188   9.389   5.864  0.4582 -1.2402  0.5810
  959MOL0     H32310   9.969   9.443   6.011 -3.2721 -2.1090  0.4234
  959MOL0     H32311  10.111   9.424   6.098  0.7748 -0.8405  1.3074
  959MOL0     H32312  10.065   9.199   6.141  0.7916  1.5604 -0.3697
  959MOL0     H32313   9.919   9.201   6.032 -2.1517  1.0196  1.2176
  959MOL0     H32314   9.833   9.222   6.262  2.0806 -1.1878  1.3969
  959MOL0     H32315   9.957   9.350   6.301  1.3587 -0.1388 -1.4632
  959MOL0     H32316   9.745   9.386   6.095  3.1774 -0.5973 -1.2078
  959MOL0     H32317   9.850   9.512   6.171 -2.1779  1.1794 -1.4610
  959MOL0     H32318   9.728   9.488   6.390  2.7744  0.8241  0.0782
  959MOL0     H32319   9.632   9.349   6.329 -1.2193  0.7037 -0.4929
  959MOL0     H32320   9.632   9.627   6.203  2.6739 -1.6255 -0.9639
  959MOL0     H32321   9.517   9.573   6.322  0.7703  0.6775  0.0746
  959MOL0     H32322  10.016   9.044   5.544  0.9978  0.5343  1.0440
  959MOL0     H32323   9.905   9.044   5.318 -1.6593  0.8638 -1.6074
  959MOL0     H32324   9.852   9.315   4.965 -2.0450 -2.4252  0.6175
  959MOL0     H32325   9.819   9.330   4.708 -1.3214  5.8278 -1.0079
  959MOL0     H32326   9.608  10.798   4.746  0.5966 -2.4795 -0.5655
  959MOL0     H32327   9.625  11.007   4.648  3.4998 -1.0962  0.5570
  959MOL0     H32328   9.764  11.216   4.243  3.3716  2.3785 -0.2244
  959MOL0     H32329   9.831  11.410   4.119 -0.4415 -0.4482 -0.0040
  959MOL0     H32330   9.732  11.843   4.086 -2.4910 -0.8229 -1.2205
  959MOL0     H32331   9.595  11.762   4.162  0.0010 -2.1759 -1.5362
  959MOL0     H32332   9.853  11.883   4.296 -1.3865  1.4834 -1.9920
  959MOL0     H32333   9.750  11.774   4.385  0.5562  1.1660  0.7546
  959MOL0     H32334   9.684  12.059   4.264  1.8191 -0.1649 -0.6989
  959MOL0     H32335   9.582  11.954   4.368  0.5548  0.4944 -0.6844
  959MOL0     H32336   9.844  12.099   4.437  0.1037 -0.3248 -2.3446
  959MOL0     H32337   9.762  11.976   4.540  0.0640 -0.1185  0.2689
  959MOL0     H32338   9.544  12.337   4.579 -1.1413 -0.4309  0.0760
  959MOL0     H32339   9.570  11.653   4.354 -2.1423  0.6228 -0.6923
  959MOL0     H32340   9.375  11.406   4.492  1.1747 -0.0790 -2.8929
  959MOL0     H32341   9.501  11.449   4.605 -4.3595 -3.1871  1.6184
  959MOL0     H32342   9.438  11.577   4.510  2.0951  0.7785 -0.2102
  960MOL0     O32343   3.794   2.881   5.416  1.3603 -0.3027  0.5815
  960MOL0     C32344   3.706   2.882   5.501  0.5730 -1.0251 -1.2599
  960MOL0     O32345   3.607   2.973   5.513 -0.3977  0.1148 -1.0487
  960MOL0     C32346   3.592   3.063   5.408  0.3161 -0.1345 -0.2080
  960MOL0     C32347   3.612   3.195   5.435 -0.4338 -0.5562 -0.1193
  960MOL0     C32348   3.616   3.277   5.320  0.7016  0.0746 -0.5660
  960MOL0     C32349   3.568   3.241   5.187  0.3608  0.6916 -0.2720
  960MOL0     O32350   3.541   3.338   5.091 -0.1685  0.6817 -0.1670
  960MOL0     C32351   3.619   3.316   4.976 -0.2554  0.9164 -0.6755
  960MOL0     C32352   3.686   3.444   4.916  1.0046  0.4511  0.6423
  960MOL0     C32353   3.800   3.468   5.006 -0.2638  0.3706 -0.8646
  960MOL0     C32354   3.890   3.582   4.948 -0.4470 -0.5724 -0.9315
  960MOL0     C32355   3.811   3.715   4.947  0.0103  0.1931 -0.0456
  960MOL0     C32356   3.886   3.801   4.851 -0.1595 -1.4022  0.5323
  960MOL0     C32357   3.840   3.956   4.853  0.0446 -0.1184  0.6895
  960MOL0     C32358   3.760   3.992   4.719 -0.7097  0.8169  0.2198
  960MOL0     N32359   3.647   3.904   4.689  0.5982 -0.1076 -0.8140
  960MOL0     C32360   3.538   3.875   4.769 -0.4460  0.4645 -0.1889
  960MOL0     C32361   3.447   3.798   4.699  0.1823 -0.2566  0.1027
  960MOL0     C32362   3.326   3.745   4.760  1.0226  0.5164  0.0796
  960MOL0     C32363   3.207   3.718   4.655 -0.3075 -0.4753 -0.4624
  960MOL0     C32364   3.113   3.617   4.709  0.5839 -0.0253  0.5241
  960MOL0     C32365   3.029   3.568   4.594  0.8056  0.0599 -0.4244
  960MOL0     O32366   2.931   3.462   4.622  0.6652 -0.6367  0.7046
  960MOL0     C32367   2.969   3.339   4.683  0.2378  0.6951 -0.3914
  960MOL0     C32368   3.100   3.299   4.701 -0.0192  0.2316 -0.1685
  960MOL0     C32369   3.136   3.203   4.795 -0.1018  0.4270  0.7541
  960MOL0     C32370   3.287   3.177   4.811  0.3955  0.1468  0.8023
  960MOL0     C32371   3.034   3.129   4.863  0.2387 -0.0434 -0.7423
  960MOL0     C32372   3.056   3.030   4.971  0.2820  0.3327  0.5611
  960MOL0     O32373   3.182   3.015   5.015 -0.3903 -0.5110 -1.1631
  960MOL0     C32374   3.208   2.930   5.114  0.0565  0.2660 -0.0423
  960MOL0     C32375   3.218   2.984   5.247  0.8055 -0.0362 -0.1321
  960MOL0     C32376   3.248   2.910   5.359 -0.6828 -0.2324 -0.1314
  960MOL0     C32377   3.258   2.765   5.339  0.7855  0.2044  1.1456
  960MOL0     O32378   3.260   2.675   5.443  0.5758 -0.6895  0.3514
  960MOL0     C32379   3.216   2.717   5.571 -0.1036 -0.1040  0.3638
  960MOL0     C32380   3.148   2.603   5.645  0.3675 -1.5702  0.2812
  960MOL0     C32381   3.094   2.644   5.786 -0.5888  0.5962  0.1306
  960MOL0     C32382   2.978   2.748   5.794  0.4614 -0.3842 -0.1119
  960MOL0     C32383   3.022   2.895   5.781 -0.5120  0.6454  0.9398
  960MOL0     C32384   2.915   2.994   5.814 -0.3467 -0.6148  0.1897
  960MOL0     C32385   2.784   2.990   5.724 -1.1837  0.5942  0.8143
  960MOL0     C32386   2.663   3.052   5.806  0.3324  0.0752  0.6897
  960MOL0    Cl32387   2.517   3.056   5.707 -0.3930 -0.2397  0.3674
  960MOL0     C32388   3.256   2.707   5.209  0.6574  0.5384  0.1675
  960MOL0     C32389   3.234   2.790   5.095 -0.4795  0.1519  1.1097
  960MOL0     O32390   2.955   2.963   5.010  0.1644  0.2924  0.4708
  960MOL0     C32391   2.898   3.161   4.835  0.8697  0.3956 -0.0863
  960MOL0     C32392   2.870   3.266   4.740 -0.7241 -0.5119  0.1301
  960MOL0     N32393   3.507   3.779   4.576  0.1833  0.3893  0.3192
  960MOL0     N32394   3.619   3.840   4.572  0.1213  0.9993  0.4745
  960MOL0     C32395   3.530   3.104   5.174 -0.5847  0.0803  0.6057
  960MOL0     C32396   3.547   3.011   5.281 -0.4837 -0.0699 -0.3859
  960MOL0     C32397   3.696   2.771   5.604  0.2782  0.1210 -0.3759
  960MOL0     C32398   3.595   2.774   5.694 -0.3560  0.4419 -0.4661
  960MOL0     C32399   3.582   2.666   5.785  0.0807 -0.0686 -1.0333
  960MOL0     C32400   3.683   2.572   5.807 -0.8039 -0.0671  0.0135
  960MOL0     O32401   3.654   2.476   5.895  0.0551  0.4690 -0.6629
  960MOL0     C32402   3.731   2.361   5.875 -0.5220  0.1863  0.6806
  960MOL0     C32403   3.699   2.247   5.977  0.2621  0.8018 -0.3070
  960MOL0     C32404   3.553   2.203   5.979  0.2611 -0.3493 -0.6507
  960MOL0     C32405   3.506   2.088   6.072  0.7070 -0.3578  0.4239
  960MOL0     C32406   3.564   2.115   6.200 -0.5170  0.3534  0.2974
  960MOL0     C32407   3.600   2.139   6.309 -0.4270  0.3697 -0.1410
  960MOL0     C32408   3.785   2.572   5.718 -0.4050  0.8234 -0.1411
  960MOL0     C32409   3.793   2.664   5.616  0.7839  0.0664  0.1511
  960MOL0     C32410   3.905   2.639   5.518 -0.0691  0.1953 -0.5282
  960MOL0     H32411   3.636   3.221   5.537  0.0241 -1.3842 -0.0027
  960MOL0     H32412   3.643   3.380   5.343 -1.6574  0.1523  2.4521
  960MOL0     H32413   3.553   3.284   4.895  0.5650 -2.0897 -0.2621
  960MOL0     H32414   3.691   3.235   4.989  1.0797  2.4612  2.5428
  960MOL0     H32415   3.723   3.417   4.817 -3.2224 -1.8154 -0.5694
  960MOL0     H32416   3.613   3.525   4.915 -1.8250 -1.9309 -0.6057
  960MOL0     H32417   3.778   3.507   5.106  3.6282  2.9184 -0.7854
  960MOL0     H32418   3.856   3.376   5.023  0.5137  1.4267  3.2970
  960MOL0     H32419   3.981   3.604   5.004 -0.7743 -1.4076 -0.0519
  960MOL0     H32420   3.920   3.564   4.845  2.0726  0.8845 -0.5282
  960MOL0     H32421   3.809   3.758   5.048 -1.9883  2.4497 -0.9397
  960MOL0     H32422   3.707   3.704   4.917  0.0347 -1.3471  0.3742
  960MOL0     H32423   3.989   3.811   4.887  0.6654 -1.9914 -1.5086
  960MOL0     H32424   3.893   3.765   4.748  0.6149  3.1282 -1.2519
  960MOL0     H32425   3.931   4.017   4.862 -1.6869  3.0172 -1.2290
  960MOL0     H32426   3.767   3.991   4.926 -1.3362 -0.1446 -0.6242
  960MOL0     H32427   3.727   4.097   4.713 -1.8382  0.4294 -0.8862
  960MOL0     H32428   3.830   3.977   4.636 -1.9002  0.2438 -0.7201
  960MOL0     H32429   3.525   3.902   4.873  0.1303  3.3455 -0.7567
  960MOL0     H32430   3.280   3.822   4.824 -1.5708  0.1711 -1.2467
  960MOL0     H32431   3.355   3.655   4.815  0.7133 -2.3656 -4.0079
  960MOL0     H32432   3.153   3.812   4.646  0.8573  0.2825  0.1443
  960MOL0     H32433   3.246   3.691   4.557 -2.4854 -0.7191 -1.3054
  960MOL0     H32434   3.164   3.528   4.745 -2.1591 -3.8801 -3.9492
  960MOL0     H32435   3.066   3.665   4.796  2.1455  2.5845  0.0528
  960MOL0     H32436   2.970   3.645   4.543  0.4468  0.7022  0.9349
  960MOL0     H32437   3.096   3.532   4.516 -0.0465 -1.6147 -0.4378
  960MOL0     H32438   3.181   3.347   4.647  2.3853 -1.2272  1.8849
  960MOL0     H32439   3.356   3.244   4.759 -1.1326  1.4572  0.4188
  960MOL0     H32440   3.311   3.077   4.772  1.7001  1.5285 -2.2328
  960MOL0     H32441   3.327   3.173   4.913  1.1937 -2.8628  0.4820
  960MOL0     H32442   3.200   3.089   5.267 -1.5630 -0.4620  0.2628
  960MOL0     H32443   3.256   2.950   5.459 -1.3626 -0.0810 -0.1286
  960MOL0     H32444   3.288   2.782   5.622 -0.1881 -0.2213  0.6345
  960MOL0     H32445   3.133   2.786   5.552 -0.2088 -0.2109  0.4352
  960MOL0     H32446   3.064   2.571   5.583 -0.6180  1.3024  0.0062
  960MOL0     H32447   3.218   2.519   5.654 -1.2055 -2.9191  0.5021
  960MOL0     H32448   3.176   2.656   5.857 -0.0982 -1.6207  0.0194
  960MOL0     H32449   3.048   2.552   5.823 -1.0315  1.4989  1.9118
  960MOL0     H32450   2.921   2.739   5.886 -1.6936 -2.3860 -1.5401
  960MOL0     H32451   2.912   2.731   5.709 -0.5918  0.0132  0.6124
  960MOL0     H32452   3.107   2.917   5.846 -0.4884  0.0850  1.1012
  960MOL0     H32453   3.055   2.911   5.678 -1.2999 -0.3842  0.5065
  960MOL0     H32454   2.950   3.096   5.801  1.0576 -0.9832  0.8092
  960MOL0     H32455   2.893   2.992   5.922  2.9779  1.4910  1.0703
  960MOL0     H32456   2.753   2.888   5.698  0.8673  0.3135 -0.7863
  960MOL0     H32457   2.811   3.046   5.634 -0.2286 -0.7194  0.2619
  960MOL0     H32458   2.679   3.154   5.840 -0.1309 -0.5541  2.9671
  960MOL0     H32459   2.652   2.988   5.894  1.0224 -1.8409 -0.5423
  960MOL0     H32460   3.264   2.599   5.201  5.0534  0.6484  0.4270
  960MOL0     H32461   3.220   2.748   4.996 -2.6680  2.2870  0.4069
  960MOL0     H32462   2.813   3.109   4.878  1.2653 -0.1494  0.0567
  960MOL0     H32463   2.769   3.300   4.718 -0.7200 -0.8094 -0.3775
  960MOL0     H32464   3.486   3.080   5.078  0.4139  1.3952 -0.2226
  960MOL0     H32465   3.530   2.904   5.277 -0.5634 -0.0220 -2.4270
  960MOL0     H32466   3.515   2.847   5.687 -1.1665 -0.4040 -0.2572
  960MOL0     H32467   3.494   2.657   5.848  3.0673 -0.2252  3.6141
  960MOL0     H32468   3.709   2.318   5.777 -0.8730 -0.0771  0.8721
  960MOL0     H32469   3.837   2.388   5.876 -0.8538  2.3269 -3.1028
  960MOL0     H32470   3.735   2.267   6.078  1.7590  2.2723 -1.0738
  960MOL0     H32471   3.748   2.156   5.941 -1.5672  0.7784 -3.0839
  960MOL0     H32472   3.490   2.289   6.003  3.5288  1.6830  1.6209
  960MOL0     H32473   3.519   2.173   5.880  1.1490 -1.3459 -0.6767
  960MOL0     H32474   3.536   1.992   6.028  0.6010  0.7674 -2.2954
  960MOL0     H32475   3.398   2.091   6.084  0.6149  1.2190 -0.5716
  960MOL0     H32476   3.624   2.162   6.411 -1.9470 -3.1361  1.1435
  960MOL0     H32477   3.865   2.499   5.708  0.3822  1.5288  0.7220
  960MOL0     H32478   3.979   2.717   5.539 -2.0216  1.7101  1.1825
  960MOL0     H32479   3.956   2.544   5.535  1.4442  0.9942 -0.4333
  960MOL0     H32480   3.867   2.643   5.415  0.4467 -0.6605 -0.7536
  961MOL0     O32481   1.864   4.370   7.994 -1.1535 -0.0788 -0.3459
  961MOL0     C32482   1.777   4.390   8.082 -0.8603  0.0467  0.8273
  961MOL0     O32483   1.734   4.515   8.126  0.0219  0.8457 -0.9695
  961MOL0     C32484   1.805   4.621   8.071 -0.0266 -0.0801 -0.5533
  961MOL0     C32485   1.757   4.704   7.967  0.3265  0.4972  0.7867
  961MOL0     C32486   1.844   4.809   7.921 -0.2956  0.7888  0.0136
  961MOL0     C32487   1.973   4.815   7.950  0.1576  0.1024  0.2443
  961MOL0     O32488   2.039   4.913   7.892  0.1656  1.0940 -0.2843
  961MOL0     C32489   2.181   4.915   7.876 -0.4015  0.2639  0.7568
  961MOL0     C32490   2.213   5.012   7.766  0.3209 -0.0402 -0.5152
  961MOL0     C32491   2.336   4.981   7.686  0.1912  0.4412 -0.1249
  961MOL0     C32492   2.393   5.074   7.579  0.9091 -0.4449 -0.0525
  961MOL0     C32493   2.438   4.983   7.460 -0.2044 -0.1632  0.1590
  961MOL0     C32494   2.519   5.064   7.350  0.1617 -0.1945 -0.7126
  961MOL0     C32495   2.599   4.972   7.257 -0.8482  0.0914 -0.6808
  961MOL0     C32496   2.513   4.882   7.168  0.0930  1.4172  0.2934
  961MOL0     N32497   2.599   4.781   7.111  0.5509 -0.2100 -1.0442
  961MOL0     C32498   2.645   4.678   7.190  0.2767  0.2676 -0.1900
  961MOL0     C32499   2.700   4.594   7.103  0.5186 -0.7978  0.0440
  961MOL0     C32500   2.770   4.461   7.133 -0.5512 -1.1938  0.1099
  961MOL0     C32501   2.886   4.428   7.025 -0.3520 -0.8292 -0.0872
  961MOL0     C32502   2.929   4.280   7.017  0.4212 -0.5937  1.3309
  961MOL0     C32503   3.009   4.248   6.890 -0.5634  0.0328  0.1031
  961MOL0     O32504   3.124   4.331   6.883  0.4491 -0.2967 -0.2654
  961MOL0     C32505   3.208   4.336   6.778  0.7733  0.3830  0.3952
  961MOL0     C32506   3.193   4.252   6.655 -0.5663  0.4771 -0.0041
  961MOL0     C32507   3.297   4.258   6.560 -0.8215 -0.6599 -0.6271
  961MOL0     C32508   3.280   4.174   6.434 -0.9362 -0.3572  0.4136
  961MOL0     C32509   3.414   4.345   6.581 -0.2184  0.9041  0.4065
  961MOL0     C32510   3.540   4.351   6.504 -0.1849  0.3822 -0.6540
  961MOL0     O32511   3.652   4.426   6.553 -0.6202  0.1378  0.0200
  961MOL0     C32512   3.765   4.436   6.474  0.6084  0.8239 -0.1264
  961MOL0     C32513   3.869   4.345   6.507 -0.0381  0.1526  0.9142
  961MOL0     C32514   3.977   4.336   6.417  0.3389  0.5443 -0.8078
  961MOL0     C32515   3.978   4.412   6.290 -0.1565  0.3272 -0.1393
  961MOL0     O32516   4.079   4.393   6.188 -1.0832 -0.5861 -0.3163
  961MOL0     C32517   4.136   4.261   6.176  0.6061  0.6890  0.2934
  961MOL0     C32518   4.224   4.258   6.055 -0.1352 -0.7091 -0.2340
  961MOL0     C32519   4.356   4.174   6.062  0.2045 -0.6224  0.1208
  961MOL0     C32520   4.453   4.231   6.155  0.6299  0.7594 -0.4928
  961MOL0     C32521   4.571   4.134   6.156  0.0951 -0.3051  0.7020
  961MOL0     C32522   4.677   4.169   6.262 -1.3171 -0.0245 -0.0291
  961MOL0     C32523   4.624   4.184   6.399  1.2987 -0.1068  0.0614
  961MOL0     C32524   4.727   4.173   6.515  0.0783  0.0108  1.1935
  961MOL0    Cl32525   4.779   4.002   6.539  0.2963  0.1730  0.2281
  961MOL0     C32526   3.886   4.515   6.272  0.6827 -0.4847 -0.0471
  961MOL0     C32527   3.771   4.519   6.363 -0.7755 -1.1317 -0.3773
  961MOL0     O32528   3.544   4.272   6.412  0.0890  0.0093  0.4383
  961MOL0     C32529   3.413   4.422   6.705 -0.5823  0.4952  0.1028
  961MOL0     C32530   3.309   4.426   6.797 -0.2584 -1.4852  0.6257
  961MOL0     N32531   2.686   4.644   6.972 -0.3308 -0.0617  0.1900
  961MOL0     N32532   2.624   4.757   6.980 -0.2518 -0.7899 -0.7421
  961MOL0     C32533   2.023   4.735   8.052 -0.4137 -0.8101  0.4954
  961MOL0     C32534   1.942   4.636   8.113 -0.3565  0.2875  0.4464
  961MOL0     C32535   1.734   4.267   8.153 -0.2210  0.3697 -0.1416
  961MOL0     C32536   1.671   4.284   8.282 -0.1123 -0.1998  0.3356
  961MOL0     C32537   1.625   4.181   8.347 -0.3135 -0.0641  0.1925
  961MOL0     C32538   1.637   4.050   8.305  0.7662 -1.3515  0.5770
  961MOL0     O32539   1.567   3.965   8.384  0.2599  0.0255  0.4176
  961MOL0     C32540   1.625   3.831   8.423  0.7929 -0.5293 -0.7638
  961MOL0     C32541   1.686   3.844   8.563  0.7890  0.2480 -0.7182
  961MOL0     C32542   1.593   3.902   8.676  0.6399  0.3694 -0.8223
  961MOL0     C32543   1.510   3.777   8.724  0.1137 -0.7120 -0.5113
  961MOL0     C32544   1.401   3.813   8.826 -0.3696  0.0916 -0.8022
  961MOL0     C32545   1.301   3.831   8.896 -0.6065 -0.3959  0.3230
  961MOL0     C32546   1.674   4.021   8.175 -0.2786 -0.2173 -0.2113
  961MOL0     C32547   1.740   4.133   8.101  0.1847  0.3560  0.3047
  961MOL0     C32548   1.803   4.105   7.965 -0.1604  0.0083 -0.2747
  961MOL0     H32549   1.651   4.699   7.944 -0.0530 -1.1436  2.6277
  961MOL0     H32550   1.793   4.870   7.847 -0.8655 -1.3994 -1.5052
  961MOL0     H32551   2.211   4.813   7.848 -2.5272  0.2895 -2.1029
  961MOL0     H32552   2.233   4.956   7.963 -3.1014  0.7897  2.2271
  961MOL0     H32553   2.131   5.023   7.694  0.9368 -2.4604 -1.6768
  961MOL0     H32554   2.224   5.106   7.822  1.0535 -0.0080 -0.7138
  961MOL0     H32555   2.417   4.967   7.758  1.2708  0.0223 -1.3826
  961MOL0     H32556   2.297   4.890   7.639 -2.9620  1.9072 -0.6141
  961MOL0     H32557   2.312   5.140   7.546 -1.3533 -3.6276 -1.4697
  961MOL0     H32558   2.478   5.130   7.618  0.2209  1.1122 -0.6938
  961MOL0     H32559   2.355   4.925   7.418 -0.7673 -0.1418  1.2163
  961MOL0     H32560   2.511   4.914   7.503 -1.7764 -1.3344  1.0049
  961MOL0     H32561   2.465   5.150   7.312 -1.3470  0.1856  2.0193
  961MOL0     H32562   2.595   5.113   7.412 -0.9361 -0.0204  0.5524
  961MOL0     H32563   2.656   4.907   7.325 -0.5255 -0.2772 -1.2924
  961MOL0     H32564   2.663   5.030   7.191  0.9005  0.0253  0.8799
  961MOL0     H32565   2.434   4.835   7.227 -1.8435 -1.8854 -4.3737
  961MOL0     H32566   2.464   4.934   7.085  0.7556 -0.0050 -1.0256
  961MOL0     H32567   2.639   4.656   7.297  0.6532 -1.2681 -0.4617
  961MOL0     H32568   2.700   4.376   7.135  0.5864 -2.3043 -2.4437
  961MOL0     H32569   2.809   4.459   7.235 -0.4602  1.2552  0.1714
  961MOL0     H32570   2.848   4.448   6.924  1.1006 -0.6934 -0.6347
  961MOL0     H32571   2.973   4.493   7.039  0.2527 -1.9916  1.8649
  961MOL0     H32572   2.963   4.249   7.116  1.6323 -2.9663  0.2460
  961MOL0     H32573   2.840   4.218   7.003 -0.1715 -0.1179  2.7762
  961MOL0     H32574   3.038   4.143   6.895  1.1276  0.2541 -2.9827
  961MOL0     H32575   2.958   4.261   6.794 -1.2769  0.8182  0.5660
  961MOL0     H32576   3.107   4.187   6.643  2.3602 -4.1820  1.6255
  961MOL0     H32577   3.181   4.131   6.447 -0.7765 -1.8349 -2.3836
  961MOL0     H32578   3.362   4.104   6.418 -0.9993 -0.4125  0.3283
  961MOL0     H32579   3.267   4.233   6.342 -1.1670 -5.9190 -3.6281
  961MOL0     H32580   3.865   4.274   6.589  1.4176 -2.3882 -1.0779
  961MOL0     H32581   4.057   4.267   6.443  0.6766  0.7504 -1.2819
  961MOL0     H32582   4.192   4.233   6.265 -0.3028 -3.0900 -0.1391
  961MOL0     H32583   4.053   4.189   6.164  1.0509  0.0317  1.1084
  961MOL0     H32584   4.163   4.217   5.974 -1.4717  2.1792 -0.8116
  961MOL0     H32585   4.245   4.360   6.022 -3.6885  0.5245  0.9135
  961MOL0     H32586   4.393   4.167   5.960  2.0822 -1.6358  0.8149
  961MOL0     H32587   4.325   4.074   6.094 -1.6068  0.2408  1.2495
  961MOL0     H32588   4.412   4.241   6.257  0.6352 -0.2898 -0.3813
  961MOL0     H32589   4.486   4.330   6.122  1.5660  1.8643  3.2647
  961MOL0     H32590   4.553   4.026   6.164  1.9764 -0.8078 -0.9408
  961MOL0     H32591   4.603   4.140   6.051 -2.5082 -0.1364 -0.1615
  961MOL0     H32592   4.724   4.261   6.226 -2.4615 -0.4568 -2.9626
  961MOL0     H32593   4.752   4.090   6.270 -1.8520 -0.7071 -1.4537
  961MOL0     H32594   4.549   4.105   6.409 -0.1440  1.0235 -1.2335
  961MOL0     H32595   4.570   4.279   6.408  2.1117  0.3574  0.1086
  961MOL0     H32596   4.672   4.208   6.603 -0.6560  1.3054  0.2689
  961MOL0     H32597   4.814   4.235   6.493 -0.1045  0.2230  1.0589
  961MOL0     H32598   3.893   4.563   6.175  1.7561 -0.6082 -0.0511
  961MOL0     H32599   3.674   4.554   6.329  0.3295 -1.4617 -4.5065
  961MOL0     H32600   3.506   4.477   6.717  0.0540  0.1256 -2.4955
  961MOL0     H32601   3.303   4.486   6.887 -0.8510 -2.2431  1.1111
  961MOL0     H32602   2.120   4.767   8.090  0.3219 -0.9812 -1.1496
  961MOL0     H32603   1.977   4.576   8.197  1.3801  2.6644  1.5283
  961MOL0     H32604   1.671   4.383   8.326 -0.3773 -0.4163  0.8369
  961MOL0     H32605   1.592   4.185   8.451 -1.0055 -3.6692  0.2387
  961MOL0     H32606   1.551   3.750   8.429 -1.7796  1.7389  0.7179
  961MOL0     H32607   1.698   3.792   8.352  1.4958  0.4251 -0.5765
  961MOL0     H32608   1.779   3.901   8.554 -0.2068  1.7388 -2.1347
  961MOL0     H32609   1.710   3.741   8.589 -1.4058 -0.0365  0.4512
  961MOL0     H32610   1.649   3.937   8.763  0.0366  0.4143 -0.4435
  961MOL0     H32611   1.515   3.972   8.645 -3.2346 -3.2839 -0.3933
  961MOL0     H32612   1.575   3.706   8.775 -0.5024  0.3958  2.0410
  961MOL0     H32613   1.458   3.729   8.641 -0.5709 -0.4174 -0.2623
  961MOL0     H32614   1.216   3.850   8.959 -0.7723  0.5790 -0.1847
  961MOL0     H32615   1.668   3.924   8.127  0.0441 -0.1196 -0.4558
  961MOL0     H32616   1.759   4.142   7.872 -1.0923  0.9915  0.5352
  961MOL0     H32617   1.907   4.139   7.969 -0.3585  0.5262  2.0554
  961MOL0     H32618   1.803   3.997   7.949 -1.8713  0.1235 -1.2199
  962MOL0     O32619   5.067   4.618   1.519 -0.4106  0.0455 -0.2806
  962MOL0     C32620   5.166   4.622   1.594  0.4241  0.3934  0.8118
  962MOL0     O32621   5.177   4.533   1.698 -0.2472 -0.1584  0.1645
  962MOL0     C32622   5.075   4.436   1.740 -1.0400  0.3798  1.2351
  962MOL0     C32623   4.931   4.447   1.719 -1.7648  0.3750  0.9116
  962MOL0     C32624   4.846   4.340   1.760  1.0236  0.7093 -0.0967
  962MOL0     C32625   4.903   4.230   1.832  0.3151  0.5034  0.2714
  962MOL0     O32626   4.809   4.136   1.879  0.1413 -0.1171 -0.2708
  962MOL0     C32627   4.854   4.014   1.946 -0.4875 -0.3577 -0.3652
  962MOL0     C32628   4.879   3.904   1.851 -0.8301 -0.6035 -0.1133
  962MOL0     C32629   4.987   3.795   1.897  0.4963 -0.3096  0.0585
  962MOL0     C32630   5.121   3.823   1.847 -0.1642  0.4583  0.2767
  962MOL0     C32631   5.150   3.832   1.697  0.0826  0.1877 -0.2757
  962MOL0     C32632   5.293   3.808   1.648  0.4349  0.2377 -0.4080
  962MOL0     C32633   5.381   3.917   1.690  0.6218 -0.4589  0.0094
  962MOL0     C32634   5.508   3.916   1.598  0.7310 -0.0682  0.6138
  962MOL0     N32635   5.585   3.799   1.633 -0.2055 -0.0753 -0.7526
  962MOL0     C32636   5.659   3.777   1.751 -0.2200  0.3604 -0.0612
  962MOL0     C32637   5.706   3.651   1.732 -0.6387  0.4696  0.4263
  962MOL0     C32638   5.791   3.583   1.842  0.7581 -0.4788 -0.1528
  962MOL0     C32639   5.729   3.444   1.867 -0.1991 -0.1481 -0.3516
  962MOL0     C32640   5.780   3.386   1.997 -0.7358  0.6183 -0.3975
  962MOL0     C32641   5.715   3.453   2.122 -0.9263  0.1710 -0.3551
  962MOL0     O32642   5.576   3.442   2.105 -0.7551  0.2809 -0.6708
  962MOL0     C32643   5.476   3.527   2.154 -1.4257 -0.0022  0.2479
  962MOL0     C32644   5.488   3.626   2.252  0.5350  0.3895  0.0646
  962MOL0     C32645   5.381   3.704   2.292  0.0588 -0.3387  0.3999
  962MOL0     C32646   5.403   3.787   2.418 -0.0631 -0.0807  0.5678
  962MOL0     C32647   5.251   3.685   2.239  0.2330 -0.3595  0.3030
  962MOL0     C32648   5.127   3.766   2.280 -0.0720  0.5130  0.6483
  962MOL0     O32649   5.140   3.894   2.324 -0.2043  0.0510 -0.6526
  962MOL0     C32650   5.029   3.952   2.384 -0.5051 -1.2033 -0.4580
  962MOL0     C32651   4.955   3.902   2.489  1.2017  0.0824  0.0624
  962MOL0     C32652   4.833   3.967   2.527 -0.6876  0.6107  0.0010
  962MOL0     C32653   4.793   4.082   2.465  0.1546 -0.0017  0.6743
  962MOL0     O32654   4.675   4.128   2.502 -0.6344 -0.6340  0.4881
  962MOL0     C32655   4.593   4.187   2.398  0.4027  0.2293  0.0115
  962MOL0     C32656   4.493   4.286   2.447  0.3046 -0.9455  0.3458
  962MOL0     C32657   4.380   4.226   2.538  1.0586 -1.0470  0.4304
  962MOL0     C32658   4.269   4.320   2.576 -0.5063  0.4587 -0.5163
  962MOL0     C32659   4.194   4.372   2.450 -0.4309  0.2675 -0.0184
  962MOL0     C32660   4.044   4.400   2.464  0.4830 -0.5145 -0.2812
  962MOL0     C32661   3.976   4.414   2.323 -0.3185 -0.8127 -0.6418
  962MOL0     C32662   3.909   4.284   2.282 -0.1645  0.5053 -0.2681
  962MOL0    Cl32663   3.771   4.315   2.172  0.0214  0.3118 -0.0346
  962MOL0     C32664   4.885   4.147   2.372 -0.2651 -0.3535 -0.7212
  962MOL0     C32665   5.003   4.078   2.339  0.3098  0.6260  0.9120
  962MOL0     O32666   5.019   3.707   2.253 -0.2721 -0.0758  0.3760
  962MOL0     C32667   5.242   3.579   2.138 -1.0560  0.6318  1.0781
  962MOL0     C32668   5.347   3.501   2.102 -0.2827  0.2651  1.0408
  962MOL0     N32669   5.673   3.613   1.605 -0.4924  0.1232  0.0247
  962MOL0     N32670   5.591   3.698   1.551  0.0839 -0.1382 -0.7181
  962MOL0     C32671   5.041   4.227   1.854 -0.0294  0.6227 -0.3356
  962MOL0     C32672   5.126   4.331   1.814  0.1725 -0.2288 -0.6630
  962MOL0     C32673   5.284   4.701   1.558  0.5557  0.4645  0.5901
  962MOL0     C32674   5.408   4.630   1.543  0.0222  0.0386 -1.1270
  962MOL0     C32675   5.524   4.697   1.511 -0.2828  0.3634 -0.0673
  962MOL0     C32676   5.517   4.840   1.498  0.2555  0.2367 -0.1623
  962MOL0     O32677   5.643   4.899   1.482 -0.2237 -0.9397 -0.9322
  962MOL0     C32678   5.662   5.016   1.577 -0.5444 -0.6552 -0.3442
  962MOL0     C32679   5.753   5.125   1.511  0.0667  0.7146  0.2839
  962MOL0     C32680   5.744   5.127   1.354  1.0141  0.1182 -0.7474
  962MOL0     C32681   5.864   5.109   1.267  0.0264  0.2187  0.7914
  962MOL0     C32682   5.960   5.214   1.291 -0.1143 -0.1815 -0.3143
  962MOL0     C32683   6.045   5.296   1.324 -0.1762 -0.4028  0.1837
  962MOL0     C32684   5.392   4.904   1.508 -0.8309  0.5465  0.9890
  962MOL0     C32685   5.276   4.842   1.540 -0.6239  0.1597  0.1417
  962MOL0     C32686   5.150   4.926   1.542  0.9796 -0.6261 -0.8711
  962MOL0     H32687   4.885   4.525   1.659 -0.2180 -0.5892 -1.6661
  962MOL0     H32688   4.738   4.344   1.762  0.7026 -3.3159  2.1182
  962MOL0     H32689   4.773   3.975   2.009  0.6195 -0.2698  1.1674
  962MOL0     H32690   4.933   4.043   2.016  0.5448  0.4911 -1.8433
  962MOL0     H32691   4.779   3.861   1.841 -1.2278  0.4345 -0.7162
  962MOL0     H32692   4.920   3.958   1.766  2.3330  1.1702  2.3150
  962MOL0     H32693   4.980   3.795   2.006 -0.2684 -0.7184  0.0096
  962MOL0     H32694   4.942   3.706   1.852 -2.4853  1.9451 -1.7979
  962MOL0     H32695   5.129   3.925   1.884 -2.7370  1.3081 -1.2105
  962MOL0     H32696   5.194   3.761   1.898 -2.8863 -1.4767  2.1174
  962MOL0     H32697   5.115   3.930   1.662  1.8737  1.2734  0.7977
  962MOL0     H32698   5.099   3.746   1.654  1.0229 -1.6294  2.0329
  962MOL0     H32699   5.322   3.710   1.686  1.7484  0.5412 -0.5950
  962MOL0     H32700   5.304   3.797   1.540  2.8863 -3.6680  0.0506
  962MOL0     H32701   5.408   3.890   1.793  1.4090 -2.2656 -0.6115
  962MOL0     H32702   5.333   4.015   1.692  2.8575  0.7383 -1.2534
  962MOL0     H32703   5.482   3.918   1.491 -2.5541 -2.6655  1.1891
  962MOL0     H32704   5.562   4.009   1.619 -0.4727  0.6560  0.5884
  962MOL0     H32705   5.666   3.838   1.840  2.4987  2.4636 -1.5849
  962MOL0     H32706   5.796   3.631   1.941  0.4802 -0.1206 -0.3115
  962MOL0     H32707   5.896   3.578   1.813  0.0343 -0.2123 -3.1262
  962MOL0     H32708   5.620   3.440   1.871 -0.5169 -2.9047 -4.9779
  962MOL0     H32709   5.749   3.375   1.785 -1.2911 -0.6831 -0.1807
  962MOL0     H32710   5.758   3.279   1.997 -0.9985  0.6406  1.4264
  962MOL0     H32711   5.890   3.384   1.992 -0.8005 -0.7135 -2.4447
  962MOL0     H32712   5.758   3.407   2.211  1.8017 -4.7778 -3.7522
  962MOL0     H32713   5.744   3.559   2.121 -1.3362  0.3030  0.6015
  962MOL0     H32714   5.589   3.631   2.292  1.8787  0.9861 -3.1122
  962MOL0     H32715   5.493   3.752   2.468 -1.4585 -2.2792  1.7047
  962MOL0     H32716   5.316   3.768   2.482 -3.5125 -0.0692 -3.6348
  962MOL0     H32717   5.415   3.892   2.388 -1.0127 -0.0840  0.1250
  962MOL0     H32718   4.985   3.808   2.536  1.7254 -0.2456 -0.9001
  962MOL0     H32719   4.782   3.904   2.600  2.1836 -5.0385 -2.2728
  962MOL0     H32720   4.654   4.238   2.321  0.5605 -1.5800 -1.1174
  962MOL0     H32721   4.530   4.106   2.361  1.4534 -1.3077  1.4557
  962MOL0     H32722   4.534   4.369   2.506 -3.9970  4.0142 -2.7336
  962MOL0     H32723   4.456   4.341   2.359 -0.5238  0.2363  1.3921
  962MOL0     H32724   4.432   4.185   2.625  0.5735  0.5782  1.5150
  962MOL0     H32725   4.335   4.145   2.480 -0.5761  1.7723 -2.5534
  962MOL0     H32726   4.302   4.406   2.635  1.2168 -0.2047 -0.4623
  962MOL0     H32727   4.208   4.273   2.654  0.8141  1.6885  1.3683
  962MOL0     H32728   4.242   4.461   2.408 -0.4576  0.8260  1.0869
  962MOL0     H32729   4.201   4.298   2.369 -1.9403  0.8136 -0.6891
  962MOL0     H32730   4.016   4.486   2.525  2.0590  0.4132 -0.8361
  962MOL0     H32731   3.997   4.318   2.520 -0.3041 -0.8568 -1.4097
  962MOL0     H32732   4.047   4.443   2.246  1.6923 -2.2761  0.5701
  962MOL0     H32733   3.899   4.491   2.329  2.2741  1.8479  3.1721
  962MOL0     H32734   3.872   4.236   2.373  0.1975  1.5043  0.4262
  962MOL0     H32735   3.979   4.208   2.246 -1.4337 -0.9671  0.2546
  962MOL0     H32736   4.880   4.248   2.331  0.0654  1.3169  2.8781
  962MOL0     H32737   5.076   4.123   2.272 -0.6028 -0.5971 -0.9829
  962MOL0     H32738   5.146   3.555   2.095 -1.6558  0.2658  2.5605
  962MOL0     H32739   5.328   3.433   2.020  3.6339  1.1065 -0.7796
  962MOL0     H32740   5.095   4.145   1.901  1.8245  1.3689 -1.0681
  962MOL0     H32741   5.233   4.336   1.830  0.2626 -0.5528 -1.1502
  962MOL0     H32742   5.415   4.522   1.552 -0.6170 -0.0270 -1.3643
  962MOL0     H32743   5.617   4.642   1.520 -0.1354  0.2962 -1.7410
  962MOL0     H32744   5.572   5.065   1.615 -0.2772 -0.3162 -0.1401
  962MOL0     H32745   5.727   4.983   1.659 -0.0067  1.8519  0.3210
  962MOL0     H32746   5.851   5.088   1.540 -0.0538 -1.1006 -1.4276
  962MOL0     H32747   5.735   5.226   1.548 -0.7569  0.5774  0.2877
  962MOL0     H32748   5.677   5.052   1.311  1.1020 -0.0817 -0.5403
  962MOL0     H32749   5.687   5.213   1.318  0.7818  0.4692  0.4329
  962MOL0     H32750   5.834   5.103   1.162  1.2132 -1.5891  0.5052
  962MOL0     H32751   5.913   5.015   1.298  2.0894 -0.4800 -3.8129
  962MOL0     H32752   6.123   5.365   1.350  2.3322 -2.6356 -0.9270
  962MOL0     H32753   5.381   5.007   1.475  0.6957  0.2564 -0.5842
  962MOL0     H32754   5.177   5.017   1.487 -0.1780 -0.3903 -1.0610
  962MOL0     H32755   5.069   4.880   1.486 -0.0036 -0.4626  0.3740
  962MOL0     H32756   5.139   4.959   1.646  3.1217  1.2054 -1.1291
  963MOL0     O32757   8.086   1.112   2.598  0.6609 -0.3540 -0.0854
  963MOL0     C32758   8.102   1.134   2.721 -0.5217  0.8841 -1.1210
  963MOL0     O32759   8.211   1.177   2.782 -0.6394 -0.5876  0.6422
  963MOL0     C32760   8.340   1.176   2.725  0.3749 -0.6085  0.2477
  963MOL0     C32761   8.361   1.207   2.585  0.1103 -0.6751 -0.0114
  963MOL0     C32762   8.485   1.221   2.527  0.3564 -0.4861 -1.0238
  963MOL0     C32763   8.597   1.171   2.599 -0.8959 -0.0106 -0.6919
  963MOL0     O32764   8.722   1.161   2.538  0.2987 -0.2271 -0.0872
  963MOL0     C32765   8.833   1.143   2.626  0.0015 -0.1786  0.1423
  963MOL0     C32766   8.965   1.176   2.543  0.7841  0.3604 -0.1101
  963MOL0     C32767   8.957   1.127   2.403 -0.4612  0.0015 -0.0396
  963MOL0     C32768   9.082   1.165   2.322  0.9558 -0.0243  0.4618
  963MOL0     C32769   9.051   1.125   2.178  0.1704 -0.2530 -0.3249
  963MOL0     C32770   9.166   1.093   2.085  0.1651 -0.7267  0.0352
  963MOL0     C32771   9.228   1.225   2.040  0.1417  1.1768 -0.2475
  963MOL0     C32772   9.337   1.200   1.935  0.1972  0.4483  0.3925
  963MOL0     N32773   9.396   1.070   1.929  0.4688  1.4808 -0.4246
  963MOL0     C32774   9.489   1.013   2.017  0.1320 -0.5284 -0.6390
  963MOL0     C32775   9.513   0.890   1.960 -0.5456 -0.7838 -0.0480
  963MOL0     C32776   9.613   0.785   2.020 -0.1541  0.8669  0.0451
  963MOL0     C32777   9.601   0.749   2.169  0.5533  0.5867 -0.3304
  963MOL0     C32778   9.467   0.676   2.201 -0.1511  0.0553 -0.7273
  963MOL0     C32779   9.462   0.618   2.344  0.5276  1.0221 -0.2598
  963MOL0     O32780   9.437   0.721   2.438 -0.0326  0.0327  0.4234
  963MOL0     C32781   9.333   0.704   2.524 -0.2186 -0.5223 -0.4295
  963MOL0     C32782   9.307   0.587   2.597  0.1252 -0.0242  0.0318
  963MOL0     C32783   9.195   0.572   2.680 -1.0791 -0.4179 -0.9501
  963MOL0     C32784   9.176   0.436   2.738  0.6296 -0.0677 -0.3342
  963MOL0     C32785   9.101   0.678   2.688  1.0249 -0.2070 -0.1628
  963MOL0     C32786   8.981   0.677   2.768 -0.3834 -0.3040  0.3343
  963MOL0     O32787   8.894   0.780   2.741 -0.6263  0.4071 -0.0210
  963MOL0     C32788   8.790   0.786   2.822 -0.2471 -0.5947  0.0337
  963MOL0     C32789   8.658   0.764   2.803  0.1222  0.8131  0.3999
  963MOL0     C32790   8.557   0.787   2.906 -0.3940  0.4083 -0.3265
  963MOL0     C32791   8.603   0.829   3.033  0.4346  1.2843  0.9549
  963MOL0     O32792   8.512   0.857   3.136  0.2048 -0.5096 -0.2384
  963MOL0     C32793   8.541   0.939   3.247  0.6918  0.3177  0.2637
  963MOL0     C32794   8.418   0.978   3.330 -0.3407  1.1641  0.4024
  963MOL0     C32795   8.440   1.076   3.442  0.1070 -0.2476  0.2422
  963MOL0     C32796   8.309   1.115   3.522  0.5662  0.2589  0.2193
  963MOL0     C32797   8.254   0.988   3.604  0.5625 -0.2837 -0.6974
  963MOL0     C32798   8.151   1.026   3.707  0.0512 -0.4207  0.6410
  963MOL0     C32799   8.187   1.160   3.788  1.0360 -0.1607  0.8027
  963MOL0     C32800   8.092   1.179   3.910 -0.8418  0.2140 -0.2709
  963MOL0    Cl32801   8.159   1.292   4.024 -0.1418  0.0548 -0.1749
  963MOL0     C32802   8.734   0.859   3.051 -0.0286 -0.8828  0.3666
  963MOL0     C32803   8.826   0.840   2.953  0.0219 -0.3215 -0.2307
  963MOL0     O32804   8.966   0.594   2.856  0.1621 -0.0796 -0.6926
  963MOL0     C32805   9.126   0.791   2.618  0.0111 -0.4264  0.5161
  963MOL0     C32806   9.242   0.805   2.541  0.6263  0.1505 -0.5405
  963MOL0     N32807   9.444   0.876   1.842 -0.1220 -0.7758 -0.2943
  963MOL0     N32808   9.376   0.981   1.827 -0.7865 -0.0462  0.2671
  963MOL0     C32809   8.579   1.115   2.732  0.3880 -1.0275 -0.1211
  963MOL0     C32810   8.446   1.117   2.799 -1.2487  0.3064 -0.3352
  963MOL0     C32811   7.983   1.119   2.805 -0.1425 -0.0709 -0.2475
  963MOL0     C32812   7.857   1.103   2.740  0.3684 -0.5015  0.8723
  963MOL0     C32813   7.735   1.084   2.798 -0.3716  0.6372 -0.4365
  963MOL0     C32814   7.733   1.087   2.934 -0.5273 -0.4036 -0.5299
  963MOL0     O32815   7.625   1.070   3.007  0.5094  0.2026  0.4710
  963MOL0     C32816   7.526   1.176   2.994  0.1962 -0.2891  0.5677
  963MOL0     C32817   7.530   1.251   3.132  0.2315 -0.4383  0.8054
  963MOL0     C32818   7.620   1.211   3.251  0.3282  0.1987  0.1224
  963MOL0     C32819   7.582   1.296   3.385 -1.2993 -0.5286 -0.5272
  963MOL0     C32820   7.682   1.248   3.482  0.2313  0.9081 -1.0785
  963MOL0     C32821   7.757   1.203   3.575 -0.0485  1.1788  0.2346
  963MOL0     C32822   7.857   1.100   3.011  0.1923 -0.2393  0.0219
  963MOL0     C32823   7.983   1.119   2.949  0.4083  1.0333  0.3986
  963MOL0     C32824   8.104   1.141   3.034  0.0452 -0.9364  0.1799
  963MOL0     H32825   8.276   1.241   2.527 -1.6404 -0.6627  2.4123
  963MOL0     H32826   8.491   1.263   2.427 -1.1138  4.8761  0.7879
  963MOL0     H32827   8.847   1.041   2.664  1.3366 -0.2373 -0.4573
  963MOL0     H32828   8.827   1.211   2.711  1.7428  0.6297 -0.3359
  963MOL0     H32829   8.972   1.285   2.532  2.1288  0.2693 -0.3128
  963MOL0     H32830   9.051   1.146   2.602 -1.5983  0.8691  3.9939
  963MOL0     H32831   8.938   1.020   2.416  1.8069 -0.1841  2.6814
  963MOL0     H32832   8.869   1.171   2.355 -0.6182 -0.6257 -0.3474
  963MOL0     H32833   9.108   1.271   2.323  0.5427  0.0812  0.0548
  963MOL0     H32834   9.173   1.112   2.353 -0.3659 -1.2918  2.4522
  963MOL0     H32835   8.997   1.213   2.142  0.4701 -0.7825 -2.1667
  963MOL0     H32836   8.996   1.031   2.171  0.4971 -0.4439 -0.3777
  963MOL0     H32837   9.243   1.054   2.153 -0.8407  0.4851  1.9269
  963MOL0     H32838   9.150   1.028   1.998 -0.3071  1.1515 -1.3581
  963MOL0     H32839   9.281   1.261   2.128  0.2843  0.9705 -0.2471
  963MOL0     H32840   9.163   1.305   2.004  0.1065  0.7013 -1.2971
  963MOL0     H32841   9.291   1.213   1.836  4.7931  1.0080 -1.9368
  963MOL0     H32842   9.414   1.278   1.939 -0.4482  1.1438 -0.1795
  963MOL0     H32843   9.508   1.053   2.117 -1.0793 -2.0375  0.2397
  963MOL0     H32844   9.719   0.800   2.002  0.4757 -3.6223 -0.9961
  963MOL0     H32845   9.595   0.695   1.961 -2.1397  0.8321  0.6293
  963MOL0     H32846   9.678   0.676   2.196 -0.0226  0.3099  0.6021
  963MOL0     H32847   9.595   0.835   2.235 -0.4818  0.6017 -0.4217
  963MOL0     H32848   9.381   0.741   2.186 -1.9310 -1.8550  0.6224
  963MOL0     H32849   9.449   0.599   2.126  0.8381 -1.8951  0.9477
  963MOL0     H32850   9.370   0.559   2.345 -0.7546  2.9587  1.2807
  963MOL0     H32851   9.544   0.547   2.361 -0.1891  0.5831  1.6246
  963MOL0     H32852   9.365   0.499   2.571  2.0792  1.4967 -1.0031
  963MOL0     H32853   9.085   0.400   2.689  2.2495  0.0694 -3.7704
  963MOL0     H32854   9.168   0.432   2.847 -1.1428 -0.1291 -0.4359
  963MOL0     H32855   9.265   0.376   2.717  1.8776  1.7975 -0.6232
  963MOL0     H32856   8.620   0.743   2.703  0.8839  2.4577 -0.2817
  963MOL0     H32857   8.449   0.783   2.898 -0.5576  2.7275 -0.0021
  963MOL0     H32858   8.603   0.890   3.322  1.5332  0.4813 -0.3037
  963MOL0     H32859   8.594   1.028   3.211 -1.9321  2.1547  0.6175
  963MOL0     H32860   8.345   1.017   3.258 -0.1834 -0.9883 -1.0233
  963MOL0     H32861   8.382   0.885   3.373  0.1527 -0.3586 -2.2713
  963MOL0     H32862   8.483   1.165   3.395  1.6607 -2.5033 -2.9915
  963MOL0     H32863   8.522   1.044   3.507 -1.4770 -0.9469  1.9981
  963MOL0     H32864   8.228   1.150   3.458  1.1854 -1.0502 -1.3530
  963MOL0     H32865   8.339   1.197   3.587  1.8905  0.7097 -0.9077
  963MOL0     H32866   8.205   0.915   3.540 -1.5197 -0.1239  0.6325
  963MOL0     H32867   8.338   0.930   3.644  0.1250 -2.2358 -2.4545
  963MOL0     H32868   8.144   0.950   3.784 -0.0443 -0.3237  0.7294
  963MOL0     H32869   8.054   1.035   3.657 -0.3204 -2.1523  0.9950
  963MOL0     H32870   8.181   1.243   3.717  2.7751 -1.1901 -0.6211
  963MOL0     H32871   8.293   1.163   3.814  1.1085  3.7060  0.7169
  963MOL0     H32872   8.085   1.081   3.958 -1.1501  0.0023 -0.7387
  963MOL0     H32873   7.997   1.225   3.881 -1.5224 -1.0254 -0.0918
  963MOL0     H32874   8.764   0.899   3.147  1.2534 -1.5395  0.2567
  963MOL0     H32875   8.929   0.872   2.960  0.0391 -0.6973  2.4516
  963MOL0     H32876   9.059   0.877   2.613 -2.6108 -2.3020  1.4172
  963MOL0     H32877   9.264   0.892   2.480 -2.0815 -0.1876 -2.1295
  963MOL0     H32878   8.664   1.076   2.787  2.7943  2.1510 -1.2660
  963MOL0     H32879   8.431   1.073   2.897  0.8293  0.2555 -0.0056
  963MOL0     H32880   7.860   1.089   2.632  4.2152 -1.8504  0.9876
  963MOL0     H32881   7.650   1.059   2.736  0.3111  1.6022 -1.8140
  963MOL0     H32882   7.534   1.241   2.907  0.8542 -1.3814 -0.2152
  963MOL0     H32883   7.429   1.129   2.975  0.2103 -0.7472  1.5397
  963MOL0     H32884   7.428   1.251   3.171 -0.7802 -1.3161 -1.6479
  963MOL0     H32885   7.563   1.354   3.115  3.9341 -1.4295  1.2180
  963MOL0     H32886   7.593   1.109   3.278  1.9480  0.1922  1.9472
  963MOL0     H32887   7.727   1.224   3.236  0.4037 -2.7926 -3.1914
  963MOL0     H32888   7.478   1.289   3.417 -0.7208  0.7490  1.8871
  963MOL0     H32889   7.606   1.401   3.365 -3.3538  0.6583  2.5027
  963MOL0     H32890   7.830   1.170   3.646  0.2759  0.0878 -0.5636
  963MOL0     H32891   7.843   1.101   3.118  1.6025  1.4772  0.2410
  963MOL0     H32892   8.091   1.126   3.141  1.9059  1.6003  0.8322
  963MOL0     H32893   8.193   1.083   3.010 -0.6840 -2.2875  0.6164
  963MOL0     H32894   8.142   1.244   3.027 -0.2014 -0.7671  1.1623
  964MOL0     O32895   7.188  11.554  11.255 -0.0887  0.0896 -0.4271
  964MOL0     C32896   7.193  11.629  11.357 -0.3412  0.2247  0.4752
  964MOL0     O32897   7.254  11.603  11.482 -0.2792  0.6621 -0.8013
  964MOL0     C32898   7.324  11.485  11.493  0.0833 -0.2806  0.2982
  964MOL0     C32899   7.259  11.370  11.454 -0.3304  0.2011  0.1382
  964MOL0     C32900   7.328  11.243  11.455  0.7464 -0.3926 -0.4215
  964MOL0     C32901   7.457  11.239  11.522 -0.0716  0.5628 -0.7858
  964MOL0     O32902   7.531  11.123  11.553 -0.1837 -0.0140  0.1180
  964MOL0     C32903   7.473  11.006  11.503 -0.1174  0.5023  0.4424
  964MOL0     C32904   7.580  10.898  11.539  0.3520 -0.4900  0.3070
  964MOL0     C32905   7.574  10.874  11.687 -0.0483  0.1431  0.6373
  964MOL0     C32906   7.665  10.747  11.707  0.1743  0.2082 -1.0628
  964MOL0     C32907   7.658  10.709  11.854 -0.1683 -0.1119  0.3706
  964MOL0     C32908   7.716  10.811  11.940  0.1750 -1.6014 -0.1803
  964MOL0     C32909   7.747  10.771  12.088 -0.0629  0.8044 -0.6438
  964MOL0     C32910   7.609  10.750  12.163 -0.5703  0.0993  0.0811
  964MOL0     N32911   7.607  10.770  12.314 -0.2896 -0.1040 -0.1829
  964MOL0     C32912   7.619  10.885  12.384  0.1865  0.2285  0.3500
  964MOL0     C32913   7.577  10.858  12.509  0.2119  1.3601  0.5148
  964MOL0     C32914   7.573  10.948  12.636 -0.2337  0.3140 -0.4597
  964MOL0     C32915   7.634  11.092  12.609  0.7309 -0.1229 -0.1142
  964MOL0     C32916   7.539  11.181  12.527 -0.6655  0.5110 -0.8224
  964MOL0     C32917   7.604  11.316  12.498  0.8051  0.1962  0.3524
  964MOL0     O32918   7.621  11.390  12.621  0.3547  0.3826 -0.2287
  964MOL0     C32919   7.745  11.440  12.638  0.7279 -0.7528  0.5644
  964MOL0     C32920   7.874  11.401  12.590 -0.3719 -0.0967  1.1243
  964MOL0     C32921   7.986  11.480  12.617 -0.4973  0.2412  0.0044
  964MOL0     C32922   8.125  11.424  12.577 -0.2479  0.0131 -0.4808
  964MOL0     C32923   7.972  11.604  12.690 -1.1811 -0.2077 -0.8678
  964MOL0     C32924   8.086  11.699  12.731 -0.2814 -0.7809  0.3643
  964MOL0     O32925   8.044  11.800  12.817  0.0420  0.1555  0.2696
  964MOL0     C32926   8.132  11.899  12.852 -0.1359 -0.4852 -0.3232
  964MOL0     C32927   8.155  11.921  12.992 -0.3596  0.6421  0.3972
  964MOL0     C32928   8.219  12.037  13.034 -0.9184 -0.5703  1.0254
  964MOL0     C32929   8.273  12.131  12.942  0.4329  0.6397 -0.0445
  964MOL0     O32930   8.339  12.243  12.975 -0.7988 -0.3126  0.1304
  964MOL0     C32931   8.449  12.303  12.894 -0.0904 -0.1465  0.0509
  964MOL0     C32932   8.570  12.286  12.989  0.2302  0.3438  0.9858
  964MOL0     C32933   8.695  12.345  12.933 -0.5994 -0.3577  0.2197
  964MOL0     C32934   8.791  12.370  13.048 -0.4327  0.3412 -0.8258
  964MOL0     C32935   8.928  12.422  12.988 -0.2295  0.0606 -0.3776
  964MOL0     C32936   9.031  12.478  13.101 -0.3445  0.2326  0.1439
  964MOL0     C32937   9.125  12.583  13.040  0.1879  0.0329  0.5975
  964MOL0     C32938   9.052  12.710  13.007 -0.1577 -0.2201 -0.6785
  964MOL0    Cl32939   8.953  12.783  13.149  0.2627 -0.4533  0.4395
  964MOL0     C32940   8.252  12.099  12.810  0.0669 -0.4958 -1.3296
  964MOL0     C32941   8.174  11.996  12.765  0.5864 -0.5494 -0.4886
  964MOL0     O32942   8.192  11.697  12.679 -0.3716 -0.4824  0.4060
  964MOL0     C32943   7.835  11.645  12.729 -0.7271  0.2760  0.1396
  964MOL0     C32944   7.733  11.566  12.694  0.0681 -0.1810  0.0922
  964MOL0     N32945   7.538  10.723  12.517 -0.8651 -0.2102  0.8449
  964MOL0     N32946   7.566  10.679  12.401  1.0633  0.7642 -0.4480
  964MOL0     C32947   7.509  11.357  11.566  1.0717 -0.3223 -0.3522
  964MOL0     C32948   7.447  11.477  11.546 -0.4878  0.2082  0.0741
  964MOL0     C32949   7.121  11.766  11.329  0.7784  0.2572 -0.4215
  964MOL0     C32950   7.026  11.781  11.227  0.0531 -1.1710 -0.0332
  964MOL0     C32951   6.939  11.889  11.226 -0.2251  0.0042 -0.3912
  964MOL0     C32952   6.979  12.006  11.290  1.8162 -0.2763 -0.8467
  964MOL0     O32953   6.910  12.122  11.268 -0.3123  0.3727  0.1210
  964MOL0     C32954   6.813  12.158  11.375  0.2494 -0.3126  0.8995
  964MOL0     C32955   6.766  12.304  11.346 -0.1749 -0.0483 -0.3405
  964MOL0     C32956   6.898  12.399  11.362  0.6963  0.2470  0.5724
  964MOL0     C32957   6.861  12.524  11.443  1.0349 -0.1652  0.3584
  964MOL0     C32958   6.815  12.485  11.575 -0.6901 -1.2793 -0.9364
  964MOL0     C32959   6.779  12.462  11.690  0.2044 -0.2331  1.2558
  964MOL0     C32960   7.081  11.999  11.383 -0.2152  0.5337  0.8201
  964MOL0     C32961   7.151  11.881  11.407 -0.1680 -0.4194 -0.5880
  964MOL0     C32962   7.272  11.892  11.498  0.6433 -1.0912 -0.2089
  964MOL0     H32963   7.153  11.369  11.434 -0.2845 -0.9639 -0.1398
  964MOL0     H32964   7.288  11.159  11.399  0.0164  0.7529 -1.6869
  964MOL0     H32965   7.432  11.014  11.402 -6.8420 -0.5769  2.6109
  964MOL0     H32966   7.385  10.982  11.563  0.1694 -2.2002 -0.1108
  964MOL0     H32967   7.552  10.808  11.485  1.8355 -0.8651  0.1290
  964MOL0     H32968   7.677  10.945  11.517 -1.2860  1.0424 -5.4925
  964MOL0     H32969   7.634  10.954  11.730  0.2668  0.5414 -0.5201
  964MOL0     H32970   7.473  10.861  11.729 -0.2096  0.6111  0.4059
  964MOL0     H32971   7.633  10.660  11.648 -0.8165 -0.6502  0.6382
  964MOL0     H32972   7.768  10.774  11.680  0.9177  0.4718  1.7116
  964MOL0     H32973   7.713  10.617  11.878  0.3096 -0.7802 -2.8570
  964MOL0     H32974   7.551  10.704  11.876 -0.1173  0.7199  0.8303
  964MOL0     H32975   7.808  10.850  11.896 -0.1041 -0.9950 -0.2432
  964MOL0     H32976   7.660  10.905  11.937  3.0177  0.2749 -4.0499
  964MOL0     H32977   7.797  10.857  12.133 -0.6326  1.4275 -1.1748
  964MOL0     H32978   7.803  10.678  12.100 -3.0047 -0.8716  1.6010
  964MOL0     H32979   7.544  10.823  12.114  2.3285  2.1673 -0.9219
  964MOL0     H32980   7.566  10.652  12.138 -0.3409  0.2238 -0.8234
  964MOL0     H32981   7.651  10.984  12.353  0.9711  0.2663  1.2279
  964MOL0     H32982   7.634  10.904  12.716 -0.5323  0.9338  0.1258
  964MOL0     H32983   7.475  10.975  12.676  1.0395  0.2892  3.0680
  964MOL0     H32984   7.657  11.138  12.705 -1.7311 -2.1649  1.6038
  964MOL0     H32985   7.724  11.075  12.549  0.1659  0.7308 -1.2510
  964MOL0     H32986   7.501  11.135  12.436  2.0100  0.9580 -2.2376
  964MOL0     H32987   7.447  11.197  12.586 -0.4918  0.0000 -0.4073
  964MOL0     H32988   7.698  11.301  12.445  1.9904 -1.6865  2.8152
  964MOL0     H32989   7.537  11.373  12.432 -2.5116  0.8357  3.8990
  964MOL0     H32990   7.884  11.304  12.543  3.8805 -0.4538  2.2711
  964MOL0     H32991   8.195  11.423  12.661 -0.5724 -0.1248 -0.2130
  964MOL0     H32992   8.159  11.493  12.499 -0.1276  3.3659  2.3051
  964MOL0     H32993   8.102  11.324  12.538 -0.2388 -1.6616  3.3616
  964MOL0     H32994   8.134  11.845  13.066 -1.0592  1.9753  1.6234
  964MOL0     H32995   8.242  12.043  13.140 -1.2749  2.8861  1.0265
  964MOL0     H32996   8.468  12.247  12.802  0.1380 -3.5399  2.0002
  964MOL0     H32997   8.418  12.404  12.866  1.3284  0.4998  0.6719
  964MOL0     H32998   8.529  12.339  13.075  0.3607 -0.8181  1.7769
  964MOL0     H32999   8.585  12.178  13.000 -3.9632 -0.9089 -2.7863
  964MOL0     H33000   8.694  12.444  12.887 -0.6355  0.5461  2.0684
  964MOL0     H33001   8.743  12.277  12.862 -0.6309  0.7263 -0.8775
  964MOL0     H33002   8.821  12.279  13.101 -0.6768  2.5367  3.6313
  964MOL0     H33003   8.751  12.437  13.124  2.7013  0.3064  1.0636
  964MOL0     H33004   8.971  12.336  12.936  0.9784 -0.2222  1.0115
  964MOL0     H33005   8.908  12.506  12.921 -2.1189  2.4651  2.8950
  964MOL0     H33006   9.085  12.396  13.148 -0.7653 -1.0026 -1.4184
  964MOL0     H33007   8.970  12.531  13.175 -0.0440  1.1742 -0.2596
  964MOL0     H33008   9.156  12.543  12.943 -1.6971  0.4114 -0.2115
  964MOL0     H33009   9.198  12.624  13.111  0.8761 -1.8169  1.0067
  964MOL0     H33010   8.995  12.692  12.916 -0.9354  1.6241 -0.5948
  964MOL0     H33011   9.125  12.790  12.989  0.4835 -0.2114  1.6453
  964MOL0     H33012   8.280  12.179  12.743 -2.2236  0.5461 -1.1474
  964MOL0     H33013   8.159  11.974  12.660  0.5199 -0.5675 -0.4756
  964MOL0     H33014   7.809  11.734  12.787  0.4014  1.1248 -0.6183
  964MOL0     H33015   7.631  11.590  12.722  0.6921  3.2670 -0.1959
  964MOL0     H33016   7.597  11.354  11.630 -0.4704 -1.5699  1.8099
  964MOL0     H33017   7.490  11.564  11.595  2.9610 -2.9419  3.3424
  964MOL0     H33018   6.994  11.697  11.165  0.1697  0.1771 -2.0054
  964MOL0     H33019   6.849  11.876  11.167  0.1206 -3.8343 -0.2887
  964MOL0     H33020   6.726  12.093  11.362 -0.8935  1.6721 -2.9273
  964MOL0     H33021   6.859  12.150  11.474  2.8085 -0.1590 -0.1926
  964MOL0     H33022   6.693  12.334  11.421 -1.2788 -1.5204 -0.7876
  964MOL0     H33023   6.736  12.314  11.241  2.8944  0.6641 -1.2602
  964MOL0     H33024   6.987  12.352  11.405  0.6875 -0.8306 -0.5282
  964MOL0     H33025   6.932  12.425  11.262  0.2344 -0.5493  0.2019
  964MOL0     H33026   6.779  12.585  11.403 -1.0163 -1.3690  2.4830
  964MOL0     H33027   6.955  12.579  11.441  0.8341  0.2151  1.1288
  964MOL0     H33028   6.751  12.443  11.791  2.8144  0.3384  2.1631
  964MOL0     H33029   7.105  12.091  11.435  0.4942  0.7930  0.0597
  964MOL0     H33030   7.357  11.825  11.483  1.4792 -1.1166  3.5783
  964MOL0     H33031   7.327  11.986  11.487  3.1557 -1.7889  4.0731
  964MOL0     H33032   7.235  11.881  11.601  2.0526  1.6258  0.6965
  965MOL0     O33033   3.250   2.232   3.799 -0.7113 -0.0336  0.6017
  965MOL0     C33034   3.197   2.120   3.796  0.2463  0.7861  0.4480
  965MOL0     O33035   3.266   1.994   3.770 -0.1592 -0.7633 -0.1524
  965MOL0     C33036   3.401   1.977   3.762 -0.6614  0.1059  0.7084
  965MOL0     C33037   3.439   1.876   3.673  0.1675 -0.7278  0.5209
  965MOL0     C33038   3.576   1.867   3.643 -0.5610 -0.1388  0.1363
  965MOL0     C33039   3.673   1.945   3.695  0.0627 -0.2539 -0.4860
  965MOL0     O33040   3.804   1.922   3.660 -0.0282  0.3436  0.1435
  965MOL0     C33041   3.879   2.035   3.630  0.3098  0.6910 -0.2169
  965MOL0     C33042   4.002   2.001   3.544 -0.5456 -0.2207 -0.4604
  965MOL0     C33043   4.117   2.115   3.553  0.3485 -0.3370  0.0249
  965MOL0     C33044   4.164   2.138   3.702  1.1086  0.4486 -0.0421
  965MOL0     C33045   4.199   2.004   3.771  0.4027 -0.7631  0.5191
  965MOL0     C33046   4.249   2.042   3.909  0.0880  1.3264 -0.6378
  965MOL0     C33047   4.268   1.924   4.004 -0.2689  0.0446  0.0415
  965MOL0     C33048   4.390   1.826   3.972 -0.2913 -0.3454 -0.3335
  965MOL0     N33049   4.517   1.885   3.951 -0.4876 -0.5417 -0.5439
  965MOL0     C33050   4.609   1.854   3.851  0.2060 -0.4256 -0.2593
  965MOL0     C33051   4.714   1.939   3.865 -1.6784 -0.1286 -0.9916
  965MOL0     C33052   4.834   1.937   3.782 -0.8472 -0.1866  0.8802
  965MOL0     C33053   4.899   1.800   3.794 -0.4454 -0.8634  0.1459
  965MOL0     C33054   5.016   1.768   3.688  0.1332 -0.0008 -0.5252
  965MOL0     C33055   5.155   1.727   3.753 -0.8736  0.1339 -0.0274
  965MOL0     O33056   5.225   1.645   3.649 -0.9555 -0.3337  0.5204
  965MOL0     C33057   5.352   1.601   3.667 -0.0242  0.0191  0.1892
  965MOL0     C33058   5.405   1.542   3.554  0.0693 -0.1343 -0.4297
  965MOL0     C33059   5.539   1.499   3.552  0.5859  1.6625 -0.7848
  965MOL0     C33060   5.580   1.444   3.419  0.8363  1.3415 -0.7009
  965MOL0     C33061   5.615   1.487   3.673 -0.7792 -0.8263 -0.1684
  965MOL0     C33062   5.756   1.441   3.678 -0.4151  0.8138 -0.3339
  965MOL0     O33063   5.797   1.378   3.790 -0.4284  0.2139  0.5062
  965MOL0     C33064   5.912   1.411   3.862 -0.5526  0.5287 -0.1143
  965MOL0     C33065   6.039   1.450   3.811  0.5955  0.0409 -0.2093
  965MOL0     C33066   6.142   1.485   3.889 -0.8929 -0.4329 -0.5110
  965MOL0     C33067   6.146   1.453   4.030  0.1518 -0.5396  0.1891
  965MOL0     O33068   6.254   1.477   4.105  0.6802  0.6137  0.5952
  965MOL0     C33069   6.230   1.478   4.239  0.6051  1.0291 -0.5186
  965MOL0     C33070   6.368   1.492   4.306  1.6099 -0.0560  0.0227
  965MOL0     C33071   6.347   1.491   4.459 -0.3970  0.2583 -0.3563
  965MOL0     C33072   6.474   1.551   4.528 -0.1831 -0.0088 -0.3969
  965MOL0     C33073   6.471   1.526   4.676  0.4677 -0.0952 -0.3323
  965MOL0     C33074   6.589   1.592   4.752 -0.5394 -0.6323 -0.1628
  965MOL0     C33075   6.581   1.588   4.900  0.0379  0.6722  0.7127
  965MOL0     C33076   6.463   1.659   4.968 -1.7013  0.4920 -0.4961
  965MOL0    Cl33077   6.507   1.697   5.139  0.0851  0.2981 -0.3726
  965MOL0     C33078   6.018   1.412   4.087  0.2062 -0.9990  0.1213
  965MOL0     C33079   5.902   1.397   4.004 -0.5223  0.0011  0.9365
  965MOL0     O33080   5.823   1.461   3.577 -0.2171  0.1196 -0.3515
  965MOL0     C33081   5.563   1.560   3.779  0.7565 -0.3740 -0.4663
  965MOL0     C33082   5.434   1.615   3.778  0.1833  0.9614 -0.5990
  965MOL0     N33083   4.681   2.027   3.966  0.0400  0.2861 -0.2866
  965MOL0     N33084   4.564   1.997   4.023  0.8571  0.8576 -0.2211
  965MOL0     C33085   3.627   2.039   3.786 -0.5004  0.5819 -1.1190
  965MOL0     C33086   3.495   2.066   3.815  0.3725  0.1289  0.4156
  965MOL0     C33087   3.046   2.106   3.793  0.0124 -0.1108 -0.3075
  965MOL0     C33088   2.992   2.024   3.695 -1.0981 -1.0938  0.9338
  965MOL0     C33089   2.866   1.976   3.701  0.3804 -0.1030  0.5006
  965MOL0     C33090   2.775   2.036   3.786  0.3114  0.0943  0.4707
  965MOL0     O33091   2.649   1.992   3.813 -0.3562  0.2955 -0.5882
  965MOL0     C33092   2.579   1.918   3.713  0.5511  1.1519  0.7411
  965MOL0     C33093   2.421   1.927   3.740  0.6484  0.0392 -0.7355
  965MOL0     C33094   2.350   1.875   3.619  0.1092 -0.6881 -0.4666
  965MOL0     C33095   2.194   1.887   3.605 -0.2721  0.3580  0.6877
  965MOL0     C33096   2.140   1.842   3.478  0.3300 -0.2195 -1.3054
  965MOL0     C33097   2.104   1.796   3.375 -0.2374  0.4053  0.3312
  965MOL0     C33098   2.826   2.124   3.884  0.1402  0.5148 -0.1998
  965MOL0     C33099   2.958   2.160   3.886 -1.0129  0.2895  0.2265
  965MOL0     C33100   3.009   2.245   4.004  1.1309 -0.1328  0.1924
  965MOL0     H33101   3.367   1.817   3.618  0.2656  0.4213 -0.9039
  965MOL0     H33102   3.619   1.784   3.588  1.5794  0.1843  1.2319
  965MOL0     H33103   3.913   2.086   3.720  0.1025 -0.5415  0.5905
  965MOL0     H33104   3.826   2.109   3.569  0.6760  1.9801  0.9935
  965MOL0     H33105   4.038   1.906   3.584  2.5347  1.0036 -0.0143
  965MOL0     H33106   3.973   1.989   3.439  0.4351  1.8821 -1.0338
  965MOL0     H33107   4.190   2.062   3.491  1.7776  0.2445  1.1566
  965MOL0     H33108   4.089   2.205   3.498 -1.0971 -1.9549 -2.0711
  965MOL0     H33109   4.253   2.201   3.699  0.0341  1.9778 -1.8145
  965MOL0     H33110   4.085   2.197   3.750 -0.0812  0.1287 -1.5162
  965MOL0     H33111   4.271   1.950   3.709 -0.0429  1.0844 -1.8004
  965MOL0     H33112   4.110   1.940   3.779 -0.1540  0.0103  0.6716
  965MOL0     H33113   4.351   2.082   3.899  1.3734 -1.0643  1.5752
  965MOL0     H33114   4.192   2.121   3.960  2.3268  1.8489  1.2349
  965MOL0     H33115   4.179   1.862   3.988  0.0532  0.2016 -2.8002
  965MOL0     H33116   4.283   1.969   4.103 -2.0710  2.2360 -0.6083
  965MOL0     H33117   4.395   1.759   4.058  0.8356 -0.9340 -0.8441
  965MOL0     H33118   4.363   1.765   3.885  0.5200  0.7870 -1.4298
  965MOL0     H33119   4.611   1.774   3.777  0.5673  0.3338 -1.0821
  965MOL0     H33120   4.901   2.017   3.815  0.6133 -0.0535 -2.0651
  965MOL0     H33121   4.802   1.962   3.680  2.2687  4.6233  0.7399
  965MOL0     H33122   4.940   1.798   3.895 -0.0175  0.6346  0.0226
  965MOL0     H33123   4.832   1.713   3.791  0.2992 -1.4263 -1.0432
  965MOL0     H33124   4.970   1.678   3.646  1.1041 -0.7119 -0.0926
  965MOL0     H33125   5.029   1.835   3.604 -1.9726 -0.6029 -1.4141
  965MOL0     H33126   5.210   1.818   3.779 -2.5617  1.3960 -0.6162
  965MOL0     H33127   5.147   1.670   3.846 -0.3582 -1.9236 -1.1753
  965MOL0     H33128   5.351   1.536   3.460  3.2606  1.7692 -2.6094
  965MOL0     H33129   5.501   1.383   3.374  0.6325  0.2794  1.0329
  965MOL0     H33130   5.659   1.369   3.434 -1.3634 -0.6949  1.5111
  965MOL0     H33131   5.584   1.530   3.352 -0.0179  1.0325 -1.1579
  965MOL0     H33132   6.049   1.477   3.706 -3.2489 -3.7444 -1.8787
  965MOL0     H33133   6.219   1.541   3.837 -0.4702  1.4788  1.9770
  965MOL0     H33134   6.178   1.571   4.264 -0.4653  0.5354 -0.8148
  965MOL0     H33135   6.189   1.387   4.284  2.5371  0.7184  0.7144
  965MOL0     H33136   6.411   1.400   4.268 -1.1474 -0.8584 -1.4525
  965MOL0     H33137   6.439   1.567   4.270  0.6218  0.5591 -0.7277
  965MOL0     H33138   6.313   1.397   4.503  0.5753  1.9231  4.7017
  965MOL0     H33139   6.274   1.566   4.491 -1.5811 -0.9248 -0.2220
  965MOL0     H33140   6.466   1.660   4.519  1.8503  0.4619  2.1157
  965MOL0     H33141   6.566   1.513   4.484  1.1627 -1.1527  3.0176
  965MOL0     H33142   6.376   1.557   4.722 -0.8265 -3.5578 -0.3449
  965MOL0     H33143   6.473   1.417   4.686  3.3764 -0.5131 -3.6154
  965MOL0     H33144   6.598   1.699   4.733  0.5841 -0.8058 -0.6617
  965MOL0     H33145   6.683   1.547   4.721 -0.2513  0.4223 -0.8893
  965MOL0     H33146   6.683   1.612   4.932 -0.9490  4.5231  1.4709
  965MOL0     H33147   6.563   1.484   4.931 -1.3909 -0.1388 -2.3822
  965MOL0     H33148   6.374   1.595   4.980 -0.4459 -1.3211 -0.3678
  965MOL0     H33149   6.439   1.751   4.914 -1.5205  0.7844 -0.0813
  965MOL0     H33150   6.002   1.388   4.192 -0.5425  2.3034  0.9034
  965MOL0     H33151   5.812   1.369   4.057  0.1567  2.2511  3.5201
  965MOL0     H33152   5.614   1.573   3.874 -0.3463  0.5502  0.0160
  965MOL0     H33153   5.413   1.680   3.863 -3.1513  0.9273 -1.2494
  965MOL0     H33154   3.703   2.107   3.824  0.3910 -0.4678 -1.0035
  965MOL0     H33155   3.459   2.153   3.868 -2.5934  0.2090 -1.5019
  965MOL0     H33156   3.046   2.030   3.601 -2.3913 -0.0737  0.2167
  965MOL0     H33157   2.821   1.909   3.628  0.5254 -0.6687  0.9276
  965MOL0     H33158   2.582   1.965   3.614 -1.3288 -0.8370 -0.3532
  965MOL0     H33159   2.619   1.816   3.705 -0.5282  0.7759 -0.0298
  965MOL0     H33160   2.412   2.036   3.742  3.0531  0.2896  0.3133
  965MOL0     H33161   2.374   1.889   3.831 -1.3224  1.1862 -1.2200
  965MOL0     H33162   2.395   1.935   3.540 -1.5707  0.7693 -0.3849
  965MOL0     H33163   2.383   1.771   3.610 -0.0086 -0.6011 -2.1654
  965MOL0     H33164   2.150   1.984   3.631 -0.2817  1.2282 -2.2016
  965MOL0     H33165   2.146   1.807   3.663  2.5356 -2.4451 -0.5615
  965MOL0     H33166   2.069   1.737   3.292 -3.5900  2.0648  0.4118
  965MOL0     H33167   2.762   2.157   3.965  0.2712 -0.2466  0.2239
  965MOL0     H33168   2.931   2.280   4.073  2.5097 -0.9369  2.2624
  965MOL0     H33169   3.068   2.179   4.068 -4.2146 -2.7273  3.2309
  965MOL0     H33170   3.064   2.335   3.977  2.4732 -1.6699 -2.6194
  966MOL0     O33171   9.362   4.970   6.199  0.1910  0.5982  1.0350
  966MOL0     C33172   9.316   5.041   6.109  0.3632 -0.5118 -0.2648
  966MOL0     O33173   9.186   5.063   6.089  1.1957 -0.3176 -0.3149
  966MOL0     C33174   9.086   4.968   6.094 -0.2927  0.2673 -0.9991
  966MOL0     C33175   9.123   4.840   6.047 -0.3694 -0.4857  0.1210
  966MOL0     C33176   9.037   4.729   6.044 -0.2740 -0.0219  0.3353
  966MOL0     C33177   8.919   4.739   6.103 -0.3348  0.2489  0.2053
  966MOL0     O33178   8.828   4.634   6.111 -0.3991  0.5180  0.1249
  966MOL0     C33179   8.743   4.626   5.996  0.4059 -0.8119  0.9462
  966MOL0     C33180   8.601   4.594   6.048  0.2172 -0.5028 -0.2177
  966MOL0     C33181   8.519   4.551   5.921  0.3049 -0.0499  0.1968
  966MOL0     C33182   8.386   4.498   5.946 -0.1785  0.6887  1.4344
  966MOL0     C33183   8.315   4.462   5.817 -0.1228  0.1631  0.4290
  966MOL0     C33184   8.363   4.346   5.734 -0.2758 -0.1438  1.2538
  966MOL0     C33185   8.271   4.312   5.616  0.0137 -0.3767  1.1371
  966MOL0     C33186   8.340   4.227   5.512 -0.6421 -0.7131  0.2658
  966MOL0     N33187   8.253   4.178   5.410 -0.1931  0.4199 -0.5048
  966MOL0     C33188   8.247   4.235   5.289  1.0295  0.5359 -0.4030
  966MOL0     C33189   8.133   4.189   5.226 -0.3586  0.5001 -0.2827
  966MOL0     C33190   8.094   4.224   5.082 -0.4685  0.2961  0.6162
  966MOL0     C33191   8.051   4.099   5.010  0.6130  0.1721  0.4211
  966MOL0     C33192   8.148   3.990   4.987  0.1119 -1.3116 -0.3208
  966MOL0     C33193   8.069   3.874   4.927  0.0949 -0.2998 -0.3151
  966MOL0     O33194   8.166   3.788   4.853  0.8950  0.1322 -0.4315
  966MOL0     C33195   8.140   3.643   4.845 -0.0457 -1.1195 -0.3732
  966MOL0     C33196   8.243   3.571   4.782 -0.2586  0.2947  0.3234
  966MOL0     C33197   8.233   3.434   4.753  0.0647 -0.0929 -0.5133
  966MOL0     C33198   8.354   3.373   4.688 -0.2622 -0.2102 -0.3855
  966MOL0     C33199   8.122   3.358   4.798  0.5629 -0.2282 -1.0514
  966MOL0     C33200   8.104   3.210   4.783 -0.3504  0.2731 -0.4681
  966MOL0     O33201   8.203   3.132   4.720  0.6554 -0.3786 -0.0301
  966MOL0     C33202   8.172   2.997   4.708  0.5627 -0.8106 -0.1604
  966MOL0     C33203   8.282   2.910   4.723 -0.1503 -0.7211  0.4175
  966MOL0     C33204   8.273   2.774   4.722 -0.5938  0.2890 -0.0197
  966MOL0     C33205   8.147   2.716   4.703 -1.1861 -0.6747  0.1335
  966MOL0     O33206   8.135   2.583   4.710 -0.1740  0.3657  0.5922
  966MOL0     C33207   8.171   2.539   4.580 -0.2246  1.0195 -0.4181
  966MOL0     C33208   8.119   2.397   4.552  0.0398 -1.0487  0.8506
  966MOL0     C33209   8.131   2.368   4.401  0.4708  0.6123  0.0334
  966MOL0     C33210   8.261   2.336   4.342 -1.2755 -0.1585 -0.3682
  966MOL0     C33211   8.261   2.243   4.222  0.7341 -0.8415 -0.0639
  966MOL0     C33212   8.396   2.166   4.219  1.2866  0.5076  0.3969
  966MOL0     C33213   8.422   2.130   4.065  0.7277 -0.2353 -0.4050
  966MOL0     C33214   8.564   2.086   4.035  0.3884 -0.0458 -0.1063
  966MOL0    Cl33215   8.612   1.969   4.159  0.1799  0.3532  0.2117
  966MOL0     C33216   8.035   2.798   4.684 -0.0621  0.1021 -0.1511
  966MOL0     C33217   8.056   2.934   4.671  0.8458 -0.0507 -0.6463
  966MOL0     O33218   8.012   3.162   4.842 -0.0728  0.8818  0.3168
  966MOL0     C33219   8.025   3.441   4.859 -0.0453 -0.2690  0.0403
  966MOL0     C33220   8.022   3.586   4.884  0.6123  0.4369  0.1336
  966MOL0     N33221   8.077   4.105   5.322 -0.5765  0.0480  0.6101
  966MOL0     N33222   8.149   4.091   5.427 -0.0064  0.9860 -0.2754
  966MOL0     C33223   8.864   4.867   6.144  0.8453 -0.1055 -0.3600
  966MOL0     C33224   8.954   4.974   6.143  0.5309  0.3101  0.2366
  966MOL0     C33225   9.414   5.136   6.052  0.7968 -0.5226 -0.0347
  966MOL0     C33226   9.383   5.279   6.065 -1.0158  0.0745 -0.5104
  966MOL0     C33227   9.484   5.379   6.023  0.7970  1.0576  1.8610
  966MOL0     C33228   9.606   5.330   5.955 -0.3399 -1.0092  0.7088
  966MOL0     O33229   9.682   5.433   5.894  0.4454 -0.1166 -0.0744
  966MOL0     C33230   9.760   5.402   5.785 -0.2276  1.0908  0.7557
  966MOL0     C33231   9.827   5.526   5.708 -0.1788 -0.6438 -0.0162
  966MOL0     C33232   9.929   5.614   5.786  0.2006 -0.6822 -0.4762
  966MOL0     C33233   9.910   5.765   5.805  0.1610  0.4455  0.6481
  966MOL0     C33234   9.882   5.816   5.677 -0.5500 -0.2953  0.8481
  966MOL0     C33235   9.855   5.861   5.565 -0.8063 -0.3060  0.1205
  966MOL0     C33236   9.634   5.203   5.952  0.7234 -0.3084  0.1364
  966MOL0     C33237   9.539   5.099   5.996 -0.2563 -1.0560  0.0392
  966MOL0     C33238   9.584   4.956   5.989  0.4050  1.0455  0.2133
  966MOL0     H33239   9.220   4.817   6.005  0.4813  0.0821  1.6820
  966MOL0     H33240   9.065   4.643   5.984  1.8674  0.4586  0.5795
  966MOL0     H33241   8.781   4.540   5.941  1.1061 -1.1436  1.9114
  966MOL0     H33242   8.742   4.716   5.934 -2.1288 -0.1943  1.7561
  966MOL0     H33243   8.601   4.520   6.129  0.0750 -0.1354  0.1171
  966MOL0     H33244   8.555   4.684   6.088 -0.9841 -0.0059 -2.4900
  966MOL0     H33245   8.519   4.620   5.836  2.6828 -0.1609  0.0159
  966MOL0     H33246   8.573   4.468   5.872  0.3295 -2.0319  3.2838
  966MOL0     H33247   8.404   4.406   6.003 -2.4383  0.1079  1.3179
  966MOL0     H33248   8.319   4.561   6.005 -4.6883 -1.1079 -1.2706
  966MOL0     H33249   8.303   4.544   5.747 -0.2597  1.5457  1.9999
  966MOL0     H33250   8.211   4.440   5.847  0.1438  0.4141  1.6021
  966MOL0     H33251   8.458   4.386   5.696  0.0603  2.0665  4.0810
  966MOL0     H33252   8.384   4.260   5.799 -2.5373  2.6868  6.2609
  966MOL0     H33253   8.242   4.408   5.572  3.2028  0.6080  0.9741
  966MOL0     H33254   8.181   4.254   5.639 -0.6222  0.8074  1.7640
  966MOL0     H33255   8.420   4.277   5.458  0.7933 -1.3947  1.6552
  966MOL0     H33256   8.390   4.141   5.558  0.8118 -1.2007 -2.0864
  966MOL0     H33257   8.317   4.304   5.242  2.0551 -0.5272 -0.4670
  966MOL0     H33258   8.187   4.260   5.037 -1.8085  1.2017 -1.6100
  966MOL0     H33259   8.016   4.301   5.082 -0.1934  0.6352  2.9136
  966MOL0     H33260   7.968   4.050   5.062 -0.4502  0.6416 -0.7688
  966MOL0     H33261   8.013   4.133   4.913 -1.1549 -0.8521  0.7025
  966MOL0     H33262   8.216   4.035   4.914 -2.5486  0.8143 -1.6429
  966MOL0     H33263   8.199   3.957   5.079 -1.7064  1.5592  1.8710
  966MOL0     H33264   8.010   3.824   5.004 -1.4656  1.7769 -0.0707
  966MOL0     H33265   8.008   3.916   4.846 -0.2405  0.8315  0.4989
  966MOL0     H33266   8.330   3.632   4.759 -2.8200  3.8403 -0.9716
  966MOL0     H33267   8.387   3.303   4.766 -0.6286 -0.0815 -0.1149
  966MOL0     H33268   8.438   3.440   4.668  0.5072 -1.3513 -1.1472
  966MOL0     H33269   8.321   3.316   4.601 -0.7241 -0.4468 -0.0581
  966MOL0     H33270   8.380   2.955   4.721 -1.0765  1.4170 -1.5484
  966MOL0     H33271   8.366   2.718   4.732 -1.7317 -1.8999 -0.9411
  966MOL0     H33272   8.122   2.603   4.506 -0.9028  0.5756 -0.3550
  966MOL0     H33273   8.278   2.525   4.560 -1.1047 -3.8570 -3.2198
  966MOL0     H33274   8.163   2.317   4.612  0.1247 -0.8215  1.0918
  966MOL0     H33275   8.011   2.392   4.572 -0.2904 -1.0972 -0.7774
  966MOL0     H33276   8.087   2.448   4.340  0.2468  0.3526 -0.1434
  966MOL0     H33277   8.078   2.273   4.397 -1.0678  1.0468  4.2909
  966MOL0     H33278   8.318   2.288   4.423  0.5463  1.2733 -0.7255
  966MOL0     H33279   8.330   2.418   4.321  2.7318 -2.5728  1.9283
  966MOL0     H33280   8.187   2.162   4.226 -0.3381  0.0534 -1.0163
  966MOL0     H33281   8.239   2.305   4.135  0.2015  2.6231  2.3711
  966MOL0     H33282   8.400   2.079   4.285 -0.0742 -0.8646 -1.2459
  966MOL0     H33283   8.476   2.237   4.243  2.7707 -1.5742  1.9900
  966MOL0     H33284   8.403   2.211   3.995 -1.4575 -0.2261  0.1215
  966MOL0     H33285   8.355   2.049   4.035  0.3477  0.6210 -1.9266
  966MOL0     H33286   8.632   2.171   4.024 -0.1619  0.1948 -1.8632
  966MOL0     H33287   8.568   2.034   3.939 -2.8197  1.2642 -1.1003
  966MOL0     H33288   7.932   2.766   4.670 -1.0667  1.2827  3.5138
  966MOL0     H33289   7.971   2.995   4.645 -0.8703 -2.5617 -1.2443
  966MOL0     H33290   7.955   3.384   4.919  1.4311 -1.3877  0.7478
  966MOL0     H33291   7.937   3.614   4.944 -1.6461 -3.1506 -1.0562
  966MOL0     H33292   8.765   4.871   6.188  1.1226  1.4396  0.2135
  966MOL0     H33293   8.917   5.072   6.170 -2.6697 -1.1515  1.6495
  966MOL0     H33294   9.302   5.321   6.123 -1.6068 -2.4533  0.6251
  966MOL0     H33295   9.453   5.482   6.036 -0.7603  1.3292 -2.3908
  966MOL0     H33296   9.820   5.313   5.806  0.5078  1.6087  0.8939
  966MOL0     H33297   9.693   5.361   5.710  1.1321 -2.4506  1.3140
  966MOL0     H33298   9.740   5.589   5.687  1.2566  1.1298 -1.0103
  966MOL0     H33299   9.872   5.487   5.617  0.4241 -1.5223  0.6357
  966MOL0     H33300   9.920   5.569   5.885 -1.5436  1.2482  0.3203
  966MOL0     H33301  10.029   5.597   5.747 -1.0867 -3.8550 -2.7797
  966MOL0     H33302  10.005   5.806   5.840  1.8489  0.6707 -3.5436
  966MOL0     H33303   9.839   5.789   5.884 -1.5469 -0.8934 -0.4015
  966MOL0     H33304   9.814   5.888   5.470 -0.6295 -0.6611 -0.0581
  966MOL0     H33305   9.725   5.157   5.912  0.1899  2.3597 -5.1181
  966MOL0     H33306   9.634   4.923   6.081 -1.6961 -1.4068  0.5828
  966MOL0     H33307   9.496   4.892   5.986  2.2696 -1.7634  0.8154
  966MOL0     H33308   9.653   4.929   5.908  0.6713 -3.6979  1.6968
  967MOL0     O33309   3.842   3.138   6.647 -0.3359 -0.1814 -0.3740
  967MOL0     C33310   3.811   3.251   6.628  0.4007  0.3333 -0.9635
  967MOL0     O33311   3.739   3.335   6.710  0.0183 -0.4027 -0.3200
  967MOL0     C33312   3.754   3.309   6.844 -0.3195 -0.0773 -0.8002
  967MOL0     C33313   3.645   3.308   6.922  0.4670 -0.9667  1.3393
  967MOL0     C33314   3.655   3.271   7.059 -0.2551  0.2944 -0.2110
  967MOL0     C33315   3.789   3.252   7.119  0.6709 -0.3583  0.8665
  967MOL0     O33316   3.799   3.214   7.250 -1.3159  0.1323 -0.1910
  967MOL0     C33317   3.696   3.140   7.319 -0.0523 -0.1291 -0.6871
  967MOL0     C33318   3.730   3.109   7.466 -0.3014 -0.1844 -1.3439
  967MOL0     C33319   3.692   3.221   7.572 -1.5770  0.1133  0.6181
  967MOL0     C33320   3.774   3.207   7.700 -0.2780 -0.1388  0.1981
  967MOL0     C33321   3.718   3.106   7.797  0.2202  0.4486 -0.3780
  967MOL0     C33322   3.788   3.107   7.927 -0.2092 -0.1099 -0.0329
  967MOL0     C33323   3.729   3.208   8.027  0.2650  0.2682  0.0237
  967MOL0     C33324   3.809   3.217   8.154 -0.3216  0.2476 -0.1033
  967MOL0     N33325   3.759   3.304   8.256 -0.0429  0.2565 -0.0812
  967MOL0     C33326   3.723   3.433   8.220  0.4216  1.0214  0.2010
  967MOL0     C33327   3.646   3.481   8.322 -0.2550  0.3079  1.0363
  967MOL0     C33328   3.575   3.609   8.324 -0.5843 -0.0323 -0.4170
  967MOL0     C33329   3.479   3.643   8.439  0.2915  0.4583 -0.5160
  967MOL0     C33330   3.494   3.788   8.479  0.3699  0.0406 -0.8163
  967MOL0     C33331   3.405   3.823   8.604 -0.0484  0.2962 -0.0048
  967MOL0     O33332   3.278   3.863   8.544 -0.2040  0.3803 -0.6956
  967MOL0     C33333   3.167   3.855   8.622  0.7188  0.4599 -1.3478
  967MOL0     C33334   3.043   3.888   8.566  0.4007 -0.5133  0.0346
  967MOL0     C33335   2.919   3.889   8.642  0.0211 -0.7301  0.4364
  967MOL0     C33336   2.798   3.944   8.570 -0.3141 -0.2075 -0.5564
  967MOL0     C33337   2.925   3.859   8.782  1.1123  0.4517  0.5442
  967MOL0     C33338   2.813   3.862   8.882  0.3913 -0.0923  0.1749
  967MOL0     O33339   2.716   3.955   8.866  1.0776 -0.1203  0.2581
  967MOL0     C33340   2.680   4.012   8.982  0.5199  0.1245  0.6077
  967MOL0     C33341   2.551   3.979   9.033 -0.4464 -0.8970  0.5041
  967MOL0     C33342   2.504   4.038   9.154 -0.4455 -0.7894  0.5687
  967MOL0     C33343   2.578   4.153   9.216  0.3118 -0.2176 -0.3938
  967MOL0     O33344   2.539   4.231   9.329  0.0288 -0.2690  0.2566
  967MOL0     C33345   2.402   4.231   9.368 -0.3165 -0.4581 -0.2158
  967MOL0     C33346   2.373   4.300   9.507  0.0114 -0.2723  0.9531
  967MOL0     C33347   2.424   4.437   9.518 -0.2961 -0.0104 -0.2485
  967MOL0     C33348   2.381   4.504   9.648 -0.1439  0.8695 -0.4172
  967MOL0     C33349   2.462   4.631   9.673 -0.1400  0.6774 -0.7637
  967MOL0     C33350   2.428   4.712   9.799  0.4374 -0.0973  0.3687
  967MOL0     C33351   2.289   4.766   9.788 -0.3939 -0.2958  0.6305
  967MOL0     C33352   2.264   4.853   9.914 -0.2649 -0.0923 -0.4791
  967MOL0    Cl33353   2.397   4.972   9.950 -0.2642  0.4020  0.1670
  967MOL0     C33354   2.693   4.196   9.155 -0.3922  0.7110 -1.0849
  967MOL0     C33355   2.743   4.123   9.037  0.9386  0.7559 -0.5144
  967MOL0     O33356   2.833   3.804   8.989 -0.1775  0.4179 -0.5782
  967MOL0     C33357   3.046   3.814   8.830 -0.1167 -0.2108 -0.3196
  967MOL0     C33358   3.165   3.816   8.755  0.5123 -0.2064 -0.0387
  967MOL0     N33359   3.640   3.378   8.416 -0.5199  0.0122 -0.0555
  967MOL0     N33360   3.710   3.277   8.380 -0.3390  0.2125 -1.0518
  967MOL0     C33361   3.902   3.264   7.042  0.1264  0.4108 -0.0316
  967MOL0     C33362   3.884   3.282   6.902  0.7762 -0.3050 -1.1053
  967MOL0     C33363   3.867   3.307   6.500 -0.1645 -0.8751  0.5305
  967MOL0     C33364   3.883   3.223   6.388  0.5614 -0.1245  0.1370
  967MOL0     C33365   3.938   3.265   6.271  0.9368 -0.3773  0.8461
  967MOL0     C33366   3.974   3.395   6.245  0.1776 -0.2930 -0.6941
  967MOL0     O33367   4.037   3.436   6.129  0.1810  0.5054 -0.4064
  967MOL0     C33368   4.178   3.396   6.131 -0.2411  0.6216  0.2897
  967MOL0     C33369   4.238   3.434   5.997  0.5784 -0.0679  1.6642
  967MOL0     C33370   4.374   3.361   5.970 -0.0012  0.0031 -0.5065
  967MOL0     C33371   4.397   3.224   6.042  1.0876  1.0602 -0.3862
  967MOL0     C33372   4.513   3.168   5.986 -0.2062  0.5181 -0.1685
  967MOL0     C33373   4.617   3.127   5.933 -0.8369  0.2371 -1.1749
  967MOL0     C33374   3.953   3.486   6.345  0.8092  1.0596 -0.3306
  967MOL0     C33375   3.901   3.441   6.472  0.7731 -0.1925 -0.4341
  967MOL0     C33376   3.880   3.551   6.579 -0.5451  0.3801  0.5656
  967MOL0     H33377   3.546   3.321   6.881  0.6531 -0.6001  1.0007
  967MOL0     H33378   3.573   3.255   7.129  2.6031 -2.4822  2.8777
  967MOL0     H33379   3.676   3.046   7.266  2.8891 -0.4485 -1.3736
  967MOL0     H33380   3.601   3.194   7.318 -0.7977 -1.3879 -1.2129
  967MOL0     H33381   3.677   3.015   7.487 -2.0754  1.2978  1.3481
  967MOL0     H33382   3.836   3.089   7.484 -0.0044  1.0289 -1.6718
  967MOL0     H33383   3.718   3.321   7.536  0.0072 -0.5151 -0.0754
  967MOL0     H33384   3.585   3.208   7.589 -1.9466 -1.5421 -2.2860
  967MOL0     H33385   3.882   3.190   7.690  0.4639  0.5431  4.9207
  967MOL0     H33386   3.763   3.304   7.749  0.5112  1.3583 -2.3654
  967MOL0     H33387   3.724   3.004   7.758 -0.1044 -0.2134  1.2240
  967MOL0     H33388   3.616   3.143   7.808  0.8732  2.1765  0.2754
  967MOL0     H33389   3.778   3.009   7.974  1.4689  0.9519  2.8314
  967MOL0     H33390   3.895   3.128   7.918 -0.1630 -0.3950 -0.1359
  967MOL0     H33391   3.625   3.182   8.048  1.0230 -1.1305  2.3628
  967MOL0     H33392   3.735   3.300   7.968 -2.6610  1.7930  1.8693
  967MOL0     H33393   3.830   3.118   8.198  1.9447  0.8786  0.3956
  967MOL0     H33394   3.907   3.255   8.124  0.0105 -0.8708 -0.5172
  967MOL0     H33395   3.737   3.478   8.123  1.6998  0.8371  0.2749
  967MOL0     H33396   3.512   3.613   8.234 -2.6814  0.9756  1.0268
  967MOL0     H33397   3.647   3.691   8.319  0.1798 -0.5661  1.2035
  967MOL0     H33398   3.375   3.620   8.414 -2.0936  4.0321  4.4630
  967MOL0     H33399   3.517   3.573   8.515  0.5665  1.8009  0.6217
  967MOL0     H33400   3.600   3.805   8.500 -0.4967  1.6551  3.4832
  967MOL0     H33401   3.458   3.851   8.397 -2.9838  0.0731  0.5259
  967MOL0     H33402   3.420   3.741   8.675 -1.3112  0.0552  0.0127
  967MOL0     H33403   3.444   3.911   8.656 -0.0179  0.1182  0.2775
  967MOL0     H33404   3.048   3.932   8.467 -3.6536 -0.9836 -0.5529
  967MOL0     H33405   2.794   3.907   8.468 -2.8320  0.6897 -0.8622
  967MOL0     H33406   2.817   4.052   8.573  1.6345 -0.4741 -1.4662
  967MOL0     H33407   2.704   3.925   8.622 -0.1208 -2.8602 -1.0190
  967MOL0     H33408   2.488   3.905   8.985  1.5001 -2.4495  0.1885
  967MOL0     H33409   2.407   4.006   9.193 -0.2157 -1.4528  0.6060
  967MOL0     H33410   2.350   4.293   9.294 -3.0429 -3.0770 -0.6951
  967MOL0     H33411   2.353   4.134   9.359  0.2311 -0.7409 -0.2213
  967MOL0     H33412   2.265   4.300   9.524 -0.2060 -0.8145 -0.2604
  967MOL0     H33413   2.426   4.234   9.577  1.3670 -1.2886 -0.9305
  967MOL0     H33414   2.388   4.505   9.441  1.7681  2.5401  0.8943
  967MOL0     H33415   2.532   4.431   9.505 -0.2053 -0.5801  0.7242
  967MOL0     H33416   2.389   4.433   9.731  0.6200  0.8275 -0.5188
  967MOL0     H33417   2.277   4.535   9.637 -1.1344 -1.3117  1.7564
  967MOL0     H33418   2.566   4.598   9.678 -0.9985 -2.6993 -2.0054
  967MOL0     H33419   2.455   4.696   9.586  0.9296 -1.5254 -2.6147
  967MOL0     H33420   2.508   4.785   9.802  1.4373 -1.1510  0.0261
  967MOL0     H33421   2.437   4.649   9.888 -1.5750 -2.1867 -0.7781
  967MOL0     H33422   2.218   4.684   9.797 -0.4509 -0.2567  0.5335
  967MOL0     H33423   2.283   4.818   9.692 -0.0539  2.1633  1.8481
  967MOL0     H33424   2.261   4.789  10.003  0.4701 -3.3376 -2.6537
  967MOL0     H33425   2.168   4.904   9.907 -0.7890 -0.7989  1.0066
  967MOL0     H33426   2.756   4.268   9.206  0.7951 -0.5047 -0.7740
  967MOL0     H33427   2.826   4.167   8.984  0.6169  0.5574 -1.1853
  967MOL0     H33428   3.051   3.788   8.935 -1.5391  1.2862  0.1580
  967MOL0     H33429   3.249   3.776   8.810 -0.8810 -2.2045  0.7549
  967MOL0     H33430   4.000   3.259   7.089 -0.0653 -2.3532  0.1864
  967MOL0     H33431   3.976   3.276   6.844  1.9906 -1.0813  0.8106
  967MOL0     H33432   3.840   3.124   6.397 -1.9974  1.0789  2.5227
  967MOL0     H33433   3.963   3.194   6.192 -0.8060 -0.6364  0.4796
  967MOL0     H33434   4.235   3.444   6.211  1.1821 -0.6873  0.1126
  967MOL0     H33435   4.180   3.289   6.156 -0.1976  0.1763 -1.5202
  967MOL0     H33436   4.242   3.543   5.993  3.3305 -0.1079  1.3214
  967MOL0     H33437   4.163   3.396   5.927  3.0553 -0.9308 -0.7161
  967MOL0     H33438   4.379   3.334   5.864 -0.6814  0.0491 -0.5563
  967MOL0     H33439   4.457   3.427   5.994  1.3040 -1.7686  0.0851
  967MOL0     H33440   4.313   3.156   6.023  1.4568  0.1597  1.0598
  967MOL0     H33441   4.410   3.237   6.149 -0.9718 -1.6374  0.2973
  967MOL0     H33442   4.711   3.104   5.888 -1.1997  1.7689 -2.8014
  967MOL0     H33443   3.972   3.593   6.341 -0.6332  1.3549  0.0675
  967MOL0     H33444   3.902   3.510   6.678  5.0791  1.7576  0.2240
  967MOL0     H33445   3.944   3.637   6.556 -0.3541  0.4992  1.5115
  967MOL0     H33446   3.776   3.585   6.577 -0.8803 -0.5028 -2.7852
  968MOL0     O33447   8.313  10.157   3.704 -0.0275  0.0923 -0.0584
  968MOL0     C33448   8.264  10.050   3.668 -0.0852  0.2492 -0.5829
  968MOL0     O33449   8.326   9.964   3.586  0.8728 -0.5600 -0.1118
  968MOL0     C33450   8.455   9.985   3.546 -0.0343 -0.3297  0.3608
  968MOL0     C33451   8.560   9.893   3.574 -0.0746  0.2371  0.1450
  968MOL0     C33452   8.682   9.899   3.506 -0.0463 -0.9414  0.3271
  968MOL0     C33453   8.703  10.012   3.424 -0.6206  0.2866  0.2095
  968MOL0     O33454   8.835  10.021   3.380 -0.6358  0.4618  0.5119
  968MOL0     C33455   8.868  10.107   3.271 -0.4437  0.6424 -0.2145
  968MOL0     C33456   8.940  10.225   3.324 -0.2515 -0.2061  0.0746
  968MOL0     C33457   9.011  10.312   3.219  0.0669 -0.3955 -0.0282
  968MOL0     C33458   8.999  10.451   3.286  0.0813 -0.1969  0.5972
  968MOL0     C33459   9.091  10.548   3.207  0.6999  0.1923  0.3949
  968MOL0     C33460   9.088  10.696   3.266  0.4362 -0.1895  0.7212
  968MOL0     C33461   9.174  10.806   3.195  0.9533  0.0709  0.0028
  968MOL0     C33462   9.107  10.836   3.046  0.4017 -1.1161 -0.4342
  968MOL0     N33463   9.190  10.941   2.974  0.9757  0.8149 -0.4792
  968MOL0     C33464   9.203  10.950   2.837  0.9405  0.6112 -0.4190
  968MOL0     C33465   9.267  11.067   2.818 -0.3470  0.5946 -0.5015
  968MOL0     C33466   9.300  11.121   2.684 -0.0554  0.5996  0.3607
  968MOL0     C33467   9.240  11.258   2.677  0.7047 -0.3160 -0.8340
  968MOL0     C33468   9.265  11.333   2.545 -0.3061 -0.3284  0.2722
  968MOL0     C33469   9.153  11.418   2.488  0.2278  0.1688 -0.3279
  968MOL0     O33470   9.036  11.332   2.456 -0.7867 -0.0218 -0.3994
  968MOL0     C33471   9.028  11.287   2.328  0.5046  0.3365  0.3208
  968MOL0     C33472   9.121  11.305   2.222  0.1746 -0.3331 -0.4990
  968MOL0     C33473   9.093  11.266   2.087 -0.5268  0.2046 -0.5747
  968MOL0     C33474   9.207  11.269   1.987  0.2947 -0.8224 -0.2557
  968MOL0     C33475   8.963  11.207   2.057 -0.0823 -0.3660  0.3736
  968MOL0     C33476   8.928  11.157   1.923 -0.2044  0.5385  0.5562
  968MOL0     O33477   8.830  11.067   1.910 -0.1127 -0.3366  0.2029
  968MOL0     C33478   8.761  11.072   1.791  0.2490  0.5781  0.1673
  968MOL0     C33479   8.787  11.000   1.672 -0.4561  0.4107 -0.1144
  968MOL0     C33480   8.706  11.009   1.556  0.2373  0.5942  0.7909
  968MOL0     C33481   8.590  11.072   1.550 -0.2290 -0.8925  0.3333
  968MOL0     O33482   8.516  11.091   1.439  0.1570  0.1124 -0.8555
  968MOL0     C33483   8.489  10.978   1.345 -0.3445 -0.8134 -0.1183
  968MOL0     C33484   8.467  10.845   1.412  0.0135 -0.0576  0.4727
  968MOL0     C33485   8.353  10.842   1.513  0.4251  1.4178 -0.5717
  968MOL0     C33486   8.336  10.706   1.568 -0.1812 -0.0426 -0.6711
  968MOL0     C33487   8.222  10.684   1.666 -0.9907 -0.2655  0.0344
  968MOL0     C33488   8.210  10.535   1.693 -1.3149 -0.6351 -0.5604
  968MOL0     C33489   8.127  10.504   1.821  1.0905  0.2663 -0.5730
  968MOL0     C33490   8.007  10.415   1.775  0.2360  0.7583 -0.0062
  968MOL0    Cl33491   7.986  10.277   1.898 -0.1150 -0.6185 -0.6244
  968MOL0     C33492   8.556  11.140   1.669 -0.2075  1.2437 -0.2418
  968MOL0     C33493   8.647  11.151   1.782  0.0910  0.3920 -0.5489
  968MOL0     O33494   8.972  11.223   1.827  0.8412  0.1315 -0.7584
  968MOL0     C33495   8.873  11.186   2.162 -0.3361 -0.0718 -2.1111
  968MOL0     C33496   8.909  11.224   2.293  0.8111 -0.6137  0.0805
  968MOL0     N33497   9.314  11.117   2.933  1.2335  0.3938  0.6633
  968MOL0     N33498   9.263  11.042   3.025  0.8199  0.5129 -0.3525
  968MOL0     C33499   8.599  10.104   3.397 -0.0420 -0.9634 -0.1726
  968MOL0     C33500   8.476  10.089   3.456 -0.7180  0.7211 -0.0300
  968MOL0     C33501   8.124  10.002   3.721 -0.5170 -0.3258 -0.2484
  968MOL0     C33502   8.077   9.883   3.677 -0.2993 -0.1697  0.5048
  968MOL0     C33503   7.951   9.841   3.705  0.3994 -0.0884  0.2435
  968MOL0     C33504   7.860   9.921   3.783 -0.1710  0.2518  0.7254
  968MOL0     O33505   7.730   9.898   3.810  0.7764  0.4812  0.0745
  968MOL0     C33506   7.684   9.764   3.806  0.0915  0.7177  0.1815
  968MOL0     C33507   7.534   9.756   3.852  0.2694  0.7228  0.3639
  968MOL0     C33508   7.518   9.771   4.000  0.8020  0.1365 -1.0097
  968MOL0     C33509   7.544   9.640   4.085 -0.1073  0.1245  0.8043
  968MOL0     C33510   7.568   9.651   4.232 -0.2899  0.4674 -0.2596
  968MOL0     C33511   7.584   9.643   4.348  0.1926 -0.6162 -0.4910
  968MOL0     C33512   7.911  10.036   3.827  0.4392  0.2454 -0.6442
  968MOL0     C33513   8.037  10.077   3.802  0.2541 -1.1585  0.6478
  968MOL0     C33514   8.073  10.210   3.849  0.3710  0.0235  0.4906
  968MOL0     H33515   8.541   9.821   3.653  0.8995 -0.4859 -0.2673
  968MOL0     H33516   8.767   9.835   3.526  2.1437  2.2190  2.2169
  968MOL0     H33517   8.785  10.123   3.201  2.3871  0.2777 -3.9450
  968MOL0     H33518   8.937  10.048   3.211 -0.9362  0.8175 -0.9735
  968MOL0     H33519   8.862  10.286   3.371  1.5333  2.6955 -0.4848
  968MOL0     H33520   9.012  10.192   3.400  0.4470  0.9848 -0.0419
  968MOL0     H33521   9.116  10.285   3.229  0.2854  1.1476  2.6790
  968MOL0     H33522   8.966  10.313   3.119 -1.6510 -3.0041  0.5992
  968MOL0     H33523   8.896  10.487   3.277 -0.6587 -1.7544  2.1611
  968MOL0     H33524   9.040  10.451   3.388  0.6086  3.5897  0.5067
  968MOL0     H33525   9.051  10.547   3.105  0.1157  2.1073  0.5757
  968MOL0     H33526   9.193  10.507   3.202  0.4287 -0.5098  0.4848
  968MOL0     H33527   8.982  10.720   3.255  0.6569  0.0600 -1.3034
  968MOL0     H33528   9.138  10.691   3.363  1.2093 -1.7453  0.2923
  968MOL0     H33529   9.277  10.770   3.191  0.7926 -0.8410  2.3934
  968MOL0     H33530   9.157  10.895   3.256  1.7681  0.8626 -0.8844
  968MOL0     H33531   9.111  10.741   2.992 -0.2590 -0.4357 -1.7231
  968MOL0     H33532   9.002  10.862   3.059  0.0723 -2.7272  0.4749
  968MOL0     H33533   9.171  10.876   2.764  2.3592  0.1186 -0.5646
  968MOL0     H33534   9.262  11.044   2.616  2.2605 -2.0455  1.8233
  968MOL0     H33535   9.409  11.124   2.681 -0.0324  0.2139  0.6706
  968MOL0     H33536   9.132  11.238   2.681  0.8003 -0.7093 -0.1915
  968MOL0     H33537   9.269  11.316   2.764 -2.3665  0.6156 -0.2957
  968MOL0     H33538   9.354  11.396   2.549 -0.4082 -0.1447 -0.2639
  968MOL0     H33539   9.300  11.263   2.469  3.1842 -0.9532  2.2625
  968MOL0     H33540   9.121  11.500   2.553 -0.6185  1.6108 -2.4683
  968MOL0     H33541   9.193  11.466   2.398  0.6805  0.1930 -0.1169
  968MOL0     H33542   9.220  11.346   2.242 -0.0194  0.9283 -1.8920
  968MOL0     H33543   9.213  11.169   1.943  1.5410  0.5903 -3.5974
  968MOL0     H33544   9.298  11.302   2.037  2.0234 -1.7685 -2.5827
  968MOL0     H33545   9.180  11.343   1.911  1.9298 -0.4520 -0.5132
  968MOL0     H33546   8.878  10.942   1.661  0.9510  2.7167 -1.3115
  968MOL0     H33547   8.746  10.947   1.477 -1.3234 -1.6924  1.6708
  968MOL0     H33548   8.402  10.990   1.280  0.4946  0.1939 -1.1018
  968MOL0     H33549   8.571  10.977   1.274 -0.9383  0.0374 -0.8385
  968MOL0     H33550   8.454  10.775   1.329  0.3723  0.5692 -0.1206
  968MOL0     H33551   8.550  10.823   1.479 -0.4637  0.9212  1.4016
  968MOL0     H33552   8.252  10.864   1.479  0.2847  3.7892  1.1790
  968MOL0     H33553   8.370  10.918   1.589  2.1881  1.3876 -0.8988
  968MOL0     H33554   8.427  10.664   1.612 -1.4923 -2.7551 -0.3068
  968MOL0     H33555   8.318  10.644   1.479 -1.8374 -1.3933  0.5199
  968MOL0     H33556   8.237  10.737   1.760 -1.1093  0.8750 -0.5715
  968MOL0     H33557   8.131  10.725   1.622  0.4390  3.9612  0.5883
  968MOL0     H33558   8.305  10.482   1.702  0.5323  1.8625 -3.3876
  968MOL0     H33559   8.156  10.501   1.604 -2.3347  0.1840 -0.2808
  968MOL0     H33560   8.095  10.582   1.891  4.3161  0.0456  1.3408
  968MOL0     H33561   8.190  10.436   1.879 -1.6229 -1.6455  0.3549
  968MOL0     H33562   8.026  10.368   1.678 -1.4202 -1.4566  0.6634
  968MOL0     H33563   7.914  10.472   1.772 -0.3515 -0.2390 -1.7502
  968MOL0     H33564   8.470  11.206   1.683  0.2737  1.2230  4.1147
  968MOL0     H33565   8.618  11.209   1.869  1.8881 -0.8960  1.0097
  968MOL0     H33566   8.777  11.135   2.162  0.0841 -1.3222  2.5434
  968MOL0     H33567   8.843  11.199   2.375 -2.4101  2.8033 -1.1905
  968MOL0     H33568   8.631  10.194   3.346  2.4033 -2.4773 -1.4793
  968MOL0     H33569   8.399  10.166   3.451 -2.6640 -1.0836  0.7575
  968MOL0     H33570   8.126   9.828   3.596  1.4124 -0.4834  1.6948
  968MOL0     H33571   7.922   9.748   3.659  1.0295  0.4000 -1.1833
  968MOL0     H33572   7.693   9.726   3.704 -0.2205 -1.2801  0.8398
  968MOL0     H33573   7.748   9.708   3.875  0.5021  1.5472  0.4861
  968MOL0     H33574   7.494   9.661   3.814  1.4654  0.0094  0.8140
  968MOL0     H33575   7.489   9.841   3.800  0.2577 -0.6015 -1.9399
  968MOL0     H33576   7.564   9.859   4.046 -0.7688 -0.1805  1.3192
  968MOL0     H33577   7.410   9.779   4.009  0.6412  2.4973 -3.7762
  968MOL0     H33578   7.629   9.590   4.037 -1.3332  1.4145 -2.9972
  968MOL0     H33579   7.471   9.560   4.069  2.3462 -1.8778 -1.3042
  968MOL0     H33580   7.593   9.652   4.454  4.2536  3.5449 -0.8623
  968MOL0     H33581   7.848  10.090   3.897 -0.1839 -2.8778  1.4330
  968MOL0     H33582   8.129  10.268   3.775  0.8785  0.3755  1.1387
  968MOL0     H33583   7.976  10.254   3.871  0.4186 -0.3148  1.4095
  968MOL0     H33584   8.134  10.207   3.940  0.2081  1.6991  0.6698
  969MOL0     O33585   6.386  11.148   3.224  0.7433 -0.6845 -0.0508
  969MOL0     C33586   6.297  11.229   3.262  0.0237 -0.2982 -0.8903
  969MOL0     O33587   6.313  11.368   3.255 -0.4571 -1.1449  0.2496
  969MOL0     C33588   6.446  11.412   3.221 -0.2659  0.0201 -0.2221
  969MOL0     C33589   6.531  11.461   3.322 -0.2491  0.8342  0.6053
  969MOL0     C33590   6.663  11.507   3.290 -0.3681 -0.2416 -0.9196
  969MOL0     C33591   6.712  11.504   3.159  0.4705  0.2968 -0.4576
  969MOL0     O33592   6.847  11.538   3.147  0.0206  1.1969  0.2690
  969MOL0     C33593   6.925  11.517   3.028 -0.3426 -0.7253  0.7432
  969MOL0     C33594   6.892  11.628   2.941 -0.7394  0.6901  0.1957
  969MOL0     C33595   6.938  11.607   2.800  0.3927  1.1136  0.4435
  969MOL0     C33596   6.880  11.721   2.709 -0.1449  0.5997 -0.2955
  969MOL0     C33597   6.962  11.718   2.583 -1.4660  0.3694  0.2864
  969MOL0     C33598   6.883  11.779   2.475  0.0973 -0.3617  0.2340
  969MOL0     C33599   6.967  11.804   2.353  0.1135 -0.2155 -0.2711
  969MOL0     C33600   6.877  11.861   2.244 -0.8179 -0.7851  0.8232
  969MOL0     N33601   6.950  11.916   2.126 -0.3809  1.6602  0.0073
  969MOL0     C33602   7.029  11.840   2.036  1.5777 -1.0577 -0.0685
  969MOL0     C33603   7.066  11.939   1.951 -0.6227 -0.3772  0.3246
  969MOL0     C33604   7.159  11.921   1.826  0.8294 -0.3713 -0.7647
  969MOL0     C33605   7.077  11.919   1.697  0.2491  0.5816 -0.2615
  969MOL0     C33606   6.970  11.799   1.693  0.1697  0.6466  0.1539
  969MOL0     C33607   7.023  11.662   1.735 -1.8558 -0.3220 -0.1432
  969MOL0     O33608   7.146  11.629   1.657 -0.0854 -0.5915 -0.2072
  969MOL0     C33609   7.181  11.499   1.675  0.1369 -0.2332  0.3258
  969MOL0     C33610   7.117  11.394   1.619  0.4553  0.4478  0.0969
  969MOL0     C33611   7.136  11.259   1.649 -0.3088  0.2790 -0.4480
  969MOL0     C33612   7.065  11.153   1.572 -0.6910 -0.0233 -0.5583
  969MOL0     C33613   7.218  11.225   1.761 -1.3924  0.5919 -0.1505
  969MOL0     C33614   7.231  11.093   1.814 -1.1058  0.0865 -0.4523
  969MOL0     O33615   7.112  11.037   1.831  0.4027 -0.1452  0.8072
  969MOL0     C33616   7.108  10.907   1.877  0.4305  0.0479  0.5081
  969MOL0     C33617   7.090  10.891   2.014  0.2035 -0.0434  0.2209
  969MOL0     C33618   7.073  10.760   2.067  0.4432 -0.4529  0.1427
  969MOL0     C33619   7.074  10.647   1.981  0.9319  0.0545 -0.1799
  969MOL0     O33620   7.057  10.515   2.027 -1.0703 -0.0856  0.1411
  969MOL0     C33621   6.959  10.485   2.134  0.0401  0.7597 -0.0859
  969MOL0     C33622   6.882  10.365   2.087 -0.3196 -0.1761  0.1390
  969MOL0     C33623   6.775  10.316   2.196 -0.3924 -0.1680  0.6896
  969MOL0     C33624   6.819  10.189   2.262 -0.2705  0.2006  0.2052
  969MOL0     C33625   6.753  10.178   2.394  0.3019  0.3587 -0.2061
  969MOL0     C33626   6.812  10.056   2.471  0.6236 -0.1741  0.9415
  969MOL0     C33627   6.724  10.016   2.585 -0.0291  0.6203 -0.2381
  969MOL0     C33628   6.780   9.891   2.650 -0.2884  0.4310 -0.1901
  969MOL0    Cl33629   6.687   9.837   2.776  0.0314  0.2746 -0.3090
  969MOL0     C33630   7.080  10.670   1.841 -0.4001 -0.2526  0.1964
  969MOL0     C33631   7.103  10.796   1.789  0.1749  0.1020  0.1308
  969MOL0     O33632   7.340  11.064   1.878 -0.1531 -0.0105  0.1820
  969MOL0     C33633   7.288  11.330   1.826 -1.1964 -0.7177 -0.6670
  969MOL0     C33634   7.269  11.464   1.784  0.5904  0.7870  0.3659
  969MOL0     N33635   7.004  12.060   1.983 -0.2168  0.6431  0.1555
  969MOL0     N33636   6.946  12.045   2.097  0.1365 -0.1404  1.2210
  969MOL0     C33637   6.624  11.458   3.062 -1.3663  1.5415 -0.7238
  969MOL0     C33638   6.499  11.411   3.090 -0.4036 -0.1549  0.3771
  969MOL0     C33639   6.172  11.181   3.333 -1.0142 -0.0052 -0.3812
  969MOL0     C33640   6.071  11.282   3.368 -0.3949  0.6790  0.0630
  969MOL0     C33641   5.955  11.240   3.432 -0.2220 -1.5921 -0.0111
  969MOL0     C33642   5.926  11.105   3.458 -0.0499 -0.0724  0.0754
  969MOL0     O33643   5.815  11.068   3.518  0.4733  0.1757 -0.0819
  969MOL0     C33644   5.691  11.133   3.487  0.5081 -0.1177  0.7869
  969MOL0     C33645   5.571  11.051   3.539 -0.0119 -0.0818 -0.0434
  969MOL0     C33646   5.434  11.108   3.502  0.0478 -0.9484 -0.3072
  969MOL0     C33647   5.313  11.039   3.555 -0.8700  0.9087  0.1947
  969MOL0     C33648   5.184  11.096   3.510 -0.4337 -0.7567 -0.8302
  969MOL0     C33649   5.077  11.136   3.476  0.4310  0.2054  0.2886
  969MOL0     C33650   6.015  11.013   3.414  0.1870 -0.0386  0.2312
  969MOL0     C33651   6.134  11.045   3.347  0.2436  0.0766 -0.4588
  969MOL0     C33652   6.214  10.928   3.296  0.3262 -0.3574 -0.0159
  969MOL0     H33653   6.498  11.453   3.425 -4.2103 -0.9912 -0.6118
  969MOL0     H33654   6.736  11.539   3.363  2.3403 -1.6068 -2.8675
  969MOL0     H33655   6.917  11.419   2.981  0.7278  0.7873 -2.8871
  969MOL0     H33656   7.030  11.520   3.060 -0.3407 -1.1042  0.7742
  969MOL0     H33657   6.783  11.633   2.936 -0.7462 -0.2909 -1.2715
  969MOL0     H33658   6.930  11.727   2.968 -0.0348  0.9801 -1.7036
  969MOL0     H33659   7.046  11.601   2.785  0.3815  1.9013  0.0087
  969MOL0     H33660   6.886  11.519   2.760  0.2099  1.7185 -0.6926
  969MOL0     H33661   6.772  11.707   2.692 -0.1190  2.1768 -2.1423
  969MOL0     H33662   6.896  11.817   2.757  0.1515  1.7482 -2.5961
  969MOL0     H33663   6.981  11.613   2.557 -2.1164  0.7564 -1.8890
  969MOL0     H33664   7.058  11.766   2.603 -0.2180 -2.5249  1.8889
  969MOL0     H33665   6.793  11.728   2.440 -0.5716  1.7286 -1.3259
  969MOL0     H33666   6.847  11.875   2.514 -0.0308 -1.5635  3.2836
  969MOL0     H33667   7.022  11.717   2.315  1.9157  0.9618 -0.4408
  969MOL0     H33668   7.036  11.887   2.368  1.8976 -0.3284 -5.7828
  969MOL0     H33669   6.815  11.776   2.212 -0.9909 -2.1922  4.4112
  969MOL0     H33670   6.823  11.941   2.296  0.2684  1.8195 -1.7805
  969MOL0     H33671   7.033  11.733   2.022  0.1993 -0.7703 -4.4012
  969MOL0     H33672   7.216  11.828   1.841 -0.7194 -0.9293  2.6400
  969MOL0     H33673   7.228  12.006   1.830 -1.0485  1.2072 -0.6281
  969MOL0     H33674   7.022  12.011   1.675  0.6587  0.3651 -2.3810
  969MOL0     H33675   7.151  11.913   1.617 -0.9016  3.0581 -1.6314
  969MOL0     H33676   6.885  11.814   1.759  0.3740 -1.7302  1.0757
  969MOL0     H33677   6.921  11.787   1.596  1.9898 -0.5414 -0.6826
  969MOL0     H33678   7.068  11.670   1.834  1.9924 -0.6950 -1.6992
  969MOL0     H33679   6.948  11.582   1.736 -1.4424 -0.7472  1.8097
  969MOL0     H33680   7.042  11.425   1.547 -0.0354  1.6099  1.0784
  969MOL0     H33681   7.107  11.053   1.579  0.4651  0.5226  0.6301
  969MOL0     H33682   7.045  11.180   1.468 -0.3129 -2.0916 -1.1990
  969MOL0     H33683   6.960  11.139   1.600 -0.4227 -1.7237 -0.3245
  969MOL0     H33684   7.089  10.980   2.076  2.3593  0.3966 -0.3037
  969MOL0     H33685   7.070  10.763   2.175 -2.3628  2.0141  0.1400
  969MOL0     H33686   6.987  10.458   2.236 -0.8935  1.7077  0.4505
  969MOL0     H33687   6.884  10.564   2.151  1.1747  1.5378  1.6598
  969MOL0     H33688   6.840  10.385   1.988  0.1843 -0.4654 -0.1374
  969MOL0     H33689   6.956  10.289   2.060  2.3456  3.0630 -2.6630
  969MOL0     H33690   6.681  10.292   2.146 -0.9498  0.5003  1.3896
  969MOL0     H33691   6.742  10.396   2.263 -0.9840 -0.9036  1.2960
  969MOL0     H33692   6.926  10.171   2.277 -0.9261 -3.6531  1.3005
  969MOL0     H33693   6.783  10.106   2.201 -2.1164  2.1883 -1.5780
  969MOL0     H33694   6.781  10.270   2.447  3.8166 -0.5244 -0.2922
  969MOL0     H33695   6.647  10.153   2.396  0.5886 -0.9015  0.7612
  969MOL0     H33696   6.914  10.080   2.502  0.6315 -1.3597  1.8866
  969MOL0     H33697   6.824   9.962   2.418  2.8207  0.6040 -0.0516
  969MOL0     H33698   6.626   9.987   2.546 -0.1946  1.2052 -0.2672
  969MOL0     H33699   6.698  10.090   2.661  0.0169 -2.3464  2.9468
  969MOL0     H33700   6.882   9.919   2.680  0.1040 -1.2647  0.1590
  969MOL0     H33701   6.789   9.811   2.577  0.4849  0.1382  0.2102
  969MOL0     H33702   7.067  10.580   1.782 -1.2013 -0.9762  1.4097
  969MOL0     H33703   7.111  10.812   1.682  1.0271 -0.1065  0.1519
  969MOL0     H33704   7.340  11.305   1.918 -3.8263 -2.8860  0.4072
  969MOL0     H33705   7.302  11.548   1.844  0.3893  1.5826 -0.6176
  969MOL0     H33706   6.658  11.449   2.960  2.0444  2.9473  0.1542
  969MOL0     H33707   6.432  11.371   3.015  0.7748 -1.7643  0.1397
  969MOL0     H33708   6.096  11.384   3.341  0.1567  0.1944 -1.3595
  969MOL0     H33709   5.880  11.313   3.460  0.1478 -1.6911  1.2766
  969MOL0     H33710   5.680  11.233   3.529  1.7618  0.5971 -0.4813
  969MOL0     H33711   5.674  11.136   3.379 -2.2891 -0.4213  1.1509
  969MOL0     H33712   5.577  11.035   3.647  0.6970 -1.3579 -0.2434
  969MOL0     H33713   5.576  10.949   3.499 -0.0823 -0.7508  1.5950
  969MOL0     H33714   5.428  11.210   3.541  4.3031  0.1318 -1.9433
  969MOL0     H33715   5.431  11.105   3.392 -0.8646 -3.5629 -0.3042
  969MOL0     H33716   5.318  11.030   3.664 -1.9320  2.1383  0.3657
  969MOL0     H33717   5.303  10.937   3.516 -2.9950  1.4253 -0.7223
  969MOL0     H33718   4.985  11.181   3.445  0.4528  0.1399  0.1268
  969MOL0     H33719   5.999  10.908   3.435  3.8775 -0.7840 -0.0719
  969MOL0     H33720   6.308  10.915   3.350 -0.0731  0.7152  1.0053
  969MOL0     H33721   6.158  10.834   3.287  1.0101 -1.0753  2.3345
  969MOL0     H33722   6.239  10.961   3.195  0.3891 -2.2354 -0.6391
  970MOL0     O33723   3.418   6.689   9.641  0.2736 -0.6329 -0.1590
  970MOL0     C33724   3.383   6.769   9.560  1.4181 -0.5912  0.0006
  970MOL0     O33725   3.464   6.863   9.499 -0.2870 -0.9776  0.2274
  970MOL0     C33726   3.594   6.868   9.527 -0.8406 -0.2546  0.6949
  970MOL0     C33727   3.671   6.751   9.515 -0.2452 -0.6756 -0.5950
  970MOL0     C33728   3.805   6.752   9.557  0.0746 -0.2948  0.5063
  970MOL0     C33729   3.863   6.852   9.634  0.2629 -0.6914  0.8897
  970MOL0     O33730   3.977   6.826   9.701  0.0784 -0.5622  0.1676
  970MOL0     C33731   4.087   6.857   9.607 -0.3982 -0.3058 -0.0531
  970MOL0     C33732   4.223   6.807   9.668  1.2625  1.3603 -1.3794
  970MOL0     C33733   4.329   6.806   9.563 -0.6332  0.4329 -0.4098
  970MOL0     C33734   4.472   6.824   9.624  1.0244 -0.4409  0.5295
  970MOL0     C33735   4.509   6.723   9.740  0.2287  0.6180 -0.4389
  970MOL0     C33736   4.515   6.584   9.699 -0.1017  0.2623  0.0594
  970MOL0     C33737   4.554   6.499   9.825 -0.6714  0.1084 -0.4820
  970MOL0     C33738   4.571   6.354   9.791  0.6511  0.3746  0.4847
  970MOL0     N33739   4.716   6.317   9.779 -0.3437  0.0332 -1.1624
  970MOL0     C33740   4.784   6.259   9.882  0.2052 -0.7080  0.9848
  970MOL0     C33741   4.891   6.199   9.829 -0.0100 -0.0140 -0.3123
  970MOL0     C33742   5.001   6.124   9.909 -0.2695  0.4483 -0.4105
  970MOL0     C33743   5.079   6.021   9.825 -0.3858 -0.4311  0.4685
  970MOL0     C33744   4.998   5.910   9.771 -0.1535  0.2428 -0.4379
  970MOL0     C33745   5.085   5.833   9.673  0.6104 -0.2151  0.1907
  970MOL0     O33746   5.181   5.747   9.732  0.2930  0.0850  0.1942
  970MOL0     C33747   5.253   5.676   9.641 -0.8600 -0.0148 -0.3185
  970MOL0     C33748   5.233   5.540   9.622 -0.6145  0.1631 -0.2329
  970MOL0     C33749   5.308   5.462   9.530 -1.0456  0.3500  0.4760
  970MOL0     C33750   5.281   5.319   9.505  0.6368  0.7209 -0.0384
  970MOL0     C33751   5.410   5.529   9.453  0.7294 -1.1373 -0.0363
  970MOL0     C33752   5.496   5.475   9.349  0.6208  0.7828  0.4640
  970MOL0     O33753   5.573   5.564   9.278  0.4943  0.0076  0.1902
  970MOL0     C33754   5.663   5.514   9.181 -0.0324 -0.5108 -0.9581
  970MOL0     C33755   5.638   5.425   9.081  0.8730 -0.1133  0.5984
  970MOL0     C33756   5.751   5.375   9.004  0.3393  0.1292 -0.3662
  970MOL0     C33757   5.883   5.427   9.034 -0.4113  0.0573 -0.3586
  970MOL0     O33758   5.982   5.388   8.950 -0.0410 -0.0257  0.0907
  970MOL0     C33759   6.049   5.494   8.875 -0.0275  0.4631 -1.0190
  970MOL0     C33760   6.191   5.525   8.920 -0.4665 -1.5626  0.0062
  970MOL0     C33761   6.258   5.646   8.848  0.9096  0.0257 -1.0512
  970MOL0     C33762   6.404   5.655   8.889 -0.0066 -0.6254  0.3119
  970MOL0     C33763   6.472   5.800   8.865  0.2270  0.4511 -1.0276
  970MOL0     C33764   6.591   5.824   8.959  0.0859  0.0649  0.2518
  970MOL0     C33765   6.550   5.856   9.107 -0.3209  0.0030 -0.4909
  970MOL0     C33766   6.659   5.905   9.200  0.4028  0.4679  0.9433
  970MOL0    Cl33767   6.794   5.771   9.194 -0.8008  0.3837 -0.1302
  970MOL0     C33768   5.904   5.513   9.134  0.4814  0.4208 -0.3017
  970MOL0     C33769   5.797   5.556   9.206  0.3051  0.7817  0.1472
  970MOL0     O33770   5.508   5.352   9.338  0.2132  0.4052 -0.0632
  970MOL0     C33771   5.423   5.669   9.475  0.6413  0.0105  0.0033
  970MOL0     C33772   5.349   5.742   9.569 -0.5973  0.2839  0.2560
  970MOL0     N33773   4.894   6.221   9.691  0.4549  0.0565  0.7871
  970MOL0     N33774   4.783   6.284   9.664  0.2339  0.2682  0.0843
  970MOL0     C33775   3.787   6.969   9.641  0.1959  0.4619  0.6037
  970MOL0     C33776   3.653   6.979   9.587 -0.8250  0.6488 -0.2002
  970MOL0     C33777   3.237   6.766   9.521  1.1105  0.6430 -0.1643
  970MOL0     C33778   3.193   6.833   9.404 -0.1608  0.5718 -0.3071
  970MOL0     C33779   3.075   6.806   9.333 -0.8560 -1.4793 -0.6656
  970MOL0     C33780   2.995   6.708   9.372  0.3364 -0.2090  0.9305
  970MOL0     O33781   2.883   6.676   9.303 -0.1796  0.0304 -0.0231
  970MOL0     C33782   2.872   6.693   9.161  1.1151 -1.1797  1.0385
  970MOL0     C33783   2.989   6.613   9.088  0.0378 -0.0437  0.5257
  970MOL0     C33784   2.992   6.630   8.933 -0.0219 -0.7326  0.1967
  970MOL0     C33785   3.003   6.784   8.895 -0.0661 -0.2472  1.6170
  970MOL0     C33786   2.878   6.838   8.845  0.9230  0.2702 -0.8293
  970MOL0     C33787   2.771   6.883   8.844 -0.0506 -0.6530 -0.2166
  970MOL0     C33788   3.014   6.659   9.500 -0.5314  0.2295 -0.9817
  970MOL0     C33789   3.135   6.682   9.576 -0.7453 -1.1641  0.2222
  970MOL0     C33790   3.142   6.598   9.703 -0.0038  0.1811  0.4915
  970MOL0     H33791   3.624   6.661   9.477  0.5058 -1.8199  1.0624
  970MOL0     H33792   3.859   6.657   9.557  1.9638  0.6940 -1.3573
  970MOL0     H33793   4.099   6.965   9.603  0.4323 -0.4104 -0.7118
  970MOL0     H33794   4.066   6.825   9.505  2.5103  0.9507 -1.1746
  970MOL0     H33795   4.235   6.880   9.748 -3.5801 -0.6707  1.6261
  970MOL0     H33796   4.207   6.717   9.727 -1.8106  4.4737  3.1927
  970MOL0     H33797   4.335   6.710   9.510 -0.3344 -0.1303  0.6173
  970MOL0     H33798   4.319   6.899   9.507 -1.3392  0.2216 -0.6460
  970MOL0     H33799   4.549   6.826   9.546  1.3185  0.5219  0.8191
  970MOL0     H33800   4.470   6.920   9.677  0.7290 -1.1985  1.9546
  970MOL0     H33801   4.451   6.746   9.830 -0.4468  1.4454 -1.0680
  970MOL0     H33802   4.614   6.747   9.761  0.3879  0.3776 -0.9596
  970MOL0     H33803   4.419   6.551   9.658 -0.1551 -1.8149  1.7025
  970MOL0     H33804   4.580   6.559   9.614 -0.9062 -1.4828 -0.1053
  970MOL0     H33805   4.458   6.509   9.876 -2.5908 -1.3761 -3.4938
  970MOL0     H33806   4.630   6.552   9.883 -1.0149  1.5602 -1.2812
  970MOL0     H33807   4.517   6.295   9.865 -1.6189 -0.0108 -1.3869
  970MOL0     H33808   4.525   6.332   9.694  1.5595 -2.4000  0.5775
  970MOL0     H33809   4.746   6.263   9.983  0.3151  1.1414  0.9929
  970MOL0     H33810   4.965   6.065   9.994  1.1845 -1.3702 -0.9891
  970MOL0     H33811   5.056   6.200   9.966 -0.5162  1.6900 -1.7797
  970MOL0     H33812   5.131   6.086   9.754 -1.1020 -0.2787  0.0765
  970MOL0     H33813   5.162   5.976   9.881  1.8973  0.3268 -2.0974
  970MOL0     H33814   4.956   5.842   9.847 -0.8809  1.0688 -0.0790
  970MOL0     H33815   4.904   5.935   9.720 -2.2480 -2.6562  1.6456
  970MOL0     H33816   5.023   5.773   9.605  0.3726  0.7691 -0.4908
  970MOL0     H33817   5.138   5.905   9.610  1.9030 -1.4432 -0.1713
  970MOL0     H33818   5.165   5.484   9.686  0.6523 -0.7316  0.3847
  970MOL0     H33819   5.247   5.306   9.402 -2.1120 -1.7357  1.0240
  970MOL0     H33820   5.190   5.307   9.565 -0.4432  0.7620 -1.5981
  970MOL0     H33821   5.367   5.258   9.534 -1.6267 -1.7266  2.1249
  970MOL0     H33822   5.535   5.395   9.068  0.7331 -0.2882  1.9544
  970MOL0     H33823   5.723   5.305   8.926  2.8842  0.1951 -1.4256
  970MOL0     H33824   6.060   5.461   8.771  0.3749  2.5824 -1.7038
  970MOL0     H33825   5.978   5.578   8.866  1.0024  1.2102 -2.6993
  970MOL0     H33826   6.192   5.557   9.025 -0.0624 -3.5330  0.6415
  970MOL0     H33827   6.252   5.434   8.919  0.1149 -1.2587  2.0457
  970MOL0     H33828   6.207   5.737   8.879  0.5026 -0.3953 -0.4508
  970MOL0     H33829   6.243   5.636   8.740 -1.4029  2.1954 -1.0195
  970MOL0     H33830   6.458   5.571   8.845 -3.0362 -2.4068 -0.3159
  970MOL0     H33831   6.422   5.648   8.997 -1.0207  0.1048  0.5428
  970MOL0     H33832   6.496   5.812   8.759  0.8516  0.2058 -0.9176
  970MOL0     H33833   6.404   5.882   8.890  0.6801  0.1410  1.5131
  970MOL0     H33834   6.636   5.918   8.927  2.0360 -1.0081 -0.3566
  970MOL0     H33835   6.669   5.747   8.948  0.2460  0.0788  1.1755
  970MOL0     H33836   6.503   5.763   9.137  1.1563 -1.7498 -3.1339
  970MOL0     H33837   6.475   5.936   9.110  0.6945  1.0735 -1.7943
  970MOL0     H33838   6.620   5.908   9.302  1.2722 -2.8520  1.4970
  970MOL0     H33839   6.696   6.004   9.172 -2.1812  0.8853 -1.4952
  970MOL0     H33840   5.990   5.574   9.158 -0.3932  0.5242  2.9307
  970MOL0     H33841   5.821   5.608   9.298  1.1332 -2.0573  1.6662
  970MOL0     H33842   5.492   5.732   9.419 -0.0806  0.8244  0.0029
  970MOL0     H33843   5.367   5.849   9.574 -1.6682  0.8859 -4.4416
  970MOL0     H33844   3.831   7.049   9.699 -1.5103  1.5976  0.3834
  970MOL0     H33845   3.600   7.071   9.609  1.7362  1.5675  2.9229
  970MOL0     H33846   3.251   6.911   9.356 -4.3524  2.4368 -2.9699
  970MOL0     H33847   3.059   6.872   9.248 -1.3522  1.8977  1.8304
  970MOL0     H33848   2.774   6.660   9.126  0.5082  2.1136 -0.7897
  970MOL0     H33849   2.878   6.799   9.134 -0.2801 -0.8389  1.9109
  970MOL0     H33850   2.973   6.508   9.116 -2.2608 -0.2271 -1.1882
  970MOL0     H33851   3.086   6.621   9.137  1.4253 -1.2340 -1.8697
  970MOL0     H33852   3.086   6.587   8.895  0.8318  0.6786  0.6275
  970MOL0     H33853   2.912   6.580   8.878 -0.8341 -0.3751  1.0322
  970MOL0     H33854   3.084   6.809   8.826  0.3571 -3.5640  0.7422
  970MOL0     H33855   3.060   6.828   8.977  0.6799  1.5097  0.2230
  970MOL0     H33856   2.674   6.925   8.832  0.2036 -0.3457 -1.2558
  970MOL0     H33857   2.934   6.600   9.542  3.0797 -1.4499  4.6889
  970MOL0     H33858   3.040   6.582   9.737 -0.3359  1.4109  0.0867
  970MOL0     H33859   3.168   6.498   9.667 -1.7326  0.6573 -2.3348
  970MOL0     H33860   3.201   6.643   9.784 -2.1247 -0.4985  2.5231
  971MOL0     O33861   3.717  11.558  10.845 -0.0368 -0.0537 -0.6869
  971MOL0     C33862   3.771  11.614  10.939  0.5996  0.0943 -0.2662
  971MOL0     O33863   3.734  11.593  11.071 -0.4522  0.7091 -0.0295
  971MOL0     C33864   3.631  11.503  11.099 -0.0255 -0.0253 -0.4351
  971MOL0     C33865   3.497  11.547  11.098  0.2036 -0.7117  1.2385
  971MOL0     C33866   3.402  11.454  11.134 -0.0213  0.2087  0.3790
  971MOL0     C33867   3.425  11.326  11.169  0.6920 -0.2744  1.0994
  971MOL0     O33868   3.316  11.252  11.201  0.1343 -0.1547 -0.3207
  971MOL0     C33869   3.338  11.114  11.257  0.8304  0.1359 -0.3013
  971MOL0     C33870   3.199  11.048  11.238 -0.1583 -0.3095  0.3873
  971MOL0     C33871   3.103  11.098  11.337  0.8584 -0.7469 -0.5096
  971MOL0     C33872   3.113  11.014  11.463 -0.3006 -0.3244 -0.2520
  971MOL0     C33873   3.028  11.063  11.583 -0.5313 -0.1172 -0.8006
  971MOL0     C33874   3.083  11.198  11.635  0.1352  0.1977  0.0866
  971MOL0     C33875   3.032  11.234  11.770  1.4921  1.1174 -0.2532
  971MOL0     C33876   3.056  11.372  11.821 -0.0907  0.3292  0.0761
  971MOL0     N33877   3.036  11.362  11.962 -1.0965  0.0199 -0.1909
  971MOL0     C33878   2.915  11.390  12.020  0.6832 -0.9136 -1.0468
  971MOL0     C33879   2.931  11.362  12.151  0.2254 -0.3051  0.0404
  971MOL0     C33880   2.819  11.381  12.262  0.0715  0.5298  0.1225
  971MOL0     C33881   2.672  11.383  12.206 -0.1768  0.0402  0.4248
  971MOL0     C33882   2.608  11.258  12.157  0.0375 -0.2522 -0.2638
  971MOL0     C33883   2.472  11.284  12.108 -0.7230  0.2283 -0.4860
  971MOL0     O33884   2.428  11.157  12.057 -0.3206  0.1749  0.1627
  971MOL0     C33885   2.294  11.150  12.027 -0.6851  0.2230 -0.7776
  971MOL0     C33886   2.207  11.258  12.016 -0.1187  0.1785 -0.3095
  971MOL0     C33887   2.070  11.239  12.002  1.5036 -1.1013 -0.5331
  971MOL0     C33888   1.978  11.357  11.992  0.0713 -0.5650  0.2857
  971MOL0     C33889   2.009  11.110  11.999  0.4907 -0.8203  1.1364
  971MOL0     C33890   1.867  11.078  12.006  0.4374  0.0998 -0.0829
  971MOL0     O33891   1.838  10.991  12.101  0.2021 -0.3808 -0.5308
  971MOL0     C33892   1.719  10.933  12.141  0.3566 -0.0869  0.4876
  971MOL0     C33893   1.734  10.856  12.250  0.5850  0.5241 -0.2992
  971MOL0     C33894   1.618  10.792  12.313 -0.5673 -0.5936  0.7510
  971MOL0     C33895   1.488  10.811  12.253  0.0791  0.0091 -0.0098
  971MOL0     O33896   1.375  10.761  12.319 -1.0658  0.5244  0.1438
  971MOL0     C33897   1.327  10.852  12.414 -0.7369  0.1934  1.1412
  971MOL0     C33898   1.204  10.813  12.489 -0.1896 -0.7040  0.0933
  971MOL0     C33899   1.085  10.785  12.397 -0.8036 -0.0924  0.0532
  971MOL0     C33900   0.958  10.769  12.482  0.5681 -0.3924  0.3591
  971MOL0     C33901   0.831  10.749  12.392 -0.0871 -1.2306 -0.4579
  971MOL0     C33902   0.789  10.880  12.330  0.4481 -0.4243  0.2017
  971MOL0     C33903   0.641  10.865  12.270 -0.3620 -0.9053 -0.2277
  971MOL0     C33904   0.600  10.987  12.179  0.9978  0.9937 -0.0738
  971MOL0    Cl33905   0.544  11.113  12.285 -0.3573  0.0865  0.4333
  971MOL0     C33906   1.481  10.883  12.135  0.4163  0.8465  0.0486
  971MOL0     C33907   1.593  10.951  12.078 -0.1325 -0.4303 -0.6612
  971MOL0     O33908   1.794  11.125  11.917  0.7942 -0.9218  0.6404
  971MOL0     C33909   2.103  11.001  12.004  0.0566 -0.3252 -0.3325
  971MOL0     C33910   2.243  11.026  12.017 -0.0238  1.1131 -0.1197
  971MOL0     N33911   3.061  11.314  12.176 -0.3410 -0.3767 -0.0159
  971MOL0     N33912   3.124  11.311  12.059 -0.1890 -1.0672  0.7531
  971MOL0     C33913   3.556  11.284  11.167 -0.7978 -0.2966  0.2983
  971MOL0     C33914   3.660  11.373  11.133 -0.1403  0.7586 -0.7526
  971MOL0     C33915   3.875  11.711  10.906 -0.4457  0.4946 -0.0154
  971MOL0     C33916   3.944  11.690  10.785 -0.9602  0.5344 -0.0560
  971MOL0     C33917   4.058  11.773  10.752 -0.5753  0.6606 -0.2079
  971MOL0     C33918   4.085  11.887  10.820  0.7262  0.1368  0.6355
  971MOL0     O33919   4.190  11.957  10.785  0.0122 -0.1197 -1.0654
  971MOL0     C33920   4.222  12.080  10.856  0.0599  0.6119  0.6675
  971MOL0     C33921   4.298  12.059  10.984 -0.2700  1.3001  0.4039
  971MOL0     C33922   4.258  12.163  11.090  0.2885 -0.1318  0.1638
  971MOL0     C33923   4.276  12.116  11.234  0.2947  0.3718 -0.4313
  971MOL0     C33924   4.189  11.996  11.267 -0.2960 -0.3021  0.3764
  971MOL0     C33925   4.128  11.895  11.282  0.0307 -0.0343  0.3612
  971MOL0     C33926   4.003  11.915  10.930  0.5754  0.7177 -0.7669
  971MOL0     C33927   3.897  11.832  10.979 -0.3740  0.2390  0.4185
  971MOL0     C33928   3.822  11.856  11.105  1.0072  0.4505 -0.2355
  971MOL0     H33929   3.453  11.644  11.078 -1.0744 -1.5389 -0.1114
  971MOL0     H33930   3.296  11.478  11.132 -0.9038 -1.9226  5.4733
  971MOL0     H33931   3.381  11.115  11.358 -1.8502 -0.0749  0.9222
  971MOL0     H33932   3.403  11.053  11.193 -1.1420 -0.3223 -1.9423
  971MOL0     H33933   3.158  11.065  11.138 -0.6670 -0.7158  0.5239
  971MOL0     H33934   3.214  10.939  11.234  1.0248 -0.1255 -3.0642
  971MOL0     H33935   3.126  11.203  11.354 -3.5315  0.0711  1.9518
  971MOL0     H33936   3.005  11.097  11.288  0.5106 -0.5668  0.1740
  971MOL0     H33937   3.089  10.909  11.443 -0.2187 -0.7894  1.8413
  971MOL0     H33938   3.219  11.022  11.484 -0.8034 -0.5431  2.7877
  971MOL0     H33939   3.015  10.988  11.661 -0.2698 -1.3806 -1.9217
  971MOL0     H33940   2.926  11.066  11.543 -0.7522 -3.5400 -0.7777
  971MOL0     H33941   3.192  11.188  11.633  0.1960  0.8323 -0.3172
  971MOL0     H33942   3.049  11.275  11.565 -3.7921 -2.2411 -0.9978
  971MOL0     H33943   3.075  11.160  11.838  0.0732  0.8805  0.4225
  971MOL0     H33944   2.927  11.202  11.762  2.9590 -4.8740 -0.4496
  971MOL0     H33945   3.160  11.404  11.808  1.4620 -2.6967  3.3864
  971MOL0     H33946   2.984  11.440  11.774 -0.8710  1.4275  2.6349
  971MOL0     H33947   2.840  11.456  11.976 -0.6975 -1.3819  0.5385
  971MOL0     H33948   2.838  11.473  12.317  0.1825  1.6733 -1.7612
  971MOL0     H33949   2.839  11.298  12.332  1.6305  1.5629  0.9582
  971MOL0     H33950   2.609  11.429  12.282 -2.1393 -2.0232  0.1605
  971MOL0     H33951   2.676  11.456  12.125  2.5248 -2.7635 -2.2460
  971MOL0     H33952   2.674  11.212  12.083  0.0206  0.1339 -0.5237
  971MOL0     H33953   2.603  11.178  12.232 -3.0873 -0.2276 -0.3382
  971MOL0     H33954   2.407  11.318  12.189  0.7886  0.1863  0.7946
  971MOL0     H33955   2.473  11.359  12.028  0.6830 -0.1861 -0.8995
  971MOL0     H33956   2.249  11.357  12.028  1.0689 -0.1515 -1.4689
  971MOL0     H33957   1.894  11.354  12.063 -1.0409 -1.4644 -1.0123
  971MOL0     H33958   1.942  11.368  11.890  1.9414 -0.0036 -0.3488
  971MOL0     H33959   2.037  11.448  12.008 -0.9460  0.2103 -0.2343
  971MOL0     H33960   1.827  10.832  12.298 -0.9499 -3.2484  1.1382
  971MOL0     H33961   1.621  10.730  12.402 -3.2094 -1.6729  0.1698
  971MOL0     H33962   1.409  10.874  12.483 -0.1199 -2.6589  1.4428
  971MOL0     H33963   1.298  10.943  12.360 -0.0938 -2.3913 -4.1459
  971MOL0     H33964   1.222  10.714  12.533  1.7115 -0.5869 -0.3646
  971MOL0     H33965   1.185  10.889  12.565  0.0013  0.0336 -0.5928
  971MOL0     H33966   1.103  10.696  12.335  1.3398  2.2137 -2.9315
  971MOL0     H33967   1.077  10.876  12.337  1.2026  1.3416  1.8085
  971MOL0     H33968   0.950  10.838  12.566  0.6878 -3.0831  2.7198
  971MOL0     H33969   0.963  10.669  12.524 -1.6788 -1.4943 -1.7202
  971MOL0     H33970   0.847  10.674  12.313  0.5519 -1.7324  0.1343
  971MOL0     H33971   0.751  10.713  12.457  1.0016  0.9258  2.3053
  971MOL0     H33972   0.862  10.902  12.252 -0.0316 -1.7871 -0.6562
  971MOL0     H33973   0.783  10.970  12.392 -2.6863  1.4726 -2.5181
  971MOL0     H33974   0.570  10.856  12.353  1.8196 -0.6753  1.7696
  971MOL0     H33975   0.635  10.764  12.228 -3.8958 -0.2174 -1.7165
  971MOL0     H33976   0.514  10.958  12.118 -0.5880  2.5635  1.3017
  971MOL0     H33977   0.681  11.028  12.119  0.6958  2.0769  0.2424
  971MOL0     H33978   1.385  10.903  12.086  0.3055  1.5096  0.5142
  971MOL0     H33979   1.578  11.008  11.987 -0.3241  1.1791  0.3449
  971MOL0     H33980   2.063  10.901  12.019 -0.9173  0.2703  1.2769
  971MOL0     H33981   2.303  10.936  12.013 -1.0715  0.4327 -1.6371
  971MOL0     H33982   3.576  11.180  11.186  0.4102 -0.3692 -1.1310
  971MOL0     H33983   3.760  11.333  11.120 -1.3324 -2.5515 -0.7368
  971MOL0     H33984   3.929  11.598  10.730 -2.6065  0.6319  0.1874
  971MOL0     H33985   4.118  11.765  10.662 -1.5801  4.4352 -1.4213
  971MOL0     H33986   4.274  12.148  10.787  0.6909 -0.6664 -0.1468
  971MOL0     H33987   4.124  12.127  10.867 -1.1091 -1.0793 -1.7295
  971MOL0     H33988   4.405  12.076  10.972  0.1734 -0.3945  1.5169
  971MOL0     H33989   4.286  11.959  11.028 -0.8436  0.0605 -2.3111
  971MOL0     H33990   4.315  12.255  11.075 -3.3448  1.8541 -3.4321
  971MOL0     H33991   4.155  12.189  11.067 -0.8861 -1.4873  3.2588
  971MOL0     H33992   4.257  12.196  11.306  1.1477 -1.2306  1.6637
  971MOL0     H33993   4.378  12.078  11.242  0.4961  0.9080 -0.3874
  971MOL0     H33994   4.064  11.809  11.291 -0.1096  0.1283  1.0161
  971MOL0     H33995   4.016  11.994  11.003 -1.3797 -1.1500  1.7430
  971MOL0     H33996   3.872  11.794  11.180 -0.3857  2.5665  2.6353
  971MOL0     H33997   3.831  11.960  11.136 -4.5964  0.0824  4.3655
  971MOL0     H33998   3.715  11.834  11.093 -0.2927  4.0802  2.7494
  972MOL0     O33999   5.006   8.976  10.916  0.1501  0.4324  0.3767
  972MOL0     C34000   5.106   8.980  10.842 -0.6010 -0.3628  0.0019
  972MOL0     O34001   5.130   9.076  10.749  0.0729  0.7717  0.4277
  972MOL0     C34002   5.079   9.197  10.777 -0.6497 -0.1310 -0.3752
  972MOL0     C34003   5.134   9.271  10.890  0.3501  1.1812 -0.3060
  972MOL0     C34004   5.051   9.371  10.956  0.7147  0.2035  0.2379
  972MOL0     C34005   4.920   9.400  10.897 -0.5731  0.4946  1.2982
  972MOL0     O34006   4.843   9.499  10.952 -0.0765 -0.2641 -0.5921
  972MOL0     C34007   4.701   9.487  10.934 -1.2342  0.5614 -0.0920
  972MOL0     C34008   4.647   9.378  11.031  1.0663  0.9693 -0.5143
  972MOL0     C34009   4.694   9.387  11.173 -0.7747 -1.1843 -0.2865
  972MOL0     C34010   4.652   9.518  11.250 -0.6733  0.6511 -0.4601
  972MOL0     C34011   4.715   9.525  11.393 -0.1140 -0.0246 -0.2071
  972MOL0     C34012   4.639   9.630  11.488  0.4597 -0.5161 -0.6614
  972MOL0     C34013   4.661   9.610  11.634  1.1301  0.8116  0.3190
  972MOL0     C34014   4.804   9.611  11.677 -0.1702 -0.2398 -1.0548
  972MOL0     N34015   4.816   9.575  11.823 -0.2664 -0.3332 -0.1023
  972MOL0     C34016   4.789   9.449  11.870  0.6701  0.0148  0.1011
  972MOL0     C34017   4.766   9.458  12.005 -0.7960  0.4975 -0.8380
  972MOL0     C34018   4.741   9.344  12.100  0.8585  1.1612  0.2000
  972MOL0     C34019   4.671   9.220  12.037  1.0603  0.1414 -0.2997
  972MOL0     C34020   4.657   9.115  12.149 -0.2555  0.1684 -0.8303
  972MOL0     C34021   4.593   8.985  12.092 -0.0326 -0.4163  0.4017
  972MOL0     O34022   4.577   8.898  12.202 -0.4931 -0.2136 -0.0369
  972MOL0     C34023   4.454   8.888  12.273 -0.4218  0.3797  0.9584
  972MOL0     C34024   4.348   8.977  12.278  0.0076  0.1156  0.2140
  972MOL0     C34025   4.229   8.940  12.349  0.0855  0.6880 -0.3756
  972MOL0     C34026   4.111   9.036  12.355  0.8028 -0.5526 -0.2115
  972MOL0     C34027   4.220   8.816  12.420  0.6980  0.5416 -0.4834
  972MOL0     C34028   4.101   8.760  12.495  0.5054  0.7310 -0.1548
  972MOL0     O34029   3.972   8.789  12.451  0.0807  0.4204  0.1288
  972MOL0     C34030   3.854   8.759  12.514 -0.0229  0.7489  0.4385
  972MOL0     C34031   3.749   8.817  12.449  0.2346  0.0817 -0.9116
  972MOL0     C34032   3.613   8.801  12.494 -0.0133 -0.9130  0.3020
  972MOL0     C34033   3.593   8.747  12.619  0.4762  0.0449 -0.1201
  972MOL0     O34034   3.460   8.720  12.667  0.5198 -0.2018 -0.1679
  972MOL0     C34035   3.349   8.719  12.570 -0.5049  0.4035  0.0741
  972MOL0     C34036   3.251   8.613  12.608 -0.5026  1.0705 -0.6834
  972MOL0     C34037   3.303   8.473  12.600 -0.1779  0.9642 -0.6057
  972MOL0     C34038   3.180   8.377  12.638  0.1510 -0.5069  0.2730
  972MOL0     C34039   3.208   8.238  12.587 -0.2004 -0.3872 -0.2321
  972MOL0     C34040   3.108   8.140  12.632 -0.6896  0.1143  0.1995
  972MOL0     C34041   3.113   8.001  12.560  0.4800 -0.3024  0.2479
  972MOL0     C34042   3.204   7.888  12.630  0.5224 -0.8820  0.1056
  972MOL0    Cl34043   3.360   7.944  12.704  0.4657 -0.0187  0.5008
  972MOL0     C34044   3.697   8.685  12.684 -0.3195 -0.4167  0.1893
  972MOL0     C34045   3.830   8.693  12.635 -0.1678 -0.3282  0.0056
  972MOL0     O34046   4.126   8.686  12.588  0.0344 -0.1548 -0.5329
  972MOL0     C34047   4.340   8.744  12.430 -0.2900  0.5900 -0.3534
  972MOL0     C34048   4.456   8.782  12.364  0.1642 -0.3031 -0.7956
  972MOL0     N34049   4.779   9.584  12.050 -0.5415  0.6736  0.2484
  972MOL0     N34050   4.796   9.649  11.939  0.1080 -0.6793  0.1575
  972MOL0     C34051   4.880   9.339  10.777  0.4353 -0.3190  0.2650
  972MOL0     C34052   4.957   9.245  10.728  0.8620  0.5232  0.4819
  972MOL0     C34053   5.206   8.869  10.845 -0.2919  1.0658  0.0891
  972MOL0     C34054   5.163   8.743  10.893 -0.2737 -0.3747  0.5355
  972MOL0     C34055   5.253   8.634  10.903 -0.0626 -1.2528 -1.4121
  972MOL0     C34056   5.387   8.644  10.861  0.2948  0.1750  0.2964
  972MOL0     O34057   5.491   8.556  10.896 -0.4204 -0.0275 -0.2903
  972MOL0     C34058   5.472   8.472  11.021 -0.2507 -0.0427  0.0130
  972MOL0     C34059   5.458   8.550  11.145  0.6024  0.9333 -0.2201
  972MOL0     C34060   5.582   8.644  11.158  0.3122  0.0629 -0.6369
  972MOL0     C34061   5.580   8.693  11.291  0.0491 -0.3764 -0.3790
  972MOL0     C34062   5.608   8.599  11.394 -0.3563 -0.0365 -0.3505
  972MOL0     C34063   5.604   8.502  11.476  0.0551 -0.6298  0.8568
  972MOL0     C34064   5.429   8.764  10.805  0.3124 -1.0251  0.6069
  972MOL0     C34065   5.338   8.878  10.798  0.1933 -0.3461 -0.8261
  972MOL0     C34066   5.414   9.006  10.771  0.1939 -1.5591  0.5445
  972MOL0     H34067   5.238   9.267  10.918  0.4441 -0.6210 -0.7710
  972MOL0     H34068   5.103   9.423  11.035  2.5363  2.7488 -2.4347
  972MOL0     H34069   4.680   9.481  10.827 -0.0357 -2.4473 -0.2491
  972MOL0     H34070   4.653   9.582  10.963  3.7384  4.2517 -2.4728
  972MOL0     H34071   4.538   9.382  11.045  1.1102 -0.2716  0.3796
  972MOL0     H34072   4.662   9.276  10.992 -1.3872  0.6253 -0.7277
  972MOL0     H34073   4.678   9.295  11.231  3.5870 -1.4964  0.8233
  972MOL0     H34074   4.802   9.403  11.167 -0.8351 -1.3428 -2.8600
  972MOL0     H34075   4.689   9.609  11.202 -0.6866  0.9938  0.1647
  972MOL0     H34076   4.543   9.519  11.263 -0.8261  2.0720 -1.5408
  972MOL0     H34077   4.822   9.551  11.389  0.0295 -0.7172 -1.2376
  972MOL0     H34078   4.701   9.424  11.433  3.9548 -1.5714 -2.0437
  972MOL0     H34079   4.656   9.735  11.464  3.3299 -0.2165  1.9979
  972MOL0     H34080   4.532   9.606  11.482  0.8582 -2.3562 -1.0590
  972MOL0     H34081   4.614   9.517  11.669  1.8209  0.0761 -0.6391
  972MOL0     H34082   4.618   9.700  11.678  1.8256  0.9705  0.6951
  972MOL0     H34083   4.862   9.544  11.613  3.5157  0.7779  0.9381
  972MOL0     H34084   4.828   9.718  11.668 -5.0901  1.0783 -1.2839
  972MOL0     H34085   4.772   9.362  11.807  2.2984 -0.6778  0.5689
  972MOL0     H34086   4.678   9.388  12.178  1.3736  2.6227 -0.1811
  972MOL0     H34087   4.827   9.306  12.155 -0.5760 -3.0498 -0.0663
  972MOL0     H34088   4.578   9.251  11.988  1.6837 -0.3746 -1.8775
  972MOL0     H34089   4.735   9.173  11.961 -0.1291 -1.4528 -0.3832
  972MOL0     H34090   4.757   9.097  12.189  0.5936 -0.4961 -3.0876
  972MOL0     H34091   4.601   9.151  12.236 -0.1617 -1.9156  0.1323
  972MOL0     H34092   4.495   9.009  12.049 -0.2054 -0.6949  0.6327
  972MOL0     H34093   4.656   8.946  12.011 -1.3060 -2.6037  0.3781
  972MOL0     H34094   4.349   9.074  12.229 -0.5646 -0.7465 -1.6058
  972MOL0     H34095   4.144   9.138  12.335 -1.8332  0.2074 -1.1754
  972MOL0     H34096   4.061   9.038  12.453 -1.2414  3.1800 -1.1104
  972MOL0     H34097   4.033   9.013  12.282  0.6859  0.2137 -0.3325
  972MOL0     H34098   3.758   8.862  12.351 -2.1415 -0.7846 -1.6147
  972MOL0     H34099   3.538   8.834  12.423 -1.6189 -0.7582  2.0063
  972MOL0     H34100   3.296   8.813  12.589  0.0670  0.3713  2.0447
  972MOL0     H34101   3.378   8.720  12.464 -2.0847  4.7390 -0.5165
  972MOL0     H34102   3.228   8.637  12.712  2.4776  1.8553 -0.1241
  972MOL0     H34103   3.163   8.627  12.545 -1.9894 -2.2948  0.4275
  972MOL0     H34104   3.374   8.465  12.682 -0.9630  4.6024  0.5852
  972MOL0     H34105   3.340   8.437  12.503 -4.4720 -3.3994 -1.0643
  972MOL0     H34106   3.088   8.413  12.590 -0.9661 -1.6518  1.4893
  972MOL0     H34107   3.162   8.377  12.746  0.5922  0.4607  0.3566
  972MOL0     H34108   3.200   8.247  12.478  0.3770  3.3889 -0.0920
  972MOL0     H34109   3.307   8.212  12.626  1.3067  4.1697 -0.4472
  972MOL0     H34110   3.011   8.183  12.605  0.4453  3.0843  0.4954
  972MOL0     H34111   3.104   8.138  12.741 -0.2251  1.0820  0.2399
  972MOL0     H34112   3.143   8.019  12.457  0.3798 -6.3703 -1.2176
  972MOL0     H34113   3.013   7.957  12.558 -0.7467  2.1938  1.7434
  972MOL0     H34114   3.232   7.813  12.556  0.9963  0.7443 -1.4290
  972MOL0     H34115   3.151   7.846  12.717  0.0265  0.8393  0.6778
  972MOL0     H34116   3.670   8.636  12.777 -1.1052  0.8062  0.6301
  972MOL0     H34117   3.914   8.646  12.686 -1.6454 -3.9099 -0.5619
  972MOL0     H34118   4.352   8.661  12.498  0.7728 -0.9990 -2.3651
  972MOL0     H34119   4.549   8.727  12.373  0.4134  0.1345 -0.6639
  972MOL0     H34120   4.788   9.356  10.721  0.9640  2.3349  0.0794
  972MOL0     H34121   4.926   9.179  10.649 -1.1643  2.4073 -0.4057
  972MOL0     H34122   5.060   8.719  10.915 -0.1364  0.4132  2.2366
  972MOL0     H34123   5.220   8.539  10.943  1.0549 -1.2177 -0.3501
  972MOL0     H34124   5.388   8.403  11.006 -1.1206  0.6474  1.4461
  972MOL0     H34125   5.556   8.405  11.040 -0.7620 -0.6562  0.1532
  972MOL0     H34126   5.455   8.478  11.228  1.3868  1.9000  0.6861
  972MOL0     H34127   5.373   8.618  11.141  2.0015  2.6912 -1.6041
  972MOL0     H34128   5.677   8.597  11.128 -0.4501 -1.5332 -0.6451
  972MOL0     H34129   5.557   8.734  11.101  1.6459  1.2707  0.6064
  972MOL0     H34130   5.487   8.746  11.314 -0.7493 -1.8536 -0.0612
  972MOL0     H34131   5.659   8.769  11.286  0.7981 -1.0974  0.1967
  972MOL0     H34132   5.598   8.413  11.535  0.6871 -1.2719 -0.0128
  972MOL0     H34133   5.525   8.775  10.754 -0.1078  1.0391  0.1389
  972MOL0     H34134   5.420   9.025  10.663  0.3218 -2.4482  0.3906
  972MOL0     H34135   5.361   9.084  10.827 -2.2402 -3.3374  0.9171
  972MOL0     H34136   5.517   9.009  10.806  0.8009  1.8708 -1.1108
  973MOL0     O34137   6.413   6.511   0.751 -0.7289  0.1685 -0.5129
  973MOL0     C34138   6.471   6.527   0.647 -0.0883 -0.4187  0.0880
  973MOL0     O34139   6.511   6.417   0.563 -0.1184 -0.1881 -0.0650
  973MOL0     C34140   6.473   6.291   0.591  0.0926 -0.3058  0.8112
  973MOL0     C34141   6.562   6.178   0.571  0.6308 -0.2617  0.0073
  973MOL0     C34142   6.530   6.053   0.621 -0.0343 -0.1068 -0.3548
  973MOL0     C34143   6.395   6.025   0.674  1.2028 -1.1020  0.6694
  973MOL0     O34144   6.357   5.907   0.731  0.6693 -0.3747  0.0811
  973MOL0     C34145   6.462   5.849   0.809 -1.3114 -0.4546 -0.4828
  973MOL0     C34146   6.393   5.803   0.937  0.5856  0.0278  0.7851
  973MOL0     C34147   6.266   5.734   0.915 -0.2990  0.1883  0.0791
  973MOL0     C34148   6.238   5.643   1.037 -0.4966 -0.5063  0.6196
  973MOL0     C34149   6.236   5.723   1.171  0.2583 -0.7421 -0.0541
  973MOL0     C34150   6.131   5.676   1.277 -0.4630 -0.4383  0.9428
  973MOL0     C34151   6.001   5.745   1.240 -0.2778  0.2961 -0.3445
  973MOL0     C34152   5.884   5.693   1.314  0.0022 -0.5286 -0.0742
  973MOL0     N34153   5.899   5.690   1.463  0.1416 -0.9444 -0.0690
  973MOL0     C34154   5.932   5.801   1.543  1.3425  0.4924 -0.6584
  973MOL0     C34155   5.941   5.753   1.669 -0.2205  0.1255 -0.8407
  973MOL0     C34156   5.956   5.833   1.792 -0.7390 -0.5072 -0.2047
  973MOL0     C34157   5.826   5.854   1.872 -0.5225 -0.1195  0.0341
  973MOL0     C34158   5.824   5.755   1.995  0.5621  0.1264  0.5308
  973MOL0     C34159   5.697   5.764   2.079  0.0631  0.2380 -0.2991
  973MOL0     O34160   5.675   5.900   2.111 -0.8206 -0.7271 -0.7088
  973MOL0     C34161   5.577   5.947   2.201  0.0247 -0.2606  0.6024
  973MOL0     C34162   5.536   6.084   2.187 -0.1023 -0.3545  0.4552
  973MOL0     C34163   5.439   6.132   2.269 -0.0598 -0.3416 -0.3666
  973MOL0     C34164   5.383   6.273   2.236 -0.4707  0.7089  0.7213
  973MOL0     C34165   5.394   6.051   2.378 -0.2115 -0.1565  0.2429
  973MOL0     C34166   5.298   6.099   2.481 -0.3832 -0.2135  0.1702
  973MOL0     O34167   5.282   6.019   2.592 -0.3006 -0.8366  0.9000
  973MOL0     C34168   5.193   6.039   2.693  0.3130 -0.4060  0.2539
  973MOL0     C34169   5.069   6.094   2.673  0.0239 -0.7644  1.2110
  973MOL0     C34170   4.987   6.120   2.785  0.4231 -0.5230  0.4302
  973MOL0     C34171   5.021   6.077   2.912  1.0124 -0.2009  0.8577
  973MOL0     O34172   4.940   6.087   3.026 -0.2176  0.5993 -0.6388
  973MOL0     C34173   4.798   6.042   3.026 -0.0149 -0.3197 -0.1303
  973MOL0     C34174   4.806   5.901   3.097  0.6098 -0.2621  1.1678
  973MOL0     C34175   4.804   5.912   3.246  0.6206 -0.8505  0.2735
  973MOL0     C34176   4.770   5.775   3.297 -1.0347  0.0889 -0.6197
  973MOL0     C34177   4.776   5.774   3.454 -0.4332  0.1689 -0.1688
  973MOL0     C34178   4.773   5.649   3.530  0.0887 -0.0937  0.5493
  973MOL0     C34179   4.658   5.554   3.475  0.0305 -0.5839 -0.7058
  973MOL0     C34180   4.629   5.415   3.535 -0.2782  0.3597 -0.1291
  973MOL0    Cl34181   4.757   5.298   3.504  0.2245 -0.2175 -0.5117
  973MOL0     C34182   5.144   6.017   2.934  0.4624  0.2590  0.2241
  973MOL0     C34183   5.226   5.988   2.820 -0.4179 -1.1294  0.0174
  973MOL0     O34184   5.248   6.208   2.475  0.2642 -0.2800 -0.4462
  973MOL0     C34185   5.436   5.920   2.387 -0.3106  0.2009 -0.0826
  973MOL0     C34186   5.526   5.870   2.303  0.0058  0.5358  0.0717
  973MOL0     N34187   5.955   5.614   1.664  0.4515  0.1972 -0.3250
  973MOL0     N34188   5.928   5.586   1.544 -0.7146  0.5878  0.4593
  973MOL0     C34189   6.302   6.128   0.661 -0.1710  0.3093 -0.4136
  973MOL0     C34190   6.344   6.263   0.628 -0.2973 -0.3240 -0.5040
  973MOL0     C34191   6.498   6.664   0.600 -0.0464  0.6926 -0.1307
  973MOL0     C34192   6.619   6.708   0.541  0.2739 -0.3788  0.6434
  973MOL0     C34193   6.661   6.837   0.529  0.4720 -1.0232 -0.4634
  973MOL0     C34194   6.575   6.949   0.567  0.8378  0.3766  0.6512
  973MOL0     O34195   6.615   7.085   0.554 -0.1621  0.2841 -0.9463
  973MOL0     C34196   6.529   7.183   0.589 -0.3455 -1.2536 -0.3159
  973MOL0     C34197   6.564   7.327   0.551  0.2653 -0.2287  0.9032
  973MOL0     C34198   6.561   7.348   0.402  0.7985  1.4857 -1.3905
  973MOL0     C34199   6.540   7.492   0.360 -0.0029 -0.3635  0.3165
  973MOL0     C34200   6.549   7.514   0.216 -0.1138 -0.4688 -0.0770
  973MOL0     C34201   6.554   7.553   0.098  0.3009 -0.8014  0.8772
  973MOL0     C34202   6.456   6.909   0.617  0.1213 -0.6176  0.2403
  973MOL0     C34203   6.419   6.780   0.644  0.8494  0.6458  0.2797
  973MOL0     C34204   6.289   6.756   0.725 -0.1214 -0.2818  0.3340
  973MOL0     H34205   6.662   6.216   0.554  0.2139  0.3580 -1.2531
  973MOL0     H34206   6.603   5.973   0.622  0.1077  0.0242 -0.2348
  973MOL0     H34207   6.542   5.921   0.825  0.4039 -0.6439 -6.1356
  973MOL0     H34208   6.507   5.762   0.759  4.5827  1.1308  1.2064
  973MOL0     H34209   6.462   5.741   0.995  1.7120  0.7000  0.1962
  973MOL0     H34210   6.378   5.897   0.992  2.9289  1.1226 -0.3043
  973MOL0     H34211   6.187   5.805   0.889  2.2758  2.1738 -3.1753
  973MOL0     H34212   6.270   5.676   0.822  1.6917 -1.7810  1.2969
  973MOL0     H34213   6.139   5.600   1.018 -0.4135 -1.3166  1.9117
  973MOL0     H34214   6.316   5.567   1.042  2.4060  2.0216 -1.7714
  973MOL0     H34215   6.203   5.825   1.149  0.2642 -0.9030 -0.8020
  973MOL0     H34216   6.333   5.724   1.222  0.9232  2.1030 -1.1868
  973MOL0     H34217   6.143   5.567   1.281  0.8608 -0.5158 -2.2225
  973MOL0     H34218   6.153   5.707   1.380 -2.4354 -0.1579  1.3120
  973MOL0     H34219   5.972   5.731   1.135 -1.8897 -2.5772  0.3901
  973MOL0     H34220   6.014   5.849   1.271  0.1376  0.0798  0.2229
  973MOL0     H34221   5.796   5.752   1.286  2.2033  1.8039 -2.7947
  973MOL0     H34222   5.872   5.589   1.283  0.2069 -0.6843  0.3503
  973MOL0     H34223   5.937   5.905   1.512  0.8195  0.1568 -1.9082
  973MOL0     H34224   5.992   5.931   1.761 -4.0066  0.4598 -1.2897
  973MOL0     H34225   6.037   5.794   1.855  2.0921 -1.2529 -3.9882
  973MOL0     H34226   5.818   5.956   1.912  2.4622 -0.9418  3.1591
  973MOL0     H34227   5.740   5.837   1.806  1.0338 -0.3147 -2.0491
  973MOL0     H34228   5.828   5.649   1.967 -6.2511 -0.1730 -1.1436
  973MOL0     H34229   5.908   5.779   2.060 -1.3946 -0.5246  3.4786
  973MOL0     H34230   5.610   5.722   2.027 -0.7544  0.3220  0.9400
  973MOL0     H34231   5.709   5.700   2.167 -0.0042 -2.8991 -2.4502
  973MOL0     H34232   5.580   6.141   2.105 -2.6510 -0.0465 -0.8159
  973MOL0     H34233   5.277   6.258   2.216  0.3721 -3.3122 -1.8954
  973MOL0     H34234   5.434   6.334   2.160  2.4310  2.0983  3.5370
  973MOL0     H34235   5.403   6.334   2.325 -3.9130  1.6359  0.9944
  973MOL0     H34236   5.021   6.108   2.577 -1.4725 -1.2826  1.8556
  973MOL0     H34237   4.891   6.165   2.764 -1.2645 -1.4631  4.9517
  973MOL0     H34238   4.739   6.113   3.084  1.5409  0.2015  0.8893
  973MOL0     H34239   4.758   6.026   2.926  1.5722 -0.7746 -0.7290
  973MOL0     H34240   4.719   5.843   3.066  0.9346 -1.2498  2.0500
  973MOL0     H34241   4.894   5.859   3.048 -0.4159 -0.1669 -0.8527
  973MOL0     H34242   4.738   5.993   3.276  2.5402  1.0112 -0.2383
  973MOL0     H34243   4.909   5.930   3.273  2.0909 -2.1005 -3.8270
  973MOL0     H34244   4.830   5.696   3.252 -1.4245 -1.7982  1.9656
  973MOL0     H34245   4.665   5.752   3.274 -1.6240 -0.9053  2.5931
  973MOL0     H34246   4.864   5.831   3.485 -2.2056  2.9873  0.1206
  973MOL0     H34247   4.692   5.834   3.490 -0.0351  0.4979  0.2192
  973MOL0     H34248   4.750   5.676   3.634 -1.9724  0.9957 -0.1302
  973MOL0     H34249   4.867   5.596   3.512  0.3163  0.0481  1.2943
  973MOL0     H34250   4.670   5.532   3.369  0.1623  1.9209 -1.2582
  973MOL0     H34251   4.569   5.613   3.497  0.0936 -0.7917  0.1820
  973MOL0     H34252   4.542   5.371   3.484 -1.2730  0.3376  1.5080
  973MOL0     H34253   4.609   5.425   3.642 -0.3922 -1.7659  0.0830
  973MOL0     H34254   5.161   5.987   3.037  2.2788  1.1899  0.2366
  973MOL0     H34255   5.313   5.927   2.842 -0.0104 -0.1502  1.2038
  973MOL0     H34256   5.400   5.866   2.473 -0.4054 -0.2661 -0.4138
  973MOL0     H34257   5.571   5.771   2.306 -2.0176 -0.4255  0.6503
  973MOL0     H34258   6.208   6.113   0.713  0.2911  1.6107  0.8889
  973MOL0     H34259   6.272   6.344   0.618 -0.8697 -0.8109 -0.3804
  973MOL0     H34260   6.692   6.634   0.508  0.8088  0.0489  0.8357
  973MOL0     H34261   6.759   6.876   0.504 -0.1249  1.2110  0.4397
  973MOL0     H34262   6.430   7.160   0.548  0.3833 -2.7804 -1.3039
  973MOL0     H34263   6.520   7.174   0.697 -1.2033  0.2579 -0.2200
  973MOL0     H34264   6.658   7.359   0.597  0.2719 -2.3177  2.5068
  973MOL0     H34265   6.490   7.402   0.582  0.3995  0.1903  0.2156
  973MOL0     H34266   6.651   7.293   0.372 -0.7018 -2.6700  0.9498
  973MOL0     H34267   6.476   7.298   0.354 -1.5026  2.8465  1.0285
  973MOL0     H34268   6.616   7.555   0.408  0.2703 -1.1966  1.0040
  973MOL0     H34269   6.445   7.536   0.393  1.0772  1.9571  0.5415
  973MOL0     H34270   6.566   7.583  -0.005  3.9822 -2.2405  0.7167
  973MOL0     H34271   6.389   6.989   0.648  3.5988  2.9874 -0.7762
  973MOL0     H34272   6.314   6.701   0.817  1.8332  1.9403  1.2343
  973MOL0     H34273   6.247   6.847   0.768  4.0825  1.1335  2.0178
  973MOL0     H34274   6.217   6.703   0.662  1.2764 -0.8022 -0.8843
  974MOL0     O34275   1.596   7.361  11.074  0.0970 -0.0529 -0.3650
  974MOL0     C34276   1.660   7.333  11.176  1.3323 -0.5015  0.8207
  974MOL0     O34277   1.639   7.208  11.240  0.0178  0.3703 -0.2431
  974MOL0     C34278   1.547   7.123  11.186 -0.3559  0.2382  0.5491
  974MOL0     C34279   1.415   7.162  11.163  0.8184  1.1868  0.9250
  974MOL0     C34280   1.322   7.082  11.104 -0.7231 -0.0614  0.1674
  974MOL0     C34281   1.356   6.953  11.058 -0.0735  0.8224  0.3795
  974MOL0     O34282   1.272   6.849  11.011 -0.0103 -0.6520  0.5788
  974MOL0     C34283   1.151   6.889  10.953  1.1395  0.1288 -0.0548
  974MOL0     C34284   1.060   6.753  10.937  0.0250 -0.3821  0.7373
  974MOL0     C34285   1.034   6.687  11.071  0.6451 -0.7027 -0.6312
  974MOL0     C34286   0.966   6.553  11.050 -0.1665  0.8892  0.1955
  974MOL0     C34287   0.812   6.574  11.025  0.0170 -0.3597  0.1395
  974MOL0     C34288   0.735   6.449  11.003 -0.0857 -0.4949 -0.1538
  974MOL0     C34289   0.737   6.396  10.853  0.2682  0.1616  0.4620
  974MOL0     C34290   0.607   6.307  10.829 -0.0006  0.5457  0.1143
  974MOL0     N34291   0.619   6.246  10.694  0.2651  0.4907  0.3777
  974MOL0     C34292   0.645   6.109  10.662  0.1950 -0.4604  0.2656
  974MOL0     C34293   0.616   6.105  10.523 -0.8700  0.1650  0.4547
  974MOL0     C34294   0.617   5.974  10.456  0.1419 -0.0251 -0.1425
  974MOL0     C34295   0.552   5.981  10.321  0.6806  0.7211  0.8784
  974MOL0     C34296   0.550   5.843  10.238  0.4331  0.1254  0.5275
  974MOL0     C34297   0.496   5.858  10.089 -0.3127 -0.4600  0.4291
  974MOL0     O34298   0.364   5.802  10.070 -0.2620 -0.3458 -0.0620
  974MOL0     C34299   0.353   5.672  10.024 -0.1654 -0.7855  0.1202
  974MOL0     C34300   0.454   5.582   9.975  1.0212 -0.6678 -0.4172
  974MOL0     C34301   0.414   5.451   9.928  0.2789 -0.0851 -0.0631
  974MOL0     C34302   0.516   5.360   9.880 -0.3351 -0.3385  0.7284
  974MOL0     C34303   0.281   5.410   9.935  1.0888 -0.3350 -0.0145
  974MOL0     C34304   0.239   5.277   9.879  0.8636  0.6417  0.1178
  974MOL0     O34305   0.308   5.168   9.920  0.0758 -0.0277 -0.3405
  974MOL0     C34306   0.294   5.037   9.885 -0.2322 -0.1087  1.4407
  974MOL0     C34307   0.227   4.993   9.769  0.3821  0.9020 -0.0728
  974MOL0     C34308   0.229   4.855   9.729  0.8112 -0.1182  0.0964
  974MOL0     C34309   0.297   4.764   9.815 -0.3596  0.0071  0.2527
  974MOL0     O34310   0.331   4.634   9.777 -0.0933  0.4493 -0.4746
  974MOL0     C34311   0.234   4.554   9.704  0.6861  0.0667  0.5394
  974MOL0     C34312   0.107   4.526   9.788 -0.4244 -0.1706 -0.7087
  974MOL0     C34313   0.049   4.385   9.782 -0.6384  0.2255 -0.4400
  974MOL0     C34314   0.004   4.360   9.642  0.3889  0.7221 -0.9550
  974MOL0     C34315  -0.029   4.213   9.607 -0.1523 -0.0079 -0.4246
  974MOL0     C34316  -0.122   4.138   9.706 -0.3616 -0.4210 -0.6671
  974MOL0     C34317  -0.147   4.001   9.648  0.3040  0.3348 -0.7434
  974MOL0     C34318  -0.218   3.915   9.754 -0.0432 -0.2389 -0.1207
  974MOL0    Cl34319  -0.387   3.977   9.770  0.1617 -0.0382  0.2784
  974MOL0     C34320   0.361   4.807   9.931  0.0404 -0.4190 -0.7363
  974MOL0     C34321   0.357   4.943   9.969  0.5967  0.2310  0.0599
  974MOL0     O34322   0.137   5.265   9.817  0.3691  0.5418 -0.6558
  974MOL0     C34323   0.186   5.499   9.987 -0.5348 -0.1027 -0.4049
  974MOL0     C34324   0.228   5.621  10.030 -0.2531 -0.1242  0.8351
  974MOL0     N34325   0.572   6.227  10.481  0.2755  0.3215 -0.1575
  974MOL0     N34326   0.568   6.308  10.579 -0.7839  1.1049  0.8035
  974MOL0     C34327   1.486   6.907  11.083 -0.3698 -0.4870  0.2506
  974MOL0     C34328   1.584   6.989  11.157 -0.4598 -0.4301  0.1473
  974MOL0     C34329   1.762   7.427  11.232  0.5980  0.3992  0.7668
  974MOL0     C34330   1.806   7.390  11.360  0.3780 -0.1301  0.7338
  974MOL0     C34331   1.895   7.474  11.424 -0.9398 -0.3013  0.4491
  974MOL0     C34332   1.947   7.588  11.368 -0.5227 -0.1083 -0.9870
  974MOL0     O34333   2.046   7.644  11.446 -1.0209 -0.1247  0.0177
  974MOL0     C34334   2.066   7.781  11.420 -0.6099 -0.8877  0.1104
  974MOL0     C34335   2.122   7.850  11.546 -0.7076  0.3972  0.2660
  974MOL0     C34336   2.134   8.000  11.531  0.7465  1.0686  0.0251
  974MOL0     C34337   2.009   8.080  11.576  0.2655  1.7474  0.2335
  974MOL0     C34338   2.046   8.217  11.590  0.3336 -1.1800 -0.6552
  974MOL0     C34339   2.095   8.319  11.625  0.4100  0.1584  0.3744
  974MOL0     C34340   1.896   7.631  11.242 -0.6602  0.2570 -0.3779
  974MOL0     C34341   1.806   7.547  11.174 -0.2364 -0.2320 -1.1233
  974MOL0     C34342   1.776   7.597  11.038  0.7813 -0.2130  0.4669
  974MOL0     H34343   1.383   7.263  11.189  1.6566  1.8749 -0.5536
  974MOL0     H34344   1.220   7.118  11.094 -0.3626  1.7547  2.1717
  974MOL0     H34345   1.154   6.934  10.854  0.2992  4.8504  1.7668
  974MOL0     H34346   1.097   6.964  11.012  0.3202  0.2004 -0.8671
  974MOL0     H34347   0.968   6.782  10.886 -0.9171 -3.2594  0.6400
  974MOL0     H34348   1.119   6.685  10.876  2.0923  2.1086 -0.2572
  974MOL0     H34349   1.133   6.670  11.116  1.1017 -0.0718 -1.3870
  974MOL0     H34350   0.979   6.757  11.134  0.3110 -1.1662 -0.3938
  974MOL0     H34351   1.015   6.492  10.974  0.8947 -1.6332  2.7108
  974MOL0     H34352   0.974   6.488  11.138  1.0397 -1.2945 -1.4473
  974MOL0     H34353   0.792   6.643  10.943  1.0693 -0.2441 -0.0418
  974MOL0     H34354   0.792   6.623  11.121 -0.2181 -2.2189  1.0681
  974MOL0     H34355   0.773   6.371  11.070  3.9514  1.1119 -0.2656
  974MOL0     H34356   0.627   6.465  11.009 -0.2311 -1.2093 -0.6897
  974MOL0     H34357   0.824   6.333  10.832  1.4333  2.3253 -1.7224
  974MOL0     H34358   0.740   6.482  10.784 -0.1967  1.2759  1.7911
  974MOL0     H34359   0.604   6.236  10.912  0.2284  0.4161  0.0122
  974MOL0     H34360   0.517   6.369  10.818 -1.5422 -1.4900  0.6992
  974MOL0     H34361   0.674   6.035  10.736  1.1622  0.1036  0.4716
  974MOL0     H34362   0.562   5.904  10.519 -0.0594  0.6967  0.5016
  974MOL0     H34363   0.718   5.935  10.441  0.9038  1.7069  0.2414
  974MOL0     H34364   0.449   6.017  10.325  0.0314 -1.0989  1.0287
  974MOL0     H34365   0.609   6.049  10.256 -0.7677  1.1708  0.0325
  974MOL0     H34366   0.650   5.800  10.242  0.8052  0.8414 -0.7446
  974MOL0     H34367   0.487   5.778  10.300 -0.1882  1.2096  1.0676
  974MOL0     H34368   0.518   5.959  10.052 -3.5150  0.6040  1.0992
  974MOL0     H34369   0.564   5.804  10.022  1.0357 -0.9993  2.1663
  974MOL0     H34370   0.558   5.614   9.968  0.2555  1.6975 -2.4972
  974MOL0     H34371   0.527   5.271   9.943 -2.7121 -0.1278  1.5769
  974MOL0     H34372   0.613   5.408   9.873 -0.4462 -0.2522 -0.3913
  974MOL0     H34373   0.481   5.328   9.781  0.1703  0.3793  0.3165
  974MOL0     H34374   0.169   5.053   9.700  1.2126  1.0972 -0.6203
  974MOL0     H34375   0.185   4.823   9.635  1.1233 -0.5839  0.1051
  974MOL0     H34376   0.203   4.613   9.617  2.9037  1.4017  0.5799
  974MOL0     H34377   0.274   4.460   9.666 -2.7436 -1.1624 -0.4485
  974MOL0     H34378   0.145   4.545   9.890 -1.8775  1.3225 -0.3960
  974MOL0     H34379   0.034   4.603   9.764  0.6689  0.3673 -2.4846
  974MOL0     H34380  -0.041   4.366   9.841  0.7616  0.8137  2.0317
  974MOL0     H34381   0.124   4.308   9.804 -3.0546 -2.0394  0.4153
  974MOL0     H34382   0.078   4.388   9.567  0.9526  0.5270 -0.4801
  974MOL0     H34383  -0.087   4.421   9.633 -0.8494 -0.0064  3.7068
  974MOL0     H34384  -0.083   4.220   9.512  1.5393 -0.3609 -1.4502
  974MOL0     H34385   0.061   4.152   9.600  0.3597  0.7623 -0.6731
  974MOL0     H34386  -0.211   4.201   9.714 -0.1677  0.7465 -4.9513
  974MOL0     H34387  -0.073   4.141   9.804 -0.0350 -0.6041 -0.8221
  974MOL0     H34388  -0.046   3.964   9.629  0.9328  1.4113  0.3480
  974MOL0     H34389  -0.202   4.000   9.554  0.3294 -0.2011 -0.7583
  974MOL0     H34390  -0.164   3.941   9.846 -0.4652  1.2772 -0.2596
  974MOL0     H34391  -0.213   3.807   9.739 -1.0206 -0.3737  0.4088
  974MOL0     H34392   0.414   4.729   9.984 -0.5708  0.9888  2.1375
  974MOL0     H34393   0.415   4.981  10.052  1.5596  0.0854 -0.5278
  974MOL0     H34394   0.080   5.476   9.989 -0.6226  0.2462 -0.9364
  974MOL0     H34395   0.146   5.678  10.072 -0.7921 -1.4081  1.6134
  974MOL0     H34396   1.511   6.804  11.059 -2.6762 -1.5844  2.2167
  974MOL0     H34397   1.688   6.957  11.156 -0.9095 -2.0641 -1.9471
  974MOL0     H34398   1.779   7.299  11.414 -0.7984  0.5009  1.2570
  974MOL0     H34399   1.942   7.439  11.515 -0.6165  0.9489  0.7872
  974MOL0     H34400   2.136   7.788  11.336 -0.4459  1.4258  0.3837
  974MOL0     H34401   1.973   7.833  11.398 -0.2521 -0.3505 -0.1568
  974MOL0     H34402   2.214   7.800  11.576 -1.3706  0.5393  2.6909
  974MOL0     H34403   2.061   7.838  11.635 -0.2668  1.3035  0.7072
  974MOL0     H34404   2.221   8.033  11.589  2.7156 -1.5313 -1.1751
  974MOL0     H34405   2.158   8.025  11.427 -1.8043  1.6609 -0.4730
  974MOL0     H34406   1.967   8.041  11.669 -3.0161  2.0212 -0.9882
  974MOL0     H34407   1.917   8.069  11.517 -0.9720 -0.1218  2.3466
  974MOL0     H34408   2.135   8.417  11.642 -3.3323  1.4902  2.7141
  974MOL0     H34409   1.932   7.723  11.196  1.5862 -0.6107 -0.4924
  974MOL0     H34410   1.843   7.680  11.014  0.3354 -0.0490 -0.2433
  974MOL0     H34411   1.786   7.520  10.961 -0.5817  0.0248  0.0224
  974MOL0     H34412   1.671   7.629  11.043  0.5244 -1.0105  0.3848
  975MOL0     O34413   1.563   8.892   1.721 -0.0223  0.0964 -0.0869
  975MOL0     C34414   1.440   8.907   1.730  0.0160 -0.4991  0.0548
  975MOL0     O34415   1.381   9.003   1.811  0.7054 -0.0898  0.1883
  975MOL0     C34416   1.429   9.114   1.880  0.0789  0.3133  0.2235
  975MOL0     C34417   1.349   9.157   1.989  0.2737 -0.2995  0.5511
  975MOL0     C34418   1.388   9.264   2.072 -1.0220  0.4983 -0.3807
  975MOL0     C34419   1.515   9.325   2.047  0.5515 -0.7062 -0.3690
  975MOL0     O34420   1.581   9.411   2.128 -0.1431 -0.2070  0.1184
  975MOL0     C34421   1.533   9.433   2.264 -0.6606 -0.1793  1.0319
  975MOL0     C34422   1.590   9.564   2.312  0.7959 -0.0765 -0.0598
  975MOL0     C34423   1.568   9.696   2.227  0.0788  0.9128 -0.9420
  975MOL0     C34424   1.661   9.812   2.235 -0.6745 -0.0710 -0.6822
  975MOL0     C34425   1.807   9.780   2.202  0.6292 -0.6849 -0.4823
  975MOL0     C34426   1.875   9.913   2.174  0.3632 -0.2115  0.2884
  975MOL0     C34427   2.022   9.882   2.152  0.3328 -0.4319  0.0134
  975MOL0     C34428   2.103  10.010   2.183 -0.3781  0.1604 -0.0188
  975MOL0     N34429   2.240  10.007   2.129 -0.3640 -0.6985 -0.2759
  975MOL0     C34430   2.280   9.973   1.996  0.3880  0.4067 -0.9151
  975MOL0     C34431   2.413   9.990   1.976  0.0018 -0.2605 -0.1108
  975MOL0     C34432   2.495   9.972   1.846 -1.1074 -0.6562 -0.0915
  975MOL0     C34433   2.589   9.849   1.845 -0.0600 -0.3743 -0.1845
  975MOL0     C34434   2.521   9.715   1.841  0.6637  0.7080 -0.2805
  975MOL0     C34435   2.404   9.690   1.740 -1.0459 -1.2623 -0.4648
  975MOL0     O34436   2.363   9.561   1.722 -0.3484  0.1157 -0.5450
  975MOL0     C34437   2.457   9.466   1.683 -0.0970 -0.5292  0.1454
  975MOL0     C34438   2.410   9.341   1.712  0.1354  0.5696 -0.0543
  975MOL0     C34439   2.494   9.227   1.705  0.0448  0.5357 -0.0814
  975MOL0     C34440   2.421   9.093   1.745 -0.1795  0.0104 -0.0547
  975MOL0     C34441   2.630   9.237   1.654  0.4757 -0.1702  0.5619
  975MOL0     C34442   2.724   9.121   1.639  0.2010  0.3161 -0.1447
  975MOL0     O34443   2.855   9.158   1.647  0.2980  0.5542  0.5748
  975MOL0     C34444   2.949   9.055   1.617  1.1806 -0.5317 -0.0695
  975MOL0     C34445   2.947   8.966   1.512  0.0372  0.3260  0.1670
  975MOL0     C34446   3.049   8.872   1.496  0.1930  0.0890 -0.0229
  975MOL0     C34447   3.133   8.839   1.603  0.3604 -0.2616 -0.2997
  975MOL0     O34448   3.217   8.737   1.596 -1.0454 -0.6932 -0.1213
  975MOL0     C34449   3.205   8.621   1.510 -0.5478  0.4663  0.3950
  975MOL0     C34450   3.339   8.593   1.441 -1.2822  0.5110 -0.0600
  975MOL0     C34451   3.444   8.511   1.523  0.4043  0.5445 -0.4251
  975MOL0     C34452   3.589   8.533   1.452 -0.3064  0.5296 -0.0478
  975MOL0     C34453   3.694   8.428   1.504  0.3590 -0.3348 -0.4185
  975MOL0     C34454   3.839   8.468   1.453  0.4712 -0.0504  0.5959
  975MOL0     C34455   3.942   8.372   1.518 -0.6309  0.4130  0.0343
  975MOL0     C34456   3.987   8.269   1.421 -0.9003  0.0330  0.0414
  975MOL0    Cl34457   4.094   8.157   1.523  0.0352  0.2403  0.2591
  975MOL0     C34458   3.134   8.929   1.712  0.7218 -0.4117 -0.7090
  975MOL0     C34459   3.047   9.042   1.713 -0.0861 -0.6581 -0.8449
  975MOL0     O34460   2.675   9.006   1.624 -0.1936 -0.7396  0.4615
  975MOL0     C34461   2.674   9.365   1.621 -0.3394  0.0400 -0.2194
  975MOL0     C34462   2.590   9.479   1.636 -0.5811 -0.8306  0.4448
  975MOL0     N34463   2.457  10.027   2.101  0.6708  0.3708 -0.0471
  975MOL0     N34464   2.355  10.037   2.193  0.0433 -0.2847  0.0976
  975MOL0     C34465   1.593   9.278   1.942  0.3175  1.0715  0.5093
  975MOL0     C34466   1.550   9.176   1.852 -0.1890  0.0157 -0.1583
  975MOL0     C34467   1.359   8.797   1.668  0.1597 -0.4423 -0.2452
  975MOL0     C34468   1.408   8.707   1.575  0.2546  0.3920 -0.8034
  975MOL0     C34469   1.334   8.599   1.524 -0.4515 -0.5934 -0.2623
  975MOL0     C34470   1.210   8.574   1.567 -0.2059  0.5647  0.2761
  975MOL0     O34471   1.143   8.463   1.508  0.3275 -0.0162  0.5597
  975MOL0     C34472   1.028   8.413   1.573 -0.1178 -0.2593 -0.7260
  975MOL0     C34473   1.077   8.330   1.688  0.5048  0.7132  0.5604
  975MOL0     C34474   1.188   8.225   1.651 -0.3786 -0.1190 -0.0390
  975MOL0     C34475   1.139   8.120   1.553  1.0804 -0.5763 -0.0633
  975MOL0     C34476   1.233   8.006   1.557  0.2342  0.2979 -0.0464
  975MOL0     C34477   1.304   7.913   1.589  0.1089  0.2210  0.0756
  975MOL0     C34478   1.156   8.663   1.656  0.4121  0.0876  0.0421
  975MOL0     C34479   1.221   8.785   1.689  1.3042 -0.5462  0.4401
  975MOL0     C34480   1.146   8.884   1.767  0.3006 -0.1162  1.1509
  975MOL0     H34481   1.258   9.102   2.005 -1.0242  1.8020  0.7152
  975MOL0     H34482   1.335   9.293   2.161  1.8029  0.7077  1.3650
  975MOL0     H34483   1.562   9.350   2.330 -1.2787 -0.1479  1.3564
  975MOL0     H34484   1.423   9.439   2.265 -0.6070  3.8542 -0.4778
  975MOL0     H34485   1.543   9.573   2.410  0.2419 -4.8364  0.3243
  975MOL0     H34486   1.698   9.556   2.322  1.0005  2.0535 -0.1409
  975MOL0     H34487   1.587   9.652   2.128  0.2061 -1.6841  0.1695
  975MOL0     H34488   1.463   9.727   2.232 -0.3463 -0.5984  0.6039
  975MOL0     H34489   1.626   9.894   2.171  1.5322  1.8282  0.3830
  975MOL0     H34490   1.664   9.850   2.338  0.8705 -4.9700  1.3790
  975MOL0     H34491   1.813   9.706   2.122  1.9588 -3.9509  2.4053
  975MOL0     H34492   1.861   9.728   2.282  0.7419 -1.4811 -1.0615
  975MOL0     H34493   1.825   9.964   2.090 -1.3628 -0.6799  0.9899
  975MOL0     H34494   1.872   9.986   2.255  0.7042  1.5993 -1.2380
  975MOL0     H34495   2.026   9.843   2.050 -3.3507  1.6692 -1.1526
  975MOL0     H34496   2.077   9.816   2.219  0.7957  1.0624  1.1697
  975MOL0     H34497   2.062  10.104   2.145  1.3825  1.0075  0.1121
  975MOL0     H34498   2.119  10.015   2.291  2.5375  0.3142 -0.4022
  975MOL0     H34499   2.208   9.941   1.921  0.3516 -0.2068 -0.6184
  975MOL0     H34500   2.554  10.063   1.835 -3.6680  0.9805 -1.4650
  975MOL0     H34501   2.429   9.960   1.759  0.5808  0.4096 -1.5778
  975MOL0     H34502   2.649   9.858   1.753  0.2828  0.8711  0.1323
  975MOL0     H34503   2.671   9.852   1.918 -1.0480  2.6107  0.9499
  975MOL0     H34504   2.604   9.649   1.815  1.4510 -1.1217  5.4142
  975MOL0     H34505   2.479   9.682   1.937 -1.5655 -0.6278 -1.6475
  975MOL0     H34506   2.319   9.751   1.773 -1.3434 -2.0887  0.3367
  975MOL0     H34507   2.438   9.709   1.638 -2.6475 -1.5585 -1.0813
  975MOL0     H34508   2.308   9.322   1.745  0.4933 -0.6607  0.4096
  975MOL0     H34509   2.495   9.020   1.779  2.0310  0.3440 -3.6521
  975MOL0     H34510   2.363   9.060   1.658  0.9341 -0.8889 -0.4810
  975MOL0     H34511   2.347   9.123   1.820 -4.7915  1.0301 -4.4618
  975MOL0     H34512   2.874   8.983   1.433  0.6766  1.9185 -0.1245
  975MOL0     H34513   3.042   8.823   1.400 -0.3849  1.8850 -0.9456
  975MOL0     H34514   3.165   8.530   1.557  2.8730 -0.7237  1.2891
  975MOL0     H34515   3.143   8.653   1.426  1.6631  2.5788 -0.5124
  975MOL0     H34516   3.313   8.544   1.347 -1.5956  2.4805 -1.0541
  975MOL0     H34517   3.379   8.689   1.408 -1.8660  0.5497 -0.6713
  975MOL0     H34518   3.426   8.405   1.503 -1.9111  0.2518  2.4541
  975MOL0     H34519   3.431   8.526   1.631 -0.2323  1.2838 -0.5969
  975MOL0     H34520   3.628   8.631   1.481  0.7415  0.0340  0.2647
  975MOL0     H34521   3.581   8.515   1.344  0.6534  0.3750 -0.0967
  975MOL0     H34522   3.685   8.434   1.613 -0.4692  0.3564 -0.5090
  975MOL0     H34523   3.668   8.324   1.486  1.4051 -1.2535  2.7081
  975MOL0     H34524   3.861   8.570   1.487  3.1088 -0.4316  0.2249
  975MOL0     H34525   3.848   8.478   1.345  1.2079  0.5336  0.7099
  975MOL0     H34526   3.908   8.322   1.610 -0.3259  1.7827  0.9192
  975MOL0     H34527   4.031   8.433   1.537 -1.4461  1.7921 -0.4246
  975MOL0     H34528   4.048   8.311   1.341 -1.2536  0.8386  0.1870
  975MOL0     H34529   3.897   8.216   1.388  0.2213 -1.3407 -0.9321
  975MOL0     H34530   3.193   8.900   1.798 -0.3793 -2.8296 -0.6855
  975MOL0     H34531   3.043   9.098   1.806 -1.5049 -1.4544 -0.3984
  975MOL0     H34532   2.779   9.381   1.599 -0.8658  1.5859 -1.8811
  975MOL0     H34533   2.637   9.572   1.607 -4.7085  1.0235 -1.0397
  975MOL0     H34534   1.683   9.338   1.930 -0.9874  2.5259 -5.2897
  975MOL0     H34535   1.614   9.151   1.768  1.0011  4.8148 -0.9909
  975MOL0     H34536   1.506   8.732   1.535  1.1195 -2.0311 -0.3826
  975MOL0     H34537   1.359   8.523   1.450 -1.8746 -3.0143  1.5868
  975MOL0     H34538   0.963   8.495   1.606  2.6936  2.3154 -1.0885
  975MOL0     H34539   0.978   8.345   1.504 -0.4214 -0.5183 -0.2616
  975MOL0     H34540   0.988   8.284   1.733 -1.1475  2.7827 -0.4434
  975MOL0     H34541   1.132   8.385   1.765  0.6867  0.3381  0.7057
  975MOL0     H34542   1.288   8.265   1.634 -0.3107  1.4936  3.2754
  975MOL0     H34543   1.204   8.170   1.744  0.5933 -0.0249 -0.1440
  975MOL0     H34544   1.135   8.153   1.449 -4.2065 -2.7944 -0.8723
  975MOL0     H34545   1.039   8.092   1.589  1.5928  1.5211  3.4798
  975MOL0     H34546   1.366   7.828   1.608  2.9010  2.5281  2.3903
  975MOL0     H34547   1.055   8.644   1.689 -0.6428  3.7028 -0.6894
  975MOL0     H34548   1.159   8.983   1.722 -0.8040 -1.7796 -3.2835
  975MOL0     H34549   1.040   8.862   1.753 -0.2520  2.9900 -0.3766
  975MOL0     H34550   1.172   8.887   1.874 -0.1107  5.2779  1.3760
  976MOL0     O34551   0.193   2.415   1.245 -0.2139 -0.2739  0.3209
  976MOL0     C34552   0.280   2.403   1.332  0.5204  0.5363 -0.0800
  976MOL0     O34553   0.264   2.430   1.466  0.3393  0.6589  0.5588
  976MOL0     C34554   0.138   2.424   1.520 -0.4075 -0.4070  0.9948
  976MOL0     C34555   0.094   2.546   1.565  0.2454 -0.2870 -0.6064
  976MOL0     C34556  -0.042   2.561   1.606  0.4880  0.4726  0.1384
  976MOL0     C34557  -0.123   2.447   1.617 -0.0724  0.6598  0.1190
  976MOL0     O34558  -0.247   2.441   1.681  0.0251  0.4903 -0.1210
  976MOL0     C34559  -0.299   2.567   1.726 -0.3647  0.9447 -0.3416
  976MOL0     C34560  -0.273   2.605   1.870  0.3779  0.9690 -0.3016
  976MOL0     C34561  -0.257   2.753   1.896 -0.4874  0.4547  0.3195
  976MOL0     C34562  -0.267   2.782   2.047  0.4884  0.3654  0.1071
  976MOL0     C34563  -0.227   2.922   2.108  0.4264 -0.8170 -0.1219
  976MOL0     C34564  -0.298   3.041   2.046 -0.1502 -0.1172  0.2423
  976MOL0     C34565  -0.414   3.092   2.140 -1.4735  0.6039  0.6965
  976MOL0     C34566  -0.492   3.206   2.082 -0.1180  0.0788 -0.9817
  976MOL0     N34567  -0.591   3.165   1.981 -0.3646  0.3491  0.7296
  976MOL0     C34568  -0.694   3.238   1.921  0.0122 -0.4401  0.6525
  976MOL0     C34569  -0.755   3.165   1.821  0.1136 -0.6471 -0.1417
  976MOL0     C34570  -0.859   3.209   1.732  0.3336 -0.5171 -0.1358
  976MOL0     C34571  -0.800   3.262   1.596  0.3701 -0.2974 -0.1198
  976MOL0     C34572  -0.916   3.280   1.483 -1.1539 -0.5540 -0.0911
  976MOL0     C34573  -1.034   3.358   1.529  1.3371 -0.5344 -0.2962
  976MOL0     O34574  -0.984   3.480   1.586 -0.6412 -0.2186  0.5592
  976MOL0     C34575  -1.035   3.549   1.696  0.8014 -0.4826 -0.1702
  976MOL0     C34576  -0.978   3.668   1.752 -0.1447 -0.1250 -0.2442
  976MOL0     C34577  -1.034   3.732   1.865  0.5893 -0.2737  0.6730
  976MOL0     C34578  -0.948   3.852   1.912  0.5986  0.2335  0.0331
  976MOL0     C34579  -1.152   3.683   1.932  0.5425  0.2411 -0.2767
  976MOL0     C34580  -1.226   3.738   2.048  0.0543 -0.8999  0.6363
  976MOL0     O34581  -1.182   3.854   2.104  0.0612  0.4856  0.4531
  976MOL0     C34582  -1.238   3.921   2.215 -0.1518  0.4215 -0.6071
  976MOL0     C34583  -1.203   4.056   2.239  0.2655  0.0227 -0.0154
  976MOL0     C34584  -1.241   4.109   2.361  0.4334 -0.1485 -0.2068
  976MOL0     C34585  -1.301   4.039   2.465 -0.0197  0.5171 -0.4919
  976MOL0     O34586  -1.340   4.094   2.591 -0.2458  0.2734  1.1791
  976MOL0     C34587  -1.339   4.235   2.603 -0.1079 -0.6155 -0.0587
  976MOL0     C34588  -1.378   4.271   2.747 -0.3179 -0.2892 -0.9227
  976MOL0     C34589  -1.292   4.372   2.808  0.2689 -1.0612  0.0194
  976MOL0     C34590  -1.280   4.502   2.725 -0.3635 -0.1068  0.5637
  976MOL0     C34591  -1.258   4.632   2.806 -0.0354 -0.4320 -0.4583
  976MOL0     C34592  -1.134   4.647   2.895 -0.6718  1.0634  0.3180
  976MOL0     C34593  -0.995   4.622   2.832  1.2486 -0.1645  1.3380
  976MOL0     C34594  -0.885   4.669   2.914 -0.4024 -0.7449  0.0666
  976MOL0    Cl34595  -0.845   4.542   3.034  0.1892 -0.4993  0.1770
  976MOL0     C34596  -1.342   3.911   2.446 -0.6790 -0.3037  0.9961
  976MOL0     C34597  -1.301   3.852   2.321  0.7621 -0.0291  0.2942
  976MOL0     O34598  -1.320   3.674   2.094 -0.1943  0.2122 -0.3411
  976MOL0     C34599  -1.212   3.574   1.869  0.1137 -0.0368  0.7997
  976MOL0     C34600  -1.159   3.520   1.749 -0.7334 -0.1069  0.9001
  976MOL0     N34601  -0.672   3.055   1.816 -0.2384  0.3235  0.6680
  976MOL0     N34602  -0.581   3.052   1.902 -0.7667 -0.1614 -0.0956
  976MOL0     C34603  -0.077   2.329   1.575 -1.1082 -1.0804  0.4471
  976MOL0     C34604   0.053   2.314   1.524  0.2929 -0.6453  0.6181
  976MOL0     C34605   0.424   2.382   1.297 -0.0560 -0.2895  1.1951
  976MOL0     C34606   0.503   2.310   1.380 -0.7666 -0.0837  0.5202
  976MOL0     C34607   0.629   2.260   1.336  1.0636 -0.4221 -0.0268
  976MOL0     C34608   0.672   2.269   1.199  0.4066 -0.9196 -0.8600
  976MOL0     O34609   0.793   2.223   1.155  0.2489  0.2083 -0.0712
  976MOL0     C34610   0.830   2.093   1.189  1.4778 -0.0112 -0.4651
  976MOL0     C34611   0.984   2.077   1.189  0.0330  0.1628  0.0562
  976MOL0     C34612   1.061   2.201   1.247 -0.0831  0.3502  0.1796
  976MOL0     C34613   1.039   2.219   1.392  0.8008 -0.3984  1.2840
  976MOL0     C34614   0.978   2.344   1.435  0.4843  0.6048 -0.1474
  976MOL0     C34615   0.916   2.438   1.464 -0.7317 -0.3871 -0.8995
  976MOL0     C34616   0.593   2.341   1.117  0.7814  0.4198  0.4568
  976MOL0     C34617   0.475   2.407   1.165  0.8330  1.3699  0.5670
  976MOL0     C34618   0.408   2.494   1.061  0.3549  1.0868  0.6882
  976MOL0     H34619   0.164   2.629   1.565 -0.2041  0.1324 -2.2255
  976MOL0     H34620  -0.071   2.657   1.647 -0.5995  0.3208 -0.2443
  976MOL0     H34621  -0.407   2.551   1.721 -0.3441  0.3028  0.8608
  976MOL0     H34622  -0.279   2.646   1.653 -1.9381 -0.5022 -2.4394
  976MOL0     H34623  -0.355   2.565   1.930 -2.2204  5.8242 -0.1567
  976MOL0     H34624  -0.193   2.544   1.913 -1.8437 -0.5762  1.9359
  976MOL0     H34625  -0.160   2.786   1.858 -0.6758  1.3158  0.5515
  976MOL0     H34626  -0.332   2.807   1.838 -0.5869 -0.0473 -0.0230
  976MOL0     H34627  -0.371   2.762   2.075  0.3128 -1.5493 -1.6470
  976MOL0     H34628  -0.194   2.712   2.089  2.7475  0.7574 -2.8182
  976MOL0     H34629  -0.120   2.938   2.090  0.0334  1.1978 -0.8958
  976MOL0     H34630  -0.240   2.924   2.216  2.4911 -1.5970  0.1900
  976MOL0     H34631  -0.214   3.111   2.038  1.2032 -1.6385  0.6871
  976MOL0     H34632  -0.347   3.020   1.950 -3.1728  0.2164  1.5741
  976MOL0     H34633  -0.375   3.126   2.237 -1.2464  1.8444  0.1888
  976MOL0     H34634  -0.488   3.014   2.158 -1.5672  0.5926  0.2725
  976MOL0     H34635  -0.544   3.252   2.167 -0.2438  0.8727 -1.4767
  976MOL0     H34636  -0.425   3.282   2.041  0.9755 -0.5455 -0.4147
  976MOL0     H34637  -0.722   3.340   1.945  2.0150 -0.0771  1.7396
  976MOL0     H34638  -0.929   3.273   1.787  2.6071  0.5767  1.6624
  976MOL0     H34639  -0.922   3.121   1.716 -1.2158  0.6833 -0.8479
  976MOL0     H34640  -0.749   3.358   1.605 -1.4743  0.8955 -1.8134
  976MOL0     H34641  -0.720   3.192   1.568  1.9556  1.2762  0.2964
  976MOL0     H34642  -0.899   3.331   1.387 -0.8433  2.0297  1.2296
  976MOL0     H34643  -0.931   3.176   1.454  2.6747 -1.4970  0.7093
  976MOL0     H34644  -1.097   3.375   1.441  0.9101 -3.7168 -0.7413
  976MOL0     H34645  -1.089   3.300   1.605  0.4516 -0.1232 -0.6037
  976MOL0     H34646  -0.889   3.701   1.698  0.3105  1.6799  1.4896
  976MOL0     H34647  -1.013   3.936   1.940  3.3501  2.4392  0.2932
  976MOL0     H34648  -0.879   3.880   1.832  0.4848  2.3747  0.6128
  976MOL0     H34649  -0.888   3.821   1.998  2.1594  2.6596 -0.0933
  976MOL0     H34650  -1.137   4.115   2.175  0.0800 -0.5241 -0.7340
  976MOL0     H34651  -1.219   4.214   2.379  0.7025 -0.3733  0.8320
  976MOL0     H34652  -1.238   4.273   2.582  0.2523  1.1167  3.9523
  976MOL0     H34653  -1.413   4.264   2.528 -0.7306 -0.7623  0.4984
  976MOL0     H34654  -1.481   4.306   2.750  0.2860  1.7058 -1.6940
  976MOL0     H34655  -1.369   4.178   2.805  1.7600  1.0756  1.1718
  976MOL0     H34656  -1.196   4.327   2.837 -2.2200 -6.3825  1.1519
  976MOL0     H34657  -1.329   4.408   2.904  1.6462 -0.4001  0.3370
  976MOL0     H34658  -1.380   4.513   2.683 -1.4874  0.6528  3.2063
  976MOL0     H34659  -1.206   4.490   2.645 -2.2477  0.3472 -1.3294
  976MOL0     H34660  -1.259   4.716   2.736 -3.4168 -0.0868 -0.1499
  976MOL0     H34661  -1.335   4.638   2.883  1.0610  0.5588  0.6020
  976MOL0     H34662  -1.127   4.575   2.977  7.8291 -0.3650 -0.7657
  976MOL0     H34663  -1.146   4.753   2.917 -1.1242  1.0954 -0.0588
  976MOL0     H34664  -1.003   4.664   2.732  2.8088 -1.1266  0.7797
  976MOL0     H34665  -0.981   4.516   2.811 -0.4564 -0.0430 -0.6970
  976MOL0     H34666  -0.893   4.762   2.971  0.1775 -3.0471  4.2807
  976MOL0     H34667  -0.802   4.689   2.845 -0.6469 -2.0938 -0.6570
  976MOL0     H34668  -1.395   3.852   2.520  2.0307 -2.4931  1.3324
  976MOL0     H34669  -1.355   3.759   2.302 -1.9882  1.5475 -0.0920
  976MOL0     H34670  -1.301   3.531   1.913  2.0423 -2.2435  2.8190
  976MOL0     H34671  -1.216   3.447   1.693 -0.6879 -1.1178  2.1035
  976MOL0     H34672  -0.140   2.241   1.577 -1.6401 -0.7184 -0.2280
  976MOL0     H34673   0.075   2.224   1.467  2.3731  1.2524 -1.7800
  976MOL0     H34674   0.476   2.300   1.484  1.0600 -0.9433  0.9621
  976MOL0     H34675   0.705   2.226   1.407  1.5435  0.0170 -0.3282
  976MOL0     H34676   0.781   2.075   1.286 -1.4707  2.4457 -1.3329
  976MOL0     H34677   0.785   2.026   1.115  1.4826  1.4916 -1.8798
  976MOL0     H34678   0.997   2.058   1.082  0.0257 -3.2312  0.5411
  976MOL0     H34679   1.013   1.989   1.247  4.7885 -0.0149 -2.1251
  976MOL0     H34680   1.169   2.186   1.243  0.1674  1.3894  2.0687
  976MOL0     H34681   1.035   2.293   1.194 -1.0321 -0.1470 -0.2496
  976MOL0     H34682   1.137   2.204   1.437  1.3712  0.0741  0.2366
  976MOL0     H34683   0.969   2.147   1.434 -1.6109  1.4465  0.6749
  976MOL0     H34684   0.848   2.516   1.490 -0.2949  0.1663 -1.3893
  976MOL0     H34685   0.620   2.348   1.012  0.2734 -1.1878  0.1842
  976MOL0     H34686   0.353   2.572   1.114  0.2559  1.6720 -0.2628
  976MOL0     H34687   0.471   2.555   0.996 -0.1651  0.2172 -0.6759
  976MOL0     H34688   0.343   2.442   0.990 -2.8633  2.3898  2.4592
  977MOL0     O34689   0.117   8.385   4.139  0.2622  0.0097 -0.9295
  977MOL0     C34690   0.093   8.270   4.101  0.0337  0.0733  0.6808
  977MOL0     O34691   0.159   8.204   4.001  0.5527  0.5847 -0.7894
  977MOL0     C34692   0.261   8.266   3.945  0.2623  0.1876 -0.2196
  977MOL0     C34693   0.243   8.393   3.884 -1.1556  0.5933 -0.5808
  977MOL0     C34694   0.352   8.462   3.834  1.0756 -0.9458 -0.6231
  977MOL0     C34695   0.471   8.399   3.818 -0.5429  0.4747 -0.4632
  977MOL0     O34696   0.571   8.471   3.766 -0.0452 -0.4290 -0.0948
  977MOL0     C34697   0.650   8.418   3.663  0.3247 -0.4058  0.6458
  977MOL0     C34698   0.766   8.520   3.650 -0.9745  0.0967 -0.0354
  977MOL0     C34699   0.875   8.507   3.768  0.4701  0.4079  0.2770
  977MOL0     C34700   0.973   8.626   3.758  0.5265  0.6110  0.0586
  977MOL0     C34701   1.085   8.633   3.880 -0.2862  0.0762  0.2977
  977MOL0     C34702   1.170   8.508   3.877 -1.1188  0.5455 -0.7920
  977MOL0     C34703   1.286   8.527   3.778 -0.6781 -0.5784  0.3137
  977MOL0     C34704   1.385   8.410   3.786  0.0210  0.3163 -0.0117
  977MOL0     N34705   1.436   8.368   3.658  0.2496 -0.2403 -0.0259
  977MOL0     C34706   1.507   8.441   3.567  0.3926  0.8234  1.1826
  977MOL0     C34707   1.545   8.349   3.474  0.5534  0.3583 -0.0196
  977MOL0     C34708   1.625   8.381   3.356  0.6663 -0.1913  0.2579
  977MOL0     C34709   1.645   8.275   3.245  0.1586  0.0188  0.5422
  977MOL0     C34710   1.730   8.329   3.133  0.3298 -0.5273 -0.3020
  977MOL0     C34711   1.664   8.421   3.037  0.2213 -0.0890  0.4419
  977MOL0     O34712   1.627   8.548   3.098 -0.4167  0.6118  0.6291
  977MOL0     C34713   1.550   8.645   3.038  0.3512 -0.1569  0.6488
  977MOL0     C34714   1.524   8.763   3.113 -0.5622  0.0823  0.7273
  977MOL0     C34715   1.461   8.871   3.058 -0.3424 -0.8997 -0.0031
  977MOL0     C34716   1.440   8.980   3.151 -0.1216 -1.2277  0.2285
  977MOL0     C34717   1.409   8.866   2.926  0.6119 -0.4986 -0.0977
  977MOL0     C34718   1.336   8.990   2.859  0.8850 -0.5105 -0.8984
  977MOL0     O34719   1.363   8.998   2.729 -0.1728 -0.0043  0.4093
  977MOL0     C34720   1.305   9.100   2.667 -0.2952 -0.2553 -0.0934
  977MOL0     C34721   1.386   9.220   2.661 -0.9734 -0.0569  0.4713
  977MOL0     C34722   1.340   9.321   2.575 -0.5835  1.0222 -0.3113
  977MOL0     C34723   1.225   9.320   2.506  0.0621  0.6430 -0.7129
  977MOL0     O34724   1.193   9.436   2.432 -0.2404 -0.2964 -0.9805
  977MOL0     C34725   1.064   9.445   2.367  0.0077  0.4354 -0.1838
  977MOL0     C34726   1.047   9.565   2.284  0.4859 -0.0538 -0.0132
  977MOL0     C34727   1.131   9.559   2.161  0.0728 -0.6372  0.1201
  977MOL0     C34728   1.141   9.696   2.088  0.1404  1.1136  0.0516
  977MOL0     C34729   1.160   9.670   1.937 -0.1334  0.5630  0.3680
  977MOL0     C34730   1.296   9.600   1.917  0.2468  1.1572  0.1746
  977MOL0     C34731   1.385   9.692   1.836 -0.4243  1.0624 -0.1015
  977MOL0     C34732   1.511   9.610   1.815 -1.2636 -0.8955  0.1291
  977MOL0    Cl34733   1.646   9.703   1.734  0.1052 -0.2044 -0.2350
  977MOL0     C34734   1.147   9.209   2.517  0.2800 -0.0816  0.0794
  977MOL0     C34735   1.187   9.094   2.592  0.8070 -1.0633  0.4929
  977MOL0     O34736   1.242   9.048   2.918 -0.3864  0.0732  1.0314
  977MOL0     C34737   1.426   8.751   2.854 -0.6615  0.8278  0.0636
  977MOL0     C34738   1.491   8.638   2.906 -1.0583  0.5244 -1.0098
  977MOL0     N34739   1.485   8.227   3.508 -0.1759  0.4351  0.5583
  977MOL0     N34740   1.422   8.239   3.607 -0.3630  0.8570  0.7592
  977MOL0     C34741   0.490   8.264   3.862 -0.1154 -0.1033 -0.4613
  977MOL0     C34742   0.379   8.198   3.920  0.2479 -0.8879 -1.0340
  977MOL0     C34743  -0.015   8.191   4.174 -1.6950  0.6955 -0.3448
  977MOL0     C34744  -0.052   8.071   4.118  0.4819  0.4956  0.8661
  977MOL0     C34745  -0.157   7.991   4.159 -0.2035 -0.8695 -0.3094
  977MOL0     C34746  -0.223   8.018   4.279  0.3526  0.5160 -0.5393
  977MOL0     O34747  -0.304   7.916   4.331  0.1085 -0.7968 -0.1275
  977MOL0     C34748  -0.369   7.930   4.459  0.4560  0.6081  0.6379
  977MOL0     C34749  -0.471   7.809   4.467  0.9975  0.3113  0.0380
  977MOL0     C34750  -0.594   7.823   4.368 -0.1424 -0.6000  0.3720
  977MOL0     C34751  -0.687   7.945   4.388 -0.1356  0.0412  0.9452
  977MOL0     C34752  -0.751   7.933   4.515  0.5162 -1.1184  0.0138
  977MOL0     C34753  -0.814   7.914   4.619  0.2272  0.4467 -0.0022
  977MOL0     C34754  -0.184   8.139   4.347  0.6402 -0.0548  1.2606
  977MOL0     C34755  -0.084   8.229   4.290  0.6142 -0.0550  0.0382
  977MOL0     C34756  -0.067   8.355   4.374  0.3806 -0.4180  0.1093
  977MOL0     H34757   0.147   8.442   3.892 -1.3146  0.0290  1.8919
  977MOL0     H34758   0.341   8.568   3.810  0.6161 -0.0280  3.0357
  977MOL0     H34759   0.591   8.412   3.572 -0.0934  4.3510  0.3821
  977MOL0     H34760   0.700   8.323   3.687  2.6780  0.8257  0.8627
  977MOL0     H34761   0.832   8.505   3.565  3.0845  4.3073  1.9605
  977MOL0     H34762   0.743   8.626   3.656  3.0439  1.1014  0.3803
  977MOL0     H34763   0.818   8.516   3.861  0.3099  1.0440  0.1196
  977MOL0     H34764   0.929   8.412   3.768  1.2301  0.8292  0.6691
  977MOL0     H34765   1.019   8.618   3.659 -0.5527  1.8504 -0.5702
  977MOL0     H34766   0.925   8.724   3.763 -0.1416  0.3311 -0.6073
  977MOL0     H34767   1.036   8.639   3.978  2.2735  0.7987  1.5999
  977MOL0     H34768   1.154   8.717   3.878  0.5989 -0.6426 -0.8075
  977MOL0     H34769   1.215   8.499   3.976  3.0952 -0.3068 -2.5812
  977MOL0     H34770   1.106   8.427   3.842 -2.8901  3.3817 -4.9036
  977MOL0     H34771   1.344   8.616   3.803 -1.5585 -0.2757  1.3464
  977MOL0     H34772   1.244   8.533   3.677  0.1166  0.0458  0.0114
  977MOL0     H34773   1.475   8.456   3.828  0.9283 -0.6623 -0.8233
  977MOL0     H34774   1.354   8.324   3.846  0.3954 -1.1771 -1.8500
  977MOL0     H34775   1.533   8.546   3.576  4.2102  0.4189 -1.9494
  977MOL0     H34776   1.728   8.405   3.387  0.6786 -0.5620  0.5101
  977MOL0     H34777   1.567   8.468   3.323  0.7452 -1.0151 -2.2588
  977MOL0     H34778   1.689   8.189   3.296  1.2376  0.4744  0.3879
  977MOL0     H34779   1.550   8.258   3.193  0.3465  0.9330 -0.1183
  977MOL0     H34780   1.812   8.384   3.179  1.4893 -1.5278 -1.1366
  977MOL0     H34781   1.764   8.244   3.074 -2.9397 -0.3272 -2.7879
  977MOL0     H34782   1.728   8.431   2.949 -2.1290  2.0280 -1.1605
  977MOL0     H34783   1.577   8.367   2.998  1.5412 -1.3284 -0.9877
  977MOL0     H34784   1.554   8.756   3.217  3.8734 -3.4231 -0.4564
  977MOL0     H34785   1.472   9.074   3.106 -2.9961  0.3425  1.1969
  977MOL0     H34786   1.499   8.974   3.244  0.6036  2.9649  0.2550
  977MOL0     H34787   1.337   9.001   3.181 -0.2402  0.4751 -1.1704
  977MOL0     H34788   1.487   9.223   2.703 -0.9909 -0.8818  0.5818
  977MOL0     H34789   1.400   9.411   2.578  0.3216  0.4133  0.5952
  977MOL0     H34790   1.051   9.365   2.294 -4.2910  0.6750  0.0871
  977MOL0     H34791   0.981   9.435   2.437  0.0963 -0.1073 -0.1540
  977MOL0     H34792   0.945   9.579   2.247  0.7976  2.6715 -0.0658
  977MOL0     H34793   1.062   9.656   2.343 -0.0063  0.7525 -1.1032
  977MOL0     H34794   1.104   9.477   2.094  3.8618 -1.3470 -0.7649
  977MOL0     H34795   1.230   9.521   2.187  0.0039 -1.5696 -0.9095
  977MOL0     H34796   1.225   9.753   2.128  1.3918 -1.0070  0.6030
  977MOL0     H34797   1.057   9.762   2.109  1.8038  3.7634 -0.9911
  977MOL0     H34798   1.074   9.628   1.883  1.9778  0.2446 -3.0758
  977MOL0     H34799   1.168   9.766   1.884 -0.6630  0.1442 -0.5062
  977MOL0     H34800   1.284   9.517   1.847  0.8971  2.4907 -1.5886
  977MOL0     H34801   1.338   9.569   2.013 -2.3817 -1.7198  0.5974
  977MOL0     H34802   1.407   9.780   1.897  1.3870 -1.7498  3.7115
  977MOL0     H34803   1.341   9.711   1.738  2.1239  2.4930 -1.0671
  977MOL0     H34804   1.483   9.537   1.739  0.9316 -0.9517 -0.7069
  977MOL0     H34805   1.545   9.560   1.906  0.6902 -1.2573 -0.7397
  977MOL0     H34806   1.054   9.208   2.461 -1.2137 -2.9164  2.3482
  977MOL0     H34807   1.135   9.003   2.566  1.4108 -1.7059  1.4791
  977MOL0     H34808   1.393   8.746   2.751  0.1281  3.1182 -0.3625
  977MOL0     H34809   1.495   8.542   2.856 -1.8870 -0.8142  1.3083
  977MOL0     H34810   0.589   8.224   3.844  1.7151  4.8145 -3.5709
  977MOL0     H34811   0.377   8.094   3.950  0.2580  0.0600  2.6720
  977MOL0     H34812   0.005   8.039   4.032  0.6392  0.2571  1.0554
  977MOL0     H34813  -0.195   7.902   4.108 -0.7976 -0.1846 -1.0925
  977MOL0     H34814  -0.299   7.931   4.542 -0.3601 -0.7795  1.3841
  977MOL0     H34815  -0.413   8.030   4.472 -1.8086 -0.6118  3.6453
  977MOL0     H34816  -0.512   7.801   4.568 -2.0116  0.3854 -1.0908
  977MOL0     H34817  -0.427   7.710   4.450  0.0268 -0.0231 -0.5636
  977MOL0     H34818  -0.540   7.822   4.272 -0.6762 -0.9901  0.0705
  977MOL0     H34819  -0.654   7.732   4.379 -1.8919  0.6937  1.8466
  977MOL0     H34820  -0.755   7.954   4.303  0.5295 -1.6795  0.1763
  977MOL0     H34821  -0.624   8.034   4.380  0.6367 -0.6392 -1.7428
  977MOL0     H34822  -0.870   7.903   4.710  1.0370 -0.4268  0.4030
  977MOL0     H34823  -0.229   8.161   4.443 -0.5352  0.6572  0.5679
  977MOL0     H34824  -0.123   8.363   4.468  2.3195 -1.5251  1.4434
  977MOL0     H34825   0.039   8.351   4.403 -0.1281 -1.5076  1.9274
  977MOL0     H34826  -0.083   8.449   4.320 -1.8556 -1.0827 -0.4755
  978MOL0     O34827   5.392   5.566   5.520  0.4442  0.3047 -0.8688
  978MOL0     C34828   5.317   5.545   5.613  0.7020 -0.1748 -0.5171
  978MOL0     O34829   5.182   5.502   5.603 -0.5907 -0.2823  0.3178
  978MOL0     C34830   5.118   5.510   5.479 -0.1214 -0.4048 -0.8208
  978MOL0     C34831   5.136   5.421   5.376 -0.9126  0.4156  0.6776
  978MOL0     C34832   5.092   5.447   5.245 -0.4795  0.7634  0.4835
  978MOL0     C34833   5.023   5.566   5.214 -0.3118 -0.5897 -0.2746
  978MOL0     O34834   4.987   5.609   5.091  0.7509  1.1183  0.1947
  978MOL0     C34835   4.961   5.508   4.992 -0.3767 -0.4320 -0.2085
  978MOL0     C34836   5.065   5.497   4.880  0.0399  0.1496  0.8251
  978MOL0     C34837   5.075   5.612   4.779 -0.5887  0.6133  0.9293
  978MOL0     C34838   4.934   5.620   4.700 -0.3503  0.1363  0.6098
  978MOL0     C34839   4.927   5.728   4.603 -0.2922  0.9184  0.7739
  978MOL0     C34840   5.037   5.706   4.495 -0.1045 -0.2567  1.1579
  978MOL0     C34841   5.007   5.802   4.376  0.5372 -1.1826 -0.1375
  978MOL0     C34842   5.054   5.946   4.415 -1.0100 -0.9284  0.6039
  978MOL0     N34843   5.185   5.969   4.475  0.8010 -0.2318  0.6686
  978MOL0     C34844   5.296   5.912   4.435 -0.2424 -0.0644  0.6019
  978MOL0     C34845   5.400   5.958   4.517 -0.3425  0.7799  0.0262
  978MOL0     C34846   5.539   5.904   4.530  0.0119  0.4575 -0.0969
  978MOL0     C34847   5.553   5.804   4.649  0.6972  0.1271 -0.3612
  978MOL0     C34848   5.477   5.678   4.617  0.2842  0.3919  0.3830
  978MOL0     C34849   5.473   5.586   4.740  0.3313 -1.3184 -0.0542
  978MOL0     O34850   5.427   5.458   4.707 -0.6950  0.2519  0.0313
  978MOL0     C34851   5.373   5.377   4.810 -0.0542 -0.0957  0.2869
  978MOL0     C34852   5.402   5.396   4.948 -0.8265  0.2368  1.3692
  978MOL0     C34853   5.365   5.306   5.053 -0.3377 -0.4957 -0.4348
  978MOL0     C34854   5.433   5.332   5.188 -0.6949  0.6403  1.0727
  978MOL0     C34855   5.295   5.188   5.018 -0.4071  1.1904  0.8947
  978MOL0     C34856   5.249   5.081   5.112  0.6602  0.6065 -0.1469
  978MOL0     O34857   5.242   4.958   5.058 -0.2614  0.0752  0.7397
  978MOL0     C34858   5.207   4.844   5.130  0.4535 -0.5510  0.4358
  978MOL0     C34859   5.282   4.736   5.090 -0.0003  0.6602  0.2331
  978MOL0     C34860   5.249   4.606   5.127 -0.1612 -0.0566  0.5101
  978MOL0     C34861   5.128   4.578   5.206 -0.1534 -0.0837 -0.0687
  978MOL0     O34862   5.079   4.455   5.226 -0.0238 -0.6886 -0.5825
  978MOL0     C34863   5.087   4.369   5.112  0.8289  0.2074 -0.7085
  978MOL0     C34864   4.984   4.423   5.006  0.1874 -0.4293  0.0590
  978MOL0     C34865   4.845   4.433   5.067  0.2265  0.5722 -0.2000
  978MOL0     C34866   4.757   4.495   4.960 -0.3604  0.7036 -0.1894
  978MOL0     C34867   4.748   4.644   4.960 -0.4661 -0.5898 -0.2813
  978MOL0     C34868   4.643   4.701   4.861 -0.0045  0.1367 -0.1293
  978MOL0     C34869   4.700   4.720   4.714 -0.1498 -0.0189 -0.4050
  978MOL0     C34870   4.588   4.742   4.622  0.0450  0.1401  0.5677
  978MOL0    Cl34871   4.487   4.883   4.651 -0.1170 -0.0176  0.2459
  978MOL0     C34872   5.056   4.688   5.253 -0.5838 -0.7103 -0.0353
  978MOL0     C34873   5.104   4.822   5.221 -0.4364  0.4916 -0.4311
  978MOL0     O34874   5.223   5.114   5.229 -0.0638 -0.3929 -0.7363
  978MOL0     C34875   5.264   5.175   4.879 -0.7223  0.4985  0.1427
  978MOL0     C34876   5.304   5.266   4.779  0.2462 -0.2512 -0.3166
  978MOL0     N34877   5.341   6.041   4.608  0.1032  0.8205 -0.5430
  978MOL0     N34878   5.214   6.051   4.583 -0.2159  0.7570 -0.4495
  978MOL0     C34879   5.009   5.660   5.323  0.1774  0.0340  0.9315
  978MOL0     C34880   5.038   5.625   5.452  0.3658 -0.8054  0.0846
  978MOL0     C34881   5.360   5.573   5.756  0.1503  0.2959  0.2930
  978MOL0     C34882   5.264   5.566   5.857 -0.2628  0.0212 -0.7267
  978MOL0     C34883   5.307   5.570   5.988 -0.2393 -1.1169 -0.2585
  978MOL0     C34884   5.431   5.568   6.031 -1.0351  0.8079  0.3745
  978MOL0     O34885   5.456   5.561   6.167 -0.1096  0.2232  0.4305
  978MOL0     C34886   5.578   5.608   6.235  0.5326  1.4968  0.1316
  978MOL0     C34887   5.553   5.583   6.385  0.6477  0.4170 -0.8957
  978MOL0     C34888   5.677   5.583   6.477  0.4887 -0.4640  1.3146
  978MOL0     C34889   5.650   5.502   6.609 -0.7544  0.6790  0.6377
  978MOL0     C34890   5.543   5.558   6.686 -0.3151  0.1540  0.2403
  978MOL0     C34891   5.453   5.616   6.747 -0.0605 -0.7183  0.5976
  978MOL0     C34892   5.534   5.571   5.936  0.5448  1.1353 -0.4663
  978MOL0     C34893   5.497   5.557   5.797  0.4927 -0.1564 -0.8851
  978MOL0     C34894   5.609   5.546   5.712 -0.2346 -0.1242  0.0193
  978MOL0     H34895   5.182   5.324   5.396 -0.6797  0.3599 -0.1237
  978MOL0     H34896   5.095   5.360   5.181 -2.0822  1.8829 -1.2485
  978MOL0     H34897   4.868   5.541   4.945  0.7842  1.3052 -1.4405
  978MOL0     H34898   4.962   5.405   5.027  0.7937 -1.4117 -2.8566
  978MOL0     H34899   5.160   5.469   4.927  0.2947 -0.5187 -0.0660
  978MOL0     H34900   5.043   5.409   4.819  3.0551  0.5070 -0.9405
  978MOL0     H34901   5.089   5.707   4.831  0.7761  1.1466 -0.3358
  978MOL0     H34902   5.165   5.595   4.719  1.3194  2.7995  2.9794
  978MOL0     H34903   4.925   5.522   4.653  2.4034 -1.0121  2.2697
  978MOL0     H34904   4.845   5.630   4.763 -0.4976 -0.5681  0.5216
  978MOL0     H34905   4.944   5.819   4.661 -0.4475  0.6473  1.2566
  978MOL0     H34906   4.833   5.734   4.547  0.8652 -0.3356 -1.4618
  978MOL0     H34907   5.137   5.732   4.530  0.3147 -0.3192  0.0252
  978MOL0     H34908   5.032   5.603   4.458 -1.3940  0.2753 -0.2749
  978MOL0     H34909   4.899   5.806   4.361  0.0732  1.2461  2.8539
  978MOL0     H34910   5.052   5.768   4.283 -1.5587 -3.4367 -0.4418
  978MOL0     H34911   5.056   6.010   4.326  1.3115  2.4081  2.8253
  978MOL0     H34912   4.973   5.980   4.480 -0.2889  0.3013  0.8946
  978MOL0     H34913   5.309   5.861   4.339 -0.7813 -1.6700  1.3418
  978MOL0     H34914   5.604   5.987   4.560  0.7954 -0.0491 -0.4004
  978MOL0     H34915   5.572   5.865   4.434 -0.6759 -4.0961  1.2844
  978MOL0     H34916   5.659   5.791   4.673  0.6043  0.2447  0.1299
  978MOL0     H34917   5.513   5.851   4.740  0.9401 -2.6597  1.2971
  978MOL0     H34918   5.376   5.707   4.589  0.1936  0.7043  1.0118
  978MOL0     H34919   5.520   5.622   4.533 -3.2633 -0.9145 -0.7178
  978MOL0     H34920   5.570   5.588   4.790 -0.5368  1.2069  1.7615
  978MOL0     H34921   5.410   5.650   4.802  2.3036 -0.5805  1.2726
  978MOL0     H34922   5.460   5.486   4.966 -0.9334  1.1893 -2.2412
  978MOL0     H34923   5.373   5.298   5.273  0.4011 -1.1548  1.1880
  978MOL0     H34924   5.460   5.437   5.181 -1.0878  0.6545 -0.6636
  978MOL0     H34925   5.514   5.258   5.189 -1.4922 -0.8685 -4.9470
  978MOL0     H34926   5.373   4.753   5.033  0.8986  0.4109  1.5324
  978MOL0     H34927   5.313   4.524   5.097 -1.3712 -0.3263 -1.5341
  978MOL0     H34928   5.184   4.356   5.064  0.2285  3.4477 -3.1943
  978MOL0     H34929   5.050   4.270   5.141  0.3753  0.8198  0.9540
  978MOL0     H34930   5.027   4.514   4.961 -3.2539  0.5444 -1.5997
  978MOL0     H34931   4.972   4.353   4.923 -1.5568  0.5369 -0.5666
  978MOL0     H34932   4.833   4.484   5.163 -1.2596  2.0396 -1.1017
  978MOL0     H34933   4.820   4.330   5.093  3.1800 -0.8146 -2.2355
  978MOL0     H34934   4.653   4.464   4.979  0.3299 -1.6535  0.0014
  978MOL0     H34935   4.788   4.455   4.863  5.7985 -0.4458  1.8515
  978MOL0     H34936   4.735   4.681   5.062 -1.7201 -3.9493  0.8997
  978MOL0     H34937   4.849   4.677   4.934 -0.2587  1.8098  2.9755
  978MOL0     H34938   4.608   4.795   4.904 -2.0127  2.4084 -5.8450
  978MOL0     H34939   4.560   4.629   4.862  1.6169 -1.9703 -2.7230
  978MOL0     H34940   4.751   4.627   4.687  2.2040  1.3544 -0.9537
  978MOL0     H34941   4.770   4.803   4.709 -0.5245  0.4354  1.2785
  978MOL0     H34942   4.526   4.654   4.641  1.4103 -0.5664  2.0149
  978MOL0     H34943   4.628   4.733   4.521  1.0777  2.0978  0.7523
  978MOL0     H34944   4.969   4.680   5.319 -0.7499  0.0248 -0.1544
  978MOL0     H34945   5.058   4.908   5.267 -0.1661 -0.3348  1.4825
  978MOL0     H34946   5.215   5.083   4.847 -0.5886 -0.9650  3.6947
  978MOL0     H34947   5.295   5.240   4.675 -3.7215  2.1450 -0.7856
  978MOL0     H34948   4.955   5.753   5.304  1.5228  0.5229 -0.7541
  978MOL0     H34949   5.001   5.689   5.532 -1.5194  0.3539 -1.6215
  978MOL0     H34950   5.157   5.567   5.844 -0.8061 -1.3598  2.5900
  978MOL0     H34951   5.230   5.563   6.065  2.2223 -1.6038  2.3495
  978MOL0     H34952   5.663   5.549   6.202 -0.2912  0.0843  0.4569
  978MOL0     H34953   5.602   5.710   6.203  1.8933  0.5212 -2.1790
  978MOL0     H34954   5.508   5.484   6.397  2.2745 -0.2242  0.4750
  978MOL0     H34955   5.489   5.665   6.419  0.2080 -0.2219 -0.1575
  978MOL0     H34956   5.755   5.528   6.424 -0.7268  0.9842 -2.3071
  978MOL0     H34957   5.689   5.691   6.492 -0.5880  0.2630 -2.2648
  978MOL0     H34958   5.741   5.518   6.668  1.2678 -1.0273 -1.7946
  978MOL0     H34959   5.635   5.395   6.592  1.4194  0.1181  1.8445
  978MOL0     H34960   5.384   5.679   6.800 -0.6283  4.4013 -5.1809
  978MOL0     H34961   5.631   5.601   5.973  1.3285 -1.7803  0.0872
  978MOL0     H34962   5.613   5.638   5.653  3.3564  1.0022  1.7344
  978MOL0     H34963   5.703   5.546   5.768  0.1334  0.0603 -0.5883
  978MOL0     H34964   5.606   5.457   5.648 -0.6041 -0.8259  0.9908
  979MOL0     O34965   5.518   3.854   3.019  0.2411 -0.1675  0.7379
  979MOL0     C34966   5.570   3.775   2.934  0.3253 -0.8577 -0.7308
  979MOL0     O34967   5.505   3.694   2.850  0.8614  0.1274  0.1296
  979MOL0     C34968   5.365   3.698   2.860 -0.5063 -0.2956  0.6195
  979MOL0     C34969   5.294   3.802   2.797 -1.2462  0.1805  0.2833
  979MOL0     C34970   5.157   3.801   2.799  0.8137  0.9993  0.8499
  979MOL0     C34971   5.090   3.703   2.862  0.5608 -0.2748 -0.2677
  979MOL0     O34972   4.955   3.707   2.855 -0.8170 -0.4456  0.3356
  979MOL0     C34973   4.881   3.587   2.888  0.7869 -0.6122 -0.2220
  979MOL0     C34974   4.732   3.608   2.864  0.1779  0.1382  0.0065
  979MOL0     C34975   4.669   3.729   2.941  0.3060  0.4114 -0.0075
  979MOL0     C34976   4.629   3.687   3.079  0.4707  0.4969 -0.1680
  979MOL0     C34977   4.572   3.803   3.155 -0.2921  0.1442 -0.3420
  979MOL0     C34978   4.531   3.759   3.302 -0.0770  0.4709 -0.3980
  979MOL0     C34979   4.511   3.877   3.402  0.4256  0.2753  0.1767
  979MOL0     C34980   4.435   4.007   3.358 -0.0663 -0.4009 -0.0585
  979MOL0     N34981   4.291   3.981   3.333 -0.8249  0.8300 -0.3433
  979MOL0     C34982   4.223   3.978   3.211  0.7294  0.9761  0.8507
  979MOL0     C34983   4.112   3.909   3.229  0.5102 -0.3371 -0.1994
  979MOL0     C34984   3.996   3.901   3.136  0.4923  0.4535  0.5575
  979MOL0     C34985   3.913   3.770   3.124  0.4602  0.0483  0.9467
  979MOL0     C34986   3.827   3.730   3.253 -0.0924 -0.6817  0.1397
  979MOL0     C34987   3.765   3.588   3.244  0.0685 -0.5010 -0.4465
  979MOL0     O34988   3.869   3.481   3.207  0.1313 -0.2418 -0.1075
  979MOL0     C34989   3.923   3.405   3.308  0.6414  0.1161  1.0317
  979MOL0     C34990   3.907   3.426   3.441 -0.1630 -1.1429 -0.4744
  979MOL0     C34991   3.963   3.346   3.542 -0.6550 -0.0621 -0.6972
  979MOL0     C34992   3.945   3.396   3.682 -0.0600 -0.1403  0.6545
  979MOL0     C34993   4.045   3.239   3.509  0.1744  0.1365 -0.0930
  979MOL0     C34994   4.112   3.151   3.613 -1.2109 -0.6883 -0.5411
  979MOL0     O34995   4.135   3.025   3.578  0.4277  0.5716 -0.2411
  979MOL0     C34996   4.229   2.957   3.648  0.0356 -0.8648 -0.1473
  979MOL0     C34997   4.365   2.980   3.631 -0.4042 -0.8165 -0.6059
  979MOL0     C34998   4.458   2.922   3.720  0.6853  0.6236 -0.3056
  979MOL0     C34999   4.409   2.841   3.827 -0.0761  0.0236 -0.0126
  979MOL0     O35000   4.489   2.793   3.930  0.9264  0.2281 -0.3240
  979MOL0     C35001   4.623   2.749   3.912  0.2253 -0.0625  0.6976
  979MOL0     C35002   4.688   2.660   4.020 -0.8911 -0.3847  0.2160
  979MOL0     C35003   4.727   2.735   4.144 -0.9435 -0.1486 -0.4344
  979MOL0     C35004   4.854   2.677   4.204  0.3606 -0.0317  0.3657
  979MOL0     C35005   4.906   2.746   4.329 -0.7637  0.6884 -0.3566
  979MOL0     C35006   5.053   2.707   4.364  0.3427  0.4061  0.9650
  979MOL0     C35007   5.108   2.833   4.436  0.2427  0.2123 -0.2568
  979MOL0     C35008   5.261   2.812   4.456  0.0318 -0.0365 -0.8554
  979MOL0    Cl35009   5.370   2.875   4.322  0.1392  0.1702  0.2334
  979MOL0     C35010   4.275   2.805   3.829 -0.0570 -0.4722  0.1222
  979MOL0     C35011   4.187   2.854   3.737  0.0293 -0.4347 -0.2622
  979MOL0     O35012   4.149   3.207   3.720 -1.1360 -0.5803 -0.3869
  979MOL0     C35013   4.060   3.217   3.375 -0.1083 -0.0254  0.0737
  979MOL0     C35014   4.007   3.300   3.281  0.5094 -0.0507  0.5120
  979MOL0     N35015   4.109   3.879   3.361  0.5707  0.5675  0.4117
  979MOL0     N35016   4.216   3.917   3.419 -0.3266  0.1817  0.2348
  979MOL0     C35017   5.160   3.593   2.926  0.8131 -0.7513  0.5608
  979MOL0     C35018   5.301   3.591   2.924 -0.0286  1.1586 -0.1261
  979MOL0     C35019   5.719   3.769   2.949  0.1897  0.1287 -0.6711
  979MOL0     C35020   5.796   3.889   2.981  0.8327  0.1707  0.1809
  979MOL0     C35021   5.933   3.885   3.016 -1.1151 -0.2692  1.0861
  979MOL0     C35022   5.998   3.758   3.006 -0.8183  0.0081  0.0384
  979MOL0     O35023   6.135   3.731   3.039  0.1620 -0.1130 -0.7468
  979MOL0     C35024   6.228   3.846   3.032  0.6781  0.8336 -0.0968
  979MOL0     C35025   6.312   3.837   2.911 -0.0833  0.2147  0.5913
  979MOL0     C35026   6.232   3.889   2.778 -0.7745 -0.4012  0.0752
  979MOL0     C35027   6.320   3.880   2.651  0.7343  0.0850 -0.3499
  979MOL0     C35028   6.418   3.991   2.656 -0.1530 -0.4864 -0.2139
  979MOL0     C35029   6.491   4.093   2.633 -0.2807  0.5829 -0.2821
  979MOL0     C35030   5.930   3.644   2.972  0.5634 -0.0049  0.2312
  979MOL0     C35031   5.794   3.645   2.952  0.1682 -0.5257  0.2741
  979MOL0     C35032   5.736   3.504   2.930 -0.3062  0.0079  0.2181
  979MOL0     H35033   5.358   3.863   2.734 -0.3691  0.2003  1.1741
  979MOL0     H35034   5.107   3.888   2.758 -3.0527 -1.4365 -0.1054
  979MOL0     H35035   4.900   3.553   2.991  0.3822  0.8653  0.3608
  979MOL0     H35036   4.917   3.510   2.819 -0.1529 -0.5271 -0.8198
  979MOL0     H35037   4.726   3.636   2.759  1.5981  0.2295 -0.0622
  979MOL0     H35038   4.673   3.516   2.878  0.9356 -0.2910  0.4558
  979MOL0     H35039   4.732   3.818   2.946  0.7264  0.2072 -1.2813
  979MOL0     H35040   4.577   3.762   2.892 -0.8788 -3.3997 -0.6906
  979MOL0     H35041   4.554   3.608   3.071  0.6777  0.3123 -0.2699
  979MOL0     H35042   4.719   3.642   3.122 -0.1592 -0.0948  0.5718
  979MOL0     H35043   4.483   3.839   3.102 -0.5408  0.0742  0.0212
  979MOL0     H35044   4.643   3.886   3.167 -0.3703  0.0077  1.3591
  979MOL0     H35045   4.442   3.695   3.308  1.3619 -1.5432  0.5079
  979MOL0     H35046   4.624   3.713   3.335  0.6708  0.2413 -2.6371
  979MOL0     H35047   4.615   3.901   3.424  0.8202 -1.8051  0.8510
  979MOL0     H35048   4.476   3.822   3.490 -0.4013  1.9207  0.9190
  979MOL0     H35049   4.444   4.091   3.428  0.9641  2.0479 -2.9112
  979MOL0     H35050   4.475   4.058   3.270  2.8550  3.8591  3.2981
  979MOL0     H35051   4.259   4.024   3.119 -1.1868  2.2114  0.6734
  979MOL0     H35052   4.023   3.930   3.034 -1.6135  0.5351 -0.0381
  979MOL0     H35053   3.926   3.981   3.161 -1.3011  0.1986 -2.9130
  979MOL0     H35054   3.838   3.784   3.046 -0.2331 -0.0610  1.5797
  979MOL0     H35055   3.988   3.697   3.091  0.6771  0.2748  0.9380
  979MOL0     H35056   3.884   3.746   3.345  1.4676 -0.5265 -0.8158
  979MOL0     H35057   3.739   3.795   3.251  0.7281  0.4485  0.0854
  979MOL0     H35058   3.708   3.577   3.336  0.8959  0.4951  0.2158
  979MOL0     H35059   3.689   3.590   3.166 -1.6102  0.4787  1.1450
  979MOL0     H35060   3.851   3.512   3.477  0.4794  0.5679 -3.2082
  979MOL0     H35061   3.928   3.315   3.753 -1.2439  0.2293  0.8003
  979MOL0     H35062   3.872   3.476   3.696 -0.4981 -0.5926  1.0000
  979MOL0     H35063   4.043   3.434   3.715  0.1846 -1.3943  1.4482
  979MOL0     H35064   4.412   3.038   3.552  1.2009 -1.9414 -0.5241
  979MOL0     H35065   4.562   2.953   3.715  0.3550  1.5296 -2.7849
  979MOL0     H35066   4.610   2.684   3.824 -0.1793 -3.2392  2.9472
  979MOL0     H35067   4.688   2.831   3.881 -0.6100  0.1347 -0.6088
  979MOL0     H35068   4.607   2.591   4.045 -1.1858 -1.4847 -3.2815
  979MOL0     H35069   4.773   2.605   3.979 -1.4770  0.0651 -1.6835
  979MOL0     H35070   4.640   2.712   4.207 -0.1175  2.1438  1.6880
  979MOL0     H35071   4.733   2.844   4.145  2.5049 -0.1825  2.0716
  979MOL0     H35072   4.926   2.686   4.123  0.8966 -1.0842  0.7140
  979MOL0     H35073   4.828   2.573   4.222 -0.4145 -0.2341 -1.6319
  979MOL0     H35074   4.896   2.853   4.309 -0.5390  0.8239  0.2412
  979MOL0     H35075   4.841   2.735   4.416 -0.9758  0.2958 -0.5661
  979MOL0     H35076   5.119   2.688   4.279 -0.8097 -1.7193  0.4868
  979MOL0     H35077   5.055   2.623   4.434  1.1731 -0.8431 -0.5090
  979MOL0     H35078   5.066   2.845   4.536  0.8476 -1.0591  0.1613
  979MOL0     H35079   5.100   2.927   4.379  3.4704  0.0587 -1.1812
  979MOL0     H35080   5.302   2.715   4.488 -1.4732  0.0552  1.6062
  979MOL0     H35081   5.279   2.861   4.552 -0.7720 -0.1521 -0.6413
  979MOL0     H35082   4.238   2.736   3.904 -2.4395  1.4608  0.8798
  979MOL0     H35083   4.084   2.820   3.741 -0.5563  1.1022 -1.4127
  979MOL0     H35084   4.115   3.137   3.326  1.4828  1.5811 -0.8714
  979MOL0     H35085   4.017   3.282   3.174 -3.1732 -0.2944  0.0797
  979MOL0     H35086   5.101   3.525   2.986 -1.1860 -0.4322 -0.9428
  979MOL0     H35087   5.357   3.502   2.953 -0.8175  0.1320 -1.5920
  979MOL0     H35088   5.728   3.974   2.993  1.0092  0.1125  1.8456
  979MOL0     H35089   5.987   3.974   3.046  1.7760 -0.6883 -2.2331
  979MOL0     H35090   6.176   3.942   3.029 -3.8576 -1.3752 -0.0948
  979MOL0     H35091   6.288   3.843   3.123  1.9801  2.8969 -0.8232
  979MOL0     H35092   6.348   3.734   2.904  0.5531  0.2694  2.5616
  979MOL0     H35093   6.396   3.903   2.931  0.1781 -0.3687  1.4735
  979MOL0     H35094   6.145   3.825   2.766 -1.2431  0.3190 -0.4755
  979MOL0     H35095   6.183   3.985   2.800 -2.4588 -0.4122 -3.1019
  979MOL0     H35096   6.266   3.883   2.556  1.0514 -0.5960 -0.5531
  979MOL0     H35097   6.377   3.787   2.644  3.2269  1.0936  3.5180
  979MOL0     H35098   6.554   4.177   2.614  0.3111  0.2521  0.1890
  979MOL0     H35099   5.976   3.546   2.971 -2.6654 -1.6615 -0.7438
  979MOL0     H35100   5.814   3.434   2.897 -0.1065  0.9033 -1.2666
  979MOL0     H35101   5.678   3.465   3.015 -0.1707  1.9725  1.2644
  979MOL0     H35102   5.657   3.501   2.855 -0.7449 -1.8413  0.7094
  980MOL0     O35103   4.012   1.395   8.488 -0.3073  0.1995 -0.1272
  980MOL0     C35104   4.111   1.421   8.556  0.4439 -0.5275 -0.4872
  980MOL0     O35105   4.180   1.330   8.621  0.3184 -0.0557  0.1442
  980MOL0     C35106   4.154   1.199   8.579  0.0306 -0.6273  0.6918
  980MOL0     C35107   4.209   1.163   8.457  0.2565 -0.4257  0.8407
  980MOL0     C35108   4.176   1.042   8.398 -0.3271 -0.2582  0.3487
  980MOL0     C35109   4.099   0.951   8.463 -0.1805  0.7728  1.1084
  980MOL0     O35110   4.077   0.822   8.420 -0.8450  0.6128  0.2402
  980MOL0     C35111   4.060   0.805   8.282  0.7341 -0.1350 -0.1803
  980MOL0     C35112   4.019   0.671   8.231  0.1344 -0.2977  0.5909
  980MOL0     C35113   4.110   0.550   8.263 -0.0733  0.4264 -0.5343
  980MOL0     C35114   4.082   0.441   8.167 -0.2426  0.7624  0.0324
  980MOL0     C35115   4.127   0.298   8.203 -0.5287  0.4447  0.1192
  980MOL0     C35116   4.273   0.284   8.255 -0.5842  0.9489  0.6153
  980MOL0     C35117   4.307   0.129   8.257  0.9177 -0.3808  0.0830
  980MOL0     C35118   4.456   0.097   8.258 -0.8122 -0.9672 -0.0347
  980MOL0     N35119   4.490  -0.044   8.273 -0.8140 -0.0878  0.2374
  980MOL0     C35120   4.436  -0.150   8.207 -0.3356 -0.0160  1.5593
  980MOL0     C35121   4.495  -0.265   8.250 -0.2647  0.7726 -1.1203
  980MOL0     C35122   4.480  -0.403   8.190 -0.3624  0.4336 -0.2457
  980MOL0     C35123   4.377  -0.480   8.270 -0.9417  0.2678 -0.7597
  980MOL0     C35124   4.377  -0.629   8.242 -0.3126 -0.1567 -0.2290
  980MOL0     C35125   4.494  -0.712   8.294  0.3756 -0.0200  0.6527
  980MOL0     O35126   4.469  -0.764   8.425 -0.0251 -0.1532  0.3342
  980MOL0     C35127   4.566  -0.824   8.508  0.1562  0.7718  0.1871
  980MOL0     C35128   4.507  -0.890   8.617  0.0238  0.3673 -0.5209
  980MOL0     C35129   4.587  -0.933   8.717 -0.3982 -0.2949 -0.3220
  980MOL0     C35130   4.517  -0.968   8.843 -0.0014 -0.2376 -0.0907
  980MOL0     C35131   4.731  -0.938   8.702 -0.2894  0.5380 -1.1534
  980MOL0     C35132   4.826  -1.011   8.788 -0.5091 -0.2472 -0.4456
  980MOL0     O35133   4.961  -0.967   8.777  0.5715 -0.4632  0.0890
  980MOL0     C35134   5.068  -1.010   8.859 -0.2183  0.8885 -0.5859
  980MOL0     C35135   5.195  -0.950   8.833 -0.1560 -0.1039 -0.8520
  980MOL0     C35136   5.307  -0.974   8.915  1.3551  0.0874  0.4772
  980MOL0     C35137   5.296  -1.061   9.026  0.3306  0.6987 -0.2547
  980MOL0     O35138   5.418  -1.092   9.074  0.1250  0.0425 -1.0738
  980MOL0     C35139   5.421  -1.185   9.185  0.1298 -0.5139 -0.5978
  980MOL0     C35140   5.549  -1.230   9.251 -0.2740 -0.0563  0.5526
  980MOL0     C35141   5.648  -1.309   9.158  0.7315  0.5849 -0.7205
  980MOL0     C35142   5.787  -1.315   9.196 -0.0832  0.6187  0.8607
  980MOL0     C35143   5.888  -1.415   9.121  0.5765  0.6184  0.5515
  980MOL0     C35144   5.909  -1.391   8.982  0.3202  0.4477 -0.2154
  980MOL0     C35145   5.968  -1.250   8.945  0.4481  0.0449 -0.2017
  980MOL0     C35146   6.090  -1.227   9.028 -0.5256 -0.0079  0.1921
  980MOL0    Cl35147   6.204  -1.096   8.974  0.4415 -0.2017  0.2528
  980MOL0     C35148   5.172  -1.127   9.044  0.1481  0.3730  0.1430
  980MOL0     C35149   5.061  -1.107   8.962  0.5990  0.2921  0.1780
  980MOL0     O35150   4.780  -1.093   8.869 -0.5723 -0.5028 -0.0404
  980MOL0     C35151   4.787  -0.885   8.589  0.0198 -0.2097  0.5860
  980MOL0     C35152   4.705  -0.823   8.488 -0.2185 -0.2150 -0.2709
  980MOL0     N35153   4.584  -0.236   8.348 -0.7640 -1.2274  1.1446
  980MOL0     N35154   4.583  -0.105   8.358  0.3505 -0.6193  0.9192
  980MOL0     C35155   4.065   0.973   8.589 -0.3962  0.0393 -0.1376
  980MOL0     C35156   4.083   1.104   8.645 -0.0213 -0.5934 -0.4429
  980MOL0     C35157   4.135   1.563   8.586 -1.1178 -0.6706 -0.2000
  980MOL0     C35158   4.189   1.587   8.715  0.0063  0.1152 -0.9547
  980MOL0     C35159   4.227   1.721   8.755 -0.3220  0.8861  0.0724
  980MOL0     C35160   4.202   1.832   8.673  0.6478  0.4895 -0.5547
  980MOL0     O35161   4.234   1.962   8.708  0.0045 -0.2603 -0.0612
  980MOL0     C35162   4.270   2.006   8.836 -0.2494  0.1070  0.5177
  980MOL0     C35163   4.258   2.165   8.852 -0.8913  0.0568 -0.8398
  980MOL0     C35164   4.360   2.243   8.770 -0.1449 -0.7334 -0.3962
  980MOL0     C35165   4.418   2.357   8.859  0.3413  0.0039 -0.5648
  980MOL0     C35166   4.533   2.417   8.786  0.4250 -0.8250  0.3877
  980MOL0     C35167   4.626   2.465   8.720 -0.0649  0.0481 -0.5782
  980MOL0     C35168   4.164   1.803   8.543 -0.1414 -0.3746 -0.0797
  980MOL0     C35169   4.132   1.672   8.497  0.3050  0.0505 -0.5609
  980MOL0     C35170   4.109   1.669   8.353  0.0576  0.4118 -0.5988
  980MOL0     H35171   4.267   1.241   8.410  1.5563  0.0237  3.0172
  980MOL0     H35172   4.214   1.019   8.298 -1.7909 -0.6225 -0.1447
  980MOL0     H35173   4.154   0.833   8.234  1.2915 -0.9442  0.4110
  980MOL0     H35174   3.976   0.869   8.252 -0.9122 -2.1953 -0.2540
  980MOL0     H35175   3.919   0.657   8.273 -0.1011 -0.7744 -0.1159
  980MOL0     H35176   4.024   0.677   8.122 -1.5177  0.3528  0.5136
  980MOL0     H35177   4.216   0.573   8.250  0.1536 -1.2817 -2.0978
  980MOL0     H35178   4.104   0.518   8.368 -2.9709 -1.2089 -1.0857
  980MOL0     H35179   3.976   0.420   8.152  0.5090 -4.1465 -0.2057
  980MOL0     H35180   4.126   0.473   8.072  0.6551  1.3815  0.6334
  980MOL0     H35181   4.123   0.244   8.108  3.9648 -0.7281  0.3581
  980MOL0     H35182   4.053   0.256   8.271 -1.8743 -0.1533 -1.6330
  980MOL0     H35183   4.340   0.339   8.189 -1.6606  1.0039 -0.4809
  980MOL0     H35184   4.273   0.323   8.357  0.8844 -0.3207  1.1297
  980MOL0     H35185   4.260   0.087   8.168  1.6902 -3.5762  1.0288
  980MOL0     H35186   4.258   0.085   8.344  1.2147  0.1478  0.5210
  980MOL0     H35187   4.504   0.124   8.163 -0.3173 -2.7106 -0.3061
  980MOL0     H35188   4.499   0.166   8.332 -1.8969  1.1748 -1.2907
  980MOL0     H35189   4.350  -0.145   8.142 -0.5334 -1.0792  1.7241
  980MOL0     H35190   4.580  -0.448   8.197  0.1490  1.5493 -0.1883
  980MOL0     H35191   4.453  -0.401   8.084  2.2549  0.1373 -1.0038
  980MOL0     H35192   4.395  -0.459   8.376  0.8981  0.2859 -1.0417
  980MOL0     H35193   4.291  -0.421   8.236  0.9926  2.1724 -2.6200
  980MOL0     H35194   4.295  -0.684   8.289  0.1931 -3.1220 -2.4995
  980MOL0     H35195   4.368  -0.634   8.133 -0.1899  2.9066 -0.4596
  980MOL0     H35196   4.504  -0.797   8.226  1.4958  0.5594  0.0816
  980MOL0     H35197   4.594  -0.669   8.290  1.1596 -1.3359  3.3850
  980MOL0     H35198   4.400  -0.902   8.619 -0.1210  1.3637 -1.3634
  980MOL0     H35199   4.426  -0.907   8.845 -0.5552 -1.0196 -0.7584
  980MOL0     H35200   4.562  -0.942   8.940 -0.7244 -0.8058  0.4153
  980MOL0     H35201   4.493  -1.075   8.836  1.4406 -0.5109 -1.4574
  980MOL0     H35202   5.195  -0.895   8.739 -1.7302  4.3089  1.4779
  980MOL0     H35203   5.397  -0.921   8.883  1.1148  1.3543  1.7601
  980MOL0     H35204   5.366  -1.162   9.277  1.3478 -1.0739  0.2949
  980MOL0     H35205   5.375  -1.280   9.155 -1.4591 -1.9721  5.1154
  980MOL0     H35206   5.591  -1.153   9.317 -4.4022 -1.1092  4.9155
  980MOL0     H35207   5.527  -1.304   9.328  1.2594 -0.5511  0.5653
  980MOL0     H35208   5.644  -1.266   9.057  1.9414  0.3682 -0.8695
  980MOL0     H35209   5.611  -1.411   9.147  0.1569  0.8312 -1.1590
  980MOL0     H35210   5.773  -1.348   9.299 -1.2418  0.4828  0.6682
  980MOL0     H35211   5.831  -1.215   9.187  0.6065  0.1698 -1.5411
  980MOL0     H35212   5.981  -1.427   9.177  1.0946  0.2393 -0.3719
  980MOL0     H35213   5.853  -1.518   9.121  1.8347  0.1410  2.5632
  980MOL0     H35214   5.812  -1.407   8.933  0.3345  2.5154 -1.0027
  980MOL0     H35215   5.966  -1.475   8.941  1.5983 -0.2280  2.7083
  980MOL0     H35216   5.899  -1.172   8.980  0.1835 -0.6941  0.9769
  980MOL0     H35217   5.976  -1.242   8.836 -1.8997  3.0197 -0.2953
  980MOL0     H35218   6.150  -1.319   9.023 -2.4915 -1.2818 -0.9865
  980MOL0     H35219   6.062  -1.204   9.131 -1.7560  0.2863 -0.2003
  980MOL0     H35220   5.175  -1.201   9.124  4.1514  0.8736  0.6382
  980MOL0     H35221   4.966  -1.157   8.976  0.0375  1.0764 -0.8184
  980MOL0     H35222   4.893  -0.895   8.566  0.1131 -1.5498  1.4974
  980MOL0     H35223   4.747  -0.780   8.398  0.6696 -0.2992  0.0873
  980MOL0     H35224   4.006   0.900   8.642 -0.0050  0.9256  1.6029
  980MOL0     H35225   4.033   1.128   8.738  1.1461  2.0343 -0.3867
  980MOL0     H35226   4.201   1.509   8.789 -1.6111  2.1263  1.6591
  980MOL0     H35227   4.270   1.735   8.853 -0.1829  1.3638 -0.0576
  980MOL0     H35228   4.210   1.954   8.911 -0.5561  0.3659  0.4519
  980MOL0     H35229   4.373   1.974   8.858 -1.5030 -3.9897  1.2822
  980MOL0     H35230   4.275   2.187   8.958  0.6863  0.5599 -1.1672
  980MOL0     H35231   4.161   2.211   8.832 -2.5055  1.2819  6.5751
  980MOL0     H35232   4.438   2.178   8.730  0.7322  0.3614 -0.5247
  980MOL0     H35233   4.314   2.296   8.686  1.4848  3.9114  1.2751
  980MOL0     H35234   4.456   2.309   8.949 -3.1973 -2.3583 -0.1322
  980MOL0     H35235   4.334   2.424   8.879  0.0629 -0.5109  0.0123
  980MOL0     H35236   4.696   2.503   8.649 -1.0988  1.7733 -0.7223
  980MOL0     H35237   4.166   1.882   8.468  3.3146 -0.7145 -0.5027
  980MOL0     H35238   4.051   1.581   8.324  1.4968 -0.3725 -1.1680
  980MOL0     H35239   4.052   1.758   8.326  1.3511  0.8905 -1.8503
  980MOL0     H35240   4.199   1.674   8.292  0.0257  1.1519 -0.5928
  981MOL0     O35241   3.778   5.961  10.488 -0.3198 -0.0149  0.4592
  981MOL0     C35242   3.760   5.959  10.365 -0.7081 -0.1366  0.4120
  981MOL0     O35243   3.638   5.992  10.311 -0.1580  0.2772  0.9980
  981MOL0     C35244   3.606   6.123  10.346  1.0108  0.1688  0.5768
  981MOL0     C35245   3.647   6.235  10.268 -0.3913 -0.5296  0.5048
  981MOL0     C35246   3.620   6.373  10.314  0.6526  0.6870  0.6871
  981MOL0     C35247   3.541   6.389  10.422 -0.2497  0.0252  0.5238
  981MOL0     O35248   3.501   6.514  10.465  0.2409 -0.3920  0.5664
  981MOL0     C35249   3.385   6.568  10.393 -0.0989  0.3499 -0.1562
  981MOL0     C35250   3.251   6.579  10.478  1.2879 -0.5367 -1.3411
  981MOL0     C35251   3.266   6.679  10.597  0.2396  0.6135 -0.1899
  981MOL0     C35252   3.264   6.817  10.552  0.4766  0.0805  0.3290
  981MOL0     C35253   3.322   6.913  10.660 -1.1912 -0.2404  0.9689
  981MOL0     C35254   3.297   7.061  10.632  0.3359 -0.2418  0.4267
  981MOL0     C35255   3.141   7.087  10.646 -0.1485 -0.4409  0.2702
  981MOL0     C35256   3.095   7.229  10.662 -0.0248  0.4248  0.6381
  981MOL0     N35257   3.124   7.317  10.548 -0.8311  0.6483 -0.2478
  981MOL0     C35258   3.063   7.308  10.429  0.3669 -0.9351  1.1545
  981MOL0     C35259   3.111   7.404  10.354  0.8176  0.4438  0.6369
  981MOL0     C35260   3.067   7.442  10.218 -0.7028  0.2042 -0.3599
  981MOL0     C35261   2.947   7.543  10.226  0.2952 -0.4973  0.3752
  981MOL0     C35262   2.940   7.622  10.087  0.1995 -0.0120 -0.2389
  981MOL0     C35263   2.892   7.533   9.965 -0.7240  0.0496 -0.3723
  981MOL0     O35264   2.750   7.518   9.980  0.5016  0.4737 -0.2402
  981MOL0     C35265   2.677   7.460   9.877  0.0301 -0.0650  0.2290
  981MOL0     C35266   2.717   7.413   9.752 -0.6563 -0.1469  0.8152
  981MOL0     C35267   2.627   7.360   9.657 -0.1851  0.2231 -0.0027
  981MOL0     C35268   2.688   7.313   9.525  0.2061 -0.0156  0.4946
  981MOL0     C35269   2.491   7.349   9.698 -0.6843 -0.5769  0.1459
  981MOL0     C35270   2.379   7.295   9.616  0.4064  0.0084 -0.5206
  981MOL0     O35271   2.257   7.336   9.641  0.8279 -0.0371 -0.3924
  981MOL0     C35272   2.140   7.299   9.569  0.3615 -0.3400 -0.6535
  981MOL0     C35273   2.023   7.336   9.631  0.4403  0.0131  0.2290
  981MOL0     C35274   1.899   7.296   9.576 -0.0941  0.3004  0.3568
  981MOL0     C35275   1.894   7.231   9.455 -0.1785 -0.1876 -0.0471
  981MOL0     O35276   1.773   7.206   9.393 -0.2980  0.7170  0.0029
  981MOL0     C35277   1.653   7.185   9.477 -0.3434  0.1820  0.2560
  981MOL0     C35278   1.553   7.158   9.367 -0.6694 -0.5125  0.0896
  981MOL0     C35279   1.427   7.091   9.419 -0.7627 -0.0276 -0.0571
  981MOL0     C35280   1.318   7.185   9.476  0.1234  0.2445 -0.2078
  981MOL0     C35281   1.206   7.103   9.540  0.1698 -0.6080  0.3478
  981MOL0     C35282   1.091   7.184   9.600 -0.3656 -1.0295 -0.2296
  981MOL0     C35283   0.996   7.254   9.493 -0.1193 -0.2693  0.2240
  981MOL0     C35284   0.898   7.345   9.579 -0.8288  0.0222  0.0019
  981MOL0    Cl35285   0.761   7.395   9.474 -0.0041  0.1622  0.2200
  981MOL0     C35286   2.006   7.222   9.383 -0.1686  0.0145  0.1571
  981MOL0     C35287   2.133   7.260   9.438  0.8496 -0.4850  0.0324
  981MOL0     O35288   2.413   7.213   9.529  0.3573  0.4311  0.4755
  981MOL0     C35289   2.453   7.391   9.825 -1.1987  0.4521 -0.9441
  981MOL0     C35290   2.545   7.444   9.920 -0.1559  0.0713 -0.2766
  981MOL0     N35291   3.197   7.477  10.427 -0.0365  0.4752  0.1049
  981MOL0     N35292   3.204   7.429  10.547  1.1531  0.0338  0.3937
  981MOL0     C35293   3.484   6.279  10.480  0.4493  0.0046  0.0889
  981MOL0     C35294   3.526   6.149  10.454 -0.2010 -0.2153  1.1183
  981MOL0     C35295   3.879   5.939  10.259  0.0634 -0.1741 -0.5913
  981MOL0     C35296   3.841   5.923  10.122  0.1027  0.0502 -0.7822
  981MOL0     C35297   3.937   5.913  10.022 -0.2902 -0.0820 -0.1418
  981MOL0     C35298   4.074   5.911  10.054 -1.4094 -0.4805 -0.1818
  981MOL0     O35299   4.176   5.891   9.957  0.6289 -0.2214 -0.5318
  981MOL0     C35300   4.154   5.766   9.882 -0.3106 -0.4569 -0.4050
  981MOL0     C35301   4.145   5.805   9.733  0.6849  0.0297  0.8626
  981MOL0     C35302   4.115   5.689   9.642  0.2235 -0.4426 -0.5532
  981MOL0     C35303   4.040   5.736   9.512 -0.0413  0.3599 -0.0928
  981MOL0     C35304   4.132   5.764   9.412 -1.0889 -0.3121 -0.3504
  981MOL0     C35305   4.205   5.794   9.313  1.3856 -0.8471 -0.1876
  981MOL0     C35306   4.113   5.920  10.182 -0.3036  0.3882 -0.7249
  981MOL0     C35307   4.021   5.930  10.293 -0.3763  0.0236  0.8955
  981MOL0     C35308   4.072   5.916  10.434  0.5147 -0.3320 -0.5668
  981MOL0     H35309   3.716   6.211  10.187 -1.3620 -0.1745 -0.4487
  981MOL0     H35310   3.661   6.467  10.280 -0.4770  1.8144  2.2818
  981MOL0     H35311   3.369   6.497  10.311  4.0495 -1.1635  0.1314
  981MOL0     H35312   3.415   6.663  10.350 -0.1582  1.4608  2.1227
  981MOL0     H35313   3.167   6.608  10.414  1.2904  2.8702 -0.0141
  981MOL0     H35314   3.238   6.491  10.542 -1.0438  0.2855 -0.5645
  981MOL0     H35315   3.186   6.655  10.667  1.1685  0.9650  1.0202
  981MOL0     H35316   3.360   6.663  10.650  1.0290  1.6888 -1.2093
  981MOL0     H35317   3.321   6.814  10.459 -0.6900  0.3000 -0.4119
  981MOL0     H35318   3.159   6.845  10.538  1.1682  1.9368 -1.6936
  981MOL0     H35319   3.431   6.903  10.667 -1.3313 -1.6390  1.4097
  981MOL0     H35320   3.292   6.883  10.761  1.7025 -1.3705  1.5874
  981MOL0     H35321   3.360   7.134  10.684  0.3836  0.3099 -0.3889
  981MOL0     H35322   3.316   7.081  10.526  0.9413  1.0446  0.7608
  981MOL0     H35323   3.114   7.029  10.735 -2.0489 -1.0125 -0.6286
  981MOL0     H35324   3.083   7.047  10.562 -1.6611 -0.7389  1.4075
  981MOL0     H35325   2.988   7.237  10.683 -0.2834  1.3827 -0.8360
  981MOL0     H35326   3.147   7.256  10.754  0.4015  0.2083  0.4661
  981MOL0     H35327   2.979   7.248  10.396 -0.0856  1.7661 -3.3404
  981MOL0     H35328   3.050   7.355  10.155 -0.2266  0.4071 -0.7789
  981MOL0     H35329   3.148   7.490  10.162 -2.3729  0.7111 -2.5051
  981MOL0     H35330   2.854   7.485  10.228  0.1696 -0.3062  2.8811
  981MOL0     H35331   2.956   7.613  10.309  0.4215 -0.0400 -0.0193
  981MOL0     H35332   2.870   7.704  10.102 -1.0398 -0.9685 -0.7004
  981MOL0     H35333   3.040   7.664  10.072  0.4003 -0.5855 -0.5070
  981MOL0     H35334   2.916   7.586   9.872 -0.4409  0.3911 -0.1084
  981MOL0     H35335   2.950   7.440   9.960 -1.1098 -0.2418  0.5369
  981MOL0     H35336   2.819   7.420   9.717 -1.2809 -2.3343 -1.8782
  981MOL0     H35337   2.668   7.205   9.519 -3.1074  0.5183  0.0892
  981MOL0     H35338   2.790   7.350   9.510  0.0350  0.8658  1.4241
  981MOL0     H35339   2.633   7.353   9.440 -0.9724  1.5510  1.9362
  981MOL0     H35340   2.048   7.386   9.724 -0.2666 -0.5176  0.7183
  981MOL0     H35341   1.802   7.307   9.624 -1.6748  0.5128 -2.6731
  981MOL0     H35342   1.658   7.102   9.548  3.4205 -1.4102 -1.5746
  981MOL0     H35343   1.640   7.274   9.539  0.3950  0.2376  0.3377
  981MOL0     H35344   1.532   7.257   9.326  3.3235  1.5166  2.4223
  981MOL0     H35345   1.600   7.092   9.293 -0.4342 -1.4260  1.0303
  981MOL0     H35346   1.459   7.014   9.490  0.4528  1.5425  1.1720
  981MOL0     H35347   1.384   7.048   9.328 -0.8677  1.8736 -0.9525
  981MOL0     H35348   1.287   7.262   9.405  1.1568 -1.0755 -2.1963
  981MOL0     H35349   1.375   7.243   9.549  1.2141 -1.1446  0.0875
  981MOL0     H35350   1.168   7.026   9.472 -0.1905 -1.1585  1.1507
  981MOL0     H35351   1.262   7.045   9.614  1.9446  1.1851  0.4838
  981MOL0     H35352   1.137   7.267   9.654 -0.1471 -0.6456 -0.9978
  981MOL0     H35353   1.041   7.123   9.677 -0.2633  0.7375  1.3094
  981MOL0     H35354   0.943   7.173   9.442 -0.8183  0.4673 -0.2461
  981MOL0     H35355   1.045   7.320   9.421 -1.3309  0.5042  0.0812
  981MOL0     H35356   0.940   7.436   9.621 -0.0337  0.3761 -1.4951
  981MOL0     H35357   0.853   7.289   9.663  2.1308 -3.9992 -0.7567
  981MOL0     H35358   2.009   7.175   9.285  2.4624  2.3438 -1.0165
  981MOL0     H35359   2.219   7.226   9.380 -1.8230 -3.1678 -2.7806
  981MOL0     H35360   2.355   7.397   9.872 -1.6301 -0.4857 -1.6882
  981MOL0     H35361   2.514   7.464  10.022 -2.3997 -3.5492 -0.0533
  981MOL0     H35362   3.412   6.280  10.561 -0.8993  0.8878 -1.0885
  981MOL0     H35363   3.499   6.071  10.525 -2.7108  0.7177  1.2895
  981MOL0     H35364   3.738   5.912  10.092 -1.2714  3.4629  1.8900
  981MOL0     H35365   3.904   5.898   9.920  1.2683 -0.5223 -0.6049
  981MOL0     H35366   4.243   5.708   9.908  0.7358  1.7399  1.2867
  981MOL0     H35367   4.068   5.713   9.922 -0.9818  1.5477  0.9923
  981MOL0     H35368   4.238   5.848   9.697 -0.5447  0.5892 -1.9045
  981MOL0     H35369   4.070   5.883   9.721 -0.9392 -1.0622  3.0928
  981MOL0     H35370   4.208   5.632   9.634  1.4163  1.3763 -0.2353
  981MOL0     H35371   4.046   5.623   9.697  2.0181 -1.6033  0.4147
  981MOL0     H35372   3.970   5.816   9.537 -2.6848 -2.5952  2.9226
  981MOL0     H35373   3.967   5.658   9.488  0.6635 -0.9173  1.6625
  981MOL0     H35374   4.270   5.818   9.231  3.2222 -1.3964  1.0396
  981MOL0     H35375   4.220   5.908  10.198 -0.0908  2.6815 -0.0821
  981MOL0     H35376   4.153   5.843  10.431 -1.6617 -2.8818 -0.0466
  981MOL0     H35377   4.105   6.010  10.480  0.8627 -0.0473 -1.3746
  981MOL0     H35378   4.008   5.868  10.509 -0.3132  1.3611 -0.1253
  982MOL0     O35379   6.610   3.304  10.901  0.2713  0.3221 -0.4462
  982MOL0     C35380   6.635   3.239  11.003 -0.5164 -0.6903 -0.2020
  982MOL0     O35381   6.743   3.261  11.075 -0.5732  0.4018 -0.8655
  982MOL0     C35382   6.835   3.345  11.032 -1.0011 -0.6801  0.9381
  982MOL0     C35383   6.850   3.467  11.091 -0.6423 -0.3860 -0.7275
  982MOL0     C35384   6.952   3.555  11.057  0.4021  1.1432  0.3072
  982MOL0     C35385   7.051   3.517  10.969 -0.0912 -0.4369  0.1232
  982MOL0     O35386   7.167   3.580  10.932 -0.3162 -0.0912  0.3680
  982MOL0     C35387   7.204   3.692  11.008 -0.4977 -0.0632  0.5420
  982MOL0     C35388   7.335   3.747  10.971  0.0990  0.5677  1.6399
  982MOL0     C35389   7.347   3.798  10.816 -0.3242 -0.9775 -0.4915
  982MOL0     C35390   7.480   3.875  10.804  0.2977  0.5532 -0.2255
  982MOL0     C35391   7.485   3.994  10.898 -0.8710 -0.6034 -0.7840
  982MOL0     C35392   7.577   4.097  10.835 -0.1992 -0.0039  0.1175
  982MOL0     C35393   7.598   4.231  10.903  1.0219 -0.0595 -0.0226
  982MOL0     C35394   7.601   4.334  10.794 -0.0344 -0.0400 -0.6183
  982MOL0     N35395   7.740   4.386  10.773 -0.5364  0.6780  0.3844
  982MOL0     C35396   7.825   4.347  10.675 -0.0079  0.0309 -0.5658
  982MOL0     C35397   7.929   4.435  10.690 -0.9234 -0.4864  0.4073
  982MOL0     C35398   8.058   4.435  10.607 -0.5698  0.4566  0.0376
  982MOL0     C35399   8.167   4.361  10.682 -0.3091 -0.9103 -0.2021
  982MOL0     C35400   8.126   4.218  10.716  0.4159  1.0803  0.1093
  982MOL0     C35401   8.242   4.131  10.727 -0.1554 -0.3772  0.3128
  982MOL0     O35402   8.194   3.997  10.746  0.2232 -0.4578  0.5730
  982MOL0     C35403   8.262   3.911  10.816 -0.7674 -0.5820  0.4480
  982MOL0     C35404   8.205   3.790  10.836 -0.2778  1.4196 -0.2566
  982MOL0     C35405   8.270   3.684  10.899 -1.2370 -0.1465  0.5768
  982MOL0     C35406   8.187   3.567  10.908  0.4575  1.1886  0.0218
  982MOL0     C35407   8.396   3.703  10.957  0.0996 -0.2645 -0.2749
  982MOL0     C35408   8.453   3.602  11.041 -0.6466 -0.5047 -1.1449
  982MOL0     O35409   8.587   3.619  11.051  0.0769 -0.3019 -0.8916
  982MOL0     C35410   8.668   3.559  11.148  0.3823  0.2232 -0.0531
  982MOL0     C35411   8.794   3.512  11.112  0.5746  0.5950  0.0907
  982MOL0     C35412   8.890   3.483  11.206 -1.3607 -0.1273 -0.4408
  982MOL0     C35413   8.864   3.489  11.342 -0.9572  0.9867 -1.3584
  982MOL0     O35414   8.968   3.469  11.433  0.0241  0.3446  0.0985
  982MOL0     C35415   8.960   3.491  11.572 -0.0706 -0.6584 -0.1021
  982MOL0     C35416   9.074   3.413  11.632 -0.4816  0.8024 -0.2734
  982MOL0     C35417   9.031   3.264  11.679 -0.3479 -0.3091  0.2286
  982MOL0     C35418   8.946   3.191  11.572 -0.1767 -1.3697 -0.2864
  982MOL0     C35419   8.930   3.046  11.635  0.8597  0.3538  0.0689
  982MOL0     C35420   8.845   2.961  11.549 -0.0327  0.4119 -0.4707
  982MOL0     C35421   8.849   2.819  11.610 -0.1671 -0.8297 -1.2874
  982MOL0     C35422   8.788   2.724  11.513  0.1069  0.6733  0.5553
  982MOL0    Cl35423   8.715   2.581  11.596 -0.3230  0.1213 -0.3326
  982MOL0     C35424   8.738   3.527  11.382  0.1777 -1.2635 -0.9309
  982MOL0     C35425   8.639   3.560  11.285 -0.1516 -0.6142  0.1345
  982MOL0     O35426   8.389   3.518  11.111 -0.2972 -0.4106 -0.6053
  982MOL0     C35427   8.460   3.827  10.922  0.0184 -0.1294  0.1764
  982MOL0     C35428   8.397   3.924  10.854  0.1222  0.0443  0.9434
  982MOL0     N35429   7.897   4.533  10.780 -0.3595 -0.1067  0.3550
  982MOL0     N35430   7.777   4.508  10.817 -0.0869 -0.4339 -0.5441
  982MOL0     C35431   7.031   3.395  10.901  0.5670 -0.4176  0.9542
  982MOL0     C35432   6.924   3.317  10.930  0.4936  0.1136  0.5702
  982MOL0     C35433   6.546   3.130  11.055  0.7022  0.2117 -0.8829
  982MOL0     C35434   6.540   3.101  11.194 -0.6618 -0.1296  0.4312
  982MOL0     C35435   6.463   3.000  11.241  0.4560  0.0147  1.2209
  982MOL0     C35436   6.389   2.923  11.149  0.4139 -0.1798  0.2316
  982MOL0     O35437   6.330   2.803  11.185  0.2477  0.6298 -0.2980
  982MOL0     C35438   6.330   2.754  11.319 -0.4466 -0.5112  0.5045
  982MOL0     C35439   6.272   2.612  11.317  0.0857  0.5633  0.1426
  982MOL0     C35440   6.358   2.511  11.241 -0.6605 -0.3281  0.6693
  982MOL0     C35441   6.347   2.364  11.280 -0.4909 -0.3303  0.3302
  982MOL0     C35442   6.211   2.307  11.253 -1.1178 -0.1883 -0.2198
  982MOL0     C35443   6.101   2.262  11.251 -0.0038  1.5541  0.6339
  982MOL0     C35444   6.386   2.955  11.018  0.4720  0.5142  0.3290
  982MOL0     C35445   6.462   3.053  10.962 -0.2851  0.1957 -0.4336
  982MOL0     C35446   6.465   3.066  10.816  0.6445  0.1502  0.4326
  982MOL0     H35447   6.790   3.501  11.175  3.0629 -1.6966  2.7235
  982MOL0     H35448   6.955   3.652  11.104  0.1306  1.4143 -0.2262
  982MOL0     H35449   7.222   3.666  11.113  1.0462  1.5772  0.7363
  982MOL0     H35450   7.140   3.777  10.982 -2.2075 -0.8024  2.0954
  982MOL0     H35451   7.345   3.833  11.038 -0.5231  1.2167  0.9219
  982MOL0     H35452   7.415   3.673  10.976 -1.0911 -0.7573  1.8200
  982MOL0     H35453   7.344   3.715  10.745  0.6644  0.3988 -2.2117
  982MOL0     H35454   7.272   3.875  10.797  0.5358 -0.2903 -1.1718
  982MOL0     H35455   7.565   3.808  10.819 -0.2378 -0.9095 -3.0471
  982MOL0     H35456   7.490   3.915  10.703  4.5584  1.3435  0.3177
  982MOL0     H35457   7.527   3.968  10.996 -1.7985  1.0462  0.0946
  982MOL0     H35458   7.389   4.044  10.909  1.5806  4.2569  1.8753
  982MOL0     H35459   7.679   4.068  10.807  0.8906  1.7770  1.9047
  982MOL0     H35460   7.533   4.117  10.737  2.3219  1.2575 -0.8706
  982MOL0     H35461   7.691   4.233  10.962  3.3261 -1.0458 -3.3346
  982MOL0     H35462   7.511   4.247  10.967  1.2133  1.4466 -0.1172
  982MOL0     H35463   7.566   4.295  10.698  0.7734  0.4389 -1.1184
  982MOL0     H35464   7.532   4.415  10.821  1.5792  1.0745  0.3231
  982MOL0     H35465   7.809   4.264  10.607  0.5361  0.3132 -1.0460
  982MOL0     H35466   8.077   4.538  10.578 -1.0039  0.7149  0.6639
  982MOL0     H35467   8.026   4.382  10.516 -0.9299 -1.6726  1.3396
  982MOL0     H35468   8.260   4.377  10.625 -0.9922  0.3356 -1.0058
  982MOL0     H35469   8.194   4.419  10.771 -1.2257  0.4287 -0.7822
  982MOL0     H35470   8.077   4.229  10.813  2.4984  3.8472  0.9759
  982MOL0     H35471   8.048   4.178  10.652  0.9695 -0.7393  0.5113
  982MOL0     H35472   8.306   4.136  10.638  0.9447 -0.1883  1.0894
  982MOL0     H35473   8.291   4.169  10.818 -0.1816  1.8005 -0.5310
  982MOL0     H35474   8.113   3.757  10.790  0.7086 -1.9132 -0.0634
  982MOL0     H35475   8.157   3.545  11.011 -2.8144  0.3197 -0.9925
  982MOL0     H35476   8.241   3.477  10.876 -2.2294 -1.3731  2.1229
  982MOL0     H35477   8.092   3.561  10.852 -0.2272  1.5177  1.1219
  982MOL0     H35478   8.832   3.510  11.010 -0.1833 -1.3560 -0.1872
  982MOL0     H35479   8.993   3.459  11.180  0.9410  4.8217  2.6623
  982MOL0     H35480   8.975   3.598  11.591  0.1976 -0.6444 -0.3813
  982MOL0     H35481   8.868   3.463  11.623  0.6749  0.6173  2.0927
  982MOL0     H35482   9.160   3.394  11.566  0.3205  1.3031  0.6102
  982MOL0     H35483   9.106   3.465  11.722 -1.9676  1.3366 -0.0249
  982MOL0     H35484   8.980   3.272  11.775 -0.5435 -0.7913  0.1690
  982MOL0     H35485   9.126   3.211  11.685  0.3527  0.5202 -2.3009
  982MOL0     H35486   8.998   3.184  11.476  0.9267  0.6483  0.1033
  982MOL0     H35487   8.854   3.248  11.560  1.8373  2.2650  0.1878
  982MOL0     H35488   9.019   2.984  11.621 -1.2961 -3.0526  0.1649
  982MOL0     H35489   8.897   3.034  11.739  1.0767 -0.2002  0.0764
  982MOL0     H35490   8.863   2.962  11.441  2.4032  0.3214 -0.1175
  982MOL0     H35491   8.740   2.987  11.565 -0.6531 -1.3315 -1.4474
  982MOL0     H35492   8.796   2.809  11.705  2.4838 -3.4806  0.0942
  982MOL0     H35493   8.946   2.785  11.648 -0.1819  0.3822 -0.0823
  982MOL0     H35494   8.871   2.687  11.453 -0.8533  2.3978 -2.0269
  982MOL0     H35495   8.714   2.762  11.441 -2.3498 -3.5020  0.5878
  982MOL0     H35496   8.706   3.517  11.485 -5.6898  0.1717 -2.2193
  982MOL0     H35497   8.540   3.593  11.313  1.0155  1.2774  2.4915
  982MOL0     H35498   8.566   3.849  10.935 -0.1077  1.1996 -0.7849
  982MOL0     H35499   8.445   4.008  10.804  1.7533 -0.5975  1.3447
  982MOL0     H35500   7.101   3.365  10.824  0.8947  3.2270 -0.3290
  982MOL0     H35501   6.920   3.213  10.897 -0.8938  0.6394 -1.0812
  982MOL0     H35502   6.603   3.160  11.260  0.2328  0.6182 -1.0186
  982MOL0     H35503   6.455   2.971  11.345  1.1548 -1.2414  0.9432
  982MOL0     H35504   6.429   2.764  11.365  0.9347  4.7097 -2.6628
  982MOL0     H35505   6.254   2.819  11.364  1.4994  3.0583 -0.8679
  982MOL0     H35506   6.176   2.613  11.263  0.6245  2.7110 -0.8937
  982MOL0     H35507   6.251   2.583  11.420 -0.6129  0.3955 -0.0377
  982MOL0     H35508   6.338   2.523  11.135 -0.2335  0.8616  0.7153
  982MOL0     H35509   6.463   2.540  11.246 -0.6363  0.7357 -3.2811
  982MOL0     H35510   6.379   2.366  11.384  0.8795  1.8607 -0.0598
  982MOL0     H35511   6.419   2.304  11.223 -0.5736 -0.5474  0.4543
  982MOL0     H35512   6.007   2.211  11.259  1.1947 -0.8705  0.2278
  982MOL0     H35513   6.348   2.885  10.944  1.2994  0.9867 -0.5707
  982MOL0     H35514   6.435   3.169  10.793  2.4156 -0.0977 -4.0732
  982MOL0     H35515   6.563   3.047  10.771  0.4370 -0.4729  0.2398
  982MOL0     H35516   6.397   2.996  10.766  2.1820 -1.8871  1.0732
  983MOL0     O35517   5.994   5.176   3.376  0.1863 -0.5364  0.1428
  983MOL0     C35518   6.097   5.239   3.344  0.6623 -0.6035 -1.1978
  983MOL0     O35519   6.161   5.328   3.430  0.6595  0.6162  0.4051
  983MOL0     C35520   6.102   5.391   3.538 -0.9831  0.3214 -0.4948
  983MOL0     C35521   6.180   5.427   3.648  0.5988  0.2160  0.1165
  983MOL0     C35522   6.121   5.490   3.762  0.1698  0.3472  0.5460
  983MOL0     C35523   5.981   5.514   3.763 -0.0686 -0.5009 -0.5317
  983MOL0     O35524   5.921   5.570   3.867  0.8725 -0.4170 -0.3577
  983MOL0     C35525   5.985   5.669   3.946 -0.1076 -0.6005  0.4461
  983MOL0     C35526   5.884   5.729   4.042  0.7344 -0.0957 -0.0903
  983MOL0     C35527   5.952   5.833   4.139 -0.1436  0.3352  0.1187
  983MOL0     C35528   5.840   5.909   4.221 -0.7835  0.3441 -0.9932
  983MOL0     C35529   5.886   6.014   4.324  0.2072  0.0381  0.5691
  983MOL0     C35530   5.987   6.120   4.279  0.0415 -0.5501  0.0611
  983MOL0     C35531   5.995   6.231   4.387  0.0938 -0.1958 -0.5571
  983MOL0     C35532   6.119   6.324   4.357  0.4071  0.3655 -0.1759
  983MOL0     N35533   6.131   6.433   4.462 -0.5713 -0.3023 -0.8363
  983MOL0     C35534   6.115   6.561   4.423  0.0391 -0.5134  0.8068
  983MOL0     C35535   6.149   6.631   4.537  0.1826  0.0440 -0.1574
  983MOL0     C35536   6.145   6.780   4.547 -0.2629  0.6240 -0.0582
  983MOL0     C35537   6.099   6.819   4.690  0.7945  0.3411  0.4813
  983MOL0     C35538   6.072   6.970   4.702  0.9171 -0.0989 -0.8008
  983MOL0     C35539   5.987   6.997   4.821  0.2266  0.5678  0.6644
  983MOL0     O35540   5.906   7.116   4.792 -0.1528  1.2567 -0.6934
  983MOL0     C35541   5.786   7.128   4.862 -0.8057 -0.5993  0.0474
  983MOL0     C35542   5.740   7.038   4.962  0.2849 -0.0650  0.2117
  983MOL0     C35543   5.608   7.053   5.017  1.3211 -0.5744 -0.8354
  983MOL0     C35544   5.565   6.947   5.110  0.5041  0.0395 -0.1823
  983MOL0     C35545   5.529   7.167   4.979  1.3335 -0.9237  0.6476
  983MOL0     C35546   5.393   7.196   5.042 -1.0346 -0.7809 -0.8558
  983MOL0     O35547   5.298   7.250   4.965  0.7686  0.7282 -0.5704
  983MOL0     C35548   5.182   7.289   5.022  0.7066 -0.1274 -0.0170
  983MOL0     C35549   5.062   7.241   4.979  0.1615 -0.3177  0.3741
  983MOL0     C35550   4.937   7.280   5.031 -0.0272 -0.2668  0.5197
  983MOL0     C35551   4.929   7.372   5.130  1.1311  0.2987 -0.4536
  983MOL0     O35552   4.805   7.385   5.189 -0.2679 -0.1634  0.8497
  983MOL0     C35553   4.785   7.453   5.308  0.0954 -0.8452 -0.3486
  983MOL0     C35554   4.798   7.603   5.288 -0.2977 -0.5279  0.2065
  983MOL0     C35555   4.705   7.668   5.392  0.3882 -1.0956 -0.1896
  983MOL0     C35556   4.775   7.679   5.526 -0.2967  0.5391  0.3272
  983MOL0     C35557   4.691   7.755   5.632  0.1567 -0.0537  1.2346
  983MOL0     C35558   4.790   7.773   5.755  0.7594  0.5948  0.1420
  983MOL0     C35559   4.713   7.827   5.875 -0.4157  0.7832 -0.2034
  983MOL0     C35560   4.627   7.950   5.849  0.9364 -0.0817  1.3476
  983MOL0    Cl35561   4.595   8.025   6.002 -0.0155  0.0446  0.0547
  983MOL0     C35562   5.046   7.433   5.178 -1.3505  0.2522  0.5352
  983MOL0     C35563   5.175   7.391   5.126 -0.2031  0.1980 -0.4487
  983MOL0     O35564   5.379   7.171   5.159 -0.4192  0.4959 -0.7193
  983MOL0     C35565   5.575   7.252   4.868  0.7967  0.1837 -0.7347
  983MOL0     C35566   5.696   7.231   4.814 -1.0365  0.5386 -0.0144
  983MOL0     N35567   6.200   6.545   4.640 -0.0528 -0.2800 -0.3092
  983MOL0     N35568   6.184   6.425   4.591  0.7339  0.0907  0.4066
  983MOL0     C35569   5.906   5.474   3.660  0.5443 -0.2553  0.1766
  983MOL0     C35570   5.959   5.415   3.547 -0.0531 -0.2888  0.1104
  983MOL0     C35571   6.166   5.208   3.219  0.0096 -0.0580  0.1312
  983MOL0     C35572   6.267   5.304   3.176 -0.1855  1.3179 -1.1015
  983MOL0     C35573   6.362   5.270   3.082 -0.1257 -0.4900 -0.4716
  983MOL0     C35574   6.369   5.140   3.024  0.0510 -0.1495 -0.6204
  983MOL0     O35575   6.474   5.126   2.946 -0.4654 -0.0906 -0.1983
  983MOL0     C35576   6.478   5.007   2.873 -0.3257  0.8710  0.4680
  983MOL0     C35577   6.414   5.023   2.740 -0.1642  0.5924 -0.3774
  983MOL0     C35578   6.464   4.918   2.636 -0.6720 -0.6304  1.6062
  983MOL0     C35579   6.458   4.775   2.671 -0.7437 -0.4732  0.7201
  983MOL0     C35580   6.327   4.731   2.715  0.6324 -0.3584  0.8948
  983MOL0     C35581   6.226   4.670   2.748  1.0056  0.5850 -0.0422
  983MOL0     C35582   6.262   5.055   3.059  0.1320  0.3899  0.7698
  983MOL0     C35583   6.153   5.091   3.141 -0.0536 -1.0641 -1.0553
  983MOL0     C35584   6.033   4.996   3.156  0.3333 -1.3521 -0.0127
  983MOL0     H35585   6.287   5.410   3.640  0.3507 -2.1027  1.0812
  983MOL0     H35586   6.186   5.528   3.840 -1.5832  2.0394  1.2635
  983MOL0     H35587   6.037   5.746   3.887 -0.6657  1.8793  2.9715
  983MOL0     H35588   6.057   5.610   4.002  0.6169 -0.8232 -0.6806
  983MOL0     H35589   5.800   5.771   3.986 -0.5507 -0.3640  1.5613
  983MOL0     H35590   5.844   5.645   4.100  0.4700  0.2064  0.1738
  983MOL0     H35591   6.010   5.785   4.218  1.3234  1.1788 -0.3946
  983MOL0     H35592   6.007   5.912   4.086  4.1690 -0.9839  2.1324
  983MOL0     H35593   5.784   5.968   4.147 -0.9581 -0.4468 -1.5100
  983MOL0     H35594   5.775   5.831   4.262 -0.6218 -0.4614 -2.2064
  983MOL0     H35595   5.945   5.968   4.404  1.2093  0.8010  0.3009
  983MOL0     H35596   5.792   6.038   4.374  0.6747 -2.3638  2.8525
  983MOL0     H35597   6.083   6.073   4.256  0.6346  0.5147  0.3103
  983MOL0     H35598   5.949   6.166   4.187  2.3918 -1.2965 -1.3601
  983MOL0     H35599   6.002   6.185   4.486  1.7055 -1.7897 -1.3356
  983MOL0     H35600   5.905   6.292   4.398 -0.6595 -1.3887  0.1706
  983MOL0     H35601   6.210   6.268   4.335 -0.8350  0.0954 -6.4679
  983MOL0     H35602   6.102   6.370   4.259  0.8270  2.1202  0.5268
  983MOL0     H35603   6.083   6.599   4.327 -0.1781 -2.3970  0.1017
  983MOL0     H35604   6.084   6.814   4.463  0.4456 -2.2481 -1.8459
  983MOL0     H35605   6.242   6.826   4.525  0.3556 -0.4785  0.2947
  983MOL0     H35606   6.016   6.754   4.722  0.5199  1.7820  2.8987
  983MOL0     H35607   6.180   6.801   4.761  0.7594  5.3691  2.1197
  983MOL0     H35608   6.168   7.015   4.731  1.3304 -2.1593  1.3886
  983MOL0     H35609   6.032   7.015   4.611 -1.6567 -1.1716 -0.2869
  983MOL0     H35610   5.921   6.912   4.841  1.5037 -0.9011 -1.0912
  983MOL0     H35611   6.047   7.022   4.909  2.9815 -0.0035 -0.9285
  983MOL0     H35612   5.809   6.961   4.997  1.2031  0.3549 -0.6623
  983MOL0     H35613   5.577   6.991   5.209  1.0950  1.1500 -0.7278
  983MOL0     H35614   5.638   6.866   5.117 -0.5015 -0.8195  0.7610
  983MOL0     H35615   5.470   6.901   5.081  1.5601 -3.3483  1.2476
  983MOL0     H35616   5.066   7.158   4.910  1.5860  0.9004 -1.0702
  983MOL0     H35617   4.854   7.237   4.976 -0.5142 -0.2971  1.2516
  983MOL0     H35618   4.689   7.420   5.348 -1.2540  2.0988 -0.8545
  983MOL0     H35619   4.861   7.423   5.381 -0.6393  0.6646  1.1383
  983MOL0     H35620   4.901   7.638   5.298 -0.1647 -0.1497 -1.9168
  983MOL0     H35621   4.761   7.626   5.187 -0.6096 -2.2268 -0.0885
  983MOL0     H35622   4.606   7.622   5.390 -1.1315  1.9098 -0.8724
  983MOL0     H35623   4.691   7.771   5.356 -0.5211 -1.0865  0.1713
  983MOL0     H35624   4.869   7.731   5.505 -1.7265  2.0985 -2.8172
  983MOL0     H35625   4.793   7.574   5.549 -2.1692 -0.1211 -0.9311
  983MOL0     H35626   4.651   7.849   5.592 -2.9572 -0.9089  2.0442
  983MOL0     H35627   4.606   7.700   5.675 -3.1802  2.5653 -1.4494
  983MOL0     H35628   4.869   7.845   5.730  1.1582  0.2204  0.3194
  983MOL0     H35629   4.830   7.677   5.788 -4.1347 -0.2057  5.3031
  983MOL0     H35630   4.781   7.853   5.956 -0.0258 -1.5066  0.2785
  983MOL0     H35631   4.647   7.746   5.908  1.4275  1.1521  5.3561
  983MOL0     H35632   4.530   7.927   5.804  0.9472  1.6202  0.3856
  983MOL0     H35633   4.672   8.024   5.783 -0.2996 -0.9186 -0.5256
  983MOL0     H35634   5.050   7.518   5.246  0.4045  1.3921 -0.8859
  983MOL0     H35635   5.265   7.439   5.163  0.1791 -0.6761 -0.2022
  983MOL0     H35636   5.519   7.334   4.824 -1.7278 -0.6347  0.7374
  983MOL0     H35637   5.720   7.314   4.749  1.5960  1.8446  2.3837
  983MOL0     H35638   5.800   5.476   3.681 -0.0109 -0.4429 -2.2771
  983MOL0     H35639   5.899   5.396   3.458  2.7252  1.7898 -2.4379
  983MOL0     H35640   6.285   5.399   3.226  0.7180  0.2884  0.6085
  983MOL0     H35641   6.445   5.339   3.081 -1.0227  0.6463  0.4691
  983MOL0     H35642   6.584   4.993   2.850 -0.8112  0.9931 -2.1059
  983MOL0     H35643   6.451   4.920   2.934  0.3354  1.4240  1.5862
  983MOL0     H35644   6.444   5.121   2.702  2.3473  0.2100  0.4176
  983MOL0     H35645   6.305   5.017   2.748 -0.4359  4.6834  1.3052
  983MOL0     H35646   6.419   4.940   2.538  2.7623  1.0442  0.2295
  983MOL0     H35647   6.563   4.941   2.596 -2.0046 -0.8337 -2.2251
  983MOL0     H35648   6.526   4.752   2.753  2.4003 -0.6141 -1.7126
  983MOL0     H35649   6.483   4.708   2.588 -2.8429 -1.3364  0.7126
  983MOL0     H35650   6.132   4.620   2.760  0.2880  2.4191  3.3201
  983MOL0     H35651   6.257   4.960   3.008  1.1307  0.5376  0.3640
  983MOL0     H35652   6.029   4.942   3.251 -3.3728 -1.2551  0.0389
  983MOL0     H35653   5.941   5.053   3.146  1.3517  0.5688  1.0213
  983MOL0     H35654   6.034   4.934   3.065 -3.4767  0.3288 -1.4241
  984MOL0     O35655  11.091   6.137   3.520 -0.5676 -0.1648  0.0944
  984MOL0     C35656  11.175   6.174   3.599 -0.2074  0.2484  0.0713
  984MOL0     O35657  11.248   6.293   3.589 -0.0034 -0.1283 -0.1336
  984MOL0     C35658  11.238   6.381   3.485 -0.6154  0.9069  0.1690
  984MOL0     C35659  11.355   6.434   3.433 -0.3023  0.3521  0.0319
  984MOL0     C35660  11.359   6.510   3.321  0.4469  0.5507  0.4046
  984MOL0     C35661  11.243   6.547   3.250 -0.0989 -0.3242 -0.9873
  984MOL0     O35662  11.266   6.639   3.145 -0.4086  0.0526  0.3602
  984MOL0     C35663  11.164   6.730   3.100  0.5442  0.0032 -0.1460
  984MOL0     C35664  11.143   6.712   2.950 -0.2746 -0.2079  0.7529
  984MOL0     C35665  11.044   6.811   2.886 -0.4135  0.0524 -1.1312
  984MOL0     C35666  11.013   6.755   2.740 -1.1233 -0.2651 -0.1552
  984MOL0     C35667  10.888   6.826   2.692  1.1743  0.0101  0.2814
  984MOL0     C35668  10.857   6.784   2.550 -0.8954  0.1955  0.1062
  984MOL0     C35669  10.964   6.840   2.452 -0.1968  0.6687 -0.7770
  984MOL0     C35670  10.969   6.760   2.316 -0.0354 -0.0180 -0.2410
  984MOL0     N35671  10.841   6.758   2.233  0.4531 -0.1481 -0.4680
  984MOL0     C35672  10.827   6.849   2.136  1.0867  0.1195  0.8482
  984MOL0     C35673  10.752   6.792   2.042  0.1294  0.0198  1.1979
  984MOL0     C35674  10.753   6.860   1.903 -0.2073 -0.3976 -0.2479
  984MOL0     C35675  10.894   6.829   1.843 -0.1682 -0.6372  0.0745
  984MOL0     C35676  10.906   6.899   1.705 -0.6643  0.1461 -0.3559
  984MOL0     C35677  10.929   7.055   1.713  0.2819  0.4629  0.3280
  984MOL0     O35678  10.804   7.131   1.739 -0.6657 -0.7062 -1.2000
  984MOL0     C35679  10.810   7.264   1.779  0.9333  0.3739 -0.2296
  984MOL0     C35680  10.697   7.319   1.848  0.8928  0.9644 -0.2461
  984MOL0     C35681  10.696   7.444   1.904  0.2169  0.7096 -0.8592
  984MOL0     C35682  10.570   7.477   1.979 -0.3486  0.1593 -0.4337
  984MOL0     C35683  10.819   7.522   1.904  0.3603  0.2403 -0.0346
  984MOL0     C35684  10.818   7.662   1.953 -0.5461  0.0364 -0.3337
  984MOL0     O35685  10.946   7.718   1.953  0.3113  0.2404  0.1910
  984MOL0     C35686  10.979   7.838   2.011  0.3838 -0.0374 -0.1289
  984MOL0     C35687  10.893   7.940   2.004  1.1757 -0.1912 -0.5194
  984MOL0     C35688  10.923   8.064   2.066 -0.0028  0.3861  0.8408
  984MOL0     C35689  11.028   8.074   2.158 -0.4848  0.6594 -0.9075
  984MOL0     O35690  11.052   8.178   2.240 -0.0169 -0.1847 -0.2008
  984MOL0     C35691  10.964   8.292   2.236  0.5034  0.1840  0.2113
  984MOL0     C35692  10.991   8.367   2.366 -0.2640 -0.5067  0.2350
  984MOL0     C35693  10.948   8.514   2.381 -0.9051 -0.8298 -0.5855
  984MOL0     C35694  10.797   8.528   2.356  0.2239 -0.6640 -0.7808
  984MOL0     C35695  10.732   8.643   2.434 -0.3384  0.7085 -0.2109
  984MOL0     C35696  10.782   8.774   2.410  0.1419 -0.9384 -0.1257
  984MOL0     C35697  10.728   8.884   2.514  0.3866 -0.6365  0.5679
  984MOL0     C35698  10.783   9.027   2.496 -1.2889  0.2750  0.9504
  984MOL0    Cl35699  10.961   9.020   2.551  0.4794  0.2404  0.0142
  984MOL0     C35700  11.118   7.967   2.156  0.7302 -0.2474  0.6693
  984MOL0     C35701  11.097   7.852   2.081 -0.2986  0.0689  0.2547
  984MOL0     O35702  10.715   7.720   1.995 -0.3845  0.3745 -0.7675
  984MOL0     C35703  10.922   7.473   1.824  1.3377 -0.3179 -0.6001
  984MOL0     C35704  10.924   7.346   1.756  1.3421  0.4334  0.5686
  984MOL0     N35705  10.711   6.671   2.080  0.3465 -0.5196  0.4346
  984MOL0     N35706  10.754   6.653   2.208  0.3216 -0.3451  0.1141
  984MOL0     C35707  11.119   6.502   3.309  0.9719 -0.5502 -0.3362
  984MOL0     C35708  11.119   6.415   3.422  0.4321  0.5848  0.1100
  984MOL0     C35709  11.227   6.076   3.701  0.5468  0.3582 -0.7553
  984MOL0     C35710  11.194   5.936   3.667  0.8501  0.2041  0.4836
  984MOL0     C35711  11.210   5.821   3.738  0.1994  0.4893  0.8201
  984MOL0     C35712  11.257   5.840   3.871 -0.1433  0.9870 -0.0894
  984MOL0     O35713  11.259   5.730   3.938 -0.3395  0.2440 -0.5721
  984MOL0     C35714  11.307   5.735   4.071 -0.0806 -0.9646 -0.2212
  984MOL0     C35715  11.271   5.603   4.126  1.0082 -0.6179  0.8956
  984MOL0     C35716  11.121   5.583   4.159  1.1641 -1.4602  0.0457
  984MOL0     C35717  11.100   5.448   4.220 -0.1675 -0.3034  0.6051
  984MOL0     C35718  11.127   5.332   4.131  0.9727 -0.5053  0.4774
  984MOL0     C35719  11.170   5.246   4.059 -0.3746 -1.2571 -1.3306
  984MOL0     C35720  11.306   5.972   3.905  0.3037 -0.4043  0.2321
  984MOL0     C35721  11.285   6.093   3.826  0.7051  0.8178 -0.0490
  984MOL0     C35722  11.311   6.232   3.875  0.3055  0.1466 -0.8991
  984MOL0     H35723  11.449   6.418   3.485  0.2678 -1.8743 -1.5539
  984MOL0     H35724  11.452   6.556   3.291  0.6181  0.0088  0.0851
  984MOL0     H35725  11.204   6.831   3.115 -0.4760  0.2589  0.9467
  984MOL0     H35726  11.068   6.710   3.148  0.5418  0.8712  0.2310
  984MOL0     H35727  11.238   6.727   2.898  0.3702 -0.7130  1.7480
  984MOL0     H35728  11.119   6.609   2.922 -1.5462 -0.1942  1.6856
  984MOL0     H35729  10.953   6.817   2.947  2.1424 -1.5063  3.2864
  984MOL0     H35730  11.100   6.905   2.887 -1.1320  0.4907 -1.3394
  984MOL0     H35731  11.102   6.766   2.677 -0.5127 -0.3692  0.6634
  984MOL0     H35732  10.997   6.647   2.738  0.6210 -0.5399 -1.3496
  984MOL0     H35733  10.883   6.934   2.706  1.5806  0.3726 -1.9795
  984MOL0     H35734  10.810   6.778   2.753  0.7423  1.8873  1.2631
  984MOL0     H35735  10.864   6.674   2.550  1.4232  0.2705  1.9658
  984MOL0     H35736  10.752   6.806   2.530 -1.7749 -2.7787  0.8235
  984MOL0     H35737  11.068   6.825   2.482 -0.6777 -0.3857  0.4449
  984MOL0     H35738  10.951   6.948   2.443  1.9152  1.4968  3.5765
  984MOL0     H35739  11.042   6.803   2.246  1.0953  0.5529  1.2390
  984MOL0     H35740  11.002   6.658   2.337  1.7051  0.5730  0.0865
  984MOL0     H35741  10.871   6.947   2.122 -1.4011  1.0418 -1.3506
  984MOL0     H35742  10.749   6.969   1.906  2.8502 -0.2309  0.3828
  984MOL0     H35743  10.674   6.821   1.838 -2.3742  2.6707  0.2985
  984MOL0     H35744  10.981   6.861   1.902  1.9725 -2.0361 -2.1631
  984MOL0     H35745  10.897   6.720   1.835 -4.3157 -1.4616  4.7018
  984MOL0     H35746  10.999   6.867   1.657 -1.9995 -2.9560 -1.0747
  984MOL0     H35747  10.827   6.878   1.632 -1.9741 -0.3992  1.1733
  984MOL0     H35748  11.001   7.086   1.789 -0.0828  2.2327 -0.0182
  984MOL0     H35749  10.972   7.089   1.618  0.3152 -0.7537 -0.1205
  984MOL0     H35750  10.611   7.254   1.862  0.6884 -0.0851 -4.8866
  984MOL0     H35751  10.532   7.572   1.941  0.7326  1.0823  0.6930
  984MOL0     H35752  10.577   7.489   2.087 -0.9887 -1.3957 -0.1900
  984MOL0     H35753  10.491   7.406   1.952 -0.6844 -0.4929  2.0179
  984MOL0     H35754  10.807   7.921   1.940 -1.0834 -3.8693  3.1162
  984MOL0     H35755  10.842   8.131   2.039 -0.0888  0.5280  1.4285
  984MOL0     H35756  10.985   8.357   2.151 -1.0948 -0.4100 -0.6949
  984MOL0     H35757  10.858   8.273   2.214  0.8765 -1.4360 -0.3436
  984MOL0     H35758  10.940   8.299   2.435  2.6882 -3.6013 -0.3754
  984MOL0     H35759  11.094   8.363   2.404 -1.0983  0.7427  2.9276
  984MOL0     H35760  11.003   8.574   2.308  0.1868  0.9753  1.6223
  984MOL0     H35761  10.973   8.557   2.478 -0.8486 -0.0024 -0.9566
  984MOL0     H35762  10.739   8.438   2.376 -0.6575  0.2949  1.3947
  984MOL0     H35763  10.779   8.553   2.252 -1.4418  1.1870 -0.1095
  984MOL0     H35764  10.623   8.644   2.435 -0.3466  2.6745  1.1470
  984MOL0     H35765  10.758   8.627   2.539  2.2574  1.0625 -0.7244
  984MOL0     H35766  10.757   8.805   2.308 -3.0998  1.9517  1.3388
  984MOL0     H35767  10.891   8.777   2.411  0.1498 -0.7614 -0.6882
  984MOL0     H35768  10.758   8.847   2.612 -0.9035 -1.3862  0.6988
  984MOL0     H35769  10.619   8.887   2.517  0.3518  0.2910 -0.7607
  984MOL0     H35770  10.729   9.102   2.556 -1.8040  1.2371 -0.6527
  984MOL0     H35771  10.778   9.047   2.389 -0.7855 -1.3724  0.5926
  984MOL0     H35772  11.205   7.963   2.220 -0.4558 -1.1814  2.3161
  984MOL0     H35773  11.165   7.768   2.070  0.7333  1.1528 -2.3883
  984MOL0     H35774  11.019   7.522   1.824  1.1352  0.0949 -1.3137
  984MOL0     H35775  11.009   7.298   1.710  2.6830  0.3649  2.9766
  984MOL0     H35776  11.021   6.545   3.291 -0.2545 -2.2430  1.7815
  984MOL0     H35777  11.024   6.386   3.463  0.4508  2.1003  1.3130
  984MOL0     H35778  11.157   5.909   3.569 -1.4386 -1.4629  1.7114
  984MOL0     H35779  11.173   5.726   3.700 -1.8359 -0.5688  4.8212
  984MOL0     H35780  11.416   5.737   4.083 -0.2088  1.5163  0.9600
  984MOL0     H35781  11.261   5.814   4.131 -0.2609 -1.4864  0.3329
  984MOL0     H35782  11.328   5.585   4.218  0.5688  1.2219  1.5672
  984MOL0     H35783  11.302   5.526   4.055  2.5124  1.6075 -1.0233
  984MOL0     H35784  11.083   5.662   4.225  2.2308 -1.2714  0.4560
  984MOL0     H35785  11.054   5.590   4.073 -1.8208 -1.7065  2.1807
  984MOL0     H35786  10.993   5.442   4.245 -0.3643 -3.4457 -0.4925
  984MOL0     H35787  11.163   5.451   4.310 -0.5808  0.1334  0.8836
  984MOL0     H35788  11.213   5.164   4.004 -1.5418 -2.7199 -0.1369
  984MOL0     H35789  11.355   5.989   4.000 -0.2179 -1.4175  0.7019
  984MOL0     H35790  11.231   6.249   3.948 -1.1788 -2.6224 -1.7569
  984MOL0     H35791  11.402   6.253   3.932 -0.5196  2.2504 -0.2352
  984MOL0     H35792  11.321   6.315   3.805 -0.0713  2.5305  1.6762
  985MOL0     O35793   5.413   6.814   5.470  0.1801 -0.1239 -1.1019
  985MOL0     C35794   5.376   6.723   5.541 -0.3975 -0.9970 -0.1268
  985MOL0     O35795   5.318   6.613   5.501 -0.6392 -0.5997 -0.2946
  985MOL0     C35796   5.243   6.608   5.393 -0.2865  0.1672  1.0193
  985MOL0     C35797   5.199   6.717   5.308  0.2796  0.8321  0.8343
  985MOL0     C35798   5.127   6.681   5.193  0.2875 -0.3175  0.4137
  985MOL0     C35799   5.091   6.550   5.164  0.0621  1.5357  0.0234
  985MOL0     O35800   5.025   6.512   5.050  0.5443  0.7181 -0.1989
  985MOL0     C35801   4.878   6.483   5.080  0.2155  0.0398 -1.3286
  985MOL0     C35802   4.775   6.477   4.962  0.6509  0.5123 -0.9441
  985MOL0     C35803   4.639   6.426   5.008 -1.0122  0.5119  0.3460
  985MOL0     C35804   4.542   6.421   4.891 -0.1931 -1.6783  0.3698
  985MOL0     C35805   4.405   6.352   4.918 -0.3195 -0.2959 -0.1973
  985MOL0     C35806   4.294   6.358   4.817  0.2325 -0.7961 -0.0599
  985MOL0     C35807   4.256   6.509   4.798 -0.6472 -0.7884 -0.8090
  985MOL0     C35808   4.126   6.513   4.704 -0.4403 -0.5397 -0.4321
  985MOL0     N35809   4.140   6.438   4.576 -0.6896 -0.1295  0.4144
  985MOL0     C35810   4.233   6.482   4.483  0.3937 -0.5232  0.3641
  985MOL0     C35811   4.198   6.409   4.377  0.0353  1.0093  0.0379
  985MOL0     C35812   4.279   6.413   4.250  0.9057  0.1877 -0.0425
  985MOL0     C35813   4.233   6.294   4.154  0.1784  0.8266 -0.0361
  985MOL0     C35814   4.267   6.303   3.998  0.6783  0.3713 -0.5166
  985MOL0     C35815   4.416   6.278   3.974 -0.1936  0.3063 -0.6684
  985MOL0     O35816   4.459   6.141   3.986  0.1508  0.7828  0.1214
  985MOL0     C35817   4.583   6.103   3.947 -0.2494 -0.2402  0.2119
  985MOL0     C35818   4.706   6.187   3.939  1.1691  0.5577 -0.4225
  985MOL0     C35819   4.826   6.134   3.911 -0.1863  0.0588 -0.6268
  985MOL0     C35820   4.937   6.236   3.909 -1.2214  0.1880  1.2136
  985MOL0     C35821   4.845   5.994   3.898  0.6382 -0.2937  0.4158
  985MOL0     C35822   4.977   5.933   3.891 -1.1141 -0.6409  0.4079
  985MOL0     O35823   4.992   5.835   3.797  0.4385 -0.1841 -0.1058
  985MOL0     C35824   5.113   5.807   3.741 -0.5386  0.1045  1.1829
  985MOL0     C35825   5.155   5.673   3.737 -0.1905  0.0570  0.6309
  985MOL0     C35826   5.261   5.630   3.662 -0.0370  0.3683  0.1865
  985MOL0     C35827   5.336   5.717   3.588  0.0089 -0.5636 -0.4875
  985MOL0     O35828   5.448   5.665   3.526  0.7402  0.3846 -0.4078
  985MOL0     C35829   5.570   5.752   3.516 -0.1654 -0.3388  0.3538
  985MOL0     C35830   5.679   5.669   3.433  0.0187 -1.4116 -0.7493
  985MOL0     C35831   5.805   5.759   3.410 -0.9684 -0.5642 -0.3260
  985MOL0     C35832   5.891   5.712   3.289  0.5727  0.8549  0.7268
  985MOL0     C35833   6.052   5.743   3.323 -0.1337 -0.1745  0.1342
  985MOL0     C35834   6.134   5.677   3.212 -0.3747  0.3856 -0.6671
  985MOL0     C35835   6.277   5.728   3.209 -0.3917 -0.8895 -0.0970
  985MOL0     C35836   6.316   5.770   3.068  0.2245  0.3615 -0.0765
  985MOL0    Cl35837   6.325   5.627   2.965  0.0908 -0.4846 -0.0579
  985MOL0     C35838   5.297   5.850   3.582 -0.1728 -0.7621 -0.2893
  985MOL0     C35839   5.185   5.898   3.661  0.3093  0.3355 -0.0248
  985MOL0     O35840   5.067   5.963   3.975  0.1778  0.2176  0.8166
  985MOL0     C35841   4.734   5.908   3.897 -0.2176  1.2822 -0.1661
  985MOL0     C35842   4.610   5.972   3.927  0.6835 -0.3322 -0.0413
  985MOL0     N35843   4.087   6.334   4.403 -0.7747 -0.1006  0.4950
  985MOL0     N35844   4.045   6.357   4.519 -0.2294  0.3316 -0.0045
  985MOL0     C35845   5.124   6.446   5.249 -0.0271 -0.4211 -0.9058
  985MOL0     C35846   5.197   6.474   5.365  0.2034  0.8398  0.3108
  985MOL0     C35847   5.412   6.719   5.689 -0.4829 -1.3844  1.2824
  985MOL0     C35848   5.334   6.638   5.758 -0.3257  0.9819  0.0043
  985MOL0     C35849   5.335   6.623   5.897  0.4122 -0.3180 -0.3629
  985MOL0     C35850   5.398   6.725   5.970  0.2666 -1.3369  0.3748
  985MOL0     O35851   5.412   6.729   6.107 -0.4588 -0.5762  0.1099
  985MOL0     C35852   5.330   6.631   6.184  0.4196 -0.1823  0.8218
  985MOL0     C35853   5.364   6.644   6.336 -0.1999  0.5557  0.2175
  985MOL0     C35854   5.516   6.630   6.348  0.1417  0.6522 -0.1322
  985MOL0     C35855   5.563   6.639   6.504 -1.3938 -1.4782  0.2304
  985MOL0     C35856   5.711   6.615   6.520 -0.6252  0.0821  0.2457
  985MOL0     C35857   5.827   6.595   6.544  0.1304 -0.2972  0.1518
  985MOL0     C35858   5.467   6.826   5.907  0.2898 -0.2689  0.7668
  985MOL0     C35859   5.485   6.817   5.769 -0.3148  0.0872 -0.2959
  985MOL0     C35860   5.579   6.931   5.715 -0.2042  0.5247 -0.2552
  985MOL0     H35861   5.225   6.821   5.326  1.8521  0.1019  3.2933
  985MOL0     H35862   5.104   6.743   5.107 -4.3503 -2.9379 -0.6067
  985MOL0     H35863   4.850   6.579   5.124  1.1322  0.3224 -1.3278
  985MOL0     H35864   4.878   6.394   5.142  1.4110 -0.4168 -1.9387
  985MOL0     H35865   4.765   6.580   4.928 -0.5540  0.8180  0.2552
  985MOL0     H35866   4.812   6.410   4.883 -1.1435  1.7047 -2.8787
  985MOL0     H35867   4.644   6.328   5.057 -0.7038 -0.2328 -1.1164
  985MOL0     H35868   4.597   6.490   5.086 -3.9141 -1.0972  0.2476
  985MOL0     H35869   4.527   6.522   4.853 -0.2307 -0.9861  2.1327
  985MOL0     H35870   4.589   6.372   4.805  0.2948 -0.0510 -0.3315
  985MOL0     H35871   4.363   6.387   5.013  2.8945 -1.4988  1.8350
  985MOL0     H35872   4.426   6.247   4.939  1.7551  0.5269  2.3743
  985MOL0     H35873   4.330   6.309   4.726  0.6785  0.3555 -0.5075
  985MOL0     H35874   4.215   6.294   4.857  1.2768 -2.2435 -0.2312
  985MOL0     H35875   4.334   6.571   4.753 -1.6578  1.3562  0.2043
  985MOL0     H35876   4.233   6.565   4.890 -2.4439 -2.5028 -0.1405
  985MOL0     H35877   4.042   6.469   4.758  1.4742 -0.4477  2.9050
  985MOL0     H35878   4.095   6.616   4.685 -0.1963 -0.1336  1.1595
  985MOL0     H35879   4.312   6.556   4.496  0.0146  0.0723 -0.5641
  985MOL0     H35880   4.388   6.403   4.256  1.1842  1.7385 -1.7284
  985MOL0     H35881   4.261   6.511   4.205  2.5767 -0.3251 -2.0131
  985MOL0     H35882   4.269   6.200   4.198  0.8317 -0.0737 -2.3048
  985MOL0     H35883   4.125   6.286   4.169  0.0427  0.5361 -1.1169
  985MOL0     H35884   4.210   6.239   3.930  3.5245 -1.3797 -1.4683
  985MOL0     H35885   4.243   6.404   3.963  1.1849  1.2353  1.5024
  985MOL0     H35886   4.439   6.303   3.870  2.9197  1.3978  0.1556
  985MOL0     H35887   4.475   6.343   4.039  0.9559 -1.9451  0.6837
  985MOL0     H35888   4.689   6.293   3.954 -2.7977  0.1296 -0.7175
  985MOL0     H35889   4.915   6.334   3.953 -1.0559  0.0566  1.5942
  985MOL0     H35890   4.965   6.255   3.805  3.6036 -1.8697  1.8792
  985MOL0     H35891   5.024   6.198   3.962 -1.5126  1.3351  2.5864
  985MOL0     H35892   5.101   5.598   3.794 -1.8616 -0.2936 -1.2552
  985MOL0     H35893   5.281   5.523   3.664  1.4763  0.6376  1.4070
  985MOL0     H35894   5.545   5.856   3.492 -2.5533 -0.5834  1.5057
  985MOL0     H35895   5.615   5.764   3.615  3.6157 -4.6167 -0.5057
  985MOL0     H35896   5.718   5.583   3.489  1.9008  0.0507  0.3235
  985MOL0     H35897   5.636   5.645   3.335 -1.7366  2.1991 -1.0348
  985MOL0     H35898   5.867   5.782   3.497 -2.2465  1.2907  0.1732
  985MOL0     H35899   5.765   5.860   3.395  0.6612  0.7293  3.1107
  985MOL0     H35900   5.869   5.755   3.191  0.8001 -3.2192 -1.3284
  985MOL0     H35901   5.875   5.605   3.277 -2.1219  0.9211  2.7503
  985MOL0     H35902   6.066   5.851   3.328  0.7575 -0.3205  0.9210
  985MOL0     H35903   6.092   5.705   3.417  2.3861  2.2034  0.1198
  985MOL0     H35904   6.089   5.694   3.113 -0.2377  1.2220 -0.5971
  985MOL0     H35905   6.138   5.569   3.226 -0.2518  0.4180 -0.4466
  985MOL0     H35906   6.340   5.646   3.246 -0.8709 -0.6623  1.2878
  985MOL0     H35907   6.293   5.813   3.275 -3.9182 -0.3215  0.2124
  985MOL0     H35908   6.417   5.810   3.071  0.2850  0.1961  2.6520
  985MOL0     H35909   6.246   5.846   3.032 -0.7122 -0.9040 -1.0222
  985MOL0     H35910   5.342   5.911   3.505 -0.6028 -1.9129 -1.4885
  985MOL0     H35911   5.151   6.001   3.654  0.1795  0.3180  0.3323
  985MOL0     H35912   4.743   5.803   3.872 -1.5598  1.4543 -1.5467
  985MOL0     H35913   4.533   5.896   3.938 -0.4375  0.7501 -0.2110
  985MOL0     H35914   5.098   6.345   5.220 -1.4727 -0.7431  1.2729
  985MOL0     H35915   5.221   6.387   5.426  2.5239  0.6821 -0.7177
  985MOL0     H35916   5.268   6.566   5.711  0.5296  0.1774 -0.0048
  985MOL0     H35917   5.261   6.557   5.941 -0.3364 -0.7866 -2.2404
  985MOL0     H35918   5.225   6.656   6.168  0.5860  2.7324  3.3822
  985MOL0     H35919   5.353   6.527   6.160  1.5135  0.1216  0.5073
  985MOL0     H35920   5.310   6.572   6.398  1.8335  0.1888  1.6795
  985MOL0     H35921   5.351   6.742   6.385  0.8303 -1.1536  4.3674
  985MOL0     H35922   5.548   6.536   6.302 -1.2353 -0.4732  1.1443
  985MOL0     H35923   5.566   6.716   6.303  0.7782  0.2276 -0.2584
  985MOL0     H35924   5.511   6.567   6.567  0.2689 -0.6554  2.7018
  985MOL0     H35925   5.533   6.735   6.547 -1.8839 -1.8419  0.7106
  985MOL0     H35926   5.931   6.581   6.564 -0.4647 -1.6866  2.6452
  985MOL0     H35927   5.507   6.911   5.962 -1.3034  2.0615 -1.4643
  985MOL0     H35928   5.516   6.979   5.640  0.1707 -2.0885 -2.3791
  985MOL0     H35929   5.609   7.000   5.795 -0.2951  2.3166 -1.7109
  985MOL0     H35930   5.664   6.884   5.664  0.5121  0.9657  0.4954
  986MOL0     O35931   6.642   5.263   8.848 -0.4233  0.2200 -0.7200
  986MOL0     C35932   6.541   5.214   8.890  1.0758 -0.6193  0.0874
  986MOL0     O35933   6.486   5.098   8.843  0.1856  0.3711  0.4086
  986MOL0     C35934   6.524   5.034   8.725 -0.8549 -0.2039 -0.1218
  986MOL0     C35935   6.477   4.897   8.705  0.0191  0.0944 -0.4817
  986MOL0     C35936   6.524   4.822   8.601 -0.0593  0.4304  0.3076
  986MOL0     C35937   6.610   4.881   8.510 -0.4487 -0.2789 -0.6130
  986MOL0     O35938   6.636   4.794   8.405  0.1472 -0.4245 -0.2712
  986MOL0     C35939   6.766   4.815   8.334  0.7578 -0.1498  0.1482
  986MOL0     C35940   6.769   4.732   8.211 -0.1429  0.6313  1.0715
  986MOL0     C35941   6.714   4.591   8.220 -0.8753 -0.5879  0.0099
  986MOL0     C35942   6.737   4.514   8.088  0.0901 -0.4381 -0.4213
  986MOL0     C35943   6.674   4.370   8.112  0.4529  0.4020 -0.4673
  986MOL0     C35944   6.668   4.282   7.986  0.5605 -0.4973 -0.3059
  986MOL0     C35945   6.803   4.236   7.927  0.7393  0.5174  0.2120
  986MOL0     C35946   6.794   4.093   7.873  0.5153  0.4756  0.0850
  986MOL0     N35947   6.681   4.090   7.778  0.1326  0.4200  0.4882
  986MOL0     C35948   6.694   4.138   7.647  0.3770 -0.6747  0.4386
  986MOL0     C35949   6.583   4.087   7.583 -0.5589  0.1067 -0.5597
  986MOL0     C35950   6.561   4.098   7.438 -0.1757  1.2532 -0.5915
  986MOL0     C35951   6.532   4.242   7.394 -0.1867 -0.5683 -0.4056
  986MOL0     C35952   6.487   4.264   7.243  0.7828 -0.4371  0.0517
  986MOL0     C35953   6.446   4.410   7.209 -0.4952  0.4457  0.0744
  986MOL0     O35954   6.412   4.415   7.071 -0.7778  0.7645 -0.3541
  986MOL0     C35955   6.347   4.533   7.028  0.7656  0.2105  0.6123
  986MOL0     C35956   6.308   4.527   6.896 -0.7490  0.2988 -0.0449
  986MOL0     C35957   6.245   4.631   6.834 -0.3052 -0.7900 -0.5934
  986MOL0     C35958   6.219   4.615   6.688  0.1225  0.7042 -0.3693
  986MOL0     C35959   6.214   4.750   6.911  0.0915  1.3695 -0.6058
  986MOL0     C35960   6.127   4.857   6.864 -0.6752 -0.4923  0.0876
  986MOL0     O35961   6.038   4.820   6.771 -0.2940  0.1454  0.6407
  986MOL0     C35962   5.936   4.882   6.717 -0.2779 -0.5738 -0.2718
  986MOL0     C35963   5.916   5.023   6.741 -0.3147  0.5510  0.6127
  986MOL0     C35964   5.808   5.082   6.678  0.6333 -0.5798  0.0933
  986MOL0     C35965   5.717   5.027   6.600 -0.9250  0.0108  0.5790
  986MOL0     O35966   5.626   5.112   6.545  1.1480 -0.0487 -0.2946
  986MOL0     C35967   5.509   5.066   6.466  0.8297  0.0126  0.0004
  986MOL0     C35968   5.404   5.162   6.454 -0.0554  0.0751  0.5864
  986MOL0     C35969   5.365   5.220   6.591  0.6988 -1.0021  0.7984
  986MOL0     C35970   5.242   5.312   6.576  0.1460 -0.0917 -0.5782
  986MOL0     C35971   5.143   5.304   6.692  0.1991 -0.4690 -0.0816
  986MOL0     C35972   5.045   5.193   6.714 -0.3651  0.0594  0.0767
  986MOL0     C35973   4.948   5.174   6.593  0.2593  0.4521  0.1831
  986MOL0     C35974   4.883   5.024   6.609 -0.6765 -1.1490 -0.2396
  986MOL0    Cl35975   5.019   4.909   6.631  0.0344 -0.6621  0.4710
  986MOL0     C35976   5.727   4.891   6.568  0.4513  0.1478  0.3101
  986MOL0     C35977   5.838   4.820   6.633  0.6945  0.7797  0.9880
  986MOL0     O35978   6.131   4.966   6.916 -0.2150 -0.1375 -0.8211
  986MOL0     C35979   6.248   4.748   7.050  0.0461 -0.8991 -0.6795
  986MOL0     C35980   6.315   4.646   7.101 -0.0382 -0.5493  0.3924
  986MOL0     N35981   6.530   3.995   7.665 -0.3236 -0.0538 -1.0987
  986MOL0     N35982   6.570   4.007   7.786 -0.6604 -0.6761  0.0043
  986MOL0     C35983   6.656   5.009   8.527  0.6581  0.4029 -0.6993
  986MOL0     C35984   6.619   5.086   8.635  0.7442  0.9128 -0.4461
  986MOL0     C35985   6.484   5.270   9.020  0.1858  0.2690  0.1758
  986MOL0     C35986   6.353   5.224   9.060  0.0129  0.1673 -1.0160
  986MOL0     C35987   6.278   5.288   9.158  0.0077  0.1447  0.1372
  986MOL0     C35988   6.328   5.393   9.232  0.1927 -0.0253 -0.5400
  986MOL0     O35989   6.243   5.449   9.317 -0.0183 -0.0467  0.4205
  986MOL0     C35990   6.265   5.589   9.352 -0.3048  0.6215  0.6788
  986MOL0     C35991   6.355   5.594   9.472 -0.3719  0.4186 -0.8272
  986MOL0     C35992   6.286   5.538   9.602 -0.1044 -0.1024  0.4492
  986MOL0     C35993   6.386   5.545   9.724 -0.7492 -0.1926 -0.6410
  986MOL0     C35994   6.320   5.498   9.844  0.7792  0.5401 -0.1380
  986MOL0     C35995   6.277   5.462   9.950 -0.1527 -0.3139  0.2291
  986MOL0     C35996   6.457   5.436   9.200  0.0647  0.0098 -0.2192
  986MOL0     C35997   6.539   5.373   9.091  0.1443 -0.6876 -0.0450
  986MOL0     C35998   6.665   5.438   9.050 -0.2309 -0.9237 -0.7381
  986MOL0     H35999   6.414   4.854   8.782 -0.1448  1.0596 -0.0692
  986MOL0     H36000   6.497   4.721   8.574 -1.3738  0.9560 -0.4377
  986MOL0     H36001   6.846   4.790   8.404  0.0047 -0.7655  0.8062
  986MOL0     H36002   6.792   4.917   8.304  2.2055  0.1369  2.1524
  986MOL0     H36003   6.733   4.781   8.121 -1.7897 -0.4707  1.0825
  986MOL0     H36004   6.875   4.715   8.192 -0.8874 -2.8578 -0.9976
  986MOL0     H36005   6.762   4.541   8.305  0.3529  2.3634  1.1986
  986MOL0     H36006   6.607   4.599   8.239 -0.5173 -0.7575  2.4725
  986MOL0     H36007   6.674   4.555   8.009 -1.0658 -0.7997  0.2875
  986MOL0     H36008   6.840   4.515   8.050  0.5804 -1.8124  0.7776
  986MOL0     H36009   6.577   4.367   8.163  0.9231 -3.2521  0.4466
  986MOL0     H36010   6.729   4.329   8.197 -1.1924  1.4739  1.1894
  986MOL0     H36011   6.604   4.199   8.017 -0.8759 -0.2110 -2.2771
  986MOL0     H36012   6.612   4.333   7.907  1.1322  1.5735  0.5647
  986MOL0     H36013   6.870   4.234   8.014 -0.5628 -0.6581  1.2378
  986MOL0     H36014   6.828   4.300   7.842 -2.2118 -0.7980 -1.7897
  986MOL0     H36015   6.888   4.055   7.830 -1.3816 -1.2130 -2.9367
  986MOL0     H36016   6.772   4.020   7.951  6.4071 -2.2160 -0.1786
  986MOL0     H36017   6.778   4.189   7.600 -0.1103 -0.3561 -0.0996
  986MOL0     H36018   6.491   4.024   7.400  0.1200  1.8863 -2.5193
  986MOL0     H36019   6.654   4.071   7.386 -0.9509  1.8284 -2.3533
  986MOL0     H36020   6.461   4.294   7.458  2.0504  3.1143 -0.6134
  986MOL0     H36021   6.625   4.301   7.399 -1.7171  1.9635 -0.1462
  986MOL0     H36022   6.559   4.219   7.175  1.2601 -0.2964  0.4584
  986MOL0     H36023   6.393   4.214   7.216 -0.1738  0.5177  1.4310
  986MOL0     H36024   6.372   4.448   7.280  1.2923 -0.0449  2.3247
  986MOL0     H36025   6.539   4.465   7.229  1.2953 -1.7918 -1.6211
  986MOL0     H36026   6.356   4.442   6.849  0.5018  0.2570  1.2434
  986MOL0     H36027   6.113   4.597   6.673  0.2364 -0.9044  0.5752
  986MOL0     H36028   6.272   4.529   6.647 -0.5024 -0.5402  1.3296
  986MOL0     H36029   6.259   4.700   6.631  1.3623  1.8539  2.0749
  986MOL0     H36030   5.973   5.093   6.802 -1.6650  0.4740  2.0257
  986MOL0     H36031   5.813   5.191   6.681  2.4606 -0.5449 -1.7055
  986MOL0     H36032   5.533   5.030   6.366 -0.6213 -0.4446 -0.2018
  986MOL0     H36033   5.468   4.979   6.519  1.7995  0.6495  1.8782
  986MOL0     H36034   5.446   5.246   6.399 -3.3074  1.4912  0.0292
  986MOL0     H36035   5.321   5.130   6.390  0.5387  2.1213 -1.3429
  986MOL0     H36036   5.448   5.279   6.632  0.7328 -0.3892 -0.1167
  986MOL0     H36037   5.345   5.138   6.660  1.5356 -3.1033 -1.3183
  986MOL0     H36038   5.188   5.294   6.483  2.5623 -1.2298 -1.8438
  986MOL0     H36039   5.275   5.415   6.564 -2.2479  0.8887  0.5667
  986MOL0     H36040   5.204   5.326   6.780  1.0148  0.0561 -0.7608
  986MOL0     H36041   5.080   5.391   6.675  1.6224 -0.1144 -5.3960
  986MOL0     H36042   4.980   5.225   6.796 -0.4964  1.7752 -0.6630
  986MOL0     H36043   5.098   5.102   6.743  1.9268  1.3340  0.0745
  986MOL0     H36044   5.002   5.193   6.499  2.1540 -1.0927  0.8761
  986MOL0     H36045   4.862   5.240   6.600  1.7220  2.3621  1.2056
  986MOL0     H36046   4.818   5.006   6.522  1.0385 -4.6146 -1.0067
  986MOL0     H36047   4.824   5.019   6.701 -3.1887 -5.0932 -1.7895
  986MOL0     H36048   5.667   4.846   6.489  0.3872  1.1152 -0.2076
  986MOL0     H36049   5.858   4.718   6.601 -0.0641  0.7651  0.5261
  986MOL0     H36050   6.217   4.823   7.122  3.1563 -1.7371  1.7399
  986MOL0     H36051   6.333   4.650   7.208 -0.1409  2.8583  0.3982
  986MOL0     H36052   6.703   5.054   8.440  1.1862 -1.3217 -1.3559
  986MOL0     H36053   6.679   5.176   8.639  1.2711  0.8528 -4.0379
  986MOL0     H36054   6.299   5.147   9.005  0.1664  0.0545 -1.0097
  986MOL0     H36055   6.182   5.262   9.200 -0.3822  2.5017  0.8450
  986MOL0     H36056   6.299   5.654   9.271  0.2983 -2.4959 -1.7787
  986MOL0     H36057   6.169   5.637   9.375  0.2215  2.0566 -0.0149
  986MOL0     H36058   6.380   5.700   9.483 -0.3403  0.6375 -2.6820
  986MOL0     H36059   6.455   5.551   9.469 -0.5555 -0.0635 -0.2266
  986MOL0     H36060   6.193   5.592   9.623 -0.8966 -1.5148  0.6786
  986MOL0     H36061   6.248   5.440   9.573  0.3275  0.4139 -2.0937
  986MOL0     H36062   6.410   5.651   9.729 -1.9608  0.0418  0.6885
  986MOL0     H36063   6.477   5.486   9.711 -0.0280  0.4950  1.0893
  986MOL0     H36064   6.220   5.434  10.036 -0.6803 -2.6284 -0.7832
  986MOL0     H36065   6.513   5.507   9.261 -0.1005 -0.4103  0.4203
  986MOL0     H36066   6.680   5.524   9.117 -5.4134 -0.5003  0.2972
  986MOL0     H36067   6.755   5.376   9.062 -0.0136 -0.2316  1.6975
  986MOL0     H36068   6.654   5.476   8.948 -0.6200  1.1149  0.0120
  987MOL0     O36069   9.045   8.575  11.042  0.1076  1.3273 -0.2415
  987MOL0     C36070   9.073   8.648  11.133  0.5591 -0.5424 -0.4842
  987MOL0     O36071   9.100   8.778  11.117  0.6949  1.0159  0.3531
  987MOL0     C36072   9.022   8.844  11.028 -0.2843  0.7024 -0.4836
  987MOL0     C36073   8.888   8.866  11.041 -0.0921  0.1331  0.4104
  987MOL0     C36074   8.813   8.932  10.950  0.9957 -0.2704  0.2673
  987MOL0     C36075   8.879   8.971  10.831  0.8485 -0.7302  0.9571
  987MOL0     O36076   8.819   9.039  10.725 -0.1928  0.1758 -0.1259
  987MOL0     C36077   8.687   9.096  10.749 -0.4244 -0.9712 -0.2331
  987MOL0     C36078   8.665   9.163  10.616  0.1622 -0.3038  0.1387
  987MOL0     C36079   8.519   9.200  10.597  0.7649 -0.6739  0.3009
  987MOL0     C36080   8.495   9.286  10.471 -0.0391  0.4708 -0.4791
  987MOL0     C36081   8.523   9.199  10.349  0.0910  0.3317 -0.6355
  987MOL0     C36082   8.515   9.275  10.215 -0.6412  0.4908 -0.7291
  987MOL0     C36083   8.624   9.383  10.203 -0.2983 -0.3264 -0.1342
  987MOL0     C36084   8.724   9.329  10.092  0.0549  0.9802 -0.2555
  987MOL0     N36085   8.835   9.425  10.051 -0.1221  0.6594 -0.4754
  987MOL0     C36086   8.851   9.472   9.926  0.4478  0.1771 -0.7922
  987MOL0     C36087   8.963   9.540   9.928 -0.7211 -0.4033  0.0313
  987MOL0     C36088   9.020   9.618   9.812 -0.3594  0.7747 -0.1342
  987MOL0     C36089   9.158   9.556   9.772 -0.5660 -1.4409 -0.5557
  987MOL0     C36090   9.217   9.650   9.664  0.3419 -0.3961  0.1709
  987MOL0     C36091   9.309   9.572   9.568 -0.5652  0.5187 -0.9500
  987MOL0     O36092   9.370   9.646   9.468  0.1446 -0.4134  0.0494
  987MOL0     C36093   9.459   9.588   9.384  0.3740 -0.3423 -1.0545
  987MOL0     C36094   9.522   9.665   9.285 -0.0376  0.9372 -0.0676
  987MOL0     C36095   9.632   9.617   9.210 -0.4469  0.5936 -0.1613
  987MOL0     C36096   9.692   9.724   9.109 -0.4189  0.3247  0.0337
  987MOL0     C36097   9.697   9.491   9.247  0.1626  0.1516  0.8013
  987MOL0     C36098   9.828   9.441   9.188 -0.3129 -0.7158 -0.7119
  987MOL0     O36099   9.875   9.319   9.229 -0.4432 -0.2815 -0.5965
  987MOL0     C36100   9.981   9.262   9.170 -0.7596  0.0052 -0.2088
  987MOL0     C36101   9.986   9.238   9.030  0.1562  1.3725 -0.4144
  987MOL0     C36102  10.096   9.173   8.977  0.9887  0.0585 -0.1187
  987MOL0     C36103  10.200   9.126   9.065  0.9157  1.1240 -0.1319
  987MOL0     O36104  10.302   9.076   8.996 -0.2861  0.7585 -0.5068
  987MOL0     C36105  10.424   9.029   9.059 -0.5978 -0.1967  0.3995
  987MOL0     C36106  10.428   8.886   9.135  0.0433 -0.2247  0.6843
  987MOL0     C36107  10.542   8.855   9.243  0.7493 -0.4048 -0.2763
  987MOL0     C36108  10.666   8.804   9.169 -0.5705 -0.2795 -1.1188
  987MOL0     C36109  10.788   8.802   9.265  0.0909 -0.6987 -0.5178
  987MOL0     C36110  10.773   8.707   9.387 -0.3795  0.1823 -0.2690
  987MOL0     C36111  10.901   8.673   9.469 -0.1063 -0.8055  0.5726
  987MOL0     C36112  11.004   8.581   9.395  0.2153  0.5437  0.8262
  987MOL0    Cl36113  11.134   8.557   9.510 -0.2244 -0.2564  0.6548
  987MOL0     C36114  10.200   9.145   9.202  0.1592 -0.3336 -0.8678
  987MOL0     C36115  10.085   9.217   9.253 -1.0616  1.0910 -0.9339
  987MOL0     O36116   9.901   9.516   9.121 -0.3316 -0.1062  0.0517
  987MOL0     C36117   9.635   9.416   9.346 -1.6379  0.5690 -0.7636
  987MOL0     C36118   9.520   9.466   9.418  0.6036  0.4966  0.9069
  987MOL0     N36119   9.016   9.543  10.056  0.4316 -0.0399  0.6091
  987MOL0     N36120   8.939   9.463  10.129  0.4845 -0.4655  0.1747
  987MOL0     C36121   9.016   8.957  10.816 -0.8168 -0.2704 -0.6160
  987MOL0     C36122   9.091   8.900  10.921 -0.2081 -0.5020  0.5243
  987MOL0     C36123   9.072   8.604  11.275  0.1559  0.5580 -0.0942
  987MOL0     C36124   9.106   8.699  11.367 -0.2087 -0.2275 -0.4367
  987MOL0     C36125   9.092   8.680  11.503  0.2217 -0.5697 -0.9266
  987MOL0     C36126   9.020   8.571  11.552  1.0690  0.3131  0.3348
  987MOL0     O36127   8.972   8.554  11.679 -0.8194  0.8279 -0.4314
  987MOL0     C36128   9.045   8.623  11.776 -0.4123  0.2272  0.3193
  987MOL0     C36129   9.004   8.584  11.926 -0.5011 -0.0996 -0.0914
  987MOL0     C36130   9.030   8.440  11.955  0.2160 -0.2015 -0.3791
  987MOL0     C36131   8.937   8.341  11.879 -0.4971  0.2020 -1.2527
  987MOL0     C36132   8.791   8.368  11.912 -0.3319 -0.1302  0.0267
  987MOL0     C36133   8.666   8.370  11.947 -0.2396 -0.5428 -0.4063
  987MOL0     C36134   8.986   8.473  11.461  0.5717  0.3805  0.5047
  987MOL0     C36135   9.026   8.484  11.326 -1.1089 -0.3387 -0.0174
  987MOL0     C36136   8.987   8.381  11.238  0.0909  0.2885 -0.2333
  987MOL0     H36137   8.846   8.824  11.132 -0.4928 -2.9952 -1.0963
  987MOL0     H36138   8.707   8.956  10.959  1.3213  3.7190 -3.0776
  987MOL0     H36139   8.672   9.158  10.838  1.0054  0.9059 -1.2409
  987MOL0     H36140   8.619   9.010  10.758 -1.8151  0.2743  2.0198
  987MOL0     H36141   8.721   9.256  10.617 -2.5448  1.4462 -0.5990
  987MOL0     H36142   8.704   9.096  10.538  3.7891  0.4804  1.1037
  987MOL0     H36143   8.458   9.109  10.599 -2.7529  1.5128  1.3521
  987MOL0     H36144   8.491   9.252  10.689  0.1572  2.4830 -1.5156
  987MOL0     H36145   8.392   9.322  10.465  0.0866  0.5731 -2.4576
  987MOL0     H36146   8.549   9.381  10.470 -0.7692  0.8855 -0.8622
  987MOL0     H36147   8.452   9.117  10.355  0.0294  0.4777  2.5958
  987MOL0     H36148   8.625   9.159  10.352  0.1722  0.5179 -0.8689
  987MOL0     H36149   8.514   9.203  10.134 -1.9870  1.7082 -1.8393
  987MOL0     H36150   8.417   9.322  10.204 -2.3956 -2.4382  1.1539
  987MOL0     H36151   8.684   9.400  10.293 -0.5949 -0.9385  0.1839
  987MOL0     H36152   8.579   9.477  10.170 -2.1087 -1.2551 -0.4102
  987MOL0     H36153   8.772   9.245  10.144 -1.8026  0.8070  1.2977
  987MOL0     H36154   8.667   9.295  10.005  3.3860  0.5943 -2.5060
  987MOL0     H36155   8.791   9.462   9.836 -0.1651  2.3311 -0.6858
  987MOL0     H36156   9.020   9.726   9.829 -2.6165  1.2033 -2.1688
  987MOL0     H36157   8.959   9.612   9.721 -1.4753  2.6853  0.4259
  987MOL0     H36158   9.240   9.565   9.843  1.4668  8.0126 -2.7365
  987MOL0     H36159   9.136   9.453   9.745 -0.7428 -3.0366  4.6260
  987MOL0     H36160   9.145   9.687   9.590  3.3152  1.6471 -1.9037
  987MOL0     H36161   9.260   9.737   9.713 -1.8003 -0.1555  1.7879
  987MOL0     H36162   9.388   9.525   9.627 -1.5379  1.8198  1.5123
  987MOL0     H36163   9.246   9.493   9.524  0.4625 -1.1697  0.4678
  987MOL0     H36164   9.484   9.766   9.273 -1.3951  0.8873  2.9478
  987MOL0     H36165   9.705   9.689   9.006  1.0751  4.4196 -1.3850
  987MOL0     H36166   9.788   9.758   9.150 -0.2127 -1.0604  0.7394
  987MOL0     H36167   9.630   9.814   9.098  0.9237  1.1393 -1.3646
  987MOL0     H36168   9.906   9.255   8.958 -0.1633  0.1438 -0.3786
  987MOL0     H36169  10.093   9.141   8.873 -0.4616 -0.5970  0.0964
  987MOL0     H36170  10.491   9.007   8.975 -1.5343 -3.9643  0.4522
  987MOL0     H36171  10.462   9.114   9.117  0.1775  0.1267 -0.5622
  987MOL0     H36172  10.330   8.872   9.182  0.4187 -1.3012  1.1848
  987MOL0     H36173  10.427   8.809   9.057 -2.4698  0.9977 -0.6379
  987MOL0     H36174  10.497   8.783   9.312  1.2397 -2.8803 -2.3685
  987MOL0     H36175  10.567   8.952   9.287  1.3340 -1.6872  2.4239
  987MOL0     H36176  10.685   8.876   9.089  0.9982 -0.6469 -1.1212
  987MOL0     H36177  10.657   8.704   9.125 -2.5592 -0.8174  0.4016
  987MOL0     H36178  10.876   8.772   9.208  0.7565  1.1409 -0.5230
  987MOL0     H36179  10.801   8.899   9.314 -2.6569 -0.8683  0.7309
  987MOL0     H36180  10.736   8.607   9.362  1.0155 -0.6402  0.8169
  987MOL0     H36181  10.701   8.756   9.454 -0.5983 -2.0754  1.2819
  987MOL0     H36182  10.879   8.621   9.562  0.7278  2.1540  2.5680
  987MOL0     H36183  10.940   8.773   9.492 -0.8986  0.7847 -3.8995
  987MOL0     H36184  11.036   8.619   9.298 -0.5132  0.5802  0.5985
  987MOL0     H36185  10.960   8.481   9.389  2.0997 -0.4286  1.9711
  987MOL0     H36186  10.275   9.100   9.266 -0.4899 -0.7940 -0.4198
  987MOL0     H36187  10.061   9.242   9.356 -4.1203 -0.7471 -1.0626
  987MOL0     H36188   9.678   9.321   9.376 -0.5137  0.9723 -1.0297
  987MOL0     H36189   9.475   9.400   9.491 -2.8865 -1.1072 -2.3878
  987MOL0     H36190   9.063   8.981  10.721 -0.9037  0.9989 -0.3550
  987MOL0     H36191   9.197   8.887  10.902 -0.6760 -2.0535 -1.3439
  987MOL0     H36192   9.156   8.789  11.335  2.7149 -1.6616 -0.2555
  987MOL0     H36193   9.139   8.754  11.567 -1.4319 -0.8863  0.7534
  987MOL0     H36194   9.148   8.601  11.748 -0.5988  2.3014 -2.5460
  987MOL0     H36195   9.029   8.729  11.753 -1.1843  0.3529  1.3335
  987MOL0     H36196   8.902   8.615  11.953  0.4530  0.9852  2.6763
  987MOL0     H36197   9.075   8.646  11.982 -1.2190  1.0218 -0.3707
  987MOL0     H36198   9.122   8.400  11.911  0.5893  1.2748 -1.0149
  987MOL0     H36199   9.025   8.424  12.063 -0.5023  2.3573  0.0421
  987MOL0     H36200   8.968   8.249  11.930 -4.4162 -1.6165 -1.7476
  987MOL0     H36201   8.959   8.336  11.772  1.0104  1.6646 -1.0473
  987MOL0     H36202   8.562   8.375  11.974 -0.4471 -2.4436 -0.6969
  987MOL0     H36203   8.947   8.382  11.506  1.9390 -0.0113  0.9742
  987MOL0     H36204   8.952   8.296  11.298 -0.5282 -1.4508 -2.8815
  987MOL0     H36205   8.898   8.415  11.183 -1.7040 -4.4493 -0.7325
  987MOL0     H36206   9.067   8.345  11.173 -1.8933  0.3690 -2.9299
  988MOL0     O36207   1.984  11.482   7.933 -0.4164 -0.4800  0.2887
  988MOL0     C36208   2.018  11.424   8.033 -0.0531  0.5766 -0.1835
  988MOL0     O36209   1.969  11.422   8.158  0.0037 -0.5433  0.4242
  988MOL0     C36210   1.872  11.514   8.194 -0.2517 -0.9945 -0.2773
  988MOL0     C36211   1.767  11.472   8.274 -0.6312 -0.2172  0.1400
  988MOL0     C36212   1.676  11.566   8.324  0.0057 -0.7409 -0.2329
  988MOL0     C36213   1.687  11.697   8.286 -0.3090 -0.3452 -0.4153
  988MOL0     O36214   1.591  11.776   8.337  0.5165 -0.4356  0.6459
  988MOL0     C36215   1.541  11.862   8.245  0.2807  0.8913 -0.3969
  988MOL0     C36216   1.413  11.913   8.315  0.0229 -0.5887 -0.5341
  988MOL0     C36217   1.320  11.803   8.390 -1.2434 -1.0516  0.4956
  988MOL0     C36218   1.180  11.856   8.423  0.3467 -0.3389 -0.0147
  988MOL0     C36219   1.089  11.757   8.503 -0.0960  0.1472 -0.0621
  988MOL0     C36220   0.961  11.820   8.554  0.9258  0.2531 -0.1585
  988MOL0     C36221   0.863  11.724   8.634 -0.0345 -0.3885 -0.4456
  988MOL0     C36222   0.785  11.621   8.553 -0.3535  0.8091  0.0636
  988MOL0     N36223   0.720  11.526   8.637  0.0370 -0.5175  0.5287
  988MOL0     C36224   0.779  11.465   8.746  1.1779 -0.0868 -0.9055
  988MOL0     C36225   0.674  11.397   8.802  0.4948  0.3115  0.5231
  988MOL0     C36226   0.691  11.335   8.935 -0.8051 -1.3953 -0.0330
  988MOL0     C36227   0.568  11.301   9.023  0.6418 -0.0717  0.1598
  988MOL0     C36228   0.601  11.238   9.164  0.3732 -0.5945  0.0934
  988MOL0     C36229   0.492  11.250   9.265  1.0295  0.9042 -0.3163
  988MOL0     O36230   0.363  11.245   9.194  0.7128  0.2728  0.2142
  988MOL0     C36231   0.293  11.128   9.209  0.1788  0.3770  0.9589
  988MOL0     C36232   0.231  11.096   9.333 -0.8873 -0.3160  0.6012
  988MOL0     C36233   0.129  10.997   9.349 -0.1604 -0.0153 -0.0544
  988MOL0     C36234   0.070  10.987   9.491 -0.2006 -0.8460 -0.4545
  988MOL0     C36235   0.102  10.917   9.234  0.3953 -0.5995  0.3712
  988MOL0     C36236  -0.010  10.808   9.220 -0.7989  1.1294 -0.1818
  988MOL0     O36237  -0.076  10.774   9.346 -0.9921  0.1335  0.5431
  988MOL0     C36238  -0.184  10.689   9.342  0.0081 -0.1179  0.1105
  988MOL0     C36239  -0.296  10.724   9.414 -0.1090 -0.5007 -1.6689
  988MOL0     C36240  -0.414  10.646   9.401 -0.4464  0.2615 -0.5596
  988MOL0     C36241  -0.415  10.525   9.332  0.2560  0.1293 -0.0997
  988MOL0     O36242  -0.535  10.446   9.331  0.0317 -0.5504  0.2385
  988MOL0     C36243  -0.529  10.306   9.335 -0.5547 -0.5958 -0.7458
  988MOL0     C36244  -0.659  10.235   9.390 -0.8119  0.7611  0.6325
  988MOL0     C36245  -0.775  10.310   9.455 -0.4350  0.4159  0.7398
  988MOL0     C36246  -0.740  10.356   9.605  0.2516 -0.3786  0.7227
  988MOL0     C36247  -0.843  10.436   9.684  0.0491 -0.2098 -1.0510
  988MOL0     C36248  -0.798  10.465   9.833 -0.4356  0.4862  1.4342
  988MOL0     C36249  -0.781  10.346   9.912  0.5482 -0.5810  0.5289
  988MOL0     C36250  -0.772  10.387  10.061 -1.5262  0.0851 -0.1290
  988MOL0    Cl36251  -0.624  10.487  10.106  0.0532  0.1023 -0.3824
  988MOL0     C36252  -0.295  10.484   9.272  0.1421  0.1578 -0.0298
  988MOL0     C36253  -0.184  10.564   9.277 -0.7685  0.3734 -0.3520
  988MOL0     O36254  -0.039  10.765   9.108 -0.5221 -0.4614  0.4283
  988MOL0     C36255   0.165  10.949   9.115  0.2043 -0.3985 -0.3922
  988MOL0     C36256   0.247  11.058   9.095  0.9380 -0.4407  0.1270
  988MOL0     N36257   0.553  11.416   8.728  0.1811 -0.1356  0.2445
  988MOL0     N36258   0.589  11.494   8.628  0.6460  0.0946  0.0101
  988MOL0     C36259   1.791  11.738   8.195 -0.4099  0.1593 -0.5362
  988MOL0     C36260   1.886  11.647   8.159 -0.0504 -0.4615 -0.3628
  988MOL0     C36261   2.123  11.329   8.014  0.6111  0.5441 -0.0512
  988MOL0     C36262   2.113  11.206   8.086  0.0223  0.0954 -0.1692
  988MOL0     C36263   2.213  11.116   8.074  0.4182 -0.0068  0.5130
  988MOL0     C36264   2.330  11.133   8.000  0.5367 -0.7755 -0.7876
  988MOL0     O36265   2.440  11.058   8.015 -1.4044  0.4162 -0.8665
  988MOL0     C36266   2.443  10.930   8.094  0.5575 -0.0180  0.1009
  988MOL0     C36267   2.576  10.852   8.077 -0.5443 -0.0720 -0.0642
  988MOL0     C36268   2.559  10.708   8.136  0.4156 -0.3633  0.2787
  988MOL0     C36269   2.685  10.641   8.108  0.1231 -0.2018  0.0411
  988MOL0     C36270   2.700  10.498   8.149 -0.0976 -0.7779  0.1068
  988MOL0     C36271   2.723  10.388   8.195 -0.1800  0.1784  0.4122
  988MOL0     C36272   2.338  11.254   7.921 -0.9555  0.5274 -0.0769
  988MOL0     C36273   2.234  11.345   7.920 -0.3714  0.6018 -0.4314
  988MOL0     C36274   2.247  11.447   7.809  0.6595  0.0349  0.1427
  988MOL0     H36275   1.768  11.369   8.308  0.8369 -0.5249 -0.6955
  988MOL0     H36276   1.591  11.521   8.376  0.9279 -1.8116  0.3925
  988MOL0     H36277   1.518  11.816   8.149 -1.0024  0.2162  0.1954
  988MOL0     H36278   1.611  11.945   8.242  0.8258  0.6383  2.4275
  988MOL0     H36279   1.445  11.999   8.375  3.1668 -0.5980 -1.9565
  988MOL0     H36280   1.345  11.950   8.238  1.0293  0.5912 -0.8925
  988MOL0     H36281   1.315  11.716   8.324  0.8892  0.7782 -2.2828
  988MOL0     H36282   1.372  11.776   8.483 -1.9088 -2.0327  0.5952
  988MOL0     H36283   1.196  11.942   8.488 -2.0359 -1.6507  2.5031
  988MOL0     H36284   1.124  11.889   8.335  0.6238  0.9578  0.2828
  988MOL0     H36285   1.147  11.713   8.585  1.9198 -1.1763 -2.0886
  988MOL0     H36286   1.067  11.677   8.433  1.2601  1.9612 -2.7459
  988MOL0     H36287   0.988  11.912   8.607 -0.4335  0.4563  0.2258
  988MOL0     H36288   0.911  11.857   8.464  1.4798 -1.0368 -1.0226
  988MOL0     H36289   0.801  11.784   8.701  1.2287  0.5168 -0.0357
  988MOL0     H36290   0.935  11.685   8.707  1.2898 -1.5565 -2.2749
  988MOL0     H36291   0.714  11.674   8.488 -0.7552  1.1242  0.7529
  988MOL0     H36292   0.854  11.573   8.483 -1.9360  0.4562 -1.3044
  988MOL0     H36293   0.872  11.463   8.802  0.4879 -0.8896  0.2448
  988MOL0     H36294   0.745  11.411   8.993  0.2559  0.6559 -3.4556
  988MOL0     H36295   0.748  11.241   8.929 -1.1229 -1.5452 -0.7352
  988MOL0     H36296   0.513  11.394   9.039  0.9200 -0.2538  2.5984
  988MOL0     H36297   0.508  11.237   8.958  1.0457 -0.1942 -0.0969
  988MOL0     H36298   0.631  11.133   9.153 -0.4292 -1.1749  2.8349
  988MOL0     H36299   0.688  11.291   9.204  0.1493 -1.5478  1.9544
  988MOL0     H36300   0.505  11.183   9.350 -0.6261  0.7373 -0.1733
  988MOL0     H36301   0.491  11.345   9.318 -3.5790  0.0359  1.6348
  988MOL0     H36302   0.258  11.153   9.421  1.8311  0.4911 -0.6654
  988MOL0     H36303   0.093  10.894   9.543  2.9702 -1.0902 -2.1033
  988MOL0     H36304  -0.039  11.000   9.483 -0.1205  1.5084  1.2755
  988MOL0     H36305   0.116  11.069   9.547 -2.1218 -0.6421  0.9419
  988MOL0     H36306  -0.296  10.819   9.465  0.9144  0.8963 -4.0773
  988MOL0     H36307  -0.488  10.674   9.476  1.0942 -1.2136  1.6206
  988MOL0     H36308  -0.514  10.276   9.231 -0.1659  3.0930 -1.9136
  988MOL0     H36309  -0.450  10.286   9.407  1.7081 -0.2819 -3.0239
  988MOL0     H36310  -0.700  10.173   9.309  0.9844 -1.1183  1.0907
  988MOL0     H36311  -0.627  10.153   9.454 -3.5096 -0.5344  0.4946
  988MOL0     H36312  -0.868  10.252   9.463  0.0241 -0.1951  1.7318
  988MOL0     H36313  -0.800  10.398   9.395  1.5380  2.3922  2.6533
  988MOL0     H36314  -0.661  10.431   9.597 -3.3140  3.7818  0.5622
  988MOL0     H36315  -0.733  10.264   9.664  0.4662 -1.0208 -0.2675
  988MOL0     H36316  -0.872  10.526   9.628 -1.5882  0.1878  0.3570
  988MOL0     H36317  -0.932  10.373   9.686  0.5300 -0.9066 -1.3743
  988MOL0     H36318  -0.875  10.532   9.872 -2.7349 -1.3208  0.2379
  988MOL0     H36319  -0.703  10.517   9.818 -0.6749  0.2950 -1.4407
  988MOL0     H36320  -0.687  10.295   9.886  2.2592  2.5690 -0.0319
  988MOL0     H36321  -0.860  10.275   9.891 -0.5567  0.0108  2.4488
  988MOL0     H36322  -0.767  10.296  10.120 -0.7558  0.1477 -0.0887
  988MOL0     H36323  -0.858  10.450  10.086 -0.9948  0.6199  0.3787
  988MOL0     H36324  -0.294  10.389   9.220  0.0806 -2.7938  4.7342
  988MOL0     H36325  -0.100  10.538   9.213 -0.8621  1.7238 -1.0575
  988MOL0     H36326   0.135  10.905   9.020  1.7729 -3.2033  0.2905
  988MOL0     H36327   0.271  11.090   8.994 -3.5121  0.4717 -0.8533
  988MOL0     H36328   1.795  11.846   8.178 -1.2410  0.4584  1.0489
  988MOL0     H36329   1.969  11.683   8.100 -0.8520 -2.1971 -2.7150
  988MOL0     H36330   2.034  11.185   8.158 -0.5451  0.9891 -0.5116
  988MOL0     H36331   2.202  11.023   8.128  1.1287 -1.3092 -1.4706
  988MOL0     H36332   2.433  10.958   8.199  1.9050  2.4963 -0.3600
  988MOL0     H36333   2.361  10.863   8.068 -0.5826  1.8765 -1.5485
  988MOL0     H36334   2.640  10.900   8.152 -0.1986  0.1868 -0.5178
  988MOL0     H36335   2.618  10.852   7.976  0.0460 -4.6421 -0.0252
  988MOL0     H36336   2.538  10.716   8.243 -1.4794  0.5510 -0.1254
  988MOL0     H36337   2.481  10.658   8.078 -0.1733  0.4793  0.3341
  988MOL0     H36338   2.762  10.698   8.160 -1.5138  1.0115  1.2443
  988MOL0     H36339   2.706  10.651   8.001  0.4383  1.5194  0.2272
  988MOL0     H36340   2.754  10.291   8.229  0.2000  0.1158 -0.1072
  988MOL0     H36341   2.424  11.270   7.857 -0.8728 -1.6567 -0.6066
  988MOL0     H36342   2.348  11.433   7.768  0.6953 -0.8681  0.5158
  988MOL0     H36343   2.177  11.419   7.730 -1.0746  4.3063 -0.0513
  988MOL0     H36344   2.237  11.551   7.838 -1.8955  0.3813 -1.6383
  989MOL0     O36345   9.914   9.160   0.663  0.2801  0.0277  0.3755
  989MOL0     C36346   9.788   9.151   0.665 -0.0851  0.8020 -0.3260
  989MOL0     O36347   9.713   9.114   0.562 -0.4477 -0.0378 -0.2670
  989MOL0     C36348   9.745   9.133   0.433  0.2270  0.1438  0.2316
  989MOL0     C36349   9.851   9.216   0.381 -0.5955  0.1725 -1.1473
  989MOL0     C36350   9.877   9.205   0.238 -1.0685  0.8747 -0.3745
  989MOL0     C36351   9.795   9.137   0.153 -0.0975 -0.1813  1.0466
  989MOL0     O36352   9.838   9.136   0.025 -0.3834  0.0059  0.0652
  989MOL0     C36353   9.748   9.093  -0.079  0.3548 -0.5763 -0.1565
  989MOL0     C36354   9.781   9.158  -0.203 -0.3819  0.2145 -0.3633
  989MOL0     C36355   9.789   9.310  -0.179  0.7023 -1.0876  0.2650
  989MOL0     C36356   9.783   9.385  -0.314 -0.0944  0.2498  0.1389
  989MOL0     C36357   9.908   9.371  -0.389  0.0752 -0.2821  0.4048
  989MOL0     C36358   9.892   9.416  -0.539 -0.0546  0.4505 -0.0442
  989MOL0     C36359   9.989   9.516  -0.595  0.7040 -0.1265  0.1463
  989MOL0     C36360  10.110   9.444  -0.670  0.4447 -0.1543 -0.0964
  989MOL0     N36361  10.179   9.360  -0.570  0.4710  0.5704 -0.5118
  989MOL0     C36362  10.204   9.226  -0.587  0.3710 -0.5759  0.0562
  989MOL0     C36363  10.246   9.178  -0.465  0.9553 -0.1315 -0.1773
  989MOL0     C36364  10.265   9.036  -0.431 -0.2825  0.2073  0.9164
  989MOL0     C36365  10.403   9.004  -0.457 -0.1101 -0.2872 -0.2787
  989MOL0     C36366  10.454   8.869  -0.411 -0.2741 -0.1192  0.2811
  989MOL0     C36367  10.386   8.756  -0.497 -0.1288  0.4529  0.2647
  989MOL0     O36368  10.438   8.767  -0.638 -0.0608  0.2503  0.0969
  989MOL0     C36369  10.393   8.672  -0.725 -0.3490 -0.8108  0.4415
  989MOL0     C36370  10.463   8.645  -0.833  0.4604  0.2610  0.4039
  989MOL0     C36371  10.414   8.564  -0.938  0.2858 -0.4441 -1.1935
  989MOL0     C36372  10.471   8.552  -1.075 -0.1521  0.2896 -0.6429
  989MOL0     C36373  10.299   8.488  -0.907  0.0171 -1.2865 -0.0532
  989MOL0     C36374  10.234   8.379  -0.994  0.9462  0.4822 -0.2433
  989MOL0     O36375  10.115   8.326  -0.931  0.1978  0.0929  0.4566
  989MOL0     C36376  10.045   8.224  -0.995  0.5297 -0.8869  0.4823
  989MOL0     C36377  10.108   8.105  -1.046 -0.7264  0.0331 -0.4574
  989MOL0     C36378  10.032   7.990  -1.084  0.0090 -0.0683 -0.5591
  989MOL0     C36379   9.892   8.009  -1.068 -0.8803  0.5292  0.0837
  989MOL0     O36380   9.824   7.895  -1.106 -0.0752 -0.0095  0.8387
  989MOL0     C36381   9.691   7.901  -1.153 -0.6329 -0.7031 -0.4433
  989MOL0     C36382   9.670   7.756  -1.213  0.4822  1.0077 -0.1674
  989MOL0     C36383   9.527   7.712  -1.246  0.4344 -0.1121 -0.1283
  989MOL0     C36384   9.491   7.802  -1.375  0.2190  0.6000  0.2071
  989MOL0     C36385   9.336   7.781  -1.396 -0.2160 -0.4435  0.1022
  989MOL0     C36386   9.294   7.894  -1.493 -1.0652 -0.5915  0.4622
  989MOL0     C36387   9.152   7.870  -1.539  0.0351  0.9934  0.1094
  989MOL0     C36388   9.062   7.899  -1.406  0.1131 -0.1713  0.0651
  989MOL0    Cl36389   8.889   7.866  -1.419  0.1593  0.0279 -0.2431
  989MOL0     C36390   9.829   8.123  -1.028  0.7552  0.4249  0.2272
  989MOL0     C36391   9.906   8.231  -0.981 -0.1537 -0.1984  0.4557
  989MOL0     O36392  10.288   8.338  -1.093  0.1284  0.9122  0.0219
  989MOL0     C36393  10.231   8.505  -0.787 -0.5706  0.0540 -0.8877
  989MOL0     C36394  10.283   8.598  -0.696 -0.6012 -0.1394 -0.4335
  989MOL0     N36395  10.257   9.279  -0.379  0.9978  0.1994 -0.0802
  989MOL0     N36396  10.224   9.393  -0.444 -0.3443 -0.0986 -0.1353
  989MOL0     C36397   9.689   9.066   0.207  0.3831 -0.0368 -0.1113
  989MOL0     C36398   9.675   9.059   0.344 -0.6049  0.2489  0.4792
  989MOL0     C36399   9.721   9.150   0.802 -0.0814  0.5178  0.5874
  989MOL0     C36400   9.797   9.093   0.906  1.5435  0.0774  0.0092
  989MOL0     C36401   9.762   9.089   1.038 -0.1591 -0.2057  0.2755
  989MOL0     C36402   9.643   9.151   1.074  0.2990 -0.1317 -0.7068
  989MOL0     O36403   9.589   9.134   1.197  0.2613 -0.0756  0.2393
  989MOL0     C36404   9.655   9.069   1.304  0.2462  0.3017 -0.0303
  989MOL0     C36405   9.575   9.102   1.424  0.4627 -0.5207  0.6179
  989MOL0     C36406   9.533   9.246   1.451  0.2120 -0.0086  0.4844
  989MOL0     C36407   9.451   9.254   1.577 -0.0374  1.1962  0.0986
  989MOL0     C36408   9.543   9.228   1.694 -0.2396 -1.0907  0.6259
  989MOL0     C36409   9.606   9.208   1.799  1.1762  1.0833 -0.1520
  989MOL0     C36410   9.567   9.224   0.978 -0.1536  0.5751 -0.6477
  989MOL0     C36411   9.604   9.213   0.844 -0.1542 -0.5763  0.8298
  989MOL0     C36412   9.509   9.288   0.750  0.1579 -0.8930 -0.3669
  989MOL0     H36413   9.916   9.269   0.451 -1.2813  0.2351 -0.5529
  989MOL0     H36414   9.948   9.265   0.182 -1.0530 -1.1287 -2.6321
  989MOL0     H36415   9.650   9.125  -0.042  1.7162  2.7982  0.9337
  989MOL0     H36416   9.742   8.984  -0.090  2.3336 -0.9850  2.0283
  989MOL0     H36417   9.874   9.115  -0.240 -0.4520  2.0185 -2.8934
  989MOL0     H36418   9.704   9.137  -0.278 -1.4604 -1.7220  1.1913
  989MOL0     H36419   9.711   9.344  -0.111  0.8912 -1.9491  0.9434
  989MOL0     H36420   9.881   9.351  -0.136  1.0947 -1.1500 -0.4968
  989MOL0     H36421   9.702   9.343  -0.374 -0.0509  0.3144  0.0355
  989MOL0     H36422   9.769   9.493  -0.298 -0.1091  0.5383 -1.6440
  989MOL0     H36423   9.944   9.268  -0.383  2.9445  0.5642 -0.4080
  989MOL0     H36424   9.979   9.434  -0.335 -0.4180  0.4694  0.1873
  989MOL0     H36425   9.901   9.323  -0.597  3.2762  0.0832  0.8544
  989MOL0     H36426   9.793   9.459  -0.557 -0.7703 -1.0584  0.1023
  989MOL0     H36427  10.030   9.573  -0.512 -0.1735  0.6788  0.0396
  989MOL0     H36428   9.937   9.587  -0.659  1.6682 -0.8958 -1.5839
  989MOL0     H36429  10.085   9.387  -0.760  0.8952  2.3880 -1.9598
  989MOL0     H36430  10.183   9.518  -0.703  3.3531 -1.2074  3.3711
  989MOL0     H36431  10.206   9.171  -0.681  1.7936  1.6264 -1.2826
  989MOL0     H36432  10.191   8.968  -0.474  2.2678 -1.9205 -0.4079
  989MOL0     H36433  10.266   9.011  -0.325  2.6365 -2.5044  0.4157
  989MOL0     H36434  10.426   9.006  -0.564  0.9391 -0.4343 -0.0619
  989MOL0     H36435  10.469   9.077  -0.409 -2.7517  0.8816  1.8718
  989MOL0     H36436  10.563   8.864  -0.420 -0.3749 -3.0904 -0.3636
  989MOL0     H36437  10.432   8.860  -0.304 -1.8416  0.7229  0.0720
  989MOL0     H36438  10.407   8.653  -0.466 -1.9904 -0.8644 -2.4181
  989MOL0     H36439  10.276   8.759  -0.498 -0.1319  0.7017  0.7854
  989MOL0     H36440  10.559   8.694  -0.850 -0.2449  1.8534  0.7496
  989MOL0     H36441  10.401   8.549  -1.158  0.1054 -1.6785 -0.8283
  989MOL0     H36442  10.519   8.454  -1.083 -0.6968 -0.3029  2.2424
  989MOL0     H36443  10.550   8.626  -1.091  1.0584 -0.9011 -0.3872
  989MOL0     H36444  10.216   8.105  -1.043 -0.7413  0.0674  1.6585
  989MOL0     H36445  10.077   7.902  -1.128 -1.2150 -1.5198  0.9002
  989MOL0     H36446   9.627   7.926  -1.067  0.8748 -1.1470  0.8572
  989MOL0     H36447   9.671   7.972  -1.233 -0.4508  0.4819  0.5254
  989MOL0     H36448   9.740   7.743  -1.296  1.6808  1.9497  0.6396
  989MOL0     H36449   9.705   7.677  -1.145  0.4131  0.0538 -1.2213
  989MOL0     H36450   9.452   7.736  -1.169 -1.5857  2.8401 -2.7628
  989MOL0     H36451   9.512   7.607  -1.272 -5.1784 -0.0598  1.3896
  989MOL0     H36452   9.545   7.753  -1.457 -0.8108 -0.7348  0.2873
  989MOL0     H36453   9.514   7.909  -1.367 -0.1688  0.6991 -0.0306
  989MOL0     H36454   9.330   7.685  -1.447  2.9647 -0.2795 -0.8071
  989MOL0     H36455   9.295   7.789  -1.295  0.1719 -0.8503  0.2936
  989MOL0     H36456   9.357   7.897  -1.582  1.4292 -1.1154  2.1060
  989MOL0     H36457   9.315   7.988  -1.441  0.1632  0.1259 -1.2357
  989MOL0     H36458   9.147   7.763  -1.559  4.6090  0.1769  2.1483
  989MOL0     H36459   9.119   7.929  -1.625 -0.9292 -0.1693 -0.3557
  989MOL0     H36460   9.067   8.005  -1.377 -3.7968 -0.4718  2.4986
  989MOL0     H36461   9.105   7.844  -1.321  0.0009  1.3971  1.1918
  989MOL0     H36462   9.721   8.124  -1.027  0.7204 -0.3868 -1.2013
  989MOL0     H36463   9.855   8.324  -0.959  0.0445  0.5093 -1.8258
  989MOL0     H36464  10.146   8.449  -0.750 -1.3114  0.1582 -2.3743
  989MOL0     H36465  10.210   8.615  -0.617 -0.3763 -1.8979  0.2074
  989MOL0     H36466   9.631   9.003   0.141  1.8864  0.6625 -2.2516
  989MOL0     H36467   9.607   8.983   0.380  1.8003 -1.2774  2.0561
  989MOL0     H36468   9.894   9.048   0.885 -0.1348 -3.2783 -1.1977
  989MOL0     H36469   9.826   9.032   1.105 -1.7177 -0.8732  1.2428
  989MOL0     H36470   9.676   8.964   1.281  4.2139  0.7247  0.9609
  989MOL0     H36471   9.752   9.117   1.321  1.1387 -1.4425 -0.0182
  989MOL0     H36472   9.620   9.054   1.511  0.4943  0.5897  1.2197
  989MOL0     H36473   9.485   9.043   1.401  1.8379 -2.3615 -0.3244
  989MOL0     H36474   9.605   9.328   1.452 -0.5694  0.7168 -0.4285
  989MOL0     H36475   9.458   9.272   1.376  0.5873 -2.9584 -1.0413
  989MOL0     H36476   9.376   9.174   1.578  0.0841  1.0860  0.4908
  989MOL0     H36477   9.395   9.346   1.592 -1.4541 -0.1347  4.2517
  989MOL0     H36478   9.656   9.183   1.890  2.6239  1.7742 -0.7244
  989MOL0     H36479   9.474   9.266   1.016 -2.1290 -2.2818 -1.9459
  989MOL0     H36480   9.526   9.244   0.651 -0.9883 -1.5585 -0.2913
  989MOL0     H36481   9.404   9.279   0.780 -0.1201  1.0810 -0.6303
  989MOL0     H36482   9.522   9.396   0.748 -1.7057 -0.6528 -0.7385
  990MOL0     O36483   9.737   4.380   8.456  1.0635 -0.0568 -0.2511
  990MOL0     C36484   9.852   4.403   8.418  0.1165 -0.0813 -0.0317
  990MOL0     O36485   9.967   4.326   8.441  0.3475  0.1443 -0.1914
  990MOL0     C36486   9.961   4.198   8.479 -0.3537 -1.1743  0.6491
  990MOL0     C36487   9.973   4.101   8.385 -0.0356  0.4409 -0.0536
  990MOL0     C36488   9.992   3.965   8.428  0.6408  0.5789  0.1140
  990MOL0     C36489   9.995   3.929   8.558 -0.1694  0.2031 -0.3330
  990MOL0     O36490  10.016   3.796   8.587  0.3051  0.4296 -0.1250
  990MOL0     C36491  10.007   3.762   8.730 -0.0460 -0.0776 -0.0271
  990MOL0     C36492  10.015   3.607   8.741 -1.0785  0.6061 -0.4209
  990MOL0     C36493   9.904   3.536   8.658  0.7423  0.0922  0.0104
  990MOL0     C36494   9.921   3.386   8.671  0.0980 -0.5945  0.1732
  990MOL0     C36495   9.863   3.318   8.548  0.2321  0.0396 -0.0044
  990MOL0     C36496   9.913   3.170   8.562 -0.4456  0.1368 -0.6520
  990MOL0     C36497   9.855   3.067   8.478 -0.2780 -0.4719  0.8220
  990MOL0     C36498   9.806   3.119   8.336  0.1381 -0.0543 -0.0100
  990MOL0     N36499   9.777   2.997   8.262 -0.0957 -0.1138 -0.6399
  990MOL0     C36500   9.652   2.936   8.242 -0.9206  0.1819 -0.0526
  990MOL0     C36501   9.683   2.820   8.178 -0.6877 -0.1837  0.1291
  990MOL0     C36502   9.599   2.707   8.140  0.7574 -0.4451  0.6499
  990MOL0     C36503   9.492   2.662   8.243 -0.4447  1.2144  0.2163
  990MOL0     C36504   9.408   2.539   8.209  0.0796 -0.1582 -0.0153
  990MOL0     C36505   9.374   2.524   8.058 -0.2325 -1.0425 -0.4448
  990MOL0     O36506   9.293   2.634   8.022 -0.8872 -0.3138  1.3710
  990MOL0     C36507   9.298   2.673   7.890  0.8571 -0.1013  0.2466
  990MOL0     C36508   9.305   2.812   7.849  0.4690  0.1498 -1.3697
  990MOL0     C36509   9.323   2.845   7.716 -0.8286 -1.1228 -0.5742
  990MOL0     C36510   9.361   2.991   7.683 -0.3343  0.9280 -0.1069
  990MOL0     C36511   9.319   2.745   7.615  0.2325 -0.3779  0.2802
  990MOL0     C36512   9.317   2.773   7.471  0.4318  1.1102 -0.2139
  990MOL0     O36513   9.347   2.673   7.381  0.8652 -0.6047  0.2495
  990MOL0     C36514   9.316   2.692   7.245  0.3721 -0.0182 -0.8998
  990MOL0     C36515   9.182   2.709   7.202  0.0947 -0.2974  0.7510
  990MOL0     C36516   9.147   2.730   7.069  0.3538 -0.5162 -0.6820
  990MOL0     C36517   9.251   2.739   6.975 -0.4940 -0.0703  0.6260
  990MOL0     O36518   9.211   2.763   6.850  0.6696 -0.2927  0.6886
  990MOL0     C36519   9.286   2.716   6.733 -0.2606 -0.1093 -0.1824
  990MOL0     C36520   9.371   2.814   6.665  0.0028  0.5231 -0.0816
  990MOL0     C36521   9.299   2.943   6.624  0.8624 -0.4301  0.2301
  990MOL0     C36522   9.197   2.920   6.519  1.2438 -0.2868  0.9457
  990MOL0     C36523   9.163   3.047   6.444  0.3096  0.4944  0.2878
  990MOL0     C36524   9.068   3.010   6.328  1.3048  0.6524  0.6284
  990MOL0     C36525   9.041   3.130   6.235  0.0541 -0.5378  0.0131
  990MOL0     C36526   8.959   3.086   6.113  0.2784 -0.4033  0.8150
  990MOL0    Cl36527   8.885   3.224   6.030 -0.1463 -0.7651 -0.0480
  990MOL0     C36528   9.385   2.734   7.013  0.1034 -0.9629 -0.7748
  990MOL0     C36529   9.419   2.701   7.144 -0.9082  0.6521 -0.1734
  990MOL0     O36530   9.283   2.888   7.438  0.7156  0.8805  0.6280
  990MOL0     C36531   9.313   2.614   7.652 -0.6138  0.3365  0.3614
  990MOL0     C36532   9.311   2.579   7.788 -0.6794 -0.3735  0.5249
  990MOL0     N36533   9.824   2.819   8.170  0.8048 -0.7989  0.8959
  990MOL0     N36534   9.876   2.921   8.211 -0.4713 -0.4003  0.6370
  990MOL0     C36535   9.980   4.033   8.649  0.5424  0.5561 -0.2305
  990MOL0     C36536   9.952   4.163   8.611 -0.6653 -0.3907  0.0833
  990MOL0     C36537   9.854   4.536   8.356  0.6042  0.1905  0.3012
  990MOL0     C36538   9.856   4.638   8.452  0.6265 -0.4339 -0.3595
  990MOL0     C36539   9.859   4.776   8.403 -1.2336 -0.5464  0.0721
  990MOL0     C36540   9.846   4.813   8.265 -0.5309  1.7516 -1.1486
  990MOL0     O36541   9.844   4.945   8.241  1.5892  0.2910  0.6819
  990MOL0     C36542   9.776   4.996   8.124  0.3913 -0.6978  0.9844
  990MOL0     C36543   9.624   4.988   8.141  0.0069  0.2518  0.1501
  990MOL0     C36544   9.550   5.045   8.019  0.4596 -0.3523  0.3386
  990MOL0     C36545   9.565   4.982   7.883  0.1548  0.4461  0.4475
  990MOL0     C36546   9.457   5.013   7.792  0.4447 -0.1480  0.4214
  990MOL0     C36547   9.363   5.025   7.718  0.7076  0.6734 -0.0342
  990MOL0     C36548   9.838   4.701   8.173  0.4182  0.9884  0.6001
  990MOL0     C36549   9.853   4.560   8.214 -1.0689  0.9521  0.2416
  990MOL0     C36550   9.873   4.452   8.108  0.5865  0.0673 -0.6934
  990MOL0     H36551   9.984   4.112   8.277 -3.0601 -2.3161 -0.8059
  990MOL0     H36552  10.012   3.890   8.352 -0.7118 -0.5843  0.8481
  990MOL0     H36553   9.913   3.787   8.780  0.2043 -0.6403  0.7463
  990MOL0     H36554  10.085   3.808   8.791  1.3019 -2.9160  0.5671
  990MOL0     H36555  10.110   3.580   8.694 -2.0254 -0.9025 -1.5591
  990MOL0     H36556  10.009   3.564   8.842  1.5511  0.6324 -0.1718
  990MOL0     H36557   9.813   3.563   8.711  1.3173  1.0466  0.5558
  990MOL0     H36558   9.906   3.567   8.553 -1.4393  2.3661  0.5548
  990MOL0     H36559  10.027   3.359   8.676  0.6447  1.6041  2.3120
  990MOL0     H36560   9.877   3.348   8.763  1.4715 -0.5939  0.8573
  990MOL0     H36561   9.890   3.361   8.451 -2.2044 -1.1375 -1.2874
  990MOL0     H36562   9.754   3.322   8.553  0.0278 -0.3879 -2.7087
  990MOL0     H36563  10.022   3.180   8.557 -0.0972 -2.6472 -0.1070
  990MOL0     H36564   9.896   3.148   8.668  0.0837 -0.8273 -0.7554
  990MOL0     H36565   9.770   3.023   8.530 -1.4962  0.8932  0.0426
  990MOL0     H36566   9.932   2.991   8.459  0.4983  0.7393 -1.2997
  990MOL0     H36567   9.712   3.175   8.335 -0.2818 -0.6438  1.9770
  990MOL0     H36568   9.884   3.173   8.281 -1.5542  0.8027 -1.6589
  990MOL0     H36569   9.554   2.963   8.280 -0.9675  0.4444 -0.3562
  990MOL0     H36570   9.672   2.627   8.121  0.4184  0.1688 -5.0177
  990MOL0     H36571   9.554   2.730   8.043  2.0103  4.6349  0.9666
  990MOL0     H36572   9.538   2.639   8.340 -1.4513 -0.5795  0.3058
  990MOL0     H36573   9.411   2.736   8.249 -1.2544  0.5522 -1.6929
  990MOL0     H36574   9.473   2.454   8.231  1.2138  0.3588 -1.2641
  990MOL0     H36575   9.314   2.539   8.266 -0.0678 -0.8815 -0.2438
  990MOL0     H36576   9.471   2.504   8.012 -0.2938 -1.2516 -0.4820
  990MOL0     H36577   9.322   2.428   8.049 -0.6307 -0.8695 -0.0307
  990MOL0     H36578   9.307   2.886   7.928  2.9622 -0.4983 -0.7174
  990MOL0     H36579   9.414   3.005   7.588 -1.3121 -0.8283 -0.9595
  990MOL0     H36580   9.424   3.022   7.766 -2.2253 -0.9594  2.1792
  990MOL0     H36581   9.272   3.056   7.685 -0.8447  0.2888  3.0626
  990MOL0     H36582   9.100   2.715   7.272  1.3150  0.8024  2.1531
  990MOL0     H36583   9.048   2.746   7.029  1.7040 -0.6490 -4.5646
  990MOL0     H36584   9.344   2.626   6.755 -0.4128  0.1658  1.4896
  990MOL0     H36585   9.211   2.686   6.660  0.5690  0.3320 -1.2442
  990MOL0     H36586   9.448   2.846   6.736 -1.0244  1.6796  0.5534
  990MOL0     H36587   9.425   2.769   6.582  0.9226 -1.1438  1.3668
  990MOL0     H36588   9.373   3.016   6.589  0.0173  0.7641  0.8444
  990MOL0     H36589   9.248   2.986   6.711  0.8691  0.3258 -0.1335
  990MOL0     H36590   9.115   2.872   6.574 -0.1146 -0.3324 -1.0042
  990MOL0     H36591   9.232   2.853   6.440 -0.7384 -1.4520  0.9810
  990MOL0     H36592   9.115   3.115   6.515  1.6234 -0.0649  1.7818
  990MOL0     H36593   9.260   3.085   6.411  1.2734 -0.4751  1.8666
  990MOL0     H36594   8.971   2.985   6.374  0.7514  0.7483 -0.4451
  990MOL0     H36595   9.092   2.918   6.274  0.0077  1.3035 -1.1631
  990MOL0     H36596   9.133   3.171   6.194  0.9662 -2.8344 -0.3846
  990MOL0     H36597   8.988   3.203   6.297  0.4022 -0.1675 -0.1237
  990MOL0     H36598   8.874   3.034   6.159 -0.8010  3.1267  3.2551
  990MOL0     H36599   9.009   3.022   6.040 -3.8939 -2.7294 -0.3521
  990MOL0     H36600   9.468   2.738   6.943 -0.4735 -4.2886 -1.8161
  990MOL0     H36601   9.523   2.690   7.170 -0.7654 -0.4226 -1.1134
  990MOL0     H36602   9.308   2.526   7.590  0.4226  0.7665 -0.3479
  990MOL0     H36603   9.292   2.474   7.804  3.0600 -1.1332  0.9537
  990MOL0     H36604   9.997   4.025   8.756  1.0045  1.9117 -0.1826
  990MOL0     H36605   9.944   4.242   8.686 -0.9706 -0.4647  0.1296
  990MOL0     H36606   9.880   4.610   8.554  0.7684 -1.3533 -0.6306
  990MOL0     H36607   9.858   4.855   8.477  3.4505  0.5749 -0.7350
  990MOL0     H36608   9.809   5.097   8.096  0.0816 -0.9035 -0.1744
  990MOL0     H36609   9.804   4.937   8.037  0.3212  2.0034 -1.0050
  990MOL0     H36610   9.604   5.044   8.233 -2.4000 -4.4008  2.7762
  990MOL0     H36611   9.591   4.887   8.164  1.6259 -0.1482  0.8973
  990MOL0     H36612   9.445   5.056   8.051  0.5818  0.2706  0.5418
  990MOL0     H36613   9.586   5.146   8.000 -1.0632  0.2941  0.6704
  990MOL0     H36614   9.583   4.875   7.892  3.0365  0.6969 -1.0535
  990MOL0     H36615   9.657   5.021   7.838 -0.6276  1.0874 -0.6512
  990MOL0     H36616   9.275   5.027   7.657  0.0342 -1.1878  0.7743
  990MOL0     H36617   9.806   4.714   8.070 -1.2646 -1.5786  0.7078
  990MOL0     H36618   9.935   4.492   8.028  0.1533  1.6039 -0.3099
  990MOL0     H36619   9.932   4.374   8.157  1.3554  1.2827  0.3592
  990MOL0     H36620   9.779   4.415   8.065  0.1430 -1.9274  1.7630
  991MOL0     O36621   2.547   7.541   8.847 -0.2316 -0.2056  0.3092
  991MOL0     C36622   2.589   7.537   8.959 -0.4491 -0.0014  0.7158
  991MOL0     O36623   2.716   7.489   8.995 -0.3169  0.7359 -0.8784
  991MOL0     C36624   2.789   7.434   8.890  0.2481  0.0300  1.2090
  991MOL0     C36625   2.739   7.315   8.830  0.0468  0.5026 -0.2084
  991MOL0     C36626   2.795   7.259   8.711  0.3535 -0.1403  0.5438
  991MOL0     C36627   2.912   7.320   8.660  0.0515 -0.7203 -0.1925
  991MOL0     O36628   2.976   7.268   8.554  0.1410  0.8044 -0.3300
  991MOL0     C36629   3.118   7.279   8.544  0.3814  0.0285  0.2248
  991MOL0     C36630   3.155   7.164   8.441 -0.2205  0.3316 -0.2914
  991MOL0     C36631   3.089   7.196   8.302  0.1082  0.1028  0.1056
  991MOL0     C36632   3.120   7.079   8.214  0.4716 -0.6409 -0.1504
  991MOL0     C36633   3.062   7.081   8.081  0.5013  0.5800  0.8002
  991MOL0     C36634   3.081   6.949   8.009  0.7147 -0.5361  0.3603
  991MOL0     C36635   3.229   6.914   7.967  0.4391 -0.7385 -0.2093
  991MOL0     C36636   3.290   7.034   7.883 -0.5518 -0.1440 -0.4353
  991MOL0     N36637   3.430   7.013   7.857 -0.5693  0.5011  0.6246
  991MOL0     C36638   3.498   6.981   7.744  0.3494 -0.2376  0.6297
  991MOL0     C36639   3.616   6.934   7.788 -0.0235 -0.3694 -0.4093
  991MOL0     C36640   3.735   6.915   7.697 -0.5167  0.1766  0.0761
  991MOL0     C36641   3.814   7.040   7.678 -0.0849  0.6727 -0.7384
  991MOL0     C36642   3.940   7.046   7.596 -0.2340  0.5232  1.2478
  991MOL0     C36643   4.044   6.941   7.617 -0.7463 -0.4352 -0.0067
  991MOL0     O36644   4.175   6.987   7.579 -0.3257 -0.7845 -0.0239
  991MOL0     C36645   4.272   7.019   7.667  0.0755  0.1130 -0.4462
  991MOL0     C36646   4.410   7.011   7.619  0.3220 -0.9146 -0.0117
  991MOL0     C36647   4.520   7.015   7.704  0.4706  0.2075 -0.5852
  991MOL0     C36648   4.649   6.995   7.633 -0.4065  0.1748 -0.3849
  991MOL0     C36649   4.506   7.017   7.845  0.9364  0.1751  0.1673
  991MOL0     C36650   4.621   7.004   7.944  0.4981 -0.3019 -0.2792
  991MOL0     O36651   4.574   6.930   8.052 -0.3094  0.3165  0.3382
  991MOL0     C36652   4.662   6.910   8.155  0.2058  0.2551  0.0278
  991MOL0     C36653   4.663   6.792   8.223 -0.2890  0.0222  0.5244
  991MOL0     C36654   4.738   6.769   8.338 -0.9208  0.4391 -1.2238
  991MOL0     C36655   4.820   6.863   8.392  0.2434 -0.0021 -0.2226
  991MOL0     O36656   4.889   6.821   8.509 -0.4975 -0.3192  0.1750
  991MOL0     C36657   4.999   6.897   8.558 -0.8882  0.1440 -0.6555
  991MOL0     C36658   5.054   6.819   8.680  0.1472  0.0429  0.3588
  991MOL0     C36659   5.198   6.831   8.724 -0.1625 -0.0054  0.0535
  991MOL0     C36660   5.235   6.977   8.734 -0.7298 -1.4715 -1.1418
  991MOL0     C36661   5.377   6.974   8.787  0.3298 -1.0878 -0.3348
  991MOL0     C36662   5.435   7.111   8.799 -0.9174 -0.1440  0.1547
  991MOL0     C36663   5.574   7.118   8.872  0.6550 -0.3967 -0.5161
  991MOL0     C36664   5.626   7.263   8.866  0.1907  0.0536  0.0244
  991MOL0    Cl36665   5.803   7.274   8.932 -0.1751 -0.1572 -0.0349
  991MOL0     C36666   4.836   6.980   8.324  0.0475 -0.7318 -0.1740
  991MOL0     C36667   4.753   7.011   8.203 -0.1766  0.3250 -0.6149
  991MOL0     O36668   4.735   7.056   7.932  0.1442 -0.0887 -0.0119
  991MOL0     C36669   4.365   7.051   7.890  0.4877  0.4402 -1.1600
  991MOL0     C36670   4.252   7.044   7.807  0.0950 -0.1507  0.8911
  991MOL0     N36671   3.623   6.940   7.924  0.0149  0.1347  0.0609
  991MOL0     N36672   3.514   6.999   7.965  0.4829  0.4131 -0.0568
  991MOL0     C36673   2.966   7.432   8.729 -0.7663  0.6466  0.3749
  991MOL0     C36674   2.904   7.487   8.836 -0.2183 -0.4232 -0.4734
  991MOL0     C36675   2.494   7.587   9.061 -0.8718 -0.0795  0.3686
  991MOL0     C36676   2.522   7.551   9.188  0.0831  0.8900  0.3236
  991MOL0     C36677   2.450   7.596   9.301 -0.2361  0.3437 -0.4418
  991MOL0     C36678   2.359   7.694   9.285  0.9428  0.9497 -0.7597
  991MOL0     O36679   2.303   7.745   9.397  0.1720  0.7115 -0.6244
  991MOL0     C36680   2.187   7.685   9.450  0.2844  0.1290  0.1375
  991MOL0     C36681   2.130   7.774   9.561  0.4136  0.4473 -0.0404
  991MOL0     C36682   2.050   7.707   9.671  0.9782 -0.1945 -0.1350
  991MOL0     C36683   2.045   7.796   9.806  0.8406 -0.0309 -0.6355
  991MOL0     C36684   1.954   7.914   9.787 -0.4762  0.3282 -0.1346
  991MOL0     C36685   1.891   8.014   9.769  0.2281  0.2353 -1.0850
  991MOL0     C36686   2.317   7.723   9.156 -0.1200 -1.0771  0.9375
  991MOL0     C36687   2.388   7.677   9.046 -0.5732 -0.4529  0.4167
  991MOL0     C36688   2.359   7.744   8.914  0.3491  0.1332 -0.1950
  991MOL0     H36689   2.637   7.288   8.853 -0.7374  0.2867 -3.3810
  991MOL0     H36690   2.754   7.174   8.658  0.7542 -2.2597  3.3790
  991MOL0     H36691   3.173   7.273   8.639 -3.1098 -2.6747  2.3329
  991MOL0     H36692   3.143   7.367   8.485 -0.1414 -0.1191 -0.2137
  991MOL0     H36693   3.263   7.150   8.433 -0.1620  0.8918 -0.5556
  991MOL0     H36694   3.111   7.071   8.478  2.3640 -0.6828  0.3770
  991MOL0     H36695   2.983   7.221   8.308  0.7653  3.6949 -0.5701
  991MOL0     H36696   3.133   7.290   8.266 -2.4359  1.3208 -0.0796
  991MOL0     H36697   3.229   7.074   8.203  0.3091 -1.7079 -1.4766
  991MOL0     H36698   3.087   6.991   8.270  1.0829 -1.6749 -1.3522
  991MOL0     H36699   3.105   7.161   8.020  0.4273 -1.8129 -2.6713
  991MOL0     H36700   2.958   7.113   8.090  0.2288 -0.2409  0.6729
  991MOL0     H36701   3.036   6.870   8.069 -2.8602  0.9497 -0.1353
  991MOL0     H36702   3.036   6.959   7.910  1.4862  3.1038  0.2401
  991MOL0     H36703   3.237   6.823   7.906 -0.4212 -0.6665 -0.4411
  991MOL0     H36704   3.283   6.889   8.059 -2.8462 -1.9698  1.5359
  991MOL0     H36705   3.231   7.040   7.791 -0.1212  2.0738 -0.6127
  991MOL0     H36706   3.283   7.127   7.939 -0.4531  1.3729 -2.7679
  991MOL0     H36707   3.467   7.018   7.647  0.1970 -0.6186  0.5333
  991MOL0     H36708   3.706   6.885   7.595  1.0398  0.4436 -0.4848
  991MOL0     H36709   3.803   6.837   7.735  0.1981 -0.8699 -3.0035
  991MOL0     H36710   3.740   7.116   7.653 -0.2991  1.3617  1.7186
  991MOL0     H36711   3.841   7.079   7.776  0.4595  0.4876 -0.8109
  991MOL0     H36712   3.904   7.040   7.493 -4.9334 -2.5285  2.7653
  991MOL0     H36713   3.979   7.148   7.604 -0.3868  0.8044 -1.0981
  991MOL0     H36714   4.030   6.903   7.718 -1.4353  0.1873  0.1405
  991MOL0     H36715   4.026   6.857   7.549  2.6425 -0.0586 -1.6392
  991MOL0     H36716   4.417   6.992   7.512  0.0428  1.6455 -0.5504
  991MOL0     H36717   4.653   6.917   7.556  1.6544  1.7151 -1.9908
  991MOL0     H36718   4.728   6.981   7.707 -2.4311 -2.1947  1.4709
  991MOL0     H36719   4.655   7.093   7.585 -1.5530  2.5784  3.8698
  991MOL0     H36720   4.592   6.727   8.172 -0.4080  3.0747 -3.7355
  991MOL0     H36721   4.739   6.669   8.382 -0.3054  0.5856 -0.9085
  991MOL0     H36722   5.071   6.908   8.475 -2.9173  3.2595 -2.1735
  991MOL0     H36723   4.961   6.997   8.580 -0.2123  1.3244 -4.1874
  991MOL0     H36724   4.994   6.836   8.769  3.5418  1.7656  2.5221
  991MOL0     H36725   5.054   6.713   8.651  2.4997  0.3126 -0.8939
  991MOL0     H36726   5.267   6.772   8.662 -0.6968 -0.3376 -0.2326
  991MOL0     H36727   5.204   6.786   8.824 -3.0205 -0.7371 -0.0414
  991MOL0     H36728   5.165   7.032   8.798 -1.8422 -0.5834 -3.0229
  991MOL0     H36729   5.234   7.035   8.642  1.9856  1.0575  0.2403
  991MOL0     H36730   5.386   6.916   8.879  2.3950 -2.2510 -1.1792
  991MOL0     H36731   5.429   6.928   8.702 -0.9630  0.2681 -1.9236
  991MOL0     H36732   5.370   7.184   8.850  0.1357  0.9039  0.0492
  991MOL0     H36733   5.450   7.140   8.695 -2.9708 -0.0864 -0.1762
  991MOL0     H36734   5.646   7.044   8.836  0.5358 -0.3376 -0.8801
  991MOL0     H36735   5.554   7.096   8.977  0.2089  3.1078  0.2573
  991MOL0     H36736   5.562   7.330   8.925  1.2451 -0.4022  1.7576
  991MOL0     H36737   5.627   7.300   8.763 -3.7938 -0.5232 -0.3748
  991MOL0     H36738   4.907   7.057   8.354 -1.1032 -0.3321  1.6571
  991MOL0     H36739   4.763   7.110   8.158 -2.4798  1.1636  0.5310
  991MOL0     H36740   4.354   7.079   7.994  0.6171 -0.3008 -0.9416
  991MOL0     H36741   4.154   7.053   7.853  0.0565  2.7141  0.4707
  991MOL0     H36742   3.055   7.478   8.685 -0.5993 -0.5253 -0.5385
  991MOL0     H36743   2.949   7.578   8.874 -1.1552 -0.1198 -0.0609
  991MOL0     H36744   2.591   7.469   9.207 -0.0943  0.5134 -0.6248
  991MOL0     H36745   2.480   7.558   9.399  1.3043 -0.7429 -1.2842
  991MOL0     H36746   2.122   7.660   9.366  0.2965  0.9765 -0.1317
  991MOL0     H36747   2.220   7.588   9.490  4.3716  1.2901  0.0437
  991MOL0     H36748   2.061   7.852   9.527 -1.3639 -0.7385  0.6464
  991MOL0     H36749   2.219   7.821   9.602  2.2019 -5.3903  4.0784
  991MOL0     H36750   1.946   7.692   9.641  0.0322  1.8154  1.8554
  991MOL0     H36751   2.097   7.610   9.692 -0.6480 -1.2176 -1.0711
  991MOL0     H36752   2.144   7.841   9.806  0.8690 -0.0600  0.8849
  991MOL0     H36753   2.033   7.741   9.900  3.1710  3.8372  2.2414
  991MOL0     H36754   1.855   8.115   9.758  0.1055  0.4904  1.1700
  991MOL0     H36755   2.231   7.787   9.141 -2.8193 -4.8094 -0.8591
  991MOL0     H36756   2.446   7.794   8.870  0.3692  0.9423  0.7287
  991MOL0     H36757   2.320   7.659   8.857 -1.8143  1.5766 -1.0067
  991MOL0     H36758   2.273   7.812   8.911 -1.2449 -1.6094  2.0964
  992MOL0     O36759   0.043   0.380   0.416  0.6217 -0.1595  0.4221
  992MOL0     C36760   0.097   0.390   0.302  0.9156 -0.2904  0.8601
  992MOL0     O36761   0.173   0.498   0.259 -0.1092  0.9159 -0.2688
  992MOL0     C36762   0.170   0.605   0.335 -0.2675 -0.2309  0.6362
  992MOL0     C36763   0.070   0.699   0.338  0.2098 -1.0282  0.2830
  992MOL0     C36764   0.081   0.811   0.414 -0.1107  0.2578  0.3748
  992MOL0     C36765   0.197   0.827   0.498  0.8177  0.0905  0.1803
  992MOL0     O36766   0.205   0.952   0.573  0.3636 -0.3292  0.4808
  992MOL0     C36767   0.317   0.963   0.659 -0.0967 -1.2278 -0.0532
  992MOL0     C36768   0.280   1.083   0.743  0.1570 -0.1083  0.5038
  992MOL0     C36769   0.389   1.146   0.836  0.2288  0.9202  1.3204
  992MOL0     C36770   0.326   1.261   0.926 -0.5098 -0.1975  0.0977
  992MOL0     C36771   0.437   1.333   1.002 -0.1208  0.5713  0.3392
  992MOL0     C36772   0.531   1.428   0.924 -0.5562  0.6319  0.2970
  992MOL0     C36773   0.646   1.462   1.010  0.2787  0.2714 -0.0656
  992MOL0     C36774   0.737   1.558   0.951  0.2425 -0.8993 -0.6480
  992MOL0     N36775   0.801   1.630   1.058  0.7577 -0.6742  0.1239
  992MOL0     C36776   0.910   1.589   1.114  0.4515 -0.1041  0.5595
  992MOL0     C36777   0.940   1.682   1.215  0.3775  0.2660  0.0218
  992MOL0     C36778   1.053   1.678   1.306 -0.7962 -0.7004  0.3708
  992MOL0     C36779   1.025   1.600   1.434 -1.2747  0.7596 -0.5433
  992MOL0     C36780   1.149   1.580   1.520 -0.3170 -0.6244  0.3238
  992MOL0     C36781   1.112   1.529   1.660 -0.8180 -0.1572  0.0011
  992MOL0     O36782   1.228   1.471   1.716 -0.3875 -0.5731  0.5549
  992MOL0     C36783   1.196   1.357   1.783  0.0903  1.6083 -0.8217
  992MOL0     C36784   1.082   1.335   1.860 -0.3440  0.9119  0.4638
  992MOL0     C36785   1.052   1.207   1.908  0.3288  0.2549  0.1424
  992MOL0     C36786   0.922   1.187   1.988  0.2636  0.2440  0.1471
  992MOL0     C36787   1.151   1.106   1.897 -0.3452  0.0082 -0.1215
  992MOL0     C36788   1.152   0.976   1.980  0.3345 -1.0088  0.0758
  992MOL0     O36789   1.245   0.883   1.949 -0.5121 -0.3444  0.1908
  992MOL0     C36790   1.235   0.784   2.042  0.1319 -1.0883  0.9526
  992MOL0     C36791   1.330   0.792   2.149  0.3358  0.2481 -0.6924
  992MOL0     C36792   1.314   0.705   2.258 -0.3417 -0.4784 -0.4133
  992MOL0     C36793   1.214   0.610   2.261  0.5636  0.1987 -0.4064
  992MOL0     O36794   1.204   0.523   2.367 -0.5110 -0.6790 -0.5039
  992MOL0     C36795   1.094   0.533   2.445  0.3292 -0.4757  0.2484
  992MOL0     C36796   1.133   0.536   2.592  0.2319  0.4235 -1.0156
  992MOL0     C36797   1.010   0.560   2.689 -0.6535  0.6189  0.0663
  992MOL0     C36798   1.060   0.648   2.807 -0.0978  1.1982  0.0519
  992MOL0     C36799   0.940   0.685   2.894 -0.2408 -0.0060  0.3788
  992MOL0     C36800   0.983   0.772   3.007  0.2138  0.2406 -0.4444
  992MOL0     C36801   0.874   0.861   3.065  0.6095  0.8089  0.9227
  992MOL0     C36802   0.936   0.990   3.135 -0.1459  0.3770  0.4684
  992MOL0    Cl36803   1.061   0.929   3.256  0.1298  0.4339  0.1957
  992MOL0     C36804   1.120   0.603   2.159 -0.9909 -0.0067 -0.3836
  992MOL0     C36805   1.130   0.696   2.047  0.9697  0.5048  0.1965
  992MOL0     O36806   1.080   0.978   2.075  0.6952 -0.8138 -0.5926
  992MOL0     C36807   1.269   1.131   1.824  0.5920  0.0905  0.0381
  992MOL0     C36808   1.290   1.257   1.769  0.0460 -0.0988 -1.2906
  992MOL0     N36809   0.833   1.778   1.217  0.4403  1.0100 -1.1163
  992MOL0     N36810   0.761   1.752   1.109 -0.4301 -0.6460 -1.0346
  992MOL0     C36811   0.297   0.729   0.490  0.4518  0.2229 -0.3805
  992MOL0     C36812   0.282   0.614   0.415 -0.0335  0.3366  1.0338
  992MOL0     C36813   0.084   0.278   0.198  1.1349  1.4015 -0.8856
  992MOL0     C36814   0.124   0.308   0.071 -0.0759  1.0057  0.7077
  992MOL0     C36815   0.124   0.225  -0.041  0.2216  0.7250  0.5327
  992MOL0     C36816   0.086   0.090  -0.017 -1.3872 -0.3711  0.3609
  992MOL0     O36817   0.079  -0.009  -0.113 -0.2125  0.4494  0.8136
  992MOL0     C36818   0.168  -0.005  -0.227 -0.4775 -0.0628 -0.1177
  992MOL0     C36819   0.139  -0.130  -0.319  1.0890  0.7226 -1.4681
  992MOL0     C36820   0.259  -0.168  -0.413 -0.5190 -0.2670  0.1376
  992MOL0     C36821   0.242  -0.296  -0.494 -0.3770  0.6660 -0.1344
  992MOL0     C36822   0.125  -0.280  -0.582  1.5615 -0.6681 -0.1270
  992MOL0     C36823   0.027  -0.278  -0.654 -0.2236 -0.3258 -0.6487
  992MOL0     C36824   0.042   0.051   0.108 -0.3867 -0.1690 -0.0057
  992MOL0     C36825   0.038   0.144   0.219 -0.3903 -0.6727  1.1317
  992MOL0     C36826   0.015   0.082   0.359 -0.1133 -0.5147 -0.2491
  992MOL0     H36827  -0.016   0.680   0.275  1.1690  3.1110 -2.7300
  992MOL0     H36828   0.002   0.885   0.401  2.0024  2.5385 -0.0958
  992MOL0     H36829   0.397   0.984   0.588  0.3992 -1.5582  0.4013
  992MOL0     H36830   0.327   0.873   0.721 -0.3417 -0.3168  1.3457
  992MOL0     H36831   0.240   1.169   0.690  2.1009  1.4766  1.4661
  992MOL0     H36832   0.207   1.050   0.817  2.0035 -2.9995  1.2229
  992MOL0     H36833   0.432   1.071   0.903 -0.8228  0.7680  1.8334
  992MOL0     H36834   0.473   1.184   0.776  0.6708 -0.8893  0.7196
  992MOL0     H36835   0.271   1.333   0.866 -0.8401  0.1034  0.7497
  992MOL0     H36836   0.260   1.219   1.002  2.4793 -2.6316  1.6032
  992MOL0     H36837   0.505   1.265   1.054  0.5641 -1.1690 -2.5621
  992MOL0     H36838   0.394   1.403   1.074  3.1293  4.7178 -1.3107
  992MOL0     H36839   0.571   1.387   0.830  4.0397  1.9973  1.3930
  992MOL0     H36840   0.470   1.512   0.889 -0.0445  1.4074  1.2230
  992MOL0     H36841   0.691   1.368   1.043  0.0592  0.0793 -0.3032
  992MOL0     H36842   0.599   1.515   1.093 -2.7973 -0.1178 -1.3915
  992MOL0     H36843   0.808   1.504   0.888  1.2321 -1.7772  1.1613
  992MOL0     H36844   0.681   1.626   0.886  0.0111 -1.6014 -1.2008
  992MOL0     H36845   0.976   1.511   1.077  1.7789  1.0573  0.3854
  992MOL0     H36846   1.088   1.776   1.338 -1.4950 -0.4109  0.2589
  992MOL0     H36847   1.135   1.633   1.250 -0.5637  1.4677 -1.1380
  992MOL0     H36848   0.954   1.657   1.494 -0.7528  1.1861 -0.3250
  992MOL0     H36849   0.981   1.503   1.409  0.2118  0.7443 -3.4348
  992MOL0     H36850   1.199   1.497   1.471 -0.2360 -0.5331  0.2529
  992MOL0     H36851   1.186   1.683   1.525 -1.6881  0.2260 -3.4971
  992MOL0     H36852   1.068   1.607   1.723  0.8194 -0.1236  1.1680
  992MOL0     H36853   1.035   1.454   1.636 -1.1073  0.1668 -0.0956
  992MOL0     H36854   1.018   1.421   1.878  2.0327  2.2748  3.1821
  992MOL0     H36855   0.885   1.084   1.983 -0.2024  0.4432 -0.7150
  992MOL0     H36856   0.842   1.245   1.941  2.0100  0.9494 -2.1453
  992MOL0     H36857   0.934   1.222   2.091  0.9176  0.5969 -0.0419
  992MOL0     H36858   1.417   0.857   2.140  0.8263 -0.2966  0.0201
  992MOL0     H36859   1.378   0.727   2.343  1.1647 -2.4505 -0.9719
  992MOL0     H36860   1.030   0.620   2.427 -1.0514 -1.0617  1.9826
  992MOL0     H36861   1.039   0.438   2.440  1.1933 -1.0414  1.1068
  992MOL0     H36862   1.180   0.440   2.614 -0.9114  0.8605  4.8419
  992MOL0     H36863   1.207   0.616   2.594  0.5304  0.1383 -0.3962
  992MOL0     H36864   0.969   0.467   2.729  1.4448 -0.1675  0.5242
  992MOL0     H36865   0.938   0.620   2.632  0.8356  3.0602  0.6109
  992MOL0     H36866   1.102   0.742   2.770  2.5682 -1.4855 -4.7981
  992MOL0     H36867   1.139   0.590   2.856 -0.1439  0.0004 -1.2291
  992MOL0     H36868   0.859   0.742   2.847 -1.5001  1.4756  4.0539
  992MOL0     H36869   0.899   0.591   2.932  0.8488 -0.7167 -0.1454
  992MOL0     H36870   1.066   0.833   2.970  0.9430  0.1324  0.9377
  992MOL0     H36871   1.040   0.726   3.088  1.2240  2.0589 -0.0739
  992MOL0     H36872   0.811   0.795   3.127  1.5236  0.0313  1.0398
  992MOL0     H36873   0.811   0.901   2.985  1.3638  0.6335  0.2245
  992MOL0     H36874   0.854   1.038   3.189 -1.4866  0.0296 -1.1536
  992MOL0     H36875   0.963   1.066   3.061 -0.5228  0.2775  0.2271
  992MOL0     H36876   1.034   0.538   2.172 -1.4631  1.0799  3.1845
  992MOL0     H36877   1.045   0.695   1.979  1.1993 -4.0852 -0.3808
  992MOL0     H36878   1.335   1.045   1.816 -3.2103 -3.3051  1.6767
  992MOL0     H36879   1.376   1.262   1.704  1.7421 -0.6511  0.8048
  992MOL0     H36880   0.390   0.727   0.545 -1.9865 -1.0830  4.2072
  992MOL0     H36881   0.364   0.544   0.400  1.3717  1.9870  0.7465
  992MOL0     H36882   0.161   0.409   0.057  1.2135  0.5164  0.5140
  992MOL0     H36883   0.148   0.250  -0.144 -3.3749 -0.5956 -0.7941
  992MOL0     H36884   0.137   0.074  -0.296  0.7319  0.9058  0.4223
  992MOL0     H36885   0.275  -0.003  -0.206 -0.3507  0.4504 -0.7711
  992MOL0     H36886   0.040  -0.120  -0.366 -0.9888  1.9046  2.7200
  992MOL0     H36887   0.134  -0.227  -0.270  1.9305 -0.1118 -2.9408
  992MOL0     H36888   0.271  -0.084  -0.481  0.3655 -0.2064  0.3555
  992MOL0     H36889   0.351  -0.181  -0.355  1.5501  2.0136 -2.3953
  992MOL0     H36890   0.225  -0.379  -0.426  0.1836  1.0311  0.4624
  992MOL0     H36891   0.330  -0.310  -0.557  0.4151  0.4318  0.9896
  992MOL0     H36892  -0.060  -0.286  -0.717 -1.6958  0.1744  1.2232
  992MOL0     H36893   0.015  -0.054   0.109 -1.5289  0.0806 -1.1141
  992MOL0     H36894  -0.023  -0.020   0.347 -0.2815 -0.1113 -6.6548
  992MOL0     H36895   0.103   0.089   0.423 -0.7639  0.1209  0.5980
  992MOL0     H36896  -0.064   0.136   0.411 -0.6092 -2.5905  1.2888
  993MOL0     O36897   7.140   1.896  10.972 -0.4851  0.6080 -0.3332
  993MOL0     C36898   7.061   1.976  11.025  0.3194  0.5407  0.3321
  993MOL0     O36899   6.940   1.938  11.097 -0.4439  0.1831  0.3637
  993MOL0     C36900   6.896   1.807  11.086  0.0142 -0.1849 -0.4352
  993MOL0     C36901   6.882   1.734  10.969 -0.4051  0.8765  0.6025
  993MOL0     C36902   6.824   1.609  10.971 -0.2012 -0.0276  0.7907
  993MOL0     C36903   6.791   1.557  11.096 -0.4215 -0.2588  0.1696
  993MOL0     O36904   6.737   1.436  11.081 -0.8724  0.3416 -0.3855
  993MOL0     C36905   6.684   1.369  11.192 -0.1348  0.2237  1.4134
  993MOL0     C36906   6.640   1.226  11.147 -0.8507  0.6995  0.5521
  993MOL0     C36907   6.548   1.162  11.246 -0.4351  0.5150 -0.9199
  993MOL0     C36908   6.503   1.027  11.201  0.4103  0.4438  0.4699
  993MOL0     C36909   6.393   0.976  11.301  0.5007 -0.1884 -0.2459
  993MOL0     C36910   6.326   0.841  11.266 -0.1912  1.3908  0.0177
  993MOL0     C36911   6.210   0.786  11.356 -0.7378  0.4067  0.4030
  993MOL0     C36912   6.261   0.767  11.507 -0.2839  0.0962  0.8255
  993MOL0     N36913   6.383   0.680  11.519 -0.2232 -1.2282 -0.4846
  993MOL0     C36914   6.472   0.685  11.629 -0.1707 -1.3114 -0.4051
  993MOL0     C36915   6.550   0.578  11.615 -0.2178 -0.2591  0.2329
  993MOL0     C36916   6.660   0.530  11.712  0.2687  0.4203 -1.1000
  993MOL0     C36917   6.628   0.495  11.859 -0.2595 -0.3533 -0.1003
  993MOL0     C36918   6.586   0.623  11.935 -0.4711 -0.1104  0.5238
  993MOL0     C36919   6.586   0.625  12.093 -0.0757  0.3349  0.4474
  993MOL0     O36920   6.568   0.753  12.136  0.6397  0.5070  0.2579
  993MOL0     C36921   6.539   0.780  12.264  0.8596 -0.0045  0.0440
  993MOL0     C36922   6.521   0.913  12.288 -1.7586 -0.2620 -0.4458
  993MOL0     C36923   6.495   0.954  12.416  0.1488  0.2785  0.4111
  993MOL0     C36924   6.462   1.097  12.438 -0.3040  0.4171 -0.4954
  993MOL0     C36925   6.474   0.851  12.518 -0.9591 -0.3254  0.2830
  993MOL0     C36926   6.427   0.882  12.660  0.1909  0.9168  0.8625
  993MOL0     O36927   6.458   1.001  12.723 -0.8217 -0.5322 -0.6241
  993MOL0     C36928   6.414   1.030  12.855 -1.0343 -0.3365 -0.0353
  993MOL0     C36929   6.497   1.111  12.925 -0.5672 -0.3564  1.0797
  993MOL0     C36930   6.486   1.109  13.067 -1.0482  0.9517 -0.1879
  993MOL0     C36931   6.376   1.053  13.131  0.1991 -0.0838 -0.1171
  993MOL0     O36932   6.378   1.068  13.269 -0.6349 -0.4936  0.6987
  993MOL0     C36933   6.271   1.018  13.351 -0.0238 -0.8373 -0.3030
  993MOL0     C36934   6.318   1.004  13.493  0.5321 -0.2568 -0.0587
  993MOL0     C36935   6.209   0.996  13.607  0.4662  1.3735 -0.5064
  993MOL0     C36936   6.260   1.055  13.735 -0.0949 -0.6438  0.4355
  993MOL0     C36937   6.151   1.087  13.833 -0.2846 -0.1800 -0.3447
  993MOL0     C36938   6.082   1.229  13.819 -0.1431  0.0406  0.6337
  993MOL0     C36939   5.960   1.247  13.916  0.0003  0.3632  0.6067
  993MOL0     C36940   5.846   1.155  13.891 -0.2077  0.2703 -0.6012
  993MOL0    Cl36941   5.726   1.200  14.008 -0.0068 -0.1790 -0.1331
  993MOL0     C36942   6.279   0.989  13.054 -1.0547  0.1940 -0.5692
  993MOL0     C36943   6.293   0.973  12.913 -0.0854 -0.7714 -0.2110
  993MOL0     O36944   6.380   0.780  12.718 -0.3520  0.2859 -0.5831
  993MOL0     C36945   6.499   0.716  12.485  0.1940  0.5478 -0.3948
  993MOL0     C36946   6.539   0.683  12.365  0.5369  0.1414  1.0854
  993MOL0     N36947   6.506   0.507  11.501 -0.9183 -0.4750 -0.4788
  993MOL0     N36948   6.412   0.576  11.444  0.2474  0.1049  0.2067
  993MOL0     C36949   6.826   1.622  11.216  0.0272 -0.4695 -1.0613
  993MOL0     C36950   6.867   1.752  11.212 -0.4026 -0.5599  0.1131
  993MOL0     C36951   7.112   2.112  11.054  0.6448  1.0335 -0.4574
  993MOL0     C36952   7.100   2.152  11.192  0.3037 -0.0412  0.6802
  993MOL0     C36953   7.166   2.265  11.239  0.3520  0.9171  0.5612
  993MOL0     C36954   7.245   2.349  11.155 -0.3499 -0.1124  0.8897
  993MOL0     O36955   7.301   2.465  11.187  0.1903  0.1335 -0.0555
  993MOL0     C36956   7.287   2.513  11.324  1.0394 -0.3665 -0.0863
  993MOL0     C36957   7.404   2.604  11.380  0.4720  0.6528  0.5277
  993MOL0     C36958   7.369   2.689  11.502  0.6632 -0.4249  0.1393
  993MOL0     C36959   7.258   2.634  11.599  0.4340 -0.4592  0.6428
  993MOL0     C36960   7.307   2.513  11.650 -0.3396  0.0708 -0.0813
  993MOL0     C36961   7.344   2.405  11.697 -0.6305 -1.5206 -0.6893
  993MOL0     C36962   7.237   2.315  11.018  0.4546 -0.9100  0.3974
  993MOL0     C36963   7.181   2.192  10.964  0.2545 -0.2851  0.8208
  993MOL0     C36964   7.210   2.134  10.827 -0.0843 -0.2486 -0.6492
  993MOL0     H36965   6.900   1.779  10.871 -0.8641  1.9911  1.0124
  993MOL0     H36966   6.797   1.550  10.885  0.2227  1.3136 -0.2922
  993MOL0     H36967   6.596   1.423  11.226  0.5709  1.3470  1.5132
  993MOL0     H36968   6.769   1.356  11.259  2.0365 -2.4181 -1.5124
  993MOL0     H36969   6.591   1.243  11.051 -0.4714  0.6615  0.3487
  993MOL0     H36970   6.728   1.163  11.128 -1.6789 -0.1132 -0.6935
  993MOL0     H36971   6.605   1.146  11.339 -1.1139 -2.0269 -0.8688
  993MOL0     H36972   6.475   1.238  11.275  0.4147  0.8520  0.4431
  993MOL0     H36973   6.463   1.029  11.099 -0.8397 -0.1932  0.9166
  993MOL0     H36974   6.594   0.967  11.205 -0.7636 -1.3770  1.7016
  993MOL0     H36975   6.315   1.052  11.296  1.4849  0.7946 -1.2940
  993MOL0     H36976   6.433   0.983  11.402  0.3717 -0.0846 -0.2010
  993MOL0     H36977   6.291   0.850  11.163 -2.9933 -0.7703  0.6566
  993MOL0     H36978   6.410   0.770  11.263  2.5172  4.3960 -1.0448
  993MOL0     H36979   6.175   0.693  11.310 -0.8146  0.6618 -0.0610
  993MOL0     H36980   6.134   0.864  11.344 -0.8659  0.2680  0.3074
  993MOL0     H36981   6.284   0.872  11.525 -0.1213  0.0510  0.8927
  993MOL0     H36982   6.188   0.740  11.584 -1.2444 -0.6626 -0.3283
  993MOL0     H36983   6.473   0.759  11.708 -0.9776  0.2882 -1.8296
  993MOL0     H36984   6.738   0.607  11.714 -0.4222  1.1120  0.0667
  993MOL0     H36985   6.699   0.438  11.667  0.1791 -1.4118  2.2622
  993MOL0     H36986   6.560   0.410  11.871 -0.2939 -0.1615  1.2988
  993MOL0     H36987   6.720   0.466  11.911 -0.4858 -1.7433 -0.4304
  993MOL0     H36988   6.661   0.701  11.924  0.7107 -0.7764  3.1403
  993MOL0     H36989   6.487   0.646  11.895 -0.9326 -2.1089  0.3914
  993MOL0     H36990   6.517   0.550  12.132 -0.5219 -0.3552 -1.5467
  993MOL0     H36991   6.689   0.591  12.112 -0.1215 -1.6387 -2.2947
  993MOL0     H36992   6.529   0.979  12.202  1.5168 -0.5978 -0.5301
  993MOL0     H36993   6.458   1.152  12.344  0.3707  1.4885  0.0855
  993MOL0     H36994   6.539   1.146  12.498 -0.1156 -1.1244  0.5893
  993MOL0     H36995   6.363   1.097  12.486 -1.3987 -2.1988 -2.4986
  993MOL0     H36996   6.585   1.152  12.876 -0.3563  0.5522  2.1798
  993MOL0     H36997   6.562   1.155  13.130  0.5344  1.7519 -2.5705
  993MOL0     H36998   6.186   1.085  13.337  0.2013 -0.1710  1.2967
  993MOL0     H36999   6.233   0.922  13.315 -1.1802 -0.7806  0.7173
  993MOL0     H37000   6.413   0.949  13.493  0.4632 -0.4982 -2.6762
  993MOL0     H37001   6.357   1.104  13.514  3.1263 -0.6335 -2.4512
  993MOL0     H37002   6.174   0.894  13.624 -0.5873  1.7313 -0.5044
  993MOL0     H37003   6.131   1.063  13.571  1.0516  2.8853  0.8971
  993MOL0     H37004   6.329   1.140  13.731  2.8569 -2.8732 -0.2479
  993MOL0     H37005   6.334   0.986  13.777 -0.4308 -0.2329  1.7239
  993MOL0     H37006   6.079   1.004  13.837 -1.0065  0.4792  1.5278
  993MOL0     H37007   6.202   1.090  13.929 -0.1362  2.2721 -0.4487
  993MOL0     H37008   6.057   1.250  13.714  1.4304  0.1954  0.2596
  993MOL0     H37009   6.160   1.300  13.849  2.2584 -1.8481 -0.8040
  993MOL0     H37010   5.938   1.354  13.906  1.0464  0.9301  3.4242
  993MOL0     H37011   5.988   1.215  14.016 -0.9055 -4.4444 -0.4128
  993MOL0     H37012   5.878   1.051  13.901 -1.2395  0.1628  2.6908
  993MOL0     H37013   5.814   1.172  13.788 -0.2190  0.2834 -0.5955
  993MOL0     H37014   6.202   0.928  13.099 -1.4420  1.3488  0.3583
  993MOL0     H37015   6.228   0.920  12.844  2.4125  0.6965 -3.9905
  993MOL0     H37016   6.510   0.630  12.550 -0.4747 -0.6843 -1.8685
  993MOL0     H37017   6.560   0.580  12.335  2.1302  0.1774  1.9934
  993MOL0     H37018   6.797   1.576  11.310 -0.3117  0.2463 -0.8157
  993MOL0     H37019   6.885   1.812  11.301 -0.1815 -0.1408 -0.2115
  993MOL0     H37020   7.042   2.105  11.271  0.3239  1.0942  1.3917
  993MOL0     H37021   7.158   2.292  11.343  2.8242  0.2203  0.9871
  993MOL0     H37022   7.190   2.562  11.339  1.0079 -0.4328 -0.0726
  993MOL0     H37023   7.284   2.427  11.392 -0.2519 -0.4251 -0.1883
  993MOL0     H37024   7.456   2.667  11.307 -1.3122 -0.6203 -2.0087
  993MOL0     H37025   7.485   2.538  11.412 -1.5373 -1.5524  1.4175
  993MOL0     H37026   7.458   2.703  11.563 -0.0818 -0.1511  1.2046
  993MOL0     H37027   7.338   2.790  11.471  2.4237  0.1484  0.1733
  993MOL0     H37028   7.157   2.624  11.559  0.8822 -4.3918  0.0626
  993MOL0     H37029   7.253   2.713  11.675  2.9406  3.5645 -2.9048
  993MOL0     H37030   7.359   2.318  11.757  0.3122 -0.3386  0.8856
  993MOL0     H37031   7.285   2.387  10.952 -2.3196  1.5579  0.8393
  993MOL0     H37032   7.240   2.217  10.762 -0.1204 -0.5623 -1.0705
  993MOL0     H37033   7.302   2.075  10.823 -0.4985 -1.1839  1.8268
  993MOL0     H37034   7.123   2.088  10.781  1.6025 -2.4668 -1.7958
  994MOL0     O37035   1.676   4.291   6.985 -0.1969  0.2643  0.1631
  994MOL0     C37036   1.766   4.366   7.013  0.3407 -0.1871  0.0176
  994MOL0     O37037   1.894   4.340   6.995  0.4726 -0.7351 -0.1879
  994MOL0     C37038   1.946   4.233   6.921  0.2418 -0.4106  0.3941
  994MOL0     C37039   2.041   4.245   6.820 -0.0767  0.3550 -0.2265
  994MOL0     C37040   2.096   4.124   6.766  0.0356 -0.5273 -0.2682
  994MOL0     C37041   2.045   4.001   6.790  0.0569 -0.0819  0.4571
  994MOL0     O37042   2.080   3.885   6.722  0.8995 -0.6821 -0.3171
  994MOL0     C37043   2.021   3.869   6.588 -0.8030  0.1773 -0.1775
  994MOL0     C37044   2.117   3.785   6.501 -1.0366  0.3114 -0.5989
  994MOL0     C37045   2.253   3.836   6.461 -0.2165 -0.3016 -0.9616
  994MOL0     C37046   2.371   3.737   6.455  0.8795  0.0908  0.9593
  994MOL0     C37047   2.473   3.775   6.352  0.4883 -0.0049  0.4891
  994MOL0     C37048   2.580   3.675   6.352  0.0720 -0.7736 -0.0887
  994MOL0     C37049   2.541   3.536   6.309  0.3461 -0.3201  0.4987
  994MOL0     C37050   2.518   3.447   6.429  0.4746  0.6831 -0.6079
  994MOL0     N37051   2.526   3.298   6.425  0.3388  0.8948 -0.1149
  994MOL0     C37052   2.620   3.222   6.483 -0.4221  0.7278  0.5942
  994MOL0     C37053   2.569   3.092   6.469 -0.6688  0.3339  0.1299
  994MOL0     C37054   2.630   2.963   6.516  0.8530 -0.1784  0.5697
  994MOL0     C37055   2.548   2.901   6.630 -0.5535 -0.4024 -0.3936
  994MOL0     C37056   2.599   2.758   6.658 -0.4914  0.0914  0.1775
  994MOL0     C37057   2.742   2.738   6.696 -0.0209  0.3070 -0.5693
  994MOL0     O37058   2.742   2.647   6.807 -0.0358 -0.5726  0.8452
  994MOL0     C37059   2.840   2.552   6.813 -0.9351 -0.0533 -0.2807
  994MOL0     C37060   2.845   2.483   6.940  0.7347 -0.0398  0.5921
  994MOL0     C37061   2.955   2.398   6.963  0.4898  0.2337 -0.1820
  994MOL0     C37062   2.971   2.330   7.101 -0.5269  0.1498  0.5016
  994MOL0     C37063   3.060   2.380   6.871  0.2026  0.6601  0.4492
  994MOL0     C37064   3.167   2.277   6.873 -1.5203 -0.7351  0.3209
  994MOL0     O37065   3.284   2.301   6.808  0.6072  0.7192 -0.5106
  994MOL0     C37066   3.366   2.188   6.799 -0.6356  0.3565  0.1661
  994MOL0     C37067   3.376   2.121   6.678  0.4669  0.5620  0.0328
  994MOL0     C37068   3.476   2.016   6.664  0.0200 -0.6231 -0.0697
  994MOL0     C37069   3.552   1.970   6.773  0.0749 -0.5302 -0.5565
  994MOL0     O37070   3.634   1.862   6.759  0.2140  0.1516 -0.0301
  994MOL0     C37071   3.682   1.793   6.869 -0.3840 -0.9820 -0.5259
  994MOL0     C37072   3.762   1.671   6.822 -0.0784 -0.2974 -0.0272
  994MOL0     C37073   3.784   1.583   6.940  0.5186  0.3467  0.8934
  994MOL0     C37074   3.822   1.446   6.900  0.2718 -0.0452 -0.3234
  994MOL0     C37075   3.848   1.364   7.023 -0.1857 -0.1257  0.2823
  994MOL0     C37076   3.729   1.288   7.072  0.4937  0.5865 -0.2008
  994MOL0     C37077   3.668   1.177   6.979 -0.1612 -0.3105  0.3926
  994MOL0     C37078   3.618   1.050   7.050  0.0491 -0.4884  0.3364
  994MOL0    Cl37079   3.760   0.946   7.065  0.2029 -0.0144  0.4976
  994MOL0     C37080   3.517   2.027   6.898  1.0606  0.6674 -0.5568
  994MOL0     C37081   3.431   2.141   6.917  0.3380  0.2893 -0.0825
  994MOL0     O37082   3.138   2.180   6.936 -0.0523 -0.9785 -0.0034
  994MOL0     C37083   3.059   2.463   6.759  0.6873  0.6771  0.9652
  994MOL0     C37084   2.956   2.548   6.730 -0.0957  0.7680  0.1957
  994MOL0     N37085   2.455   3.095   6.408  0.6255 -0.4240  0.9681
  994MOL0     N37086   2.422   3.222   6.384  0.1341  0.5860 -0.5361
  994MOL0     C37087   1.954   3.985   6.896 -0.8209 -1.2223  0.1826
  994MOL0     C37088   1.917   4.104   6.978 -0.1483 -0.1763  0.8350
  994MOL0     C37089   1.739   4.481   7.102 -0.0148  0.4563 -0.8963
  994MOL0     C37090   1.835   4.519   7.192 -0.0219  0.2863  0.1314
  994MOL0     C37091   1.829   4.631   7.267  0.7686 -1.0274  0.0509
  994MOL0     C37092   1.725   4.721   7.257 -0.8202 -0.0256 -0.5428
  994MOL0     O37093   1.706   4.843   7.318 -0.1876  0.2063  0.2523
  994MOL0     C37094   1.781   4.874   7.439 -0.8064 -0.4402  0.6477
  994MOL0     C37095   1.856   5.006   7.403  1.0088  0.0492 -0.2214
  994MOL0     C37096   1.998   4.984   7.336  0.6531  0.5061  0.0820
  994MOL0     C37097   2.033   5.095   7.231 -0.4663  1.1032 -0.2463
  994MOL0     C37098   2.028   5.228   7.298  0.9192  1.2414 -0.0687
  994MOL0     C37099   2.029   5.344   7.339 -0.4992  0.4895  0.2158
  994MOL0     C37100   1.627   4.683   7.177  0.7062 -0.3815 -0.1580
  994MOL0     C37101   1.627   4.571   7.090  0.2390 -1.0921 -0.7238
  994MOL0     C37102   1.504   4.544   7.005  0.6332 -0.0167 -0.0825
  994MOL0     H37103   2.074   4.347   6.800 -0.2066  1.1007  2.8173
  994MOL0     H37104   2.180   4.134   6.697 -0.3798  0.2239 -0.6710
  994MOL0     H37105   2.013   3.972   6.552  1.3862  0.6326  0.4712
  994MOL0     H37106   1.924   3.820   6.596 -1.0379  0.7867  0.8833
  994MOL0     H37107   2.144   3.702   6.566 -3.8969  1.6057  2.5096
  994MOL0     H37108   2.074   3.735   6.414 -1.1245  0.9448 -0.9238
  994MOL0     H37109   2.236   3.902   6.376 -4.4144 -2.3301 -1.9459
  994MOL0     H37110   2.287   3.895   6.547  3.0585 -3.1270 -0.0948
  994MOL0     H37111   2.418   3.733   6.554  0.5750 -0.4983  1.0805
  994MOL0     H37112   2.329   3.643   6.421  1.4962 -0.1996  0.9802
  994MOL0     H37113   2.524   3.871   6.364  3.3545 -0.7924 -3.5762
  994MOL0     H37114   2.418   3.771   6.258  0.4207 -1.6450  0.5669
  994MOL0     H37115   2.660   3.715   6.288  1.7177 -2.1258  1.0130
  994MOL0     H37116   2.623   3.661   6.452  1.4830 -6.3148 -1.1353
  994MOL0     H37117   2.635   3.493   6.275  0.3231  0.0881 -0.0984
  994MOL0     H37118   2.465   3.539   6.230  0.9864  1.9487 -0.1196
  994MOL0     H37119   2.597   3.478   6.498  1.7027 -2.2960 -0.5088
  994MOL0     H37120   2.418   3.465   6.469 -0.8958 -2.0305 -2.4459
  994MOL0     H37121   2.711   3.239   6.539  3.2660 -5.4729 -2.4174
  994MOL0     H37122   2.731   2.985   6.552  0.6402 -0.1500  1.1663
  994MOL0     H37123   2.616   2.891   6.435 -0.2835 -0.1398  0.7118
  994MOL0     H37124   2.546   2.961   6.722  0.4950 -0.0715 -0.5790
  994MOL0     H37125   2.445   2.879   6.602 -0.6072 -1.7212  0.7409
  994MOL0     H37126   2.536   2.725   6.741 -0.8747  0.6885  0.1246
  994MOL0     H37127   2.573   2.688   6.578  1.7462 -1.4663  0.6944
  994MOL0     H37128   2.791   2.700   6.606 -1.1617  2.6155 -2.2572
  994MOL0     H37129   2.797   2.826   6.729  0.0439  1.2480 -2.9968
  994MOL0     H37130   2.771   2.529   7.004  0.5750  4.6772 -2.4810
  994MOL0     H37131   2.935   2.226   7.100 -2.0239  0.6409 -0.7201
  994MOL0     H37132   2.907   2.385   7.171 -0.7986  1.4310 -0.7176
  994MOL0     H37133   3.072   2.338   7.143 -0.4010 -1.3910  0.5629
  994MOL0     H37134   3.307   2.152   6.601  0.1878 -0.7362 -0.2752
  994MOL0     H37135   3.486   1.984   6.561 -0.2087 -1.3564  0.1304
  994MOL0     H37136   3.741   1.861   6.932 -1.3871 -1.5547  1.0877
  994MOL0     H37137   3.591   1.757   6.916 -1.6713 -1.7372 -3.3848
  994MOL0     H37138   3.713   1.621   6.738  1.6892 -0.4650 -1.0150
  994MOL0     H37139   3.853   1.705   6.771 -0.3850 -2.4899 -2.2090
  994MOL0     H37140   3.690   1.570   6.994  0.2934 -2.6586 -0.0437
  994MOL0     H37141   3.864   1.625   7.002  0.7094 -1.4216  1.9135
  994MOL0     H37142   3.924   1.462   6.864  0.8993 -4.4160 -1.0472
  994MOL0     H37143   3.749   1.394   6.837 -1.2107 -2.2621  2.9320
  994MOL0     H37144   3.917   1.289   6.983  0.6593  0.1503  1.1854
  994MOL0     H37145   3.889   1.422   7.107 -0.5990  1.8705 -0.8132
  994MOL0     H37146   3.649   1.363   7.083 -0.4707 -0.0879 -2.1549
  994MOL0     H37147   3.752   1.235   7.165 -2.3061  1.4612  1.1375
  994MOL0     H37148   3.735   1.144   6.899 -0.8096 -0.7941  0.0353
  994MOL0     H37149   3.579   1.216   6.928 -0.2554 -1.2498 -0.1946
  994MOL0     H37150   3.553   1.000   6.978  1.6614 -0.2924 -1.3424
  994MOL0     H37151   3.571   1.073   7.147  1.0148 -2.6280  1.3755
  994MOL0     H37152   3.569   1.995   6.988 -0.3948 -0.0525  0.0539
  994MOL0     H37153   3.418   2.201   7.006 -0.9396  0.6255 -0.4699
  994MOL0     H37154   3.147   2.468   6.696  1.2217  0.3398  1.6705
  994MOL0     H37155   2.971   2.607   6.640  2.6204 -0.6950 -0.4109
  994MOL0     H37156   1.930   3.879   6.895 -4.0339 -0.5816 -0.4973
  994MOL0     H37157   1.871   4.082   7.074  0.0824  0.0107  0.9877
  994MOL0     H37158   1.920   4.455   7.214  2.2153  3.5501  1.8191
  994MOL0     H37159   1.918   4.666   7.319  3.7145 -1.4772 -4.2468
  994MOL0     H37160   1.712   4.896   7.520 -0.4568  3.2476  0.1378
  994MOL0     H37161   1.852   4.803   7.482  0.2495  0.7212  0.9144
  994MOL0     H37162   1.858   5.062   7.498 -0.9965 -0.5788  0.2462
  994MOL0     H37163   1.787   5.056   7.335  1.7474  1.4006 -0.0338
  994MOL0     H37164   2.072   4.977   7.417  1.7531 -2.6175 -1.0098
  994MOL0     H37165   2.010   4.883   7.295 -0.7746  1.4377 -2.9063
  994MOL0     H37166   1.965   5.103   7.146 -0.5582  1.2958 -0.1551
  994MOL0     H37167   2.137   5.070   7.206  0.2010  1.1568  2.1801
  994MOL0     H37168   2.020   5.448   7.364  0.7106  1.1431 -1.8276
  994MOL0     H37169   1.544   4.753   7.184 -1.3546 -2.8231  2.7305
  994MOL0     H37170   1.540   4.495   6.914  0.7029  0.5605 -0.3666
  994MOL0     H37171   1.433   4.472   7.047  0.3264  0.3354  0.0043
  994MOL0     H37172   1.443   4.632   6.984  1.4094  0.2174 -1.4383
  995MOL0     O37173   6.267   2.638   1.324  0.5947 -0.6625 -1.1039
  995MOL0     C37174   6.369   2.574   1.357 -0.7215 -0.4706 -0.2956
  995MOL0     O37175   6.409   2.544   1.486 -0.2173 -0.2921 -0.3987
  995MOL0     C37176   6.330   2.578   1.589 -0.5756 -0.1856  0.3765
  995MOL0     C37177   6.233   2.492   1.625 -0.3937  0.6109  0.7806
  995MOL0     C37178   6.147   2.513   1.731 -0.1073  0.5805 -0.5038
  995MOL0     C37179   6.147   2.636   1.798 -0.6147 -0.2120 -0.2448
  995MOL0     O37180   6.066   2.644   1.908  0.5880 -0.3507  0.2505
  995MOL0     C37181   6.053   2.751   1.997 -0.3140  1.1810  0.3002
  995MOL0     C37182   5.961   2.855   1.938 -0.3800 -0.3669  0.5130
  995MOL0     C37183   5.838   2.797   1.874  0.8253 -0.0842  0.4457
  995MOL0     C37184   5.747   2.901   1.821 -0.4802 -0.4004  0.3772
  995MOL0     C37185   5.618   2.841   1.762 -0.2617 -0.1013  0.2237
  995MOL0     C37186   5.535   2.954   1.702 -0.5357 -0.3325  0.5179
  995MOL0     C37187   5.398   2.899   1.652 -0.5566 -0.7476  0.3273
  995MOL0     C37188   5.350   2.989   1.535  0.1800  0.1292 -0.5422
  995MOL0     N37189   5.241   2.915   1.462 -0.9750 -1.0240  0.6966
  995MOL0     C37190   5.108   2.896   1.485  0.3200 -0.3219 -0.3434
  995MOL0     C37191   5.068   2.798   1.405 -1.0388  0.1131  0.3975
  995MOL0     C37192   4.938   2.743   1.392  0.8204 -0.1238 -0.6131
  995MOL0     C37193   4.891   2.707   1.248 -0.0066 -0.1493 -0.2403
  995MOL0     C37194   4.898   2.811   1.137 -1.1306  1.6678  0.0513
  995MOL0     C37195   4.931   2.755   0.984 -0.2464 -1.4660  0.3404
  995MOL0     O37196   4.840   2.799   0.876 -0.3640 -0.5326  0.2702
  995MOL0     C37197   4.705   2.757   0.874 -0.4301 -0.6261  0.3197
  995MOL0     C37198   4.643   2.660   0.950 -0.5380 -0.7345 -0.8164
  995MOL0     C37199   4.512   2.635   0.952 -0.7624 -0.1345 -1.2960
  995MOL0     C37200   4.468   2.508   1.026 -0.9036 -0.9517  0.7291
  995MOL0     C37201   4.430   2.695   0.853  0.0982 -0.3363  0.0152
  995MOL0     C37202   4.290   2.661   0.827  1.4041  0.0156  0.2692
  995MOL0     O37203   4.236   2.694   0.704 -0.0240 -0.1345 -0.2833
  995MOL0     C37204   4.109   2.679   0.684 -0.1182 -0.2440  0.9810
  995MOL0     C37205   4.041   2.794   0.637 -0.3142  0.2443  0.4429
  995MOL0     C37206   3.909   2.791   0.595  0.2380  0.3598  0.6290
  995MOL0     C37207   3.836   2.665   0.591 -0.3694  0.5152 -0.2101
  995MOL0     O37208   3.704   2.653   0.554 -0.4176 -0.0914  0.1874
  995MOL0     C37209   3.661   2.732   0.443 -0.6065 -0.1552 -0.7258
  995MOL0     C37210   3.534   2.659   0.396 -0.2075  0.1232  0.2958
  995MOL0     C37211   3.439   2.603   0.493  0.2030  0.5448 -0.0287
  995MOL0     C37212   3.393   2.711   0.588  0.0701  0.3606 -0.2612
  995MOL0     C37213   3.285   2.658   0.681  0.0276 -0.9952 -0.4445
  995MOL0     C37214   3.151   2.631   0.612  0.6075  0.2579  0.3265
  995MOL0     C37215   3.044   2.593   0.715  0.2476  0.3978 -0.2344
  995MOL0     C37216   3.079   2.465   0.800 -0.5856 -0.7601  0.0788
  995MOL0    Cl37217   3.132   2.326   0.697 -0.0765  0.2861 -0.1463
  995MOL0     C37218   3.902   2.557   0.648 -0.1313 -0.2934  0.7657
  995MOL0     C37219   4.038   2.565   0.688 -0.5163  0.7971  0.0125
  995MOL0     O37220   4.223   2.613   0.918 -0.6125  0.1415 -0.2450
  995MOL0     C37221   4.493   2.794   0.766  0.2840  0.1092 -0.9787
  995MOL0     C37222   4.624   2.821   0.777  0.3598 -0.4792  0.1741
  995MOL0     N37223   5.178   2.767   1.325 -0.3428  0.1636 -0.4485
  995MOL0     N37224   5.284   2.837   1.357 -0.0670  1.1216 -0.4566
  995MOL0     C37225   6.239   2.739   1.749 -0.3223 -0.1308  0.1565
  995MOL0     C37226   6.332   2.710   1.649 -0.1789  0.6047  0.0302
  995MOL0     C37227   6.469   2.539   1.255  0.2540  0.1435 -0.2115
  995MOL0     C37228   6.531   2.411   1.270 -0.5725 -0.6774  0.8219
  995MOL0     C37229   6.616   2.364   1.165 -0.1520  0.4112  0.7640
  995MOL0     C37230   6.653   2.442   1.051  0.0471  0.8441 -0.9408
  995MOL0     O37231   6.721   2.381   0.950 -0.3735 -0.1463  0.9714
  995MOL0     C37232   6.845   2.447   0.920  0.1514 -0.1980 -0.0042
  995MOL0     C37233   6.872   2.472   0.774 -1.0736 -0.6639  0.1382
  995MOL0     C37234   6.774   2.566   0.711 -0.2151 -0.0863  0.5262
  995MOL0     C37235   6.822   2.601   0.570 -0.0369 -0.2502  1.1894
  995MOL0     C37236   6.719   2.563   0.474  0.0966  0.0566  0.2618
  995MOL0     C37237   6.642   2.513   0.392 -0.6483  0.3452 -0.2293
  995MOL0     C37238   6.613   2.576   1.049  0.4474  1.1950  0.9941
  995MOL0     C37239   6.515   2.619   1.149  0.5661  0.1832  0.2949
  995MOL0     C37240   6.459   2.761   1.123 -0.4356  0.2492 -0.4538
  995MOL0     H37241   6.228   2.400   1.568  4.8992  1.3888 -1.5024
  995MOL0     H37242   6.078   2.433   1.755  1.4261 -0.7308 -0.2745
  995MOL0     H37243   6.148   2.800   2.024  0.0552  0.1056  1.0295
  995MOL0     H37244   6.023   2.707   2.093  2.8846 -1.5173  0.2581
  995MOL0     H37245   5.929   2.930   2.011 -1.6811  1.3497 -1.6948
  995MOL0     H37246   6.013   2.916   1.863  4.0110 -1.3429  2.4576
  995MOL0     H37247   5.863   2.733   1.789  0.1217  2.2789 -1.6724
  995MOL0     H37248   5.772   2.732   1.931 -2.1362  1.7700 -0.6233
  995MOL0     H37249   5.723   2.972   1.901 -3.7220  1.0580 -1.6820
  995MOL0     H37250   5.795   2.962   1.744  0.3968 -1.9113 -0.3161
  995MOL0     H37251   5.557   2.791   1.839  0.6341  2.4314  2.7635
  995MOL0     H37252   5.646   2.767   1.686  2.9091  0.4564  0.7007
  995MOL0     H37253   5.518   3.029   1.780  0.2263  2.1001 -1.4927
  995MOL0     H37254   5.590   3.006   1.622 -0.8538  0.4271  0.7780
  995MOL0     H37255   5.336   2.905   1.742 -0.0238 -1.5772  0.7636
  995MOL0     H37256   5.410   2.794   1.623 -0.3844 -1.3117  2.2725
  995MOL0     H37257   5.319   3.088   1.571  1.6613  1.7236 -3.3062
  995MOL0     H37258   5.435   2.998   1.467 -0.1083 -2.4796 -1.3510
  995MOL0     H37259   5.040   2.947   1.553  2.7286  0.7513  1.4140
  995MOL0     H37260   4.862   2.809   1.435  1.7674 -1.8777  4.4188
  995MOL0     H37261   4.933   2.653   1.454 -0.5957  0.0311 -0.4688
  995MOL0     H37262   4.951   2.622   1.213  1.7522  1.9181 -2.6218
  995MOL0     H37263   4.788   2.678   1.269  0.3359  1.2468  4.6479
  995MOL0     H37264   4.806   2.870   1.131 -2.2227  0.0277 -5.8491
  995MOL0     H37265   4.967   2.885   1.178  0.9489 -0.3529  0.4115
  995MOL0     H37266   5.034   2.783   0.959 -0.9570 -0.7790 -1.9750
  995MOL0     H37267   4.937   2.645   0.984  0.7181 -1.4222  0.3632
  995MOL0     H37268   4.713   2.606   1.014 -1.5006 -0.0786  0.8633
  995MOL0     H37269   4.434   2.529   1.128  1.5471  1.0274  1.2579
  995MOL0     H37270   4.553   2.439   1.034 -0.6827 -0.6375  1.1779
  995MOL0     H37271   4.389   2.454   0.973 -0.3693 -1.6162  0.5973
  995MOL0     H37272   4.099   2.884   0.618  1.1821 -1.1030 -2.0872
  995MOL0     H37273   3.861   2.881   0.558  0.3643  0.9677  1.9090
  995MOL0     H37274   3.640   2.831   0.483  1.4801  0.1883 -0.3467
  995MOL0     H37275   3.729   2.732   0.357  2.1893 -3.8001  1.1837
  995MOL0     H37276   3.485   2.739   0.340  0.3859 -1.3572 -2.5485
  995MOL0     H37277   3.573   2.581   0.330 -0.1955  1.7198 -1.6593
  995MOL0     H37278   3.503   2.531   0.545  1.1673 -0.0475 -1.9243
  995MOL0     H37279   3.358   2.540   0.455 -1.4878  2.4814  0.2170
  995MOL0     H37280   3.371   2.802   0.531  0.8217 -0.1361 -1.4002
  995MOL0     H37281   3.474   2.732   0.658 -0.9227 -1.1424  1.3897
  995MOL0     H37282   3.318   2.567   0.733 -0.0403  0.0550  1.5333
  995MOL0     H37283   3.274   2.724   0.768  2.5119 -3.4712  1.9938
  995MOL0     H37284   3.164   2.557   0.533  1.6344  1.3575 -0.5707
  995MOL0     H37285   3.127   2.724   0.559  2.0789 -0.0134 -0.8877
  995MOL0     H37286   2.950   2.562   0.668 -1.6676  2.5026  1.9309
  995MOL0     H37287   3.013   2.677   0.779 -1.2283  0.0677 -0.4794
  995MOL0     H37288   2.986   2.439   0.851 -1.1971 -3.5960 -2.2150
  995MOL0     H37289   3.154   2.487   0.877 -0.3802 -1.3678  0.0625
  995MOL0     H37290   3.870   2.453   0.652  1.9977 -1.2984 -2.9176
  995MOL0     H37291   4.089   2.472   0.713 -0.5654  0.9378  0.6387
  995MOL0     H37292   4.454   2.850   0.682 -0.3056  0.2073 -0.6443
  995MOL0     H37293   4.665   2.901   0.716 -1.1186  1.1496  1.1959
  995MOL0     H37294   6.261   2.839   1.785  4.9642 -0.9938  0.1842
  995MOL0     H37295   6.409   2.784   1.628 -1.1734  2.1425  1.5136
  995MOL0     H37296   6.506   2.357   1.361  0.8412 -3.1983 -0.2068
  995MOL0     H37297   6.644   2.259   1.173 -1.6779 -0.8967 -5.5501
  995MOL0     H37298   6.865   2.542   0.969  1.6346  0.5642 -1.9307
  995MOL0     H37299   6.922   2.382   0.964 -1.5959 -1.1781  1.7381
  995MOL0     H37300   6.869   2.381   0.713  2.9023 -0.3074 -0.8813
  995MOL0     H37301   6.963   2.533   0.774 -1.3669 -0.2157  0.9257
  995MOL0     H37302   6.677   2.517   0.701 -0.3101  0.0218  0.8774
  995MOL0     H37303   6.766   2.657   0.772 -4.4493  0.6303 -0.7740
  995MOL0     H37304   6.915   2.552   0.540  1.0900  3.0643 -1.3233
  995MOL0     H37305   6.834   2.709   0.572 -1.6535 -0.0511  1.4513
  995MOL0     H37306   6.580   2.482   0.310  1.7409 -0.9252 -1.6792
  995MOL0     H37307   6.648   2.648   0.976  1.3299  0.4509  0.6553
  995MOL0     H37308   6.540   2.824   1.085 -0.0697 -0.7777 -1.4453
  995MOL0     H37309   6.381   2.762   1.046 -0.8991  1.6634 -0.0018
  995MOL0     H37310   6.408   2.807   1.208 -2.4910 -0.4681 -1.2337
  996MOL0     O37311   5.792   1.408  10.724 -0.2354 -0.2181  0.0498
  996MOL0     C37312   5.836   1.303  10.678 -0.4676  0.2581  0.7175
  996MOL0     O37313   5.910   1.207  10.750  0.3948  0.2304 -0.3617
  996MOL0     C37314   5.933   1.235  10.877  0.1370 -0.7666 -0.1102
  996MOL0     C37315   5.887   1.156  10.980  0.0070 -0.1588  0.2452
  996MOL0     C37316   5.937   1.164  11.106  0.1559  1.1028 -0.3833
  996MOL0     C37317   6.033   1.264  11.138 -0.5883 -0.0652  0.0155
  996MOL0     O37318   6.077   1.259  11.269  0.1836 -0.2876 -1.0325
  996MOL0     C37319   6.108   1.378  11.342 -0.0401  0.1978  0.7539
  996MOL0     C37320   6.152   1.336  11.478 -0.0664  0.5692 -0.1557
  996MOL0     C37321   6.205   1.458  11.562  0.9641  0.6898  0.1908
  996MOL0     C37322   6.199   1.451  11.716 -0.1006 -0.4200  0.3946
  996MOL0     C37323   6.282   1.572  11.768 -0.3334  0.2296 -0.1928
  996MOL0     C37324   6.211   1.711  11.746 -0.3537  0.0720 -0.3427
  996MOL0     C37325   6.295   1.827  11.821  1.0611  0.5690  1.4892
  996MOL0     C37326   6.433   1.842  11.758  0.5880 -0.2051  0.2776
  996MOL0     N37327   6.497   1.961  11.811  0.7207 -0.0574 -0.2268
  996MOL0     C37328   6.533   1.967  11.947 -0.2588 -0.0925 -0.1824
  996MOL0     C37329   6.566   2.092  11.965  0.4550  0.0502 -0.2176
  996MOL0     C37330   6.614   2.135  12.099  0.1538 -0.9424 -0.6121
  996MOL0     C37331   6.510   2.219  12.162  0.8479  1.0731 -0.2359
  996MOL0     C37332   6.375   2.151  12.181  0.0539 -0.0156  0.4598
  996MOL0     C37333   6.368   2.030  12.263  0.4913 -0.7373 -0.2747
  996MOL0     O37334   6.433   2.066  12.389  0.0384 -0.0934 -0.1756
  996MOL0     C37335   6.523   1.980  12.448  1.1623  0.5419  0.1575
  996MOL0     C37336   6.510   1.842  12.450 -0.0269  0.0998  0.3699
  996MOL0     C37337   6.595   1.761  12.528  0.3595  0.3104  0.6771
  996MOL0     C37338   6.555   1.615  12.538 -0.2341  0.1605 -0.6923
  996MOL0     C37339   6.711   1.822  12.588  0.9521  0.1008  0.3699
  996MOL0     C37340   6.811   1.762  12.680  0.3187 -0.0122  0.3938
  996MOL0     O37341   6.944   1.803  12.676 -0.3966  0.4165  0.2121
  996MOL0     C37342   7.049   1.724  12.725 -0.8626 -0.8426 -1.2593
  996MOL0     C37343   7.163   1.793  12.756 -0.1870 -0.3678 -0.7302
  996MOL0     C37344   7.279   1.725  12.801  0.5719 -1.5383 -0.6416
  996MOL0     C37345   7.266   1.592  12.820  0.0574 -1.4230 -0.8834
  996MOL0     O37346   7.376   1.528  12.867 -0.3620  0.1911  0.4627
  996MOL0     C37347   7.435   1.443  12.766 -0.2013  0.5171  0.1560
  996MOL0     C37348   7.573   1.405  12.821  0.9742 -0.0563 -0.4130
  996MOL0     C37349   7.685   1.386  12.714 -0.3434 -0.1367  0.4239
  996MOL0     C37350   7.814   1.456  12.760 -0.2333 -0.4430  0.6492
  996MOL0     C37351   7.914   1.468  12.639 -0.3155 -0.2604 -0.1047
  996MOL0     C37352   8.011   1.591  12.662  0.0797  0.9792  0.3179
  996MOL0     C37353   8.079   1.601  12.801  0.1362  0.9908 -0.4022
  996MOL0     C37354   8.206   1.690  12.810 -0.0785  0.9352 -0.5597
  996MOL0    Cl37355   8.356   1.605  12.760 -0.1281 -0.0984 -0.0938
  996MOL0     C37356   7.146   1.521  12.791 -0.7982  0.0814  0.8468
  996MOL0     C37357   7.037   1.583  12.743 -0.2277 -0.8792 -0.0299
  996MOL0     O37358   6.765   1.690  12.764 -0.0677  0.1062 -0.3693
  996MOL0     C37359   6.738   1.954  12.571  0.7617  0.0798 -0.2181
  996MOL0     C37360   6.644   2.032  12.502 -0.4382  0.6321  0.1900
  996MOL0     N37361   6.550   2.166  11.845 -0.2070  0.2007 -0.2688
  996MOL0     N37362   6.498   2.088  11.757  0.5253  1.1436  0.0534
  996MOL0     C37363   6.073   1.347  11.030 -0.2596 -0.8152  0.3109
  996MOL0     C37364   6.022   1.330  10.902 -0.6128  1.5814 -0.5277
  996MOL0     C37365   5.807   1.269  10.538 -0.1000  0.5631  0.5623
  996MOL0     C37366   5.896   1.168  10.480  1.1278 -0.5875 -0.0383
  996MOL0     C37367   5.897   1.142  10.342  0.8526 -1.1062  0.6076
  996MOL0     C37368   5.787   1.188  10.261 -0.4968  0.1191 -0.1262
  996MOL0     O37369   5.781   1.157  10.132  0.1614  0.4176  0.2187
  996MOL0     C37370   5.667   1.191  10.053  0.8299 -0.7021  1.0195
  996MOL0     C37371   5.665   1.085   9.940 -0.2240 -0.3481  0.1116
  996MOL0     C37372   5.785   1.090   9.848  0.2995 -0.2423  0.8450
  996MOL0     C37373   5.786   0.982   9.741 -0.0223 -0.2518  0.3199
  996MOL0     C37374   5.809   1.021   9.597 -0.2109 -0.1696 -0.3658
  996MOL0     C37375   5.839   1.045   9.481 -0.6145 -0.1082  0.3240
  996MOL0     C37376   5.691   1.270  10.318  0.7722  0.6621 -0.4786
  996MOL0     C37377   5.709   1.322  10.454 -1.0353 -0.0866 -0.4824
  996MOL0     C37378   5.607   1.420  10.506 -0.0666 -0.5051  0.3011
  996MOL0     H37379   5.817   1.078  10.952 -1.5052  1.4651 -0.7507
  996MOL0     H37380   5.914   1.097  11.188  1.5300  2.6839  1.3859
  996MOL0     H37381   6.017   1.439  11.338 -1.0405 -1.3137 -2.0691
  996MOL0     H37382   6.196   1.430  11.302  1.1552 -1.4985  1.0819
  996MOL0     H37383   6.079   1.287  11.543  1.5393 -0.7440  0.7433
  996MOL0     H37384   6.226   1.255  11.474 -0.4705  0.1144  1.2322
  996MOL0     H37385   6.307   1.477  11.529  2.1898 -4.2889  0.2864
  996MOL0     H37386   6.142   1.543  11.535 -1.0917 -1.2500 -1.5554
  996MOL0     H37387   6.093   1.447  11.740  0.0947 -1.3736  1.1520
  996MOL0     H37388   6.246   1.367  11.768 -0.4121 -1.5471 -1.0976
  996MOL0     H37389   6.383   1.571  11.727 -0.3898  0.8625 -0.3551
  996MOL0     H37390   6.295   1.563  11.876  2.2860 -1.5639 -0.5799
  996MOL0     H37391   6.210   1.726  11.638  3.8772  1.2894 -0.3848
  996MOL0     H37392   6.108   1.714  11.784  0.1262 -1.8307  1.3122
  996MOL0     H37393   6.308   1.807  11.927  0.8265  1.4906  1.6986
  996MOL0     H37394   6.239   1.919  11.805  1.3338  0.4926 -0.0994
  996MOL0     H37395   6.487   1.748  11.773 -2.3248 -2.0386  0.1011
  996MOL0     H37396   6.419   1.850  11.650  1.8431  1.3912  0.2052
  996MOL0     H37397   6.533   1.883  12.014 -2.3730 -0.5520 -0.6636
  996MOL0     H37398   6.697   2.204  12.084 -0.5209  0.1776  0.6044
  996MOL0     H37399   6.655   2.055  12.161  2.7431  1.0946  0.4615
  996MOL0     H37400   6.549   2.253  12.258  2.3022 -0.0731 -0.3857
  996MOL0     H37401   6.496   2.305  12.096  2.6651  1.1454 -0.5798
  996MOL0     H37402   6.306   2.221  12.227  0.7104  0.6045  0.5160
  996MOL0     H37403   6.329   2.118  12.087 -0.9020  0.3050  0.8090
  996MOL0     H37404   6.262   2.012  12.281  0.3144  2.5269  3.0638
  996MOL0     H37405   6.416   1.951  12.204 -0.0985 -0.0546 -1.6889
  996MOL0     H37406   6.429   1.794  12.395  1.3482 -2.6194  0.5489
  996MOL0     H37407   6.639   1.550  12.511 -0.1423 -0.2447  0.4874
  996MOL0     H37408   6.467   1.587  12.478  0.0549 -1.4140 -0.4322
  996MOL0     H37409   6.529   1.580  12.639 -1.5227 -3.2195 -2.0389
  996MOL0     H37410   7.176   1.900  12.739  1.3920 -0.2448  0.8885
  996MOL0     H37411   7.363   1.783  12.836  0.3707 -2.5819  1.8287
  996MOL0     H37412   7.382   1.348  12.754  2.6161 -0.8474 -3.0517
  996MOL0     H37413   7.446   1.498  12.672  1.6588 -1.2389 -0.7348
  996MOL0     H37414   7.615   1.483  12.886  3.5650 -0.1251 -1.8734
  996MOL0     H37415   7.567   1.318  12.886  3.4442  1.2292  1.7305
  996MOL0     H37416   7.653   1.444  12.627 -1.1730  2.2446  2.2458
  996MOL0     H37417   7.707   1.281  12.688  3.2774  0.9484 -1.7607
  996MOL0     H37418   7.862   1.423  12.852  1.6491  0.8839  0.1998
  996MOL0     H37419   7.785   1.559  12.784  2.1660  0.3452  0.4138
  996MOL0     H37420   7.961   1.369  12.637 -1.1953 -0.7299  0.9938
  996MOL0     H37421   7.864   1.484  12.543 -0.9901  1.5169  0.5025
  996MOL0     H37422   7.948   1.680  12.646 -1.2478 -0.1505 -1.1272
  996MOL0     H37423   8.095   1.586  12.591  2.6830  1.5698  3.1546
  996MOL0     H37424   8.099   1.499  12.836 -0.5109  1.1131  0.3596
  996MOL0     H37425   8.008   1.643  12.873  2.6410  3.6242  0.7386
  996MOL0     H37426   8.225   1.715  12.914  1.2074 -0.7645 -0.3471
  996MOL0     H37427   8.196   1.777  12.745  0.2626 -0.9930 -3.4262
  996MOL0     H37428   7.137   1.414  12.805  0.3509  0.2688  3.6471
  996MOL0     H37429   6.945   1.540  12.704 -2.0490  0.4486  2.5024
  996MOL0     H37430   6.827   1.998  12.615  0.9627  0.3716 -0.9025
  996MOL0     H37431   6.651   2.140  12.497  0.5271  0.5545 -0.2649
  996MOL0     H37432   6.158   1.411  11.054  1.1264 -2.3739 -0.2488
  996MOL0     H37433   6.056   1.388  10.817 -0.3140  1.5649 -0.4205
  996MOL0     H37434   5.971   1.118  10.541 -0.8514 -0.4725  2.6667
  996MOL0     H37435   5.973   1.077  10.300  1.9451  0.0179  0.7725
  996MOL0     H37436   5.568   1.188  10.101 -2.5968  2.8893 -4.5945
  996MOL0     H37437   5.681   1.291  10.010 -1.4079 -0.3263  1.0079
  996MOL0     H37438   5.574   1.077   9.880  0.6830 -0.8088 -1.2415
  996MOL0     H37439   5.677   0.989   9.992  0.4060 -1.5662 -2.1338
  996MOL0     H37440   5.773   1.183   9.791 -0.7355  0.1645  1.6982
  996MOL0     H37441   5.881   1.083   9.900 -0.2814 -2.0446  1.7364
  996MOL0     H37442   5.686   0.938   9.739 -0.2911  0.2083 -3.0944
  996MOL0     H37443   5.853   0.905   9.777  0.6776  0.2829  0.1846
  996MOL0     H37444   5.846   1.073   9.378 -2.5682  0.5769  0.3361
  996MOL0     H37445   5.601   1.310  10.273  0.6783  0.4550 -0.4766
  996MOL0     H37446   5.581   1.390  10.608 -1.3801 -1.4014 -0.2668
  996MOL0     H37447   5.637   1.525  10.493  0.3453 -0.8234 -1.7517
  996MOL0     H37448   5.514   1.406  10.449  2.2008 -0.7277 -3.7363
  997MOL0     O37449   4.059   8.073   8.323  0.1834 -0.7900  0.2254
  997MOL0     C37450   4.049   8.197   8.301 -0.0813  0.0813 -0.3120
  997MOL0     O37451   4.038   8.293   8.395  0.0372 -0.4417 -0.4309
  997MOL0     C37452   4.024   8.244   8.530 -0.7600  0.2954 -0.0581
  997MOL0     C37453   3.894   8.212   8.575  0.2863  0.6792 -0.3995
  997MOL0     C37454   3.871   8.169   8.713  0.1051 -0.2414  0.4580
  997MOL0     C37455   3.991   8.148   8.781  0.2180 -0.4361 -0.3473
  997MOL0     O37456   3.992   8.105   8.912 -0.4857 -0.5371  0.5559
  997MOL0     C37457   4.024   7.969   8.933 -0.1976 -0.0993 -0.4789
  997MOL0     C37458   3.914   7.874   8.871  0.3736  1.0649  0.2381
  997MOL0     C37459   3.944   7.727   8.853 -0.8186 -0.3971 -0.7242
  997MOL0     C37460   3.981   7.663   8.983  0.1506 -0.5844 -0.5328
  997MOL0     C37461   4.009   7.518   8.952  0.9949 -0.1283  0.1845
  997MOL0     C37462   4.074   7.447   9.066  0.4525  0.3681 -0.4065
  997MOL0     C37463   4.100   7.295   9.046  0.2869  0.1475 -1.0904
  997MOL0     C37464   4.196   7.246   8.936 -0.2126  0.0289  0.0782
  997MOL0     N37465   4.324   7.317   8.931  0.1473  0.2445 -0.1969
  997MOL0     C37466   4.352   7.441   8.879  0.0505 -0.6694  1.0128
  997MOL0     C37467   4.474   7.459   8.917  0.0624 -0.4237 -0.1032
  997MOL0     C37468   4.536   7.599   8.893  0.8049 -0.0706 -0.3415
  997MOL0     C37469   4.518   7.689   9.012  0.0448 -0.2912  0.0080
  997MOL0     C37470   4.605   7.649   9.136 -0.3336 -0.4154  0.4200
  997MOL0     C37471   4.621   7.775   9.216 -0.2925 -0.3196 -0.0585
  997MOL0     O37472   4.711   7.855   9.144  0.2878 -0.9843  0.5642
  997MOL0     C37473   4.797   7.945   9.208 -0.0861  0.4751 -0.8543
  997MOL0     C37474   4.863   8.047   9.140  1.0111 -0.3112 -0.1113
  997MOL0     C37475   4.926   8.145   9.203  0.1836 -0.3930  0.2025
  997MOL0     C37476   4.970   8.258   9.112 -0.1567 -0.0081 -0.3660
  997MOL0     C37477   4.936   8.146   9.341 -0.2470  0.7469 -0.5347
  997MOL0     C37478   4.979   8.259   9.425 -0.4219  0.3963  0.4690
  997MOL0     O37479   4.996   8.388   9.367 -0.6826  0.4359 -0.4653
  997MOL0     C37480   5.060   8.500   9.426  0.2945  1.2295 -0.2346
  997MOL0     C37481   5.120   8.506   9.554 -0.0841 -0.8116 -0.3483
  997MOL0     C37482   5.150   8.623   9.613  0.0846 -0.2360 -0.4593
  997MOL0     C37483   5.115   8.736   9.550 -1.1124  0.7696  0.1437
  997MOL0     O37484   5.150   8.846   9.613 -0.1973  0.4301  0.2926
  997MOL0     C37485   5.061   8.953   9.597  0.3023 -0.3842  0.0441
  997MOL0     C37486   5.131   9.057   9.688 -0.6360  0.7542  0.5500
  997MOL0     C37487   5.044   9.159   9.762  0.0167  0.6191 -0.0639
  997MOL0     C37488   4.936   9.223   9.668  0.1203 -0.3260  0.0231
  997MOL0     C37489   4.814   9.285   9.745 -0.4698 -0.1656 -0.0975
  997MOL0     C37490   4.707   9.172   9.758  0.0494  0.6239 -0.2566
  997MOL0     C37491   4.590   9.223   9.849  0.1078 -0.0529  0.0867
  997MOL0     C37492   4.531   9.106   9.910 -0.3568  0.0678 -0.3350
  997MOL0    Cl37493   4.426   9.168  10.028 -0.1306  0.0982 -0.5484
  997MOL0     C37494   5.066   8.739   9.421  0.5518  0.2996  0.6182
  997MOL0     C37495   5.036   8.611   9.360  0.2626  0.3156  0.4116
  997MOL0     O37496   4.975   8.245   9.542  0.6596 -0.2665 -0.2748
  997MOL0     C37497   4.896   8.027   9.413 -0.2375  0.0480  0.4293
  997MOL0     C37498   4.839   7.923   9.343 -0.5439  0.4948 -1.0644
  997MOL0     N37499   4.531   7.346   8.978 -0.1369  0.1784 -0.8938
  997MOL0     N37500   4.428   7.264   8.993  0.0311  0.2369 -0.2791
  997MOL0     C37501   4.119   8.175   8.734 -0.2628 -0.1329 -0.7076
  997MOL0     C37502   4.139   8.220   8.609 -0.4629 -0.1988  0.2704
  997MOL0     C37503   4.041   8.231   8.158 -1.1495 -1.0186 -0.2106
  997MOL0     C37504   4.072   8.136   8.058  0.3786  0.6819  0.8662
  997MOL0     C37505   4.070   8.166   7.919 -1.0938  0.5423  0.6347
  997MOL0     C37506   4.043   8.296   7.875  0.0185  1.5778  0.4505
  997MOL0     O37507   4.019   8.321   7.736 -0.7741 -0.2389  0.2255
  997MOL0     C37508   4.039   8.218   7.642  0.3068  0.2533  0.0148
  997MOL0     C37509   4.012   8.258   7.497  0.2708 -0.6071 -0.6682
  997MOL0     C37510   4.037   8.146   7.394  0.9128 -0.1346 -0.1179
  997MOL0     C37511   3.998   8.192   7.259 -0.4128  0.1009  0.4644
  997MOL0     C37512   3.876   8.272   7.240  0.1588 -0.2082 -0.1651
  997MOL0     C37513   3.775   8.332   7.214 -0.7395  0.4483 -0.0329
  997MOL0     C37514   4.009   8.384   7.975 -1.0180  0.4926  0.0355
  997MOL0     C37515   4.011   8.367   8.117  0.4432 -0.7402  1.1681
  997MOL0     C37516   3.968   8.483   8.205  0.1919 -0.7277  0.0272
  997MOL0     H37517   3.811   8.225   8.506 -1.4085 -4.6237  0.2022
  997MOL0     H37518   3.774   8.151   8.759  0.2296  0.7406  1.1266
  997MOL0     H37519   4.037   7.949   9.040  3.1711  0.3390 -0.7002
  997MOL0     H37520   4.120   7.951   8.884  0.0976 -1.2869  0.5004
  997MOL0     H37521   3.822   7.869   8.931 -0.0301 -3.8861 -0.3299
  997MOL0     H37522   3.888   7.911   8.771 -3.9357 -0.6936  0.4590
  997MOL0     H37523   3.860   7.670   8.813 -0.0433 -1.5130 -0.7975
  997MOL0     H37524   4.028   7.721   8.784 -0.6533  3.0502 -1.0041
  997MOL0     H37525   4.061   7.712   9.040 -2.1252 -1.0480  3.5034
  997MOL0     H37526   3.899   7.672   9.055 -0.0573 -1.5176 -0.6497
  997MOL0     H37527   4.073   7.515   8.864  2.2054 -2.7982  1.0399
  997MOL0     H37528   3.916   7.475   8.912 -0.2866  2.9527 -0.3840
  997MOL0     H37529   4.172   7.487   9.094  0.6884 -1.8760  2.4443
  997MOL0     H37530   4.005   7.445   9.151  0.4442 -4.7146 -0.2058
  997MOL0     H37531   4.004   7.244   9.031  1.6555 -2.4286 -1.7826
  997MOL0     H37532   4.136   7.257   9.141 -0.8068  0.8410 -0.3728
  997MOL0     H37533   4.207   7.138   8.952  2.3314  0.4837  2.0010
  997MOL0     H37534   4.144   7.266   8.842 -1.1168 -0.8238  0.3733
  997MOL0     H37535   4.285   7.509   8.827  0.1521  0.2762  2.0763
  997MOL0     H37536   4.477   7.644   8.813 -0.5420  1.3846  1.3908
  997MOL0     H37537   4.640   7.596   8.860  1.0365 -0.9550  0.4367
  997MOL0     H37538   4.542   7.790   8.979  0.3544 -0.5697 -0.6433
  997MOL0     H37539   4.412   7.687   9.038 -0.4487  1.0562 -1.7053
  997MOL0     H37540   4.556   7.578   9.205 -0.8038  0.3090  0.8456
  997MOL0     H37541   4.698   7.596   9.114  1.5185  1.5971  2.7688
  997MOL0     H37542   4.527   7.829   9.228  1.0154  2.0470  0.0468
  997MOL0     H37543   4.655   7.743   9.315 -0.2795 -0.6615 -0.1715
  997MOL0     H37544   4.845   8.051   9.033  3.2258 -1.5031 -0.5849
  997MOL0     H37545   5.072   8.286   9.139 -1.2727  1.1251  3.2431
  997MOL0     H37546   4.911   8.348   9.130  0.8147  0.7887 -1.1125
  997MOL0     H37547   4.965   8.232   9.006 -0.5188 -1.0785 -0.1010
  997MOL0     H37548   5.134   8.420   9.618 -2.7954 -0.9001  0.2250
  997MOL0     H37549   5.189   8.625   9.715  0.1867 -0.4979 -0.4935
  997MOL0     H37550   5.042   8.987   9.494  0.5262 -1.8398 -0.4928
  997MOL0     H37551   4.959   8.946   9.634 -0.1861 -0.7524 -1.3202
  997MOL0     H37552   5.175   9.011   9.776 -1.1277 -0.8315 -0.0112
  997MOL0     H37553   5.199   9.115   9.624 -2.8799  0.2234 -2.5467
  997MOL0     H37554   5.094   9.245   9.807  2.1160 -1.0363  1.0286
  997MOL0     H37555   4.982   9.111   9.839  0.3254  2.5345  1.4445
  997MOL0     H37556   4.910   9.147   9.594  0.0722 -2.2742  1.9361
  997MOL0     H37557   4.995   9.293   9.609  3.1627  0.0702  3.1778
  997MOL0     H37558   4.847   9.319   9.843 -1.5002  0.5501  0.0117
  997MOL0     H37559   4.778   9.376   9.696  3.2496  2.8724  2.2475
  997MOL0     H37560   4.753   9.083   9.802  0.2326 -0.9558 -3.3812
  997MOL0     H37561   4.663   9.146   9.661 -0.5548  1.4181 -0.2058
  997MOL0     H37562   4.526   9.280   9.781 -1.0145  1.6898  2.4669
  997MOL0     H37563   4.630   9.295   9.922  1.9971  3.0523 -3.6367
  997MOL0     H37564   4.607   9.044   9.958 -0.2954 -0.2681 -0.8597
  997MOL0     H37565   4.476   9.048   9.834 -0.6911  0.8017 -0.6605
  997MOL0     H37566   5.055   8.821   9.351  1.0925  1.7344  2.1633
  997MOL0     H37567   5.002   8.599   9.257 -1.0737  0.5170  0.8106
  997MOL0     H37568   4.903   8.016   9.521  1.6842  0.4024  0.3814
  997MOL0     H37569   4.813   7.831   9.395 -0.0714  0.6430 -0.5420
  997MOL0     H37570   4.206   8.151   8.794  0.9679 -1.7864 -2.9773
  997MOL0     H37571   4.236   8.248   8.568 -1.3223  2.6304 -0.0769
  997MOL0     H37572   4.083   8.032   8.087 -0.7525  0.8220  1.8176
  997MOL0     H37573   4.073   8.075   7.859 -0.5133  1.7507 -1.2364
  997MOL0     H37574   4.134   8.168   7.662 -0.8644 -1.7681  0.7889
  997MOL0     H37575   3.962   8.144   7.662  0.5489  0.6543  2.8634
  997MOL0     H37576   4.072   8.344   7.464 -1.4194  0.6640 -0.5685
  997MOL0     H37577   3.910   8.295   7.494 -0.2597 -1.8338  0.9791
  997MOL0     H37578   4.145   8.130   7.385  0.5427 -3.3801 -0.0738
  997MOL0     H37579   3.979   8.058   7.424 -0.0723  0.8936  1.0944
  997MOL0     H37580   3.985   8.105   7.194  2.3072 -0.7647  0.9758
  997MOL0     H37581   4.084   8.250   7.223 -0.6987 -0.2931 -0.8981
  997MOL0     H37582   3.696   8.397   7.184  0.0708  0.3196 -2.6805
  997MOL0     H37583   3.989   8.481   7.930  3.4037  1.8024  0.3185
  997MOL0     H37584   3.879   8.460   8.265  1.0439  2.8661  3.0670
  997MOL0     H37585   4.048   8.504   8.276 -2.3466 -1.4385  3.3466
  997MOL0     H37586   3.949   8.575   8.148 -1.1508 -0.1312  1.3852
  998MOL0     O37587   1.352   5.771   4.580  0.1172 -0.3125 -0.4567
  998MOL0     C37588   1.389   5.844   4.488  0.0407  0.1012 -0.2759
  998MOL0     O37589   1.496   5.925   4.491 -0.7011 -0.7186 -0.7346
  998MOL0     C37590   1.560   5.967   4.607  1.1251  0.2950  0.5107
  998MOL0     C37591   1.697   5.982   4.619 -0.9134 -0.4016  0.0049
  998MOL0     C37592   1.757   6.038   4.733  0.3739 -0.0490  0.2489
  998MOL0     C37593   1.682   6.079   4.839  0.0841 -0.1613  0.2227
  998MOL0     O37594   1.741   6.152   4.946 -0.0614 -0.1915  0.2425
  998MOL0     C37595   1.733   6.295   4.938  0.6829 -0.1653 -0.7380
  998MOL0     C37596   1.860   6.355   4.991  0.1828  0.5490 -0.6276
  998MOL0     C37597   1.867   6.502   5.042 -0.1808 -0.7763  0.6005
  998MOL0     C37598   1.905   6.601   4.916 -0.1451 -0.0037  0.2500
  998MOL0     C37599   1.851   6.752   4.930 -0.2055  0.3033  1.1673
  998MOL0     C37600   1.697   6.757   4.923 -0.5941  0.3643  0.5666
  998MOL0     C37601   1.646   6.903   4.918  1.2172  0.1369 -0.0144
  998MOL0     C37602   1.497   6.907   4.958 -0.1094 -0.3154 -0.3680
  998MOL0     N37603   1.454   7.044   5.005 -0.2595 -0.0653  0.1759
  998MOL0     C37604   1.333   7.097   4.961 -0.5206 -0.4715  0.3047
  998MOL0     C37605   1.339   7.232   4.983  0.2118 -0.0551  0.4187
  998MOL0     C37606   1.227   7.331   4.968 -0.2553  1.2801 -0.3307
  998MOL0     C37607   1.098   7.314   5.038  0.7760  0.5632 -0.7454
  998MOL0     C37608   1.118   7.341   5.194 -0.0185 -0.1856  0.2064
  998MOL0     C37609   0.986   7.331   5.256  0.6879  0.4939 -0.2986
  998MOL0     O37610   1.010   7.259   5.382 -0.1724 -0.1582 -0.2155
  998MOL0     C37611   0.897   7.276   5.459 -0.8832  0.3735  0.2799
  998MOL0     C37612   0.897   7.384   5.543 -0.1342 -0.2445 -0.7267
  998MOL0     C37613   0.795   7.419   5.630  0.1681  0.3327  0.8310
  998MOL0     C37614   0.817   7.526   5.727  0.3251 -1.2020  0.5532
  998MOL0     C37615   0.673   7.341   5.618  0.1476  0.0016  0.4682
  998MOL0     C37616   0.551   7.356   5.702  0.6561  0.2106  0.0058
  998MOL0     O37617   0.442   7.301   5.654 -0.6396  0.5536 -0.6580
  998MOL0     C37618   0.309   7.318   5.695  0.1252  0.4571  0.0872
  998MOL0     C37619   0.267   7.394   5.806 -0.2814  0.2886 -0.7872
  998MOL0     C37620   0.133   7.406   5.841  0.1503  0.2796  0.4852
  998MOL0     C37621   0.031   7.353   5.760 -0.0207  0.8584 -1.0902
  998MOL0     O37622  -0.098   7.367   5.797 -0.3252  0.2809 -0.0209
  998MOL0     C37623  -0.139   7.429   5.920 -0.0064  0.1158  0.4727
  998MOL0     C37624  -0.291   7.399   5.947  0.3737  1.0756 -0.0036
  998MOL0     C37625  -0.326   7.248   5.920  0.2591  0.3640 -0.5483
  998MOL0     C37626  -0.455   7.220   5.998 -0.6959  0.3898 -0.0755
  998MOL0     C37627  -0.514   7.086   5.959 -0.4533 -1.0742 -0.8541
  998MOL0     C37628  -0.576   7.068   5.819  0.1376 -0.1936 -0.2956
  998MOL0     C37629  -0.681   6.960   5.843 -1.0727  0.0623 -0.6319
  998MOL0     C37630  -0.733   6.882   5.714 -0.4659 -0.1305 -0.4291
  998MOL0    Cl37631  -0.863   6.797   5.772 -0.3535 -0.0824  0.7259
  998MOL0     C37632   0.073   7.269   5.658 -0.3303 -1.2154 -0.2304
  998MOL0     C37633   0.207   7.257   5.623  0.4459 -0.1308  0.6312
  998MOL0     O37634   0.561   7.408   5.814 -0.4953  0.0457  0.2606
  998MOL0     C37635   0.672   7.229   5.537 -0.1670  0.7278  0.1816
  998MOL0     C37636   0.777   7.194   5.457 -0.2598 -0.0077 -0.2803
  998MOL0     N37637   1.467   7.257   5.036  0.0787 -0.0431  0.7615
  998MOL0     N37638   1.533   7.146   5.054  0.1945 -0.3710  0.3506
  998MOL0     C37639   1.547   6.053   4.837 -0.5426 -0.2638 -0.7920
  998MOL0     C37640   1.478   6.000   4.719 -0.4226  0.9796  0.0748
  998MOL0     C37641   1.332   5.835   4.358  0.3156 -0.4278 -0.7269
  998MOL0     C37642   1.415   5.827   4.251  0.0901 -0.4581  0.3926
  998MOL0     C37643   1.371   5.811   4.122  0.2617 -0.3983 -0.0576
  998MOL0     C37644   1.232   5.798   4.097  0.9742 -0.0944  0.1474
  998MOL0     O37645   1.175   5.792   3.971  0.4662 -0.5008 -0.3905
  998MOL0     C37646   1.254   5.735   3.863  0.6479  0.6236  0.5520
  998MOL0     C37647   1.266   5.584   3.892  0.1807 -0.6997 -0.1728
  998MOL0     C37648   1.136   5.519   3.914  0.2529 -1.0587  0.0534
  998MOL0     C37649   1.135   5.371   3.881 -0.2330  0.5314  0.4212
  998MOL0     C37650   1.186   5.338   3.746  0.3583  0.3264 -1.1347
  998MOL0     C37651   1.248   5.327   3.641 -0.2750 -1.6296  0.4183
  998MOL0     C37652   1.146   5.808   4.206 -1.4781  0.0133  0.4586
  998MOL0     C37653   1.192   5.830   4.331 -0.5060  0.1519 -0.2944
  998MOL0     C37654   1.089   5.873   4.434  0.5023  0.5134  0.8328
  998MOL0     H37655   1.747   5.963   4.524 -3.5310 -1.9157 -1.1819
  998MOL0     H37656   1.858   6.075   4.739  0.2418  0.2887  0.4133
  998MOL0     H37657   1.659   6.323   5.013  3.1360  2.1450  1.0351
  998MOL0     H37658   1.706   6.327   4.837 -0.4387  1.0933 -0.0692
  998MOL0     H37659   1.890   6.288   5.072  1.2499  1.8120  0.0608
  998MOL0     H37660   1.928   6.333   4.907  1.4887 -3.1450  1.1971
  998MOL0     H37661   1.769   6.529   5.083 -0.0677 -2.5156  2.1233
  998MOL0     H37662   1.937   6.514   5.125 -0.3053  3.3164  0.3380
  998MOL0     H37663   2.013   6.600   4.898 -0.0828 -0.8514  0.5911
  998MOL0     H37664   1.861   6.567   4.822  1.7768  0.8806 -1.0375
  998MOL0     H37665   1.894   6.820   4.856  4.6713 -1.1327  2.2773
  998MOL0     H37666   1.876   6.797   5.027 -0.3809  0.5279  1.1087
  998MOL0     H37667   1.664   6.693   4.842  0.8630 -0.3470  0.4994
  998MOL0     H37668   1.658   6.718   5.018 -1.6843 -1.4237 -0.5677
  998MOL0     H37669   1.655   6.972   4.833 -0.0635  1.0563  0.5727
  998MOL0     H37670   1.694   6.945   5.007 -0.0318  0.6393  0.4357
  998MOL0     H37671   1.437   6.885   4.869  0.1269 -1.2540 -0.3070
  998MOL0     H37672   1.486   6.834   5.038  2.1169 -0.0674  0.2403
  998MOL0     H37673   1.248   7.055   4.908 -2.3381  1.6342  1.4201
  998MOL0     H37674   1.200   7.344   4.862  1.0285 -1.8951 -1.1670
  998MOL0     H37675   1.264   7.432   4.989  0.3983  1.1332 -0.7445
  998MOL0     H37676   1.027   7.390   5.004 -1.5230 -0.9458  0.4239
  998MOL0     H37677   1.049   7.218   5.026  0.6536  0.5675 -0.3233
  998MOL0     H37678   1.181   7.263   5.239  0.4546 -0.5976 -1.1245
  998MOL0     H37679   1.164   7.436   5.224 -0.8370 -0.0951  1.2283
  998MOL0     H37680   0.931   7.425   5.267 -0.8439 -0.5585  1.7456
  998MOL0     H37681   0.913   7.268   5.205  0.3043 -1.8878  2.8907
  998MOL0     H37682   0.980   7.453   5.530 -2.2586  2.8833  0.6989
  998MOL0     H37683   0.834   7.491   5.829  0.6777 -2.9098 -0.0681
  998MOL0     H37684   0.724   7.585   5.724  0.2362 -1.3227  0.8282
  998MOL0     H37685   0.909   7.583   5.711  1.3715 -2.7191  0.9747
  998MOL0     H37686   0.329   7.442   5.881 -0.2243  1.5465 -1.5995
  998MOL0     H37687   0.104   7.465   5.928 -3.2425  0.0238 -0.3256
  998MOL0     H37688  -0.072   7.399   6.002  2.3128  1.7916 -0.7158
  998MOL0     H37689  -0.138   7.538   5.919 -0.7652  0.1311  0.7185
  998MOL0     H37690  -0.310   7.416   6.053  4.3406  0.3109  0.9780
  998MOL0     H37691  -0.347   7.455   5.871  1.2910  0.7676 -0.9259
  998MOL0     H37692  -0.247   7.198   5.976 -1.8823 -0.7398  1.6305
  998MOL0     H37693  -0.346   7.226   5.814 -0.3024  1.7074 -0.7512
  998MOL0     H37694  -0.519   7.302   5.962  1.6334  2.6959  0.6934
  998MOL0     H37695  -0.453   7.224   6.107  1.1073 -3.9577  0.2437
  998MOL0     H37696  -0.440   7.006   5.969  0.2595 -0.3466 -0.2353
  998MOL0     H37697  -0.584   7.077   6.042  1.6997  0.3687  1.2272
  998MOL0     H37698  -0.515   7.037   5.734 -2.9442 -3.5008 -1.6027
  998MOL0     H37699  -0.612   7.167   5.788  1.8610  0.2127 -1.1119
  998MOL0     H37700  -0.767   7.016   5.881 -2.2535 -2.0915  0.0402
  998MOL0     H37701  -0.658   6.882   5.916 -0.7615  1.6682  1.0652
  998MOL0     H37702  -0.659   6.814   5.669 -0.5119 -0.3315 -0.1976
  998MOL0     H37703  -0.765   6.957   5.641  0.2988  2.7190  1.9869
  998MOL0     H37704  -0.001   7.224   5.593 -1.6333 -3.5113  2.6011
  998MOL0     H37705   0.230   7.203   5.532 -1.9991  0.9991 -0.7637
  998MOL0     H37706   0.584   7.165   5.540 -1.0631  1.8225 -1.1675
  998MOL0     H37707   0.767   7.113   5.386 -0.7007  0.1236 -0.3723
  998MOL0     H37708   1.486   6.089   4.919  1.2213  2.2226 -0.4715
  998MOL0     H37709   1.370   5.999   4.717 -0.5309 -1.1568 -3.8822
  998MOL0     H37710   1.518   5.861   4.263  0.9716 -1.6132 -2.9125
  998MOL0     H37711   1.451   5.807   4.049 -0.5001  1.6973 -1.0833
  998MOL0     H37712   1.196   5.760   3.774 -2.0846 -1.3081  1.6427
  998MOL0     H37713   1.346   5.793   3.863  0.9420  0.1869 -1.0762
  998MOL0     H37714   1.323   5.575   3.985  0.0298  2.5624  0.3536
  998MOL0     H37715   1.314   5.542   3.804 -0.9807 -2.9299  0.1859
  998MOL0     H37716   1.106   5.545   4.016  0.7664  0.2769 -0.1130
  998MOL0     H37717   1.068   5.573   3.848  1.4054 -1.4008 -1.4639
  998MOL0     H37718   1.032   5.336   3.877  0.0960 -0.6483  1.6415
  998MOL0     H37719   1.188   5.320   3.961 -0.8324 -0.5580  0.1406
  998MOL0     H37720   1.284   5.331   3.540 -0.9345 -1.6915  0.1809
  998MOL0     H37721   1.041   5.809   4.179 -1.0325 -2.7602 -1.9160
  998MOL0     H37722   1.060   5.785   4.491 -1.1542 -0.2107 -1.0001
  998MOL0     H37723   1.130   5.947   4.504  1.7730  1.1698 -0.5489
  998MOL0     H37724   0.998   5.913   4.389  1.3999 -1.3183 -2.9986
  999MOL0     O37725   0.375   9.054   4.816 -0.7926 -0.7733 -0.6489
  999MOL0     C37726   0.420   8.938   4.846  0.0467 -0.2666 -0.2226
  999MOL0     O37727   0.468   8.899   4.967 -0.1087 -0.7851 -0.1974
  999MOL0     C37728   0.434   8.985   5.072  0.2745 -1.1665 -0.1658
  999MOL0     C37729   0.509   9.103   5.088 -0.1461 -1.0015  0.1639
  999MOL0     C37730   0.470   9.206   5.181  0.1574  0.6880 -0.3378
  999MOL0     C37731   0.359   9.177   5.262  0.0799  0.5098  0.5577
  999MOL0     O37732   0.324   9.273   5.353  0.3865 -0.1334 -0.0710
  999MOL0     C37733   0.250   9.386   5.304  0.4063  0.2356  0.5508
  999MOL0     C37734   0.125   9.408   5.377  0.4843  0.2719  0.1495
  999MOL0     C37735   0.155   9.476   5.515  1.1346 -0.6750  0.1392
  999MOL0     C37736   0.025   9.525   5.575 -0.0179  0.3534  0.0640
  999MOL0     C37737   0.055   9.588   5.714  0.1648 -0.4137  0.8366
  999MOL0     C37738  -0.074   9.653   5.765  0.6692  0.0306 -0.4123
  999MOL0     C37739  -0.053   9.733   5.897  0.6063  0.7184  0.3240
  999MOL0     C37740  -0.180   9.773   5.971  0.0150 -0.8243 -0.3522
  999MOL0     N37741  -0.255   9.871   5.901  1.1301 -0.2074  0.8728
  999MOL0     C37742  -0.291   9.993   5.948  0.2880 -0.1793 -0.1295
  999MOL0     C37743  -0.399  10.029   5.880 -0.8492 -0.3021 -0.0932
  999MOL0     C37744  -0.483  10.151   5.903  0.5797 -0.2874 -0.8098
  999MOL0     C37745  -0.537  10.169   6.043  0.1016  0.4824 -0.3478
  999MOL0     C37746  -0.611  10.306   6.054  0.0254 -0.2207  0.5899
  999MOL0     C37747  -0.732  10.309   5.961 -0.6779  0.3561 -0.7082
  999MOL0     O37748  -0.809  10.417   6.007 -0.7290 -0.7279 -0.1774
  999MOL0     C37749  -0.931  10.432   5.944  0.4220  0.5251  0.3010
  999MOL0     C37750  -1.009  10.525   6.003 -0.6208 -0.4132 -0.8118
  999MOL0     C37751  -1.137  10.550   5.958  0.0099 -0.1715  0.9147
  999MOL0     C37752  -1.217  10.649   6.032 -0.4965  0.5168 -0.1389
  999MOL0     C37753  -1.198  10.481   5.853  0.5668  0.1387 -0.4367
  999MOL0     C37754  -1.340  10.499   5.798 -0.0551  0.8321 -0.6194
  999MOL0     O37755  -1.384  10.401   5.705 -0.1202 -0.7899 -0.0272
  999MOL0     C37756  -1.508  10.425   5.650  0.2638 -0.2882 -0.4778
  999MOL0     C37757  -1.512  10.477   5.523  0.2975  0.3142  0.1238
  999MOL0     C37758  -1.632  10.540   5.480 -0.4150 -0.2048  0.4177
  999MOL0     C37759  -1.752  10.529   5.548  0.3945  0.9356 -0.3417
  999MOL0     O37760  -1.859  10.581   5.498  0.3558  0.4408 -0.9486
  999MOL0     C37761  -1.921  10.691   5.562  0.1081 -0.1317 -0.8628
  999MOL0     C37762  -1.860  10.827   5.525  0.3025 -1.1608 -0.7353
  999MOL0     C37763  -1.875  10.930   5.643  0.0448  0.3130  0.4406
  999MOL0     C37764  -2.022  10.975   5.664  0.1351 -0.9133 -0.1477
  999MOL0     C37765  -2.027  11.100   5.747  0.3152  0.3623  0.3109
  999MOL0     C37766  -2.171  11.126   5.780 -0.2126 -0.0764 -0.1072
  999MOL0     C37767  -2.186  11.248   5.866  1.0124 -0.6948  0.2742
  999MOL0     C37768  -2.337  11.266   5.903 -0.9114 -0.6463 -0.0747
  999MOL0    Cl37769  -2.409  11.378   5.777  0.2161 -0.5082  0.1687
  999MOL0     C37770  -1.746  10.476   5.681 -0.1499 -0.2634 -0.4472
  999MOL0     C37771  -1.624  10.429   5.732  0.5971  0.5012 -0.1349
  999MOL0     O37772  -1.414  10.591   5.834  0.0728  0.7356  0.3550
  999MOL0     C37773  -1.115  10.391   5.783 -0.5281 -0.6075 -0.0639
  999MOL0     C37774  -0.988  10.363   5.827  0.2076 -0.4274 -0.8880
  999MOL0     N37775  -0.429   9.938   5.787  0.2227  0.6338  0.5382
  999MOL0     N37776  -0.332   9.843   5.788  0.4612 -0.2845  0.0062
  999MOL0     C37777   0.281   9.061   5.254 -0.1632 -0.1650  0.9727
  999MOL0     C37778   0.315   8.972   5.159  0.3694 -0.6097 -0.3746
  999MOL0     C37779   0.437   8.837   4.740 -0.4379 -0.4134  0.4209
  999MOL0     C37780   0.507   8.720   4.772 -0.4231  0.1879 -0.1166
  999MOL0     C37781   0.533   8.623   4.680  0.8359 -0.4038  0.4400
  999MOL0     C37782   0.506   8.652   4.550 -0.3331 -0.2251  1.1740
  999MOL0     O37783   0.536   8.540   4.473 -0.6659  0.2868  0.2186
  999MOL0     C37784   0.559   8.557   4.331 -0.9113  0.1689  0.5295
  999MOL0     C37785   0.710   8.577   4.287  0.3654 -0.2925  0.1149
  999MOL0     C37786   0.812   8.473   4.334 -0.0290 -0.5969 -0.0493
  999MOL0     C37787   0.938   8.476   4.253 -0.0235 -0.2803  0.6407
  999MOL0     C37788   1.025   8.592   4.262 -0.3811  0.2824  0.4938
  999MOL0     C37789   1.103   8.692   4.268  0.4788 -0.2073  0.3372
  999MOL0     C37790   0.442   8.764   4.507 -0.0078  0.1788  0.1716
  999MOL0     C37791   0.406   8.863   4.603 -1.1801 -0.7213  0.3743
  999MOL0     C37792   0.323   8.976   4.547 -0.0818  0.4207 -0.2881
  999MOL0     H37793   0.596   9.122   5.026  0.5558 -2.4027  0.6796
  999MOL0     H37794   0.538   9.290   5.174  3.4528 -1.8426 -1.4189
  999MOL0     H37795   0.225   9.355   5.202  0.6854 -1.3275  0.9295
  999MOL0     H37796   0.300   9.483   5.310 -2.0153  1.5085  2.0598
  999MOL0     H37797   0.067   9.479   5.317 -1.2369 -0.7266  0.5654
  999MOL0     H37798   0.068   9.314   5.387  1.8601 -0.4496  1.8758
  999MOL0     H37799   0.213   9.415   5.584  1.9731  2.0588  2.0225
  999MOL0     H37800   0.219   9.564   5.500 -0.8155  0.4418 -2.4944
  999MOL0     H37801  -0.016   9.601   5.508 -0.1180  2.1104  2.0178
  999MOL0     H37802  -0.057   9.453   5.583  1.1854 -1.1804 -0.8673
  999MOL0     H37803   0.139   9.657   5.699 -0.3312 -0.2535 -1.6696
  999MOL0     H37804   0.091   9.512   5.783  0.6458 -2.3463 -1.4127
  999MOL0     H37805  -0.119   9.717   5.689 -1.8399 -0.1398  0.8118
  999MOL0     H37806  -0.149   9.575   5.779  1.6955 -0.6742  1.6680
  999MOL0     H37807   0.011   9.820   5.881 -0.2751  1.3220 -0.0407
  999MOL0     H37808   0.013   9.666   5.953 -0.1826 -0.1713  0.2158
  999MOL0     H37809  -0.244   9.689   6.000 -2.3361  0.6945 -0.9394
  999MOL0     H37810  -0.142   9.805   6.068 -0.0490 -2.0719  0.1038
  999MOL0     H37811  -0.260  10.038   6.042  0.4660 -0.5607 -0.0048
  999MOL0     H37812  -0.561  10.147   5.826 -0.2763 -0.7415  0.0588
  999MOL0     H37813  -0.429  10.242   5.876 -0.0617 -0.3000 -2.2311
  999MOL0     H37814  -0.603  10.084   6.063 -1.6434  2.0128  0.6851
  999MOL0     H37815  -0.453  10.174   6.113 -0.8944 -1.0083  1.0405
  999MOL0     H37816  -0.649  10.318   6.156  0.9942  2.2770  0.7229
  999MOL0     H37817  -0.543  10.387   6.028 -0.1841 -0.2029  0.0920
  999MOL0     H37818  -0.701  10.315   5.857 -0.5506  0.8820 -0.6463
  999MOL0     H37819  -0.780  10.212   5.972  3.3559 -2.1919 -3.1701
  999MOL0     H37820  -0.960  10.586   6.078 -1.1439  3.7530 -3.5279
  999MOL0     H37821  -1.178  10.673   6.131  0.1908 -1.0625  0.0161
  999MOL0     H37822  -1.319  10.612   6.051 -0.1730  0.5718  1.9014
  999MOL0     H37823  -1.222  10.740   5.973  2.6474  1.9375  1.5886
  999MOL0     H37824  -1.431  10.478   5.451 -0.3299 -2.4702 -0.7570
  999MOL0     H37825  -1.635  10.582   5.380 -0.6113  1.4723  1.0857
  999MOL0     H37826  -2.020  10.695   5.517  1.6164  0.8360 -4.4575
  999MOL0     H37827  -1.920  10.682   5.671  1.2621  0.1407 -0.8326
  999MOL0     H37828  -1.751  10.824   5.511  0.5583 -1.3939  1.0827
  999MOL0     H37829  -1.902  10.867   5.432  0.0963  1.7888  0.5163
  999MOL0     H37830  -1.820  11.018   5.610  0.3781  0.1645  0.5908
  999MOL0     H37831  -1.826  10.892   5.734  3.0772  1.2632 -0.6753
  999MOL0     H37832  -2.070  10.895   5.722 -0.4685  0.4853  1.3504
  999MOL0     H37833  -2.085  10.997   5.577  2.2404  1.8045 -1.1169
  999MOL0     H37834  -1.972  11.081   5.839  0.0918 -0.7973  0.2208
  999MOL0     H37835  -1.968  11.176   5.694 -1.6833  0.6534 -1.6559
  999MOL0     H37836  -2.229  11.044   5.822 -2.5188  1.4186 -0.1390
  999MOL0     H37837  -2.213  11.158   5.684 -2.9342  0.8893  1.2810
  999MOL0     H37838  -2.153  11.337   5.811 -1.1271 -0.3983 -0.6156
  999MOL0     H37839  -2.134  11.243   5.962 -1.9990  3.0425  2.3729
  999MOL0     H37840  -2.345  11.306   6.005  1.4261 -0.4407  0.0674
  999MOL0     H37841  -2.384  11.167   5.902  0.5376 -1.3658 -1.4733
  999MOL0     H37842  -1.833  10.504   5.741 -2.0082  0.0218 -3.1236
  999MOL0     H37843  -1.621  10.390   5.834  1.1329 -2.8208 -1.3132
  999MOL0     H37844  -1.144  10.322   5.704  2.3188 -2.4665  0.3800
  999MOL0     H37845  -0.938  10.283   5.774  1.1437 -0.8315  0.5554
  999MOL0     H37846   0.192   9.053   5.317 -1.2846  1.9483 -0.2329
  999MOL0     H37847   0.244   8.890   5.153 -2.5243  1.2420  3.8622
  999MOL0     H37848   0.545   8.692   4.870 -0.4587 -3.8739 -1.0582
  999MOL0     H37849   0.574   8.528   4.713 -1.2457 -1.6931 -0.5246
  999MOL0     H37850   0.549   8.462   4.278  2.8375  0.7814 -1.6591
  999MOL0     H37851   0.513   8.645   4.284  3.1426  1.1542 -2.1325
  999MOL0     H37852   0.732   8.671   4.338 -0.5085 -1.1414  2.1950
  999MOL0     H37853   0.715   8.578   4.178  0.3291  0.8345  0.1137
  999MOL0     H37854   0.833   8.488   4.440 -0.7288  2.2535 -0.2337
  999MOL0     H37855   0.772   8.373   4.321  0.6845 -0.6441 -2.3219
  999MOL0     H37856   0.908   8.463   4.149 -1.0887 -2.0227  1.1384
  999MOL0     H37857   1.004   8.391   4.275  0.0107 -1.5278 -3.4512
  999MOL0     H37858   1.157   8.785   4.264  1.0289 -0.5419 -2.9073
  999MOL0     H37859   0.405   8.781   4.406  3.5443  1.3342 -1.0767
  999MOL0     H37860   0.306   8.958   4.441 -0.0180 -1.9852  0.0463
  999MOL0     H37861   0.226   8.962   4.597 -0.2221 -1.6613 -1.0546
  999MOL0     H37862   0.364   9.074   4.574 -2.6940  1.5423 -0.1104
 1000MOL0     O37863   3.984   0.950   1.461 -0.3266  0.6511 -0.0067
 1000MOL0     C37864   4.045   0.873   1.382 -0.9269 -0.1515 -0.1687
 1000MOL0     O37865   3.989   0.760   1.332  0.0578 -0.1313  0.0227
 1000MOL0     C37866   3.853   0.736   1.334  0.5513  1.1271 -0.4672
 1000MOL0     C37867   3.804   0.700   1.458 -0.1688 -0.5549  0.3254
 1000MOL0     C37868   3.664   0.684   1.475 -0.6326  0.0999 -0.0175
 1000MOL0     C37869   3.579   0.698   1.357 -0.1313  1.2667 -0.1104
 1000MOL0     O37870   3.443   0.696   1.361 -0.5814  0.5778 -0.9189
 1000MOL0     C37871   3.387   0.636   1.481  0.0230  0.6955  0.2896
 1000MOL0     C37872   3.264   0.560   1.455 -0.3180 -0.2373 -0.8239
 1000MOL0     C37873   3.161   0.550   1.572 -0.8459  0.7614  0.8773
 1000MOL0     C37874   3.038   0.484   1.511 -0.8406 -0.2024 -0.5447
 1000MOL0     C37875   2.914   0.528   1.603 -0.3322  0.5087  0.3498
 1000MOL0     C37876   2.872   0.676   1.586  0.3715  0.4904 -0.2080
 1000MOL0     C37877   2.725   0.714   1.631 -0.3018 -0.3326 -0.7726
 1000MOL0     C37878   2.722   0.734   1.792 -0.3112 -0.3695  0.6558
 1000MOL0     N37879   2.798   0.850   1.832  0.4430 -0.6965  0.0981
 1000MOL0     C37880   2.824   0.969   1.762  0.4364 -0.4219  0.3823
 1000MOL0     C37881   2.908   1.041   1.839 -0.9091 -0.5393 -0.6916
 1000MOL0     C37882   2.962   1.166   1.796  1.4883 -0.2000  0.4570
 1000MOL0     C37883   3.042   1.246   1.894  0.0737  0.8977 -0.5845
 1000MOL0     C37884   3.175   1.179   1.932  0.6629 -0.4156  0.3572
 1000MOL0     C37885   3.237   1.242   2.065 -0.3186  0.0264  0.8448
 1000MOL0     O37886   3.357   1.176   2.100  0.7758  0.2976 -0.6447
 1000MOL0     C37887   3.426   1.231   2.212  0.5927  0.2522  1.2053
 1000MOL0     C37888   3.539   1.157   2.245  0.1865  0.1146  0.0191
 1000MOL0     C37889   3.607   1.191   2.360 -0.6138 -0.1212 -0.4437
 1000MOL0     C37890   3.719   1.098   2.397 -0.3796 -0.1442 -0.2081
 1000MOL0     C37891   3.572   1.313   2.435  0.9243 -0.4744  0.2191
 1000MOL0     C37892   3.641   1.347   2.555  0.4120 -1.1630  0.4884
 1000MOL0     O37893   3.764   1.379   2.530  0.3166  0.0487 -0.3118
 1000MOL0     C37894   3.842   1.431   2.637 -0.2139  0.6255  1.0936
 1000MOL0     C37895   3.970   1.486   2.603  0.2041 -0.2417 -0.7505
 1000MOL0     C37896   4.056   1.531   2.700  0.1434  0.1893 -0.5320
 1000MOL0     C37897   4.033   1.520   2.832  0.0957  0.6697 -1.0765
 1000MOL0     O37898   4.118   1.565   2.935  0.4331  0.0741  0.3126
 1000MOL0     C37899   4.248   1.511   2.924 -0.7972 -0.3399 -0.2985
 1000MOL0     C37900   4.330   1.524   3.055 -0.1573  0.7357 -0.7586
 1000MOL0     C37901   4.396   1.659   3.060  0.3530  0.0232 -0.5078
 1000MOL0     C37902   4.510   1.683   2.959  0.0955 -0.7275  0.5321
 1000MOL0     C37903   4.466   1.810   2.875  0.0812 -0.5555 -1.1050
 1000MOL0     C37904   4.561   1.848   2.763  0.1815  0.0106 -0.7150
 1000MOL0     C37905   4.531   1.997   2.715  0.0489  0.9006  0.3376
 1000MOL0     C37906   4.630   2.037   2.603 -0.4095 -0.7983  0.2041
 1000MOL0    Cl37907   4.783   2.040   2.672 -0.1081 -0.3114 -0.0394
 1000MOL0     C37908   3.908   1.470   2.865 -0.6761  0.1950  0.4296
 1000MOL0     C37909   3.818   1.427   2.774 -0.1503 -0.2135 -0.8179
 1000MOL0     O37910   3.570   1.376   2.652  0.1369  0.2955 -0.4801
 1000MOL0     C37911   3.463   1.388   2.404 -0.7514  1.1103 -0.6800
 1000MOL0     C37912   3.396   1.349   2.287  0.3723  0.2230 -0.5214
 1000MOL0     N37913   2.935   0.962   1.946 -0.0698  0.2298 -0.4967
 1000MOL0     N37914   2.865   0.854   1.946 -0.8421 -0.0459  0.3633
 1000MOL0     C37915   3.637   0.727   1.228  0.4761  0.9838  0.6333
 1000MOL0     C37916   3.775   0.745   1.229 -0.1215 -0.1715  0.7998
 1000MOL0     C37917   4.188   0.895   1.370 -1.2865  0.8342  0.4312
 1000MOL0     C37918   4.254   0.777   1.336  0.7782  0.7325  0.2992
 1000MOL0     C37919   4.388   0.772   1.290  0.0237  0.3279  0.1248
 1000MOL0     C37920   4.464   0.881   1.277 -0.2789 -0.7990  0.1764
 1000MOL0     O37921   4.595   0.873   1.239  1.0416 -0.4465  0.2613
 1000MOL0     C37922   4.676   0.992   1.271  0.3079 -0.4834 -1.4712
 1000MOL0     C37923   4.821   0.962   1.295  0.5587  0.4096  0.7964
 1000MOL0     C37924   4.894   0.893   1.186 -0.7704  0.1732 -0.7467
 1000MOL0     C37925   5.030   0.845   1.244 -0.2667  0.3779  0.0095
 1000MOL0     C37926   5.101   0.790   1.137 -0.1738  0.2261  0.3831
 1000MOL0     C37927   5.172   0.724   1.069 -0.8234  0.4633 -0.7017
 1000MOL0     C37928   4.398   1.004   1.318 -0.7194  0.1154 -0.3839
 1000MOL0     C37929   4.264   1.012   1.362  0.3933 -0.3668  0.1084
 1000MOL0     C37930   4.198   1.142   1.422  0.4113  0.4797  1.2366
 1000MOL0     H37931   3.864   0.689   1.548 -0.5289 -0.2719  0.6079
 1000MOL0     H37932   3.615   0.659   1.569 -4.1495  0.0529 -1.6920
 1000MOL0     H37933   3.369   0.716   1.554 -0.9833 -0.3590  1.2186
 1000MOL0     H37934   3.454   0.564   1.529 -0.7368  0.5964  1.2190
 1000MOL0     H37935   3.227   0.599   1.360  0.1559 -0.0923 -0.9513
 1000MOL0     H37936   3.296   0.461   1.422  0.9836 -1.2099  2.8947
 1000MOL0     H37937   3.202   0.499   1.659 -2.7274 -0.8963  0.8672
 1000MOL0     H37938   3.138   0.655   1.595 -1.7758  1.4409 -2.5093
 1000MOL0     H37939   3.030   0.519   1.408  1.6277  0.6552 -0.5194
 1000MOL0     H37940   3.041   0.375   1.521 -0.4824 -0.0910  0.8802
 1000MOL0     H37941   2.933   0.497   1.706  3.0444 -0.4750 -0.4593
 1000MOL0     H37942   2.826   0.471   1.570  1.5012 -0.2302 -3.8115
 1000MOL0     H37943   2.941   0.752   1.624  0.6148 -0.5027  1.4436
 1000MOL0     H37944   2.869   0.673   1.477  2.2690  1.2845 -0.3232
 1000MOL0     H37945   2.662   0.628   1.606 -1.3330  0.7122 -1.8429
 1000MOL0     H37946   2.677   0.801   1.587 -2.3363  0.5424  2.7589
 1000MOL0     H37947   2.618   0.752   1.821 -1.1814  0.2101 -2.4749
 1000MOL0     H37948   2.765   0.649   1.847  1.0480  1.3034  2.3101
 1000MOL0     H37949   2.801   0.996   1.659 -0.1420  2.6268  1.2092
 1000MOL0     H37950   2.882   1.231   1.759 -1.2298 -2.3299  2.2391
 1000MOL0     H37951   3.024   1.144   1.708 -0.8079 -0.6031 -1.1543
 1000MOL0     H37952   3.069   1.348   1.864 -3.5328  2.0803 -0.3353
 1000MOL0     H37953   2.989   1.262   1.989  0.6601  2.6325 -0.5145
 1000MOL0     H37954   3.162   1.070   1.935 -1.9971 -0.1311  1.6199
 1000MOL0     H37955   3.249   1.204   1.855  1.0987  1.8499  1.4204
 1000MOL0     H37956   3.246   1.349   2.042 -2.5003 -0.3520 -2.4926
 1000MOL0     H37957   3.156   1.227   2.137 -2.6188  0.4973 -1.4944
 1000MOL0     H37958   3.576   1.083   2.176 -0.0335 -0.5359  0.5890
 1000MOL0     H37959   3.703   1.066   2.501  2.0042 -3.8005 -0.7731
 1000MOL0     H37960   3.814   1.150   2.385 -1.3424  1.2488 -2.5085
 1000MOL0     H37961   3.732   1.006   2.338  1.6169 -1.3160  1.8976
 1000MOL0     H37962   4.008   1.484   2.502  2.3773 -3.3837 -0.0136
 1000MOL0     H37963   4.148   1.576   2.664  1.3602  0.6543  2.8291
 1000MOL0     H37964   4.234   1.404   2.909 -0.8400 -0.5319  0.9505
 1000MOL0     H37965   4.296   1.560   2.839  2.6700 -0.3668  1.4581
 1000MOL0     H37966   4.270   1.498   3.143 -0.9443  5.7493  0.4765
 1000MOL0     H37967   4.414   1.454   3.050  0.7747  1.7747 -0.1191
 1000MOL0     H37968   4.438   1.670   3.160  0.0434  1.1182 -0.4832
 1000MOL0     H37969   4.319   1.736   3.067  0.1932 -0.2991  2.9684
 1000MOL0     H37970   4.514   1.600   2.887  0.0627  1.0836 -1.6796
 1000MOL0     H37971   4.603   1.678   3.016 -0.4230 -3.7618  1.2822
 1000MOL0     H37972   4.368   1.788   2.831 -0.8488  2.8731 -1.0018
 1000MOL0     H37973   4.458   1.885   2.953 -1.7765 -0.8558 -0.9781
 1000MOL0     H37974   4.556   1.780   2.677  2.2606  2.1138 -2.6563
 1000MOL0     H37975   4.661   1.838   2.805 -0.6341 -2.7442  0.7990
 1000MOL0     H37976   4.552   2.064   2.799  1.6439  0.1564  0.5767
 1000MOL0     H37977   4.429   2.014   2.681  0.0183 -1.4010 -0.8867
 1000MOL0     H37978   4.596   2.135   2.568 -0.8074 -1.8015 -2.4506
 1000MOL0     H37979   4.625   1.969   2.517 -1.7397 -1.3487  0.6766
 1000MOL0     H37980   3.874   1.449   2.966 -0.0348 -1.5630  0.3213
 1000MOL0     H37981   3.728   1.385   2.818  0.2045  0.2423  0.3718
 1000MOL0     H37982   3.441   1.481   2.455 -4.8681 -0.6486  1.1402
 1000MOL0     H37983   3.309   1.411   2.266 -0.8403 -0.4076  2.1853
 1000MOL0     H37984   3.585   0.732   1.133 -1.5609 -2.5686  1.3558
 1000MOL0     H37985   3.813   0.776   1.132  0.7251  1.6016  1.6595
 1000MOL0     H37986   4.205   0.681   1.324 -0.4633  0.7086  4.2350
 1000MOL0     H37987   4.433   0.674   1.278 -3.6987 -1.4395 -0.5286
 1000MOL0     H37988   4.669   1.062   1.187  5.4953  2.5901  0.2204
 1000MOL0     H37989   4.634   1.039   1.360  0.3114  0.5255 -1.9976
 1000MOL0     H37990   4.826   0.914   1.393  1.3425  0.6049  0.8576
 1000MOL0     H37991   4.869   1.060   1.302  0.0700  0.7001  0.2231
 1000MOL0     H37992   4.842   0.803   1.153 -1.0941 -0.1221  0.4861
 1000MOL0     H37993   4.904   0.966   1.106  3.2019  2.5937  1.5763
 1000MOL0     H37994   5.025   0.756   1.306  2.3009 -2.6239 -3.5805
 1000MOL0     H37995   5.093   0.921   1.293  2.0209  0.9660 -3.4525
 1000MOL0     H37996   5.242   0.665   1.014  3.6459  3.1126  1.5397
 1000MOL0     H37997   4.451   1.099   1.318 -0.7153  0.4895  5.6130
 1000MOL0     H37998   4.163   1.108   1.520  1.9756 -1.3125  1.2141
 1000MOL0     H37999   4.268   1.225   1.435  1.0854  0.4772 -1.6737
 1000MOL0     H38000   4.104   1.166   1.370  1.7463  1.6042 -0.7856
 1001MOL0     O38001   4.585  11.197   2.768 -0.0176 -0.0165  0.7948
 1001MOL0     C38002   4.508  11.288   2.789 -0.5146 -0.2320 -0.5722
 1001MOL0     O38003   4.442  11.319   2.905  0.5200 -0.8713 -0.9137
 1001MOL0     C38004   4.508  11.279   3.024  0.6302  0.5477 -0.5794
 1001MOL0     C38005   4.645  11.272   3.036 -0.1279 -0.1475 -0.2848
 1001MOL0     C38006   4.711  11.230   3.154  0.1019 -0.6741  0.2625
 1001MOL0     C38007   4.636  11.190   3.261  0.3627  1.1158  0.0380
 1001MOL0     O38008   4.696  11.145   3.383 -0.0879 -0.0823  0.0433
 1001MOL0     C38009   4.640  11.039   3.459  0.1178  0.8353  0.6799
 1001MOL0     C38010   4.744  10.966   3.549  0.4386 -0.4794  0.0529
 1001MOL0     C38011   4.790  11.066   3.660  0.5738  0.0160  0.5847
 1001MOL0     C38012   4.895  10.993   3.736  0.2148  0.1402 -0.7857
 1001MOL0     C38013   4.904  11.028   3.885  0.3604 -0.1406 -0.8019
 1001MOL0     C38014   5.031  11.102   3.916  1.3711  0.0474  0.1573
 1001MOL0     C38015   5.022  11.138   4.072  0.5270 -0.4996  0.3863
 1001MOL0     C38016   5.159  11.146   4.140 -0.0250  0.9697 -0.4915
 1001MOL0     N38017   5.245  11.021   4.121 -0.0731  0.5292 -0.1731
 1001MOL0     C38018   5.358  11.025   4.040 -0.0381  0.4072  1.2334
 1001MOL0     C38019   5.431  10.909   4.071  1.0611  0.9350 -0.2499
 1001MOL0     C38020   5.577  10.899   4.032 -0.6033 -0.8701 -0.3960
 1001MOL0     C38021   5.625  10.756   3.998 -0.1060  0.2366 -1.0754
 1001MOL0     C38022   5.709  10.740   3.874 -0.8039  0.2173 -0.4520
 1001MOL0     C38023   5.842  10.814   3.879  0.3710  0.3032 -1.1977
 1001MOL0     O38024   5.916  10.828   3.754  1.3112 -0.0225  0.1095
 1001MOL0     C38025   5.993  10.716   3.723  0.7282  0.5916 -0.9505
 1001MOL0     C38026   5.937  10.621   3.642 -0.2089  0.2680 -1.1560
 1001MOL0     C38027   6.013  10.507   3.600 -1.1842 -0.0903 -0.1168
 1001MOL0     C38028   5.954  10.430   3.483  0.3153 -0.2526 -0.3851
 1001MOL0     C38029   6.145  10.479   3.653 -0.4460 -0.3635 -0.8390
 1001MOL0     C38030   6.217  10.357   3.616 -0.1171  0.5124 -0.0362
 1001MOL0     O38031   6.161  10.269   3.526  0.7310  0.2411 -0.0353
 1001MOL0     C38032   6.254  10.185   3.476  0.0360 -0.1348  1.3115
 1001MOL0     C38033   6.351  10.217   3.378 -0.7662  0.5960 -0.0739
 1001MOL0     C38034   6.450  10.130   3.347 -0.0334 -0.3485  0.3092
 1001MOL0     C38035   6.461  10.005   3.403  0.8105  0.2108  0.2148
 1001MOL0     O38036   6.558   9.927   3.341  0.4732 -0.4506 -0.1441
 1001MOL0     C38037   6.624   9.827   3.420  0.1281 -0.2887 -0.1876
 1001MOL0     C38038   6.612   9.691   3.358  0.1893  0.7070 -0.0931
 1001MOL0     C38039   6.655   9.564   3.454  0.0627 -0.9697 -0.1362
 1001MOL0     C38040   6.532   9.520   3.540  0.3373  0.8611 -0.6997
 1001MOL0     C38041   6.548   9.379   3.591 -0.9609  0.1882 -0.5960
 1001MOL0     C38042   6.408   9.308   3.627 -0.0102 -0.1702  0.0354
 1001MOL0     C38043   6.416   9.151   3.637 -0.1770 -0.2643  0.1745
 1001MOL0     C38044   6.521   9.108   3.728 -0.2797  0.3764  1.1368
 1001MOL0    Cl38045   6.509   9.165   3.895  0.0669  0.1115 -0.1335
 1001MOL0     C38046   6.358   9.965   3.486 -0.2823  1.0993  0.2254
 1001MOL0     C38047   6.253  10.051   3.517  0.8379 -0.6303  0.6809
 1001MOL0     O38048   6.323  10.337   3.686 -0.7400  0.1364  0.8716
 1001MOL0     C38049   6.201  10.579   3.745 -0.5387  0.1061  0.1687
 1001MOL0     C38050   6.120  10.685   3.785 -0.5967 -0.5284  0.2989
 1001MOL0     N38051   5.352  10.835   4.162 -0.0301  0.4578  0.6632
 1001MOL0     N38052   5.244  10.906   4.194  1.1256  0.3457 -0.6093
 1001MOL0     C38053   4.498  11.216   3.258 -0.1127  0.3007 -0.3278
 1001MOL0     C38054   4.431  11.256   3.139 -0.0268  0.6968  0.0765
 1001MOL0     C38055   4.466  11.362   2.670 -0.5888  0.0054 -0.2088
 1001MOL0     C38056   4.342  11.420   2.662  0.0166 -0.7966 -0.3877
 1001MOL0     C38057   4.302  11.485   2.544 -0.2359  0.2945  0.1457
 1001MOL0     C38058   4.396  11.497   2.439 -0.4348  0.9224 -0.1933
 1001MOL0     O38059   4.348  11.558   2.329  0.3615  0.8459 -0.4476
 1001MOL0     C38060   4.440  11.559   2.217 -0.1776  0.2245  0.1919
 1001MOL0     C38061   4.386  11.611   2.079 -0.8423  0.1127  0.1856
 1001MOL0     C38062   4.257  11.545   2.046  0.3328 -0.8665  0.1699
 1001MOL0     C38063   4.187  11.591   1.920  0.1920  0.0368  0.1219
 1001MOL0     C38064   4.069  11.509   1.892  0.3115 -0.0009 -0.1737
 1001MOL0     C38065   3.974  11.440   1.860 -0.1819  0.1586 -0.2831
 1001MOL0     C38066   4.518  11.435   2.449  0.5334 -0.4401  0.0004
 1001MOL0     C38067   4.559  11.372   2.558  0.2373 -0.5063 -0.4915
 1001MOL0     C38068   4.704  11.316   2.556  0.5585  0.1768  0.5024
 1001MOL0     H38069   4.708  11.318   2.960 -1.8230  0.1949 -1.5522
 1001MOL0     H38070   4.818  11.235   3.166 -0.0207  1.1905  0.8835
 1001MOL0     H38071   4.596  10.968   3.388 -1.2166  0.0538  2.2104
 1001MOL0     H38072   4.559  11.064   3.529  0.9781  0.0837  1.9965
 1001MOL0     H38073   4.694  10.872   3.574 -2.6477  0.8580 -0.6045
 1001MOL0     H38074   4.836  10.949   3.493 -0.6737  1.9798 -2.7903
 1001MOL0     H38075   4.807  11.169   3.629 -1.8400  0.1577 -0.5524
 1001MOL0     H38076   4.693  11.061   3.712 -0.4286  2.0008 -0.9747
 1001MOL0     H38077   4.895  10.884   3.728  0.7795  0.1856 -1.5279
 1001MOL0     H38078   4.989  11.022   3.690  2.9261 -0.1177  4.0060
 1001MOL0     H38079   4.893  10.938   3.946 -0.7919  0.1509 -0.5590
 1001MOL0     H38080   4.817  11.091   3.905  0.3506  0.0761 -1.5207
 1001MOL0     H38081   5.116  11.038   3.893  2.1634  0.2117  2.3866
 1001MOL0     H38082   5.025  11.191   3.853 -2.1965 -0.5523 -0.5823
 1001MOL0     H38083   4.963  11.062   4.125 -2.2944  0.9621 -0.4756
 1001MOL0     H38084   4.967  11.231   4.084 -0.5022 -1.2480  1.8287
 1001MOL0     H38085   5.212  11.234   4.100  2.2977 -0.4322 -0.6857
 1001MOL0     H38086   5.134  11.158   4.246  1.0857 -1.3497  0.1080
 1001MOL0     H38087   5.416  11.111   4.006  0.5321  0.5371  2.4722
 1001MOL0     H38088   5.636  10.930   4.118 -1.2317  0.3655 -0.3846
 1001MOL0     H38089   5.587  10.970   3.949 -3.5184  1.2630  0.8787
 1001MOL0     H38090   5.671  10.721   4.091 -1.4478  2.4785  0.5416
 1001MOL0     H38091   5.535  10.693   3.993  0.9329 -1.4427  0.2635
 1001MOL0     H38092   5.732  10.635   3.855 -0.4530  0.1644  0.2231
 1001MOL0     H38093   5.638  10.776   3.799 -3.0668  0.2592  1.5922
 1001MOL0     H38094   5.818  10.912   3.921 -1.4008  0.2522 -1.9955
 1001MOL0     H38095   5.904  10.751   3.944 -1.5433 -0.7239 -0.2756
 1001MOL0     H38096   5.839  10.638   3.598 -0.7573  2.2789  0.7004
 1001MOL0     H38097   5.939  10.326   3.514  1.1731 -0.2362  0.1128
 1001MOL0     H38098   6.008  10.441   3.389 -0.3420  1.1090 -0.6254
 1001MOL0     H38099   5.851  10.461   3.464 -1.4530 -3.5577  2.6083
 1001MOL0     H38100   6.354  10.316   3.332  2.3113 -0.0855 -1.5794
 1001MOL0     H38101   6.505  10.155   3.257 -1.5142 -1.7235 -1.0167
 1001MOL0     H38102   6.727   9.863   3.432  0.9752 -2.8088  0.9319
 1001MOL0     H38103   6.594   9.834   3.525  3.3179  3.5650  0.7043
 1001MOL0     H38104   6.507   9.679   3.331 -0.1744  1.9128  0.6881
 1001MOL0     H38105   6.660   9.691   3.260 -4.5131 -0.2114 -2.6559
 1001MOL0     H38106   6.749   9.580   3.509 -0.0348  1.3447 -0.5271
 1001MOL0     H38107   6.664   9.472   3.396 -1.1581 -1.5827  0.6234
 1001MOL0     H38108   6.447   9.521   3.471 -0.5365 -1.3190  0.2369
 1001MOL0     H38109   6.511   9.592   3.620 -1.8933 -3.4512  3.0987
 1001MOL0     H38110   6.609   9.326   3.518  2.0268  1.4704  0.8136
 1001MOL0     H38111   6.616   9.381   3.676  0.7509  3.7209 -1.8548
 1001MOL0     H38112   6.338   9.349   3.552  1.1758  2.9644  0.4729
 1001MOL0     H38113   6.380   9.354   3.722  2.2974  1.3695  0.0537
 1001MOL0     H38114   6.434   9.127   3.531 -2.0001  2.7475 -0.9442
 1001MOL0     H38115   6.325   9.104   3.674  2.2492 -3.4783  2.6988
 1001MOL0     H38116   6.621   9.127   3.687  0.3802 -2.3872  1.3165
 1001MOL0     H38117   6.518   8.999   3.725 -3.7579  0.3329 -2.0437
 1001MOL0     H38118   6.361   9.864   3.526  3.5994  1.3695  1.0661
 1001MOL0     H38119   6.172  10.025   3.585 -0.7247  1.4369 -0.2759
 1001MOL0     H38120   6.298  10.567   3.793 -0.5660  1.1606  0.5159
 1001MOL0     H38121   6.153  10.738   3.873 -0.6469  3.9221 -2.0823
 1001MOL0     H38122   4.448  11.192   3.351  2.6282 -1.5695  0.7926
 1001MOL0     H38123   4.325  11.272   3.153  0.2149  2.6217  0.0880
 1001MOL0     H38124   4.270  11.398   2.740 -0.5273 -1.2602 -1.0065
 1001MOL0     H38125   4.206  11.534   2.533 -0.5371 -0.7239 -2.3613
 1001MOL0     H38126   4.535  11.605   2.247  0.2721 -1.2426  1.1907
 1001MOL0     H38127   4.462  11.455   2.190  0.0808  0.1445  0.6909
 1001MOL0     H38128   4.452  11.589   1.994 -1.9481 -0.0586 -0.6414
 1001MOL0     H38129   4.381  11.720   2.080  0.1083  0.2194 -1.8693
 1001MOL0     H38130   4.279  11.438   2.036 -0.5992 -0.9796 -0.7805
 1001MOL0     H38131   4.187  11.585   2.120 -0.4182  4.6774 -2.9765
 1001MOL0     H38132   4.254  11.594   1.834 -0.8382  0.0649 -0.7060
 1001MOL0     H38133   4.153  11.695   1.926 -2.6844 -0.5845 -2.5550
 1001MOL0     H38134   3.894  11.375   1.828 -0.7733  0.4339  0.5992
 1001MOL0     H38135   4.586  11.422   2.365  0.4752 -0.5859 -0.0250
 1001MOL0     H38136   4.762  11.329   2.648  0.2683 -0.8540  0.8491
 1001MOL0     H38137   4.696  11.207   2.550 -0.7789  0.2687  0.2712
 1001MOL0     H38138   4.765  11.348   2.472  0.1560 -1.2992 -0.3976
 1002MOL0     O38139   3.830   0.240   9.358  0.1349  0.1056 -0.6644
 1002MOL0     C38140   3.735   0.254   9.282  0.0871  0.9879  0.1863
 1002MOL0     O38141   3.726   0.350   9.190  0.5044  0.0151  0.1617
 1002MOL0     C38142   3.822   0.442   9.167  0.6043 -0.0051  0.7492
 1002MOL0     C38143   3.796   0.585   9.162 -0.2775  0.3713 -0.5881
 1002MOL0     C38144   3.891   0.691   9.134  0.1959  0.1833 -0.3530
 1002MOL0     C38145   4.013   0.641   9.105 -1.3434 -1.4749 -0.1426
 1002MOL0     O38146   4.116   0.723   9.067  0.5733  0.0501 -0.2201
 1002MOL0     C38147   4.130   0.838   9.156 -0.4045 -0.9555 -0.1713
 1002MOL0     C38148   4.284   0.856   9.149  0.4793 -0.6079 -0.6799
 1002MOL0     C38149   4.333   0.893   9.007  0.5345  0.8393 -0.4394
 1002MOL0     C38150   4.483   0.884   8.994 -0.4658 -0.5770  0.1378
 1002MOL0     C38151   4.539   0.976   8.894 -0.9120 -0.3239 -0.3192
 1002MOL0     C38152   4.473   0.971   8.756  0.7939  0.3023  1.0053
 1002MOL0     C38153   4.574   1.020   8.656 -0.7153 -0.1503  0.4396
 1002MOL0     C38154   4.621   1.161   8.667  0.2252  0.4755 -1.0284
 1002MOL0     N38155   4.687   1.219   8.547  0.0561  0.1715 -0.1235
 1002MOL0     C38156   4.672   1.344   8.495  0.1477  0.6943  0.6726
 1002MOL0     C38157   4.745   1.345   8.387  0.1405 -0.7630 -0.9199
 1002MOL0     C38158   4.780   1.463   8.303  1.5930 -0.2027  0.1182
 1002MOL0     C38159   4.920   1.458   8.246 -0.1750 -0.6076  0.6583
 1002MOL0     C38160   5.025   1.511   8.346  0.3749  0.2146 -0.9906
 1002MOL0     C38161   5.010   1.665   8.369 -0.4772  0.5943  0.3932
 1002MOL0     O38162   5.069   1.715   8.487 -1.0226 -0.5795 -0.1726
 1002MOL0     C38163   5.202   1.735   8.461  0.2396  0.0309 -0.5025
 1002MOL0     C38164   5.300   1.657   8.522  0.3069  0.4201  0.1641
 1002MOL0     C38165   5.437   1.688   8.518 -0.4573 -0.0371  0.5848
 1002MOL0     C38166   5.538   1.599   8.589 -0.8332  0.2435  1.4175
 1002MOL0     C38167   5.481   1.807   8.449  0.1241  0.0297 -0.1539
 1002MOL0     C38168   5.622   1.858   8.432  0.2885  0.3856 -1.4460
 1002MOL0     O38169   5.630   1.980   8.366  0.2269  0.0353  0.1334
 1002MOL0     C38170   5.745   2.024   8.308  0.1447  0.4261  0.5341
 1002MOL0     C38171   5.773   2.161   8.310  0.4225 -0.3735 -0.4985
 1002MOL0     C38172   5.902   2.214   8.265  0.6040 -0.2270  0.9467
 1002MOL0     C38173   5.998   2.120   8.216  0.1657 -0.4864  0.5976
 1002MOL0     O38174   6.117   2.163   8.156  0.3662 -0.0038  0.1979
 1002MOL0     C38175   6.236   2.178   8.240  0.7312 -0.1401 -0.3192
 1002MOL0     C38176   6.360   2.103   8.196  0.2654 -0.5028 -0.2612
 1002MOL0     C38177   6.465   2.124   8.304 -0.6701 -0.2227 -0.2865
 1002MOL0     C38178   6.607   2.080   8.250  0.0072  0.7482  0.5081
 1002MOL0     C38179   6.606   1.929   8.208  0.2923 -0.0004 -0.2087
 1002MOL0     C38180   6.749   1.859   8.203  1.2846 -0.4192  0.2412
 1002MOL0     C38181   6.795   1.839   8.353  0.7880 -0.2529  0.6524
 1002MOL0     C38182   6.915   1.934   8.363  0.6984 -1.2253 -0.4147
 1002MOL0    Cl38183   7.055   1.900   8.252 -0.1965 -0.0752  0.1358
 1002MOL0     C38184   5.977   1.983   8.233  0.1089  0.3299  0.1843
 1002MOL0     C38185   5.849   1.935   8.265  0.8351 -0.0572  0.0252
 1002MOL0     O38186   5.717   1.797   8.478  0.0147 -0.2188 -0.5242
 1002MOL0     C38187   5.382   1.881   8.382 -0.0939 -0.0655  0.1995
 1002MOL0     C38188   5.247   1.844   8.394 -0.1560 -0.0584 -0.1591
 1002MOL0     N38189   4.797   1.221   8.359  0.4254  0.4584 -0.1109
 1002MOL0     N38190   4.770   1.145   8.465  0.2221 -0.2458 -0.4607
 1002MOL0     C38191   4.037   0.509   9.072 -0.1346  0.2216  0.0386
 1002MOL0     C38192   3.949   0.408   9.111 -0.0523 -0.9531  0.1348
 1002MOL0     C38193   3.637   0.140   9.262 -0.4122 -0.1244 -0.9038
 1002MOL0     C38194   3.692   0.011   9.298 -0.6614 -0.9213 -0.0122
 1002MOL0     C38195   3.617  -0.106   9.295 -0.2129 -0.8453  0.3695
 1002MOL0     C38196   3.487  -0.106   9.245 -0.9166  0.5371  0.4564
 1002MOL0     O38197   3.404  -0.212   9.222 -0.0376 -0.3909 -0.3251
 1002MOL0     C38198   3.425  -0.334   9.299 -0.0633 -0.1544 -0.0945
 1002MOL0     C38199   3.306  -0.416   9.279 -0.1966  0.3048 -0.3531
 1002MOL0     C38200   3.286  -0.454   9.127  0.3626  0.5970 -0.1846
 1002MOL0     C38201   3.179  -0.554   9.130 -0.3240 -0.1760  0.7292
 1002MOL0     C38202   3.144  -0.602   8.999  0.1099 -0.2455  0.0455
 1002MOL0     C38203   3.105  -0.640   8.885  0.2689  0.7671  0.2799
 1002MOL0     C38204   3.436   0.017   9.200 -0.2713  0.1988 -0.5624
 1002MOL0     C38205   3.499   0.142   9.217 -0.4350  0.2334 -0.4185
 1002MOL0     C38206   3.433   0.273   9.187  0.4353 -0.0173 -0.0898
 1002MOL0     H38207   3.695   0.622   9.174  0.3787  2.4706 -1.1962
 1002MOL0     H38208   3.861   0.795   9.132 -2.9726 -0.6003 -2.6465
 1002MOL0     H38209   4.091   0.836   9.258 -0.8813  2.0893 -0.2101
 1002MOL0     H38210   4.071   0.920   9.115 -2.0492 -1.8686  0.2948
 1002MOL0     H38211   4.314   0.942   9.209 -0.6204  1.3800 -2.8171
 1002MOL0     H38212   4.335   0.764   9.181 -1.6993 -1.4663  0.4922
 1002MOL0     H38213   4.300   0.820   8.933  1.4863 -2.2882  1.9959
 1002MOL0     H38214   4.298   0.990   8.971  1.9835  0.8593 -1.8915
 1002MOL0     H38215   4.519   0.928   9.087 -0.5645  0.4005 -0.2711
 1002MOL0     H38216   4.517   0.780   8.987 -0.9366 -0.9394  2.4777
 1002MOL0     H38217   4.645   0.954   8.881 -1.0056 -0.2741 -1.2647
 1002MOL0     H38218   4.524   1.077   8.933  0.1060  1.0084 -3.0978
 1002MOL0     H38219   4.455   0.864   8.743  1.9461  0.0468  1.4187
 1002MOL0     H38220   4.379   1.026   8.757  1.0893  0.8043  1.1867
 1002MOL0     H38221   4.531   1.022   8.556  2.3235  1.1167 -0.9433
 1002MOL0     H38222   4.655   0.947   8.651 -0.0445  0.6655 -1.3821
 1002MOL0     H38223   4.536   1.211   8.715  1.2857 -0.8734  2.5511
 1002MOL0     H38224   4.701   1.163   8.742  1.8824  2.9395 -2.6913
 1002MOL0     H38225   4.627   1.433   8.540  1.2789  1.9729 -0.6292
 1002MOL0     H38226   4.756   1.551   8.365 -3.3197 -1.7059  0.8164
 1002MOL0     H38227   4.718   1.471   8.213  2.1527  1.4198 -0.1521
 1002MOL0     H38228   4.947   1.354   8.225 -1.2005 -0.8292  0.4086
 1002MOL0     H38229   4.935   1.512   8.152  1.7303 -2.2675 -0.0521
 1002MOL0     H38230   5.023   1.465   8.445  0.2901  1.5797 -0.3381
 1002MOL0     H38231   5.122   1.487   8.302 -0.3536  2.4584 -4.1424
 1002MOL0     H38232   5.038   1.729   8.285  1.2582  2.1813  2.0684
 1002MOL0     H38233   4.906   1.696   8.372 -0.4315  2.2374 -5.0929
 1002MOL0     H38234   5.276   1.571   8.583 -2.2568 -0.3628 -1.7476
 1002MOL0     H38235   5.595   1.653   8.665 -1.6992 -1.7806  3.6383
 1002MOL0     H38236   5.602   1.553   8.513 -1.6984  0.8374  0.2947
 1002MOL0     H38237   5.492   1.512   8.636  0.8936 -1.0282  0.8819
 1002MOL0     H38238   5.698   2.227   8.353 -0.1282 -1.8453  0.9006
 1002MOL0     H38239   5.927   2.320   8.265  1.6013 -0.4283 -0.6269
 1002MOL0     H38240   6.254   2.285   8.254  1.0590 -0.2502  0.1275
 1002MOL0     H38241   6.208   2.136   8.337  3.4352 -2.1268 -0.2841
 1002MOL0     H38242   6.334   1.998   8.180 -1.2993 -1.0404  4.2951
 1002MOL0     H38243   6.394   2.154   8.105 -2.9655  0.6510 -0.9648
 1002MOL0     H38244   6.438   2.065   8.391 -0.1436  0.9717  0.7287
 1002MOL0     H38245   6.471   2.228   8.338  3.1676  0.0646 -1.2942
 1002MOL0     H38246   6.677   2.090   8.334  1.6699 -2.4013 -0.3622
 1002MOL0     H38247   6.639   2.148   8.170 -2.4147 -1.1479 -2.2649
 1002MOL0     H38248   6.548   1.880   8.287  3.8867 -0.1054  2.6105
 1002MOL0     H38249   6.560   1.916   8.109  0.5572 -1.7344 -0.1236
 1002MOL0     H38250   6.816   1.910   8.134  0.7078  2.4037  1.6249
 1002MOL0     H38251   6.723   1.757   8.174 -2.5477 -0.3144  2.4677
 1002MOL0     H38252   6.816   1.735   8.377  3.5131 -0.0639 -0.4882
 1002MOL0     H38253   6.719   1.871   8.425  2.0995 -1.7535  2.7950
 1002MOL0     H38254   6.944   1.942   8.468  2.1441 -0.2194 -0.8562
 1002MOL0     H38255   6.883   2.036   8.344  0.7070 -1.0116  0.6906
 1002MOL0     H38256   6.051   1.914   8.195 -1.1002 -1.5376  1.0672
 1002MOL0     H38257   5.827   1.829   8.256  1.5538 -0.2772  0.6777
 1002MOL0     H38258   5.404   1.964   8.315 -0.3186 -3.4234 -4.4773
 1002MOL0     H38259   5.170   1.904   8.349  0.1059  1.8160  1.7367
 1002MOL0     H38260   4.134   0.488   9.029 -0.3974  0.8816 -0.9090
 1002MOL0     H38261   3.984   0.307   9.093 -0.5658 -1.1685  0.3238
 1002MOL0     H38262   3.776  -0.007   9.365 -1.4587 -0.1631  1.2376
 1002MOL0     H38263   3.659  -0.204   9.318  3.9750 -0.1325 -3.1097
 1002MOL0     H38264   3.505  -0.393   9.253  0.3810  0.1985  0.2075
 1002MOL0     H38265   3.462  -0.312   9.400  2.3408  1.7791 -1.2774
 1002MOL0     H38266   3.223  -0.351   9.308 -0.6073 -0.6117  0.6165
 1002MOL0     H38267   3.304  -0.502   9.347  1.1124 -0.5683 -1.3589
 1002MOL0     H38268   3.258  -0.364   9.072  1.8230  1.4341  0.3738
 1002MOL0     H38269   3.384  -0.492   9.096  2.2368  1.5495  3.8339
 1002MOL0     H38270   3.096  -0.509   9.184 -0.8130  0.7512 -0.7241
 1002MOL0     H38271   3.207  -0.640   9.191  0.2129  0.8146  1.9149
 1002MOL0     H38272   3.075  -0.680   8.790 -1.3858 -2.1978  1.8987
 1002MOL0     H38273   3.331   0.031   9.175 -1.0543  2.1478  3.1616
 1002MOL0     H38274   3.463   0.307   9.088 -0.6365  2.1052  0.2517
 1002MOL0     H38275   3.325   0.257   9.179  0.1603  2.3418 -2.4698
 1002MOL0     H38276   3.451   0.362   9.248 -2.7675  0.4270  0.3979
 1003MOL0     O38277   5.107   4.749  10.089 -0.0267 -0.5573  0.2149
 1003MOL0     C38278   5.179   4.839  10.034 -0.1352  0.0880 -0.4638
 1003MOL0     O38279   5.289   4.817   9.948  0.1091  0.5199 -0.1378
 1003MOL0     C38280   5.305   4.686   9.911  0.4941 -0.2907  0.7264
 1003MOL0     C38281   5.225   4.627   9.815  0.1598 -0.8348 -0.1957
 1003MOL0     C38282   5.243   4.490   9.774  0.7656  0.5948  0.4455
 1003MOL0     C38283   5.335   4.407   9.838 -0.2325  0.2975 -0.3974
 1003MOL0     O38284   5.341   4.273   9.813  0.0912  0.8264  0.3991
 1003MOL0     C38285   5.256   4.208   9.709 -0.7296  1.1724 -0.6456
 1003MOL0     C38286   5.326   4.073   9.676 -0.6039 -0.3819  0.2945
 1003MOL0     C38287   5.259   3.964   9.760  0.3678 -0.2016  0.6621
 1003MOL0     C38288   5.345   3.925   9.884 -0.7662  0.0391  0.7537
 1003MOL0     C38289   5.275   3.813   9.966 -0.8008 -0.6252  0.1067
 1003MOL0     C38290   5.319   3.681   9.921 -0.4297 -0.0705 -0.6119
 1003MOL0     C38291   5.231   3.571   9.977  0.2260  0.0246 -0.2547
 1003MOL0     C38292   5.265   3.441   9.916 -0.3762 -0.5996 -0.5437
 1003MOL0     N38293   5.196   3.332   9.983  0.5144  0.3068 -0.0555
 1003MOL0     C38294   5.219   3.196   9.951  1.1541 -1.2551  0.4684
 1003MOL0     C38295   5.132   3.126  10.020  0.7957 -0.2626 -0.6422
 1003MOL0     C38296   5.127   2.979  10.011 -0.1213  1.0918  0.6827
 1003MOL0     C38297   5.035   2.931  10.116 -0.6657 -0.7211  0.2027
 1003MOL0     C38298   5.058   2.788  10.144 -0.5245 -0.4802 -0.2911
 1003MOL0     C38299   4.961   2.731  10.252  1.0602  0.4032 -1.7592
 1003MOL0     O38300   4.998   2.771  10.389  0.2721  0.2399 -0.3287
 1003MOL0     C38301   5.107   2.714  10.449  0.5641  1.0047  0.9047
 1003MOL0     C38302   5.181   2.609  10.407  0.4939 -0.8797  0.8877
 1003MOL0     C38303   5.282   2.546  10.483  0.0851 -0.5296 -0.1485
 1003MOL0     C38304   5.335   2.413  10.438 -0.2439  0.1643  0.6672
 1003MOL0     C38305   5.313   2.607  10.606  0.0930 -0.1218 -0.2135
 1003MOL0     C38306   5.401   2.544  10.709  0.1575  0.1196  0.8827
 1003MOL0     O38307   5.355   2.572  10.840 -0.4754  0.1831 -0.1158
 1003MOL0     C38308   5.414   2.522  10.959 -0.2667 -0.2503 -0.1210
 1003MOL0     C38309   5.499   2.408  10.966  1.0399 -0.1422  0.2215
 1003MOL0     C38310   5.550   2.361  11.092  0.0642  0.2707 -0.5776
 1003MOL0     C38311   5.536   2.441  11.199 -0.0839 -0.2099  0.1543
 1003MOL0     O38312   5.621   2.394  11.299 -0.0265 -0.6156  0.2327
 1003MOL0     C38313   5.584   2.427  11.430 -0.1679 -0.6395 -1.0056
 1003MOL0     C38314   5.628   2.316  11.523 -0.3126 -0.2488 -0.1567
 1003MOL0     C38315   5.774   2.292  11.523 -0.0009  0.9995 -0.2834
 1003MOL0     C38316   5.795   2.189  11.635 -0.3406  0.0371 -0.0255
 1003MOL0     C38317   5.940   2.137  11.646  0.1267  0.2772  0.1239
 1003MOL0     C38318   5.996   2.055  11.539  0.2832 -0.4638 -0.1501
 1003MOL0     C38319   5.910   1.935  11.495  0.2120 -0.4518 -0.2084
 1003MOL0     C38320   6.002   1.838  11.414  0.2049  0.0597  0.3123
 1003MOL0    Cl38321   5.923   1.683  11.384  0.0579 -0.1820 -0.4632
 1003MOL0     C38322   5.447   2.557  11.203 -0.1978  0.2492 -0.0465
 1003MOL0     C38323   5.382   2.592  11.081  0.3744  0.0528  0.1513
 1003MOL0     O38324   5.514   2.491  10.684 -0.5228 -0.5127  0.3869
 1003MOL0     C38325   5.261   2.729  10.645 -0.2509  0.3337  0.0357
 1003MOL0     C38326   5.150   2.781  10.571  0.5946  0.1808 -0.8750
 1003MOL0     N38327   5.052   3.223  10.091 -0.0641 -1.0203  0.0046
 1003MOL0     N38328   5.084   3.343  10.064 -0.4350  0.6365 -0.6187
 1003MOL0     C38329   5.408   4.475   9.948 -0.4460 -0.5401  0.6903
 1003MOL0     C38330   5.402   4.611   9.972  0.7531 -0.4931  0.2571
 1003MOL0     C38331   5.146   4.981  10.067 -0.3177  0.8732  0.2506
 1003MOL0     C38332   5.065   4.999  10.187  1.1221 -0.3652  0.7655
 1003MOL0     C38333   5.040   5.122  10.237  0.2422 -0.3493  1.1188
 1003MOL0     C38334   5.092   5.228  10.170 -0.1608  0.4560 -0.2874
 1003MOL0     O38335   5.072   5.346  10.232  0.4446 -0.2681 -0.8250
 1003MOL0     C38336   5.096   5.471  10.167 -0.3840 -0.4205  0.8283
 1003MOL0     C38337   4.970   5.518  10.092  0.1762  0.1495  0.0008
 1003MOL0     C38338   4.833   5.528  10.170 -0.3498  0.8284 -0.2245
 1003MOL0     C38339   4.835   5.600  10.305 -0.4756 -0.3612 -0.2001
 1003MOL0     C38340   4.861   5.744  10.303 -0.1174 -0.7586  0.0793
 1003MOL0     C38341   4.892   5.853  10.282 -0.0385  0.5190 -1.2152
 1003MOL0     C38342   5.155   5.218  10.043 -0.6302 -1.0969 -0.7642
 1003MOL0     C38343   5.180   5.093   9.997 -0.0472  0.1420  0.4413
 1003MOL0     C38344   5.285   5.080   9.885  0.2438 -0.0406  0.0500
 1003MOL0     H38345   5.150   4.691   9.770 -2.1160  0.0712  4.2908
 1003MOL0     H38346   5.182   4.454   9.691  6.0908 -2.7910 -2.5949
 1003MOL0     H38347   5.252   4.262   9.614  1.2380  0.6078 -1.1077
 1003MOL0     H38348   5.157   4.196   9.753  0.5595 -5.8445  1.6609
 1003MOL0     H38349   5.306   4.048   9.571 -2.2075  0.9579  0.2423
 1003MOL0     H38350   5.434   4.078   9.694 -0.8766  1.4262  1.7468
 1003MOL0     H38351   5.161   3.996   9.798 -1.0917 -0.8330 -2.2505
 1003MOL0     H38352   5.233   3.874   9.703  0.9896  0.7646 -1.2339
 1003MOL0     H38353   5.443   3.894   9.847 -1.5493 -0.5280 -1.0022
 1003MOL0     H38354   5.361   4.010   9.950  0.2067  0.7648 -0.3820
 1003MOL0     H38355   5.167   3.827   9.958 -0.8879  1.3676  3.0383
 1003MOL0     H38356   5.325   3.834  10.062 -0.7880  0.8452 -0.1982
 1003MOL0     H38357   5.306   3.678   9.812 -2.4879 -1.1189 -0.3825
 1003MOL0     H38358   5.422   3.659   9.950 -0.2416  1.2759 -0.1892
 1003MOL0     H38359   5.127   3.585   9.945 -0.0319  0.9621  0.9458
 1003MOL0     H38360   5.228   3.571  10.086  0.3475  1.8870 -0.2170
 1003MOL0     H38361   5.234   3.433   9.811 -2.3463 -0.1025 -0.0515
 1003MOL0     H38362   5.371   3.428   9.937  0.4181  2.1454 -2.2695
 1003MOL0     H38363   5.294   3.158   9.882  1.9288 -0.7289  1.0122
 1003MOL0     H38364   5.228   2.940  10.026 -0.5400 -0.1561  0.3053
 1003MOL0     H38365   5.098   2.952   9.909 -0.2931  2.3815  0.3606
 1003MOL0     H38366   5.045   3.002  10.198 -3.6569  3.0497 -2.3268
 1003MOL0     H38367   4.932   2.942  10.082 -1.8421 -3.7538  2.3891
 1003MOL0     H38368   5.042   2.732  10.051  0.4870 -0.4404 -0.5012
 1003MOL0     H38369   5.157   2.768  10.186 -1.2034  2.0946  2.8967
 1003MOL0     H38370   4.856   2.743  10.224  0.6567 -1.6779 -1.3408
 1003MOL0     H38371   4.954   2.622  10.257 -1.2679  0.4994 -1.9364
 1003MOL0     H38372   5.154   2.575  10.307  0.1718 -1.1965  1.0798
 1003MOL0     H38373   5.372   2.429  10.336  2.2097  0.0657  1.4624
 1003MOL0     H38374   5.281   2.320  10.457  1.6502 -1.8930 -2.8558
 1003MOL0     H38375   5.431   2.399  10.489  3.0644  0.9532 -4.5087
 1003MOL0     H38376   5.525   2.364  10.871  1.2790 -1.5135  0.9033
 1003MOL0     H38377   5.624   2.283  11.078  1.4020  1.4137 -0.0806
 1003MOL0     H38378   5.625   2.521  11.469 -2.3013 -0.3996  0.8352
 1003MOL0     H38379   5.475   2.422  11.429 -0.1460 -1.5902 -0.5258
 1003MOL0     H38380   5.595   2.338  11.625 -1.2305  1.1066 -0.6997
 1003MOL0     H38381   5.588   2.220  11.490  0.2490 -0.8252  0.8355
 1003MOL0     H38382   5.832   2.374  11.566  1.1156 -0.0680  0.3088
 1003MOL0     H38383   5.813   2.261  11.425  0.0006  2.2235 -0.6859
 1003MOL0     H38384   5.732   2.101  11.623 -0.2936  0.1871 -1.5399
 1003MOL0     H38385   5.786   2.237  11.733  1.8222 -1.6673  1.0941
 1003MOL0     H38386   6.006   2.223  11.655 -0.2750  0.9277 -2.2985
 1003MOL0     H38387   5.941   2.078  11.737 -0.8139 -0.3615 -0.2619
 1003MOL0     H38388   6.100   2.027  11.559  0.4810 -0.4476 -1.1049
 1003MOL0     H38389   5.994   2.123  11.454 -0.6167 -2.8516 -2.1806
 1003MOL0     H38390   5.835   1.974  11.426 -2.2523 -1.9608  1.4926
 1003MOL0     H38391   5.865   1.887  11.582 -0.4722  1.2144  0.3970
 1003MOL0     H38392   6.095   1.819  11.468  1.8834  2.3630 -1.5384
 1003MOL0     H38393   6.030   1.889  11.321 -0.2364 -0.1373  0.0694
 1003MOL0     H38394   5.422   2.614  11.291 -4.2954 -0.1457 -0.7874
 1003MOL0     H38395   5.302   2.666  11.080 -4.2172 -4.3881  0.5460
 1003MOL0     H38396   5.282   2.769  10.743  0.9905 -2.7009  1.1404
 1003MOL0     H38397   5.085   2.854  10.617 -0.5135 -1.5841  0.4502
 1003MOL0     H38398   5.477   4.421  10.012 -1.1743  1.4254  3.3100
 1003MOL0     H38399   5.457   4.654  10.055  1.4429 -3.5763  1.5576
 1003MOL0     H38400   5.025   4.921  10.251  0.2187  0.6648  1.5070
 1003MOL0     H38401   4.985   5.129  10.331 -3.0727  1.2830 -0.7725
 1003MOL0     H38402   5.117   5.546  10.243 -0.6337 -0.1436  0.6281
 1003MOL0     H38403   5.183   5.471  10.101  0.5091  1.1476  1.9299
 1003MOL0     H38404   4.953   5.447  10.011  0.8077 -0.8978  0.7647
 1003MOL0     H38405   4.981   5.612  10.036 -2.7314 -1.3609 -3.5581
 1003MOL0     H38406   4.747   5.568  10.117 -1.3338 -0.2128  0.5367
 1003MOL0     H38407   4.805   5.429  10.208  1.6574  0.0322 -0.6684
 1003MOL0     H38408   4.901   5.547  10.374 -1.9281  1.1154  2.4921
 1003MOL0     H38409   4.735   5.586  10.347 -1.2823 -0.9659 -2.1985
 1003MOL0     H38410   4.921   5.952  10.252 -1.2969  1.0585 -0.7332
 1003MOL0     H38411   5.207   5.296   9.988  2.0566 -1.8757  0.5380
 1003MOL0     H38412   5.253   5.010   9.808 -0.2434 -1.0455  1.1292
 1003MOL0     H38413   5.311   5.177   9.842  2.4082  1.1080  3.4819
 1003MOL0     H38414   5.379   5.036   9.922 -0.1457 -3.7580 -2.7986
 1004MOL0     O38415   2.202   5.010   5.598 -0.2028  0.4883  0.6658
 1004MOL0     C38416   2.206   4.976   5.715  0.5187 -0.3903 -0.1321
 1004MOL0     O38417   2.123   5.015   5.820  0.6668  0.6451 -0.1270
 1004MOL0     C38418   2.006   5.081   5.797  0.2606  0.0738  0.3600
 1004MOL0     C38419   1.977   5.196   5.877 -0.2688 -0.1463  0.3642
 1004MOL0     C38420   1.861   5.267   5.866 -0.2582  0.0920  0.6039
 1004MOL0     C38421   1.772   5.224   5.764 -0.4505  0.2194 -1.1167
 1004MOL0     O38422   1.651   5.287   5.759  0.2676 -0.0877  0.2286
 1004MOL0     C38423   1.644   5.399   5.663 -0.5044  0.8050 -0.2811
 1004MOL0     C38424   1.514   5.481   5.683 -0.0262  0.8724 -1.0541
 1004MOL0     C38425   1.531   5.620   5.634 -0.6779 -0.1168  0.4770
 1004MOL0     C38426   1.398   5.683   5.656  0.4493  0.3618 -0.5290
 1004MOL0     C38427   1.397   5.824   5.592  0.0744  0.1471 -0.3247
 1004MOL0     C38428   1.444   5.845   5.443 -0.8890 -0.3054  0.4152
 1004MOL0     C38429   1.432   5.995   5.396 -0.0534 -0.1387 -0.7146
 1004MOL0     C38430   1.516   6.016   5.267 -0.0847 -0.6152  0.0064
 1004MOL0     N38431   1.456   6.141   5.212  0.8009 -0.2367  0.4613
 1004MOL0     C38432   1.490   6.275   5.228  1.0209 -0.6033  0.2684
 1004MOL0     C38433   1.395   6.349   5.162 -0.0649 -0.1030 -0.3912
 1004MOL0     C38434   1.389   6.502   5.153 -0.4269 -0.5703  0.1436
 1004MOL0     C38435   1.311   6.562   5.274  0.3236  0.2176 -0.3958
 1004MOL0     C38436   1.173   6.497   5.294 -0.0655  0.0828  0.0408
 1004MOL0     C38437   1.089   6.493   5.160  0.4017  0.0347  0.5938
 1004MOL0     O38438   1.096   6.627   5.106  1.0640 -0.3387  0.6076
 1004MOL0     C38439   1.003   6.664   5.009 -0.0712 -0.6407  0.3043
 1004MOL0     C38440   1.031   6.784   4.940  0.6079 -0.2265 -0.3116
 1004MOL0     C38441   0.955   6.817   4.824 -0.4088 -0.0309 -0.4355
 1004MOL0     C38442   0.994   6.943   4.753  0.3806  0.3477 -1.0336
 1004MOL0     C38443   0.843   6.738   4.785  0.3761  0.3438  0.6827
 1004MOL0     C38444   0.762   6.757   4.656 -0.1499 -0.7074 -0.2393
 1004MOL0     O38445   0.638   6.693   4.658  0.0545 -0.1526 -0.0384
 1004MOL0     C38446   0.579   6.645   4.544  0.0389  1.1339  0.1702
 1004MOL0     C38447   0.466   6.706   4.487 -1.3291 -0.6890  0.3911
 1004MOL0     C38448   0.416   6.661   4.364 -0.2204  0.2068  0.0015
 1004MOL0     C38449   0.477   6.556   4.297 -0.1806 -1.0654 -0.2139
 1004MOL0     O38450   0.426   6.505   4.186 -0.4539  0.3355 -0.1775
 1004MOL0     C38451   0.339   6.592   4.108 -0.3934 -0.1535 -0.9096
 1004MOL0     C38452   0.307   6.508   3.988 -1.3184  0.7302 -0.0296
 1004MOL0     C38453   0.250   6.585   3.866  0.8469 -1.0804  0.6224
 1004MOL0     C38454   0.105   6.639   3.871  0.9411 -1.2138  0.0238
 1004MOL0     C38455   0.069   6.725   3.745 -0.0861  0.2516 -0.2052
 1004MOL0     C38456  -0.054   6.809   3.776 -0.6103  0.6100  0.7859
 1004MOL0     C38457  -0.097   6.898   3.664 -0.0792 -0.2377  0.2882
 1004MOL0     C38458  -0.241   6.964   3.681  0.0538  0.2562 -0.2218
 1004MOL0    Cl38459  -0.213   7.095   3.800  0.2806 -0.3882  0.1826
 1004MOL0     C38460   0.576   6.482   4.367 -0.2450 -0.2741  0.0375
 1004MOL0     C38461   0.632   6.522   4.488 -0.3586 -0.1605 -0.6227
 1004MOL0     O38462   0.812   6.825   4.567 -0.2653 -0.0234 -0.5771
 1004MOL0     C38463   0.811   6.620   4.851  0.1470 -0.5029 -0.3841
 1004MOL0     C38464   0.897   6.577   4.956 -0.0664 -0.9461  0.3957
 1004MOL0     N38465   1.305   6.257   5.107  0.1086  0.3674 -0.2373
 1004MOL0     N38466   1.330   6.139   5.148 -0.4644 -0.3283 -0.4442
 1004MOL0     C38467   1.793   5.108   5.686  0.1742  0.2479 -0.3937
 1004MOL0     C38468   1.913   5.039   5.711  0.5898  0.8704 -0.1430
 1004MOL0     C38469   2.314   4.898   5.769 -0.5203  0.7301 -0.4564
 1004MOL0     C38470   2.329   4.897   5.911 -0.0027 -0.6197 -0.4330
 1004MOL0     C38471   2.434   4.813   5.960 -1.1157  0.4105  0.3843
 1004MOL0     C38472   2.513   4.729   5.881  0.1573  0.7529  0.5457
 1004MOL0     O38473   2.625   4.672   5.938 -0.2467 -0.6693  0.0466
 1004MOL0     C38474   2.644   4.532   5.914 -0.1563 -0.2876 -0.6140
 1004MOL0     C38475   2.649   4.465   6.056  1.4802  0.6817  0.6793
 1004MOL0     C38476   2.615   4.320   6.060 -0.1609  0.2509  0.0008
 1004MOL0     C38477   2.590   4.271   6.200 -0.9340  0.0330 -0.8195
 1004MOL0     C38478   2.459   4.289   6.261 -0.0778  0.4145  0.4358
 1004MOL0     C38479   2.351   4.318   6.294  1.0673 -0.2195 -0.2560
 1004MOL0     C38480   2.482   4.721   5.746 -0.4241  0.2481  1.0177
 1004MOL0     C38481   2.390   4.802   5.687  1.1196 -0.5922  0.0106
 1004MOL0     C38482   2.385   4.799   5.540 -0.3680  0.2904 -0.1889
 1004MOL0     H38483   2.037   5.238   5.956  1.2934  0.7416 -1.2175
 1004MOL0     H38484   1.835   5.360   5.915  1.4844  0.2789  1.2144
 1004MOL0     H38485   1.647   5.352   5.565 -0.0960 -1.5446  0.7764
 1004MOL0     H38486   1.731   5.461   5.686 -0.2751 -0.5474  3.1024
 1004MOL0     H38487   1.431   5.428   5.635  0.2147  0.1188 -0.6508
 1004MOL0     H38488   1.494   5.477   5.791  1.9237  1.1001 -0.6496
 1004MOL0     H38489   1.610   5.672   5.690 -0.7304  0.9342 -0.3870
 1004MOL0     H38490   1.561   5.617   5.529  0.5425  1.8808  0.6936
 1004MOL0     H38491   1.322   5.626   5.601  0.8170  0.2150 -0.8896
 1004MOL0     H38492   1.371   5.682   5.762 -4.3240 -0.5583 -1.5184
 1004MOL0     H38493   1.460   5.887   5.656 -1.0375  0.1262  0.8247
 1004MOL0     H38494   1.296   5.865   5.590  1.4079  4.0104  1.2396
 1004MOL0     H38495   1.550   5.820   5.451 -1.1051 -1.3901 -0.0265
 1004MOL0     H38496   1.394   5.786   5.367  0.3914 -0.0912 -0.6257
 1004MOL0     H38497   1.478   6.056   5.475  0.1201 -0.1360 -0.8171
 1004MOL0     H38498   1.326   6.022   5.395  0.0494  0.4428  0.7240
 1004MOL0     H38499   1.618   6.049   5.289 -1.4417  4.5968 -0.1344
 1004MOL0     H38500   1.502   5.939   5.191  0.6636 -0.7702  0.0202
 1004MOL0     H38501   1.565   6.316   5.293 -2.3802 -0.4623  4.5853
 1004MOL0     H38502   1.350   6.524   5.054  0.0236 -1.4572 -0.2454
 1004MOL0     H38503   1.487   6.550   5.158 -0.5932 -0.2783  0.6966
 1004MOL0     H38504   1.374   6.542   5.361  0.0658  0.4537 -0.1550
 1004MOL0     H38505   1.299   6.669   5.256 -5.5662  0.2319  1.5238
 1004MOL0     H38506   1.185   6.401   5.345  4.8394  0.4750  0.0814
 1004MOL0     H38507   1.122   6.557   5.371 -3.3182 -2.2858 -0.0401
 1004MOL0     H38508   1.123   6.419   5.088  0.5126 -1.0072  1.6753
 1004MOL0     H38509   0.991   6.456   5.192  0.2635 -1.3915 -1.3381
 1004MOL0     H38510   1.112   6.848   4.971  0.4171  1.0963 -2.2929
 1004MOL0     H38511   0.910   7.013   4.743 -0.9084 -0.8943  0.5297
 1004MOL0     H38512   1.032   6.912   4.655 -2.4585  2.6411 -3.0416
 1004MOL0     H38513   1.078   6.989   4.806 -1.2298  2.9394 -0.5807
 1004MOL0     H38514   0.420   6.790   4.538  0.1733 -1.2153  2.7525
 1004MOL0     H38515   0.338   6.725   4.324  1.8835  2.2537 -1.0804
 1004MOL0     H38516   0.246   6.609   4.163  0.7987 -1.0691  1.5415
 1004MOL0     H38517   0.396   6.683   4.088 -1.1262  0.4382 -0.3721
 1004MOL0     H38518   0.402   6.462   3.960 -0.6898  0.5408  2.1919
 1004MOL0     H38519   0.235   6.430   4.016  0.3918 -0.8289  0.2157
 1004MOL0     H38520   0.256   6.525   3.775 -0.8047  0.9186 -0.9257
 1004MOL0     H38521   0.326   6.662   3.850  0.8184 -1.3981 -1.2329
 1004MOL0     H38522   0.092   6.700   3.961 -0.0426  0.5900 -1.2795
 1004MOL0     H38523   0.039   6.554   3.888  1.5385 -2.0007 -1.4132
 1004MOL0     H38524   0.146   6.791   3.706  0.9984 -1.3802 -0.9245
 1004MOL0     H38525   0.053   6.658   3.660  2.7966  3.2522 -3.3703
 1004MOL0     H38526  -0.017   6.877   3.853  2.7209  1.1914 -1.1299
 1004MOL0     H38527  -0.140   6.748   3.807 -0.3929  1.5092  3.4481
 1004MOL0     H38528  -0.094   6.844   3.569  0.1412  0.4715 -0.1136
 1004MOL0     H38529  -0.035   6.986   3.643 -2.5218  1.1073 -1.7985
 1004MOL0     H38530  -0.310   6.882   3.705  1.7118 -1.2973 -0.5220
 1004MOL0     H38531  -0.266   7.006   3.583  0.9001 -1.0041 -1.0074
 1004MOL0     H38532   0.619   6.393   4.322  3.0671  0.0413  2.2439
 1004MOL0     H38533   0.707   6.461   4.537 -0.5071  1.4688  1.7966
 1004MOL0     H38534   0.728   6.555   4.823  1.9632 -2.8046 -0.6997
 1004MOL0     H38535   0.892   6.480   5.006  0.3871 -0.9851  0.3760
 1004MOL0     H38536   1.731   5.073   5.604  0.2997 -2.1147  0.4572
 1004MOL0     H38537   1.941   4.955   5.649 -0.4595  0.6033 -0.2715
 1004MOL0     H38538   2.272   4.963   5.977 -0.6621  0.1558 -1.7336
 1004MOL0     H38539   2.456   4.801   6.066  0.0130 -2.2830 -0.0583
 1004MOL0     H38540   2.560   4.486   5.861 -2.1392  0.3102  1.8165
 1004MOL0     H38541   2.727   4.512   5.845 -2.2509 -0.2317 -3.3381
 1004MOL0     H38542   2.572   4.515   6.116 -0.0274 -2.9777  2.0810
 1004MOL0     H38543   2.742   4.490   6.107 -0.2535  0.8320  4.0521
 1004MOL0     H38544   2.524   4.312   6.000 -1.3975 -0.0977  1.8695
 1004MOL0     H38545   2.683   4.251   6.008 -1.8405 -2.0906  0.7432
 1004MOL0     H38546   2.667   4.313   6.264 -1.0624 -1.8547  0.6640
 1004MOL0     H38547   2.605   4.162   6.197  2.6109  0.4138 -2.5519
 1004MOL0     H38548   2.255   4.338   6.337  0.4153 -1.0924 -1.2720
 1004MOL0     H38549   2.529   4.648   5.680 -2.4647  0.6873 -1.0326
 1004MOL0     H38550   2.287   4.773   5.501  0.0433 -2.5704  0.4107
 1004MOL0     H38551   2.415   4.894   5.495 -1.5419  0.1506 -1.3233
 1004MOL0     H38552   2.458   4.723   5.509 -3.8162 -3.4794  0.1177
 1005MOL0     O38553   6.882   8.005   9.337  0.3880  0.5581 -0.0173
 1005MOL0     C38554   6.954   7.995   9.240 -0.2684 -0.6601  0.0906
 1005MOL0     O38555   7.080   7.950   9.247  0.5028  0.5458 -0.0419
 1005MOL0     C38556   7.127   7.912   9.371  0.5548  1.3813  0.3482
 1005MOL0     C38557   7.065   7.832   9.468  0.3175  0.7841  0.0580
 1005MOL0     C38558   7.130   7.801   9.583  0.1100 -0.4307 -0.0596
 1005MOL0     C38559   7.263   7.846   9.608 -0.1364  0.5078  0.0679
 1005MOL0     O38560   7.318   7.813   9.728 -0.6717 -0.6377 -0.2773
 1005MOL0     C38561   7.458   7.782   9.739 -0.4588 -0.2787 -0.1216
 1005MOL0     C38562   7.500   7.770   9.889  0.1035 -0.9187  0.0639
 1005MOL0     C38563   7.471   7.900   9.957 -0.2792  0.3746  1.2707
 1005MOL0     C38564   7.555   7.926  10.088 -0.1605 -0.0634  1.3617
 1005MOL0     C38565   7.477   8.010  10.192 -0.0726 -1.3269  0.7367
 1005MOL0     C38566   7.445   8.157  10.163 -1.5653 -0.3599  0.0565
 1005MOL0     C38567   7.567   8.251  10.137  1.0644 -1.0479 -0.8667
 1005MOL0     C38568   7.645   8.295  10.262  0.2187 -0.4150 -0.4880
 1005MOL0     N38569   7.765   8.204  10.290  0.7230  0.1642  0.6900
 1005MOL0     C38570   7.876   8.184  10.212  0.0943 -0.8584 -0.5756
 1005MOL0     C38571   7.926   8.058  10.240 -0.4408 -0.5401  0.6511
 1005MOL0     C38572   8.052   7.984  10.199  0.4575  0.7171 -0.4699
 1005MOL0     C38573   8.044   7.828  10.198  0.2436  0.7714 -0.1769
 1005MOL0     C38574   7.944   7.773  10.097 -0.6913 -0.1091 -0.0860
 1005MOL0     C38575   8.009   7.749   9.963  0.7910  0.3682  0.4002
 1005MOL0     O38576   8.124   7.659   9.965 -0.2252 -0.6078 -0.4447
 1005MOL0     C38577   8.101   7.525   9.959 -0.9109 -0.4142  0.8691
 1005MOL0     C38578   8.226   7.454   9.963 -0.0725 -0.0256 -0.3925
 1005MOL0     C38579   8.226   7.312   9.969 -0.0533  0.0427  0.1666
 1005MOL0     C38580   8.370   7.254   9.995  0.3485  0.0677  0.4084
 1005MOL0     C38581   8.106   7.239   9.981 -0.5787  0.2637 -0.1164
 1005MOL0     C38582   8.082   7.098  10.000  0.3167 -0.4512 -0.2316
 1005MOL0     O38583   8.192   7.013  10.019  0.1394  0.0084  0.4083
 1005MOL0     C38584   8.166   6.880  10.002  0.1693  0.6671 -0.1967
 1005MOL0     C38585   8.174   6.813   9.878 -0.0400 -0.2076 -0.0246
 1005MOL0     C38586   8.162   6.674   9.875  0.1580  0.5538 -0.1544
 1005MOL0     C38587   8.144   6.608   9.996 -0.5032 -0.4546  0.3101
 1005MOL0     O38588   8.138   6.470  10.010  0.0965 -0.3937  0.1290
 1005MOL0     C38589   8.234   6.397   9.930  0.7235 -0.5346 -0.2627
 1005MOL0     C38590   8.198   6.250   9.944  1.0274 -1.0649 -0.0188
 1005MOL0     C38591   8.073   6.207   9.867  0.0042 -0.3218 -0.2379
 1005MOL0     C38592   8.025   6.075   9.920 -0.4364  1.2308  0.3794
 1005MOL0     C38593   7.872   6.039   9.913  0.1254 -0.5869 -0.2855
 1005MOL0     C38594   7.802   6.099   9.788  0.6357 -0.0272  0.5451
 1005MOL0     C38595   7.663   6.049   9.769  0.3723  0.5442 -0.2087
 1005MOL0     C38596   7.603   6.124   9.655 -0.0048  0.3429 -0.2863
 1005MOL0    Cl38597   7.701   6.109   9.501  0.1345 -0.1324 -0.7341
 1005MOL0     C38598   8.138   6.670  10.123 -0.2906  0.8851 -0.1030
 1005MOL0     C38599   8.136   6.808  10.119 -0.0964 -0.5120 -0.2997
 1005MOL0     O38600   7.969   7.054   9.995  0.1637 -1.0513  0.2144
 1005MOL0     C38601   7.984   7.313   9.986 -0.6467 -0.6870  0.1481
 1005MOL0     C38602   7.987   7.449   9.970 -0.3537 -0.5874  0.5627
 1005MOL0     N38603   7.843   8.003  10.332  0.7607 -0.2373 -0.2998
 1005MOL0     N38604   7.748   8.092  10.361 -0.1874 -1.2493 -0.4064
 1005MOL0     C38605   7.326   7.922   9.508  0.2821 -0.7704  0.0059
 1005MOL0     C38606   7.257   7.954   9.394  0.1138  0.0820  0.6832
 1005MOL0     C38607   6.898   8.052   9.113  0.4776 -0.2165 -0.2256
 1005MOL0     C38608   6.787   8.140   9.138 -1.1827 -0.3469 -0.0902
 1005MOL0     C38609   6.748   8.226   9.035  0.2910  0.2484 -1.4502
 1005MOL0     C38610   6.803   8.232   8.907  0.7911  0.8664  0.4243
 1005MOL0     O38611   6.756   8.324   8.813 -0.1933 -0.0747 -0.3897
 1005MOL0     C38612   6.619   8.351   8.800 -0.9274  0.9782 -0.4789
 1005MOL0     C38613   6.563   8.344   8.663 -0.1791 -0.9844  0.3364
 1005MOL0     C38614   6.614   8.466   8.584  0.8572 -0.3052 -0.6748
 1005MOL0     C38615   6.523   8.504   8.464 -0.2128  1.2670 -0.0147
 1005MOL0     C38616   6.533   8.429   8.341 -0.1228  0.0598  0.6641
 1005MOL0     C38617   6.529   8.349   8.248 -0.3182  0.7666 -0.7775
 1005MOL0     C38618   6.902   8.133   8.871  0.4906 -0.1319 -0.3567
 1005MOL0     C38619   6.953   8.049   8.976  0.3656  0.5086 -0.4734
 1005MOL0     C38620   7.080   7.968   8.955 -0.4661  0.5705  0.8792
 1005MOL0     H38621   6.963   7.797   9.455 -0.7366  1.0883  5.3096
 1005MOL0     H38622   7.082   7.760   9.672 -0.2785  1.5295  0.6900
 1005MOL0     H38623   7.526   7.853   9.691 -0.1610 -2.0039 -2.4324
 1005MOL0     H38624   7.467   7.689   9.682  0.3252  1.2773 -2.7027
 1005MOL0     H38625   7.449   7.690   9.943  3.2279 -1.6712  2.1352
 1005MOL0     H38626   7.606   7.750   9.904  0.6274  3.2460  3.9530
 1005MOL0     H38627   7.485   7.982   9.886 -0.2173 -0.7901 -0.1043
 1005MOL0     H38628   7.367   7.897   9.991 -0.1740 -1.4823  1.4881
 1005MOL0     H38629   7.574   7.826  10.130  0.2752  0.5980  2.7927
 1005MOL0     H38630   7.652   7.967  10.059  0.0477 -2.8231 -2.6519
 1005MOL0     H38631   7.515   8.010  10.294 -0.5950 -0.1012  0.9534
 1005MOL0     H38632   7.383   7.955  10.196 -1.7551  0.9216 -2.6806
 1005MOL0     H38633   7.399   8.155  10.063  1.0792  0.0413 -1.2597
 1005MOL0     H38634   7.396   8.209  10.245 -1.3039  1.1392 -0.7004
 1005MOL0     H38635   7.523   8.343  10.095  0.6967  0.3389  2.2987
 1005MOL0     H38636   7.627   8.209  10.056 -0.6792 -0.9550 -2.2932
 1005MOL0     H38637   7.682   8.397  10.247 -0.6156  0.0636  0.5186
 1005MOL0     H38638   7.574   8.301  10.345  0.3286 -2.0659 -0.2420
 1005MOL0     H38639   7.920   8.259  10.147 -0.8946  0.3104  0.0512
 1005MOL0     H38640   8.112   8.028  10.280 -3.6833  1.1805  2.6682
 1005MOL0     H38641   8.087   8.007  10.098 -1.5607 -3.7839 -2.4941
 1005MOL0     H38642   8.147   7.794  10.183 -0.4447 -0.5765 -2.2313
 1005MOL0     H38643   8.014   7.791  10.297  1.3409  0.5687  0.0907
 1005MOL0     H38644   7.909   7.676  10.133  0.7874 -0.7224 -0.2246
 1005MOL0     H38645   7.862   7.844  10.080 -1.3125 -0.1463  2.3955
 1005MOL0     H38646   7.937   7.727   9.884  2.2754  3.6112 -2.1117
 1005MOL0     H38647   8.047   7.848   9.934  3.4596 -1.5102 -3.3822
 1005MOL0     H38648   8.306   7.524   9.985  0.1849 -0.8630  1.4815
 1005MOL0     H38649   8.429   7.329  10.049  1.3225 -2.1699  2.6651
 1005MOL0     H38650   8.430   7.237   9.905 -1.6227  2.7154 -1.5574
 1005MOL0     H38651   8.373   7.161  10.053  1.2352 -1.5608 -2.0980
 1005MOL0     H38652   8.204   6.873   9.793  2.9570 -1.6845 -0.1474
 1005MOL0     H38653   8.167   6.623   9.780  1.2611 -1.1655  0.7539
 1005MOL0     H38654   8.223   6.417   9.823 -0.2446  0.4363 -0.0093
 1005MOL0     H38655   8.338   6.419   9.954  1.0162 -1.1298 -0.9466
 1005MOL0     H38656   8.282   6.193   9.904  1.7876  1.1652 -1.7975
 1005MOL0     H38657   8.183   6.239  10.052 -0.3245 -2.0321 -0.2786
 1005MOL0     H38658   8.100   6.198   9.762 -0.0205  0.6011 -0.3345
 1005MOL0     H38659   7.998   6.285   9.877 -1.7819 -2.0162  0.0685
 1005MOL0     H38660   8.054   6.059  10.024  0.3036 -0.3779 -0.0516
 1005MOL0     H38661   8.078   5.996   9.866 -2.8072  1.6539 -2.9244
 1005MOL0     H38662   7.847   5.933   9.923  0.6892 -0.8587 -1.5653
 1005MOL0     H38663   7.836   6.090  10.003 -0.4024 -1.3922 -0.0267
 1005MOL0     H38664   7.862   6.080   9.698  0.2684  0.3644  0.2094
 1005MOL0     H38665   7.789   6.207   9.798 -1.6106 -0.2689  0.6525
 1005MOL0     H38666   7.600   6.064   9.857 -1.2933 -2.6815 -0.6901
 1005MOL0     H38667   7.669   5.942   9.746 -0.8803  0.6565 -1.1586
 1005MOL0     H38668   7.596   6.229   9.685 -2.0144  0.5509 -1.2935
 1005MOL0     H38669   7.501   6.084   9.648 -0.0811  0.3291  0.7052
 1005MOL0     H38670   8.138   6.604  10.209  1.8967 -0.4973 -1.0907
 1005MOL0     H38671   8.134   6.854  10.217 -0.0696 -0.1245 -0.4774
 1005MOL0     H38672   7.882   7.277   9.987 -0.6736 -0.7681 -1.7593
 1005MOL0     H38673   7.891   7.496   9.949 -0.9074 -1.9518 -0.0435
 1005MOL0     H38674   7.418   7.979   9.521 -2.2093  3.9945 -0.7381
 1005MOL0     H38675   7.311   8.018   9.324  0.3619 -0.3221  0.5048
 1005MOL0     H38676   6.733   8.156   9.231  1.4595  2.7059  1.1315
 1005MOL0     H38677   6.676   8.303   9.060  1.1849  1.4533 -2.4628
 1005MOL0     H38678   6.558   8.290   8.868 -0.9339 -0.0415 -1.3667
 1005MOL0     H38679   6.602   8.452   8.838  1.9756  1.7781 -1.0796
 1005MOL0     H38680   6.454   8.347   8.669 -0.1421 -0.5115  0.9808
 1005MOL0     H38681   6.586   8.252   8.608 -2.2495 -1.0716 -0.4473
 1005MOL0     H38682   6.632   8.559   8.640  2.8538 -2.6635  2.9910
 1005MOL0     H38683   6.716   8.445   8.549  0.7131 -0.4230 -1.0281
 1005MOL0     H38684   6.544   8.607   8.432 -0.3262  1.0814 -0.7010
 1005MOL0     H38685   6.418   8.510   8.495 -0.8438 -1.5883 -1.2901
 1005MOL0     H38686   6.540   8.279   8.168  2.2926 -0.9129  0.8521
 1005MOL0     H38687   6.953   8.143   8.776  0.5056 -1.4778 -0.5051
 1005MOL0     H38688   7.114   7.963   8.851 -1.0123 -1.9035  0.7703
 1005MOL0     H38689   7.163   7.994   9.022  0.1238 -0.3654  0.5258
 1005MOL0     H38690   7.050   7.864   8.970 -1.2711  0.2550 -2.1755
 1006MOL0     O38691   2.418   2.897   2.251 -0.7537 -0.3618 -0.9711
 1006MOL0     C38692   2.422   2.822   2.157  0.1413 -0.3242 -0.6856
 1006MOL0     O38693   2.540   2.760   2.119  0.3795 -0.4233 -0.2209
 1006MOL0     C38694   2.666   2.783   2.161 -1.3330  0.0922 -0.3808
 1006MOL0     C38695   2.698   2.776   2.293  0.2335 -0.3368 -0.4572
 1006MOL0     C38696   2.827   2.774   2.341 -0.2145 -0.2119  1.2550
 1006MOL0     C38697   2.928   2.772   2.241  0.1887 -0.6089 -0.8144
 1006MOL0     O38698   3.058   2.765   2.286  0.2380 -1.5018 -0.4748
 1006MOL0     C38699   3.113   2.638   2.336 -0.7409  0.2851 -0.6242
 1006MOL0     C38700   3.161   2.549   2.221 -0.6560 -0.0979  0.1485
 1006MOL0     C38701   3.042   2.473   2.168 -0.1963 -0.5420  0.7528
 1006MOL0     C38702   3.079   2.396   2.039  0.2061  1.0348 -0.4023
 1006MOL0     C38703   2.959   2.312   2.006 -0.6980  0.1178 -0.2441
 1006MOL0     C38704   2.975   2.219   1.878  0.3469  1.1080 -0.3512
 1006MOL0     C38705   3.052   2.295   1.762 -0.3936  0.4421  0.6045
 1006MOL0     C38706   3.030   2.202   1.638 -0.1959  0.5575  1.4292
 1006MOL0     N38707   3.060   2.263   1.508  0.0373  0.3149 -0.2966
 1006MOL0     C38708   3.182   2.308   1.474 -0.4187 -0.3679 -0.4534
 1006MOL0     C38709   3.169   2.333   1.335 -0.3697 -0.2298 -0.4570
 1006MOL0     C38710   3.276   2.372   1.242  0.7668 -0.1157  0.3505
 1006MOL0     C38711   3.290   2.520   1.210 -0.5504  0.7445 -0.4842
 1006MOL0     C38712   3.289   2.602   1.334 -0.5483 -0.1285 -0.2905
 1006MOL0     C38713   3.297   2.753   1.311 -0.3191  0.6950 -0.2616
 1006MOL0     O38714   3.181   2.813   1.255  0.3819 -0.1656 -0.3206
 1006MOL0     C38715   3.111   2.917   1.311  0.2527 -1.1777  0.6604
 1006MOL0     C38716   2.984   2.937   1.273 -0.3915  0.1882  1.3829
 1006MOL0     C38717   2.898   3.028   1.333 -0.1361  0.1620 -0.3838
 1006MOL0     C38718   2.751   3.011   1.291 -0.3613 -0.4032  1.2929
 1006MOL0     C38719   2.949   3.120   1.431  0.3404 -0.3570 -0.1850
 1006MOL0     C38720   2.864   3.230   1.486 -0.8484 -0.7364 -0.5502
 1006MOL0     O38721   2.726   3.205   1.488 -0.9709 -0.3411  0.5211
 1006MOL0     C38722   2.650   3.300   1.549 -0.3434  0.4778  0.9699
 1006MOL0     C38723   2.545   3.253   1.627 -0.8537  1.1510  0.3481
 1006MOL0     C38724   2.451   3.330   1.688 -0.2590  0.2768  0.4306
 1006MOL0     C38725   2.460   3.472   1.685 -0.1107  0.2118 -0.5183
 1006MOL0     O38726   2.395   3.569   1.755  0.2311  0.2952 -0.8684
 1006MOL0     C38727   2.262   3.534   1.782  0.0755 -0.1802 -0.1796
 1006MOL0     C38728   2.176   3.545   1.654  0.3325 -0.0633  0.0293
 1006MOL0     C38729   2.245   3.630   1.538 -0.1608  0.4966 -0.4847
 1006MOL0     C38730   2.138   3.651   1.432 -0.1333  0.1850  0.2077
 1006MOL0     C38731   2.207   3.685   1.295  0.0728  0.3719 -0.0623
 1006MOL0     C38732   2.114   3.730   1.188 -0.2440  0.1773  0.4713
 1006MOL0     C38733   2.010   3.836   1.223 -0.1117  0.1843 -0.6259
 1006MOL0     C38734   1.951   3.925   1.111 -0.2796 -0.0303  0.0928
 1006MOL0    Cl38735   1.877   4.076   1.185 -0.0186  0.3253  0.0903
 1006MOL0     C38736   2.566   3.526   1.609 -0.3458 -0.2373 -0.0641
 1006MOL0     C38737   2.660   3.446   1.543  0.6916  0.3949  0.3321
 1006MOL0     O38738   2.923   3.316   1.550  0.2205  0.6525  0.2154
 1006MOL0     C38739   3.084   3.110   1.474 -0.7387 -0.5182  0.0193
 1006MOL0     C38740   3.160   3.006   1.413  0.8130  0.4990  0.2875
 1006MOL0     N38741   3.042   2.297   1.296  0.6045 -0.1130  0.0786
 1006MOL0     N38742   2.983   2.264   1.403 -0.6591  0.2657  0.2592
 1006MOL0     C38743   2.898   2.770   2.110 -0.8463  0.2631  0.0303
 1006MOL0     C38744   2.765   2.787   2.066  0.2906  0.2743 -0.0416
 1006MOL0     C38745   2.300   2.785   2.082  0.2069 -0.5535 -0.1786
 1006MOL0     C38746   2.316   2.715   1.964 -0.4167 -0.8090 -0.0438
 1006MOL0     C38747   2.214   2.682   1.873 -0.3415  0.6083  0.2404
 1006MOL0     C38748   2.089   2.728   1.897 -0.5292  0.0416  0.6234
 1006MOL0     O38749   1.989   2.697   1.807 -0.0540 -0.1165 -0.1582
 1006MOL0     C38750   1.882   2.801   1.778 -0.0910 -0.1485  0.0330
 1006MOL0     C38751   1.759   2.717   1.753  0.4195 -0.4569  0.3672
 1006MOL0     C38752   1.646   2.796   1.705  1.2599  0.0580  0.2508
 1006MOL0     C38753   1.565   2.865   1.819 -1.3062 -0.3384  0.2181
 1006MOL0     C38754   1.652   2.982   1.864  0.3712  0.0239  0.5596
 1006MOL0     C38755   1.719   3.080   1.899  0.5771  0.4912  0.0038
 1006MOL0     C38756   2.075   2.795   2.012 -0.1563 -0.3803  0.3276
 1006MOL0     C38757   2.167   2.830   2.112 -0.5629 -0.0021 -0.4094
 1006MOL0     C38758   2.131   2.921   2.231 -0.1858 -0.1140 -0.3204
 1006MOL0     H38759   2.622   2.772   2.371 -1.8350  0.6957 -2.3296
 1006MOL0     H38760   2.845   2.757   2.447 -2.1399 -0.2937  1.6028
 1006MOL0     H38761   3.042   2.587   2.401 -2.3698  0.0953 -2.4697
 1006MOL0     H38762   3.195   2.671   2.401 -1.7762  1.5489  0.0801
 1006MOL0     H38763   3.191   2.613   2.137 -3.5759  0.2829 -0.7353
 1006MOL0     H38764   3.229   2.471   2.255  0.9294  0.3130 -1.8565
 1006MOL0     H38765   2.999   2.397   2.234 -1.0778 -1.1779 -0.5222
 1006MOL0     H38766   2.958   2.537   2.139 -0.1228 -0.8069 -0.0796
 1006MOL0     H38767   3.116   2.462   1.960 -0.0983  1.8020  0.0801
 1006MOL0     H38768   3.174   2.344   2.057  0.2326  0.9794 -0.6966
 1006MOL0     H38769   2.876   2.381   1.985 -1.2752 -0.6674 -0.5856
 1006MOL0     H38770   2.921   2.252   2.089  0.2128 -1.0815 -0.6544
 1006MOL0     H38771   3.041   2.133   1.887  0.5994  1.2659 -0.6440
 1006MOL0     H38772   2.874   2.190   1.851 -0.3261 -0.5376  3.4058
 1006MOL0     H38773   3.156   2.300   1.795 -0.8537 -2.0336  2.8676
 1006MOL0     H38774   3.010   2.395   1.749  0.0772  0.9407  2.5291
 1006MOL0     H38775   3.087   2.108   1.642 -1.1219 -0.2588 -1.5997
 1006MOL0     H38776   2.924   2.175   1.632 -0.0378  0.3232 -1.8691
 1006MOL0     H38777   3.272   2.325   1.533 -0.1649 -1.3476 -0.5358
 1006MOL0     H38778   3.251   2.333   1.142  1.4707  2.0594 -0.7449
 1006MOL0     H38779   3.370   2.326   1.273  2.0104  2.8571  1.3424
 1006MOL0     H38780   3.380   2.530   1.150  2.0675  0.8850  3.1495
 1006MOL0     H38781   3.213   2.562   1.145 -0.2872  0.2159 -1.1503
 1006MOL0     H38782   3.199   2.592   1.396  0.0469 -0.9824  0.4529
 1006MOL0     H38783   3.384   2.595   1.387 -0.3636  1.8391 -0.2594
 1006MOL0     H38784   3.318   2.803   1.406  2.1655  1.3796 -1.0825
 1006MOL0     H38785   3.384   2.769   1.247 -0.3296 -0.5110 -0.6021
 1006MOL0     H38786   2.950   2.876   1.190 -0.8647 -0.1675  1.8294
 1006MOL0     H38787   2.733   2.937   1.212 -2.6190 -0.0167  1.3915
 1006MOL0     H38788   2.708   3.107   1.263  1.3665  0.0465 -0.0669
 1006MOL0     H38789   2.696   2.974   1.378 -2.9207  0.5266  0.1649
 1006MOL0     H38790   2.522   3.148   1.641  1.8600  0.6058  1.3530
 1006MOL0     H38791   2.372   3.291   1.751  0.2690  1.9001  2.2128
 1006MOL0     H38792   2.254   3.436   1.830 -1.1050  1.2072  2.6947
 1006MOL0     H38793   2.220   3.611   1.848 -4.7998 -1.4886 -1.3463
 1006MOL0     H38794   2.143   3.444   1.632 -0.0123 -0.6992  2.9600
 1006MOL0     H38795   2.085   3.593   1.692  1.8304  0.2028  3.7179
 1006MOL0     H38796   2.325   3.564   1.505 -0.6417 -1.4990  2.0027
 1006MOL0     H38797   2.284   3.727   1.569  3.2998 -0.9893  0.2281
 1006MOL0     H38798   2.080   3.736   1.470 -0.9707 -1.0988  1.9349
 1006MOL0     H38799   2.065   3.571   1.419 -0.9289  0.7247  1.2567
 1006MOL0     H38800   2.278   3.766   1.312 -0.9401  1.2113  0.2576
 1006MOL0     H38801   2.265   3.595   1.271 -0.5882 -0.5813  1.7174
 1006MOL0     H38802   2.050   3.642   1.179  1.8744 -1.2660 -1.4915
 1006MOL0     H38803   2.175   3.752   1.100  3.8229  1.7647  3.3748
 1006MOL0     H38804   2.053   3.904   1.297  3.4580 -2.9763  0.5880
 1006MOL0     H38805   1.927   3.781   1.268 -0.9331  1.9910  0.1373
 1006MOL0     H38806   1.868   3.873   1.062 -0.0503  0.1245 -0.4751
 1006MOL0     H38807   2.028   3.964   1.044  0.7954  1.0174  1.8724
 1006MOL0     H38808   2.565   3.634   1.595 -1.0310 -0.2515 -0.1797
 1006MOL0     H38809   2.735   3.490   1.478  3.3924 -0.1459  2.8692
 1006MOL0     H38810   3.134   3.177   1.543 -1.6508  0.2841 -0.0668
 1006MOL0     H38811   3.262   2.991   1.448  1.1661  0.2252 -0.8343
 1006MOL0     H38812   2.979   2.757   2.039 -1.1558  0.8366 -0.4404
 1006MOL0     H38813   2.742   2.785   1.960 -0.5636 -0.7089  0.1499
 1006MOL0     H38814   2.420   2.698   1.937 -0.0853  2.0710 -0.8416
 1006MOL0     H38815   2.231   2.635   1.777 -2.3467 -0.4174  0.3269
 1006MOL0     H38816   1.884   2.877   1.857  0.6633 -0.1381  0.0124
 1006MOL0     H38817   1.918   2.844   1.684  0.9273 -1.3760 -0.1694
 1006MOL0     H38818   1.724   2.675   1.847 -0.9660 -0.1718  0.0033
 1006MOL0     H38819   1.774   2.638   1.678  0.0829  1.3675 -1.7397
 1006MOL0     H38820   1.677   2.881   1.642  2.6199 -0.7664 -0.2421
 1006MOL0     H38821   1.564   2.737   1.662 -0.8435  3.0513 -0.1373
 1006MOL0     H38822   1.541   2.804   1.906 -4.4317 -0.8308 -0.8726
 1006MOL0     H38823   1.468   2.901   1.783 -0.9445  2.3967  1.6685
 1006MOL0     H38824   1.787   3.160   1.921  3.7923 -1.7994 -0.9540
 1006MOL0     H38825   1.980   2.842   2.038  1.4859  2.3082  1.9334
 1006MOL0     H38826   2.197   3.008   2.222 -1.1804  0.5567 -1.4813
 1006MOL0     H38827   2.031   2.962   2.245 -0.2833 -0.1581 -0.8571
 1006MOL0     H38828   2.158   2.877   2.328 -1.4246 -0.3452 -0.0694
 1007MOL0     O38829   2.035   7.764   7.235 -0.1615 -0.2448 -0.9287
 1007MOL0     C38830   1.954   7.825   7.305 -0.4351 -1.1060  0.0074
 1007MOL0     O38831   1.950   7.960   7.316  0.5073 -0.5706  0.1887
 1007MOL0     C38832   2.049   8.050   7.284  0.6313  0.3711  0.3672
 1007MOL0     C38833   2.013   8.168   7.231  1.8460 -0.2602  0.0216
 1007MOL0     C38834   2.108   8.265   7.181 -0.6320  0.3116  0.0517
 1007MOL0     C38835   2.241   8.228   7.186 -0.0115  0.1801  0.6415
 1007MOL0     O38836   2.337   8.306   7.126  0.0707  0.1712 -0.2498
 1007MOL0     C38837   2.466   8.312   7.183 -0.6626  0.4306  0.1392
 1007MOL0     C38838   2.467   8.440   7.272  0.7668  0.4730 -0.2745
 1007MOL0     C38839   2.618   8.507   7.298  0.2670  0.2505 -0.9342
 1007MOL0     C38840   2.677   8.572   7.178 -0.0650 -0.2009  0.2191
 1007MOL0     C38841   2.832   8.572   7.196 -0.3372 -0.1465  0.6869
 1007MOL0     C38842   2.871   8.691   7.299 -0.3744  0.0186  0.4518
 1007MOL0     C38843   3.013   8.719   7.277  0.6520  0.2378  0.5052
 1007MOL0     C38844   3.107   8.610   7.333 -1.2218 -0.1732  0.2407
 1007MOL0     N38845   3.251   8.646   7.322 -0.5861  0.7600 -0.4679
 1007MOL0     C38846   3.310   8.713   7.423 -0.1638 -0.2374 -0.7901
 1007MOL0     C38847   3.441   8.703   7.397  0.2216 -0.0291 -1.1084
 1007MOL0     C38848   3.557   8.760   7.470 -0.1572  0.3097 -0.0695
 1007MOL0     C38849   3.671   8.662   7.513  0.0121 -0.9995 -0.0536
 1007MOL0     C38850   3.769   8.727   7.619  0.9624 -0.8361 -0.0325
 1007MOL0     C38851   3.865   8.618   7.687  0.2778  0.0550  0.2803
 1007MOL0     O38852   3.958   8.687   7.769 -0.2871 -0.3374  0.9248
 1007MOL0     C38853   4.068   8.754   7.708 -0.0503  0.1529 -0.5347
 1007MOL0     C38854   4.123   8.732   7.582  0.1874 -0.8927 -0.3719
 1007MOL0     C38855   4.216   8.819   7.535  0.7159  0.0034  0.6998
 1007MOL0     C38856   4.255   8.806   7.394 -0.8168 -0.5916 -0.2074
 1007MOL0     C38857   4.274   8.916   7.624 -0.6241  0.4420 -0.3180
 1007MOL0     C38858   4.389   9.006   7.591  1.5754 -0.4725  0.2715
 1007MOL0     O38859   4.460   9.050   7.696 -0.4785  0.8511  0.9386
 1007MOL0     C38860   4.568   9.140   7.672  0.7769  0.0730 -0.0603
 1007MOL0     C38861   4.560   9.278   7.711 -0.6583  0.4839 -0.6933
 1007MOL0     C38862   4.669   9.366   7.683  0.2522  0.6846  0.6112
 1007MOL0     C38863   4.791   9.319   7.621  0.6533 -0.6640 -0.0395
 1007MOL0     O38864   4.897   9.390   7.580 -0.1979 -0.5246 -0.5444
 1007MOL0     C38865   4.919   9.518   7.643 -0.8908  0.3273 -0.0459
 1007MOL0     C38866   5.068   9.563   7.608  0.0916 -0.6760  0.5542
 1007MOL0     C38867   5.167   9.447   7.612 -0.5180  0.4511 -0.3317
 1007MOL0     C38868   5.311   9.494   7.595 -0.4682  0.2117  0.1644
 1007MOL0     C38869   5.387   9.372   7.560 -0.6713 -0.0160  0.3089
 1007MOL0     C38870   5.543   9.383   7.542 -0.1360 -0.6438  0.5297
 1007MOL0     C38871   5.631   9.263   7.488  0.2190 -0.2620  0.3265
 1007MOL0     C38872   5.646   9.140   7.582  0.6161 -0.0125 -0.3477
 1007MOL0    Cl38873   5.687   9.009   7.478 -0.1679  0.0646  0.3970
 1007MOL0     C38874   4.787   9.180   7.585 -0.0155  0.4172 -0.2806
 1007MOL0     C38875   4.678   9.090   7.613  0.0747 -0.1135 -0.1873
 1007MOL0     O38876   4.417   9.039   7.476 -0.0074  0.3965  0.7288
 1007MOL0     C38877   4.231   8.927   7.749 -0.2856  0.9782 -0.3489
 1007MOL0     C38878   4.125   8.845   7.795 -0.6103 -1.5593 -0.0113
 1007MOL0     N38879   3.460   8.615   7.281  0.2157 -0.0481 -0.4399
 1007MOL0     N38880   3.341   8.595   7.236 -0.0087  0.4451  0.8829
 1007MOL0     C38881   2.276   8.101   7.237  0.0773 -0.0007 -0.6288
 1007MOL0     C38882   2.185   8.013   7.290 -0.5449 -0.4846  1.0615
 1007MOL0     C38883   1.859   7.756   7.395 -0.3671  0.5954  0.3265
 1007MOL0     C38884   1.845   7.804   7.519  0.2470  0.5615  0.1704
 1007MOL0     C38885   1.745   7.763   7.599  0.6747 -0.2605  0.0478
 1007MOL0     C38886   1.659   7.661   7.562  0.2476  0.2791  0.3391
 1007MOL0     O38887   1.552   7.618   7.630  0.4228  0.6873  0.0324
 1007MOL0     C38888   1.579   7.500   7.707 -0.2665  0.1954 -0.2667
 1007MOL0     C38889   1.459   7.402   7.709 -0.1774  0.1426  0.2330
 1007MOL0     C38890   1.441   7.317   7.572  0.3712  0.0433 -0.4444
 1007MOL0     C38891   1.339   7.203   7.597 -0.5910  1.1553  0.2701
 1007MOL0     C38892   1.391   7.082   7.519  0.1218 -0.0721 -0.2095
 1007MOL0     C38893   1.438   6.987   7.462 -0.0494 -0.1354 -0.5034
 1007MOL0     C38894   1.681   7.604   7.442  0.7995  0.4261 -1.0292
 1007MOL0     C38895   1.777   7.647   7.360  0.0633 -0.0034  0.6710
 1007MOL0     C38896   1.769   7.595   7.215  0.1989  0.7717 -0.1572
 1007MOL0     H38897   1.906   8.185   7.225  2.0454  1.0877  0.1363
 1007MOL0     H38898   2.082   8.355   7.128  1.3346 -0.8749 -3.1650
 1007MOL0     H38899   2.545   8.322   7.108 -1.9792 -3.2595 -1.9826
 1007MOL0     H38900   2.496   8.220   7.234  0.0192  0.6245  0.1031
 1007MOL0     H38901   2.408   8.521   7.230  0.6352 -0.8195 -2.7609
 1007MOL0     H38902   2.417   8.403   7.362 -1.4008  0.6709 -1.3522
 1007MOL0     H38903   2.610   8.577   7.382  0.4712  0.4486 -1.0769
 1007MOL0     H38904   2.674   8.422   7.337 -2.6052 -1.3394  0.0015
 1007MOL0     H38905   2.659   8.516   7.085 -0.8174  0.1261  0.1572
 1007MOL0     H38906   2.627   8.668   7.163 -0.1390 -0.4335 -1.1876
 1007MOL0     H38907   2.877   8.589   7.098 -2.7035  1.9159 -0.1373
 1007MOL0     H38908   2.866   8.475   7.234  2.4170  0.0537 -0.9693
 1007MOL0     H38909   2.825   8.789   7.283  0.4681  0.2768 -0.5502
 1007MOL0     H38910   2.850   8.659   7.401 -0.3825 -2.1841 -0.1864
 1007MOL0     H38911   3.025   8.811   7.334  2.5345  1.6394 -1.9656
 1007MOL0     H38912   3.034   8.748   7.174 -0.2700  2.6767  0.9333
 1007MOL0     H38913   3.098   8.582   7.438  0.3649  2.6385  1.2268
 1007MOL0     H38914   3.103   8.514   7.281  3.1690 -0.1900 -0.4535
 1007MOL0     H38915   3.267   8.764   7.509  0.1061  0.1227 -0.8688
 1007MOL0     H38916   3.510   8.804   7.559 -3.1704  3.8243 -3.0476
 1007MOL0     H38917   3.591   8.838   7.401  0.7740 -1.3910 -1.6084
 1007MOL0     H38918   3.626   8.571   7.554 -0.3268  0.2035  2.4439
 1007MOL0     H38919   3.740   8.650   7.429  0.2290 -0.6545  0.0693
 1007MOL0     H38920   3.832   8.801   7.568  0.1004 -0.2991 -0.3418
 1007MOL0     H38921   3.698   8.770   7.690  1.8927  2.0560 -0.7198
 1007MOL0     H38922   3.818   8.533   7.738  2.2824 -2.4340 -1.7526
 1007MOL0     H38923   3.922   8.565   7.610  0.3692  0.2403  0.2218
 1007MOL0     H38924   4.085   8.650   7.523  0.1511  0.7322 -2.7091
 1007MOL0     H38925   4.242   8.897   7.333  2.0620  0.4066  0.5184
 1007MOL0     H38926   4.197   8.726   7.347 -1.7681 -0.0122 -0.0534
 1007MOL0     H38927   4.361   8.778   7.397 -1.4912 -3.2843  0.3124
 1007MOL0     H38928   4.468   9.322   7.747 -1.5504 -2.8175  1.4684
 1007MOL0     H38929   4.672   9.474   7.699  0.6511  0.8617 -0.5578
 1007MOL0     H38930   4.846   9.593   7.612 -2.0495 -0.5963  0.3817
 1007MOL0     H38931   4.911   9.512   7.752  0.2726  1.8475  0.1660
 1007MOL0     H38932   5.078   9.599   7.506  0.4759  0.0374  0.8400
 1007MOL0     H38933   5.094   9.640   7.682  2.4906 -1.0012  0.1273
 1007MOL0     H38934   5.144   9.390   7.521 -0.2078 -1.3563  0.6696
 1007MOL0     H38935   5.152   9.385   7.701  3.1179  0.8717  0.7661
 1007MOL0     H38936   5.353   9.550   7.680 -2.7632  0.9627  0.8816
 1007MOL0     H38937   5.304   9.570   7.517  0.2405  4.0450  3.4598
 1007MOL0     H38938   5.375   9.294   7.635  0.6565 -0.6765 -0.1312
 1007MOL0     H38939   5.340   9.348   7.465 -1.3099  0.0305  0.6050
 1007MOL0     H38940   5.588   9.420   7.635  0.1403  0.4270 -0.0205
 1007MOL0     H38941   5.554   9.458   7.464  0.1560  0.8491  1.9492
 1007MOL0     H38942   5.729   9.293   7.451  0.2837 -1.2649 -0.3612
 1007MOL0     H38943   5.575   9.216   7.407 -0.0317  1.8777 -0.8129
 1007MOL0     H38944   5.555   9.122   7.641  1.3922 -0.4539  0.7460
 1007MOL0     H38945   5.722   9.153   7.659  0.6910 -1.0462 -0.2341
 1007MOL0     H38946   4.875   9.140   7.537 -1.1543  0.5538 -2.6609
 1007MOL0     H38947   4.697   8.989   7.579  2.3856  0.7311 -1.6220
 1007MOL0     H38948   4.276   9.000   7.815  2.5871  1.3591 -2.5482
 1007MOL0     H38949   4.083   8.869   7.893  0.6809  1.2623 -0.0564
 1007MOL0     H38950   2.378   8.065   7.226  0.6813  1.6852 -0.8738
 1007MOL0     H38951   2.223   7.915   7.318  3.5139 -0.2405 -2.5988
 1007MOL0     H38952   1.904   7.889   7.553  2.2420  0.5868 -2.9845
 1007MOL0     H38953   1.722   7.822   7.687 -1.0908 -0.0523 -0.5260
 1007MOL0     H38954   1.662   7.434   7.678 -0.8435 -2.1360  2.8557
 1007MOL0     H38955   1.603   7.545   7.803  2.5248  0.7047 -1.1145
 1007MOL0     H38956   1.364   7.455   7.721 -1.8989 -2.2779 -1.7379
 1007MOL0     H38957   1.474   7.338   7.796 -2.5260 -2.0185 -0.8409
 1007MOL0     H38958   1.399   7.377   7.490 -0.2928 -2.2767 -1.8827
 1007MOL0     H38959   1.537   7.283   7.533 -0.1925  0.0361 -1.9079
 1007MOL0     H38960   1.247   7.235   7.548 -0.7450 -0.5712 -0.6311
 1007MOL0     H38961   1.325   7.181   7.704  0.3510 -2.8820 -0.2763
 1007MOL0     H38962   1.473   6.894   7.421 -0.7869  0.0414 -1.5618
 1007MOL0     H38963   1.598   7.543   7.406  0.2798 -0.3670  1.3421
 1007MOL0     H38964   1.679   7.637   7.169 -0.9774  0.3476  1.6466
 1007MOL0     H38965   1.855   7.625   7.154  1.4036  1.0080  1.5773
 1007MOL0     H38966   1.747   7.488   7.206 -1.5428  1.1191 -0.3540
 1008MOL0     O38967   4.709  10.693   5.442  0.5204  0.5245  0.1468
 1008MOL0     C38968   4.678  10.568   5.434 -1.2124 -0.8429 -0.3481
 1008MOL0     O38969   4.571  10.503   5.496 -0.1645 -0.1853 -0.6298
 1008MOL0     C38970   4.515  10.561   5.605  0.4280  0.4730 -0.5092
 1008MOL0     C38971   4.591  10.615   5.705 -0.4011 -1.2390 -0.3132
 1008MOL0     C38972   4.534  10.685   5.814  0.6317  0.6429  0.1366
 1008MOL0     C38973   4.395  10.702   5.810 -0.2703 -0.3673  1.0486
 1008MOL0     O38974   4.328  10.765   5.909  0.1439  0.5322 -0.3576
 1008MOL0     C38975   4.348  10.737   6.058  0.5105  0.1889 -0.3860
 1008MOL0     C38976   4.301  10.851   6.144  0.5595  1.4951  0.3527
 1008MOL0     C38977   4.145  10.880   6.129 -0.0177 -0.6510 -0.2225
 1008MOL0     C38978   4.108  10.979   6.233  0.9498  0.3662 -0.6653
 1008MOL0     C38979   3.966  11.041   6.218  0.1042  0.7204 -0.6998
 1008MOL0     C38980   3.955  11.150   6.108 -0.9413 -0.4829  0.2355
 1008MOL0     C38981   3.830  11.227   6.116  0.0468  0.2938 -0.3909
 1008MOL0     C38982   3.843  11.338   6.020 -0.6109  0.3620  0.2454
 1008MOL0     N38983   3.745  11.441   6.023 -0.5129 -0.6480 -0.2020
 1008MOL0     C38984   3.612  11.429   6.023  0.5569 -1.1537  0.0816
 1008MOL0     C38985   3.572  11.558   6.031  0.7061 -0.3860  0.4183
 1008MOL0     C38986   3.429  11.597   6.054  0.5892 -0.1819 -0.8282
 1008MOL0     C38987   3.374  11.682   5.950  0.1339 -0.3672  0.2995
 1008MOL0     C38988   3.219  11.713   5.962  0.7093  0.1170  0.1066
 1008MOL0     C38989   3.133  11.586   5.932 -0.6387 -0.7400 -0.8010
 1008MOL0     O38990   3.122  11.503   6.046  0.0486  0.6849 -0.5495
 1008MOL0     C38991   3.027  11.528   6.147 -0.0364  0.2626 -0.1282
 1008MOL0     C38992   3.050  11.513   6.288 -0.2554  0.3702  0.6500
 1008MOL0     C38993   2.950  11.521   6.386 -0.2647 -0.3035  0.8226
 1008MOL0     C38994   3.000  11.483   6.520  0.0789  1.1222  0.1305
 1008MOL0     C38995   2.817  11.543   6.351  0.5538  0.0310  0.6981
 1008MOL0     C38996   2.705  11.554   6.439  1.1746  0.3406 -0.2150
 1008MOL0     O38997   2.579  11.557   6.397  0.6330  0.0204  0.9522
 1008MOL0     C38998   2.472  11.616   6.463  0.0625 -0.2559 -0.2080
 1008MOL0     C38999   2.487  11.721   6.549 -0.0661  0.6503  0.9329
 1008MOL0     C39000   2.372  11.785   6.594 -0.8806  0.1326 -0.3918
 1008MOL0     C39001   2.244  11.745   6.560  0.5591 -0.0707  0.4790
 1008MOL0     O39002   2.139  11.814   6.614  1.2640  0.0417 -0.6300
 1008MOL0     C39003   2.001  11.780   6.592 -0.3218  0.2216  0.1446
 1008MOL0     C39004   1.903  11.906   6.591  0.1251 -0.1897 -0.2200
 1008MOL0     C39005   1.774  11.880   6.501 -0.2265 -0.5217  0.4467
 1008MOL0     C39006   1.651  11.827   6.575  0.0644 -0.1269  0.1749
 1008MOL0     C39007   1.516  11.834   6.488  0.6844 -0.2446 -0.3635
 1008MOL0     C39008   1.393  11.841   6.577 -0.0526 -0.8936 -0.6387
 1008MOL0     C39009   1.260  11.835   6.514  0.8083 -1.0085  0.2764
 1008MOL0     C39010   1.160  11.729   6.571 -0.0064 -0.0117  1.0198
 1008MOL0    Cl39011   1.010  11.753   6.484  0.0237 -0.2032  0.0867
 1008MOL0     C39012   2.233  11.639   6.475  0.2792 -0.2422  0.6336
 1008MOL0     C39013   2.345  11.578   6.422 -0.0984  0.4861 -0.8803
 1008MOL0     O39014   2.731  11.567   6.560  0.5584 -0.1863 -0.0872
 1008MOL0     C39015   2.794  11.566   6.211 -0.2013 -0.9244  0.1815
 1008MOL0     C39016   2.888  11.561   6.104  0.1902  0.0344  0.0280
 1008MOL0     N39017   3.677  11.648   6.010  0.6960 -0.4333 -0.1576
 1008MOL0     N39018   3.783  11.579   6.007  0.0892  0.8795  0.6139
 1008MOL0     C39019   4.319  10.643   5.698  0.0897  0.4113 -0.4719
 1008MOL0     C39020   4.383  10.572   5.594  0.2199 -0.0361  0.2349
 1008MOL0     C39021   4.755  10.482   5.336  0.0071  0.3573  0.6303
 1008MOL0     C39022   4.728  10.345   5.335  0.8094  0.6856  0.0139
 1008MOL0     C39023   4.770  10.258   5.242 -0.2688  0.6075  0.3541
 1008MOL0     C39024   4.847  10.309   5.136 -0.4116 -0.4018  0.6628
 1008MOL0     O39025   4.877  10.241   5.018 -0.2337 -0.3681  0.4344
 1008MOL0     C39026   4.891  10.096   5.027 -0.0921 -0.3993 -0.2403
 1008MOL0     C39027   4.885  10.029   4.887 -0.8544  0.7665  0.7529
 1008MOL0     C39028   4.771   9.926   4.870  0.1421 -0.5174  0.1519
 1008MOL0     C39029   4.624   9.967   4.877  0.3841  0.1851  0.6737
 1008MOL0     C39030   4.580  10.017   5.005  0.9676 -1.4180  0.4520
 1008MOL0     C39031   4.548  10.073   5.106  0.1543  0.5408  0.2000
 1008MOL0     C39032   4.895  10.437   5.143 -0.5597 -0.1633  0.9618
 1008MOL0     C39033   4.854  10.527   5.239 -0.2407 -1.2009 -0.6635
 1008MOL0     C39034   4.902  10.670   5.234 -0.7308  0.4543 -0.2841
 1008MOL0     H39035   4.699  10.616   5.694 -0.5821 -0.8439 -2.8030
 1008MOL0     H39036   4.590  10.745   5.885  0.6474  0.9449 -0.1300
 1008MOL0     H39037   4.452  10.711   6.078 -0.0612 -2.5628 -0.4652
 1008MOL0     H39038   4.285  10.650   6.081 -0.0156  0.9117  1.0249
 1008MOL0     H39039   4.325  10.836   6.249  4.5184  4.2484  0.0511
 1008MOL0     H39040   4.349  10.946   6.119  0.0055  1.2460 -1.8798
 1008MOL0     H39041   4.131  10.914   6.026  0.1377 -0.7501 -0.2777
 1008MOL0     H39042   4.086  10.788   6.131 -1.9723  0.5181 -1.0900
 1008MOL0     H39043   4.094  10.912   6.318  1.5534  0.6538 -0.3412
 1008MOL0     H39044   4.179  11.058   6.256 -0.5565  1.0570  2.0493
 1008MOL0     H39045   3.924  11.061   6.317 -0.0339 -0.9305 -0.3984
 1008MOL0     H39046   3.900  10.960   6.185  0.7945 -0.1599  0.0396
 1008MOL0     H39047   4.038  11.220   6.123 -1.1282 -0.5540  1.7072
 1008MOL0     H39048   3.974  11.101   6.012  1.4324  1.1254 -0.1995
 1008MOL0     H39049   3.817  11.276   6.213 -0.9146  1.1983 -0.9475
 1008MOL0     H39050   3.739  11.167   6.106 -1.1604  1.4772  2.4057
 1008MOL0     H39051   3.938  11.390   6.036  1.1992 -1.0736 -4.2174
 1008MOL0     H39052   3.848  11.300   5.917 -1.8913  0.4713  0.1189
 1008MOL0     H39053   3.555  11.338   6.012 -0.6942 -0.2824 -0.8978
 1008MOL0     H39054   3.409  11.643   6.151  0.0273 -2.2245  0.0703
 1008MOL0     H39055   3.381  11.499   6.062  0.7494 -0.4286 -2.4201
 1008MOL0     H39056   3.433  11.773   5.934 -0.7402  0.6163  2.3514
 1008MOL0     H39057   3.388  11.609   5.870  3.5869  0.4414 -0.0022
 1008MOL0     H39058   3.205  11.744   6.066  0.2012 -1.8198  0.6435
 1008MOL0     H39059   3.176  11.790   5.897 -0.5203 -1.4050 -0.9760
 1008MOL0     H39060   3.031  11.611   5.899 -2.3903 -0.9819  3.6975
 1008MOL0     H39061   3.187  11.526   5.858  1.0468 -0.0790 -0.1489
 1008MOL0     H39062   3.151  11.480   6.306 -1.1218 -3.7193 -0.9960
 1008MOL0     H39063   3.109  11.474   6.523  0.0144  0.1188 -0.0910
 1008MOL0     H39064   2.955  11.388   6.549  1.2063  0.4936 -0.0870
 1008MOL0     H39065   2.967  11.565   6.584 -3.2984  0.1057 -0.1615
 1008MOL0     H39066   2.581  11.762   6.583 -0.2472 -0.9708  3.7303
 1008MOL0     H39067   2.387  11.875   6.654  2.7407  0.0240 -0.9343
 1008MOL0     H39068   1.981  11.731   6.496  4.4823  0.9274 -1.4902
 1008MOL0     H39069   1.969  11.715   6.674  0.1685  0.1338  0.2702
 1008MOL0     H39070   1.881  11.943   6.692  0.3584 -0.6890  0.0189
 1008MOL0     H39071   1.964  11.987   6.551 -0.7270 -0.8168 -3.0139
 1008MOL0     H39072   1.780  11.798   6.428 -0.5556 -2.8007  2.8255
 1008MOL0     H39073   1.750  11.973   6.449 -1.3446 -0.1507  1.5728
 1008MOL0     H39074   1.639  11.888   6.665  1.0852 -0.7021  0.7153
 1008MOL0     H39075   1.679  11.727   6.608  0.0383 -0.5076 -0.9042
 1008MOL0     H39076   1.514  11.907   6.406  1.9711  0.4815  0.2236
 1008MOL0     H39077   1.517  11.740   6.433 -0.8369 -0.3159 -0.3145
 1008MOL0     H39078   1.403  11.943   6.616  3.4802 -0.7219 -1.6605
 1008MOL0     H39079   1.399  11.768   6.658 -2.2618 -2.0559 -1.4515
 1008MOL0     H39080   1.266  11.835   6.405  0.1514 -3.0751  0.1860
 1008MOL0     H39081   1.215  11.929   6.546  0.7349 -0.9103 -0.1178
 1008MOL0     H39082   1.154  11.722   6.680 -2.1136 -0.4064  0.9188
 1008MOL0     H39083   1.187  11.625   6.548  1.6965  1.0472 -2.5242
 1008MOL0     H39084   2.137  11.602   6.439  2.4222 -1.8256 -4.3767
 1008MOL0     H39085   2.327  11.491   6.359 -0.5059 -1.6467  2.0182
 1008MOL0     H39086   2.690  11.569   6.180  0.0460 -1.1469 -0.6976
 1008MOL0     H39087   2.853  11.592   6.006 -2.0346  0.9498  1.0504
 1008MOL0     H39088   4.212  10.654   5.712  0.4981  1.3024  3.1117
 1008MOL0     H39089   4.330  10.519   5.515  0.2653  3.4774 -2.3730
 1008MOL0     H39090   4.670  10.294   5.412 -1.1321  0.5175 -1.4785
 1008MOL0     H39091   4.736  10.155   5.245 -0.5891  0.6155 -1.5800
 1008MOL0     H39092   4.992  10.090   5.071 -0.0134  0.9975 -0.1858
 1008MOL0     H39093   4.827  10.047   5.100 -0.6337  0.7296  0.0717
 1008MOL0     H39094   4.978   9.972   4.880  0.0156  2.2434 -0.5179
 1008MOL0     H39095   4.887  10.103   4.806 -0.8888 -0.3330 -0.2719
 1008MOL0     H39096   4.792   9.882   4.772  0.7040  0.5633 -0.2353
 1008MOL0     H39097   4.784   9.845   4.942 -0.6206 -2.8775 -2.2227
 1008MOL0     H39098   4.559   9.891   4.832  1.8845  0.8695 -3.0189
 1008MOL0     H39099   4.599  10.045   4.805  0.5000 -0.6137 -0.2585
 1008MOL0     H39100   4.499  10.141   5.173  0.9244  2.6436 -1.2615
 1008MOL0     H39101   4.971  10.474   5.074  0.3189  0.6012  2.2843
 1008MOL0     H39102   4.922  10.706   5.335  0.7385 -0.3699 -0.2509
 1008MOL0     H39103   4.993  10.679   5.174 -0.1590 -2.0120  0.1025
 1008MOL0     H39104   4.826  10.731   5.184  1.9136  3.6767 -0.7270
 1009MOL0     O39105   6.712   5.585   0.885  0.1387 -0.1488 -0.5427
 1009MOL0     C39106   6.778   5.654   0.966  0.2128  0.6739 -0.4939
 1009MOL0     O39107   6.747   5.649   1.098 -0.1199 -0.6375  0.4542
 1009MOL0     C39108   6.704   5.529   1.148  0.2273  1.3512  0.2584
 1009MOL0     C39109   6.592   5.527   1.226 -0.1323 -0.4190  0.3767
 1009MOL0     C39110   6.564   5.410   1.302  0.5067  0.2321  0.0228
 1009MOL0     C39111   6.639   5.294   1.290 -0.5556  0.0751 -0.1562
 1009MOL0     O39112   6.619   5.173   1.345  0.1307  0.6951  0.8365
 1009MOL0     C39113   6.496   5.150   1.411  0.7285 -0.2328  0.6971
 1009MOL0     C39114   6.395   5.083   1.309 -0.4046 -0.0593  0.1788
 1009MOL0     C39115   6.403   4.935   1.291 -0.2411  0.0540 -0.2382
 1009MOL0     C39116   6.359   4.851   1.414 -0.2672  0.1324 -0.0261
 1009MOL0     C39117   6.199   4.849   1.418  0.5361 -0.2285 -0.0274
 1009MOL0     C39118   6.146   4.808   1.554 -0.2461 -1.0650 -0.3177
 1009MOL0     C39119   5.995   4.810   1.552  0.5990 -1.1572  0.0544
 1009MOL0     C39120   5.935   4.668   1.545 -0.2568 -0.1231 -1.2804
 1009MOL0     N39121   5.882   4.622   1.669  0.0047 -0.2075 -0.5377
 1009MOL0     C39122   5.805   4.691   1.757 -0.1314 -0.3060  0.0682
 1009MOL0     C39123   5.800   4.602   1.858 -0.8459  0.2479 -0.4373
 1009MOL0     C39124   5.747   4.620   1.996 -0.7171 -0.4268  0.0168
 1009MOL0     C39125   5.597   4.642   2.010  0.0527  0.6829  1.6374
 1009MOL0     C39126   5.547   4.674   2.150  0.2281  0.3027  0.1888
 1009MOL0     C39127   5.398   4.684   2.167 -1.3931 -0.4446  0.3589
 1009MOL0     O39128   5.335   4.564   2.115  0.2733 -0.5119  0.0031
 1009MOL0     C39129   5.200   4.585   2.090  0.1507  0.6838  0.4447
 1009MOL0     C39130   5.142   4.678   2.010  0.6278 -0.5706 -0.1880
 1009MOL0     C39131   5.001   4.679   1.983 -1.3026 -0.4220 -0.1666
 1009MOL0     C39132   4.941   4.790   1.898  0.6173  0.0626  0.4097
 1009MOL0     C39133   4.927   4.568   2.018 -0.1534  0.5987 -0.3132
 1009MOL0     C39134   4.775   4.547   2.017 -0.7599 -1.1771 -0.2094
 1009MOL0     O39135   4.719   4.475   2.116 -0.4501  0.1555 -0.1314
 1009MOL0     C39136   4.593   4.434   2.094  0.1158 -0.6442 -0.3162
 1009MOL0     C39137   4.560   4.317   2.016  0.1414  0.1255  1.0818
 1009MOL0     C39138   4.424   4.286   1.996  0.0375 -0.4123 -1.0154
 1009MOL0     C39139   4.324   4.366   2.046  0.2244 -0.4699  0.4289
 1009MOL0     O39140   4.183   4.360   2.011 -0.4861  0.2383 -0.0776
 1009MOL0     C39141   4.159   4.330   1.868 -0.0100 -0.4220  0.5745
 1009MOL0     C39142   4.038   4.403   1.814 -0.8958 -0.8599  0.6582
 1009MOL0     C39143   4.033   4.550   1.858  0.4101 -0.5140  0.8351
 1009MOL0     C39144   3.924   4.633   1.772  0.2438  0.1887  0.9534
 1009MOL0     C39145   3.927   4.784   1.785 -0.8985 -0.0030  0.8082
 1009MOL0     C39146   3.872   4.832   1.925 -0.0561  0.8064 -0.2823
 1009MOL0     C39147   3.884   4.983   1.941 -0.6113  1.2134  0.6436
 1009MOL0     C39148   3.854   5.035   2.077  0.4909 -0.0539 -0.7233
 1009MOL0    Cl39149   3.679   5.029   2.090  0.1603  0.1061 -0.3179
 1009MOL0     C39150   4.355   4.473   2.125  0.0050  0.3587 -0.6151
 1009MOL0     C39151   4.489   4.505   2.154 -0.7354 -0.2441  0.0021
 1009MOL0     O39152   4.713   4.602   1.927 -0.0102 -0.0658 -0.0532
 1009MOL0     C39153   4.990   4.467   2.095 -0.0403 -0.2911 -0.1560
 1009MOL0     C39154   5.121   4.476   2.131 -0.5209  0.5987  0.0718
 1009MOL0     N39155   5.860   4.483   1.820  0.0514  0.0158 -0.0195
 1009MOL0     N39156   5.907   4.498   1.709  0.6856  1.0839  0.5716
 1009MOL0     C39157   6.745   5.291   1.208 -0.5671 -0.3453 -0.2654
 1009MOL0     C39158   6.776   5.406   1.132 -0.2254  0.1531  0.1595
 1009MOL0     C39159   6.836   5.768   0.903  0.9301 -0.8300 -0.1148
 1009MOL0     C39160   6.788   5.897   0.939  0.9572 -0.0681 -0.3166
 1009MOL0     C39161   6.828   6.013   0.877  0.2874 -0.2311  0.6874
 1009MOL0     C39162   6.929   6.013   0.775 -0.8111  0.6033  0.1753
 1009MOL0     O39163   6.951   6.108   0.681  0.8453 -0.1267  0.4142
 1009MOL0     C39164   7.023   6.214   0.736 -0.4760  0.0592 -0.5094
 1009MOL0     C39165   7.137   6.258   0.637  0.4837 -0.6598  0.0823
 1009MOL0     C39166   7.073   6.296   0.491  0.3819 -0.2378 -0.6791
 1009MOL0     C39167   6.967   6.404   0.489 -0.8374  0.4876 -0.3288
 1009MOL0     C39168   7.011   6.540   0.531  0.6672 -0.1098  0.0333
 1009MOL0     C39169   7.047   6.648   0.565  0.3624 -0.1775 -0.5880
 1009MOL0     C39170   6.981   5.877   0.743  1.2899 -0.1342  0.4917
 1009MOL0     C39171   6.928   5.759   0.803 -0.2410  0.6677  0.1692
 1009MOL0     C39172   6.984   5.620   0.762  0.6388  0.0182 -0.4477
 1009MOL0     H39173   6.522   5.610   1.223  0.2886 -0.0675 -2.2748
 1009MOL0     H39174   6.478   5.416   1.367  0.6102 -0.7265  0.2616
 1009MOL0     H39175   6.454   5.239   1.458 -1.7681 -0.9904  0.0516
 1009MOL0     H39176   6.522   5.085   1.494  1.7178 -0.3123  0.3343
 1009MOL0     H39177   6.293   5.116   1.328 -1.7194 -2.9074 -1.3658
 1009MOL0     H39178   6.418   5.130   1.213  0.9870  0.0116  0.5175
 1009MOL0     H39179   6.345   4.911   1.201  0.9307 -3.8530 -0.1285
 1009MOL0     H39180   6.509   4.916   1.268  0.1365 -0.7269  1.9469
 1009MOL0     H39181   6.399   4.750   1.402 -3.3307 -0.9909 -2.0011
 1009MOL0     H39182   6.411   4.886   1.504 -0.2420  0.9936 -0.3675
 1009MOL0     H39183   6.153   4.782   1.345 -0.1460  1.7208 -1.4770
 1009MOL0     H39184   6.165   4.950   1.391 -0.7369 -0.0804  1.9044
 1009MOL0     H39185   6.191   4.713   1.584  0.4337 -1.4628 -2.4512
 1009MOL0     H39186   6.185   4.872   1.634 -1.3065 -0.9927  0.1469
 1009MOL0     H39187   5.957   4.859   1.462  1.3162 -0.6419  0.0227
 1009MOL0     H39188   5.953   4.874   1.631  1.9530  0.9156 -0.8056
 1009MOL0     H39189   5.852   4.656   1.475 -0.1162  1.4500 -1.7496
 1009MOL0     H39190   6.007   4.598   1.501 -2.0759 -1.0774 -2.8905
 1009MOL0     H39191   5.777   4.796   1.748  2.4995  0.5072  0.4263
 1009MOL0     H39192   5.798   4.710   2.032  1.3043 -1.0056 -1.1801
 1009MOL0     H39193   5.765   4.534   2.061 -0.5394  0.0382  0.5902
 1009MOL0     H39194   5.571   4.733   1.954 -3.1559 -1.3504 -0.5463
 1009MOL0     H39195   5.536   4.562   1.967 -0.4833  1.1563  1.5028
 1009MOL0     H39196   5.557   4.583   2.210 -0.3904 -1.8281 -2.6877
 1009MOL0     H39197   5.600   4.759   2.192  1.8039 -0.2259 -0.6542
 1009MOL0     H39198   5.374   4.687   2.274 -3.3770 -0.2408 -0.0448
 1009MOL0     H39199   5.374   4.777   2.114  2.2330  1.3737  1.6309
 1009MOL0     H39200   5.213   4.754   1.979  1.4681 -1.4268 -0.4458
 1009MOL0     H39201   4.973   4.893   1.919 -0.2238 -0.0230  2.4042
 1009MOL0     H39202   4.836   4.801   1.926  1.1587  2.2498  1.8418
 1009MOL0     H39203   4.945   4.765   1.792 -1.2363 -0.0616  0.3370
 1009MOL0     H39204   4.647   4.269   1.973 -0.2164 -0.7111  1.2700
 1009MOL0     H39205   4.403   4.202   1.930  3.5520 -2.1597 -0.1550
 1009MOL0     H39206   4.243   4.348   1.800 -0.0647 -1.6247  0.1670
 1009MOL0     H39207   4.130   4.228   1.843  0.5274 -0.5171  0.3281
 1009MOL0     H39208   4.042   4.397   1.705  0.0719  2.0023  0.4382
 1009MOL0     H39209   3.947   4.348   1.837  0.0448 -3.6302 -1.5930
 1009MOL0     H39210   4.130   4.598   1.842  1.8572 -3.1709  1.1098
 1009MOL0     H39211   4.011   4.551   1.965  1.0033  3.0231  1.0571
 1009MOL0     H39212   3.823   4.606   1.806 -1.2955  2.4191 -1.4167
 1009MOL0     H39213   3.938   4.608   1.666  1.9311  3.3551  0.3096
 1009MOL0     H39214   4.028   4.826   1.779 -0.4066 -0.3136  4.5055
 1009MOL0     H39215   3.871   4.828   1.702  2.2136  1.6238 -0.6346
 1009MOL0     H39216   3.940   4.795   2.002 -1.4247  1.9840  1.5855
 1009MOL0     H39217   3.771   4.790   1.928 -0.5207  1.8790 -0.4055
 1009MOL0     H39218   3.816   5.042   1.878 -1.4667  2.2206  2.4096
 1009MOL0     H39219   3.988   5.006   1.918 -0.4028 -1.0130 -0.9633
 1009MOL0     H39220   3.904   5.130   2.099 -2.1555  0.7245  2.8763
 1009MOL0     H39221   3.898   4.964   2.146 -1.3152 -2.7381 -2.1576
 1009MOL0     H39222   4.284   4.541   2.171  0.7482  1.1937 -0.6688
 1009MOL0     H39223   4.512   4.592   2.215  1.2697 -0.4000 -0.4508
 1009MOL0     H39224   4.937   4.382   2.136 -2.0885  0.7941 -0.4063
 1009MOL0     H39225   5.171   4.402   2.193 -0.2055  0.8419  0.1097
 1009MOL0     H39226   6.809   5.205   1.190  1.6602  1.7490 -3.3976
 1009MOL0     H39227   6.869   5.412   1.077 -0.4359  1.0222 -0.1187
 1009MOL0     H39228   6.706   5.903   1.009  0.1150  1.1564 -1.3703
 1009MOL0     H39229   6.797   6.116   0.890 -1.1024 -0.1209 -2.4705
 1009MOL0     H39230   6.955   6.299   0.742  2.8235  2.9178 -0.7240
 1009MOL0     H39231   7.070   6.193   0.832  0.0301  1.7763 -0.3600
 1009MOL0     H39232   7.200   6.169   0.632 -2.1910 -2.7271  0.8957
 1009MOL0     H39233   7.188   6.347   0.676 -3.1026  3.3534 -3.3651
 1009MOL0     H39234   7.158   6.332   0.432  1.5003  2.9778  2.5476
 1009MOL0     H39235   7.033   6.214   0.431  0.6075  0.4292 -1.7796
 1009MOL0     H39236   6.867   6.375   0.524 -1.3583  2.3108 -0.2005
 1009MOL0     H39237   6.960   6.411   0.381  0.6063 -5.2413 -1.1068
 1009MOL0     H39238   7.086   6.748   0.564 -1.4467  0.6114 -3.2314
 1009MOL0     H39239   7.040   5.862   0.653  2.0982  0.7809  0.8527
 1009MOL0     H39240   7.071   5.623   0.695  2.7715 -4.5138  1.6651
 1009MOL0     H39241   7.022   5.583   0.858 -1.3813  2.2275  1.3302
 1009MOL0     H39242   6.913   5.551   0.717  0.2292  1.0326 -1.3918
 1010MOL0     O39243   9.993   1.222  10.185  0.4550 -0.6304  1.0297
 1010MOL0     C39244   9.937   1.137  10.253  0.2107 -0.1954  0.9316
 1010MOL0     O39245   9.910   1.150  10.392 -1.1270 -0.2116 -0.5932
 1010MOL0     C39246   9.940   1.265  10.464  0.7297 -0.1904  0.1806
 1010MOL0     C39247   9.930   1.254  10.602 -0.3254  0.0831 -0.7001
 1010MOL0     C39248   9.928   1.369  10.685  0.8285 -0.6003 -0.0355
 1010MOL0     C39249   9.954   1.498  10.640 -0.4778 -0.2615 -0.0719
 1010MOL0     O39250   9.988   1.610  10.711 -0.7968  0.6429  0.3847
 1010MOL0     C39251  10.123   1.635  10.731  0.1446  0.4018  0.4116
 1010MOL0     C39252  10.189   1.725  10.627  0.0415 -0.0210 -0.6513
 1010MOL0     C39253  10.169   1.873  10.652 -0.3792  0.5341  0.3897
 1010MOL0     C39254  10.029   1.916  10.651  0.5510  0.9078 -0.6278
 1010MOL0     C39255  10.015   2.075  10.681  0.1370  0.1646 -0.2780
 1010MOL0     C39256  10.055   2.120  10.823 -0.0251 -0.9498 -0.1089
 1010MOL0     C39257  10.037   2.270  10.839  0.0799 -0.5641 -0.3742
 1010MOL0     C39258  10.021   2.305  10.992 -0.5914 -0.2456  0.0398
 1010MOL0     N39259  10.154   2.331  11.056 -0.4751  0.0175 -0.0653
 1010MOL0     C39260  10.233   2.442  11.037  0.1677  0.2713 -0.0920
 1010MOL0     C39261  10.353   2.415  11.081 -0.8082  0.0789 -0.8313
 1010MOL0     C39262  10.462   2.515  11.096 -0.3763 -0.0585 -0.6843
 1010MOL0     C39263  10.609   2.470  11.077 -0.8903  0.9102 -0.4399
 1010MOL0     C39264  10.658   2.365  11.182  1.1302 -1.1758 -0.2409
 1010MOL0     C39265  10.666   2.400  11.328 -0.4955 -0.6023  0.3342
 1010MOL0     O39266  10.707   2.284  11.412 -0.2801 -0.9017 -0.7429
 1010MOL0     C39267  10.626   2.173  11.437 -0.1960  0.4706 -0.5045
 1010MOL0     C39268  10.493   2.180  11.415  0.8414 -0.2927  0.1187
 1010MOL0     C39269  10.418   2.069  11.460  0.0994 -0.0616  0.1327
 1010MOL0     C39270  10.259   2.086  11.468 -0.1581 -0.1266 -0.6798
 1010MOL0     C39271  10.472   1.947  11.498 -1.2325  0.6622  0.5278
 1010MOL0     C39272  10.418   1.818  11.521  0.5845 -0.4883 -0.5067
 1010MOL0     O39273  10.495   1.711  11.488  0.7628  0.0832 -0.3285
 1010MOL0     C39274  10.452   1.583  11.475  0.1701  0.5069 -1.1589
 1010MOL0     C39275  10.541   1.486  11.503 -0.9173 -1.0541 -0.2172
 1010MOL0     C39276  10.501   1.350  11.505  0.5008 -0.4137  0.2559
 1010MOL0     C39277  10.371   1.317  11.469  0.5748  0.0653  0.1390
 1010MOL0     O39278  10.322   1.188  11.467  0.0528  0.0622 -0.5375
 1010MOL0     C39279  10.409   1.089  11.405  0.4218  1.0883  0.1176
 1010MOL0     C39280  10.339   0.946  11.359 -0.0380  0.5506  0.4191
 1010MOL0     C39281  10.216   0.959  11.265 -0.6110 -0.2083  0.0178
 1010MOL0     C39282  10.262   1.008  11.125  0.6476  0.5455  0.2087
 1010MOL0     C39283  10.141   1.035  11.033 -0.2870  0.3111 -0.4567
 1010MOL0     C39284  10.156   1.125  10.914  0.0179 -0.2951  0.5504
 1010MOL0     C39285  10.177   1.265  10.962 -0.9655  0.1724 -0.4754
 1010MOL0     C39286  10.102   1.313  11.076  0.9765  0.4253 -0.9242
 1010MOL0    Cl39287  10.130   1.490  11.107  0.2950  0.2386  0.7430
 1010MOL0     C39288  10.280   1.414  11.440  0.4754  0.5616  0.2833
 1010MOL0     C39289  10.320   1.548  11.436 -0.5640  0.2101  0.4944
 1010MOL0     O39290  10.308   1.812  11.570  0.0413 -0.1717 -0.2330
 1010MOL0     C39291  10.609   1.946  11.521  0.1402 -0.4462 -0.2403
 1010MOL0     C39292  10.685   2.062  11.500 -0.4805  0.3660  0.4914
 1010MOL0     N39293  10.341   2.291  11.143  0.2454  0.0143  0.6400
 1010MOL0     N39294  10.226   2.236  11.123  0.2998  0.1713 -0.3416
 1010MOL0     C39295   9.961   1.507  10.492  0.5511  0.8647 -0.2959
 1010MOL0     C39296   9.945   1.387  10.406 -0.3736  0.7630 -0.1778
 1010MOL0     C39297   9.895   1.012  10.179  0.3377  0.0635 -0.0837
 1010MOL0     C39298   9.832   0.922  10.258  0.0001 -0.8796  0.4301
 1010MOL0     C39299   9.772   0.813  10.205 -0.1549 -0.1047 -0.5152
 1010MOL0     C39300   9.771   0.794  10.070 -0.5013  0.0191  0.8861
 1010MOL0     O39301   9.711   0.679  10.026 -0.2848 -0.2220 -0.0017
 1010MOL0     C39302   9.745   0.626   9.907 -0.3134  0.0414  0.1969
 1010MOL0     C39303   9.676   0.493   9.907 -0.9595  0.8611  0.5494
 1010MOL0     C39304   9.707   0.419   9.777  0.0337  0.7177 -0.6386
 1010MOL0     C39305   9.630   0.291   9.780  0.6052 -0.5739  0.0396
 1010MOL0     C39306   9.698   0.197   9.870 -0.5907 -1.0301  0.0147
 1010MOL0     C39307   9.761   0.116   9.939  0.3876  0.4029 -0.4671
 1010MOL0     C39308   9.841   0.879   9.977 -0.3679  0.3671 -0.3945
 1010MOL0     C39309   9.906   0.994  10.039  0.4405  0.1857  0.5148
 1010MOL0     C39310   9.978   1.086   9.941  0.2028  0.1700  0.2509
 1010MOL0     H39311   9.914   1.155  10.644 -2.0531  0.9224  0.7616
 1010MOL0     H39312   9.919   1.338  10.789 -0.6669  1.4924  0.5274
 1010MOL0     H39313  10.168   1.536  10.739 -1.0403 -0.0673  1.6196
 1010MOL0     H39314  10.143   1.685  10.826  2.9770  0.8822 -0.3178
 1010MOL0     H39315  10.296   1.706  10.629  0.5788  2.6754  0.0720
 1010MOL0     H39316  10.148   1.701  10.528  0.4101  1.0545 -1.0741
 1010MOL0     H39317  10.212   1.891  10.751  0.5015  0.3503  0.0550
 1010MOL0     H39318  10.232   1.928  10.581  2.1696 -1.3169  1.0668
 1010MOL0     H39319   9.981   1.890  10.556  2.7023  0.1052 -1.5566
 1010MOL0     H39320   9.979   1.871  10.738  1.3489  0.3723 -0.4360
 1010MOL0     H39321   9.917   2.114  10.651  0.1511  0.5443  0.1598
 1010MOL0     H39322  10.084   2.128  10.615  1.0181  1.8476  1.8794
 1010MOL0     H39323  10.005   2.065  10.903 -2.3237 -0.3726 -1.0380
 1010MOL0     H39324  10.160   2.093  10.835 -0.1741 -1.4307  0.1384
 1010MOL0     H39325   9.942   2.300  10.794 -0.4764  0.5762  1.4490
 1010MOL0     H39326  10.111   2.340  10.800  1.2063 -1.2512  0.4688
 1010MOL0     H39327   9.959   2.393  11.011 -2.0394 -1.1050 -0.5805
 1010MOL0     H39328   9.979   2.216  11.040  1.7033 -0.4107  1.9178
 1010MOL0     H39329  10.206   2.536  10.991  0.0913 -0.9416 -2.6783
 1010MOL0     H39330  10.455   2.570  11.190 -0.1412 -1.9973  0.5242
 1010MOL0     H39331  10.445   2.592  11.020 -1.9274 -1.2956 -1.6475
 1010MOL0     H39332  10.614   2.409  10.986 -0.4871  0.4424 -0.1065
 1010MOL0     H39333  10.690   2.543  11.072  1.5853 -1.6704 -0.7227
 1010MOL0     H39334  10.593   2.277  11.183  0.5232 -0.7321  0.1109
 1010MOL0     H39335  10.758   2.332  11.152  1.7816 -0.5277  1.1089
 1010MOL0     H39336  10.755   2.464  11.330 -1.3266  0.5981 -0.0260
 1010MOL0     H39337  10.575   2.453  11.355  0.3172  1.3938 -0.6518
 1010MOL0     H39338  10.442   2.265  11.370 -0.0896 -1.0573 -0.3034
 1010MOL0     H39339  10.232   2.151  11.551 -1.0057 -0.5088 -0.6448
 1010MOL0     H39340  10.204   1.994  11.488  2.9236 -2.0630 -0.4943
 1010MOL0     H39341  10.216   2.124  11.374 -0.4362  2.1072  0.2821
 1010MOL0     H39342  10.641   1.517  11.532 -1.9398 -0.0622  2.6108
 1010MOL0     H39343  10.561   1.267  11.540 -1.6523 -1.5940  1.3206
 1010MOL0     H39344  10.471   1.133  11.326  1.6362 -0.2453  0.2801
 1010MOL0     H39345  10.485   1.048  11.473  1.8606  0.2503 -1.8918
 1010MOL0     H39346  10.423   0.892  11.315  2.9437  4.2037  1.1004
 1010MOL0     H39347  10.318   0.893  11.453  3.8279  2.5820  2.7024
 1010MOL0     H39348  10.129   1.013  11.303 -0.1552  1.8735 -1.7348
 1010MOL0     H39349  10.193   0.856  11.236  1.1441 -0.1295 -1.8688
 1010MOL0     H39350  10.321   0.934  11.070  0.1604  0.0850  0.3040
 1010MOL0     H39351  10.324   1.098  11.140 -1.5302  2.0333  0.7894
 1010MOL0     H39352  10.099   0.941  10.996 -2.1765  0.9630 -0.1128
 1010MOL0     H39353  10.060   1.076  11.095  0.0753 -3.4948  2.9264
 1010MOL0     H39354  10.067   1.131  10.851  1.1233 -1.0132 -1.1545
 1010MOL0     H39355  10.250   1.102  10.863 -0.7773  1.2811 -1.8168
 1010MOL0     H39356  10.163   1.334  10.879 -1.8412  3.5407  2.2427
 1010MOL0     H39357  10.280   1.276  10.999 -0.8326 -1.2296 -0.3709
 1010MOL0     H39358  10.133   1.245  11.155 -0.3941  1.1700  0.3084
 1010MOL0     H39359   9.994   1.296  11.066  1.1936 -1.9630  0.1903
 1010MOL0     H39360  10.178   1.385  11.417 -0.4811  0.0920  4.3689
 1010MOL0     H39361  10.249   1.625  11.409 -0.6104  0.3301  0.9644
 1010MOL0     H39362  10.660   1.861  11.564  3.3006  2.3728  2.0688
 1010MOL0     H39363  10.788   2.079  11.527  0.6223 -0.9214 -2.4745
 1010MOL0     H39364   9.974   1.606  10.449  2.9790  2.7862  4.2257
 1010MOL0     H39365   9.953   1.405  10.299  2.8463  0.9511  0.0129
 1010MOL0     H39366   9.821   0.948  10.363 -0.3847  3.9151 -0.5738
 1010MOL0     H39367   9.718   0.741  10.266  2.6463 -1.7071  0.2447
 1010MOL0     H39368   9.712   0.692   9.826 -0.1280 -3.0926 -2.6274
 1010MOL0     H39369   9.852   0.604   9.899 -0.8220 -3.1786  0.8759
 1010MOL0     H39370   9.568   0.494   9.924 -0.7284  0.6922  2.1388
 1010MOL0     H39371   9.710   0.439   9.996 -1.4440  2.5968  1.8413
 1010MOL0     H39372   9.676   0.485   9.697 -0.8981  0.2576 -0.6693
 1010MOL0     H39373   9.815   0.404   9.765 -0.2008  0.7601 -3.2488
 1010MOL0     H39374   9.637   0.237   9.686  1.2554  0.3747 -0.4842
 1010MOL0     H39375   9.523   0.307   9.797  0.4827  0.1521 -1.2676
 1010MOL0     H39376   9.822   0.052   9.999  1.7993  0.3155 -1.9237
 1010MOL0     H39377   9.866   0.859   9.873  1.4298 -1.0750  0.2599
 1010MOL0     H39378   9.969   1.051   9.838 -0.1459 -0.1275  0.3802
 1010MOL0     H39379   9.932   1.185   9.939  1.5076  0.8100  0.7615
 1010MOL0     H39380  10.084   1.096   9.966  0.7912 -1.4102 -1.3908
 1011MOL0     O39381   5.458   7.219   4.292  0.5374 -0.9329  1.3230
 1011MOL0     C39382   5.548   7.308   4.330 -1.1304  0.7384  0.2649
 1011MOL0     O39383   5.688   7.282   4.349 -0.0454 -0.3647 -0.3815
 1011MOL0     C39384   5.722   7.154   4.349 -0.4284  1.3992  0.3297
 1011MOL0     C39385   5.767   7.089   4.463  0.1590  0.3816  1.0325
 1011MOL0     C39386   5.812   6.947   4.463 -0.1889  0.3309  0.0624
 1011MOL0     C39387   5.790   6.869   4.349  0.2339  0.1452 -0.7168
 1011MOL0     O39388   5.811   6.732   4.336  0.7161 -0.2565 -0.0437
 1011MOL0     C39389   5.698   6.658   4.381 -0.5264  0.3647  0.1917
 1011MOL0     C39390   5.727   6.507   4.388 -0.9096  0.0025 -0.1072
 1011MOL0     C39391   5.611   6.424   4.439 -0.0532  0.0123  0.7561
 1011MOL0     C39392   5.561   6.447   4.586  1.0929 -0.8751  0.6052
 1011MOL0     C39393   5.647   6.373   4.691  0.7538 -0.7870  0.3595
 1011MOL0     C39394   5.779   6.447   4.714 -0.2584  0.6847  0.3692
 1011MOL0     C39395   5.875   6.379   4.816  1.1481  0.9422 -0.7912
 1011MOL0     C39396   5.973   6.491   4.860 -0.5842  0.9599 -0.6143
 1011MOL0     N39397   5.929   6.582   4.959 -0.4035  0.1783 -0.3502
 1011MOL0     C39398   5.859   6.556   5.071  0.2832  0.3950 -0.0697
 1011MOL0     C39399   5.893   6.649   5.163  0.2148 -0.0843  0.2465
 1011MOL0     C39400   5.838   6.674   5.299 -0.1756  0.0482  0.0883
 1011MOL0     C39401   5.852   6.537   5.377 -0.2984  0.7294 -0.1171
 1011MOL0     C39402   5.824   6.549   5.533  0.0458  0.0460  0.3890
 1011MOL0     C39403   5.909   6.472   5.620  0.6021  0.3801 -0.5717
 1011MOL0     O39404   5.858   6.497   5.746  0.2923  0.0411 -0.5177
 1011MOL0     C39405   5.914   6.427   5.852  0.3669 -0.3004 -0.2601
 1011MOL0     C39406   5.866   6.469   5.977  0.0232  0.2015 -0.4748
 1011MOL0     C39407   5.931   6.410   6.096  0.2466 -0.3462  0.2799
 1011MOL0     C39408   5.881   6.459   6.242  0.0276  0.7039 -0.7050
 1011MOL0     C39409   6.035   6.314   6.088 -0.2835  0.4526  0.9947
 1011MOL0     C39410   6.104   6.237   6.197  0.3371 -0.6401  0.3012
 1011MOL0     O39411   6.041   6.228   6.321  0.3798 -0.9047  0.2528
 1011MOL0     C39412   6.064   6.127   6.407  0.2070 -0.6220  0.0886
 1011MOL0     C39413   6.192   6.070   6.444  0.6314 -0.8961 -0.1104
 1011MOL0     C39414   6.197   5.968   6.537 -0.0918  0.7532  0.1181
 1011MOL0     C39415   6.081   5.910   6.588 -0.5234  0.3123 -0.0135
 1011MOL0     O39416   6.106   5.811   6.670 -0.2834 -0.2766 -0.4924
 1011MOL0     C39417   5.995   5.740   6.734 -0.1133 -0.0379  0.8144
 1011MOL0     C39418   6.047   5.636   6.826  0.2178 -0.4166 -0.4111
 1011MOL0     C39419   6.158   5.548   6.756  1.2830  0.3345 -0.3908
 1011MOL0     C39420   6.142   5.400   6.796  0.2606  1.5833 -0.4628
 1011MOL0     C39421   6.212   5.376   6.936 -0.9419  0.1781  0.4531
 1011MOL0     C39422   6.375   5.370   6.947  0.8009  0.7514 -0.5616
 1011MOL0     C39423   6.433   5.338   7.086  0.4182  0.3509  1.3685
 1011MOL0     C39424   6.375   5.409   7.208 -0.9170 -0.3531 -0.3104
 1011MOL0    Cl39425   6.410   5.580   7.192  0.5801  0.5344 -0.0138
 1011MOL0     C39426   5.954   5.962   6.559  0.3514  1.1315 -0.0739
 1011MOL0     C39427   5.952   6.071   6.471  0.4204  0.0111 -0.9452
 1011MOL0     O39428   6.213   6.186   6.173 -0.4617 -0.1511  0.2305
 1011MOL0     C39429   6.085   6.286   5.953 -0.0562  0.6498 -0.6118
 1011MOL0     C39430   6.022   6.341   5.844 -0.7683 -0.9820  1.0271
 1011MOL0     N39431   5.975   6.738   5.106 -0.3763 -0.0666 -0.1279
 1011MOL0     N39432   6.001   6.694   4.985 -0.3550 -1.2935  0.0544
 1011MOL0     C39433   5.759   6.937   4.232 -0.2590 -0.0058 -0.9505
 1011MOL0     C39434   5.732   7.070   4.236  0.0414  0.2070 -0.8922
 1011MOL0     C39435   5.502   7.442   4.385 -0.1822  1.2318  0.2314
 1011MOL0     C39436   5.560   7.501   4.495  0.2857  0.6203  0.5524
 1011MOL0     C39437   5.504   7.601   4.563  0.3051 -0.7860  0.0029
 1011MOL0     C39438   5.388   7.660   4.506  0.5027  0.8394 -0.5137
 1011MOL0     O39439   5.319   7.757   4.572  0.2844 -0.2718  0.5680
 1011MOL0     C39440   5.244   7.734   4.695 -0.2154  0.0519 -0.6042
 1011MOL0     C39441   5.148   7.607   4.686 -0.4346  0.0446  0.0356
 1011MOL0     C39442   5.101   7.561   4.825 -0.4020  0.0486 -0.2622
 1011MOL0     C39443   5.018   7.668   4.895  0.3535 -1.7758  0.2427
 1011MOL0     C39444   4.885   7.685   4.822 -0.2529 -0.0544 -0.0950
 1011MOL0     C39445   4.792   7.694   4.746 -0.1337  0.2061  0.4284
 1011MOL0     C39446   5.336   7.610   4.389  0.0495 -1.2286  0.2917
 1011MOL0     C39447   5.383   7.498   4.333  0.1256 -0.3804 -1.1924
 1011MOL0     C39448   5.298   7.446   4.223 -0.3792 -0.1686  0.9029
 1011MOL0     H39449   5.772   7.149   4.553  2.7156  0.8001  0.7069
 1011MOL0     H39450   5.847   6.891   4.549  1.4175 -3.5510 -2.8601
 1011MOL0     H39451   5.614   6.673   4.312 -1.3645 -0.4282  0.9979
 1011MOL0     H39452   5.672   6.693   4.481  1.2946 -1.7295  1.4873
 1011MOL0     H39453   5.746   6.481   4.284 -0.8986 -0.4496  0.0094
 1011MOL0     H39454   5.820   6.491   4.443 -0.7925  2.2442  0.4644
 1011MOL0     H39455   5.533   6.445   4.365 -1.5942  1.0189  2.5854
 1011MOL0     H39456   5.623   6.315   4.440  2.7085  0.2474  1.3262
 1011MOL0     H39457   5.561   6.555   4.601 -0.2369 -0.9583  1.4374
 1011MOL0     H39458   5.456   6.415   4.588  1.2777 -1.9822 -2.2011
 1011MOL0     H39459   5.682   6.276   4.656  0.4030 -0.0303 -2.3091
 1011MOL0     H39460   5.591   6.368   4.785  2.0108  1.7438  1.3519
 1011MOL0     H39461   5.848   6.466   4.632 -2.0677 -2.3384 -2.0902
 1011MOL0     H39462   5.757   6.543   4.763 -2.1806  0.1284  0.6750
 1011MOL0     H39463   5.925   6.287   4.785 -1.6662 -0.5593 -1.2593
 1011MOL0     H39464   5.815   6.361   4.905 -0.0141  2.8370 -1.1327
 1011MOL0     H39465   6.069   6.453   4.897 -0.3387  2.1235  0.0124
 1011MOL0     H39466   6.006   6.550   4.774  0.8534  2.3784  0.8282
 1011MOL0     H39467   5.789   6.477   5.098 -0.0334  0.6941 -0.0069
 1011MOL0     H39468   5.734   6.708   5.304 -0.0302  0.4004  0.8641
 1011MOL0     H39469   5.893   6.758   5.342  0.3179 -0.2984  0.1376
 1011MOL0     H39470   5.776   6.471   5.334 -0.6946 -1.0191  2.9854
 1011MOL0     H39471   5.954   6.499   5.371 -0.3725  0.1907  1.6469
 1011MOL0     H39472   5.838   6.654   5.560  0.9557  0.2305 -0.7442
 1011MOL0     H39473   5.718   6.524   5.542 -0.4255  1.9688  0.6989
 1011MOL0     H39474   5.897   6.365   5.601  0.2232  0.5354 -1.2433
 1011MOL0     H39475   6.016   6.492   5.610  0.6782 -0.1826 -0.9413
 1011MOL0     H39476   5.780   6.535   5.985  0.8962  1.4270 -0.8942
 1011MOL0     H39477   5.858   6.374   6.307 -0.9863  0.3470 -1.4889
 1011MOL0     H39478   5.794   6.525   6.233 -1.3891 -1.1646 -1.6709
 1011MOL0     H39479   5.957   6.518   6.292 -1.8219  2.1210  0.5878
 1011MOL0     H39480   6.288   6.098   6.403 -0.3132  1.8238 -0.6428
 1011MOL0     H39481   6.291   5.925   6.570 -1.4502 -1.2608  1.6133
 1011MOL0     H39482   5.938   5.811   6.794 -1.0809  0.4527 -0.6431
 1011MOL0     H39483   5.932   5.697   6.656 -1.6702  2.5940  0.5232
 1011MOL0     H39484   6.087   5.690   6.911 -2.3237 -0.8739  1.1790
 1011MOL0     H39485   5.962   5.574   6.855 -1.6480  0.3691 -3.6455
 1011MOL0     H39486   6.261   5.583   6.765  0.5462  2.4413  0.3785
 1011MOL0     H39487   6.127   5.548   6.652 -1.6974 -0.1296  0.4040
 1011MOL0     H39488   6.188   5.339   6.718 -0.7252  0.4973 -0.2167
 1011MOL0     H39489   6.038   5.368   6.804  0.7242 -1.2257 -3.7013
 1011MOL0     H39490   6.170   5.445   7.010 -1.8573  0.0634  0.0503
 1011MOL0     H39491   6.187   5.275   6.968  4.3224 -1.0659  1.5567
 1011MOL0     H39492   6.407   5.468   6.911  2.4116  0.7211  0.6935
 1011MOL0     H39493   6.420   5.298   6.878 -0.0383 -0.7977  0.4469
 1011MOL0     H39494   6.538   5.367   7.082 -0.2172  2.9134  1.8919
 1011MOL0     H39495   6.416   5.232   7.107  1.9839 -0.2297 -0.1018
 1011MOL0     H39496   6.415   5.365   7.300 -0.2696 -1.3581 -1.0466
 1011MOL0     H39497   6.266   5.401   7.208 -1.0754  0.9100  2.2359
 1011MOL0     H39498   5.865   5.915   6.601  1.2702  0.0337  0.7392
 1011MOL0     H39499   5.855   6.118   6.463  0.3680  1.5028  4.2323
 1011MOL0     H39500   6.150   6.203   5.926 -2.8708 -1.7085 -0.6859
 1011MOL0     H39501   6.079   6.303   5.759 -0.5408  0.7713  0.3483
 1011MOL0     H39502   5.771   6.880   4.141 -1.2132 -0.9692 -0.4978
 1011MOL0     H39503   5.719   7.119   4.140  1.3748 -1.7488 -2.1273
 1011MOL0     H39504   5.656   7.457   4.520 -0.2932 -2.5864 -2.1561
 1011MOL0     H39505   5.553   7.633   4.655 -0.1909 -0.9413  0.3275
 1011MOL0     H39506   5.321   7.728   4.773  1.9963  0.1089 -2.6766
 1011MOL0     H39507   5.191   7.824   4.728  2.1581  0.8267  1.4306
 1011MOL0     H39508   5.210   7.528   4.642 -1.5823 -0.5973 -0.4666
 1011MOL0     H39509   5.066   7.626   4.617 -0.1817  1.6191  0.1322
 1011MOL0     H39510   5.045   7.468   4.826  0.9554 -0.7986  0.2981
 1011MOL0     H39511   5.186   7.533   4.889 -0.4120 -1.0600 -0.7200
 1011MOL0     H39512   5.076   7.760   4.903  1.4228 -2.5234  1.4160
 1011MOL0     H39513   4.983   7.642   4.996 -0.4857  0.5868  0.6262
 1011MOL0     H39514   4.713   7.698   4.673  1.1119 -0.1497 -0.9815
 1011MOL0     H39515   5.262   7.669   4.336  1.0782 -0.4653 -0.3268
 1011MOL0     H39516   5.220   7.511   4.181 -1.6133 -1.4463  1.1259
 1011MOL0     H39517   5.352   7.401   4.140 -2.5877  1.0875 -1.3518
 1011MOL0     H39518   5.242   7.360   4.261 -1.7583  1.7617  3.6011
 1012MOL0     O39519  10.638   2.406   7.100  0.1527  0.2330 -0.6084
 1012MOL0     C39520  10.553   2.469   7.045  0.1987 -0.2959 -0.2538
 1012MOL0     O39521  10.552   2.497   6.905  0.5632 -0.0224 -0.2368
 1012MOL0     C39522  10.662   2.455   6.837  1.1628  0.3945 -0.4206
 1012MOL0     C39523  10.642   2.343   6.751  0.1673  0.3931  0.4924
 1012MOL0     C39524  10.739   2.301   6.658  0.5126  0.1522  0.0471
 1012MOL0     C39525  10.868   2.361   6.657  0.7489 -0.3218  0.1163
 1012MOL0     O39526  10.974   2.347   6.576 -0.2691  0.4913  0.0459
 1012MOL0     C39527  10.982   2.222   6.504  0.1405 -0.2085 -0.8465
 1012MOL0     C39528  11.097   2.225   6.397  0.4818 -0.2462 -0.2973
 1012MOL0     C39529  11.084   2.129   6.277 -0.0764 -0.7325  0.6149
 1012MOL0     C39530  11.221   2.129   6.209 -0.9299 -0.2715 -0.5594
 1012MOL0     C39531  11.205   2.078   6.056 -0.5335  0.5988 -0.6366
 1012MOL0     C39532  11.331   2.015   5.991  0.5099 -0.2353  0.3628
 1012MOL0     C39533  11.307   1.947   5.858 -0.7023 -0.3155  0.0818
 1012MOL0     C39534  11.427   1.896   5.777 -0.2260 -0.3016  0.2702
 1012MOL0     N39535  11.398   1.863   5.637 -0.6552 -0.0859 -0.4767
 1012MOL0     C39536  11.280   1.821   5.575 -0.0776 -0.3674  0.2581
 1012MOL0     C39537  11.318   1.785   5.445 -0.0523 -1.1517 -0.3480
 1012MOL0     C39538  11.231   1.750   5.327  0.5654  0.1412 -0.3107
 1012MOL0     C39539  11.188   1.604   5.346 -0.2035 -0.5637 -1.5084
 1012MOL0     C39540  11.239   1.520   5.231  0.9210  0.1840  0.1978
 1012MOL0     C39541  11.189   1.379   5.224  0.5276  0.6337  0.7462
 1012MOL0     O39542  11.226   1.307   5.349 -0.1999  0.9382 -0.6626
 1012MOL0     C39543  11.298   1.190   5.334  0.4841 -1.6346 -0.4278
 1012MOL0     C39544  11.292   1.101   5.435  0.3394  0.2398 -0.3664
 1012MOL0     C39545  11.384   0.998   5.452 -0.0809 -0.2979  0.4449
 1012MOL0     C39546  11.369   0.922   5.577 -0.5930 -0.1638 -0.4159
 1012MOL0     C39547  11.484   0.976   5.356 -0.3023  0.6650  0.2674
 1012MOL0     C39548  11.603   0.885   5.367 -0.4047  0.2280  0.3857
 1012MOL0     O39549  11.696   0.893   5.273  0.2955 -0.5047  0.3946
 1012MOL0     C39550  11.802   0.805   5.263 -0.6714 -0.4706  1.1580
 1012MOL0     C39551  11.800   0.695   5.177 -1.1410 -0.4117  0.6093
 1012MOL0     C39552  11.893   0.590   5.175 -0.2427  0.8317  0.0923
 1012MOL0     C39553  11.999   0.599   5.268  0.0007  0.7152 -1.1458
 1012MOL0     O39554  12.102   0.503   5.265 -0.1929 -0.3555  0.6601
 1012MOL0     C39555  12.063   0.368   5.262  0.0471  0.3316  0.1123
 1012MOL0     C39556  12.110   0.311   5.128  0.6848 -0.1627  0.2899
 1012MOL0     C39557  12.265   0.325   5.111 -0.1547  1.8244  0.9261
 1012MOL0     C39558  12.316   0.232   5.003  0.3318  0.4749 -0.2001
 1012MOL0     C39559  12.462   0.191   5.013  0.1949 -1.0420  0.1684
 1012MOL0     C39560  12.552   0.319   4.987  0.7517  0.5403 -0.0873
 1012MOL0     C39561  12.698   0.282   4.978  0.0658  0.2320  0.8891
 1012MOL0     C39562  12.793   0.395   4.936  0.4105  0.4877  0.6288
 1012MOL0    Cl39563  12.745   0.467   4.785  0.5799  0.1222  0.2755
 1012MOL0     C39564  12.007   0.703   5.361 -0.0485  0.8129  0.5790
 1012MOL0     C39565  11.918   0.813   5.348 -0.3753  0.6107 -0.3935
 1012MOL0     O39566  11.613   0.799   5.454 -0.6180 -0.4485  0.2559
 1012MOL0     C39567  11.496   1.075   5.251  0.8551 -0.2231 -0.2026
 1012MOL0     C39568  11.400   1.176   5.247  0.4650  0.6303  0.2325
 1012MOL0     N39569  11.453   1.780   5.446  0.0862 -0.6459 -0.0884
 1012MOL0     N39570  11.505   1.820   5.556  0.2494 -0.3092  0.4422
 1012MOL0     C39571  10.888   2.471   6.745  0.2037 -0.4024 -0.1311
 1012MOL0     C39572  10.789   2.515   6.837 -0.1877 -0.2129  0.6536
 1012MOL0     C39573  10.448   2.531   7.130  0.0305 -0.4169 -0.4668
 1012MOL0     C39574  10.372   2.628   7.078 -0.1032 -0.1756  0.5365
 1012MOL0     C39575  10.264   2.692   7.146 -0.7315  0.9769  0.4413
 1012MOL0     C39576  10.233   2.661   7.279 -0.7897 -0.9699 -0.5961
 1012MOL0     O39577  10.146   2.742   7.348 -0.5866 -0.3429  0.1836
 1012MOL0     C39578  10.125   2.715   7.486 -0.0615 -0.4154 -0.0938
 1012MOL0     C39579  10.035   2.816   7.559 -0.0159  1.2124 -0.5928
 1012MOL0     C39580  10.075   2.964   7.566  0.8459 -0.1288 -0.5026
 1012MOL0     C39581  10.066   3.027   7.429 -0.8492  0.1858  0.0211
 1012MOL0     C39582  10.078   3.171   7.446 -0.0178  0.1369 -0.4687
 1012MOL0     C39583  10.094   3.287   7.459 -0.8200  0.0610 -1.2949
 1012MOL0     C39584  10.315   2.562   7.337 -0.3726 -0.4032  1.0627
 1012MOL0     C39585  10.413   2.491   7.265  0.4213  0.2625 -0.0457
 1012MOL0     C39586  10.479   2.372   7.337  0.6677 -0.1396 -0.5071
 1012MOL0     H39587  10.546   2.293   6.745  0.4782 -0.0412 -4.1125
 1012MOL0     H39588  10.712   2.227   6.583  3.4551 -2.6694  1.5421
 1012MOL0     H39589  10.892   2.205   6.446  2.5822 -6.4049 -3.7003
 1012MOL0     H39590  10.988   2.135   6.570 -1.2387  1.2614  1.3864
 1012MOL0     H39591  11.094   2.327   6.358  1.6458  0.0256  0.2941
 1012MOL0     H39592  11.190   2.208   6.452  0.6817 -1.1345 -0.8811
 1012MOL0     H39593  11.065   2.027   6.311 -0.2879 -0.0844  2.5278
 1012MOL0     H39594  11.001   2.158   6.212  0.6140 -0.1437 -0.0196
 1012MOL0     H39595  11.278   2.222   6.210  0.1551 -0.9175 -1.1251
 1012MOL0     H39596  11.275   2.059   6.273 -2.4834 -0.0963  1.0377
 1012MOL0     H39597  11.163   2.157   5.994 -1.1644 -0.7940 -2.0638
 1012MOL0     H39598  11.123   2.005   6.057  1.8170 -2.2295 -0.7268
 1012MOL0     H39599  11.399   2.100   5.988  2.5778 -1.7446  1.4032
 1012MOL0     H39600  11.364   1.936   6.060 -2.7025 -2.0911 -0.0404
 1012MOL0     H39601  11.257   2.030   5.807 -2.1204 -1.0302  0.2557
 1012MOL0     H39602  11.235   1.865   5.868 -1.2619  0.0470 -0.8118
 1012MOL0     H39603  11.517   1.957   5.780 -0.4130  0.0130 -0.2826
 1012MOL0     H39604  11.464   1.805   5.824  1.7461 -0.4503 -1.4496
 1012MOL0     H39605  11.180   1.829   5.615 -1.0383  0.3703 -2.0984
 1012MOL0     H39606  11.282   1.785   5.238  0.9485  2.3960  0.7414
 1012MOL0     H39607  11.137   1.806   5.331  0.7687  0.4533  0.1833
 1012MOL0     H39608  11.229   1.557   5.436  0.2482  0.1734 -1.3173
 1012MOL0     H39609  11.080   1.600   5.356 -0.1762  1.0119 -0.0032
 1012MOL0     H39610  11.201   1.566   5.140  0.8840 -1.5096 -0.6910
 1012MOL0     H39611  11.348   1.517   5.247  0.8299 -0.3288  0.7647
 1012MOL0     H39612  11.083   1.373   5.197  1.0173 -0.5747 -1.0352
 1012MOL0     H39613  11.229   1.327   5.137  0.1319 -1.9260  2.0185
 1012MOL0     H39614  11.216   1.117   5.511  0.2644 -0.2630 -0.3324
 1012MOL0     H39615  11.410   0.824   5.553  2.4532  1.4643 -2.5052
 1012MOL0     H39616  11.268   0.920   5.619  0.5622 -0.3930  2.6294
 1012MOL0     H39617  11.429   0.978   5.650  0.7477  0.0620 -1.6565
 1012MOL0     H39618  11.720   0.699   5.104  1.9984 -0.0719 -3.2213
 1012MOL0     H39619  11.880   0.512   5.101 -2.9943  0.7482  0.5602
 1012MOL0     H39620  12.113   0.323   5.348  1.0720  0.8674 -0.1848
 1012MOL0     H39621  11.957   0.349   5.282  0.0372  0.6080  0.3440
 1012MOL0     H39622  12.085   0.204   5.121  0.0784 -0.0191  0.1791
 1012MOL0     H39623  12.044   0.346   5.047 -1.4463 -3.1593  0.5532
 1012MOL0     H39624  12.307   0.289   5.205  0.7994  1.6240  0.4298
 1012MOL0     H39625  12.294   0.428   5.089  2.4047  0.4298 -3.6855
 1012MOL0     H39626  12.293   0.276   4.905 -0.3692 -2.3637 -1.3864
 1012MOL0     H39627  12.255   0.142   5.002 -0.4355  0.8751  2.6164
 1012MOL0     H39628  12.490   0.157   5.113  0.8194 -1.7270 -0.2339
 1012MOL0     H39629  12.480   0.103   4.951  0.4291 -2.2346  1.8452
 1012MOL0     H39630  12.551   0.381   5.077  4.9818 -0.8603  1.1746
 1012MOL0     H39631  12.526   0.378   4.899  2.2213  0.5907 -0.5078
 1012MOL0     H39632  12.712   0.196   4.912  2.1746  1.8629 -0.9547
 1012MOL0     H39633  12.731   0.258   5.079  0.2380 -1.6245  0.4376
 1012MOL0     H39634  12.897   0.363   4.925  1.2457  2.2692  2.6053
 1012MOL0     H39635  12.792   0.468   5.017  0.6329  1.0349  0.1448
 1012MOL0     H39636  12.094   0.697   5.426  0.9139  1.5430 -0.6155
 1012MOL0     H39637  11.943   0.901   5.407  2.7494 -0.8313  0.6453
 1012MOL0     H39638  11.570   1.055   5.174  1.0766 -3.0481  0.5963
 1012MOL0     H39639  11.424   1.250   5.173  4.4212 -1.8299 -1.2852
 1012MOL0     H39640  10.979   2.530   6.750  0.2589 -0.5577  1.3693
 1012MOL0     H39641  10.802   2.607   6.893  0.9723  2.0975 -3.0541
 1012MOL0     H39642  10.398   2.656   6.977 -2.0889 -4.0003 -1.2308
 1012MOL0     H39643  10.209   2.770   7.094 -0.4657  1.4898  0.9175
 1012MOL0     H39644  10.081   2.615   7.493 -1.4257 -0.0323 -2.4409
 1012MOL0     H39645  10.225   2.724   7.530  0.8086  0.2600 -2.1004
 1012MOL0     H39646  10.004   2.780   7.658 -1.3742  2.5158 -0.5129
 1012MOL0     H39647   9.936   2.801   7.517  1.8330 -1.6514 -4.5650
 1012MOL0     H39648   9.991   3.010   7.620  1.0028 -0.9593  0.4672
 1012MOL0     H39649  10.171   2.987   7.613  1.3162 -1.5113 -0.7440
 1012MOL0     H39650   9.968   3.022   7.381 -1.0413  3.3562 -0.1011
 1012MOL0     H39651  10.154   2.988   7.376  0.8544  1.2227  1.9431
 1012MOL0     H39652  10.110   3.390   7.483  2.0901 -0.1254 -2.0426
 1012MOL0     H39653  10.304   2.540   7.442 -0.9358  0.1849  1.1362
 1012MOL0     H39654  10.416   2.336   7.419  0.9540 -0.9930 -0.6526
 1012MOL0     H39655  10.496   2.285   7.272  0.9620 -0.2226 -0.3226
 1012MOL0     H39656  10.579   2.399   7.374  1.0690  0.5965 -2.0755
 1013MOL0     O39657   3.134   2.399   4.649 -1.0413 -0.3132  0.2743
 1013MOL0     C39658   3.128   2.439   4.767 -1.3369 -0.4248  0.1683
 1013MOL0     O39659   3.091   2.566   4.801 -0.2531  0.8735  0.1905
 1013MOL0     C39660   3.095   2.664   4.705  0.8486  0.6788 -0.6565
 1013MOL0     C39661   2.989   2.677   4.624  0.3431 -0.5003  1.0754
 1013MOL0     C39662   2.977   2.775   4.522 -0.5064  0.7056  0.3191
 1013MOL0     C39663   3.078   2.868   4.507 -0.8896 -0.3847  0.5712
 1013MOL0     O39664   3.059   2.969   4.405 -0.6912 -0.1016 -0.4672
 1013MOL0     C39665   3.156   3.081   4.399  0.7951  0.5266  0.9708
 1013MOL0     C39666   3.119   3.184   4.301 -0.4860  0.1767  1.0309
 1013MOL0     C39667   2.994   3.270   4.336  0.0444 -0.6501  0.2887
 1013MOL0     C39668   2.960   3.348   4.209  0.6289  0.4790  0.2487
 1013MOL0     C39669   2.839   3.438   4.242  0.7279  0.8355  0.2930
 1013MOL0     C39670   2.766   3.495   4.115  0.8323  0.0361 -0.1318
 1013MOL0     C39671   2.853   3.598   4.038 -0.1094 -0.7823 -0.1894
 1013MOL0     C39672   2.780   3.637   3.913  0.1301 -0.4161 -0.7367
 1013MOL0     N39673   2.688   3.756   3.920 -0.0080  0.3237  0.5963
 1013MOL0     C39674   2.584   3.763   4.010 -0.5143  0.0401  0.3294
 1013MOL0     C39675   2.515   3.874   3.996  0.8233 -0.0219 -0.0971
 1013MOL0     C39676   2.382   3.926   4.058 -0.1793 -0.2621 -0.3640
 1013MOL0     C39677   2.398   4.054   4.153  0.0479 -0.5092 -0.3602
 1013MOL0     C39678   2.469   4.007   4.279 -0.2663 -0.7590  0.7382
 1013MOL0     C39679   2.493   4.115   4.392 -0.0691 -0.3700 -0.2557
 1013MOL0     O39680   2.374   4.184   4.393 -0.0802  0.6309 -0.5657
 1013MOL0     C39681   2.357   4.308   4.436  0.5005  0.0777  0.0445
 1013MOL0     C39682   2.441   4.362   4.527 -0.4733 -0.0480  0.6589
 1013MOL0     C39683   2.422   4.484   4.592  0.3694 -0.6621  0.4058
 1013MOL0     C39684   2.518   4.530   4.692  0.6216 -0.5461 -0.2387
 1013MOL0     C39685   2.301   4.553   4.558 -0.1711 -0.4125 -0.4871
 1013MOL0     C39686   2.260   4.689   4.622  0.4190  0.5642 -0.4530
 1013MOL0     O39687   2.130   4.728   4.591  0.3366 -0.3528 -0.3186
 1013MOL0     C39688   2.077   4.832   4.659  0.0043  0.0565 -1.1286
 1013MOL0     C39689   1.970   4.871   4.584  0.4289  0.0055  0.7489
 1013MOL0     C39690   1.915   4.993   4.608  0.6039 -0.5146  0.3787
 1013MOL0     C39691   1.933   5.052   4.732 -0.4395  0.2752 -0.2533
 1013MOL0     O39692   1.859   5.163   4.784 -1.1522 -0.6109  0.4824
 1013MOL0     C39693   1.723   5.140   4.822  0.3499  0.2926  0.1411
 1013MOL0     C39694   1.681   5.224   4.947 -0.4873 -0.7098  0.0572
 1013MOL0     C39695   1.736   5.171   5.075  0.3532  0.5809 -0.4497
 1013MOL0     C39696   1.779   5.270   5.184 -0.3986 -0.5616  0.4174
 1013MOL0     C39697   1.903   5.361   5.146 -1.0418 -0.2489 -0.3368
 1013MOL0     C39698   1.929   5.465   5.259 -0.2245 -1.0077  0.2547
 1013MOL0     C39699   1.978   5.407   5.388  0.1438 -0.1521  0.5851
 1013MOL0     C39700   2.031   5.508   5.488  0.9678  0.2039 -0.1415
 1013MOL0    Cl39701   1.921   5.638   5.549 -0.2517  0.6108  0.5944
 1013MOL0     C39702   2.044   5.004   4.812  0.7367 -0.1359  0.7637
 1013MOL0     C39703   2.116   4.886   4.780  0.3811  0.8616 -0.4053
 1013MOL0     O39704   2.349   4.761   4.676 -0.6974  0.4315 -0.7441
 1013MOL0     C39705   2.208   4.497   4.469 -0.7081  1.3750 -0.3734
 1013MOL0     C39706   2.236   4.368   4.411 -1.0827 -0.4165  1.3675
 1013MOL0     N39707   2.598   3.954   3.905  0.3894  1.1952 -0.5142
 1013MOL0     N39708   2.701   3.881   3.867 -0.5238  0.8170  0.3295
 1013MOL0     C39709   3.193   2.862   4.586  0.1044  0.6007 -0.4786
 1013MOL0     C39710   3.202   2.758   4.685 -0.2213 -0.5477  1.2451
 1013MOL0     C39711   3.161   2.348   4.881  0.6596 -0.0068  0.6442
 1013MOL0     C39712   3.106   2.396   5.002 -0.2544 -0.3444 -0.0213
 1013MOL0     C39713   3.130   2.325   5.121  0.5177 -0.2999 -0.3939
 1013MOL0     C39714   3.199   2.206   5.117  0.0023  0.6520  0.2058
 1013MOL0     O39715   3.202   2.143   5.241 -0.0367 -0.5397  0.2588
 1013MOL0     C39716   3.261   2.004   5.254  1.0083  0.5754  0.2498
 1013MOL0     C39717   3.208   1.946   5.388 -0.3358 -0.1617  0.2135
 1013MOL0     C39718   3.243   1.792   5.390  0.5191 -0.7131  0.0216
 1013MOL0     C39719   3.142   1.716   5.299 -0.6124 -0.0427 -0.5222
 1013MOL0     C39720   3.150   1.579   5.334  0.5959 -0.1692  0.6349
 1013MOL0     C39721   3.167   1.469   5.376  0.7911  0.7851  1.2302
 1013MOL0     C39722   3.255   2.159   4.994  0.6380  0.1350 -0.7908
 1013MOL0     C39723   3.234   2.230   4.876  0.0922 -0.0244 -0.2702
 1013MOL0     C39724   3.312   2.198   4.757  0.7884 -1.3596 -0.0694
 1013MOL0     H39725   2.910   2.603   4.624 -1.5961  1.4576  0.1008
 1013MOL0     H39726   2.885   2.774   4.464 -0.7104 -2.5817  0.5439
 1013MOL0     H39727   3.246   3.027   4.368 -0.6230  0.3341 -3.4880
 1013MOL0     H39728   3.160   3.135   4.494 -2.0416  3.7423 -0.5227
 1013MOL0     H39729   3.200   3.257   4.293  1.6694 -2.2856 -1.5160
 1013MOL0     H39730   3.119   3.139   4.202  0.9855 -1.4192  1.6956
 1013MOL0     H39731   2.908   3.208   4.360 -1.0363  1.4506  2.1915
 1013MOL0     H39732   3.026   3.334   4.419  0.0011 -1.6401  1.0865
 1013MOL0     H39733   3.031   3.418   4.162  1.2662 -1.5998 -2.0716
 1013MOL0     H39734   2.924   3.277   4.135 -5.4848  2.8794  0.3499
 1013MOL0     H39735   2.868   3.526   4.301  0.5732  2.8480 -2.4312
 1013MOL0     H39736   2.765   3.386   4.302  1.4424  0.0306  0.4977
 1013MOL0     H39737   2.757   3.403   4.056 -0.6859 -0.5748  0.9839
 1013MOL0     H39738   2.670   3.533   4.151 -1.3240 -2.6198 -2.5665
 1013MOL0     H39739   2.950   3.553   4.014  0.9698  2.4571 -2.5242
 1013MOL0     H39740   2.872   3.683   4.105  4.6052 -0.8528 -1.1054
 1013MOL0     H39741   2.860   3.646   3.838  2.9157 -0.0110  2.0493
 1013MOL0     H39742   2.716   3.553   3.886 -0.9617 -0.7087  2.3546
 1013MOL0     H39743   2.547   3.682   4.072 -3.3115  2.5225  2.1933
 1013MOL0     H39744   2.329   3.850   4.117 -1.0583  1.7610  1.6255
 1013MOL0     H39745   2.317   3.952   3.974  0.9192  2.0964 -0.5793
 1013MOL0     H39746   2.461   4.134   4.112  5.0231 -2.0362  3.3590
 1013MOL0     H39747   2.300   4.098   4.172  0.7547  1.8594 -1.7352
 1013MOL0     H39748   2.402   3.933   4.323 -0.1608 -0.6193  1.1339
 1013MOL0     H39749   2.565   3.962   4.254  0.5250  0.7628  0.9079
 1013MOL0     H39750   2.497   4.075   4.493 -0.6427 -1.0296 -0.4802
 1013MOL0     H39751   2.576   4.180   4.364 -1.1286  1.4144  0.5789
 1013MOL0     H39752   2.533   4.313   4.559  0.0580  1.0167  0.8012
 1013MOL0     H39753   2.575   4.454   4.745  2.7302  0.7937 -0.4871
 1013MOL0     H39754   2.459   4.573   4.774  0.4761  0.8725 -1.0710
 1013MOL0     H39755   2.591   4.604   4.659 -0.2198  1.3712  1.9282
 1013MOL0     H39756   1.954   4.820   4.489  1.5934  2.0820 -0.6494
 1013MOL0     H39757   1.839   5.039   4.545 -2.1498 -0.2224  3.6276
 1013MOL0     H39758   1.670   5.165   4.730  0.5344 -0.2271 -0.1115
 1013MOL0     H39759   1.708   5.039   4.862  0.7382  0.6238  1.1650
 1013MOL0     H39760   1.718   5.325   4.928  1.5600 -1.9033 -3.3446
 1013MOL0     H39761   1.572   5.232   4.951 -0.3844  0.2938  2.4587
 1013MOL0     H39762   1.816   5.100   5.051  0.1786  0.1465  0.2137
 1013MOL0     H39763   1.659   5.109   5.122  0.6489  1.0090  0.6318
 1013MOL0     H39764   1.803   5.219   5.278 -0.4193 -1.8701 -0.2669
 1013MOL0     H39765   1.684   5.324   5.188 -1.7615 -2.4744 -2.5653
 1013MOL0     H39766   1.991   5.310   5.107 -0.8377 -0.0093 -0.1971
 1013MOL0     H39767   1.871   5.423   5.062  0.7362  2.1276  0.6133
 1013MOL0     H39768   1.841   5.528   5.273 -0.2106 -0.7837 -0.5830
 1013MOL0     H39769   2.004   5.529   5.211 -0.6882 -1.4144 -1.0516
 1013MOL0     H39770   2.057   5.335   5.364 -0.8266  0.0097 -3.8524
 1013MOL0     H39771   1.900   5.344   5.433  0.4072 -0.4362  0.6547
 1013MOL0     H39772   2.120   5.558   5.448 -0.3482  3.3185  0.5070
 1013MOL0     H39773   2.053   5.453   5.580 -1.9542 -3.2954 -1.2882
 1013MOL0     H39774   2.067   5.055   4.905 -1.5594 -0.1616  1.4017
 1013MOL0     H39775   2.189   4.829   4.837 -2.6047 -5.5489 -2.1725
 1013MOL0     H39776   2.109   4.540   4.456 -1.9625 -1.0155  0.7338
 1013MOL0     H39777   2.168   4.320   4.342 -1.7770  4.5536 -1.9609
 1013MOL0     H39778   3.281   2.927   4.587  0.8954 -0.3193  2.9386
 1013MOL0     H39779   3.289   2.760   4.750 -0.4925 -0.7884  1.6231
 1013MOL0     H39780   3.050   2.488   5.013 -1.2811 -1.1719  2.4102
 1013MOL0     H39781   3.084   2.352   5.216 -3.2559  0.1917 -2.1491
 1013MOL0     H39782   3.236   1.937   5.171  0.8453 -1.7827  2.1152
 1013MOL0     H39783   3.370   2.008   5.267  1.1012 -0.2062 -0.2433
 1013MOL0     H39784   3.100   1.960   5.396 -0.3168 -0.2446  0.6873
 1013MOL0     H39785   3.253   2.001   5.471  0.1265  4.3975 -2.7199
 1013MOL0     H39786   3.336   1.771   5.336 -0.3898 -3.2166 -0.6936
 1013MOL0     H39787   3.243   1.749   5.491 -0.1517 -2.3606 -0.6376
 1013MOL0     H39788   3.185   1.724   5.199  1.5284  2.9731  0.5030
 1013MOL0     H39789   3.039   1.750   5.316  0.2776  3.1845 -0.9350
 1013MOL0     H39790   3.152   1.364   5.395 -1.3537  0.4037 -1.8769
 1013MOL0     H39791   3.305   2.064   4.979  2.7650  0.9561  0.5914
 1013MOL0     H39792   3.373   2.277   4.713 -1.5734 -0.2423 -1.5326
 1013MOL0     H39793   3.369   2.107   4.778  3.0806  0.1040  0.3877
 1013MOL0     H39794   3.252   2.176   4.668 -1.8531 -1.2298  1.5558
 1014MOL0     O39795   1.126   2.346   2.202 -0.6363 -0.1071 -0.4689
 1014MOL0     C39796   1.063   2.402   2.290  0.0640  0.5954  0.2794
 1014MOL0     O39797   0.931   2.373   2.321 -0.9210 -0.0943 -0.4737
 1014MOL0     C39798   0.878   2.250   2.283  0.5720  0.9885 -0.2917
 1014MOL0     C39799   0.865   2.228   2.144  0.0540 -0.1369 -0.7736
 1014MOL0     C39800   0.828   2.100   2.105  0.4577  0.3417 -0.5055
 1014MOL0     C39801   0.787   2.006   2.200  0.0746  0.9762  0.2437
 1014MOL0     O39802   0.755   1.868   2.173 -0.3137 -0.3064 -0.5061
 1014MOL0     C39803   0.746   1.823   2.031 -1.1561 -1.0244  0.1110
 1014MOL0     C39804   0.876   1.760   1.998  0.1222  0.4306  0.2799
 1014MOL0     C39805   0.898   1.630   2.066 -0.4635  0.4165 -0.1499
 1014MOL0     C39806   1.044   1.607   2.116  0.2826 -0.5792  0.3320
 1014MOL0     C39807   1.059   1.512   2.235 -0.1813 -0.0085 -0.1749
 1014MOL0     C39808   1.211   1.496   2.273  0.6859  0.1356 -0.6007
 1014MOL0     C39809   1.282   1.432   2.160  0.4628 -0.8127 -0.3612
 1014MOL0     C39810   1.417   1.375   2.212 -0.1639 -0.2893 -0.7220
 1014MOL0     N39811   1.392   1.262   2.305 -0.7395 -0.3039 -0.1209
 1014MOL0     C39812   1.309   1.149   2.304  0.5749  0.7175  1.2698
 1014MOL0     C39813   1.321   1.088   2.421 -0.6167  0.2620  0.3217
 1014MOL0     C39814   1.234   0.975   2.478 -0.4704  0.6973 -1.2014
 1014MOL0     C39815   1.119   1.014   2.567 -0.1291  0.2045  0.2978
 1014MOL0     C39816   1.006   1.085   2.488 -0.0488  0.5043  0.8709
 1014MOL0     C39817   0.928   0.986   2.388  0.3890 -1.0382  0.5968
 1014MOL0     O39818   0.832   1.049   2.306  0.8679 -0.5378 -0.2265
 1014MOL0     C39819   0.770   0.970   2.216 -0.1663  0.1788  1.3392
 1014MOL0     C39820   0.803   0.842   2.171  0.2317  1.0980  1.0830
 1014MOL0     C39821   0.730   0.782   2.066  0.4825 -0.3421 -0.9621
 1014MOL0     C39822   0.770   0.647   2.008 -0.2574 -0.4327 -0.3522
 1014MOL0     C39823   0.614   0.844   2.013  0.2844 -0.0265 -1.0436
 1014MOL0     C39824   0.528   0.786   1.909 -0.6170  0.6500  0.0655
 1014MOL0     O39825   0.465   0.872   1.823  0.8832  0.3181 -0.4910
 1014MOL0     C39826   0.385   0.822   1.718 -0.2447 -0.1364 -0.4408
 1014MOL0     C39827   0.253   0.784   1.743  0.5939  0.3604  0.7725
 1014MOL0     C39828   0.191   0.715   1.636 -0.7666  1.0718  0.8321
 1014MOL0     C39829   0.250   0.685   1.513 -0.8619  0.2036 -0.2762
 1014MOL0     O39830   0.189   0.620   1.406 -0.0980 -0.0677 -0.2340
 1014MOL0     C39831   0.061   0.551   1.423 -0.3132  0.1671 -0.0137
 1014MOL0     C39832   0.028   0.497   1.287  0.2414 -0.7393 -0.0953
 1014MOL0     C39833  -0.080   0.389   1.302  0.5567  0.2652 -0.6555
 1014MOL0     C39834  -0.086   0.324   1.165  0.4733  0.3512 -1.3603
 1014MOL0     C39835  -0.196   0.220   1.163  0.0412  0.8056 -0.3083
 1014MOL0     C39836  -0.176   0.121   1.039 -0.6257 -0.2691  0.2399
 1014MOL0     C39837  -0.139   0.200   0.912 -1.0616 -0.8357  0.1900
 1014MOL0     C39838  -0.156   0.115   0.793 -0.0681  0.5392 -0.1484
 1014MOL0    Cl39839  -0.101  -0.053   0.819 -0.3567 -0.3764  0.0129
 1014MOL0     C39840   0.389   0.710   1.495  0.3077 -0.1823 -0.3499
 1014MOL0     C39841   0.451   0.781   1.597 -0.4838  0.5785  0.0405
 1014MOL0     O39842   0.497   0.664   1.924  0.3515  0.7142  0.5434
 1014MOL0     C39843   0.565   0.970   2.076 -0.2589 -0.2472  0.0358
 1014MOL0     C39844   0.648   1.028   2.170 -0.0460  0.0939  0.0122
 1014MOL0     N39845   1.405   1.167   2.496  0.0286 -0.3152  0.3641
 1014MOL0     N39846   1.454   1.261   2.429 -0.3944 -0.4533 -0.6368
 1014MOL0     C39847   0.779   2.030   2.335 -0.0309 -0.3181 -0.1914
 1014MOL0     C39848   0.834   2.158   2.371 -0.4599  0.1957 -1.1350
 1014MOL0     C39849   1.132   2.483   2.387  0.1439  0.2343 -0.3763
 1014MOL0     C39850   1.065   2.567   2.476  0.5827  0.4827  0.0162
 1014MOL0     C39851   1.135   2.641   2.569 -0.5659 -0.3440  0.3753
 1014MOL0     C39852   1.274   2.635   2.589 -0.6690  0.2112  0.7919
 1014MOL0     O39853   1.356   2.716   2.669  0.4167  0.0174 -0.0868
 1014MOL0     C39854   1.296   2.764   2.795 -0.3528  0.4195  0.1088
 1014MOL0     C39855   1.393   2.858   2.877  0.0726  0.0287 -0.4590
 1014MOL0     C39856   1.455   2.964   2.781  0.1763  1.9668 -0.1543
 1014MOL0     C39857   1.518   3.089   2.844  0.4057 -0.1223  0.2954
 1014MOL0     C39858   1.561   3.180   2.743 -0.4050 -0.0082  0.2759
 1014MOL0     C39859   1.590   3.267   2.669 -0.9075  0.2135  0.3531
 1014MOL0     C39860   1.333   2.547   2.505 -0.0776  0.2455  0.1508
 1014MOL0     C39861   1.275   2.470   2.407  0.5347 -0.3213  0.0989
 1014MOL0     C39862   1.364   2.380   2.330  0.3542 -0.2234 -0.0535
 1014MOL0     H39863   0.890   2.311   2.078 -0.7875 -0.3699 -1.4019
 1014MOL0     H39864   0.830   2.073   2.000 -1.8188  1.2686 -0.8398
 1014MOL0     H39865   0.728   1.907   1.963  1.4208 -0.3911  0.1137
 1014MOL0     H39866   0.665   1.750   2.021 -2.6648  0.2812  2.1034
 1014MOL0     H39867   0.878   1.745   1.890  0.1417 -0.5653  0.4140
 1014MOL0     H39868   0.954   1.828   2.034  1.6078 -1.6687  1.1673
 1014MOL0     H39869   0.839   1.628   2.158 -0.4721  0.4754 -0.1541
 1014MOL0     H39870   0.855   1.555   2.000 -1.7093  3.0503 -2.5360
 1014MOL0     H39871   1.099   1.572   2.027  0.3727 -1.1437  0.6010
 1014MOL0     H39872   1.071   1.710   2.140 -2.8513  1.0655 -2.3395
 1014MOL0     H39873   1.020   1.415   2.205  0.6577 -0.4736  0.1875
 1014MOL0     H39874   0.995   1.544   2.318  1.3574 -1.4779  1.6934
 1014MOL0     H39875   1.249   1.587   2.320 -0.7833  0.2238  0.5127
 1014MOL0     H39876   1.205   1.421   2.352  3.4719 -0.2780 -0.6827
 1014MOL0     H39877   1.305   1.516   2.093  2.2229 -1.3001 -0.4290
 1014MOL0     H39878   1.224   1.358   2.105 -2.9632  3.6330 -3.4092
 1014MOL0     H39879   1.482   1.347   2.128 -0.8968 -0.2053 -1.3196
 1014MOL0     H39880   1.476   1.458   2.253  1.2529 -1.0002 -1.2242
 1014MOL0     H39881   1.240   1.123   2.225 -0.0549  0.8078  1.7738
 1014MOL0     H39882   1.305   0.912   2.531 -0.2119  0.3084 -1.9866
 1014MOL0     H39883   1.202   0.917   2.391  0.6963  1.0826 -1.9139
 1014MOL0     H39884   1.076   0.925   2.614  0.2131 -1.6427 -2.6502
 1014MOL0     H39885   1.155   1.076   2.649 -1.4533  1.0301  0.2993
 1014MOL0     H39886   0.935   1.110   2.567 -2.4129 -2.5431 -0.0687
 1014MOL0     H39887   1.030   1.183   2.447  0.6094 -0.9781 -2.5906
 1014MOL0     H39888   1.008   0.938   2.330  0.1330 -2.9717  1.7381
 1014MOL0     H39889   0.876   0.912   2.450 -0.0440 -1.1691  0.0862
 1014MOL0     H39890   0.893   0.794   2.206 -1.1353 -3.2217 -0.5324
 1014MOL0     H39891   0.701   0.582   2.062  0.3139 -1.4621 -0.8185
 1014MOL0     H39892   0.872   0.616   2.034  0.6996 -0.2050 -3.3460
 1014MOL0     H39893   0.759   0.643   1.899  0.0816 -0.5840 -0.3828
 1014MOL0     H39894   0.196   0.795   1.835 -1.1596  2.1644 -0.4537
 1014MOL0     H39895   0.083   0.703   1.635 -0.9634  2.2650 -2.0433
 1014MOL0     H39896   0.075   0.465   1.489 -0.4431 -1.5368 -2.0950
 1014MOL0     H39897  -0.022   0.617   1.451  1.5234  2.5312  0.2241
 1014MOL0     H39898  -0.009   0.574   1.219 -0.0661  0.4976  1.4345
 1014MOL0     H39899   0.119   0.461   1.236  1.1114  0.8774  0.2487
 1014MOL0     H39900  -0.175   0.438   1.321  0.5152  0.3019 -0.9562
 1014MOL0     H39901  -0.051   0.320   1.382 -1.5010  0.0713 -0.0278
 1014MOL0     H39902   0.007   0.280   1.128 -0.4403  0.4195 -3.9144
 1014MOL0     H39903  -0.099   0.406   1.093  0.2852  0.8407 -0.7867
 1014MOL0     H39904  -0.192   0.154   1.250  3.9051 -0.7130 -1.4430
 1014MOL0     H39905  -0.292   0.271   1.151  0.5294  2.3101  1.6696
 1014MOL0     H39906  -0.263   0.058   1.016 -1.5520 -0.5175  3.8396
 1014MOL0     H39907  -0.099   0.050   1.067  1.1014  0.4014 -2.4061
 1014MOL0     H39908  -0.041   0.249   0.915 -2.3735  1.9497  0.5345
 1014MOL0     H39909  -0.209   0.283   0.897 -1.5515 -0.6028  3.0776
 1014MOL0     H39910  -0.104   0.150   0.703  0.9534 -1.6020 -0.4508
 1014MOL0     H39911  -0.262   0.125   0.770 -0.5318 -1.0897  1.1188
 1014MOL0     H39912   0.435   0.659   1.411  2.2778  0.1762  0.4373
 1014MOL0     H39913   0.557   0.801   1.581 -0.5858  0.1957 -1.2533
 1014MOL0     H39914   0.474   1.014   2.038 -0.5485 -1.6297 -0.9399
 1014MOL0     H39915   0.616   1.116   2.224  2.6063  1.2380 -0.0906
 1014MOL0     H39916   0.761   1.955   2.412 -2.8803  0.8100  0.3629
 1014MOL0     H39917   0.841   2.173   2.478  2.4689 -5.2878 -0.1991
 1014MOL0     H39918   0.961   2.596   2.464  0.7693  1.4149  0.6147
 1014MOL0     H39919   1.092   2.729   2.615  0.5627  0.2741  0.2854
 1014MOL0     H39920   1.205   2.821   2.777 -0.0430  1.0727  0.5653
 1014MOL0     H39921   1.263   2.679   2.857  0.8920  0.9542  1.5726
 1014MOL0     H39922   1.470   2.797   2.925 -1.5927 -0.4927  1.7096
 1014MOL0     H39923   1.331   2.914   2.947 -1.7009  0.7103 -2.4786
 1014MOL0     H39924   1.530   2.923   2.713 -2.2527  0.0787 -1.9005
 1014MOL0     H39925   1.380   2.985   2.703  0.4577  0.9115 -0.7293
 1014MOL0     H39926   1.591   3.079   2.924 -0.6545 -0.6078  1.2192
 1014MOL0     H39927   1.430   3.132   2.892  0.8521  3.0506 -1.4460
 1014MOL0     H39928   1.608   3.353   2.608 -1.2377 -1.2605 -1.9625
 1014MOL0     H39929   1.440   2.531   2.509 -0.1495 -1.0152 -1.9466
 1014MOL0     H39930   1.337   2.276   2.353 -1.2042 -0.2844 -1.9514
 1014MOL0     H39931   1.362   2.402   2.223 -0.9812 -1.9538 -0.4250
 1014MOL0     H39932   1.473   2.382   2.340  0.2958  0.8580  0.5346
 1015MOL0     O39933   5.134  11.068   9.587 -0.0744  0.1989  0.1726
 1015MOL0     C39934   5.070  11.135   9.666 -0.9509 -0.3869  0.2729
 1015MOL0     O39935   4.942  11.115   9.695  0.2559 -1.3595 -0.5681
 1015MOL0     C39936   4.863  11.046   9.611  0.0345 -0.8012  1.2783
 1015MOL0     C39937   4.771  11.104   9.531 -0.5024 -0.0689  0.5001
 1015MOL0     C39938   4.682  11.042   9.444  0.5586 -0.8726  0.6177
 1015MOL0     C39939   4.685  10.903   9.438  0.4214  0.3013  0.1768
 1015MOL0     O39940   4.615  10.840   9.338  0.7085  0.4770  0.0435
 1015MOL0     C39941   4.525  10.733   9.386  0.3890  0.0146  1.0582
 1015MOL0     C39942   4.383  10.730   9.323 -0.0183 -0.6785 -0.2683
 1015MOL0     C39943   4.303  10.854   9.328  0.7650 -0.0705 -0.4520
 1015MOL0     C39944   4.160  10.815   9.369  1.1895  0.4891  0.5244
 1015MOL0     C39945   4.060  10.754   9.258  0.1084  0.8498 -0.3411
 1015MOL0     C39946   3.926  10.696   9.321  0.3355 -0.2220  1.0129
 1015MOL0     C39947   3.867  10.582   9.238  0.6623 -2.0172  0.7648
 1015MOL0     C39948   3.871  10.450   9.304  0.0091 -0.8037 -0.1012
 1015MOL0     N39949   4.014  10.409   9.321 -0.5941 -0.5723 -0.4325
 1015MOL0     C39950   4.097  10.357   9.227 -0.0321  0.0876  0.4456
 1015MOL0     C39951   4.221  10.350   9.276  0.6816  0.8643  0.9479
 1015MOL0     C39952   4.332  10.273   9.204  0.1019  0.5194  0.2859
 1015MOL0     C39953   4.418  10.361   9.120 -0.2344  0.7623 -0.2889
 1015MOL0     C39954   4.549  10.287   9.076  0.0307 -0.7182 -0.4570
 1015MOL0     C39955   4.675  10.346   9.138 -0.4031  0.0729 -0.6177
 1015MOL0     O39956   4.670  10.370   9.277 -0.6892 -1.4494 -0.4284
 1015MOL0     C39957   4.672  10.274   9.371 -0.9994  0.3699 -0.5985
 1015MOL0     C39958   4.731  10.155   9.350 -1.1684  0.0615 -0.7809
 1015MOL0     C39959   4.715  10.044   9.443  0.9199 -0.2226 -0.3085
 1015MOL0     C39960   4.801   9.920   9.428 -0.8721 -0.2129  0.0687
 1015MOL0     C39961   4.628  10.066   9.556 -1.1018 -0.1619  1.1618
 1015MOL0     C39962   4.599   9.959   9.655 -0.0242  0.3321 -0.2357
 1015MOL0     O39963   4.630   9.833   9.636 -0.7191  0.2491 -0.9606
 1015MOL0     C39964   4.636   9.753   9.756  0.3837  0.2633 -0.2920
 1015MOL0     C39965   4.755   9.733   9.827  0.1902  0.9188  0.5802
 1015MOL0     C39966   4.754   9.640   9.937  0.3200  0.0917  0.0938
 1015MOL0     C39967   4.640   9.573   9.971  0.4647  0.5856 -0.3867
 1015MOL0     O39968   4.626   9.494  10.084 -0.1316  0.6138  0.5736
 1015MOL0     C39969   4.743   9.444  10.149 -0.8088 -0.1679 -0.4417
 1015MOL0     C39970   4.700   9.342  10.265 -0.3305  0.6160  0.3809
 1015MOL0     C39971   4.828   9.252  10.295 -0.5059  0.5997 -0.1977
 1015MOL0     C39972   4.814   9.122  10.227  0.7897 -0.1323 -0.4509
 1015MOL0     C39973   4.959   9.066  10.218  0.0880  0.0916  0.2985
 1015MOL0     C39974   4.951   8.933  10.135 -0.5364 -1.4098 -0.0365
 1015MOL0     C39975   5.083   8.886  10.076 -1.3132 -0.1155 -0.0719
 1015MOL0     C39976   5.070   8.747  10.013  1.2341 -0.1626 -0.6874
 1015MOL0    Cl39977   5.204   8.658   9.968  0.0717  0.3793 -0.2567
 1015MOL0     C39978   4.520   9.602   9.905 -0.4251  0.0639 -0.3921
 1015MOL0     C39979   4.512   9.695   9.799 -0.3628 -0.0527  0.5646
 1015MOL0     O39980   4.558  10.005   9.760 -0.1002 -0.0052 -0.8959
 1015MOL0     C39981   4.571  10.194   9.572 -0.2312 -0.0271  0.2478
 1015MOL0     C39982   4.590  10.299   9.476 -0.0268  0.3443  0.2396
 1015MOL0     N39983   4.220  10.411   9.401 -0.4438 -0.3276  0.7941
 1015MOL0     N39984   4.099  10.429   9.429 -0.2515 -0.2584  0.0210
 1015MOL0     C39985   4.771  10.831   9.524 -0.1968 -0.5199  0.2793
 1015MOL0     C39986   4.857  10.906   9.614  0.2317 -0.2470  0.2299
 1015MOL0     C39987   5.138  11.235   9.750  0.4048 -0.1601  0.0845
 1015MOL0     C39988   5.064  11.289   9.862 -0.4726  0.2217  0.3562
 1015MOL0     C39989   5.123  11.368   9.957  0.4591  0.1527  0.4950
 1015MOL0     C39990   5.257  11.407   9.953  0.2497 -0.8707 -0.4253
 1015MOL0     O39991   5.302  11.484  10.055  0.1965 -1.4053 -0.1077
 1015MOL0     C39992   5.400  11.588  10.045 -0.6658  0.4945 -1.1993
 1015MOL0     C39993   5.378  11.695   9.934 -0.5030 -0.6035  0.5628
 1015MOL0     C39994   5.236  11.760   9.951 -0.3341 -0.6384  1.1239
 1015MOL0     C39995   5.199  11.866   9.839 -0.4618  0.3676 -0.9713
 1015MOL0     C39996   5.210  11.804   9.708  1.0158 -0.2205 -0.8404
 1015MOL0     C39997   5.223  11.759   9.592  0.9556  0.2478 -0.6615
 1015MOL0     C39998   5.327  11.354   9.842  0.2346  0.2390  0.0168
 1015MOL0     C39999   5.270  11.275   9.742  0.2206 -0.2151  1.0227
 1015MOL0     C40000   5.363  11.242   9.629 -0.3911  1.4740 -0.2139
 1015MOL0     H40001   4.750  11.211   9.533  3.3884  0.8447 -0.0603
 1015MOL0     H40002   4.620  11.105   9.381  0.1267  1.8057  3.4658
 1015MOL0     H40003   4.522  10.728   9.495  2.6092 -1.1996  1.1191
 1015MOL0     H40004   4.563  10.633   9.365 -0.3160  0.2758 -1.8407
 1015MOL0     H40005   4.402  10.710   9.217  3.0030 -0.8665  0.2097
 1015MOL0     H40006   4.321  10.652   9.368 -4.9136  0.0734 -4.7118
 1015MOL0     H40007   4.341  10.924   9.403  0.5942 -1.6299  1.1450
 1015MOL0     H40008   4.295  10.906   9.232  0.8037  0.9923  0.1003
 1015MOL0     H40009   4.154  10.748   9.455 -4.6345  0.8978  0.8412
 1015MOL0     H40010   4.117  10.914   9.386  2.1756  1.1235 -0.5199
 1015MOL0     H40011   4.105  10.680   9.191 -0.6684 -0.4816  0.5890
 1015MOL0     H40012   4.033  10.826   9.179  0.3652 -1.3764 -2.5729
 1015MOL0     H40013   3.942  10.654   9.420  0.1830 -1.6099  0.4717
 1015MOL0     H40014   3.851  10.773   9.339 -2.4908 -2.8466  1.2002
 1015MOL0     H40015   3.904  10.586   9.135  1.8855  1.2854  1.2064
 1015MOL0     H40016   3.762  10.611   9.235  1.4226  1.0813 -0.0875
 1015MOL0     H40017   3.830  10.462   9.404 -0.8167 -1.7859 -0.3050
 1015MOL0     H40018   3.815  10.374   9.249 -1.0730  0.8320 -1.3753
 1015MOL0     H40019   4.057  10.319   9.134  1.6729 -0.8273  0.0425
 1015MOL0     H40020   4.286  10.198   9.140  0.4505  0.3051  0.2844
 1015MOL0     H40021   4.392  10.213   9.273  1.6463  1.4794 -0.1798
 1015MOL0     H40022   4.348  10.386   9.040 -0.2281  3.5134  0.4514
 1015MOL0     H40023   4.441  10.457   9.168 -0.0683  2.4902 -3.5482
 1015MOL0     H40024   4.537  10.179   9.088  0.6881 -1.0067 -2.1249
 1015MOL0     H40025   4.556  10.309   8.969 -0.1804 -0.4600 -0.4207
 1015MOL0     H40026   4.761  10.283   9.114 -0.8896  0.4299 -3.6550
 1015MOL0     H40027   4.674  10.446   9.093  0.9456  0.0874 -0.6497
 1015MOL0     H40028   4.803  10.147   9.268  1.1017  0.3648  1.0796
 1015MOL0     H40029   4.873   9.906   9.509 -0.5029 -2.7369 -0.6200
 1015MOL0     H40030   4.867   9.926   9.340 -1.1140  2.1100 -0.0399
 1015MOL0     H40031   4.738   9.832   9.420 -0.1058 -0.7991  0.4111
 1015MOL0     H40032   4.846   9.785   9.797 -0.9632  1.1076 -3.0396
 1015MOL0     H40033   4.842   9.619   9.997 -0.1688 -1.1177  0.4045
 1015MOL0     H40034   4.810   9.398  10.077  0.2445 -0.6027  0.7773
 1015MOL0     H40035   4.801   9.517  10.206 -3.1312  1.3222  0.1725
 1015MOL0     H40036   4.672   9.400  10.354  2.0595  2.8921 -0.2214
 1015MOL0     H40037   4.615   9.280  10.235  0.7533 -0.1273 -1.2832
 1015MOL0     H40038   4.856   9.236  10.399 -2.5090 -0.2540  0.2397
 1015MOL0     H40039   4.913   9.311  10.257  0.8483  0.2378  2.0717
 1015MOL0     H40040   4.783   9.129  10.123  2.2911  0.4771 -0.8732
 1015MOL0     H40041   4.742   9.058  10.280  0.8581  0.9967  1.0825
 1015MOL0     H40042   5.027   9.135  10.169 -0.2116  1.9459  2.3177
 1015MOL0     H40043   5.006   9.044  10.315  5.9345 -1.8876 -2.5244
 1015MOL0     H40044   4.876   8.947  10.057  0.6558  0.4689 -0.9262
 1015MOL0     H40045   4.912   8.859  10.206 -1.5678 -1.7854 -0.9753
 1015MOL0     H40046   5.159   8.881  10.155 -0.7686  0.3252 -0.5589
 1015MOL0     H40047   5.114   8.964  10.006 -1.9012  2.1322  2.0195
 1015MOL0     H40048   5.004   8.761   9.927 -0.0693  2.2031  0.5905
 1015MOL0     H40049   5.001   8.701  10.085  0.6056  1.5834 -0.1377
 1015MOL0     H40050   4.440   9.549   9.957  1.2856 -4.8996 -2.2124
 1015MOL0     H40051   4.416   9.719   9.754 -0.7151 -1.7064  0.3326
 1015MOL0     H40052   4.503  10.199   9.657  1.3667  0.9228  1.5221
 1015MOL0     H40053   4.534  10.392   9.481 -3.1999 -1.4975  2.2559
 1015MOL0     H40054   4.795  10.725   9.528  2.5642  0.0287  0.9741
 1015MOL0     H40055   4.933  10.852   9.669 -0.1376 -0.1575  0.8410
 1015MOL0     H40056   4.964  11.254   9.884 -1.5451  2.6496 -0.3428
 1015MOL0     H40057   5.062  11.404  10.039  0.3931 -1.0879  1.0068
 1015MOL0     H40058   5.395  11.640  10.141  3.1904 -1.3866  0.2509
 1015MOL0     H40059   5.493  11.532  10.033 -1.3892 -1.3041  0.8728
 1015MOL0     H40060   5.384  11.646   9.836 -0.1831 -2.4826  1.4923
 1015MOL0     H40061   5.449  11.778   9.938 -0.4824 -0.5598 -0.3491
 1015MOL0     H40062   5.156  11.686   9.946 -1.4607  0.4575  2.0063
 1015MOL0     H40063   5.228  11.797  10.054  0.4932  0.1601  0.9186
 1015MOL0     H40064   5.260  11.956   9.849 -0.9086  0.4298  1.9945
 1015MOL0     H40065   5.098  11.903   9.854  0.0770  1.0992  1.2915
 1015MOL0     H40066   5.249  11.697   9.509 -0.2364  0.2925 -1.0820
 1015MOL0     H40067   5.432  11.379   9.833  0.3205 -0.1489 -0.0867
 1015MOL0     H40068   5.306  11.216   9.539  0.5303 -1.7373  0.0035
 1015MOL0     H40069   5.440  11.315   9.604  0.7710 -0.0489 -1.2598
 1015MOL0     H40070   5.409  11.144   9.643 -1.4466  0.7784 -1.3357
 1016MOL0     O40071   4.014   2.892  10.869  0.4015  0.6439 -0.1539
 1016MOL0     C40072   3.919   2.821  10.899  1.1022  0.1673 -0.5741
 1016MOL0     O40073   3.825   2.779  10.809  0.2388 -1.1893  0.3811
 1016MOL0     C40074   3.846   2.804  10.674  0.0245 -0.7432  0.1375
 1016MOL0     C40075   3.858   2.935  10.628 -0.8710  0.0670  0.5011
 1016MOL0     C40076   3.880   2.965  10.500  1.1999  0.3160 -0.2110
 1016MOL0     C40077   3.875   2.864  10.409 -0.3531  0.5005  0.0383
 1016MOL0     O40078   3.893   2.901  10.275 -0.1439  0.4635 -0.3851
 1016MOL0     C40079   3.928   2.802  10.173 -0.6897  0.4226  0.1997
 1016MOL0     C40080   4.069   2.756  10.205 -0.3123  0.0797 -0.2519
 1016MOL0     C40081   4.119   2.660  10.086  0.1103 -0.2764  0.1857
 1016MOL0     C40082   4.249   2.596  10.125  0.3628 -0.3312  0.1297
 1016MOL0     C40083   4.303   2.490  10.022  0.2216  0.2510 -0.0906
 1016MOL0     C40084   4.445   2.448  10.053 -0.0675 -0.4240 -0.3659
 1016MOL0     C40085   4.508   2.357   9.944  1.0370 -0.6100 -0.2856
 1016MOL0     C40086   4.422   2.236   9.877 -0.3385 -0.5375 -0.2184
 1016MOL0     N40087   4.522   2.164   9.801  1.4069  0.4750  1.1129
 1016MOL0     C40088   4.556   2.208   9.676 -0.4654  0.1626  0.7079
 1016MOL0     C40089   4.631   2.116   9.621 -0.3892 -0.6144  0.2453
 1016MOL0     C40090   4.683   2.112   9.477  0.2030  0.6883  0.1821
 1016MOL0     C40091   4.794   2.211   9.459 -1.7867 -0.1160  0.0322
 1016MOL0     C40092   4.858   2.196   9.324 -0.5158 -0.7901  0.3890
 1016MOL0     C40093   5.008   2.214   9.330  0.5635 -0.3692  0.0838
 1016MOL0     O40094   5.062   2.210   9.197 -0.1094  0.4255 -0.1423
 1016MOL0     C40095   5.194   2.232   9.194 -0.0675 -0.1495  0.1959
 1016MOL0     C40096   5.282   2.272   9.291 -0.4238  0.3935 -0.7451
 1016MOL0     C40097   5.418   2.247   9.269  0.5528  0.0177 -0.0981
 1016MOL0     C40098   5.509   2.281   9.386 -0.1806  0.1387 -0.1957
 1016MOL0     C40099   5.467   2.190   9.140  0.1880 -1.1894 -0.5206
 1016MOL0     C40100   5.605   2.167   9.106 -0.2814  0.1393 -0.4062
 1016MOL0     O40101   5.693   2.237   9.183 -0.0168  1.2980  0.1569
 1016MOL0     C40102   5.823   2.187   9.160 -0.4383 -0.5999 -1.1488
 1016MOL0     C40103   5.916   2.251   9.072 -0.4652 -0.8023 -0.2548
 1016MOL0     C40104   6.055   2.208   9.072  0.1995  0.1168 -0.7890
 1016MOL0     C40105   6.104   2.110   9.159  0.2641 -0.2217  0.0854
 1016MOL0     O40106   6.235   2.070   9.177  0.5953  0.2992 -0.1243
 1016MOL0     C40107   6.347   2.107   9.104  0.3350  0.8231  0.7336
 1016MOL0     C40108   6.363   2.010   8.982  0.1961 -0.4645  0.0266
 1016MOL0     C40109   6.471   2.056   8.889  0.0848  0.4612  0.2557
 1016MOL0     C40110   6.497   1.951   8.773  0.1208 -0.2090 -0.1585
 1016MOL0     C40111   6.543   1.821   8.848  0.8399  0.7740  0.6041
 1016MOL0     C40112   6.583   1.707   8.758  0.0465  0.5322  0.3269
 1016MOL0     C40113   6.731   1.713   8.710  0.5996 -1.1242 -0.7468
 1016MOL0     C40114   6.779   1.575   8.653  0.3000 -0.7884 -0.0032
 1016MOL0    Cl40115   6.825   1.469   8.778 -0.0942 -0.0406 -0.1285
 1016MOL0     C40116   6.011   2.070   9.255 -0.6409 -0.3343  0.5174
 1016MOL0     C40117   5.870   2.103   9.259 -0.3659  0.3878  0.0269
 1016MOL0     O40118   5.636   2.096   9.005  0.2918  0.1027 -0.1911
 1016MOL0     C40119   5.377   2.167   9.039 -0.1500 -0.9175 -0.4429
 1016MOL0     C40120   5.241   2.180   9.075  0.7280  0.1561  0.1157
 1016MOL0     N40121   4.663   2.027   9.725 -0.1998  0.4317 -0.3912
 1016MOL0     N40122   4.594   2.053   9.825  0.3440 -0.3850  0.2448
 1016MOL0     C40123   3.840   2.736  10.448 -0.0958 -0.1500  0.4971
 1016MOL0     C40124   3.833   2.708  10.585 -0.8818  0.3609  0.1135
 1016MOL0     C40125   3.893   2.788  11.036  0.6721 -0.2807 -0.7549
 1016MOL0     C40126   3.933   2.882  11.131  0.0204  0.6031  1.0614
 1016MOL0     C40127   3.902   2.861  11.262  0.3262 -0.6633  0.5563
 1016MOL0     C40128   3.841   2.741  11.307 -0.3083 -1.0082 -0.7623
 1016MOL0     O40129   3.839   2.738  11.445 -0.6489 -0.7435  0.4382
 1016MOL0     C40130   3.777   2.629  11.506  0.2114 -0.8200 -0.6450
 1016MOL0     C40131   3.628   2.636  11.511 -0.6943 -0.5661  0.6164
 1016MOL0     C40132   3.580   2.756  11.590  1.0617 -0.5457  0.0548
 1016MOL0     C40133   3.424   2.742  11.627 -0.4268 -0.4067 -0.2520
 1016MOL0     C40134   3.371   2.858  11.698  0.1255 -0.4925  1.3374
 1016MOL0     C40135   3.326   2.961  11.747  0.2137  0.5311  0.2522
 1016MOL0     C40136   3.813   2.641  11.216  0.1912 -0.8372  0.0234
 1016MOL0     C40137   3.838   2.666  11.081 -0.7085 -0.1988  0.0923
 1016MOL0     C40138   3.801   2.551  10.978  0.5413 -0.0914 -0.7103
 1016MOL0     H40139   3.857   3.015  10.701 -1.2377  1.2091 -0.7111
 1016MOL0     H40140   3.887   3.061  10.450  0.1650 -0.1607 -1.3316
 1016MOL0     H40141   3.918   2.832  10.068 -2.1310 -0.1386  0.1531
 1016MOL0     H40142   3.858   2.718  10.179 -0.6965  0.5376  2.6056
 1016MOL0     H40143   4.135   2.841  10.226 -0.0941 -0.8064  3.1375
 1016MOL0     H40144   4.071   2.693  10.294  2.9849 -0.7221 -0.7544
 1016MOL0     H40145   4.047   2.585  10.054  1.6268 -2.7907  2.2615
 1016MOL0     H40146   4.142   2.734  10.008 -1.5273 -0.4407 -0.4928
 1016MOL0     H40147   4.323   2.676  10.128  0.5856 -0.3731 -2.3750
 1016MOL0     H40148   4.241   2.554  10.226 -0.9814 -2.3664 -0.7589
 1016MOL0     H40149   4.298   2.529   9.920  1.3917  3.1569  0.8642
 1016MOL0     H40150   4.233   2.405  10.024  0.4349  0.0033 -1.7561
 1016MOL0     H40151   4.509   2.537  10.050 -1.8097  0.8723 -2.7165
 1016MOL0     H40152   4.449   2.406  10.154  2.2739 -0.2334 -0.3329
 1016MOL0     H40153   4.601   2.321   9.988  1.3631  1.7974  1.1461
 1016MOL0     H40154   4.533   2.415   9.855 -0.9515  0.7998  0.0099
 1016MOL0     H40155   4.395   2.160   9.950  0.9314  0.8574  1.7983
 1016MOL0     H40156   4.341   2.264   9.808  0.1139  2.0951  0.2044
 1016MOL0     H40157   4.550   2.308   9.634  0.6186 -0.0541 -0.0212
 1016MOL0     H40158   4.600   2.129   9.408  2.4644  2.6322 -2.2365
 1016MOL0     H40159   4.713   2.008   9.462 -2.0795  0.0249 -0.1609
 1016MOL0     H40160   4.767   2.312   9.491  1.0553 -0.2871  3.6333
 1016MOL0     H40161   4.870   2.180   9.531 -0.0731  3.0877 -0.1933
 1016MOL0     H40162   4.823   2.099   9.287 -3.1522  1.1055 -2.6545
 1016MOL0     H40163   4.816   2.271   9.256  1.5323 -1.3183 -1.6074
 1016MOL0     H40164   5.027   2.312   9.373  0.8090  0.0637 -0.9845
 1016MOL0     H40165   5.052   2.129   9.382  0.5668  1.5506  3.4443
 1016MOL0     H40166   5.239   2.311   9.383  0.5879 -2.5098  1.1224
 1016MOL0     H40167   5.567   2.370   9.361 -2.6292  2.1001  0.7425
 1016MOL0     H40168   5.577   2.196   9.397 -1.9784 -1.5273 -1.1205
 1016MOL0     H40169   5.444   2.310   9.469  2.3422  0.9739  1.6112
 1016MOL0     H40170   5.880   2.329   9.007  0.1693 -1.3365 -1.2826
 1016MOL0     H40171   6.119   2.246   8.993 -0.3595 -0.1880 -1.3953
 1016MOL0     H40172   6.336   2.203   9.052 -1.2369  0.1422 -0.2446
 1016MOL0     H40173   6.436   2.105   9.168 -0.8579 -2.4736  2.5281
 1016MOL0     H40174   6.389   1.913   9.024  3.0388 -1.0631 -2.7936
 1016MOL0     H40175   6.268   2.012   8.928  0.1181 -3.0777 -0.0266
 1016MOL0     H40176   6.565   2.074   8.943  0.9437 -2.5679 -0.0378
 1016MOL0     H40177   6.446   2.155   8.849 -0.9452  1.9059  4.0126
 1016MOL0     H40178   6.578   1.995   8.714  2.3739 -0.5571  2.4648
 1016MOL0     H40179   6.407   1.937   8.712 -1.3001  2.8642  1.0074
 1016MOL0     H40180   6.625   1.832   8.920 -0.7272 -1.9872  3.0551
 1016MOL0     H40181   6.460   1.786   8.910  2.5195 -0.7701  2.1036
 1016MOL0     H40182   6.507   1.700   8.680 -0.5401  2.3061  0.6994
 1016MOL0     H40183   6.570   1.619   8.822 -0.4164 -0.2176 -0.7667
 1016MOL0     H40184   6.798   1.735   8.793 -0.3868  3.1580 -0.8896
 1016MOL0     H40185   6.740   1.793   8.637  0.9076  0.7683  1.2598
 1016MOL0     H40186   6.861   1.592   8.583  0.2901  0.8161  0.3400
 1016MOL0     H40187   6.695   1.519   8.611  0.5655 -2.4614  1.5816
 1016MOL0     H40188   6.043   2.009   9.340 -0.1552  0.5690  0.9989
 1016MOL0     H40189   5.795   2.053   9.320 -1.5413  1.1574 -0.7483
 1016MOL0     H40190   5.407   2.116   8.947 -0.3653  3.4290 -3.2031
 1016MOL0     H40191   5.167   2.160   8.998  0.9339 -1.7233  0.3570
 1016MOL0     H40192   3.800   2.662  10.379  0.2473 -0.3747  0.5356
 1016MOL0     H40193   3.800   2.613  10.626 -0.9090  0.4870  0.3888
 1016MOL0     H40194   3.981   2.970  11.089 -0.9968  0.2979 -0.8645
 1016MOL0     H40195   3.925   2.935  11.338  1.9107 -0.7924  0.2237
 1016MOL0     H40196   3.811   2.530  11.473 -2.1568 -1.6006 -0.9267
 1016MOL0     H40197   3.803   2.627  11.612 -1.4017  3.3780  0.0249
 1016MOL0     H40198   3.589   2.540  11.545  0.6607 -0.4235  2.7249
 1016MOL0     H40199   3.591   2.649  11.408  0.8645  1.5207  0.2630
 1016MOL0     H40200   3.636   2.785  11.679 -0.1874 -2.3585  1.5070
 1016MOL0     H40201   3.579   2.845  11.527 -3.0325  1.8105  3.0056
 1016MOL0     H40202   3.409   2.651  11.685 -0.6320  1.3896  2.7489
 1016MOL0     H40203   3.361   2.745  11.537  0.1338 -0.7071 -0.6645
 1016MOL0     H40204   3.296   3.050  11.799 -0.1402  0.0495  0.8783
 1016MOL0     H40205   3.778   2.544  11.250 -3.3895 -0.1145 -1.1623
 1016MOL0     H40206   3.878   2.532  10.903  0.7381 -0.5632 -0.3916
 1016MOL0     H40207   3.778   2.458  11.031 -1.4541  0.4092 -0.6184
 1016MOL0     H40208   3.709   2.589  10.931  0.4840  0.4414 -0.1778
 1017MOL0     O40209   7.811   3.155   1.353  0.2340 -0.4702  0.4439
 1017MOL0     C40210   7.770   3.267   1.390  0.6527 -0.1176  0.2182
 1017MOL0     O40211   7.670   3.288   1.478 -0.0088  0.4460  0.0570
 1017MOL0     C40212   7.610   3.414   1.493 -0.6133  0.4579 -0.5020
 1017MOL0     C40213   7.472   3.425   1.453  0.6372 -0.7404 -0.6697
 1017MOL0     C40214   7.410   3.548   1.485 -0.0889 -1.5669  0.4416
 1017MOL0     C40215   7.477   3.646   1.562  1.1257 -0.0825  0.8261
 1017MOL0     O40216   7.421   3.770   1.601 -0.6609  0.8031  0.5364
 1017MOL0     C40217   7.280   3.795   1.586  0.3164  0.1102 -0.1616
 1017MOL0     C40218   7.180   3.723   1.679 -0.8122  0.2432 -0.4631
 1017MOL0     C40219   7.226   3.727   1.825  0.8203  1.1507  0.0961
 1017MOL0     C40220   7.268   3.860   1.884  0.5609  0.1308  0.9579
 1017MOL0     C40221   7.266   3.862   2.036 -0.7369 -0.0077  0.2157
 1017MOL0     C40222   7.333   3.980   2.114  0.4796 -0.3843  0.1824
 1017MOL0     C40223   7.317   3.978   2.264  0.9481 -1.5747 -0.1588
 1017MOL0     C40224   7.382   4.111   2.321 -0.6449  0.6683  0.7863
 1017MOL0     N40225   7.372   4.132   2.462 -0.3267  0.3233 -0.2492
 1017MOL0     C40226   7.286   4.209   2.523  0.4074  0.5238  0.0640
 1017MOL0     C40227   7.309   4.188   2.651  0.3150  0.1169 -0.4502
 1017MOL0     C40228   7.253   4.265   2.769  0.2342  0.0768 -0.1112
 1017MOL0     C40229   7.352   4.384   2.809  0.1894 -1.3690 -0.6386
 1017MOL0     C40230   7.344   4.487   2.701  0.1205 -0.0629 -0.1298
 1017MOL0     C40231   7.455   4.584   2.726  0.1312  1.4269 -0.5434
 1017MOL0     O40232   7.486   4.670   2.616  0.2965 -0.0841  0.1802
 1017MOL0     C40233   7.447   4.803   2.634  0.2121  0.2576 -0.3747
 1017MOL0     C40234   7.333   4.857   2.581 -0.9725  0.3227 -0.0064
 1017MOL0     C40235   7.283   4.979   2.625  0.4732  0.7088  0.6299
 1017MOL0     C40236   7.171   5.048   2.551  0.3075 -0.2436  1.1714
 1017MOL0     C40237   7.354   5.054   2.728 -0.2007  0.5397 -0.0420
 1017MOL0     C40238   7.318   5.184   2.778  0.9046 -0.9152 -1.1271
 1017MOL0     O40239   7.425   5.262   2.809  0.5336  0.4229 -0.0711
 1017MOL0     C40240   7.412   5.393   2.850 -0.1170 -0.2622 -0.6772
 1017MOL0     C40241   7.323   5.490   2.778 -0.0660 -0.0169  0.1371
 1017MOL0     C40242   7.301   5.620   2.824  0.7689 -1.2424  0.6346
 1017MOL0     C40243   7.385   5.668   2.933  0.0121  0.0175  0.1096
 1017MOL0     O40244   7.375   5.795   2.994  0.4833  0.8046 -0.0712
 1017MOL0     C40245   7.331   5.899   2.899  0.4255 -0.1028 -0.1841
 1017MOL0     C40246   7.366   6.042   2.943 -0.2678  0.5520 -0.5452
 1017MOL0     C40247   7.327   6.158   2.845 -0.3929 -0.4507  0.2444
 1017MOL0     C40248   7.426   6.285   2.869 -0.2006 -0.4872  0.8598
 1017MOL0     C40249   7.418   6.325   3.019  0.9271  0.4695  0.4764
 1017MOL0     C40250   7.477   6.461   3.046  0.2920  0.8245  1.3732
 1017MOL0     C40251   7.449   6.503   3.191 -0.2683 -0.2551  0.6792
 1017MOL0     C40252   7.476   6.656   3.208 -0.7788  0.1472 -0.4937
 1017MOL0    Cl40253   7.643   6.694   3.143 -0.2668 -0.2391  0.3779
 1017MOL0     C40254   7.472   5.572   3.002  0.5185 -0.2769  0.6828
 1017MOL0     C40255   7.491   5.441   2.958 -0.1378 -0.3751  0.8906
 1017MOL0     O40256   7.199   5.214   2.794 -1.5483 -0.9341  0.5977
 1017MOL0     C40257   7.458   4.991   2.789 -0.9769 -0.2169  0.3283
 1017MOL0     C40258   7.511   4.878   2.735 -0.3314 -0.1371  0.0648
 1017MOL0     N40259   7.408   4.097   2.664  0.6490  0.5264 -0.1876
 1017MOL0     N40260   7.453   4.068   2.546  0.1453 -0.0449 -0.1319
 1017MOL0     C40261   7.607   3.622   1.613  0.0187 -0.1180  0.8018
 1017MOL0     C40262   7.672   3.505   1.580 -0.7571 -0.3837  0.4230
 1017MOL0     C40263   7.828   3.385   1.321 -0.4412  0.0465  1.1972
 1017MOL0     C40264   7.936   3.457   1.373  0.1965 -0.1020  0.0772
 1017MOL0     C40265   7.991   3.563   1.300  0.2332  0.4483 -1.3938
 1017MOL0     C40266   7.934   3.597   1.173 -0.1787 -0.1252  0.3884
 1017MOL0     O40267   7.985   3.694   1.086 -0.3904  1.0828 -0.4452
 1017MOL0     C40268   8.100   3.772   1.119 -0.5904 -0.6001  0.2856
 1017MOL0     C40269   8.210   3.727   1.033 -0.9372  0.7774  0.2508
 1017MOL0     C40270   8.231   3.569   1.037 -0.0474 -0.6303 -0.1308
 1017MOL0     C40271   8.342   3.539   0.940  0.3434  0.6034 -1.2075
 1017MOL0     C40272   8.358   3.393   0.926 -0.3951  0.2522  0.1501
 1017MOL0     C40273   8.353   3.273   0.893  0.5735 -0.5389  0.4900
 1017MOL0     C40274   7.825   3.523   1.128 -0.5704 -1.4001 -0.4398
 1017MOL0     C40275   7.777   3.420   1.194 -1.3524  0.0873  0.2796
 1017MOL0     C40276   7.658   3.346   1.129  0.5187  0.2193 -0.3579
 1017MOL0     H40277   7.413   3.343   1.413 -2.4959 -1.0093  3.6614
 1017MOL0     H40278   7.311   3.565   1.445  0.5313  1.0919 -0.1809
 1017MOL0     H40279   7.248   3.806   1.482  1.5807  5.3486 -0.2734
 1017MOL0     H40280   7.261   3.895   1.624 -2.3340 -1.3414  2.8279
 1017MOL0     H40281   7.081   3.769   1.681 -0.9148  0.1782  2.8901
 1017MOL0     H40282   7.169   3.622   1.640  2.0727  0.5316 -2.3294
 1017MOL0     H40283   7.162   3.681   1.901  1.9959  1.6991  1.4790
 1017MOL0     H40284   7.308   3.656   1.811  1.3878  1.9440 -0.6809
 1017MOL0     H40285   7.369   3.890   1.853  1.1054 -1.5922  0.9594
 1017MOL0     H40286   7.192   3.933   1.855 -0.1538 -1.3176 -1.0390
 1017MOL0     H40287   7.328   3.784   2.080  2.1625  2.9485  1.8399
 1017MOL0     H40288   7.165   3.843   2.074 -0.5805 -1.9754 -0.2343
 1017MOL0     H40289   7.437   3.967   2.086 -0.0445 -0.6040 -1.8197
 1017MOL0     H40290   7.289   4.075   2.081  2.0124  0.4250  0.3982
 1017MOL0     H40291   7.358   3.891   2.316  0.8723  0.4941  3.7540
 1017MOL0     H40292   7.214   3.973   2.301  1.9647  0.1583  3.3801
 1017MOL0     H40293   7.485   4.113   2.283 -1.9254 -1.5451 -3.3987
 1017MOL0     H40294   7.327   4.190   2.271 -4.0308 -1.8364  0.1570
 1017MOL0     H40295   7.231   4.283   2.466  0.9041  2.7614  2.3227
 1017MOL0     H40296   7.239   4.199   2.855  3.7426 -1.9103 -0.8499
 1017MOL0     H40297   7.150   4.294   2.747  1.2210  3.1565 -1.2235
 1017MOL0     H40298   7.324   4.427   2.906 -3.2639 -1.0468 -1.6286
 1017MOL0     H40299   7.449   4.336   2.825  0.4825 -0.0961  2.0397
 1017MOL0     H40300   7.366   4.440   2.604 -0.5384 -2.7665  0.9473
 1017MOL0     H40301   7.244   4.528   2.687  0.4091  0.1983 -1.5827
 1017MOL0     H40302   7.429   4.634   2.820 -0.5229  2.6566 -1.3496
 1017MOL0     H40303   7.543   4.521   2.739  0.5392  2.4451  2.1939
 1017MOL0     H40304   7.271   4.799   2.513  0.3937 -1.6846  0.3690
 1017MOL0     H40305   7.096   5.088   2.620  0.3609  1.2858  0.3651
 1017MOL0     H40306   7.115   4.976   2.490 -0.8296  1.2827  0.3411
 1017MOL0     H40307   7.212   5.125   2.486  1.4118  1.4802  3.7256
 1017MOL0     H40308   7.268   5.442   2.698  1.6398 -0.2052 -0.9476
 1017MOL0     H40309   7.237   5.687   2.769  1.8199  0.5986  1.5645
 1017MOL0     H40310   7.361   5.883   2.795 -0.4446 -2.6362 -0.1087
 1017MOL0     H40311   7.222   5.901   2.907  0.4920 -0.4950  0.9988
 1017MOL0     H40312   7.329   6.073   3.041  0.3431 -0.6084  0.0766
 1017MOL0     H40313   7.475   6.042   2.942 -0.2659  0.6635 -1.2198
 1017MOL0     H40314   7.225   6.193   2.864  1.0118  2.8699  2.6857
 1017MOL0     H40315   7.342   6.116   2.745 -1.3684 -0.9119  0.2797
 1017MOL0     H40316   7.382   6.370   2.816 -1.1708 -0.8416  1.0674
 1017MOL0     H40317   7.530   6.264   2.843 -0.0449  1.4526 -0.2785
 1017MOL0     H40318   7.313   6.332   3.048  1.2613  0.6263  1.7159
 1017MOL0     H40319   7.463   6.243   3.075 -1.6770 -1.3094  0.1561
 1017MOL0     H40320   7.428   6.536   2.982 -0.6617 -0.1829  0.8852
 1017MOL0     H40321   7.584   6.461   3.024  0.3761  1.1830  1.7753
 1017MOL0     H40322   7.515   6.443   3.254 -2.2257 -0.8888  2.2147
 1017MOL0     H40323   7.346   6.477   3.217 -0.0948 -2.9540 -0.9032
 1017MOL0     H40324   7.470   6.675   3.315 -3.4163 -0.1112 -0.5483
 1017MOL0     H40325   7.402   6.708   3.146  0.7081  0.8757 -1.7677
 1017MOL0     H40326   7.536   5.596   3.086 -0.4475  0.2304  1.3011
 1017MOL0     H40327   7.551   5.367   3.009 -0.4962 -2.5870 -1.6383
 1017MOL0     H40328   7.503   5.045   2.872  2.0046 -0.0522 -1.2529
 1017MOL0     H40329   7.598   4.837   2.785 -1.0366 -1.1548  0.4815
 1017MOL0     H40330   7.663   3.703   1.659 -2.0739  2.3730 -0.7306
 1017MOL0     H40331   7.772   3.475   1.610 -1.5354 -0.7305  2.9611
 1017MOL0     H40332   7.989   3.421   1.461  1.0813  0.0195 -0.3889
 1017MOL0     H40333   8.081   3.610   1.339  0.4231 -0.8542 -0.1880
 1017MOL0     H40334   8.065   3.871   1.086 -4.1295 -2.4776 -2.3665
 1017MOL0     H40335   8.138   3.764   1.221  0.3844 -0.6698 -0.0768
 1017MOL0     H40336   8.303   3.781   1.051  0.6952 -1.7963  0.0380
 1017MOL0     H40337   8.193   3.748   0.927  2.4742  2.7275 -0.0527
 1017MOL0     H40338   8.258   3.535   1.137 -2.7676  2.8893  2.0459
 1017MOL0     H40339   8.137   3.517   1.017 -1.0760  0.8737  0.5971
 1017MOL0     H40340   8.431   3.590   0.977 -1.0206 -0.3933  4.3537
 1017MOL0     H40341   8.328   3.590   0.844  0.7971  3.1351 -0.0090
 1017MOL0     H40342   8.343   3.173   0.855  1.5667 -1.0195  1.4401
 1017MOL0     H40343   7.775   3.568   1.043  1.3122  2.5349  0.2962
 1017MOL0     H40344   7.597   3.415   1.071  2.1839  0.4528 -1.9354
 1017MOL0     H40345   7.691   3.269   1.057  0.5428  1.6128 -1.8958
 1017MOL0     H40346   7.601   3.299   1.210  0.7326 -2.5948 -1.6883
 1018MOL0     O40347   9.080   2.140   9.319  0.6355 -0.7644 -0.7138
 1018MOL0     C40348   9.036   2.246   9.368  0.3126 -0.0354  0.3832
 1018MOL0     O40349   9.043   2.287   9.498 -0.1143  0.3069 -0.5837
 1018MOL0     C40350   9.135   2.216   9.567 -0.1201  0.0093  0.4227
 1018MOL0     C40351   9.265   2.260   9.591 -0.9093  0.5069  0.3650
 1018MOL0     C40352   9.357   2.172   9.656  0.6777 -0.2363  1.1104
 1018MOL0     C40353   9.307   2.062   9.715 -0.4957 -0.7162 -0.7083
 1018MOL0     O40354   9.407   2.001   9.795  1.4061  0.4247 -0.1263
 1018MOL0     C40355   9.383   1.860   9.833 -1.1269 -0.5336 -0.5382
 1018MOL0     C40356   9.501   1.817   9.927  0.9223  0.0329  0.5179
 1018MOL0     C40357   9.507   1.667   9.959 -0.2106  0.6898 -1.0937
 1018MOL0     C40358   9.491   1.589   9.829  0.9746 -0.6771  0.1038
 1018MOL0     C40359   9.495   1.440   9.876  0.0548  0.7086  0.7984
 1018MOL0     C40360   9.537   1.348   9.749  0.1469 -0.6140  0.2603
 1018MOL0     C40361   9.446   1.347   9.632  1.2107 -0.1688 -0.0035
 1018MOL0     C40362   9.484   1.238   9.531  0.0997  0.4536 -0.1145
 1018MOL0     N40363   9.391   1.223   9.410 -0.5771  0.1958 -0.4032
 1018MOL0     C40364   9.428   1.148   9.296 -0.3674  0.0522 -0.6190
 1018MOL0     C40365   9.342   1.185   9.200 -0.0983 -0.3610  0.3350
 1018MOL0     C40366   9.332   1.142   9.058  0.4884 -0.0778 -0.4084
 1018MOL0     C40367   9.423   1.029   9.016 -0.5569 -0.6294 -0.8469
 1018MOL0     C40368   9.445   1.037   8.866  0.9809 -0.1131  0.0107
 1018MOL0     C40369   9.353   0.938   8.811  0.3009  0.1624  0.3640
 1018MOL0     O40370   9.355   0.963   8.664 -0.4261  0.4615  1.0796
 1018MOL0     C40371   9.290   0.870   8.585 -0.4636  1.5314 -0.5017
 1018MOL0     C40372   9.343   0.842   8.453 -0.0543 -0.8917  0.5321
 1018MOL0     C40373   9.292   0.739   8.376  0.0281  0.3024  0.5707
 1018MOL0     C40374   9.362   0.729   8.238  1.1374  1.0124 -0.9289
 1018MOL0     C40375   9.195   0.649   8.426  0.2059 -0.1700 -0.6979
 1018MOL0     C40376   9.144   0.527   8.353 -0.9361 -0.1915 -0.7059
 1018MOL0     O40377   9.207   0.506   8.238 -0.0842  0.3995  0.4462
 1018MOL0     C40378   9.182   0.402   8.152  1.3281  0.3861 -0.8919
 1018MOL0     C40379   9.284   0.357   8.070  0.5040 -0.0349 -0.0938
 1018MOL0     C40380   9.277   0.240   7.997 -0.0826  0.1871  0.2398
 1018MOL0     C40381   9.157   0.169   7.984 -0.2135  0.4034 -0.2312
 1018MOL0     O40382   9.140   0.072   7.886  0.1904  0.0480  0.4794
 1018MOL0     C40383   9.090  -0.050   7.935 -0.7164  0.9357  0.1758
 1018MOL0     C40384   9.136  -0.160   7.838 -0.2313 -1.0443 -0.1346
 1018MOL0     C40385   9.029  -0.185   7.723  0.2427  0.1259  0.5381
 1018MOL0     C40386   9.076  -0.297   7.627 -0.3205 -0.7095  0.1344
 1018MOL0     C40387   8.983  -0.321   7.507 -0.2294 -0.8613 -0.3665
 1018MOL0     C40388   9.048  -0.413   7.397 -0.1674  0.0496 -0.1384
 1018MOL0     C40389   8.969  -0.391   7.271  0.3127  0.0755  0.0254
 1018MOL0     C40390   9.017  -0.480   7.152 -0.2464  0.1305  0.0463
 1018MOL0    Cl40391   9.034  -0.380   7.001 -0.1812 -0.2075  0.2302
 1018MOL0     C40392   9.053   0.207   8.069 -0.6891  0.3344 -0.5433
 1018MOL0     C40393   9.068   0.325   8.154  0.0673  0.3749 -0.6223
 1018MOL0     O40394   9.062   0.456   8.408  0.1298  0.3819 -0.4254
 1018MOL0     C40395   9.143   0.670   8.561  0.1745 -0.2613  0.4750
 1018MOL0     C40396   9.195   0.773   8.635  0.4399 -0.4348 -0.0305
 1018MOL0     N40397   9.277   1.303   9.250  0.7143 -0.7114 -0.2101
 1018MOL0     N40398   9.299   1.315   9.381 -0.7748  1.2978  1.0365
 1018MOL0     C40399   9.173   2.024   9.713  0.7072  0.7067  0.2600
 1018MOL0     C40400   9.091   2.098   9.633 -0.3743 -0.3201  0.6451
 1018MOL0     C40401   8.964   2.346   9.280 -0.6680 -0.8276 -0.8337
 1018MOL0     C40402   8.911   2.460   9.342 -0.4892  0.1473  0.1450
 1018MOL0     C40403   8.856   2.560   9.266  1.4135  0.1704  1.4692
 1018MOL0     C40404   8.842   2.551   9.123 -0.0189 -1.1624  0.8966
 1018MOL0     O40405   8.782   2.654   9.045 -0.4229  0.6389  0.6936
 1018MOL0     C40406   8.878   2.720   8.966  0.5065 -0.1499 -0.4550
 1018MOL0     C40407   8.898   2.862   9.014  0.9406  0.4831 -0.8534
 1018MOL0     C40408   8.792   2.972   8.988 -0.8142 -0.5668  0.3818
 1018MOL0     C40409   8.833   3.091   9.072 -0.9756  0.3408 -0.0258
 1018MOL0     C40410   8.799   3.217   9.009  0.4015 -0.0916 -0.2633
 1018MOL0     C40411   8.791   3.331   8.947 -0.2129 -0.0391 -0.7563
 1018MOL0     C40412   8.891   2.435   9.070  0.3254  0.1018 -0.2250
 1018MOL0     C40413   8.950   2.335   9.141 -0.7085 -0.1797 -0.0255
 1018MOL0     C40414   8.981   2.201   9.067  0.4586 -1.3519  0.2239
 1018MOL0     H40415   9.304   2.353   9.553 -0.9213  0.8242  1.1053
 1018MOL0     H40416   9.456   2.214   9.674  1.2042 -2.7783  5.8145
 1018MOL0     H40417   9.373   1.801   9.742 -1.0661 -0.6673 -0.4579
 1018MOL0     H40418   9.296   1.830   9.892  0.4317 -0.9078  1.7291
 1018MOL0     H40419   9.597   1.840   9.881  1.0685  2.9437  2.0408
 1018MOL0     H40420   9.518   1.884  10.011  0.2654 -1.9243  2.3138
 1018MOL0     H40421   9.600   1.635  10.007 -1.5529 -4.0501 -1.0838
 1018MOL0     H40422   9.430   1.637  10.030 -0.8603  0.8359 -1.7184
 1018MOL0     H40423   9.396   1.602   9.775  2.4346  0.8520 -2.2792
 1018MOL0     H40424   9.577   1.610   9.765  2.8941 -3.5265  1.5905
 1018MOL0     H40425   9.401   1.403   9.917 -2.1017  1.1361 -3.3085
 1018MOL0     H40426   9.570   1.424   9.955  0.6105  0.3267  0.2101
 1018MOL0     H40427   9.637   1.381   9.718 -1.8697  5.8435 -0.8289
 1018MOL0     H40428   9.527   1.246   9.787 -0.1803 -1.2225 -1.4103
 1018MOL0     H40429   9.450   1.437   9.571 -0.7855  0.1325  0.2539
 1018MOL0     H40430   9.345   1.340   9.672  0.1533  1.1000 -2.2564
 1018MOL0     H40431   9.581   1.266   9.490  1.9331 -3.6551  0.9056
 1018MOL0     H40432   9.505   1.139   9.572 -4.0968 -0.9796 -0.8272
 1018MOL0     H40433   9.508   1.074   9.296 -1.9394 -1.7798  1.7398
 1018MOL0     H40434   9.338   1.232   8.996 -2.2740 -1.2746 -2.6549
 1018MOL0     H40435   9.235   1.094   9.043  0.6775 -0.1130 -1.5770
 1018MOL0     H40436   9.515   1.054   9.070 -1.6590 -1.5318  1.6277
 1018MOL0     H40437   9.390   0.932   9.053 -2.9273  1.1694  2.2727
 1018MOL0     H40438   9.434   1.137   8.824 -1.9577  0.0110  0.8307
 1018MOL0     H40439   9.543   1.008   8.828  0.5165  0.7880 -2.0393
 1018MOL0     H40440   9.390   0.837   8.829  0.9866  0.0290 -1.5807
 1018MOL0     H40441   9.252   0.956   8.849  1.0697  1.1172  2.1017
 1018MOL0     H40442   9.426   0.904   8.420 -0.1846 -1.0642 -0.1281
 1018MOL0     H40443   9.288   0.749   8.160 -0.4027 -0.2702  0.1449
 1018MOL0     H40444   9.410   0.631   8.233 -0.5718 -0.0428  1.4327
 1018MOL0     H40445   9.445   0.800   8.239  1.8818  0.1833  1.5273
 1018MOL0     H40446   9.375   0.417   8.073 -0.5675  1.7403 -1.3476
 1018MOL0     H40447   9.365   0.207   7.943  0.5604  1.2988  0.5771
 1018MOL0     H40448   9.122  -0.083   8.034 -1.0986 -1.7886 -0.5499
 1018MOL0     H40449   8.981  -0.049   7.936 -0.8125 -0.6448 -1.6756
 1018MOL0     H40450   9.235  -0.153   7.791 -0.4432 -2.4695 -0.8698
 1018MOL0     H40451   9.130  -0.248   7.903  1.1769  0.0964  1.6665
 1018MOL0     H40452   9.013  -0.104   7.652 -2.8801  0.1432  1.1123
 1018MOL0     H40453   8.927  -0.193   7.762 -0.7652  3.0367 -1.1848
 1018MOL0     H40454   9.080  -0.390   7.684 -2.7901 -0.4487  0.8392
 1018MOL0     H40455   9.178  -0.269   7.600  0.1368 -0.0566  2.3225
 1018MOL0     H40456   8.881  -0.348   7.535  0.8409 -4.6656  0.3467
 1018MOL0     H40457   8.975  -0.223   7.459 -0.6063  1.9277  4.6112
 1018MOL0     H40458   9.053  -0.518   7.426  1.2558 -0.5037 -2.1916
 1018MOL0     H40459   9.152  -0.387   7.377 -0.8195  3.0587 -0.1375
 1018MOL0     H40460   8.990  -0.287   7.244 -3.1774  0.5509 -1.3700
 1018MOL0     H40461   8.861  -0.386   7.288  0.0798 -4.9481  1.6128
 1018MOL0     H40462   8.946  -0.561   7.133 -0.8310  0.9861 -1.6329
 1018MOL0     H40463   9.115  -0.525   7.171 -0.0346  0.5330 -0.0748
 1018MOL0     H40464   8.955   0.161   8.066 -0.6870  0.3390 -0.7063
 1018MOL0     H40465   8.978   0.358   8.205 -1.1368 -0.7106 -1.9640
 1018MOL0     H40466   9.059   0.621   8.609 -1.5900  0.8738 -1.3141
 1018MOL0     H40467   9.153   0.788   8.734  1.6679  2.8890  0.0993
 1018MOL0     H40468   9.142   1.933   9.763  4.2639  0.1484  1.8153
 1018MOL0     H40469   8.985   2.078   9.620 -0.0715 -0.7130 -1.5398
 1018MOL0     H40470   8.901   2.464   9.450  0.4098  1.5948  0.1924
 1018MOL0     H40471   8.828   2.655   9.309  0.5117  1.1947 -1.1512
 1018MOL0     H40472   8.970   2.662   8.969 -0.4755 -2.6521 -5.7461
 1018MOL0     H40473   8.842   2.718   8.862  0.7425 -0.6913 -0.5313
 1018MOL0     H40474   8.995   2.896   8.976  3.3256 -3.5967  0.9045
 1018MOL0     H40475   8.907   2.851   9.123 -1.0686  0.3115 -0.6651
 1018MOL0     H40476   8.788   2.995   8.881 -1.6714  0.6276  0.6513
 1018MOL0     H40477   8.689   2.954   9.018 -1.9677  1.9229 -1.6319
 1018MOL0     H40478   8.941   3.099   9.088 -0.9605 -0.7362  0.4833
 1018MOL0     H40479   8.780   3.080   9.167  2.5726 -0.1554  2.0726
 1018MOL0     H40480   8.774   3.428   8.904 -1.6323  0.0368 -0.0665
 1018MOL0     H40481   8.859   2.416   8.968 -1.1983 -0.9427  0.4188
 1018MOL0     H40482   8.977   2.196   8.958 -4.0220  0.5636  0.0589
 1018MOL0     H40483   9.082   2.172   9.097  0.5697 -1.9338 -0.6745
 1018MOL0     H40484   8.903   2.125   9.084 -0.4601 -1.0844 -2.3880
 1019MOL0     O40485  10.970   1.740   5.877  0.2619  0.1033 -0.5139
 1019MOL0     C40486  10.875   1.742   5.957  0.5751  0.5523  0.4931
 1019MOL0     O40487  10.873   1.679   6.075  0.2568  0.5204  0.4177
 1019MOL0     C40488  10.979   1.610   6.127  0.4324  0.7241  0.5108
 1019MOL0     C40489  11.101   1.588   6.063  0.7621 -0.3980 -0.2722
 1019MOL0     C40490  11.210   1.533   6.132 -0.0925  0.5498 -0.2215
 1019MOL0     C40491  11.197   1.473   6.259  0.1621 -0.3571 -0.0785
 1019MOL0     O40492  11.308   1.417   6.303 -0.3788 -0.5177  0.3866
 1019MOL0     C40493  11.301   1.330   6.416 -0.6676 -0.5592  0.2039
 1019MOL0     C40494  11.270   1.190   6.377  0.8383 -1.1100 -0.0767
 1019MOL0     C40495  11.238   1.101   6.498  0.1691  0.4848  0.1983
 1019MOL0     C40496  11.161   0.976   6.443  0.3094 -0.8022  0.0676
 1019MOL0     C40497  11.130   0.880   6.552 -0.5943  0.3146 -0.4912
 1019MOL0     C40498  11.032   0.769   6.510 -0.1455 -0.5097 -0.2988
 1019MOL0     C40499  11.028   0.649   6.605  0.3938 -1.1820 -1.0825
 1019MOL0     C40500  10.981   0.692   6.752  0.3417 -0.1609 -0.4568
 1019MOL0     N40501  10.832   0.690   6.753 -0.8715 -0.0451  0.6617
 1019MOL0     C40502  10.745   0.586   6.759  1.1023 -0.4773 -0.6568
 1019MOL0     C40503  10.621   0.631   6.794 -0.4461 -0.5160 -0.0426
 1019MOL0     C40504  10.489   0.557   6.823  0.4629 -0.6310 -0.0424
 1019MOL0     C40505  10.370   0.608   6.740  1.0503  0.0474  0.4281
 1019MOL0     C40506  10.228   0.576   6.776  0.1892  0.2592 -0.4809
 1019MOL0     C40507  10.209   0.424   6.813 -0.3344 -0.2214  0.8674
 1019MOL0     O40508  10.269   0.389   6.940 -0.0016 -0.4011 -0.0190
 1019MOL0     C40509  10.229   0.273   7.007 -0.5380  0.6933 -0.1545
 1019MOL0     C40510  10.291   0.240   7.125  0.3750  0.0879 -0.1619
 1019MOL0     C40511  10.274   0.114   7.178  0.0288 -0.7359  0.4135
 1019MOL0     C40512  10.369   0.088   7.303 -0.5118  0.0746  0.2893
 1019MOL0     C40513  10.184   0.020   7.130  0.6155  0.3769 -0.6364
 1019MOL0     C40514  10.151  -0.105   7.202 -0.2693 -0.0721  0.5326
 1019MOL0     O40515  10.028  -0.163   7.157 -0.3947 -0.3721  0.3084
 1019MOL0     C40516   9.982  -0.291   7.193 -0.1102  0.2314  0.1479
 1019MOL0     C40517  10.056  -0.402   7.250  0.0859  0.1426  0.0168
 1019MOL0     C40518  10.019  -0.536   7.251  0.2103 -0.3186  0.1282
 1019MOL0     C40519   9.883  -0.556   7.215  0.7041 -0.1662 -0.7712
 1019MOL0     O40520   9.826  -0.681   7.226 -0.2875 -0.6553 -0.2552
 1019MOL0     C40521   9.902  -0.803   7.215  0.4410  0.2955  1.0113
 1019MOL0     C40522   9.811  -0.918   7.204  1.1803  0.1833  0.1504
 1019MOL0     C40523   9.716  -0.920   7.074  0.4328 -0.1622  1.1306
 1019MOL0     C40524   9.664  -1.051   7.034  0.5858 -0.3769 -1.0517
 1019MOL0     C40525   9.561  -1.051   6.933  0.1165 -0.3922  0.1410
 1019MOL0     C40526   9.419  -1.045   6.997 -0.5194  0.3206 -0.1485
 1019MOL0     C40527   9.310  -1.074   6.896 -0.9853  0.1289 -0.1679
 1019MOL0     C40528   9.182  -1.012   6.938 -0.4145  0.6502  0.5226
 1019MOL0    Cl40529   9.110  -1.117   7.066  0.0793 -0.1841  0.1863
 1019MOL0     C40530   9.800  -0.449   7.174 -0.4737 -0.2853 -0.1098
 1019MOL0     C40531   9.849  -0.318   7.150 -0.6969 -0.3169 -0.7537
 1019MOL0     O40532  10.230  -0.155   7.280 -0.8244  0.0587  0.2812
 1019MOL0     C40533  10.117   0.061   7.016  0.0990 -0.3211  0.1086
 1019MOL0     C40534  10.152   0.171   6.955 -0.7204 -0.4436  0.3049
 1019MOL0     N40535  10.643   0.768   6.806  0.5559 -0.2095  0.6375
 1019MOL0     N40536  10.762   0.804   6.778 -0.7885  0.3941  0.6793
 1019MOL0     C40537  11.075   1.499   6.332  0.7380  0.0385  0.5355
 1019MOL0     C40538  10.965   1.568   6.264 -1.1233  0.8788 -0.2203
 1019MOL0     C40539  10.755   1.810   5.907  0.1650 -0.7760  0.0952
 1019MOL0     C40540  10.630   1.749   5.924 -0.6928 -0.5391  0.2508
 1019MOL0     C40541  10.508   1.789   5.864  0.0621  0.4433 -0.1412
 1019MOL0     C40542  10.517   1.912   5.797  0.8275 -0.4181  1.3681
 1019MOL0     O40543  10.412   1.985   5.741  0.4420  0.0335 -0.5260
 1019MOL0     C40544  10.366   1.923   5.621  0.7876  0.0208  0.5452
 1019MOL0     C40545  10.289   2.033   5.565  0.0525  0.4191  0.6731
 1019MOL0     C40546  10.227   1.996   5.437 -0.0481 -0.0765  0.3284
 1019MOL0     C40547  10.139   2.120   5.386 -0.0487  1.2532  0.0488
 1019MOL0     C40548  10.097   2.095   5.246 -0.3577 -0.1593  0.3903
 1019MOL0     C40549  10.058   2.075   5.134 -0.0667 -0.4451 -0.0440
 1019MOL0     C40550  10.638   1.983   5.796  0.1333  0.6426 -0.3932
 1019MOL0     C40551  10.757   1.935   5.841  0.1992 -0.2152  0.4484
 1019MOL0     C40552  10.882   2.018   5.838 -0.4376  0.4403  0.4783
 1019MOL0     H40553  11.109   1.614   5.958 -2.8803 -1.5151 -0.9834
 1019MOL0     H40554  11.304   1.511   6.081 -0.0406  0.9104 -0.2808
 1019MOL0     H40555  11.224   1.368   6.485 -2.8793  0.6398 -2.6883
 1019MOL0     H40556  11.396   1.327   6.470 -0.0678 -1.3476 -0.8627
 1019MOL0     H40557  11.179   1.203   6.317 -0.2601 -1.9752  1.3062
 1019MOL0     H40558  11.347   1.146   6.313 -0.6596 -2.8108 -0.7999
 1019MOL0     H40559  11.330   1.064   6.544 -1.2615 -0.7422  2.2267
 1019MOL0     H40560  11.184   1.149   6.580 -0.8370  1.2797 -0.8971
 1019MOL0     H40561  11.065   1.006   6.399  1.1766 -0.8492 -1.9365
 1019MOL0     H40562  11.217   0.944   6.355  1.0056  4.4390 -1.7648
 1019MOL0     H40563  11.084   0.937   6.634 -1.7643 -0.3546 -0.6633
 1019MOL0     H40564  11.224   0.840   6.590 -0.7429  1.0385  0.6833
 1019MOL0     H40565  10.937   0.819   6.493 -0.0718  0.0173  0.7349
 1019MOL0     H40566  11.068   0.730   6.415  0.3779 -3.0681  0.8599
 1019MOL0     H40567  11.129   0.605   6.605  1.6174  1.2296 -4.4441
 1019MOL0     H40568  10.960   0.572   6.568 -4.0395  0.5871  2.4242
 1019MOL0     H40569  11.022   0.618   6.821  0.5747 -0.0764 -0.5061
 1019MOL0     H40570  11.020   0.791   6.777  1.6476 -1.4342  3.1256
 1019MOL0     H40571  10.770   0.480   6.757  4.8663  0.2637 -0.3326
 1019MOL0     H40572  10.467   0.575   6.928  2.5353 -0.7466  0.4665
 1019MOL0     H40573  10.511   0.450   6.816 -0.8251 -1.0464  1.7101
 1019MOL0     H40574  10.385   0.716   6.739  0.6215  0.1285 -1.7515
 1019MOL0     H40575  10.383   0.581   6.635 -1.4169 -2.5844  0.6659
 1019MOL0     H40576  10.188   0.632   6.862  0.8708  1.5097 -0.9555
 1019MOL0     H40577  10.161   0.588   6.690 -0.4430 -0.7436 -0.1421
 1019MOL0     H40578  10.100   0.415   6.820 -0.6079  1.6951 -0.1799
 1019MOL0     H40579  10.233   0.349   6.737 -2.2180 -0.3141  0.2955
 1019MOL0     H40580  10.370   0.307   7.157  2.5730 -2.1534 -0.5994
 1019MOL0     H40581  10.420  -0.008   7.295 -3.3272 -1.6399  1.4145
 1019MOL0     H40582  10.315   0.096   7.398  1.3685  0.3957  1.4027
 1019MOL0     H40583  10.454   0.158   7.301 -0.2857 -0.0472 -4.1206
 1019MOL0     H40584  10.150  -0.373   7.297  0.1387 -2.2196  1.4886
 1019MOL0     H40585  10.090  -0.609   7.289  0.8288  1.3879  2.4790
 1019MOL0     H40586   9.967  -0.792   7.128  0.3513 -0.1396  0.8858
 1019MOL0     H40587   9.971  -0.815   7.299  0.3135  1.4696  1.3080
 1019MOL0     H40588   9.875  -1.007   7.197 -0.7022 -1.6813  3.6150
 1019MOL0     H40589   9.753  -0.929   7.296  0.7660  1.2909  0.0296
 1019MOL0     H40590   9.790  -0.891   6.999 -1.7960  1.4932 -0.5741
 1019MOL0     H40591   9.636  -0.846   7.070 -0.0096 -0.7040 -1.2465
 1019MOL0     H40592   9.629  -1.101   7.125  1.2090  3.6664  1.6617
 1019MOL0     H40593   9.748  -1.116   7.007 -1.0152 -3.1535  0.1815
 1019MOL0     H40594   9.573  -0.962   6.871 -1.7195 -1.1246 -1.3862
 1019MOL0     H40595   9.581  -1.133   6.863  0.1464 -1.3207  1.2183
 1019MOL0     H40596   9.417  -0.946   7.043  1.4230 -0.6431  2.2319
 1019MOL0     H40597   9.405  -1.108   7.085 -0.6465  0.1969 -0.2552
 1019MOL0     H40598   9.300  -1.182   6.884  1.2132 -0.4428  2.2014
 1019MOL0     H40599   9.351  -1.042   6.800  0.7025 -0.1121  0.4318
 1019MOL0     H40600   9.118  -1.016   6.850  0.1919 -5.0037 -0.0126
 1019MOL0     H40601   9.183  -0.910   6.979 -0.6766  1.1257 -0.6002
 1019MOL0     H40602   9.700  -0.478   7.143  0.6531 -2.8640 -1.6970
 1019MOL0     H40603   9.782  -0.241   7.112  0.0274  0.1336 -1.1233
 1019MOL0     H40604  10.049  -0.013   6.974 -0.4538 -0.6253  1.5045
 1019MOL0     H40605  10.101   0.203   6.865  1.1752  1.9751 -0.0016
 1019MOL0     H40606  11.064   1.462   6.433 -0.6538 -2.3622 -0.4063
 1019MOL0     H40607  10.865   1.582   6.304 -2.4314 -1.0712 -2.5042
 1019MOL0     H40608  10.634   1.651   5.971 -2.3258 -1.9096 -2.2418
 1019MOL0     H40609  10.425   1.719   5.859  1.1911 -0.9014 -3.9265
 1019MOL0     H40610  10.453   1.906   5.558  0.9291 -0.4923  0.8694
 1019MOL0     H40611  10.311   1.831   5.641 -0.2283  0.0496 -1.8425
 1019MOL0     H40612  10.344   2.127   5.557 -0.9252  0.9671  0.2891
 1019MOL0     H40613  10.210   2.057   5.637 -1.8230 -0.0241 -1.1559
 1019MOL0     H40614  10.302   1.968   5.362 -3.0411 -2.3815 -2.0837
 1019MOL0     H40615  10.155   1.914   5.436 -0.8330  0.4695 -3.6845
 1019MOL0     H40616  10.203   2.209   5.379  1.7089  0.1629  1.3092
 1019MOL0     H40617  10.053   2.147   5.447 -0.0020 -0.0080  0.7055
 1019MOL0     H40618  10.032   2.036   5.037  3.1287  1.0582 -1.6762
 1019MOL0     H40619  10.646   2.082   5.752 -1.0742  0.4962 -0.9637
 1019MOL0     H40620  10.930   2.049   5.931  1.1906  2.8284 -1.0224
 1019MOL0     H40621  10.951   1.954   5.782  2.5090 -1.7841  5.8978
 1019MOL0     H40622  10.864   2.115   5.791  0.6568 -0.1663 -1.2853
 1020MOL0     O40623  10.700   6.964  10.640 -0.4326  0.2936 -0.3830
 1020MOL0     C40624  10.744   7.006  10.746  0.0686 -0.8159  0.3075
 1020MOL0     O40625  10.868   7.057  10.776 -0.3929 -0.3086 -1.0217
 1020MOL0     C40626  10.921   7.127  10.672 -0.6060 -1.2743  1.1766
 1020MOL0     C40627  11.006   7.071  10.571 -0.5474 -0.2818  0.4816
 1020MOL0     C40628  11.078   7.160  10.482  0.6276  0.4244  0.2982
 1020MOL0     C40629  11.068   7.300  10.495 -0.5072 -0.9345 -1.4884
 1020MOL0     O40630  11.146   7.372  10.406 -0.5374  0.2999 -0.1831
 1020MOL0     C40631  11.136   7.517  10.391  0.9582 -0.7141  0.8876
 1020MOL0     C40632  11.267   7.567  10.324 -0.2621  0.3540 -0.3321
 1020MOL0     C40633  11.262   7.577  10.182  1.0114 -0.2086 -0.2583
 1020MOL0     C40634  11.384   7.655  10.138 -0.2712 -0.8369 -0.7567
 1020MOL0     C40635  11.355   7.703  10.000 -0.2202  0.0496  0.8068
 1020MOL0     C40636  11.454   7.808   9.955 -0.0650  0.3027  0.1336
 1020MOL0     C40637  11.444   7.842   9.806  0.1514  0.3638  0.7566
 1020MOL0     C40638  11.321   7.927   9.756  0.5091  0.0873  1.3892
 1020MOL0     N40639  11.354   7.975   9.609 -0.1472  0.2586 -0.4775
 1020MOL0     C40640  11.355   8.101   9.565  0.1600 -0.5351  0.9517
 1020MOL0     C40641  11.376   8.107   9.429 -0.5586  0.0339  0.5961
 1020MOL0     C40642  11.346   8.231   9.344  0.6527 -0.2303  0.1662
 1020MOL0     C40643  11.215   8.219   9.273  0.7741  0.1087 -0.5993
 1020MOL0     C40644  11.176   8.350   9.205 -0.3832 -0.3931  0.0748
 1020MOL0     C40645  11.057   8.331   9.115  0.1015 -1.0004 -0.5734
 1020MOL0     O40646  11.041   8.457   9.042  0.4544 -0.4120  0.1449
 1020MOL0     C40647  10.940   8.477   8.947 -0.0563 -0.4276 -0.3332
 1020MOL0     C40648  10.871   8.375   8.878 -0.2549 -0.2161 -0.0564
 1020MOL0     C40649  10.763   8.396   8.794 -0.4492 -0.3657  0.0698
 1020MOL0     C40650  10.679   8.273   8.748  0.3048 -0.1525 -0.6325
 1020MOL0     C40651  10.719   8.532   8.765 -0.0656  0.1666  0.5957
 1020MOL0     C40652  10.601   8.567   8.677 -0.8236  0.4683 -0.2425
 1020MOL0     O40653  10.564   8.692   8.696 -0.3426 -0.2827 -0.9485
 1020MOL0     C40654  10.469   8.763   8.618  0.4203  0.5548 -0.2512
 1020MOL0     C40655  10.486   8.896   8.627  0.2866 -0.5253 -0.0243
 1020MOL0     C40656  10.389   8.979   8.583  0.3101 -0.1625 -0.1088
 1020MOL0     C40657  10.269   8.936   8.529 -0.4374 -0.3493  0.8186
 1020MOL0     O40658  10.178   9.031   8.486 -0.4303  0.1436 -0.5211
 1020MOL0     C40659  10.052   8.984   8.437 -0.4715  0.0141 -1.1307
 1020MOL0     C40660   9.950   9.094   8.457  0.4564 -0.0250 -0.5040
 1020MOL0     C40661   9.981   9.214   8.373  0.1226  0.0248 -0.0903
 1020MOL0     C40662   9.862   9.305   8.326 -0.0251 -0.3211  0.5201
 1020MOL0     C40663   9.924   9.438   8.274 -0.3403 -0.1964  0.6341
 1020MOL0     C40664  10.033   9.429   8.159  0.0111 -0.1787 -0.7409
 1020MOL0     C40665  10.063   9.561   8.084  1.0371 -0.3363  0.9202
 1020MOL0     C40666  10.200   9.560   8.013 -0.1810  0.4539  0.6256
 1020MOL0    Cl40667  10.342   9.590   8.102  0.4136 -0.1582  0.6163
 1020MOL0     C40668  10.254   8.801   8.503  0.0274  0.2516  0.6822
 1020MOL0     C40669  10.350   8.716   8.563 -0.8936  1.0153  0.0836
 1020MOL0     O40670  10.582   8.500   8.582  0.4211 -0.1949 -0.5316
 1020MOL0     C40671  10.802   8.634   8.812 -0.7945  0.7592  0.1179
 1020MOL0     C40672  10.899   8.607   8.913  0.1925 -0.5968 -0.1378
 1020MOL0     N40673  11.404   7.979   9.393  0.9308 -0.6351 -0.3388
 1020MOL0     N40674  11.379   7.902   9.496  0.2928  0.5212  0.4691
 1020MOL0     C40675  10.972   7.352  10.587  0.5229 -0.5980  0.3738
 1020MOL0     C40676  10.910   7.266  10.673 -0.2360 -0.8303 -0.4181
 1020MOL0     C40677  10.644   7.031  10.845  0.2336  0.4386 -0.0564
 1020MOL0     C40678  10.522   7.094  10.803  0.6468  0.9685 -0.6665
 1020MOL0     C40679  10.418   7.117  10.893  0.4663 -0.3673 -1.2152
 1020MOL0     C40680  10.422   7.056  11.014  0.1155  0.7621 -0.1184
 1020MOL0     O40681  10.306   7.059  11.088 -1.0317  0.1753  0.1618
 1020MOL0     C40682  10.307   7.007  11.224  0.4527  0.0719 -0.1287
 1020MOL0     C40683  10.167   6.974  11.267 -0.1599 -0.2577 -0.5953
 1020MOL0     C40684  10.170   6.935  11.418  0.7033  0.3773  0.8429
 1020MOL0     C40685  10.069   6.998  11.508  0.4250  0.6025 -0.5245
 1020MOL0     C40686  10.078   6.942  11.642  0.2081 -1.2718  0.6701
 1020MOL0     C40687  10.087   6.903  11.752  0.1438  0.5302 -0.2817
 1020MOL0     C40688  10.540   7.001  11.057  0.0927  0.0002 -0.9295
 1020MOL0     C40689  10.659   6.999  10.976 -0.0978 -1.2267 -0.2777
 1020MOL0     C40690  10.783   6.956  11.033 -0.0008  0.6004  1.0752
 1020MOL0     H40691  11.015   6.963  10.561  1.9210 -0.0300 -0.7851
 1020MOL0     H40692  11.133   7.120  10.397 -0.4904 -0.1337 -0.1904
 1020MOL0     H40693  11.118   7.570  10.485 -0.2968 -2.2676  1.5712
 1020MOL0     H40694  11.047   7.540  10.331  2.9557  1.2740 -1.5445
 1020MOL0     H40695  11.296   7.657  10.378  0.5152 -1.0786  1.7743
 1020MOL0     H40696  11.341   7.491  10.349 -0.1161  1.0614  1.5241
 1020MOL0     H40697  11.262   7.483  10.127 -0.4542 -0.0819 -0.4968
 1020MOL0     H40698  11.169   7.632  10.163 -0.3018 -1.3214  2.5118
 1020MOL0     H40699  11.416   7.739  10.201  2.2177 -2.1869 -0.0846
 1020MOL0     H40700  11.466   7.585  10.156 -0.4897 -1.0319 -0.5063
 1020MOL0     H40701  11.265   7.764  10.005  1.7743  3.3054  0.0255
 1020MOL0     H40702  11.332   7.626   9.926 -0.1325 -0.7708  1.6127
 1020MOL0     H40703  11.438   7.900  10.012  1.0988  1.4659 -1.3497
 1020MOL0     H40704  11.554   7.767   9.973  0.0721  1.1273  1.3409
 1020MOL0     H40705  11.458   7.761   9.734 -2.2876  1.5803 -1.2522
 1020MOL0     H40706  11.536   7.897   9.783  1.3663 -1.2736  1.5090
 1020MOL0     H40707  11.231   7.866   9.744  2.0813 -1.7682 -7.7077
 1020MOL0     H40708  11.316   8.016   9.820 -1.1448  1.2025 -0.1851
 1020MOL0     H40709  11.325   8.184   9.627 -3.3064 -0.2796 -0.8193
 1020MOL0     H40710  11.425   8.255   9.272  1.2906 -1.9644  0.2304
 1020MOL0     H40711  11.337   8.315   9.414  0.0197 -1.0286  1.0732
 1020MOL0     H40712  11.218   8.144   9.193  0.6282  0.3383 -0.8205
 1020MOL0     H40713  11.139   8.198   9.349  0.2520 -1.7977 -1.5694
 1020MOL0     H40714  11.155   8.433   9.274 -1.0728  0.7886 -1.4950
 1020MOL0     H40715  11.261   8.388   9.147  0.1631  0.2591  1.2717
 1020MOL0     H40716  11.088   8.256   9.042  1.6482  1.2038 -2.3218
 1020MOL0     H40717  10.977   8.311   9.187  0.3334  0.8363  0.2501
 1020MOL0     H40718  10.893   8.273   8.909 -1.7557 -2.1121 -4.4936
 1020MOL0     H40719  10.584   8.301   8.703  0.1250  1.2425  0.5149
 1020MOL0     H40720  10.667   8.203   8.832 -3.4868 -0.5034 -1.2817
 1020MOL0     H40721  10.726   8.223   8.663 -0.1029  1.1063 -1.6207
 1020MOL0     H40722  10.573   8.934   8.679 -1.0609 -0.6527  2.4417
 1020MOL0     H40723  10.399   9.087   8.596  0.3108  0.3295 -3.4127
 1020MOL0     H40724  10.054   8.936   8.339  1.2527 -4.2916  0.7693
 1020MOL0     H40725  10.022   8.897   8.496  2.5602 -0.5264 -0.1988
 1020MOL0     H40726   9.853   9.049   8.433  0.3704 -0.2932  0.3184
 1020MOL0     H40727   9.947   9.120   8.563  0.2386  1.3401 -0.8233
 1020MOL0     H40728  10.022   9.181   8.277 -4.3454 -2.1426 -1.5463
 1020MOL0     H40729  10.059   9.272   8.423 -0.2408 -1.5224  2.4695
 1020MOL0     H40730   9.795   9.340   8.405  0.8533 -0.5787  1.4037
 1020MOL0     H40731   9.800   9.258   8.249 -2.1020 -0.6874  2.3298
 1020MOL0     H40732   9.843   9.500   8.234  0.4426  0.6685  0.3484
 1020MOL0     H40733   9.965   9.499   8.354 -1.5491 -0.4072  1.4507
 1020MOL0     H40734   9.995   9.351   8.092  2.5471 -1.4460 -0.8028
 1020MOL0     H40735  10.122   9.384   8.204  2.7654  4.1416 -1.2688
 1020MOL0     H40736  10.063   9.639   8.160  1.0995 -0.6869  1.2883
 1020MOL0     H40737   9.981   9.574   8.013  1.2536  0.3737  0.8001
 1020MOL0     H40738  10.191   9.638   7.937 -2.9786 -0.2802  0.0711
 1020MOL0     H40739  10.223   9.470   7.954 -3.4383  0.0834 -0.2656
 1020MOL0     H40740  10.170   8.753   8.455 -1.5040  1.6903  1.7898
 1020MOL0     H40741  10.326   8.610   8.561 -2.3838  1.3258 -2.1248
 1020MOL0     H40742  10.792   8.732   8.767 -3.7784  0.2101 -0.6477
 1020MOL0     H40743  10.936   8.696   8.964 -2.5069 -0.1450  1.2316
 1020MOL0     H40744  10.963   7.460  10.585 -0.6377 -0.6065 -3.5269
 1020MOL0     H40745  10.845   7.311  10.748 -0.4405  0.7503 -1.4815
 1020MOL0     H40746  10.513   7.122  10.699  1.8146  2.1758 -0.4747
 1020MOL0     H40747  10.329   7.171  10.861 -0.2669 -0.3144  0.7593
 1020MOL0     H40748  10.369   6.919  11.243 -0.7496 -1.0909 -1.3823
 1020MOL0     H40749  10.351   7.087  11.285  1.0790  0.3189 -0.8940
 1020MOL0     H40750  10.123   6.899  11.200 -0.1162 -1.2169  0.4272
 1020MOL0     H40751  10.110   7.065  11.249  0.8494  0.1847 -1.7117
 1020MOL0     H40752  10.143   6.829  11.416 -1.4554  0.8823  1.0109
 1020MOL0     H40753  10.270   6.958  11.456  0.9755  2.1237 -0.7479
 1020MOL0     H40754   9.970   6.973  11.469 -0.3258  1.7069  0.5878
 1020MOL0     H40755  10.088   7.105  11.501  1.4887  0.5549  1.1145
 1020MOL0     H40756  10.094   6.878  11.856 -0.7157 -0.6546 -0.4894
 1020MOL0     H40757  10.566   6.957  11.153  0.2345 -1.9232 -1.7964
 1020MOL0     H40758  10.780   6.922  11.137  2.4141  0.5878  1.2108
 1020MOL0     H40759  10.835   6.878  10.976  2.0309  1.3313  1.8359
 1020MOL0     H40760  10.859   7.034  11.024 -2.0516  2.5970 -0.0405
 1021MOL0     O40761   8.419   3.254   1.451  0.1046  0.5369  0.4823
 1021MOL0     C40762   8.499   3.234   1.366 -1.0840  0.6807  0.6078
 1021MOL0     O40763   8.484   3.137   1.269  0.4501 -0.5523 -0.1030
 1021MOL0     C40764   8.370   3.071   1.260 -0.2256 -0.1773  0.4088
 1021MOL0     C40765   8.253   3.134   1.215 -0.4574  0.1093  0.0802
 1021MOL0     C40766   8.146   3.054   1.188  0.0340  0.3247  0.4711
 1021MOL0     C40767   8.150   2.917   1.199  1.0496  0.5162  0.2987
 1021MOL0     O40768   8.050   2.834   1.160  0.1345 -0.4898 -0.1380
 1021MOL0     C40769   7.916   2.898   1.148 -0.3029 -0.7439 -0.8370
 1021MOL0     C40770   7.799   2.795   1.143 -0.6824  0.0592  0.0118
 1021MOL0     C40771   7.799   2.700   1.272 -1.0930 -0.3614  0.9964
 1021MOL0     C40772   7.886   2.574   1.256 -0.8908 -0.4154  0.0351
 1021MOL0     C40773   7.884   2.475   1.374 -0.7889 -0.3794  0.9007
 1021MOL0     C40774   7.972   2.348   1.340 -0.2596 -0.3467  0.7415
 1021MOL0     C40775   7.977   2.249   1.452 -0.8467 -0.4823  0.2645
 1021MOL0     C40776   8.094   2.154   1.472 -0.7888  0.4885 -0.1965
 1021MOL0     N40777   8.090   2.081   1.349 -0.7585  0.6564 -0.3067
 1021MOL0     C40778   8.169   2.112   1.239 -0.3253  0.8935  0.6992
 1021MOL0     C40779   8.114   2.035   1.141 -0.9730 -0.2488 -0.1655
 1021MOL0     C40780   8.152   2.034   0.995 -0.1687  0.3451  1.1818
 1021MOL0     C40781   8.035   2.058   0.905 -0.5263  0.4855 -0.0865
 1021MOL0     C40782   7.941   2.165   0.959  0.7781  0.9400 -0.0229
 1021MOL0     C40783   8.000   2.311   0.960  0.6702 -0.4192 -0.0824
 1021MOL0     O40784   8.058   2.342   0.831 -0.1490  0.3533  0.2404
 1021MOL0     C40785   8.101   2.466   0.795 -0.1044  0.5558  0.4119
 1021MOL0     C40786   8.197   2.550   0.853 -0.2648  1.0939  0.9684
 1021MOL0     C40787   8.245   2.668   0.793  0.2495  0.7845  0.8865
 1021MOL0     C40788   8.361   2.731   0.851 -0.6265 -0.0507 -0.0206
 1021MOL0     C40789   8.192   2.715   0.668  0.3494  0.4644  0.2566
 1021MOL0     C40790   8.245   2.840   0.595 -0.2809  0.0616  0.4735
 1021MOL0     O40791   8.315   2.827   0.480 -0.5477  0.3519  0.8906
 1021MOL0     C40792   8.399   2.931   0.438  1.0560  0.2176 -0.3082
 1021MOL0     C40793   8.443   2.918   0.299  0.0710  1.5925 -0.1322
 1021MOL0     C40794   8.528   3.004   0.246 -0.2291 -0.5552 -0.2904
 1021MOL0     C40795   8.583   3.108   0.330 -0.2044 -0.2228  0.5647
 1021MOL0     O40796   8.662   3.204   0.268 -0.7009  0.2357  0.6871
 1021MOL0     C40797   8.604   3.271   0.159  0.3799 -0.0150  0.1198
 1021MOL0     C40798   8.499   3.366   0.200 -0.2622  0.1785 -0.5566
 1021MOL0     C40799   8.559   3.484   0.284 -0.0273  0.4805  0.1374
 1021MOL0     C40800   8.618   3.584   0.191  0.2884 -0.0457  0.3178
 1021MOL0     C40801   8.671   3.713   0.261 -0.1683  0.8520  0.1688
 1021MOL0     C40802   8.719   3.802   0.149  0.3923  0.3883  0.0821
 1021MOL0     C40803   8.725   3.949   0.199 -0.2601 -0.3732  0.1310
 1021MOL0     C40804   8.779   4.045   0.092  0.8182 -0.4204 -0.0166
 1021MOL0    Cl40805   8.831   4.198   0.175 -0.0417  0.0613 -0.7027
 1021MOL0     C40806   8.562   3.116   0.463 -1.5837 -0.1800  0.7458
 1021MOL0     C40807   8.464   3.033   0.518 -0.3953  0.7488 -0.0348
 1021MOL0     O40808   8.213   2.949   0.645  0.0080  0.0602  0.0792
 1021MOL0     C40809   8.091   2.636   0.612  0.1925  0.1542 -0.6564
 1021MOL0     C40810   8.036   2.524   0.683 -0.0613 -1.3783 -0.2673
 1021MOL0     N40811   8.012   1.958   1.199  0.5446 -0.1041  0.1626
 1021MOL0     N40812   7.998   1.983   1.324 -0.2754 -0.7811  0.1060
 1021MOL0     C40813   8.261   2.859   1.237 -0.3464 -0.6839 -0.3468
 1021MOL0     C40814   8.379   2.929   1.265  0.2427  0.6874  0.5546
 1021MOL0     C40815   8.630   3.304   1.371  0.0565  0.4606  0.9269
 1021MOL0     C40816   8.740   3.241   1.448 -0.7014  0.0992  0.0283
 1021MOL0     C40817   8.857   3.316   1.455 -0.3180  0.5440 -0.2717
 1021MOL0     C40818   8.868   3.442   1.379  0.3457  0.5789  0.1282
 1021MOL0     O40819   8.981   3.522   1.381 -0.1188 -0.4693 -0.0698
 1021MOL0     C40820   9.050   3.520   1.512 -1.0159  0.3783 -0.3451
 1021MOL0     C40821   9.115   3.648   1.556 -0.6701 -0.0849  0.8153
 1021MOL0     C40822   9.189   3.644   1.679  0.2181  0.0027  0.2153
 1021MOL0     C40823   9.311   3.558   1.683 -0.0680  0.6856  0.1568
 1021MOL0     C40824   9.429   3.634   1.735  0.0287 -0.6826  0.2071
 1021MOL0     C40825   9.540   3.689   1.764 -0.5456  0.7993 -0.0344
 1021MOL0     C40826   8.774   3.483   1.295  0.0436  0.4400 -0.4222
 1021MOL0     C40827   8.648   3.427   1.297  0.4530 -0.3801 -0.6409
 1021MOL0     C40828   8.533   3.492   1.220  0.0715 -1.1991 -0.4365
 1021MOL0     H40829   8.244   3.240   1.194  1.1886 -0.2388 -2.9171
 1021MOL0     H40830   8.062   3.114   1.154  0.4751  0.9382  0.4508
 1021MOL0     H40831   7.917   2.959   1.057 -4.2971  2.6185  1.0456
 1021MOL0     H40832   7.887   2.951   1.239  1.7186 -1.5872  0.3849
 1021MOL0     H40833   7.700   2.841   1.138 -0.8673 -0.3747 -4.9748
 1021MOL0     H40834   7.814   2.733   1.055  1.9180  1.2130 -0.4438
 1021MOL0     H40835   7.842   2.760   1.353 -0.6606 -1.2069  1.4066
 1021MOL0     H40836   7.700   2.660   1.292 -1.8132  1.0036  0.2883
 1021MOL0     H40837   7.870   2.519   1.163  1.0473 -1.4833  0.2859
 1021MOL0     H40838   7.992   2.598   1.243  0.4630 -3.0129  4.2390
 1021MOL0     H40839   7.783   2.439   1.395 -0.8266  0.7947  3.0813
 1021MOL0     H40840   7.911   2.538   1.460 -0.3626  1.3820 -0.4635
 1021MOL0     H40841   7.934   2.294   1.252 -0.3383 -0.0724  0.6058
 1021MOL0     H40842   8.067   2.395   1.314 -2.8200  2.8491 -4.5799
 1021MOL0     H40843   7.888   2.186   1.441 -0.0802 -1.2539 -1.8897
 1021MOL0     H40844   7.976   2.307   1.546  1.2564  0.0302  0.0160
 1021MOL0     H40845   8.191   2.203   1.486 -0.9291  0.6061  0.3759
 1021MOL0     H40846   8.074   2.090   1.558  1.7618  0.8868  0.7808
 1021MOL0     H40847   8.245   2.187   1.219 -1.1295  1.1054 -1.8705
 1021MOL0     H40848   8.197   1.940   0.962  0.9720  2.1977 -3.1531
 1021MOL0     H40849   8.224   2.112   0.968 -2.5438  1.5760 -2.2526
 1021MOL0     H40850   8.079   2.077   0.807  2.2300 -0.0336  0.9691
 1021MOL0     H40851   7.971   1.970   0.905 -0.3882  0.2606  3.5259
 1021MOL0     H40852   7.853   2.167   0.894  1.9175 -2.9917 -1.9946
 1021MOL0     H40853   7.908   2.138   1.060  1.6532 -2.6109 -0.5481
 1021MOL0     H40854   7.931   2.395   0.974 -4.1806 -3.2035 -4.1459
 1021MOL0     H40855   8.083   2.308   1.030  2.0707  0.5773 -1.6180
 1021MOL0     H40856   8.254   2.515   0.938  2.3070  1.0917 -0.6515
 1021MOL0     H40857   8.448   2.716   0.786 -2.3820  2.8361 -3.4236
 1021MOL0     H40858   8.368   2.686   0.950 -2.8049  2.4363  1.4083
 1021MOL0     H40859   8.333   2.837   0.854 -1.3700 -0.2186 -0.7730
 1021MOL0     H40860   8.387   2.852   0.233 -2.3508  1.1204  2.2035
 1021MOL0     H40861   8.566   2.989   0.146  3.8133  3.2279  0.3999
 1021MOL0     H40862   8.679   3.324   0.099  0.0610  1.4159  0.9413
 1021MOL0     H40863   8.556   3.207   0.084 -0.4346  0.2992  0.3641
 1021MOL0     H40864   8.441   3.407   0.116 -0.9541 -0.7930 -0.5698
 1021MOL0     H40865   8.423   3.313   0.258 -1.3400  0.1553 -1.9340
 1021MOL0     H40866   8.643   3.449   0.345 -0.8640 -3.1502 -0.5771
 1021MOL0     H40867   8.477   3.536   0.336 -2.0550 -2.9578  0.6775
 1021MOL0     H40868   8.537   3.617   0.125 -0.7223 -1.5940  0.7364
 1021MOL0     H40869   8.707   3.549   0.138  0.4132 -1.0817  1.1880
 1021MOL0     H40870   8.599   3.760   0.328  2.4619  0.2399  3.7362
 1021MOL0     H40871   8.759   3.689   0.321  1.3922  2.7169 -1.2177
 1021MOL0     H40872   8.654   3.796   0.061 -1.9764  0.6552  1.7201
 1021MOL0     H40873   8.816   3.760   0.120  0.2392 -2.2333  2.8512
 1021MOL0     H40874   8.793   3.972   0.281 -0.6707  2.7533 -0.2974
 1021MOL0     H40875   8.630   3.980   0.243  0.2474 -0.3974  1.2724
 1021MOL0     H40876   8.698   4.061   0.020  2.4173 -2.2261 -2.3579
 1021MOL0     H40877   8.869   4.014   0.038 -0.5124 -0.7767 -2.1382
 1021MOL0     H40878   8.608   3.197   0.518  2.1330 -1.1398 -0.6372
 1021MOL0     H40879   8.435   3.044   0.622 -0.4305 -0.2103  0.0641
 1021MOL0     H40880   8.028   2.669   0.530 -0.6499 -1.6829 -0.7925
 1021MOL0     H40881   7.951   2.480   0.633 -1.4187  2.1215 -1.3405
 1021MOL0     H40882   8.260   2.753   1.261  1.5110 -0.7276 -0.3493
 1021MOL0     H40883   8.471   2.881   1.297 -1.2731 -1.7881  1.4324
 1021MOL0     H40884   8.749   3.140   1.488 -3.0834 -1.6976 -3.4760
 1021MOL0     H40885   8.949   3.281   1.500  0.4605  0.9537 -1.5098
 1021MOL0     H40886   8.981   3.500   1.594  0.2095  1.7207  1.0888
 1021MOL0     H40887   9.123   3.439   1.504 -5.2127 -3.7761 -0.2840
 1021MOL0     H40888   9.039   3.726   1.560 -1.0631 -0.3974 -0.2360
 1021MOL0     H40889   9.182   3.684   1.477 -1.8182  3.4102  1.2591
 1021MOL0     H40890   9.213   3.750   1.696  1.1524 -0.1872  0.1614
 1021MOL0     H40891   9.121   3.625   1.762 -1.2528 -3.5233 -1.6212
 1021MOL0     H40892   9.323   3.512   1.585 -1.1414 -0.1572  0.4014
 1021MOL0     H40893   9.301   3.478   1.757 -3.2113  0.8608  0.0223
 1021MOL0     H40894   9.618   3.756   1.794 -0.5710  0.9825 -0.3599
 1021MOL0     H40895   8.779   3.570   1.232  0.7483  0.7938  0.1187
 1021MOL0     H40896   8.448   3.444   1.269 -0.7768  0.3009 -0.3799
 1021MOL0     H40897   8.522   3.598   1.248 -0.8253 -1.1747 -0.8504
 1021MOL0     H40898   8.525   3.464   1.115 -4.1613 -4.1550  0.4391
 1022MOL0     O40899   4.734   2.871   3.280 -0.1790 -1.0232 -0.6374
 1022MOL0     C40900   4.700   2.969   3.344  0.4999 -0.8380 -1.0308
 1022MOL0     O40901   4.734   2.993   3.480 -0.0314  0.7062  0.2325
 1022MOL0     C40902   4.814   2.907   3.551 -0.0761 -0.4451 -0.0055
 1022MOL0     C40903   4.797   2.772   3.564 -0.5205 -0.1219  0.0886
 1022MOL0     C40904   4.878   2.689   3.647  0.0162  0.1265 -0.5094
 1022MOL0     C40905   4.977   2.751   3.724  0.8370 -0.7308  1.0933
 1022MOL0     O40906   5.045   2.670   3.803 -0.5304  0.0127 -0.4064
 1022MOL0     C40907   5.140   2.727   3.894  0.5311  0.2237 -0.3237
 1022MOL0     C40908   5.195   2.613   3.974 -1.0568 -0.1430  0.1404
 1022MOL0     C40909   5.296   2.521   3.896 -0.9931 -0.1903 -0.6955
 1022MOL0     C40910   5.424   2.583   3.850  0.0879  0.1257  0.6528
 1022MOL0     C40911   5.538   2.622   3.950  0.1679 -0.5103  0.2669
 1022MOL0     C40912   5.577   2.520   4.054  0.2142 -0.3975  0.3906
 1022MOL0     C40913   5.677   2.542   4.163 -1.8481  0.6504  0.5783
 1022MOL0     C40914   5.616   2.636   4.265 -0.0712 -0.1034 -0.0018
 1022MOL0     N40915   5.670   2.602   4.402  0.0594 -0.0538  0.4546
 1022MOL0     C40916   5.805   2.577   4.434 -0.1789 -1.6188 -0.3694
 1022MOL0     C40917   5.806   2.534   4.567  1.2680 -0.6977  0.0502
 1022MOL0     C40918   5.934   2.494   4.639 -0.3416 -0.1539  0.1089
 1022MOL0     C40919   6.024   2.619   4.681  0.7879 -0.1550  0.2322
 1022MOL0     C40920   5.957   2.744   4.750 -1.3750 -0.1711  0.7509
 1022MOL0     C40921   5.869   2.843   4.656 -0.1549  0.0978 -0.5811
 1022MOL0     O40922   5.952   2.871   4.552 -0.2994  0.2415 -0.0952
 1022MOL0     C40923   5.890   2.899   4.435  0.2242 -0.1817 -0.6440
 1022MOL0     C40924   5.956   2.864   4.317 -0.3663 -0.2721  0.0699
 1022MOL0     C40925   5.908   2.891   4.192  0.1594 -1.2044  0.5924
 1022MOL0     C40926   5.995   2.870   4.066 -0.7850  0.6553  0.0912
 1022MOL0     C40927   5.783   2.961   4.178 -0.6937  0.2689 -0.2910
 1022MOL0     C40928   5.717   3.013   4.055 -0.4791 -0.6069  1.0304
 1022MOL0     O40929   5.595   3.074   4.075 -0.5687 -0.4115 -0.3441
 1022MOL0     C40930   5.510   3.105   3.973  1.1385  1.2056 -0.0534
 1022MOL0     C40931   5.549   3.166   3.853 -0.2219  0.7771 -0.4689
 1022MOL0     C40932   5.461   3.182   3.751  1.2900  0.2361 -0.7072
 1022MOL0     C40933   5.329   3.139   3.765  0.6598  1.1815  0.1591
 1022MOL0     O40934   5.235   3.145   3.671 -0.0395 -0.4368  0.0095
 1022MOL0     C40935   5.258   3.207   3.547 -0.2425 -0.1085  0.9066
 1022MOL0     C40936   5.133   3.197   3.469  0.0118 -1.1463 -0.5253
 1022MOL0     C40937   5.148   3.253   3.321  0.8233 -0.5015  0.4314
 1022MOL0     C40938   5.004   3.229   3.267 -0.4766 -0.5710 -0.5516
 1022MOL0     C40939   4.975   3.275   3.122  0.5507  0.0270 -0.4593
 1022MOL0     C40940   5.071   3.202   3.016 -0.4451  0.7646 -0.1699
 1022MOL0     C40941   5.060   3.038   3.017 -0.7561 -0.5924 -0.6470
 1022MOL0     C40942   4.913   2.987   2.999  0.1236 -0.0464  0.3593
 1022MOL0    Cl40943   4.913   2.807   2.992  0.0810 -0.2055 -0.3695
 1022MOL0     C40944   5.285   3.076   3.891  0.0386  0.3778 -0.0764
 1022MOL0     C40945   5.374   3.063   3.992 -0.3865 -0.6873  0.5230
 1022MOL0     O40946   5.780   3.008   3.947  0.4615  1.4796  0.3087
 1022MOL0     C40947   5.710   2.976   4.297  0.2296 -0.3450 -0.8350
 1022MOL0     C40948   5.754   2.936   4.423 -1.0534 -0.8622 -0.4888
 1022MOL0     N40949   5.669   2.532   4.612 -0.4784  0.1860  1.3038
 1022MOL0     N40950   5.596   2.568   4.511  0.2642  0.6775  0.2077
 1022MOL0     C40951   4.982   2.888   3.721  0.3560  0.2805  0.0426
 1022MOL0     C40952   4.905   2.970   3.627 -0.7859 -0.2158  0.5243
 1022MOL0     C40953   4.635   3.075   3.259  0.4136  0.7241 -1.5157
 1022MOL0     C40954   4.598   3.037   3.136 -0.5115  0.6849  0.3209
 1022MOL0     C40955   4.524   3.123   3.045 -0.7696 -0.1944 -0.7368
 1022MOL0     C40956   4.490   3.245   3.096 -0.9819  0.7307 -0.4890
 1022MOL0     O40957   4.402   3.333   3.031 -0.2229  0.3852  0.2292
 1022MOL0     C40958   4.360   3.307   2.891 -0.5675  0.2419 -0.2184
 1022MOL0     C40959   4.238   3.397   2.852 -0.6226  0.4051  0.4711
 1022MOL0     C40960   4.278   3.550   2.861  0.6525  0.2996  1.5652
 1022MOL0     C40961   4.232   3.613   2.721  0.2511 -0.1178 -0.6879
 1022MOL0     C40962   4.241   3.758   2.747 -0.7978 -0.1287  0.6731
 1022MOL0     C40963   4.225   3.879   2.773  1.3226  0.0536 -0.2439
 1022MOL0     C40964   4.530   3.291   3.222 -0.0722  0.1701 -0.1552
 1022MOL0     C40965   4.608   3.205   3.305  1.4048  0.3529  1.1475
 1022MOL0     C40966   4.615   3.263   3.446  0.0949  0.6998 -0.4215
 1022MOL0     H40967   4.721   2.720   3.506 -1.5797  2.7336 -1.2897
 1022MOL0     H40968   4.860   2.581   3.648 -0.9751  0.0861 -4.9091
 1022MOL0     H40969   5.093   2.796   3.965  0.4744 -0.3878  0.2425
 1022MOL0     H40970   5.208   2.780   3.827 -0.8269 -0.1251 -2.0560
 1022MOL0     H40971   5.237   2.656   4.065 -0.3417  2.0294 -1.1684
 1022MOL0     H40972   5.103   2.557   3.995 -1.1395 -0.9398 -2.0440
 1022MOL0     H40973   5.325   2.443   3.968 -2.3610 -0.5616 -0.5137
 1022MOL0     H40974   5.246   2.467   3.814 -0.6422 -0.6669 -0.6010
 1022MOL0     H40975   5.472   2.509   3.785 -3.0360 -2.2449  0.7987
 1022MOL0     H40976   5.389   2.667   3.790 -1.9531 -1.2064 -0.1182
 1022MOL0     H40977   5.513   2.714   4.003  2.4858  0.6758 -0.5428
 1022MOL0     H40978   5.619   2.637   3.878  0.3842 -0.6115  0.4838
 1022MOL0     H40979   5.482   2.494   4.100  1.2301  0.0055  2.8643
 1022MOL0     H40980   5.606   2.438   3.987 -0.4686 -0.1727 -0.1966
 1022MOL0     H40981   5.770   2.583   4.122 -2.4108 -0.2739 -1.8371
 1022MOL0     H40982   5.688   2.448   4.218 -4.0488  0.1760  0.3112
 1022MOL0     H40983   5.643   2.736   4.231 -0.3004  0.2519  0.8510
 1022MOL0     H40984   5.508   2.622   4.263 -0.3628  1.8331  0.2636
 1022MOL0     H40985   5.897   2.589   4.377  0.5395  0.3208  1.0814
 1022MOL0     H40986   5.991   2.419   4.584  0.4683  1.8624 -1.9445
 1022MOL0     H40987   5.907   2.452   4.737 -2.4311  1.5250  0.3456
 1022MOL0     H40988   6.104   2.598   4.752  0.3832  0.3297  0.8446
 1022MOL0     H40989   6.080   2.647   4.591  0.5758  0.0261  0.1561
 1022MOL0     H40990   5.894   2.704   4.830  1.2220 -2.3796  1.8437
 1022MOL0     H40991   6.039   2.798   4.798  1.2489 -2.3229 -1.0463
 1022MOL0     H40992   5.776   2.800   4.619 -1.4863  1.3985  1.0397
 1022MOL0     H40993   5.851   2.935   4.714  1.3219 -0.0626  0.1852
 1022MOL0     H40994   6.054   2.818   4.324  0.7127  1.5724 -1.8218
 1022MOL0     H40995   6.093   2.827   4.090 -1.5955 -1.5118 -0.2906
 1022MOL0     H40996   6.015   2.960   4.008  1.3351 -0.2275 -0.6506
 1022MOL0     H40997   5.941   2.796   4.007  0.5297 -0.5961  0.4080
 1022MOL0     H40998   5.653   3.198   3.851  0.1761 -0.3118  1.1415
 1022MOL0     H40999   5.490   3.221   3.654  1.4086 -2.7074 -1.9920
 1022MOL0     H41000   5.291   3.309   3.566  2.1983 -0.5186 -0.5840
 1022MOL0     H41001   5.332   3.150   3.490 -0.9639 -0.2989  0.1411
 1022MOL0     H41002   5.103   3.092   3.465 -4.9367  0.0076 -0.7119
 1022MOL0     H41003   5.055   3.257   3.518  2.0307  1.6787 -0.5265
 1022MOL0     H41004   5.215   3.197   3.254  2.3271 -2.7280  3.5742
 1022MOL0     H41005   5.186   3.355   3.312 -1.1158  0.1360 -1.3561
 1022MOL0     H41006   4.933   3.284   3.329  0.9165 -0.1127  0.6798
 1022MOL0     H41007   4.990   3.120   3.269 -1.2176 -0.5773  3.7896
 1022MOL0     H41008   4.869   3.249   3.110  0.0240  0.6121  2.2488
 1022MOL0     H41009   4.989   3.383   3.120  0.3742  0.0547 -0.1907
 1022MOL0     H41010   5.174   3.230   3.039 -0.0901  0.8064 -1.6806
 1022MOL0     H41011   5.047   3.232   2.913 -0.0064 -0.2143 -0.5642
 1022MOL0     H41012   5.104   3.005   3.111  2.5285  1.0620 -1.4435
 1022MOL0     H41013   5.117   2.987   2.939 -1.6502 -0.7691 -1.1936
 1022MOL0     H41014   4.869   3.017   2.904 -0.2272 -1.8123 -0.0541
 1022MOL0     H41015   4.861   3.024   3.088 -1.1911 -0.9412 -0.0160
 1022MOL0     H41016   5.187   3.032   3.909  0.3996 -0.4163 -0.0374
 1022MOL0     H41017   5.365   3.003   4.081  2.9641 -1.0043  0.7936
 1022MOL0     H41018   5.619   3.036   4.306 -0.7606 -1.9196  0.1677
 1022MOL0     H41019   5.690   2.950   4.508 -1.4678 -3.5420 -0.2508
 1022MOL0     H41020   5.037   2.944   3.795 -0.7377 -1.0707  1.9480
 1022MOL0     H41021   4.930   3.075   3.620 -0.0229 -0.4714 -1.0258
 1022MOL0     H41022   4.626   2.942   3.091 -0.1307  0.3980  1.1491
 1022MOL0     H41023   4.508   3.075   2.949  2.0926  0.4842 -1.6670
 1022MOL0     H41024   4.450   3.312   2.830 -0.0392 -1.2196  0.3904
 1022MOL0     H41025   4.330   3.201   2.887 -0.4822  0.0444  2.4310
 1022MOL0     H41026   4.162   3.366   2.924  1.5105 -0.2078  2.5609
 1022MOL0     H41027   4.216   3.369   2.748  1.6437 -1.2174  0.3772
 1022MOL0     H41028   4.243   3.602   2.951 -0.6019  0.6065  0.9198
 1022MOL0     H41029   4.386   3.567   2.864  0.7958 -0.6745  2.5976
 1022MOL0     H41030   4.132   3.578   2.694 -1.3486  1.7575  2.1996
 1022MOL0     H41031   4.312   3.596   2.649 -0.7589 -1.2949 -1.5727
 1022MOL0     H41032   4.204   3.982   2.794 -4.0126 -1.0220  1.3219
 1022MOL0     H41033   4.502   3.385   3.268  0.6299  1.0259 -1.4075
 1022MOL0     H41034   4.708   3.236   3.496 -0.4153  0.9155  0.6705
 1022MOL0     H41035   4.597   3.371   3.448 -3.0923  0.2583  1.0355
 1022MOL0     H41036   4.538   3.210   3.503 -1.5339 -1.0040 -3.8827
 1023MOL0     O41037   8.234   4.134   9.812  0.4123  0.2403 -0.5738
 1023MOL0     C41038   8.267   4.155   9.931 -0.7877  0.2677 -0.1498
 1023MOL0     O41039   8.391   4.159   9.967 -1.0553 -0.3960 -0.5259
 1023MOL0     C41040   8.488   4.135   9.872 -0.5949 -0.4669 -0.0665
 1023MOL0     C41041   8.551   4.019   9.848 -0.5604  0.8341  0.2493
 1023MOL0     C41042   8.650   3.995   9.750 -0.4408  0.0737 -1.1281
 1023MOL0     C41043   8.684   4.103   9.666 -0.1308 -1.1034 -0.0670
 1023MOL0     O41044   8.782   4.100   9.570 -0.2204 -0.8654 -0.2000
 1023MOL0     C41045   8.780   3.974   9.496 -0.8205 -0.1076  0.5262
 1023MOL0     C41046   8.887   3.989   9.383 -0.2225  0.4520  1.0909
 1023MOL0     C41047   8.869   3.879   9.281 -0.3669 -0.4943  0.0032
 1023MOL0     C41048   8.975   3.833   9.189 -0.5650  0.5348  0.0196
 1023MOL0     C41049   8.915   3.718   9.113  0.0393  0.2958  0.3833
 1023MOL0     C41050   8.973   3.689   8.973 -0.3399 -0.5452  0.0293
 1023MOL0     C41051   9.124   3.670   8.986 -0.7576 -1.0561 -0.3576
 1023MOL0     C41052   9.183   3.605   8.862  0.3214  0.0441  0.5264
 1023MOL0     N41053   9.188   3.461   8.879  0.0562  0.4197 -0.3461
 1023MOL0     C41054   9.248   3.388   8.978  0.2776 -0.3560 -0.0448
 1023MOL0     C41055   9.210   3.255   8.962  1.0946  0.3974 -0.1248
 1023MOL0     C41056   9.263   3.125   9.040  0.2970 -0.4840 -0.7682
 1023MOL0     C41057   9.349   3.159   9.164  0.0843  0.0691  0.4900
 1023MOL0     C41058   9.380   3.040   9.247  1.3732 -0.9443 -0.6917
 1023MOL0     C41059   9.505   2.968   9.204  0.1813  0.7791  0.4662
 1023MOL0     O41060   9.537   2.878   9.303 -0.0438  0.6438 -0.4174
 1023MOL0     C41061   9.671   2.860   9.321  0.1074  0.3763  1.3621
 1023MOL0     C41062   9.724   2.759   9.232 -0.7833 -0.1839 -0.7206
 1023MOL0     C41063   9.854   2.715   9.240  0.0813  0.1994  0.3248
 1023MOL0     C41064   9.881   2.604   9.148  0.1261  0.1809  1.1694
 1023MOL0     C41065   9.939   2.780   9.331 -0.0837 -0.3217  0.4751
 1023MOL0     C41066  10.093   2.752   9.353 -0.2022 -0.3548  0.5853
 1023MOL0     O41067  10.153   2.799   9.461 -0.6894  0.0360 -0.1474
 1023MOL0     C41068  10.284   2.768   9.484 -0.0930  0.6407 -0.0364
 1023MOL0     C41069  10.375   2.861   9.534  0.7802 -0.0578 -0.2337
 1023MOL0     C41070  10.507   2.828   9.563 -0.3383  0.0586  0.1256
 1023MOL0     C41071  10.556   2.701   9.544 -0.7239  0.0096  0.2583
 1023MOL0     O41072  10.683   2.657   9.555 -0.1904 -0.6746 -0.7741
 1023MOL0     C41073  10.722   2.653   9.690  0.7772 -0.7398  0.9466
 1023MOL0     C41074  10.648   2.546   9.771 -0.2797 -0.6326  0.4046
 1023MOL0     C41075  10.704   2.539   9.916 -0.6364  0.4366 -0.5799
 1023MOL0     C41076  10.637   2.436  10.007 -0.0247  0.3180  0.0347
 1023MOL0     C41077  10.697   2.407  10.149  0.4606  0.7438  0.0024
 1023MOL0     C41078  10.626   2.287  10.214 -1.0525  0.3561 -0.0238
 1023MOL0     C41079  10.493   2.321  10.267  0.6335  0.8522  0.1949
 1023MOL0     C41080  10.423   2.210  10.352 -1.1108 -0.2469  0.1570
 1023MOL0    Cl41081  10.281   2.279  10.431 -0.6767  0.2925 -0.3250
 1023MOL0     C41082  10.469   2.600   9.493  0.9477 -0.6784 -0.0585
 1023MOL0     C41083  10.332   2.636   9.463  1.2664 -0.9735 -0.3665
 1023MOL0     O41084  10.147   2.700   9.257  0.5454 -0.3319 -0.8233
 1023MOL0     C41085   9.882   2.878   9.414  1.1017  0.0450 -0.5097
 1023MOL0     C41086   9.743   2.914   9.417 -0.0813  0.3144  0.4541
 1023MOL0     N41087   9.127   3.243   8.853 -0.0114 -0.5745 -0.0425
 1023MOL0     N41088   9.122   3.364   8.807 -0.3233  0.2260 -0.3434
 1023MOL0     C41089   8.608   4.220   9.677 -0.9419 -0.7558 -0.0784
 1023MOL0     C41090   8.519   4.239   9.783  0.2190 -0.3081 -0.1432
 1023MOL0     C41091   8.159   4.186  10.027  0.6721 -0.0750 -0.4674
 1023MOL0     C41092   8.203   4.204  10.165  0.3663  0.9635  0.3893
 1023MOL0     C41093   8.101   4.229  10.264  0.6112 -0.1161 -0.6218
 1023MOL0     C41094   7.963   4.246  10.232 -0.4588  0.0559  0.7507
 1023MOL0     O41095   7.866   4.250  10.335  0.2777  0.1807 -0.0475
 1023MOL0     C41096   7.747   4.177  10.330 -0.4261 -0.9369 -0.6154
 1023MOL0     C41097   7.764   4.033  10.293 -0.0107  0.3355 -0.3142
 1023MOL0     C41098   7.852   3.963  10.393  0.2273 -0.3497 -0.1321
 1023MOL0     C41099   7.848   3.813  10.376  0.8973 -0.2669  0.4689
 1023MOL0     C41100   7.729   3.747  10.440 -0.2073  0.0329 -1.3191
 1023MOL0     C41101   7.646   3.713  10.521  0.7240  0.4964  0.0722
 1023MOL0     C41102   7.932   4.225  10.096  0.6543  0.9219 -0.5478
 1023MOL0     C41103   8.016   4.189  10.001 -0.6311  0.2634  0.1093
 1023MOL0     C41104   7.961   4.162   9.865 -0.2745  0.3023  0.3236
 1023MOL0     H41105   8.534   3.933   9.912 -0.4305 -0.4226 -1.3441
 1023MOL0     H41106   8.713   3.907   9.749 -0.8506 -0.6916  4.7376
 1023MOL0     H41107   8.685   3.954   9.444 -1.2168  1.3192  0.6524
 1023MOL0     H41108   8.794   3.888   9.563  1.9898  0.5762  0.9337
 1023MOL0     H41109   8.878   4.088   9.338  1.3477 -0.2273 -0.8813
 1023MOL0     H41110   8.989   3.988   9.423 -0.0923  0.2487  0.7516
 1023MOL0     H41111   8.859   3.786   9.337  3.6355  0.5755  3.0330
 1023MOL0     H41112   8.784   3.902   9.217 -1.6814 -3.8616  0.3398
 1023MOL0     H41113   8.996   3.916   9.120  0.3327  1.5261  1.4143
 1023MOL0     H41114   9.062   3.799   9.246 -1.9179  0.8233  2.3664
 1023MOL0     H41115   8.810   3.737   9.089 -1.4616 -3.2790  3.1445
 1023MOL0     H41116   8.913   3.622   9.165 -5.8826  0.6070  1.4994
 1023MOL0     H41117   8.932   3.596   8.933  0.4813 -0.9396  0.0874
 1023MOL0     H41118   8.930   3.761   8.903 -1.9918 -1.0834  0.4370
 1023MOL0     H41119   9.137   3.616   9.080  1.0089 -0.3567 -0.1817
 1023MOL0     H41120   9.174   3.767   8.992 -0.8864 -1.0999  2.0538
 1023MOL0     H41121   9.143   3.637   8.765  1.2185 -0.9360 -0.1894
 1023MOL0     H41122   9.287   3.637   8.856 -0.0606  1.0549 -2.5478
 1023MOL0     H41123   9.320   3.428   9.050  1.0570 -0.3432 -0.8128
 1023MOL0     H41124   9.324   3.059   8.977 -1.8297 -4.3352  0.8538
 1023MOL0     H41125   9.171   3.077   9.073 -0.3632  1.0293 -0.3400
 1023MOL0     H41126   9.439   3.207   9.125  0.8456 -1.9457 -0.3252
 1023MOL0     H41127   9.288   3.221   9.232 -0.3575  0.5342 -0.3139
 1023MOL0     H41128   9.388   3.063   9.353  0.5011 -1.9249 -0.3908
 1023MOL0     H41129   9.296   2.970   9.253  0.8603 -0.2431  0.5524
 1023MOL0     H41130   9.486   2.906   9.116  1.8935  1.2668 -0.2885
 1023MOL0     H41131   9.587   3.036   9.178  2.5263 -2.2492 -0.6231
 1023MOL0     H41132   9.654   2.716   9.161  0.8983 -1.4682 -1.6692
 1023MOL0     H41133   9.932   2.519   9.194  0.1593  0.8479  2.4163
 1023MOL0     H41134   9.939   2.636   9.061  1.2607 -1.2377  1.3749
 1023MOL0     H41135   9.790   2.566   9.101  0.0213 -0.2430  1.7070
 1023MOL0     H41136  10.337   2.956   9.571 -1.2501 -2.1625  3.5663
 1023MOL0     H41137  10.572   2.911   9.589 -1.4980  0.7644  0.8462
 1023MOL0     H41138  10.830   2.643   9.698  1.0878  1.8059  0.8353
 1023MOL0     H41139  10.712   2.747   9.746  1.6463 -0.2556  0.3024
 1023MOL0     H41140  10.539   2.551   9.769 -0.2374  0.9363 -1.5489
 1023MOL0     H41141  10.676   2.443   9.744  0.7895 -0.9045  2.3346
 1023MOL0     H41142  10.710   2.641   9.956 -0.3909  1.1347 -2.2862
 1023MOL0     H41143  10.807   2.503   9.902 -0.6386 -0.0193  0.4974
 1023MOL0     H41144  10.614   2.349   9.945  0.1998  0.5471 -0.3808
 1023MOL0     H41145  10.545   2.483  10.042  1.5172  2.1888  1.8091
 1023MOL0     H41146  10.800   2.372  10.143 -0.4753 -2.0525 -1.4501
 1023MOL0     H41147  10.681   2.486  10.223  1.9602 -1.5716  3.0327
 1023MOL0     H41148  10.694   2.253  10.292 -0.3101  1.4638 -0.1696
 1023MOL0     H41149  10.611   2.212  10.136 -1.4062  0.9245 -0.5162
 1023MOL0     H41150  10.437   2.335  10.174  2.7794  0.0600 -1.2935
 1023MOL0     H41151  10.507   2.405  10.335  0.0315  1.5908 -0.5795
 1023MOL0     H41152  10.488   2.169  10.429  0.6022  2.8210  0.5171
 1023MOL0     H41153  10.396   2.129  10.283 -1.5079  0.4940 -0.5728
 1023MOL0     H41154  10.505   2.502   9.462  0.5909 -1.0750  0.7450
 1023MOL0     H41155  10.267   2.555   9.432 -1.5211  1.2736 -0.8431
 1023MOL0     H41156   9.939   2.919   9.497 -2.1967  1.8675  1.0537
 1023MOL0     H41157   9.693   2.989   9.478  1.1219  1.7038 -0.2091
 1023MOL0     H41158   8.620   4.301   9.606  0.9257 -0.6575  0.3139
 1023MOL0     H41159   8.475   4.338   9.783  1.8747  0.5085  2.1310
 1023MOL0     H41160   8.305   4.199  10.200 -0.7192 -0.5163  3.7366
 1023MOL0     H41161   8.134   4.240  10.367  0.5688  1.8892 -0.7738
 1023MOL0     H41162   7.699   4.188  10.428  0.7140 -1.4760  0.0190
 1023MOL0     H41163   7.685   4.211  10.246  2.4882 -1.2606 -3.0738
 1023MOL0     H41164   7.811   4.010  10.197  1.1468  2.4869 -0.3232
 1023MOL0     H41165   7.664   3.990  10.290 -1.0931  2.7576 -1.1771
 1023MOL0     H41166   7.956   3.996  10.380  0.1870 -0.2681 -0.2394
 1023MOL0     H41167   7.821   3.991  10.495  2.3835 -2.8516  1.3494
 1023MOL0     H41168   7.931   3.764  10.426 -0.2668 -1.3749  1.3888
 1023MOL0     H41169   7.845   3.787  10.270 -3.0598  3.7709 -0.7693
 1023MOL0     H41170   7.576   3.677  10.594  3.1124  2.0996  3.3807
 1023MOL0     H41171   7.824   4.229  10.088  0.1286  0.9806  4.1392
 1023MOL0     H41172   7.972   4.055   9.845 -1.4683  0.0273  1.0149
 1023MOL0     H41173   7.855   4.190   9.864 -1.0631 -2.3509  1.3068
 1023MOL0     H41174   8.022   4.204   9.784  3.4447 -1.5913  1.9023
 1024MOL0     O41175   2.877   7.906   9.759 -0.0781 -0.2248  0.0180
 1024MOL0     C41176   2.772   7.923   9.693  0.3548 -0.1091 -0.7693
 1024MOL0     O41177   2.750   7.893   9.564 -0.0382  0.3285  0.3026
 1024MOL0     C41178   2.848   7.829   9.481  1.0523 -0.2141 -0.2402
 1024MOL0     C41179   2.839   7.686   9.474  0.0201 -0.2383  0.8241
 1024MOL0     C41180   2.916   7.632   9.370 -1.6637 -0.3551 -0.0271
 1024MOL0     C41181   3.014   7.706   9.289  0.1398  0.8722 -0.2934
 1024MOL0     O41182   3.079   7.648   9.180 -0.0072  0.2716 -0.3297
 1024MOL0     C41183   3.167   7.533   9.219 -0.1802 -0.1470 -0.6302
 1024MOL0     C41184   3.304   7.592   9.273  0.3953  0.3798  0.0333
 1024MOL0     C41185   3.377   7.690   9.163 -1.2149  0.2951 -0.3606
 1024MOL0     C41186   3.493   7.780   9.222 -0.1292  0.4801 -0.3023
 1024MOL0     C41187   3.523   7.879   9.111 -0.4398  0.4436  0.5023
 1024MOL0     C41188   3.621   7.993   9.155 -0.2728 -0.2184 -0.1044
 1024MOL0     C41189   3.637   8.114   9.062  0.2741  0.3396  0.9321
 1024MOL0     C41190   3.526   8.211   9.062 -0.3684  0.8041 -0.1380
 1024MOL0     N41191   3.497   8.260   9.197 -0.2504 -0.2167 -0.7006
 1024MOL0     C41192   3.594   8.308   9.289  0.5298 -0.1567 -0.3798
 1024MOL0     C41193   3.528   8.305   9.402 -1.1210  1.0844 -0.5315
 1024MOL0     C41194   3.594   8.342   9.532 -0.6368 -0.2437  0.2985
 1024MOL0     C41195   3.592   8.239   9.646  0.3611  0.0514 -0.3926
 1024MOL0     C41196   3.637   8.103   9.592  0.2518  0.9753  1.2975
 1024MOL0     C41197   3.659   8.005   9.712 -0.3137 -0.7729 -0.5241
 1024MOL0     O41198   3.708   7.881   9.673  0.5121  0.0130 -0.4933
 1024MOL0     C41199   3.831   7.884   9.611 -0.5757  1.3887  0.1088
 1024MOL0     C41200   3.847   7.788   9.508 -0.3899  0.1244 -0.7963
 1024MOL0     C41201   3.976   7.762   9.456  0.4031 -0.2303  0.2996
 1024MOL0     C41202   3.984   7.645   9.369  0.2366  0.0330 -0.5111
 1024MOL0     C41203   4.088   7.832   9.509  0.0696 -0.4547  0.8243
 1024MOL0     C41204   4.226   7.800   9.469  0.2875  0.2355 -0.7169
 1024MOL0     O41205   4.318   7.896   9.492  0.8212 -0.8883 -0.5693
 1024MOL0     C41206   4.370   7.965   9.383 -1.0703 -0.2753  0.4688
 1024MOL0     C41207   4.485   8.048   9.401  0.4601  0.4827 -0.7551
 1024MOL0     C41208   4.528   8.120   9.292 -0.3014  0.0981  0.3981
 1024MOL0     C41209   4.449   8.132   9.174  0.3610  0.9874 -0.7733
 1024MOL0     O41210   4.492   8.211   9.068  0.7320 -0.1704 -0.4434
 1024MOL0     C41211   4.549   8.343   9.096 -0.6829 -1.0355  0.9536
 1024MOL0     C41212   4.572   8.406   8.959 -0.6604 -0.5303  0.3579
 1024MOL0     C41213   4.452   8.405   8.867  0.5595 -0.6912 -0.4712
 1024MOL0     C41214   4.460   8.482   8.744 -1.1532  0.4886  0.9725
 1024MOL0     C41215   4.583   8.447   8.653  0.1554  0.9352  0.4716
 1024MOL0     C41216   4.580   8.311   8.580  0.1096 -0.5168 -0.2526
 1024MOL0     C41217   4.712   8.257   8.521 -0.7140  0.4141 -0.2522
 1024MOL0     C41218   4.720   8.103   8.503 -0.5134  0.3480  0.3365
 1024MOL0    Cl41219   4.701   8.005   8.651  0.3153 -0.4771  0.2165
 1024MOL0     C41220   4.339   8.041   9.150 -0.0820 -0.7091 -0.6310
 1024MOL0     C41221   4.302   7.960   9.256  0.3993 -1.2738 -0.0840
 1024MOL0     O41222   4.253   7.691   9.432 -0.3608  0.4921  0.6229
 1024MOL0     C41223   4.068   7.927   9.603 -0.1226 -0.0960 -0.2711
 1024MOL0     C41224   3.941   7.945   9.667  0.9699  0.5426 -0.0746
 1024MOL0     N41225   3.398   8.272   9.383  0.2861 -0.5547 -0.8383
 1024MOL0     N41226   3.382   8.241   9.267 -0.4506  0.5655  0.3103
 1024MOL0     C41227   3.025   7.840   9.310  0.3477 -0.0945 -0.5562
 1024MOL0     C41228   2.944   7.901   9.417 -0.1640  0.3707  0.0080
 1024MOL0     C41229   2.666   7.990   9.757  0.4970 -0.1238 -0.8542
 1024MOL0     C41230   2.681   8.124   9.798  1.1972 -0.1654  0.3601
 1024MOL0     C41231   2.585   8.193   9.864 -0.4260 -0.5346 -1.0250
 1024MOL0     C41232   2.453   8.140   9.887  0.7386  1.2014  0.3511
 1024MOL0     O41233   2.349   8.199   9.955  0.0778  1.2700 -0.3534
 1024MOL0     C41234   2.367   8.335   9.995 -0.2179 -0.4381 -0.3837
 1024MOL0     C41235   2.230   8.376  10.060  0.5689 -0.1312 -0.3638
 1024MOL0     C41236   2.198   8.535  10.053 -0.2658  0.9267  0.0354
 1024MOL0     C41237   2.087   8.577  10.142  1.2216 -2.1682 -0.1858
 1024MOL0     C41238   1.955   8.533  10.091 -0.7158  0.2104  0.4765
 1024MOL0     C41239   1.847   8.486  10.067  0.1276 -0.0346 -0.6104
 1024MOL0     C41240   2.442   7.997   9.846  0.8545 -0.5708 -0.7748
 1024MOL0     C41241   2.547   7.920   9.787  0.0995 -0.3731 -0.2428
 1024MOL0     C41242   2.511   7.783   9.733 -0.3879 -0.2046  0.0070
 1024MOL0     H41243   2.757   7.639   9.527 -1.8833  2.5274  0.6064
 1024MOL0     H41244   2.910   7.529   9.339  1.7030 -1.1895  1.6365
 1024MOL0     H41245   3.189   7.478   9.127 -1.5866  0.2235 -1.2127
 1024MOL0     H41246   3.128   7.462   9.293 -2.2892  1.7062  0.1355
 1024MOL0     H41247   3.279   7.640   9.367 -0.8432 -2.0123  1.0191
 1024MOL0     H41248   3.378   7.517   9.303 -0.1709 -0.2599 -0.1195
 1024MOL0     H41249   3.418   7.635   9.077  2.0792  1.3759  0.3930
 1024MOL0     H41250   3.299   7.759   9.128 -1.0845  0.9592  0.6261
 1024MOL0     H41251   3.459   7.819   9.318  0.1427 -3.6833  1.7047
 1024MOL0     H41252   3.585   7.728   9.252  1.0780  0.2150 -3.9050
 1024MOL0     H41253   3.431   7.919   9.068 -0.8153  0.2648  1.1375
 1024MOL0     H41254   3.588   7.827   9.039  6.0300  1.3901  4.7805
 1024MOL0     H41255   3.586   8.024   9.253 -0.5954 -0.5764 -0.1068
 1024MOL0     H41256   3.712   7.935   9.173 -0.9824 -1.4516 -0.3679
 1024MOL0     H41257   3.671   8.084   8.963 -0.8334  4.2330 -0.8396
 1024MOL0     H41258   3.725   8.170   9.094  2.0553 -2.7994  1.9670
 1024MOL0     H41259   3.561   8.301   9.012  1.7738  0.6234  0.9383
 1024MOL0     H41260   3.436   8.166   9.017 -2.0580  3.2395  0.5871
 1024MOL0     H41261   3.700   8.328   9.280 -0.1065  3.4697 -1.2756
 1024MOL0     H41262   3.547   8.436   9.562  1.6203  1.7660 -2.0566
 1024MOL0     H41263   3.695   8.377   9.513 -0.9806  2.6080  2.8600
 1024MOL0     H41264   3.646   8.274   9.734 -2.4858  0.1846  1.4472
 1024MOL0     H41265   3.491   8.233   9.689  0.7239  0.8475  0.5905
 1024MOL0     H41266   3.561   8.066   9.523  2.2294 -1.7677  0.4091
 1024MOL0     H41267   3.733   8.120   9.541  0.0318  1.5693  1.0729
 1024MOL0     H41268   3.722   8.050   9.790  1.5932 -0.2837 -2.2543
 1024MOL0     H41269   3.557   7.987   9.747 -0.7692 -0.7511 -1.8153
 1024MOL0     H41270   3.758   7.737   9.471  0.3220 -0.0597 -2.3419
 1024MOL0     H41271   3.886   7.634   9.321 -1.4788  3.5202  1.7693
 1024MOL0     H41272   4.030   7.564   9.425  1.7121  0.2260 -1.3806
 1024MOL0     H41273   4.046   7.664   9.281  1.6405  0.2667  0.4906
 1024MOL0     H41274   4.531   8.057   9.499  1.7817  1.9861 -1.4585
 1024MOL0     H41275   4.630   8.153   9.283  0.1164 -1.5318 -1.4449
 1024MOL0     H41276   4.486   8.401   9.164 -0.1416 -0.8608  1.3096
 1024MOL0     H41277   4.644   8.329   9.148  0.6417 -2.2802 -1.6231
 1024MOL0     H41278   4.621   8.502   8.978  0.3018 -0.8700 -0.3455
 1024MOL0     H41279   4.656   8.348   8.920 -0.6035 -0.3175  0.1528
 1024MOL0     H41280   4.367   8.437   8.927  2.1793  0.0878  1.5277
 1024MOL0     H41281   4.441   8.297   8.850 -1.4666 -0.8280  1.2898
 1024MOL0     H41282   4.477   8.583   8.783  0.8736 -0.6924  3.4345
 1024MOL0     H41283   4.368   8.475   8.684  1.4293  2.2051 -3.7024
 1024MOL0     H41284   4.592   8.522   8.574  2.9866 -0.9720 -1.2392
 1024MOL0     H41285   4.679   8.446   8.706  0.9760  0.0062 -0.9420
 1024MOL0     H41286   4.505   8.314   8.501  1.3768 -0.7309 -1.5102
 1024MOL0     H41287   4.544   8.237   8.652 -0.1446  3.3904  4.1462
 1024MOL0     H41288   4.800   8.286   8.578 -0.2427 -0.4280 -0.5340
 1024MOL0     H41289   4.718   8.314   8.428  1.7624  2.3121  0.9586
 1024MOL0     H41290   4.814   8.072   8.455 -1.1438 -0.7336 -0.2191
 1024MOL0     H41291   4.644   8.080   8.428 -2.3827  5.1091  0.3914
 1024MOL0     H41292   4.282   8.019   9.061 -3.3104  1.3599  0.7534
 1024MOL0     H41293   4.210   7.904   9.250  0.6997 -2.1176  2.2025
 1024MOL0     H41294   4.158   7.977   9.639  2.3591 -3.9920 -0.4548
 1024MOL0     H41295   3.940   8.015   9.750 -0.9930  1.8051 -1.0801
 1024MOL0     H41296   3.105   7.895   9.261  2.8078 -2.6526  0.3372
 1024MOL0     H41297   2.957   8.006   9.440 -1.0376  0.5552 -0.3182
 1024MOL0     H41298   2.779   8.168   9.787  0.8302  0.5136 -0.3557
 1024MOL0     H41299   2.612   8.290   9.904 -0.3472 -0.0490 -2.2379
 1024MOL0     H41300   2.445   8.338  10.073 -0.7853  0.6296  0.1778
 1024MOL0     H41301   2.405   8.396   9.913 -1.4893  1.3382  0.2905
 1024MOL0     H41302   2.226   8.335  10.161 -1.0774  1.0423  0.0939
 1024MOL0     H41303   2.146   8.325  10.011 -0.7180  0.2760  1.3107
 1024MOL0     H41304   2.287   8.591  10.084  1.0057 -3.3266  6.0015
 1024MOL0     H41305   2.161   8.572   9.957 -2.3368 -0.1686  0.3625
 1024MOL0     H41306   2.079   8.685  10.127 -3.7323 -2.3893 -1.0112
 1024MOL0     H41307   2.090   8.546  10.247 -1.1286 -0.1951  0.5577
 1024MOL0     H41308   1.760   8.437  10.029 -0.0079 -1.9503  1.9204
 1024MOL0     H41309   2.344   7.956   9.866  1.4008 -0.8603  1.6912
 1024MOL0     H41310   2.529   7.789   9.625 -0.5759 -1.3747 -0.1001
 1024MOL0     H41311   2.575   7.707   9.780 -0.2190  0.0669  0.2180
 1024MOL0     H41312   2.411   7.756   9.768  0.1056  1.4460  2.9352
  11.58343  11.58343  11.58343
